/*--------------------------------*- C++ -*----------------------------------*\
| =========                 |                                                 |
| \\      /  F ield         | OpenFOAM: The Open Source CFD Toolbox           |
|  \\    /   O peration     | Version:  2506                                  |
|   \\  /    A nd           | Website:  www.openfoam.com                      |
|    \\/     M anipulation  |                                                 |
\*---------------------------------------------------------------------------*/
FoamFile
{
    version     2.0;
    format      ascii;
    arch        "LSB;label=32;scalar=64";
    class       volVectorField;
    location    "4.4";
    object      U;
}
// * * * * * * * * * * * * * * * * * * * * * * * * * * * * * * * * * * * * * //

dimensions      [0 1 -1 0 0 0 0];

internalField   nonuniform List<vector> 
4000
(
(0.00816188 0.000799217 0)
(0.0070528 0.000969024 -4.53053e-22)
(0.00555856 0.00058517 4.70009e-22)
(0.00426885 0.000296888 8.99593e-22)
(0.0034702 0.000157827 -1.81889e-21)
(0.00297527 8.77245e-05 9.13617e-22)
(0.00264005 5.08017e-05 0)
(0.00240467 3.15767e-05 0)
(0.00223554 2.13512e-05 0)
(0.00210961 1.56633e-05 1.80056e-21)
(0.00201236 1.2278e-05 -1.80459e-21)
(0.00193496 1.01566e-05 3.5838e-21)
(0.00187173 8.79209e-06 -3.58882e-21)
(0.00181882 7.88625e-06 0)
(0.00177351 7.28107e-06 0)
(0.00173378 6.89519e-06 0)
(0.00169808 6.67381e-06 3.53476e-21)
(0.00166516 6.58208e-06 -3.53708e-21)
(0.00163398 6.60108e-06 0)
(0.00160366 6.71769e-06 0)
(0.00157339 6.91989e-06 0)
(0.0015425 7.19751e-06 0)
(0.00151036 7.54169e-06 0)
(0.00147641 7.94447e-06 6.95654e-21)
(0.00144013 8.39982e-06 -1.3907e-20)
(0.00140101 8.90483e-06 6.95081e-21)
(0.00135855 9.46158e-06 0)
(0.00131221 1.00807e-05 0)
(0.00126136 1.07885e-05 0)
(0.00120521 1.16514e-05 0)
(0.0011426 1.28613e-05 -6.93137e-21)
(0.00107202 1.48626e-05 6.94033e-21)
(0.000992671 1.73868e-05 0)
(0.000876831 2.54998e-05 6.10135e-21)
(0.000745477 5.39456e-05 7.02196e-21)
(0.000681715 0.000108871 -3.52081e-20)
(0.000696093 0.000184434 -2.84106e-20)
(0.000746715 0.000272868 7.15448e-21)
(0.000820828 0.000376527 -2.87586e-20)
(0.000923466 0.000502761 -6.48264e-20)
(0.00109564 0.000661004 7.22575e-21)
(0.00134742 0.000839366 5.70266e-20)
(0.00161446 0.00100183 -5.60794e-20)
(0.00186418 0.00113765 0)
(0.00210115 0.00125023 0)
(0.00232347 0.00134065 -3.19824e-21)
(0.00254341 0.00141136 -4.67411e-20)
(0.0027511 0.00145517 -4.55291e-20)
(0.00294131 0.00147269 -2.64324e-20)
(0.00312529 0.00146402 -2.22339e-20)
(0.00328696 0.00142419 2.10136e-20)
(0.00343238 0.00135578 0)
(0.00354698 0.00125256 -2.30926e-21)
(0.00363049 0.00112042 3.82163e-20)
(0.00367379 0.000955162 0)
(0.00366413 0.000768067 -8.02395e-21)
(0.00361084 0.000566478 -1.87002e-21)
(0.0034908 0.000357888 -6.34023e-24)
(0.00333699 0.000157852 -8.4392e-23)
(0.00312249 -3.4206e-05 -8.90762e-22)
(0.00286984 -0.000197259 1.59662e-21)
(0.00260568 -0.000330465 0)
(0.00232452 -0.000430526 0)
(0.00205452 -0.00049818 3.12067e-21)
(0.00179129 -0.000536711 2.18831e-20)
(0.00155167 -0.000550914 3.15512e-21)
(0.00133376 -0.000545586 -3.16726e-21)
(0.00113988 -0.000526378 3.22801e-21)
(0.000972066 -0.000497486 9.75482e-21)
(0.000823935 -0.000462383 -2.29948e-20)
(0.000698915 -0.000424639 -3.30767e-21)
(0.000589289 -0.000385189 -6.35637e-23)
(0.000494735 -0.000346106 0)
(0.000415457 -0.000308585 0)
(0.000346129 -0.000272913 0)
(0.000287484 -0.000239936 -1.79951e-21)
(0.000238662 -0.000210115 -2.71133e-20)
(0.000197217 -0.00018333 0)
(0.000162969 -0.000159711 -1.03248e-22)
(0.000135574 -0.00013929 1.87268e-21)
(0.000113529 -0.000121717 -2.99932e-20)
(9.59919e-05 -0.000106627 2.72936e-20)
(8.21682e-05 -9.36239e-05 -9.22761e-24)
(7.0945e-05 -8.2233e-05 3.0974e-20)
(6.15791e-05 -7.20742e-05 3.08583e-22)
(5.32498e-05 -6.27481e-05 -3.04003e-20)
(4.50708e-05 -5.3828e-05 -3.08937e-20)
(3.70463e-05 -4.52566e-05 3.12996e-20)
(2.90603e-05 -3.70077e-05 -4.76535e-22)
(2.05137e-05 -2.90054e-05 -3.04994e-20)
(1.18706e-05 -2.14972e-05 0)
(3.41426e-06 -1.46094e-05 -3.12056e-20)
(-5.28605e-06 -8.46144e-06 -2.91677e-20)
(-1.36454e-05 -3.23715e-06 2.99116e-20)
(-2.13861e-05 1.05338e-06 -1.67281e-20)
(-2.86809e-05 4.17619e-06 1.84406e-21)
(-3.48503e-05 6.32816e-06 1.46799e-20)
(-4.02064e-05 7.33103e-06 1.82638e-21)
(-4.40864e-05 7.52731e-06 1.27021e-20)
(-4.65965e-05 6.74895e-06 9.03071e-21)
(-4.70976e-05 5.40909e-06 -3.60214e-21)
(-4.58792e-05 3.4431e-06 8.98547e-21)
(-4.24329e-05 1.64583e-06 -8.97986e-22)
(-3.65362e-05 4.16608e-07 -8.99804e-22)
(-2.74987e-05 4.73895e-08 -3.61927e-21)
(-1.51204e-05 1.29024e-06 0)
(1.23629e-06 4.39603e-06 0)
(2.20937e-05 1.02701e-05 -2.91379e-20)
(4.7845e-05 1.93747e-05 -9.3369e-22)
(7.92309e-05 3.25106e-05 1.55561e-20)
(0.000116781 5.02676e-05 1.52347e-20)
(0.000160763 7.33478e-05 4.81244e-22)
(0.000212214 0.000102228 -1.60163e-20)
(0.000270273 0.00013746 -1.20149e-23)
(0.000336209 0.000179302 0)
(0.000410302 0.000228086 3.1746e-20)
(0.000490499 0.000283248 -9.95278e-22)
(0.000578392 0.000345024 -2.98871e-20)
(0.000672781 0.000412603 -1.00173e-21)
(0.000771752 0.000485021 -3.19281e-20)
(0.000876228 0.000561875 -1.78208e-22)
(0.000985108 0.000641763 3.15472e-20)
(0.00109577 0.00072306 1.93433e-21)
(0.00120863 0.000805009 -3.46262e-20)
(0.00132343 0.000886242 1.90963e-21)
(0.00143835 0.000965091 2.95933e-20)
(0.00155348 0.0010405 3.54576e-21)
(0.00166814 0.00111109 -3.5556e-21)
(0.0017818 0.00117591 2.70033e-20)
(0.00189726 0.00123461 -2.22892e-20)
(0.00201273 0.00128501 -3.17237e-21)
(0.00212522 0.00132606 -4.35921e-20)
(0.00224281 0.00135887 -2.85378e-21)
(0.00236204 0.00137996 -2.064e-20)
(0.00247652 0.00138879 5.19936e-22)
(0.00260053 0.00138725 0)
(0.0027227 0.00136834 0)
(0.00283923 0.00133442 -2.32393e-22)
(0.0029583 0.0012821 0)
(0.00306642 0.00120957 -1.18996e-21)
(0.00316464 0.00111546 -2.95186e-21)
(0.00324357 0.000998092 -7.46381e-22)
(0.00329231 0.0008584 -1.16738e-21)
(0.00331182 0.000699125 -5.41078e-22)
(0.00327786 0.000521174 -6.68603e-22)
(0.00320456 0.00034051 1.71952e-22)
(0.00307272 0.000155792 0)
(0.00288386 -1.0008e-05 0)
(0.00266572 -0.000157639 0)
(0.0024048 -0.000275969 2.82793e-22)
(0.00213548 -0.000362689 -2.83766e-22)
(0.00185061 -0.000417173 -1.1496e-21)
(0.00157422 -0.000440003 -1.01966e-21)
(0.00131138 -0.000436586 0)
(0.00106969 -0.000412417 5.99828e-22)
(0.000851721 -0.000372509 0)
(0.000658051 -0.000322621 -1.87336e-23)
(0.000491071 -0.000267019 3.00779e-22)
(0.000344632 -0.000208422 -1.82006e-22)
(0.000218828 -0.000143634 3.66036e-21)
(0.00016383 -0.000104606 -1.20614e-21)
(0.000179115 -8.64643e-05 -1.44162e-21)
(0.000196388 -7.59811e-05 0)
(0.000228446 -6.67781e-05 0)
(0.00028505 -5.76364e-05 0)
(0.000372346 -4.49538e-05 0)
(0.000507144 -3.32314e-05 0)
(0.000677404 -2.58493e-05 6.15265e-22)
(0.000835515 -2.28597e-05 5.57946e-24)
(0.000971512 -2.1006e-05 -3.00774e-24)
(0.00108969 -1.88542e-05 -6.15698e-22)
(0.00118993 -1.63659e-05 0)
(0.00127213 -1.37261e-05 5.61988e-22)
(0.0013372 -1.10919e-05 -5.60638e-22)
(0.00138676 -8.58167e-06 1.61495e-23)
(0.0014229 -6.29388e-06 0)
(0.00144799 -4.30779e-06 0)
(0.00146454 -2.68e-06 -4.13065e-22)
(0.00147496 -1.43083e-06 4.12444e-22)
(0.00148155 -5.77818e-07 0)
(0.00148631 -1.0028e-07 0)
(0.00149078 4.53543e-08 -1.44454e-22)
(0.00149602 -6.56237e-08 1.02512e-23)
(0.00150259 -3.47579e-07 1.43691e-22)
(0.0015106 -7.11343e-07 0)
(0.00151975 -1.0706e-06 0)
(0.00152937 -1.34958e-06 0)
(0.00153861 -1.49196e-06 0)
(0.00154654 -1.46657e-06 6.08365e-24)
(0.0015523 -1.27533e-06 0)
(0.0015552 -9.52717e-07 0)
(0.00155469 -5.34998e-07 0)
(0.0015506 3.29641e-08 2.98221e-23)
(0.00154302 7.06996e-07 -2.97821e-23)
(0.00153222 1.38684e-06 0)
(0.00151856 2.07149e-06 2.31922e-24)
(0.00150254 2.7765e-06 5.71592e-24)
(0.00148436 3.51848e-06 -3.9694e-24)
(0.00146195 4.98962e-06 -1.73814e-24)
(0.0014329 1.15417e-05 0)
(0.0101626 0.00148332 0)
(0.0105614 0.00234261 0)
(0.0101513 0.00199826 0)
(0.00927897 0.00150281 8.76718e-22)
(0.00836777 0.001065 -1.78117e-21)
(0.00761067 0.000737026 9.02275e-22)
(0.00699953 0.000514308 0)
(0.00651116 0.000368404 1.80844e-21)
(0.00612482 0.000272266 -1.82645e-21)
(0.00581842 0.000207693 1.82018e-21)
(0.00557237 0.000163046 -1.83141e-21)
(0.00537183 0.000131389 -3.64687e-21)
(0.00520577 0.00010852 3.6616e-21)
(0.00506593 9.17206e-05 3.64361e-21)
(0.00494612 7.93047e-05 -1.40501e-23)
(0.00484151 7.02296e-05 -7.28384e-21)
(0.00474823 6.37852e-05 3.64287e-21)
(0.00466311 5.94827e-05 0)
(0.00458349 5.69924e-05 0)
(0.00450706 5.60733e-05 0)
(0.00443178 5.6533e-05 0)
(0.00435586 5.82181e-05 0)
(0.00427769 6.10091e-05 0)
(0.00419578 6.4817e-05 0)
(0.00410876 6.9588e-05 0)
(0.00401531 7.53095e-05 0)
(0.00391408 8.20188e-05 0)
(0.00380367 8.9821e-05 0)
(0.00368249 9.89263e-05 0)
(0.00354867 0.000109739 0)
(0.00339981 0.000123073 -7.23515e-21)
(0.00323284 0.000140636 -2.21441e-26)
(0.0030472 0.00016556 1.45662e-20)
(0.00280854 0.000203962 -6.39746e-21)
(0.00255131 0.000273423 -7.37152e-21)
(0.00240819 0.000394813 2.23225e-20)
(0.00241516 0.000575403 -3.00614e-20)
(0.00251873 0.000805985 -7.58026e-21)
(0.00269632 0.00108221 7.63971e-20)
(0.00295567 0.00140485 2.32459e-20)
(0.00334624 0.00177433 0)
(0.00385719 0.00216428 7.46126e-21)
(0.00439678 0.00252682 4.39356e-20)
(0.00492269 0.00284185 7.28728e-21)
(0.00543402 0.00310623 5.56651e-20)
(0.00592804 0.00331917 -5.39251e-20)
(0.00641596 0.00348112 7.87788e-22)
(0.00688307 0.00358218 0)
(0.00732502 0.00362137 -2.43345e-20)
(0.00774891 0.0035962 0)
(0.00813511 0.00350157 -2.37703e-22)
(0.00848576 0.00333979 0)
(0.00877767 0.00310194 -1.97723e-20)
(0.00900801 0.0027994 -1.88204e-20)
(0.00915771 0.00242855 0)
(0.00921309 0.00200755 -5.65841e-23)
(0.00917387 0.00154977 7.98922e-21)
(0.00900959 0.00106922 1.8175e-21)
(0.00875636 0.000594946 3.61598e-21)
(0.00837711 0.000132404 -9.13379e-22)
(0.00790646 -0.00028507 0)
(0.00737306 -0.000646793 6.91684e-21)
(0.0067856 -0.000941967 -3.47296e-21)
(0.00618591 -0.00116694 -6.79062e-21)
(0.00557702 -0.00132363 -2.04625e-20)
(0.00499467 -0.00141887 -3.43158e-21)
(0.0044412 -0.00145974 1.741e-20)
(0.00393113 -0.00145818 -3.51474e-21)
(0.00346881 -0.00142284 0)
(0.00305106 -0.00136314 3.68394e-21)
(0.0026832 -0.00128791 -3.68381e-21)
(0.00235503 -0.00120124 -1.04815e-22)
(0.00206514 -0.00111002 0)
(0.00181318 -0.00101755 -3.1036e-20)
(0.00159064 -0.000926186 -3.14428e-20)
(0.00139653 -0.000839061 2.00941e-21)
(0.00122904 -0.000757564 -2.00087e-21)
(0.00108322 -0.000682334 2.05076e-21)
(0.00095732 -0.000614255 -3.2955e-20)
(0.000850186 -0.000553427 3.09689e-20)
(0.000758795 -0.000499217 -3.32312e-20)
(0.00068083 -0.000450904 -3.46314e-20)
(0.000614355 -0.000407455 2.09875e-21)
(0.000556935 -0.00036771 -3.46342e-20)
(0.000506743 -0.000330753 3.34891e-20)
(0.000461894 -0.000295612 -3.33359e-20)
(0.000420193 -0.000261545 3.35424e-20)
(0.0003811 -0.000228575 -3.35264e-20)
(0.00034411 -0.00019659 -1.04427e-21)
(0.000307744 -0.000165701 1.03398e-21)
(0.000272709 -0.000136703 0)
(0.000239516 -0.000109878 0)
(0.000207394 -8.56548e-05 1.62459e-20)
(0.000177633 -6.47115e-05 -1.81496e-20)
(0.000150562 -4.6952e-05 1.60042e-20)
(0.000126395 -3.3031e-05 3.96509e-21)
(0.000106252 -2.24799e-05 -8.02846e-24)
(9.00414e-05 -1.56428e-05 5.12348e-24)
(7.88511e-05 -1.17093e-05 -3.49251e-20)
(7.29801e-05 -1.08361e-05 -5.79006e-21)
(7.36836e-05 -1.18058e-05 7.68076e-21)
(8.11972e-05 -1.43565e-05 -7.6598e-21)
(9.73021e-05 -1.68871e-05 0)
(0.000121873 -1.81219e-05 -9.5916e-22)
(0.000156864 -1.69034e-05 9.59935e-22)
(0.000202706 -1.11294e-05 0)
(0.000260775 3.36942e-07 0)
(0.000332333 1.98662e-05 1.56945e-20)
(0.000417811 4.89931e-05 -1.58401e-20)
(0.000518541 8.97474e-05 1.64934e-20)
(0.00063504 0.000143828 -3.23049e-20)
(0.000767505 0.000212877 8.81319e-25)
(0.000916945 0.000298148 -5.13917e-22)
(0.00108161 0.000400773 -1.65947e-20)
(0.00126283 0.000521026 0)
(0.00145983 0.000659359 0)
(0.00166932 0.000814698 0)
(0.00189259 0.000986324 3.48899e-20)
(0.00212697 0.00117244 3.25116e-20)
(0.00236964 0.00137059 0)
(0.00262112 0.0015785 -3.77318e-20)
(0.00287906 0.00179291 6.21527e-21)
(0.00314017 0.00201016 -4.08263e-21)
(0.00340492 0.00222722 2.03109e-21)
(0.0036725 0.00244048 -3.89107e-21)
(0.00394094 0.00264623 3.05823e-20)
(0.00421039 0.00284128 -2.57912e-20)
(0.00448022 0.00302239 3.21738e-20)
(0.00475064 0.00318681 -1.54021e-22)
(0.00502505 0.00333245 2.38639e-20)
(0.00530069 0.00345542 0)
(0.00557568 0.00355357 2.4665e-20)
(0.00585949 0.00362627 -2.7262e-21)
(0.00614657 0.00366826 -1.79009e-20)
(0.00643199 0.00367812 1.9976e-20)
(0.00672949 0.00365564 -2.09629e-21)
(0.00702296 0.00359115 2.10472e-21)
(0.00730968 0.00348705 -2.04544e-21)
(0.00759169 0.0033364 1.6478e-21)
(0.00785317 0.00313792 -1.17869e-21)
(0.00808845 0.00288888 5.61956e-21)
(0.00828151 0.00258875 -4.0644e-21)
(0.00841421 0.00224017 3.35961e-21)
(0.00848019 0.00185114 0)
(0.00844699 0.00142637 3.56445e-22)
(0.00832995 0.000991734 -2.04938e-23)
(0.00809361 0.000551743 5.95499e-24)
(0.00774628 0.000140255 0)
(0.00731328 -0.000232839 1.82394e-22)
(0.00678602 -0.000548848 -4.62655e-22)
(0.00621227 -0.000798373 0)
(0.00558571 -0.000976492 1.01243e-21)
(0.00495121 -0.00108318 2.27382e-22)
(0.00431765 -0.00112353 -2.29001e-22)
(0.00371209 -0.00110845 0)
(0.00313964 -0.00104623 -2.82395e-22)
(0.00261237 -0.000950618 2.3138e-23)
(0.00213593 -0.000830945 3.23155e-22)
(0.00171327 -0.000699466 0)
(0.0013368 -0.000554664 -1.9356e-21)
(0.00112179 -0.000464592 -1.6683e-21)
(0.00108313 -0.000410297 3.54413e-21)
(0.00110123 -0.000372413 -4.88525e-22)
(0.00117293 -0.000345516 4.82503e-22)
(0.00131567 -0.000325264 5.84854e-22)
(0.00153609 -0.000302389 6.40253e-22)
(0.00185147 -0.000281118 -5.35537e-22)
(0.00222393 -0.0002569 -4.03112e-23)
(0.00257477 -0.000229368 0)
(0.00288435 -0.000200804 4.04446e-23)
(0.00315579 -0.000171619 0)
(0.00338859 -0.000142144 -3.86579e-23)
(0.00358258 -0.000113535 -5.8703e-22)
(0.00373965 -8.70151e-05 6.1994e-22)
(0.00386331 -6.3517e-05 -5.06543e-23)
(0.0039581 -4.36689e-05 4.94044e-22)
(0.00402919 -2.7818e-05 -9.24432e-22)
(0.00408202 -1.60287e-05 8.89878e-22)
(0.00412188 -8.03397e-06 -4.54218e-22)
(0.00415361 -3.66961e-06 0)
(0.00418126 -2.13089e-06 1.94125e-22)
(0.00420787 -2.58742e-06 -1.81961e-22)
(0.00423538 -4.26097e-06 -1.9112e-23)
(0.00426459 -6.37972e-06 -1.38879e-22)
(0.00429525 -8.19376e-06 1.21871e-22)
(0.00432627 -9.06803e-06 1.21145e-22)
(0.00435592 -8.56573e-06 -1.35375e-22)
(0.00438215 -6.50134e-06 1.18555e-22)
(0.00440289 -2.90873e-06 -2.08058e-22)
(0.00441632 1.98015e-06 1.29587e-22)
(0.00442109 7.78233e-06 -4.4323e-23)
(0.00441647 1.40549e-05 -9.53397e-24)
(0.00440246 2.04312e-05 0)
(0.00437955 2.64818e-05 1.93291e-23)
(0.00434878 3.18346e-05 -2.65815e-23)
(0.00431162 3.63294e-05 1.21707e-24)
(0.00426975 4.00225e-05 -8.53778e-24)
(0.00422468 4.33221e-05 0)
(0.00417619 4.74291e-05 0)
(0.00412012 5.72078e-05 -2.79496e-25)
(0.0101548 0.000930736 0)
(0.010718 0.0018792 -4.38845e-22)
(0.0111801 0.00208053 4.35039e-22)
(0.0111184 0.00193154 8.4239e-22)
(0.0108347 0.00165116 -8.50601e-22)
(0.0104104 0.00133854 0)
(0.00995018 0.00105857 0)
(0.00950986 0.000830426 0)
(0.00911358 0.00065419 -1.70604e-21)
(0.00876865 0.000521204 3.43359e-21)
(0.00847262 0.000420933 1.70748e-21)
(0.00821962 0.000345352 -3.45481e-21)
(0.00800275 0.00028822 -3.44184e-21)
(0.00781548 0.000244722 3.45767e-21)
(0.0076522 0.000211622 0)
(0.00750799 0.000186736 -3.4416e-21)
(0.00737858 0.000168469 6.89108e-21)
(0.00726027 0.00015568 -3.44831e-21)
(0.00714982 0.000147574 0)
(0.00704432 0.000143555 0)
(0.00694113 0.000143141 0)
(0.00683784 0.00014595 0)
(0.00673224 0.000151679 0)
(0.00662224 0.0001601 -6.84091e-21)
(0.00650588 0.000171072 6.85485e-21)
(0.00638124 0.000184551 0)
(0.0062464 0.000200613 0)
(0.00609933 0.000219475 0)
(0.00593783 0.000241554 0)
(0.00575939 0.000267579 0)
(0.0055611 0.000298825 -6.89794e-21)
(0.00533929 0.000337625 6.92246e-21)
(0.00509482 0.000388167 0)
(0.00479654 0.000455344 4.35764e-22)
(0.0044799 0.000556122 0)
(0.00428509 0.00071881 -1.42817e-20)
(0.00426788 0.00095854 2.88905e-20)
(0.00438827 0.00126954 0)
(0.00462414 0.00164294 -5.81622e-20)
(0.0049787 0.00207034 2.04407e-22)
(0.00548749 0.00254019 -7.12921e-21)
(0.00612041 0.00301915 7.11213e-21)
(0.00678909 0.00346644 -5.54846e-20)
(0.00745438 0.00386286 0)
(0.00811004 0.00420041 -5.89351e-20)
(0.00875188 0.0044749 5.41322e-20)
(0.00938616 0.00468314 5.2094e-20)
(0.00999805 0.00481571 0)
(0.0105847 0.00486904 2.23543e-20)
(0.0111479 0.00483948 0)
(0.0116699 0.00472335 -4.09755e-20)
(0.0121485 0.0045209 0)
(0.012562 0.00422472 1.62901e-20)
(0.012906 0.00384684 2.00277e-20)
(0.0131587 0.00338641 1.69416e-20)
(0.0133067 0.00285953 7.93609e-21)
(0.0133434 0.00227882 7.70478e-21)
(0.01324 0.00165892 3.59879e-21)
(0.0130218 0.00103075 -1.79241e-21)
(0.0126513 0.000404354 -2.55682e-21)
(0.0121581 -0.000185465 0)
(0.0115601 -0.000721161 -6.41391e-21)
(0.0108703 -0.001186 6.35709e-21)
(0.0101298 -0.00156878 0)
(0.00934641 -0.00186618 2.57552e-20)
(0.00856435 -0.00208037 0)
(0.00779122 -0.00221573 3.29982e-21)
(0.00705322 -0.00228398 -3.32289e-21)
(0.00635968 -0.00229446 0)
(0.00571547 -0.00225941 3.48667e-21)
(0.00513042 -0.00219066 -3.50032e-21)
(0.00459685 -0.00209533 -3.95065e-20)
(0.00411582 -0.00198428 2.56075e-20)
(0.00368727 -0.00186325 9.29092e-23)
(0.00330285 -0.00173726 3.02922e-20)
(0.00296104 -0.00161187 1.93159e-21)
(0.00265949 -0.00148996 -3.29517e-20)
(0.00239211 -0.00137345 0)
(0.00215623 -0.00126438 -3.17423e-20)
(0.00195001 -0.0011634 -6.22343e-20)
(0.00176964 -0.00107006 6.17499e-20)
(0.00161196 -0.000983747 3.35447e-20)
(0.00147436 -0.000903249 -3.37364e-20)
(0.00135353 -0.000827152 3.39838e-20)
(0.00124691 -0.000754404 0)
(0.00115167 -0.000683809 3.3042e-20)
(0.00106432 -0.000614706 1.76739e-22)
(0.000983785 -0.000547546 6.65214e-20)
(0.00090889 -0.000482332 3.0729e-20)
(0.000837167 -0.000419567 3.36728e-20)
(0.000769456 -0.000360656 0)
(0.000706212 -0.000306092 0)
(0.000646318 -0.000256539 -1.60628e-20)
(0.000591788 -0.000213122 0)
(0.000542813 -0.000175554 -1.98156e-21)
(0.000500246 -0.000144737 1.96004e-21)
(0.000465332 -0.00011987 -1.5603e-20)
(0.000438475 -0.000101308 1.54783e-20)
(0.00042088 -8.7793e-05 1.34717e-20)
(0.00041364 -7.9327e-05 1.91076e-21)
(0.000418346 -7.38965e-05 -7.62381e-21)
(0.000435401 -7.07742e-05 3.79901e-21)
(0.000467412 -6.79357e-05 -2.84578e-21)
(0.000514215 -6.3398e-05 9.4739e-22)
(0.000578901 -5.52367e-05 0)
(0.000661773 -4.02928e-05 7.63461e-21)
(0.000764575 -1.65682e-05 0)
(0.000888717 1.92909e-05 1.54512e-20)
(0.00103423 6.9704e-05 5.08317e-24)
(0.00120237 0.000137457 -1.51924e-20)
(0.00139311 0.000224939 1.58006e-20)
(0.00160598 0.000334259 -4.96519e-22)
(0.00184143 0.000466933 0)
(0.00209661 0.000624178 1.60507e-20)
(0.0023724 0.000806062 -1.61077e-20)
(0.00266683 0.00101258 0)
(0.00297603 0.00124226 1.00749e-21)
(0.0033005 0.00149336 -3.31547e-20)
(0.00363693 0.00176319 -3.02567e-20)
(0.00398233 0.00204831 2.97239e-20)
(0.00433669 0.00234503 -3.13963e-20)
(0.00469745 0.00264886 -1.93226e-21)
(0.00506173 0.00295503 2.85962e-20)
(0.00542988 0.003259 3.80855e-21)
(0.00580109 0.00355576 3.27698e-20)
(0.00617392 0.00384054 -6.45174e-20)
(0.00654864 0.00410882 3.16933e-20)
(0.00692501 0.00435619 -2.39231e-20)
(0.00730358 0.00457883 1.89544e-20)
(0.007687 0.0047733 3.03653e-20)
(0.00807315 0.00493477 1.71472e-20)
(0.00846104 0.00506084 2.83837e-21)
(0.00885767 0.00514905 1.77838e-20)
(0.00925784 0.00519323 2.19961e-20)
(0.00965823 0.00519207 -2.0937e-21)
(0.0100675 0.00514299 2.09936e-21)
(0.0104703 0.00503703 5.38129e-21)
(0.0108646 0.00487596 1.47456e-21)
(0.0112468 0.00465296 -1.27204e-21)
(0.0116026 0.00436745 1.27601e-21)
(0.0119227 0.00401788 -3.89565e-21)
(0.01219 0.00360526 6.59455e-22)
(0.0123859 0.00313419 -1.79524e-22)
(0.0125008 0.00261443 -5.06926e-22)
(0.012503 0.00205488 -1.09462e-21)
(0.0124028 0.001478 0)
(0.0121634 0.000892634 -7.9488e-24)
(0.0117923 0.000331455 3.83689e-23)
(0.0113041 -0.000189557 -1.70081e-22)
(0.010691 -0.000649072 6.28268e-22)
(0.00999658 -0.00103195 1.45358e-22)
(0.00921297 -0.00132867 -9.43766e-22)
(0.00839033 -0.00153522 -8.4419e-22)
(0.00753633 -0.00165242 3.15531e-22)
(0.00668993 -0.00168992 -5.25523e-22)
(0.00585905 -0.00165488 2.65981e-22)
(0.00506739 -0.00156331 -4.50773e-23)
(0.00432533 -0.00142679 -3.79241e-22)
(0.00365462 -0.00126603 1.18578e-22)
(0.00304062 -0.0010801 -9.03753e-22)
(0.0026493 -0.000954579 1.26232e-21)
(0.00250942 -0.000867851 -1.12006e-21)
(0.00248734 -0.000800913 -4.07107e-22)
(0.00256024 -0.000750765 -9.75519e-22)
(0.00274546 -0.000714222 0)
(0.00304133 -0.000677914 -1.16502e-21)
(0.00345627 -0.000643253 1.11505e-21)
(0.00393155 -0.000598531 5.37258e-23)
(0.00438022 -0.000541532 5.98671e-24)
(0.004781 -0.000478217 -4.05242e-23)
(0.00513606 -0.000411927 -6.06444e-22)
(0.00544448 -0.00034477 3.69355e-23)
(0.00570569 -0.000279479 0)
(0.00592166 -0.000218796 -3.39035e-23)
(0.00609632 -0.000164895 3.21037e-23)
(0.00623489 -0.000119284 5.25138e-22)
(0.00634346 -8.27961e-05 -4.92352e-22)
(0.00642855 -5.55982e-05 -4.04659e-22)
(0.00649663 -3.72129e-05 4.27955e-22)
(0.0065536 -2.66288e-05 0)
(0.00660444 -2.23245e-05 -2.10694e-23)
(0.00665295 -2.24697e-05 0)
(0.00670153 -2.5103e-05 -1.21631e-22)
(0.00675113 -2.82965e-05 8.94733e-24)
(0.00680136 -3.03332e-05 1.45858e-22)
(0.00685073 -2.98545e-05 2.91993e-23)
(0.00689698 -2.59574e-05 1.38159e-23)
(0.00693739 -1.82821e-05 -1.28818e-23)
(0.00696918 -7.00179e-06 0)
(0.00698992 7.25765e-06 1.10225e-23)
(0.0069978 2.35349e-05 3.83496e-23)
(0.00699185 4.06877e-05 -2.92316e-23)
(0.00697204 5.75743e-05 -3.00959e-23)
(0.00693917 7.30851e-05 3.69711e-23)
(0.00689487 8.64023e-05 0)
(0.00684136 9.70277e-05 5.88209e-24)
(0.00678128 0.000104836 8.34249e-24)
(0.00671728 0.000110205 1.90774e-24)
(0.00665173 0.000114063 -1.90605e-24)
(0.00657592 0.000121966 2.64726e-25)
(0.0100749 0.000516225 0)
(0.0104761 0.00128201 0)
(0.011015 0.00167874 0)
(0.0113789 0.00179372 8.39813e-22)
(0.0115706 0.00172993 -8.38559e-22)
(0.011542 0.00156808 0)
(0.0114237 0.00136488 0)
(0.0112282 0.00115854 0)
(0.0109965 0.000972917 0)
(0.0107596 0.000814344 0)
(0.0105315 0.000682331 0)
(0.0103194 0.000575664 -3.29835e-21)
(0.0101253 0.000490562 3.31561e-21)
(0.00994889 0.000422805 -3.30089e-21)
(0.00978896 0.000369418 6.61478e-21)
(0.00964332 0.000328087 -3.31228e-21)
(0.00950944 0.000296859 -3.29735e-21)
(0.00938486 0.000274279 3.30657e-21)
(0.00926715 0.000259299 0)
(0.0091539 0.000251106 0)
(0.00904274 0.000249017 6.57241e-21)
(0.00893137 0.000252492 -6.58565e-21)
(0.00881755 0.000261091 0)
(0.00869908 0.000274478 -6.55906e-21)
(0.00857378 0.000292437 6.57198e-21)
(0.0084395 0.000314902 0)
(0.00829402 0.000341986 0)
(0.00813504 0.000374012 6.56553e-21)
(0.00796006 0.000411577 -7.87838e-24)
(0.00776638 0.000455655 -6.59199e-21)
(0.00755105 0.000507805 -6.60196e-21)
(0.0073104 0.00057054 1.3245e-20)
(0.00704611 0.000648143 -6.64445e-21)
(0.00673142 0.000743293 6.24848e-21)
(0.00639848 0.000870891 -6.72085e-21)
(0.00617864 0.00106012 -6.83288e-21)
(0.00613664 0.00132795 6.92839e-21)
(0.00624998 0.00167223 2.07499e-20)
(0.0065017 0.00208332 3.47538e-20)
(0.0068902 0.0025467 7.06942e-21)
(0.00743592 0.00304384 -6.83878e-21)
(0.00809892 0.00354147 -5.96384e-20)
(0.00880154 0.0040081 5.83582e-20)
(0.00950958 0.00442704 5.66961e-20)
(0.0102142 0.00478774 -1.23135e-20)
(0.0109105 0.00508291 8.9943e-21)
(0.0116007 0.00530659 -2.5877e-20)
(0.0122715 0.00545257 0)
(0.0129203 0.00551158 -2.40091e-20)
(0.0135468 0.00547979 2.61222e-21)
(0.0141352 0.00535637 1.95869e-20)
(0.0146803 0.0051401 2.28696e-21)
(0.0151653 0.00482631 -2.25044e-20)
(0.0155849 0.0044241 -1.48342e-20)
(0.0159196 0.00393447 -1.62612e-20)
(0.0161571 0.00337102 -7.92933e-21)
(0.0162876 0.00274576 -1.60884e-21)
(0.0162867 0.00207163 1.82339e-21)
(0.0161684 0.00137626 1.69183e-21)
(0.0158993 0.000670008 2.47828e-21)
(0.0154984 -1.53922e-05 1.65767e-21)
(0.0149728 -0.000661041 0)
(0.0143313 -0.00124732 6.34041e-21)
(0.013606 -0.00175781 0)
(0.012804 -0.00218472 -2.16275e-20)
(0.0119684 -0.00252282 -1.25585e-20)
(0.011109 -0.00277237 -3.12249e-21)
(0.0102581 -0.00293972 0)
(0.00942945 -0.00303225 0)
(0.00863581 -0.0030608 -1.31641e-20)
(0.00789279 -0.00303746 0)
(0.00719757 -0.00297078 3.06625e-20)
(0.00655652 -0.00287342 -3.11996e-20)
(0.00597155 -0.00275338 3.0066e-20)
(0.00543686 -0.00261786 2.68371e-23)
(0.00495239 -0.00247461 2.70335e-23)
(0.00451619 -0.00232833 2.60434e-20)
(0.00412248 -0.00218255 3.76461e-21)
(0.00376858 -0.00204068 2.86893e-20)
(0.00345253 -0.00190451 3.09427e-20)
(0.00317033 -0.00177432 -1.36587e-22)
(0.00291872 -0.00165011 -3.05438e-20)
(0.00269493 -0.001531 3.07729e-20)
(0.00249544 -0.00141579 0)
(0.00231754 -0.00130359 5.02282e-22)
(0.00215793 -0.00119327 3.15431e-20)
(0.00201231 -0.0010843 -6.3989e-20)
(0.00187926 -0.000977609 -9.65871e-20)
(0.00175679 -0.000873508 -3.30756e-20)
(0.00164146 -0.000772979 9.58576e-22)
(0.00153396 -0.000678098 0)
(0.00143445 -0.000589798 9.91784e-22)
(0.00134134 -0.000509056 -9.82697e-22)
(0.00125732 -0.000437474 0)
(0.00118233 -0.000374675 1.55554e-20)
(0.00111807 -0.000321758 -1.93388e-21)
(0.00106576 -0.000277603 1.91685e-21)
(0.00102657 -0.000242487 -9.77522e-24)
(0.0010016 -0.00021468 1.51692e-20)
(0.00099295 -0.000194007 -1.88945e-21)
(0.00100221 -0.000177877 3.75715e-21)
(0.00103008 -0.00016512 -1.86874e-21)
(0.00107971 -0.000153018 1.18158e-24)
(0.00115067 -0.000138869 -9.34483e-22)
(0.00124678 -0.000120096 9.32926e-22)
(0.00136776 -9.2699e-05 -7.49261e-21)
(0.00151533 -5.39482e-05 -7.98821e-21)
(0.00169039 2.00263e-07 -1.46381e-20)
(0.00189215 7.28301e-05 3.03647e-20)
(0.00212118 0.000167131 -1.47755e-20)
(0.00237646 0.000285836 -4.7891e-22)
(0.00265645 0.000431144 -4.81495e-22)
(0.00296075 0.000604511 4.83061e-22)
(0.00328528 0.000806868 -1.55134e-20)
(0.00363035 0.00103793 1.03545e-21)
(0.00399292 0.00129698 -3.97651e-24)
(0.00436884 0.00158209 1.34693e-20)
(0.00475804 0.0018906 4.71906e-20)
(0.00515712 0.00221904 -3.04015e-20)
(0.00556329 0.00256325 -3.04631e-20)
(0.00597654 0.0029186 3.19858e-20)
(0.00639471 0.00327984 2.73792e-20)
(0.00681571 0.00364157 -2.74265e-20)
(0.00724016 0.00399838 -3.15976e-20)
(0.00766769 0.00434459 -2.61975e-20)
(0.00809764 0.00467483 3.94118e-21)
(0.0085306 0.00498391 -3.30837e-21)
(0.00896678 0.00526678 0)
(0.00940694 0.00551892 -2.72674e-20)
(0.00985314 0.00573605 -2.30715e-20)
(0.0103039 0.00591317 -1.92368e-20)
(0.0107584 0.00604724 0)
(0.0112215 0.00613436 -2.17102e-20)
(0.0116886 0.0061688 2.30438e-21)
(0.0121567 0.00614923 -6.11066e-21)
(0.0126299 0.00607177 -1.94773e-21)
(0.0130954 0.00592937 -1.32307e-22)
(0.0135506 0.00572313 -7.38537e-21)
(0.0139892 0.00544794 1.3922e-21)
(0.0143988 0.00510397 -5.53339e-21)
(0.0147692 0.00469141 8.58751e-21)
(0.0150849 0.00421273 6.20065e-21)
(0.0153297 0.00367384 2.57475e-21)
(0.0154929 0.00308464 0)
(0.0155482 0.00245472 -4.24783e-22)
(0.0154998 0.00180446 7.36604e-24)
(0.0153162 0.00114393 2.58498e-23)
(0.0150009 0.000501719 -3.83287e-23)
(0.0145596 -0.000104963 -2.17695e-23)
(0.0139822 -0.000656007 1.07006e-22)
(0.0133022 -0.00113332 -3.24355e-22)
(0.0125078 -0.00152554 0)
(0.011644 -0.00182353 7.49195e-22)
(0.0107139 -0.00202481 -2.17061e-22)
(0.00975908 -0.00213351 4.04969e-22)
(0.00878721 -0.00215451 5.38875e-23)
(0.00782931 -0.00210099 1.95358e-22)
(0.00689876 -0.00198432 -5.52541e-23)
(0.00603887 -0.00182974 0)
(0.00523032 -0.00163738 1.11488e-21)
(0.00467748 -0.00149344 7.40132e-23)
(0.00441548 -0.00138607 6.07455e-23)
(0.00432087 -0.00129678 5.70813e-23)
(0.0043575 -0.00122399 9.91545e-22)
(0.00454032 -0.00116773 4.57415e-23)
(0.0048566 -0.00111348 1.53362e-23)
(0.00530449 -0.00105912 -5.73212e-22)
(0.00581008 -0.000989218 4.95372e-22)
(0.0062855 -0.000900013 5.80254e-22)
(0.00671141 -0.000799236 6.97658e-23)
(0.00709122 -0.000692803 -5.70528e-22)
(0.00742452 -0.000584787 6.82022e-23)
(0.00771064 -0.000479529 5.21126e-22)
(0.00795127 -0.000381284 -5.1889e-22)
(0.00814999 -0.00029355 -5.94171e-23)
(0.00831162 -0.000218838 -5.70995e-23)
(0.00844189 -0.000158613 0)
(0.00854702 -0.000113267 3.81403e-22)
(0.00863335 -8.21348e-05 -3.80251e-22)
(0.00870685 -6.36183e-05 0)
(0.00877267 -5.52881e-05 -3.89214e-23)
(0.00883482 -5.41524e-05 0)
(0.00889595 -5.69771e-05 3.3608e-23)
(0.00895722 -6.05718e-05 1.22889e-22)
(0.00901842 -6.20986e-05 -1.22484e-22)
(0.00907811 -5.93008e-05 -2.79653e-23)
(0.00913397 -5.06348e-05 2.57843e-23)
(0.00918304 -3.54831e-05 0)
(0.00922225 -1.41251e-05 -8.74881e-23)
(0.00924876 1.23858e-05 8.73091e-23)
(0.00926034 4.23924e-05 1.91671e-23)
(0.00925568 7.38798e-05 3.29624e-23)
(0.00923446 0.000104753 -3.29168e-23)
(0.0091974 0.000133078 2.48596e-23)
(0.00914625 0.000157302 -2.48176e-23)
(0.00908353 0.000176373 -9.14604e-24)
(0.0090124 0.000189813 -5.92516e-24)
(0.00893605 0.000197806 4.0561e-24)
(0.00885895 0.000200822 4.49723e-24)
(0.0087661 0.000204248 0)
(0.0100413 0.000317293 0)
(0.0102866 0.000874021 0)
(0.0107151 0.00124835 0)
(0.0111427 0.00144353 8.48276e-22)
(0.0114795 0.00150467 -8.42551e-22)
(0.0117076 0.00147097 0)
(0.0118555 0.00137216 1.63525e-21)
(0.0119004 0.00124209 -1.63768e-21)
(0.0118818 0.00110413 -1.6193e-21)
(0.0118234 0.000968928 3.24007e-21)
(0.011735 0.000844071 -1.62123e-21)
(0.0116322 0.000735946 0)
(0.0115228 0.000644274 0)
(0.0114118 0.000567324 3.21143e-21)
(0.0113025 0.000504377 -1.39627e-23)
(0.0111962 0.000454167 -6.42028e-21)
(0.0110931 0.000415181 3.21187e-21)
(0.0109927 0.000386312 0)
(0.0108946 0.000366755 0)
(0.0107974 0.000355824 3.18646e-21)
(0.0106999 0.000352884 -3.19221e-21)
(0.0106006 0.000357461 0)
(0.0104978 0.000369154 0)
(0.0103897 0.000387641 -6.34263e-21)
(0.0102743 0.000412732 1.26901e-20)
(0.0101496 0.000444403 -6.34764e-21)
(0.0100135 0.00048283 -6.33247e-21)
(0.00986369 0.000528439 1.05067e-23)
(0.0096978 0.000581961 1.26815e-20)
(0.00951319 0.00064452 -6.34933e-21)
(0.00930716 0.000717781 -6.35101e-21)
(0.00907638 0.000804163 3.60139e-24)
(0.00882273 0.000907591 6.37857e-21)