/*--------------------------------*- C++ -*----------------------------------*\
| =========                 |                                                 |
| \\      /  F ield         | OpenFOAM: The Open Source CFD Toolbox           |
|  \\    /   O peration     | Version:  2506                                  |
|   \\  /    A nd           | Website:  www.openfoam.com                      |
|    \\/     M anipulation  |                                                 |
\*---------------------------------------------------------------------------*/
FoamFile
{
    version     2.0;
    format      ascii;
    arch        "LSB;label=32;scalar=64";
    class       volScalarField;
    location    "4.25";
    object      p;
}
// * * * * * * * * * * * * * * * * * * * * * * * * * * * * * * * * * * * * * //

dimensions      [0 2 -2 0 0 0 0];

internalField   nonuniform List<scalar> 
4000
(
-7.54309e-05
-2.86221e-05
-1.25955e-05
-7.84842e-06
-4.76537e-06
-2.77665e-06
-1.70512e-06
-1.08461e-06
-6.74984e-07
-3.96881e-07
-2.0628e-07
-6.84629e-08
4.13652e-08
1.41053e-07
2.44666e-07
3.63709e-07
5.07521e-07
6.83501e-07
8.97217e-07
1.15237e-06
1.45063e-06
1.79131e-06
2.17089e-06
2.58237e-06
3.01425e-06
3.44905e-06
3.86085e-06
4.21098e-06
4.44202e-06
4.49521e-06
4.20776e-06
2.9104e-06
1.2341e-06
-5.43661e-07
-2.52578e-06
-4.81065e-06
-7.20975e-06
-1.07744e-05
-1.30966e-05
-1.31914e-05
-1.31441e-05
-1.28129e-05
-1.21219e-05
-1.13016e-05
-1.05013e-05
-9.82239e-06
-9.28924e-06
-9.13848e-06
-9.2818e-06
-9.65477e-06
-1.00328e-05
-1.00629e-05
-1.02992e-05
-9.53636e-06
-8.40318e-06
-6.19029e-06
-3.85265e-06
-5.18379e-07
2.70024e-06
4.71436e-06
5.59878e-06
5.57897e-06
4.6095e-06
3.83859e-06
3.11862e-06
2.7338e-06
2.56966e-06
2.51233e-06
2.50913e-06
2.51176e-06
2.5007e-06
2.47507e-06
2.43776e-06
2.39086e-06
2.33684e-06
2.27693e-06
2.21158e-06
2.14482e-06
2.07767e-06
2.00979e-06
1.94151e-06
1.8727e-06
1.80108e-06
1.72647e-06
1.64746e-06
1.56022e-06
1.46019e-06
1.3399e-06
1.188e-06
9.87323e-07
7.80124e-07
6.2593e-07
6.25492e-07
8.65125e-07
1.54663e-06
2.64877e-06
4.06001e-06
5.55774e-06
6.77443e-06
7.39915e-06
7.17347e-06
5.99947e-06
4.03659e-06
1.53315e-06
-1.14295e-06
-3.9673e-06
-6.47831e-06
-8.39888e-06
-9.6279e-06
-1.01704e-05
-1.00913e-05
-9.19615e-06
-7.78957e-06
-5.66584e-06
-3.51447e-06
-1.11922e-06
9.10224e-07
2.19329e-06
2.77221e-06
2.86613e-06
2.51418e-06
2.03936e-06
1.5919e-06
1.32127e-06
1.17455e-06
1.13764e-06
1.15844e-06
1.20219e-06
1.2566e-06
1.31222e-06
1.36223e-06
1.40396e-06
1.43663e-06
1.45994e-06
1.47408e-06
1.47921e-06
1.47541e-06
1.46248e-06
1.44029e-06
1.4092e-06
1.36835e-06
1.31684e-06
1.25425e-06
1.17696e-06
1.08111e-06
9.5952e-07
7.99594e-07
5.87535e-07
3.40772e-07
1.16061e-07
-6.72481e-09
1.28192e-07
6.51368e-07
1.66331e-06
3.21699e-06
5.07033e-06
6.82756e-06
8.24047e-06
8.99701e-06
8.80414e-06
7.63546e-06
5.54596e-06
2.57302e-06
-1.70073e-06
-3.10285e-06
-3.09621e-06
-2.69232e-06
-1.90227e-06
-7.40767e-07
6.49251e-07
1.92029e-06
2.91784e-06
3.95541e-06
5.04979e-06
6.18065e-06
7.36811e-06
8.62958e-06
9.97747e-06
1.14174e-05
1.29519e-05
1.45826e-05
1.63111e-05
1.81402e-05
2.00748e-05
2.21222e-05
2.4292e-05
2.65962e-05
2.90493e-05
3.16691e-05
3.44798e-05
3.75171e-05
4.08374e-05
4.45364e-05
4.87846e-05
5.39011e-05
6.05122e-05
6.9887e-05
8.49097e-05
0.000114159
0.000175541
-4.16135e-05
-2.22318e-05
-1.33413e-05
-9.02919e-06
-6.1826e-06
-4.25214e-06
-3.00264e-06
-2.16699e-06
-1.57984e-06
-1.15969e-06
-8.54631e-07
-6.25004e-07
-4.41215e-07
-2.81152e-07
-1.27601e-07
3.31669e-08
2.12104e-07
4.17814e-07
6.56795e-07
9.33504e-07
1.25026e-06
1.60701e-06
2.00095e-06
2.42589e-06
2.87152e-06
3.3221e-06
3.75462e-06
4.1357e-06
4.41779e-06
4.55707e-06
4.45242e-06
3.56076e-06
2.31838e-06
9.49569e-07
-6.20561e-07
-2.4781e-06
-4.50672e-06
-7.21869e-06
-8.94516e-06
-9.34117e-06
-9.66633e-06
-9.78279e-06
-9.60029e-06
-9.30984e-06
-9.04349e-06
-8.87949e-06
-8.8752e-06
-9.11789e-06
-9.53337e-06
-1.00191e-05
-1.04505e-05
-1.06154e-05
-1.06948e-05
-1.00523e-05
-9.03296e-06
-7.30533e-06
-5.40792e-06
-2.98479e-06
-6.84057e-07
1.08353e-06
2.2841e-06
3.29852e-06
3.34037e-06
3.405e-06
3.09932e-06
2.82534e-06
2.63233e-06
2.52142e-06
2.49573e-06
2.50245e-06
2.50571e-06
2.49491e-06
2.46908e-06
2.4314e-06
2.3835e-06
2.32862e-06
2.26862e-06
2.20472e-06
2.13831e-06
2.07014e-06
2.00112e-06
1.93175e-06
1.8608e-06
1.78803e-06
1.70893e-06
1.61879e-06
1.52233e-06
1.41379e-06
1.27581e-06
1.12143e-06
9.90206e-07
9.61772e-07
1.1259e-06
1.60271e-06
2.4265e-06
3.4965e-06
4.70683e-06
5.81456e-06
6.39613e-06
6.35591e-06
5.52593e-06
3.97387e-06
1.82893e-06
-6.31128e-07
-3.03968e-06
-5.26641e-06
-7.08467e-06
-8.34259e-06
-8.97671e-06
-9.06537e-06
-8.65406e-06
-7.62866e-06
-6.30001e-06
-4.53965e-06
-2.8449e-06
-1.1218e-06
3.21366e-07
1.25794e-06
1.74583e-06
1.9889e-06
1.89155e-06
1.75508e-06
1.51003e-06
1.32529e-06
1.1845e-06
1.13045e-06
1.13488e-06
1.16812e-06
1.2184e-06
1.27488e-06
1.32875e-06
1.37599e-06
1.41506e-06
1.44509e-06
1.466e-06
1.47788e-06
1.48086e-06
1.47536e-06
1.46076e-06
1.43711e-06
1.40325e-06
1.35748e-06
1.30145e-06
1.23041e-06
1.14416e-06
1.03718e-06
8.99516e-07
7.31245e-07
5.72785e-07
4.88541e-07
5.69378e-07
9.95143e-07
1.87228e-06
3.11541e-06
4.59283e-06
6.14309e-06
7.42475e-06
8.08132e-06
7.9998e-06
7.02036e-06
5.31969e-06
2.99092e-06
1.86473e-07
-2.10899e-06
-2.40753e-06
-2.05694e-06
-1.57502e-06
-8.35672e-07
1.64083e-07
1.30477e-06
2.39982e-06
3.35797e-06
4.3659e-06
5.44486e-06
6.57193e-06
7.75629e-06
9.0188e-06
1.03681e-05
1.18077e-05
1.33402e-05
1.49681e-05
1.6694e-05
1.85222e-05
2.04587e-05
2.25116e-05
2.46908e-05
2.7008e-05
2.94769e-05
3.21149e-05
3.49459e-05
3.80053e-05
4.13496e-05
4.50727e-05
4.93372e-05
5.4433e-05
6.08848e-05
6.96008e-05
8.19553e-05
9.99178e-05
0.000127209
-2.3749e-05
-1.74232e-05
-1.28176e-05
-9.51748e-06
-7.07454e-06
-5.26923e-06
-3.96305e-06
-3.01905e-06
-2.32795e-06
-1.8164e-06
-1.43227e-06
-1.13555e-06
-8.95293e-07
-6.87566e-07
-4.93543e-07
-2.98221e-07
-8.96176e-08
1.4173e-07
4.03068e-07
6.99539e-07
1.03414e-06
1.40755e-06
1.81778e-06
2.25971e-06
2.72441e-06
3.19823e-06
3.66135e-06
4.08549e-06
4.43158e-06
4.66954e-06
4.74561e-06
4.24533e-06
3.45853e-06
2.51537e-06
1.34532e-06
-1.53431e-07
-1.86219e-06
-3.96535e-06
-5.40049e-06
-6.13432e-06
-6.82351e-06
-7.31734e-06
-7.54229e-06
-7.65676e-06
-7.77243e-06
-7.96111e-06
-8.25066e-06
-8.63065e-06
-9.08994e-06
-9.54663e-06
-9.89061e-06
-1.00018e-05
-9.9226e-06
-9.37599e-06
-8.56505e-06
-7.38048e-06
-6.12448e-06
-4.60958e-06
-3.06136e-06
-1.61004e-06
-3.80534e-07
1.13745e-06
1.83455e-06
2.46013e-06
2.6371e-06
2.66033e-06
2.592e-06
2.51098e-06
2.49141e-06
2.50032e-06
2.50695e-06
2.50493e-06
2.4919e-06
2.46473e-06
2.42378e-06
2.37449e-06
2.31937e-06
2.2587e-06
2.19419e-06
2.12689e-06
2.05708e-06
1.98569e-06
1.91407e-06
1.84153e-06
1.76647e-06
1.6855e-06
1.59864e-06
1.50244e-06
1.39875e-06
1.30841e-06
1.27084e-06
1.37736e-06
1.66981e-06
2.18603e-06
2.92405e-06
3.79364e-06
4.65712e-06
5.17738e-06
5.20325e-06
4.69078e-06
3.55546e-06
1.87268e-06
-9.90626e-08
-2.15952e-06
-4.14278e-06
-5.70951e-06
-6.88145e-06
-7.59227e-06
-7.81335e-06
-7.61141e-06
-7.02273e-06
-6.00939e-06
-4.86106e-06
-3.49156e-06
-2.24575e-06
-1.13945e-06
-1.97337e-07
4.72301e-07
8.88712e-07
1.28136e-06
1.36416e-06
1.40169e-06
1.31266e-06
1.23365e-06
1.13053e-06
1.09094e-06
1.09901e-06
1.12932e-06
1.17781e-06
1.23615e-06
1.29442e-06
1.34737e-06
1.39295e-06
1.42981e-06
1.45767e-06
1.47656e-06
1.4863e-06
1.48756e-06
1.4796e-06
1.46378e-06
1.43898e-06
1.40237e-06
1.35868e-06
1.3002e-06
1.23019e-06
1.14738e-06
1.0502e-06
9.57183e-07
9.22537e-07
9.97379e-07
1.29984e-06
1.926e-06
2.83687e-06
3.95049e-06
5.14947e-06
6.20713e-06
6.81188e-06
6.79338e-06
6.11744e-06
4.76832e-06
2.97808e-06
1.03397e-06
-9.45341e-07
-1.57633e-06
-1.43426e-06
-1.11939e-06
-6.44209e-07
3.85969e-08
9.05176e-07
1.8616e-06
2.8054e-06
3.70331e-06
4.68851e-06
5.75319e-06
6.8733e-06
8.05722e-06
9.3197e-06
1.06672e-05
1.2103e-05
1.36305e-05
1.52534e-05
1.69758e-05
1.8803e-05
2.07416e-05
2.27996e-05
2.49863e-05
2.73123e-05
2.979e-05
3.24349e-05
3.52682e-05
3.83208e-05
4.16412e-05
4.53069e-05
4.94455e-05
5.4268e-05
6.01157e-05
6.74581e-05
7.65267e-05
8.63951e-05
9.76217e-05
-1.58903e-05
-1.35312e-05
-1.11371e-05
-8.86281e-06
-7.00934e-06
-5.52102e-06
-4.34891e-06
-3.44934e-06
-2.7617e-06
-2.23429e-06
-1.82565e-06
-1.50176e-06
-1.23481e-06
-1.00227e-06
-7.85854e-07
-5.70682e-07
-3.44668e-07
-9.80943e-08
1.76638e-07
4.85122e-07
8.30913e-07
1.21537e-06
1.63738e-06
2.09296e-06
2.57466e-06
3.0709e-06
3.56482e-06
4.03237e-06
4.44094e-06
4.76697e-06
4.97338e-06
4.74657e-06
4.26674e-06
3.59436e-06
2.67007e-06
1.39525e-06
-1.09753e-07
-1.89042e-06
-3.24855e-06
-4.20458e-06
-5.08884e-06
-5.78105e-06
-6.24263e-06
-6.5999e-06
-6.93404e-06
-7.29965e-06
-7.67724e-06
-8.07912e-06
-8.50622e-06
-8.88876e-06
-9.09372e-06
-9.07932e-06
-8.85993e-06
-8.32791e-06
-7.62684e-06
-6.74278e-06
-5.85387e-06
-4.86918e-06
-3.86536e-06
-2.83399e-06
-1.86613e-06
-5.49084e-07
3.84783e-07
1.28949e-06
1.78637e-06
2.19919e-06
2.38785e-06
2.41941e-06
2.44922e-06
2.48275e-06
2.50129e-06
2.50898e-06
2.50715e-06
2.49059e-06
2.45917e-06
2.41647e-06
2.36502e-06
2.30613e-06
2.24284e-06
2.17546e-06
2.10577e-06
2.03636e-06
1.96801e-06
1.89695e-06
1.82504e-06
1.74946e-06
1.67312e-06
1.59704e-06
1.52777e-06
1.48336e-06
1.52118e-06
1.696e-06
2.01731e-06
2.49064e-06
3.09723e-06
3.71605e-06
4.19453e-06
4.26932e-06
3.92978e-06
3.10871e-06
1.82275e-06
2.24379e-07
-1.46489e-06
-3.12189e-06
-4.61219e-06
-5.68746e-06
-6.42577e-06
-6.77653e-06
-6.74137e-06
-6.38098e-06
-5.74071e-06
-4.82216e-06
-3.87441e-06
-2.83407e-06
-1.91213e-06
-1.12768e-06
-4.6146e-07
4.44068e-08
3.8931e-07
7.35288e-07
9.1135e-07
1.01826e-06
1.02948e-06
1.05431e-06
1.01385e-06
1.01162e-06
1.04004e-06
1.07974e-06
1.13364e-06
1.197e-06
1.26095e-06
1.31991e-06
1.37189e-06
1.41521e-06
1.4495e-06
1.47507e-06
1.49122e-06
1.49883e-06
1.49707e-06
1.48872e-06
1.47306e-06
1.44582e-06
1.41571e-06
1.37312e-06
1.32522e-06
1.27463e-06
1.22415e-06
1.20757e-06
1.27936e-06
1.49109e-06
1.91996e-06
2.56749e-06
3.3918e-06
4.32918e-06
5.16459e-06
5.70824e-06
5.79086e-06
5.33701e-06
4.31197e-06
2.91386e-06
1.42183e-06
7.31177e-08
-1.12112e-06
-9.46828e-07
-7.40702e-07
-5.05521e-07
-2.24324e-08
6.26944e-07
1.40459e-06
2.25599e-06
3.11825e-06
3.98087e-06
4.9469e-06
5.99414e-06
7.1012e-06
8.27642e-06
9.53127e-06
1.0871e-05
1.22991e-05
1.38191e-05
1.54353e-05
1.71522e-05
1.89754e-05
2.09115e-05
2.29678e-05
2.51526e-05
2.74751e-05
2.99453e-05
3.25755e-05
3.53818e-05
3.83866e-05
4.16237e-05
4.51435e-05
4.90227e-05
5.33744e-05
5.83531e-05
6.41044e-05
7.04678e-05
7.62981e-05
8.15326e-05
-1.13959e-05
-1.05196e-05
-9.3217e-06
-7.85122e-06
-6.49041e-06
-5.34111e-06
-4.37596e-06
-3.59042e-06
-2.96281e-06
-2.46416e-06
-2.0659e-06
-1.74193e-06
-1.46937e-06
-1.22865e-06
-1.00327e-06
-7.79385e-07
-5.45464e-07
-2.92036e-07
-1.15189e-08
3.01848e-07
6.51959e-07
1.04069e-06
1.46764e-06
1.92976e-06
2.42087e-06
2.93102e-06
3.4456e-06
3.94363e-06
4.39691e-06
4.78449e-06
5.07454e-06
5.02858e-06
4.74698e-06
4.24499e-06
3.47642e-06
2.3561e-06
1.00035e-06
-5.72611e-07
-1.88314e-06
-2.93962e-06
-3.90692e-06
-4.70285e-06
-5.30516e-06
-5.80806e-06
-6.26819e-06
-6.70969e-06
-7.11646e-06
-7.53246e-06
-7.89598e-06
-8.14592e-06
-8.21159e-06
-8.08177e-06
-7.76853e-06
-7.24573e-06
-6.61964e-06
-5.91266e-06
-5.23153e-06
-4.53998e-06
-3.87453e-06
-3.18796e-06
-2.52206e-06
-1.55554e-06
-7.27887e-07
2.62059e-07
8.96081e-07
1.51282e-06
1.9725e-06
2.18183e-06
2.3193e-06
2.42214e-06
2.47805e-06
2.50675e-06
2.51858e-06
2.51406e-06
2.49327e-06
2.45765e-06
2.41127e-06
2.35611e-06
2.29609e-06
2.23119e-06
2.1626e-06
2.09237e-06
2.02315e-06
1.95238e-06
1.88354e-06
1.81277e-06
1.74611e-06
1.68788e-06
1.64411e-06
1.61801e-06
1.69961e-06
1.90636e-06
2.19505e-06
2.5866e-06
3.00747e-06
3.36357e-06
3.49288e-06
3.24794e-06
2.61868e-06
1.63899e-06
3.75887e-07
-1.05385e-06
-2.46007e-06
-3.72792e-06
-4.76116e-06
-5.46766e-06
-5.88342e-06
-5.9798e-06
-5.78326e-06
-5.34903e-06
-4.72614e-06
-3.93042e-06
-3.16169e-06
-2.35568e-06
-1.66994e-06
-1.07721e-06
-5.78773e-07
-1.8521e-07
9.56415e-08
3.68049e-07
5.3116e-07
6.80863e-07
7.44375e-07
8.36798e-07
8.53439e-07
8.92835e-07
9.50836e-07
1.00983e-06
1.07639e-06
1.14935e-06
1.22204e-06
1.28903e-06
1.34884e-06
1.3996e-06
1.44087e-06
1.47376e-06
1.49688e-06
1.51175e-06
1.5171e-06
1.51697e-06
1.51123e-06
1.49409e-06
1.47816e-06
1.45226e-06
1.4266e-06
1.40757e-06
1.39599e-06
1.45194e-06
1.61362e-06
1.90301e-06
2.35148e-06
2.96072e-06
3.65514e-06
4.33466e-06
4.78833e-06
4.90232e-06
4.59269e-06
3.83298e-06
2.73465e-06
1.5569e-06
4.81537e-07
-3.67846e-07
-9.56072e-07
-4.70715e-07
-2.78801e-07
-6.11601e-08
4.36728e-07
1.05428e-06
1.76617e-06
2.55065e-06
3.36197e-06
4.19549e-06
5.13798e-06
6.16307e-06
7.2518e-06
8.4121e-06
9.6536e-06
1.09808e-05
1.23971e-05
1.39063e-05
1.55126e-05
1.72208e-05
1.90358e-05
2.09637e-05
2.30107e-05
2.51837e-05
2.74895e-05
2.99353e-05
3.2529e-05
3.52802e-05
3.82011e-05
4.13081e-05
4.46226e-05
4.81709e-05
5.19796e-05
5.60607e-05
6.03609e-05
6.46293e-05
6.82014e-05
7.07433e-05
-8.51142e-06
-8.29164e-06
-7.72561e-06
-6.81861e-06
-5.85217e-06
-4.97139e-06
-4.20241e-06
-3.54456e-06
-2.99758e-06
-2.54835e-06
-2.17911e-06
-1.87108e-06
-1.60636e-06
-1.36869e-06
-1.14384e-06
-9.19449e-07
-6.84935e-07
-4.31419e-07
-1.51643e-07
1.60052e-07
5.0765e-07
8.93297e-07
1.31704e-06
1.7765e-06
2.26637e-06
2.77789e-06
3.29799e-06
3.80783e-06
4.28221e-06
4.70107e-06
5.03421e-06
5.09878e-06
4.93919e-06
4.54404e-06
3.88032e-06
2.88108e-06
1.65481e-06
2.47964e-07
-1.00002e-06
-2.07835e-06
-3.06644e-06
-3.91067e-06
-4.59078e-06
-5.17348e-06
-5.69762e-06
-6.17407e-06
-6.58567e-06
-6.9617e-06
-7.23173e-06
-7.3609e-06
-7.31713e-06
-7.10431e-06
-6.74136e-06
-6.24093e-06
-5.68255e-06
-5.10039e-06
-4.5577e-06
-4.03905e-06
-3.56693e-06
-3.1046e-06
-2.66275e-06
-1.99993e-06
-1.372e-06
-5.13774e-07
1.81845e-07
8.281e-07
1.44841e-06
1.83593e-06
2.09829e-06
2.29667e-06
2.4145e-06
2.48278e-06
2.51966e-06
2.53269e-06
2.52533e-06
2.49935e-06
2.45958e-06
2.40826e-06
2.35154e-06
2.28876e-06
2.2207e-06
2.1494e-06
2.07987e-06
2.00822e-06
1.93963e-06
1.87082e-06
1.80915e-06
1.76307e-06
1.70828e-06
1.71376e-06
1.82293e-06
2.00123e-06
2.22561e-06
2.493e-06
2.72392e-06
2.83528e-06
2.66582e-06
2.14747e-06
1.36859e-06
3.79992e-07
-7.8862e-07
-1.98704e-06
-3.08043e-06
-3.99772e-06
-4.68473e-06
-5.112e-06
-5.29749e-06
-5.2278e-06
-4.94319e-06
-4.49123e-06
-3.91913e-06
-3.24571e-06
-2.62403e-06
-1.9946e-06
-1.47101e-06
-1.01212e-06
-6.26639e-07
-3.13158e-07
-8.00478e-08
1.3898e-07
2.79537e-07
4.23983e-07
5.03498e-07
6.23432e-07
6.78184e-07
7.5049e-07
8.36432e-07
9.18779e-07
1.00307e-06
1.08972e-06
1.17463e-06
1.25236e-06
1.32221e-06
1.38211e-06
1.43137e-06
1.47258e-06
1.50324e-06
1.52572e-06
1.53835e-06
1.54629e-06
1.55007e-06
1.54243e-06
1.539e-06
1.52792e-06
1.52157e-06
1.53161e-06
1.54365e-06
1.66588e-06
1.88873e-06
2.1805e-06
2.61367e-06
3.1259e-06
3.63271e-06
4.02709e-06
4.14285e-06
3.90132e-06
3.33347e-06
2.51726e-06
1.5531e-06
6.54728e-07
-1.91459e-08
-4.63848e-07
-6.95698e-07
-1.33128e-07
5.12334e-08
2.82491e-07
7.82906e-07
1.36616e-06
2.02769e-06
2.76395e-06
3.53641e-06
4.34118e-06
5.25582e-06
6.25419e-06
7.31933e-06
8.45878e-06
9.68102e-06
1.09902e-05
1.23895e-05
1.38829e-05
1.54743e-05
1.71679e-05
1.89682e-05
2.08798e-05
2.29076e-05
2.50562e-05
2.73299e-05
2.97323e-05
3.22663e-05
3.49341e-05
3.77373e-05
4.06756e-05
4.37439e-05
4.69261e-05
5.01837e-05
5.34365e-05
5.65318e-05
5.92313e-05
6.11632e-05
6.22144e-05
-6.59454e-06
-6.64888e-06
-6.41246e-06
-5.85745e-06
-5.18752e-06
-4.52608e-06
-3.91794e-06
-3.37871e-06
-2.91407e-06
-2.52081e-06
-2.18884e-06
-1.90505e-06
-1.65582e-06
-1.42818e-06
-1.21021e-06
-9.91173e-07
-7.61622e-07
-5.13488e-07
-2.40067e-07
6.39575e-08
4.02412e-07
7.77453e-07
1.18931e-06
1.63597e-06
2.11267e-06
2.61144e-06
3.12032e-06
3.62205e-06
4.09379e-06
4.51579e-06
4.85875e-06
4.98202e-06
4.89269e-06
4.56622e-06
3.98182e-06
3.09052e-06
1.98846e-06
7.30654e-07
-4.37249e-07
-1.49008e-06
-2.46196e-06
-3.31707e-06
-4.03009e-06
-4.6471e-06
-5.19816e-06
-5.67775e-06
-6.05688e-06
-6.3633e-06
-6.54289e-06
-6.57603e-06
-6.45247e-06
-6.18778e-06
-5.80776e-06
-5.34109e-06
-4.84741e-06
-4.36068e-06
-3.91709e-06
-3.5192e-06
-3.15911e-06
-2.82241e-06
-2.51787e-06
-2.07098e-06
-1.62131e-06
-9.6829e-07
-3.37814e-07
2.89711e-07
9.22423e-07
1.44449e-06
1.81856e-06
2.11573e-06
2.30891e-06
2.43088e-06
2.50402e-06
2.54256e-06
2.55425e-06
2.54134e-06
2.51042e-06
2.46349e-06
2.41029e-06
2.34951e-06
2.28142e-06
2.20905e-06
2.13871e-06
2.06471e-06
1.9936e-06
1.92336e-06
1.8626e-06
1.80302e-06
1.7574e-06
1.79284e-06
1.87127e-06
1.99726e-06
2.1332e-06
2.26161e-06
2.32424e-06
2.17375e-06
1.74354e-06
1.09777e-06
3.02569e-07
-6.50691e-07
-1.65587e-06
-2.59931e-06
-3.40376e-06
-4.03479e-06
-4.46528e-06
-4.68804e-06
-4.71703e-06
-4.54671e-06
-4.22298e-06
-3.78512e-06
-3.27567e-06
-2.71212e-06
-2.20803e-06
-1.71165e-06
-1.30225e-06
-9.40526e-07
-6.34824e-07
-3.79172e-07
-1.80121e-07
2.72637e-09
1.2685e-07
2.51725e-07
3.28679e-07
4.46838e-07
5.18459e-07
6.07721e-07
7.10642e-07
8.13803e-07
9.16947e-07
1.01916e-06
1.11857e-06
1.20925e-06
1.29138e-06
1.36238e-06
1.42084e-06
1.47155e-06
1.51042e-06
1.54075e-06
1.56055e-06
1.57583e-06
1.58769e-06
1.58815e-06
1.59481e-06
1.59383e-06
1.60258e-06
1.61725e-06
1.69184e-06
1.84989e-06
2.05328e-06
2.3461e-06
2.70995e-06
3.08091e-06
3.37532e-06
3.50116e-06
3.29217e-06
2.8406e-06
2.23428e-06
1.49007e-06
7.11979e-07
1.28481e-07
-2.16181e-07
-3.98194e-07
-4.43467e-07
1.00374e-07
2.93484e-07
5.46535e-07
1.03878e-06
1.58878e-06
2.21013e-06
2.90695e-06
3.64477e-06
4.41957e-06
5.30218e-06
6.26858e-06
7.30396e-06
8.41572e-06
9.61174e-06
1.08959e-05
1.22714e-05
1.37419e-05
1.53107e-05
1.69814e-05
1.87573e-05
2.06415e-05
2.26371e-05
2.47463e-05
2.69701e-05
2.93081e-05
3.17576e-05
3.43136e-05
3.69673e-05
3.97034e-05
4.2495e-05
4.52944e-05
4.80195e-05
5.05414e-05
5.26797e-05
5.42814e-05
5.52336e-05
5.55075e-05
-5.26204e-06
-5.41279e-06
-5.34131e-06
-5.00184e-06
-4.54554e-06
-4.05203e-06
-3.57591e-06
-3.13935e-06
-2.74988e-06
-2.41065e-06
-2.11768e-06
-1.86156e-06
-1.63161e-06
-1.41786e-06
-1.21068e-06
-1.00096e-06
-7.8048e-07
-5.42108e-07
-2.7985e-07
1.10778e-08
3.3414e-07
6.91279e-07
1.08267e-06
1.50642e-06
1.95814e-06
2.43038e-06
2.91209e-06
3.38753e-06
3.8361e-06
4.23851e-06
4.56696e-06
4.71374e-06
4.66269e-06
4.38493e-06
3.86961e-06
3.0822e-06
2.10281e-06
9.84554e-07
-9.12657e-08
-1.09111e-06
-2.024e-06
-2.86342e-06
-3.57651e-06
-4.19522e-06
-4.74158e-06
-5.18272e-06
-5.51953e-06
-5.75761e-06
-5.85872e-06
-5.81817e-06
-5.6407e-06
-5.34992e-06
-4.97497e-06
-4.54879e-06
-4.11587e-06
-3.70535e-06
-3.3366e-06
-3.01894e-06
-2.74246e-06
-2.48171e-06
-2.24697e-06
-1.93901e-06
-1.61551e-06
-1.14167e-06
-6.31377e-07
-7.80059e-08
4.98099e-07
1.04842e-06
1.51302e-06
1.89479e-06
2.17307e-06
2.35822e-06
2.47314e-06
2.54224e-06
2.57893e-06
2.58379e-06
2.565e-06
2.52396e-06
2.47524e-06
2.41714e-06
2.34861e-06
2.27439e-06
2.20228e-06
2.12465e-06
2.04825e-06
1.97115e-06
1.90292e-06
1.84281e-06
1.80831e-06
1.82208e-06
1.85749e-06
1.91923e-06
1.93979e-06
1.92262e-06
1.77681e-06
1.42213e-06
8.65125e-07
1.91334e-07
-5.98342e-07
-1.43781e-06
-2.23908e-06
-2.94173e-06
-3.50584e-06
-3.91715e-06
-4.16214e-06
-4.24196e-06
-4.16951e-06
-3.9433e-06
-3.61054e-06
-3.20271e-06
-2.75658e-06
-2.28708e-06
-1.87575e-06
-1.48003e-06
-1.15393e-06
-8.6431e-07
-6.17382e-07
-4.05592e-07
-2.33062e-07
-7.57259e-08
3.81046e-08
1.47084e-07
2.18908e-07
3.22835e-07
3.96907e-07
4.89032e-07
5.94056e-07
7.07803e-07
8.25808e-07
9.42264e-07
1.05641e-06
1.16081e-06
1.25683e-06
1.34081e-06
1.40974e-06
1.47121e-06
1.5192e-06
1.55784e-06
1.58498e-06
1.60706e-06
1.62576e-06
1.63058e-06
1.64752e-06
1.64927e-06
1.67036e-06
1.72511e-06
1.8126e-06
1.9499e-06
2.15213e-06
2.40012e-06
2.65187e-06
2.8788e-06
2.93884e-06
2.75704e-06
2.39302e-06
1.92175e-06
1.34109e-06
7.26822e-07
1.73983e-07
-1.31974e-07
-2.47892e-07
-2.81197e-07
-2.31594e-07
2.63669e-07
4.73913e-07
7.46709e-07
1.22423e-06
1.74284e-06
2.32931e-06
2.98963e-06
3.69316e-06
4.43574e-06
5.28179e-06
6.21036e-06
7.20917e-06
8.28571e-06
9.44751e-06
1.06984e-05
1.20413e-05
1.34796e-05
1.50159e-05
1.66528e-05
1.83923e-05
2.02359e-05
2.21845e-05
2.42375e-05
2.63924e-05
2.86444e-05
3.09853e-05
3.34029e-05
3.5879e-05
3.83861e-05
4.08815e-05
4.3297e-05
4.55292e-05
4.74392e-05
4.88828e-05
4.97749e-05
5.01896e-05
5.01584e-05
-4.28408e-06
-4.45516e-06
-4.46326e-06
-4.25784e-06
-3.94202e-06
-3.57833e-06
-3.20776e-06
-2.85685e-06
-2.53454e-06
-2.24332e-06
-1.98688e-06
-1.75877e-06
-1.54953e-06
-1.35145e-06
-1.15736e-06
-9.59799e-07
-7.5162e-07
-5.26626e-07
-2.79676e-07
-6.66298e-09
2.95353e-07
6.27933e-07
9.91016e-07
1.3828e-06
1.79912e-06
2.23302e-06
2.67443e-06
3.10921e-06
3.51937e-06
3.88647e-06
4.18539e-06
4.33417e-06
4.30389e-06
4.06618e-06
3.61703e-06
2.93161e-06
2.0724e-06
1.0857e-06
1.0783e-07
-8.23933e-07
-1.70367e-06
-2.50851e-06
-3.19886e-06
-3.79863e-06
-4.31962e-06
-4.70306e-06
-4.99172e-06
-5.16282e-06
-5.19745e-06
-5.10305e-06
-4.89334e-06
-4.59596e-06
-4.24003e-06
-3.85722e-06
-3.48034e-06
-3.13294e-06
-2.82447e-06
-2.56341e-06
-2.34004e-06
-2.13868e-06
-1.95271e-06
-1.7255e-06
-1.48266e-06
-1.13648e-06
-7.37187e-07
-2.78572e-07
2.25808e-07
7.25583e-07
1.21287e-06
1.64523e-06
1.99541e-06
2.2659e-06
2.43373e-06
2.53549e-06
2.60048e-06
2.62768e-06
2.62519e-06
2.59254e-06
2.54965e-06
2.49532e-06
2.4263e-06
2.34968e-06
2.27476e-06
2.19371e-06
2.10738e-06
2.01993e-06
1.94547e-06
1.87608e-06
1.83948e-06
1.8138e-06
1.79667e-06
1.76469e-06
1.64756e-06
1.46535e-06
1.18182e-06
6.95948e-07
7.43268e-08
-5.89405e-07
-1.29054e-06
-1.9695e-06
-2.57311e-06
-3.07466e-06
-3.45296e-06
-3.70335e-06
-3.81807e-06
-3.80133e-06
-3.66562e-06
-3.41242e-06
-3.0879e-06
-2.71664e-06
-2.32953e-06
-1.93881e-06
-1.60087e-06
-1.28248e-06
-1.01926e-06
-7.84938e-07
-5.83344e-07
-4.06907e-07
-2.57493e-07
-1.20169e-07
-1.34248e-08
8.57857e-08
1.56324e-07
2.46472e-07
3.18052e-07
4.0707e-07
5.11662e-07
6.19127e-07
7.42211e-07
8.66823e-07
9.93221e-07
1.1096e-06
1.22007e-06
1.31856e-06
1.39923e-06
1.47261e-06
1.53076e-06
1.57856e-06
1.61353e-06
1.64186e-06
1.66843e-06
1.68509e-06
1.69816e-06
1.71211e-06
1.74252e-06
1.79469e-06
1.8828e-06
2.01546e-06
2.18364e-06
2.32931e-06
2.4453e-06
2.47954e-06
2.33991e-06
1.99657e-06
1.61422e-06
1.14006e-06
6.5094e-07
2.16639e-07
-1.20974e-07
-2.24153e-07
-2.03679e-07
-1.60781e-07
-6.23503e-08
3.80775e-07
6.08694e-07
8.95563e-07
1.35445e-06
1.84287e-06
2.39624e-06
3.01993e-06
3.68725e-06
4.39456e-06
5.19929e-06
6.08401e-06
7.03924e-06
8.07267e-06
9.19158e-06
1.03998e-05
1.17002e-05
1.30954e-05
1.45876e-05
1.61782e-05
1.78679e-05
1.96565e-05
2.15424e-05
2.35221e-05
2.55896e-05
2.77356e-05
2.99464e-05
3.22032e-05
3.44801e-05
3.67407e-05
3.89325e-05
4.09785e-05
4.27719e-05
4.41875e-05
4.51366e-05
4.56352e-05
4.57554e-05
4.56467e-05
-3.52967e-06
-3.69068e-06
-3.7342e-06
-3.61161e-06
-3.39212e-06
-3.12296e-06
-2.83569e-06
-2.55223e-06
-2.28721e-06
-2.04199e-06
-1.81647e-06
-1.61343e-06
-1.42546e-06
-1.24402e-06
-1.06454e-06
-8.81286e-07
-6.88049e-07
-4.79464e-07
-2.51366e-07
-4.34352e-10
2.75681e-07
5.78092e-07
9.06327e-07
1.25886e-06
1.6319e-06
2.01889e-06
2.41093e-06
2.79584e-06
3.15805e-06
3.48123e-06
3.74374e-06
3.8832e-06
3.86543e-06
3.66474e-06
3.28094e-06
2.69437e-06
1.95033e-06
1.08661e-06
2.07576e-07
-6.48716e-07
-1.46674e-06
-2.22452e-06
-2.87865e-06
-3.44767e-06
-3.91885e-06
-4.24484e-06
-4.47838e-06
-4.58756e-06
-4.56995e-06
-4.43944e-06
-4.21462e-06
-3.92425e-06
-3.59539e-06
-3.25604e-06
-2.93012e-06
-2.63603e-06
-2.37743e-06
-2.16157e-06
-1.97852e-06
-1.81591e-06
-1.66669e-06
-1.49671e-06
-1.3053e-06
-1.04588e-06
-7.33762e-07
-3.6135e-07
6.89316e-08
5.14843e-07
9.6667e-07
1.40943e-06
1.77769e-06
2.11547e-06
2.3672e-06
2.51728e-06
2.61672e-06
2.67122e-06
2.69042e-06
2.6706e-06
2.63612e-06
2.5876e-06
2.51896e-06
2.44042e-06
2.36127e-06
2.27058e-06
2.18125e-06
2.08525e-06
2.00287e-06
1.92127e-06
1.84932e-06
1.76873e-06
1.6729e-06
1.4961e-06
1.291e-06
1.01799e-06
5.77749e-07
2.01294e-08
-5.86748e-07
-1.17571e-06
-1.75226e-06
-2.2736e-06
-2.71144e-06
-3.05734e-06
-3.29879e-06
-3.43477e-06
-3.45958e-06
-3.37887e-06
-3.2054e-06
-2.94351e-06
-2.63674e-06
-2.30386e-06
-1.97008e-06
-1.64513e-06
-1.3662e-06
-1.10856e-06
-8.9452e-07
-7.04165e-07
-5.38834e-07
-3.92149e-07
-2.6415e-07
-1.44693e-07
-4.52266e-08
4.71735e-08
1.19082e-07
2.00476e-07
2.70069e-07
3.5279e-07
4.54441e-07
5.58912e-07
6.7946e-07
8.04496e-07
9.3838e-07
1.06016e-06
1.18275e-06
1.2962e-06
1.39001e-06
1.4764e-06
1.54581e-06
1.60379e-06
1.64921e-06
1.68325e-06
1.71182e-06
1.73371e-06
1.75039e-06
1.76885e-06
1.79939e-06
1.84603e-06
1.92566e-06
2.0249e-06
2.11165e-06
2.11437e-06
2.08524e-06
1.97933e-06
1.699e-06
1.31623e-06
9.33293e-07
5.37463e-07
1.89936e-07
-7.32769e-08
-2.47783e-07
-2.25806e-07
-1.35345e-07
-5.57331e-08
6.97294e-08
4.66064e-07
7.08138e-07
1.00271e-06
1.44007e-06
1.89837e-06
2.41807e-06
3.00312e-06
3.63121e-06
4.29973e-06
5.05833e-06
5.89335e-06
6.79819e-06
7.78067e-06
8.84789e-06
1.00037e-05
1.12508e-05
1.25915e-05
1.40272e-05
1.55584e-05
1.71842e-05
1.89029e-05
2.07105e-05
2.26007e-05
2.45638e-05
2.65864e-05
2.86497e-05
3.07294e-05
3.27937e-05
3.48005e-05
3.66934e-05
3.8396e-05
3.98112e-05
4.08402e-05
4.14437e-05
4.17115e-05
4.17038e-05
4.16139e-05
-2.92195e-06
-3.06241e-06
-3.11877e-06
-3.0472e-06
-2.89415e-06
-2.69403e-06
-2.47116e-06
-2.24351e-06
-2.02382e-06
-1.8179e-06
-1.62515e-06
-1.4437e-06
-1.27315e-06
-1.10973e-06
-9.46864e-07
-7.79786e-07
-6.03658e-07
-4.14045e-07
-2.07776e-07
1.7681e-08
2.64135e-07
5.32399e-07
8.21208e-07
1.12954e-06
1.45449e-06
1.78974e-06
2.1278e-06
2.45855e-06
2.76925e-06
3.04606e-06
3.27017e-06
3.39616e-06
3.38771e-06
3.22282e-06
2.90275e-06
2.40954e-06
1.77319e-06
1.02299e-06
2.4033e-07
-5.37635e-07
-1.28888e-06
-1.99123e-06
-2.59897e-06
-3.12058e-06
-3.5202e-06
-3.7989e-06
-3.98117e-06
-4.03951e-06
-3.9835e-06
-3.83128e-06
-3.60401e-06
-3.32954e-06
-3.03172e-06
-2.73414e-06
-2.45402e-06
-2.20544e-06
-1.9887e-06
-1.80991e-06
-1.65929e-06
-1.52859e-06
-1.4065e-06
-1.27438e-06
-1.12304e-06
-9.25464e-07
-6.81108e-07
-3.82329e-07
-2.36218e-08
3.68225e-07
7.7974e-07
1.20907e-06
1.58204e-06
1.92586e-06
2.22959e-06
2.45716e-06
2.60805e-06
2.69971e-06
2.74918e-06
2.75038e-06
2.7301e-06
2.69196e-06
2.62673e-06
2.54921e-06
2.46864e-06
2.37071e-06
2.27729e-06
2.17598e-06
2.07113e-06
1.96162e-06
1.84263e-06
1.69503e-06
1.48958e-06
1.23353e-06
9.20344e-07
5.17533e-07
5.29761e-09
-5.25776e-07
-1.06939e-06
-1.55905e-06
-2.01118e-06
-2.39807e-06
-2.70716e-06
-2.93832e-06
-3.08192e-06
-3.13746e-06
-3.10037e-06
-2.97794e-06
-2.78379e-06
-2.52507e-06
-2.24137e-06
-1.94659e-06
-1.66069e-06
-1.39111e-06
-1.16078e-06
-9.52066e-07
-7.77907e-07
-6.23776e-07
-4.87977e-07
-3.67024e-07
-2.59169e-07
-1.56829e-07
-6.65856e-08
1.87134e-08
9.10984e-08
1.67386e-07
2.36822e-07
3.13574e-07
4.04911e-07
5.08981e-07
6.27453e-07
7.61552e-07
9.0276e-07
1.02564e-06
1.15068e-06
1.27429e-06
1.38089e-06
1.48091e-06
1.56269e-06
1.63103e-06
1.68603e-06
1.72918e-06
1.76081e-06
1.77983e-06
1.80258e-06
1.82172e-06
1.84546e-06
1.87546e-06
1.9139e-06
1.94197e-06
1.86969e-06
1.79942e-06
1.68981e-06
1.43748e-06
1.09185e-06
7.35133e-07
4.20293e-07
1.37149e-07
-7.59767e-08
-2.09864e-07
-2.76981e-07
-1.88814e-07
-6.8282e-08
2.93253e-08
1.7167e-07
5.28183e-07
7.79189e-07
1.0751e-06
1.48795e-06
1.915e-06
2.39895e-06
2.94243e-06
3.52774e-06
4.15356e-06
4.86139e-06
5.64125e-06
6.48931e-06
7.41341e-06
8.42041e-06
9.51418e-06
1.06974e-05
1.19719e-05
1.33385e-05
1.47967e-05
1.63448e-05
1.7979e-05
1.96935e-05
2.14792e-05
2.33232e-05
2.52081e-05
2.71113e-05
2.90039e-05
3.08501e-05
3.26053e-05
3.42136e-05
3.56057e-05
3.67022e-05
3.74344e-05
3.77975e-05
3.79084e-05
3.788e-05
3.78372e-05
-2.4136e-06
-2.53157e-06
-2.58966e-06
-2.54956e-06
-2.4426e-06
-2.29341e-06
-2.12048e-06
-1.93829e-06
-1.75731e-06
-1.58347e-06
-1.41826e-06
-1.26093e-06
-1.11061e-06
-9.64963e-07
-8.19318e-07
-6.68778e-07
-5.1048e-07
-3.42059e-07
-1.60398e-07
3.68824e-08
2.5101e-07
4.82985e-07
7.31172e-07
9.93388e-07
1.26785e-06
1.54991e-06
1.83334e-06
2.11002e-06
2.36987e-06
2.60159e-06
2.78986e-06
2.90087e-06
2.90072e-06
2.77005e-06
2.51017e-06
2.10263e-06
1.56477e-06
9.18297e-07
2.27787e-07
-4.71339e-07
-1.1525e-06
-1.79225e-06
-2.34177e-06
-2.7987e-06
-3.13583e-06
-3.37611e-06
-3.50904e-06
-3.52487e-06
-3.44156e-06
-3.27878e-06
-3.05803e-06
-2.80481e-06
-2.53933e-06
-2.28082e-06
-2.04149e-06
-1.83196e-06
-1.65073e-06
-1.5028e-06
-1.37891e-06
-1.27395e-06
-1.17446e-06
-1.07167e-06
-9.52306e-07
-8.01419e-07
-6.11814e-07
-3.75864e-07
-8.49194e-08
2.47362e-07
6.10378e-07
1.01033e-06
1.39112e-06
1.73536e-06
2.04791e-06
2.32399e-06
2.53483e-06
2.67738e-06
2.76972e-06
2.80467e-06
2.80917e-06
2.79034e-06
2.73515e-06
2.66412e-06
2.5865e-06
2.48815e-06
2.3836e-06
2.26262e-06
2.13274e-06
1.9886e-06
1.80234e-06
1.59013e-06
1.30159e-06
9.28195e-07
5.40333e-07
6.24599e-08
-4.3319e-07
-9.08099e-07
-1.37302e-06
-1.76279e-06
-2.10702e-06
-2.38921e-06
-2.60416e-06
-2.75341e-06
-2.82754e-06
-2.82593e-06
-2.74602e-06
-2.59731e-06
-2.39452e-06
-2.14711e-06
-1.88959e-06
-1.63188e-06
-1.38921e-06
-1.16687e-06
-9.77607e-07
-8.09309e-07
-6.68737e-07
-5.45466e-07
-4.33397e-07
-3.35288e-07
-2.46402e-07
-1.6059e-07
-8.15336e-08
-5.11995e-09
6.44343e-08
1.36006e-07
2.05124e-07
2.79187e-07
3.63251e-07
4.58642e-07
5.68373e-07
6.93826e-07
8.3223e-07
9.78584e-07
1.11366e-06
1.24599e-06
1.36461e-06
1.47848e-06
1.57418e-06
1.65481e-06
1.71918e-06
1.77188e-06
1.81086e-06
1.83512e-06
1.85273e-06
1.8623e-06
1.86583e-06
1.85672e-06
1.81699e-06
1.75864e-06
1.63678e-06
1.44246e-06
1.19663e-06
9.00293e-07
5.93413e-07
3.07784e-07
8.35081e-08
-9.45716e-08
-2.05161e-07
-2.53852e-07
-2.57386e-07
-1.41709e-07
-1.23429e-08
9.54592e-08
2.49437e-07
5.72075e-07
8.26102e-07
1.11696e-06
1.50178e-06
1.89552e-06
2.3408e-06
2.83936e-06
3.37815e-06
3.95717e-06
4.6098e-06
5.3295e-06
6.11493e-06
6.97375e-06