/*--------------------------------*- C++ -*----------------------------------*\
| =========                 |                                                 |
| \\      /  F ield         | OpenFOAM: The Open Source CFD Toolbox           |
|  \\    /   O peration     | Version:  2506                                  |
|   \\  /    A nd           | Website:  www.openfoam.com                      |
|    \\/     M anipulation  |                                                 |
\*---------------------------------------------------------------------------*/
FoamFile
{
    version     2.0;
    format      ascii;
    arch        "LSB;label=32;scalar=64";
    class       volVectorField;
    location    "4.25";
    object      vorticityField;
}
// * * * * * * * * * * * * * * * * * * * * * * * * * * * * * * * * * * * * * //

dimensions      [0 0 -1 0 0 0 0];

internalField   nonuniform List<vector> 
4000
(
(3.73708e-19 1.50009e-19 30.7983)
(1.60288e-20 7.10872e-20 33.3265)
(1.84758e-19 5.45768e-19 28.0286)
(2.23773e-19 7.54222e-19 22.9994)
(-6.03331e-20 8.79467e-19 19.6737)
(2.51399e-20 4.87002e-21 17.3283)
(1.00542e-19 1.02359e-18 15.5319)
(2.27753e-20 1.08121e-18 14.1305)
(-7.53284e-21 2.37187e-21 13.0185)
(-5.35449e-21 -4.01174e-21 12.1144)
(4.96632e-20 2.3878e-17 11.3642)
(-8.28081e-20 -4.53991e-17 10.7332)
(3.06984e-20 2.1485e-17 10.1976)
(-1.79681e-20 -2.29185e-17 9.73995)
(1.73936e-20 2.28216e-17 9.34774)
(8.09528e-21 1.2483e-18 9.01134)
(-8.20198e-21 2.29023e-17 8.72321)
(2.31522e-20 -2.28239e-17 8.47717)
(3.37104e-20 1.26329e-18 8.26801)
(-4.01894e-20 -1.27036e-21 8.09107)
(4.10429e-21 -2.37466e-21 7.94201)
(9.86422e-20 -1.25038e-18 7.81652)
(-9.8033e-20 -1.24349e-18 7.7101)
(-1.30913e-19 -1.74134e-21 7.61775)
(1.3591e-19 -1.24329e-18 7.53364)
(7.37964e-21 -1.23168e-18 7.45065)
(2.01025e-19 5.54728e-21 7.35966)
(-2.50324e-20 1.9699e-19 7.24888)
(-5.57443e-19 4.41047e-17 7.10228)
(1.66978e-19 -4.55457e-17 6.8739)
(2.24436e-19 -1.04681e-20 6.49831)
(-2.41472e-19 -9.18615e-17 6.25827)
(3.21923e-18 1.22306e-16 6.49249)
(9.44457e-18 -4.28182e-17 7.24668)
(1.20081e-17 -9.6404e-17 8.45337)
(4.84796e-17 7.44853e-16 10.0943)
(3.22257e-17 -6.12231e-17 11.9599)
(-4.61794e-17 -1.19066e-16 15.0379)
(-2.67817e-20 -2.82033e-18 19.8165)
(2.27679e-17 4.75439e-17 25.0132)
(-2.59062e-17 -5.72795e-17 30.0115)
(1.50495e-16 4.71161e-16 34.4944)
(-2.80381e-19 1.64345e-18 38.3325)
(3.16847e-16 2.81358e-16 41.4741)
(-1.48296e-16 -1.12836e-16 43.9044)
(3.23398e-19 3.3313e-16 45.6559)
(1.74278e-18 7.96057e-18 46.6987)
(-2.73112e-18 -3.41864e-16 47.1651)
(-2.11402e-16 -1.90648e-16 47.1729)
(-1.62563e-16 -1.38005e-16 46.8422)
(-3.06734e-18 -5.41737e-18 46.2607)
(3.61477e-19 6.55782e-19 45.2292)
(-1.03996e-17 -2.22108e-17 44.1407)
(4.08824e-18 3.23228e-16 42.6142)
(-9.23951e-17 2.15984e-16 40.6132)
(4.57102e-18 -2.82141e-16 37.649)
(-3.57182e-17 -8.6707e-17 33.7395)
(8.67742e-18 3.5526e-17 28.6028)
(-3.9068e-20 -3.96989e-20 22.4558)
(9.28953e-19 -3.3865e-17 16.2555)
(2.90419e-18 -9.08676e-17 10.8688)
(8.6595e-18 4.22872e-17 6.76204)
(-2.06378e-18 3.44861e-16 3.95805)
(6.72077e-18 -3.4775e-16 2.24144)
(-1.57245e-20 7.98657e-19 1.21103)
(-1.03344e-19 9.04277e-20 0.650036)
(9.07424e-21 -8.15648e-20 0.352684)
(2.16036e-19 -4.89379e-17 0.195417)
(2.75056e-19 -7.12967e-16 0.110663)
(1.01066e-18 -3.77624e-16 0.0610781)
(-2.6228e-20 1.14781e-18 0.0296811)
(-1.0894e-18 3.22068e-16 0.00917282)
(-1.70866e-20 -3.15151e-16 -0.0048198)
(-6.39368e-19 -4.21411e-17 -0.0147553)
(-3.36409e-19 3.40738e-16 -0.0214985)
(4.40263e-19 -2.89995e-16 -0.0260234)
(8.84645e-19 -3.18845e-16 -0.0283831)
(-1.72149e-19 -3.03957e-16 -0.0295085)
(-4.03155e-20 5.27155e-19 -0.0295444)
(-3.90878e-19 3.77029e-19 -0.0289608)
(3.54555e-19 8.29417e-18 -0.0279809)
(-2.91201e-19 2.3964e-16 -0.0264897)
(1.12137e-20 -6.7573e-19 -0.0246277)
(2.57883e-19 -2.11436e-16 -0.0221498)
(4.23181e-20 1.99756e-16 -0.0182711)
(-3.55842e-21 -2.69935e-19 -0.0124859)
(1.48843e-20 9.16147e-21 -0.0027362)
(-2.70305e-20 1.01292e-17 0.0175906)
(-2.07186e-20 3.49071e-17 0.0589295)
(-3.58276e-20 -8.44218e-17 0.135349)
(2.26544e-20 7.43152e-20 0.259145)
(3.66535e-19 -3.37185e-18 0.44705)
(-2.91129e-19 -1.43568e-17 0.693451)
(3.36711e-19 6.32158e-19 0.997706)
(-7.98261e-19 2.5783e-16 1.31077)
(6.24877e-18 2.64989e-16 1.54454)
(-1.72698e-18 2.74549e-16 1.54211)
(-8.1206e-19 1.77888e-17 1.23096)
(2.81089e-18 3.04238e-16 0.581585)
(-1.65096e-18 3.3153e-16 -0.406996)
(7.16782e-20 -5.48804e-18 -1.66272)
(-1.96446e-18 3.43579e-16 -2.98181)
(-1.89134e-17 7.07155e-16 -4.17647)
(-8.92331e-19 1.50104e-17 -5.10236)
(-2.20526e-17 3.72207e-16 -5.58832)
(7.83834e-20 2.52657e-18 -5.56475)
(2.19776e-17 -3.80283e-16 -4.98819)
(1.70758e-17 -3.54715e-16 -3.91267)
(2.74677e-18 -2.37843e-17 -2.46901)
(2.29211e-18 4.26176e-18 -0.70755)
(-2.92889e-18 -3.44938e-16 1.30049)
(5.75655e-18 3.1805e-16 3.35502)
(9.37684e-20 -4.07986e-19 5.36029)
(1.4885e-17 6.01738e-16 7.01495)
(2.77776e-19 1.39237e-16 8.15015)
(5.28922e-18 2.9248e-16 8.51573)
(1.61619e-20 3.85508e-19 7.913)
(-9.43304e-20 7.30613e-17 6.55443)
(1.16142e-19 -9.11137e-18 4.87179)
(-2.80437e-20 -1.0815e-19 3.25753)
(-1.11079e-19 9.35084e-18 2.01192)
(2.94939e-18 -3.3178e-16 1.1769)
(-4.40088e-19 3.47989e-16 0.669349)
(-1.18572e-20 2.14186e-17 0.384774)
(-8.6875e-19 3.25862e-16 0.231748)
(8.17209e-19 -6.81077e-16 0.154689)
(-4.88151e-19 3.3164e-16 0.113135)
(6.42758e-20 -3.73441e-16 0.0878937)
(-2.69741e-19 9.20862e-19 0.0711853)
(2.23909e-19 -3.22361e-16 0.0587334)
(1.10339e-20 6.49926e-19 0.0484938)
(-5.48856e-19 3.31556e-16 0.0398248)
(4.86747e-19 -4.10995e-17 0.0325044)
(-3.62131e-19 3.52696e-16 0.0263833)
(-2.45473e-19 -1.3341e-19 0.0213334)
(-3.34068e-20 -3.1674e-19 0.017182)
(2.75899e-19 -2.7998e-16 0.0137897)
(-2.47477e-19 2.68368e-16 0.0111007)
(2.90818e-20 -3.49158e-19 0.0090935)
(2.15395e-19 1.07586e-19 0.00779371)
(-1.57659e-19 2.28812e-16 0.007141)
(4.75224e-20 -5.37768e-17 0.00747401)
(-3.65543e-19 2.55035e-16 0.0093455)
(4.97262e-20 -4.3684e-19 0.0137914)
(1.00005e-20 -1.39538e-16 0.0236551)
(7.631e-20 -9.1162e-17 0.0435671)
(-4.41085e-20 6.90646e-17 0.0836021)
(3.59412e-20 -4.77567e-17 0.160604)
(-5.8314e-20 1.00851e-20 0.291438)
(2.22965e-19 5.30857e-17 0.491647)
(2.23962e-19 -4.71485e-19 0.779926)
(-1.30512e-18 -3.66078e-16 1.14925)
(8.70951e-19 6.34698e-17 1.57526)
(-8.98538e-18 9.71545e-18 2.00736)
(-2.85072e-18 2.22167e-16 2.2894)
(1.5979e-18 7.34377e-17 2.29319)
(3.42126e-19 9.9904e-20 1.91608)
(2.14823e-18 2.35858e-18 1.17718)
(-1.2489e-18 -5.73155e-18 0.0800709)
(8.40841e-18 -7.32201e-16 -1.28644)
(-2.31288e-18 1.02884e-16 -2.72625)
(-1.88904e-17 4.12457e-16 -4.08005)
(3.42621e-18 2.98896e-16 -5.25597)
(1.58475e-19 4.20804e-19 -4.77469)
(-1.1782e-18 -3.06498e-16 -4.06857)
(6.91631e-18 -5.27896e-16 -3.01061)
(3.56187e-19 -2.16077e-18 -1.83207)
(7.7518e-19 -6.92591e-17 -0.649373)
(8.04832e-19 -1.95059e-16 0.415531)
(9.14048e-21 -6.26064e-17 1.2089)
(1.17225e-19 -4.64894e-21 1.67086)
(2.51181e-21 -9.23085e-19 1.96709)
(3.51338e-19 -6.84442e-22 2.23448)
(-3.3914e-19 -9.10644e-19 2.50252)
(-7.4223e-20 -1.28893e-18 2.7747)
(2.73029e-20 -5.89673e-17 3.05374)
(-5.34881e-19 5.982e-17 3.33979)
(-1.42217e-19 2.81414e-17 3.62974)
(7.14637e-19 -2.95032e-17 3.9192)
(-1.77959e-20 2.7077e-17 4.20481)
(4.9673e-19 -5.72521e-17 4.48545)
(-3.72313e-19 2.79656e-17 4.76249)
(-6.97731e-19 -3.80023e-19 5.03967)
(6.99662e-19 -7.92611e-19 5.32241)
(-5.77173e-20 1.80909e-19 5.6171)
(1.64976e-18 -2.72979e-17 5.93035)
(-1.70465e-18 2.6115e-17 6.26855)
(1.95869e-18 -2.64813e-17 6.63797)
(-1.99043e-18 2.60247e-17 7.04535)
(1.05813e-18 -1.40687e-17 7.4994)
(-1.11996e-18 1.2677e-17 8.01325)
(6.46117e-20 -1.15552e-18 8.60871)
(-8.68566e-20 -6.66306e-19 9.32412)
(-8.50428e-19 -9.47428e-21 10.2295)
(9.72501e-19 -6.89146e-19 11.4566)
(-1.13994e-19 -1.08995e-18 13.2579)
(7.80915e-19 -5.06706e-18 16.1561)
(-6.39908e-19 6.0625e-18 21.3207)
(-6.99328e-21 -6.56676e-19 29.2004)
(-1.51977e-20 -4.89438e-20 28.8521)
(-4.88406e-21 -2.06906e-19 -2.18983)
(2.99048e-19 -1.28783e-19 10.0586)
(-1.47733e-19 -6.19994e-19 13.0273)
(1.13787e-18 1.60052e-18 13.4867)
(-1.91607e-18 -7.27624e-18 13.1548)
(3.58662e-19 -1.01894e-18 12.5382)
(6.21244e-19 4.43931e-18 11.8584)
(-2.20142e-19 -2.22718e-18 11.2105)
(-1.4852e-19 -1.3279e-18 10.6224)
(-1.08082e-19 -1.42751e-18 10.0974)
(-1.27107e-19 -2.68152e-18 9.63121)
(-4.66682e-19 -1.743e-17 9.21799)
(3.79316e-19 1.69523e-17 8.85166)
(-2.40544e-19 -1.65074e-17 8.52673)
(4.5198e-19 3.14552e-17 8.23854)
(-4.96388e-19 -3.66878e-17 7.98316)
(1.71637e-19 1.50681e-17 7.75725)
(-1.95859e-19 -1.9126e-17 7.5579)
(-1.72427e-19 -2.05675e-17 7.38251)
(2.41606e-19 3.26776e-17 7.22866)
(-1.19722e-20 -2.01432e-18 7.094)
(-1.86079e-19 -3.54179e-17 6.9761)
(2.24859e-19 3.61937e-17 6.87237)
(6.05481e-21 3.27093e-17 6.77988)
(-2.56014e-19 -3.35598e-17 6.69519)
(1.2006e-19 -7.2124e-19 6.6141)
(4.00725e-20 -3.46962e-17 6.53134)
(-3.27942e-19 2.35871e-18 6.44014)
(7.7099e-19 6.93681e-17 6.33103)
(8.24897e-20 9.64411e-19 6.18939)
(-4.95573e-19 -3.49646e-17 5.99096)
(-1.68836e-18 -3.48264e-17 5.72024)
(-6.31069e-18 -1.05015e-16 5.46859)
(-1.75659e-17 -2.16557e-16 5.25089)
(-1.49752e-17 -1.54536e-16 5.03181)
(-1.65083e-17 -1.94624e-16 4.79307)
(2.88042e-17 -6.40564e-18 4.58726)
(4.18357e-17 1.31852e-16 4.60054)
(-2.63182e-17 -3.09339e-17 4.84413)
(-1.02952e-16 -8.99665e-17 5.23035)
(-1.52482e-16 -1.20822e-16 5.85563)
(-1.51671e-16 -1.71537e-16 6.65548)
(-1.9486e-18 7.97255e-19 7.52049)
(-3.59221e-16 -3.35079e-16 8.39358)
(1.88749e-16 1.62636e-16 9.23908)
(-2.62538e-16 -1.4184e-16 10.0315)
(2.61381e-16 1.32836e-16 10.7348)
(7.16312e-20 3.17791e-18 11.363)
(-4.00844e-17 4.552e-17 11.9157)
(1.8415e-16 1.65075e-16 12.4298)
(-2.3735e-16 -1.14128e-16 12.8525)
(2.43482e-17 7.14286e-18 13.2339)
(2.02624e-16 9.56656e-17 13.6604)
(-4.11797e-17 -2.37691e-17 14.121)
(1.28046e-16 1.35602e-16 14.6803)
(3.03179e-19 2.00166e-18 15.327)
(3.74251e-17 7.56269e-17 16.0007)
(-1.63962e-17 -4.65134e-17 16.4574)
(-2.11045e-18 -6.04852e-18 16.2253)
(-5.05675e-19 2.39091e-17 14.8647)
(-4.32226e-18 1.02917e-16 12.4867)
(-8.48318e-18 2.56543e-16 9.52591)
(-1.61925e-17 3.09736e-16 6.6737)
(-6.79212e-18 3.43003e-16 4.42432)
(1.78549e-19 -4.48114e-17 2.78818)
(-4.87853e-20 4.47727e-17 1.69802)
(1.29008e-20 -1.0664e-19 1.0063)
(-2.20318e-19 1.54412e-18 0.586905)
(-2.06385e-18 7.47504e-16 0.34175)
(-4.73212e-19 -3.71456e-16 0.198549)
(-1.10577e-19 -4.44608e-17 0.113713)
(5.2449e-19 4.53135e-16 0.0618244)
(-5.11594e-19 3.11353e-16 0.0292505)
(-4.13031e-19 3.90433e-16 0.00921463)
(1.02312e-18 -1.91264e-18 -0.0035665)
(1.17559e-19 -2.12287e-17 -0.0118085)
(-1.54688e-18 -3.52834e-16 -0.0163742)
(-2.58376e-19 3.0342e-16 -0.018406)
(3.85057e-20 1.80446e-17 -0.0181374)
(9.34459e-19 2.83497e-16 -0.0163197)
(-8.6365e-19 -2.70334e-16 -0.0128902)
(2.70164e-19 2.5411e-19 -0.0076911)
(3.83357e-22 -2.55255e-22 -0.000685646)
(-2.45609e-19 -2.03572e-19 0.00950915)
(-2.27016e-20 -2.12778e-16 0.0242901)
(-4.65281e-21 6.40849e-18 0.0450586)
(7.34163e-20 -1.1753e-17 0.0763424)
(4.56297e-21 1.23029e-17 0.122469)
(9.39641e-20 -1.14416e-17 0.176649)
(-3.51663e-19 2.0486e-16 0.216506)
(1.62285e-20 -1.26514e-17 0.216033)
(2.59485e-20 1.17298e-17 0.139565)
(1.64572e-18 2.22079e-16 0.00743001)
(-4.44111e-18 -2.51508e-16 -0.154198)
(6.02626e-18 2.65894e-16 -0.288175)
(-4.97275e-18 -2.61474e-16 -0.381755)
(9.24809e-18 2.7937e-16 -0.45947)
(6.77504e-18 3.08528e-16 -0.496065)
(-1.61739e-18 -3.1655e-16 -0.472569)
(2.16586e-18 -3.18233e-16 -0.439948)
(-3.70699e-20 2.54269e-18 -0.395484)
(-1.52597e-17 3.62354e-16 -0.382229)
(1.97234e-17 -3.65184e-16 -0.399247)
(-2.14602e-19 1.28281e-17 -0.459447)
(-3.54268e-18 -1.41873e-17 -0.359052)
(-1.15741e-19 -3.44991e-18 -0.198934)
(-4.27868e-17 7.48951e-16 -0.00503297)
(-3.13032e-17 7.66811e-16 0.314712)
(-7.63713e-18 3.56567e-16 0.738445)
(-2.8083e-18 3.16342e-16 1.19155)
(5.8777e-18 3.49082e-16 1.70422)
(-2.05444e-17 -6.39774e-16 2.24977)
(5.87124e-19 1.5852e-17 2.83254)
(-1.87459e-17 -2.99982e-16 3.42514)
(1.24546e-18 3.02776e-17 3.99058)
(-5.22923e-18 -1.26976e-16 4.55082)
(-5.86105e-19 -1.49095e-17 5.03839)
(-5.67751e-19 -5.79369e-17 5.20013)
(9.93447e-20 -8.1815e-18 4.89889)
(-1.10466e-19 8.5257e-18 4.11168)
(1.40297e-20 4.42402e-19 3.1074)
(-3.45392e-18 3.22322e-16 2.18168)
(3.04647e-19 9.55117e-18 1.44714)
(2.13778e-19 -3.22676e-17 0.932276)
(1.35382e-18 -3.25659e-16 0.596529)
(-1.38919e-18 3.51023e-16 0.391241)
(-6.92017e-19 3.48968e-16 0.268545)
(-1.47265e-18 6.98725e-16 0.193501)
(-1.18389e-18 6.91905e-16 0.14596)
(-2.19284e-19 2.98499e-16 0.114409)
(-7.45665e-20 4.20643e-17 0.0921686)
(-6.81119e-21 3.26995e-16 0.0757029)
(5.50191e-19 -6.40914e-16 0.0632087)
(3.38778e-19 7.83961e-17 0.0537086)
(-2.13121e-19 2.25273e-16 0.0466679)
(-9.55157e-20 -1.91629e-19 0.0417009)
(3.01911e-20 -1.85261e-20 0.0385962)
(6.16729e-19 -9.69843e-19 0.0372288)
(-1.21267e-20 -6.35095e-17 0.03765)
(-9.07013e-20 -1.8012e-16 0.040197)
(-5.26849e-20 -5.67801e-17 0.0450833)
(3.55902e-20 1.9839e-19 0.0532042)
(1.51852e-19 1.01426e-16 0.0663433)
(1.47308e-19 -9.68598e-17 0.086563)
(-2.66208e-19 1.40316e-16 0.118124)
(-1.09861e-19 -1.03428e-19 0.164989)
(-2.17481e-20 4.59511e-17 0.225919)
(1.77707e-19 -4.76002e-17 0.283444)
(-2.75953e-19 9.88074e-17 0.307426)
(2.52831e-19 5.98499e-20 0.268369)
(-1.18021e-19 -7.38535e-20 0.160932)
(2.74293e-20 1.94059e-20 0.0164957)
(7.19834e-19 2.12438e-18 -0.104023)
(2.14229e-17 6.03945e-16 -0.176429)
(6.95736e-18 1.44029e-16 -0.234511)
(2.83653e-18 7.36118e-17 -0.273747)
(-6.79972e-19 -8.26908e-17 -0.299994)
(-7.08596e-18 -5.19913e-16 -0.320742)
(-2.05025e-18 1.88232e-16 -0.362099)
(-8.36323e-18 3.61335e-16 -0.436363)
(7.69841e-19 -4.36129e-18 -0.582893)
(1.33468e-17 -2.99478e-16 -0.763404)
(-5.21889e-18 1.06879e-16 -0.691185)
(8.87377e-19 2.61891e-19 -0.350042)
(1.95184e-17 -3.97354e-16 -0.226214)
(-8.05617e-18 3.05529e-16 -0.0457043)
(1.61005e-19 6.30403e-19 0.14712)
(1.86244e-19 -4.41788e-21 0.331675)
(8.08013e-20 6.60335e-17 0.561255)
(-5.31542e-19 6.04244e-17 0.835449)
(3.38725e-19 -5.58991e-17 1.11639)
(1.91056e-19 7.45107e-19 1.37034)
(3.67063e-19 -5.8667e-17 1.60428)
(-2.43366e-19 5.81802e-17 1.82683)
(4.51978e-20 2.8022e-18 2.04359)
(-2.47446e-19 5.57753e-17 2.2578)
(5.24634e-19 -2.19951e-18 2.47118)
(-2.33203e-19 -2.91976e-17 2.6841)
(-1.73488e-19 -2.42085e-17 2.89632)
(1.66242e-19 -2.43429e-17 3.10772)
(-4.88892e-19 2.54201e-17 3.31884)
(4.49212e-19 -5.15371e-19 3.5311)
(-2.35797e-19 2.41582e-17 3.74687)
(7.69222e-20 -2.58024e-17 3.96935)
(-7.79719e-20 -9.00275e-19 4.20234)
(4.16147e-19 -2.04795e-17 4.45005)
(-3.55941e-19 2.53357e-17 4.71695)
(4.24337e-19 -2.23676e-17 5.00791)
(-1.52551e-18 2.49215e-17 5.32859)
(1.37298e-18 -9.08873e-18 5.68648)
(-2.80316e-19 1.17746e-17 6.09262)
(-2.81871e-19 -8.47706e-19 6.56483)
(1.66013e-20 2.54307e-18 7.13368)
(-4.69926e-19 8.12214e-18 7.85304)
(1.1596e-19 -9.8125e-18 8.81688)
(-9.50478e-20 2.24112e-18 10.1742)
(-6.81138e-19 1.7329e-19 12.079)
(9.86896e-19 -9.16244e-19 14.1983)
(3.40343e-19 5.30312e-19 13.077)
(-4.10759e-19 -1.55389e-19 -3.51912)
(-5.85324e-20 1.26705e-19 -7.70022)
(-1.74105e-18 2.16444e-19 1.1787)
(8.78997e-19 -3.24272e-19 4.93073)
(4.71426e-19 5.16758e-20 6.71561)
(-9.39616e-19 -3.93664e-19 7.51167)
(1.52233e-18 2.25461e-18 7.80981)
(-1.59468e-18 -2.18028e-18 7.85819)
(2.38335e-19 1.12951e-18 7.78096)
(1.65335e-19 1.3176e-18 7.6421)
(5.97404e-19 3.01738e-18 7.47514)
(1.14653e-19 1.52848e-18 7.29841)
(4.68959e-19 3.57374e-18 7.12197)
(-8.7216e-19 -1.07822e-17 6.95122)
(1.86727e-18 2.41442e-17 6.78904)
(-6.89075e-19 -9.37104e-18 6.63693)
(6.05527e-19 1.373e-17 6.49555)
(-3.29934e-19 -7.53755e-18 6.36509)
(1.74485e-19 4.46863e-18 6.24538)
(6.82224e-19 2.71113e-17 6.13602)
(-6.07288e-19 -2.33027e-17 6.03637)
(1.45047e-20 1.93195e-18 5.94554)
(-5.58778e-20 4.54553e-18 5.86241)
(-2.01702e-19 -2.5929e-17 5.78555)
(4.94158e-19 2.80819e-17 5.71312)
(2.15002e-19 2.59029e-17 5.64277)
(-2.02419e-20 -2.16614e-17 5.57146)
(-8.19565e-19 -2.59211e-17 5.49528)
(3.39556e-19 2.44051e-17 5.40906)
(2.21509e-19 -1.85187e-19 5.30537)
(2.52539e-19 3.20331e-21 5.175)
(-4.76321e-19 -1.15945e-20 5.0012)
(2.47656e-19 6.95402e-19 4.71936)
(1.14553e-17 1.0898e-16 4.34539)
(2.31413e-17 1.32524e-16 3.88276)
(-3.45334e-17 -1.20388e-16 3.32634)
(1.95583e-17 8.95534e-19 2.69375)
(-6.305e-17 -1.49877e-16 2.05151)
(2.19327e-17 2.43203e-17 1.53747)
(1.19111e-16 1.03881e-16 1.18718)
(-4.07999e-17 -9.16195e-18 1.00884)
(3.22694e-16 2.33986e-16 1.07749)
(1.2489e-18 7.97159e-18 1.35457)
(-2.07366e-16 -1.03322e-16 1.76535)
(-2.19768e-16 -1.0443e-16 2.26557)
(2.82229e-17 8.13703e-18 2.80806)
(1.73964e-16 1.02657e-16 3.35674)
(-4.57042e-16 -2.13398e-16 3.88064)
(-2.13417e-16 -8.94181e-17 4.39453)
(-7.11287e-17 -7.53567e-18 4.83994)
(-1.18195e-18 -2.79734e-18 5.26722)
(5.23597e-17 5.17977e-17 5.66555)
(-5.24319e-17 -1.86519e-17 6.02045)
(5.32813e-18 -2.83375e-17 6.39279)
(3.39139e-18 -9.5167e-19 6.79163)
(1.65705e-16 4.1966e-17 7.2892)
(-6.1523e-17 -1.06808e-17 7.92687)
(-6.10042e-17 -2.00372e-17 8.75351)
(2.88138e-17 1.18475e-17 9.75968)
(2.38909e-18 6.35623e-18 10.7922)
(1.95703e-19 1.0231e-20 11.5113)
(-4.89139e-19 2.04461e-17 11.5501)
(2.00551e-18 -2.23916e-17 10.6009)
(-1.34327e-18 -2.89114e-17 8.82489)
(2.25043e-17 -2.94978e-16 6.79587)
(-1.7552e-17 2.98312e-16 4.9119)
(1.53139e-17 -3.28301e-16 3.3749)
(-7.66353e-19 1.3093e-18 2.22263)
(6.86857e-20 -1.38574e-18 1.41581)
(7.50467e-18 -7.30751e-16 0.884876)
(-4.35128e-18 7.32504e-16 0.547298)
(6.09105e-19 -2.55884e-18 0.336014)
(9.56212e-19 -3.14608e-16 0.204756)
(4.34612e-19 -6.2417e-19 0.123004)
(7.867e-19 2.98232e-16 0.0717727)
(2.46039e-20 -3.56405e-16 0.0402431)
(-1.14892e-18 -3.00498e-16 0.0216541)
(3.45921e-19 6.45805e-16 0.0113844)
(3.86101e-19 -2.04066e-17 0.00707582)
(4.58789e-19 -1.93604e-17 0.00643218)
(-3.51154e-19 -5.22539e-16 0.00903342)
(2.55733e-19 5.1506e-16 0.0152757)
(-3.39492e-19 7.04632e-18 0.0249532)
(3.40102e-19 -2.48889e-19 0.0386016)
(-6.63971e-21 -6.49762e-18 0.0577128)
(-3.06494e-19 2.06913e-16 0.0844094)
(2.45009e-20 -3.98777e-19 0.120354)
(9.15594e-20 -4.70221e-17 0.166445)
(1.77217e-20 -7.02715e-19 0.212441)
(2.22502e-19 -3.50892e-17 0.235402)
(1.33401e-18 -1.91945e-16 0.201224)
(1.07348e-19 -1.27828e-17 0.0830036)
(3.24291e-19 -4.21811e-16 -0.126716)
(-1.55105e-18 -2.20733e-16 -0.367309)
(7.05343e-18 4.73864e-16 -0.597571)
(1.24984e-18 1.81868e-17 -0.761228)
(-8.73732e-18 -2.90199e-16 -0.801419)
(-1.39896e-17 -5.71457e-16 -0.701581)
(-4.42322e-18 -2.95736e-16 -0.490348)
(-1.92987e-18 3.96728e-19 -0.181154)
(-5.35508e-18 3.37113e-16 0.154284)
(8.07753e-21 -1.79754e-18 0.453778)
(1.75982e-17 -3.57376e-16 0.665155)
(-1.00202e-18 5.10723e-18 0.818378)
(-2.47914e-17 3.62539e-16 0.885143)
(2.57153e-17 -3.75417e-16 0.943626)
(1.38728e-19 2.87292e-18 1.06008)
(3.49903e-17 -7.31275e-16 1.12477)
(8.77812e-18 -3.72748e-16 1.21079)
(-1.07378e-18 -1.89132e-17 1.32167)
(-1.34678e-18 -3.40435e-16 1.45426)
(-2.95128e-18 -6.24385e-18 1.61273)
(1.60419e-17 3.04015e-16 1.78782)
(5.68077e-20 2.59443e-18 1.98274)
(-1.43908e-17 -2.59505e-16 2.22515)
(1.11308e-18 1.41864e-17 2.50702)
(2.36493e-19 8.64331e-20 2.84146)
(1.86555e-20 5.32234e-20 3.29639)
(5.84241e-19 5.81992e-17 3.77413)
(-2.33087e-20 -5.78483e-20 4.1285)
(2.14283e-19 -8.18588e-18 4.16121)
(-4.34359e-19 1.73354e-17 3.78579)
(7.93551e-19 -9.54076e-18 3.1258)
(2.74018e-19 -1.86923e-19 2.40384)
(-3.74578e-20 -2.7372e-19 1.74296)
(5.57442e-18 -3.55417e-16 1.21936)
(-4.41707e-18 3.83327e-16 0.843049)
(5.1382e-18 -7.14483e-16 0.588113)
(1.72483e-18 -3.46908e-16 0.420014)
(-3.20503e-19 -2.39554e-17 0.309861)
(1.6309e-18 -3.16877e-16 0.236989)
(1.33496e-19 4.13365e-17 0.187638)
(4.96551e-19 -3.26438e-16 0.153277)
(1.7097e-19 -7.79323e-17 0.128908)
(1.01916e-19 -9.04234e-20 0.111609)
(-1.80274e-19 -3.78841e-17 0.0997572)
(-3.37709e-19 7.18669e-17 0.0923633)
(4.10783e-19 -2.76997e-16 0.0887481)
(4.89235e-19 -5.28948e-16 0.0887167)
(-1.7997e-20 1.06198e-18 0.0922348)
(1.28688e-20 2.39995e-16 0.100007)
(-2.74199e-19 2.83426e-16 0.112584)
(3.16327e-19 -5.43782e-17 0.130769)
(1.62585e-19 -1.53337e-16 0.157432)
(1.30494e-19 -9.6546e-17 0.192936)
(-3.27167e-19 9.33504e-17 0.238405)
(-4.35946e-20 2.297e-17 0.28705)
(1.66259e-19 -8.67288e-20 0.318075)
(1.04272e-18 -1.41537e-16 0.295217)
(3.9141e-19 -9.93306e-17 0.181751)
(-5.19793e-20 -2.58973e-16 -0.0213907)
(6.60963e-19 1.10521e-16 -0.281682)
(-8.69298e-19 -5.96047e-17 -0.516039)
(-8.55422e-18 -2.5449e-16 -0.693149)
(-1.99189e-17 -5.3929e-16 -0.767769)
(-9.62682e-18 -2.80964e-16 -0.7171)
(-5.30091e-19 -8.68603e-19 -0.545497)
(-7.39143e-18 -3.2595e-16 -0.294491)
(5.66962e-18 9.41249e-16 0.00222102)
(-1.76819e-18 9.15485e-17 0.264358)
(1.20444e-18 1.94441e-18 0.448342)
(-1.75117e-17 3.83804e-16 0.551107)
(-7.85462e-19 -1.40082e-18 0.53487)
(-2.9858e-20 -2.43374e-19 0.593546)
(-1.3655e-17 2.46447e-16 0.715419)
(-1.74525e-17 3.93516e-16 0.738923)
(-4.89869e-19 2.73177e-19 0.7143)
(-2.83932e-20 -4.68053e-20 0.683914)
(4.10159e-18 -1.30383e-16 0.670488)
(-2.31262e-18 1.25545e-16 0.693174)
(1.21901e-19 -1.06779e-18 0.764482)
(1.87362e-19 -4.75788e-18 0.880462)
(9.42278e-19 -5.7218e-17 1.01594)
(-3.20808e-19 1.93183e-18 1.16048)
(8.54394e-19 -3.40827e-18 1.30326)
(-4.42129e-19 -5.48564e-18 1.44114)
(9.05619e-19 -5.23105e-17 1.5748)
(8.7307e-19 -1.22792e-18 1.70667)
(-1.67944e-18 5.27245e-17 1.83982)
(5.62574e-20 -1.7718e-18 1.9773)
(-9.89475e-19 2.36226e-17 2.12157)
(3.17686e-19 -2.56662e-17 2.27428)
(5.75927e-19 1.9514e-18 2.43635)
(-1.1188e-19 3.991e-21 2.6083)
(-4.15681e-21 1.54388e-18 2.79063)
(-9.22715e-20 1.78853e-18 2.98427)
(-2.34125e-19 -2.16168e-17 3.1909)
(3.85712e-19 1.92834e-17 3.41315)
(-2.40559e-19 -1.84222e-17 3.65488)
(-5.23269e-19 3.6244e-17 3.92162)
(6.94543e-19 -3.017e-17 4.22144)
(2.96638e-19 1.06939e-17 4.56659)
(3.28241e-20 2.44746e-18 4.97666)
(1.88531e-19 -1.31554e-18 5.48408)
(8.66944e-19 3.73702e-19 6.14164)
(-5.02117e-19 2.15889e-18 7.02456)
(-1.33886e-19 -1.10355e-18 8.18985)
(7.71422e-20 2.50616e-19 9.46166)
(-6.7886e-19 1.23399e-19 9.65833)
(1.54074e-18 -5.492e-19 4.58591)
(1.85377e-18 8.79931e-19 -12.5399)
(-9.24586e-19 2.04495e-19 -7.1106)
(4.42322e-20 -9.62197e-20 -1.7152)
(-1.36969e-19 5.96103e-20 1.2015)
(-1.4718e-18 4.12956e-19 2.85424)
(1.26871e-18 -4.51601e-19 3.85364)
(2.08474e-18 5.69873e-19 4.43432)
(-1.98276e-18 -3.94548e-19 4.77559)
(8.70998e-19 2.53136e-19 4.97465)
(-9.72082e-21 4.07532e-20 5.08575)
(-5.96647e-19 -1.59153e-18 5.14065)
(7.00239e-20 -1.57519e-20 5.15901)
(1.47025e-19 -8.76038e-19 5.15349)
(-1.9501e-20 7.76914e-21 5.13239)
(-2.86735e-19 -2.24425e-18 5.10135)
(8.44147e-21 -5.93348e-21 5.06418)
(-6.30317e-21 1.44203e-21 5.02352)
(-1.79343e-19 -2.53833e-18 4.98116)
(-8.96315e-19 -1.12034e-17 4.93824)
(2.05812e-18 2.6246e-17 4.89539)
(-1.30865e-18 -1.76256e-17 4.85281)
(-5.1453e-20 8.65779e-20 4.81031)
(7.92252e-19 1.5729e-17 4.76733)
(-9.00534e-19 -1.85779e-17 4.72284)
(-5.92736e-21 -1.8976e-18 4.67537)
(1.82015e-19 -1.64012e-19 4.62283)
(-6.91293e-19 -1.97085e-17 4.56244)
(5.68857e-19 1.91602e-17 4.49054)
(2.06247e-19 7.00722e-20 4.40227)
(1.16798e-18 1.92604e-17 4.29084)
(-1.29412e-18 -1.94105e-17 4.14835)
(2.14576e-18 1.98775e-17 3.96045)
(-5.26964e-18 -3.82315e-17 3.66479)
(-1.07215e-17 -6.65786e-17 3.24907)
(-5.05001e-18 -2.59875e-17 2.7082)
(-6.26867e-18 2.15242e-17 2.05402)
(6.26457e-18 -1.97716e-17 1.3301)
(-4.74692e-17 -5.65245e-17 0.615371)
(4.60864e-18 -4.3309e-19 0.0298154)
(4.12828e-17 5.82879e-18 -0.387181)
(-7.06896e-17 -3.50751e-17 -0.611814)
(4.57052e-17 1.02663e-17 -0.609296)
(-4.48625e-17 -2.84826e-17 -0.418252)
(4.24334e-16 2.073e-16 -0.100789)
(1.67423e-16 8.6589e-17 0.302043)
(5.8355e-17 2.71038e-17 0.760485)
(-8.58403e-22 3.1988e-19 1.23286)
(1.00668e-18 7.39492e-18 1.67534)
(5.01155e-16 1.97284e-16 2.10339)
(2.13541e-16 9.19207e-17 2.50097)
(3.01215e-17 7.54829e-18 2.82528)
(4.47635e-16 1.50335e-16 3.11469)
(-2.00272e-19 8.67023e-18 3.36612)
(-2.15519e-16 -6.45536e-17 3.60408)
(1.83745e-18 -1.98364e-18 3.85057)
(1.61117e-17 -1.10618e-17 4.15154)
(7.94167e-17 1.72039e-17 4.55529)
(3.70965e-17 1.34087e-17 5.12503)
(-4.98972e-17 -1.37936e-17 5.91543)
(9.20698e-18 2.15861e-18 6.9385)
(2.75174e-18 8.75278e-18 8.07747)
(-1.31486e-17 -2.72753e-17 9.08011)
(-1.13288e-18 -1.40849e-17 9.55268)
(1.78749e-17 -2.35671e-16 9.16775)
(-2.25965e-17 2.85296e-16 8.07376)
(3.87713e-17 -5.0714e-16 6.60175)
(9.74826e-18 -3.43554e-17 5.10685)
(-2.03339e-17 3.54307e-16 3.75286)
(-1.18681e-18 4.39177e-17 2.63817)
(-6.43595e-18 3.60107e-16 1.79671)
(5.79088e-18 -4.513e-16 1.19736)
(3.75567e-18 -3.064e-16 0.786842)
(-5.5712e-19 5.0273e-19 0.513222)
(8.19557e-19 -3.48005e-16 0.334006)
(5.94252e-19 -2.96967e-16 0.218635)
(-1.08938e-18 -3.82556e-17 0.145272)
(-1.7616e-19 6.40673e-16 0.099302)
(8.11104e-19 -3.5126e-16 0.0720184)
(-4.71618e-20 3.74093e-17 0.0573445)
(-4.70642e-19 -2.84723e-16 0.0517707)
(-5.34086e-19 2.73897e-16 0.0535726)
(9.90005e-19 -2.60973e-16 0.0622981)
(1.52797e-19 2.44963e-16 0.07742)
(3.1908e-20 -2.32408e-16 0.0995351)
(-3.50663e-19 5.78514e-19 0.128184)
(3.09072e-19 -6.58835e-18 0.164255)
(3.88511e-20 -5.98921e-18 0.204668)
(-3.20302e-19 5.90839e-17 0.243176)
(-1.87828e-20 -9.75615e-21 0.259753)
(-6.06283e-19 5.83763e-17 0.220482)
(-1.0643e-18 9.56705e-17 0.0979722)
(3.37507e-19 -2.4639e-17 -0.130453)
(-1.04465e-18 2.36815e-16 -0.405981)
(2.11338e-18 2.09833e-16 -0.687944)
(-3.25123e-18 -2.3708e-16 -0.894039)
(1.38684e-18 7.42893e-18 -0.96022)
(6.00146e-18 2.52158e-16 -0.851635)
(5.93406e-18 2.85215e-16 -0.583822)
(-6.62276e-19 1.77984e-17 -0.197734)
(1.08844e-18 3.18922e-16 0.238576)
(1.11006e-17 -6.66336e-16 0.655092)
(-1.15499e-20 1.62187e-18 0.987419)
(-6.0342e-19 -6.51604e-19 1.25502)
(4.47586e-21 6.8855e-19 1.44601)
(2.3123e-17 -3.54215e-16 1.56036)
(2.18221e-18 -2.23388e-17 1.57228)
(-6.72849e-19 1.10135e-17 1.57702)
(-4.31204e-19 2.02523e-17 1.55452)
(1.16507e-17 -3.25182e-16 1.53561)
(5.03463e-18 -3.35827e-16 1.52832)
(7.85424e-19 -1.27712e-18 1.53288)
(0 -0 1.54668)
(-1.01412e-18 -6.84849e-19 1.56553)
(-9.20475e-19 -9.73416e-19 1.59535)
(9.91175e-18 1.28701e-16 1.64986)
(6.53149e-18 1.09855e-16 1.75362)
(1.11865e-19 2.35019e-19 1.92434)
(2.53947e-19 6.31161e-18 2.21508)
(8.02184e-20 -5.87285e-21 2.63023)
(-9.81303e-22 2.56256e-22 3.12195)
(-1.86321e-20 7.53477e-21 3.54504)
(1.65909e-19 -7.71503e-20 3.69922)
(-3.28077e-19 8.70611e-18 3.52572)
(1.09058e-17 -2.87602e-16 3.07816)
(3.26327e-19 -9.21263e-18 2.50659)
(-6.22975e-18 3.338e-16 1.93737)
(5.23531e-18 -3.61186e-16 1.44939)
(-4.40306e-18 3.64841e-16 1.06768)
(-2.95161e-19 -3.41259e-19 0.786974)
(2.34406e-18 -3.40275e-16 0.588555)
(-1.4459e-18 2.94271e-16 0.450905)
(2.08749e-18 -2.45869e-16 0.355722)
(-2.23918e-18 3.22323e-16 0.289555)
(1.05371e-18 -3.8471e-17 0.243397)
(-1.4485e-19 -3.78974e-17 0.21139)
(-5.73291e-19 3.61543e-17 0.189972)
(-8.49199e-19 2.13499e-16 0.176988)
(-6.24276e-21 6.98982e-17 0.170957)
(-1.06369e-18 2.63718e-16 0.171412)
(-5.58127e-19 6.20544e-17 0.177799)
(1.6256e-18 -2.98275e-16 0.190762)
(1.74342e-18 -4.5263e-16 0.210602)
(1.50468e-18 -2.65971e-16 0.236606)
(-2.49884e-19 5.13443e-17 0.271112)
(-6.89045e-19 4.80022e-17 0.309122)
(2.49428e-19 -4.69421e-17 0.344734)
(-1.69221e-19 2.29978e-17 0.358567)
(2.88403e-19 6.59827e-19 0.316048)
(-2.44872e-18 1.88189e-16 0.178874)
(-1.17763e-19 5.36731e-20 -0.060074)
(-4.37635e-19 2.59891e-16 -0.357908)
(3.01334e-18 1.67359e-16 -0.658374)
(-3.16908e-20 8.43402e-20 -0.888181)
(4.60618e-18 1.87961e-16 -0.994218)
(1.12297e-17 3.36147e-16 -0.917465)
(-1.10259e-17 -2.25535e-16 -0.689443)
(7.17508e-18 2.41664e-16 -0.351913)
(5.40755e-18 4.05425e-16 0.0728717)
(2.23969e-18 -4.29678e-16 0.464705)
(5.96365e-18 -3.56086e-16 0.780424)
(-1.61518e-17 4.58692e-16 0.998415)
(2.21238e-17 -4.69154e-16 1.13762)
(-1.9481e-17 3.78181e-16 1.19589)
(-4.79353e-18 9.71332e-17 1.23497)
(2.09855e-17 -4.08099e-16 1.17207)
(-6.50108e-19 -7.82178e-19 1.10133)
(-1.28821e-17 2.80786e-16 1.00761)
(-2.51984e-18 6.7165e-17 0.917158)
(-3.99796e-18 1.29154e-16 0.847573)
(4.61894e-18 -1.22088e-16 0.803663)
(-1.68691e-18 5.80741e-17 0.790761)
(1.72267e-18 -5.73347e-17 0.808966)
(-5.00021e-19 1.27326e-19 0.845008)
(3.36823e-19 -3.71225e-18 0.895613)
(1.55841e-18 -4.90994e-17 0.949253)
(-1.63549e-18 5.68812e-17 1.00092)
(-2.53362e-18 4.97083e-17 1.05086)
(7.40995e-19 -4.42929e-17 1.10268)
(5.89729e-19 2.41908e-17 1.16164)
(7.95894e-19 -2.43149e-17 1.23303)
(-2.96795e-20 8.37921e-19 1.32077)
(-1.14825e-18 2.47089e-17 1.42674)
(1.38238e-18 -2.20713e-17 1.55069)
(-1.59406e-18 2.35319e-17 1.69096)
(2.84404e-19 -2.16861e-17 1.84535)
(1.01612e-18 -1.94919e-18 2.01208)
(-1.212e-18 2.41158e-18 2.19053)
(5.8651e-19 -8.51692e-20 2.38179)
(-1.86709e-18 9.91035e-20 2.58907)
(3.12682e-18 2.04516e-18 2.81816)
(-2.15101e-18 -1.34229e-19 3.07823)
(2.7813e-19 -2.98319e-19 3.38351)
(6.10882e-19 -3.48695e-18 3.75615)
(-1.26129e-18 2.85641e-19 4.2305)
(1.18007e-18 -7.81637e-19 4.85466)
(1.96464e-18 -3.84819e-18 5.67167)
(-1.35707e-18 2.73223e-18 6.6251)
(5.19417e-19 -4.00556e-19 7.26585)
(-3.51515e-19 2.80193e-20 6.08897)
(-5.31155e-19 3.96306e-19 -0.303547)
(-1.78488e-18 -4.35788e-19 -13.7141)
(7.16445e-19 -4.7549e-20 -6.00477)
(-1.64923e-18 5.09378e-19 -2.62722)
(-1.78429e-18 3.15444e-19 -0.438596)
(3.31769e-18 -8.73467e-19 0.891092)
(-5.83303e-18 1.6261e-18 1.75224)
(2.64174e-18 -9.60424e-19 2.34463)
(7.84193e-20 1.15933e-19 2.74934)
(-9.41457e-19 -3.29389e-19 3.03891)
(-2.08563e-22 6.02011e-20 3.25193)
(-3.80655e-18 -2.2641e-18 3.41124)
(3.00938e-18 1.90409e-18 3.53149)
(-5.69e-19 -9.84683e-19 3.62277)
(-2.08382e-18 -3.81148e-18 3.6922)
(1.60192e-18 2.97632e-18 3.74496)
(-4.97183e-19 -8.1932e-19 3.78483)
(-9.93848e-21 -3.5766e-21 3.81451)
(-3.46594e-19 -1.02218e-18 3.8359)
(7.56801e-19 4.54193e-18 3.85026)
(-2.9416e-18 -1.73439e-17 3.8583)
(1.85242e-18 1.17335e-17 3.86025)
(1.1776e-18 1.11306e-17 3.8559)
(-1.31518e-18 -1.24097e-17 3.84455)
(-8.81937e-20 6.03423e-20 3.82503)