/*--------------------------------*- C++ -*----------------------------------*\
| =========                 |                                                 |
| \\      /  F ield         | OpenFOAM: The Open Source CFD Toolbox           |
|  \\    /   O peration     | Version:  2506                                  |
|   \\  /    A nd           | Website:  www.openfoam.com                      |
|    \\/     M anipulation  |                                                 |
\*---------------------------------------------------------------------------*/
FoamFile
{
    version     2.0;
    format      ascii;
    arch        "LSB;label=32;scalar=64";
    class       volVectorField;
    location    "3.4";
    object      U;
}
// * * * * * * * * * * * * * * * * * * * * * * * * * * * * * * * * * * * * * //

dimensions      [0 1 -1 0 0 0 0];

internalField   nonuniform List<vector> 
4000
(
(0.00262432 0.000337609 0)
(0.00240457 0.000328775 -3.84462e-21)
(0.00183707 0.00017763 3.90369e-21)
(0.00135744 0.000101275 7.79583e-21)
(0.00103629 6.59054e-05 -1.56701e-20)
(0.000800873 4.55951e-05 7.85877e-21)
(0.000619445 3.36286e-05 0)
(0.000476197 2.66884e-05 0)
(0.000360083 2.2429e-05 0)
(0.00026407 1.96653e-05 1.55214e-20)
(0.00018366 1.77793e-05 -1.55498e-20)
(0.000115637 1.64597e-05 3.08409e-20)
(5.76728e-05 1.55749e-05 -3.0881e-20)
(7.90649e-06 1.50264e-05 0)
(-3.51383e-05 1.47284e-05 0)
(-7.26935e-05 1.46269e-05 0)
(-0.000105815 1.46994e-05 3.01001e-20)
(-0.00013542 1.49188e-05 -3.00807e-20)
(-0.000162298 1.52597e-05 0)
(-0.000187121 1.56993e-05 0)
(-0.00021046 1.6222e-05 0)
(-0.000232792 1.6819e-05 0)
(-0.000254508 1.74866e-05 0)
(-0.000275908 1.82175e-05 5.79174e-20)
(-0.000297239 1.89838e-05 -1.1549e-19)
(-0.000318683 1.97564e-05 5.75723e-20)
(-0.000340383 2.05581e-05 0)
(-0.000362426 2.14365e-05 0)
(-0.000384645 2.23066e-05 0)
(-0.000406846 2.29139e-05 0)
(-0.000428298 2.29108e-05 -5.57958e-20)
(-0.00044725 2.1864e-05 5.57742e-20)
(-0.000458798 1.91146e-05 0)
(-0.000443173 1.00276e-05 4.81743e-20)
(-0.0003964 -1.84783e-05 5.47006e-20)
(-0.000347642 -6.22609e-05 -2.74911e-19)
(-0.000302593 -0.000103849 -2.20524e-19)
(-0.000245861 -0.000132716 5.56129e-20)
(-0.000174733 -0.000144885 -2.23397e-19)
(-9.24843e-05 -0.000138813 -5.05506e-19)
(-1.76776e-06 -0.000114383 5.65904e-20)
(0.000102833 -6.75896e-05 4.51597e-19)
(0.000223328 -1.75722e-06 -4.50336e-19)
(0.000349867 7.05395e-05 0)
(0.000474769 0.000140452 0)
(0.000592793 0.000203381 -2.77222e-20)
(0.000703172 0.000256894 -4.14664e-19)
(0.000803878 0.000298708 -4.13438e-19)
(0.000891667 0.000326565 -2.47072e-19)
(0.000967954 0.000340951 -2.17897e-19)
(0.00102838 0.000341897 2.16203e-19)
(0.00107423 0.000331072 0)
(0.00110296 0.00030821 -2.65325e-20)
(0.00111263 0.000275765 4.49911e-19)
(0.00110293 0.000234095 0)
(0.00106957 0.000189544 -1.03942e-19)
(0.00101809 0.000145113 -2.55632e-20)
(0.000945248 0.000103369 -5.31762e-24)
(0.000858362 6.83849e-05 -3.28727e-22)
(0.0007556 4.24673e-05 -1.27553e-20)
(0.000642918 2.87711e-05 2.44025e-20)
(0.000527141 2.84074e-05 0)
(0.000409799 3.99227e-05 0)
(0.000296018 6.2633e-05 4.67377e-20)
(0.000186288 9.46718e-05 3.24227e-19)
(8.41139e-05 0.000135082 4.52875e-20)
(-1.12297e-05 0.000181876 -4.55259e-20)
(-9.81396e-05 0.000231681 4.37331e-20)
(-0.000179279 0.000284218 1.29248e-19)
(-0.00025333 0.000337049 -2.96847e-19)
(-0.000323481 0.000390548 -4.18454e-20)
(-0.000388271 0.000442876 9.71243e-22)
(-0.000448251 0.000492888 0)
(-0.000505789 0.000541206 0)
(-0.000557622 0.000585606 0)
(-0.000605497 0.000625834 -1.90568e-20)
(-0.000649603 0.000661834 -2.8281e-19)
(-0.000687404 0.000692095 0)
(-0.000719935 0.000716508 8.08915e-22)
(-0.000748586 0.000735709 1.80062e-20)
(-0.000772738 0.00074944 -2.85509e-19)
(-0.000793232 0.000757985 2.55886e-19)
(-0.000811074 0.000761945 6.24956e-23)
(-0.000826828 0.000761623 2.78682e-19)
(-0.000842253 0.000757917 1.52409e-21)
(-0.000857752 0.000751301 -2.65161e-19)
(-0.000872541 0.000741368 -2.65828e-19)
(-0.000888908 0.000729013 2.66839e-19)
(-0.00090697 0.000713976 -4.02373e-21)
(-0.0009243 0.000694629 -2.5331e-19)
(-0.000943898 0.00067214 0)
(-0.000964958 0.000646322 -2.53984e-19)
(-0.000984148 0.000615295 -2.35275e-19)
(-0.00100525 0.000580193 2.39507e-19)
(-0.00102455 0.000540131 -1.32912e-19)
(-0.00104349 0.000494815 1.45783e-20)
(-0.00106069 0.000444968 1.14935e-19)
(-0.00107508 0.000389674 1.41331e-20)
(-0.00108576 0.000330057 9.80131e-20)
(-0.00109359 0.000265914 6.91725e-20)
(-0.00109883 0.000199189 -2.74163e-20)
(-0.00109847 0.000129683 6.80026e-20)
(-0.0010963 5.97716e-05 -6.76893e-21)
(-0.00108672 -1.00208e-05 -6.73891e-21)
(-0.00107444 -7.8734e-05 -2.68434e-20)
(-0.00105717 -0.000144374 0)
(-0.0010339 -0.000206899 0)
(-0.00100781 -0.000264195 -2.11999e-19)
(-0.000974624 -0.00031521 -6.75779e-21)
(-0.000937639 -0.000359542 1.12006e-19)
(-0.000895218 -0.000396167 1.09015e-19)
(-0.000847299 -0.000424472 3.41936e-21)
(-0.00079432 -0.000444208 -1.13719e-19)
(-0.000735388 -0.000454708 -1.74081e-22)
(-0.000670726 -0.000456553 0)
(-0.000602746 -0.000449591 2.2346e-19)
(-0.000528154 -0.00043323 -6.98652e-21)
(-0.000449903 -0.000409235 -2.10376e-19)
(-0.000368132 -0.000377807 -7.06625e-21)
(-0.000282811 -0.000339511 -2.25722e-19)
(-0.000195988 -0.00029612 -6.31392e-22)
(-0.000108536 -0.000248558 2.25807e-19)
(-2.10454e-05 -0.000197833 1.40242e-20)
(6.50492e-05 -0.000145366 -2.52439e-19)
(0.000149039 -9.24043e-05 1.4e-20)
(0.000230278 -4.00061e-05 2.2132e-19)
(0.000308431 1.06298e-05 2.72861e-20)
(0.000383469 5.81661e-05 -2.73691e-20)
(0.000454718 0.000101068 2.15649e-19)
(0.000521574 0.000139372 -1.85997e-19)
(0.000584632 0.000172606 -2.65959e-20)
(0.000642716 0.000200614 -3.90867e-19)
(0.000697435 0.000223401 -2.60127e-20)
(0.000749184 0.000240316 -2.03923e-19)
(0.000795447 0.000251522 1.06688e-21)
(0.000839114 0.00025723 0)
(0.000879672 0.000256101 0)
(0.000912977 0.000249171 -5.1107e-22)
(0.000943121 0.000235381 0)
(0.000964266 0.000215049 -2.30402e-20)
(0.000977012 0.000188473 -6.7964e-20)
(0.000978288 0.000156121 -2.21661e-20)
(0.000965296 0.000119145 -4.36203e-20)
(0.000937076 7.92387e-05 -2.18207e-20)
(0.000889222 3.75348e-05 -6.27134e-20)
(0.000821449 1.04763e-06 2.06883e-20)
(0.000735187 -2.83445e-05 0)
(0.000630827 -4.59904e-05 0)
(0.000516211 -5.08216e-05 0)
(0.000392976 -4.1783e-05 -1.79203e-20)
(0.000266826 -1.94197e-05 1.79474e-20)
(0.000141206 1.6539e-05 6.82018e-20)
(1.90232e-05 6.29891e-05 6.5802e-20)
(-9.92327e-05 0.00012059 0)
(-0.000213738 0.000185191 -6.0793e-20)
(-0.000327584 0.000258274 0)
(-0.000442198 0.000335419 -1.35712e-20)
(-0.000554462 0.000413038 6.77044e-20)
(-0.000639561 0.000465762 -1.28519e-20)
(-0.000667999 0.000457492 2.15217e-19)
(-0.00072589 0.000410454 -4.8873e-20)
(-0.000830968 0.000377105 -4.7542e-20)
(-0.000898372 0.000325372 0)
(-0.000937888 0.000255852 0)
(-0.000959237 0.00017474 0)
(-0.000971699 9.41698e-05 0)
(-0.00098808 2.64528e-05 0)
(-0.000988208 -9.07759e-06 9.89532e-21)
(-0.00092849 -2.41768e-05 -2.61464e-22)
(-0.00083192 -3.1825e-05 -2.73469e-22)
(-0.000723645 -3.55464e-05 -9.44441e-21)
(-0.000617319 -3.62408e-05 0)
(-0.000521965 -3.48782e-05 8.56997e-21)
(-0.000442656 -3.23074e-05 -8.57412e-21)
(-0.000381449 -2.9121e-05 2.52712e-22)
(-0.000338242 -2.56742e-05 0)
(-0.000311402 -2.2008e-05 0)
(-0.000298051 -1.83637e-05 -6.94052e-21)
(-0.000295528 -1.5431e-05 6.93223e-21)
(-0.000301297 -1.30969e-05 0)
(-0.000312149 -1.10905e-05 0)
(-0.000325248 -9.53632e-06 -2.61798e-21)
(-0.000338467 -8.47545e-06 1.6011e-22)
(-0.000350172 -7.83887e-06 2.62894e-21)
(-0.000359221 -7.51698e-06 0)
(-0.000365037 -7.35902e-06 0)
(-0.000367499 -7.12457e-06 0)
(-0.000367113 -7.02809e-06 0)
(-0.000364834 -6.97188e-06 1.09633e-22)
(-0.000361586 -6.80296e-06 0)
(-0.000358366 -6.45832e-06 0)
(-0.000356273 -5.92123e-06 0)
(-0.00035628 -5.17041e-06 5.3167e-22)
(-0.000359011 -4.15983e-06 -5.30871e-22)
(-0.000364885 -2.97914e-06 0)
(-0.000374211 -1.62478e-06 4.24004e-23)
(-0.000387183 -1.39542e-07 1.12565e-22)
(-0.000405432 1.72088e-06 -7.51209e-23)
(-0.00043476 5.81565e-06 -3.71546e-23)
(-0.000470548 1.3294e-05 0)
(0.00342515 0.000724317 0)
(0.00359178 0.000966055 0)
(0.00319642 0.000808862 0)
(0.00265548 0.000627577 8.24512e-21)
(0.0021621 0.000483454 -1.66657e-20)
(0.00172878 0.000376063 8.40881e-21)
(0.00135676 0.00029775 0)
(0.00104099 0.00024053 1.6873e-20)
(0.000772934 0.000197852 -1.69943e-20)
(0.000544347 0.000165055 1.69285e-20)
(0.000349121 0.000139148 -1.70165e-20)
(0.000181226 0.000118255 -3.38477e-20)
(3.6509e-05 0.000101194 3.39593e-20)
(-8.87452e-05 8.72223e-05 3.36259e-20)
(-0.000197605 7.58208e-05 -1.65513e-22)
(-0.000293121 6.66133e-05 -6.64678e-20)
(-0.000377788 5.92937e-05 3.30914e-20)
(-0.000453804 5.35886e-05 0)
(-0.000523071 4.92525e-05 0)
(-0.000587198 4.60666e-05 0)
(-0.000647586 4.38308e-05 0)
(-0.000705337 4.23599e-05 0)
(-0.000761322 4.14866e-05 0)
(-0.000816146 4.1062e-05 0)
(-0.000870258 4.0941e-05 0)
(-0.000923927 4.09779e-05 0)
(-0.000977203 4.10424e-05 0)
(-0.00103008 4.09227e-05 0)
(-0.00108146 4.01954e-05 0)
(-0.00113074 3.80064e-05 0)
(-0.00117557 3.27958e-05 -6.03693e-20)
(-0.00121264 2.14322e-05 2.70825e-22)
(-0.00123517 -2.04085e-06 1.19837e-19)
(-0.00122901 -4.69534e-05 -5.23078e-20)
(-0.00118447 -0.000133992 -5.9263e-20)
(-0.00110456 -0.000253347 1.78246e-19)
(-0.000990118 -0.000365285 -2.39284e-19)
(-0.000840931 -0.000442578 -6.04362e-20)
(-0.000660112 -0.000471032 6.14388e-19)
(-0.000454673 -0.000445486 1.87746e-19)
(-0.000225962 -0.000363271 0)
(2.35648e-05 -0.000225472 6.38272e-20)
(0.000285481 -5.53452e-05 3.83179e-19)
(0.000546243 0.000121405 6.39163e-20)
(0.000796485 0.000289701 5.06966e-19)
(0.00102984 0.000440071 -5.04793e-19)
(0.00124578 0.000567164 1.45986e-21)
(0.00143872 0.0006663 0)
(0.00160562 0.000734398 -2.49556e-19)
(0.00174788 0.000772382 0)
(0.00185896 0.000780117 -6.16805e-22)
(0.00193911 0.000759732 0)
(0.00198199 0.000711687 -2.43497e-19)
(0.00198461 0.000642147 -2.42212e-19)
(0.00194577 0.000554603 0)
(0.00186077 0.000457886 8.70491e-23)
(0.00173273 0.00035901 1.18223e-19)
(0.00155699 0.00026492 2.91253e-20)
(0.00134524 0.000183695 5.7805e-20)
(0.00109632 0.000123663 -1.45832e-20)
(0.000820441 8.88288e-05 0)
(0.00053101 8.53141e-05 1.13434e-19)
(0.000233258 0.000111874 -5.66088e-20)
(-6.14545e-05 0.000167409 -1.10683e-19)
(-0.000347437 0.000249849 -3.25473e-19)
(-0.000618499 0.000354006 -5.33702e-20)
(-0.000872349 0.000477692 2.58616e-19)
(-0.00110747 0.000612186 -5.1016e-20)
(-0.00132322 0.000756058 0)
(-0.00152074 0.000903486 4.82241e-20)
(-0.00170226 0.00105274 -4.76931e-20)
(-0.00186716 0.00120011 2.04635e-21)
(-0.00201699 0.00134145 0)
(-0.00215377 0.00147625 -3.56602e-19)
(-0.00227554 0.00160055 -3.49302e-19)
(-0.00238374 0.00171224 2.12354e-20)
(-0.00247892 0.00180997 -2.10153e-20)
(-0.00255913 0.00189164 2.04301e-20)
(-0.00262519 0.00195674 -3.21431e-19)
(-0.00267885 0.00200603 2.97143e-19)
(-0.0027203 0.00203956 -3.11311e-19)
(-0.00275091 0.00205804 -3.13873e-19)
(-0.00277251 0.00206297 1.87422e-20)
(-0.00278668 0.00205574 -3.0454e-19)
(-0.00279614 0.00203809 2.8672e-19)
(-0.00280228 0.00201141 -2.82995e-19)
(-0.0028057 0.00197602 2.80373e-19)
(-0.00281003 0.00193283 -2.74465e-19)
(-0.00281606 0.00188192 -8.42172e-21)
(-0.00282158 0.0018217 8.32751e-21)
(-0.00282967 0.00175237 0)
(-0.00284002 0.00167372 0)
(-0.00284942 0.00158404 1.26207e-19)
(-0.00286058 0.00148339 -1.39136e-19)
(-0.00287064 0.00137145 1.21794e-19)
(-0.00288006 0.00124691 2.99403e-20)
(-0.00288752 0.0011111 9.32298e-23)
(-0.00289176 0.000962231 -6.60707e-23)
(-0.00289135 0.000803095 -2.57879e-19)
(-0.00288652 0.000635403 -4.23734e-20)
(-0.0028763 0.000461902 5.60052e-20)
(-0.00285818 0.000282884 -5.5495e-20)
(-0.00283407 0.000102977 0)
(-0.00280015 -7.56693e-05 -6.8467e-21)
(-0.0027586 -0.000250135 6.86552e-21)
(-0.00270735 -0.000416305 0)
(-0.0026452 -0.000572785 0)
(-0.00257353 -0.000714701 1.10516e-19)
(-0.00248938 -0.000839085 -1.1102e-19)
(-0.00239435 -0.000944843 1.15307e-19)
(-0.00228719 -0.00103055 -2.25758e-19)
(-0.00216857 -0.00109467 -1.78442e-23)
(-0.0020385 -0.00113628 -3.60176e-21)
(-0.00189681 -0.00115427 -1.16182e-19)
(-0.00174394 -0.00114919 0)
(-0.00158249 -0.00112122 0)
(-0.00141092 -0.00107125 0)
(-0.00123327 -0.00100132 2.48843e-19)
(-0.00105152 -0.000913724 2.34558e-19)
(-0.000866637 -0.000809998 0)
(-0.000680783 -0.00069335 -2.77605e-19)
(-0.00049603 -0.000566716 4.65017e-20)
(-0.000314114 -0.000433472 -3.11096e-20)
(-0.000136825 -0.000296852 1.5694e-20)
(3.46411e-05 -0.000160157 -3.10677e-20)
(0.00019914 -2.62818e-05 2.48112e-19)
(0.000355987 0.000101975 -2.15074e-19)
(0.000504407 0.000221942 2.74832e-19)
(0.000644343 0.000331389 -4.02967e-22)
(0.000776764 0.000429529 2.12266e-19)
(0.000901357 0.000515245 0)
(0.00101687 0.000587923 2.38341e-19)
(0.00112552 0.000647465 -2.91004e-20)
(0.00122653 0.000692899 -2.01901e-19)
(0.00131774 0.000724147 2.30818e-19)
(0.00140241 0.000741325 -2.80761e-20)
(0.00147709 0.00074282 2.82576e-20)
(0.001538 0.000729587 -2.83956e-20)
(0.0015869 0.0007003 2.74843e-20)
(0.00161604 0.000656861 -2.64432e-20)
(0.00162411 0.000600272 1.32288e-19)
(0.00160529 0.000532143 -1.28275e-19)
(0.00155403 0.00045528 1.27214e-19)
(0.00146693 0.000373946 0)
(0.00133799 0.000292589 2.4418e-20)
(0.00116976 0.000220589 -2.34349e-20)
(0.000958974 0.000164802 -1.15176e-20)
(0.000709316 0.000131022 0)
(0.00043232 0.000125186 -2.19059e-20)
(0.000132649 0.000150247 4.26259e-20)
(-0.000177156 0.000205356 0)
(-0.000489091 0.000293431 -7.90631e-20)
(-0.000793579 0.000406301 -1.86012e-20)
(-0.00108517 0.000547865 1.8434e-20)
(-0.00136137 0.000706785 0)
(-0.00162044 0.000885762 6.659e-20)
(-0.001866 0.0010705 -6.32527e-20)
(-0.00209295 0.00124772 6.10858e-20)
(-0.00227804 0.00136867 0)
(-0.00239783 0.00138192 -1.12372e-19)
(-0.00255441 0.00127695 -6.71187e-20)
(-0.00274128 0.00114637 1.16536e-19)
(-0.00287541 0.000956885 -1.23378e-20)
(-0.00294889 0.00072655 1.22199e-20)
(-0.00296486 0.000475731 1.1581e-20)
(-0.00293152 0.000239402 1.11122e-20)
(-0.00285368 4.43503e-05 -9.85619e-21)
(-0.00272095 -7.68791e-05 -6.7639e-22)
(-0.00250864 -0.00014462 0)
(-0.00225566 -0.000176401 6.43345e-22)
(-0.00199716 -0.000181724 0)
(-0.00175622 -0.000168911 -6.09279e-22)
(-0.00154714 -0.000145426 -9.29697e-21)
(-0.00137659 -0.000117066 9.89223e-21)
(-0.00124625 -8.77138e-05 -8.26565e-22)
(-0.00115392 -5.99896e-05 8.29606e-21)
(-0.00109543 -3.54477e-05 -1.57281e-20)
(-0.00106461 -1.51865e-05 1.55053e-20)
(-0.00105457 -2.22217e-07 -8.02271e-21)
(-0.00105848 9.63027e-06 0)
(-0.00107043 1.51258e-05 3.64318e-21)
(-0.00108521 1.68027e-05 -3.41821e-21)
(-0.00109857 1.53413e-05 -3.68341e-22)
(-0.00110756 1.17047e-05 -2.68697e-21)
(-0.0011104 6.81741e-06 2.35819e-21)
(-0.00110662 1.66909e-06 2.33754e-21)
(-0.00109714 -3.05537e-06 -2.61424e-21)
(-0.00108364 -6.69205e-06 2.25406e-21)
(-0.00106821 -8.73778e-06 -3.93637e-21)
(-0.00105321 -8.98153e-06 2.43379e-21)
(-0.00104104 -7.40452e-06 -8.27095e-22)
(-0.00103393 -4.24798e-06 -1.75239e-22)
(-0.00103338 2.93333e-07 0)
(-0.00104071 5.93355e-06 3.59946e-22)
(-0.00105667 1.22365e-05 -4.9222e-22)
(-0.00108122 1.91609e-05 2.54936e-23)
(-0.00111395 2.68711e-05 -1.62938e-22)
(-0.00115626 3.62931e-05 0)
(-0.00121365 4.86882e-05 0)
(-0.0012692 6.09422e-05 -1.09979e-23)
(0.00346599 0.000562634 0)
(0.00385656 0.0010306 -4.03765e-21)
(0.00382141 0.00109125 4.03566e-21)
(0.00359255 0.00101989 8.03165e-21)
(0.00327413 0.000899298 -8.10265e-21)
(0.00292245 0.00076981 0)
(0.00257428 0.000652241 0)
(0.00224861 0.000552021 0)
(0.00195277 0.00046862 -1.63993e-20)
(0.00168869 0.000399421 3.29608e-20)
(0.0014552 0.000341833 1.63838e-20)
(0.00124982 0.000293748 -3.31212e-20)
(0.00106904 0.000253532 -3.29611e-20)
(0.0009096 0.000220001 3.31073e-20)
(0.000768325 0.000192263 0)
(0.00064225 0.000169603 -3.28597e-20)
(0.000528685 0.000151372 6.57569e-20)
(0.00042519 0.000136982 -3.28863e-20)
(0.000329592 0.000125894 0)
(0.000239986 0.000117612 0)
(0.00015473 0.000111663 0)
(7.24333e-05 0.00010759 0)
(-8.03545e-06 0.00010496 0)
(-8.75567e-05 0.000103387 -6.40863e-20)
(-0.000166771 0.000102526 6.39647e-20)
(-0.000246046 0.000102031 0)
(-0.000325489 0.000101469 0)
(-0.000404985 0.000100232 0)
(-0.000483893 9.75721e-05 0)
(-0.000561272 9.22911e-05 0)
(-0.000635257 8.21712e-05 -6.11639e-20)
(-0.000703421 6.31297e-05 6.10868e-20)
(-0.000761817 2.77462e-05 0)
(-0.000813959 -3.43318e-05 3.76929e-21)
(-0.000843471 -0.000144033 0)
(-0.000804654 -0.000288961 -1.19586e-19)
(-0.000686388 -0.00042054 2.40698e-19)
(-0.000510106 -0.000506669 0)
(-0.000286969 -0.0005283 -4.93547e-19)
(-2.42895e-05 -0.000476065 3.90605e-22)
(0.000282934 -0.000345925 -6.29407e-20)
(0.000622528 -0.000148731 6.30996e-20)
(0.00096555 8.06082e-05 -5.01343e-19)
(0.00129747 0.000313343 0)
(0.00161192 0.000533199 -5.58321e-19)
(0.00190379 0.000728825 5.25465e-19)
(0.00217433 0.00089408 5.2278e-19)
(0.00241696 0.0010237 0)
(0.00262852 0.00111542 2.43034e-19)
(0.00280986 0.00116936 0)
(0.00295341 0.00118441 -4.8191e-19)
(0.00305895 0.0011622 0)
(0.00311913 0.00110508 2.08979e-19)
(0.00313184 0.00101945 2.66245e-19)
(0.00309159 0.000911027 2.34609e-19)
(0.00299401 0.000786074 1.16496e-19)
(0.00284077 0.000654001 1.15546e-19)
(0.00262454 0.000524233 5.73276e-20)
(0.00235814 0.000406723 -2.8627e-20)
(0.00203544 0.000313406 -4.2531e-20)
(0.00166841 0.000248498 0)
(0.00127249 0.00022264 -1.11319e-19)
(0.000853115 0.000236897 1.10516e-19)
(0.00042765 0.000291196 0)
(4.57729e-06 0.00038532 4.34624e-19)
(-0.000406455 0.000511047 0)
(-0.00079815 0.000667346 5.17171e-20)
(-0.00116717 0.000843515 -5.104e-20)
(-0.0015092 0.00103637 0)
(-0.00182557 0.00123755 4.80806e-20)
(-0.00211435 0.00144212 -4.74614e-20)
(-0.00237641 0.001645 -5.06963e-19)
(-0.00261302 0.00183959 3.15928e-19)
(-0.00282472 0.0020233 -1.74223e-21)
(-0.00301283 0.00219193 3.43754e-19)
(-0.00317772 0.00234076 2.09784e-20)
(-0.003319 0.00246686 -3.51765e-19)
(-0.00343738 0.00256911 0)
(-0.00353407 0.00264721 -3.18015e-19)
(-0.00361041 0.0027021 -6.0314e-19)
(-0.00366757 0.00273455 5.82346e-19)
(-0.00370725 0.00274558 3.10028e-19)
(-0.00373144 0.00273721 -3.04447e-19)
(-0.00374243 0.00271176 2.98065e-19)
(-0.00374313 0.00267156 0)
(-0.00373586 0.00261906 2.79157e-19)
(-0.00372275 0.00255523 3.08303e-21)
(-0.00370695 0.00248055 5.47487e-19)
(-0.00368984 0.0023967 2.49378e-19)
(-0.0036718 0.00230195 2.6967e-19)
(-0.00365469 0.00219617 0)
(-0.00363811 0.00207976 0)
(-0.00362129 0.00195144 -1.2389e-19)
(-0.00360499 0.00181046 0)
(-0.00358734 0.00165733 -1.49626e-20)
(-0.00356904 0.00149088 1.47901e-20)
(-0.00354801 0.00131294 -1.16255e-19)
(-0.00352485 0.00112305 1.14645e-19)
(-0.00349701 0.00092413 9.90429e-20)
(-0.00346579 0.000715955 1.40089e-20)
(-0.00342898 0.000502811 -5.53387e-20)
(-0.00338607 0.000285406 2.74292e-20)
(-0.00333438 6.80672e-05 -2.04177e-20)
(-0.00327388 -0.000146616 6.79805e-21)
(-0.00320334 -0.000355347 0)
(-0.00312073 -0.000553492 5.41555e-20)
(-0.0030254 -0.000738669 0)
(-0.002916 -0.000905745 1.09104e-19)
(-0.00279138 -0.00105206 2.09227e-22)
(-0.00265081 -0.00117463 -1.07407e-19)
(-0.00249418 -0.00127151 1.1183e-19)
(-0.0023218 -0.00133901 -3.53302e-21)
(-0.00213438 -0.00137698 0)
(-0.00193339 -0.00138565 1.14892e-19)
(-0.00172007 -0.00136532 -1.16171e-19)
(-0.00149644 -0.00131414 0)
(-0.00126535 -0.00123493 7.39679e-21)
(-0.00102873 -0.00112996 -2.46946e-19)
(-0.000788522 -0.00100214 -2.27616e-19)
(-0.000547451 -0.000855329 2.28364e-19)
(-0.000308588 -0.000693203 -2.45634e-19)
(-7.35337e-05 -0.000520045 -1.5406e-20)
(0.000155354 -0.000340253 2.31483e-19)
(0.000377069 -0.000158109 3.09172e-20)
(0.000590606 2.23357e-05 2.74285e-19)
(0.000794736 0.000197219 -5.4705e-19)
(0.000989119 0.000363208 2.72732e-19)
(0.00117323 0.000517528 -2.10864e-19)
(0.00134709 0.000658288 1.77455e-19)
(0.0015119 0.000783898 2.93855e-19)
(0.00166711 0.000892688 1.74342e-19)
(0.00181199 0.00098379 2.91606e-20)
(0.00194935 0.00105708 1.99784e-19)
(0.00207747 0.00111135 2.56264e-19)
(0.00219418 0.00114639 -2.77452e-20)
(0.00230305 0.00116255 2.79276e-20)
(0.00239845 0.00115812 8.1731e-20)
(0.00247688 0.00113408 2.62811e-20)
(0.00253902 0.00109066 -2.62475e-20)
(0.00257738 0.00102945 2.64272e-20)
(0.00258865 0.000952139 -1.02311e-19)
(0.00256553 0.000861136 2.56083e-20)
(0.00250119 0.000760171 -6.35917e-22)
(0.00239218 0.000654652 -2.45167e-20)
(0.00222905 0.000551691 -9.46853e-20)
(0.00201549 0.000457827 0)
(0.00174422 0.00038275 4.48883e-20)
(0.00141837 0.000331627 -2.79338e-20)
(0.00105065 0.000314128 2.15699e-20)
(0.000642908 0.000335466 -6.27745e-20)
(0.000214333 0.000395345 -2.01729e-20)
(-0.000228141 0.000499996 7.89747e-20)
(-0.000670134 0.000638158 9.43761e-20)
(-0.00109953 0.000815909 -3.61897e-20)
(-0.00151074 0.0010186 8.68661e-20)
(-0.00189484 0.00124734 -6.58676e-20)
(-0.00225323 0.00148073 -1.55312e-20)
(-0.00257709 0.00169965 -5.9739e-20)
(-0.00285662 0.00184423 1.47105e-20)
(-0.00308435 0.00188296 -5.58273e-20)
(-0.0033087 0.00173448 5.28852e-20)
(-0.00348798 0.00151346 -3.83313e-20)
(-0.00360302 0.00121303 -1.24623e-20)
(-0.00364059 0.000860731 -2.38398e-20)
(-0.00358484 0.000488891 0)
(-0.00343807 0.000145615 -2.23768e-20)
(-0.00319957 -0.000134024 2.06047e-20)
(-0.00287804 -0.000313798 3.97979e-22)
(-0.00251404 -0.000410568 -2.82916e-22)
(-0.00214354 -0.000445297 -9.36917e-22)
(-0.00179153 -0.000433529 -1.01709e-20)
(-0.00147492 -0.000390385 6.11056e-22)
(-0.00120251 -0.000329104 0)
(-0.000981638 -0.000260184 -5.75238e-22)
(-0.000812491 -0.000191425 5.554e-22)
(-0.000691037 -0.00012832 9.4236e-21)
(-0.000610713 -7.44662e-05 -8.88122e-21)
(-0.0005635 -3.18803e-05 -7.64435e-21)
(-0.000540783 -1.09447e-06 8.10641e-21)
(-0.000533591 1.85811e-05 0)
(-0.000534364 2.80498e-05 -4.19691e-22)
(-0.000536883 2.9174e-05 0)
(-0.000536249 2.38937e-05 -2.52251e-21)
(-0.000529266 1.44705e-05 1.7475e-22)
(-0.000514433 3.16468e-06 3.04256e-21)
(-0.000492017 -7.93657e-06 6.11503e-22)
(-0.000463517 -1.72521e-05 2.85111e-22)
(-0.00043126 -2.31306e-05 -2.63516e-22)
(-0.000398426 -2.47604e-05 0)
(-0.000368345 -2.19446e-05 2.20799e-22)
(-0.00034427 -1.49463e-05 7.55232e-22)
(-0.000329008 -4.43378e-06 -5.75884e-22)
(-0.000324361 8.89301e-06 -5.85943e-22)
(-0.000331687 2.39912e-05 7.20361e-22)
(-0.000351494 3.99307e-05 0)
(-0.000383259 5.61807e-05 1.14088e-22)
(-0.000425499 7.25701e-05 1.65438e-22)
(-0.000477711 8.92284e-05 4.09928e-23)
(-0.000543797 0.000106516 -4.08419e-23)
(-0.000608633 0.000122774 1.10058e-23)
(0.00344357 0.000367148 0)
(0.0038592 0.000840617 0)
(0.00405535 0.00106522 0)
(0.00411027 0.00113689 7.93506e-21)
(0.00405722 0.00110767 -7.94787e-21)
(0.00392329 0.00102979 0)
(0.00374187 0.000927164 0)
(0.00353931 0.000821333 0)
(0.00333244 0.000721405 0)
(0.00313138 0.000630924 0)
(0.00294153 0.000550875 0)
(0.00276532 0.000481097 -3.1797e-20)
(0.00260334 0.000421019 3.19516e-20)
(0.00245505 0.000369906 -3.17764e-20)
(0.00231924 0.000326956 6.36467e-20)
(0.00219444 0.000291417 -3.18575e-20)
(0.00207904 0.000262542 -3.16454e-20)
(0.0019714 0.000239586 3.1737e-20)
(0.00186995 0.000221824 0)
(0.0017732 0.000208555 0)
(0.00167976 0.000199105 6.26883e-20)
(0.00158841 0.000192807 -6.28225e-20)
(0.00149804 0.00018902 0)
(0.00140773 0.000187119 -6.21488e-20)
(0.00131676 0.000186533 6.22723e-20)
(0.00122456 0.000186695 0)
(0.00113079 0.000186943 0)
(0.00103528 0.000186422 6.14342e-20)
(0.00093817 0.000184072 -2.97716e-22)
(0.000839823 0.000178389 -6.14087e-20)
(0.000740924 0.00016697 -6.09731e-20)
(0.00064227 0.000145744 1.21989e-19)
(0.000546088 0.000108655 -6.10409e-20)
(0.000435202 4.64957e-05 5.69325e-20)
(0.000327969 -5.35575e-05 -6.08864e-20)
(0.00030391 -0.000177723 -6.03692e-20)
(0.000385887 -0.000283216 6.06602e-20)
(0.000541135 -0.000340215 1.82027e-19)
(0.000755062 -0.000330037 3.04546e-19)
(0.00102173 -0.000242398 6.12264e-20)
(0.00134953 -7.50334e-05 -6.13134e-20)
(0.00171946 0.000156097 -5.48115e-19)
(0.00208984 0.000414466 5.45459e-19)
(0.00244613 0.000673373 5.42558e-19)
(0.00278408 0.000916784 -1.20198e-19)
(0.00309981 0.00113336 8.98972e-20)
(0.00339587 0.00131692 -2.68127e-19)
(0.00366604 0.00146178 0)
(0.00390733 0.00156521 -2.66146e-19)
(0.00412009 0.00162639 2.95663e-20)
(0.00429654 0.00164373 2.3466e-19)
(0.00443622 0.00161933 2.90328e-20)
(0.00453092 0.00155576 -2.90143e-19)
(0.00457849 0.00145754 -2.01476e-19)
(0.00457226 0.00132959 -2.28251e-19)
(0.00450693 0.00117872 -1.13087e-19)
(0.00438229 0.00101403 -2.78777e-20)
(0.004188 0.000844733 2.79434e-20)
(0.00393554 0.00068212 2.75627e-20)
(0.00361341 0.000537521 4.08739e-20)
(0.00323275 0.000418553 2.70431e-20)
(0.00280603 0.000336719 0)
(0.00233735 0.000296936 1.07304e-19)
(0.00184582 0.000301586 0)
(0.00133855 0.000353052 -3.70757e-19)
(0.000833051 0.000445492 -2.11209e-19)
(0.000337486 0.000578166 -5.25245e-20)
(-0.000139828 0.000741199 0)
(-0.000590207 0.000929751 0)
(-0.00101269 0.00113449 -1.96935e-19)
(-0.00140123 0.00134777 0)
(-0.00175753 0.00156349 4.20374e-19)
(-0.00208114 0.00177326 -4.09809e-19)
(-0.00237039 0.00197189 3.7757e-19)
(-0.00262768 0.00215358 -2.16416e-22)
(-0.00285295 0.00231316 -2.05903e-22)
(-0.00304696 0.00244698 2.90606e-19)
(-0.00321231 0.00255482 4.07667e-20)
(-0.00334989 0.00263584 2.98727e-19)
(-0.00346084 0.00269053 3.12565e-19)
(-0.00354718 0.00272039 1.26328e-21)
(-0.00361079 0.00272708 -2.91629e-19)
(-0.00365363 0.00271276 2.86322e-19)
(-0.0036783 0.00268036 0)
(-0.00368747 0.00263246 4.45092e-21)
(-0.00368398 0.00257187 2.77022e-19)
(-0.003671 0.00250046 -5.50193e-19)
(-0.00365108 0.00241891 -8.15824e-19)
(-0.00362641 0.00232825 -2.74694e-19)
(-0.00359955 0.0022283 8.95158e-21)
(-0.00357135 0.00211751 0)
(-0.00354226 0.00199534 7.89781e-21)
(-0.00351332 0.00186277 -7.81308e-21)
(-0.00348358 0.00171806 0)
(-0.0034525 0.00156152 1.20751e-19)
(-0.00341995 0.00139249 -1.47979e-20)
(-0.00338403 0.00121224 1.46676e-20)
(-0.00334514 0.00102103 9.42474e-23)
(-0.00330107 0.000821111 1.13974e-19)
(-0.00325178 0.000612885 -1.40331e-20)
(-0.00319365 0.000399948 2.78404e-20)
(-0.00312788 0.000184178 -1.38315e-20)
(-0.00305079 -3.07688e-05 6.71679e-24)
(-0.00296247 -0.000241865 -6.80882e-21)
(-0.00286021 -0.000445758 6.83177e-21)
(-0.00274246 -0.000637843 -5.4575e-20)
(-0.00260899 -0.000814865 -5.8094e-20)
(-0.00245734 -0.000971792 -1.06598e-19)
(-0.0022885 -0.00110539 2.21389e-19)
(-0.00210128 -0.00121211 -1.0799e-19)
(-0.00189689 -0.00128953 -3.52825e-21)
(-0.00167638 -0.00133424 -3.54427e-21)
(-0.00144099 -0.00134679 3.60314e-21)
(-0.0011936 -0.00132519 -1.16373e-19)
(-0.000936376 -0.00127077 7.70693e-21)
(-0.000671157 -0.00118393 -4.8555e-23)
(-0.000402721 -0.00106758 1.0492e-19)
(-0.000131812 -0.000924437 3.72075e-19)
(0.000138218 -0.000758148 -2.42894e-19)
(0.000403925 -0.000573079 -2.43102e-19)
(0.000664689 -0.000373528 2.5719e-19)
(0.00091871 -0.00016455 2.24677e-19)
(0.00116374 4.87638e-05 -2.25103e-19)
(0.00139983 0.000261894 -2.67076e-19)
(0.00162659 0.000470488 -2.22633e-19)
(0.00184322 0.000670438 3.08532e-20)
(0.00205006 0.000858338 -2.9402e-20)
(0.00224718 0.00103133 0)
(0.00243507 0.0011873 -2.59932e-19)
(0.0026152 0.00132459 -2.2909e-19)
(0.00278713 0.00144146 -1.98981e-19)
(0.0029502 0.00153697 0)
(0.00310747 0.00161105 -2.5074e-19)
(0.00325698 0.00166233 2.77235e-20)
(0.00339638 0.00169068 -8.13332e-20)
(0.003529 0.00169681 -2.71003e-20)
(0.00364861 0.00167929 -8.54408e-22)
(0.00375218 0.00163939 -1.30878e-19)
(0.00383931 0.00157821 2.60509e-20)
(0.0039022 0.00149646 -1.262e-19)
(0.00393762 0.00139585 2.24542e-19)
(0.00393791 0.00127914 1.95544e-19)
(0.00389565 0.00115021 9.55296e-20)
(0.00380677 0.0010146 0)
(0.00366003 0.000878663 -2.24136e-20)
(0.00345832 0.000749571 3.50236e-22)
(0.00319107 0.000636331 1.06175e-20)
(0.00285872 0.000545513 -3.74122e-20)
(0.00247256 0.000486741 2.11836e-20)
(0.00202962 0.00046734 -4.07391e-20)
(0.00155001 0.000488636 3.97733e-20)
(0.00103823 0.000558677 0)
(0.000511875 0.000668927 -9.43465e-20)
(-1.43049e-05 0.000825289 3.66931e-20)
(-0.000529285 0.00101414 -7.06657e-20)
(-0.00101805 0.00123363 -1.70423e-20)
(-0.00147706 0.0014606 7.98902e-20)
(-0.00189457 0.00167189 -1.5549e-20)
(-0.0022673 0.00181254 0)
(-0.0025941 0.00185226 7.00561e-20)
(-0.00285571 0.00169853 -3.76692e-22)
(-0.00299205 0.00142537 -3.48782e-22)
(-0.00305335 0.00106364 -3.22815e-22)
(-0.0030147 0.000648332 2.39319e-20)
(-0.00286314 0.000220001 -2.86985e-22)
(-0.00259275 -0.000166647 -1.48459e-22)
(-0.00220775 -0.000474168 -1.10029e-20)
(-0.00174463 -0.000669145 9.68169e-21)
(-0.00128422 -0.000762133 1.05381e-20)
(-0.000851634 -0.000775355 1.00619e-21)
(-0.000456837 -0.000729346 -1.03934e-20)
(-0.000110869 -0.000643887 1.24531e-21)
(0.000180131 -0.000536166 9.46181e-21)
(0.000414511 -0.000420242 -9.42597e-21)
(0.000594739 -0.000307273 -1.10805e-21)
(0.000726087 -0.00020527 -1.06439e-21)
(0.000815841 -0.000119429 0)
(0.000872488 -5.24822e-05 7.57646e-21)
(0.000905188 -4.95965e-06 -7.5664e-21)
(0.000922651 2.42448e-05 0)
(0.000932804 3.7024e-05 -8.2761e-22)
(0.00094222 3.64832e-05 0)
(0.000955736 2.61266e-05 7.36213e-22)
(0.000976397 9.73749e-06 2.68447e-21)
(0.00100537 -8.91215e-06 -2.67705e-21)
(0.0010422 -2.63468e-05 -6.0458e-22)
(0.00108518 -3.95815e-05 5.58424e-22)
(0.00113148 -4.65119e-05 0)
(0.00117754 -4.61286e-05 -1.81236e-21)
(0.00121964 -3.81666e-05 1.80757e-21)
(0.00125414 -2.30659e-05 3.88895e-22)
(0.00127789 -2.00138e-06 6.55529e-22)
(0.00128848 2.34108e-05 -6.54281e-22)
(0.00128456 5.12848e-05 4.9002e-22)
(0.00126578 7.98551e-05 -4.88932e-22)
(0.0012329 0.000107747 -1.83232e-22)
(0.00118796 0.000134034 -1.21734e-22)
(0.00113305 0.000157977 8.119e-23)
(0.00106547 0.00017926 1.00534e-22)
(0.000994605 0.000198466 0)
(0.00342574 0.000232901 0)
(0.00380256 0.000613213 0)
(0.00405178 0.000875421 0)
(0.00425154 0.00102698 7.93665e-21)
(0.00439678 0.00108399 -7.90506e-21)
(0.00446762 0.00107245 0)
(0.00447652 0.00102315 1.55682e-20)
(0.00444466 0.000947054 -1.56024e-20)
(0.00438297 0.000861542 -1.54944e-20)
(0.00430238 0.000775762 3.10181e-20)
(0.0042113 0.000694112 -1.55262e-20)