/*--------------------------------*- C++ -*----------------------------------*\
| =========                 |                                                 |
| \\      /  F ield         | OpenFOAM: The Open Source CFD Toolbox           |
|  \\    /   O peration     | Version:  2506                                  |
|   \\  /    A nd           | Website:  www.openfoam.com                      |
|    \\/     M anipulation  |                                                 |
\*---------------------------------------------------------------------------*/
FoamFile
{
    version     2.0;
    format      ascii;
    arch        "LSB;label=32;scalar=64";
    class       surfaceScalarField;
    location    "4.9";
    object      phi;
}
// * * * * * * * * * * * * * * * * * * * * * * * * * * * * * * * * * * * * * //

dimensions      [0 3 -1 0 0 0 0];

oriented        oriented;

internalField   nonuniform List<scalar> 
7780
(
6.70095e-10
-6.70095e-10
1.18631e-09
-5.16218e-10
1.49975e-09
-3.13438e-10
1.71244e-09
-2.12692e-10
1.86297e-09
-1.50527e-10
1.97146e-09
-1.0849e-10
2.05292e-09
-8.14648e-11
2.11697e-09
-6.40438e-11
2.16923e-09
-5.22638e-11
2.21316e-09
-4.39256e-11
2.25095e-09
-3.77974e-11
2.28408e-09
-3.3125e-11
2.31352e-09
-2.94362e-11
2.33995e-09
-2.64352e-11
2.36388e-09
-2.39336e-11
2.38569e-09
-2.1808e-11
2.40567e-09
-1.99772e-11
2.42406e-09
-1.83882e-11
2.44107e-09
-1.7008e-11
2.45689e-09
-1.58194e-11
2.4717e-09
-1.48183e-11
2.48572e-09
-1.40134e-11
2.49914e-09
-1.34265e-11
2.51224e-09
-1.30958e-11
2.52532e-09
-1.30809e-11
2.53879e-09
-1.3473e-11
2.55321e-09
-1.44146e-11
2.56935e-09
-1.61386e-11
2.58838e-09
-1.90358e-11
2.61218e-09
-2.38011e-11
2.63513e-09
-6.79182e-11
2.61891e-09
-3.0096e-10
2.55718e-09
-5.98831e-10
2.45822e-09
-8.70773e-10
2.3293e-09
-1.10354e-09
2.19028e-09
-1.31558e-09
2.05727e-09
-1.51924e-09
1.88799e-09
-1.7731e-09
1.70035e-09
-1.93805e-09
1.54406e-09
-2.01377e-09
1.41896e-09
-2.07549e-09
1.32514e-09
-2.12648e-09
1.25514e-09
-2.16202e-09
1.2031e-09
-2.18423e-09
1.1644e-09
-2.19453e-09
1.13422e-09
-2.19259e-09
1.11077e-09
-2.17782e-09
1.08967e-09
-2.15094e-09
1.06816e-09
-2.1109e-09
1.04284e-09
-2.05518e-09
1.01334e-09
-1.98023e-09
9.8773e-10
-1.88256e-09
9.61055e-10
-1.76535e-09
9.51513e-10
-1.61264e-09
9.68832e-10
-1.42543e-09
1.03844e-09
-1.18318e-09
1.1627e-09
-8.89736e-10
1.3493e-09
-5.08605e-10
1.5666e-09
-6.19449e-11
1.76499e-09
3.98423e-10
1.92222e-09
8.2084e-10
2.0395e-09
1.2019e-09
2.12347e-09
1.45489e-09
2.19194e-09
1.67171e-09
2.24928e-09
1.80956e-09
2.30176e-09
1.92093e-09
2.35123e-09
2.00749e-09
2.39816e-09
2.06723e-09
2.44351e-09
2.11292e-09
2.48705e-09
2.14775e-09
2.52958e-09
2.17343e-09
2.57097e-09
2.18874e-09
2.61142e-09
2.19552e-09
2.65118e-09
2.19474e-09
2.69037e-09
2.18648e-09
2.7292e-09
2.17027e-09
2.76769e-09
2.14529e-09
2.80581e-09
2.10487e-09
2.84374e-09
2.05561e-09
2.88119e-09
1.9923e-09
2.91861e-09
1.90934e-09
2.954e-09
1.78372e-09
2.98814e-09
1.64448e-09
3.01823e-09
1.43589e-09
3.04377e-09
1.19168e-09
3.05959e-09
8.33959e-10
3.06538e-09
4.39639e-10
3.05819e-09
-1.11458e-12
3.03914e-09
-4.61938e-10
3.00904e-09
-8.69407e-10
2.97336e-09
-1.18338e-09
2.9329e-09
-1.45484e-09
2.89137e-09
-1.63839e-09
2.8488e-09
-1.79996e-09
2.80704e-09
-1.90543e-09
2.76589e-09
-1.98976e-09
2.72548e-09
-2.06232e-09
2.68558e-09
-2.10918e-09
2.64622e-09
-2.14479e-09
2.6068e-09
-2.17007e-09
2.5666e-09
-2.18604e-09
2.52469e-09
-2.19333e-09
2.48006e-09
-2.19117e-09
2.4318e-09
-2.18031e-09
2.37899e-09
-2.16089e-09
2.32099e-09
-2.13245e-09
2.2569e-09
-2.09378e-09
2.18591e-09
-2.03989e-09
2.10966e-09
-1.9694e-09
2.02817e-09
-1.88624e-09
1.94254e-09
-1.7827e-09
1.86273e-09
-1.63082e-09
1.78768e-09
-1.46639e-09
1.73588e-09
-1.2225e-09
1.71088e-09
-9.45786e-10
1.72286e-09
-5.81276e-10
1.76981e-09
-1.47749e-10
1.83115e-09
2.95705e-10
1.89122e-09
7.14149e-10
1.94388e-09
1.10087e-09
1.98721e-09
1.37821e-09
2.02568e-09
1.60208e-09
2.06189e-09
1.75749e-09
2.09806e-09
1.89062e-09
2.13444e-09
1.9766e-09
2.17092e-09
2.04435e-09
2.20813e-09
2.09953e-09
2.24602e-09
2.13918e-09
2.28434e-09
2.16593e-09
2.32332e-09
2.18376e-09
2.36302e-09
2.1936e-09
2.40374e-09
2.19572e-09
2.44556e-09
2.19021e-09
2.48852e-09
2.17537e-09
2.53339e-09
2.15203e-09
2.57992e-09
2.11974e-09
2.62871e-09
2.07624e-09
2.6801e-09
2.01991e-09
2.73332e-09
1.93412e-09
2.7894e-09
1.83595e-09
2.84755e-09
1.71217e-09
2.90565e-09
1.52085e-09
2.96354e-09
1.31185e-09
3.01557e-09
9.97773e-10
3.0604e-09
6.34109e-10
3.09309e-09
2.14387e-10
3.11211e-09
-2.4809e-10
3.11627e-09
-6.8987e-10
3.11006e-09
-1.0435e-09
3.09455e-09
-1.33891e-09
3.07317e-09
-1.56565e-09
3.04711e-09
-1.73472e-09
3.01861e-09
-1.85684e-09
2.98726e-09
-1.96467e-09
2.95426e-09
-2.03382e-09
2.91995e-09
-2.0878e-09
2.88401e-09
-2.12861e-09
2.84609e-09
-2.16028e-09
2.80552e-09
-2.17868e-09
2.75313e-09
-2.17905e-09
2.68545e-09
-2.16847e-09
2.60593e-09
-2.15406e-09
2.50755e-09
-2.12523e-09
2.42487e-09
-1.71453e-09
2.34564e-09
-1.4966e-09
2.26962e-09
-1.31416e-09
2.20384e-09
-1.07865e-09
2.16052e-09
-8.26675e-10
2.14486e-09
-5.33803e-10
2.15704e-09
-2.26335e-10
2.18145e-09
-3.33733e-11
2.19916e-09
-1.77086e-11
2.21225e-09
-1.3098e-11
2.22223e-09
-9.97542e-12
2.22992e-09
-7.69233e-12
2.23579e-09
-5.86584e-12
2.24009e-09
-4.30583e-12
2.243e-09
-2.90519e-12
2.24459e-09
-1.598e-12
2.24491e-09
-3.14109e-13
2.24413e-09
7.72908e-13
2.24239e-09
1.74618e-12
2.2397e-09
2.69126e-12
2.23612e-09
3.57668e-12
2.23169e-09
4.4331e-12
2.22638e-09
5.30535e-12
2.22012e-09
6.25796e-12
2.21274e-09
7.38375e-12
2.20392e-09
8.81848e-12
2.19315e-09
1.07685e-11
2.17959e-09
1.35635e-11
2.16183e-09
1.77563e-11
2.1375e-09
2.43276e-11
2.10237e-09
3.51315e-11
2.04845e-09
5.39185e-11
1.95979e-09
8.86672e-11
1.80283e-09
1.56953e-10
1.50231e-09
3.00522e-10
8.95208e-10
6.07105e-10
8.95208e-10
-3.47301e-11
-6.35365e-10
1.62549e-10
-7.13498e-10
4.26422e-10
-5.7731e-10
6.6349e-10
-4.4976e-10
8.63591e-10
-3.50627e-10
1.03042e-09
-2.75319e-10
1.16926e-09
-2.20308e-10
1.28561e-09
-1.80389e-10
1.38414e-09
-1.50792e-10
1.46847e-09
-1.28262e-10
1.54136e-09
-1.10683e-10
1.60486e-09
-9.6625e-11
1.66053e-09
-8.51124e-11
1.70958e-09
-7.54803e-11
1.75292e-09
-6.72732e-11
1.79129e-09
-6.01748e-11
1.82528e-09
-5.39662e-11
1.85538e-09
-4.84978e-11
1.88205e-09
-4.3673e-11
1.90567e-09
-3.94375e-11
1.92662e-09
-3.57744e-11
1.94531e-09
-3.2702e-11
1.96216e-09
-3.02761e-11
1.97766e-09
-2.85951e-11
1.99239e-09
-2.78113e-11
2.00707e-09
-2.81501e-11
2.0226e-09
-2.99435e-11
2.04015e-09
-3.369e-11
2.0613e-09
-4.01866e-11
2.08821e-09
-5.07067e-11
2.11415e-09
-9.3858e-11
2.09764e-09
-2.84458e-10
2.02942e-09
-5.30605e-10
1.921e-09
-7.62358e-10
1.78612e-09
-9.68653e-10
1.64459e-09
-1.17406e-09
1.50702e-09
-1.38167e-09
1.3471e-09
-1.61318e-09
1.1833e-09
-1.77425e-09
1.0491e-09
-1.87957e-09
9.44007e-10
-1.9704e-09
8.63749e-10
-2.04622e-09
8.02809e-10
-2.10108e-09
7.56609e-10
-2.13803e-09
7.20639e-10
-2.15856e-09
6.90713e-10
-2.16267e-09
6.63905e-10
-2.15101e-09
6.36499e-10
-2.12354e-09
6.05141e-10
-2.07954e-09
5.67779e-10
-2.01782e-09
5.24242e-10
-1.93669e-09
4.79739e-10
-1.83805e-09
4.33671e-10
-1.71928e-09
3.99622e-10
-1.57859e-09
3.8852e-10
-1.41433e-09
4.22779e-10
-1.21744e-09
5.16815e-10
-9.83772e-10
6.95071e-10
-6.86861e-10
9.54786e-10
-3.2166e-10
1.25976e-09
9.34511e-11
1.55956e-09
5.21036e-10
1.81462e-09
9.46846e-10
2.00131e-09
1.2682e-09
2.13507e-09
1.53794e-09
2.22767e-09
1.71695e-09
2.29644e-09
1.85216e-09
2.35267e-09
1.95126e-09
2.40221e-09
2.01769e-09
2.44811e-09
2.06703e-09
2.49128e-09
2.10457e-09
2.53314e-09
2.13157e-09
2.57384e-09
2.14803e-09
2.61374e-09
2.15563e-09
2.65309e-09
2.15539e-09
2.692e-09
2.14757e-09
2.73062e-09
2.13165e-09
2.76898e-09
2.10693e-09
2.80701e-09
2.06684e-09
2.84489e-09
2.01773e-09
2.88232e-09
1.95487e-09
2.91975e-09
1.87191e-09
2.95517e-09
1.7483e-09
2.98937e-09
1.61027e-09
3.01955e-09
1.40572e-09
3.04521e-09
1.16602e-09
3.06118e-09
8.17987e-10
3.06718e-09
4.33648e-10
3.06022e-09
5.84089e-12
3.04143e-09
-4.43153e-10
3.01161e-09
-8.39581e-10
2.97622e-09
-1.14799e-09
2.93605e-09
-1.41467e-09
2.89485e-09
-1.59719e-09
2.85255e-09
-1.75766e-09
2.811e-09
-1.86388e-09
2.76983e-09
-1.94858e-09
2.7291e-09
-2.02159e-09
2.68831e-09
-2.0684e-09
2.64698e-09
-2.10345e-09
2.6038e-09
-2.1269e-09
2.55756e-09
-2.1398e-09
2.50727e-09
-2.14303e-09
2.45187e-09
-2.13577e-09
2.39044e-09
-2.11888e-09
2.32187e-09
-2.09232e-09
2.24547e-09
-2.05606e-09
2.16128e-09
-2.00959e-09
2.06972e-09
-1.94833e-09
1.97301e-09
-1.87268e-09
1.87242e-09
-1.78565e-09
1.7711e-09
-1.68138e-09
1.6776e-09
-1.53732e-09
1.59306e-09
-1.38185e-09
1.53247e-09
-1.16191e-09
1.49984e-09
-9.13161e-10
1.50625e-09
-5.87682e-10
1.55761e-09
-1.99112e-10
1.64343e-09
2.09883e-10
1.74728e-09
6.10298e-10
1.84967e-09
9.9849e-10
1.93434e-09
1.29353e-09
2.00075e-09
1.53567e-09
2.05253e-09
1.70571e-09
2.09612e-09
1.84703e-09
2.13574e-09
1.93698e-09
2.17348e-09
2.00661e-09
2.21091e-09
2.0621e-09
2.24851e-09
2.10158e-09
2.28642e-09
2.12802e-09
2.32501e-09
2.14517e-09
2.36441e-09
2.1542e-09
2.40489e-09
2.15524e-09
2.44654e-09
2.14856e-09
2.48937e-09
2.13254e-09
2.53415e-09
2.10725e-09
2.5806e-09
2.07329e-09
2.62934e-09
2.0275e-09
2.6807e-09
1.96855e-09
2.73389e-09
1.88092e-09
2.78997e-09
1.77988e-09
2.84812e-09
1.65402e-09
2.90625e-09
1.46272e-09
2.96418e-09
1.25392e-09
3.01628e-09
9.45678e-10
3.0612e-09
5.8919e-10
3.094e-09
1.81582e-10
3.11318e-09
-2.67263e-10
3.11752e-09
-6.94213e-10
3.11151e-09
-1.03748e-09
3.09621e-09
-1.32361e-09
3.07504e-09
-1.54447e-09
3.04914e-09
-1.70882e-09
3.02068e-09
-1.82839e-09
2.98917e-09
-1.93316e-09
2.95563e-09
-2.00028e-09
2.92003e-09
-2.0522e-09
2.88146e-09
-2.09004e-09
2.83903e-09
-2.11785e-09
2.79176e-09
-2.13142e-09
2.73007e-09
-2.11736e-09
2.65015e-09
-2.08856e-09
2.55501e-09
-2.05893e-09
2.44376e-09
-2.01398e-09
2.3495e-09
-1.62027e-09
2.25995e-09
-1.40705e-09
2.17514e-09
-1.22935e-09
2.10162e-09
-1.00513e-09
2.05048e-09
-7.75535e-10
2.02648e-09
-5.09807e-10
2.03176e-09
-2.3161e-10
2.05381e-09
-5.54265e-11
2.07321e-09
-3.71099e-11
2.08853e-09
-2.84116e-11
2.09976e-09
-2.12063e-11
2.10711e-09
-1.50471e-11
2.11081e-09
-9.56689e-12
2.11102e-09
-4.51581e-12
2.10788e-09
2.37381e-13
2.10154e-09
4.74605e-12
2.0922e-09
9.02209e-12
2.07996e-09
1.30093e-11
2.06498e-09
1.67328e-11
2.04743e-09
2.02362e-11
2.02745e-09
2.35544e-11
2.00511e-09
2.67741e-11
1.98039e-09
3.00309e-11
1.95312e-09
3.3521e-11
1.92298e-09
3.7526e-11
1.88934e-09
4.24597e-11
1.85116e-09
4.89525e-11
1.80671e-09
5.80067e-11
1.75319e-09
7.12805e-11
1.68589e-09
9.16297e-11
1.59685e-09
1.24173e-10
1.47237e-09
1.78389e-10
1.28912e-09
2.71921e-10
1.01051e-09
4.35567e-10
6.00588e-10
7.10441e-10
1.32787e-10
1.07491e-09
1.02799e-09
-1.33879e-10
-5.01485e-10
-1.27953e-10
-7.19424e-10
-1.99143e-11
-6.85349e-10
1.26519e-10
-5.96194e-10
2.79001e-10
-5.03108e-10
4.24889e-10
-4.21208e-10
5.58934e-10
-3.54353e-10
6.79589e-10
-3.01044e-10
7.87265e-10
-2.58468e-10
8.83077e-10
-2.24074e-10
9.68282e-10
-1.95888e-10
1.04408e-09
-1.7242e-10
1.11153e-09
-1.52562e-10
1.17155e-09
-1.35501e-10
1.22492e-09
-1.20644e-10
1.2723e-09
-1.07557e-10
1.31426e-09
-9.59293e-11
1.35131e-09
-8.55443e-11
1.3839e-09
-7.62593e-11
1.41246e-09
-6.79963e-11
1.43742e-09
-6.07366e-11
1.45924e-09
-5.45198e-11
1.47841e-09
-4.94473e-11
1.4955e-09
-4.56907e-11
1.5112e-09
-4.35067e-11
1.52631e-09
-4.32616e-11
1.54184e-09
-4.5471e-11
1.55901e-09
-5.08636e-11
1.57934e-09
-6.05175e-11
1.60462e-09
-7.59812e-11
1.62916e-09
-1.18406e-10
1.61728e-09
-2.72574e-10
1.56069e-09
-4.74013e-10
1.47095e-09
-6.72618e-10
1.36245e-09
-8.60153e-10
1.25047e-09
-1.06208e-09
1.14155e-09
-1.27275e-09
1.01977e-09
-1.4914e-09
9.01198e-10
-1.65568e-09
8.05406e-10
-1.78378e-09
7.30151e-10
-1.89515e-09
6.7105e-10
-1.98712e-09
6.24669e-10
-2.0547e-09
5.87942e-10
-2.1013e-09
5.57298e-10
-2.12792e-09
5.29169e-10
-2.13454e-09
5.00501e-10
-2.12234e-09
4.68916e-10
-2.09195e-09
4.31356e-10
-2.04198e-09
3.86834e-10
-1.9733e-09
3.36334e-10
-1.88619e-09
2.83187e-10
-1.78491e-09
2.29326e-10
-1.66542e-09
1.84084e-10
-1.53335e-09
1.56269e-10
-1.38652e-09
1.61291e-10
-1.22246e-09
2.12375e-10
-1.03486e-09
3.31635e-10
-8.0612e-10
5.31696e-10
-5.21722e-10
8.06634e-10
-1.81487e-10
1.12757e-09
2.00103e-10
1.45573e-09
6.1868e-10
1.73981e-09
9.84118e-10
1.96699e-09
1.31076e-09
2.13385e-09
1.5501e-09
2.25181e-09
1.7342e-09
2.33535e-09
1.86772e-09
2.39771e-09
1.95533e-09
2.44918e-09
2.01556e-09
2.49482e-09
2.05893e-09
2.53752e-09
2.08888e-09
2.57812e-09
2.10743e-09
2.61751e-09
2.11624e-09
2.65626e-09
2.11665e-09
2.69464e-09
2.10919e-09
2.73284e-09
2.09345e-09
2.77089e-09
2.06889e-09
2.80869e-09
2.02904e-09
2.84642e-09
1.98001e-09
2.88375e-09
1.91754e-09
2.92112e-09
1.83454e-09
2.95653e-09
1.71289e-09
2.99074e-09
1.57606e-09
3.02096e-09
1.3755e-09
3.04669e-09
1.14029e-09
3.06276e-09
8.01924e-10
3.06886e-09
4.27545e-10
3.06202e-09
1.26738e-11
3.04336e-09
-4.24492e-10
3.01366e-09
-8.09873e-10
2.97838e-09
-1.11271e-09
2.93828e-09
-1.37457e-09
2.89707e-09
-1.55598e-09
2.85459e-09
-1.71518e-09
2.81267e-09
-1.82196e-09
2.77075e-09
-1.90666e-09
2.72837e-09
-1.9792e-09
2.68455e-09
-2.02458e-09
2.63858e-09
-2.05748e-09
2.58927e-09
-2.07759e-09
2.53536e-09
-2.08589e-09
2.47579e-09
-2.08347e-09
2.40954e-09
-2.06952e-09
2.33589e-09
-2.04524e-09
2.25432e-09
-2.01075e-09
2.16499e-09
-1.96674e-09
2.06889e-09
-1.91348e-09
1.96741e-09
-1.84686e-09
1.86354e-09
-1.76881e-09
1.75943e-09
-1.68154e-09
1.65869e-09
-1.58064e-09
1.5679e-09
-1.44653e-09
1.48843e-09
-1.30238e-09
1.42997e-09
-1.10345e-09
1.39491e-09
-8.78104e-10
1.3912e-09
-5.83972e-10
1.42625e-09
-2.34156e-10
1.49854e-09
1.37587e-10
1.60171e-09
5.07135e-10
1.72207e-09
8.78125e-10
1.8373e-09
1.1783e-09
1.93682e-09
1.43616e-09
2.01635e-09
1.62618e-09
2.079e-09
1.78439e-09
2.12927e-09
1.88671e-09
2.17218e-09
1.96369e-09
2.21203e-09
2.02226e-09
2.25069e-09
2.06292e-09
2.28887e-09
2.08984e-09
2.32733e-09
2.1067e-09
2.36646e-09
2.11507e-09
2.40664e-09
2.11505e-09
2.44803e-09
2.10717e-09
2.49064e-09
2.08993e-09
2.53525e-09
2.06264e-09
2.58157e-09
2.02696e-09
2.63022e-09
1.97886e-09
2.6815e-09
1.91727e-09
2.73465e-09
1.82777e-09
2.7907e-09
1.72383e-09
2.84884e-09
1.59588e-09
2.90698e-09
1.40458e-09
2.96494e-09
1.19596e-09
3.01708e-09
8.93538e-10
3.06206e-09
5.44206e-10
3.09495e-09
1.48697e-10
3.11422e-09
-2.8653e-10
3.11865e-09
-6.98648e-10
3.11272e-09
-1.03155e-09
3.09745e-09
-1.30835e-09
3.07622e-09
-1.52324e-09
3.05015e-09
-1.68274e-09
3.02125e-09
-1.79949e-09
2.98869e-09
-1.9006e-09
2.95314e-09
-1.96473e-09
2.91431e-09
-2.01337e-09
2.87113e-09
-2.04687e-09
2.82256e-09
-2.06928e-09
2.76734e-09
-2.0762e-09
2.69608e-09
-2.04611e-09
2.60585e-09
-1.99833e-09
2.50152e-09
-1.9546e-09
2.38576e-09
-1.89822e-09
2.28855e-09
-1.52306e-09
2.1973e-09
-1.3158e-09
2.11213e-09
-1.14417e-09
2.03872e-09
-9.31726e-10
1.9858e-09
-7.22608e-10
1.95699e-09
-4.80998e-10
1.95421e-09
-2.28829e-10
1.968e-09
-6.92163e-11
1.98221e-09
-5.1321e-11
1.99433e-09
-4.05364e-11
2.00331e-09
-3.01786e-11
2.0085e-09
-2.02447e-11
2.00959e-09
-1.06488e-11
2.00637e-09
-1.3004e-12
1.99878e-09
7.8272e-12
1.98683e-09
1.66955e-11
1.97061e-09
2.52454e-11
1.95021e-09
3.34098e-11
1.92578e-09
4.11628e-11
1.89749e-09
4.85266e-11
1.86547e-09
5.55744e-11
1.82978e-09
6.24551e-11
1.79041e-09
6.94089e-11
1.74714e-09
7.67901e-11
1.69955e-09
8.51125e-11
1.64687e-09
9.51355e-11
1.58781e-09
1.08017e-10
1.52023e-09
1.25589e-10
1.44067e-09
1.50836e-10
1.34356e-09
1.88736e-10
1.22004e-09
2.47701e-10
1.05661e-09
3.41811e-10
8.35412e-10
4.93123e-10
5.4237e-10
7.28609e-10
2.02409e-10
1.0504e-09
-4.47159e-11
1.32203e-09
9.83279e-10
-1.16248e-10
-3.85238e-10
-1.82726e-10
-6.52946e-10
-1.70618e-10
-6.97457e-10
-1.08744e-10
-6.58068e-10
-1.96566e-11
-5.92196e-10
8.10697e-11
-5.21934e-10
1.8389e-10
-4.57173e-10
2.83661e-10
-4.00815e-10
3.77822e-10
-3.52629e-10
4.65252e-10
-3.11503e-10
5.45596e-10
-2.76233e-10
6.18914e-10
-2.45738e-10
6.85468e-10
-2.19117e-10
7.45611e-10
-1.95644e-10
7.99722e-10
-1.74755e-10
8.48182e-10
-1.56017e-10
8.9136e-10
-1.39107e-10
9.29614e-10
-1.23799e-10
9.63301e-10
-1.09946e-10
9.92785e-10
-9.74801e-11
1.01845e-09
-8.64047e-11
1.04073e-09
-7.68014e-11
1.06012e-09
-6.88349e-11
1.0772e-09
-6.27645e-11
1.09265e-09
-5.89622e-11
1.10733e-09
-5.79395e-11
1.12225e-09
-6.03877e-11
1.13862e-09
-6.72397e-11
1.15789e-09
-7.97859e-11
1.18165e-09
-9.97442e-11
1.2057e-09
-1.42451e-10
1.20179e-09
-2.6866e-10
1.16395e-09
-4.36175e-10
1.1026e-09
-6.11269e-10
1.0301e-09
-7.87652e-10
9.56264e-10
-9.88244e-10
8.84289e-10
-1.20078e-09
8.03673e-10
-1.41078e-09
7.26668e-10
-1.57867e-09
6.64537e-10
-1.72165e-09
6.14721e-10
-1.84533e-09
5.73944e-10
-1.94634e-09
5.4029e-10
-2.02105e-09
5.11691e-10
-2.0727e-09
4.85533e-10
-2.10176e-09
4.58826e-10
-2.10783e-09
4.29224e-10
-2.09274e-09
3.95063e-10
-2.05779e-09
3.54611e-10
-2.00153e-09
3.07274e-10
-1.92596e-09
2.54866e-10
-1.83378e-09
1.99992e-10
-1.73003e-09
1.45575e-10
-1.611e-09
9.81217e-11
-1.4859e-09
6.38991e-11
-1.35229e-09
5.25184e-11
-1.21108e-09
7.32253e-11
-1.05556e-09
1.41854e-10
-8.74749e-10
2.73582e-10
-6.53449e-10
4.77239e-10
-3.85145e-10
7.48837e-10
-7.14951e-11
1.07073e-09
2.96791e-10
1.39624e-09
6.58604e-10
1.69298e-09
1.01403e-09
1.93768e-09
1.3054e-09
2.12692e-09
1.54495e-09
2.26558e-09
1.72907e-09
2.36444e-09
1.85647e-09
2.43626e-09
1.94374e-09
2.49164e-09
2.00356e-09
2.53877e-09
2.04175e-09
2.58148e-09
2.06472e-09
2.62166e-09
2.07606e-09
2.66041e-09
2.0779e-09
2.6984e-09
2.07119e-09
2.7361e-09
2.05575e-09
2.77368e-09
2.03131e-09
2.81109e-09
1.99163e-09
2.84851e-09
1.94259e-09
2.88561e-09
1.88043e-09
2.92283e-09
1.79732e-09
2.95813e-09
1.67759e-09
2.99229e-09
1.5419e-09
3.02248e-09
1.3453e-09
3.04822e-09
1.11454e-09
3.06431e-09
7.85831e-10
3.07046e-09
4.21399e-10
3.06368e-09
1.94595e-11
3.04505e-09
-4.05865e-10
3.01534e-09
-7.80164e-10
2.98e-09
-1.07737e-09
2.9397e-09
-1.33427e-09
2.89815e-09
-1.51443e-09
2.85504e-09
-1.67207e-09
2.81179e-09
-1.77872e-09
2.76744e-09
-1.86231e-09
2.72137e-09
-1.93313e-09
2.67261e-09
-1.97582e-09
2.62033e-09
-2.0052e-09
2.56318e-09
-2.02045e-09
2.49997e-09
-2.02268e-09
2.42988e-09
-2.01338e-09
2.35234e-09
-1.99199e-09
2.26732e-09
-1.96022e-09
2.17513e-09
-1.91856e-09
2.0769e-09
-1.86851e-09
1.97449e-09
-1.81107e-09
1.87007e-09
-1.74243e-09
1.76697e-09
-1.66571e-09
1.66749e-09
-1.58206e-09
1.57469e-09
-1.48784e-09
1.49313e-09
-1.36497e-09
1.42389e-09
-1.23315e-09
1.37175e-09
-1.0513e-09
1.33808e-09
-8.44436e-10
1.32793e-09
-5.73818e-10
1.34776e-09
-2.53992e-10
1.39952e-09
8.58358e-11
1.48417e-09
4.22486e-10
1.5972e-09
7.65094e-10
1.72139e-09
1.05411e-09
1.84197e-09
1.31558e-09
1.94765e-09
1.52049e-09
2.03518e-09
1.69685e-09
2.10491e-09
1.81698e-09
2.16081e-09
1.9078e-09
2.2079e-09
1.97516e-09
2.25017e-09
2.02064e-09
2.2901e-09
2.04991e-09
2.32936e-09
2.06744e-09
2.36871e-09
2.07573e-09
2.40883e-09
2.07493e-09
2.45001e-09
2.06599e-09
2.49239e-09
2.04755e-09
2.53678e-09
2.01826e-09
2.58291e-09
1.98083e-09
2.6314e-09
1.93037e-09
2.68257e-09
1.8661e-09
2.73563e-09
1.77471e-09
2.79162e-09
1.66784e-09
2.84972e-09
1.53778e-09
2.90784e-09
1.34646e-09
2.9658e-09
1.138e-09
3.01795e-09
8.41383e-10
3.06297e-09
4.99194e-10
3.09589e-09
1.15778e-10
3.11518e-09
-3.05821e-10
3.1196e-09
-7.03072e-10
3.11359e-09
-1.02554e-09
3.09815e-09
-1.29291e-09
3.07655e-09
-1.50164e-09
3.04965e-09
-1.65584e-09
3.01922e-09
-1.76906e-09
2.98421e-09
-1.86559e-09
2.94518e-09
-1.9257e-09
2.90165e-09
-1.96984e-09
2.85241e-09
-1.99763e-09
2.79636e-09
-2.01323e-09
2.73247e-09
-2.01231e-09
2.6524e-09
-1.96605e-09
2.55466e-09
-1.90058e-09
2.44567e-09
-1.84561e-09
2.32935e-09
-1.78191e-09
2.23302e-09
-1.42673e-09
2.14392e-09
-1.2267e-09
2.06154e-09
-1.06179e-09
1.99066e-09
-8.60843e-10
1.93868e-09
-6.70623e-10
1.90815e-09
-4.50469e-10
1.90025e-09
-2.20928e-10
1.90708e-09
-7.60455e-11
1.91518e-09
-5.94204e-11
1.92231e-09
-4.76705e-11
1.92721e-09
-3.50733e-11
1.92888e-09
-2.19205e-11
1.92663e-09
-8.39349e-12
1.91994e-09
5.38372e-12
1.9085e-09
1.92656e-11
1.89212e-09
3.30796e-11
1.87071e-09
4.66537e-11
1.84428e-09
5.98396e-11
1.8129e-09
7.25474e-11
1.77666e-09
8.47676e-11
1.73565e-09
9.65847e-11
1.6899e-09
1.08199e-10
1.63936e-09
1.19949e-10
1.58381e-09
1.32346e-10
1.52278e-09
1.46139e-10
1.45547e-09
1.62446e-10
1.38051e-09
1.82972e-10
1.29571e-09
2.10395e-10
1.19753e-09
2.4901e-10
1.08055e-09
3.05723e-10
9.36786e-10
3.91462e-10
7.56134e-10
5.22463e-10
5.30335e-10
7.18922e-10
2.66728e-10
9.92216e-10
1.81563e-11
1.29897e-09
-9.15738e-11
1.43176e-09
8.91705e-10
-8.7554e-11
-2.97684e-10
-1.69275e-10
-5.71225e-10
-2.01961e-10
-6.64771e-10
-1.92355e-10
-6.67674e-10
-1.53521e-10
-6.3103e-10
-9.56626e-11
-5.79792e-10
-2.78083e-11
-5.25027e-10
4.40627e-11
-4.72686e-10
1.16164e-10
-4.24731e-10
1.86193e-10
-3.81532e-10
2.52788e-10
-3.42827e-10
3.15186e-10
-3.08136e-10
3.73005e-10
-2.76936e-10
4.26097e-10
-2.48736e-10
4.74457e-10
-2.23115e-10
5.18169e-10
-1.99729e-10
5.57377e-10
-1.78315e-10
5.9227e-10
-1.58691e-10
6.23074e-10
-1.40751e-10
6.50059e-10
-1.24465e-10
6.73546e-10
-1.09891e-10
6.9392e-10
-9.71755e-11
7.11651e-10
-8.65665e-11
7.27316e-10
-7.84288e-11
7.41616e-10
-7.32628e-11
7.5541e-10
-7.17333e-11
7.6973e-10
-7.47073e-11
7.85799e-10
-8.33091e-11
8.05023e-10
-9.90101e-11
8.28935e-10
-1.23656e-10
8.54716e-10
-1.68232e-10
8.6139e-10
-2.75334e-10
8.45092e-10
-4.19877e-10
8.14136e-10
-5.80313e-10
7.77427e-10
-7.50944e-10
7.39708e-10
-9.50525e-10
7.01543e-10
-1.16261e-09
6.55484e-10
-1.36473e-09
6.10396e-10
-1.53358e-09
5.73158e-10
-1.68441e-09
5.41979e-10
-1.81415e-09
5.14746e-10
-1.91911e-09
4.90569e-10
-1.99687e-09
4.68066e-10
-2.0502e-09
4.45155e-10
-2.07885e-09
4.1965e-10
-2.08233e-09
3.90156e-10
-2.06324e-09
3.54945e-10
-2.02258e-09
3.13574e-10
-1.96016e-09
2.66327e-10
-1.87871e-09
2.15035e-10
-1.78249e-09
1.62052e-10
-1.67705e-09
1.10475e-10
-1.55942e-09
6.48407e-11
-1.44027e-09
2.94515e-11
-1.3169e-09
1.00811e-11
-1.19171e-09
1.27439e-11
-1.05823e-09
4.77988e-11
-9.09804e-10
1.2766e-10
-7.3331e-10
2.64549e-10
-5.22033e-10
4.6609e-10
-2.73036e-10
7.33692e-10
2.91888e-11
1.04187e-09
3.50424e-10
1.36122e-09
6.94681e-10
1.65689e-09
1.00972e-09
1.91135e-09
1.29049e-09
2.1154e-09
1.52502e-09
2.27006e-09
1.7018e-09
2.38389e-09
1.82991e-09
2.46679e-09
1.92066e-09
2.52918e-09
1.97936e-09
2.57926e-09
2.01463e-09
2.62291e-09
2.03242e-09
2.6634e-09
2.03741e-09
2.70212e-09
2.03247e-09
2.7399e-09
2.01797e-09
2.77721e-09
1.994e-09
2.81423e-09
1.95461e-09
2.85125e-09
1.90557e-09
2.88801e-09
1.84367e-09
2.92495e-09
1.76038e-09
2.96003e-09
1.64251e-09
2.99404e-09
1.5079e-09
3.02413e-09
1.31521e-09
3.0498e-09
1.08887e-09
3.06585e-09
7.69786e-10
3.07195e-09
4.15292e-10
3.06511e-09
2.6299e-11
3.04638e-09
-3.87134e-10
3.01647e-09
-7.50255e-10
2.98082e-09
-1.04171e-09
2.94e-09
-1.29345e-09
2.89742e-09
-1.47185e-09
2.85245e-09
-1.62709e-09
2.80635e-09
-1.73262e-09
2.7581e-09
-1.81406e-09
2.70681e-09
-1.88184e-09
2.65138e-09
-1.92039e-09
2.59092e-09
-1.94474e-09
2.52427e-09
-1.9538e-09
2.45058e-09
-1.94899e-09
2.36958e-09
-1.93238e-09
2.28143e-09
-1.90383e-09
2.18689e-09
-1.86568e-09
2.0872e-09
-1.81887e-09
1.98431e-09
-1.76562e-09
1.88067e-09
-1.70743e-09
1.77874e-09
-1.6405e-09
1.6817e-09
-1.56867e-09
1.59133e-09
-1.49169e-09
1.50962e-09
-1.40614e-09
1.43931e-09
-1.29466e-09
1.38058e-09
-1.17441e-09
1.33546e-09
-1.00619e-09
1.30457e-09
-8.13547e-10
1.2912e-09
-5.60441e-10
1.30065e-09
-2.63449e-10
1.33532e-09
5.11681e-11
1.39897e-09
3.58832e-10
1.49293e-09
6.71136e-10
1.60832e-09
9.38723e-10
1.73346e-09
1.19044e-09
1.85468e-09
1.39927e-09
1.96376e-09
1.58777e-09
2.05547e-09
1.72528e-09
2.13013e-09
1.83313e-09
2.19124e-09
1.91405e-09
2.24258e-09
1.96931e-09
2.2875e-09
2.00499e-09
2.32929e-09
2.02565e-09
2.36991e-09
2.03511e-09
2.41066e-09
2.03418e-09
2.45206e-09
2.0246e-09
2.49442e-09
2.00519e-09
2.53866e-09
1.97401e-09
2.58461e-09
1.93487e-09
2.63292e-09
1.88206e-09
2.68393e-09
1.81509e-09
2.73686e-09
1.72178e-09
2.79274e-09
1.61196e-09
2.85076e-09
1.47975e-09
2.90882e-09
1.2884e-09
2.96674e-09
1.08009e-09
3.01886e-09
7.89259e-10
3.06384e-09
4.54212e-10
3.09671e-09
8.29044e-11
3.11591e-09
-3.2502e-10
3.12017e-09
-7.07324e-10
3.11385e-09
-1.01922e-09
3.09781e-09
-1.27687e-09
3.07509e-09
-1.47892e-09
3.04639e-09
-1.62715e-09
3.01334e-09
-1.736e-09
2.97467e-09
-1.82692e-09
2.9308e-09
-1.88182e-09
2.88115e-09
-1.92019e-09
2.82467e-09
-1.94115e-09
2.76059e-09
-1.94915e-09
2.68856e-09
-1.94028e-09
2.60157e-09
-1.87906e-09
2.49939e-09
-1.79841e-09
2.38912e-09
-1.73535e-09
2.27466e-09
-1.66746e-09
2.18112e-09
-1.3332e-09
2.09557e-09
-1.14115e-09
2.01708e-09
-9.83292e-10
1.94924e-09
-7.93011e-10
1.89893e-09
-6.20311e-10
1.86798e-09
-4.19513e-10
1.8571e-09
-2.10046e-10
1.85908e-09
-7.80301e-11
1.86214e-09
-6.24798e-11
1.86453e-09
-5.00616e-11
1.86514e-09
-3.5678e-11
1.86295e-09
-1.97376e-11
1.85714e-09
-2.58029e-12
1.84703e-09
1.54972e-11
1.8321e-09
3.41886e-11
1.81201e-09
5.31767e-11
1.7865e-09
7.21602e-11
1.75545e-09
9.08844e-11
1.71882e-09
1.09178e-10
1.67661e-09
1.2698e-10
1.62883e-09
1.44365e-10
1.57547e-09
1.61564e-10
1.51642e-09
1.78994e-10
1.45147e-09
1.97301e-10
1.38015e-09
2.1745e-10
1.30172e-09
2.40884e-10
1.21487e-09
2.69814e-10
1.11757e-09
3.07695e-10
1.00663e-09
3.59956e-10
8.77355e-10
4.34996e-10
7.23686e-10
5.45131e-10
5.39971e-10
7.06178e-10
3.27181e-10
9.31712e-10
1.06832e-10
1.21257e-09
-6.03586e-11
1.46616e-09
-8.91166e-11
1.46052e-09
8.02588e-10
-6.24796e-11
-2.35204e-10
-1.39018e-10
-4.94687e-10
-1.89925e-10
-6.13864e-10
-2.08973e-10
-6.48626e-10
-2.01881e-10
-6.38122e-10
-1.76195e-10
-6.05478e-10
-1.37655e-10
-5.63567e-10
-9.1613e-11
-5.18729e-10
-4.18519e-11
-4.74492e-10
9.00562e-12
-4.3239e-10
5.91749e-11
-3.92996e-10
1.07476e-10
-3.56438e-10
1.53158e-10
-3.22617e-10
1.95754e-10
-2.91332e-10
2.34998e-10
-2.62358e-10
2.70761e-10
-2.35492e-10
3.0302e-10
-2.10574e-10
3.31833e-10
-1.87505e-10
3.57331e-10
-1.66248e-10
3.7971e-10
-1.46845e-10
3.99247e-10
-1.29428e-10
4.16301e-10
-1.1423e-10
4.31338e-10
-1.01603e-10
4.44942e-10
-9.2033e-11
4.5784e-10
-8.61601e-11
4.70915e-10
-8.48083e-11
4.85225e-10
-8.90179e-11
5.02004e-10
-1.00088e-10
5.22632e-10
-1.19637e-10
5.4857e-10
-1.49594e-10
5.78128e-10
-1.97791e-10
5.96512e-10
-2.93718e-10
6.01124e-10
-4.24489e-10
5.97521e-10
-5.7671e-10
5.90811e-10
-7.44233e-10
5.81898e-10
-9.41612e-10
5.69748e-10
-1.15046e-09
5.49092e-10
-1.34407e-09
5.26477e-10
-1.51097e-09
5.06612e-10
-1.66454e-09
4.88678e-10
-1.79622e-09
4.71285e-10
-1.90172e-09
4.54136e-10
-1.97972e-09
4.36258e-10
-2.03232e-09
4.15993e-10
-2.05858e-09
3.91795e-10
-2.05813e-09
3.62953e-10
-2.0344e-09
3.28011e-10
-1.98764e-09
2.87293e-10
-1.91944e-09
2.41677e-10
-1.8331e-09
1.93043e-10
-1.73386e-09
1.43557e-10
-1.62756e-09
9.60912e-11
-1.51196e-09
5.37967e-11
-1.39797e-09
1.96129e-11
-1.28272e-09
-2.98617e-12
-1.16911e-09
-1.0212e-11
-1.051e-09
4.36658e-12
-9.24383e-10
4.96745e-11
-7.78618e-10
1.36544e-10
-6.08903e-10
2.7524e-10
-4.11732e-10
4.75931e-10
-1.71502e-10
7.31629e-10
9.47261e-11
1.02798e-09
3.98331e-10
1.33447e-09
7.03232e-10
1.62661e-09
9.98351e-10
1.88515e-09
1.26648e-09
2.09868e-09
1.48827e-09
2.26659e-09
1.662e-09
2.39388e-09
1.79336e-09
2.48894e-09
1.8843e-09
2.56017e-09
1.9434e-09
2.61549e-09
1.97711e-09
2.66165e-09
1.99125e-09
2.70308e-09
1.99104e-09
2.74232e-09
1.97873e-09
2.78032e-09
1.95601e-09
2.81749e-09
1.91744e-09
2.85436e-09
1.8687e-09
2.89084e-09
1.80719e-09
2.92747e-09
1.72376e-09
2.96225e-09
1.60772e-09
2.996e-09
1.47415e-09
3.02588e-09
1.28533e-09
3.05137e-09
1.06338e-09
3.06725e-09
7.53906e-10
3.07318e-09
4.09362e-10
3.06612e-09
3.3365e-11
3.04706e-09
-3.68082e-10
3.01667e-09
-7.19863e-10
2.98019e-09
-1.00522e-09
2.93794e-09
-1.25121e-09
2.89319e-09
-1.42711e-09
2.84513e-09
-1.57903e-09
2.7948e-09
-1.6823e-09
2.74095e-09
-1.76021e-09
2.68255e-09
-1.82344e-09
2.61859e-09
-1.85642e-09
2.54838e-09
-1.87454e-09
2.4712e-09
-1.87661e-09
2.38678e-09
-1.86458e-09
2.29558e-09
-1.84118e-09
2.19856e-09
-1.80682e-09
2.09736e-09
-1.76448e-09
1.99393e-09
-1.71544e-09
1.89073e-09
-1.66242e-09
1.79037e-09
-1.60708e-09
1.69515e-09
-1.54528e-09
1.60756e-09
-1.48108e-09
1.52848e-09
-1.41261e-09
1.45871e-09
-1.33636e-09
1.39971e-09
-1.23566e-09
1.35013e-09
-1.12483e-09
1.31144e-09
-9.67492e-10
1.28345e-09
-7.85554e-10
1.26866e-09
-5.45658e-10
1.2716e-09
-2.66386e-10
1.29414e-09
2.8626e-11
1.34032e-09
3.12653e-10
1.41368e-09
5.97778e-10
1.51132e-09
8.41082e-10
1.62748e-09
1.07428e-09
1.751e-09
1.27575e-09
1.87211e-09
1.46667e-09
1.98187e-09
1.61552e-09
2.07612e-09
1.73888e-09
2.15497e-09
1.8352e-09
2.22055e-09
1.90373e-09
2.27577e-09
1.94977e-09
2.32405e-09
1.97737e-09
2.36822e-09
1.99094e-09
2.41074e-09
1.99165e-09
2.45311e-09
1.98223e-09
2.496e-09
1.96229e-09
2.54047e-09
1.92955e-09
2.58644e-09
1.8889e-09
2.63465e-09
1.83385e-09
2.68552e-09
1.76422e-09
2.7383e-09
1.669e-09
2.79404e-09
1.55622e-09
2.85194e-09
1.42186e-09
2.90989e-09
1.23046e-09
2.9677e-09
1.02228e-09
3.01972e-09
7.37243e-10
3.06457e-09
4.09358e-10
3.09726e-09
5.02127e-11
3.11617e-09
-3.43934e-10
3.11996e-09
-7.11107e-10
3.11284e-09
-1.0121e-09
3.0955e-09
-1.25953e-09
3.07081e-09
-1.45424e-09
3.03931e-09
-1.59564e-09
3.0024e-09
-1.6991e-09
2.9587e-09
-1.78323e-09
2.90865e-09
-1.83177e-09
2.85187e-09
-1.86341e-09
2.78769e-09
-1.87697e-09
2.716e-09
-1.87745e-09
2.63725e-09
-1.86153e-09
2.54568e-09
-1.78749e-09
2.4418e-09
-1.69454e-09
2.33264e-09
-1.62619e-09
2.2215e-09
-1.55632e-09
2.13168e-09
-1.24338e-09
2.05015e-09
-1.05962e-09
1.97555e-09
-9.08691e-10
1.9108e-09
-7.28263e-10
1.86231e-09
-5.7182e-10
1.83155e-09
-3.88751e-10
1.81897e-09
-1.97466e-10
1.81773e-09
-7.67867e-11
1.81705e-09
-6.18077e-11
1.8156e-09
-4.86076e-11
1.81246e-09
-3.2538e-11
1.80674e-09
-1.40147e-11
1.7976e-09
6.55801e-12
1.78432e-09
2.87767e-11
1.76629e-09
5.22135e-11
1.74304e-09
7.6426e-11
1.71421e-09
1.00991e-10
1.67955e-09
1.25545e-10
1.6389e-09
1.49827e-10
1.59217e-09
1.73713e-10
1.53929e-09
1.97249e-10
1.48017e-09
2.20676e-10
1.4147e-09
2.44463e-10
1.34265e-09
2.69356e-10
1.26361e-09
2.96492e-10
1.1769e-09
3.27588e-10
1.08143e-09
3.65283e-10
9.75454e-10
4.13675e-10
8.56336e-10
4.79075e-10
7.20515e-10
5.70817e-10
5.64217e-10
7.01429e-10