/*--------------------------------*- C++ -*----------------------------------*\
| =========                 |                                                 |
| \\      /  F ield         | OpenFOAM: The Open Source CFD Toolbox           |
|  \\    /   O peration     | Version:  2506                                  |
|   \\  /    A nd           | Website:  www.openfoam.com                      |
|    \\/     M anipulation  |                                                 |
\*---------------------------------------------------------------------------*/
FoamFile
{
    version     2.0;
    format      ascii;
    arch        "LSB;label=32;scalar=64";
    class       volScalarField;
    location    "1.3";
    object      p;
}
// * * * * * * * * * * * * * * * * * * * * * * * * * * * * * * * * * * * * * //

dimensions      [0 2 -2 0 0 0 0];

internalField   nonuniform List<scalar> 
4000
(
-0.00369661
-0.00371627
-0.00371814
-0.00370969
-0.00369755
-0.0036835
-0.00366825
-0.00365233
-0.003636
-0.0036194
-0.00360259
-0.00358562
-0.00356852
-0.00355132
-0.00353404
-0.0035167
-0.00349932
-0.00348192
-0.00346451
-0.00344709
-0.00342968
-0.00341229
-0.00339494
-0.00337763
-0.00336038
-0.00334321
-0.00332614
-0.00330919
-0.00329239
-0.00327578
-0.00325941
-0.00324336
-0.00322776
-0.00321275
-0.00319878
-0.00318589
-0.0031733
-0.0031605
-0.00314727
-0.00313341
-0.00311864
-0.00310303
-0.00308711
-0.00307105
-0.00305488
-0.00303855
-0.00302191
-0.00300497
-0.00298742
-0.00296922
-0.0029502
-0.00293014
-0.00290912
-0.00288675
-0.00286323
-0.00283834
-0.00281221
-0.00278492
-0.00275638
-0.00272706
-0.00269682
-0.00266613
-0.00263511
-0.002604
-0.00257301
-0.00254231
-0.002512
-0.00248221
-0.00245301
-0.00242444
-0.00239652
-0.00236916
-0.00234247
-0.00231638
-0.00229087
-0.00226603
-0.00224183
-0.00221828
-0.00219549
-0.00217347
-0.00215224
-0.00213185
-0.00211229
-0.00209358
-0.00207573
-0.00205868
-0.00204243
-0.00202697
-0.00201221
-0.00199813
-0.00198472
-0.0019719
-0.00195962
-0.0019479
-0.0019366
-0.00192582
-0.00191539
-0.00190537
-0.00189561
-0.00188618
-0.0018769
-0.00186782
-0.00185882
-0.0018498
-0.00184075
-0.00183153
-0.00182217
-0.00181253
-0.00180262
-0.00179236
-0.00178172
-0.0017707
-0.00175932
-0.00174756
-0.00173548
-0.00172306
-0.00171039
-0.00169748
-0.00168438
-0.00167112
-0.00165773
-0.00164423
-0.00163062
-0.00161689
-0.00160302
-0.00158896
-0.00157462
-0.00156001
-0.00154506
-0.00152968
-0.00151385
-0.00149745
-0.00148042
-0.00146277
-0.00144438
-0.00142518
-0.00140527
-0.0013844
-0.00136271
-0.00134007
-0.00131644
-0.0012918
-0.00126615
-0.00123942
-0.00121171
-0.00118297
-0.00115353
-0.00112337
-0.00109279
-0.00106202
-0.0010313
-0.00100091
-0.000971058
-0.000941852
-0.000913595
-0.000886207
-0.000859938
-0.000834459
-0.000809654
-0.00078592
-0.00076607
-0.00074639
-0.000726955
-0.000707744
-0.000688876
-0.000669792
-0.000650177
-0.0006292
-0.000607702
-0.000586364
-0.000565435
-0.000545017
-0.000525093
-0.000505589
-0.00048641
-0.000467457
-0.000448623
-0.000429808
-0.000410956
-0.000392021
-0.00037297
-0.000353792
-0.000334489
-0.000315082
-0.000295598
-0.000276075
-0.000256544
-0.000237047
-0.00021762
-0.000198284
-0.000179054
-0.000159937
-0.000140925
-0.000122017
-0.000103199
-8.44529e-05
-6.57557e-05
-4.70927e-05
-2.84543e-05
-9.66228e-06
-0.00373205
-0.00372707
-0.0037194
-0.00370856
-0.00369591
-0.00368197
-0.00366707
-0.00365151
-0.00363548
-0.00361912
-0.00360252
-0.00358571
-0.00356876
-0.00355169
-0.00353453
-0.00351729
-0.0035
-0.00348268
-0.00346534
-0.00344798
-0.00343063
-0.0034133
-0.00339599
-0.00337873
-0.00336152
-0.00334438
-0.00332734
-0.00331041
-0.00329363
-0.00327704
-0.00326069
-0.00324462
-0.00322889
-0.0032137
-0.00319916
-0.00318513
-0.00317133
-0.00315738
-0.00314307
-0.00312829
-0.00311286
-0.00309711
-0.00308126
-0.0030653
-0.00304925
-0.00303301
-0.00301646
-0.00299958
-0.00298209
-0.00296396
-0.00294509
-0.00292527
-0.00290459
-0.00288272
-0.00285987
-0.00283573
-0.00281048
-0.00278419
-0.00275676
-0.00272872
-0.00269978
-0.00267045
-0.00264079
-0.00261097
-0.00258126
-0.00255169
-0.00252248
-0.00249361
-0.00246523
-0.00243733
-0.00241
-0.00238319
-0.00235691
-0.0023312
-0.00230601
-0.00228138
-0.00225731
-0.00223382
-0.00221097
-0.0021888
-0.00216734
-0.00214663
-0.0021267
-0.00210755
-0.00208921
-0.00207164
-0.00205484
-0.00203879
-0.00202345
-0.00200877
-0.00199474
-0.0019813
-0.00196839
-0.001956
-0.00194406
-0.00193257
-0.00192145
-0.00191066
-0.00190011
-0.00188984
-0.00187974
-0.00186978
-0.00185988
-0.00185001
-0.00184009
-0.00183003
-0.00181979
-0.00180931
-0.00179856
-0.0017875
-0.00177611
-0.0017644
-0.00175238
-0.00174008
-0.00172749
-0.00171467
-0.00170165
-0.00168846
-0.00167514
-0.00166172
-0.00164821
-0.00163461
-0.00162092
-0.00160711
-0.00159313
-0.00157896
-0.00156457
-0.00154988
-0.00153482
-0.00151932
-0.00150335
-0.00148683
-0.00146968
-0.00145193
-0.00143346
-0.00141423
-0.00139431
-0.00137351
-0.00135197
-0.00132956
-0.00130624
-0.00128203
-0.00125691
-0.00123086
-0.00120409
-0.00117633
-0.00114807
-0.00111907
-0.00108972
-0.00106021
-0.00103066
-0.00100147
-0.000972638
-0.000944512
-0.000917138
-0.000890697
-0.000865189
-0.000840593
-0.000816678
-0.000793518
-0.000772276
-0.000751787
-0.000731502
-0.000711306
-0.000691177
-0.000670764
-0.000649889
-0.000628354
-0.00060662
-0.000585111
-0.000564075
-0.000543605
-0.00052365
-0.000504119
-0.000484925
-0.000465961
-0.000447136
-0.000428371
-0.000409584
-0.000390721
-0.000371747
-0.000352646
-0.000333416
-0.000314074
-0.000294647
-0.000275172
-0.000255692
-0.000236241
-0.000216851
-0.000197553
-0.000178362
-0.000159289
-0.000140336
-0.000121488
-0.000102731
-8.40483e-05
-6.54184e-05
-4.68282e-05
-2.82727e-05
-9.59846e-06
-0.00374831
-0.00373285
-0.0037198
-0.00370778
-0.00369479
-0.00368071
-0.00366595
-0.00365062
-0.00363484
-0.00361871
-0.00360231
-0.00358569
-0.00356889
-0.00355195
-0.0035349
-0.00351776
-0.00350055
-0.0034833
-0.00346601
-0.00344871
-0.00343141
-0.00341411
-0.00339683
-0.00337959
-0.0033624
-0.00334527
-0.00332822
-0.00331129
-0.00329448
-0.00327784
-0.00326141
-0.00324523
-0.00322935
-0.00321398
-0.00319893
-0.00318405
-0.00316932
-0.00315448
-0.00313935
-0.00312392
-0.00310811
-0.00309232
-0.00307656
-0.00306066
-0.00304467
-0.00302848
-0.00301196
-0.0029951
-0.00297764
-0.00295957
-0.00294079
-0.00292111
-0.00290064
-0.00287905
-0.0028566
-0.00283304
-0.00280851
-0.00278313
-0.00275669
-0.00272981
-0.00270201
-0.00267388
-0.00264538
-0.00261664
-0.00258797
-0.00255927
-0.00253091
-0.00250276
-0.00247504
-0.00244771
-0.00242085
-0.00239448
-0.00236855
-0.00234315
-0.00231821
-0.00229375
-0.00226978
-0.00224633
-0.00222342
-0.00220112
-0.00217945
-0.00215845
-0.00213817
-0.00211862
-0.00209983
-0.00208181
-0.00206453
-0.002048
-0.00203217
-0.00201701
-0.00200249
-0.00198855
-0.00197516
-0.00196227
-0.00194983
-0.0019378
-0.00192612
-0.00191477
-0.00190371
-0.00189284
-0.00188214
-0.00187153
-0.00186097
-0.00185039
-0.00183973
-0.00182895
-0.00181798
-0.00180679
-0.00179534
-0.00178361
-0.0017716
-0.00175932
-0.00174677
-0.001734
-0.00172101
-0.00170786
-0.00169458
-0.00168118
-0.00166772
-0.00165419
-0.00164059
-0.00162693
-0.00161318
-0.0015993
-0.00158526
-0.001571
-0.00155649
-0.00154166
-0.00152644
-0.00151077
-0.00149464
-0.00147794
-0.00146065
-0.00144279
-0.00142423
-0.00140495
-0.00138508
-0.00136433
-0.00134287
-0.00132058
-0.0012975
-0.00127363
-0.00124897
-0.00122349
-0.00119737
-0.00117039
-0.00114304
-0.00111502
-0.00108673
-0.00105833
-0.0010298
-0.00100168
-0.000973745
-0.000946535
-0.000919866
-0.000894127
-0.000869178
-0.000845197
-0.00082202
-0.000799673
-0.000777814
-0.000756854
-0.000735885
-0.000714859
-0.000693614
-0.000672083
-0.00065005
-0.000627871
-0.000605767
-0.000584021
-0.000562847
-0.000542293
-0.000522302
-0.00050278
-0.000483623
-0.000464719
-0.000445965
-0.000427272
-0.000408559
-0.000389768
-0.000370856
-0.000351808
-0.000332622
-0.000313315
-0.000293916
-0.000274463
-0.000254998
-0.000235561
-0.000216188
-0.000196908
-0.000177741
-0.000158696
-0.000139775
-0.00012097
-0.000102264
-8.36414e-05
-6.50793e-05
-4.65633e-05
-2.80942e-05
-9.55429e-06
-0.0037551
-0.00373634
-0.00372068
-0.00370791
-0.00369436
-0.00367986
-0.00366503
-0.00364977
-0.00363413
-0.0036182
-0.00360198
-0.00358552
-0.00356889
-0.00355209
-0.00353517
-0.00351814
-0.00350103
-0.00348386
-0.00346664
-0.0034494
-0.00343214
-0.00341488
-0.00339763
-0.00338041
-0.00336322
-0.00334609
-0.00332903
-0.00331205
-0.00329519
-0.00327847
-0.00326193
-0.00324558
-0.00322947
-0.0032138
-0.00319826
-0.00318267
-0.00316722
-0.00315173
-0.00313603
-0.0031202
-0.00310419
-0.00308844
-0.00307271
-0.0030568
-0.00304079
-0.00302453
-0.00300794
-0.002991
-0.00297346
-0.0029553
-0.00293648
-0.00291683
-0.00289644
-0.00287505
-0.00285291
-0.00282982
-0.00280592
-0.00278131
-0.00275578
-0.00272992
-0.00270322
-0.00267624
-0.0026489
-0.00262126
-0.00259365
-0.00256589
-0.00253841
-0.002511
-0.00248396
-0.00245722
-0.00243085
-0.00240494
-0.00237937
-0.00235428
-0.0023296
-0.00230534
-0.00228152
-0.00225815
-0.00223525
-0.00221288
-0.00219107
-0.00216985
-0.00214929
-0.0021294
-0.00211022
-0.00209177
-0.00207404
-0.00205703
-0.00204073
-0.0020251
-0.0020101
-0.0019957
-0.00198183
-0.00196846
-0.00195554
-0.001943
-0.00193081
-0.0019189
-0.00190725
-0.00189577
-0.00188444
-0.00187317
-0.00186193
-0.00185066
-0.00183929
-0.00182779
-0.0018161
-0.00180422
-0.0017921
-0.00177974
-0.00176715
-0.00175434
-0.00174133
-0.00172817
-0.00171485
-0.00170145
-0.00168797
-0.00167443
-0.00166086
-0.00164726
-0.0016336
-0.00161988
-0.00160606
-0.00159209
-0.00157795
-0.00156356
-0.00154889
-0.00153387
-0.00151845
-0.00150258
-0.00148623
-0.00146934
-0.00145186
-0.00143383
-0.00141514
-0.00139579
-0.00137584
-0.0013551
-0.00133373
-0.0013116
-0.00128876
-0.00126524
-0.00124102
-0.0012161
-0.00119064
-0.00116445
-0.001138
-0.00111095
-0.00108369
-0.00105635
-0.00102882
-0.00100169
-0.0009746
-0.000948204
-0.000922181
-0.000897062
-0.000872605
-0.000849114
-0.000826371
-0.000804677
-0.000782572
-0.000761346
-0.000739829
-0.000718007
-0.000695749
-0.000673223
-0.000650263
-0.00062751
-0.000605044
-0.000583057
-0.000561748
-0.000541129
-0.000521122
-0.000501618
-0.000482501
-0.000463651
-0.000444956
-0.000426321
-0.000407663
-0.000388921
-0.000370054
-0.000351041
-0.000331883
-0.000312596
-0.000293211
-0.000273768
-0.000254311
-0.000234883
-0.000215523
-0.000196262
-0.00017712
-0.000158108
-0.000139228
-0.000120471
-0.000101822
-8.32634e-05
-6.47732e-05
-4.63358e-05
-2.79502e-05
-9.5401e-06
-0.00375897
-0.00373915
-0.00372215
-0.00370821
-0.00369409
-0.00367932
-0.00366427
-0.00364893
-0.00363336
-0.00361757
-0.00360149
-0.00358518
-0.00356873
-0.0035521
-0.00353532
-0.00351842
-0.00350143
-0.00348437
-0.00346724
-0.00345008
-0.00343288
-0.00341567
-0.00339846
-0.00338126
-0.00336408
-0.00334695
-0.00332986
-0.00331284
-0.00329591
-0.00327909
-0.00326239
-0.00324585
-0.00322948
-0.00321346
-0.00319744
-0.00318127
-0.00316527
-0.00314929
-0.00313321
-0.00311712
-0.00310102
-0.00308525
-0.00306948
-0.00305349
-0.00303735
-0.00302094
-0.00300417
-0.00298702
-0.00296928
-0.00295089
-0.00293192
-0.00291221
-0.00289176
-0.00287046
-0.0028485
-0.00282575
-0.00280234
-0.00277836
-0.00275364
-0.00272869
-0.00270306
-0.00267721
-0.00265105
-0.00262459
-0.00259813
-0.00257145
-0.00254497
-0.00251844
-0.00249219
-0.00246613
-0.00244033
-0.00241492
-0.00238977
-0.00236502
-0.00234063
-0.00231657
-0.0022929
-0.00226963
-0.00224675
-0.00222432
-0.00220238
-0.00218097
-0.00216013
-0.00213991
-0.00212035
-0.00210147
-0.0020833
-0.00206582
-0.00204904
-0.00203293
-0.00201745
-0.00200256
-0.00198823
-0.00197437
-0.00196098
-0.00194794
-0.00193525
-0.00192281
-0.0019106
-0.00189853
-0.00188658
-0.00187467
-0.00186276
-0.0018508
-0.00183872
-0.00182653
-0.00181415
-0.0018016
-0.00178885
-0.00177591
-0.00176279
-0.00174952
-0.00173612
-0.00172264
-0.00170906
-0.00169547
-0.00168185
-0.00166821
-0.00165457
-0.00164089
-0.00162716
-0.00161335
-0.00159942
-0.00158532
-0.001571
-0.00155641
-0.00154149
-0.00152622
-0.00151052
-0.00149437
-0.00147774
-0.00146057
-0.00144283
-0.00142458
-0.0014057
-0.00138621
-0.00136614
-0.00134537
-0.00132402
-0.001302
-0.00127938
-0.00125616
-0.00123234
-0.00120795
-0.00118314
-0.00115773
-0.00113216
-0.0011061
-0.00107988
-0.00105362
-0.00102716
-0.00100107
-0.000974905
-0.000949374
-0.00092406
-0.000899575
-0.000875604
-0.000852534
-0.000830012
-0.000808678
-0.000786358
-0.000764859
-0.000742878
-0.000720366
-0.000697269
-0.000673965
-0.000650348
-0.000627223
-0.00060453
-0.000582382
-0.000560986
-0.00054033
-0.000520312
-0.000500809
-0.0004817
-0.000462862
-0.000444179
-0.000425555
-0.000406907
-0.000388173
-0.000369313
-0.000350308
-0.000331157
-0.000311877
-0.000292501
-0.000273073
-0.000253632
-0.000234225
-0.00021489
-0.00019566
-0.000176553
-0.000157582
-0.000138746
-0.000120038
-0.000101443
-8.29422e-05
-6.45159e-05
-4.6148e-05
-2.78306e-05
-9.5382e-06
-0.00376138
-0.00374128
-0.00372347
-0.00370873
-0.00369408
-0.00367893
-0.00366363
-0.00364824
-0.00363273
-0.00361702
-0.003601
-0.00358479
-0.00356852
-0.00355205
-0.00353541
-0.00351864
-0.00350179
-0.00348485
-0.00346783
-0.00345075
-0.00343363
-0.00341648
-0.00339932
-0.00338215
-0.00336499
-0.00334785
-0.00333075
-0.00331369
-0.00329668
-0.00327976
-0.00326292
-0.00324619
-0.00322956
-0.00321318
-0.00319676
-0.00318015
-0.00316372
-0.00314738
-0.00313102
-0.00311475
-0.00309856
-0.00308272
-0.00306683
-0.00305069
-0.00303434
-0.00301768
-0.00300064
-0.0029832
-0.00296516
-0.0029465
-0.00292731
-0.00290737
-0.00288678
-0.00286546
-0.00284357
-0.00282103
-0.00279795
-0.00277444
-0.00275039
-0.00272616
-0.00270146
-0.00267662
-0.00265155
-0.00262624
-0.00260093
-0.0025754
-0.00254999
-0.00252448
-0.00249914
-0.0024739
-0.00244879
-0.00242399
-0.00239934
-0.00237501
-0.00235096
-0.00232717
-0.00230369
-0.00228054
-0.00225772
-0.00223527
-0.00221324
-0.00219166
-0.00217059
-0.00215007
-0.00213015
-0.00211087
-0.00209226
-0.00207431
-0.00205706
-0.00204047
-0.00202451
-0.00200915
-0.00199434
-0.00198002
-0.00196615
-0.00195263
-0.00193945
-0.00192649
-0.00191375
-0.00190111
-0.00188858
-0.00187604
-0.00186349
-0.00185087
-0.00183813
-0.00182527
-0.00181225
-0.00179909
-0.00178577
-0.00177232
-0.00175876
-0.00174511
-0.0017314
-0.00171768
-0.00170392
-0.0016902
-0.00167647
-0.00166275
-0.00164902
-0.00163525
-0.00162141
-0.00160746
-0.00159335
-0.00157902
-0.00156444
-0.00154955
-0.00153432
-0.00151869
-0.00150264
-0.00148612
-0.00146914
-0.0014516
-0.00143355
-0.00141504
-0.00139591
-0.00137622
-0.00135599
-0.00133515
-0.00131379
-0.00129185
-0.00126939
-0.00124642
-0.00122296
-0.00119906
-0.00117481
-0.00115015
-0.00112536
-0.00110023
-0.001075
-0.00104978
-0.0010244
-0.000999355
-0.000974196
-0.000949578
-0.000925066
-0.00090126
-0.000877815
-0.000855152
-0.000832764
-0.000811584
-0.00078897
-0.000767188
-0.000744841
-0.0007218
-0.000698098
-0.000674311
-0.000650357
-0.000627102
-0.000604355
-0.000582162
-0.000560741
-0.000540072
-0.000520032
-0.000500495
-0.00048134
-0.000462448
-0.000443708
-0.000425024
-0.00040632
-0.000387537
-0.000368638
-0.000349606
-0.00033044
-0.00031116
-0.000291795
-0.000272396
-0.000252986
-0.000233618
-0.000214328
-0.000195146
-0.000176088
-0.000157165
-0.000138376
-0.000119713
-0.000101162
-8.27055e-05
-6.43251e-05
-4.60064e-05
-2.77333e-05
-9.53713e-06
-0.00376287
-0.00374274
-0.0037245
-0.00370927
-0.00369425
-0.00367884
-0.00366334
-0.00364786
-0.00363228
-0.00361655
-0.00360063
-0.00358458
-0.0035684
-0.00355205
-0.00353552
-0.00351888
-0.00350217
-0.00348534
-0.00346842
-0.00345144
-0.0034344
-0.00341732
-0.00340021
-0.00338309
-0.00336595
-0.00334882
-0.0033317
-0.0033146
-0.00329754
-0.00328052
-0.00326355
-0.00324665
-0.0032298
-0.00321312
-0.00319636
-0.00317943
-0.00316267
-0.00314604
-0.00312947
-0.00311303
-0.00309674
-0.00308075
-0.00306466
-0.00304831
-0.00303169
-0.00301473
-0.00299736
-0.00297956
-0.00296116
-0.00294228
-0.00292275
-0.00290251
-0.00288173
-0.00286034
-0.00283843
-0.002816
-0.00279315
-0.00276997
-0.00274642
-0.00272273
-0.00269876
-0.00267475
-0.00265059
-0.00262628
-0.002602
-0.00257756
-0.00255319
-0.00252872
-0.00250435
-0.00248001
-0.00245572
-0.00243163
-0.00240761
-0.0023838
-0.0023602
-0.00233677
-0.00231357
-0.00229062
-0.00226793
-0.00224554
-0.00222349
-0.00220181
-0.00218057
-0.00215982
-0.0021396
-0.00211996
-0.00210095
-0.00208257
-0.00206486
-0.00204781
-0.00203137
-0.00201554
-0.00200027
-0.00198547
-0.00197114
-0.00195714
-0.00194349
-0.00193003
-0.00191678
-0.00190359
-0.00189049
-0.00187737
-0.00186421
-0.00185097
-0.00183761
-0.00182416
-0.00181056
-0.00179687
-0.00178307
-0.0017692
-0.00175529
-0.00174135
-0.00172742
-0.00171352
-0.00169963
-0.00168579
-0.00167197
-0.00165814
-0.0016443
-0.00163039
-0.00161636
-0.00160218
-0.00158779
-0.00157315
-0.00155822
-0.00154295
-0.0015273
-0.00151125
-0.00149476
-0.00147783
-0.00146042
-0.00144249
-0.00142412
-0.00140527
-0.00138587
-0.00136596
-0.00134556
-0.00132464
-0.00130324
-0.00128137
-0.00125905
-0.00123631
-0.00121318
-0.0011897
-0.00116596
-0.00114195
-0.00111784
-0.00109355
-0.0010692
-0.0010449
-0.00102052
-0.000996442
-0.000972275
-0.000948547
-0.000924879
-0.000901771
-0.000878896
-0.000856648
-0.000834405
-0.000813266
-0.000790432
-0.000768366
-0.000745759
-0.000722398
-0.000698381
-0.000674422
-0.000650444
-0.000627272
-0.000604622
-0.000582491
-0.000561099
-0.000540424
-0.000520337
-0.000500716
-0.000481449
-0.000462427
-0.000443549
-0.000424728
-0.000405897
-0.000387003
-0.000368017
-0.000348922
-0.000329723
-0.000310436
-0.000291088
-0.000271728
-0.00025237
-0.000233065
-0.000213844
-0.00019473
-0.000175736
-0.000156871
-0.000138131
-0.000119508
-0.00010099
-8.25626e-05
-6.42077e-05
-4.59145e-05
-2.76605e-05
-9.53004e-06
-0.00376379
-0.00374376
-0.00372529
-0.00370973
-0.0036945
-0.00367892
-0.00366329
-0.00364771
-0.00363209
-0.00361636
-0.00360051
-0.00358452
-0.00356841
-0.00355215
-0.00353575
-0.00351923
-0.00350262
-0.00348587
-0.00346904
-0.00345217
-0.00343521
-0.00341819
-0.00340114
-0.00338406
-0.00336695
-0.00334984
-0.00333271
-0.00331559
-0.00329848
-0.00328139
-0.00326431
-0.00324726
-0.00323023
-0.0032133
-0.00319629
-0.00317913
-0.00316211
-0.00314524
-0.00312847
-0.00311186
-0.00309542
-0.00307922
-0.00306289
-0.00304627
-0.00302935
-0.00301204
-0.00299431
-0.00297612
-0.00295735
-0.00293815
-0.00291826
-0.00289778
-0.00287679
-0.00285528
-0.00283332
-0.00281095
-0.00278826
-0.00276532
-0.00274217
-0.00271886
-0.00269545
-0.0026721
-0.00264867
-0.00262516
-0.00260172
-0.00257824
-0.00255479
-0.00253127
-0.00250782
-0.0024844
-0.00246095
-0.00243762
-0.00241431
-0.00239114
-0.00236809
-0.00234512
-0.00232231
-0.00229967
-0.00227722
-0.00225499
-0.00223303
-0.00221136
-0.00219005
-0.00216915
-0.00214872
-0.00212881
-0.00210947
-0.00209071
-0.00207258
-0.00205509
-0.00203819
-0.0020219
-0.00200616
-0.00199089
-0.0019761
-0.00196163
-0.0019475
-0.00193355
-0.0019198
-0.00190609
-0.00189246
-0.00187877
-0.00186505
-0.00185125
-0.00183735
-0.00182337
-0.00180929
-0.00179515
-0.00178097
-0.00176678
-0.0017526
-0.00173845
-0.00172434
-0.0017103
-0.00169629
-0.00168234
-0.00166839
-0.00165441
-0.00164037
-0.00162622
-0.00161191
-0.0015974
-0.00158264
-0.00156758
-0.00155221
-0.00153647
-0.00152034
-0.00150381
-0.00148685
-0.00146944
-0.00145159
-0.00143332
-0.00141459
-0.00139537
-0.00137569
-0.00135558
-0.00133503
-0.00131404
-0.00129263
-0.00127082
-0.00124864
-0.00122613
-0.0012033
-0.0011802
-0.00115691
-0.00113348
-0.00110998
-0.0010864
-0.0010628
-0.00103927
-0.00101578
-0.000992552
-0.000969286
-0.000946359
-0.000923509
-0.00090107
-0.000878775
-0.00085695
-0.000834923
-0.000813784
-0.000790928
-0.000768644
-0.000745898
-0.000722441
-0.000698398
-0.000674537
-0.000650788
-0.000627846
-0.000605396
-0.000583402
-0.000562069
-0.000541377
-0.000521203
-0.000501437
-0.000481985
-0.000462755
-0.000443659
-0.000424626
-0.000405598
-0.000386536
-0.000367418
-0.000348232
-0.000328984
-0.000309688
-0.000290368
-0.000271048
-0.00025177
-0.000232554
-0.000213423
-0.000194396
-0.000175483
-0.000156683
-0.000137995
-0.00011941
-0.000100917
-8.25039e-05
-6.41564e-05
-4.58671e-05
-2.76103e-05
-9.5124e-06
-0.00376433
-0.00374442
-0.00372587
-0.00371009
-0.00369476
-0.0036791
-0.00366339
-0.00364776
-0.00363213
-0.00361641
-0.0036006
-0.00358466
-0.00356861
-0.00355243
-0.00353612
-0.00351969
-0.00350315
-0.0034865
-0.00346977
-0.00345295
-0.00343606
-0.00341912
-0.00340212
-0.00338508
-0.003368
-0.00335091
-0.00333379
-0.00331665
-0.00329951
-0.00328235
-0.00326519
-0.00324803
-0.00323086
-0.00321373
-0.00319651
-0.00317918
-0.00316196
-0.00314488
-0.00312791
-0.00311112
-0.00309449
-0.00307804
-0.00306142
-0.0030445
-0.00302723
-0.00300956
-0.00299145
-0.00297287
-0.00295376
-0.00293415
-0.00291396
-0.00289324
-0.00287205
-0.00285042
-0.00282841
-0.00280608
-0.00278351
-0.00276076
-0.00273789
-0.00271495
-0.00269202
-0.00266915
-0.00264626
-0.00262336
-0.00260061
-0.00257791
-0.00255521
-0.00253251
-0.00250989
-0.0024873
-0.00246468
-0.00244207
-0.00241949
-0.00239701
-0.00237459
-0.00235218
-0.00232985
-0.00230762
-0.00228551
-0.00226357
-0.00224182
-0.00222028
-0.00219902
-0.0021781
-0.00215756
-0.00213748
-0.0021179
-0.00209884
-0.00208037
-0.00206248
-0.00204516
-0.00202842
-0.00201223
-0.00199649
-0.00198123
-0.00196628
-0.00195167
-0.00193724
-0.001923
-0.00190878
-0.00189464
-0.00188045
-0.00186622
-0.00185193
-0.00183755
-0.00182313
-0.00180865
-0.00179417
-0.0017797
-0.00176526
-0.00175088
-0.00173656
-0.00172231
-0.00170813
-0.00169398
-0.00167985
-0.00166569
-0.00165145
-0.00163712
-0.00162262
-0.00160792
-0.00159297
-0.00157772
-0.00156216
-0.00154627
-0.00153001
-0.00151335
-0.0014963
-0.00147885
-0.00146098
-0.0014427
-0.00142407
-0.00140496
-0.00138544
-0.00136554
-0.00134526
-0.00132459
-0.00130355
-0.00128216
-0.00126043
-0.00123841
-0.00121611
-0.00119358
-0.00117086
-0.00114799
-0.00112505
-0.00110208
-0.00107913
-0.00105614
-0.00103326
-0.00101054
-0.000988043
-0.000965547
-0.000943305
-0.000921206
-0.000899374
-0.000877628
-0.000856226
-0.000834506
-0.000813377
-0.000790717
-0.000768344
-0.000745616
-0.00072227
-0.000698442
-0.000674879
-0.000651524
-0.000628895
-0.000606693
-0.00058487
-0.000563594
-0.000542853
-0.000522539
-0.000502565
-0.000482858
-0.000463347
-0.000443962
-0.000424648
-0.000405365
-0.000386088
-0.000366802
-0.000347503
-0.000328197
-0.000308894
-0.000289612
-0.000270356
-0.000251173
-0.000232061
-0.000213037
-0.000194113
-0.000175293
-0.000156569
-0.000137935
-0.000119386
-0.000100911
-8.25028e-05
-6.415e-05
-4.58493e-05
-2.75744e-05
-9.47979e-06
-0.00376459
-0.00374479
-0.00372623
-0.00371037
-0.003695
-0.00367932
-0.00366361
-0.00364798
-0.00363235
-0.00361667
-0.00360089
-0.00358501
-0.00356901
-0.0035529
-0.00353666
-0.00352029
-0.00350382
-0.00348724
-0.00347057
-0.00345382
-0.00343699
-0.0034201
-0.00340315
-0.00338615
-0.00336911
-0.00335203
-0.00333492
-0.00331778
-0.00330061
-0.00328341
-0.00326618
-0.00324893
-0.00323165
-0.00321436
-0.003197
-0.00317953
-0.00316214
-0.00314487
-0.00312772
-0.00311072
-0.00309387
-0.00307712
-0.00306019
-0.00304293
-0.00302531
-0.00300725
-0.00298876
-0.00296979
-0.00295031
-0.00293035
-0.00290987
-0.00288892
-0.00286755
-0.00284582
-0.00282378
-0.0028015
-0.00277905
-0.00275648
-0.00273387
-0.00271124
-0.00268869
-0.00266619
-0.00264372
-0.00262135
-0.00259919
-0.00257711
-0.00255503
-0.00253301
-0.00251105
-0.00248917
-0.00246725
-0.00244528
-0.00242338
-0.0024016
-0.00237985
-0.00235806
-0.00233626
-0.00231451
-0.00229283
-0.0022713
-0.00224988
-0.00222861
-0.00220752
-0.00218669
-0.00216617
-0.00214603
-0.00212633
-0.00210707
-0.00208834
-0.00207013
-0.00205245
-0.00203529
-0.00201866
-0.00200246
-0.00198673
-0.0019713
-0.00195621
-0.0019413
-0.00192657
-0.00191188
-0.00189726
-0.0018826
-0.00186793
-0.00185321
-0.00183844
-0.00182367
-0.00180889
-0.00179414
-0.00177945
-0.00176481
-0.00175025
-0.00173576
-0.00172134
-0.00170697
-0.0016926
-0.00167822
-0.00166373
-0.00164912
-0.00163435
-0.00161938
-0.00160416
-0.00158866
-0.00157284
-0.00155673
-0.00154028
-0.00152345
-0.00150625
-0.00148868
-0.00147075
-0.00145244
-0.00143377
-0.00141476
-0.00139535
-0.00137559
-0.00135551
-0.0013351
-0.00131436
-0.00129331
-0.00127198
-0.00125037
-0.00122853
-0.00120647
-0.00118423
-0.00116186
-0.0011394
-0.0011169
-0.00109439
-0.00107194
-0.00104953
-0.00102726
-0.00100519
-0.000983283
-0.000961382
-0.000939717
-0.000918297
-0.000896988
-0.000875737
-0.000854761
-0.000833437
-0.000812368
-0.000790072
-0.000767757
-0.000745228
-0.000722131
-0.000698722
-0.000675582
-0.000652697
-0.0006304
-0.00060845
-0.000586802
-0.000565569
-0.000544729
-0.00052421
-0.000503963
-0.00048394
-0.000464089
-0.000444358
-0.000424712
-0.000405131
-0.000385606
-0.000366126
-0.000346697
-0.000327326
-0.000308019
-0.000288789
-0.000269637
-0.000250566
-0.000231576
-0.000212665
-0.000193844
-0.000175121
-0.000156475
-0.000137898
-0.000119384
-0.000100926
-8.25182e-05
-6.41549e-05
-4.58359e-05
-2.75381e-05
-9.42709e-06
-0.00376462
-0.00374488
-0.00372637
-0.00371055
-0.00369522
-0.00367958
-0.00366391
-0.00364833
-0.00363275
-0.00361712
-0.00360139
-0.00358556
-0.00356961
-0.00355355
-0.00353736
-0.00352105
-0.00350463
-0.00348811
-0.00347149
-0.00345479
-0.003438
-0.00342115
-0.00340424
-0.00338728
-0.00337027
-0.00335321
-0.00333611
-0.00331896
-0.00330178
-0.00328457
-0.00326728
-0.00324994
-0.00323258
-0.00321518
-0.0031977
-0.00318013
-0.00316259
-0.00314514
-0.0031278
-0.00311058
-0.00309347
-0.00307641
-0.00305914
-0.00304153
-0.00302352
-0.00300508
-0.0029862
-0.00296685
-0.00294703
-0.00292674
-0.00290599
-0.00288485
-0.00286334
-0.00284155
-0.00281951
-0.0027973
-0.00277498
-0.0027526
-0.00273025
-0.00270789
-0.00268567
-0.00266352
-0.00264148
-0.00261956
-0.0025978
-0.00257617
-0.0025546
-0.00253311
-0.0025117
-0.00249045
-0.00246919
-0.00244782
-0.0024265
-0.00240531
-0.0023842
-0.00236301
-0.00234172
-0.00232048
-0.00229935
-0.00227827
-0.00225725
-0.00223638
-0.00221559
-0.00219496
-0.00217455
-0.00215449
-0.00213478
-0.00211544
-0.00209654
-0.0020781
-0.00206012
-0.00204261
-0.00202557
-0.00200894
-0.00199275
-0.00197686
-0.00196129
-0.0019459
-0.00193071
-0.00191556
-0.00190051
-0.00188543
-0.00187037
-0.00185529
-0.0018402
-0.00182514
-0.00181011
-0.00179515
-0.00178027
-0.00176546
-0.0017507
-0.00173597
-0.00172128
-0.0017066
-0.00169187
-0.00167708
-0.00166219
-0.00164712
-0.00163181
-0.00161625
-0.00160041
-0.00158429
-0.00156787
-0.00155114
-0.0015341
-0.00151671
-0.00149898
-0.00148093
-0.00146255
-0.00144385
-0.00142483
-0.0014055
-0.00138586
-0.00136592
-0.00134571
-0.00132522
-0.00130446
-0.00128346
-0.00126222
-0.00124076
-0.00121912
-0.00119731
-0.00117538
-0.00115335
-0.00113127
-0.00110919
-0.00108712
-0.00106513
-0.00104324
-0.00102148
-0.000999912
-0.000978435
-0.000957077
-0.000936006
-0.000915179
-0.000894297
-0.000873473
-0.000852873
-0.000831987
-0.000811031
-0.000789208
-0.000767141
-0.00074485
-0.000722174
-0.000699307
-0.000676646
-0.000654243
-0.000632235
-0.000610483
-0.000589017
-0.000567846
-0.000546868
-0.000526062
-0.000505466
-0.000485079
-0.000464852
-0.000444742
-0.000424732
-0.000404828
-0.000385042
-0.000365373
-0.000345823
-0.000326397
-0.000307091
-0.000287902
-0.000268822
-0.000249856
-0.000231006
-0.000212251
-0.000193564
-0.000174929
-0.000156346
-0.00013782
-0.000119342
-0.000100902
-8.2498e-05
-6.41281e-05
-4.5795e-05
-2.74817e-05
-9.35009e-06
-0.00376441
-0.00374469
-0.00372629
-0.00371063
-0.00369541
-0.00367988
-0.00366431
-0.00364882
-0.00363333
-0.00361776
-0.00360209
-0.00358631
-0.00357041
-0.00355439
-0.00353824
-0.00352197
-0.00350559
-0.00348911
-0.00347252
-0.00345585
-0.00343911
-0.00342229
-0.00340541
-0.00338848
-0.00337149
-0.00335445
-0.00333736
-0.00332022
-0.00330302
-0.00328578
-0.00326846
-0.00325109
-0.00323365
-0.00321614
-0.00319855
-0.00318091
-0.00316325
-0.00314563
-0.00312808
-0.00311062
-0.00309324
-0.00307583
-0.00305823
-0.00304025
-0.00302185
-0.00300302
-0.00298376
-0.00296405
-0.0029439
-0.00292333
-0.00290236
-0.00288106
-0.00285946
-0.00283765
-0.00281565
-0.00279355
-0.0027714
-0.00274922
-0.00272712
-0.00270503
-0.00268312
-0.00266128
-0.0026396
-0.00261805
-0.00259666
-0.00257543
-0.00255431
-0.0025333
-0.00251235
-0.0024915
-0.00247071
-0.00244991
-0.00242915
-0.00240851
-0.00238795
-0.00236727
-0.00234652
-0.00232583
-0.00230523
-0.00228461
-0.00226405
-0.00224359
-0.0022232
-0.00220287
-0.00218267
-0.00216278
-0.00214318
-0.00212387
-0.00210491
-0.00208635
-0.00206816
-0.00205036
-0.00203296
-0.00201595
-0.00199933
-0.00198301
-0.00196698
-0.00195114
-0.00193549
-0.00191992
-0.00190447
-0.00188903
-0.00187364
-0.00185825
-0.00184288
-0.00182755
-0.00181228
-0.00179709
-0.00178195
-0.00176689
-0.00175196
-0.00173698
-0.00172187
-0.00170674
-0.00169155
-0.00167622
-0.00166073
-0.00164504
-0.00162912
-0.00161293
-0.00159643
-0.00157965
-0.00156261
-0.00154529
-0.00152767
-0.00150975
-0.00149154
-0.00147305
-0.00145428
-0.00143524
-0.00141594
-0.00139637
-0.00137656
-0.0013565
-0.00133622
-0.00131571
-0.00129498
-0.00127406
-0.00125296
-0.00123169
-0.00121028
-0.00118874
-0.00116712
-0.00114544
-0.00112373
-0.00110204
-0.00108038
-0.00105882
-0.00103738
-0.00101605
-0.000994934
-0.000973898
-0.000953069
-0.00093241
-0.00091196
-0.000891476
-0.000871074
-0.000850819
-0.000830462
-0.000809742
-0.000788408
-0.000766676
-0.000744638
-0.000722485
-0.000700171
-0.000677978
-0.000656042
-0.000634335
-0.00061275
-0.000591334
-0.000570079
-0.000548923
-0.000527857
-0.000506907
-0.000486122
-0.000465502
-0.000445001
-0.000424617
-0.000404387
-0.000384351
-0.000364502
-0.000344842
-0.000325373
-0.000306079
-0.000286945
-0.000267957
-0.000249104
-0.000230368
-0.000211723
-0.000193143
-0.000174609
-0.000156112
-0.000137649
-0.00011921
-0.000100794
-8.24016e-05
-6.40359e-05
-4.57013e-05