/*--------------------------------*- C++ -*----------------------------------*\
| =========                 |                                                 |
| \\      /  F ield         | OpenFOAM: The Open Source CFD Toolbox           |
|  \\    /   O peration     | Version:  2506                                  |
|   \\  /    A nd           | Website:  www.openfoam.com                      |
|    \\/     M anipulation  |                                                 |
\*---------------------------------------------------------------------------*/
FoamFile
{
    version     2.0;
    format      ascii;
    arch        "LSB;label=32;scalar=64";
    class       volVectorField;
    location    "4.45";
    object      vorticityField;
}
// * * * * * * * * * * * * * * * * * * * * * * * * * * * * * * * * * * * * * //

dimensions      [0 0 -1 0 0 0 0];

internalField   nonuniform List<vector> 
4000
(
(3.72039e-19 1.50951e-19 30.8064)
(1.4498e-20 7.12151e-20 33.3355)
(1.85357e-19 5.46993e-19 28.027)
(2.15033e-19 7.55329e-19 22.9705)
(-3.95243e-20 8.81366e-19 19.6016)
(2.39324e-20 4.62667e-21 17.2042)
(9.10307e-20 1.03217e-18 15.3557)
(2.61452e-20 1.09003e-18 13.9076)
(-5.8274e-21 1.51963e-21 12.7572)
(-4.42416e-21 2.92735e-21 11.823)
(4.43e-20 2.40225e-17 11.0505)
(-6.27554e-20 -4.56893e-17 10.4035)
(1.83738e-20 2.16248e-17 9.85664)
(-1.19472e-20 -2.30715e-17 9.39164)
(1.01522e-20 2.29739e-17 8.99483)
(1.04078e-20 1.26152e-18 8.6559)
(-9.14939e-21 2.30532e-17 8.36678)
(2.2565e-20 -2.29739e-17 8.12092)
(3.14887e-20 1.27875e-18 7.91281)
(-3.75e-20 -1.19748e-21 7.7376)
(3.82275e-21 -2.2409e-21 7.59079)
(9.28446e-20 -1.2656e-18 7.468)
(-9.24214e-20 -1.25881e-18 7.36465)
(-1.24214e-19 -1.66882e-21 7.27576)
(1.28942e-19 -1.25799e-18 7.19554)
(7.03276e-21 -1.24658e-18 7.11699)
(1.91264e-19 5.28254e-21 7.0312)
(-2.39422e-20 1.86036e-19 6.92671)
(-5.26277e-19 4.43817e-17 6.788)
(1.56706e-19 -4.58127e-17 6.571)
(2.0936e-19 3.31855e-21 6.21309)
(-2.49695e-19 -9.21592e-17 5.98961)
(3.07566e-18 1.23317e-16 6.22997)
(8.93132e-18 -4.12273e-17 6.98337)
(1.1468e-17 -9.54473e-17 8.18718)
(4.69166e-17 7.47817e-16 9.82642)
(3.11512e-17 -5.96448e-17 11.6967)
(-4.51886e-17 -1.19885e-16 14.7613)
(-2.56215e-20 -2.87949e-18 19.5194)
(2.24887e-17 4.77603e-17 24.7085)
(-2.56425e-17 -5.75343e-17 29.7023)
(1.49172e-16 4.72326e-16 34.1758)
(-2.88492e-19 1.69672e-18 38.003)
(3.14233e-16 2.83542e-16 41.136)
(-1.47133e-16 -1.13794e-16 43.5644)
(3.4258e-19 3.33184e-16 45.3234)
(1.67872e-18 7.75324e-18 46.3839)
(-2.64372e-18 -3.41914e-16 46.8784)
(-2.10128e-16 -1.91411e-16 46.9248)
(-1.61818e-16 -1.38461e-16 46.6377)
(-2.80652e-18 -5.0277e-18 46.1015)
(3.32389e-19 5.83257e-19 45.1125)
(-1.08493e-17 -2.21526e-17 44.0521)
(3.7431e-18 3.23106e-16 42.5284)
(-9.28665e-17 2.14075e-16 40.4911)
(5.25142e-18 -2.82218e-16 37.4468)
(-3.57765e-17 -8.71078e-17 33.414)
(8.80064e-18 3.65453e-17 28.1206)
(5.95789e-20 -2.55586e-19 21.8169)
(8.68783e-19 -3.43152e-17 15.4839)
(2.24095e-18 -9.27777e-17 10.0105)
(6.41859e-18 3.82252e-17 5.89805)
(-2.59703e-18 3.45218e-16 3.16181)
(4.79903e-18 -3.51412e-16 1.55569)
(-4.14462e-20 8.08009e-19 0.67163)
(-7.70976e-20 6.74617e-20 0.258003)
(2.6414e-21 -2.37425e-20 0.0864567)
(5.2489e-20 -4.80258e-17 0.0237333)
(-2.24503e-20 -7.13149e-16 0.00683327)
(2.61459e-19 -3.77601e-16 0.00377868)
(-6.69507e-21 2.82489e-19 0.0045816)
(-2.61018e-19 3.21515e-16 0.00547051)
(-2.32355e-21 -3.14713e-16 0.00547717)
(-1.26146e-19 -4.336e-17 0.00467593)
(-1.1959e-19 3.40564e-16 0.00320567)
(1.16888e-19 -2.88847e-16 0.00140196)
(2.41902e-19 -3.18108e-16 -0.000545246)
(-2.6398e-20 -3.04234e-16 -0.00246731)
(-1.13627e-20 1.48484e-19 -0.00428543)
(-1.12862e-19 1.09019e-19 -0.00590551)
(1.03915e-19 8.24722e-18 -0.00737954)
(-8.82448e-20 2.39479e-16 -0.00870877)
(3.44705e-21 -2.07809e-19 -0.010044)
(8.06547e-20 -2.11519e-16 -0.0114389)
(1.04199e-20 1.99557e-16 -0.0131464)
(-1.09537e-21 -8.61363e-20 -0.0154241)
(4.91734e-21 3.5506e-21 -0.0188549)
(-9.62161e-21 1.01109e-17 -0.0240083)
(-8.45702e-21 3.49624e-17 -0.0310708)
(-4.42885e-20 -8.49217e-17 -0.0404032)
(1.23463e-22 3.33074e-20 -0.0494985)
(-1.35439e-19 3.38606e-19 -0.0561344)
(-1.68721e-20 -1.43716e-17 -0.0510342)
(1.25171e-20 -1.71758e-20 -0.0236775)
(2.28534e-20 2.57773e-16 0.0410358)
(3.54062e-19 2.6995e-16 0.151563)
(-3.39309e-20 2.76759e-16 0.299604)
(6.61161e-21 1.85981e-17 0.470078)
(2.56236e-18 2.97945e-16 0.614427)
(2.80413e-18 3.2393e-16 0.631857)
(-3.2364e-20 -4.91313e-18 0.492302)
(-6.4325e-19 3.43896e-16 0.177917)
(-1.60734e-18 6.93102e-16 -0.311213)
(-1.69192e-19 1.57885e-17 -0.874856)
(-5.54329e-18 3.58233e-16 -1.43758)
(4.05846e-20 1.27527e-18 -1.78698)
(8.32526e-18 -3.71846e-16 -1.76642)
(6.67972e-18 -3.47197e-16 -1.31301)
(1.82016e-18 -2.30958e-17 -0.437679)
(1.82463e-18 3.43062e-18 0.835253)
(-6.94316e-18 -3.40796e-16 2.44246)
(8.86862e-18 3.1635e-16 4.12263)
(8.33554e-20 -2.31781e-19 5.80296)
(1.52495e-17 6.0175e-16 7.13829)
(6.10602e-20 1.38749e-16 8.00252)
(5.10854e-18 2.93494e-16 8.14429)
(2.09816e-20 2.14456e-19 7.40335)
(-8.89274e-20 7.3058e-17 5.98518)
(1.10122e-19 -9.18757e-18 4.29915)
(-3.57449e-20 -9.25717e-20 2.7226)
(-9.71272e-20 9.39784e-18 1.54474)
(1.86518e-18 -3.33853e-16 0.78347)
(-3.55612e-19 3.47942e-16 0.347824)
(3.83113e-21 2.13943e-17 0.128344)
(-1.62902e-19 3.27081e-16 0.0330665)
(1.11072e-19 -6.817e-16 0.000414218)
(-1.54591e-19 3.3118e-16 -0.00611876)
(-8.47872e-20 -3.73902e-16 -0.00392327)
(-1.0388e-19 1.24412e-19 -6.11341e-06)
(1.67781e-20 -3.22595e-16 0.0038116)
(1.75348e-21 1.12205e-19 0.00652674)
(-9.23809e-20 3.31067e-16 0.00780572)
(7.29182e-20 -4.04667e-17 0.00790792)
(-6.277e-20 3.52318e-16 0.00711011)
(-4.23328e-20 -2.28039e-20 0.00571442)
(-5.76182e-21 -5.46296e-20 0.00392603)
(4.75298e-20 -2.80018e-16 0.00196988)
(-3.39389e-20 2.67958e-16 -8.96555e-05)
(4.65278e-21 -5.93674e-20 -0.00219356)
(3.51794e-20 1.44312e-20 -0.00428604)
(-2.39281e-20 2.28754e-16 -0.00644352)
(1.95202e-21 -5.37827e-17 -0.00859036)
(-6.88703e-21 2.54923e-16 -0.0109337)
(5.84198e-21 -5.53249e-20 -0.0135584)
(-1.98138e-20 -1.39567e-16 -0.0168696)
(3.83469e-22 -9.13623e-17 -0.0210373)
(3.59906e-21 6.91332e-17 -0.0266445)
(-1.18045e-21 -4.78027e-17 -0.0334475)
(8.4708e-21 -7.77424e-21 -0.0378585)
(-7.29124e-22 5.3791e-17 -0.0379243)
(3.37307e-20 1.93778e-19 -0.0191297)
(-1.82744e-19 -3.69129e-16 0.0324225)
(4.22405e-20 6.51052e-17 0.139531)
(-6.883e-19 2.70602e-18 0.324763)
(-3.63772e-19 2.21082e-16 0.598632)
(6.84384e-19 7.65835e-17 0.943406)
(4.30705e-20 1.16017e-19 1.32307)
(4.63073e-19 5.08417e-19 1.67848)
(-4.40363e-19 -1.80646e-18 1.90162)
(-7.53402e-18 -7.16245e-16 1.91189)
(1.54059e-18 9.52844e-17 1.68111)
(4.42562e-18 3.90269e-16 1.217)
(-2.03017e-18 3.03392e-16 0.616068)
(-2.24308e-19 -1.45356e-18 -0.108223)
(1.05109e-18 -3.06878e-16 -0.548275)
(1.95576e-18 -5.20033e-16 -0.669567)
(2.00875e-19 3.30714e-19 -0.50611)
(3.25975e-19 -6.8886e-17 -0.132398)
(6.84924e-19 -1.95243e-16 0.355649)
(5.81208e-20 -6.26019e-17 0.809662)
(2.22232e-19 9.72919e-20 1.13333)
(2.43592e-21 -9.35863e-19 1.38637)
(4.02225e-19 -3.39961e-22 1.63067)
(-3.88413e-19 -9.25074e-19 1.87351)
(-7.98231e-20 -1.32953e-18 2.11323)
(2.67924e-20 -5.95157e-17 2.35336)
(-5.53534e-19 6.04311e-17 2.59896)
(-1.41441e-19 2.84099e-17 2.85383)
(7.36226e-19 -2.98277e-17 3.12017)
(-1.92018e-20 2.73647e-17 3.39938)
(5.08891e-19 -5.78819e-17 3.6922)
(-3.80093e-19 2.82654e-17 3.99822)
(-7.0681e-19 -3.87259e-19 4.31633)
(7.09194e-19 -8.07212e-19 4.64538)
(-5.8863e-20 1.87399e-19 4.98495)
(1.6687e-18 -2.75288e-17 5.33586)
(-1.72362e-18 2.63272e-17 5.70075)
(1.97374e-18 -2.6697e-17 6.08456)
(-2.00564e-18 2.62313e-17 6.49506)
(1.06255e-18 -1.41951e-17 6.94383)
(-1.12477e-18 1.27769e-17 7.44819)
(6.45975e-20 -1.17083e-18 8.03514)
(-8.65803e-20 -6.78899e-19 8.74905)
(-8.53054e-19 -9.65242e-21 9.66683)
(9.76363e-19 -7.01346e-19 10.9273)
(-1.1388e-19 -1.10811e-18 12.788)
(7.93607e-19 -5.0914e-18 15.7719)
(-6.49883e-19 6.10153e-18 21.0434)
(-7.10157e-21 -6.6664e-19 29.0462)
(-1.77093e-20 -4.81461e-20 28.8183)
(-3.54005e-21 -2.05662e-19 -2.18481)
(3.05447e-19 -1.30281e-19 10.0396)
(-1.49807e-19 -6.14066e-19 12.9916)
(1.15045e-18 1.60042e-18 13.4405)
(-1.93914e-18 -7.34714e-18 13.1034)
(3.47135e-19 -1.01695e-18 12.4804)
(6.52426e-19 4.50065e-18 11.7919)
(-2.28914e-19 -2.27429e-18 11.1326)
(-1.55928e-19 -1.35808e-18 10.5317)
(-1.16262e-19 -1.46303e-18 9.99337)
(-1.23853e-19 -2.73853e-18 9.51476)
(-4.92395e-19 -1.77925e-17 9.09062)
(3.96079e-19 1.72977e-17 8.71523)
(-2.52716e-19 -1.68551e-17 8.38318)
(4.60476e-19 3.21055e-17 8.08966)
(-4.99207e-19 -3.7453e-17 7.83054)
(1.71888e-19 1.53769e-17 7.60225)
(-1.94892e-19 -1.95234e-17 7.40165)
(-1.67272e-19 -2.09853e-17 7.22597)
(2.36878e-19 3.33328e-17 7.07262)
(-1.23313e-20 -2.05117e-18 6.93913)
(-1.80344e-19 -3.61439e-17 6.823)
(2.16464e-19 3.68853e-17 6.72157)
(7.00883e-21 3.33548e-17 6.63188)
(-2.44488e-19 -3.42121e-17 6.55053)
(1.14284e-19 -7.45637e-19 6.47337)
(3.85598e-20 -3.53416e-17 6.39529)
(-3.13271e-19 2.37934e-18 6.30972)
(7.35597e-19 7.06063e-17 6.20751)
(8.18895e-20 9.90613e-19 6.07468)
(-4.77468e-19 -3.55335e-17 5.88977)
(-1.60124e-18 -3.53231e-17 5.64412)
(-6.03437e-18 -1.06186e-16 5.42814)
(-1.67433e-17 -2.18989e-16 5.24694)
(-1.43636e-17 -1.56114e-16 5.05336)
(-1.60992e-17 -1.96312e-16 4.81967)
(2.81831e-17 -6.34248e-18 4.59615)
(4.0999e-17 1.32703e-16 4.57641)
(-2.59447e-17 -3.11328e-17 4.78633)
(-1.01784e-16 -9.10228e-17 5.14992)
(-1.50837e-16 -1.22298e-16 5.76298)
(-1.50357e-16 -1.72723e-16 6.55871)
(-1.91856e-18 7.73919e-19 7.41902)
(-3.56271e-16 -3.37399e-16 8.28558)
(1.87274e-16 1.6377e-16 9.12384)
(-2.60408e-16 -1.43447e-16 9.91243)
(2.59454e-16 1.34636e-16 10.6115)
(1.20669e-19 3.09944e-18 11.2353)
(-3.96269e-17 4.52605e-17 11.7838)
(1.83188e-16 1.65339e-16 12.2971)
(-2.36116e-16 -1.15301e-16 12.7138)
(2.42482e-17 7.95287e-18 13.086)
(2.01775e-16 9.66363e-17 13.4968)
(-4.06135e-17 -2.35223e-17 13.935)
(1.27117e-16 1.36181e-16 14.4631)
(3.36511e-20 1.75726e-18 15.0617)
(3.73944e-17 7.66892e-17 15.6659)
(-1.64649e-17 -4.80321e-17 16.0296)
(-2.29956e-18 -6.08126e-18 15.6889)
(-4.23691e-19 2.49264e-17 14.2119)
(-4.22928e-18 1.04729e-16 11.7264)
(-7.00813e-18 2.60337e-16 8.70484)
(-1.17868e-17 3.1868e-16 5.84576)
(-4.56073e-18 3.46031e-16 3.63416)
(-1.35884e-19 -4.52787e-17 2.0909)
(9.95805e-20 4.53597e-17 1.1171)
(9.62433e-21 -7.95563e-20 0.558583)
(-6.54366e-20 4.62289e-19 0.265164)
(-4.9198e-19 7.50479e-16 0.124543)
(-1.35981e-19 -3.72855e-16 0.060273)
(-2.77767e-20 -4.57191e-17 0.0323311)
(8.32792e-20 4.53756e-16 0.0199993)
(-1.80503e-19 3.11239e-16 0.0139636)
(-1.38592e-19 3.90371e-16 0.0101526)
(2.22123e-19 -5.10755e-19 0.00710174)
(2.8197e-20 -2.0624e-17 0.00435646)
(-3.54203e-19 -3.54103e-16 0.00171044)
(-9.51178e-20 3.0252e-16 -0.000771808)
(9.05372e-21 1.80691e-17 -0.0030223)
(2.60988e-19 2.84174e-16 -0.00516039)
(-2.63344e-19 -2.70244e-16 -0.00708385)
(8.20338e-20 7.24869e-20 -0.00876861)
(7.98558e-23 -5.31712e-23 -0.0103897)
(-7.68737e-20 -6.22921e-20 -0.0118416)
(-1.02166e-19 -2.12885e-16 -0.0133308)
(1.69182e-22 6.19392e-18 -0.0145405)
(1.66725e-20 -1.17728e-17 -0.0152754)
(8.89299e-21 1.23255e-17 -0.0141971)
(2.30351e-20 -1.16635e-17 -0.00896865)
(5.15898e-20 2.06864e-16 0.00346055)
(1.31717e-20 -1.28466e-17 0.0222146)
(-1.6256e-20 1.34184e-17 0.0445258)
(-3.5176e-19 2.28803e-16 0.0638017)
(3.99903e-19 -2.5797e-16 0.069949)
(-3.09111e-19 2.71154e-16 0.0507688)
(-3.37438e-19 -2.68535e-16 0.00658575)
(1.14245e-18 2.72552e-16 -0.0595834)
(2.24292e-18 3.02616e-16 -0.121532)
(-2.53329e-18 -3.10102e-16 -0.156797)
(-2.68191e-18 -3.11554e-16 -0.176444)
(-6.50065e-21 5.96184e-19 -0.170465)
(1.22584e-18 3.43256e-16 -0.108296)
(1.93722e-18 -3.4961e-16 -0.0244045)
(1.06634e-19 1.17184e-17 0.105952)
(-4.80177e-19 -1.25316e-17 0.284007)
(-6.94687e-20 -2.05702e-18 0.479796)
(-1.41981e-17 7.31413e-16 0.723376)
(-8.42465e-18 7.49287e-16 1.04466)
(1.75118e-18 3.48658e-16 1.40532)
(4.53147e-18 3.1129e-16 1.78057)
(9.28804e-18 3.43746e-16 2.18539)
(-2.72723e-17 -6.3475e-16 2.60869)
(7.8555e-19 1.61751e-17 3.05813)
(-1.84935e-17 -2.99625e-16 3.49648)
(1.47487e-18 3.07273e-17 3.94676)
(-4.9265e-18 -1.27978e-16 4.38919)
(-5.90737e-19 -1.5052e-17 4.73782)
(-7.76857e-19 -5.92278e-17 4.77559)
(6.14461e-20 -8.27954e-18 4.37114)
(-6.74221e-20 8.66809e-18 3.53715)
(9.68195e-21 4.30489e-19 2.53615)
(-2.37061e-18 3.24302e-16 1.64381)
(2.82535e-19 9.69215e-18 0.971037)
(8.49989e-20 -3.23079e-17 0.525008)
(4.84183e-19 -3.26453e-16 0.261106)
(-3.72968e-19 3.50962e-16 0.121733)
(6.24154e-20 3.50805e-16 0.0551285)
(-9.17241e-20 7.00013e-16 0.0268308)
(-9.33694e-20 6.93391e-16 0.0165454)
(-1.59754e-20 2.99172e-16 0.013539)
(-1.02082e-20 4.20209e-17 0.0130878)
(-1.17266e-20 3.28574e-16 0.0130658)
(1.24575e-19 -6.41109e-16 0.0126968)
(5.43442e-20 7.78823e-17 0.0117458)
(-5.22971e-20 2.25572e-16 0.0102799)
(-1.65095e-20 -3.30329e-20 0.00847425)
(6.1131e-21 -3.22031e-21 0.00647638)
(1.16722e-19 -1.73027e-19 0.00432767)
(-9.71672e-21 -6.33376e-17 0.00218229)
(-6.01728e-20 -1.80472e-16 0.000114478)
(-2.39525e-20 -5.70426e-17 -0.00173287)
(2.80252e-21 2.20778e-20 -0.00345225)
(1.15863e-19 1.02108e-16 -0.00487985)
(-1.95602e-20 -9.69976e-17 -0.00561022)
(1.40011e-20 1.40377e-16 -0.0050482)
(-1.09415e-20 -1.50337e-20 -0.00189027)
(2.00564e-20 4.6406e-17 0.0058782)
(-1.90267e-20 -4.81085e-17 0.0219678)
(-2.53544e-20 1.01137e-16 0.0485488)
(-5.49123e-20 -1.73775e-20 0.0852107)
(2.14103e-20 1.33291e-20 0.12247)
(1.37954e-19 1.01802e-19 0.151529)
(-1.32022e-19 -5.17424e-19 0.160716)
(2.70016e-18 6.14815e-16 0.150386)
(1.33776e-18 1.42251e-16 0.115649)
(9.09422e-19 7.47272e-17 0.0799066)
(-1.72739e-18 -7.82514e-17 0.0643012)
(-1.45559e-17 -4.89241e-16 0.0824219)
(5.11474e-18 1.71523e-16 0.103298)
(7.16383e-18 3.47535e-16 0.13468)
(-1.0478e-19 -2.84591e-18 0.172265)
(-2.32827e-18 -2.83433e-16 0.206108)
(1.17013e-18 1.0161e-16 0.269596)
(-9.61056e-19 -7.88295e-19 0.363105)
(2.68422e-19 -3.838e-16 0.456147)
(-2.53343e-18 2.98053e-16 0.526443)
(-8.80668e-20 -3.78646e-19 0.615143)
(2.20764e-19 1.41079e-19 0.706759)
(-6.31928e-19 6.62778e-17 0.783018)
(-5.95044e-19 6.11265e-17 0.874429)
(2.62761e-19 -5.68058e-17 0.988905)
(2.58052e-19 7.84895e-19 1.12088)
(3.58217e-19 -5.99073e-17 1.26962)
(-2.22455e-19 5.94683e-17 1.43093)
(4.85928e-20 2.85296e-18 1.60113)
(-2.03217e-19 5.72725e-17 1.77865)
(5.45909e-19 -2.16949e-18 1.9636)
(-2.78393e-19 -3.00101e-17 2.1567)
(-1.99185e-19 -2.49359e-17 2.35869)
(1.7698e-19 -2.51321e-17 2.57018)
(-5.0444e-19 2.62065e-17 2.79155)
(4.59542e-19 -5.55508e-19 3.02296)
(-2.65724e-19 2.48694e-17 3.26435)
(1.07303e-19 -2.65597e-17 3.5158)
(-7.82799e-20 -9.13514e-19 3.77778)
(4.29612e-19 -2.10107e-17 4.05146)
(-3.72531e-19 2.59838e-17 4.33905)
(4.22802e-19 -2.29348e-17 4.64409)
(-1.52782e-18 2.5542e-17 4.97196)
(1.37254e-18 -9.32836e-18 5.33068)
(-2.7516e-19 1.2075e-17 5.73254)
(-2.82178e-19 -8.7872e-19 6.19715)
(1.59213e-20 2.60088e-18 6.75731)
(-4.86133e-19 8.40756e-18 7.46958)
(1.34581e-19 -1.01301e-17 8.43134)
(-1.0177e-19 2.29279e-18 9.79739)
(-6.92121e-19 1.77291e-19 11.735)
(1.00473e-18 -9.46779e-19 13.9318)
(3.45331e-19 5.37899e-19 12.9323)
(-4.10541e-19 -1.57556e-19 -3.60037)
(-5.34588e-20 1.21484e-19 -7.69728)
(-1.74191e-18 2.18417e-19 1.14561)
(8.79521e-19 -3.15428e-19 4.88568)
(4.97888e-19 5.54286e-20 6.6828)
(-9.84422e-19 -4.03761e-19 7.50247)
(1.55895e-18 2.32878e-18 7.82884)
(-1.61978e-18 -2.26503e-18 7.90188)
(2.38212e-19 1.1675e-18 7.8428)
(1.692e-19 1.35108e-18 7.71536)
(6.18553e-19 3.11229e-18 7.55432)
(1.16407e-19 1.56574e-18 7.37969)
(4.74696e-19 3.67948e-18 7.20307)
(-8.84297e-19 -1.11315e-17 7.03104)
(1.90049e-18 2.49351e-17 6.86726)
(-6.96404e-19 -9.69315e-18 6.71366)
(6.08917e-19 1.41499e-17 6.57113)
(-3.3275e-19 -7.78591e-18 6.43993)
(1.75378e-19 4.58981e-18 6.3199)
(6.86936e-19 2.79076e-17 6.21058)
(-6.12162e-19 -2.3999e-17 6.11129)
(1.49096e-20 1.9734e-18 6.0211)
(-4.76029e-20 4.67235e-18 5.93881)
(-2.02308e-19 -2.66538e-17 5.86293)
(4.78355e-19 2.88282e-17 5.79159)
(2.06209e-19 2.66114e-17 5.72241)
(-1.91203e-20 -2.22251e-17 5.65235)
(-7.7865e-19 -2.6601e-17 5.57753)
(3.20976e-19 2.50183e-17 5.49288)
(2.07454e-19 -1.76858e-19 5.39104)
(2.41205e-19 3.06494e-21 5.26296)
(-4.52288e-19 -1.10154e-20 5.09348)
(2.4832e-19 6.43251e-19 4.82155)
(1.09628e-17 1.10669e-16 4.46045)
(2.22414e-17 1.34587e-16 4.00294)
(-3.32558e-17 -1.21818e-16 3.4341)
(1.92644e-17 8.62849e-19 2.76947)
(-6.14333e-17 -1.51357e-16 2.08306)
(2.15461e-17 2.44789e-17 1.5265)
(1.17546e-16 1.05338e-16 1.14768)
(-4.0245e-17 -9.76891e-18 0.957378)
(3.19261e-16 2.37219e-16 1.02459)
(1.25709e-18 7.9711e-18 1.30298)
(-2.05299e-16 -1.05226e-16 1.71436)
(-2.17637e-16 -1.06228e-16 2.21218)
(2.79653e-17 8.44614e-18 2.74855)
(1.72533e-16 1.035e-16 3.28903)
(-4.5314e-16 -2.16221e-16 3.8031)
(-2.11833e-16 -9.08911e-17 4.30626)
(-7.04735e-17 -8.18818e-18 4.73553)
(-1.09019e-18 -2.55593e-18 5.14851)
(5.15915e-17 5.08188e-17 5.5334)
(-5.21028e-17 -1.8993e-17 5.87037)
(5.96817e-18 -2.68166e-17 6.2225)
(3.17367e-18 -5.64727e-19 6.59929)
(1.65961e-16 4.53649e-17 7.07307)
(-6.1855e-17 -1.36785e-17 7.68134)
(-6.11006e-17 -2.25943e-17 8.46849)
(2.92464e-17 1.44488e-17 9.4191)
(2.31626e-18 6.50647e-18 10.3805)
(1.95147e-19 3.22427e-20 11.0127)
(6.70718e-19 2.1399e-17 10.965)
(2.048e-18 -2.3907e-17 9.91046)
(1.87025e-18 -2.43812e-17 8.06205)
(1.55005e-17 -3.08443e-16 5.99522)
(-1.15542e-17 3.10015e-16 4.11919)
(9.97942e-18 -3.38415e-16 2.63226)
(-4.91665e-19 9.17776e-19 1.56819)
(1.6658e-20 -4.52869e-19 0.878201)
(3.06053e-18 -7.37799e-16 0.472987)
(-1.58011e-18 7.35969e-16 0.249924)
(1.61601e-19 -6.82913e-19 0.13384)
(2.59946e-19 -3.14339e-16 0.0750331)
(2.57197e-20 -1.74701e-19 0.0449772)
(7.87833e-20 2.99965e-16 0.0287645)
(8.16536e-20 -3.55332e-16 0.0190582)
(-1.89862e-19 -3.02734e-16 0.0124221)
(-5.62816e-20 6.45085e-16 0.0074482)
(1.12745e-19 -1.9198e-17 0.00342037)
(1.27405e-19 -1.83585e-17 2.89594e-06)
(-1.0468e-19 -5.22932e-16 -0.00293407)
(1.33387e-19 5.14117e-16 -0.00550549)
(-9.77106e-20 7.49975e-18 -0.00764158)
(1.02435e-19 -7.29004e-20 -0.00946165)
(-4.92307e-21 -6.73122e-18 -0.0107281)
(1.54343e-21 2.06907e-16 -0.0114385)
(7.57833e-21 -1.23052e-19 -0.0108062)
(-6.93827e-20 -4.73145e-17 -0.00797734)
(4.96441e-21 -7.21507e-19 -0.000879288)
(-4.48687e-20 -3.54429e-17 0.0129857)
(2.35901e-20 -1.95261e-16 0.0347999)
(7.6411e-21 -1.281e-17 0.0606325)
(5.91472e-19 -4.32799e-16 0.0824464)
(3.52719e-19 -2.28307e-16 0.0852024)
(-1.11952e-18 4.83375e-16 0.0532535)
(-2.78904e-19 1.51814e-17 -0.0172082)
(-1.05358e-19 -2.83036e-16 -0.120923)
(-2.20843e-18 -5.59652e-16 -0.224876)
(-2.00016e-18 -2.91374e-16 -0.300471)
(-2.61031e-19 1.1168e-19 -0.313419)
(3.16866e-18 3.19173e-16 -0.235719)
(2.19414e-21 -5.74684e-19 -0.0703522)
(-3.2981e-19 -3.39828e-16 0.162154)
(-3.62718e-19 5.10393e-18 0.469285)
(-2.91941e-18 3.49274e-16 0.790424)
(5.81467e-18 -3.62309e-16 1.11259)
(9.68431e-20 2.13648e-18 1.38054)
(5.2942e-18 -7.11873e-16 1.58183)
(-1.53696e-18 -3.61709e-16 1.73045)
(1.17453e-18 -1.82626e-17 1.83519)
(-8.18766e-18 -3.34195e-16 1.91475)
(-2.37407e-18 -5.0139e-18 1.98926)
(1.90961e-17 3.0059e-16 2.06511)
(4.35263e-20 2.0692e-18 2.18417)
(-1.74662e-17 -2.61072e-16 2.31849)
(1.16964e-18 1.44703e-17 2.50759)
(8.35947e-20 4.73096e-20 2.78859)
(-1.76127e-21 8.81205e-20 3.152)
(7.36319e-19 5.95119e-17 3.51923)
(-2.98594e-20 -9.50029e-20 3.74909)
(1.41638e-19 -8.40279e-18 3.65883)
(-2.65357e-19 1.77702e-17 3.19433)
(6.86787e-19 -9.74983e-18 2.49905)
(2.91004e-19 -1.97582e-19 1.78059)
(-2.46421e-20 -1.83841e-19 1.16168)
(2.15094e-18 -3.61467e-16 0.700134)
(-1.35135e-18 3.88778e-16 0.396187)
(1.1055e-18 -7.19462e-16 0.214893)
(2.57211e-19 -3.48025e-16 0.116221)
(-8.68377e-20 -2.20226e-17 0.0671958)
(2.59375e-19 -3.1857e-16 0.0439393)
(2.39938e-20 4.16932e-17 0.032607)
(9.26335e-20 -3.26766e-16 0.0267378)
(5.09558e-20 -7.93637e-17 0.0233531)
(1.73489e-20 -1.50577e-20 0.0208959)
(-4.23241e-20 -3.74687e-17 0.0186414)
(-6.31659e-20 7.20214e-17 0.0163638)
(6.58429e-20 -2.76902e-16 0.0139484)
(3.34996e-20 -5.30067e-16 0.0115747)
(-2.92712e-21 1.81932e-19 0.00936372)
(5.77325e-20 2.39973e-16 0.00744949)
(1.13162e-19 2.84733e-16 0.00591025)
(2.6431e-20 -5.38876e-17 0.00513886)
(-4.0832e-20 -1.53484e-16 0.00538768)
(-6.58909e-20 -9.73009e-17 0.00745392)
(6.9612e-20 9.40522e-17 0.0131763)
(1.23322e-20 2.31364e-17 0.0237775)
(5.75114e-21 2.81321e-20 0.0424701)
(6.53716e-21 -1.44844e-16 0.0726703)
(1.10489e-20 -1.0156e-16 0.110661)
(5.26899e-19 -2.68424e-16 0.147121)
(-1.31551e-19 1.14381e-16 0.162201)
(8.39601e-20 -6.06519e-17 0.139361)
(-7.18089e-20 -2.54319e-16 0.0697188)
(-3.05403e-18 -5.40377e-16 -0.0445284)
(-2.92888e-18 -2.8349e-16 -0.175907)
(-2.53199e-19 -6.60676e-19 -0.274779)
(-8.03184e-18 -3.09052e-16 -0.323701)
(2.49239e-17 8.8867e-16 -0.305368)
(3.44064e-18 8.64747e-17 -0.205247)
(-6.21975e-20 4.94952e-19 -0.0322165)
(8.43903e-18 3.61461e-16 0.170022)
(-1.27526e-18 -2.07168e-18 0.414139)
(1.31632e-19 4.59107e-19 0.680956)
(1.85475e-18 2.39743e-16 0.897996)
(-1.78594e-18 3.79026e-16 1.04924)
(-1.30353e-19 -5.4846e-19 1.14147)
(-1.83807e-19 -2.89349e-19 1.16818)
(1.23325e-18 -1.29788e-16 1.15007)
(-8.28164e-19 1.26719e-16 1.10742)
(-1.23131e-19 -8.77221e-19 1.06596)
(2.74392e-20 -4.57238e-18 1.05031)
(7.72302e-19 -5.83704e-17 1.06859)
(-3.59093e-19 2.0208e-18 1.12147)
(9.2339e-19 -3.51236e-18 1.20145)
(-4.95783e-19 -5.66752e-18 1.30171)
(7.75835e-19 -5.42998e-17 1.41718)
(9.1071e-19 -1.42975e-18 1.54435)
(-1.59192e-18 5.48773e-17 1.68093)
(5.22615e-20 -1.84539e-18 1.82561)
(-1.02248e-18 2.47048e-17 1.97786)
(3.44418e-19 -2.68319e-17 2.13785)
(5.8253e-19 2.01568e-18 2.30623)
(-1.13761e-19 3.96702e-21 2.48405)
(-6.82627e-21 1.59475e-18 2.67267)
(-1.0351e-19 1.88173e-18 2.87367)
(-1.98743e-19 -2.24191e-17 3.0889)
(3.5535e-19 2.00061e-17 3.32064)
(-2.44035e-19 -1.91414e-17 3.57194)
(-5.09587e-19 3.76451e-17 3.84723)
(6.72683e-19 -3.13049e-17 4.15346)
(3.07727e-19 1.10639e-17 4.50201)
(3.57068e-20 2.58082e-18 4.91199)
(1.88933e-19 -1.35827e-18 5.41572)
(8.69566e-19 3.7353e-19 6.06578)
(-5.21396e-19 2.29602e-18 6.93683)
(-1.2572e-19 -1.14183e-18 8.08808)
(7.80711e-20 2.53081e-19 9.35632)
(-6.91409e-19 1.4301e-19 9.57653)
(1.57874e-18 -5.86726e-19 4.52516)
(1.88654e-18 8.88345e-19 -12.7646)
(-9.23785e-19 2.00295e-19 -7.11239)
(4.42045e-20 -9.1834e-20 -1.7514)
(-1.28881e-19 5.51337e-20 1.15946)
(-1.50399e-18 4.11635e-19 2.83658)
(1.31202e-18 -4.28215e-19 3.87738)
(2.14927e-18 6.10128e-19 4.5012)
(-2.05517e-18 -4.52568e-19 4.88115)
(9.05527e-19 2.86311e-19 5.11081)
(-7.717e-21 3.5422e-20 5.24437)
(-5.9885e-19 -1.65137e-18 5.31499)
(6.35003e-20 -1.37418e-20 5.34399)
(1.54282e-19 -9.07788e-19 5.34553)
(-2.02268e-20 7.27939e-21 5.32911)
(-2.8752e-19 -2.31938e-18 5.30114)
(6.6187e-21 -5.30906e-21 5.26602)
(-5.82045e-21 1.47478e-21 5.22673)
(-1.81452e-19 -2.61565e-18 5.18525)
(-8.99606e-19 -1.15389e-17 5.14285)
(2.05551e-18 2.70018e-17 5.10022)
(-1.30465e-18 -1.81217e-17 5.05758)
(-4.71797e-20 7.92954e-20 5.01474)
(7.76901e-19 1.61392e-17 4.97107)
(-8.84289e-19 -1.9052e-17 4.9255)
(-9.19088e-21 -1.94109e-18 4.87647)
(1.73403e-19 -1.572e-19 4.82184)
(-6.59386e-19 -2.01901e-17 4.75875)
(5.46041e-19 1.95905e-17 4.68348)
(1.97343e-19 6.76239e-20 4.59115)
(1.11042e-18 1.96676e-17 4.47488)
(-1.23232e-18 -1.98077e-17 4.32667)
(2.04521e-18 2.02422e-17 4.13225)
(-5.04849e-18 -3.87707e-17 3.82754)
(-1.02966e-17 -6.76292e-17 3.39729)
(-4.8833e-18 -2.64365e-17 2.83143)
(-6.22043e-18 2.19119e-17 2.1409)
(6.31786e-18 -1.98981e-17 1.37475)
(-4.64841e-17 -5.72801e-17 0.621535)
(4.60265e-18 -4.12354e-19 0.0111745)
(4.08168e-17 6.46682e-18 -0.414763)
(-6.97614e-17 -3.61152e-17 -0.637176)
(4.50522e-17 1.08488e-17 -0.629766)
(-4.4382e-17 -2.89252e-17 -0.437239)
(4.19905e-16 2.10946e-16 -0.122545)
(1.65824e-16 8.78575e-17 0.274706)
(5.77958e-17 2.75507e-17 0.729148)
(-4.91674e-20 2.3731e-19 1.19468)
(1.03897e-18 7.40019e-18 1.62493)
(4.96609e-16 2.0045e-16 2.03806)
(2.11789e-16 9.28021e-17 2.42021)
(2.98725e-17 8.16123e-18 2.72348)
(4.44557e-16 1.53805e-16 2.99371)
(-1.73353e-19 7.67424e-18 3.22589)
(-2.14407e-16 -6.67546e-17 3.44619)
(1.84794e-18 -1.58686e-18 3.67784)
(1.73985e-17 -8.83832e-18 3.96705)
(7.89897e-17 1.98174e-17 4.35963)
(3.6934e-17 1.44808e-17 4.91658)
(-5.06418e-17 -1.81607e-17 5.68607)
(9.35943e-18 3.53761e-18 6.67519)
(3.58124e-18 9.66073e-18 7.76098)
(-1.62303e-17 -3.29822e-17 8.6981)
(-1.567e-18 -1.58387e-17 9.07933)
(1.19205e-17 -2.49624e-16 8.58746)
(-1.59925e-17 2.99717e-16 7.40316)
(2.57311e-17 -5.32556e-16 5.88369)
(6.3138e-18 -4.2497e-17 4.3731)
(-1.29414e-17 3.68935e-16 3.02153)
(-6.1446e-19 4.46107e-17 1.96341)
(-2.67517e-18 3.63999e-16 1.21025)
(2.22595e-18 -4.53803e-16 0.716696)
(1.91122e-18 -3.11853e-16 0.414072)
(-1.34723e-19 1.36394e-19 0.238513)
(3.26294e-19 -3.48146e-16 0.140032)
(2.50165e-19 -2.97426e-16 0.08535)
(-2.46685e-19 -4.06023e-17 0.0541742)
(-3.19868e-19 6.41538e-16 0.0351963)
(3.09768e-19 -3.4952e-16 0.022913)
(-2.21607e-20 3.72722e-17 0.0143954)
(-1.18976e-19 -2.85327e-16 0.00813864)
(-1.41881e-19 2.73253e-16 0.0033129)
(2.38492e-19 -2.6019e-16 -0.000492359)
(2.31319e-19 2.45268e-16 -0.00335984)
(-2.54777e-19 -2.32564e-16 -0.00538315)
(-1.05666e-19 1.72949e-19 -0.00624564)
(8.34392e-20 -6.5208e-18 -0.00567877)
(-6.60268e-21 -6.11642e-18 -0.00245328)
(2.79681e-20 5.94305e-17 0.00435621)
(-5.4236e-21 -3.75858e-21 0.0172676)
(-4.41484e-21 5.92403e-17 0.0383019)
(-7.8881e-20 9.78665e-17 0.0646986)
(6.22331e-20 -2.55261e-17 0.0894678)
(-5.67426e-19 2.43137e-16 0.0972261)
(-8.23144e-19 2.12715e-16 0.0740232)
(6.89209e-19 -2.40606e-16 0.00982942)
(-7.81933e-20 1.1937e-19 -0.0932746)
(2.70689e-20 2.48296e-16 -0.210344)
(9.7259e-19 2.78264e-16 -0.301292)
(5.90374e-21 1.81908e-17 -0.329611)
(3.59401e-18 3.01011e-16 -0.25542)
(-6.61081e-18 -6.30182e-16 -0.084906)
(-3.08239e-21 4.32837e-19 0.205475)
(-2.42523e-19 -2.61889e-19 0.562215)
(2.66365e-21 3.23864e-19 0.972754)
(2.34853e-18 -3.41085e-16 1.34348)
(4.81167e-19 -2.17554e-17 1.64667)
(-5.95967e-20 1.08256e-17 1.84619)
(-2.09934e-18 1.85188e-17 1.95476)
(-3.25779e-18 -3.18223e-16 1.98586)
(-5.69621e-18 -3.28186e-16 1.96104)
(5.93314e-19 -1.00438e-18 1.90557)
(0 -0 1.84104)
(-8.12895e-19 -5.49475e-19 1.77644)
(-7.48345e-19 -7.69221e-19 1.752)
(1.03126e-17 1.28949e-16 1.76366)
(7.86983e-18 1.11378e-16 1.80392)
(6.71942e-20 1.65759e-19 1.9407)
(3.30126e-19 6.48092e-18 2.1855)
(1.22585e-19 -1.50864e-20 2.53077)
(9.04701e-21 -2.36253e-21 2.91979)
(-2.63473e-20 1.064e-20 3.20827)
(2.87012e-19 -1.38424e-19 3.22687)
(-1.89542e-19 8.98424e-18 2.92817)
(5.36702e-18 -2.9846e-16 2.41488)
(1.73864e-19 -9.56217e-18 1.83065)
(-2.63556e-18 3.39317e-16 1.28545)
(1.77283e-18 -3.65951e-16 0.846633)
(-1.19804e-18 3.68275e-16 0.529153)
(-7.71712e-20 -1.17276e-19 0.319652)
(4.08134e-19 -3.42536e-16 0.192427)
(-2.24869e-19 2.95646e-16 0.120468)
(4.45224e-19 -2.48466e-16 0.0810806)
(-4.65951e-19 3.2439e-16 0.0593252)
(2.24972e-19 -3.93903e-17 0.0467346)
(-1.6098e-20 -3.83233e-17 0.0389632)
(-1.26435e-19 3.69704e-17 0.0336663)
(-1.72095e-19 2.14639e-16 0.029639)
(-7.00299e-21 6.90352e-17 0.0262598)
(-1.52323e-19 2.63796e-16 0.0233899)
(-7.32529e-20 6.26641e-17 0.0210421)
(1.03392e-19 -2.98912e-16 0.0194179)
(-4.56845e-20 -4.54732e-16 0.0186954)
(-6.8967e-20 -2.68569e-16 0.0193703)
(1.93859e-20 5.12886e-17 0.0222604)
(-9.61424e-21 4.87621e-17 0.028496)
(-2.49289e-20 -4.73049e-17 0.0397284)
(1.20499e-20 2.32827e-17 0.0583967)
(3.89598e-20 1.07943e-19 0.0876542)
(-1.84424e-19 1.93854e-16 0.125132)
(3.6031e-21 -4.55324e-20 0.16102)
(-5.55642e-19 2.68817e-16 0.177612)
(-9.67397e-19 1.69808e-16 0.15404)
(1.74061e-20 -4.18898e-20 0.0763623)
(-2.60803e-20 1.90662e-16 -0.0542106)
(1.71679e-18 3.35062e-16 -0.213028)
(-2.7149e-18 -2.10607e-16 -0.349606)
(5.12566e-18 2.22359e-16 -0.439244)
(9.61139e-18 3.83418e-16 -0.442328)
(-1.08366e-17 -4.01941e-16 -0.337983)
(-1.00988e-17 -3.33427e-16 -0.126827)
(1.22446e-17 4.32072e-16 0.145892)
(-8.9711e-18 -4.41068e-16 0.460134)
(6.99598e-18 3.63949e-16 0.77784)
(2.26714e-19 9.15809e-17 1.10461)
(-1.05863e-18 -3.93478e-16 1.28396)
(6.40454e-19 1.2366e-18 1.40695)
(-7.27102e-19 2.76263e-16 1.45307)
(-6.14131e-19 6.638e-17 1.43306)
(-2.09551e-18 1.28769e-16 1.37443)
(2.36384e-18 -1.21978e-16 1.29184)
(-1.11786e-18 5.8813e-17 1.20542)
(1.12589e-18 -5.80281e-17 1.13512)
(-5.89967e-19 1.76568e-19 1.09072)
(3.43661e-19 -3.81408e-18 1.0789)
(1.2887e-18 -5.06631e-17 1.09664)
(-1.33807e-18 5.873e-17 1.13864)
(-2.32569e-18 5.16754e-17 1.19945)
(5.03647e-19 -4.60668e-17 1.27422)
(6.92504e-19 2.52931e-17 1.3591)
(7.40945e-19 -2.54112e-17 1.45157)
(-3.08222e-20 8.53958e-19 1.5505)
(-1.249e-18 2.58628e-17 1.65613)
(1.48088e-18 -2.30948e-17 1.76983)
(-1.75338e-18 2.45238e-17 1.89377)
(4.06276e-19 -2.25843e-17 2.03052)
(1.04074e-18 -2.04188e-18 2.18265)
(-1.23555e-18 2.48875e-18 2.35259)
(5.91876e-19 -8.61505e-20 2.54267)
(-1.87904e-18 9.95847e-20 2.75558)
(3.14822e-18 2.11265e-18 2.99527)
(-2.15765e-18 -1.34877e-19 3.26852)
(2.78834e-19 -2.9762e-19 3.58733)
(6.00712e-19 -3.65334e-18 3.97251)
(-1.25518e-18 2.85014e-19 4.45786)
(1.17261e-18 -7.79799e-19 5.09041)
(2.02612e-18 -4.2177e-18 5.90964)
(-1.39286e-18 2.91812e-18 6.85372)
(5.20173e-19 -3.99738e-19 7.46939)
(-3.50726e-19 2.92852e-20 6.24197)
(-5.13313e-19 4.08633e-19 -0.286491)
(-1.82106e-18 -4.39723e-19 -14.1089)
(7.07037e-19 -5.17935e-20 -6.00901)
(-1.65783e-18 5.03822e-19 -2.6681)
(-1.79721e-18 3.28082e-19 -0.481381)
(3.35886e-18 -8.779e-19 0.874578)
(-5.96117e-18 1.59994e-18 1.77555)
(2.72793e-18 -9.3069e-19 2.41367)
(6.95396e-20 1.04733e-19 2.85574)
(-9.67461e-19 -3.54281e-19 3.1741)
(-1.59838e-22 5.45285e-20 3.40838)
(-3.91706e-18 -2.33377e-18 3.58317)
(3.08754e-18 1.98232e-18 3.71465)
(-5.80002e-19 -1.03208e-18 3.81405)
(-2.12406e-18 -3.89471e-18 3.88929)
(1.62762e-18 3.0574e-18 3.94612)
(-5.03537e-19 -8.29017e-19 3.98869)
(-1.00613e-20 -3.23903e-21 4.01999)
(-3.50112e-19 -1.03036e-18 4.04209)