/*--------------------------------*- C++ -*----------------------------------*\
| =========                 |                                                 |
| \\      /  F ield         | OpenFOAM: The Open Source CFD Toolbox           |
|  \\    /   O peration     | Version:  2506                                  |
|   \\  /    A nd           | Website:  www.openfoam.com                      |
|    \\/     M anipulation  |                                                 |
\*---------------------------------------------------------------------------*/
FoamFile
{
    version     2.0;
    format      ascii;
    arch        "LSB;label=32;scalar=64";
    class       surfaceScalarField;
    location    "4.6";
    object      phi;
}
// * * * * * * * * * * * * * * * * * * * * * * * * * * * * * * * * * * * * * //

dimensions      [0 3 -1 0 0 0 0];

oriented        oriented;

internalField   nonuniform List<scalar> 
7780
(
6.70129e-10
-6.70129e-10
1.18648e-09
-5.16352e-10
1.50008e-09
-3.13595e-10
1.71286e-09
-2.12779e-10
1.86336e-09
-1.50503e-10
1.9717e-09
-1.08346e-10
2.05292e-09
-8.12177e-11
2.11665e-09
-6.37257e-11
2.16856e-09
-5.19081e-11
2.21212e-09
-4.35607e-11
2.24956e-09
-3.74444e-11
2.28236e-09
-3.27974e-11
2.3115e-09
-2.9141e-11
2.33767e-09
-2.61743e-11
2.36138e-09
-2.37053e-11
2.38299e-09
-2.16083e-11
2.40279e-09
-1.98007e-11
2.42102e-09
-1.82285e-11
2.43787e-09
-1.68584e-11
2.45355e-09
-1.56732e-11
2.46822e-09
-1.46691e-11
2.48207e-09
-1.38553e-11
2.49533e-09
-1.32545e-11
2.50823e-09
-1.29062e-11
2.5211e-09
-1.28716e-11
2.53435e-09
-1.32444e-11
2.54852e-09
-1.41706e-11
2.56441e-09
-1.58893e-11
2.58321e-09
-1.88013e-11
2.60683e-09
-2.36194e-11
2.62961e-09
-6.77458e-11
2.61273e-09
-3.00309e-10
2.54982e-09
-5.97647e-10
2.44931e-09
-8.69219e-10
2.31873e-09
-1.10189e-09
2.17827e-09
-1.31414e-09
2.04442e-09
-1.51839e-09
1.87439e-09
-1.77236e-09
1.68637e-09
-1.93767e-09
1.53057e-09
-2.01426e-09
1.40667e-09
-2.07669e-09
1.31449e-09
-2.12812e-09
1.24641e-09
-2.16394e-09
1.19646e-09
-2.18633e-09
1.15995e-09
-2.19672e-09
1.13193e-09
-2.19475e-09
1.11061e-09
-2.17994e-09
1.09154e-09
-2.15298e-09
1.07185e-09
-2.11273e-09
1.04811e-09
-2.05675e-09
1.01988e-09
-1.9815e-09
9.95149e-10
-1.88344e-09
9.68988e-10
-1.76586e-09
9.59516e-10
-1.61271e-09
9.76469e-10
-1.42507e-09
1.0453e-09
-1.1824e-09
1.16848e-09
-8.88658e-10
1.35373e-09
-5.07268e-10
1.56959e-09
-6.04995e-11
1.76658e-09
3.99823e-10
1.92258e-09
8.22074e-10
2.03887e-09
1.20289e-09
2.12212e-09
1.45561e-09
2.19024e-09
1.67206e-09
2.24739e-09
1.80974e-09
2.29987e-09
1.92094e-09
2.3495e-09
2.00732e-09
2.39665e-09
2.06702e-09
2.44216e-09
2.11275e-09
2.48586e-09
2.14758e-09
2.52856e-09
2.17327e-09
2.57007e-09
2.18862e-09
2.61061e-09
2.19542e-09
2.65045e-09
2.19466e-09
2.68971e-09
2.18641e-09
2.72859e-09
2.17022e-09
2.76714e-09
2.14524e-09
2.8053e-09
2.10483e-09
2.84326e-09
2.05558e-09
2.88074e-09
1.99227e-09
2.91819e-09
1.90932e-09
2.95359e-09
1.78371e-09
2.98774e-09
1.64447e-09
3.01782e-09
1.4359e-09
3.04334e-09
1.1917e-09
3.05911e-09
8.34005e-10
3.06484e-09
4.39704e-10
3.05757e-09
-1.03263e-12
3.03844e-09
-4.61861e-10
3.00832e-09
-8.69379e-10
2.9727e-09
-1.18345e-09
2.9324e-09
-1.45499e-09
2.89101e-09
-1.63853e-09
2.84828e-09
-1.79981e-09
2.80579e-09
-1.90469e-09
2.76311e-09
-1.98822e-09
2.72031e-09
-2.05991e-09
2.67722e-09
-2.10599e-09
2.63433e-09
-2.14126e-09
2.59203e-09
-2.1672e-09
2.55071e-09
-2.18494e-09
2.51064e-09
-2.19519e-09
2.4714e-09
-2.19659e-09
2.43198e-09
-2.18918e-09
2.3905e-09
-2.17221e-09
2.34508e-09
-2.14504e-09
2.29407e-09
-2.10685e-09
2.23584e-09
-2.05263e-09
2.17094e-09
-1.98073e-09
2.09909e-09
-1.89586e-09
2.02128e-09
-1.7905e-09
1.94492e-09
-1.63427e-09
1.87002e-09
-1.46653e-09
1.81101e-09
-1.2153e-09
1.77226e-09
-9.32022e-10
1.76516e-09
-5.62203e-10
1.79247e-09
-1.28113e-10
1.839e-09
3.10518e-10
1.89107e-09
7.22148e-10
1.94093e-09
1.10367e-09
1.98401e-09
1.37846e-09
2.02313e-09
1.60143e-09
2.0601e-09
1.75674e-09
2.09674e-09
1.89014e-09
2.13348e-09
1.97624e-09
2.17024e-09
2.04408e-09
2.20759e-09
2.09939e-09
2.24556e-09
2.1391e-09
2.28392e-09
2.16589e-09
2.32294e-09
2.18372e-09
2.36268e-09
2.19356e-09
2.40342e-09
2.19569e-09
2.44528e-09
2.19018e-09
2.48827e-09
2.17534e-09
2.53317e-09
2.15199e-09
2.57973e-09
2.11971e-09
2.62855e-09
2.07621e-09
2.67998e-09
2.01988e-09
2.73323e-09
1.93409e-09
2.78935e-09
1.83592e-09
2.84752e-09
1.71213e-09
2.90567e-09
1.52081e-09
2.9636e-09
1.3118e-09
3.01569e-09
9.97714e-10
3.06061e-09
6.34024e-10
3.09343e-09
2.14254e-10
3.11266e-09
-2.48307e-10
3.11718e-09
-6.9022e-10
3.11146e-09
-1.044e-09
3.09657e-09
-1.33953e-09
3.0758e-09
-1.56625e-09
3.05e-09
-1.73497e-09
3.02106e-09
-1.85639e-09
2.98793e-09
-1.96289e-09
2.95134e-09
-2.03021e-09
2.91154e-09
-2.08232e-09
2.86869e-09
-2.1217e-09
2.82338e-09
-2.15293e-09
2.77647e-09
-2.17236e-09
2.72064e-09
-2.17565e-09
2.65372e-09
-2.16927e-09
2.57984e-09
-2.15972e-09
2.4947e-09
-2.13848e-09
2.43335e-09
-1.73583e-09
2.37722e-09
-1.51968e-09
2.32307e-09
-1.33601e-09
2.27408e-09
-1.09542e-09
2.2387e-09
-8.34608e-10
2.22e-09
-5.30764e-10
2.21995e-09
-2.14102e-10
2.22985e-09
-1.88637e-11
2.23629e-09
-6.44241e-12
2.24026e-09
-3.96992e-12
2.24268e-09
-2.42459e-12
2.24404e-09
-1.35533e-12
2.24457e-09
-5.29209e-13
2.24449e-09
7.17038e-14
2.24387e-09
6.28131e-13
2.24276e-09
1.10209e-12
2.24116e-09
1.60509e-12
2.23903e-09
2.13181e-12
2.23634e-09
2.68504e-12
2.23308e-09
3.26384e-12
2.22921e-09
3.86602e-12
2.22472e-09
4.49641e-12
2.21954e-09
5.17579e-12
2.21359e-09
5.9511e-12
2.20668e-09
6.90684e-12
2.1985e-09
8.18043e-12
2.18852e-09
9.98697e-12
2.17585e-09
1.2668e-11
2.15906e-09
1.67895e-11
2.13571e-09
2.33497e-11
2.10148e-09
3.42288e-11
2.04827e-09
5.32083e-11
1.96e-09
8.82713e-11
1.80309e-09
1.56911e-10
1.50239e-09
3.00699e-10
8.95146e-10
6.07244e-10
8.95146e-10
-3.46037e-11
-6.35526e-10
1.62915e-10
-7.13871e-10
4.27014e-10
-5.77694e-10
6.64164e-10
-4.4993e-10
8.64148e-10
-3.50487e-10
1.03064e-09
-2.74843e-10
1.16897e-09
-2.19538e-10
1.28464e-09
-1.79405e-10
1.38242e-09
-1.4968e-10
1.46596e-09
-1.271e-10
1.53804e-09
-1.09534e-10
1.60078e-09
-9.55311e-11
1.65574e-09
-8.40994e-11
1.70412e-09
-7.45599e-11
1.74686e-09
-6.64463e-11
1.78469e-09
-5.94345e-11
1.81819e-09
-5.33001e-11
1.84785e-09
-4.789e-11
1.8741e-09
-4.31052e-11
1.89731e-09
-3.88906e-11
1.91787e-09
-3.5229e-11
1.93616e-09
-3.21399e-11
1.95259e-09
-2.96809e-11
1.96763e-09
-2.79538e-11
1.98188e-09
-2.71153e-11
1.99603e-09
-2.73975e-11
2.011e-09
-2.91419e-11
2.02797e-09
-3.28615e-11
2.04855e-09
-3.93761e-11
2.07492e-09
-4.99954e-11
2.10035e-09
-9.31764e-11
2.08301e-09
-2.82963e-10
2.01358e-09
-5.28213e-10
1.90385e-09
-7.59494e-10
1.76791e-09
-9.65953e-10
1.62584e-09
-1.17207e-09
1.48842e-09
-1.38097e-09
1.32908e-09
-1.61302e-09
1.16638e-09
-1.77496e-09
1.03391e-09
-1.88179e-09
9.31008e-10
-1.97379e-09
8.53224e-10
-2.05033e-09
7.94929e-10
-2.10564e-09
7.51469e-10
-2.14287e-09
7.1825e-10
-2.16351e-09
6.90977e-10
-2.16747e-09
6.66739e-10
-2.1557e-09
6.41665e-10
-2.1279e-09
6.12314e-10
-2.08337e-09
5.76569e-10
-2.02101e-09
5.34218e-10
-1.93915e-09
4.90408e-10
-1.83963e-09
4.44552e-10
-1.72e-09
4.10224e-10
-1.57839e-09
3.98404e-10
-1.41325e-09
4.31588e-10
-1.21558e-09
5.24327e-10
-9.81398e-10
7.0116e-10
-6.841e-10
9.59349e-10
-3.18688e-10
1.26264e-09
9.65341e-11
1.56062e-09
5.24089e-10
1.81391e-09
9.49604e-10
1.99902e-09
1.27049e-09
2.13188e-09
1.53919e-09
2.22394e-09
1.71768e-09
2.29239e-09
1.85249e-09
2.3484e-09
1.95132e-09
2.39781e-09
2.01761e-09
2.44394e-09
2.06663e-09
2.48753e-09
2.10399e-09
2.52985e-09
2.13095e-09
2.57098e-09
2.14748e-09
2.61123e-09
2.15517e-09
2.65086e-09
2.15504e-09
2.68998e-09
2.14729e-09
2.72878e-09
2.13142e-09
2.76728e-09
2.10674e-09
2.80542e-09
2.06669e-09
2.8434e-09
2.01761e-09
2.8809e-09
1.95476e-09
2.91839e-09
1.87183e-09
2.95384e-09
1.74825e-09
2.98806e-09
1.61025e-09
3.01823e-09
1.40574e-09
3.04386e-09
1.16607e-09
3.05977e-09
8.18097e-10
3.06568e-09
4.33787e-10
3.05867e-09
5.98233e-12
3.03986e-09
-4.43055e-10
3.01008e-09
-8.39592e-10
2.97474e-09
-1.14812e-09
2.93447e-09
-1.41472e-09
2.89276e-09
-1.59682e-09
2.84923e-09
-1.75628e-09
2.8055e-09
-1.86096e-09
2.76118e-09
-1.94391e-09
2.71657e-09
-2.0153e-09
2.67204e-09
-2.06146e-09
2.62851e-09
-2.09773e-09
2.58617e-09
-2.12485e-09
2.54482e-09
-2.14359e-09
2.50372e-09
-2.15408e-09
2.46123e-09
-2.1541e-09
2.41522e-09
-2.14317e-09
2.36333e-09
-2.12032e-09
2.30375e-09
-2.08547e-09
2.23555e-09
-2.03865e-09
2.15844e-09
-1.97551e-09
2.07437e-09
-1.89667e-09
1.9844e-09
-1.80588e-09
1.89083e-09
-1.69693e-09
1.80037e-09
-1.54381e-09
1.7141e-09
-1.38026e-09
1.644e-09
-1.1452e-09
1.59492e-09
-8.82948e-10
1.57889e-09
-5.46169e-10
1.60509e-09
-1.54316e-10
1.66757e-09
2.4804e-10
1.75391e-09
6.35807e-10
1.84642e-09
1.01116e-09
1.92743e-09
1.29746e-09
1.99386e-09
1.535e-09
2.04711e-09
1.70349e-09
2.09217e-09
1.84508e-09
2.1326e-09
1.93581e-09
2.17088e-09
2.0058e-09
2.20879e-09
2.06148e-09
2.24679e-09
2.1011e-09
2.28497e-09
2.12772e-09
2.32374e-09
2.14494e-09
2.36327e-09
2.15403e-09
2.40385e-09
2.15511e-09
2.44559e-09
2.14844e-09
2.4885e-09
2.13243e-09
2.53335e-09
2.10714e-09
2.57988e-09
2.07318e-09
2.6287e-09
2.02739e-09
2.68014e-09
1.96844e-09
2.73342e-09
1.88081e-09
2.78959e-09
1.77975e-09
2.84784e-09
1.65388e-09
2.90608e-09
1.46258e-09
2.96414e-09
1.25374e-09
3.01639e-09
9.45461e-10
3.06152e-09
5.88896e-10
3.0946e-09
1.81167e-10
3.11414e-09
-2.67841e-10
3.11889e-09
-6.94974e-10
3.11326e-09
-1.03837e-09
3.09805e-09
-1.32432e-09
3.07615e-09
-1.54435e-09
3.0481e-09
-1.70693e-09
3.01549e-09
-1.82378e-09
2.97749e-09
-1.9249e-09
2.93557e-09
-1.98829e-09
2.89077e-09
-2.03753e-09
2.84387e-09
-2.07481e-09
2.79595e-09
-2.105e-09
2.74798e-09
-2.12439e-09
2.6919e-09
-2.11957e-09
2.62458e-09
-2.10195e-09
2.54945e-09
-2.0846e-09
2.46555e-09
-2.0546e-09
2.40125e-09
-1.67154e-09
2.34053e-09
-1.45895e-09
2.28059e-09
-1.27606e-09
2.22524e-09
-1.04007e-09
2.1837e-09
-7.93058e-10
2.15943e-09
-5.0649e-10
2.1544e-09
-2.09077e-10
2.15983e-09
-2.42937e-11
2.16158e-09
-8.19357e-12
2.15963e-09
-2.01427e-12
2.15464e-09
2.55907e-12
2.14724e-09
6.04783e-12
2.13789e-09
8.82491e-12
2.12682e-09
1.11345e-11
2.11425e-09
1.31974e-11
2.10022e-09
1.51377e-11
2.08475e-09
1.70769e-11
2.06781e-09
1.90699e-11
2.04935e-09
2.11391e-11
2.02933e-09
2.32851e-11
2.0077e-09
2.55037e-11
1.98438e-09
2.78104e-11
1.95929e-09
3.02695e-11
1.93221e-09
3.30259e-11
1.90278e-09
3.634e-11
1.87033e-09
4.06332e-11
1.83375e-09
4.6562e-11
1.79126e-09
5.51593e-11
1.73994e-09
6.81119e-11
1.67498e-09
8.83117e-11
1.58827e-09
1.20938e-10
1.46593e-09
1.75549e-10
1.28441e-09
2.69793e-10
1.00708e-09
4.34239e-10
5.98289e-10
7.09489e-10
1.3185e-10
1.07368e-09
1.027e-09
-1.33727e-10
-5.01799e-10
-1.27565e-10
-7.20033e-10
-1.93482e-11
-6.85911e-10
1.27078e-10
-5.96356e-10
2.79326e-10
-5.02735e-10
4.24759e-10
-4.20275e-10
5.58159e-10
-3.52939e-10
6.7803e-10
-2.99275e-10
7.84831e-10
-2.56481e-10
8.79725e-10
-2.21994e-10
9.64005e-10
-1.93814e-10
1.0389e-09
-1.70422e-10
1.10548e-09
-1.50685e-10
1.16469e-09
-1.33767e-10
1.2173e-09
-1.19057e-10
1.26398e-09
-1.06111e-10
1.30528e-09
-9.46073e-11
1.34172e-09
-8.43215e-11
1.37372e-09
-7.51065e-11
1.40171e-09
-6.68814e-11
1.4261e-09
-5.96266e-11
1.44735e-09
-5.33822e-11
1.46592e-09
-4.82527e-11
1.48238e-09
-4.44149e-11
1.4974e-09
-4.21335e-11
1.51179e-09
-4.17866e-11
1.52655e-09
-4.3906e-11
1.54293e-09
-4.92442e-11
1.56247e-09
-5.89139e-11
1.58699e-09
-7.45139e-11
1.61084e-09
-1.17027e-10
1.59822e-09
-2.70343e-10
1.5409e-09
-4.70892e-10
1.45064e-09
-6.69238e-10
1.34209e-09
-8.57398e-10
1.23059e-09
-1.06057e-09
1.12269e-09
-1.27307e-09
1.00239e-09
-1.49272e-09
8.85754e-10
-1.65833e-09
7.92251e-10
-1.78829e-09
7.19522e-10
-1.90106e-09
6.63072e-10
-1.99388e-09
6.19438e-10
-2.06201e-09
5.85479e-10
-2.10891e-09
5.57546e-10
-2.13557e-09
5.31996e-10
-2.14192e-09
5.05778e-10
-2.12949e-09
4.76267e-10
-2.09839e-09
4.40404e-10
-2.04751e-09
3.97126e-10
-1.97773e-09
3.4736e-10
-1.88938e-09
2.94405e-10
-1.78668e-09
2.40207e-10
-1.66581e-09
1.94119e-10
-1.5323e-09
1.65043e-10
-1.38417e-09
1.68505e-10
-1.21904e-09
2.17909e-10
-1.0308e-09
3.35589e-10
-8.01781e-10
5.34312e-10
-5.17411e-10
8.08051e-10
-1.77206e-10
1.12764e-09
2.04499e-10
1.45427e-09
6.22978e-10
1.7365e-09
9.88256e-10
1.96197e-09
1.31373e-09
2.1275e-09
1.55215e-09
2.24478e-09
1.73521e-09
2.32832e-09
1.86778e-09
2.39077e-09
1.95516e-09
2.44219e-09
2.01521e-09
2.48782e-09
2.05837e-09
2.53088e-09
2.08789e-09
2.57214e-09
2.10623e-09
2.61222e-09
2.11509e-09
2.6516e-09
2.11566e-09
2.69048e-09
2.1084e-09
2.7291e-09
2.0928e-09
2.76747e-09
2.06837e-09
2.80554e-09
2.02862e-09
2.84347e-09
1.97967e-09
2.88097e-09
1.91726e-09
2.91848e-09
1.83432e-09
2.95398e-09
1.71276e-09
2.98826e-09
1.57597e-09
3.0185e-09
1.37549e-09
3.04424e-09
1.14033e-09
3.06027e-09
8.02063e-10
3.06634e-09
4.27716e-10
3.0595e-09
1.28275e-11
3.04083e-09
-4.24391e-10
3.01107e-09
-8.09832e-10
2.97559e-09
-1.11264e-09
2.93484e-09
-1.37398e-09
2.89225e-09
-1.55423e-09
2.84742e-09
-1.71145e-09
2.8022e-09
-1.81575e-09
2.7565e-09
-1.89821e-09
2.71088e-09
-1.96969e-09
2.66588e-09
-2.01646e-09
2.62205e-09
-2.0539e-09
2.57897e-09
-2.08177e-09
2.53549e-09
-2.10011e-09
2.48984e-09
-2.10843e-09
2.43971e-09
-2.10396e-09
2.38296e-09
-2.08642e-09
2.3179e-09
-2.05526e-09
2.24399e-09
-2.01155e-09
2.16179e-09
-1.95646e-09
2.07255e-09
-1.88627e-09
1.97919e-09
-1.80331e-09
1.88334e-09
-1.71004e-09
1.78756e-09
-1.60114e-09
1.6972e-09
-1.45345e-09
1.61292e-09
-1.29598e-09
1.54354e-09
-1.07582e-09
1.49235e-09
-8.31763e-10
1.46854e-09
-5.22357e-10
1.48148e-09
-1.67254e-10
1.53189e-09
1.97625e-10
1.61589e-09
5.5181e-10
1.72231e-09
9.04734e-10
1.82966e-09
1.19011e-09
1.92618e-09
1.43848e-09
2.00595e-09
1.62372e-09
2.07052e-09
1.78051e-09
2.12289e-09
1.88345e-09
2.16728e-09
1.9614e-09
2.20793e-09
2.02083e-09
2.2471e-09
2.06193e-09
2.28575e-09
2.08907e-09
2.32462e-09
2.10607e-09
2.36406e-09
2.11459e-09
2.40448e-09
2.11469e-09
2.44605e-09
2.10686e-09
2.48882e-09
2.08967e-09
2.53356e-09
2.0624e-09
2.58001e-09
2.02672e-09
2.62878e-09
1.97862e-09
2.6802e-09
1.91702e-09
2.73347e-09
1.82753e-09
2.78966e-09
1.72357e-09
2.84795e-09
1.59559e-09
2.90625e-09
1.40428e-09
2.96439e-09
1.1956e-09
3.01674e-09
8.93113e-10
3.06197e-09
5.43668e-10
3.09514e-09
1.47997e-10
3.11464e-09
-2.87342e-10
3.11911e-09
-6.99452e-10
3.1127e-09
-1.03196e-09
3.0959e-09
-1.30752e-09
3.07147e-09
-1.51992e-09
3.04004e-09
-1.6755e-09
3.00353e-09
-1.78727e-09
2.96169e-09
-1.88306e-09
2.91662e-09
-1.94323e-09
2.86988e-09
-1.99078e-09
2.82251e-09
-2.02743e-09
2.77534e-09
-2.05782e-09
2.72842e-09
-2.07745e-09
2.67279e-09
-2.06394e-09
2.60483e-09
-2.03398e-09
2.52811e-09
-2.00789e-09
2.44258e-09
-1.96907e-09
2.37332e-09
-1.60227e-09
2.30624e-09
-1.39187e-09
2.23986e-09
-1.20969e-09
2.17884e-09
-9.79052e-10
2.1325e-09
-7.46718e-10
2.10413e-09
-4.78112e-10
2.0951e-09
-2.00054e-10
2.09654e-09
-2.57274e-11
2.09457e-09
-6.223e-12
2.08858e-09
3.96713e-12
2.07889e-09
1.22494e-11
2.06591e-09
1.90353e-11
2.05001e-09
2.47207e-11
2.03149e-09
2.96545e-11
2.01055e-09
3.41378e-11
1.98728e-09
3.84088e-11
1.96171e-09
4.26484e-11
1.93381e-09
4.69685e-11
1.90353e-09
5.14178e-11
1.87081e-09
5.60026e-11
1.8356e-09
6.07202e-11
1.7978e-09
6.56057e-11
1.75729e-09
7.07846e-11
1.71378e-09
7.65323e-11
1.66678e-09
8.33364e-11
1.61544e-09
9.19784e-11
1.55834e-09
1.03665e-10
1.49322e-09
1.20272e-10
1.41652e-09
1.44816e-10
1.32252e-09
1.82309e-10
1.20222e-09
2.41238e-10
1.04198e-09
3.35788e-10
8.23785e-10
4.8799e-10
5.33636e-10
7.24388e-10
1.96788e-10
1.04634e-09
-4.7184e-11
1.31765e-09
9.79812e-10
-1.16119e-10
-3.85679e-10
-1.82411e-10
-6.53741e-10
-1.7022e-10
-6.98101e-10
-1.08427e-10
-6.5815e-10
-1.96214e-11
-5.9154e-10
8.06348e-11
-5.20531e-10
1.82838e-10
-4.55142e-10
2.81893e-10
-3.9833e-10
3.7528e-10
-3.49868e-10
4.61907e-10
-3.08621e-10
5.41445e-10
-2.73353e-10
6.1397e-10
-2.42947e-10
6.79752e-10
-2.16468e-10
7.39152e-10
-1.93166e-10
7.9255e-10
-1.72456e-10
8.40326e-10
-1.53887e-10
8.82846e-10
-1.37127e-10
9.20463e-10
-1.21938e-10
9.53522e-10
-1.08166e-10
9.82378e-10
-9.57374e-11
1.00741e-09
-8.46539e-11
1.02902e-09
-7.49974e-11
1.0477e-09
-6.69362e-11
1.06403e-09
-6.0737e-11
1.07868e-09
-5.67837e-11
1.09249e-09
-5.56053e-11
1.10651e-09
-5.79174e-11
1.12195e-09
-6.46866e-11
1.14028e-09
-7.725e-11
1.16316e-09
-9.73874e-11
1.18642e-09
-1.40291e-10
1.18194e-09
-2.65857e-10
1.14382e-09
-4.32778e-10
1.0826e-09
-6.0802e-10
1.01074e-09
-7.85537e-10
9.38014e-10
-9.87842e-10
8.67534e-10
-1.20259e-09
7.88832e-10
-1.41402e-09
7.1408e-10
-1.58358e-09
6.54368e-10
-1.72857e-09
6.07069e-10
-1.85376e-09
5.68863e-10
-1.95568e-09
5.37819e-10
-2.03097e-09
5.1181e-10
-2.0829e-09
4.88141e-10
-2.1119e-09
4.63745e-10
-2.11753e-09
4.36267e-10
-2.10201e-09
4.03781e-10
-2.06591e-09
3.64581e-10
-2.00831e-09
3.18e-10
-1.93115e-09
2.65801e-10
-1.83718e-09
2.10586e-10
-1.73146e-09
1.55288e-10
-1.61051e-09
1.06451e-10
-1.48346e-09
7.04305e-11
-1.34815e-09
5.69709e-11
-1.20558e-09
7.54975e-11
-1.04933e-09
1.42122e-10
-8.68406e-10
2.72292e-10
-6.47582e-10
4.74933e-10
-3.79847e-10
7.4578e-10
-6.6349e-11
1.06677e-09
3.01982e-10
1.39101e-09
6.64026e-10
1.68605e-09
1.01868e-09
1.92904e-09
1.30916e-09
2.11663e-09
1.54762e-09
2.25434e-09
1.73007e-09
2.3532e-09
1.85631e-09
2.4256e-09
1.94281e-09
2.48148e-09
2.00249e-09
2.52885e-09
2.04052e-09
2.57179e-09
2.06329e-09
2.61253e-09
2.07434e-09
2.65214e-09
2.07605e-09
2.69101e-09
2.06953e-09
2.7295e-09
2.05432e-09
2.76772e-09
2.03015e-09
2.80565e-09
1.9907e-09
2.84349e-09
1.94183e-09
2.88093e-09
1.87981e-09
2.91843e-09
1.79683e-09
2.95394e-09
1.67725e-09
2.98826e-09
1.54165e-09
3.01856e-09
1.34519e-09
3.04438e-09
1.11452e-09
3.0605e-09
7.85938e-10
3.06666e-09
4.21556e-10
3.05987e-09
1.96184e-11
3.04116e-09
-4.05681e-10
3.01117e-09
-7.79844e-10
2.97511e-09
-1.07658e-09
2.93338e-09
-1.33224e-09
2.88948e-09
-1.51033e-09
2.84316e-09
-1.66514e-09
2.7965e-09
-1.76909e-09
2.74956e-09
-1.85128e-09
2.70297e-09
-1.9231e-09
2.65699e-09
-1.97047e-09
2.61154e-09
-2.00845e-09
2.56531e-09
-2.03553e-09
2.51626e-09
-2.05106e-09
2.46214e-09
-2.05429e-09
2.4008e-09
-2.04262e-09
2.33099e-09
-2.01661e-09
2.25246e-09
-1.97672e-09
2.16625e-09
-1.92534e-09
2.07439e-09
-1.86461e-09
1.97917e-09
-1.79105e-09
1.88376e-09
-1.7079e-09
1.78962e-09
-1.61591e-09
1.69865e-09
-1.51017e-09
1.61466e-09
-1.36946e-09
1.53769e-09
-1.21901e-09
1.47362e-09
-1.01175e-09
1.42456e-09
-7.82708e-10
1.39712e-09
-4.94917e-10
1.3991e-09
-1.69226e-10
1.43322e-09
1.635e-10
1.50138e-09
4.83653e-10
1.60037e-09
8.05746e-10
1.71463e-09
1.07585e-09
1.82971e-09
1.32339e-09
1.93354e-09
1.51989e-09
2.02183e-09
1.69222e-09
2.09361e-09
1.81167e-09
2.15183e-09
1.90318e-09
2.20092e-09
1.97174e-09
2.24445e-09
2.0184e-09
2.28503e-09
2.04848e-09
2.32471e-09
2.0664e-09
2.36449e-09
2.0748e-09
2.40502e-09
2.07416e-09
2.44654e-09
2.06534e-09
2.48918e-09
2.04703e-09
2.53378e-09
2.01779e-09
2.58011e-09
1.9804e-09
2.62877e-09
1.92996e-09
2.68011e-09
1.86568e-09
2.73334e-09
1.7743e-09
2.78949e-09
1.66741e-09
2.84777e-09
1.53732e-09
2.90606e-09
1.34599e-09
2.96419e-09
1.13747e-09
3.01651e-09
8.40792e-10
3.06165e-09
4.98527e-10
3.09459e-09
1.15063e-10
3.11357e-09
-3.06324e-10
3.11705e-09
-7.02933e-10
3.10897e-09
-1.02388e-09
3.08972e-09
-1.28826e-09
3.0621e-09
-1.4923e-09
3.02705e-09
-1.64046e-09
2.98708e-09
-1.7473e-09
2.94256e-09
-1.83855e-09
2.89613e-09
-1.89679e-09
2.84949e-09
-1.94415e-09
2.80335e-09
-1.98129e-09
2.75766e-09
-2.01212e-09
2.71134e-09
-2.03113e-09
2.65477e-09
-2.00735e-09
2.58418e-09
-1.96338e-09
2.50335e-09
-1.92706e-09
2.41259e-09
-1.87831e-09
2.33684e-09
-1.52653e-09
2.26337e-09
-1.3184e-09
2.19169e-09
-1.13802e-09
2.12686e-09
-9.14216e-10
2.07771e-09
-6.97574e-10
2.04708e-09
-4.47479e-10
2.03575e-09
-1.88724e-10
2.03473e-09
-2.47023e-11
2.03049e-09
-1.98653e-12
2.02218e-09
1.2278e-11
2.00981e-09
2.46189e-11
1.99357e-09
3.5276e-11
1.97371e-09
4.45851e-11
1.95045e-09
5.29147e-11
1.92396e-09
6.06216e-11
1.89435e-09
6.80181e-11
1.86165e-09
7.53505e-11
1.82584e-09
8.27807e-11
1.78687e-09
9.0386e-11
1.74469e-09
9.81834e-11
1.69923e-09
1.0618e-10
1.6504e-09
1.1444e-10
1.59801e-09
1.23166e-10
1.54177e-09
1.32781e-10
1.48108e-09
1.4402e-10
1.41501e-09
1.58049e-10
1.34204e-09
1.76641e-10
1.25978e-09
2.02527e-10
1.16459e-09
2.40005e-10
1.05092e-09
2.95982e-10
9.10726e-10
3.81431e-10
7.33843e-10
5.12672e-10
5.12041e-10
7.09791e-10
2.5288e-10
9.83549e-10
9.63767e-12
1.28958e-09
-9.43778e-11
1.42167e-09
8.85434e-10
-8.74603e-11
-2.98219e-10
-1.6905e-10
-5.72151e-10
-2.01704e-10
-6.65448e-10
-1.92193e-10
-6.67661e-10
-1.53602e-10
-6.30131e-10
-9.61222e-11
-5.78011e-10
-2.87381e-11
-5.22526e-10
4.26115e-11
-4.6968e-10
1.14169e-10
-4.21425e-10
1.83647e-10
-3.781e-10
2.49695e-10
-3.394e-10
3.11551e-10
-3.04803e-10
3.68832e-10
-2.73749e-10
4.21389e-10
-2.45723e-10
4.69214e-10
-2.20281e-10
5.12389e-10
-1.97062e-10
5.51054e-10
-1.75792e-10
5.8539e-10
-1.56274e-10
6.15617e-10
-1.38393e-10
6.41995e-10
-1.22115e-10
6.64833e-10
-1.07493e-10
6.84508e-10
-9.46719e-11
7.01478e-10
-8.39065e-11
7.16312e-10
-7.55709e-11
7.2971e-10
-7.01823e-11
7.42535e-10
-6.84298e-11
7.55832e-10
-7.12141e-11
7.70849e-10
-7.97044e-11
7.8903e-10
-9.54307e-11
8.11955e-10
-1.20313e-10
8.36894e-10
-1.65229e-10
8.43074e-10
-2.72037e-10
8.26733e-10
-4.16436e-10
7.96225e-10
-5.77513e-10
7.60465e-10
-7.49777e-10
7.24103e-10
-9.5148e-10
6.87604e-10
-1.16609e-09
6.4357e-10
-1.36999e-09
6.00746e-10
-1.54075e-09
5.65839e-10
-1.69367e-09
5.37033e-10
-1.82496e-09
5.12204e-10
-1.93085e-09
4.90448e-10
-2.00921e-09
4.70313e-10
-2.06277e-09
4.49657e-10
-2.09125e-09
4.26123e-10
-2.09399e-09
3.98315e-10
-2.0742e-09
3.6439e-10
-2.03198e-09
3.23819e-10
-1.96774e-09
2.76846e-10
-1.88418e-09
2.2529e-10
-1.78562e-09
1.71512e-10
-1.67768e-09
1.18618e-10
-1.55761e-09
7.11853e-11
-1.43603e-09
3.35878e-11
-1.31055e-09
1.17273e-11
-1.18372e-09
1.17553e-11
-1.04936e-09
4.42724e-11
-9.00923e-10
1.22027e-10
-7.25336e-10
2.57518e-10
-5.15338e-10
4.58346e-10
-2.67178e-10
7.25621e-10
3.47075e-11
1.03323e-09
3.56413e-10
1.35145e-09
7.00467e-10
1.64558e-09
1.01504e-09
1.89826e-09
1.29494e-09
2.10048e-09
1.52785e-09
2.25389e-09
1.70289e-09
2.36738e-09
1.82932e-09
2.45092e-09
1.91895e-09
2.51449e-09
1.97696e-09
2.56562e-09
2.01216e-09
2.60996e-09
2.03e-09
2.65105e-09
2.03495e-09
2.69057e-09
2.03002e-09
2.72931e-09
2.01558e-09
2.7676e-09
1.99185e-09
2.8055e-09
1.95279e-09
2.84328e-09
1.90405e-09
2.88067e-09
1.84242e-09
2.91812e-09
1.75938e-09
2.95361e-09
1.64176e-09
2.98794e-09
1.50732e-09
3.01827e-09
1.31486e-09
3.04412e-09
1.08867e-09
3.06027e-09
7.69791e-10
3.06641e-09
4.15415e-10
3.05951e-09
2.65183e-11
3.04047e-09
-3.86636e-10
3.00983e-09
-7.49211e-10
2.9728e-09
-1.03954e-09
2.92976e-09
-1.2892e-09
2.88426e-09
-1.46483e-09
2.8362e-09
-1.61708e-09
2.78786e-09
-1.72075e-09
2.7393e-09
-1.80273e-09
2.69092e-09
-1.87471e-09
2.64239e-09
-1.92195e-09
2.59285e-09
-1.95891e-09
2.54021e-09
-1.98289e-09
2.48207e-09
-1.99291e-09
2.41642e-09
-1.98864e-09
2.34214e-09
-1.96833e-09
2.25945e-09
-1.93392e-09
2.16976e-09
-1.88702e-09
2.07551e-09
-1.8311e-09
1.97958e-09
-1.76868e-09
1.88446e-09
-1.69593e-09
1.79277e-09
-1.61622e-09
1.70519e-09
-1.52833e-09
1.62255e-09
-1.42754e-09
1.54727e-09
-1.29417e-09
1.47874e-09
-1.15048e-09
1.42094e-09
-9.53937e-10
1.37535e-09
-7.37127e-10
1.34695e-09
-4.66514e-10
1.34202e-09
-1.64296e-10
1.36311e-09
1.42405e-10
1.41399e-09
4.32776e-10
1.49627e-09
7.23465e-10
1.60194e-09
9.70177e-10
1.72042e-09
1.20492e-09
1.83811e-09
1.40219e-09
1.94644e-09
1.5839e-09
2.03933e-09
1.71878e-09
2.11611e-09
1.8264e-09
2.1796e-09
1.90826e-09
2.23309e-09
1.9649e-09
2.27971e-09
2.00187e-09
2.3225e-09
2.02361e-09
2.36366e-09
2.03364e-09
2.40475e-09
2.03307e-09
2.44653e-09
2.02357e-09
2.48926e-09
2.0043e-09
2.53382e-09
1.97323e-09
2.58005e-09
1.93417e-09
2.62859e-09
1.88141e-09
2.67981e-09
1.81446e-09
2.73292e-09
1.72118e-09
2.78897e-09
1.61136e-09
2.84715e-09
1.47914e-09
2.90533e-09
1.28781e-09
2.96333e-09
1.07947e-09
3.01544e-09
7.88686e-10
3.06022e-09
4.53749e-10
3.09252e-09
8.27613e-11
3.11046e-09
-3.24266e-10
3.11226e-09
-7.04737e-10
3.10175e-09
-1.01337e-09
3.07938e-09
-1.26589e-09
3.04827e-09
-1.46119e-09
3.00989e-09
-1.60208e-09
2.96738e-09
-1.70479e-09
2.9216e-09
-1.79276e-09
2.87531e-09
-1.85051e-09
2.82984e-09
-1.89868e-09
2.78502e-09
-1.93647e-09
2.73968e-09
-1.96677e-09
2.69176e-09
-1.9832e-09
2.63151e-09
-1.9471e-09
2.55564e-09
-1.8875e-09
2.4684e-09
-1.83982e-09
2.37092e-09
-1.78084e-09
2.28908e-09
-1.44469e-09
2.21086e-09
-1.24019e-09
2.13619e-09
-1.06336e-09
2.0699e-09
-8.47924e-10
2.01995e-09
-6.4763e-10
1.98861e-09
-4.16137e-10
1.97618e-09
-1.76292e-10
1.97375e-09
-2.22708e-11
1.96828e-09
3.48551e-12
1.95877e-09
2.1782e-11
1.94505e-09
3.83402e-11
1.92711e-09
5.3217e-11
1.90505e-09
6.66448e-11
1.87901e-09
7.89605e-11
1.84909e-09
9.05363e-11
1.81538e-09
1.01727e-10
1.7779e-09
1.12829e-10
1.73664e-09
1.24046e-10
1.69154e-09
1.35482e-10
1.64256e-09
1.47171e-10
1.5896e-09
1.59138e-10
1.53255e-09
1.71487e-10
1.47121e-09
1.84504e-10
1.40523e-09
1.98764e-10
1.33401e-09
2.15245e-10
1.25658e-09
2.35473e-10
1.17147e-09
2.61749e-10
1.07644e-09
2.97558e-10
9.68169e-10
3.48278e-10
8.41929e-10
4.22222e-10
6.91694e-10
5.31667e-10
5.11939e-10
6.92426e-10
3.03862e-10
9.17869e-10
8.92044e-11
1.19821e-09
-7.09675e-11
1.44975e-09
-9.26332e-11
1.44334e-09
7.92801e-10
-6.24211e-11
-2.35798e-10
-1.38868e-10
-4.95704e-10
-1.89736e-10
-6.1458e-10
-2.08845e-10
-6.48552e-10
-2.01892e-10
-6.37083e-10
-1.76421e-10
-6.03483e-10
-1.38142e-10
-5.60805e-10
-9.23761e-11
-5.15446e-10
-4.28879e-11
-4.70913e-10
7.70662e-12
-4.28694e-10
5.76204e-11
-3.89314e-10
1.05665e-10
-3.52848e-10
1.51078e-10
-3.19162e-10
1.93386e-10
-2.88031e-10
2.32314e-10
-2.59209e-10
2.67728e-10
-2.32476e-10
2.99597e-10
-2.07661e-10
3.27973e-10
-1.8465e-10
3.52977e-10
-1.63397e-10
3.74799e-10
-1.43937e-10
3.93703e-10
-1.26397e-10
4.10042e-10
-1.1101e-10
4.24271e-10
-9.81357e-11
4.36972e-10
-8.82722e-11
4.48873e-10
-8.20836e-11
4.6087e-10
-8.04266e-11
4.74042e-10
-8.43858e-11
4.89656e-10
-9.53183e-11
5.09138e-10
-1.14914e-10
5.3401e-10
-1.45185e-10
5.62677e-10
-1.93896e-10
5.80572e-10
-2.89932e-10
5.85207e-10
-4.21072e-10
5.82155e-10
-5.74461e-10
5.76481e-10
-7.44103e-10
5.68984e-10
-9.43983e-10
5.58519e-10
-1.15562e-09
5.3984e-10
-1.35131e-09
5.19369e-10
-1.52028e-09
5.0168e-10
-1.67598e-09
4.85951e-10
-1.80923e-09
4.70796e-10
-1.91569e-09
4.55881e-10
-1.99429e-09
4.40153e-10
-2.04704e-09
4.21884e-10
-2.07298e-09
3.99357e-10
-2.07147e-09
3.71791e-10
-2.04663e-09
3.37728e-10
-1.99792e-09
2.97378e-10
-1.92739e-09
2.51623e-10
-1.83842e-09
2.02346e-10
-1.73635e-09
1.51721e-10
-1.62706e-09
1.02632e-10
-1.50852e-09
5.82698e-11
-1.39167e-09
2.16198e-11
-1.2739e-09
-3.78247e-12
-1.15832e-09
-1.40239e-11
-1.03911e-09
-2.36274e-12
-9.12584e-10
4.03257e-11
-7.68025e-10
1.25104e-10
-6.00116e-10
2.62484e-10
-4.04558e-10
4.62678e-10
-1.65486e-10
7.18196e-10
1.00894e-10
1.01407e-09
4.04589e-10
1.31949e-09
7.09619e-10
1.61014e-09
1.0043e-09
1.86679e-09
1.2712e-09
2.07834e-09
1.49135e-09
2.24474e-09
1.66291e-09
2.37129e-09
1.7924e-09
2.46664e-09
1.88161e-09
2.53914e-09
1.93965e-09
2.59631e-09
1.97284e-09
2.64418e-09
1.98708e-09
2.68697e-09
1.98723e-09
2.72724e-09
1.97531e-09
2.76623e-09
1.95286e-09
2.80445e-09
1.91457e-09
2.84237e-09
1.86614e-09
2.8798e-09
1.80499e-09
2.91725e-09
1.72193e-09
2.95272e-09
1.60628e-09
2.98703e-09
1.47301e-09
3.01734e-09
1.28455e-09
3.04315e-09
1.06285e-09
3.0592e-09
7.5374e-10
3.06514e-09
4.09474e-10
3.05786e-09
3.38029e-11
3.03814e-09
-3.66923e-10
3.00648e-09
-7.17546e-10
2.96799e-09
-1.00106e-09
2.92309e-09
-1.2443e-09
2.8755e-09
-1.41724e-09
2.82523e-09
-1.56681e-09
2.77453e-09
-1.67004e-09
2.72333e-09
-1.75153e-09
2.67149e-09
-1.82287e-09
2.61802e-09
-1.86848e-09
2.56136e-09
-1.90225e-09
2.49913e-09
-1.92066e-09
2.42927e-09
-1.92305e-09
2.35083e-09
-1.91019e-09
2.26422e-09
-1.88171e-09
2.17133e-09
-1.84102e-09
2.07489e-09
-1.79058e-09
1.9781e-09
-1.73431e-09
1.88383e-09
-1.6744e-09
1.79394e-09
-1.60605e-09
1.70998e-09
-1.53227e-09
1.63157e-09
-1.44993e-09
1.55852e-09
-1.3545e-09
1.49225e-09
-1.22791e-09
1.43154e-09
-1.08976e-09
1.37963e-09
-9.02029e-10
1.33761e-09
-6.95107e-10
1.30955e-09
-4.38457e-10
1.30069e-09
-1.55436e-10
1.3128e-09
1.30298e-10
1.34948e-09
3.96096e-10
1.41403e-09
6.58918e-10
1.50364e-09
8.80567e-10
1.61331e-09
1.09525e-09
1.7325e-09
1.28299e-09
1.85164e-09
1.46477e-09
1.96142e-09
1.609e-09
2.05712e-09
1.7307e-09
2.13815e-09
1.82723e-09
2.20603e-09
1.89702e-09
2.26337e-09
1.94453e-09
2.31345e-09
1.97353e-09
2.35899e-09
1.9881e-09
2.4024e-09
1.98966e-09
2.44524e-09
1.98073e-09
2.48844e-09
1.9611e-09
2.5332e-09
1.92847e-09
2.57946e-09
1.88791e-09
2.62795e-09
1.83293e-09
2.67905e-09
1.76336e-09
2.73201e-09
1.66822e-09
2.78789e-09
1.55549e-09
2.84587e-09
1.42116e-09
2.9038e-09
1.22988e-09
2.96148e-09
1.02179e-09
3.01311e-09
7.37055e-10
3.05716e-09
4.097e-10
3.08835e-09
5.15703e-11
3.10461e-09
-3.40523e-10
3.10402e-09
-7.04149e-10
3.09044e-09
-9.99799e-10
3.06463e-09
-1.24008e-09
3.03016e-09
-1.42673e-09
2.98915e-09
-1.56107e-09
2.9452e-09
-1.66083e-09
2.8993e-09
-1.74687e-09
2.85386e-09
-1.80507e-09
2.80932e-09
-1.85414e-09
2.76439e-09
-1.89154e-09
2.71693e-09
-1.91931e-09
2.66444e-09
-1.9307e-09
2.59786e-09
-1.88051e-09
2.51497e-09
-1.8046e-09
2.42081e-09
-1.74567e-09
2.31763e-09
-1.67766e-09
2.23186e-09
-1.35892e-09
2.15162e-09
-1.15995e-09
2.07666e-09
-9.88408e-10
2.01117e-09
-7.82431e-10
1.9621e-09
-5.9856e-10
1.93116e-09
-3.85199e-10
1.91833e-09
-1.6346e-10
1.915e-09
-1.89463e-11
1.90878e-09
9.70869e-12
1.89862e-09
3.19387e-11
1.88423e-09
5.27378e-11
1.86545e-09
7.19941e-11
1.84227e-09
8.9824e-11
1.81472e-09
1.06506e-10
1.78286e-09
1.22398e-10
1.74672e-09
1.37874e-10
1.70628e-09
1.53263e-10
1.66153e-09
1.68801e-10
1.61239e-09
1.84622e-10
1.55878e-09
2.0078e-10
1.50059e-09
2.17325e-10
1.43767e-09
2.34405e-10
1.36979e-09
2.5239e-10
1.29656e-09
2.71992e-10
1.2174e-09
2.94405e-10
1.13141e-09
3.21464e-10
1.03725e-09
3.55904e-10
9.32998e-10
4.01813e-10
8.15923e-10
4.65352e-10
6.82516e-10
5.55629e-10
5.292e-10
6.84982e-10
3.55139e-10