/*--------------------------------*- C++ -*----------------------------------*\
| =========                 |                                                 |
| \\      /  F ield         | OpenFOAM: The Open Source CFD Toolbox           |
|  \\    /   O peration     | Version:  2506                                  |
|   \\  /    A nd           | Website:  www.openfoam.com                      |
|    \\/     M anipulation  |                                                 |
\*---------------------------------------------------------------------------*/
FoamFile
{
    version     2.0;
    format      ascii;
    arch        "LSB;label=32;scalar=64";
    class       volVectorField;
    location    "4.6";
    object      U;
}
// * * * * * * * * * * * * * * * * * * * * * * * * * * * * * * * * * * * * * //

dimensions      [0 1 -1 0 0 0 0];

internalField   nonuniform List<vector> 
4000
(
(0.00276105 -0.00119687 5.27963e-23)
(0.00377251 -0.000966326 0)
(0.00527883 -0.000475846 1.09327e-23)
(0.00638285 -0.000246072 6.63251e-24)
(0.00705302 -0.000148679 3.92063e-24)
(0.00749741 -9.18984e-05 0)
(0.00781779 -5.75596e-05 1.26428e-24)
(0.00805485 -3.7875e-05 7.24433e-25)
(0.00823462 -2.62661e-05 0)
(0.00837527 -1.89714e-05 0)
(0.00848808 -1.4163e-05 -3.76727e-24)
(0.00858006 -1.08558e-05 8.0865e-24)
(0.00865588 -8.4726e-06 -4.18634e-24)
(0.00871879 -6.68057e-06 5.06244e-24)
(0.00877113 -5.28948e-06 -5.04438e-24)
(0.00881461 -4.18763e-06 -2.47283e-25)
(0.00885055 -3.30787e-06 -8.49605e-24)
(0.00887998 -2.61006e-06 8.46866e-24)
(0.00890378 -2.0714e-06 -6.38455e-25)
(0.00892274 -1.68096e-06 0)
(0.00893756 -1.43681e-06 0)
(0.00894897 -1.34474e-06 1.33725e-24)
(0.00895773 -1.41842e-06 1.63507e-24)
(0.00896471 -1.68124e-06 0)
(0.00897093 -2.1718e-06 2.29179e-24)
(0.00897768 -2.95526e-06 2.62625e-24)
(0.00898662 -4.14496e-06 0)
(0.00900004 -5.95496e-06 0)
(0.00902083 -8.68444e-06 -1.08122e-22)
(0.00905661 -1.31738e-05 1.11146e-22)
(0.00911948 -2.64916e-05 0)
(0.00913596 -6.6256e-05 1.10005e-22)
(0.00905232 -0.000150788 -1.18439e-22)
(0.00887435 -0.000289053 -7.72098e-23)
(0.00863096 -0.000490517 -2.07898e-22)
(0.00834371 -0.000767738 1.92678e-21)
(0.00808463 -0.00112602 -2.33957e-22)
(0.00779321 -0.00164359 -7.93474e-22)
(0.00738346 -0.00231076 0)
(0.00694009 -0.00296914 3.95274e-22)
(0.00659062 -0.00352813 -4.00849e-22)
(0.0063303 -0.00397919 2.94495e-21)
(0.00613591 -0.00432547 0)
(0.00599886 -0.00456602 2.19525e-21)
(0.00590798 -0.00470799 -8.63386e-22)
(0.00584695 -0.00476458 1.20873e-21)
(0.00580447 -0.00474535 0)
(0.0057752 -0.0046634 -1.11643e-21)
(0.00574329 -0.00453429 -1.27531e-21)
(0.00569562 -0.0043643 -1.02796e-21)
(0.00561591 -0.00415802 0)
(0.00552463 -0.00389274 0)
(0.00542983 -0.00358009 -1.33528e-22)
(0.00534732 -0.00318056 1.01748e-21)
(0.00534794 -0.0026787 7.27883e-23)
(0.00552922 -0.00205272 -3.8506e-22)
(0.00595814 -0.0013586 -9.98224e-23)
(0.00668127 -0.000672223 -6.97826e-23)
(0.00763094 -0.000137921 0)
(0.00855282 0.00014253 1.32071e-22)
(0.00924495 0.000215949 2.97038e-22)
(0.00966954 0.000168192 -1.03216e-22)
(0.00988438 9.83209e-05 -6.38332e-22)
(0.00997586 4.28724e-05 4.44792e-22)
(0.0100093 1.26619e-05 0)
(0.0100152 -7.86678e-07 0)
(0.0100131 -4.99906e-06 0)
(0.0100095 -4.94121e-06 6.10171e-24)
(0.0100062 -3.8088e-06 7.55128e-23)
(0.0100039 -2.6754e-06 2.17452e-23)
(0.0100025 -1.84769e-06 0)
(0.0100016 -1.25269e-06 -5.28344e-24)
(0.0100011 -8.55551e-07 1.10759e-24)
(0.0100008 -5.90969e-07 9.64175e-25)
(0.0100006 -4.31955e-07 2.49933e-24)
(0.0100005 -3.46439e-07 -4.97664e-24)
(0.0100005 -3.07867e-07 -7.16348e-24)
(0.0100005 -3.00178e-07 -8.01838e-24)
(0.0100005 -3.101e-07 0)
(0.0100005 -3.27601e-07 0)
(0.0100006 -3.45327e-07 4.23175e-25)
(0.0100007 -3.6104e-07 1.38123e-23)
(0.0100007 -3.68975e-07 0)
(0.0100008 -3.68333e-07 -1.61783e-23)
(0.0100009 -3.52933e-07 1.73167e-23)
(0.0100011 -3.19094e-07 0)
(0.0100014 -2.49831e-07 0)
(0.0100019 -1.12938e-07 1.19419e-24)
(0.0100026 1.33084e-07 4.19767e-24)
(0.010004 6.32616e-07 -1.05846e-23)
(0.010006 1.5464e-06 9.21762e-26)
(0.010009 3.10319e-06 2.22116e-24)
(0.0100127 5.47444e-06 -1.82176e-24)
(0.0100168 8.8491e-06 0)
(0.0100197 1.23164e-05 4.68686e-23)
(0.0100209 1.49703e-05 6.64446e-23)
(0.0100195 1.55986e-05 7.59367e-23)
(0.0100152 1.38209e-05 6.13796e-24)
(0.0100075 9.41564e-06 1.16933e-22)
(0.00999886 1.71192e-06 1.38705e-22)
(0.00999164 -7.07766e-06 -2.21139e-24)
(0.00998824 -1.48233e-05 1.65991e-22)
(0.00998908 -2.0225e-05 3.84523e-22)
(0.00999247 -2.38122e-05 1.1452e-23)
(0.0099927 -2.88301e-05 3.06712e-22)
(0.00998231 -4.08726e-05 0)
(0.00995315 -6.61422e-05 -5.02403e-22)
(0.00989706 -0.000109498 -5.55124e-22)
(0.00980948 -0.000171765 -4.02659e-23)
(0.00968849 -0.000249286 0)
(0.00953392 -0.000333127 -6.67173e-22)
(0.00936194 -0.0004042 5.6954e-22)
(0.00918642 -0.000447131 0)
(0.00903886 -0.000435736 5.05489e-22)
(0.00895986 -0.000366464 2.79676e-23)
(0.00898562 -0.000241911 -1.73546e-22)
(0.00914485 -9.63073e-05 0)
(0.00939081 1.35699e-05 -1.16395e-22)
(0.00963268 6.71337e-05 1.43427e-23)
(0.00981583 6.30904e-05 -1.60059e-24)
(0.00992356 4.28009e-05 -1.19621e-23)
(0.00997666 2.12407e-05 2.59198e-22)
(0.00999913 6.993e-06 -1.86769e-22)
(0.0100063 -2.69154e-07 -6.58724e-24)
(0.0100074 -3.00566e-06 -8.64485e-23)
(0.0100063 -3.2177e-06 1.23065e-22)
(0.0100047 -2.80666e-06 -3.97732e-23)
(0.0100033 -2.21536e-06 3.53375e-23)
(0.0100023 -1.6857e-06 2.04066e-24)
(0.0100016 -1.24652e-06 1.6591e-23)
(0.0100011 -9.09419e-07 0)
(0.0100008 -6.64994e-07 -8.4375e-24)
(0.0100006 -4.98996e-07 -1.54801e-25)
(0.0100005 -3.93678e-07 -4.7952e-24)
(0.0100004 -3.35857e-07 0)
(0.0100004 -3.12367e-07 0)
(0.0100004 -3.12718e-07 -2.0136e-25)
(0.0100005 -3.28029e-07 1.05289e-24)
(0.0100005 -3.53817e-07 0)
(0.0100006 -3.84541e-07 0)
(0.0100007 -4.12911e-07 5.28662e-24)
(0.0100008 -4.38984e-07 -1.76958e-24)
(0.010001 -4.53579e-07 9.21261e-24)
(0.0100012 -4.5219e-07 0)
(0.0100016 -4.21095e-07 -7.35745e-24)
(0.0100021 -3.24971e-07 -5.5981e-24)
(0.0100029 -1.21438e-07 4.67744e-24)
(0.0100044 2.95692e-07 -3.28512e-24)
(0.0100065 1.08174e-06 0)
(0.0100096 2.45597e-06 5.22936e-24)
(0.0100134 4.42642e-06 1.68636e-24)
(0.0100168 6.88384e-06 -4.91288e-23)
(0.0100195 8.42154e-06 9.83264e-24)
(0.0100184 8.14205e-06 -6.22545e-24)
(0.0100124 5.05409e-06 6.38972e-23)
(0.00999819 -4.39483e-06 2.57311e-23)
(0.00997647 -2.13962e-05 0)
(0.00994924 -4.5953e-05 0)
(0.00991692 -7.6863e-05 0)
(0.00988476 -0.000111017 -2.20217e-22)
(0.00985478 -0.000143662 1.25849e-23)
(0.00982884 -0.000170636 -4.02277e-23)
(0.00978859 -0.000192635 -6.11736e-23)
(0.00974111 -0.000192486 0)
(0.00974115 -0.000169493 2.9506e-22)
(0.00975129 -0.000141369 5.47011e-22)
(0.00975648 -0.000111601 -1.02236e-23)
(0.00975959 -8.13473e-05 9.55778e-23)
(0.00976456 -5.11514e-05 3.36991e-22)
(0.0097782 -2.42034e-05 1.22182e-22)
(0.00979727 -6.64337e-06 0)
(0.00980315 1.01039e-06 2.45351e-24)
(0.00979259 4.18347e-06 0)
(0.00977249 5.4544e-06 3.06584e-24)
(0.00974727 6.11672e-06 3.45477e-24)
(0.00971844 6.47118e-06 2.64644e-22)
(0.00968676 6.84359e-06 -2.64916e-22)
(0.00965285 7.2409e-06 -1.64899e-22)
(0.009617 7.74175e-06 1.70288e-22)
(0.00957933 8.24341e-06 -1.99946e-22)
(0.00953973 8.7047e-06 4.42036e-22)
(0.00949809 9.13248e-06 -2.21413e-22)
(0.00945431 9.53412e-06 0)
(0.00940832 9.9139e-06 9.281e-24)
(0.00936004 1.02818e-05 -1.01923e-23)
(0.00930935 1.06616e-05 3.81685e-22)
(0.009256 1.10991e-05 -3.58105e-22)
(0.00919948 1.16721e-05 4.40223e-22)
(0.00913884 1.25028e-05 -4.25551e-22)
(0.00907243 1.37808e-05 2.7562e-22)
(0.00899755 1.5806e-05 -2.42831e-22)
(0.00890975 1.90806e-05 1.85055e-23)
(0.00880161 2.45096e-05 2.01847e-23)
(0.00866039 3.38705e-05 0)
(0.00846291 5.09614e-05 2.45666e-23)
(0.00816458 8.42709e-05 2.77136e-23)
(0.00767006 0.000154197 3.17153e-22)
(0.00675077 0.000327168 -3.26658e-22)
(0.00503318 0.000826891 0)
(0.00356291 0.00137674 6.97737e-23)
(-1.37417e-05 -0.0024338 -2.66648e-23)
(6.37143e-05 -0.00235315 7.26926e-24)
(0.00114171 -0.00168941 -1.26969e-23)
(0.00219808 -0.00121534 3.71455e-23)
(0.00304756 -0.000880502 -6.65576e-23)
(0.00373705 -0.000642877 1.23451e-23)
(0.00430262 -0.000480989 2.03507e-23)
(0.00476619 -0.000371053 -4.56164e-24)
(0.00514803 -0.000294062 -2.64983e-24)
(0.00546574 -0.000238209 -1.92226e-24)
(0.00573255 -0.000196388 -1.50403e-24)
(0.00595818 -0.000164093 -4.6156e-24)
(0.00614992 -0.000138399 3.44817e-24)
(0.00631334 -0.000117404 -5.38136e-25)
(0.0064527 -9.98569e-05 -8.59374e-25)
(0.00657135 -8.49191e-05 4.19146e-24)
(0.00667195 -7.20263e-05 -2.73133e-24)
(0.00675671 -6.08011e-05 8.66555e-24)
(0.00682747 -5.10022e-05 1.66582e-23)
(0.00688591 -4.24931e-05 -2.15055e-23)
(0.00693355 -3.52259e-05 2.00912e-24)
(0.0069719 -2.92356e-05 5.1782e-23)
(0.00700254 -2.4643e-05 -5.22678e-23)
(0.00702721 -2.1669e-05 -6.97226e-23)
(0.00704792 -2.06625e-05 7.09794e-23)
(0.00706706 -2.2155e-05 2.71718e-24)
(0.00708765 -2.69596e-05 1.08328e-22)
(0.00711351 -3.63597e-05 1.62792e-24)
(0.00714915 -5.25347e-05 -2.37184e-22)
(0.00720392 -7.90767e-05 -3.25929e-24)
(0.00729294 -0.000123411 1.19114e-22)
(0.00732952 -0.000210905 7.22852e-23)
(0.00723744 -0.00036496 1.47625e-22)
(0.0070256 -0.000600149 6.08147e-23)
(0.00674515 -0.000930081 -2.12152e-22)
(0.00643989 -0.00137399 -7.07983e-22)
(0.00616496 -0.00194546 -1.29694e-22)
(0.00587472 -0.00268076 8.89953e-22)
(0.00550255 -0.00351085 -2.73193e-22)
(0.00512503 -0.00430198 -6.58001e-22)
(0.00483698 -0.00499156 -9.99756e-22)
(0.00461586 -0.00556414 -1.37675e-21)
(0.00443995 -0.00600987 0)
(0.00430427 -0.00632828 -2.52778e-21)
(0.00419824 -0.00652954 1.20087e-21)
(0.00410698 -0.00662509 -1.1604e-21)
(0.00401866 -0.00662528 1.17707e-21)
(0.00392597 -0.00654514 0)
(0.00381195 -0.00639966 2.84579e-23)
(0.00366346 -0.00619398 1.19444e-21)
(0.00347217 -0.00593139 -1.35833e-21)
(0.0032494 -0.00560142 1.57328e-22)
(0.00301161 -0.00521213 1.31769e-21)
(0.00277023 -0.00473063 -2.72983e-22)
(0.00259927 -0.00414332 1.00252e-21)
(0.00257715 -0.00342701 0)
(0.00280279 -0.00261842 9.00385e-23)
(0.0033754 -0.00173285 7.05049e-23)
(0.00437157 -0.000879875 1.91329e-23)
(0.00568122 -0.000206488 -9.94142e-23)
(0.00705734 0.000182817 -4.11908e-22)
(0.00824501 0.000331273 -8.20691e-22)
(0.0090739 0.000291556 -6.76416e-22)
(0.00957335 0.000190502 -5.1284e-22)
(0.00983881 9.7899e-05 3.85096e-23)
(0.00995589 3.71506e-05 -3.76372e-23)
(0.00999934 5.67689e-06 0)
(0.0100123 -5.85805e-06 0)
(0.0100139 -9.28001e-06 -1.2053e-22)
(0.010012 -8.67153e-06 4.34271e-23)
(0.0100088 -6.83939e-06 2.16128e-24)
(0.0100062 -4.94639e-06 -1.84412e-23)
(0.0100041 -3.47493e-06 -6.8183e-24)
(0.0100028 -2.40601e-06 2.31819e-25)
(0.0100019 -1.70757e-06 -1.89439e-24)
(0.0100013 -1.30022e-06 -6.08097e-26)
(0.0100011 -1.09007e-06 -6.43585e-24)
(0.010001 -1.01892e-06 8.73726e-24)
(0.010001 -1.03698e-06 5.57261e-25)
(0.0100011 -1.10385e-06 1.10615e-23)
(0.0100012 -1.1901e-06 -1.26085e-23)
(0.0100014 -1.27946e-06 0)
(0.0100017 -1.3535e-06 0)
(0.010002 -1.40669e-06 0)
(0.0100024 -1.42822e-06 -1.8834e-23)
(0.010003 -1.42032e-06 6.01942e-25)
(0.0100038 -1.37129e-06 -1.37935e-24)
(0.010005 -1.25632e-06 1.50202e-24)
(0.0100068 -1.0022e-06 -1.54718e-24)
(0.0100093 -4.44331e-07 2.68315e-23)
(0.0100125 7.07653e-07 -1.80821e-24)
(0.0100163 2.8515e-06 5.9936e-24)
(0.0100196 6.22598e-06 3.85757e-23)
(0.0100218 1.07532e-05 -5.00812e-23)
(0.0100211 1.5437e-05 6.14628e-23)
(0.0100172 1.8657e-05 -6.4254e-23)
(0.0100091 1.83806e-05 8.5318e-23)
(0.00999808 1.44381e-05 1.07506e-22)
(0.00998633 5.03659e-06 -1.18767e-22)
(0.00997629 -8.58532e-06 -1.30794e-22)
(0.00996928 -2.40666e-05 0)
(0.00996433 -3.9065e-05 1.80477e-22)
(0.00995727 -5.27745e-05 -1.96584e-22)
(0.00994047 -6.726e-05 9.1809e-24)
(0.00990435 -8.79929e-05 1.92904e-23)
(0.00983951 -0.000122686 0)
(0.00973786 -0.000178403 9.98829e-22)
(0.00959504 -0.000258362 1.1966e-21)
(0.00941226 -0.000359472 6.00267e-22)
(0.00919443 -0.000472542 5.57799e-22)
(0.00894714 -0.000582415 6.79392e-22)
(0.00868932 -0.00066661 -1.07511e-21)
(0.00843801 -0.000709275 2.94379e-23)
(0.00822058 -0.000687779 -2.5733e-22)
(0.00807479 -0.000603379 5.12545e-24)
(0.00803601 -0.000457395 7.60709e-23)
(0.00815195 -0.000271202 1.43961e-23)
(0.00842869 -8.83488e-05 8.33701e-23)
(0.00881335 4.55028e-05 1.27793e-23)
(0.00922292 0.000113799 -1.23242e-23)
(0.00955613 0.000109493 0)
(0.00977993 7.80741e-05 -2.86799e-22)
(0.00990813 4.21173e-05 -5.87781e-24)
(0.00997185 1.57676e-05 1.43093e-23)
(0.0099981 1.09399e-06 9.70014e-23)
(0.0100071 -5.25303e-06 -7.44813e-23)
(0.0100095 -7.22466e-06 -6.20129e-23)
(0.0100088 -6.82014e-06 -8.30617e-23)
(0.0100072 -5.70305e-06 -6.01157e-23)
(0.0100053 -4.42972e-06 -1.76032e-23)
(0.0100039 -3.31551e-06 -2.38252e-24)
(0.0100028 -2.43893e-06 -1.28697e-23)
(0.010002 -1.80415e-06 1.70402e-23)
(0.0100015 -1.37408e-06 -1.26832e-24)
(0.0100012 -1.11838e-06 -3.37231e-24)
(0.010001 -9.98859e-07 0)
(0.0100009 -9.79992e-07 0)
(0.010001 -1.02922e-06 -9.59102e-25)
(0.0100011 -1.12633e-06 -6.99964e-25)
(0.0100013 -1.25451e-06 -2.36308e-24)
(0.0100016 -1.39389e-06 -1.40873e-24)
(0.0100019 -1.53623e-06 -3.6512e-25)
(0.0100024 -1.66324e-06 3.3303e-24)
(0.0100031 -1.76606e-06 -4.58214e-24)
(0.010004 -1.82666e-06 7.81098e-24)
(0.0100053 -1.80785e-06 0)
(0.0100071 -1.61544e-06 3.79855e-24)
(0.0100095 -1.12412e-06 -3.73212e-24)
(0.0100123 -1.67387e-07 1.02149e-23)
(0.0100152 1.60814e-06 0)
(0.0100171 4.33258e-06 0)
(0.0100155 7.28516e-06 0)
(0.0100084 8.88151e-06 0)
(0.00999251 6.77599e-06 1.66658e-22)
(0.0099676 -2.10322e-06 4.41859e-23)
(0.0099339 -2.16936e-05 2.62946e-23)
(0.00989386 -5.34139e-05 -3.05804e-23)
(0.00985082 -9.62803e-05 -1.37596e-22)
(0.00980875 -0.00014688 2.43928e-23)
(0.00977064 -0.000199175 1.05832e-22)
(0.00973595 -0.000245411 1.57304e-23)
(0.00970181 -0.000278263 1.52743e-23)
(0.00965371 -0.000291493 -4.58079e-23)
(0.00960639 -0.000277414 -1.84368e-23)
(0.00958978 -0.000248707 3.56962e-22)
(0.00957329 -0.000215581 -3.20305e-22)
(0.00954853 -0.000177669 0)
(0.00952252 -0.000135328 0)
(0.0095018 -9.04319e-05 -1.23163e-22)
(0.0094942 -4.73417e-05 -1.49783e-22)
(0.0094971 -1.33056e-05 1.4153e-22)
(0.00948815 9.04482e-06 -2.71793e-24)
(0.00945794 2.35511e-05 2.14494e-22)
(0.00941108 3.31386e-05 -2.11531e-22)
(0.00935252 3.96428e-05 -1.16903e-23)
(0.00928492 4.43091e-05 -3.02847e-22)
(0.00920982 4.80977e-05 -3.25406e-23)
(0.00912828 5.1451e-05 1.58507e-22)
(0.00904093 5.47193e-05 1.69563e-22)
(0.008948 5.80034e-05 2.27851e-22)
(0.0088495 6.1363e-05 -2.26705e-22)
(0.0087453 6.48442e-05 8.80968e-24)
(0.00863523 6.84531e-05 -3.18499e-22)
(0.00851913 7.21824e-05 3.29233e-22)
(0.00839686 7.60655e-05 1.13589e-23)
(0.00826817 8.02377e-05 3.82569e-22)
(0.00813258 8.50009e-05 -4.61696e-22)
(0.00798905 9.08965e-05 4.99396e-22)
(0.00783567 9.88005e-05 -5.48617e-22)
(0.00766909 0.000110081 2.42047e-22)
(0.00748379 0.000126901 -3.14593e-22)
(0.00727084 0.000152825 2.11712e-23)
(0.00701562 0.000194078 -6.85561e-23)
(0.00669387 0.000262194 -4.23845e-22)
(0.00626436 0.000379736 4.5335e-22)
(0.00565701 0.000592509 -9.41075e-23)
(0.00475549 0.000993716 -3.65362e-23)
(0.00338169 0.00175661 1.28078e-22)
(0.00140547 0.00302512 0)
(0.000187715 0.00353192 -1.88353e-22)
(-0.000239154 -0.00208604 0)
(-0.000640364 -0.00257565 -7.01549e-23)
(-0.000322415 -0.00226877 3.03732e-23)
(0.000233402 -0.00186906 1.3817e-23)
(0.000837098 -0.0015076 -3.14423e-23)
(0.00141886 -0.00121091 3.20672e-23)
(0.00195355 -0.000981283 -3.17736e-23)
(0.0024313 -0.000805995 3.88786e-24)
(0.00285214 -0.000670848 2.76402e-24)
(0.00322089 -0.000564942 8.43881e-24)
(0.00354338 -0.000480459 1.4862e-24)
(0.00382517 -0.000411767 5.26684e-24)
(0.00407119 -0.000354826 -9.36989e-24)
(0.00428568 -0.000306767 1.90286e-23)
(0.00447225 -0.000265547 -6.61665e-24)
(0.00463394 -0.000229712 2.17159e-24)
(0.00477332 -0.000198228 -1.58295e-24)
(0.00489263 -0.000170375 -6.94589e-25)
(0.00499387 -0.000145675 -1.73176e-23)
(0.00507884 -0.00012385 1.47345e-23)
(0.00514932 -0.000104798 -2.08524e-24)
(0.00520707 -8.85859e-05 -7.48259e-24)
(0.00525397 -7.54568e-05 5.91042e-23)
(0.00529213 -6.58519e-05 -6.31093e-23)
(0.00532396 -6.04566e-05 -8.54225e-23)
(0.00535236 -6.02797e-05 6.79614e-23)
(0.00538084 -6.67869e-05 1.10745e-22)
(0.00541371 -8.21313e-05 -1.02986e-22)
(0.00545582 -0.000109668 0)
(0.00551584 -0.000154494 0)
(0.00560789 -0.000224748 0)
(0.00565744 -0.000347365 0)
(0.00559468 -0.000547063 -3.48986e-22)
(0.00543105 -0.000838841 -2.81484e-22)
(0.00522182 -0.00123653 2.41529e-22)
(0.00500907 -0.00175835 -1.91508e-22)
(0.00482798 -0.00241436 -4.4879e-22)
(0.00464098 -0.0032045 1.46692e-22)
(0.00440285 -0.00404189 5.73622e-22)
(0.00417178 -0.00482701 1.39196e-22)
(0.0040003 -0.00552004 1.76465e-21)
(0.00386336 -0.00610315 0)
(0.0037461 -0.00656386 -8.48362e-22)
(0.00364733 -0.00689989 -8.75397e-22)
(0.00355904 -0.00711555 1.20711e-22)
(0.00346837 -0.00722222 7.97719e-22)
(0.0033652 -0.00722795 -1.90516e-21)
(0.00324135 -0.00714856 -8.79352e-22)
(0.00308436 -0.00699544 -1.94285e-22)
(0.00288356 -0.0067845 -2.83773e-24)
(0.00263777 -0.00650082 3.97425e-22)
(0.00235694 -0.00615027 -2.92632e-22)
(0.00205684 -0.00573746 -1.19708e-22)
(0.00175325 -0.00524274 1.86034e-23)
(0.00150267 -0.00466265 9.46599e-22)
(0.00136078 -0.00398597 -3.18442e-22)
(0.00140521 -0.00323324 -2.55462e-22)
(0.00171819 -0.00240699 9.0046e-23)
(0.00240286 -0.0015644 -1.94979e-23)
(0.00347152 -0.000795096 0)
(0.00482194 -0.000191063 -6.82723e-23)
(0.0062847 0.000194581 6.37823e-23)
(0.00757703 0.000349947 9.07469e-23)
(0.00856943 0.000327594 4.97252e-22)
(0.00924463 0.000244517 -3.59552e-22)
(0.00965045 0.000148123 2.76477e-22)
(0.00986531 7.12209e-05 0)
(0.00996299 2.52305e-05 0)
(0.00999934 2.45355e-06 1.58593e-22)
(0.0100107 -5.72151e-06 -1.00613e-22)
(0.0100123 -7.36542e-06 0)
(0.0100111 -6.78176e-06 1.34929e-23)
(0.0100085 -5.42273e-06 -2.82636e-24)
(0.0100061 -3.92913e-06 -4.55306e-24)
(0.0100042 -2.79476e-06 -9.01476e-25)
(0.0100028 -2.0518e-06 -1.68131e-24)
(0.010002 -1.6289e-06 1.02239e-23)
(0.0100015 -1.4585e-06 -3.6479e-25)
(0.0100013 -1.47132e-06 -5.8194e-25)
(0.0100013 -1.60102e-06 -1.93279e-23)
(0.0100015 -1.79753e-06 2.30459e-23)
(0.0100018 -2.02595e-06 4.38581e-25)
(0.0100023 -2.25818e-06 5.05733e-26)
(0.0100028 -2.47942e-06 -4.85963e-25)
(0.0100035 -2.67961e-06 1.82953e-23)
(0.0100045 -2.86619e-06 0)
(0.0100058 -3.03795e-06 -5.35813e-24)
(0.0100075 -3.16818e-06 -9.18397e-26)
(0.0100098 -3.17001e-06 -4.75183e-24)
(0.0100127 -2.8117e-06 -2.7008e-23)
(0.0100159 -1.75135e-06 -1.79817e-24)
(0.0100187 5.42563e-07 -6.93236e-23)
(0.0100199 4.35434e-06 -3.87374e-23)
(0.010018 9.32635e-06 9.96921e-23)
(0.0100123 1.42199e-05 9.48973e-24)
(0.0100027 1.68779e-05 -8.14026e-23)
(0.0099899 1.54064e-05 -1.80437e-22)
(0.00997593 8.09927e-06 -1.05127e-22)
(0.00996279 -5.76311e-06 0)
(0.00995118 -2.52088e-05 1.39847e-22)
(0.00993914 -4.81217e-05 0)
(0.00992125 -7.25853e-05 -1.81739e-22)
(0.00988913 -9.84544e-05 3.99608e-24)
(0.00983292 -0.000128421 2.84594e-22)
(0.00974378 -0.000167884 -3.43158e-22)
(0.00961578 -0.000223279 0)
(0.00944633 -0.000299166 -9.76565e-22)
(0.00923807 -0.000395313 -5.71461e-22)
(0.00899842 -0.000505301 -9.03892e-23)
(0.00873666 -0.000617468 -6.09454e-22)
(0.00846124 -0.000715992 0)
(0.00818981 -0.000782375 4.7022e-22)
(0.00793586 -0.000803864 0)
(0.00771836 -0.000770844 -1.45994e-22)
(0.00756261 -0.000684771 6.07904e-24)
(0.00749213 -0.000549917 0)
(0.00754459 -0.000379949 0)
(0.00774431 -0.000200395 -8.49525e-23)
(0.00808408 -3.98679e-05 0)
(0.00852938 7.57542e-05 9.60544e-24)
(0.00898472 0.000128328 -1.79682e-23)
(0.00937087 0.000122867 8.41904e-24)
(0.00965072 9.32006e-05 0)
(0.00983149 5.5849e-05 0)
(0.00993331 2.56853e-05 1.30891e-22)
(0.00998211 6.64285e-06 -1.04291e-22)
(0.010002 -3.15073e-06 1.36362e-22)
(0.0100087 -6.48492e-06 4.523e-23)
(0.01001 -6.99852e-06 -2.45514e-24)
(0.0100091 -6.3806e-06 2.53391e-23)
(0.0100074 -5.16353e-06 -2.08032e-24)
(0.0100057 -3.93338e-06 1.34803e-23)
(0.0100041 -2.90958e-06 4.12924e-24)
(0.010003 -2.14008e-06 -3.11889e-25)
(0.0100021 -1.63699e-06 -7.44959e-25)
(0.0100016 -1.36563e-06 -1.07749e-24)
(0.0100013 -1.28677e-06 2.19531e-24)
(0.0100011 -1.35726e-06 5.09412e-25)
(0.0100012 -1.5372e-06 0)
(0.0100014 -1.79771e-06 3.07368e-24)
(0.0100018 -2.11161e-06 4.86631e-24)
(0.0100023 -2.45883e-06 -1.20476e-24)
(0.010003 -2.82214e-06 -5.4804e-24)
(0.0100039 -3.18725e-06 -4.4354e-24)
(0.0100051 -3.53876e-06 4.77958e-24)
(0.0100067 -3.83856e-06 1.35993e-24)
(0.0100086 -3.94281e-06 3.53139e-25)
(0.0100106 -3.65334e-06 -1.3498e-23)
(0.0100121 -2.73058e-06 -1.02415e-23)
(0.0100114 -7.70354e-07 -3.70579e-23)
(0.0100067 2.32785e-06 1.86375e-23)
(0.00999527 5.61383e-06 -1.05742e-23)
(0.00997542 6.87315e-06 -5.96685e-23)
(0.00994581 2.83632e-06 -1.47401e-22)
(0.00990761 -1.03281e-05 -9.24898e-23)
(0.00986354 -3.61537e-05 0)
(0.00981749 -7.56152e-05 -7.26852e-23)
(0.00977341 -0.000126744 2.34642e-22)
(0.00973346 -0.000184286 -3.99193e-23)
(0.00969694 -0.00024059 0)
(0.00966029 -0.000287172 -8.10388e-23)
(0.0096197 -0.000316835 0)
(0.00956048 -0.000324505 0)
(0.00950215 -0.000311262 -1.89107e-22)
(0.0094581 -0.000287024 -3.60329e-22)
(0.0094089 -0.000254202 0)
(0.00935483 -0.000211483 0)
(0.00930446 -0.000160406 2.12814e-22)
(0.00926431 -0.000104492 -2.54224e-22)
(0.0092407 -4.93156e-05 -1.68765e-23)
(0.00922915 -2.11868e-06 -7.5079e-24)
(0.00920699 3.41907e-05 1.69688e-22)
(0.0091633 6.18912e-05 -6.22154e-24)
(0.00910041 8.31536e-05 1.42549e-23)
(0.00902196 9.96965e-05 2.40456e-23)
(0.00893019 0.000112964 3.07521e-22)
(0.00882669 0.000124043 5.88449e-23)
(0.00871279 0.000133836 -3.57128e-22)
(0.00858935 0.000142995 1.26825e-23)
(0.00845678 0.00015203 -2.41518e-22)
(0.00831519 0.000161244 2.57852e-22)
(0.00816448 0.00017076 -1.74886e-23)
(0.00800448 0.000180588 0)
(0.00783503 0.000190707 -2.13159e-23)
(0.00765596 0.000201193 -4.73662e-23)
(0.00746696 0.000212355 4.57841e-22)
(0.0072674 0.000224886 -4.04761e-22)
(0.00705594 0.000240028 5.13548e-22)
(0.00683013 0.000259783 -1.03966e-21)
(0.00658573 0.000287257 8.99351e-22)
(0.00631585 0.000327318 -3.04176e-22)
(0.00600947 0.000387862 -1.289e-22)
(0.00564908 0.000482274 4.68917e-23)
(0.00520679 0.000634048 0)
(0.00463898 0.000885022 -1.69744e-22)
(0.00388256 0.00130772 6.40628e-23)
(0.0028654 0.00201234 0)
(0.00155844 0.00309234 -8.46382e-23)
(9.63149e-05 0.00428172 1.72209e-22)
(-0.000255385 0.0036554 2.94164e-22)
(-0.00018024 -0.00154974 -5.25152e-23)
(-0.000669669 -0.0024143 0)
(-0.000713767 -0.00245001 0)
(-0.000537395 -0.00222875 -3.21395e-23)
(-0.000216677 -0.00194065 2.56672e-23)
(0.00016706 -0.00166084 3.62629e-23)
(0.000564924 -0.00141719 -3.61127e-23)
(0.000953059 -0.00121336 1.26e-23)
(0.00131825 -0.00104445 0)
(0.00165486 -0.0009041 -6.6242e-24)
(0.00196121 -0.00078651 0)
(0.00223756 -0.000686898 1.39797e-24)
(0.00248518 -0.000601471 0)
(0.00270574 -0.000527307 -2.79507e-24)
(0.00290104 -0.000462187 0)
(0.00307288 -0.000404445 0)
(0.00322297 -0.000352853 -7.22334e-25)
(0.00335295 -0.000306534 6.65669e-25)
(0.00346438 -0.000264905 -1.02708e-23)
(0.00355883 -0.00022764 9.68873e-24)
(0.0036379 -0.000194661 0)
(0.00370329 -0.000166129 -3.77938e-23)
(0.0037569 -0.000142468 4.25296e-23)
(0.00380092 -0.000124396 7.53406e-24)
(0.00383793 -0.000112981 0)
(0.00387102 -0.000109736 9.941e-23)
(0.00390395 -0.000116764 -9.85601e-23)
(0.00394122 -0.000136987 0)
(0.00398785 -0.000174612 -1.3508e-22)
(0.00405202 -0.000235445 1.34319e-22)
(0.0041463 -0.00032776 -1.39492e-22)
(0.00421266 -0.000477645 2.76046e-22)
(0.00419591 -0.000709028 3.18005e-22)
(0.00411069 -0.00103723 5.46101e-23)
(0.00400796 -0.00147522 1.32374e-22)
(0.00391949 -0.00203733 -1.56422e-22)
(0.00386117 -0.00272371 6.58407e-23)
(0.00379782 -0.00351085 4.61399e-23)
(0.00369659 -0.00431533 -7.29579e-23)
(0.00359813 -0.0050667 -3.23927e-23)
(0.00352817 -0.00573616 -2.07813e-23)
(0.00346595 -0.00630371 -1.70173e-22)
(0.00340289 -0.0067551 1.56946e-21)
(0.00333984 -0.00708689 6.77601e-22)
(0.00327051 -0.00730186 2.08961e-22)
(0.00318442 -0.00740494 0)
(0.00307403 -0.00740355 8.32618e-23)
(0.00293189 -0.00732229 1.96853e-21)
(0.00275043 -0.00715647 9.44137e-22)
(0.00252365 -0.00691951 1.32117e-22)
(0.00225431 -0.00661533 2.1645e-21)
(0.00195383 -0.00624922 0)
(0.00163744 -0.0058259 -1.20541e-21)
(0.00132323 -0.00533917 1.65016e-23)
(0.0010514 -0.00479265 -7.85112e-24)
(0.000859219 -0.00418556 3.88727e-22)
(0.000797927 -0.00353114 1.53945e-22)
(0.000922194 -0.00282707 -1.42091e-22)
(0.0013152 -0.00209294 2.14941e-23)
(0.00203416 -0.00136745 -2.13452e-23)
(0.00307375 -0.000706279 5.93595e-23)
(0.00440411 -0.000162352 3.74173e-23)
(0.00581193 0.000191863 5.37607e-22)
(0.00711061 0.000341502 -5.04065e-22)
(0.00816346 0.000341311 6.38332e-22)
(0.00892888 0.000280135 4.73135e-23)
(0.00943479 0.000189746 -2.34546e-22)
(0.00973715 0.000110299 -1.51256e-23)
(0.00989637 5.37503e-05 -8.44192e-23)
(0.00997009 2.04035e-05 7.38366e-23)
(0.00999842 4.22261e-06 3.70207e-23)
(0.0100075 -1.70065e-06 0)
(0.0100089 -3.2214e-06 1.17566e-23)
(0.0100081 -2.9847e-06 4.93555e-24)
(0.0100064 -2.29265e-06 5.51691e-25)
(0.0100046 -1.67301e-06 2.44914e-24)
(0.0100031 -1.26078e-06 -4.76947e-24)
(0.0100021 -1.1465e-06 5.61608e-25)
(0.0100015 -1.2732e-06 -6.79755e-24)
(0.0100012 -1.56131e-06 9.55831e-24)
(0.0100013 -1.96128e-06 -1.11476e-23)
(0.0100017 -2.41923e-06 1.15483e-23)
(0.0100022 -2.91026e-06 -1.31854e-23)
(0.0100029 -3.41605e-06 0)
(0.0100039 -3.93158e-06 -5.67709e-25)
(0.0100051 -4.46544e-06 -6.89553e-25)
(0.0100067 -5.02013e-06 6.64777e-24)
(0.0100088 -5.54648e-06 0)
(0.0100112 -5.89762e-06 8.15575e-24)
(0.0100137 -5.7547e-06 1.4308e-23)
(0.0100159 -4.60671e-06 -4.14351e-24)
(0.0100158 -1.89645e-06 4.14524e-23)
(0.010013 2.55396e-06 4.38406e-23)
(0.010006 8.01431e-06 -5.2731e-23)
(0.00999466 1.27752e-05 2.47733e-24)
(0.00997985 1.39557e-05 7.21219e-23)
(0.00996284 9.46051e-06 9.13347e-23)
(0.00994529 -2.75296e-06 6.27947e-24)
(0.00992757 -2.33022e-05 1.20966e-22)
(0.00990719 -5.10017e-05 -2.81447e-22)
(0.00987817 -8.36484e-05 0)
(0.00983159 -0.000119471 0)
(0.00975764 -0.000158563 0)
(0.00964808 -0.000203492 -2.81654e-22)
(0.00949848 -0.000258643 -2.20793e-23)
(0.00930927 -0.000328292 1.20261e-23)
(0.0090848 -0.000414081 4.81908e-23)
(0.008834 -0.000512864 -4.4781e-22)
(0.00856819 -0.000616395 -5.27494e-22)
(0.00829775 -0.000712873 0)
(0.00803034 -0.000788575 0)
(0.00777916 -0.000829906 0)
(0.0075527 -0.000828809 0)
(0.00736165 -0.000786143 8.55281e-23)
(0.00722005 -0.000701835 1.51525e-23)
(0.00714194 -0.000584427 0)
(0.00715231 -0.000442956 -3.7544e-24)
(0.00727532 -0.000289561 0)
(0.00752396 -0.00013722 0)
(0.00790473 -1.56247e-06 0)
(0.00836603 9.28922e-05 0)
(0.00883304 0.000133858 -6.60966e-24)
(0.00923622 0.000129163 1.81133e-22)
(0.00954546 0.000101968 5.50097e-24)
(0.00975682 6.67387e-05 -1.25464e-22)
(0.00988637 3.62088e-05 9.87727e-23)
(0.0099572 1.46317e-05 -7.47734e-23)
(0.0099912 2.23167e-06 0)
(0.0100045 -3.29226e-06 3.74534e-23)
(0.0100086 -4.9167e-06 -2.4274e-23)
(0.0100088 -4.75745e-06 1.65218e-23)
(0.010008 -4.06056e-06 -1.5476e-23)
(0.0100063 -3.0526e-06 2.51562e-24)
(0.0100047 -2.14606e-06 9.23222e-25)
(0.0100033 -1.49398e-06 -1.64074e-24)
(0.0100022 -1.10608e-06 -3.70627e-24)
(0.0100014 -9.71762e-07 -1.03226e-25)
(0.010001 -1.06392e-06 -7.06793e-25)
(0.0100008 -1.33215e-06 2.56078e-25)
(0.0100009 -1.74358e-06 -1.52414e-24)
(0.0100011 -2.26261e-06 -6.38e-24)
(0.0100016 -2.85855e-06 -5.6577e-24)
(0.0100022 -3.51903e-06 1.39552e-24)
(0.0100031 -4.21586e-06 1.559e-24)
(0.0100042 -4.9213e-06 -2.95676e-24)
(0.0100053 -5.61054e-06 1.62008e-24)
(0.0100061 -5.76031e-06 2.25969e-26)
(0.0100059 -5.40754e-06 1.88624e-23)
(0.0100033 -3.98372e-06 0)
(0.00999621 -8.3281e-07 3.76727e-23)
(0.00998219 3.77209e-06 2.86676e-23)
(0.00995924 8.31669e-06 0)
(0.00992687 9.77633e-06 4.43088e-23)
(0.00988588 4.12285e-06 8.74473e-23)
(0.00983946 -1.2959e-05 -4.14031e-23)
(0.00979188 -4.45106e-05 3.3874e-23)
(0.00974703 -9.06102e-05 8.34891e-23)
(0.009707 -0.00014774 -6.27775e-23)
(0.00967024 -0.000209014 -1.88037e-23)
(0.00963224 -0.000265906 -9.40017e-23)
(0.00958769 -0.000310522 1.021e-22)
(0.00953229 -0.000337333 -1.70115e-22)
(0.00945051 -0.000343957 -5.53011e-23)
(0.009367 -0.00033418 3.16185e-22)
(0.00929168 -0.000311929 0)
(0.00921326 -0.000276456 -3.24069e-22)
(0.00913661 -0.000228115 -9.90215e-23)
(0.00906987 -0.000169747 -2.27363e-22)
(0.00901813 -0.000105328 2.38045e-22)
(0.00898572 -4.03187e-05 -1.5056e-22)
(0.00896627 1.8641e-05 1.52215e-22)
(0.00893704 6.85471e-05 0)
(0.00888666 0.000110333 1.27408e-23)
(0.00881604 0.00014512 2.31856e-22)
(0.00872748 0.000174077 -2.62254e-22)
(0.00862242 0.000198526 -3.13645e-22)
(0.00850216 0.000219756 2.72151e-22)
(0.00836795 0.000238959 -1.97762e-22)
(0.00822073 0.000257119 1.97845e-22)
(0.00806102 0.000275001 0)
(0.00788901 0.000293088 -3.05623e-22)
(0.00770468 0.000311597 2.73664e-22)
(0.00750792 0.000330561 -3.7351e-22)
(0.00729859 0.000349978 3.34227e-22)
(0.0070765 0.000370006 4.78783e-23)
(0.00684132 0.000391197 -5.26908e-23)
(0.0065923 0.000414739 0)
(0.00632795 0.000442721 0)
(0.00604558 0.000478469 -6.80948e-23)
(0.00574063 0.000527092 0)
(0.00540586 0.000596497 0)
(0.00502995 0.000699284 1.74076e-22)
(0.00459547 0.000856132 0)
(0.00407622 0.0011012 0)
(0.00343537 0.00148902 4.62549e-22)
(0.00263068 0.00209684 -2.3721e-22)
(0.00164309 0.00299658 0)
(0.000554232 0.00411733 0)
(-0.000376081 0.00484126 -1.9584e-23)
(-0.000242296 0.00329314 -1.82137e-22)
(-0.000121057 -0.00117891 2.55483e-23)
(-0.0005432 -0.00214739 -4.82883e-23)
(-0.000740671 -0.00240998 -3.32212e-23)
(-0.000755787 -0.00235135 6.51475e-23)
(-0.000643514 -0.0021697 -9.3022e-23)
(-0.000436534 -0.0019492 4.4601e-23)
(-0.000182732 -0.00173027 0)
(9.12606e-05 -0.00153015 -1.27595e-23)
(0.000367926 -0.0013528 0)
(0.000636517 -0.00119724 -4.22619e-23)
(0.000890807 -0.00106093 3.28638e-23)
(0.00112738 -0.000941038 -5.80242e-24)
(0.00134458 -0.00083494 -2.0096e-23)
(0.00154184 -0.000740369 1.50865e-23)
(0.00171926 -0.000655466 -4.10294e-24)