/*--------------------------------*- C++ -*----------------------------------*\
| =========                 |                                                 |
| \\      /  F ield         | OpenFOAM: The Open Source CFD Toolbox           |
|  \\    /   O peration     | Version:  2506                                  |
|   \\  /    A nd           | Website:  www.openfoam.com                      |
|    \\/     M anipulation  |                                                 |
\*---------------------------------------------------------------------------*/
FoamFile
{
    version     2.0;
    format      ascii;
    arch        "LSB;label=32;scalar=64";
    class       volVectorField;
    location    "2.85";
    object      U;
}
// * * * * * * * * * * * * * * * * * * * * * * * * * * * * * * * * * * * * * //

dimensions      [0 1 -1 0 0 0 0];

internalField   nonuniform List<vector> 
4000
(
(0.00290673 0.000436365 0)
(0.00199778 0.000457295 4.09767e-21)
(0.00109461 0.000262466 -4.19011e-21)
(0.000410863 0.000145519 -8.46308e-21)
(-6.06739e-05 8.66275e-05 1.70049e-20)
(-0.000398711 5.30712e-05 -8.46207e-21)
(-0.000649969 3.20975e-05 0)
(-0.000844613 1.9058e-05 0)
(-0.000997949 1.03502e-05 0)
(-0.00112154 3.93439e-06 -1.63277e-20)
(-0.00122257 -1.1526e-06 1.62961e-20)
(-0.00130596 -5.29093e-06 -3.22359e-20)
(-0.00137528 -8.7631e-06 3.21925e-20)
(-0.00143326 -1.17236e-05 0)
(-0.00148206 -1.42838e-05 0)
(-0.00152348 -1.65168e-05 0)
(-0.00155898 -1.84901e-05 -3.13103e-20)
(-0.00158979 -2.02688e-05 3.12901e-20)
(-0.00161689 -2.18963e-05 0)
(-0.00164107 -2.34082e-05 0)
(-0.00166297 -2.48415e-05 0)
(-0.00168303 -2.62247e-05 0)
(-0.00170156 -2.75786e-05 0)
(-0.00171868 -2.89169e-05 -6.02693e-20)
(-0.00173437 -3.02457e-05 1.20193e-19)
(-0.00174845 -3.15476e-05 -5.9926e-20)
(-0.00176048 -3.28382e-05 0)
(-0.00176981 -3.43272e-05 0)
(-0.00177569 -3.62615e-05 0)
(-0.00177675 -3.87681e-05 0)
(-0.0017704 -4.24383e-05 5.81335e-20)
(-0.00175317 -4.87031e-05 -5.81421e-20)
(-0.00171846 -5.81329e-05 0)
(-0.00163624 -7.63895e-05 -5.02398e-20)
(-0.0015123 -0.00013238 -5.71072e-20)
(-0.00140359 -0.000225651 2.87506e-19)
(-0.00132505 -0.000322437 2.30754e-19)
(-0.0012513 -0.000404527 -5.82122e-20)
(-0.00117303 -0.000467133 2.33796e-19)
(-0.00109652 -0.000507449 5.28876e-19)
(-0.00102435 -0.000522619 -5.92359e-20)
(-0.000966589 -0.000502048 -4.73565e-19)
(-0.000898279 -0.000448561 4.74084e-19)
(-0.000815637 -0.000382678 0)
(-0.000735116 -0.000317376 0)
(-0.000662258 -0.000258585 2.9599e-20)
(-0.000599504 -0.000208505 4.4462e-19)
(-0.000553691 -0.000167332 4.44954e-19)
(-0.00052074 -0.000135974 2.66828e-19)
(-0.000504231 -0.000114048 2.36221e-19)
(-0.000506399 -0.000101355 -2.35133e-19)
(-0.000524276 -9.64704e-05 0)
(-0.000565337 -9.67929e-05 2.89802e-20)
(-0.000624969 -0.000100745 -4.91399e-19)
(-0.000707121 -0.000102564 0)
(-0.000807072 -0.000103238 1.13528e-19)
(-0.000924205 -9.7983e-05 2.79006e-20)
(-0.00105695 -8.29406e-05 -3.13642e-24)
(-0.00119937 -5.70154e-05 3.09969e-22)
(-0.0013462 -9.38875e-06 1.37954e-20)
(-0.00149157 5.03308e-05 -2.64016e-20)
(-0.00162663 0.000129847 0)
(-0.0017475 0.000221609 0)
(-0.00185435 0.000322069 -5.01563e-20)
(-0.00193854 0.000430171 -3.46943e-19)
(-0.00201162 0.000535326 -4.83893e-20)
(-0.0020639 0.000640517 4.84595e-20)
(-0.00211023 0.000738492 -4.66849e-20)
(-0.00214366 0.000833224 -1.38102e-19)
(-0.00217131 0.00091962 3.17478e-19)
(-0.00219568 0.00100013 4.47859e-20)
(-0.00220999 0.00107322 -9.61874e-22)
(-0.00222378 0.00113723 0)
(-0.00223351 0.00119462 0)
(-0.00223733 0.00124269 0)
(-0.00223953 0.00128192 2.04425e-20)
(-0.00223825 0.00131325 3.03402e-19)
(-0.00223071 0.0013352 0)
(-0.00221981 0.00134804 -1.01628e-21)
(-0.00220576 0.00135304 -1.92792e-20)
(-0.00218769 0.00135029 3.05674e-19)
(-0.00216707 0.00134036 -2.73944e-19)
(-0.00214455 0.00132413 -7.75845e-23)
(-0.00212082 0.00130208 -2.97715e-19)
(-0.00209839 0.00127544 -1.40611e-21)
(-0.00207634 0.00124479 2.82915e-19)
(-0.002054 0.00120942 2.83478e-19)
(-0.0020361 0.00117053 -2.84651e-19)
(-0.00202018 0.00112878 4.28921e-21)
(-0.0020034 0.00108214 2.69809e-19)
(-0.00199184 0.0010316 0)
(-0.00198172 0.000977838 2.70395e-19)
(-0.00197039 0.000918488 2.50442e-19)
(-0.00196387 0.000854753 -2.5503e-19)
(-0.00195475 0.000786343 1.41554e-19)
(-0.00194928 0.000712269 -1.552e-20)
(-0.00194168 0.000634419 -1.22413e-19)
(-0.00193546 0.000550688 -1.50385e-20)
(-0.00192644 0.000463066 -1.04384e-19)
(-0.00191933 0.000370422 -7.36505e-20)
(-0.00191139 0.000276529 2.91742e-20)
(-0.00190123 0.000179343 -7.23742e-20)
(-0.00189329 8.24636e-05 7.20251e-21)
(-0.001881 -1.31844e-05 7.16902e-21)
(-0.00186908 -0.000107639 2.8545e-20)
(-0.00185507 -0.000198171 0)
(-0.00183763 -0.00028616 0)
(-0.00182097 -0.000367752 2.25062e-19)
(-0.00179832 -0.000443097 7.1685e-21)
(-0.0017744 -0.00051102 -1.18704e-19)
(-0.00174667 -0.000570527 -1.15368e-19)
(-0.00171528 -0.000620827 -3.61341e-21)
(-0.00167969 -0.000661871 1.2007e-19)
(-0.00164023 -0.000692336 2.46042e-22)
(-0.00159365 -0.000713719 0)
(-0.00154653 -0.000724742 -2.348e-19)
(-0.00149122 -0.000725339 7.3236e-21)
(-0.00143249 -0.00071749 2.20162e-19)
(-0.00137152 -0.000700951 7.39258e-21)
(-0.00130627 -0.000676748 2.35629e-19)
(-0.00123958 -0.000646545 7.67524e-22)
(-0.001173 -0.000611 -2.35111e-19)
(-0.00110596 -0.000571207 -1.45938e-20)
(-0.00104011 -0.000528673 2.63225e-19)
(-0.000977701 -0.000483993 -1.46451e-20)
(-0.000917944 -0.000438408 -2.32224e-19)
(-0.000861921 -0.000393282 -2.87331e-20)
(-0.000810601 -0.000349616 2.88979e-20)
(-0.000764331 -0.000308285 -2.28549e-19)
(-0.00072305 -0.000269769 1.97917e-19)
(-0.000688948 -0.000234659 2.83604e-20)
(-0.000660284 -0.000203161 4.18738e-19)
(-0.000636866 -0.00017547 2.79277e-20)
(-0.000622158 -0.000151606 2.19959e-19)
(-0.000613659 -0.000131446 -9.86228e-22)
(-0.000610063 -0.000114947 0)
(-0.000618728 -0.000101621 0)
(-0.00063123 -9.16732e-05 4.86819e-22)
(-0.000656737 -8.4045e-05 0)
(-0.000692145 -7.87563e-05 2.54151e-20)
(-0.000740628 -7.46687e-05 7.5155e-20)
(-0.000803172 -7.04816e-05 2.45948e-20)
(-0.000881985 -6.41817e-05 4.84462e-20)
(-0.000976162 -5.35727e-05 2.42207e-20)
(-0.00109001 -3.27075e-05 6.99057e-20)
(-0.00121346 -3.54409e-06 -2.3002e-20)
(-0.00135251 4.19675e-05 0)
(-0.00149329 9.66148e-05 0)
(-0.00163661 0.000167666 0)
(-0.00177155 0.000252007 2.00291e-20)
(-0.00189701 0.000345152 -1.99723e-20)
(-0.00200401 0.000451037 -7.61175e-20)
(-0.00209514 0.0005569 -7.35837e-20)
(-0.00216326 0.000669623 0)
(-0.00221728 0.000775753 6.87291e-20)
(-0.00225298 0.000882295 0)
(-0.00228148 0.000976943 1.56146e-20)
(-0.00229062 0.00106048 -7.78042e-20)
(-0.00225495 0.0010972 1.47793e-20)
(-0.00213983 0.00103446 -2.47493e-19)
(-0.00215433 0.000898611 5.63075e-20)
(-0.00224577 0.000796967 5.47994e-20)
(-0.00230455 0.000679069 0)
(-0.00233733 0.000542793 0)
(-0.00236273 0.000392312 0)
(-0.00239242 0.000250202 0)
(-0.00244284 0.000131754 0)
(-0.00248291 7.26036e-05 -1.10841e-20)
(-0.00244344 5.07402e-05 3.72231e-22)
(-0.0023524 3.85875e-05 3.73798e-22)
(-0.00224643 3.16918e-05 1.04211e-20)
(-0.00214252 2.84305e-05 0)
(-0.00205094 2.73402e-05 -9.33649e-21)
(-0.00197674 2.73389e-05 9.33921e-21)
(-0.00192155 2.76122e-05 -2.74795e-22)
(-0.00188475 2.77078e-05 0)
(-0.0018645 2.79118e-05 0)
(-0.00185734 2.86537e-05 7.57882e-21)
(-0.00185949 2.93768e-05 -7.56775e-21)
(-0.00186759 2.99918e-05 0)
(-0.00187855 2.98642e-05 0)
(-0.00189008 2.89277e-05 2.88306e-21)
(-0.00190025 2.73127e-05 -1.72634e-22)
(-0.00190765 2.52119e-05 -2.89884e-21)
(-0.00191166 2.30674e-05 0)
(-0.00191217 2.09093e-05 0)
(-0.00190952 1.87522e-05 0)
(-0.00190458 1.6676e-05 0)
(-0.00189851 1.47607e-05 -1.20521e-22)
(-0.00189256 1.30776e-05 0)
(-0.00188795 1.17037e-05 0)
(-0.0018857 1.08083e-05 0)
(-0.00188649 1.0262e-05 -5.80006e-22)
(-0.00189084 9.79325e-06 5.7908e-22)
(-0.00189914 9.31169e-06 0)
(-0.00191144 8.87718e-06 -4.61948e-23)
(-0.00192762 8.46194e-06 -1.23491e-22)
(-0.00194861 8.22393e-06 8.19724e-23)
(-0.00197938 9.78205e-06 4.11872e-23)
(-0.00201621 1.47934e-05 0)
(0.00402987 0.000961514 0)
(0.00370138 0.00140786 0)
(0.00312594 0.00119187 0)
(0.00243373 0.000920481 -8.78106e-21)
(0.00177312 0.00069412 1.78488e-20)
(0.00119226 0.000526478 -9.05145e-21)
(0.000699773 0.000405512 0)
(0.000286588 0.000319113 -1.83256e-20)
(-5.87521e-05 0.000255959 1.84169e-20)
(-0.000348132 0.000208172 -1.8199e-20)
(-0.000591203 0.00017098 1.81131e-20)
(-0.000795476 0.000141604 3.57472e-20)
(-0.000968348 0.000118215 -3.56256e-20)
(-0.00111522 9.95158e-05 -3.51865e-20)
(-0.00124097 8.46154e-05 1.68011e-22)
(-0.00134962 7.28419e-05 6.95376e-20)
(-0.00144458 6.36494e-05 -3.46169e-20)
(-0.00152881 5.65673e-05 0)
(-0.00160487 5.11747e-05 0)
(-0.00167466 4.71089e-05 0)
(-0.00173983 4.40462e-05 0)
(-0.00180166 4.16832e-05 0)
(-0.00186108 3.97449e-05 0)
(-0.0019187 3.79796e-05 0)
(-0.00197493 3.61403e-05 0)
(-0.00202975 3.39593e-05 0)
(-0.00208296 3.11108e-05 0)
(-0.00213395 2.70247e-05 0)
(-0.00218152 2.09192e-05 0)
(-0.002224 1.17201e-05 0)
(-0.00225888 -2.79062e-06 6.31585e-20)
(-0.00228147 -2.68395e-05 -2.9912e-22)
(-0.00228436 -6.61549e-05 -1.25218e-19)
(-0.00225942 -0.000132743 5.46195e-20)
(-0.00219688 -0.000267332 6.18643e-20)
(-0.002089 -0.000462968 -1.86282e-19)
(-0.00194197 -0.000656686 2.50197e-19)
(-0.00176613 -0.000813034 6.31807e-20)
(-0.00156541 -0.000913607 -6.42458e-19)
(-0.00134819 -0.000951856 -1.96312e-19)
(-0.00110414 -0.000912823 0)
(-0.000858366 -0.000794269 -6.69418e-20)
(-0.000614851 -0.000628809 -4.05643e-19)
(-0.00037575 -0.000452147 -6.84503e-20)
(-0.000156467 -0.000283176 -5.49333e-19)
(3.97329e-05 -0.000132763 5.51372e-19)
(0.000214638 -3.90963e-06 -1.23425e-21)
(0.000356733 0.000100419 0)
(0.000469791 0.000178256 2.74635e-19)
(0.000550702 0.000231498 0)
(0.000593372 0.000259861 5.39616e-22)
(0.000602932 0.000266876 0)
(0.000565334 0.000255783 2.70635e-19)
(0.000486265 0.000231682 2.69978e-19)
(0.000356345 0.000203422 0)
(0.000177566 0.000172313 -1.21932e-22)
(-4.61278e-05 0.000148965 -1.32677e-19)
(-0.000319116 0.000140848 -3.25512e-20)
(-0.000622722 0.000152905 -6.40001e-20)
(-0.000958111 0.000203449 1.5969e-20)
(-0.00131445 0.000281304 0)
(-0.00167 0.000399971 -1.21692e-19)
(-0.00202267 0.000551364 6.0023e-20)
(-0.0023562 0.000729756 1.16676e-19)
(-0.00266105 0.000934797 3.42727e-19)
(-0.00294172 0.00114852 5.62216e-20)
(-0.00318166 0.00137369 -2.72985e-19)
(-0.00339874 0.00159585 5.38649e-20)
(-0.00357762 0.0018162 0)
(-0.00373256 0.00202483 -5.10911e-20)
(-0.00386407 0.00222113 5.05613e-20)
(-0.00396861 0.00240272 -1.92909e-21)
(-0.00405805 0.002565 0)
(-0.00412775 0.00270937 3.79493e-19)
(-0.0041799 0.00283259 3.72141e-19)
(-0.00421834 0.00293305 -2.26441e-20)
(-0.00424187 0.00301119 2.24321e-20)
(-0.00424981 0.00306593 -2.1808e-20)
(-0.00424513 0.00309735 3.4321e-19)
(-0.00422862 0.00310717 -3.17567e-19)
(-0.00420115 0.00309691 3.32781e-19)
(-0.0041648 0.00306812 3.35203e-19)
(-0.0041212 0.0030231 -2.00298e-20)
(-0.00407268 0.00296397 3.25604e-19)
(-0.00402257 0.00289306 -3.0617e-19)
(-0.00397129 0.00281228 3.02575e-19)
(-0.00392007 0.00272224 -2.9978e-19)
(-0.00387337 0.00262389 2.93096e-19)
(-0.0038294 0.00251804 8.99781e-21)
(-0.00378753 0.00240371 -8.90607e-21)
(-0.00375192 0.00228086 0)
(-0.00371895 0.00214979 0)
(-0.00368783 0.00200939 -1.35061e-19)
(-0.00366157 0.00185874 1.48728e-19)
(-0.00363423 0.0016986 -1.3022e-19)
(-0.00361104 0.00152703 -3.20404e-20)
(-0.00358605 0.00134555 -2.64331e-22)
(-0.00356325 0.00115582 7.92708e-23)
(-0.00353619 0.000959201 2.75984e-19)
(-0.00350968 0.000753851 4.53146e-20)
(-0.00347944 0.000545098 -5.99452e-20)
(-0.00344637 0.000331901 5.93687e-20)
(-0.00340966 0.000119451 0)
(-0.003367 -9.01618e-05 7.32044e-21)
(-0.00332027 -0.000295165 -7.34205e-21)
(-0.00326763 -0.000491126 0)
(-0.00320664 -0.00067831 0)
(-0.00313886 -0.000851687 -1.1796e-19)
(-0.00306078 -0.00100759 1.18416e-19)
(-0.00297386 -0.00114426 -1.22848e-19)
(-0.0028766 -0.00126098 2.4025e-19)
(-0.00276945 -0.0013561 2.3132e-23)
(-0.00265116 -0.00142888 3.82338e-21)
(-0.00252403 -0.00147798 1.23125e-19)
(-0.0023847 -0.00150496 0)
(-0.00224007 -0.00150824 0)
(-0.00208623 -0.00148927 0)
(-0.00192648 -0.0014494 -2.61859e-19)
(-0.0017638 -0.0013899 -2.46231e-19)
(-0.00159784 -0.00131358 0)
(-0.00143129 -0.00122317 2.90696e-19)
(-0.0012671 -0.00112182 -4.8626e-20)
(-0.00110644 -0.00101259 3.24963e-20)
(-0.00094988 -0.000898293 -1.63841e-20)
(-0.000800575 -0.000781363 3.25202e-20)
(-0.000658863 -0.000664985 -2.61512e-19)
(-0.000526144 -0.000551896 2.28423e-19)
(-0.000403684 -0.000444665 -2.93941e-19)
(-0.000291516 -0.000344766 3.89563e-22)
(-0.000188823 -0.000253392 -2.29765e-19)
(-9.89767e-05 -0.000172062 0)
(-2.00484e-05 -0.000101462 -2.60949e-19)
(5.00516e-05 -4.1073e-05 3.20463e-20)
(0.000105128 8.21943e-06 2.23011e-19)
(0.000148143 4.61943e-05 -2.55332e-19)
(0.000182477 7.48062e-05 3.12435e-20)
(0.000195969 9.35008e-05 -3.14741e-20)
(0.000198967 0.00010121 3.16629e-20)
(0.000179752 0.000100277 -3.08321e-20)
(0.000137996 9.15002e-05 2.98828e-20)
(6.95511e-05 7.79529e-05 -1.49815e-19)
(-3.03355e-05 6.23871e-05 1.45863e-19)
(-0.000166909 4.87423e-05 -1.44466e-19)
(-0.000339042 4.21654e-05 0)
(-0.00055904 5.13481e-05 -2.7568e-20)
(-0.00081149 7.66356e-05 2.64544e-20)
(-0.0011109 0.000132481 1.28909e-20)
(-0.00143936 0.000210863 0)
(-0.00178895 0.000324803 2.41434e-20)
(-0.00214979 0.000472068 -4.66227e-20)
(-0.00250531 0.000645614 0)
(-0.00284455 0.000853191 8.668e-20)
(-0.00316006 0.00107176 2.05618e-20)
(-0.00343823 0.0013119 -2.03866e-20)
(-0.00368491 0.00155016 0)
(-0.00388637 0.00179322 -7.46904e-20)
(-0.00405699 0.00201338 7.15889e-20)
(-0.00418226 0.00220273 -6.94449e-20)
(-0.00425358 0.00231055 0)
(-0.00425308 0.00226843 1.28074e-19)
(-0.00436126 0.00203879 7.68491e-20)
(-0.0044838 0.00177134 -1.33371e-19)
(-0.00457239 0.00145412 1.40857e-20)
(-0.00460285 0.0011004 -1.39646e-20)
(-0.00458241 0.000727445 -1.31525e-20)
(-0.00451404 0.000381354 -1.25724e-20)
(-0.00440093 9.94829e-05 1.11587e-20)
(-0.00421971 -6.57877e-05 7.60491e-22)
(-0.00396261 -0.000147036 0)
(-0.0036774 -0.000181239 -7.13031e-22)
(-0.00339446 -0.000184136 0)
(-0.00313691 -0.000167789 6.67787e-22)
(-0.00291783 -0.000141131 1.01421e-20)
(-0.00274252 -0.000110565 -1.07909e-20)
(-0.0026112 -8.05433e-05 8.99957e-22)
(-0.00251994 -5.38419e-05 -9.04038e-21)
(-0.00246168 -3.15492e-05 1.71509e-20)
(-0.00242901 -1.37796e-05 -1.69367e-20)
(-0.00241447 -1.15251e-06 8.77105e-21)
(-0.00241121 6.53879e-06 0)
(-0.00241323 9.57194e-06 -4.01207e-21)
(-0.00241518 8.82529e-06 3.76601e-21)
(-0.00241329 5.28055e-06 4.07219e-22)
(-0.00240511 1.25357e-08 2.97385e-21)
(-0.00239014 -5.97166e-06 -2.61049e-21)
(-0.00236934 -1.12651e-05 -2.58732e-21)
(-0.00234422 -1.51415e-05 2.89435e-21)
(-0.00231701 -1.71778e-05 -2.49016e-21)
(-0.00229041 -1.7145e-05 4.34521e-21)
(-0.00226709 -1.50012e-05 -2.6827e-21)
(-0.0022494 -1.10384e-05 9.10427e-22)
(-0.00223922 -5.31267e-06 1.92189e-22)
(-0.00223791 1.58527e-06 0)
(-0.0022462 9.058e-06 -3.93514e-22)
(-0.00226402 1.6474e-05 5.37969e-22)
(-0.00229077 2.39345e-05 -2.80897e-23)
(-0.00232535 3.13098e-05 1.78181e-22)
(-0.00236789 3.93666e-05 0)
(-0.00242264 4.98665e-05 0)
(-0.00247851 6.16635e-05 1.31345e-23)
(0.0040817 0.000696865 0)
(0.00406315 0.00135837 4.2468e-21)
(0.00407096 0.00147398 -4.23202e-21)
(0.00389529 0.00138811 -8.44393e-21)
(0.00355036 0.00122229 8.53038e-21)
(0.00313455 0.00103514 0)
(0.00271215 0.000864155 0)
(0.00231382 0.000719703 0)
(0.00195143 0.000601049 1.74938e-20)
(0.00162823 0.000503508 -3.52353e-20)
(0.00134363 0.000423087 -1.75602e-20)
(0.00109443 0.000356905 3.55361e-20)
(0.000876968 0.000302536 3.54261e-20)
(0.000686921 0.000257967 -3.56184e-20)
(0.000520327 0.00022171 0)
(0.000373291 0.000192554 3.54225e-20)
(0.000242181 0.000169433 -7.09282e-20)
(0.000123816 0.000151399 3.54908e-20)
(1.53917e-05 0.000137582 0)
(-8.55987e-05 0.000127206 0)
(-0.000181252 0.000119564 0)
(-0.000273308 0.000113983 0)
(-0.000363151 0.000109841 0)
(-0.00045183 0.000106557 6.81313e-20)
(-0.000540089 0.000103554 -6.79921e-20)
(-0.000628395 0.000100229 0)
(-0.000716924 9.59226e-05 0)
(-0.000805514 8.98736e-05 0)
(-0.000893538 8.10598e-05 0)
(-0.000979986 6.78458e-05 0)
(-0.00106346 4.77039e-05 6.49468e-20)
(-0.00114109 1.6687e-05 -6.48541e-20)
(-0.00120893 -3.20746e-05 0)
(-0.001281 -0.000110927 -3.98677e-21)
(-0.00133795 -0.000248334 0)
(-0.00130657 -0.000434144 1.26293e-19)
(-0.00117712 -0.000608037 -2.54193e-19)
(-0.0009877 -0.000731867 0)
(-0.000752785 -0.000786519 5.21184e-19)
(-0.000479619 -0.000757867 -3.84484e-22)
(-0.000149991 -0.000635028 6.72545e-20)
(0.000206917 -0.000428264 -6.80133e-20)
(0.000558235 -0.00018207 5.40421e-19)
(0.000894722 6.8464e-05 0)
(0.001207 0.000304481 6.02346e-19)
(0.00149234 0.000514167 -5.67403e-19)
(0.0017547 0.000693142 -5.65322e-19)
(0.00198309 0.000835837 0)
(0.00217943 0.000940359 -2.63946e-19)
(0.00234157 0.00100783 0)
(0.00246112 0.0010372 5.25559e-19)
(0.00254115 0.0010324 0)
(0.00256762 0.000994537 -2.27992e-19)
(0.00254361 0.0009303 -2.91134e-19)
(0.00245729 0.000845834 -2.57144e-19)
(0.00230574 0.000747944 -1.28002e-19)
(0.00209058 0.000648057 -1.27239e-19)
(0.00180074 0.000555673 -6.33188e-20)
(0.00145531 0.000480709 3.16768e-20)
(0.00104331 0.000438961 4.7218e-20)
(0.000580941 0.000429706 0)
(9.05718e-05 0.000467301 1.24172e-19)
(-0.00042361 0.000551106 -1.22209e-19)
(-0.000938455 0.000678552 0)
(-0.0014419 0.000851312 -4.66433e-19)
(-0.00192543 0.00105478 0)
(-0.00237043 0.001289 -5.52457e-20)
(-0.0027839 0.00153624 5.44904e-20)
(-0.00314783 0.0017931 0)
(-0.003472 0.00204824 -5.14353e-20)
(-0.00375606 0.00229554 5.07767e-20)
(-0.00399969 0.00253081 5.43168e-19)
(-0.00421129 0.00274563 -3.38655e-19)
(-0.00438646 0.00293831 1.68774e-21)
(-0.00453085 0.0031048 -3.69348e-19)
(-0.00464654 0.00324144 -2.25536e-20)
(-0.00473346 0.00334787 3.7849e-19)
(-0.00479407 0.00342296 0)
(-0.00483069 0.00346676 3.42614e-19)
(-0.00484435 0.00348171 6.49914e-19)
(-0.00483927 0.00347131 -6.27664e-19)
(-0.00481659 0.00343586 -3.34356e-19)
(-0.00477811 0.00337876 3.28386e-19)
(-0.00472759 0.00330388 -3.21253e-19)
(-0.00466888 0.00321412 0)
(-0.00460374 0.00311248 -3.00906e-19)
(-0.00453528 0.00300063 -3.63644e-21)
(-0.00446736 0.0028793 -5.90878e-19)
(-0.00439962 0.00274948 -2.69202e-19)
(-0.0043337 0.00261115 -2.91151e-19)
(-0.00427184 0.00246353 0)
(-0.00421171 0.00230685 0)
(-0.00415392 0.00214073 1.33684e-19)
(-0.00409928 0.00196457 0)
(-0.00404367 0.00177921 1.61567e-20)
(-0.00399102 0.00158384 -1.59829e-20)
(-0.00393648 0.00138036 1.25497e-19)
(-0.00388366 0.0011696 -1.23927e-19)
(-0.00382825 0.000953389 -1.06815e-19)
(-0.0037735 0.000731174 -1.51216e-20)
(-0.00371458 0.000506664 5.96554e-20)
(-0.00365366 0.000280315 -2.95731e-20)
(-0.00358718 5.58269e-05 2.20347e-20)
(-0.00351539 -0.000164934 -7.335e-21)
(-0.00343674 -0.000379241 0)
(-0.00334961 -0.00058276 -5.84074e-20)
(-0.00325214 -0.000773807 0)
(-0.00314384 -0.000947961 -1.17503e-19)
(-0.00302287 -0.00110282 -1.71969e-22)
(-0.00288796 -0.00123522 1.15394e-19)
(-0.00273926 -0.00134306 -1.19999e-19)
(-0.00257588 -0.00142411 3.78852e-21)
(-0.0023982 -0.00147686 0)
(-0.00220875 -0.00150016 -1.2272e-19)
(-0.0020065 -0.0014955 1.23869e-19)
(-0.00179585 -0.00146076 0)
(-0.00157725 -0.00139866 -7.85586e-21)
(-0.00135234 -0.00131093 2.61975e-19)
(-0.00112498 -0.00120044 2.41166e-19)
(-0.000896622 -0.00107058 -2.41569e-19)
(-0.000668836 -0.000924502 2.59565e-19)
(-0.000444911 -0.000766113 1.62855e-20)
(-0.00022672 -0.000599839 -2.46339e-19)
(-1.46936e-05 -0.000429404 -3.31472e-20)
(0.000188892 -0.000258699 -2.94944e-19)
(0.000383183 -9.16111e-05 5.88366e-19)
(0.000567463 6.86577e-05 -2.93427e-19)
(0.00074078 0.000219195 2.27072e-19)
(0.000903368 0.000357796 -1.917e-19)
(0.00105652 0.000482962 -3.1791e-19)
(0.00119712 0.000592712 -1.89076e-19)
(0.00132643 0.000685903 -3.1636e-20)
(0.001448 0.000763153 -2.17671e-19)
(0.00155534 0.000823083 -2.79575e-19)
(0.00165063 0.000865102 3.04311e-20)
(0.0017384 0.000891346 -3.06465e-20)
(0.00180496 0.000900511 -9.01594e-20)
(0.00185723 0.000891443 -2.91776e-20)
(0.00188797 0.000866088 2.91416e-20)
(0.00189314 0.000825208 -2.93231e-20)
(0.00186782 0.000772202 1.14161e-19)
(0.00180403 0.000709803 -2.86593e-20)
(0.00169418 0.000641911 6.21972e-22)
(0.00153674 0.000574179 2.76255e-20)
(0.00131442 0.000513585 1.07335e-19)
(0.00104036 0.00046578 0)
(0.000695041 0.000444783 -5.14048e-20)
(0.000291559 0.000450872 3.20714e-20)
(-0.000157049 0.0004972 -2.47241e-20)
(-0.000650545 0.000587738 7.10606e-20)
(-0.00116152 0.000718715 2.25392e-20)
(-0.00168309 0.000899152 -8.79433e-20)
(-0.00219666 0.00110848 -1.05336e-19)
(-0.00268392 0.00135369 4.0588e-20)
(-0.00313936 0.0016117 -9.77891e-20)
(-0.00354015 0.00188296 7.48008e-20)
(-0.00389851 0.00214175 1.77671e-20)
(-0.00419676 0.00237176 6.8717e-20)
(-0.00443166 0.00251105 -1.69342e-20)
(-0.00460699 0.00252381 6.46751e-20)
(-0.004779 0.00228613 -6.11022e-20)
(-0.0048688 0.00195071 4.43227e-20)
(-0.00491415 0.00154051 1.44665e-20)
(-0.00488114 0.0010846 2.77213e-20)
(-0.00475629 0.000616633 0)
(-0.00453208 0.000190859 2.56723e-20)
(-0.00420958 -0.00015012 -2.35914e-20)
(-0.00380511 -0.000358085 -3.56357e-22)
(-0.00337425 -0.000458413 4.13971e-22)
(-0.00295503 -0.000484482 1.13551e-21)
(-0.00256343 -0.000460488 1.13878e-20)
(-0.00221698 -0.00040535 -6.78553e-22)
(-0.001925 -0.000334119 0)
(-0.00169032 -0.000258129 6.35623e-22)
(-0.0015108 -0.000185467 -6.13344e-22)
(-0.00138043 -0.000121491 -1.04185e-20)
(-0.00129087 -6.93056e-05 9.82085e-21)
(-0.0012329 -3.02973e-05 8.48679e-21)
(-0.00119719 -4.31962e-06 -8.99997e-21)
(-0.00117453 9.53415e-06 0)
(-0.00115688 1.34852e-05 4.69254e-22)
(-0.00113821 9.8437e-06 0)
(-0.00111434 1.05995e-06 2.83763e-21)
(-0.00108334 -1.03207e-05 -1.94028e-22)
(-0.00104478 -2.22211e-05 -3.42618e-21)
(-0.000999589 -3.21573e-05 -6.89289e-22)
(-0.000950476 -3.83776e-05 -3.20856e-22)
(-0.000900758 -3.99758e-05 2.96269e-22)
(-0.000853999 -3.66405e-05 0)
(-0.000813728 -2.85443e-05 -2.47409e-22)
(-0.000783117 -1.64191e-05 -8.43397e-22)
(-0.00076475 -1.33542e-06 6.43324e-22)
(-0.000759853 1.56591e-05 6.51134e-22)
(-0.00076896 3.33954e-05 -8.00391e-22)
(-0.000791668 5.08009e-05 0)
(-0.00082669 6.71908e-05 -1.26166e-22)
(-0.000871897 8.22607e-05 -1.83277e-22)
(-0.000925645 9.62844e-05 -4.58398e-23)
(-0.000991139 0.000110639 4.56737e-23)
(-0.00105885 0.000126399 -1.3143e-23)
(0.00404157 0.000410643 0)
(0.00402307 0.001013 0)
(0.00425391 0.0013223 0)
(0.00447196 0.00143281 -8.34093e-21)
(0.00449935 0.0014058 8.34142e-21)
(0.00440459 0.00130884 0)
(0.00423326 0.00117495 0)
(0.00402227 0.00103411 0)
(0.00379579 0.000901428 0)
(0.00356859 0.000780903 0)
(0.0033503 0.00067414 0)
(0.00314574 0.000581773 3.36976e-20)
(0.00295651 0.000502799 -3.38933e-20)
(0.00278284 0.000435978 3.37534e-20)
(0.00262403 0.000380267 -6.76636e-20)
(0.0024786 0.000334619 3.38934e-20)
(0.00234475 0.000297852 3.36956e-20)
(0.00222059 0.000268808 -3.38097e-20)
(0.00210428 0.000246413 0)
(0.00199398 0.000229651 0)
(0.00188801 0.000217543 -6.68715e-20)
(0.0017848 0.000209139 6.70354e-20)
(0.00168297 0.000203536 0)
(0.00158132 0.000199881 6.63533e-20)
(0.00147885 0.000197356 -6.65055e-20)
(0.00137473 0.000195139 0)
(0.00126832 0.000192313 0)
(0.00115919 0.000187841 -6.56678e-20)
(0.00104718 0.000180427 3.24031e-22)
(0.000932222 0.000168286 6.5702e-20)
(0.000814303 0.000148908 6.52644e-20)
(0.000693712 0.000118752 -1.30664e-19)
(0.00057302 7.19063e-05 6.54339e-20)
(0.000427485 -1.64758e-06 -6.09829e-20)
(0.000278154 -0.000115377 6.51918e-20)
(0.000227436 -0.000254669 6.46262e-20)
(0.000301091 -0.000372781 -6.4953e-20)
(0.000455825 -0.000436767 -1.94828e-19)
(0.000673475 -0.000427816 -3.25787e-19)
(0.000947473 -0.000334206 -6.54246e-20)
(0.00129672 -0.000149785 6.5542e-20)
(0.00168814 0.00010639 5.85667e-19)
(0.0020776 0.000392432 -5.82816e-19)
(0.0024536 0.000678351 -5.79906e-19)
(0.00280945 0.000946244 1.28518e-19)
(0.00314284 0.00118468 -9.61828e-20)
(0.00345801 0.00138829 2.87269e-19)
(0.00374505 0.00155062 0)
(0.00400451 0.00166976 2.85825e-19)
(0.00423421 0.00174456 -3.17807e-20)
(0.00442639 0.00177292 -2.52819e-19)
(0.00458169 0.0017594 -3.13503e-20)
(0.0046865 0.00170414 3.12333e-19)
(0.00474225 0.00161239 2.17185e-19)
(0.00473703 0.00148793 2.46357e-19)
(0.00466557 0.0013388 1.2219e-19)
(0.00452625 0.00117475 3.0239e-20)
(0.00430425 0.00100491 -3.02675e-20)
(0.0040148 0.000842445 -2.99312e-20)
(0.00363974 0.000699042 -4.44747e-20)
(0.00319199 0.000583722 -2.94791e-20)
(0.00268726 0.000509549 0)
(0.00212931 0.000482917 -1.1756e-19)
(0.00154308 0.000506514 0)
(0.000938759 0.000584438 4.08776e-19)
(0.000335239 0.000708263 2.33507e-19)
(-0.000249702 0.000877638 5.77576e-20)
(-0.000811437 0.0010779 0)
(-0.0013325 0.00130307 0)
(-0.0018145 0.00154155 2.13554e-19)
(-0.00224723 0.00178325 0)
(-0.00263221 0.00202194 -4.56291e-19)
(-0.00297434 0.00224677 4.45096e-19)
(-0.00326749 0.00245266 -4.1033e-19)
(-0.00351986 0.0026346 2.28069e-22)
(-0.00373249 0.00278725 2.20754e-22)
(-0.00390545 0.0029087 -3.16288e-19)
(-0.0040436 0.00299824 -4.43879e-20)
(-0.0041495 0.00305555 -3.25309e-19)
(-0.00422393 0.00308216 -3.40436e-19)
(-0.00427039 0.00308061 -1.62099e-21)
(-0.00429254 0.00305344 3.17646e-19)
(-0.00429262 0.00300441 -3.1183e-19)
(-0.00427433 0.00293756 0)
(-0.00424129 0.00285613 -4.84628e-21)
(-0.00419623 0.00276338 -3.01883e-19)
(-0.00414348 0.00266149 5.99151e-19)
(-0.00408647 0.00255102 8.88114e-19)
(-0.00402585 0.00243289 2.98888e-19)
(-0.00396558 0.00230733 -1.00649e-20)
(-0.00390679 0.0021731 0)
(-0.00384797 0.00203007 -8.59321e-21)
(-0.00379139 0.00187803 8.5061e-21)
(-0.00373633 0.00171593 0)
(-0.00368003 0.00154453 -1.31472e-19)
(-0.00362563 0.00136314 1.60928e-20)
(-0.00356723 0.00117328 -1.59432e-20)
(-0.00350837 0.000975579 -2.76492e-22)
(-0.00344444 0.000772152 -1.2369e-19)
(-0.00337784 0.00056379 1.52125e-20)
(-0.00330354 0.000353203 -3.01867e-20)
(-0.00322389 0.000142025 1.50012e-20)
(-0.00313425 -6.68102e-05 1.0294e-23)
(-0.00303545 -0.000270785 7.37816e-21)
(-0.00292439 -0.000467073 -7.406e-21)
(-0.00280017 -0.000651554 5.90906e-20)
(-0.00266154 -0.000821421 6.29087e-20)
(-0.00250698 -0.00097232 1.15285e-19)
(-0.00233673 -0.00110115 -2.3928e-19)
(-0.00214973 -0.00120447 1.16604e-19)
(-0.00194666 -0.00127981 3.8073e-21)
(-0.00172857 -0.00132499 3.81427e-21)
(-0.00149594 -0.0013386 -3.87742e-21)
(-0.00125286 -0.00131976 1.24972e-19)
(-0.000998037 -0.001269 -8.30805e-21)
(-0.000736344 -0.00118666 6.31594e-23)
(-0.000470199 -0.00107545 -1.12115e-19)
(-0.000200232 -0.000937432 -3.97387e-19)
(6.91755e-05 -0.000775964 2.59518e-19)
(0.000336121 -0.000595198 2.59806e-19)
(0.00060004 -0.000398989 -2.74596e-19)
(0.000857905 -0.000191981 -2.39782e-19)
(0.0011081 2.09136e-05 2.40043e-19)
(0.00135094 0.00023543 2.84928e-19)
(0.00158497 0.000447253 2.37375e-19)
(0.00180979 0.000652207 -3.26836e-20)
(0.00202539 0.000846806 3.13854e-20)
(0.00223139 0.00102788 0)
(0.00242842 0.00119295 2.78113e-19)
(0.00261809 0.00134018 2.45503e-19)
(0.002798 0.00146735 2.13586e-19)
(0.00296902 0.00157325 0)
(0.00313501 0.00165797 2.70358e-19)
(0.00329014 0.00171967 -2.99467e-20)
(0.00343599 0.00175793 8.8223e-20)
(0.00357646 0.00177417 2.94299e-20)
(0.00369956 0.00176632 8.17539e-22)
(0.00380899 0.00173548 1.43141e-19)
(0.00389885 0.00168284 -2.84799e-20)
(0.00396418 0.00160864 1.3847e-19)
(0.0040005 0.00151536 -2.46909e-19)
(0.00399857 0.00140553 -2.15691e-19)
(0.00395008 0.00128292 -1.05687e-19)
(0.00385123 0.00115317 0)
(0.00368414 0.0010222 2.49754e-20)
(0.00345779 0.000898083 -3.60211e-22)
(0.00314992 0.000790779 -1.19401e-20)
(0.00276663 0.000707376 4.21153e-20)
(0.00231816 0.000658944 -2.39137e-20)
(0.00179851 0.000653914 4.62827e-20)
(0.00123564 0.000693241 -4.54808e-20)
(0.000629454 0.000786446 0)
(5.96736e-06 0.000921589 1.08453e-19)
(-0.000617648 0.00110322 -4.18971e-20)
(-0.00122811 0.00131326 8.07761e-20)
(-0.00180283 0.00154874 1.95333e-20)
(-0.00233629 0.00178486 -9.2359e-20)
(-0.00280858 0.00200012 1.80241e-20)
(-0.00321437 0.0021479 0)
(-0.0035517 0.00217151 -8.2156e-20)
(-0.00380231 0.0019638 4.10463e-22)
(-0.00386678 0.00161177 3.97749e-22)
(-0.00385808 0.00117433 3.98216e-22)
(-0.00374461 0.000689353 -2.80208e-20)
(-0.00351649 0.000200822 4.06641e-22)
(-0.00316473 -0.000232094 1.91891e-22)
(-0.00269519 -0.000569041 1.2698e-20)
(-0.00215555 -0.000771114 -1.11953e-20)
(-0.00163872 -0.000852993 -1.19838e-20)
(-0.00116309 -0.000846989 -1.04815e-21)
(-0.000733481 -0.000780602 1.17553e-20)
(-0.000359237 -0.000676382 -1.39993e-21)
(-4.47304e-05 -0.000553546 -1.06419e-20)
(0.000210028 -0.000427244 1.06333e-20)
(0.000408624 -0.000308621 1.24773e-21)
(0.000557435 -0.000205247 1.19833e-21)
(0.000664777 -0.000121612 0)
(0.000739994 -5.96346e-05 -8.56442e-21)
(0.000792629 -1.89124e-05 8.54764e-21)
(0.000831753 2.50719e-06 0)
(0.000865378 7.73545e-06 9.41702e-22)
(0.000899747 7.62976e-07 0)
(0.000939101 -1.41538e-05 -8.39932e-22)
(0.000985655 -3.26978e-05 -3.06126e-21)
(0.00103992 -5.06283e-05 3.05035e-21)
(0.00110076 -6.47505e-05 6.88057e-22)
(0.00116535 -7.24543e-05 -6.3543e-22)
(0.00123003 -7.22246e-05 0)
(0.00129088 -6.36379e-05 2.04915e-21)
(0.00134391 -4.69648e-05 -2.04368e-21)
(0.00138547 -2.34627e-05 -4.37813e-22)
(0.0014127 5.01048e-06 -7.34768e-22)
(0.00142369 3.63449e-05 7.33052e-22)
(0.00141783 6.83672e-05 -5.46241e-22)
(0.00139557 9.91499e-05 5.45035e-22)
(0.00135839 0.000127235 2.04107e-22)
(0.00130887 0.000151735 1.35568e-22)
(0.00124984 0.000172386 -9.01444e-23)
(0.0011801 0.000189873 -1.1312e-22)
(0.00110371 0.000207546 0)
(0.00401781 0.000242046 0)
(0.00390471 0.000694033 0)
(0.00414008 0.00101905 0)
(0.00447772 0.00121622 -8.38068e-21)
(0.00472744 0.00129559 8.32822e-21)
(0.00488231 0.00128835 0)
(0.00496069 0.00123238 -1.63915e-20)
(0.00496901 0.0011426 1.64167e-20)
(0.00493496 0.00103959 1.63191e-20)
(0.00486992 0.000933128 -3.26796e-20)
(0.00478435 0.000830451 1.63659e-20)
(0.00468735 0.000736373 0)
(0.00458422 0.000651889 0)