/*--------------------------------*- C++ -*----------------------------------*\
| =========                 |                                                 |
| \\      /  F ield         | OpenFOAM: The Open Source CFD Toolbox           |
|  \\    /   O peration     | Version:  2506                                  |
|   \\  /    A nd           | Website:  www.openfoam.com                      |
|    \\/     M anipulation  |                                                 |
\*---------------------------------------------------------------------------*/
FoamFile
{
    version     2.0;
    format      ascii;
    arch        "LSB;label=32;scalar=64";
    class       surfaceScalarField;
    location    "1.25";
    object      phi;
}
// * * * * * * * * * * * * * * * * * * * * * * * * * * * * * * * * * * * * * //

dimensions      [0 3 -1 0 0 0 0];

oriented        oriented;

internalField   nonuniform List<scalar> 
7780
(
2.03568e-09
4.64284e-10
1.48438e-09
5.51246e-10
1.07539e-09
4.08924e-10
7.88229e-10
2.87124e-10
5.89505e-10
1.98724e-10
4.50441e-10
1.3908e-10
3.51356e-10
9.90992e-11
2.7878e-10
7.25828e-11
2.24192e-10
5.45907e-11
1.82391e-10
4.18002e-11
1.49899e-10
3.24914e-11
1.24288e-10
2.56104e-11
1.0384e-10
2.04467e-11
8.72487e-11
1.6591e-11
7.34816e-11
1.37671e-11
6.17418e-11
1.17402e-11
5.14126e-11
1.03299e-11
4.20031e-11
9.4105e-12
3.31262e-11
8.87803e-12
2.44884e-11
8.63912e-12
1.58736e-11
8.61612e-12
7.1239e-12
8.7512e-12
-1.87351e-12
8.99897e-12
-1.11926e-11
9.32081e-12
-2.08806e-11
9.68987e-12
-3.09646e-11
1.00862e-11
-4.14498e-11
1.04879e-11
-5.23123e-11
1.08657e-11
-6.34857e-11
1.11771e-11
-7.48435e-11
1.13621e-11
-8.61788e-11
1.13399e-11
-9.71599e-11
1.09857e-11
-1.07063e-10
9.90709e-12
-1.16266e-10
9.20622e-12
-1.16679e-10
4.13703e-13
-1.03438e-10
-1.32398e-11
-7.99434e-11
-2.34845e-11
-4.96415e-11
-3.02725e-11
-1.33655e-11
-3.62221e-11
2.94195e-11
-4.27104e-11
8.66324e-11
-5.71319e-11
1.4912e-10
-6.24224e-11
2.05726e-10
-5.65681e-11
2.56315e-10
-5.05744e-11
2.99281e-10
-4.29653e-11
3.36123e-10
-3.68448e-11
3.69125e-10
-3.3004e-11
3.94123e-10
-2.49929e-11
4.15684e-10
-2.15471e-11
4.32056e-10
-1.6352e-11
4.4185e-10
-9.76883e-12
4.47903e-10
-6.01778e-12
4.43866e-10
4.0848e-12
4.35889e-10
8.02948e-12
4.16973e-10
1.89671e-11
3.91358e-10
2.56543e-11
3.57177e-10
3.42039e-11
3.13327e-10
4.38539e-11
2.66964e-10
4.63521e-11
2.09998e-10
5.69441e-11
1.54514e-10
5.54654e-11
9.74507e-11
5.70578e-11
4.19358e-11
5.55373e-11
-9.3299e-12
5.13255e-11
-5.79202e-11
4.86912e-11
-1.00153e-10
4.23694e-11
-1.38775e-10
3.87829e-11
-1.7178e-10
3.31704e-11
-2.00998e-10
2.93694e-11
-2.262e-10
2.53299e-11
-2.48548e-10
2.24504e-11
-2.68175e-10
1.97034e-11
-2.85289e-10
1.71658e-11
-3.00165e-10
1.49103e-11
-3.12734e-10
1.25971e-11
-3.23385e-10
1.06795e-11
-3.3218e-10
8.83401e-12
-3.39106e-10
6.98277e-12
-3.44585e-10
5.55649e-12
-3.48811e-10
4.32572e-12
-3.51948e-10
3.25663e-12
-3.54373e-10
2.55633e-12
-3.56341e-10
2.10323e-12
-3.58108e-10
1.8972e-12
-3.59986e-10
2.00019e-12
-3.61935e-10
2.06021e-12
-3.63963e-10
2.12851e-12
-3.66619e-10
2.74592e-12
-3.69424e-10
2.88564e-12
-3.72113e-10
2.76149e-12
-3.75421e-10
3.37011e-12
-3.78467e-10
3.09869e-12
-3.8105e-10
2.62813e-12
-3.83966e-10
2.95253e-12
-3.8549e-10
1.5533e-12
-3.87381e-10
1.91361e-12
-3.87274e-10
-8.86941e-14
-3.87055e-10
-2.05862e-13
-3.84389e-10
-2.65433e-12
-3.81613e-10
-2.76826e-12
-3.76476e-10
-5.13019e-12
-3.70746e-10
-5.72354e-12
-3.63233e-10
-7.50708e-12
-3.52999e-10
-1.02276e-11
-3.41158e-10
-1.18343e-11
-3.26375e-10
-1.47747e-11
-3.0998e-10
-1.63834e-11
-2.90765e-10
-1.91998e-11
-2.69168e-10
-2.15784e-11
-2.45006e-10
-2.41369e-11
-2.18387e-10
-2.6587e-11
-1.89522e-10
-2.88258e-11
-1.58529e-10
-3.09444e-11
-1.26183e-10
-3.22859e-11
-9.21409e-11
-3.39702e-11
-5.76044e-11
-3.44516e-11
-2.28301e-11
-3.46765e-11
1.20332e-11
-3.47527e-11
4.57433e-11
-3.35873e-11
7.81332e-11
-3.22556e-11
1.09155e-10
-3.0877e-11
1.37862e-10
-2.85545e-11
1.64e-10
-2.59801e-11
1.87992e-10
-2.38296e-11
2.09217e-10
-2.1063e-11
2.27858e-10
-1.84796e-11
2.44059e-10
-1.60426e-11
2.57725e-10
-1.35121e-11
2.69342e-10
-1.1469e-11
2.79777e-10
-1.02968e-11
2.87847e-10
-7.946e-12
2.94912e-10
-6.96593e-12
3.02262e-10
-7.29342e-12
3.07578e-10
-5.31309e-12
3.12695e-10
-5.17038e-12
3.19326e-10
-6.74131e-12
3.22407e-10
-3.24112e-12
3.27162e-10
-4.95278e-12
3.29384e-10
-2.43441e-12
3.30287e-10
-1.10431e-12
3.28483e-10
1.64499e-12
3.22437e-10
5.94937e-12
3.10706e-10
1.17078e-11
2.94191e-10
1.65591e-11
2.68148e-10
2.61314e-11
2.38227e-10
3.00278e-11
1.9626e-10
4.20656e-11
1.50564e-10
4.57713e-11
9.94551e-11
5.11583e-11
4.4395e-11
5.50927e-11
-9.87956e-12
5.43056e-11
-6.55244e-11
5.56907e-11
-1.16569e-10
5.11144e-11
-1.6476e-10
4.82873e-11
-2.0728e-10
4.26353e-11
-2.44703e-10
3.75463e-11
-2.76141e-10
3.15542e-11
-3.00846e-10
2.48104e-11
-3.17409e-10
1.66625e-11
-3.21907e-10
4.5983e-12
-3.35403e-10
1.35773e-11
-3.41878e-10
6.54108e-12
-3.39094e-10
-2.73766e-12
-3.27777e-10
-1.12917e-11
-3.09788e-10
-1.79806e-11
-2.8336e-10
-2.64247e-11
-2.48754e-10
-3.4598e-11
-2.05546e-10
-4.31932e-11
-1.61603e-10
-4.3924e-11
-1.22344e-10
-3.92387e-11
-9.00701e-11
-3.22547e-11
-6.53575e-11
-2.46943e-11
-4.77268e-11
-1.76144e-11
-3.61216e-11
-1.15916e-11
-2.92994e-11
-6.81111e-12
-2.61429e-11
-3.14798e-12
-2.50473e-11
-1.08916e-12
-2.50291e-11
-1.36227e-14
-2.52777e-11
2.51786e-13
-2.51971e-11
-7.84251e-14
-2.44281e-11
-7.67364e-13
-2.27909e-11
-1.63601e-12
-2.02539e-11
-2.53584e-12
-1.70949e-11
-3.15762e-12
-1.36285e-11
-3.46501e-12
-1.02081e-11
-3.41894e-12
-7.18591e-12
-3.02068e-12
-4.90011e-12
-2.28426e-12
-3.63206e-12
-1.26652e-12
-3.41005e-12
-2.20535e-13
-4.36868e-12
9.59982e-13
-6.34324e-12
1.97571e-12
-9.31441e-12
2.97211e-12
-1.31882e-11
3.87443e-12
-1.77883e-11
4.60054e-12
-2.29388e-11
5.15067e-12
-2.8494e-11
5.55516e-12
-3.43731e-11
5.8788e-12
-4.0734e-11
6.36148e-12
8.05166e-12
2.66235e-09
3.01915e-10
2.61127e-09
6.02288e-10
2.41387e-09
6.06297e-10
2.16481e-09
5.36162e-10
1.91518e-09
4.48368e-10
1.69366e-09
3.60625e-10
1.50833e-09
2.84459e-10
1.35665e-09
2.24275e-10
1.23385e-09
1.77404e-10
1.13493e-09
1.40729e-10
1.05512e-09
1.12301e-10
9.90375e-10
9.03508e-11
9.37459e-10
7.33599e-11
8.93678e-10
6.03707e-11
8.56795e-10
5.06481e-11
8.25018e-10
4.35161e-11
7.96904e-10
3.84434e-11
7.7127e-10
3.50444e-11
7.47156e-10
3.29926e-11
7.238e-10
3.19955e-11
7.00608e-10
3.18089e-11
6.77114e-10
3.22471e-11
6.52942e-10
3.31717e-11
6.27785e-10
3.44804e-11
6.01375e-10
3.61011e-11
5.73479e-10
3.79846e-11
5.43878e-10
4.0092e-11
5.12362e-10
4.23851e-11
4.78726e-10
4.48159e-11
4.42774e-10
4.73174e-11
4.04313e-10
4.98049e-11
3.63103e-10
5.21988e-11
3.18732e-10
5.42802e-11
2.67616e-10
6.03227e-11
2.33286e-10
3.47405e-11
2.39963e-10
-1.99269e-11
2.78647e-10
-6.21847e-11
3.38436e-10
-9.00776e-11
4.15913e-10
-1.13703e-10
5.11398e-10
-1.38175e-10
6.30204e-10
-1.75887e-10
7.53542e-10
-1.85693e-10
8.6773e-10
-1.70695e-10
9.71226e-10
-1.54031e-10
1.06192e-09
-1.33646e-10
1.14199e-09
-1.16922e-10
1.2136e-09
-1.04628e-10
1.27286e-09
-8.42786e-11
1.32441e-09
-7.31175e-11
1.36609e-09
-5.80604e-11
1.39665e-09
-4.03493e-11
1.41752e-09
-2.6923e-11
1.42306e-09
-1.47705e-12
1.41701e-09
1.40706e-11
1.39252e-09
4.34607e-11
1.35282e-09
6.5355e-11
1.29525e-09
9.17799e-11
1.21845e-09
1.2066e-10
1.12964e-09
1.35167e-10
1.02013e-09
1.66456e-10
9.04398e-10
1.71209e-10
7.80604e-10
1.8088e-10
6.54559e-10
1.81628e-10
5.31736e-10
1.7421e-10
4.116e-10
1.68898e-10
3.00927e-10
1.53113e-10
1.96942e-10
1.42832e-10
1.03887e-10
1.26272e-10
1.96406e-11
1.13646e-10
-5.50951e-11
1.00082e-10
-1.20403e-10
8.77646e-11
-1.78314e-10
7.76108e-11
-2.28176e-10
6.70213e-11
-2.71292e-10
5.80225e-11
-3.08262e-10
4.95675e-11
-3.39175e-10
4.16012e-11
-3.64706e-10
3.43842e-11
-3.85425e-10
2.77321e-11
-4.01696e-10
2.18686e-11
-4.14151e-10
1.68284e-11
-4.23443e-10
1.26e-11
-4.30179e-10
9.34262e-12
-4.34999e-10
6.96752e-12
-4.38535e-10
5.46828e-12
-4.41071e-10
4.56413e-12
-4.43156e-10
4.16799e-12
-4.45117e-10
4.10703e-12
-4.47059e-10
4.70259e-12
-4.49125e-10
4.96304e-12
-4.51302e-10
4.94567e-12
-4.53236e-10
5.309e-12
-4.54967e-10
4.83278e-12
-4.56141e-10
3.80317e-12
-4.56324e-10
3.13537e-12
-4.55481e-10
7.10469e-13
-4.52899e-10
-6.68413e-13
-4.47991e-10
-4.99598e-12
-4.40373e-10
-7.82238e-12
-4.30109e-10
-1.29165e-11
-4.16231e-10
-1.66443e-11
-3.98668e-10
-2.26895e-11
-3.7649e-10
-2.78988e-11
-3.49627e-10
-3.43661e-11
-3.18414e-10
-4.14366e-11
-2.8177e-10
-4.84754e-11
-2.40185e-10
-5.6357e-11
-1.92595e-10
-6.39712e-11
-1.40007e-10
-7.1787e-11
-8.21396e-11
-7.94453e-11
-1.96568e-11
-8.66203e-11
4.69791e-11
-9.32243e-11
1.16878e-10
-9.87272e-11
1.89616e-10
-1.03686e-10
2.63315e-10
-1.05989e-10
3.38541e-10
-1.09199e-10
4.12669e-10
-1.0858e-10
4.85348e-10
-1.07352e-10
5.55938e-10
-1.05334e-10
6.22766e-10
-1.00399e-10
6.85608e-10
-9.50722e-11
7.44168e-10
-8.94037e-11
7.97358e-10
-8.17015e-11
8.45144e-10
-7.37171e-11
8.87945e-10
-6.65762e-11
9.25409e-10
-5.84711e-11
9.57967e-10
-5.09834e-11
9.86014e-10
-4.40387e-11
1.00996e-09
-3.74069e-11
1.03079e-09
-3.22526e-11
1.04936e-09
-2.88123e-11
1.06488e-09
-2.33987e-11
1.07924e-09
-2.12469e-11
1.09388e-09
-2.18475e-11
1.1065e-09
-1.78481e-11
1.11969e-09
-1.83024e-11
1.13407e-09
-2.10894e-11
1.14519e-09
-1.43776e-11
1.15743e-09
-1.72498e-11
1.16637e-09
-1.14826e-11
1.17214e-09
-7.02776e-12
1.17301e-09
6.00981e-13
1.16557e-09
1.32062e-11
1.14816e-09
2.89573e-11
1.11899e-09
4.56246e-11
1.07282e-09
7.22483e-11
1.01457e-09
8.82924e-11
9.34159e-10
1.22527e-10
8.41151e-10
1.38846e-10
7.33707e-10
1.58666e-10
6.14216e-10
1.74638e-10
4.90726e-10
1.77842e-10
3.60258e-10
1.86199e-10
2.3393e-10
1.77481e-10
1.08771e-10
1.73481e-10
-6.97978e-12
1.58415e-10
-1.15167e-10
1.45752e-10
-2.10792e-10
1.27188e-10
-2.9453e-10
1.08556e-10
-3.63865e-10
8.60109e-11
-4.16884e-10
5.76322e-11
-4.39182e-10
3.5886e-11
-4.39183e-10
6.54659e-12
-4.15853e-10
-2.60708e-11
-3.68522e-10
-5.86328e-11
-2.96615e-10
-8.9901e-11
-2.02932e-10
-1.20119e-10
-8.84582e-11
-1.49076e-10
2.88692e-11
-1.60517e-10
1.35715e-10
-1.50762e-10
2.27951e-10
-1.31464e-10
3.03937e-10
-1.08229e-10
3.63881e-10
-8.46274e-11
4.0934e-10
-6.30623e-11
4.42685e-10
-4.49274e-11
4.66673e-10
-3.0791e-11
4.84207e-10
-2.06766e-11
4.97501e-10
-1.43783e-11
5.08711e-10
-1.1221e-11
5.19452e-10
-1.04876e-11
5.30795e-10
-1.14214e-11
5.43303e-10
-1.32757e-11
5.5705e-10
-1.53839e-11
5.71691e-10
-1.7178e-11
5.86717e-10
-1.81848e-11
6.01402e-10
-1.81508e-11
6.14969e-10
-1.69856e-11
6.26693e-10
-1.47457e-11
6.36014e-10
-1.16046e-11
6.42573e-10
-7.82477e-12
6.4611e-10
-3.75678e-12
6.46722e-10
3.48915e-13
6.4454e-10
4.15879e-12
6.4e-10
7.51338e-12
6.33574e-10
1.03017e-11
6.25762e-10
1.24135e-11
6.17049e-10
1.38644e-11
6.07855e-10
1.47486e-11
5.98478e-10
1.52557e-11
5.89107e-10
1.5732e-11
1.76954e-11
2.62618e-09
1.75722e-10
2.78492e-09
4.43566e-10
2.84175e-09
5.49469e-10
2.81369e-09
5.64238e-10
2.7269e-09
5.35192e-10
2.60523e-09
4.8234e-10
2.47183e-09
4.17889e-10
2.34128e-09
3.54839e-10
2.22145e-09
2.97248e-10
2.11502e-09
2.4716e-10
2.0221e-09
2.05227e-10
1.94187e-09
1.70582e-10
1.87299e-09
1.42242e-10
1.8137e-09
1.19656e-10
1.76224e-09
1.02107e-10
1.71702e-09
8.87296e-11
1.67663e-09
7.88366e-11
1.63975e-09
7.19198e-11
1.60525e-09
6.7496e-11
1.57214e-09
6.5103e-11
1.53961e-09
6.43392e-11
1.50697e-09
6.4893e-11
1.47362e-09
6.65251e-11
1.43904e-09
6.90563e-11
1.40278e-09
7.23657e-11
1.36439e-09
7.63797e-11
1.32342e-09
8.10575e-11
1.27943e-09
8.6378e-11
1.23192e-09
9.23284e-11
1.18035e-09
9.88957e-11
1.12409e-09
1.06071e-10
1.06239e-09
1.13897e-10
9.94183e-10
1.22492e-10
9.14794e-10
1.39712e-10
8.51194e-10
9.8338e-11
8.35086e-10
-3.83077e-12
8.60054e-10
-8.71766e-11
9.15996e-10
-1.46056e-10
9.98695e-10
-1.96438e-10
1.10626e-09
-2.45755e-10
1.23954e-09
-3.09145e-10
1.37843e-09
-3.24521e-10
1.51191e-09
-3.04089e-10
1.63644e-09
-2.78493e-10
1.74896e-09
-2.46105e-10
1.85075e-09
-2.18688e-10
1.9432e-09
-1.97079e-10
2.02331e-09
-1.64401e-10
2.09453e-09
-1.44353e-10
2.15513e-09
-1.18685e-10
2.20391e-09
-8.91549e-11
2.24138e-09
-6.44257e-11
2.26368e-09
-2.38156e-11
2.27236e-09
5.35888e-12
2.26252e-09
5.32745e-11
2.23524e-09
9.26267e-11
2.1879e-09
1.39119e-10
2.1184e-09
1.90168e-10
2.03129e-09
2.22283e-10
1.91883e-09
2.78925e-10
1.79199e-09
2.98069e-10
1.64902e-09
3.23887e-10
1.49561e-09
3.3509e-10
1.33745e-09
3.3242e-10
1.17571e-09
3.30685e-10
1.01891e-09
3.09939e-10
8.65993e-10
2.95765e-10
7.23498e-10
2.68757e-10
5.90369e-10
2.46748e-10
4.6889e-10
2.21523e-10
3.59863e-10
1.96748e-10
2.61239e-10
1.76192e-10
1.74873e-10
1.53351e-10
9.90513e-11
1.33818e-10
3.29894e-11
1.15615e-10
-2.31967e-11
9.77848e-11
-7.07073e-11
8.19047e-11
-1.10492e-10
6.75379e-11
-1.42861e-10
5.42671e-11
-1.68688e-10
4.26894e-11
-1.88971e-10
3.29173e-11
-2.04406e-10
2.48071e-11
-2.15933e-10
1.85123e-11
-2.24353e-10
1.38946e-11
-2.30443e-10
1.06521e-11
-2.35072e-10
8.78951e-12
-2.38838e-10
7.86094e-12
-2.41559e-10
7.41151e-12
-2.43953e-10
7.34282e-12
-2.46144e-10
7.12331e-12
-2.47325e-10
6.47559e-12
-2.47865e-10
5.36016e-12
-2.47477e-10
3.40301e-12
-2.44941e-10
5.89604e-13
-2.41184e-10
-3.05553e-12
-2.34004e-10
-7.85521e-12
-2.25017e-10
-1.39871e-11
-2.1169e-10
-2.11526e-11
-1.95086e-10
-2.95216e-11
-1.72569e-10
-3.91611e-11
-1.45408e-10
-4.98491e-11
-1.11421e-10
-6.18836e-11
-7.09749e-11
-7.48099e-11
-2.38438e-11
-8.85655e-11
3.12801e-11
-1.03597e-10
9.29171e-11
-1.17993e-10
1.62665e-10
-1.33719e-10
2.38757e-10
-1.47882e-10
3.21295e-10
-1.61988e-10
4.09214e-10
-1.74546e-10
5.01564e-10
-1.85584e-10
5.97063e-10
-1.94239e-10
6.9487e-10
-2.01509e-10
7.92673e-10
-2.03811e-10
8.90832e-10
-2.07381e-10
9.86412e-10
-2.04185e-10
1.07892e-09
-1.99889e-10
1.16759e-09
-1.94025e-10
1.25075e-09
-1.83586e-10
1.32818e-09
-1.72511e-10
1.39961e-09
-1.60849e-10
1.46416e-09
-1.46238e-10
1.52197e-09
-1.3151e-10
1.57351e-09
-1.18088e-10
1.61871e-09
-1.03625e-10
1.65819e-09
-9.04135e-11
1.69253e-09
-7.83371e-11
1.72241e-09
-6.72399e-11
1.74891e-09
-5.87194e-11
1.77296e-09
-5.28158e-11
1.79435e-09
-4.47293e-11
1.81471e-09
-4.15364e-11
1.83553e-09
-4.25614e-11
1.85497e-09
-3.71677e-11
1.87535e-09
-3.85668e-11
1.89655e-09
-4.21811e-11
1.9157e-09
-3.34378e-11
1.93535e-09
-3.68614e-11
1.9522e-09
-2.83357e-11
1.96558e-09
-2.04762e-11
1.97329e-09
-7.23313e-12
1.97259e-09
1.37304e-11
1.96157e-09
3.98006e-11
1.93729e-09
6.97413e-11
1.89549e-09
1.13936e-10
1.83804e-09
1.45688e-10
1.75657e-09
2.04001e-10
1.65713e-09
2.38335e-10
1.53774e-09
2.78119e-10
1.3992e-09
3.13244e-10
1.24891e-09
3.28191e-10
1.08344e-09
3.51714e-10
9.15278e-10
3.45675e-10
7.41436e-10
3.47344e-10
5.72838e-10
3.27018e-10
4.07312e-10
3.11268e-10
2.53756e-10
2.80725e-10
1.12954e-10
2.4934e-10
-6.39014e-12
2.05346e-10
-1.03858e-10
1.55093e-10
-1.35385e-10
6.74027e-11
-1.282e-10
-6.50404e-13
-8.71354e-11
-6.71512e-11
-1.39949e-11
-1.31793e-10
9.3647e-11
-1.97563e-10
2.28171e-10
-2.54661e-10
3.86305e-10
-3.07221e-10
5.40283e-10
-3.14498e-10
6.77492e-10
-2.87966e-10
7.96227e-10
-2.50189e-10
8.95958e-10
-2.07947e-10
9.77412e-10
-1.66067e-10
1.04236e-09
-1.27997e-10
1.09334e-09
-9.58959e-11
1.13332e-09
-7.07606e-11
1.16536e-09
-5.27038e-11
1.1922e-09
-4.12086e-11
1.21626e-09
-3.52782e-11
1.23942e-09
-3.36505e-11
1.26296e-09
-3.4954e-11
1.28751e-09
-3.78279e-11
1.31316e-09
-4.10315e-11
1.33949e-09
-4.35193e-11
1.36581e-09
-4.45033e-11
1.39117e-09
-4.35159e-11
1.41458e-09
-4.03967e-11
1.4351e-09
-3.52661e-11
1.45197e-09
-2.84719e-11
1.46467e-09
-2.05198e-11
1.47292e-09
-1.20089e-11
1.4768e-09
-3.52707e-12
1.47661e-09
4.34975e-12
1.47289e-09
1.12355e-11
1.46634e-09
1.68534e-11
1.4577e-09
2.10543e-11
1.44772e-09
2.38489e-11
1.43708e-09
2.5385e-11
1.42638e-09
2.59532e-11
1.41625e-09
2.58615e-11
2.69147e-11
2.57059e-09
1.05116e-10
2.71948e-09
2.94688e-10
2.85217e-09
4.16801e-10
2.94318e-09
4.73248e-10
2.99177e-09
4.8664e-10
2.99893e-09
4.75231e-10
2.97201e-09
4.44847e-10
2.92364e-09
4.03223e-10
2.86363e-09
3.57265e-10
2.79856e-09
3.12236e-10
2.73291e-09
2.70881e-10
2.66987e-09
2.33626e-10
2.61098e-09
2.01134e-10
2.55653e-09
1.74102e-10
2.50648e-09
1.52163e-10
2.46055e-09
1.34652e-10
2.41825e-09
1.21137e-10
2.37886e-09
1.11305e-10
2.34164e-09
1.04717e-10
2.30583e-09
1.00911e-10
2.27074e-09
9.9438e-11
2.23567e-09
9.99598e-11
2.2e-09
1.02193e-10
2.16315e-09
1.05916e-10
2.12453e-09
1.10979e-10
2.08362e-09
1.17297e-10
2.03984e-09
1.24839e-10
1.99261e-09
1.33616e-10
1.94127e-09
1.4367e-10
1.8851e-09
1.55069e-10
1.82326e-09
1.67913e-10
1.7548e-09
1.8236e-10
1.6785e-09
1.98797e-10
1.58991e-09
2.28303e-10
1.51194e-09
1.76302e-10
1.47442e-09
3.36831e-11
1.47644e-09
-8.92176e-11
1.51283e-09
-1.82496e-10
1.58047e-09
-2.64127e-10
1.67573e-09
-3.4107e-10
1.79636e-09
-4.29797e-10
1.92497e-09
-4.53103e-10
2.05377e-09
-4.32826e-10
2.1775e-09
-4.02144e-10
2.29228e-09
-3.60801e-10
2.39833e-09
-3.24681e-10
2.4963e-09
-2.95014e-10
2.58371e-09
-2.51797e-10
2.66301e-09
-2.23647e-10
2.7332e-09
-1.88877e-10
2.79266e-09
-1.48615e-10
2.84167e-09
-1.13448e-10
2.87827e-09
-6.04386e-11
2.90317e-09
-1.95711e-11
2.91273e-09
4.36985e-11
2.90722e-09
9.8115e-11
2.88453e-09
1.61812e-10
2.84225e-09
2.32451e-10
2.78246e-09
2.82087e-10
2.69877e-09
3.62639e-10
2.59742e-09
3.99437e-10
2.47597e-09
4.45377e-10
2.33819e-09
4.72914e-10
2.18785e-09
4.82798e-10
2.02642e-09
4.92149e-10
1.86152e-09
4.7485e-10
1.69363e-09
4.63637e-10
1.53008e-09
4.32269e-10
1.37158e-09
4.05194e-10
1.22181e-09
3.71225e-10
1.08294e-09
3.35544e-10
9.53782e-10
3.05291e-10
8.37321e-10
2.69764e-10
7.32204e-10
2.38904e-10
6.38088e-10
2.09714e-10
5.5555e-10
1.80323e-10
4.834e-10
1.54067e-10
4.2073e-10
1.30231e-10
3.67285e-10
1.07744e-10
3.22232e-10
8.77774e-11
2.84429e-10
7.07529e-11
2.53165e-10
5.6094e-11
2.27381e-10
4.43061e-11
2.06066e-10
3.52044e-11
1.88491e-10
2.82126e-11
1.73441e-10
2.38184e-11
1.60065e-10
2.12139e-11
1.48579e-10
1.88738e-11
1.37881e-10
1.80188e-11
1.27758e-10
1.72249e-11
1.19149e-10
1.50661e-11
1.11557e-10
1.29351e-11
1.05219e-10
9.72591e-12
1.01732e-10
4.06335e-12
1.00169e-10
-1.50269e-12
1.03164e-10
-1.08588e-11
1.09304e-10
-2.01329e-11
1.21465e-10
-3.33176e-11
1.38446e-10
-4.65054e-11
1.63586e-10
-6.4302e-11
1.95302e-10
-8.15648e-11
2.36227e-10
-1.02808e-10
2.85792e-10
-1.24374e-10
3.44381e-10
-1.47155e-10
4.13076e-10
-1.72291e-10
4.90013e-10
-1.94931e-10
5.76349e-10
-2.20059e-10
6.69902e-10
-2.41439e-10
7.70189e-10
-2.62282e-10
8.75756e-10
-2.80124e-10
9.85072e-10
-2.94914e-10
1.09661e-09
-3.0579e-10
1.20903e-09
-3.13952e-10
1.32007e-09
-3.14878e-10
1.4296e-09
-3.16946e-10
1.53502e-09
-3.09634e-10
1.63573e-09
-3.00641e-10
1.73102e-09
-2.89363e-10
1.81961e-09
-2.72225e-10
1.90135e-09
-2.54293e-10
1.97618e-09
-2.35719e-10
2.04356e-09
-2.13648e-10
2.10389e-09
-1.91848e-10
2.15766e-09
-1.71854e-10
2.20512e-09
-1.51059e-10
2.24701e-09
-1.32262e-10
2.28401e-09
-1.15296e-10
2.31692e-09
-1.00099e-10
2.34677e-09
-8.85117e-11
2.37435e-09
-8.03521e-11
2.39983e-09
-7.01573e-11
2.42451e-09
-6.61472e-11
2.44981e-09
-6.77501e-11
2.47424e-09
-6.14655e-11
2.49951e-09
-6.36741e-11
2.52516e-09
-6.76792e-11
2.54986e-09
-5.7976e-11
2.57443e-09
-6.12962e-11
2.59697e-09
-5.07861e-11
2.6162e-09
-3.96558e-11
2.6309e-09
-2.19594e-11
2.6381e-09
6.44696e-12
2.63676e-09
4.10159e-11
2.62384e-09
8.25175e-11
2.59648e-09
1.41156e-10
2.55444e-09
1.87635e-10
2.49175e-09
2.66643e-10
2.41076e-09
3.19336e-10
2.30944e-09
3.79483e-10
2.18638e-09
4.36365e-10
2.04678e-09
4.67849e-10
1.88616e-09
5.12379e-10
1.71506e-09
5.16814e-10
1.53001e-09
5.32407e-10
1.34204e-09
5.14982e-10
1.1492e-09
5.04091e-10
9.61505e-10
4.68393e-10
7.81786e-10
4.29032e-10
6.25258e-10
3.61855e-10
4.92336e-10
2.87998e-10
4.44349e-10
1.15372e-10
4.44183e-10
-5.00987e-13
4.85419e-10
-1.08406e-10
5.63259e-10
-2.09655e-10
6.7988e-10
-3.1421e-10
8.23796e-10
-3.98604e-10
9.89174e-10
-4.72624e-10
1.14627e-09
-4.71614e-10
1.28506e-09
-4.26758e-10
1.40597e-09
-3.71087e-10
1.50948e-09
-3.11454e-10
1.59665e-09
-2.53217e-10
1.66902e-09
-2.00349e-10
1.72864e-09
-1.55501e-10
1.77792e-09
-1.20028e-10
1.81942e-09
-9.41914e-11
1.85562e-09
-7.73906e-11
1.88872e-09
-6.83746e-11
1.92054e-09
-6.54615e-11
1.95234e-09
-6.67534e-11
1.98484e-09
-7.0323e-11
2.01818e-09
-7.43771e-11
2.05204e-09
-7.738e-11
2.08571e-09
-7.81694e-11
2.11822e-09
-7.60348e-11
2.14852e-09
-7.0699e-11
2.17556e-09
-6.23058e-11
2.19843e-09
-5.13427e-11
2.21646e-09
-3.85461e-11
2.22926e-09
-2.48087e-11
2.23679e-09
-1.10566e-11
2.23929e-09
1.84862e-12
2.23731e-09
1.32213e-11
2.23158e-09
2.258e-11
2.22298e-09
2.96618e-11
2.2124e-09
3.44315e-11
2.20073e-09
3.70555e-11
2.18878e-09
3.79007e-11
2.17737e-09
3.72687e-11
3.70047e-11
2.53931e-09
6.57842e-11
2.6401e-09
1.93869e-10
2.76253e-09
2.9436e-10
2.87811e-09
3.57652e-10
2.97347e-09
3.91307e-10
3.04648e-09
4.02273e-10
3.09652e-09
3.9484e-10
3.12473e-09
3.75029e-10
3.13324e-09
3.48765e-10
3.12639e-09
3.19097e-10
3.109e-09
2.88269e-10
3.08485e-09
2.57774e-10
3.05654e-09
2.29449e-10
3.02561e-09
2.05038e-10
2.99361e-09
1.8416e-10
2.9616e-09
1.66661e-10
2.93006e-09
1.52675e-10
2.89908e-09
1.42285e-10
2.86864e-09
1.3515e-10
2.83853e-09
1.31019e-10
2.80847e-09
1.29498e-10
2.77805e-09
1.30379e-10
2.74682e-09
1.33424e-10
2.7143e-09
1.38442e-10
2.67997e-09
1.45306e-10
2.64332e-09
1.53951e-10
2.60379e-09
1.64374e-10
2.56078e-09
1.76627e-10
2.51364e-09
1.90814e-10
2.46163e-09
2.07083e-10
2.40391e-09
2.25635e-10
2.33955e-09
2.46726e-10
2.26744e-09
2.70906e-10
2.18402e-09
3.11731e-10
2.10549e-09
2.54834e-10
2.05529e-09
8.3875e-11
2.03749e-09
-7.14288e-11
2.05208e-09
-1.97125e-10
2.0978e-09
-3.09902e-10
2.17067e-09
-4.14008e-10
2.26706e-09
-5.2625e-10
2.37366e-09
-5.59732e-10
2.48541e-09
-5.44556e-10
2.59564e-09
-5.12323e-10
2.70001e-09
-4.65096e-10
2.79797e-09
-4.22576e-10
2.88961e-09
-3.86596e-10
2.97351e-09
-3.35663e-10
3.05019e-09
-3.00314e-10
3.11951e-09
-2.58185e-10
3.18069e-09
-2.09782e-10
3.23351e-09
-1.66264e-10
3.27741e-09
-1.04335e-10
3.31227e-09
-5.44372e-11
3.33677e-09
1.91851e-11
3.35041e-09
8.44549e-11
3.35208e-09
1.60142e-10
3.33977e-09
2.44768e-10
3.31386e-09
3.08017e-10
3.26996e-09
4.06564e-10
3.21012e-09
4.59314e-10
3.13163e-09
5.23902e-10
3.03593e-09
5.68659e-10
2.92401e-09
5.94746e-10
2.79661e-09
6.19567e-10
2.65844e-09
6.13025e-10
2.51052e-09
6.11534e-10
2.35873e-09
5.8402e-10
2.20496e-09
5.58895e-10
2.05317e-09
5.22939e-10
1.90668e-09
4.81963e-10
1.76545e-09
4.46458e-10
1.63339e-09
4.01785e-10
1.51008e-09
3.62189e-10
1.39595e-09
3.23829e-10
1.29221e-09
2.84071e-10
1.19811e-09
2.48187e-10
1.1132e-09
2.15164e-10
1.03742e-09
1.83555e-10
9.70288e-10
1.54951e-10
9.10836e-10
1.30238e-10
8.58606e-10
1.08346e-10
8.12702e-10
9.0214e-11
7.72242e-10
7.56517e-11
7.36636e-10
6.37949e-11
7.04657e-10
5.57684e-11
6.75357e-10
5.0484e-11
6.48952e-10
4.52499e-11
6.24142e-10
4.28036e-11
6.00725e-10
4.06181e-11
5.79532e-10
3.62391e-11
5.60203e-10
3.22458e-11
5.42962e-10
2.6951e-11
5.298e-10
1.7212e-11
5.1974e-10
8.54688e-12
5.15793e-10
-6.92087e-12
5.16734e-10
-2.10809e-11
5.2572e-10
-4.23082e-11
5.41433e-10
-6.22213e-11
5.67547e-10
-9.04176e-11
6.02206e-10
-1.16225e-10
6.48177e-10
-1.4878e-10
7.04521e-10
-1.80718e-10
7.71489e-10
-2.14123e-10
8.49706e-10
-2.50509e-10
9.36948e-10
-2.82175e-10
1.03377e-09
-3.16882e-10
1.13762e-09
-3.45299e-10
1.24741e-09
-3.72075e-10
1.36141e-09
-3.94135e-10
1.4776e-09
-4.11122e-10
1.59437e-09
-4.22586e-10
1.71009e-09
-4.29692e-10
1.82273e-09
-4.27539e-10
1.93187e-09
-4.26125e-10
2.03543e-09
-4.13235e-10
2.13292e-09
-3.9817e-10
2.22385e-09
-3.80349e-10
2.30745e-09
-3.55885e-10
2.38378e-09
-3.30685e-10
2.45306e-09
-3.05069e-10
2.51517e-09
-2.75816e-10
2.57072e-09
-2.47449e-10
2.62028e-09
-2.21446e-10
2.66436e-09
-1.95147e-10
2.70375e-09
-1.71637e-10
2.73916e-09
-1.50671e-10
2.77137e-09
-1.32277e-10
2.80127e-09
-1.18362e-10
2.82938e-09
-1.08424e-10
2.856e-09
-9.674e-11
2.88229e-09
-9.2393e-11
2.90947e-09
-9.48528e-11
2.93615e-09
-8.80338e-11
2.96318e-09
-9.05615e-11
2.99025e-09
-9.45877e-11
3.01718e-09
-8.47209e-11
3.04343e-09
-8.73784e-11
3.06844e-09
-7.56339e-11
3.09059e-09
-6.16903e-11
3.10958e-09
-4.08655e-11
3.1231e-09
-7.06026e-12
3.13052e-09
3.35528e-11
3.12941e-09
8.35406e-11
3.11849e-09
1.5197e-10
3.09613e-09
2.09891e-10
3.05922e-09
3.03476e-10
3.00716e-09
3.7137e-10
2.93842e-09
4.48238e-10
2.84993e-09
5.24899e-10
2.74446e-09
5.73378e-10
2.61682e-09
6.40073e-10
2.47379e-09
6.5988e-10
2.31119e-09
6.95022e-10
2.1375e-09
6.88677e-10
1.95035e-09
6.91213e-10
1.75875e-09
6.59963e-10
1.56748e-09
6.2027e-10
1.39704e-09
5.32269e-10
1.24719e-09
4.3783e-10
1.18188e-09
1.80666e-10
1.1664e-09
1.49575e-11
1.19456e-09
-1.36582e-10
1.26035e-09
-2.75474e-10
1.36511e-09
-4.18997e-10
1.49475e-09
-5.28284e-10
1.64198e-09
-6.19887e-10
1.77922e-09
-6.08882e-10
1.89929e-09
-5.46845e-10
2.00415e-09
-4.75954e-10
2.09515e-09
-4.02451e-10
2.17361e-09
-3.31671e-10
2.2409e-09
-2.67628e-10
2.29853e-09
-2.1311e-10
2.34817e-09
-1.69649e-10
2.39162e-09
-1.37626e-10
2.43069e-09
-1.16445e-10
2.46706e-09
-1.04732e-10
2.50216e-09
-1.00551e-10
2.53705e-09
-1.01637e-10
2.57237e-09
-1.05634e-10
2.60829e-09
-1.10299e-10
2.64457e-09
-1.13657e-10
2.68058e-09
-1.14187e-10
2.71549e-09
-1.10945e-10
2.74828e-09
-1.03495e-10
2.77794e-09
-9.19657e-11
2.80353e-09
-7.69318e-11
2.82429e-09
-5.93063e-11
2.83972e-09
-4.02479e-11
2.84967e-09
-2.09985e-11
2.85424e-09
-2.72298e-12
2.85386e-09
1.36023e-11
2.84919e-09
2.72541e-11
2.84105e-09
3.77987e-11
2.83038e-09
4.51039e-11
2.81813e-09
4.93103e-11
2.8052e-09
5.08311e-11
2.79245e-09
5.00231e-11
4.84409e-11
2.5232e-09
4.2554e-11
2.5875e-09
1.29529e-10
2.6788e-09
2.03015e-10
2.78012e-09
2.56302e-10
2.88048e-09
2.9096e-10
2.97284e-09
3.09947e-10
3.05212e-09
3.15591e-10
3.11634e-09
3.10834e-10
3.16635e-09
2.98772e-10
3.20356e-09
2.81891e-10
3.2297e-09
2.62125e-10
3.24513e-09
2.42339e-10
3.251e-09
2.23581e-10
3.25039e-09
2.05653e-10
3.24494e-09
1.89607e-10
3.23588e-09
1.75725e-10
3.22395e-09
1.646e-10
3.20973e-09
1.56505e-10
3.19386e-09
1.51019e-10
3.17667e-09
1.48204e-10
3.15826e-09
1.47917e-10
3.13856e-09
1.5008e-10
3.11741e-09
1.5457e-10
3.09456e-09
1.61295e-10
3.06967e-09
1.702e-10
3.04234e-09
1.81279e-10
3.01213e-09
1.94582e-10
2.97855e-09
2.10216e-10
2.94102e-09
2.28346e-10
2.89891e-09
2.49188e-10
2.85152e-09
2.73028e-10
2.79805e-09
3.00199e-10
2.73764e-09
3.31321e-10
2.66781e-09
3.81565e-10
2.59819e-09
3.24464e-10
2.54467e-09
1.37391e-10
2.51453e-09
-4.12913e-11
2.51187e-09
-1.94481e-10
2.53706e-09
-3.35145e-10
2.58654e-09
-4.63556e-10
2.65654e-09
-5.96333e-10
2.73801e-09
-6.41262e-10
2.82803e-09
-6.34611e-10
2.91894e-09
-6.03212e-10
3.00616e-09
-5.52281e-10
3.08876e-09
-5.05122e-10
3.16654e-09
-4.64322e-10
3.23906e-09
-4.08145e-10
3.30594e-09
-3.67165e-10
3.36605e-09
-3.18284e-10
3.42102e-09
-2.64737e-10
3.46993e-09
-2.15175e-10
3.51323e-09
-1.47622e-10
3.55028e-09
-9.14942e-11
3.58175e-09
-1.22831e-11
3.60663e-09
5.95667e-11
3.62499e-09
1.41776e-10
3.63559e-09
2.34178e-10
3.6379e-09
3.05733e-10
3.6297e-09
4.14798e-10
3.61016e-09
4.78893e-10
3.57714e-09
5.56966e-10
3.53039e-09
6.15454e-10
3.46852e-09
6.5664e-10
3.39147e-09
6.96632e-10
3.30047e-09
7.04015e-10
3.19633e-09
7.15658e-10
3.08203e-09
6.98272e-10
2.95964e-09
6.81212e-10
2.83213e-09
6.50387e-10
2.70293e-09
6.11103e-10
2.57272e-09
5.7662e-10
2.44553e-09
5.28947e-10
2.32191e-09
4.85803e-10
2.20301e-09
4.42726e-10
2.09061e-09
3.96476e-10
1.98468e-09
3.54139e-10
1.88548e-09
3.14392e-10
1.79327e-09
2.75806e-10
1.7081e-09
2.40154e-10
1.62947e-09
2.08907e-10
1.55736e-09
1.80467e-10
1.49131e-09
1.56263e-10
1.4308e-09
1.36133e-10
1.3756e-09
1.1896e-10
1.3248e-09
1.06534e-10
1.27761e-09
9.76295e-11
1.23441e-09
8.84161e-11
1.19389e-09
8.32952e-11
1.15599e-09
7.84927e-11
1.12136e-09
7.08457e-11
1.08985e-09
6.37295e-11
1.06161e-09
5.51764e-11
1.0389e-09
3.99098e-11
1.0207e-09
2.67264e-11
1.01048e-09
3.29109e-12
1.00689e-09
-1.74941e-11
1.01339e-09
-4.88171e-11
1.02844e-09
-7.72733e-11
1.05584e-09
-1.17821e-10
1.09328e-09
-1.5367e-10
1.14346e-09
-1.98961e-10
1.20484e-09
-2.42104e-10
1.27741e-09
-2.86691e-10
1.36114e-09
-3.34249e-10
1.45347e-09
-3.74501e-10
1.55427e-09
-4.17686e-10
1.66075e-09
-4.51786e-10
1.77125e-09
-4.82582e-10
1.88397e-09
-5.06866e-10
1.99656e-09
-5.23727e-10
2.10754e-09
-5.33586e-10
2.21517e-09
-5.37345e-10
2.31785e-09
-5.30244e-10
2.41515e-09
-5.23452e-10
2.5056e-09
-5.0372e-10
2.58896e-09
-4.81574e-10
2.66514e-09
-4.56586e-10
2.73393e-09
-4.24729e-10
2.79567e-09
-3.92497e-10
2.85091e-09
-3.60397e-10
2.89992e-09
-3.24901e-10
2.94351e-09
-2.91118e-10
2.98233e-09
-2.60326e-10
3.01707e-09
-2.29935e-10
3.04853e-09
-2.03116e-10
3.07737e-09
-1.7951e-10
3.10431e-09
-1.59204e-10
3.12996e-09
-1.43991e-10
3.15467e-09
-1.33114e-10
3.17909e-09
-1.21139e-10
3.20363e-09
-1.16915e-10
3.22881e-09
-1.20009e-10
3.25372e-09
-1.12893e-10
3.2794e-09
-1.16151e-10
3.30479e-09
-1.19849e-10
3.33057e-09
-1.10345e-10
3.35532e-09
-1.11968e-10
3.37952e-09
-9.96716e-11
3.40154e-09
-8.35609e-11
3.42176e-09
-6.09605e-11
3.43842e-09
-2.36349e-11
3.45181e-09
2.01916e-11
3.45982e-09
7.55114e-11
3.46272e-09
1.49013e-10
3.45809e-09
2.14446e-10
3.44556e-09
3.15942e-10
3.42261e-09
3.94274e-10
3.38855e-09
4.82289e-10
3.33961e-09
5.73858e-10
3.27675e-09
6.36289e-10
3.19485e-09
7.22022e-10
3.09683e-09
7.57949e-10
2.9781e-09
8.13781e-10
2.84339e-09
8.23386e-10
2.6896e-09
8.44986e-10
2.52281e-09
8.2672e-10
2.34874e-09
7.94307e-10
2.1909e-09
6.90085e-10
2.04702e-09
5.81694e-10
1.97408e-09
2.53596e-10
1.9455e-09
4.35205e-11
1.95688e-09
-1.47983e-10
2.00313e-09
-3.21746e-10
2.08504e-09
-5.00941e-10
2.1875e-09
-6.30782e-10
2.30283e-09
-7.35257e-10
2.40819e-09
-7.14282e-10
2.49898e-09
-6.3766e-10
2.57793e-09
-5.54935e-10
2.64691e-09
-4.71441e-10
2.70744e-09
-3.92193e-10
2.76077e-09
-3.20954e-10
2.80805e-09
-2.60372e-10
2.85037e-09
-2.11953e-10
2.88885e-09
-1.76088e-10
2.9246e-09
-1.52176e-10
2.95866e-09
-1.38778e-10
2.99193e-09
-1.33813e-10
3.02511e-09
-1.34802e-10
3.05859e-09
-1.3911e-10
3.09249e-09
-1.44192e-10
3.12655e-09
-1.47713e-10
3.16023e-09
-1.47869e-10
3.19286e-09
-1.43582e-10
3.22357e-09
-1.34201e-10
3.25147e-09
-1.19873e-10
3.27574e-09
-1.01203e-10
3.29565e-09
-7.92147e-11
3.31069e-09
-5.52874e-11
3.32063e-09
-3.0936e-11
3.3255e-09