/*--------------------------------*- C++ -*----------------------------------*\
| =========                 |                                                 |
| \\      /  F ield         | OpenFOAM: The Open Source CFD Toolbox           |
|  \\    /   O peration     | Version:  2506                                  |
|   \\  /    A nd           | Website:  www.openfoam.com                      |
|    \\/     M anipulation  |                                                 |
\*---------------------------------------------------------------------------*/
FoamFile
{
    version     2.0;
    format      ascii;
    arch        "LSB;label=32;scalar=64";
    class       volVectorField;
    location    "1.8";
    object      vorticityField;
}
// * * * * * * * * * * * * * * * * * * * * * * * * * * * * * * * * * * * * * //

dimensions      [0 0 -1 0 0 0 0];

internalField   nonuniform List<vector> 
4000
(
(2.02343e-20 -6.85853e-18 -23.001)
(7.1874e-18 7.80163e-18 -23.5146)
(-7.64081e-18 2.06063e-17 -20.2293)
(-3.04043e-17 -3.70798e-17 -15.9438)
(6.27356e-17 1.38874e-18 -12.4979)
(-3.22994e-17 2.89788e-17 -9.86402)
(2.62639e-19 -1.48371e-17 -7.7867)
(-3.26616e-17 -0 -6.13754)
(3.22688e-17 2.94888e-17 -4.82165)
(-6.37896e-17 -2.92111e-17 -3.76225)
(6.38296e-17 2.84709e-17 -2.90041)
(5.30186e-18 -2.7922e-17 -2.19382)
(-2.60997e-18 -5.88974e-17 -1.61096)
(-6.8769e-17 5.80708e-17 -1.12609)
(3.24116e-19 -0 -0.718445)
(1.30391e-16 5.64244e-17 -0.370584)
(-1.24185e-16 -5.52265e-17 -0.0687265)
(6.32474e-17 -5.75794e-17 0.199134)
(-2.9941e-18 5.63814e-17 0.442205)
(0 -0 0.66873)
(0 -0 0.884753)
(0 -0 1.09521)
(-7.3569e-18 1.0842e-16 1.30361)
(-1.00911e-16 -2.13224e-16 1.51263)
(2.31433e-16 -6.62674e-18 1.72384)
(-1.3143e-16 2.19166e-16 1.9382)
(8.26401e-18 -1.07736e-16 2.15582)
(0 -0 2.37582)
(0 -0 2.59632)
(9.22605e-18 -1.04241e-16 2.81387)
(2.26648e-16 1.00811e-16 3.02204)
(-1.21901e-16 1.07651e-16 3.20548)
(-2.44967e-16 -1.42859e-17 3.34047)
(4.93721e-19 1.04945e-16 3.39433)
(7.32631e-17 -5.98248e-16 3.33611)
(2.38757e-16 -4.86586e-16 3.19492)
(8.50523e-16 8.78775e-16 2.9909)
(1.35305e-17 -8.12382e-18 2.68076)
(-6.85023e-16 -1.47374e-15 2.20788)
(5.71818e-16 9.80404e-16 1.51051)
(-3.29307e-16 1.92615e-15 0.388609)
(-9.67784e-16 -1.86471e-15 -1.20215)
(2.60611e-16 -8.38052e-16 -3.04261)
(-2.31798e-16 8.821e-16 -4.94271)
(-1.11494e-15 -7.78491e-16 -6.75962)
(1.28168e-15 -1.27337e-16 -8.44027)
(1.02909e-15 -1.4971e-16 -10.0014)
(9.83954e-16 9.45872e-16 -11.3373)
(1.20787e-15 1.04139e-15 -12.4807)
(4.84601e-16 1.23927e-15 -13.4084)
(-5.88667e-16 1.48495e-16 -14.0625)
(3.99337e-17 -4.95894e-16 -14.4992)
(6.4345e-16 1.16158e-15 -14.5986)
(-6.04634e-16 -1.89296e-16 -14.4345)
(9.42445e-17 -1.10112e-15 -13.9265)
(3.03439e-16 3.35218e-17 -13.0951)
(-2.82285e-16 1.8357e-16 -11.9589)
(-8.97324e-17 4.81344e-17 -10.4637)
(-1.65246e-16 -2.86177e-17 -8.74998)
(7.61948e-17 4.82694e-17 -6.74984)
(-7.71881e-17 3.06064e-17 -4.56171)
(-3.31188e-16 -3.93593e-18 -2.30817)
(1.5712e-16 6.47243e-17 -0.00219946)
(1.12878e-16 6.40472e-16 2.2581)
(2.01943e-17 1.73873e-18 4.42654)
(1.17668e-16 -7.91241e-16 6.46376)
(-6.32307e-16 2.16057e-16 8.32239)
(-1.70529e-17 3.90846e-16 10.004)
(-2.79173e-16 -6.17413e-16 11.4829)
(7.15468e-16 -7.39062e-16 12.7654)
(1.70149e-16 5.47909e-16 13.851)
(2.69832e-17 1.8039e-16 14.7472)
(1.95684e-19 -2.29138e-18 15.4433)
(9.01645e-16 -5.71906e-16 15.9665)
(8.66467e-16 -6.14269e-16 16.3073)
(3.32509e-17 -7.00706e-16 16.4743)
(7.05327e-16 -4.52953e-16 16.4941)
(-8.34907e-17 7.26332e-16 16.3739)
(7.7479e-16 -3.87025e-16 16.1234)
(-6.66946e-16 -2.02517e-16 15.774)
(1.25547e-15 -3.55238e-16 15.3421)
(1.61932e-16 6.84373e-16 14.844)
(-3.60047e-17 8.58676e-17 14.3016)
(6.4912e-17 -2.1976e-17 13.7311)
(-6.02329e-16 -9.55362e-16 13.1473)
(1.04617e-15 -1.37535e-15 12.5656)
(-3.65571e-17 1.24101e-15 11.9877)
(6.63216e-17 6.65914e-16 11.418)
(9.70755e-18 -1.19295e-15 10.872)
(4.285e-16 -2.76623e-16 10.3391)
(-1.53703e-18 1.35309e-18 9.81915)
(4.19753e-16 -7.71113e-16 9.32989)
(2.00765e-16 9.44379e-16 8.85442)
(-1.44634e-16 3.37198e-16 8.3987)
(-8.57996e-18 -5.08186e-16 7.97473)
(-5.96574e-17 5.38667e-16 7.5675)
(-1.7708e-16 9.50747e-17 7.20225)
(-2.28554e-17 -2.55459e-17 6.85953)
(2.68555e-16 5.9002e-17 6.55842)
(-4.40422e-17 -2.19979e-16 6.29099)
(-4.7442e-17 3.58944e-20 6.07375)
(-1.63357e-17 4.8946e-17 5.89241)
(8.09723e-18 -1.4136e-16 5.76463)
(2.09056e-17 -3.86572e-17 5.67105)
(3.11201e-17 1.54427e-17 5.61884)
(5.63433e-19 5.11479e-17 5.59148)
(-3.0485e-18 -4.09357e-16 5.59042)
(1.60249e-16 1.56281e-17 5.60383)
(1.94469e-16 6.92855e-16 5.61672)
(-3.65538e-16 1.00708e-16 5.6179)
(1.88573e-16 -1.32538e-16 5.59534)
(-8.32006e-18 -4.60216e-16 5.53177)
(1.92248e-16 9.08468e-17 5.41986)
(1.91958e-16 3.55868e-16 5.23833)
(5.69732e-18 4.8219e-16 4.9858)
(-3.79193e-16 -2.5059e-16 4.64663)
(-3.33379e-18 -9.52177e-16 4.21537)
(-6.93871e-17 -5.2308e-17 3.68909)
(-4.19603e-16 -3.07692e-16 3.06786)
(4.07889e-16 3.06306e-16 2.35544)
(5.53358e-16 1.41514e-15 1.55269)
(-5.10219e-16 -3.4167e-16 0.670442)
(-1.75144e-17 -1.10957e-15 -0.277473)
(4.64943e-16 3.51406e-16 -1.28331)
(9.75716e-17 1.1697e-15 -2.32763)
(-9.56409e-16 -6.77271e-16 -3.39632)
(3.46892e-16 -3.35586e-16 -4.47409)
(-4.8636e-16 9.13208e-17 -5.53947)
(-5.17226e-16 -7.48325e-16 -6.581)
(-1.25192e-16 -5.88904e-16 -7.60056)
(6.2641e-18 -4.56418e-16 -8.55318)
(3.56167e-16 3.29508e-16 -9.4441)
(1.81888e-16 5.67757e-16 -10.291)
(1.03094e-15 7.10978e-16 -11.0234)
(-5.64111e-16 2.17567e-16 -11.6616)
(7.32973e-17 3.99109e-17 -12.2515)
(-7.55429e-17 -4.09526e-17 -12.6498)
(9.72286e-17 3.7747e-18 -12.9747)
(-8.51224e-17 -8.82744e-17 -13.1234)
(1.17171e-16 -9.41383e-17 -13.119)
(-1.92153e-16 -2.91852e-17 -12.9195)
(4.56814e-16 2.04839e-16 -12.4953)
(-2.54109e-16 -3.50572e-17 -11.8068)
(6.09177e-17 -2.31928e-17 -10.885)
(1.40652e-16 1.1246e-16 -9.62236)
(3.23931e-17 1.23178e-16 -8.16198)
(2.86118e-17 -4.22626e-17 -6.35163)
(0 -0 -4.32503)
(6.2757e-17 -4.19822e-17 -2.13829)
(-7.15811e-17 4.30065e-17 0.182859)
(-2.91099e-17 1.93138e-16 2.51192)
(5.02533e-17 9.2873e-17 4.82665)
(-1.62442e-16 -1.00532e-16 7.0214)
(-9.23677e-17 -2.5006e-16 9.06716)
(1.79292e-16 -6.99584e-17 10.9139)
(-1.81306e-16 1.85153e-16 12.5353)
(2.56294e-16 7.78187e-17 13.8971)
(-3.58476e-16 1.96281e-16 14.9407)
(7.68406e-17 3.14702e-16 15.3367)
(-2.31825e-16 1.83831e-16 14.8491)
(2.28573e-16 -7.24515e-16 14.0175)
(-1.84343e-16 1.2921e-16 13.6047)
(4.54135e-17 9.24174e-17 13.0309)
(-3.15127e-17 7.34623e-18 12.3379)
(-2.94358e-17 4.52713e-18 11.6207)
(-2.79994e-17 2.32632e-18 10.9528)
(2.72977e-17 1.99343e-17 10.3484)
(-2.24443e-17 5.55467e-18 9.56785)
(-1.47809e-18 -2.14083e-17 8.49815)
(-2.63803e-18 -1.89091e-17 7.33615)
(2.25541e-17 -4.57434e-18 6.24554)
(4.9482e-18 3.62226e-17 5.29706)
(8.87679e-19 -1.29966e-17 4.5213)
(-5.36158e-18 -2.07464e-17 3.92574)
(2.87152e-18 1.72035e-17 3.49513)
(-1.99045e-17 -5.63208e-19 3.20575)
(3.65118e-17 -1.38442e-17 3.02767)
(-2.0008e-17 1.0291e-17 2.92695)
(4.2073e-18 1.75041e-17 2.87371)
(-9.54677e-19 -1.39045e-17 2.84423)
(-9.02402e-18 -5.34076e-18 2.81958)
(1.41561e-17 -1.36997e-18 2.78623)
(1.12113e-18 1.06482e-17 2.73613)
(3.7319e-19 1.47195e-18 2.6665)
(-5.86261e-18 -5.34978e-18 2.57925)
(-5.51904e-18 -1.64626e-20 2.47971)
(6.15567e-18 1.83616e-20 2.37535)
(-5.26907e-18 2.06321e-19 2.27491)
(8.93266e-18 8.0353e-20 2.18732)
(-5.65387e-18 -2.38414e-19 2.12004)
(1.90873e-18 5.6935e-21 2.07862)
(4.28313e-19 1.07054e-18 2.06607)
(-1.18693e-18 -2.41019e-19 2.08247)
(3.16508e-19 -1.8933e-18 2.12698)
(1.13613e-18 1.1538e-18 2.1977)
(-1.45673e-19 2.82996e-19 2.2908)
(1.21698e-19 1.964e-19 2.4013)
(1.58832e-19 -5.13664e-19 2.52839)
(8.08423e-20 -6.82888e-20 2.68888)
(2.5665e-20 7.5885e-20 2.85673)
(0 -0 2.98726)
(8.28461e-20 -0 -5.45229)
(9.08137e-20 1.44385e-17 -10.7179)
(1.61584e-18 -3.15387e-17 -12.7287)
(-1.74917e-17 4.36823e-18 -13.2343)
(1.58102e-17 2.77539e-17 -12.9687)
(-3.66741e-19 1.56124e-17 -12.441)
(1.05537e-18 -3.3069e-17 -11.8445)
(3.02251e-17 2.45805e-18 -11.2595)
(-2.99275e-17 -1.76913e-18 -10.7179)
(-5.96347e-17 -9.19084e-17 -10.2304)
(1.21263e-16 9.62085e-17 -9.79795)
(-4.14387e-18 1.22582e-16 -9.41646)
(-6.00913e-17 -6.46955e-17 -9.08055)
(8.07516e-18 -1.86997e-16 -8.78403)
(5.90944e-17 6.54524e-17 -8.52099)
(-7.03298e-17 1.23522e-16 -8.28502)
(5.33048e-18 -6.24188e-17 -8.07072)
(0 -0 -7.87245)
(0 -0 -7.68587)
(0 -0 -7.50677)
(0 -0 -7.3315)
(0 -0 -7.15653)
(2.38892e-16 -0 -6.97892)
(-3.54584e-16 -0 -6.79596)
(1.15395e-16 -0 -6.60548)
(0 -0 -6.40554)
(0 -0 -6.1942)
(0 -0 -5.96983)
(1.03268e-17 -1.16678e-16 -5.73094)
(8.89348e-18 -8.44682e-19 -5.47671)
(-4.2043e-17 3.47196e-16 -5.20695)
(1.0126e-17 -9.76647e-17 -4.92388)
(1.22571e-16 -3.4679e-16 -4.5983)
(6.40523e-17 4.42659e-16 -4.27741)
(-2.68577e-16 -3.92533e-16 -4.07894)
(-8.63646e-16 -6.84916e-16 -4.04737)
(-7.39629e-17 1.72547e-15 -4.1766)
(4.67041e-16 6.82061e-16 -4.48642)
(-8.85513e-16 -1.83586e-15 -5.029)
(2.68924e-16 -1.09265e-16 -5.91256)
(7.43474e-16 1.35929e-15 -7.09617)
(8.01032e-17 -5.81627e-17 -8.43645)
(-1.66475e-17 2.31655e-16 -9.84127)
(1.35283e-15 -5.27141e-16 -11.2367)
(-1.18194e-15 -1.65763e-15 -12.5991)
(-2.2934e-15 -1.44365e-16 -13.9158)
(-9.74562e-16 -1.06972e-15 -15.1315)
(-1.21022e-15 -5.90065e-16 -16.269)
(-6.02919e-16 2.2196e-16 -17.2856)
(1.77445e-15 7.24872e-16 -18.1656)
(3.81308e-17 -4.6978e-16 -18.9171)
(-6.03584e-16 -5.84689e-16 -19.4769)
(5.24551e-16 6.96551e-16 -19.8809)
(-6.5894e-16 3.04232e-16 -20.0602)
(-6.43894e-16 1.24525e-16 -20.0353)
(-3.90743e-16 -2.17414e-17 -19.7741)
(-1.48327e-16 -1.20707e-16 -19.251)
(8.84267e-17 -9.31044e-17 -18.5027)
(9.10432e-17 -1.10519e-16 -17.4766)
(4.6485e-17 2.4709e-16 -16.2283)
(3.28292e-16 -1.84883e-16 -14.7748)
(-2.60097e-16 -3.78378e-16 -13.1562)
(2.04098e-16 -6.06138e-16 -11.4343)
(-2.92963e-16 2.05976e-16 -9.64591)
(-1.54838e-17 1.2273e-15 -7.85469)
(-2.66139e-16 1.30067e-16 -6.10306)
(3.30457e-16 -6.96351e-16 -4.44715)
(3.33235e-16 5.7002e-17 -2.91715)
(-9.24268e-16 3.78884e-16 -1.5299)
(2.50907e-17 -1.2534e-16 -0.307789)
(1.37679e-15 -6.68193e-16 0.763844)
(-7.68964e-16 -3.84151e-16 1.66154)
(6.03183e-18 -9.48222e-16 2.3911)
(-1.00234e-15 1.37891e-15 2.97244)
(-1.4567e-16 8.71162e-16 3.40459)
(1.91122e-16 -1.22031e-16 3.70592)
(3.87589e-17 -7.43042e-16 3.8992)
(6.55597e-16 9.74302e-17 3.99045)
(1.45798e-15 -8.60899e-16 3.99811)
(-1.90706e-15 -2.75161e-16 3.94122)
(-2.14559e-16 8.05801e-16 3.83157)
(6.40891e-16 -4.24665e-16 3.68336)
(-1.35256e-16 5.8168e-16 3.50906)
(4.20882e-17 1.23077e-16 3.31394)
(-1.10268e-15 6.17387e-16 3.1094)
(-4.48712e-16 4.48664e-16 2.90211)
(-5.97528e-16 -3.95625e-16 2.68652)
(-4.68791e-16 9.41777e-16 2.47318)
(-9.37233e-16 5.95414e-16 2.26715)
(-2.94547e-19 -1.86942e-17 2.0574)
(-4.25489e-16 5.21616e-16 1.85508)
(-1.67719e-16 -1.68118e-16 1.66129)
(3.83214e-16 -2.40176e-16 1.46813)
(-1.72834e-16 4.74143e-16 1.29162)
(-4.81533e-18 -2.4569e-16 1.11957)
(3.78998e-16 -1.95114e-16 0.961939)
(-1.80857e-16 -4.69309e-16 0.812819)
(-2.34017e-17 -1.417e-16 0.679527)
(9.88515e-17 5.96028e-16 0.557026)
(4.8486e-17 -2.01159e-17 0.44801)
(5.85914e-17 -1.26611e-16 0.352915)
(2.42638e-17 9.36204e-17 0.266743)
(-2.12823e-17 1.17079e-17 0.189868)
(-4.17884e-17 1.15006e-17 0.117595)
(-8.83139e-17 -2.44107e-17 0.0439253)
(1.62865e-18 2.18698e-16 -0.02938)
(-5.18761e-16 -3.29611e-16 -0.115112)
(-4.18142e-18 -5.42759e-18 -0.209433)
(3.48169e-16 -1.04114e-16 -0.327014)
(1.05173e-18 -2.63539e-16 -0.473706)
(1.40481e-17 4.7084e-16 -0.655886)
(-1.8761e-16 -3.37929e-16 -0.876953)
(-1.92026e-16 -1.00498e-16 -1.1416)
(2.06555e-16 3.63855e-16 -1.45563)
(3.78757e-16 2.1924e-16 -1.8323)
(-1.48903e-17 5.49152e-16 -2.26443)
(6.90458e-17 5.82166e-16 -2.76091)
(3.74448e-16 -3.50781e-16 -3.32005)
(-8.48858e-16 -1.73627e-15 -3.93964)
(4.50029e-16 4.06235e-16 -4.62117)
(4.71101e-16 9.00582e-16 -5.35928)
(-4.02063e-16 -3.44331e-16 -6.14749)
(-5.51968e-16 -3.96392e-16 -6.98401)
(-4.67609e-16 2.01271e-16 -7.85671)
(1.53794e-15 5.70959e-16 -8.75829)
(-5.23557e-16 -2.00944e-16 -9.67912)
(4.68523e-16 6.67623e-16 -10.6071)
(9.88857e-17 -7.25601e-17 -11.5357)
(-1.04152e-15 -7.57779e-16 -12.461)
(-4.4044e-16 -2.42733e-16 -13.3542)
(-9.87284e-16 -7.90228e-16 -14.2247)
(-6.5806e-16 -1.37285e-15 -15.0712)
(-1.13345e-15 5.39493e-17 -15.8479)
(1.59506e-16 3.98726e-16 -16.5842)
(-1.40613e-16 -5.05512e-16 -17.2792)
(-2.03951e-16 -1.20296e-16 -17.8559)
(-5.58335e-17 -7.49146e-17 -18.3997)
(7.86372e-17 2.22083e-17 -18.8175)
(-1.09811e-16 1.87425e-16 -19.1461)
(6.61828e-17 -2.42018e-16 -19.3473)
(-1.78601e-16 4.0393e-17 -19.4047)
(-7.20647e-17 1.96076e-16 -19.2962)
(-3.44516e-17 -2.19306e-16 -19.022)
(7.54249e-17 -6.63805e-17 -18.5138)
(5.38219e-17 -6.7641e-17 -17.8396)
(-1.26665e-16 5.09431e-17 -16.8779)
(7.96015e-17 -2.23655e-17 -15.7125)
(-5.2044e-17 1.04624e-16 -14.3191)
(1.38849e-16 9.10917e-18 -12.7145)
(7.85339e-17 -2.75453e-16 -10.976)
(-3.7049e-17 -1.81302e-17 -9.08761)
(-5.93196e-17 2.24613e-16 -7.16375)
(1.1894e-16 7.7348e-18 -5.2298)
(-4.31188e-16 2.75776e-16 -3.38022)
(1.98633e-16 -2.01159e-16 -1.63257)
(-1.23282e-17 -4.8135e-17 -0.0753856)
(4.07917e-16 -1.87998e-18 1.2017)
(-1.29457e-16 -3.57149e-16 2.09789)
(6.62385e-16 -6.42505e-16 2.54013)
(-2.35827e-16 5.62004e-16 2.30576)
(3.73478e-17 2.36397e-16 1.87256)
(2.82744e-19 -2.49364e-16 1.37573)
(7.33198e-17 4.98146e-17 0.835649)
(7.07992e-19 8.72972e-18 0.271093)
(5.1787e-17 -4.1452e-17 -0.320559)
(-5.67048e-17 -3.34979e-17 -0.963662)
(2.59216e-17 2.06496e-17 -1.71275)
(4.26465e-19 2.77634e-18 -2.44969)
(1.6614e-18 2.06948e-19 -3.13592)
(2.51151e-18 -2.52354e-18 -3.76318)
(-3.22225e-18 -1.9283e-17 -4.3194)
(2.24741e-17 1.93684e-17 -4.79751)
(-1.75515e-17 1.97909e-17 -5.19434)
(-1.01722e-18 -3.22057e-18 -5.51368)
(-2.42686e-17 -2.98264e-17 -5.76429)
(2.15244e-17 1.27553e-17 -5.95875)
(2.62587e-18 1.79653e-17 -6.11146)
(-4.75529e-18 -3.30621e-17 -6.23591)
(1.64453e-18 2.43415e-17 -6.34349)
(5.21564e-19 -6.95742e-18 -6.44289)
(-6.57405e-18 -8.91113e-18 -6.53996)
(6.16833e-18 1.71774e-18 -6.63774)
(5.96041e-18 5.50641e-18 -6.73659)
(-6.27978e-18 1.10528e-17 -6.83483)
(-1.87058e-18 -1.03649e-17 -6.92928)
(-6.22581e-19 -1.06704e-19 -7.0159)
(4.62936e-19 -2.97433e-18 -7.09026)
(2.80745e-19 2.85967e-19 -7.14825)
(-2.60385e-19 6.77399e-18 -7.18665)
(-1.78792e-18 -5.4748e-18 -7.20335)
(1.27649e-18 1.99211e-18 -7.19743)
(2.43981e-18 1.12943e-18 -7.17021)
(-2.69663e-18 -7.92444e-19 -7.12342)
(-3.3037e-20 -7.02281e-19 -7.05972)
(-1.35079e-19 8.86198e-19 -6.98261)
(-1.16175e-19 -8.36388e-20 -6.89566)
(-2.46978e-19 3.3921e-19 -6.80189)
(4.81369e-21 -2.35721e-20 -6.70299)
(-4.17696e-20 1.60353e-19 -6.62443)
(2.06139e-20 -6.9872e-18 5.10079)
(-4.0689e-19 8.4154e-18 1.69783)
(2.02372e-19 1.93258e-17 -2.04947)
(1.74707e-18 -2.38008e-17 -5.2841)
(-1.74642e-17 -1.09145e-17 -7.69034)
(1.58396e-17 1.39613e-17 -9.18407)
(0 -0 -10.1388)
(3.34022e-17 -2.88273e-17 -10.703)
(-3.52312e-17 6.22361e-17 -10.9992)
(3.25692e-17 4.99587e-17 -11.1273)
(-2.94599e-17 -1.20231e-16 -11.1517)
(-5.56634e-18 -8.05675e-17 -11.1101)
(2.85696e-18 1.24073e-16 -11.0273)
(1.23995e-16 5.23631e-17 -10.9206)
(-1.13625e-16 -1.17729e-16 -10.8017)
(-7.99384e-17 1.23037e-16 -10.6783)
(1.26546e-16 -1.07487e-17 -10.5553)
(-5.36253e-17 -1.12431e-16 -10.4354)
(-3.12614e-18 5.88677e-17 -10.3199)
(0 -0 -10.2092)
(-1.17069e-16 -0 -10.1027)
(1.17373e-16 -0 -9.99926)
(7.83489e-18 -1.15464e-16 -9.8971)
(1.07403e-16 1.23542e-16 -9.79417)
(-1.24063e-16 1.07667e-16 -9.68822)
(8.5369e-18 -1.15745e-16 -9.57698)
(0 -0 -9.45816)
(-1.1503e-16 -0 -9.32933)
(5.86051e-19 -0 -9.18795)
(1.25223e-16 -1.1364e-16 -9.03122)
(-2.12443e-17 1.18907e-16 -8.85605)
(-2.38355e-16 1.08787e-16 -8.65835)
(3.71391e-16 -1.06948e-16 -8.43654)
(-2.14608e-16 9.61432e-19 -8.177)
(1.79463e-17 -2.33999e-16 -7.89292)
(4.27353e-16 5.23201e-16 -7.62874)
(-6.2385e-16 6.87429e-17 -7.42932)
(-3.1318e-16 -1.56019e-15 -7.3412)
(6.71066e-16 3.88987e-16 -7.39968)
(1.66948e-16 1.02619e-15 -7.63189)
(1.02416e-16 2.10572e-16 -8.07846)
(1.30489e-15 -1.07925e-16 -8.68191)
(-3.09063e-16 -2.15738e-16 -9.42385)
(-9.77148e-16 -7.00407e-16 -10.2787)
(1.22135e-15 2.01164e-15 -11.1943)
(-1.46176e-15 1.21576e-15 -12.1552)
(7.55542e-16 -8.58208e-16 -13.1378)
(4.82445e-17 -5.60305e-16 -14.1087)
(6.31918e-17 -1.29102e-16 -15.0829)
(4.22505e-17 -1.41728e-15 -16.0175)
(-6.59066e-16 -1.48111e-17 -16.9089)
(-1.76433e-16 1.27555e-15 -17.7539)
(6.86458e-17 4.33119e-16 -18.5266)
(-9.28811e-17 -1.73708e-16 -19.2394)
(6.56101e-16 -2.84225e-16 -19.8521)
(3.26677e-16 -2.0748e-16 -20.3751)
(4.35726e-16 -1.22397e-16 -20.774)
(3.87313e-17 -2.82617e-16 -21.036)
(1.10719e-16 -1.63027e-16 -21.1406)
(-1.60712e-16 7.38335e-17 -21.0552)
(-5.82869e-17 -1.26737e-16 -20.779)
(3.11308e-16 1.99074e-16 -20.2809)
(-4.82322e-16 2.69133e-16 -19.5847)
(-4.07091e-16 7.42319e-16 -18.6981)
(3.03095e-17 -1.10049e-16 -17.6527)
(4.98477e-16 -9.0274e-16 -16.4799)
(9.0363e-16 -4.5797e-16 -15.23)
(-1.33983e-16 -4.76928e-17 -13.9502)
(-2.41734e-17 2.31729e-16 -12.6892)
(6.75399e-16 -4.31056e-16 -11.4762)
(-7.17287e-18 -1.29341e-15 -10.3373)
(-1.25993e-15 1.44534e-15 -9.29101)
(1.02191e-15 6.25754e-16 -8.34341)
(-1.8807e-15 1.2771e-15 -7.51233)
(-7.966e-16 6.9203e-16 -6.77592)
(1.64893e-16 -1.77522e-15 -6.13557)
(-8.24397e-16 3.73956e-16 -5.58809)
(-6.13762e-17 1.05366e-16 -5.117)
(-1.4206e-15 -6.40761e-16 -4.71349)
(-2.73529e-16 2.12586e-15 -4.37025)
(-6.2364e-16 2.9252e-15 -4.07453)
(9.82605e-17 -2.10102e-15 -3.81599)
(-6.27645e-16 2.79367e-16 -3.58861)
(-5.58104e-16 1.26885e-15 -3.38577)
(5.56133e-16 -4.21271e-16 -3.20428)
(-1.04968e-15 8.28729e-16 -3.04199)
(1.61535e-15 -4.10542e-16 -2.89489)
(1.16212e-15 7.41798e-17 -2.76327)
(5.38615e-16 -8.92025e-16 -2.648)
(2.5383e-17 -5.06157e-16 -2.54251)
(-9.72464e-18 -6.17203e-16 -2.44887)
(-2.01331e-17 -2.708e-16 -2.36834)
(2.14181e-16 -1.53636e-16 -2.2949)
(-2.29734e-16 3.51462e-16 -2.22931)
(-7.10699e-18 2.75392e-17 -2.17487)
(7.09369e-17 -2.39698e-16 -2.12636)
(-2.87958e-17 1.86812e-16 -2.09145)
(1.63338e-17 4.69645e-16 -2.06272)
(-6.06319e-16 -2.5773e-17 -2.04838)
(-5.12956e-17 -2.9955e-16 -2.04245)
(4.25664e-17 7.33894e-18 -2.05317)
(-6.38953e-17 8.19979e-17 -2.0746)
(-6.24208e-19 -4.43199e-17 -2.11392)
(8.4608e-19 4.17196e-17 -2.16792)
(7.37234e-19 9.44224e-17 -2.23904)
(8.78013e-17 1.67499e-17 -2.32839)
(9.67059e-17 1.28764e-16 -2.4333)
(3.49231e-16 8.98392e-17 -2.55912)
(-5.5311e-16 -5.91786e-16 -2.7026)
(3.78953e-16 3.43366e-16 -2.86659)
(-3.72657e-16 9.13305e-17 -3.05288)
(4.89682e-18 -2.37194e-16 -3.26223)
(-1.01562e-17 2.53451e-16 -3.49856)
(-1.06854e-17 -2.69984e-16 -3.76071)
(-1.03826e-17 -2.518e-16 -4.05514)
(3.45732e-18 2.80139e-16 -4.38067)
(-1.84832e-16 -6.4869e-16 -4.74015)
(-1.87982e-16 -5.64516e-16 -5.13846)
(8.67247e-16 1.60448e-15 -5.57467)
(4.2823e-16 1.69098e-16 -6.05289)
(-1.008e-15 -1.10523e-15 -6.57399)
(-2.70635e-16 8.68789e-16 -7.13457)
(3.90768e-16 2.35076e-16 -7.73676)
(5.34823e-16 4.33262e-16 -8.37996)
(3.48102e-16 -1.20247e-15 -9.05662)
(3.1868e-16 5.40622e-16 -9.76726)
(-2.8238e-16 4.08468e-16 -10.5055)
(5.21774e-16 2.55319e-16 -11.2644)
(7.12462e-16 1.37354e-15 -12.04)
(1.08443e-15 3.93933e-16 -12.8278)
(4.6406e-16 -5.00962e-16 -13.6079)
(5.75943e-16 3.87698e-16 -14.39)
(6.75382e-16 6.16615e-16 -15.1663)
(-5.29291e-16 -1.02638e-15 -15.9031)
(6.98872e-16 -5.68736e-17 -16.6309)
(4.10212e-17 2.15695e-16 -17.3311)
(1.27359e-16 -6.99731e-17 -17.9599)
(2.60441e-16 -2.01615e-16 -18.5847)
(-4.16522e-18 3.19753e-17 -19.1273)
(2.49412e-16 -8.8984e-17 -19.6288)
(-2.81559e-16 6.91568e-17 -20.0632)
(-8.92882e-16 -3.46609e-17 -20.4228)
(9.52963e-17 -6.99365e-17 -20.7024)
(-3.97276e-17 -1.59772e-16 -20.8967)
(1.23028e-16 1.79937e-16 -20.9675)
(-2.79058e-17 2.68416e-16 -20.9484)
(-6.86778e-17 -1.04766e-16 -20.7427)
(9.59982e-17 -1.61773e-17 -20.4037)
(-1.38186e-16 -7.27994e-17 -19.8596)
(2.33909e-16 -7.88356e-17 -19.1175)
(-7.20531e-17 3.30331e-16 -18.1971)
(-2.07317e-16 2.79282e-16 -17.0607)
(1.79663e-16 -3.56057e-16 -15.7817)
(-5.29412e-17 1.74961e-17 -14.3618)
(2.02181e-16 -1.72637e-16 -12.9015)
(1.95412e-16 -3.57607e-16 -11.4141)
(-4.20178e-16 1.9123e-16 -9.99508)
(2.01377e-16 -7.88152e-17 -8.71644)
(6.96503e-18 1.49068e-17 -7.66752)
(-5.12599e-16 3.21389e-16 -6.93726)
(-1.48054e-16 1.68119e-16 -6.6998)
(2.73047e-16 -2.95528e-16 -6.82036)
(-3.06238e-17 2.98832e-17 -6.98515)
(-3.12572e-17 1.98212e-17 -7.14457)
(3.12329e-17 -6.38776e-19 -7.28233)
(3.50798e-17 2.65865e-17 -7.4238)
(6.21027e-18 6.05007e-17 -7.58829)
(-3.16926e-17 -4.75953e-17 -7.7879)
(-2.57747e-17 -4.90535e-18 -7.96639)
(-2.40601e-18 -2.26864e-17 -8.13851)
(2.61885e-17 4.05144e-18 -8.32994)
(-2.24061e-18 2.15879e-17 -8.54046)
(-4.36902e-17 -2.75597e-18 -8.76199)
(4.48181e-17 1.51814e-18 -8.98888)
(2.08922e-18 1.99413e-17 -9.20968)
(2.04073e-17 -2.55591e-17 -9.41533)
(-4.00265e-17 -2.85433e-17 -9.6002)
(2.30888e-17 4.00518e-17 -9.76225)
(-1.65598e-18 9.00902e-18 -9.9017)
(-1.16281e-18 -1.69787e-17 -10.0201)
(1.05126e-17 2.43605e-19 -10.1201)
(-8.3997e-18 -4.27754e-18 -10.2046)
(-2.40867e-18 3.55163e-18 -10.2765)
(-1.15596e-17 1.11565e-17 -10.3381)
(1.13016e-17 -2.73519e-18 -10.3913)
(6.52277e-18 -6.91059e-18 -10.4373)
(-7.43394e-18 -2.01432e-18 -10.4765)
(5.27057e-18 -2.99748e-19 -10.5087)
(-5.37562e-18 9.34683e-19 -10.533)
(1.93636e-18 1.23189e-18 -10.5484)
(-2.75049e-18 -3.56477e-18 -10.5536)
(-1.82775e-18 -9.04982e-19 -10.5469)
(1.35616e-18 4.50465e-18 -10.5275)
(-1.01288e-19 -1.06547e-18 -10.4954)
(-1.49665e-19 -1.17692e-18 -10.4513)
(4.56867e-19 -4.47163e-19 -10.3963)
(-8.76194e-20 -1.06482e-18 -10.3318)
(-1.44546e-19 -8.44072e-19 -10.26)
(-2.25383e-19 3.76823e-19 -10.1819)
(-7.52657e-21 -8.13937e-20 -10.1083)
(0 -0 3.25586)
(-7.4427e-18 -0 2.8766)
(7.26247e-18 1.37611e-17 1.62156)
(8.3519e-19 -1.69155e-17 -0.28465)
(-7.78399e-19 -1.05761e-17 -2.1287)
(-2.02542e-19 1.37305e-17 -3.79897)
(-2.87079e-17 -0 -5.24131)
(2.87189e-17 -0 -6.39408)
(-2.17491e-18 -0 -7.24011)
(4.82746e-18 -0 -7.88268)
(6.13096e-17 -5.5502e-17 -8.36187)
(-6.56618e-17 6.65191e-17 -8.70521)
(-6.12322e-17 -1.08118e-17 -8.94474)
(2.75398e-18 6.57835e-17 -9.10667)
(1.95899e-18 -2.00592e-17 -9.21188)
(5.79607e-17 -1.57466e-16 -9.27559)
(6.24033e-17 1.21001e-16 -9.30992)
(-6.49227e-17 4.63483e-17 -9.32444)
(2.9639e-18 -5.58126e-17 -9.32619)
(-6.27377e-17 1.10413e-16 -9.32034)
(6.41468e-17 -1.27575e-16 -9.31052)
(5.90554e-18 -9.35397e-17 -9.29891)
(2.50123e-19 1.12698e-18 -9.28646)
(-2.05646e-17 1.25543e-16 -9.2732)
(-1.05715e-16 9.38775e-17 -9.25848)
(1.19149e-16 -1.09846e-16 -9.24116)
(1.01514e-16 1.08491e-16 -9.21978)
(5.45954e-19 -1.44695e-17 -9.19265)
(-2.01395e-16 -2.16597e-16 -9.15787)
(1.18268e-16 -9.39547e-17 -9.11326)
(-4.24925e-17 3.37023e-16 -9.05618)
(1.23576e-16 -2.42663e-17 -8.98325)
(-9.991e-17 -1.03423e-16 -8.89277)
(-9.98229e-17 -9.34335e-18 -8.78675)
(1.29675e-16 -1.95824e-16 -8.64972)
(-2.6381e-16 1.95354e-16 -8.45153)
(8.71302e-16 6.40517e-16 -8.20752)
(8.38267e-16 6.75937e-16 -7.99308)
(-9.392e-16 -7.03675e-16 -7.85806)
(-3.74855e-16 -9.10458e-16 -7.82289)
(1.09327e-16 -1.17856e-15 -7.90329)
(-1.0994e-15 8.46273e-16 -8.06637)
(-2.18792e-16 1.8487e-15 -8.3505)
(1.18177e-15 -9.89125e-16 -8.75562)
(-5.26199e-16 -1.20926e-15 -9.2522)
(1.06978e-15 2.75129e-16 -9.82889)
(6.134e-16 3.61074e-16 -10.4626)
(4.49956e-16 2.4481e-16 -11.1338)
(5.70025e-16 5.13371e-16 -11.854)
(4.66831e-16 1.16185e-15 -12.585)
(-1.12758e-15 -6.43032e-16 -13.3261)
(6.37919e-16 -7.78877e-16 -14.074)
(-1.40463e-16 -2.11966e-16 -14.8265)
(7.143e-16 4.77341e-16 -15.5851)
(-4.43372e-18 3.33467e-16 -16.3363)
(-2.76666e-17 4.67155e-16 -17.0822)
(5.05401e-16 3.25454e-16 -17.8051)
(1.52957e-16 9.0458e-17 -18.5035)
(-8.59197e-18 4.61557e-18 -19.142)
(-8.11585e-17 -3.21985e-17 -19.7163)
(1.48339e-16 -1.08785e-16 -20.1874)
(-3.31204e-16 1.88458e-16 -20.5162)
(4.48489e-16 -1.64858e-16 -20.6898)
(-1.62985e-16 -8.58531e-16 -20.677)
(8.88143e-16 -4.45944e-16 -20.4916)
(-7.14359e-16 9.55124e-16 -20.1239)
(2.32801e-16 3.43949e-16 -19.6108)
(-1.58703e-16 1.66614e-16 -18.9547)
(5.46215e-16 -6.59013e-16 -18.207)
(-3.43339e-16 2.34575e-16 -17.3958)
(-2.67156e-16 1.52848e-15 -16.5504)
(-6.86959e-16 -6.34261e-16 -15.7097)
(6.37187e-16 -4.47198e-16 -14.8735)
(1.19355e-17 1.02116e-15 -14.0723)
(9.35271e-16 -1.48371e-15 -13.3034)
(-4.52177e-17 7.53713e-16 -12.5674)
(-7.01962e-16 6.46908e-16 -11.8712)
(-4.14548e-17 6.81416e-17 -11.2089)
(-1.47498e-15 1.7543e-15 -10.574)
(-1.26674e-15 2.25896e-16 -9.96699)
(2.7301e-15 -3.38903e-15 -9.3844)
(5.97744e-16 1.9916e-16 -8.821)
(-6.24701e-16 1.25556e-15 -8.2787)
(6.41677e-16 -1.12591e-15 -7.75784)
(-2.6242e-18 6.90956e-16 -7.25881)
(1.16187e-15 -2.0542e-15 -6.7872)
(-1.19712e-15 -2.08789e-15 -6.34359)
(1.17748e-16 3.27036e-16 -5.92627)
(4.36575e-16 1.62001e-15 -5.5433)
(1.50752e-15 -2.35969e-16 -5.18921)
(2.4655e-16 -1.34924e-16 -4.86136)
(-1.45061e-17 -8.64597e-18 -4.56504)
(-2.32192e-16 9.51034e-17 -4.29511)
(3.48211e-17 2.72554e-16 -4.04824)
(4.11919e-16 -1.81497e-16 -3.83416)
(1.85036e-17 -2.42904e-16 -3.64053)
(-1.93065e-16 1.02002e-16 -3.48147)
(6.16463e-16 2.08349e-17 -3.34524)
(3.34833e-16 -9.76101e-17 -3.24359)
(1.85657e-17 -1.8439e-16 -3.16622)
(-8.99562e-17 1.81742e-17 -3.12271)
(8.99754e-17 -6.66799e-17 -3.10426)
(-5.57657e-17 1.74769e-17 -3.11537)
(-2.44953e-20 1.30888e-17 -3.15115)
(-1.14476e-18 -9.59073e-17 -3.2104)
(1.91925e-16 -1.15052e-16 -3.29164)
(2.21775e-18 -1.07418e-16 -3.39114)
(1.83245e-16 6.09771e-16 -3.50807)
(1.69405e-16 4.42649e-17 -3.63957)
(-3.51838e-16 -5.78076e-16 -3.78455)
(6.62843e-18 2.27498e-16 -3.94207)
(-5.71826e-18 1.30912e-17 -4.11129)
(-2.00077e-18 -2.37764e-16 -4.2937)
(1.99697e-16 1.09409e-16 -4.4865)
(-3.75202e-16 7.73062e-17 -4.69714)
(-8.67712e-18 1.95822e-16 -4.91963)
(6.0259e-16 1.05958e-15 -5.16236)
(-2.47067e-16 -9.74751e-16 -5.42647)
(-8.71912e-16 -1.69409e-15 -5.71149)
(4.44366e-16 1.40371e-15 -6.02441)
(-7.77662e-16 3.88082e-16 -6.36683)
(7.93954e-16 -6.80711e-16 -6.73763)
(3.11334e-16 -7.14577e-16 -7.1424)
(2.27745e-17 2.64783e-16 -7.58241)
(4.2164e-16 1.07529e-15 -8.05353)
(-1.43421e-15 -4.97567e-16 -8.55921)
(8.75363e-17 3.42001e-17 -9.09617)
(-4.15337e-16 -7.62166e-16 -9.66089)
(1.56817e-16 -1.01265e-16 -10.2513)
(4.75761e-16 7.03953e-16 -10.8635)
(1.61046e-16 8.22389e-16 -11.4844)
(5.04236e-17 -6.77323e-17 -12.1205)
(3.28934e-16 5.94409e-16 -12.7645)
(6.09581e-16 6.66655e-16 -13.392)
(-8.55811e-17 -1.08437e-21 -14.0258)
(7.44966e-17 2.52577e-16 -14.6453)
(5.13296e-16 -1.10838e-17 -15.229)
(-2.99805e-18 2.65354e-16 -15.8209)
(-1.17099e-16 -8.11318e-17 -16.3701)
(-2.09838e-16 5.74072e-16 -16.907)
(-4.12969e-17 1.82701e-16 -17.4207)
(4.59447e-16 -4.985e-16 -17.9097)
(1.78543e-16 -5.46591e-16 -18.3808)
(-2.36088e-16 -2.71437e-16 -18.8319)
(-3.53536e-16 2.01823e-17 -19.2502)
(-1.11987e-16 5.81782e-17 -19.6524)
(1.24271e-16 -8.89242e-17 -19.983)
(-8.69243e-17 8.85851e-17 -20.2691)
(6.67349e-17 -4.74507e-17 -20.4396)
(-2.94037e-16 1.51593e-16 -20.4818)
(-4.69074e-17 4.51472e-17 -20.3794)
(3.01747e-16 -3.37407e-16 -20.085)
(9.42146e-17 1.22818e-16 -19.6308)
(-1.04521e-16 3.91705e-17 -18.9653)
(2.44497e-16 -1.77372e-16 -18.1547)
(-1.13058e-16 4.03809e-16 -17.2026)
(2.63647e-16 -1.65906e-16 -16.1855)
(-3.2783e-16 -3.43584e-17 -15.1467)
(2.81534e-17 2.06789e-16 -14.1946)
(2.81168e-17 3.71306e-17 -13.4061)
(1.59357e-16 -2.39031e-16 -12.8854)
(-1.42381e-16 4.69455e-17 -12.5867)
(-2.79155e-17 6.45036e-17 -12.3425)
(-1.2868e-16 3.95626e-17 -12.0505)
(2.3076e-17 -5.96622e-17 -11.7097)
(-3.30202e-17 -2.64534e-17 -11.3428)
(8.73451e-17 2.31307e-17 -10.9724)
(-5.07359e-19 4.42513e-17 -10.6215)
(-1.2789e-17 -2.54734e-17 -10.3094)
(-2.69404e-17 -4.55849e-17 -10.0526)
(5.99121e-18 8.94679e-18 -9.8711)
(7.4435e-18 3.6698e-17 -9.77526)
(1.48519e-18 -3.24278e-17 -9.75986)
(-1.44305e-18 -8.10647e-18 -9.81036)
(-4.11088e-18 1.80142e-17 -9.90748)
(4.37873e-17 3.77077e-18 -10.0314)
(-3.63649e-17 1.61462e-17 -10.1644)
(-1.87336e-17 -2.91443e-17 -10.2919)
(1.37838e-17 1.08984e-19 -10.4035)
(4.50689e-18 1.28868e-17 -10.4926)
(-9.31785e-18 2.25579e-18 -10.5566)
(6.80197e-18 3.08679e-18 -10.5956)
(-9.25426e-19 2.7571e-18 -10.6123)
(-5.56121e-18 -1.44256e-17 -10.6109)
(1.20631e-17 1.60054e-18 -10.5964)
(-7.51892e-19 7.63249e-18 -10.5743)
(1.7644e-18 -1.3339e-18 -10.5493)
(1.30749e-18 -4.4946e-18 -10.5252)
(-3.41808e-18 1.16796e-17 -10.5044)
(4.21963e-18 -4.03218e-18 -10.488)
(3.93382e-18 -4.72234e-18 -10.4755)
(-3.87043e-18 -6.1763e-18 -10.4654)
(1.07781e-18 3.85409e-18 -10.4547)
(1.47668e-18 -3.78173e-18 -10.4407)
(-2.02502e-19 2.8286e-18 -10.4207)
(-8.09168e-19 2.15473e-18 -10.3929)
(5.91103e-19 2.47329e-18 -10.3559)
(1.24858e-19 -5.74692e-19 -10.3091)
(-6.86498e-20 -3.51192e-18 -10.2499)
(1.09217e-19 -1.8963e-19 -10.1723)
(0 -0 2.06068)
(0 -0 2.33306)
(-1.23424e-19 1.39451e-17 2.1428)
(4.11344e-19 -1.69912e-17 1.53903)
(-1.91199e-19 -1.07865e-17 0.750676)
(-6.84668e-19 4.0984e-17 -0.293872)
(-2.72023e-17 -3.39784e-17 -1.31955)
(5.7517e-17 -4.73198e-17 -2.27541)
(-3.16171e-17 8.80208e-17 -3.14815)
(1.87153e-18 -1.37063e-17 -3.91572)
(7.47197e-19 -4.72165e-17 -4.58977)
(-5.98343e-17 2.70487e-17 -5.11148)
(1.13241e-16 5.37449e-17 -5.54371)
(-1.14101e-16 -1.32218e-17 -5.89762)
(1.25422e-16 -1.61058e-16 -6.18637)
(-6.37508e-17 7.94328e-17 -6.41651)
(-8.03185e-18 9.48922e-17 -6.60141)
(6.63372e-18 -5.37906e-17 -6.75233)
(-2.98068e-18 5.31746e-17 -6.87706)
(-5.08968e-17 -6.52048e-17 -6.98235)
(6.5525e-17 -4.12681e-17 -7.07403)
(-1.17345e-17 5.32982e-17 -7.15634)
(1.15335e-16 -1.05129e-16 -7.23238)
(-1.33153e-16 2.32566e-16 -7.30428)
(1.17655e-17 -4.43482e-17 -7.37324)
(2.21223e-17 -2.923e-16 -7.43974)
(-9.57307e-18 1.26765e-16 -7.50372)
(-1.64455e-17 3.11494e-16 -7.56478)
(1.17824e-16 -1.45428e-16 -7.62223)
(-9.00776e-17 -2.90689e-16 -7.67517)
(-2.05034e-17 1.23534e-16 -7.72246)
(1.44656e-19 2.05914e-16 -7.76229)
(-1.80583e-17 8.38296e-17 -7.79451)
(1.29709e-16 -2.24562e-16 -7.82846)
(-1.0674e-16 -8.96846e-17 -7.83323)
(-2.92e-16 -3.52804e-16 -7.74482)