/*--------------------------------*- C++ -*----------------------------------*\
| =========                 |                                                 |
| \\      /  F ield         | OpenFOAM: The Open Source CFD Toolbox           |
|  \\    /   O peration     | Version:  2506                                  |
|   \\  /    A nd           | Website:  www.openfoam.com                      |
|    \\/     M anipulation  |                                                 |
\*---------------------------------------------------------------------------*/
FoamFile
{
    version     2.0;
    format      ascii;
    arch        "LSB;label=32;scalar=64";
    class       volVectorField;
    location    "0.65";
    object      U;
}
// * * * * * * * * * * * * * * * * * * * * * * * * * * * * * * * * * * * * * //

dimensions      [0 1 -1 0 0 0 0];

internalField   nonuniform List<vector> 
4000
(
(0.0140771 0.00108118 0)
(0.0123001 0.00151627 2.30261e-21)
(0.0099378 0.0010694 -2.4207e-21)
(0.00775219 0.000605625 -5.09671e-21)
(0.00630821 0.000318979 1.05092e-20)
(0.00539913 0.00015913 -5.36655e-21)
(0.00480114 7.68542e-05 0)
(0.00440055 3.69318e-05 0)
(0.00413153 1.78566e-05 0)
(0.00394778 8.42856e-06 -1.08795e-20)
(0.00381831 3.63744e-06 1.09124e-20)
(0.0037235 1.15524e-06 -2.1643e-20)
(0.00365092 -2.37682e-07 2.16779e-20)
(0.00359245 -9.93799e-07 0)
(0.00354255 -1.30945e-06 0)
(0.00349737 -1.36767e-06 0)
(0.00345438 -1.28355e-06 -2.11797e-20)
(0.00341188 -1.11324e-06 2.11966e-20)
(0.00336871 -8.89118e-07 0)
(0.00332399 -6.25704e-07 0)
(0.00327701 -3.17743e-07 0)
(0.0032271 5.12569e-08 0)
(0.00317351 5.01661e-07 0)
(0.00311543 1.05648e-06 -4.0928e-20)
(0.00305191 1.74324e-06 8.16996e-20)
(0.00298183 2.59328e-06 -4.07762e-20)
(0.00290389 3.64601e-06 0)
(0.00281656 4.95714e-06 0)
(0.00271798 6.61629e-06 0)
(0.00260584 8.79369e-06 0)
(0.00247701 1.18928e-05 3.95827e-20)
(0.00232733 1.70482e-05 -3.96904e-20)
(0.002157 2.32186e-05 0)
(0.00190383 4.07337e-05 -3.42645e-20)
(0.00162221 0.000105942 -3.88714e-20)
(0.00150447 0.000239654 1.96356e-19)
(0.00157135 0.000434814 1.56438e-19)
(0.00171423 0.000661859 -3.92659e-20)
(0.00189361 0.000916098 1.56687e-19)
(0.00211816 0.0012082 3.52291e-19)
(0.00247478 0.00155652 -3.90563e-20)
(0.00296792 0.00192492 -3.10932e-19)
(0.00345809 0.00223399 3.10752e-19)
(0.00388523 0.00246667 0)
(0.00426866 0.00263868 0)
(0.00461858 0.00276279 1.96333e-20)
(0.00496631 0.0028505 2.9559e-19)
(0.00529197 0.00289013 2.96894e-19)
(0.00559392 0.00288461 1.79021e-19)
(0.00589046 0.00283622 1.60246e-19)
(0.00615018 0.00273498 -1.61332e-19)
(0.0063855 0.00258441 0)
(0.00656333 0.00237164 2.04353e-20)
(0.00669088 0.00210933 -3.48698e-19)
(0.0067397 0.00178695 0)
(0.00669465 0.00142598 8.25964e-20)
(0.0065678 0.00103812 2.05847e-20)
(0.0063145 0.000637174 -2.27818e-23)
(0.00600195 0.000254443 1.0994e-22)
(0.00557086 -0.000112677 1.05097e-20)
(0.00507666 -0.000426689 -2.05097e-20)
(0.0045628 -0.000682737 0)
(0.00402605 -0.000876425 0)
(0.00351887 -0.00101099 -3.98934e-20)
(0.00303224 -0.00109079 -2.77797e-19)
(0.00259938 -0.00112921 -3.87655e-20)
(0.00221491 -0.0011323 3.92026e-20)
(0.00188283 -0.00111383 -3.73947e-20)
(0.00160628 -0.00107987 -1.10658e-19)
(0.00137174 -0.00103715 2.54021e-19)
(0.00118644 -0.000993624 3.5807e-20)
(0.00103177 -0.000950735 -1.33843e-21)
(0.000904049 -0.000911156 0)
(0.000805726 -0.00087474 0)
(0.00072353 -0.000840368 0)
(0.000658316 -0.000809191 1.57282e-20)
(0.000608709 -0.000780921 2.32757e-19)
(0.000567567 -0.000754049 0)
(0.000534223 -0.000728777 -1.28962e-21)
(0.00050906 -0.000705067 -1.44525e-20)
(0.000488784 -0.000682147 2.28558e-19)
(0.000472518 -0.000659939 -2.03854e-19)
(0.000460491 -0.000638448 -1.02136e-22)
(0.000452003 -0.000617583 -2.18322e-19)
(0.000447839 -0.000597983 -6.57929e-22)
(0.000447921 -0.000579565 2.04854e-19)
(0.000450722 -0.000561609 2.03994e-19)
(0.000458793 -0.000544942 -2.039e-19)
(0.000472881 -0.000529418 3.05766e-21)
(0.000489776 -0.000513566 1.90603e-19)
(0.000513167 -0.000498509 0)
(0.000543871 -0.000483757 1.88664e-19)
(0.00057696 -0.000467942 1.73681e-19)
(0.00061598 -0.000451429 -1.75899e-19)
(0.000658996 -0.000430563 9.7044e-20)
(0.000707778 -0.000406714 -1.05961e-20)
(0.000761393 -0.000377466 -8.29181e-20)
(0.000820043 -0.000343395 -1.00984e-20)
(0.000881629 -0.000302297 -6.98263e-20)
(0.000949266 -0.000254769 -4.89578e-20)
(0.00102117 -0.000199848 1.92869e-20)
(0.0010956 -0.000137031 -4.75812e-20)
(0.00117636 -6.68426e-05 4.71454e-21)
(0.00125634 1.10787e-05 4.66735e-21)
(0.00134329 9.84407e-05 1.84502e-20)
(0.00143137 0.000193494 0)
(0.00152271 0.000296502 0)
(0.0016181 0.000406426 1.43383e-19)
(0.00171345 0.000522179 4.54671e-21)
(0.00181088 0.000643152 -7.49886e-20)
(0.00190904 0.000767917 -7.26843e-20)
(0.00200591 0.000895142 -2.26885e-21)
(0.00210429 0.00102404 7.51886e-20)
(0.00219801 0.00115185 4.43689e-23)
(0.00229118 0.0012794 0)
(0.00238592 0.00140468 -1.46636e-19)
(0.00247354 0.00152445 4.58571e-21)
(0.00256138 0.00164063 1.38119e-19)
(0.00264741 0.00175125 4.62357e-21)
(0.00272852 0.00185552 1.4816e-19)
(0.00281093 0.0019549 -3.80269e-23)
(0.00289453 0.00204768 -1.49051e-19)
(0.00297561 0.00213247 -9.34198e-21)
(0.00305855 0.00221141 1.68807e-19)
(0.00314564 0.00228433 -9.41392e-21)
(0.00323558 0.00235066 -1.51142e-19)
(0.00333089 0.00241097 -1.89701e-20)
(0.00343207 0.0024648 1.9039e-20)
(0.00353979 0.00251263 -1.52989e-19)
(0.00366117 0.0025557 1.34597e-19)
(0.00379191 0.00258975 1.92872e-20)
(0.0039278 0.00261486 2.91102e-19)
(0.00408526 0.00263374 1.9476e-20)
(0.00425662 0.00263969 1.56863e-19)
(0.00443128 0.00263062 1.36869e-22)
(0.00463342 0.00260984 0)
(0.00483894 0.00256414 0)
(0.00504701 0.00249585 -1.91887e-23)
(0.00526278 0.00239825 0)
(0.0054665 0.00226675 2.03465e-20)
(0.00565508 0.00209759 6.12623e-20)
(0.00581057 0.0018869 2.05124e-20)
(0.00591083 0.00163517 4.10559e-20)
(0.00595654 0.00134477 2.0649e-20)
(0.00589618 0.00101875 6.15939e-20)
(0.00576513 0.000683122 -2.04426e-20)
(0.00551066 0.000336801 0)
(0.00515022 2.17429e-05 0)
(0.00472817 -0.000258659 0)
(0.00422484 -0.000484381 1.90742e-20)
(0.00370911 -0.000652513 -1.92069e-20)
(0.00316285 -0.000758534 -7.35421e-20)
(0.00264005 -0.000808781 -7.11937e-20)
(0.00214548 -0.00080874 0)
(0.00169917 -0.00077405 6.59086e-20)
(0.00130361 -0.000710618 0)
(0.000961927 -0.000632776 1.44109e-20)
(0.000679748 -0.000546509 -7.19522e-20)
(0.000444464 -0.000457863 1.32684e-20)
(0.000252857 -0.000349043 -2.20843e-19)
(0.000235193 -0.000304891 4.8902e-20)
(0.000419622 -0.000299647 4.65297e-20)
(0.000613284 -0.000293267 0)
(0.000823135 -0.00027026 0)
(0.00107755 -0.000229215 0)
(0.00138414 -0.000165366 0)
(0.00178204 -9.70182e-05 0)
(0.00220585 -4.70504e-05 -8.46295e-21)
(0.0025248 -2.05913e-05 2.43688e-22)
(0.00273567 -6.6761e-06 2.35975e-22)
(0.00288242 1.76356e-06 7.93095e-21)
(0.00298986 7.12885e-06 0)
(0.00307204 1.02228e-05 -7.18152e-21)
(0.00313899 1.16235e-05 7.16327e-21)
(0.00319769 1.19034e-05 -2.11743e-22)
(0.00325213 1.15429e-05 0)
(0.00330387 1.08989e-05 0)
(0.00335281 1.0245e-05 5.83629e-21)
(0.00339788 9.75614e-06 -5.8233e-21)
(0.00343769 9.46861e-06 0)
(0.00347087 9.40779e-06 0)
(0.00349622 9.54292e-06 2.21788e-21)
(0.00351293 9.83245e-06 -1.3063e-22)
(0.00352088 1.01093e-05 -2.23183e-21)
(0.00352027 1.01098e-05 0)
(0.00351178 1.00574e-05 0)
(0.00349704 1.00924e-05 0)
(0.00347761 1.00886e-05 0)
(0.0034547 9.88894e-06 -9.41843e-23)
(0.0034296 9.52639e-06 0)
(0.00340355 9.03272e-06 0)
(0.00337761 8.4328e-06 0)
(0.00335264 7.75201e-06 -4.62285e-22)
(0.00332926 7e-06 4.618e-22)
(0.00330787 6.16475e-06 0)
(0.00328865 5.28956e-06 -3.71815e-23)
(0.00327156 4.46603e-06 -9.97822e-23)
(0.00325631 3.93896e-06 6.62899e-23)
(0.00324151 4.02e-06 3.33281e-23)
(0.00322456 8.78335e-06 0)
(0.0167931 0.00184127 0)
(0.0175819 0.00335531 0)
(0.0172752 0.00305245 0)
(0.0163347 0.00251434 -4.64419e-21)
(0.0151363 0.0018862 9.52903e-21)
(0.0139799 0.00133271 -4.88734e-21)
(0.0130152 0.000909451 0)
(0.0122428 0.000615236 -1.00821e-20)
(0.01164 0.00042037 1.02281e-20)
(0.0111785 0.00029272 -1.02423e-20)
(0.0108273 0.000209807 1.03279e-20)
(0.0105573 0.000156484 2.0573e-20)
(0.0103456 0.00012222 -2.06727e-20)
(0.0101747 0.000100677 -2.05311e-20)
(0.0100314 8.78845e-05 1.1119e-22)
(0.00990587 8.09581e-05 4.09594e-20)
(0.00979128 7.79344e-05 -2.047e-20)
(0.00968279 7.75697e-05 0)
(0.00957696 7.91022e-05 0)
(0.00947122 8.21113e-05 0)
(0.00936351 8.6446e-05 0)
(0.00925197 9.21333e-05 0)
(0.00913469 9.93081e-05 0)
(0.00900964 0.000108181 0)
(0.00887453 0.000119028 0)
(0.0087267 0.000132185 0)
(0.00856307 0.000148068 0)
(0.00838 0.000167209 0)
(0.00817315 0.000190332 0)
(0.00793715 0.000218521 0)
(0.00766548 0.00025356 3.87726e-20)
(0.00734882 0.000298899 -2.6571e-22)
(0.00698654 0.00036039 -7.76116e-20)
(0.00650427 0.000445201 3.4077e-20)
(0.00597313 0.000597233 3.88294e-20)
(0.00567114 0.000878878 -1.18017e-19)
(0.00567204 0.00131309 1.57423e-19)
(0.00586283 0.00186634 3.93121e-20)
(0.00618171 0.00250641 -3.94582e-19)
(0.00663361 0.00321452 -1.18047e-19)
(0.00730974 0.00398215 0)
(0.0081813 0.00474253 -3.91275e-20)
(0.00908612 0.00540403 -2.34216e-19)
(0.00995002 0.0059368 -3.88637e-20)
(0.0107755 0.00634739 -3.11612e-19)
(0.0115708 0.00665004 3.11786e-19)
(0.0123626 0.00685801 4.88761e-22)
(0.0131237 0.00696041 0)
(0.0138586 0.00695673 1.56597e-19)
(0.0145733 0.00685088 0)
(0.0152327 0.00663089 9.2645e-23)
(0.0158432 0.00629726 0)
(0.016359 0.00583304 1.58699e-19)
(0.0167819 0.00525906 1.59604e-19)
(0.0170649 0.00456509 0)
(0.0171918 0.00378277 -2.90364e-22)
(0.0171547 0.00293224 -8.00976e-20)
(0.0168966 0.00203465 -2.01109e-20)
(0.0164846 0.00114245 -3.99225e-20)
(0.0158371 0.000266203 1.01045e-20)
(0.0150304 -0.00053807 0)
(0.0140996 -0.00124637 -8.0182e-20)
(0.0130694 -0.00183967 4.03544e-20)
(0.0120194 -0.00231133 8.02428e-20)
(0.010953 -0.00266146 2.39937e-19)
(0.00994644 -0.00290617 4.01782e-20)
(0.00899573 -0.00305438 -1.97178e-19)
(0.0081372 -0.00313165 3.95962e-20)
(0.00737187 -0.00315132 0)
(0.0066967 -0.00313085 -3.79523e-20)
(0.00611891 -0.00308704 3.80795e-20)
(0.00561524 -0.00302551 -2.47413e-21)
(0.00518425 -0.00295866 0)
(0.0048216 -0.00288824 2.86782e-19)
(0.00450862 -0.00281484 2.80998e-19)
(0.00424151 -0.00274255 -1.69708e-20)
(0.00401561 -0.00267089 1.69039e-20)
(0.00381886 -0.00259833 -1.62475e-20)
(0.00364708 -0.00252604 2.55271e-19)
(0.0034987 -0.00245389 -2.35963e-19)
(0.0033682 -0.00238092 2.46125e-19)
(0.00325249 -0.00230757 2.45773e-19)
(0.00315034 -0.00223411 -1.46408e-20)
(0.00306001 -0.00216078 2.37098e-19)
(0.00298227 -0.00208884 -2.20969e-19)
(0.00291701 -0.00201843 2.17828e-19)
(0.00286174 -0.00194944 -2.14521e-19)
(0.00281939 -0.0018836 2.07795e-19)
(0.00279124 -0.00182001 6.33133e-21)
(0.00277302 -0.0017568 -6.26264e-21)
(0.00276894 -0.00169514 0)
(0.00278032 -0.00163302 0)
(0.00280212 -0.00156834 -9.28837e-20)
(0.00284086 -0.00150117 1.01311e-19)
(0.00289246 -0.00142613 -8.81398e-20)
(0.00295911 -0.00134356 -2.15279e-20)
(0.0030391 -0.00124918 -2.34372e-22)
(0.00313385 -0.00114264 9.95059e-23)
(0.00323983 -0.00102025 1.81162e-19)
(0.00336165 -0.00088177 2.94644e-20)
(0.00349644 -0.000724534 -3.87357e-20)
(0.00364339 -0.000547775 3.8031e-20)
(0.00380492 -0.00035076 0)
(0.00397453 -0.000132743 4.60666e-21)
(0.00415894 0.000106329 -4.5946e-21)
(0.00435126 0.000365851 0)
(0.00455322 0.000645191 0)
(0.00476295 0.000942055 -7.19176e-20)
(0.00497671 0.00125448 7.16827e-20)
(0.00519442 0.00157965 -7.38169e-20)
(0.00541424 0.00191467 1.43224e-19)
(0.00563335 0.00225602 1.21297e-23)
(0.00585369 0.00260105 2.24838e-21)
(0.0060688 0.00294485 7.19615e-20)
(0.00628387 0.00328643 0)
(0.0064983 0.00362103 0)
(0.00670615 0.00394537 0)
(0.00691468 0.00425873 -1.50537e-19)
(0.00712232 0.0045581 -1.42081e-19)
(0.00732726 0.00484222 0)
(0.00753581 0.00511104 1.66598e-19)
(0.00774828 0.00536234 -2.79343e-20)
(0.00796311 0.00559498 1.87238e-20)
(0.00818631 0.00581054 -9.41754e-21)
(0.00842067 0.00600824 1.89359e-20)
(0.00866655 0.00618771 -1.52422e-19)
(0.00892734 0.00634891 1.34143e-19)
(0.0092048 0.00649104 -1.73442e-19)
(0.00950171 0.00661405 -1.92535e-23)
(0.00982565 0.00671782 -1.36196e-19)
(0.0101718 0.00679644 0)
(0.0105392 0.00684885 -1.57348e-19)
(0.0109455 0.00687526 1.98047e-20)
(0.0113788 0.00686641 1.3915e-19)
(0.0118315 0.00681841 -1.59652e-19)
(0.0123267 0.00672908 2.00754e-20)
(0.0128322 0.00657906 -2.01154e-20)
(0.0133491 0.00637151 2.03422e-20)
(0.0138703 0.00609046 -2.02467e-20)
(0.0143734 0.00573091 2.03139e-20)
(0.0148434 0.00528567 -1.01801e-19)
(0.0152511 0.00475101 1.01463e-19)
(0.0155607 0.00412824 -1.02027e-19)
(0.0157585 0.00342755 0)
(0.0157781 0.00265819 -2.00814e-20)
(0.0156544 0.00186072 2.00705e-20)
(0.0153041 0.00104295 9.85822e-21)
(0.014756 0.000262232 0)
(0.0140389 -0.000456925 1.92438e-20)
(0.013139 -0.0010806 -3.79139e-20)
(0.0121477 -0.00159029 0)
(0.0110411 -0.00197191 7.31207e-20)
(0.00992123 -0.00222904 1.75788e-20)
(0.00878902 -0.00236317 -1.78118e-20)
(0.00771296 -0.00239919 0)
(0.00669044 -0.00234663 -6.57982e-20)
(0.00575659 -0.00223522 6.31321e-20)
(0.00491374 -0.00207717 -6.12102e-20)
(0.0041771 -0.00189879 0)
(0.00350537 -0.00167853 1.1137e-19)
(0.00322061 -0.00157392 6.59534e-20)
(0.00336565 -0.00151071 -1.1179e-19)
(0.0036659 -0.00142371 1.1372e-20)
(0.00404928 -0.00130199 -1.11584e-20)
(0.00454366 -0.00114677 -1.00523e-20)
(0.0051451 -0.000952676 -9.31403e-21)
(0.00588456 -0.000745285 8.1652e-21)
(0.00665066 -0.000551053 5.46242e-22)
(0.0072843 -0.000391706 0)
(0.00776512 -0.000275008 -5.05102e-22)
(0.0081359 -0.000195799 0)
(0.00843189 -0.000144388 4.68846e-22)
(0.00867671 -0.000112579 7.10153e-21)
(0.00888774 -9.40563e-05 -7.49602e-21)
(0.00907731 -8.36344e-05 6.24747e-22)
(0.00925257 -7.71301e-05 -6.25533e-21)
(0.00941623 -7.14435e-05 1.18144e-20)
(0.00956783 -6.45118e-05 -1.16304e-20)
(0.00970507 -5.5328e-05 6.00819e-21)
(0.00982483 -4.38884e-05 0)
(0.00992406 -3.04344e-05 -2.73741e-21)
(0.0100003 -1.52328e-05 2.56619e-21)
(0.0100522 6.09232e-07 2.77357e-22)
(0.0100796 1.59417e-05 2.02747e-21)
(0.0100838 2.97793e-05 -1.77899e-21)
(0.010067 4.16621e-05 -1.77075e-21)
(0.0100323 5.16633e-05 1.98074e-21)
(0.00998354 5.91273e-05 -1.71425e-21)
(0.00992428 6.39747e-05 2.99797e-21)
(0.00985821 6.64679e-05 -1.85751e-21)
(0.00978864 6.69311e-05 6.32512e-22)
(0.00971844 6.5721e-05 1.34419e-22)
(0.00964994 6.32151e-05 0)
(0.00958493 5.97872e-05 -2.78896e-22)
(0.00952467 5.57748e-05 3.81626e-22)
(0.00946992 5.15168e-05 -2.01929e-23)
(0.00942113 4.73896e-05 1.27608e-22)
(0.00937805 4.4032e-05 0)
(0.00934035 4.1761e-05 0)
(0.00930143 4.69307e-05 8.79854e-24)
(0.0167225 0.00106959 0)
(0.0174214 0.00234543 2.27219e-21)
(0.018118 0.00275791 -2.23707e-21)
(0.0185282 0.0027132 -4.45582e-21)
(0.0183967 0.00246805 4.47877e-21)
(0.0180543 0.00208548 0)
(0.0175653 0.00167556 0)
(0.0170118 0.00131077 0)
(0.0164728 0.0010091 9.28222e-21)
(0.0159923 0.000768811 -1.87403e-20)
(0.0155813 0.000586688 -9.34803e-21)
(0.0152359 0.000454228 1.89427e-20)
(0.0149471 0.000360215 1.88735e-20)
(0.0147048 0.000295701 -1.89753e-20)
(0.0144981 0.000253228 0)
(0.0143174 0.000226483 1.88243e-20)
(0.0141548 0.000210849 -3.76642e-20)
(0.014004 0.000203083 1.8833e-20)
(0.0138605 0.000201007 0)
(0.0137202 0.000203255 0)
(0.0135804 0.000209174 0)
(0.0134384 0.000218599 0)
(0.0132915 0.000231681 0)
(0.0131372 0.000248801 3.66985e-20)
(0.0129727 0.000270524 -3.67883e-20)
(0.0127946 0.000297582 0)
(0.0125993 0.000330886 0)
(0.0123824 0.000371594 0)
(0.0121389 0.000421216 0)
(0.0118626 0.000481832 0)
(0.0115464 0.000556492 3.58633e-20)
(0.0111805 0.000649973 -3.60302e-20)
(0.0107646 0.000770984 0)
(0.0102424 0.00092444 -2.23709e-21)
(0.00966738 0.00115159 0)
(0.00927731 0.00152306 7.29409e-20)
(0.00918169 0.00206284 -1.46835e-19)
(0.00932692 0.00274933 0)
(0.0096692 0.00354724 2.9335e-19)
(0.0102065 0.00441901 2.79241e-22)
(0.0109938 0.00532743 3.63016e-20)
(0.0119811 0.00619786 -3.60684e-20)
(0.0130339 0.00696362 2.87396e-19)
(0.0140856 0.00760358 0)
(0.0151244 0.00811775 3.22336e-19)
(0.0161495 0.00850872 -3.04081e-19)
(0.0171719 0.00878068 -3.04002e-19)
(0.0181655 0.00893168 0)
(0.0191362 0.00894362 -1.43225e-19)
(0.0200831 0.00882528 0)
(0.0209738 0.00856761 2.87514e-19)
(0.0218054 0.00816916 0)
(0.0225442 0.00761731 -1.26665e-19)
(0.0231853 0.0069299 -1.62385e-19)
(0.0236873 0.00610226 -1.44533e-19)
(0.0240291 0.00516113 -7.2495e-20)
(0.0241938 0.00412397 -7.17223e-20)
(0.0241313 0.00300974 -3.59558e-20)
(0.0238807 0.00186911 1.79145e-20)
(0.0233707 0.000716147 2.67777e-20)
(0.022653 -0.000389472 0)
(0.0217422 -0.00141635 7.11229e-20)
(0.020661 -0.00233607 -7.10349e-20)
(0.0194804 -0.00312696 0)
(0.0182115 -0.00377969 -2.83267e-19)
(0.0169404 -0.00429548 0)
(0.0156757 -0.00467807 -3.50254e-20)
(0.0144742 -0.00494772 3.54848e-20)
(0.0133491 -0.00511776 0)
(0.0123141 -0.00520896 -3.44282e-20)
(0.0113869 -0.00524057 3.47227e-20)
(0.010552 -0.00522138 3.7387e-19)
(0.00981317 -0.00517101 -2.35534e-19)
(0.00916568 -0.00509625 1.90828e-21)
(0.00859308 -0.00500221 -2.59356e-19)
(0.00809016 -0.0048964 -1.58591e-20)
(0.00765002 -0.00478055 2.68146e-19)
(0.0072595 -0.00465544 0)
(0.00691208 -0.00452403 2.4275e-19)
(0.00660374 -0.00438742 4.59195e-19)
(0.00632757 -0.00424576 -4.42458e-19)
(0.00607876 -0.00410065 -2.35478e-19)
(0.00585446 -0.00395338 2.30488e-19)
(0.00565168 -0.00380518 -2.24056e-19)
(0.00547018 -0.00365809 0)
(0.00530903 -0.00351274 -2.08147e-19)
(0.00516532 -0.00336979 -3.09253e-21)
(0.0050416 -0.00323164 -4.05907e-19)
(0.0049398 -0.00309714 -1.83882e-19)
(0.0048561 -0.00296527 -1.97651e-19)
(0.00479388 -0.00283672 0)
(0.00475451 -0.00270894 0)
(0.00473397 -0.00257912 8.86817e-20)
(0.00473714 -0.00244692 0)
(0.00476045 -0.00230808 1.0538e-20)
(0.00480657 -0.00216141 -1.03919e-20)
(0.00487336 -0.0020024 8.06508e-20)
(0.00496272 -0.00182963 -7.9058e-20)
(0.00507129 -0.00163892 -6.75121e-20)
(0.00520312 -0.00142927 -9.49094e-21)
(0.00535561 -0.00119722 3.70301e-20)
(0.00552843 -0.000941445 -1.81813e-20)
(0.0057227 -0.000660358 1.3423e-20)
(0.00593334 -0.000352803 -4.43508e-21)
(0.00616447 -1.8742e-05 0)
(0.00641002 0.000341472 -3.46019e-20)
(0.00667074 0.000726954 0)
(0.00694366 0.00113542 -6.82707e-20)
(0.00722555 0.00156469 1.9394e-23)
(0.00751494 0.00201135 6.56704e-20)
(0.00780975 0.00247186 -6.76675e-20)
(0.0081072 0.00294202 2.11948e-21)
(0.00840808 0.00341805 0)
(0.00870749 0.00389465 -6.77798e-20)
(0.00900919 0.00436934 6.79106e-20)
(0.00931203 0.00483621 0)
(0.00961309 0.00529243 -4.25828e-21)
(0.00991688 0.00573535 1.41306e-19)
(0.010223 0.00616097 1.28815e-19)
(0.0105313 0.0065674 -1.29458e-19)
(0.0108465 0.00695326 1.38665e-19)
(0.0111697 0.00731602 8.69425e-21)
(0.011501 0.00765465 -1.31172e-19)
(0.0118454 0.00796912 -1.75606e-20)
(0.0122057 0.0082577 -1.58777e-19)
(0.0125834 0.0085195 3.18844e-19)
(0.012982 0.00875353 -1.60069e-19)
(0.0134037 0.00895816 1.25022e-19)
(0.0138515 0.00913218 -1.07624e-19)
(0.014331 0.00927365 -1.8004e-19)
(0.0148389 0.00937665 -1.08386e-19)
(0.0153765 0.00943852 -1.81264e-20)
(0.0159557 0.00945729 -1.27124e-19)
(0.0165657 0.00942367 -1.64274e-19)
(0.0172009 0.00933348 1.83051e-20)
(0.0178741 0.00917903 -1.83035e-20)
(0.0185602 0.00894221 -5.48558e-20)
(0.0192567 0.008627 -1.79634e-20)
(0.0199494 0.00821683 1.83934e-20)
(0.0206191 0.00770701 -1.83959e-20)
(0.0212462 0.00709215 7.31198e-20)
(0.0218015 0.00637066 -1.9129e-20)
(0.0222512 0.00554648 9.46674e-23)
(0.0225779 0.00463363 1.83571e-20)
(0.0227239 0.00364496 7.24585e-20)
(0.0227048 0.00261605 0)
(0.0224491 0.00155882 -3.51729e-20)
(0.0219732 0.000524592 2.19019e-20)
(0.0212869 -0.000456433 -1.72289e-20)
(0.0203743 -0.00134832 5.04267e-20)
(0.0193075 -0.00212102 1.60943e-20)
(0.0180607 -0.00275598 -6.49309e-20)
(0.0167315 -0.00324182 -7.87775e-20)
(0.0153189 -0.00357426 3.09625e-20)
(0.013906 -0.00376725 -7.58395e-20)
(0.0124962 -0.00382861 5.87435e-20)
(0.0111454 -0.00378511 1.39641e-20)
(0.00986371 -0.00365075 5.45438e-20)
(0.00870806 -0.00346055 -1.37349e-20)
(0.00762264 -0.00319678 5.18908e-20)
(0.0070017 -0.00301236 -4.93413e-20)
(0.00688425 -0.00284716 3.49176e-20)
(0.00703731 -0.00264434 1.11409e-20)
(0.00735556 -0.00239404 2.04485e-20)
(0.00784492 -0.0021064 0)
(0.00847747 -0.001784 1.77972e-20)
(0.00925672 -0.00145622 -1.59352e-20)
(0.0100654 -0.00114855 -2.51901e-22)
(0.0107705 -0.000882943 2.35869e-22)
(0.0113495 -0.000672584 6.96405e-22)
(0.0118288 -0.000517573 7.34867e-21)
(0.0122334 -0.000409677 -4.35393e-22)
(0.0125818 -0.00033832 0)
(0.0128898 -0.000293013 4.02241e-22)
(0.0131695 -0.000264103 -3.85573e-22)
(0.0134285 -0.000243341 -6.52012e-21)
(0.0136699 -0.000224324 6.1004e-21)
(0.0138935 -0.000202653 5.24524e-21)
(0.0140966 -0.000175918 -5.53752e-21)
(0.0142755 -0.000143483 0)
(0.0144261 -0.000105936 2.86695e-22)
(0.0145451 -6.4713e-05 0)
(0.0146302 -2.19186e-05 1.72821e-21)
(0.0146809 2.01426e-05 -1.16361e-22)
(0.0146982 5.9349e-05 -2.08543e-21)
(0.0146847 9.39025e-05 -4.20582e-22)
(0.0146438 0.000122765 -1.96231e-22)
(0.0145799 0.000145104 1.81628e-22)
(0.0144983 0.000160805 0)
(0.0144041 0.000170231 -1.52747e-22)
(0.014302 0.000174048 -5.23754e-22)
(0.0141965 0.000173108 3.99515e-22)
(0.0140912 0.000168361 4.08753e-22)
(0.013989 0.000160779 -5.03813e-22)
(0.0138923 0.000151302 0)
(0.0138025 0.00014082 -8.03759e-23)
(0.0137208 0.000130136 -1.17427e-22)
(0.013647 0.000120134 -2.95341e-23)
(0.0135834 0.000110935 2.95074e-23)
(0.013514 0.000108514 -8.1048e-24)
(0.0166172 0.000572744 0)
(0.0169992 0.00150864 0)
(0.0176812 0.00203668 0)
(0.0183319 0.00225702 -4.49008e-21)
(0.0187393 0.00227354 4.4625e-21)
(0.0189867 0.00213289 0)
(0.0189936 0.00190236 0)
(0.0188954 0.00164156 0)
(0.0187066 0.00138034 0)
(0.0184606 0.00113876 0)
(0.01819 0.000932541 0)
(0.0179262 0.000762995 1.79493e-20)
(0.0176801 0.000628394 -1.80605e-20)
(0.0174561 0.000527476 1.79712e-20)
(0.0172536 0.000455336 -3.60107e-20)
(0.0170698 0.000405729 1.80275e-20)
(0.0169013 0.00037355 1.78942e-20)
(0.016744 0.00035455 -1.79466e-20)
(0.0165942 0.000345589 0)
(0.0164485 0.000344441 0)
(0.016304 0.000349895 -3.53587e-20)
(0.0161581 0.000361484 3.54363e-20)
(0.0160081 0.000379271 0)
(0.0158514 0.00040373 3.49678e-20)
(0.0156852 0.000435664 -3.50431e-20)
(0.0155064 0.000476164 0)
(0.0153114 0.00052661 0)
(0.0150961 0.000588736 -3.44203e-20)
(0.0148558 0.000664745 2.23005e-22)
(0.0145851 0.000757519 3.4381e-20)
(0.0142778 0.000870995 3.40288e-20)
(0.0139258 0.00101059 -6.80473e-20)
(0.0135292 0.00118558 3.40237e-20)
(0.0130494 0.00139959 -3.15362e-20)
(0.0125235 0.00168555 3.40419e-20)
(0.0121339 0.00210323 3.43922e-20)
(0.011992 0.00267299 -3.50683e-20)
(0.0120901 0.00337881 -1.04861e-19)
(0.0124099 0.00419118 -1.73791e-19)
(0.0129487 0.00506823 -3.42423e-20)
(0.0137338 0.00596171 3.43484e-20)
(0.0147074 0.00680673 3.07829e-19)
(0.0157619 0.00755921 -3.06878e-19)
(0.016841 0.00820373 -3.06326e-19)
(0.0179276 0.00873421 6.79816e-20)
(0.0190157 0.00914666 -5.09364e-20)
(0.020105 0.00943601 1.52745e-19)
(0.0211757 0.00961049 0)
(0.0222255 0.00959538 1.53043e-19)
(0.0232504 0.00948741 -1.69861e-20)
(0.0242273 0.00924511 -1.36517e-19)
(0.0251501 0.00883322 -1.70577e-20)
(0.0259931 0.00826704 1.70487e-19)
(0.0267472 0.00756064 1.20208e-19)
(0.0273836 0.00671386 1.37792e-19)
(0.0278839 0.00574493 6.8071e-20)
(0.0282279 0.00467104 1.75245e-20)
(0.0283775 0.0035093 -1.68431e-20)
(0.0283492 0.00229916 -1.67716e-20)
(0.0280897 0.00105363 -2.47103e-20)
(0.0276226 -0.000174172 -1.62432e-20)
(0.026946 -0.00135486 0)
(0.0260692 -0.0024588 -6.4852e-20)
(0.0250393 -0.00345734 0)
(0.0238648 -0.00433523 2.26371e-19)
(0.0226182 -0.00507752 1.29302e-19)
(0.0213135 -0.0056812 3.24048e-20)
(0.0200106 -0.00615215 0)
(0.0187329 -0.00649952 0)
(0.0175071 -0.00673823 1.27393e-19)
(0.0163617 -0.00688547 0)
(0.0152935 -0.00695271 -2.82001e-19)
(0.0143161 -0.0069591 2.79373e-19)
(0.0134303 -0.00691554 -2.60448e-19)
(0.0126269 -0.00683082 2.67641e-22)
(0.0119038 -0.00671532 2.62726e-22)
(0.0112553 -0.00657395 -2.05676e-19)
(0.0106698 -0.00641079 -2.90437e-20)
(0.0101412 -0.00623117 -2.1315e-19)
(0.00966443 -0.00603842 -2.23592e-19)
(0.00923237 -0.00583458 -1.68534e-21)
(0.00883936 -0.00562283 2.08826e-19)
(0.00848137 -0.00540599 -2.04816e-19)
(0.00815448 -0.00518677 0)
(0.00785735 -0.00496835 -3.16919e-21)
(0.00758839 -0.00475254 -1.97887e-19)
(0.00734454 -0.00454072 3.9123e-19)
(0.00712839 -0.00433556 5.78076e-19)
(0.00694079 -0.00413665 1.93636e-19)
(0.0067783 -0.00394355 -7.01893e-21)
(0.00664436 -0.00375671 0)
(0.00654036 -0.00357376 -5.46826e-21)
(0.00646301 -0.00339176 5.40822e-21)
(0.00641651 -0.00320952 0)
(0.00639795 -0.00302221 -8.22281e-20)
(0.0064098 -0.00282829 9.94544e-21)
(0.00644986 -0.00262248 -9.82922e-21)
(0.0065198 -0.00240285 -3.05771e-22)
(0.00661619 -0.00216442 -7.48565e-20)
(0.00674225 -0.00190586 9.08783e-21)
(0.00689499 -0.00162282 -1.79167e-20)
(0.00707375 -0.00131387 8.83095e-21)
(0.00727844 -0.000976772 1.88677e-23)
(0.00750421 -0.000610152 4.24292e-21)
(0.00775337 -0.000214056 -4.22518e-21)
(0.00802 0.000211578 3.33044e-20)
(0.00830388 0.000665279 3.51301e-20)
(0.00860158 0.00114487 6.35872e-20)
(0.00890999 0.00164762 -1.30769e-19)
(0.0092273 0.00216973 6.31908e-20)
(0.00955151 0.00270716 2.03866e-21)
(0.00988041 0.00325532 2.02592e-21)
(0.0102145 0.00380971 -2.03669e-21)
(0.0105505 0.00436515 6.50418e-20)
(0.0108914 0.00491787 -3.95722e-21)
(0.0112365 0.00546234 1.41843e-23)
(0.0115848 0.00599525 -5.73962e-20)
(0.0119396 0.00651299 -2.01229e-19)
(0.0123014 0.00701173 1.32018e-19)
(0.012671 0.00748907 1.32252e-19)
(0.0130521 0.00794274 -1.41029e-19)
(0.0134461 0.00837018 -1.2511e-19)
(0.0138541 0.0087698 1.25394e-19)
(0.0142801 0.00914026 1.51195e-19)
(0.0147263 0.00947945 1.26318e-19)
(0.0151948 0.0097858 -1.6831e-20)
(0.0156882 0.0100575 1.69648e-20)
(0.0162088 0.0102919 0)
(0.0167585 0.0104873 1.53583e-19)
(0.0173401 0.0106418 1.36891e-19)
(0.0179514 0.0107489 1.20114e-19)
(0.0185951 0.0108022 0)
(0.0192787 0.0107977 1.54934e-19)
(0.0199915 0.0107296 -1.72176e-20)
(0.0207269 0.0105934 5.14978e-20)
(0.0214901 0.0103778 1.72331e-20)
(0.0222628 0.0100717 5.13999e-22)
(0.0230409 0.00968495 8.64302e-20)
(0.0238088 0.0091884 -1.72322e-20)
(0.0245486 0.00858648 8.55401e-20)
(0.0252417 0.00787777 -1.54472e-19)
(0.0258629 0.00706325 -1.37011e-19)
(0.0263859 0.00614925 -6.77707e-20)
(0.0267929 0.00514974 0)
(0.0270425 0.00407545 1.61661e-20)
(0.0271372 0.00295828 -2.68721e-22)
(0.0270251 0.00181158 -7.96266e-21)
(0.0267102 0.000676333 2.80508e-20)
(0.0261919 -0.000417646 -1.58932e-20)
(0.0254501 -0.00143933 3.05349e-20)
(0.0245297 -0.00235642 -3.03669e-20)
(0.0234033 -0.00315118 0)
(0.0221438 -0.00380102 7.20627e-20)
(0.0207443 -0.00429824 -2.8105e-20)
(0.019278 -0.00464187 5.55299e-20)
(0.0177492 -0.00483611 1.36406e-20)
(0.0162184 -0.00489644 -6.47533e-20)
(0.0147016 -0.00483554 1.29397e-20)
(0.0132886 -0.00468401 0)
(0.0119251 -0.00443492 -5.91613e-20)
(0.0110143 -0.00420124 5.92684e-22)
(0.0105899 -0.00395702 5.26728e-22)
(0.0104845 -0.00366296 4.77705e-22)
(0.0106006 -0.00331243 -1.87208e-20)
(0.0109365 -0.00292321 3.78615e-22)
(0.011449 -0.00250772 1.45178e-22)
(0.0121202 -0.00209677 7.87993e-21)
(0.0128339 -0.00171276 -6.84221e-21)
(0.0134789 -0.00137434 -7.29072e-21)
(0.0140353 -0.00109613 -6.74376e-22)
(0.0145199 -0.000882003 6.98844e-21)
(0.0149471 -0.000726298 -8.29937e-22)
(0.0153272 -0.000618414 -6.26548e-21)
(0.0156705 -0.00054595 6.2253e-21)
(0.0159857 -0.000496433 7.33468e-22)
(0.0162785 -0.000458556 7.00304e-22)
(0.0165516 -0.000423084 0)
(0.0168046 -0.000383381 -4.97764e-21)
(0.0170349 -0.000335566 4.95256e-21)
(0.0172389 -0.000278326 0)
(0.0174125 -0.00021238 5.43413e-22)
(0.017552 -0.000139927 0)
(0.0176547 -6.42048e-05 -4.84205e-22)
(0.0177194 1.10902e-05 -1.76727e-21)
(0.0177464 8.2359e-05 1.76485e-21)
(0.0177377 0.00014646 4e-22)
(0.0176966 0.000200852 -3.71451e-22)
(0.0176275 0.000244337 0)
(0.0175357 0.000276469 1.21071e-21)
(0.0174267 0.000297521 -1.20959e-21)
(0.0173059 0.000308382 -2.61179e-22)
(0.0171783 0.000310363 -4.41605e-22)
(0.0170486 0.000305012 4.41563e-22)
(0.0169205 0.000293971 -3.32481e-22)
(0.016797 0.000278862 3.32482e-22)
(0.0166804 0.000261221 1.25405e-22)
(0.0165723 0.000242403 8.37196e-23)
(0.0164729 0.000223811 -5.56953e-23)
(0.0163872 0.00020578 -6.99486e-23)
(0.0162873 0.000191241 0)
(0.0165896 0.000358632 0)
(0.0167624 0.00101795 0)
(0.0172171 0.00148039 0)
(0.0178033 0.00174215 -4.57006e-21)
(0.0183141 0.00185118 4.52757e-21)
(0.0187142 0.00184409 0)
(0.0189975 0.00175461 -8.88262e-21)
(0.0191805 0.0016085 8.87936e-21)
(0.019285 0.00143581 8.81901e-21)
(0.0192807 0.00125988 -1.76457e-20)
(0.0192349 0.00109393 8.83325e-21)
(0.0191512 0.00094222 0)
(0.0190384 0.000810471 0)
(0.0189125 0.000704567 -1.75212e-20)
(0.0187832 0.000622804 9.0655e-23)
(0.0186548 0.000562255 3.49928e-20)
(0.0185294 0.000520518 -1.74969e-20)
(0.0184071 0.000494106 0)
(0.0182867 0.000480146 0)
(0.0181666 0.000476505 -1.72306e-20)
(0.0180452 0.000481904 1.72618e-20)
(0.0179206 0.000495737 0)
(0.0177907 0.000518027 0)
(0.0176535 0.000549331 3.39055e-20)
(0.0175066 0.000590639 -6.77156e-20)
(0.0173474 0.00064332 3.38095e-20)
(0.017173 0.000709123 3.34499e-20)
(0.0169799 0.000790211 -2.10031e-22)
(0.0167645 0.000889271 -6.64822e-20)
(0.0165225 0.00100968 3.31898e-20)
(0.0162492 0.00115577 3.28139e-20)
(0.0159388 0.00133305 -2.18113e-22)
(0.0155922 0.00155013 -3.27028e-20)
(0.015183 0.0018104 -3.22747e-20)
(0.0147385 0.00213872 3.26051e-20)
(0.0143975 0.0025806 0)
(0.0142587 0.0031499 1.35008e-19)
(0.0143374 0.00383272 2.68856e-19)
(0.014632 0.00460333 0)
(0.0151407 0.00542249 -1.32821e-19)
(0.015876 0.00624348 3.29896e-20)
(0.0167815 0.00701505 -2.95193e-19)
(0.0177708 0.00770668 2.61904e-19)
(0.0187961 0.00830535 2.61794e-19)
(0.0198388 0.00880274 1.64015e-19)
(0.0208905 0.0091909 -3.27663e-20)
(0.0219456 0.00946102 -1.31273e-19)
(0.0229935 0.00962867 1.14977e-19)
(0.0240222 0.00961006 1.64257e-20)
(0.0250208 0.00949987 1.31526e-19)
(0.0259819 0.00923666 0)