/*--------------------------------*- C++ -*----------------------------------*\
| =========                 |                                                 |
| \\      /  F ield         | OpenFOAM: The Open Source CFD Toolbox           |
|  \\    /   O peration     | Version:  2506                                  |
|   \\  /    A nd           | Website:  www.openfoam.com                      |
|    \\/     M anipulation  |                                                 |
\*---------------------------------------------------------------------------*/
FoamFile
{
    version     2.0;
    format      ascii;
    arch        "LSB;label=32;scalar=64";
    class       volVectorField;
    location    "3.85";
    object      U;
}
// * * * * * * * * * * * * * * * * * * * * * * * * * * * * * * * * * * * * * //

dimensions      [0 1 -1 0 0 0 0];

internalField   nonuniform List<vector> 
4000
(
(0.00126711 -0.000560872 -1.27225e-23)
(0.00192438 -0.000489026 0)
(0.00285931 -0.00025452 -3.0204e-23)
(0.00357662 -0.000140023 -3.04379e-23)
(0.00405068 -8.60137e-05 -2.97912e-23)
(0.00438692 -5.29697e-05 0)
(0.00463908 -3.24389e-05 -2.77286e-23)
(0.00482746 -1.98899e-05 -2.6732e-23)
(0.00496921 -1.21573e-05 0)
(0.0050793 -7.49142e-06 0)
(0.0051659 -4.77351e-06 -4.25843e-22)
(0.00523393 -2.88525e-06 7.98841e-22)
(0.00528681 -1.42639e-06 -3.73239e-22)
(0.00532628 -4.20817e-07 4.08486e-22)
(0.00535455 3.2825e-07 -4.07244e-22)
(0.00537245 9.1702e-07 -2.64237e-23)
(0.00538072 1.37878e-06 -4.56063e-22)
(0.00538006 1.70483e-06 4.549e-22)
(0.00537089 2.01528e-06 -3.07268e-23)
(0.00535343 2.29831e-06 0)
(0.00532824 2.59016e-06 0)
(0.00529531 2.35616e-06 3.78858e-23)
(0.00525443 1.85627e-06 4.09787e-23)
(0.00520583 1.22639e-06 0)
(0.00514968 5.01123e-07 4.83453e-23)
(0.0050859 -3.03262e-07 5.26646e-23)
(0.00501438 -1.13759e-06 0)
(0.00493471 -1.86523e-06 0)
(0.00484608 -2.19467e-06 -2.31885e-21)
(0.00474543 -9.94527e-07 2.39188e-21)
(0.00463567 7.90787e-06 0)
(0.00453889 3.58735e-05 5.99356e-21)
(0.00445061 7.73201e-05 -9.40838e-21)
(0.00434373 0.000112876 2.52344e-22)
(0.00419713 0.00011746 4.25059e-21)
(0.00400337 7.52737e-05 -6.55415e-20)
(0.00381 -1.88163e-05 5.5592e-22)
(0.00360619 -0.000169559 1.38829e-20)
(0.00338963 -0.000382639 0)
(0.00319036 -0.000618668 -5.13085e-21)
(0.00303521 -0.000825695 5.17978e-21)
(0.00293159 -0.000983866 -4.19123e-20)
(0.00287535 -0.00108656 0)
(0.00286253 -0.00113186 -3.64408e-20)
(0.00289012 -0.00112239 1.54349e-20)
(0.00295252 -0.00106473 -2.1293e-20)
(0.00304643 -0.000965194 0)
(0.00316827 -0.000832414 2.04541e-20)
(0.00331283 -0.000676951 2.13732e-20)
(0.00347449 -0.000509508 1.56464e-20)
(0.00364708 -0.000340237 0)
(0.0038394 -0.000174425 0)
(0.00404406 -2.50463e-05 1.79496e-21)
(0.00427649 0.000105104 -1.37745e-20)
(0.00454641 0.000204809 -2.25579e-21)
(0.00486822 0.000262436 8.67893e-21)
(0.00524189 0.000253198 4.70623e-21)
(0.00564276 0.000153712 -1.27826e-21)
(0.00596792 -5.48989e-05 0)
(0.00614794 -0.000323106 -1.54188e-22)
(0.0061563 -0.000597682 -7.77122e-22)
(0.00597276 -0.000820057 8.16096e-22)
(0.00572424 -0.00094522 7.12607e-21)
(0.00542683 -0.000985536 -8.06702e-21)
(0.00515186 -0.000963473 0)
(0.00491223 -0.000904275 0)
(0.00470446 -0.000827643 0)
(0.0045397 -0.000747843 -1.64327e-21)
(0.00441109 -0.000673903 -2.4291e-20)
(0.00431005 -0.000607519 -1.34423e-20)
(0.00422871 -0.000549263 0)
(0.00416418 -0.000498867 1.17149e-20)
(0.00411301 -0.000455431 -1.15073e-20)
(0.00407157 -0.000417431 -1.20842e-21)
(0.00403722 -0.000383564 1.21533e-20)
(0.00400827 -0.000352795 -1.038e-20)
(0.00398358 -0.000324254 -1.12718e-20)
(0.00396429 -0.000298158 -1.02908e-20)
(0.00394862 -0.000273703 0)
(0.00393514 -0.000250043 0)
(0.00392382 -0.000226558 2.18925e-22)
(0.00391918 -0.000204538 6.14609e-21)
(0.00391757 -0.000182189 0)
(0.00392263 -0.000159881 -3.43194e-21)
(0.0039341 -0.000135629 1.83153e-21)
(0.00396016 -0.000108864 0)
(0.00400497 -7.58713e-05 0)
(0.00407032 -3.11783e-05 -2.47315e-22)
(0.00416321 3.47996e-05 -1.05643e-21)
(0.00428603 0.000129832 3.01219e-21)
(0.00442386 0.000256239 -9.97084e-23)
(0.00456553 0.000411819 1.70895e-22)
(0.00469639 0.000582934 7.10013e-22)
(0.00480149 0.000756149 0)
(0.00488057 0.000915206 -1.42381e-20)
(0.00492383 0.00104679 -1.46111e-20)
(0.00494266 0.00115075 -1.52081e-20)
(0.00495471 0.00123092 -1.01084e-21)
(0.00496667 0.00129455 -1.55346e-20)
(0.00499182 0.00135427 -1.65378e-20)
(0.00504035 0.00142115 2.64013e-22)
(0.0051169 0.00150172 -1.70892e-20)
(0.00522031 0.00159608 -3.25212e-20)
(0.00534362 0.00169791 -7.65988e-22)
(0.00547756 0.00179878 -1.46844e-20)
(0.00561379 0.0018886 0)
(0.00575111 0.00195834 1.3623e-20)
(0.00589312 0.00199955 1.18142e-20)
(0.00603758 0.002006 8.07293e-22)
(0.00618864 0.00198018 0)
(0.00637662 0.00192564 8.74561e-21)
(0.00660337 0.00181733 -7.10005e-21)
(0.00684575 0.00165612 0)
(0.00711205 0.00141475 -7.23677e-21)
(0.00733534 0.00109006 -8.09802e-22)
(0.00748072 0.000666445 6.94756e-22)
(0.00743015 0.000174331 0)
(0.00716592 -0.000287341 1.30649e-21)
(0.00678629 -0.000651368 -2.56069e-22)
(0.00632108 -0.000887881 -5.44589e-23)
(0.00588583 -0.000996356 3.06371e-22)
(0.00551084 -0.00101719 -1.14925e-20)
(0.00521261 -0.000988399 1.32024e-20)
(0.00496081 -0.000928244 8.7174e-22)
(0.00476099 -0.000855042 1.26297e-20)
(0.00460635 -0.000782869 -2.75667e-20)
(0.00447938 -0.000712836 1.38959e-20)
(0.00437576 -0.000647487 -1.52734e-20)
(0.00429436 -0.000589205 5.44677e-22)
(0.00423 -0.00053807 -1.33288e-20)
(0.00417812 -0.00049296 0)
(0.00413571 -0.000452681 1.41824e-20)
(0.00410067 -0.000416092 -2.11418e-21)
(0.00407214 -0.000382606 1.48703e-20)
(0.00404874 -0.000351477 0)
(0.0040292 -0.000321865 0)
(0.00401269 -0.000293095 -1.09008e-20)
(0.00399823 -0.000264106 9.59956e-21)
(0.00398959 -0.000236055 0)
(0.00398371 -0.000207951 0)
(0.00397789 -0.00017755 6.24451e-21)
(0.00398035 -0.000146699 -1.00815e-21)
(0.00398544 -0.000112901 4.02223e-21)
(0.00400063 -7.55897e-05 0)
(0.00402999 -3.35405e-05 -2.27942e-23)
(0.00407568 1.4621e-05 9.98523e-22)
(0.00414655 7.8409e-05 -1.43786e-21)
(0.00425074 0.000161346 1.19449e-21)
(0.00437892 0.000271314 0)
(0.00451803 0.000408501 -2.43603e-21)
(0.00465652 0.000569094 -3.11308e-22)
(0.00478048 0.00073935 1.74651e-20)
(0.00487481 0.000902196 -3.03663e-21)
(0.00493691 0.00104733 -3.85304e-22)
(0.00497877 0.001168 -1.03181e-20)
(0.00500017 0.00126199 -3.49443e-21)
(0.00501457 0.00133713 0)
(0.00503851 0.00140715 0)
(0.00509016 0.00148798 0)
(0.00518239 0.00159027 2.7321e-20)
(0.00533587 0.00171845 -3.27146e-21)
(0.00559302 0.00187487 -1.12489e-20)
(0.00615708 0.00209209 -8.14134e-21)
(0.00703943 0.0021714 0)
(0.0073675 0.00200524 7.28634e-21)
(0.00753969 0.00177315 1.04976e-20)
(0.00771182 0.00148731 3.39566e-22)
(0.00776757 0.00113994 1.06367e-21)
(0.0076419 0.000748027 1.91587e-21)
(0.00729139 0.000374479 5.33238e-22)
(0.00682532 0.000131046 0)
(0.00651298 4.30674e-05 6.50076e-24)
(0.00638164 1.64209e-05 0)
(0.00632613 5.99108e-06 6.63728e-24)
(0.00629534 1.80903e-06 6.67245e-24)
(0.00627446 9.70592e-07 4.35595e-22)
(0.00625629 1.26868e-06 -4.35256e-22)
(0.00623587 2.05788e-06 -2.19657e-22)
(0.00621148 3.14752e-06 2.2643e-22)
(0.00618317 4.09214e-06 -2.22511e-22)
(0.00615155 4.80605e-06 4.73814e-22)
(0.0061175 5.29134e-06 -2.29241e-22)
(0.00608189 5.57897e-06 0)
(0.00604538 5.75842e-06 8.28846e-24)
(0.00600816 5.91837e-06 -8.71132e-24)
(0.00596993 6.15029e-06 3.08869e-22)
(0.00593007 6.54234e-06 -2.89773e-22)
(0.00588757 7.17524e-06 3.35823e-22)
(0.00584079 8.2475e-06 -3.24727e-22)
(0.00578776 9.85526e-06 2.01339e-22)
(0.00572548 1.22676e-05 -1.7736e-22)
(0.00564929 1.61065e-05 1.32071e-23)
(0.00555206 2.19471e-05 1.42427e-23)
(0.00542178 3.11947e-05 0)
(0.0052385 4.65447e-05 1.70404e-23)
(0.00496554 7.31791e-05 1.90133e-23)
(0.00454839 0.000122159 2.06462e-22)
(0.00382783 0.000227182 -2.11642e-22)
(0.00264202 0.000479869 0)
(0.00156485 0.000661112 3.77806e-23)
(3.54468e-05 -0.00127507 -1.01719e-23)
(0.000257427 -0.0014589 -3.42489e-23)
(0.00109274 -0.00115499 3.38396e-23)
(0.00192672 -0.000881299 -1.60747e-22)
(0.00263693 -0.0006666 4.17545e-22)
(0.00323059 -0.000504078 -6.30627e-24)
(0.0037239 -0.000385058 -2.12187e-22)
(0.00413152 -0.000297914 8.5629e-23)
(0.00446825 -0.000233319 5.44977e-23)
(0.00474833 -0.000184453 5.32249e-23)
(0.00497836 -0.000146228 7.94838e-23)
(0.00516485 -0.000115293 4.77084e-22)
(0.00531831 -8.94037e-05 -4.49307e-22)
(0.00544073 -6.6999e-05 4.34697e-22)
(0.00553582 -4.70376e-05 -8.25066e-22)
(0.0056064 -2.87989e-05 9.92367e-22)
(0.00565459 -1.15221e-05 -4.03095e-22)
(0.00568188 4.10521e-06 5.72969e-22)
(0.0056895 1.96558e-05 6.7533e-22)
(0.00567862 3.48365e-05 -1.01493e-21)
(0.00564974 4.9754e-05 7.43699e-23)
(0.00560338 6.4219e-05 1.38728e-21)
(0.00554043 7.83839e-05 -1.3887e-21)
(0.00546146 9.24027e-05 -1.49056e-21)
(0.00536712 0.000106361 1.52986e-21)
(0.00525815 0.000120335 5.46186e-23)
(0.00513537 0.000134486 2.05009e-21)
(0.00499966 0.000149183 5.83932e-23)
(0.00485234 0.000165144 -4.68508e-21)
(0.00469576 0.000183309 -3.11383e-22)
(0.00453462 0.00020997 2.6794e-21)
(0.00434174 0.000262631 3.19658e-21)
(0.00408481 0.00032388 1.01402e-20)
(0.00375537 0.000348026 2.19817e-20)
(0.00338329 0.000301472 1.61825e-20)
(0.00299886 0.000140746 1.82105e-20)
(0.00266202 -0.000137461 -3.94652e-21)
(0.0023441 -0.00052841 -1.52913e-20)
(0.00203698 -0.00099225 5.21158e-21)
(0.00179113 -0.00144337 1.55835e-20)
(0.00163607 -0.00181973 2.13784e-20)
(0.00155652 -0.00209992 2.28661e-20)
(0.00154158 -0.00227548 0)
(0.00158733 -0.00234622 4.633e-20)
(0.00169101 -0.00231882 -2.30788e-20)
(0.00183912 -0.00220455 2.40135e-20)
(0.00202665 -0.00201651 -2.35072e-20)
(0.0022463 -0.0017722 0)
(0.00248854 -0.00149085 -1.76093e-21)
(0.00274469 -0.00119223 -1.99879e-20)
(0.00300999 -0.000895374 1.91253e-20)
(0.00329176 -0.000613717 -2.14977e-21)
(0.00358587 -0.00036744 -1.59013e-20)
(0.0039143 -0.000167689 3.31543e-21)
(0.00429091 -2.93668e-05 -1.37634e-20)
(0.0047488 3.10718e-05 0)
(0.00529893 -7.25977e-06 -4.82712e-21)
(0.00595468 -0.000171837 2.24472e-21)
(0.00667224 -0.000475185 2.12421e-22)
(0.00735419 -0.000897274 3.30072e-23)
(0.00790087 -0.00140006 1.00804e-21)
(0.00817593 -0.00190845 4.02145e-21)
(0.00816143 -0.00230961 5.67223e-21)
(0.00791956 -0.00257256 8.98458e-21)
(0.00754793 -0.00267888 -1.30424e-21)
(0.00711923 -0.00265122 1.29216e-21)
(0.00667408 -0.00253003 0)
(0.00626683 -0.00235491 0)
(0.0059132 -0.00216362 2.7227e-20)
(0.00561856 -0.00197352 -1.33333e-20)
(0.00537489 -0.00179639 -1.76755e-21)
(0.00517775 -0.00163742 1.71208e-20)
(0.00502048 -0.00149732 1.17374e-20)
(0.0048953 -0.00137369 1.57528e-20)
(0.00479492 -0.00126354 -8.13541e-22)
(0.00471375 -0.00116405 -8.44568e-22)
(0.00464746 -0.00107271 -1.31598e-20)
(0.00459635 -0.000988988 1.14727e-20)
(0.00455757 -0.000910522 6.66875e-22)
(0.00452809 -0.000835264 9.21792e-21)
(0.00450666 -0.000761734 -8.06104e-21)
(0.00450019 -0.000691256 0)
(0.00450456 -0.000619768 0)
(0.00452503 -0.000547346 0)
(0.00456155 -0.000469444 -1.96428e-21)
(0.00462522 -0.000383855 3.43194e-23)
(0.00472131 -0.000281983 1.59775e-22)
(0.00484821 -0.000152375 -1.7272e-22)
(0.00500728 1.86296e-05 3.87497e-22)
(0.00519105 0.000243096 -7.44671e-21)
(0.00537572 0.000521983 5.91859e-22)
(0.00554065 0.00084457 -4.84127e-23)
(0.00567317 0.00118552 -1.1302e-20)
(0.00576223 0.00151768 1.32828e-20)
(0.00581728 0.00181357 -1.42508e-20)
(0.00584329 0.00205736 1.51135e-20)
(0.00586139 0.00224953 -1.43834e-20)
(0.00589665 0.00240138 -1.58506e-20)
(0.00596031 0.00253249 1.70419e-20)
(0.00606364 0.00266544 1.68089e-20)
(0.00620989 0.00281728 0)
(0.00639351 0.00299466 -1.58698e-20)
(0.00660297 0.00319213 1.69942e-20)
(0.00682331 0.00339467 -4.85648e-22)
(0.0070422 0.00358618 2.046e-21)
(0.00725321 0.00373886 0)
(0.00746023 0.00383088 -2.73135e-20)
(0.00767036 0.00385716 -2.59373e-20)
(0.00788553 0.00381286 -1.04867e-20)
(0.00812204 0.00370182 -8.58332e-21)
(0.00840269 0.00352068 -9.29738e-21)
(0.00873264 0.00326105 1.41005e-20)
(0.00908219 0.0029318 -3.7059e-22)
(0.00945823 0.00245621 3.70748e-21)
(0.00980093 0.00186574 -1.3646e-22)
(0.0100859 0.00115008 -2.93733e-22)
(0.0102258 0.000335403 -1.26316e-22)
(0.0101798 -0.000497023 -1.1282e-21)
(0.00994767 -0.00126669 -2.37383e-22)
(0.00950259 -0.00190659 2.35745e-22)
(0.00894897 -0.00235061 0)
(0.00835088 -0.00260281 1.20928e-20)
(0.00778514 -0.00269732 4.05667e-22)
(0.00724973 -0.00266863 -1.27157e-21)
(0.00677599 -0.00255886 -1.41338e-20)
(0.00637121 -0.00240673 1.5546e-20)
(0.00602417 -0.00223419 1.45681e-20)
(0.00572965 -0.00205942 3.09535e-20)
(0.00548745 -0.00189406 3.10998e-20)
(0.00529114 -0.00174329 1.41177e-20)
(0.00513263 -0.00160778 1.91608e-21)
(0.00500459 -0.00148623 1.4404e-20)
(0.00490078 -0.00137639 -2.88549e-20)
(0.00481737 -0.00127651 3.37224e-21)
(0.00475076 -0.00118463 9.32422e-21)
(0.0046975 -0.0010985 0)
(0.00465532 -0.00101638 0)
(0.00462167 -0.000936076 -6.77285e-22)
(0.00460206 -0.000859149 -2.0872e-21)
(0.00459374 -0.000782774 -5.28897e-21)
(0.00459212 -0.000703357 -1.36802e-21)
(0.00460968 -0.000623683 3.78466e-22)
(0.00464044 -0.000537367 1.1057e-21)
(0.00469546 -0.000444179 -6.43909e-22)
(0.00478057 -0.000338693 -6.06685e-23)
(0.00489745 -0.000211213 0)
(0.00505039 -4.43143e-05 -1.25082e-21)
(0.00523608 0.00017528 1.24511e-21)
(0.00543307 0.000453174 -3.68535e-21)
(0.00561788 0.000782783 0)
(0.0057743 0.00114322 0)
(0.00589128 0.0015049 0)
(0.00596602 0.00183873 0)
(0.00600828 0.00212613 -2.92441e-20)
(0.00604256 0.00235974 -6.29565e-21)
(0.00608288 0.0025484 -3.41053e-21)
(0.0061529 0.00271379 3.48215e-21)
(0.0062763 0.00288324 1.96559e-20)
(0.00647735 0.00308123 -6.16566e-21)
(0.00677611 0.00331613 -1.41649e-20)
(0.00719622 0.00357063 -2.51326e-22)
(0.00779091 0.00377701 9.26325e-21)
(0.00860915 0.00386176 -2.08813e-21)
(0.00954556 0.00371235 4.67075e-22)
(0.00996125 0.00342631 7.51752e-21)
(0.0102099 0.00306613 -5.88062e-21)
(0.0104328 0.0026041 0)
(0.0105102 0.00206721 0)
(0.0104073 0.00148594 -6.40468e-22)
(0.0101101 0.000923851 -4.61516e-22)
(0.0096875 0.000496781 4.30729e-22)
(0.00932623 0.000261394 -6.83067e-24)
(0.00910295 0.00013951 4.69875e-22)
(0.00896846 7.73554e-05 -4.63121e-22)
(0.00887659 4.89257e-05 -2.14293e-23)
(0.00880501 3.93332e-05 -4.67261e-22)
(0.00874035 3.92808e-05 2.49954e-24)
(0.00867372 4.369e-05 2.43325e-22)
(0.00860052 4.9656e-05 2.13136e-22)
(0.00851934 5.52392e-05 2.39319e-22)
(0.00843088 5.97e-05 -2.38779e-22)
(0.00833657 6.28441e-05 8.28834e-24)
(0.00823782 6.48354e-05 -2.77164e-22)
(0.00813583 6.62296e-05 2.86207e-22)
(0.00803093 6.7728e-05 9.23927e-24)
(0.00792243 6.99567e-05 2.94016e-22)
(0.00780921 7.34648e-05 -3.54809e-22)
(0.00768931 7.89101e-05 3.62814e-22)
(0.00755926 8.71516e-05 -3.97989e-22)
(0.00741681 9.93036e-05 1.67976e-22)
(0.00725409 0.000117464 -2.18555e-22)
(0.00706275 0.000145319 1.44067e-23)
(0.00682902 0.000188626 -4.59799e-23)
(0.00652539 0.000257294 -2.81269e-22)
(0.00611515 0.000368943 3.00821e-22)
(0.00553358 0.000554949 -6.17016e-23)
(0.00468249 0.000871592 -2.33803e-23)
(0.00340835 0.00139046 8.16976e-23)
(0.00165634 0.00206869 0)
(0.000265994 0.00195882 -1.10159e-22)
(-0.000112232 -0.00116728 0)
(-0.000278296 -0.00170955 1.20552e-22)
(4.37162e-05 -0.00166176 -6.06865e-23)
(0.000540446 -0.00145614 -5.96889e-23)
(0.00107812 -0.0012241 1.23357e-22)
(0.00159956 -0.00101152 -2.37204e-22)
(0.00207909 -0.000833007 2.3503e-22)
(0.00250723 -0.00068756 -5.78329e-23)
(0.00288303 -0.000569488 -5.60925e-23)
(0.00320944 -0.000472448 -1.59968e-22)
(0.00349058 -0.000391123 -5.39651e-23)
(0.00373022 -0.000322197 -1.57181e-22)
(0.00393215 -0.000262687 4.27681e-22)
(0.00409931 -0.000209894 -9.66702e-22)
(0.00423459 -0.000162226 3.7788e-22)
(0.00434033 -0.000118524 -5.23014e-22)
(0.00441851 -7.77963e-05 2.86727e-22)
(0.00447067 -3.94134e-05 -1.86171e-22)
(0.0044981 -2.80511e-06 -1.16186e-21)
(0.00450199 3.24177e-05 1.02095e-21)
(0.00448349 6.65844e-05 -7.63804e-23)
(0.00444358 9.98909e-05 -2.42992e-22)
(0.00438312 0.00013235 1.46892e-21)
(0.00430318 0.000163921 -1.56175e-21)
(0.00420489 0.000194514 -1.73323e-21)
(0.0040897 0.000224008 1.39388e-21)
(0.00395939 0.000252277 2.05819e-21)
(0.00381612 0.000279232 -1.92068e-21)
(0.00366241 0.000304831 0)
(0.00350516 0.000328715 0)
(0.00335489 0.000352931 0)
(0.00315432 0.000384912 0)
(0.00286511 0.000401359 -1.33599e-20)
(0.00250899 0.000360949 -1.83618e-20)
(0.00214104 0.000222188 1.94467e-20)
(0.00180125 -4.47579e-05 -3.7142e-21)
(0.00153451 -0.000441355 2.3239e-20)
(0.00130084 -0.000951554 -4.94945e-21)
(0.0010901 -0.00150498 -2.00411e-20)
(0.000948096 -0.00201747 4.17397e-21)
(0.000887258 -0.00244262 -4.27052e-20)
(0.000887579 -0.00276078 0)
(0.000945018 -0.00296197 2.09277e-20)
(0.00105941 -0.003046 2.07693e-20)
(0.00121725 -0.00302046 -2.61886e-21)
(0.00141369 -0.00289683 -1.63314e-20)
(0.00164156 -0.00269066 3.77913e-20)
(0.00189003 -0.00242208 1.62536e-20)
(0.00214849 -0.0021131 2.95586e-21)
(0.00240824 -0.00178672 -1.46985e-22)
(0.00266544 -0.00146486 -5.70241e-21)
(0.0029264 -0.00116508 3.71387e-21)
(0.00318857 -0.000908779 1.32188e-21)
(0.00347138 -0.000708155 -2.0027e-22)
(0.00378686 -0.000577325 -1.10935e-20)
(0.00416543 -0.000525947 4.07999e-21)
(0.00462416 -0.000567196 4.0569e-21)
(0.00519696 -0.000709673 -2.01801e-21)
(0.00590045 -0.000958247 -2.13314e-22)
(0.00671 -0.00131496 0)
(0.00756036 -0.0017696 1.74894e-22)
(0.00829653 -0.00229552 -1.68616e-22)
(0.00885277 -0.00281398 -8.21176e-22)
(0.00914142 -0.00326592 -5.91283e-21)
(0.00912019 -0.00357776 6.87253e-21)
(0.00889591 -0.00372703 -8.28512e-21)
(0.0085045 -0.00372879 0)
(0.00804547 -0.00360906 0)
(0.00756954 -0.00341727 -2.38404e-20)
(0.00712489 -0.00318435 2.48428e-20)
(0.00672641 -0.00294029 0)
(0.00638504 -0.00270357 -1.17464e-20)
(0.00610083 -0.00248448 -9.04609e-22)
(0.00586904 -0.00228545 1.0644e-20)
(0.00568146 -0.00210555 -1.34235e-20)
(0.00552998 -0.00194224 -1.07589e-20)
(0.00540709 -0.00179246 2.31641e-20)
(0.00531069 -0.00165489 -6.78682e-22)
(0.00523651 -0.00152621 -5.73761e-22)
(0.00518018 -0.00140351 -1.65019e-20)
(0.00513907 -0.00128466 1.48529e-20)
(0.00511956 -0.00117004 1.7675e-22)
(0.00511764 -0.00105465 -4.27781e-23)
(0.00513853 -0.000937553 -1.30861e-22)
(0.00518184 -0.000812785 1.91235e-21)
(0.00525711 -0.000676468 0)
(0.00536701 -0.000517463 3.70223e-22)
(0.00550552 -0.000322323 1.315e-23)
(0.00566645 -7.62715e-05 8.47155e-22)
(0.0058348 0.000230298 6.51926e-21)
(0.00598685 0.00059394 4.64733e-22)
(0.00610559 0.000997198 1.91979e-20)
(0.00618763 0.00141011 1.11998e-20)
(0.00623344 0.00180165 -2.39852e-20)
(0.00626129 0.0021442 -2.4456e-23)
(0.00628654 0.0024253 1.41126e-20)
(0.00633124 0.00264787 2.86441e-20)
(0.00641585 0.00282787 1.52534e-20)
(0.00654576 0.00298994 0)
(0.00672126 0.00315837 -1.46669e-20)
(0.0069339 0.00334903 0)
(0.00716876 0.00356483 1.56782e-20)
(0.00740937 0.00379539 -2.25905e-22)
(0.00764129 0.00402082 -1.33467e-20)
(0.00785721 0.0042163 1.43665e-20)
(0.00805725 0.0043494 0)
(0.00824909 0.00440308 2.39735e-20)
(0.00844558 0.00438734 1.16666e-20)
(0.00865638 0.00430175 1.36391e-21)
(0.00889369 0.0041182 9.16425e-21)
(0.0091616 0.00384287 0)
(0.00946409 0.00347675 -6.13157e-21)
(0.00977787 0.0030216 0)
(0.0101067 0.00245655 2.34266e-21)
(0.0104089 0.00179585 -1.02373e-22)
(0.0106736 0.00103968 0)
(0.0108677 0.000209615 0)
(0.0109749 -0.000643345 1.11677e-21)
(0.0109748 -0.00147449 0)
(0.0108449 -0.00224544 -2.37389e-22)
(0.0105858 -0.00288496 5.12964e-22)
(0.0101952 -0.0033602 -2.7576e-22)
(0.00972515 -0.00365963 0)
(0.00920191 -0.00379231 0)
(0.0086682 -0.00378123 -1.2507e-20)
(0.00815211 -0.00366968 1.40089e-20)
(0.00766806 -0.00348914 -2.78739e-20)
(0.00722634 -0.00327348 -1.4436e-20)
(0.00683892 -0.00304731 -1.97355e-21)
(0.00650827 -0.00282695 -1.26694e-20)
(0.00623197 -0.00262035 1.72603e-21)
(0.00600451 -0.00243035 -1.4189e-20)
(0.00581868 -0.00225642 -2.44543e-21)
(0.00566849 -0.00209701 6.66413e-23)
(0.0055484 -0.00194995 -2.15057e-21)
(0.00545278 -0.00181219 2.92053e-21)
(0.00537772 -0.00168129 -1.01118e-20)
(0.00531896 -0.00155439 -1.88469e-20)
(0.00528104 -0.00143203 0)
(0.00526188 -0.00131074 7.27096e-21)
(0.00525619 -0.00118628 6.6651e-21)
(0.00527619 -0.0010599 -1.218e-21)
(0.00531653 -0.000923874 -2.34558e-21)
(0.00538693 -0.000775191 -4.93192e-22)
(0.00549117 -0.00060462 4.97438e-23)
(0.00562563 -0.00039912 -8.00854e-23)
(0.00578686 -0.000143494 -2.13185e-22)
(0.00596357 0.000174781 4.00088e-21)
(0.00613229 0.000556294 3.63215e-21)
(0.00627295 0.000986196 1.05748e-20)
(0.00637726 0.00143528 -4.82967e-21)
(0.00644651 0.0018691 2.5624e-21)
(0.00649181 0.00225834 1.11077e-20)
(0.00653256 0.00258653 2.41413e-20)
(0.0065969 0.00285267 1.29157e-20)
(0.00670343 0.00307431 0)
(0.00687364 0.00327821 1.21382e-20)
(0.00712616 0.00349075 -3.50267e-20)
(0.00747823 0.0037265 -1.66754e-21)
(0.00794048 0.00397483 0)
(0.00851293 0.00418691 -9.54151e-21)
(0.00918853 0.00427676 0)
(0.00989466 0.00419525 0)
(0.0105495 0.00390277 -4.27191e-21)
(0.0108379 0.00353847 -7.16108e-21)
(0.0110157 0.00314549 0)
(0.0111704 0.00268636 0)
(0.0111885 0.00216809 1.51666e-21)
(0.0111017 0.00162507 -1.20337e-21)
(0.0108889 0.00111005 6.93725e-23)
(0.0105846 0.000699063 5.84771e-23)
(0.0102907 0.000436826 4.85665e-22)
(0.0100592 0.000277849 -1.43698e-23)
(0.00988312 0.00018385 2.91713e-23)
(0.00974346 0.000134714 4.30394e-23)
(0.00962394 0.000115316 4.59759e-22)
(0.00951252 0.00011398 3.2582e-23)
(0.00940025 0.000122324 -4.78041e-22)
(0.0092823 0.000134553 1.47632e-23)
(0.00915503 0.000146946 -2.4737e-22)
(0.00901894 0.00015746 2.63309e-22)
(0.00887608 0.000165497 -1.61986e-23)
(0.00872699 0.000171451 0)
(0.00857251 0.000176361 -1.77274e-23)
(0.00841256 0.000181598 -3.76887e-23)
(0.00824647 0.000188494 3.45835e-22)
(0.00807222 0.00019826 -3.05644e-22)
(0.00788731 0.000212246 3.66048e-22)
(0.00768836 0.00023207 -7.3191e-22)
(0.00747157 0.000260418 6.21373e-22)
(0.00722857 0.000301743 -2.07386e-22)
(0.006951 0.000363453 -8.56598e-23)
(0.00662317 0.000458654 3.0797e-23)
(0.00621693 0.000609067 0)
(0.0056886 0.000851128 -1.09413e-22)
(0.00496881 0.00124275 4.12061e-23)
(0.00396909 0.00185615 0)
(0.0026162 0.00270056 -5.3743e-23)
(0.00100245 0.00342372 1.13871e-22)
(-4.84282e-06 0.00251394 1.88946e-22)
(-0.000100142 -0.000883634 1.09759e-22)
(-0.000400838 -0.00165174 0)
(-0.000409832 -0.00184243 0)
(-0.000238531 -0.00178255 1.14855e-22)
(4.64741e-05 -0.0016109 -1.14156e-22)
(0.000381564 -0.0014116 -2.28643e-22)
(0.000728202 -0.00122045 2.27288e-22)
(0.00106472 -0.00104934 -1.0734e-22)
(0.00137946 -0.000899822 0)
(0.00166669 -0.000769601 1.08352e-22)
(0.00192405 -0.00065543 0)
(0.00215083 -0.000554509 3.93717e-24)
(0.00234721 -0.000464238 0)
(0.00251389 -0.000382267 1.0924e-22)
(0.00265191 -0.000306879 0)
(0.00276236 -0.000236732 0)
(0.00284627 -0.000170723 1.21088e-22)
(0.0029046 -0.000108066 6.46583e-22)
(0.00293826 -4.80452e-05 -1.62244e-21)
(0.00294818 9.79707e-06 1.10226e-21)
(0.00293516 6.57988e-05 0)
(0.00290037 0.000120021 -1.20305e-21)
(0.00284496 0.000172523 1.36497e-21)
(0.00277008 0.000223092 1.89137e-22)
(0.00267733 0.000271371 0)
(0.00256874 0.000316845 1.90509e-21)
(0.00244691 0.000358833 -1.89499e-21)
(0.00231511 0.000396447 0)
(0.00217726 0.00042836 -2.45629e-21)
(0.00204243 0.00045274 2.45421e-21)
(0.00192442 0.000467955 -2.91674e-21)
(0.00176587 0.000467329 5.91298e-21)
(0.00153273 0.000430591 1.02505e-20)
(0.00126014 0.000324686 3.91269e-21)
(0.00100763 0.000116357 -6.95779e-22)
(0.000806288 -0.000218402 7.83578e-22)
(0.000680481 -0.00067563 1.30324e-20)
(0.00058359 -0.00122758 -1.22825e-22)
(0.000510837 -0.00179545 -4.04167e-21)
(0.000496615 -0.00231265 8.95874e-21)
(0.000538862 -0.00274707 -3.94857e-21)
(0.00062193 -0.00307806 5.13162e-21)
(0.000747009 -0.00329338 -4.08434e-20)
(0.000912904 -0.00339201 -1.58601e-20)
(0.00111125 -0.00338008 -4.99769e-21)
(0.00133446 -0.00326826 0)
(0.00157379 -0.00307202 -1.50647e-21)
(0.00181755 -0.00281172 -3.57452e-20)
(0.00205682 -0.00251002 -1.56784e-20)
(0.00228499 -0.00219099 -2.05363e-21)
(0.00250014 -0.00187772 -2.94592e-20)
(0.00270833 -0.00158947 0)
(0.00290784 -0.00134698 1.42072e-20)
(0.0031156 -0.00116259 -1.82038e-22)
(0.00333941 -0.00104858 -1.99538e-22)
(0.00360309 -0.00101024 -4.99714e-21)
(0.00392119 -0.00105438 -2.4456e-21)
(0.00432843 -0.00117861 2.97335e-21)
(0.00486171 -0.00138032 -5.23185e-22)
(0.00554265 -0.00166008 -1.40796e-22)
(0.00636635 -0.00201421 4.82622e-22)
(0.00728277 -0.00244609 -6.76422e-23)
(0.00817463 -0.00293051 -4.19375e-21)
(0.0089105 -0.00342239 5.84969e-21)
(0.00941752 -0.00385314 -1.15348e-20)
(0.00969006 -0.00417958 -3.99033e-22)
(0.00966018 -0.00436552 8.9495e-21)
(0.00944252 -0.00439621 1.2532e-21)
(0.00906492 -0.00431231 1.10892e-20)
(0.0086226 -0.00413682 -1.42642e-20)
(0.00815929 -0.00390621 -9.45723e-21)
(0.00771914 -0.00364953 0)
(0.00732249 -0.00338998 -1.21219e-20)
(0.00698063 -0.00313971 -1.05666e-20)
(0.00669378 -0.00290487 -1.43889e-21)
(0.00645731 -0.00268692 2.20357e-20)
(0.00626369 -0.00248461 -1.20696e-20)
(0.00610914 -0.00229725 1.27346e-21)
(0.00598781 -0.0021215 -8.87113e-21)
(0.00589382 -0.00195394 8.36898e-21)
(0.00582315 -0.00179196 -7.30609e-21)
(0.00578054 -0.00163489 5.85588e-21)
(0.00576113 -0.00147706 -4.60869e-21)
(0.00576909 -0.00131632 0)
(0.00580278 -0.00114538 -3.23501e-23)
(0.00586875 -0.00095848 6.87714e-23)
(0.0059656 -0.000742665 -4.04277e-22)
(0.00608251 -0.00048376 0)
(0.00620762 -0.000168925 -1.53659e-21)
(0.00632342 0.000206544 -3.27856e-21)
(0.00641122 0.000632715 9.51041e-22)
(0.00646263 0.00108608 -1.03829e-20)
(0.00648534 0.00153401 -9.24198e-21)
(0.00649089 0.00194522 1.15962e-20)
(0.00650404 0.00229568 7.96052e-22)
(0.00654362 0.00257775 -1.2432e-20)
(0.00662645 0.00279898 -1.37955e-20)
(0.00676239 0.00297981 -8.48863e-22)
(0.00694531 0.00314682 -1.32264e-20)
(0.00716278 0.00332312 2.78292e-20)
(0.00739678 0.00352118 0)
(0.00762824 0.00373963 0)
(0.00784254 0.00396426 0)
(0.00803207 0.00417259 1.31327e-20)
(0.00819816 0.00433915 7.61935e-22)
(0.00834979 0.00444352 -3.71449e-22)
(0.0084965 0.00444989 -1.30053e-21)
(0.00865278 0.00438082 9.00352e-21)
(0.00882968 0.00421801 9.12116e-21)
(0.00903253 0.00396798 0)
(0.00925738 0.00363333 0)
(0.00950409 0.00321738 0)
(0.00975102 0.00272497 0)
(0.010001 0.00215066 -1.27848e-21)
(0.0102292 0.00150534 -3.51409e-22)
(0.0104343 0.000796714 0)
(0.0106127 3.97496e-05 5.48883e-23)
(0.0107629 -0.000740584 0)
(0.0108815 -0.00152037 0)
(0.0109458 -0.00228323 0)
(0.0109525 -0.00298154 0)
(0.0108865 -0.00357929 2.694e-22)
(0.0107237 -0.00404129 -8.42608e-21)
(0.0104529 -0.00435871 -2.97451e-22)
(0.0100887 -0.00450095 1.14313e-20)
(0.00965856 -0.00451686 -1.27947e-20)
(0.0091904 -0.00441724 1.32913e-20)
(0.0087099 -0.00423906 0)
(0.00824699 -0.00401381 -1.31353e-20)
(0.00781978 -0.00376887 1.16266e-20)
(0.00744056 -0.00352228 -9.08709e-21)
(0.00711436 -0.00328475 1.20805e-20)
(0.00684008 -0.00306085 -7.44653e-22)
(0.00661398 -0.00285152 -1.43916e-21)
(0.00643086 -0.00265612 7.28836e-22)
(0.00628391 -0.00247184 7.64171e-21)
(0.00616787 -0.00229607 3.12347e-21)
(0.00607692 -0.00212561 8.99834e-21)
(0.00601355 -0.00195997 1.77197e-21)
(0.00597517 -0.00179514 -7.9734e-21)
(0.0059557 -0.00162634 -1.03295e-20)
(0.00596548 -0.00145305 -4.36485e-21)
(0.00599851 -0.00126673 7.54607e-22)
(0.00606131 -0.00106188 3.40814e-22)
(0.0061541 -0.000827151 3.68229e-22)
(0.00626853 -0.000548443 -2.98857e-22)
(0.0063953 -0.000211776 -1.93274e-23)
(0.00651916 0.000189806 -5.41519e-21)
(0.00662073 0.00064817 0)
(0.0066895 0.00114008 -1.03869e-20)
(0.00672929 0.00163124 -6.67937e-21)
(0.00675453 0.00208674 0)
(0.00678683 0.00248131 -8.34156e-21)
(0.00685013 0.0028048 -1.4368e-20)
(0.00696998 0.00306412 8.13642e-21)
(0.00716014 0.00328164 -8.17883e-21)
(0.00743183 0.00348304 -1.4844e-20)
(0.00779065 0.00368655 1.45349e-20)
(0.00823704 0.0038921 1.11897e-20)
(0.00876136 0.00407518 -1.12727e-20)
(0.00933488 0.00419152 1.1692e-20)
(0.0099079 0.00414818 -6.84807e-21)
(0.010378 0.00394056 -1.43616e-21)
(0.0107465 0.00360573 7.14827e-21)
(0.0108969 0.00326402 0)
(0.0109885 0.00291434 -4.00804e-21)
(0.0110451 0.00251258 -8.1984e-22)
(0.0110265 0.00206928 -1.39609e-21)
(0.0109269 0.00161798 1.36069e-21)
(0.0107628 0.00119732 -5.49935e-22)
(0.010554 0.000845303 5.46275e-22)
(0.0103259 0.000592443 0)
(0.0101096 0.000421552 3.02641e-23)
(0.00991544 0.000311794 4.38553e-22)
(0.00974081 0.000250025 -4.97727e-22)
(0.00957976 0.000223919 -4.63372e-22)
(0.00942563 0.000221563 4.05877e-22)
(0.00927214 0.000233015 -2.36703e-22)
(0.00911482 0.000250826 2.36841e-22)
(0.00895104 0.000269773 0)
(0.00877979 0.000286602 -2.9011e-22)
(0.00860105 0.000300321 2.58739e-22)
(0.00841498 0.000311588 -3.16726e-22)
(0.0082216 0.000321926 2.8267e-22)
(0.00802023 0.000333289 3.7976e-23)
(0.00780954 0.000347681 -4.0252e-23)
(0.00758736 0.000367012 0)
(0.00735085 0.000393235 0)
(0.00709642 0.000428795 -4.7824e-23)
(0.00681963 0.000477795 0)
(0.00651405 0.000546881 0)
(0.00617057 0.000647425 1.1518e-22)
(0.00577423 0.000799882 0)
(0.00530019 0.00103854 0)
(0.00470831 0.00141799 2.95077e-22)
(0.00394135 0.00201237 -1.51201e-22)
(0.00294374 0.00287625 0)
(0.00172366 0.00389289 0)
(0.000471982 0.00440418 -1.1299e-23)
(-7.77004e-05 0.00272321 -1.19907e-22)
(-7.44989e-05 -0.000648913 -2.92338e-23)
(-0.000378632 -0.00146034 1.41647e-22)
(-0.000539163 -0.00181739 1.12158e-22)
(-0.00056417 -0.0018849 -2.25709e-22)
(-0.000480028 -0.00180386 4.38793e-22)
(-0.000318094 -0.00165445 -2.19329e-22)
(-0.000116242 -0.00148489 0)
(0.000102558 -0.00131716 1.09175e-22)
(0.000322998 -0.00115978 0)
(0.000535259 -0.00101498 5.16904e-22)
(0.000733173 -0.000882302 -4.13545e-22)
(0.000912891 -0.000760516 1.05688e-22)
(0.00107207 -0.000648091 4.23977e-22)
(0.0012094 -0.000543482 -3.17523e-22)
(0.0013243 -0.000445356 1.07905e-22)
(0.00141659 -0.000352585 0)
(0.00148635 -0.000264216 1.17227e-22)
(0.00153384 -0.000179507 -3.95693e-22)
(0.00155944 -9.78566e-05 1.62432e-21)
(0.00156371 -1.88866e-05 -1.10426e-21)
(0.0015473 5.75779e-05 -1.12273e-21)