/*--------------------------------*- C++ -*----------------------------------*\
| =========                 |                                                 |
| \\      /  F ield         | OpenFOAM: The Open Source CFD Toolbox           |
|  \\    /   O peration     | Version:  2506                                  |
|   \\  /    A nd           | Website:  www.openfoam.com                      |
|    \\/     M anipulation  |                                                 |
\*---------------------------------------------------------------------------*/
FoamFile
{
    version     2.0;
    format      ascii;
    arch        "LSB;label=32;scalar=64";
    class       surfaceScalarField;
    location    "4";
    object      phi;
}
// * * * * * * * * * * * * * * * * * * * * * * * * * * * * * * * * * * * * * //

dimensions      [0 3 -1 0 0 0 0];

oriented        oriented;

internalField   nonuniform List<scalar> 
7780
(
2.08043e-09
4.19569e-10
1.64631e-09
4.34123e-10
1.34821e-09
2.981e-10
1.16329e-09
1.84918e-10
1.05218e-09
1.11106e-10
9.83118e-10
6.90649e-11
9.37111e-10
4.60059e-11
9.04118e-10
3.29926e-11
8.78831e-10
2.52866e-11
8.58406e-10
2.04247e-11
8.41292e-10
1.71143e-11
8.26588e-10
1.47033e-11
8.13716e-10
1.28717e-11
8.02263e-10
1.14534e-11
7.91909e-10
1.03532e-11
7.82395e-10
9.51388e-12
7.73494e-10
8.90103e-12
7.65001e-10
8.49248e-12
7.56724e-10
8.27739e-12
7.48477e-10
8.24679e-12
7.40082e-10
8.3944e-12
7.31363e-10
8.71939e-12
7.22137e-10
9.22564e-12
7.12214e-10
9.92281e-12
7.01386e-10
1.08275e-11
6.89418e-10
1.19677e-11
6.76029e-10
1.3389e-11
6.60875e-10
1.51536e-11
6.4351e-10
1.73644e-11
6.23323e-10
2.01869e-11
5.99414e-10
2.39087e-11
5.70328e-10
2.90863e-11
5.33716e-10
3.66134e-11
4.79622e-10
5.40963e-11
4.30857e-10
4.87661e-11
4.10013e-10
2.08434e-11
4.05073e-10
4.9373e-12
4.06512e-10
-1.44118e-12
4.15816e-10
-9.29646e-12
4.37082e-10
-2.12415e-11
4.82988e-10
-4.58642e-11
5.38294e-10
-5.52655e-11
5.90004e-10
-5.16927e-11
6.3942e-10
-4.94295e-11
6.84262e-10
-4.4884e-11
7.25971e-10
-4.17665e-11
7.66409e-10
-4.04951e-11
8.00344e-10
-3.39765e-11
8.32967e-10
-3.26416e-11
8.61898e-10
-2.89284e-11
8.85443e-10
-2.35265e-11
9.07572e-10
-2.21041e-11
9.20629e-10
-1.30365e-11
9.3233e-10
-1.16888e-11
9.33383e-10
-1.04865e-12
9.29752e-10
3.63089e-12
9.17574e-10
1.21743e-11
8.95259e-10
2.23135e-11
8.71933e-10
2.33255e-11
8.33393e-10
3.85424e-11
7.9673e-10
3.66642e-11
7.54748e-10
4.19797e-11
7.11517e-10
4.3221e-11
6.71202e-10
4.02948e-11
6.2912e-10
4.20562e-11
5.93354e-10
3.57495e-11
5.57413e-10
3.59484e-11
5.27313e-10
3.0145e-11
4.98593e-10
2.87995e-11
4.7367e-10
2.50187e-11
4.51862e-10
2.18924e-11
4.307e-10
2.12064e-11
4.12695e-10
1.79912e-11
3.95738e-10
1.68869e-11
3.79766e-10
1.58611e-11
3.65521e-10
1.41215e-11
3.52268e-10
1.31461e-11
3.3982e-10
1.23801e-11
3.28742e-10
1.10589e-11
3.18841e-10
9.92708e-12
3.09966e-10
8.93055e-12
3.02253e-10
7.78254e-12
2.956e-10
6.72009e-12
2.89879e-10
5.77417e-12
2.851e-10
4.81527e-12
2.80851e-10
4.27078e-12
2.76941e-10
3.91908e-12
2.73645e-10
3.29689e-12
2.70332e-10
3.30993e-12
2.66816e-10
3.51204e-12
2.63674e-10
3.13692e-12
2.60217e-10
3.45265e-12
2.56486e-10
3.72727e-12
2.5311e-10
3.37329e-12
2.49166e-10
3.94174e-12
2.45941e-10
3.22453e-12
2.42301e-10
3.6394e-12
2.39562e-10
2.73894e-12
2.36626e-10
2.93568e-12
2.35053e-10
1.57308e-12
2.33564e-10
1.48926e-12
2.33367e-10
1.97085e-13
2.33947e-10
-5.80343e-13
2.35252e-10
-1.30552e-12
2.38203e-10
-2.95301e-12
2.41899e-10
-3.69875e-12
2.47458e-10
-5.56407e-12
2.54112e-10
-6.66054e-12
2.62455e-10
-8.35289e-12
2.72303e-10
-9.86176e-12
2.83853e-10
-1.15689e-11
2.96959e-10
-1.31315e-11
3.12058e-10
-1.51312e-11
3.28204e-10
-1.61868e-11
3.46789e-10
-1.86341e-11
3.6626e-10
-1.9527e-11
3.86985e-10
-2.07848e-11
4.08946e-10
-2.20158e-11
4.31336e-10
-2.24263e-11
4.5406e-10
-2.27252e-11
4.77084e-10
-2.29713e-11
4.99413e-10
-2.2203e-11
5.20837e-10
-2.12146e-11
5.41734e-10
-2.06069e-11
5.61373e-10
-1.9288e-11
5.7984e-10
-1.80938e-11
5.97137e-10
-1.69523e-11
6.13082e-10
-1.56872e-11
6.28188e-10
-1.49898e-11
6.43194e-10
-1.50707e-11
6.56526e-10
-1.35894e-11
6.69888e-10
-1.37889e-11
6.84682e-10
-1.5339e-11
6.98038e-10
-1.39361e-11
7.12507e-10
-1.49998e-11
7.30147e-10
-1.80416e-11
7.44903e-10
-1.49777e-11
7.63671e-10
-1.87962e-11
7.81208e-10
-1.73957e-11
7.99577e-10
-1.8114e-11
8.17116e-10
-1.72393e-11
8.32514e-10
-1.51183e-11
8.44206e-10
-1.14799e-11
8.52896e-10
-8.56249e-12
8.51626e-10
1.31869e-12
8.49609e-10
2.01187e-12
8.31657e-10
1.79206e-11
8.10975e-10
2.06486e-11
7.82037e-10
2.89146e-11
7.4593e-10
3.60953e-11
7.10032e-10
3.58956e-11
6.65725e-10
4.4311e-11
6.2596e-10
3.97708e-11
5.8104e-10
4.4925e-11
5.40955e-10
4.00878e-11
4.9687e-10
4.40826e-11
4.55718e-10
4.11445e-11
4.1176e-10
4.39481e-11
3.68621e-10
4.31298e-11
3.25588e-10
4.303e-11
3.22913e-10
2.67574e-12
3.2076e-10
2.15579e-12
3.19729e-10
1.0314e-12
3.2116e-10
-1.43117e-12
3.32369e-10
-1.1209e-11
3.5222e-10
-1.98503e-11
3.89611e-10
-3.73907e-11
4.29015e-10
-3.94044e-11
4.66053e-10
-3.70389e-11
5.0282e-10
-3.6768e-11
5.38949e-10
-3.61298e-11
5.73334e-10
-3.43852e-11
6.048e-10
-3.14662e-11
6.32424e-10
-2.76243e-11
6.55645e-10
-2.32215e-11
6.74272e-10
-1.86267e-11
6.88427e-10
-1.4155e-11
6.98486e-10
-1.00594e-11
7.0503e-10
-6.54434e-12
7.08796e-10
-3.76675e-12
7.10149e-10
-1.3541e-12
7.09902e-10
2.46046e-13
7.08649e-10
1.25267e-12
7.0695e-10
1.69833e-12
7.05272e-10
1.67736e-12
7.03981e-10
1.2906e-12
7.03337e-10
6.43255e-13
7.03496e-10
-1.5843e-13
7.04545e-10
-1.04919e-12
7.06343e-10
-1.79715e-12
7.0881e-10
-2.46659e-12
7.1179e-10
-2.98011e-12
7.15077e-10
-3.28677e-12
7.18446e-10
-3.36768e-12
7.21667e-10
-3.22054e-12
7.24504e-10
-2.83677e-12
7.267e-10
-2.19588e-12
7.27904e-10
-1.2035e-12
7.27482e-10
4.21417e-13
3.79572e-12
2.63641e-09
2.83163e-10
2.59001e-09
4.80515e-10
2.4448e-09
4.43314e-10
2.27958e-09
3.50137e-10
2.13157e-09
2.59114e-10
2.01303e-09
1.87604e-10
1.92043e-09
1.3861e-10
1.84666e-09
1.06758e-10
1.78632e-09
8.56301e-11
1.7358e-09
7.09384e-11
1.6927e-09
6.02124e-11
1.65537e-09
5.20368e-11
1.62262e-09
4.562e-11
1.59356e-09
4.05157e-11
1.56746e-09
3.64539e-11
1.54371e-09
3.32644e-11
1.52177e-09
3.08379e-11
1.50116e-09
2.90998e-11
1.48144e-09
2.8002e-11
1.46217e-09
2.75084e-11
1.44298e-09
2.75926e-11
1.42346e-09
2.82402e-11
1.40323e-09
2.94498e-11
1.38192e-09
3.12338e-11
1.35912e-09
3.36224e-11
1.33442e-09
3.66708e-11
1.30734e-09
4.04703e-11
1.27734e-09
4.51532e-11
1.24378e-09
5.09243e-11
1.20587e-09
5.80967e-11
1.16262e-09
6.71597e-11
1.11278e-09
7.89265e-11
1.05453e-09
9.48652e-11
9.83063e-10
1.2556e-10
9.18874e-10
1.12956e-10
8.86401e-10
5.33161e-11
8.79084e-10
1.22501e-11
8.91046e-10
-1.34176e-11
9.22558e-10
-4.08326e-11
9.77623e-10
-7.6331e-11
1.06474e-09
-1.32989e-10
1.16579e-09
-1.56292e-10
1.26724e-09
-1.53104e-10
1.36602e-09
-1.48158e-10
1.45815e-09
-1.36976e-10
1.54433e-09
-1.27934e-10
1.62577e-09
-1.21942e-10
1.6977e-09
-1.05937e-10
1.76467e-09
-9.96371e-11
1.82405e-09
-8.83347e-11
1.87484e-09
-7.4332e-11
1.91876e-09
-6.60304e-11
1.95048e-09
-4.47579e-11
1.97409e-09
-3.52939e-11
1.98276e-09
-9.7117e-12
1.97963e-09
6.76496e-12
1.96243e-09
2.93706e-11
1.92888e-09
5.5865e-11
1.88538e-09
6.68227e-11
1.82236e-09
1.01565e-10
1.7531e-09
1.05919e-10
1.67397e-09
1.21098e-10
1.58957e-09
1.27613e-10
1.5044e-09
1.25461e-10
1.41682e-09
1.29642e-10
1.33417e-09
1.18418e-10
1.25264e-09
1.17511e-10
1.17751e-09
1.0531e-10
1.10618e-09
1.00149e-10
1.0401e-09
9.10835e-11
9.7916e-10
8.27773e-11
9.21092e-10
7.91977e-11
8.67626e-10
7.13743e-11
8.17101e-10
6.73461e-11
7.69099e-10
6.38348e-11
7.24103e-10
5.9134e-11
6.81522e-10
5.57835e-11
6.41168e-10
5.28144e-11
6.03437e-10
4.88737e-11
5.68341e-10
4.5092e-11
5.35805e-10
4.15089e-11
5.05942e-10
3.76574e-11
4.78668e-10
3.39827e-11
4.53839e-10
3.0576e-11
4.31292e-10
2.73315e-11
4.10561e-10
2.49726e-11
3.91278e-10
2.31804e-11
3.7327e-10
2.12891e-11
3.56009e-10
2.05622e-11
3.39237e-10
2.02793e-11
3.22901e-10
1.94715e-11
3.06816e-10
1.95367e-11
2.91015e-10
1.95295e-11
2.75709e-10
1.86805e-11
2.61016e-10
1.86358e-11
2.47311e-10
1.69306e-11
2.34924e-10
1.60264e-11
2.24257e-10
1.34068e-11
2.15792e-10
1.14009e-11
2.09873e-10
7.49146e-12
2.0704e-10
4.32202e-12
2.07828e-10
-5.91015e-13
2.12009e-10
-4.7627e-12
2.20415e-10
-9.71128e-12
2.33198e-10
-1.57358e-11
2.50387e-10
-2.08871e-11
2.72341e-10
-2.75157e-11
2.98889e-10
-3.3205e-11
3.30152e-10
-3.96113e-11
3.65985e-10
-4.56876e-11
4.06282e-10
-5.18572e-11
4.5074e-10
-5.75788e-11
4.99282e-10
-6.36615e-11
5.50848e-10
-6.77427e-11
6.0596e-10
-7.37412e-11
6.6288e-10
-7.64518e-11
7.21315e-10
-7.92428e-11
7.80802e-10
-8.1553e-11
8.39822e-10
-8.153e-11
8.98161e-10
-8.11875e-11
9.55334e-10
-8.03015e-11
1.01021e-09
-7.72609e-11
1.06248e-09
-7.36561e-11
1.11222e-09
-7.04969e-11
1.15891e-09
-6.60549e-11
1.2027e-09
-6.18645e-11
1.24375e-09
-5.78688e-11
1.28223e-09
-5.39317e-11
1.3189e-09
-5.13285e-11
1.35444e-09
-5.0246e-11
1.38816e-09
-4.6959e-11
1.4217e-09
-4.70516e-11
1.45637e-09
-4.98457e-11
1.49007e-09
-4.76162e-11
1.52545e-09
-5.04865e-11
1.56322e-09
-5.60342e-11
1.59948e-09
-5.15133e-11
1.63857e-09
-5.81547e-11
1.67659e-09
-5.56302e-11
1.71395e-09
-5.56208e-11
1.74891e-09
-5.2254e-11
1.77889e-09
-4.50876e-11
1.80216e-09
-3.46902e-11
1.81712e-09
-2.34477e-11
1.8182e-09
3.07865e-13
1.81016e-09
1.00892e-11
1.78255e-09
4.55516e-11
1.7437e-09
5.94864e-11
1.69052e-09
8.20938e-11
1.6235e-09
1.031e-10
1.5496e-09
1.09797e-10
1.46342e-09
1.3048e-10
1.37624e-09
1.26952e-10
1.28207e-09
1.39099e-10
1.1899e-09
1.32251e-10
1.09279e-09
1.41199e-10
9.97325e-10
1.36607e-10
9.00583e-10
1.40694e-10
8.08217e-10
1.35503e-10
7.2216e-10
1.29094e-10
6.808e-10
4.40368e-11
6.52934e-10
3.00204e-11
6.35404e-10
1.85596e-11
6.30138e-10
3.83352e-12
6.43697e-10
-2.47676e-11
6.78233e-10
-5.43859e-11
7.38322e-10
-9.74799e-11
8.10047e-10
-1.11129e-10
8.85749e-10
-1.12742e-10
9.63308e-10
-1.14327e-10
1.03988e-09
-1.12699e-10
1.11249e-09
-1.06996e-10
1.17856e-09
-9.75428e-11
1.23622e-09
-8.52853e-11
1.28437e-09
-7.13686e-11
1.32266e-09
-5.6912e-11
1.35138e-09
-4.28825e-11
1.37137e-09
-3.00487e-11
1.38377e-09
-1.89425e-11
1.38985e-09
-9.85275e-12
1.39114e-09
-2.63589e-12
1.38928e-09
2.10003e-12
1.38547e-09
5.06612e-12
1.38089e-09
6.279e-12
1.37652e-09
6.04782e-12
1.37309e-09
4.71104e-12
1.37108e-09
2.65628e-12
1.37075e-09
1.77294e-13
1.37209e-09
-2.39274e-12
1.37496e-09
-4.66605e-12
1.37897e-09
-6.47967e-12
1.38367e-09
-7.67414e-12
1.38855e-09
-8.16398e-12
1.39311e-09
-7.92807e-12
1.39689e-09
-7.00429e-12
1.3995e-09
-5.44279e-12
1.40057e-09
-3.27223e-12
1.3998e-09
-4.27097e-13
1.39688e-09
3.34125e-12
8.86781e-12
2.61181e-09
1.71351e-10
2.71333e-09
3.78995e-10
2.73154e-09
4.25101e-10
2.68684e-09
3.94837e-10
2.61059e-09
3.35364e-10
2.52274e-09
2.7546e-10
2.43742e-09
2.23922e-10
2.36016e-09
1.84019e-10
2.29169e-09
1.54099e-10
2.23132e-09
1.31308e-10
2.17801e-09
1.13526e-10
2.13073e-09
9.93113e-11
2.08858e-09
8.77704e-11
2.05074e-09
7.83589e-11
2.01647e-09
7.07208e-11
1.98512e-09
6.46174e-11
1.95607e-09
5.98861e-11
1.92876e-09
5.64105e-11
1.90266e-09
5.41065e-11
1.87725e-09
5.29106e-11
1.85207e-09
5.27762e-11
1.82664e-09
5.36738e-11
1.80049e-09
5.55925e-11
1.77318e-09
5.85429e-11
1.74424e-09
6.25618e-11
1.71319e-09
6.77202e-11
1.67953e-09
7.41347e-11
1.6427e-09
8.19815e-11
1.6021e-09
9.15203e-11
1.55707e-09
1.03129e-10
1.50687e-09
1.17356e-10
1.45078e-09
1.35017e-10
1.38819e-09
1.57458e-10
1.31742e-09
1.96329e-10
1.25465e-09
1.75729e-10
1.22154e-09
8.64277e-11
1.21941e-09
1.43757e-11
1.2454e-09
-3.9414e-11
1.29874e-09
-9.41914e-11
1.37932e-09
-1.56938e-10
1.48758e-09
-2.41275e-10
1.60778e-09
-2.7649e-10
1.72988e-09
-2.75187e-10
1.84849e-09
-2.66726e-10
1.95946e-09
-2.47905e-10
2.06273e-09
-2.31166e-10
2.15871e-09
-2.17908e-10
2.24465e-09
-1.91886e-10
2.32311e-09
-1.78117e-10
2.39248e-09
-1.57736e-10
2.45187e-09
-1.33741e-10
2.5019e-09
-1.1607e-10
2.53981e-09
-8.26754e-11
2.56685e-09
-6.23311e-11
2.57969e-09
-2.25468e-11
2.57906e-09
7.39861e-12
2.56356e-09
4.4872e-11
2.53166e-09
8.77677e-11
2.48664e-09
1.1184e-10
2.42345e-09
1.64753e-10
2.34924e-09
1.8012e-10
2.26295e-09
2.07386e-10
2.16811e-09
2.2245e-10
2.06793e-09
2.25647e-10
1.96344e-09
2.34137e-10
1.85948e-09
2.224e-10
1.7554e-09
2.21614e-10
1.65504e-09
2.05684e-10
1.55778e-09
1.97412e-10
1.46475e-09
1.84074e-10
1.37654e-09
1.70926e-10
1.29176e-09
1.63918e-10
1.21147e-09
1.51608e-10
1.1347e-09
1.44083e-10
1.06106e-09
1.37486e-10
9.90781e-10
1.2946e-10
9.235e-10
1.23133e-10
8.59162e-10
1.17227e-10
7.98028e-10
1.1007e-10
7.40299e-10
1.02858e-10
6.86065e-10
9.57535e-11
6.35538e-10
8.81719e-11
5.88739e-10
8.07545e-11
5.45627e-10
7.36556e-11
5.06068e-10
6.68605e-11
4.69664e-10
6.13531e-11
4.35974e-10
5.68534e-11
4.04661e-10
5.25932e-11
3.75172e-10
5.0046e-11
3.47173e-10
4.8277e-11
3.20424e-10
4.62215e-11
2.94789e-10
4.51729e-11
2.70251e-10
4.40688e-11
2.47074e-10
4.18598e-11
2.2545e-10
4.02608e-11
2.05912e-10
3.64697e-11
1.8887e-10
3.30692e-11
1.75009e-10
2.72692e-11
1.64814e-10
2.15959e-11
1.59119e-10
1.31866e-11
1.58417e-10
5.02379e-12
1.63198e-10
-5.37233e-12
1.74453e-10
-1.6018e-11
1.92306e-10
-2.75641e-11
2.17252e-10
-4.06819e-11
2.49273e-10
-5.29069e-11
2.88777e-10
-6.70173e-11
3.35445e-10
-7.98695e-11
3.89182e-10
-9.33424e-11
4.4967e-10
-1.06168e-10
5.16387e-10
-1.18563e-10
5.88655e-10
-1.29832e-10
6.65812e-10
-1.40801e-10
7.46601e-10
-1.48511e-10
8.30683e-10
-1.57801e-10
9.16286e-10
-1.62038e-10
1.00261e-09
-1.65557e-10
1.08881e-09
-1.67764e-10
1.17331e-09
-1.66073e-10
1.25546e-09
-1.63423e-10
1.33471e-09
-1.59678e-10
1.41006e-09
-1.52772e-10
1.48123e-09
-1.4503e-10
1.54822e-09
-1.37689e-10
1.61078e-09
-1.28788e-10
1.66917e-09
-1.20371e-10
1.72372e-09
-1.12429e-10
1.77485e-09
-1.04961e-10
1.82331e-09
-9.95718e-11
1.86974e-09
-9.63567e-11
1.91418e-09
-9.10442e-11
1.95776e-09
-9.02775e-11
2.00153e-09
-9.33255e-11
2.04429e-09
-9.01994e-11
2.08791e-09
-9.40657e-11
2.13212e-09
-1.00335e-10
2.17519e-09
-9.47821e-11
2.21869e-09
-1.01896e-10
2.26048e-09
-9.76566e-11
2.29973e-09
-9.50612e-11
2.33517e-09
-8.78163e-11
2.3641e-09
-7.40522e-11
2.38518e-09
-5.57518e-11
2.3959e-09
-3.41231e-11
2.39384e-09
2.42749e-12
2.379e-09
2.49805e-11
2.34643e-09
7.81428e-11
2.29944e-09
1.06486e-10
2.23698e-09
1.44546e-10
2.15876e-09
1.81317e-10
2.06955e-09
1.99001e-10
1.96644e-09
2.33584e-10
1.85711e-09
2.36287e-10
1.73899e-09
2.57216e-10
1.61832e-09
2.52927e-10
1.49191e-09
2.67606e-10
1.36493e-09
2.63592e-10
1.23735e-09
2.6828e-10
1.11661e-09
2.56247e-10
1.00344e-09
2.42261e-10
9.26917e-10
1.20564e-10
8.72758e-10
8.41775e-11
8.38758e-10
5.25579e-11
8.26942e-10
1.56488e-11
8.4372e-10
-4.15449e-11
8.89844e-10
-1.0051e-10
9.66161e-10
-1.73797e-10
1.05824e-09
-2.03206e-10
1.15644e-09
-2.10942e-10
1.25623e-09
-2.14119e-10
1.35348e-09
-2.09954e-10
1.44459e-09
-1.98099e-10
1.52666e-09
-1.79614e-10
1.5977e-09
-1.56325e-10
1.65661e-09
-1.3028e-10
1.70315e-09
-1.0345e-10
1.7378e-09
-7.75386e-11
1.76165e-09
-5.38946e-11
1.77616e-09
-3.3461e-11
1.78309e-09
-1.67791e-11
1.78445e-09
-3.99496e-12
1.78185e-09
4.69707e-12
1.77709e-09
9.82456e-12
1.77163e-09
1.1747e-11
1.76664e-09
1.10359e-11
1.763e-09
8.34368e-12
1.76131e-09
4.35519e-12
1.76173e-09
-2.50342e-13
1.76419e-09
-4.85101e-12
1.76839e-09
-8.86765e-12
1.7738e-09
-1.18828e-11
1.77977e-09
-1.36443e-11
1.78563e-09
-1.40244e-11
1.79073e-09
-1.30281e-11
1.7945e-09
-1.07779e-11
1.79651e-09
-7.44703e-12
1.79647e-09
-3.23857e-12
1.7943e-09
1.74893e-12
1.79016e-09
7.48338e-12
1.4529e-11
2.56378e-09
1.0757e-10
2.67045e-09
2.72325e-10
2.74773e-09
3.47825e-10
2.78135e-09
3.61214e-10
2.77558e-09
3.41131e-10
2.74591e-09
3.05136e-10
2.70216e-09
2.67671e-10
2.6524e-09
2.33769e-10
2.60217e-09
2.04338e-10
2.55391e-09
1.79566e-10
2.50861e-09
1.58822e-10
2.4666e-09
1.41317e-10
2.42783e-09
1.26543e-10
2.39203e-09
1.14157e-10
2.35885e-09
1.03901e-10
2.32788e-09
9.55862e-11
2.29869e-09
8.90742e-11
2.27085e-09
8.42569e-11
2.2439e-09
8.10499e-11
2.21743e-09
7.93863e-11
2.19099e-09
7.92172e-11
2.16415e-09
8.05127e-11
2.13648e-09
8.32633e-11
2.10753e-09
8.74848e-11
2.07687e-09
9.3223e-11
2.04403e-09
1.00562e-10
2.00853e-09
1.09634e-10
1.96988e-09
1.20636e-10
1.92755e-09
1.33843e-10
1.88104e-09
1.4964e-10
1.82985e-09
1.68549e-10
1.77358e-09
1.91283e-10
1.71215e-09
2.18895e-10
1.64461e-09
2.63868e-10
1.58504e-09
2.35294e-10
1.55321e-09
1.18262e-10
1.55342e-09
1.41716e-11
1.58494e-09
-7.09415e-11
1.64631e-09
-1.5557e-10
1.7343e-09
-2.44956e-10
1.84515e-09
-3.52151e-10
1.96516e-09
-3.96525e-10
2.08732e-09
-3.97348e-10
2.20553e-09
-3.84911e-10
2.31589e-09
-3.58224e-10
2.41806e-09
-3.33307e-10
2.51229e-09
-3.12111e-10
2.59717e-09
-2.76759e-10
2.67376e-09
-2.54715e-10
2.74135e-09
-2.25337e-10
2.79957e-09
-1.91985e-10
2.84813e-09
-1.64641e-10
2.88598e-09
-1.20533e-10
2.91306e-09
-8.94152e-11
2.92804e-09
-3.75239e-11
2.9306e-09
4.84913e-12
2.92002e-09
5.54436e-11
2.89515e-09
1.12645e-10
2.85735e-09
1.49633e-10
2.80404e-09
2.18065e-10
2.73838e-09
2.45773e-10
2.65998e-09
2.85783e-10
2.57111e-09
3.11326e-10
2.47376e-09
3.22998e-10
2.36952e-09
3.38386e-10
2.26163e-09
3.30306e-10
2.15081e-09
3.32455e-10
2.04024e-09
3.16256e-10
1.93047e-09
3.07155e-10
1.82274e-09
2.91769e-10
1.71823e-09
2.75383e-10
1.61636e-09
2.6574e-10
1.51825e-09
2.49698e-10
1.42343e-09
2.389e-10
1.33176e-09
2.29184e-10
1.24354e-09
2.17738e-10
1.15855e-09
2.08186e-10
1.07686e-09
1.98964e-10
9.98767e-10
1.88198e-10
9.24597e-10
1.77038e-10
8.54547e-10
1.65792e-10
7.88993e-10
1.53701e-10
7.2812e-10
1.41595e-10
6.7204e-10
1.29705e-10
6.20816e-10
1.18062e-10
5.74162e-10
1.0799e-10
5.31694e-10
9.9312e-11
4.9321e-10
9.1073e-11
4.58003e-10
8.52527e-11
4.25637e-10
8.06439e-11
3.95929e-10
7.59318e-11
3.68479e-10
7.26264e-11
3.43102e-10
6.94479e-11
3.20277e-10
6.46875e-11
2.99658e-10
6.08815e-11
2.82342e-10
5.37863e-11
2.68064e-10
4.73483e-11
2.58182e-10
3.71526e-11
2.52489e-10
2.72885e-11
2.52761e-10
1.29153e-11
2.58555e-10
-7.70229e-13
2.71495e-10
-1.83128e-11
2.917e-10
-3.62227e-11
3.19665e-10
-5.55291e-11
3.56262e-10
-7.72782e-11
4.00926e-10
-9.7569e-11
4.54547e-10
-1.20637e-10
5.16288e-10
-1.41607e-10
5.8606e-10
-1.6311e-10
6.6323e-10
-1.83331e-10
7.46895e-10
-2.02217e-10
8.36105e-10
-2.19029e-10
9.29821e-10
-2.34498e-10
1.02638e-09
-2.45044e-10
1.12525e-09
-2.5664e-10
1.22435e-09
-2.61112e-10
1.32277e-09
-2.63943e-10
1.41949e-09
-2.64461e-10
1.51308e-09
-2.59661e-10
1.60289e-09
-2.53254e-10
1.68842e-09
-2.45273e-10
1.76892e-09
-2.33381e-10
1.84434e-09
-2.20619e-10
1.9148e-09
-2.08339e-10
1.98031e-09
-1.94511e-10
2.04131e-09
-1.81561e-10
2.09825e-09
-1.69501e-10
2.15171e-09
-1.58458e-10
2.2024e-09
-1.50189e-10
2.25091e-09
-1.44677e-10
2.29761e-09
-1.37463e-10
2.34315e-09
-1.35489e-10
2.38844e-09
-1.38292e-10
2.43261e-09
-1.34107e-10
2.47683e-09
-1.38141e-10
2.52037e-09
-1.43841e-10
2.56267e-09
-1.37173e-10
2.60366e-09
-1.43055e-10
2.64237e-09
-1.36563e-10
2.67737e-09
-1.30259e-10
2.70798e-09
-1.18564e-10
2.73174e-09
-9.78912e-11
2.7479e-09
-7.19372e-11
2.75405e-09
-4.02402e-11
2.74908e-09
7.44332e-12
2.73151e-09
4.25934e-11
2.69929e-09
1.10394e-10
2.65256e-09
1.53226e-10
2.59127e-09
2.05835e-10
2.51423e-09
2.5835e-10
2.42447e-09
2.88755e-10
2.32001e-09
3.38045e-10
2.20579e-09
3.50508e-10
2.08057e-09
3.82442e-10
1.94861e-09
3.84882e-10
1.81016e-09
4.06059e-10
1.66825e-09
4.05508e-10
1.52545e-09
4.11078e-10
1.39152e-09
3.90189e-10
1.26512e-09
3.68661e-10
1.17232e-09
2.13359e-10
1.10685e-09
1.49647e-10
1.06905e-09
9.03611e-11
1.06113e-09
2.3563e-11
1.08919e-09
-6.96052e-11
1.15134e-09
-1.62655e-10
1.2454e-09
-2.67857e-10
1.35377e-09
-3.1158e-10
1.46568e-09
-3.22852e-10
1.57627e-09
-3.24708e-10
1.68147e-09
-3.15159e-10
1.77805e-09
-2.94672e-10
1.86359e-09
-2.65161e-10
1.9366e-09
-2.29332e-10
1.9964e-09
-1.90083e-10
2.04311e-09
-1.50154e-10
2.07748e-09
-1.11911e-10
2.10081e-09
-7.72231e-11
2.11476e-09
-4.7408e-11
2.12121e-09
-2.32384e-11
2.12221e-09
-4.99453e-12
2.11955e-09
7.35934e-12
2.11504e-09
1.43366e-11
2.11017e-09
1.66144e-11
2.10614e-09
1.50624e-11
2.10382e-09
1.06721e-11
2.1037e-09
4.46692e-12
2.10594e-09
-2.48634e-12
2.11037e-09
-9.28453e-12
2.11659e-09
-1.50819e-11
2.12396e-09
-1.92525e-11
2.13176e-09
-2.14454e-11
2.13923e-09
-2.1496e-11
2.14565e-09
-1.94476e-11
2.15041e-09
-1.55369e-11
2.15308e-09
-1.01167e-11
2.15345e-09
-3.60375e-12
2.15157e-09
3.62392e-12
2.14783e-09
1.12229e-11
1.97487e-11
2.53698e-09
7.05889e-11
2.61766e-09
1.91647e-10
2.70056e-09
2.64924e-10
2.76513e-09
2.96645e-10
2.80583e-09
3.00431e-10
2.82321e-09
2.87751e-10
2.82304e-09
2.67839e-10
2.81164e-09
2.45176e-10
2.79323e-09
2.22747e-10
2.77081e-09
2.01977e-10
2.74652e-09
1.83119e-10
2.72164e-09
1.66195e-10
2.69687e-09
1.51313e-10
2.67256e-09
1.38464e-10
2.64885e-09
1.27609e-10
2.62572e-09
1.18715e-10
2.60306e-09
1.11741e-10
2.58067e-09
1.06644e-10
2.55833e-09
1.03385e-10
2.53579e-09
1.01927e-10
2.51276e-09
1.02248e-10
2.48893e-09
1.04341e-10
2.46398e-09
1.08219e-10
2.43754e-09
1.13919e-10
2.40926e-09
1.21508e-10
2.37873e-09
1.31091e-10
2.34554e-09
1.42819e-10
2.30928e-09
1.56901e-10
2.2695e-09
1.73616e-10
2.22582e-09
1.93326e-10
2.17787e-09
2.16499e-10
2.12542e-09
2.43727e-10
2.06849e-09
2.75831e-10
2.00622e-09
3.26134e-10
1.95073e-09
2.90787e-10
1.91922e-09
1.49779e-10
1.91702e-09
1.63686e-11
1.94503e-09
-9.89476e-11
2.00159e-09
-2.1213e-10
2.08198e-09
-3.25365e-10
2.181e-09
-4.51199e-10
2.28738e-09
-5.02939e-10
2.39653e-09
-5.06507e-10
2.50197e-09
-4.90348e-10
2.60004e-09
-4.56271e-10
2.6904e-09
-4.23637e-10
2.7733e-09
-3.94988e-10
2.84822e-09
-3.51655e-10
2.9154e-09
-3.21892e-10
2.97425e-09
-2.84191e-10
3.0255e-09
-2.43246e-10
3.06812e-09
-2.07281e-10
3.10219e-09
-1.5461e-10
3.12702e-09
-1.14243e-10
3.1425e-09
-5.3008e-11
3.14785e-09
-4.99186e-13
3.14292e-09
6.0374e-11
3.12676e-09
1.28804e-10
3.09959e-09
1.76801e-10
3.06026e-09
2.57401e-10
3.00942e-09
2.96604e-10
2.94669e-09
3.48508e-10
2.87324e-09
3.84778e-10
2.78977e-09
4.06482e-10
2.69772e-09
4.30441e-10
2.59887e-09
4.29177e-10
2.49462e-09
4.36712e-10
2.38705e-09
4.23816e-10
2.2776e-09
4.16581e-10
2.16749e-09
4.01842e-10
2.05837e-09
3.84466e-10
1.95028e-09
3.73808e-10
1.84464e-09
3.55325e-10
1.74149e-09
3.42077e-10
1.64101e-09
3.29704e-10
1.54373e-09
3.15064e-10
1.44959e-09
3.02373e-10
1.3588e-09
2.89786e-10
1.27169e-09
2.75316e-10
1.1887e-09
2.60024e-10
1.11003e-09
2.44439e-10
1.03618e-09
2.27524e-10
9.67444e-10
2.10298e-10
9.04086e-10
1.93039e-10
8.46386e-10
1.75745e-10
7.94198e-10
1.60168e-10
7.47269e-10
1.46237e-10
7.05699e-10
1.32643e-10
6.68641e-10
1.22313e-10
6.35667e-10
1.13621e-10
6.06681e-10
1.04922e-10
5.81015e-10
9.8296e-11
5.58236e-10
9.22294e-11
5.39052e-10
8.38748e-11
5.22463e-10
7.74719e-11
5.10132e-10
6.6119e-11
5.01056e-10
5.64246e-11
4.97229e-10
4.09806e-11
4.97771e-10
2.6747e-11
5.05248e-10
5.43846e-12
5.18567e-10
-1.40889e-11
5.39927e-10
-3.96729e-11
5.69035e-10
-6.53308e-11
6.06547e-10
-9.30408e-11
6.5348e-10
-1.2421e-10
7.08792e-10
-1.5288e-10
7.73529e-10
-1.85373e-10
8.46368e-10
-2.14443e-10
9.26998e-10
-2.43738e-10
1.01451e-09
-2.70833e-10
1.10756e-09
-2.95269e-10
1.20499e-09
-3.16442e-10
1.30542e-09
-3.34916e-10
1.40697e-09
-3.46576e-10
1.50905e-09
-3.58687e-10
1.60946e-09
-3.61487e-10
1.70733e-09
-3.61769e-10
1.80175e-09
-3.58836e-10
1.89152e-09
-3.49393e-10
1.97622e-09
-3.37928e-10
2.05563e-09
-3.24691e-10
2.12933e-09
-3.0713e-10
2.19762e-09
-2.89004e-10
2.2608e-09
-2.71671e-10
2.3192e-09
-2.53101e-10
2.37341e-09
-2.35982e-10
2.424e-09
-2.20288e-10
2.47163e-09
-2.06234e-10
2.51698e-09
-1.956e-10
2.56056e-09
-1.8821e-10
2.60281e-09
-1.79558e-10
2.64404e-09
-1.76466e-10
2.68512e-09
-1.79079e-10
2.72511e-09
-1.73808e-10
2.76472e-09
-1.77517e-10
2.80298e-09
-1.81975e-10
2.84004e-09
-1.7421e-10
2.87485e-09
-1.77938e-10
2.90723e-09
-1.69085e-10
2.93558e-09
-1.58764e-10
2.95969e-09
-1.42826e-10
2.97755e-09
-1.15855e-10
2.98898e-09
-8.34126e-11
2.99179e-09
-4.30585e-11
2.98586e-09
1.34025e-11
2.96907e-09
5.94172e-11
2.9411e-09
1.38395e-10
2.90032e-09
1.94024e-10
2.84707e-09
2.5908e-10
2.77945e-09
3.25966e-10
2.69912e-09
3.69082e-10
2.60425e-09
4.32919e-10
2.49775e-09
4.57002e-10
2.37853e-09
5.0167e-10
2.24985e-09
5.13564e-10
2.11282e-09
5.43085e-10
1.9694e-09
5.48934e-10
1.82455e-09
5.55937e-10
1.69029e-09
5.24448e-10
1.56442e-09
4.9453e-10
1.47304e-09
3.04737e-10
1.41243e-09
2.10255e-10
1.38441e-09
1.18388e-10
1.39081e-09
1.71618e-11
1.43684e-09
-1.15637e-10
1.51713e-09
-2.42945e-10
1.62685e-09
-3.77576e-10
1.74587e-09
-4.30603e-10
1.86352e-09
-4.40499e-10
1.97572e-09
-4.36907e-10
2.07924e-09
-4.18685e-10
2.17178e-09
-3.87208e-10
2.25183e-09
-3.45212e-10
2.31867e-09
-2.96174e-10
2.37228e-09
-2.43695e-10
2.41325e-09
-1.9112e-10
2.44266e-09
-1.41319e-10
2.46198e-09
-9.65453e-11
2.47294e-09
-5.83727e-11
2.47741e-09
-2.77086e-11
2.47729e-09
-4.86545e-12
2.47431e-09
1.03344e-11
2.47012e-09
1.85256e-11
2.46608e-09
2.06535e-11
2.46326e-09
1.78878e-11
2.46238e-09
1.15451e-11
2.46385e-09
3.00001e-12
2.46775e-09
-6.39108e-12
2.47387e-09
-1.54007e-11
2.48175e-09
-2.29577e-11
2.49075e-09
-2.82595e-11
2.50016e-09
-3.08498e-11
2.5092e-09
-3.05329e-11
2.51714e-09
-2.73947e-11
2.52339e-09
-2.17838e-11
2.52751e-09
-1.42402e-11
2.52933e-09
-5.41954e-12
2.52894e-09
4.01215e-12
2.52676e-09
1.34047e-11
2.34925e-11
2.52315e-09
4.74411e-11
2.58139e-09
1.33402e-10
2.65328e-09
1.93034e-10
2.72327e-09
2.26654e-10
2.7828e-09
2.40903e-10
2.82858e-09
2.41966e-10
2.86142e-09
2.35007e-10
2.88292e-09
2.23671e-10
2.89533e-09
2.10334e-10
2.90109e-09
1.96217e-10
2.90208e-09
1.82132e-10
2.89948e-09
1.68796e-10
2.89416e-09
1.56628e-10
2.88683e-09
1.45792e-10
2.87794e-09
1.36498e-10
2.86778e-09
1.28881e-10
2.8565e-09
1.23021e-10
2.84418e-09
1.18964e-10
2.83081e-09
1.16747e-10
2.81637e-09
1.16375e-10
2.80073e-09
1.17886e-10
2.78376e-09
1.21314e-10
2.76527e-09
1.26708e-10
2.74504e-09
1.34149e-10
2.7228e-09
1.4374e-10
2.69828e-09
1.55616e-10
2.67114e-09
1.69954e-10
2.64106e-09
1.86982e-10
2.6077e-09
2.06983e-10
2.57072e-09
2.30299e-10
2.52988e-09
2.57345e-10
2.48499e-09
2.88611e-10
2.43606e-09
3.24765e-10
2.38232e-09
3.79872e-10
2.33299e-09
3.40114e-10
2.3015e-09
1.81274e-10
2.29384e-09
2.40302e-11
2.31265e-09
-1.17751e-10
2.35652e-09
-2.5599e-10
2.42038e-09
-3.89238e-10
2.49906e-09
-5.29894e-10
2.58423e-09
-5.88138e-10
2.67334e-09
-5.95644e-10
2.75956e-09
-5.76575e-10
2.83935e-09
-5.36058e-10
2.91242e-09
-4.96684e-10
2.9791e-09
-4.61643e-10
3.03916e-09
-4.11696e-10
3.09295e-09
-3.75666e-10
3.13977e-09
-3.31015e-10
3.1807e-09
-2.84175e-10
3.21479e-09
-2.4138e-10
3.24279e-09
-1.82615e-10
3.26372e-09
-1.35178e-10
3.27832e-09
-6.76145e-11
3.28562e-09
-7.79595e-12
3.28588e-09
6.01172e-11
3.27838e-09
1.36297e-10
3.26269e-09
1.92493e-10
3.2386e-09
2.81492e-10
3.20517e-09
3.30024e-10
3.16194e-09
3.91744e-10
3.10921e-09
4.3751e-10
3.04652e-09
4.69183e-10
2.97497e-09
5.01999e-10
2.89494e-09
5.0922e-10
2.80792e-09
5.23733e-10
2.71491e-09
5.16807e-10
2.61765e-09
5.13822e-10
2.51715e-09
5.02303e-10
2.41528e-09
4.86312e-10
2.31244e-09
4.76643e-10
2.21033e-09
4.57446e-10
2.10936e-09
4.43068e-10
2.0101e-09
4.2901e-10
1.91333e-09
4.11873e-10
1.81915e-09
3.96589e-10
1.72792e-09
3.81023e-10
1.64002e-09
3.63214e-10
1.55595e-09
3.44082e-10
1.47585e-09
3.24506e-10
1.40027e-09
3.03078e-10
1.32952e-09
2.81015e-10
1.26395e-09
2.58596e-10
1.204e-09
2.35684e-10
1.14966e-09
2.14499e-10
1.10085e-09
1.95047e-10
1.05805e-09
1.75452e-10
1.02038e-09
1.59984e-10
9.87592e-10
1.46413e-10
9.59668e-10
1.32851e-10
9.35874e-10
1.22094e-10
9.15526e-10
1.1258e-10
8.9955e-10
9.98536e-11
8.86394e-10
9.06287e-11
8.78142e-10
7.43726e-11
8.7325e-10
6.13172e-11
8.74192e-10
4.00391e-11
8.79603e-10
2.13361e-11
8.92732e-10
-7.68998e-12
9.11942e-10
-3.32994e-11
9.3992e-10
-6.76503e-11
9.76021e-10
-1.01432e-10
1.02096e-09
-1.37984e-10
1.07561e-09
-1.78851e-10
1.13859e-09
-2.15865e-10
1.21073e-09
-2.57509e-10
1.29034e-09
-2.94056e-10
1.37668e-09
-3.30078e-10
1.4686e-09
-3.62751e-10
1.56432e-09
-3.90979e-10
1.66252e-09
-4.14632e-10
1.76154e-09
-4.3393e-10
1.85951e-09
-4.44532e-10
1.95575e-09
-4.54906e-10
2.04825e-09
-4.53951e-10
2.13627e-09
-4.49744e-10
2.21916e-09
-4.41679e-10
2.2961e-09
-4.26273e-10
2.36698e-09
-4.08755e-10
2.43198e-09
-3.89652e-10
2.49107e-09
-3.66217e-10
2.54492e-09
-3.42884e-10
2.59406e-09
-3.20886e-10
2.63905e-09
-2.98229e-10
2.68063e-09
-2.77744e-10
2.71944e-09
-2.5931e-10
2.75619e-09
-2.43186e-10
2.7915e-09
-2.31056e-10
2.82573e-09
-2.2252e-10
2.85924e-09
-2.13035e-10
2.89224e-09
-2.09335e-10
2.92551e-09
-2.12124e-10
2.95766e-09
-2.05702e-10
2.98949e-09
-2.09094e-10
3.01975e-09
-2.12044e-10
3.04905e-09
-2.03395e-10
3.07577e-09
-2.04646e-10
3.10034e-09
-1.93716e-10
3.12114e-09
-1.79671e-10
3.13842e-09
-1.60238e-10
3.1506e-09
-1.28141e-10
3.15799e-09
-9.08738e-11
3.15873e-09
-4.38269e-11
3.15351e-09
1.86262e-11
3.13986e-09
7.30876e-11
3.11871e-09
1.59576e-10
3.08742e-09
2.25324e-10
3.04658e-09
2.99926e-10
2.99378e-09
3.78773e-10
2.92967e-09
4.33185e-10
2.85236e-09
5.10227e-10
2.76315e-09
5.46213e-10
2.66063e-09
6.04187e-10
2.5471e-09
6.27093e-10
2.42306e-09
6.67136e-10
2.29061e-09
6.81388e-10
2.15544e-09
6.91106e-10
2.03261e-09
6.47285e-10
1.91936e-09
6.07777e-10
1.84181e-09
3.82283e-10
1.79709e-09
2.54977e-10
1.78728e-09
1.28194e-10
1.8132e-09
-8.75641e-12
1.87835e-09
-1.80788e-10
1.97372e-09
-3.3831e-10
2.0921e-09
-4.95955e-10
2.21325e-09
-5.51754e-10
2.32786e-09
-5.55108e-10
2.4331e-09
-5.42154e-10
2.5269e-09
-5.1248e-10
2.60803e-09
-4.68336e-10
2.67599e-09
-4.13175e-10
2.7309e-09
-3.51086e-10
2.77339e-09
-2.86182e-10
2.8045e-09
-2.22225e-10
2.82559e-09
-1.62413e-10
2.83828e-09
-1.09228e-10
2.84426e-09
-6.43574e-11
2.84527e-09
-2.8723e-11
2.84299e-09
-2.57637e-12
2.83892e-09
1.44009e-11
2.83443e-09
2.30185e-11
2.83062e-09
2.44598e-11
2.82834e-09
2.01677e-11
2.82814e-09
1.17446e-11
2.83029e-09
8.52435e-13
2.83479e-09
-1.08906e-11
2.84139e-09
-2.20088e-11
2.84968e-09
-3.12414e-11
2.85907e-09
-3.76506e-11
2.8689e-09
-4.06784e-11
2.87847e-09
-4.01051e-11
2.88713e-09
-3.60555e-11
2.89433e-09
-2.8977e-11
2.89966e-09
-1.95719e-11
2.90294e-09
-8.70698e-12
2.90426e-09
2.6952e-12
2.90395e-09
1.37123e-11
2.53679e-11
2.51583e-09
3.16104e-11
2.55897e-09
9.02605e-11
2.61805e-09
1.3396e-10