/*--------------------------------*- C++ -*----------------------------------*\
| =========                 |                                                 |
| \\      /  F ield         | OpenFOAM: The Open Source CFD Toolbox           |
|  \\    /   O peration     | Version:  2506                                  |
|   \\  /    A nd           | Website:  www.openfoam.com                      |
|    \\/     M anipulation  |                                                 |
\*---------------------------------------------------------------------------*/
FoamFile
{
    version     2.0;
    format      ascii;
    arch        "LSB;label=32;scalar=64";
    class       surfaceScalarField;
    location    "1.6";
    object      phi;
}
// * * * * * * * * * * * * * * * * * * * * * * * * * * * * * * * * * * * * * //

dimensions      [0 3 -1 0 0 0 0];

oriented        oriented;

internalField   nonuniform List<scalar> 
7780
(
3.53103e-09
5.68974e-10
2.83794e-09
6.93081e-10
2.30696e-09
5.30984e-10
1.93448e-09
3.7247e-10
1.69432e-09
2.40168e-10
1.54408e-09
1.50236e-10
1.44917e-09
9.49042e-11
1.38811e-09
6.10591e-11
1.34766e-09
4.04547e-11
1.31961e-09
2.8047e-11
1.29894e-09
2.06759e-11
1.28261e-09
1.63283e-11
1.26882e-09
1.37872e-11
1.25649e-09
1.2329e-11
1.24497e-09
1.15147e-11
1.23387e-09
1.10994e-11
1.22292e-09
1.09563e-11
1.21189e-09
1.10269e-11
1.2006e-09
1.12889e-11
1.18886e-09
1.17415e-11
1.17646e-09
1.23973e-11
1.16318e-09
1.32767e-11
1.14877e-09
1.44058e-11
1.13296e-09
1.58169e-11
1.1154e-09
1.75508e-11
1.09574e-09
1.96602e-11
1.07352e-09
2.22167e-11
1.0482e-09
2.53228e-11
1.01907e-09
2.91347e-11
9.8516e-10
3.39054e-11
9.45079e-10
4.00819e-11
8.96491e-10
4.85891e-11
8.35794e-10
6.06999e-11
7.46404e-10
8.93924e-11
6.72183e-10
7.42219e-11
6.54378e-10
1.78024e-11
6.6502e-10
-1.06459e-11
6.84944e-10
-1.99211e-11
7.15197e-10
-3.02353e-11
7.62846e-10
-4.76099e-11
8.50322e-10
-8.74217e-11
9.46026e-10
-9.56601e-11
1.0274e-09
-8.13586e-11
1.10049e-09
-7.31064e-11
1.16409e-09
-6.36496e-11
1.22291e-09
-5.8878e-11
1.2811e-09
-5.8244e-11
1.32929e-09
-4.82465e-11
1.3771e-09
-4.78434e-11
1.41983e-09
-4.27513e-11
1.45456e-09
-3.47422e-11
1.48689e-09
-3.23303e-11
1.50324e-09
-1.63379e-11
1.51678e-09
-1.35281e-11
1.51084e-09
5.95214e-12
1.496e-09
1.4846e-11
1.46504e-09
3.09611e-11
1.41554e-09
4.94957e-11
1.36371e-09
5.18281e-11
1.28513e-09
7.85585e-11
1.21048e-09
7.46161e-11
1.12795e-09
8.2498e-11
1.04503e-09
8.28813e-11
9.69153e-10
7.58454e-11
8.92932e-10
7.62166e-11
8.3024e-10
6.27216e-11
7.69249e-10
6.10563e-11
7.20914e-10
4.8428e-11
6.77082e-10
4.39424e-11
6.41225e-10
3.59702e-11
6.12314e-10
2.9012e-11
5.86091e-10
2.63029e-11
5.66421e-10
1.97173e-11
5.49643e-10
1.67911e-11
5.35248e-10
1.43752e-11
5.24482e-10
1.07195e-11
5.15425e-10
8.99433e-12
5.07206e-10
8.15233e-12
5.00653e-10
6.49177e-12
4.95082e-10
5.52225e-12
4.90006e-10
5.04279e-12
4.85729e-10
4.26069e-12
4.82084e-10
3.64296e-12
4.79088e-10
3.00519e-12
4.77205e-10
1.8988e-12
4.75771e-10
1.45519e-12
4.74706e-10
1.09096e-12
4.75241e-10
-5.08394e-13
4.75957e-10
-6.88213e-13
4.76513e-10
-5.27617e-13
4.78715e-10
-2.17586e-12
4.80487e-10
-1.74841e-12
4.81864e-10
-1.35486e-12
4.84713e-10
-2.82994e-12
4.85639e-10
-9.09142e-13
4.88742e-10
-3.08999e-12
4.89693e-10
-9.39565e-13
4.92804e-10
-3.102e-12
4.93546e-10
-7.34871e-13
4.97118e-10
-3.56672e-12
4.98622e-10
-1.50015e-12
5.02565e-10
-3.94066e-12
5.06626e-10
-4.05856e-12
5.10409e-10
-3.78287e-12
5.17013e-10
-6.60448e-12
5.23114e-10
-6.10304e-12
5.32664e-10
-9.55221e-12
5.42888e-10
-1.02273e-11
5.55728e-10
-1.28435e-11
5.70579e-10
-1.48561e-11
5.88002e-10
-1.7427e-11
6.07374e-10
-1.93747e-11
6.29827e-10
-2.24538e-11
6.53148e-10
-2.332e-11
6.80885e-10
-2.77307e-11
7.09022e-10
-2.81257e-11
7.38739e-10
-2.96992e-11
7.70369e-10
-3.16046e-11
8.0175e-10
-3.13454e-11
8.33432e-10
-3.16349e-11
8.65633e-10
-3.21435e-11
8.96862e-10
-3.11595e-11
9.26304e-10
-2.93615e-11
9.55006e-10
-2.86113e-11
9.81615e-10
-2.65122e-11
1.00638e-09
-2.46674e-11
1.02934e-09
-2.28566e-11
1.05016e-09
-2.07223e-11
1.06977e-09
-1.95234e-11
1.08948e-09
-1.9637e-11
1.10637e-09
-1.68417e-11
1.12349e-09
-1.70949e-11
1.14332e-09
-1.98413e-11
1.1607e-09
-1.7446e-11
1.18013e-09
-1.9523e-11
1.20501e-09
-2.50287e-11
1.22435e-09
-1.95145e-11
1.25046e-09
-2.63044e-11
1.27387e-09
-2.36107e-11
1.29824e-09
-2.45314e-11
1.32048e-09
-2.23593e-11
1.33824e-09
-1.78176e-11
1.3487e-09
-1.04567e-11
1.35301e-09
-4.27664e-12
1.33946e-09
1.36199e-11
1.32416e-09
1.53678e-11
1.27947e-09
4.47513e-11
1.2309e-09
4.86072e-11
1.16851e-09
6.24022e-11
1.09422e-09
7.42798e-11
1.02158e-09
7.26273e-11
9.36106e-10
8.54575e-11
8.60844e-10
7.52545e-11
7.80008e-10
8.08422e-11
7.10808e-10
6.92272e-11
6.40352e-10
7.05029e-11
5.80177e-10
6.02355e-11
5.20464e-10
5.97761e-11
4.67849e-10
5.26663e-11
4.1954e-10
4.83385e-11
4.51294e-10
-3.17489e-11
4.8799e-10
-3.6699e-11
5.25707e-10
-3.77226e-11
5.64294e-10
-3.85915e-11
6.15953e-10
-5.16595e-11
6.77001e-10
-6.10465e-11
7.62196e-10
-8.51911e-11
8.3127e-10
-6.90716e-11
8.77074e-10
-4.58026e-11
9.11276e-10
-3.42033e-11
9.39919e-10
-2.86457e-11
9.66146e-10
-2.62296e-11
9.91431e-10
-2.52882e-11
1.01625e-09
-2.48267e-11
1.04048e-09
-2.42236e-11
1.06361e-09
-2.31349e-11
1.08505e-09
-2.14385e-11
1.10418e-09
-1.91369e-11
1.12053e-09
-1.63438e-11
1.13402e-09
-1.3495e-11
1.14451e-09
-1.04872e-11
1.1521e-09
-7.59419e-12
1.15712e-09
-5.0211e-12
1.16003e-09
-2.91194e-12
1.16113e-09
-1.09345e-12
1.16097e-09
1.57337e-13
1.16002e-09
9.48976e-13
1.15868e-09
1.3337e-12
1.15743e-09
1.25725e-12
1.15655e-09
8.71841e-13
1.15632e-09
2.31563e-13
1.15693e-09
-6.14918e-13
1.15837e-09
-1.43943e-12
1.16075e-09
-2.3799e-12
1.16403e-09
-3.27994e-12
1.16808e-09
-4.05512e-12
1.17271e-09
-4.62961e-12
1.17764e-09
-4.92452e-12
1.18239e-09
-4.75373e-12
-3.25878e-12
4.337e-09
3.31976e-10
4.34282e-09
6.87251e-10
4.17229e-09
7.01519e-10
3.92903e-09
6.15723e-10
3.67428e-09
4.9492e-10
3.44985e-09
3.74662e-10
3.27277e-09
2.71988e-10
3.1387e-09
1.95125e-10
3.0382e-09
1.4096e-10
2.96249e-09
1.0375e-10
2.90419e-09
7.89832e-11
2.85765e-09
6.28647e-11
2.81888e-09
5.25578e-11
2.78517e-09
4.60344e-11
2.75478e-09
4.19041e-11
2.72656e-09
3.93239e-11
2.6997e-09
3.78161e-11
2.6736e-09
3.71286e-11
2.64774e-09
3.71411e-11
2.62167e-09
3.7814e-11
2.59491e-09
3.91598e-11
2.56696e-09
4.12208e-11
2.53731e-09
4.40594e-11
2.50536e-09
4.77579e-11
2.47049e-09
5.24219e-11
2.43196e-09
5.81883e-11
2.38894e-09
6.5241e-11
2.34042e-09
7.38354e-11
2.28521e-09
8.43426e-11
2.22179e-09
9.73266e-11
2.14818e-09
1.13691e-10
2.06179e-09
1.34977e-10
1.95853e-09
1.63962e-10
1.82821e-09
2.19713e-10
1.7128e-09
1.89635e-10
1.6606e-09
6.99918e-11
1.65632e-09
-6.37056e-12
1.68212e-09
-4.57447e-11
1.73603e-09
-8.4174e-11
1.82402e-09
-1.35624e-10
1.96038e-09
-2.23779e-10
2.11279e-09
-2.48032e-10
2.26043e-09
-2.28961e-10
2.40169e-09
-2.14334e-10
2.53214e-09
-1.94073e-10
2.65547e-09
-1.82201e-10
2.7746e-09
-1.77383e-10
2.88055e-09
-1.54219e-10
2.98309e-09
-1.50401e-10
3.07581e-09
-1.35479e-10
3.15626e-09
-1.15207e-10
3.22749e-09
-1.03569e-10
3.27896e-09
-6.78091e-11
3.31784e-09
-5.24125e-11
3.33077e-09
-6.96979e-12
3.32381e-09
2.18078e-11
3.29214e-09
6.26262e-11
3.23119e-09
1.10443e-10
3.15176e-09
1.31259e-10
3.03728e-09
1.9303e-10
2.91097e-09
2.00916e-10
2.76732e-09
2.26135e-10
2.6153e-09
2.34904e-10
2.46376e-09
2.27394e-10
2.31075e-09
2.29244e-10
2.16985e-09
2.03635e-10
2.03437e-09
1.96554e-10
1.91462e-09
1.68182e-10
1.80525e-09
1.53304e-10
1.7092e-09
1.31996e-10
1.62622e-09
1.1196e-10
1.55129e-09
1.01195e-10
1.48799e-09
8.29691e-11
1.43242e-09
7.23149e-11
1.38309e-09
6.36656e-11
1.34039e-09
5.33982e-11
1.30231e-09
4.70553e-11
1.26744e-09
4.30238e-11
1.2359e-09
3.80406e-11
1.207e-09
3.44357e-11
1.17997e-09
3.2092e-11
1.15489e-09
2.93613e-11
1.13157e-09
2.69764e-11
1.11004e-09
2.45481e-11
1.09076e-09
2.11899e-11
1.07323e-09
1.89911e-11
1.05729e-09
1.70267e-11
1.04401e-09
1.2777e-11
1.03216e-09
1.11543e-11
1.02134e-09
1.02957e-11
1.01267e-09
6.48064e-12
1.00463e-09
6.28611e-12
9.96808e-10
6.4632e-12
9.9072e-10
3.25176e-12
9.83684e-10
6.1205e-12
9.78873e-10
1.71649e-12
9.73184e-10
4.74526e-12
9.70163e-10
-8.45883e-14
9.66724e-10
2.70168e-12
9.66904e-10
-3.74812e-12
9.68291e-10
-2.88792e-12
9.72777e-10
-8.4262e-12
9.80402e-10
-1.16833e-11
9.9217e-10
-1.55495e-11
1.00955e-09
-2.398e-11
1.03077e-09
-2.73252e-11
1.05873e-09
-3.75074e-11
1.09164e-09
-4.31407e-11
1.13082e-09
-5.20269e-11
1.17586e-09
-5.989e-11
1.22674e-09
-6.83152e-11
1.28287e-09
-7.55033e-11
1.34457e-09
-8.41684e-11
1.4094e-09
-8.81571e-11
1.47977e-09
-9.81075e-11
1.5516e-09
-9.99744e-11
1.62533e-09
-1.03443e-10
1.70057e-09
-1.06871e-10
1.77471e-09
-1.05508e-10
1.84776e-09
-1.04711e-10
1.9194e-09
-1.03813e-10
1.98741e-09
-9.91979e-11
2.05205e-09
-9.40343e-11
2.11357e-09
-9.01626e-11
2.17096e-09
-8.39261e-11
2.22453e-09
-7.82604e-11
2.2745e-09
-7.28494e-11
2.32111e-09
-6.73439e-11
2.36562e-09
-6.40389e-11
2.4092e-09
-6.32e-11
2.45042e-09
-5.80447e-11
2.49216e-09
-5.87923e-11
2.53685e-09
-6.44817e-11
2.58074e-09
-6.128e-11
2.62832e-09
-6.70401e-11
2.68067e-09
-7.73236e-11
2.73076e-09
-6.9566e-11
2.78638e-09
-8.19023e-11
2.84058e-09
-7.78193e-11
2.89421e-09
-7.81803e-11
2.94417e-09
-7.2369e-11
2.98607e-09
-5.97615e-11
3.01694e-09
-4.13745e-11
3.03368e-09
-2.10462e-11
3.02741e-09
1.98692e-11
3.00527e-09
3.75073e-11
2.95045e-09
9.9573e-11
2.87591e-09
1.23146e-10
2.7766e-09
1.61719e-10
2.65384e-09
1.97038e-10
2.52008e-09
2.06374e-10
2.36617e-09
2.39359e-10
2.21314e-09
2.28283e-10
2.05115e-09
2.42823e-10
1.89703e-09
2.23343e-10
1.74212e-09
2.25414e-10
1.59818e-09
2.04165e-10
1.45952e-09
1.9841e-10
1.33733e-09
1.74824e-10
1.23414e-09
1.51499e-10
1.23454e-09
-3.21641e-11
1.27081e-09
-7.29855e-11
1.32499e-09
-9.18955e-11
1.38983e-09
-1.03436e-10
1.47406e-09
-1.35893e-10
1.57436e-09
-1.61344e-10
1.69702e-09
-2.07852e-10
1.8075e-09
-1.79548e-10
1.89683e-09
-1.35135e-10
1.97268e-09
-1.10049e-10
2.04106e-09
-9.70259e-11
2.10585e-09
-9.10205e-11
2.16885e-09
-8.82895e-11
2.23035e-09
-8.63293e-11
2.28969e-09
-8.35657e-11
2.3457e-09
-7.91435e-11
2.39704e-09
-7.27836e-11
2.44251e-09
-6.46058e-11
2.48122e-09
-5.50489e-11
2.5127e-09
-4.49768e-11
2.53689e-09
-3.46788e-11
2.55414e-09
-2.4846e-11
2.56514e-09
-1.60169e-11
2.57074e-09
-8.51303e-12
2.572e-09
-2.35221e-12
2.57035e-09
1.7974e-12
2.56676e-09
4.54115e-12
2.56232e-09
5.77717e-12
2.55789e-09
5.68102e-12
2.55426e-09
4.50474e-12
2.55195e-09
2.53861e-12
2.5514e-09
-6.28683e-14
2.55286e-09
-2.90616e-12
2.55628e-09
-5.79643e-12
2.5615e-09
-8.4965e-12
2.56823e-09
-1.07844e-11
2.57607e-09
-1.24781e-11
2.58456e-09
-1.34077e-11
2.59318e-09
-1.33737e-11
-1.12453e-11
4.24308e-09
1.88896e-10
4.43924e-09
4.91082e-10
4.53895e-09
6.0181e-10
4.54541e-09
6.09267e-10
4.48106e-09
5.59264e-10
4.37565e-09
4.8007e-10
4.25386e-09
3.93777e-10
4.13473e-09
3.1426e-10
4.02957e-09
2.46118e-10
3.94048e-09
1.92839e-10
3.86593e-09
1.53537e-10
3.8034e-09
1.25397e-10
3.75004e-09
1.05917e-10
3.70337e-09
9.26956e-11
3.66152e-09
8.37559e-11
3.62306e-09
7.77804e-11
3.58695e-09
7.3933e-11
3.55234e-09
7.17306e-11
3.51858e-09
7.09084e-11
3.48503e-09
7.13591e-11
3.45111e-09
7.30781e-11
3.41621e-09
7.612e-11
3.37969e-09
8.05806e-11
3.34085e-09
8.6591e-11
3.29895e-09
9.43215e-11
3.25315e-09
1.03992e-10
3.2025e-09
1.1589e-10
3.14593e-09
1.30406e-10
3.08219e-09
1.4808e-10
3.00982e-09
1.69692e-10
2.92711e-09
1.964e-10
2.83213e-09
2.29959e-10
2.7227e-09
2.73396e-10
2.5938e-09
3.48613e-10
2.47425e-09
3.09178e-10
2.40376e-09
1.40479e-10
2.38348e-09
1.39044e-11
2.40657e-09
-6.88508e-11
2.4708e-09
-1.48445e-10
2.5761e-09
-2.40958e-10
2.72415e-09
-3.71848e-10
2.89045e-09
-4.14312e-10
3.06102e-09
-3.99494e-10
3.22838e-09
-3.81645e-10
3.3867e-09
-3.52356e-10
3.53658e-09
-3.32057e-10
3.67911e-09
-3.19904e-10
3.80835e-09
-2.83466e-10
3.93247e-09
-2.74539e-10
4.04411e-09
-2.47129e-10
4.1433e-09
-2.14412e-10
4.23033e-09
-1.90606e-10
4.30015e-09
-1.3764e-10
4.35398e-09
-1.06244e-10
4.38688e-09
-3.98752e-11
4.39762e-09
1.10725e-11
4.38443e-09
7.5813e-11
4.3434e-09
1.51471e-10
4.2795e-09
1.95153e-10
4.18332e-09
2.89204e-10
4.06666e-09
3.17572e-10
3.92717e-09
3.65623e-10
3.77139e-09
3.90682e-10
3.60614e-09
3.9266e-10
3.43332e-09
4.02079e-10
3.26314e-09
3.73822e-10
3.09485e-09
3.64852e-10
2.93665e-09
3.26383e-10
2.78769e-09
3.02254e-10
2.65077e-09
2.68879e-10
2.52708e-09
2.35614e-10
2.4135e-09
2.14729e-10
2.31241e-09
1.84017e-10
2.22108e-09
1.63605e-10
2.138e-09
1.46711e-10
2.06302e-09
1.28353e-10
1.99433e-09
1.1574e-10
1.93053e-09
1.06822e-10
1.87109e-09
9.75053e-11
1.81524e-09
9.03007e-11
1.76212e-09
8.52368e-11
1.71159e-09
7.99219e-11
1.66341e-09
7.51719e-11
1.6176e-09
7.03708e-11
1.57454e-09
6.42554e-11
1.5341e-09
5.94398e-11
1.49624e-09
5.48856e-11
1.46162e-09
4.73861e-11
1.42962e-09
4.31567e-11
1.40005e-09
3.98574e-11
1.37301e-09
3.35087e-11
1.34802e-09
3.12719e-11
1.32456e-09
2.99112e-11
1.30303e-09
2.47762e-11
1.28282e-09
2.63236e-11
1.26471e-09
1.98217e-11
1.24857e-09
2.08896e-11
1.23516e-09
1.33146e-11
1.22508e-09
1.27828e-11
1.22001e-09
1.31959e-12
1.21946e-09
-2.33353e-12
1.22625e-09
-1.52178e-11
1.24003e-09
-2.54682e-11
1.26183e-09
-3.73487e-11
1.29286e-09
-5.50102e-11
1.33251e-09
-6.69737e-11
1.38212e-09
-8.71114e-11
1.44071e-09
-1.01734e-10
1.50839e-09
-1.19707e-10
1.58461e-09
-1.36105e-10
1.6685e-09
-1.52211e-10
1.75932e-09
-1.66323e-10
1.85628e-09
-1.8114e-10
1.95717e-09
-1.89056e-10
2.06232e-09
-2.03266e-10
2.16896e-09
-2.06629e-10
2.27641e-09
-2.10908e-10
2.38364e-09
-2.14128e-10
2.48862e-09
-2.10514e-10
2.5907e-09
-2.06826e-10
2.6892e-09
-2.02344e-10
2.78258e-09
-1.92612e-10
2.87073e-09
-1.82216e-10
2.95367e-09
-1.73126e-10
3.03093e-09
-1.61209e-10
3.1029e-09
-1.50256e-10
3.16999e-09
-1.39961e-10
3.2328e-09
-1.30174e-10
3.29249e-09
-1.23742e-10
3.35005e-09
-1.20761e-10
3.40541e-09
-1.13388e-10
3.46026e-09
-1.13613e-10
3.51713e-09
-1.213e-10
3.57366e-09
-1.17753e-10
3.63275e-09
-1.26059e-10
3.69446e-09
-1.38958e-10
3.75548e-09
-1.30512e-10
3.81883e-09
-1.45208e-10
3.88101e-09
-1.39975e-10
3.94067e-09
-1.3784e-10
3.99584e-09
-1.27573e-10
4.04206e-09
-1.06026e-10
4.07727e-09
-7.66513e-11
4.09758e-09
-4.14039e-11
4.09784e-09
1.95713e-11
4.07896e-09
5.63637e-11
4.03186e-09
1.46662e-10
3.96143e-09
1.93577e-10
3.86519e-09
2.57958e-10
3.74223e-09
3.20003e-10
3.60082e-09
3.47781e-10
3.43519e-09
4.04977e-10
3.25973e-09
4.03743e-10
3.06936e-09
4.33185e-10
2.87716e-09
4.1554e-10
2.67917e-09
4.23405e-10
2.48618e-09
3.97142e-10
2.29778e-09
3.8679e-10
2.13105e-09
3.4152e-10
1.98674e-09
2.9579e-10
1.93494e-09
1.96184e-11
1.93221e-09
-7.02646e-11
1.96278e-09
-1.22465e-10
2.01651e-09
-1.57161e-10
2.09619e-09
-2.15573e-10
2.19539e-09
-2.60541e-10
2.31433e-09
-3.26789e-10
2.42921e-09
-2.94428e-10
2.53275e-09
-2.38676e-10
2.62809e-09
-2.05394e-10
2.71828e-09
-1.87213e-10
2.80552e-09
-1.78261e-10
2.89078e-09
-1.73554e-10
2.97388e-09
-1.69429e-10
3.05379e-09
-1.6348e-10
3.12903e-09
-1.5438e-10
3.19796e-09
-1.41709e-10
3.2591e-09
-1.25752e-10
3.31138e-09
-1.07325e-10
3.35399e-09
-8.75934e-11
3.38693e-09
-6.76109e-11
3.41057e-09
-4.84857e-11
3.42571e-09
-3.11655e-11
3.43353e-09
-1.63339e-11
3.4356e-09
-4.41768e-12
3.43312e-09
4.27315e-12
3.42779e-09
9.87668e-12
3.421e-09
1.25617e-11
3.41402e-09
1.26646e-11
3.40788e-09
1.06364e-11
3.40344e-09
6.98494e-12
3.40116e-09
2.21461e-12
3.40135e-09
-3.095e-12
3.40403e-09
-8.48024e-12
3.40902e-09
-1.34881e-11
3.41597e-09
-1.77309e-11
3.42439e-09
-2.09038e-11
3.43376e-09
-2.27736e-11
3.44359e-09
-2.32107e-11
-2.10534e-11
4.17127e-09
1.17623e-10
4.33282e-09
3.29529e-10
4.48157e-09
4.53058e-10
4.58756e-09
5.03279e-10
4.64436e-09
5.02464e-10
4.65402e-09
4.70412e-10
4.62816e-09
4.19629e-10
4.58167e-09
3.6075e-10
4.52371e-09
3.04083e-10
4.46169e-09
2.54853e-10
4.40206e-09
2.13173e-10
4.34732e-09
1.80131e-10
4.29755e-09
1.55689e-10
4.25224e-09
1.38011e-10
4.21062e-09
1.25372e-10
4.17185e-09
1.16549e-10
4.13516e-09
1.10621e-10
4.09984e-09
1.07049e-10
4.0653e-09
1.05453e-10
4.03096e-09
1.05698e-10
3.99626e-09
1.07774e-10
3.96063e-09
1.11751e-10
3.92345e-09
1.17761e-10
3.88405e-09
1.25983e-10
3.84173e-09
1.36647e-10
3.79567e-09
1.50046e-10
3.74501e-09
1.66552e-10
3.68876e-09
1.86649e-10
3.62586e-09
2.10983e-10
3.55512e-09
2.4043e-10
3.4753e-09
2.76216e-10
3.38523e-09
3.20035e-10
3.28405e-09
3.74576e-10
3.16938e-09
4.63282e-10
3.06006e-09
4.18498e-10
2.98586e-09
2.14684e-10
2.95638e-09
4.33799e-11
2.97323e-09
-8.57177e-11
3.0354e-09
-2.10644e-10
3.13885e-09
-3.44447e-10
3.27876e-09
-5.11791e-10
3.43682e-09
-5.72382e-10
3.60388e-09
-5.66537e-10
3.76987e-09
-5.47598e-10
3.92866e-09
-5.11102e-10
4.07895e-09
-4.8231e-10
4.22086e-09
-4.61795e-10
4.35157e-09
-4.14166e-10
4.47442e-09
-3.97395e-10
4.58578e-09
-3.58493e-10
4.6862e-09
-3.14845e-10
4.77442e-09
-2.78845e-10
4.84941e-09
-2.1263e-10
4.90985e-09
-1.66697e-10
4.95399e-09
-8.40182e-11
4.98047e-09
-1.54059e-11
4.98742e-09
6.88629e-11
4.9726e-09
1.66281e-10
4.93724e-09
2.30513e-10
4.87651e-09
3.49933e-10
4.79433e-09
3.99741e-10
4.6891e-09
4.70857e-10
4.56418e-09
5.15607e-10
4.42317e-09
5.3368e-10
4.26881e-09
5.56449e-10
4.10743e-09
5.35219e-10
3.94119e-09
5.31094e-10
3.77621e-09
4.91358e-10
3.61454e-09
4.63903e-10
3.45921e-09
4.24187e-10
3.3128e-09
3.81991e-10
3.17426e-09
3.53233e-10
3.04596e-09
3.12272e-10
2.92662e-09
2.82917e-10
2.81539e-09
2.57919e-10
2.71221e-09
2.3152e-10
2.61569e-09
2.12261e-10
2.52483e-09
1.97697e-10
2.43888e-09
1.83481e-10
2.35716e-09
1.7204e-10
2.27878e-09
1.63641e-10
2.20352e-09
1.55207e-10
2.13113e-09
1.47579e-10
2.06162e-09
1.39893e-10
1.99539e-09
1.30486e-10
1.93257e-09
1.22264e-10
1.87332e-09
1.14126e-10
1.81847e-09
1.02236e-10
1.76766e-09
9.3956e-11
1.72103e-09
8.64762e-11
1.67873e-09
7.58095e-11
1.64044e-09
6.95549e-11
1.60561e-09
6.47303e-11
1.57487e-09
5.55167e-11
1.54717e-09
5.40223e-11
1.52382e-09
4.31635e-11
1.50402e-09
4.06877e-11
1.4895e-09
2.78352e-11
1.47985e-09
2.24278e-11
1.4776e-09
3.56979e-12
1.4824e-09
-7.13304e-12
1.49644e-09
-2.92653e-11
1.51991e-09
-4.89316e-11
1.55376e-09
-7.12046e-11
1.59909e-09
-1.00339e-10
1.65518e-09
-1.23056e-10
1.72295e-09
-1.54882e-10
1.80124e-09
-1.80027e-10
1.8896e-09
-2.08066e-10
1.98718e-09
-2.33687e-10
2.09256e-09
-2.5759e-10
2.20465e-09
-2.78409e-10
2.32199e-09
-2.98491e-10
2.44258e-09
-3.0965e-10
2.5658e-09
-3.2649e-10
2.6892e-09
-3.3004e-10
2.81172e-09
-3.33441e-10
2.9322e-09
-3.34626e-10
3.04896e-09
-3.27301e-10
3.16124e-09
-3.19131e-10
3.26843e-09
-3.09566e-10
3.3695e-09
-2.93714e-10
3.46444e-09
-2.77186e-10
3.55328e-09
-2.6199e-10
3.63599e-09
-2.43945e-10
3.71309e-09
-2.27375e-10
3.78512e-09
-2.1201e-10
3.85285e-09
-1.97925e-10
3.91731e-09
-1.88215e-10
3.97933e-09
-1.82801e-10
4.03924e-09
-1.73294e-10
4.09779e-09
-1.72143e-10
4.15859e-09
-1.82078e-10
4.21869e-09
-1.77802e-10
4.27978e-09
-1.87091e-10
4.34144e-09
-2.00543e-10
4.40316e-09
-1.92161e-10
4.46472e-09
-2.06695e-10
4.52485e-09
-2.00066e-10
4.58127e-09
-1.94232e-10
4.63312e-09
-1.7944e-10
4.67664e-09
-1.49576e-10
4.71089e-09
-1.10955e-10
4.73209e-09
-6.26629e-11
4.73823e-09
1.33845e-11
4.72708e-09
6.74781e-11
4.69522e-09
1.78502e-10
4.64196e-09
2.46827e-10
4.56643e-09
3.33493e-10
4.46586e-09
4.20573e-10
4.34482e-09
4.68822e-10
4.1988e-09
5.51e-10
4.03603e-09
5.66509e-10
3.85324e-09
6.15975e-10
3.65933e-09
6.09443e-10
3.45233e-09
6.30407e-10
3.24248e-09
6.0698e-10
3.03132e-09
5.97933e-10
2.84252e-09
5.30308e-10
2.67336e-09
4.64924e-10
2.57855e-09
1.14425e-10
2.53295e-09
-2.46623e-11
2.52798e-09
-1.17498e-10
2.55584e-09
-1.85016e-10
2.6168e-09
-2.76541e-10
2.7016e-09
-3.45341e-10
2.80697e-09
-4.32152e-10
2.91477e-09
-4.02224e-10
3.01883e-09
-3.42736e-10
3.11984e-09
-3.06408e-10
3.21853e-09
-2.85907e-10
3.31537e-09
-2.751e-10
3.41025e-09
-2.68435e-10
3.50243e-09
-2.61606e-10
3.59063e-09
-2.51688e-10
3.6733e-09
-2.3705e-10
3.7488e-09
-2.17209e-10
3.81567e-09
-1.92623e-10
3.8728e-09
-1.64452e-10
3.91949e-09
-1.34281e-10
3.95565e-09
-1.03769e-10
3.98167e-09
-7.45114e-11
3.9984e-09
-4.78972e-11
4.00707e-09
-2.49964e-11
4.00916e-09
-6.51537e-12
4.00626e-09
7.17992e-12
4.00003e-09
1.61034e-11
3.99205e-09
2.05434e-11
3.98371e-09
2.1002e-11
3.97619e-09
1.81484e-11
3.97042e-09
1.27539e-11
3.967e-09
5.63387e-12
3.96629e-09
-2.38157e-12
3.96833e-09
-1.05255e-11
3.97296e-09
-1.81114e-11
3.97979e-09
-2.4566e-11
3.98835e-09
-2.94588e-11
3.99807e-09
-3.2498e-11
4.00847e-09
-3.36149e-11
-3.16362e-11
4.14026e-09
7.7361e-11
4.24638e-09
2.23405e-10
4.3725e-09
3.26944e-10
4.49117e-09
3.84607e-10
4.58638e-09
4.07251e-10
4.65298e-09
4.03807e-10
4.69204e-09
3.80575e-10
4.70623e-09
3.46562e-10
4.70152e-09
3.08788e-10
4.6851e-09
2.71271e-10
4.66103e-09
2.37242e-10
4.63266e-09
2.08506e-10
4.6026e-09
1.85746e-10
4.57259e-09
1.6802e-10
4.54319e-09
1.54775e-10
4.51443e-09
1.45311e-10
4.4862e-09
1.3885e-10
4.45814e-09
1.35102e-10
4.42999e-09
1.33606e-10
4.40138e-09
1.34311e-10
4.37191e-09
1.3724e-10
4.34116e-09
1.42503e-10
4.30864e-09
1.50279e-10
4.27382e-09
1.60802e-10
4.2361e-09
1.7436e-10
4.19484e-09
1.91311e-10
4.1493e-09
2.12092e-10
4.09869e-09
2.37251e-10
4.04219e-09
2.67486e-10
3.97892e-09
3.03694e-10
3.90808e-09
3.47055e-10
3.82904e-09
3.99079e-10
3.74163e-09
4.61985e-10
3.64496e-09
5.59948e-10
3.55131e-09
5.12158e-10
3.48183e-09
2.84163e-10
3.44922e-09
7.59921e-11
3.45975e-09
-9.62498e-11
3.51341e-09
-2.64322e-10
3.60451e-09
-4.35576e-10
3.72584e-09
-6.33166e-10
3.86408e-09
-7.10654e-10
4.01349e-09
-7.15954e-10
4.16286e-09
-6.96951e-10
4.3058e-09
-6.54014e-10
4.44064e-09
-6.17111e-10
4.56704e-09
-5.88161e-10
4.68576e-09
-5.32872e-10
4.79319e-09
-5.04818e-10
4.89173e-09
-4.57037e-10
4.98125e-09
-4.04368e-10
5.06027e-09
-3.57875e-10
5.12958e-09
-2.81955e-10
5.18737e-09
-2.24495e-10
5.23407e-09
-1.3072e-10
5.26795e-09
-4.92922e-11
5.28847e-09
4.83445e-11
5.29426e-09
1.60485e-10
5.28446e-09
2.40311e-10
5.25751e-09
3.76884e-10
5.21271e-09
4.44536e-10
5.14861e-09
5.3496e-10
5.06611e-09
5.98108e-10
4.96583e-09
6.33967e-10
4.84993e-09
6.7237e-10
4.72069e-09
6.64465e-10
4.58117e-09
6.70613e-10
4.43483e-09
6.3769e-10
4.28499e-09
6.13725e-10
4.13428e-09
5.74871e-10
3.98605e-09
5.3019e-10
3.84082e-09
4.98439e-10
3.70122e-09
4.5184e-10
3.56745e-09
4.16668e-10
3.43952e-09
3.85844e-10
3.3179e-09
3.53139e-10
3.20192e-09
3.28252e-10
3.09124e-09
3.08391e-10
2.98533e-09
2.89424e-10
2.88383e-09
2.73565e-10
2.786e-09
2.61492e-10
2.69169e-09
2.49528e-10
2.60072e-09
2.38567e-10
2.5131e-09
2.27511e-10
2.42929e-09
2.14296e-10
2.34956e-09
2.01991e-10
2.27428e-09
1.89402e-10
2.2045e-09
1.72001e-10
2.14015e-09
1.58306e-10
2.08174e-09
1.44881e-10
2.0296e-09
1.27942e-10
1.9837e-09
1.15454e-10
1.9435e-09
1.04919e-10
1.90987e-09
8.91455e-11
1.88142e-09
8.24674e-11
1.85974e-09
6.48466e-11
1.84343e-09
5.69956e-11
1.83452e-09
3.67471e-11
1.8319e-09
2.50426e-11
1.83825e-09
-2.7799e-12
1.85281e-09
-2.16926e-11
1.87784e-09
-5.42991e-11
1.91304e-09
-8.41277e-11
1.95932e-09
-1.1749e-10
2.01758e-09
-1.5859e-10
2.08673e-09
-1.92212e-10
2.16753e-09
-2.35679e-10
2.25849e-09
-2.70989e-10
2.35878e-09
-3.08351e-10
2.46737e-09
-3.42281e-10
2.58241e-09
-3.72626e-10
2.70267e-09
-3.98666e-10
2.82635e-09
-4.22167e-10
2.95153e-09
-4.34831e-10
3.07727e-09
-4.52237e-10
3.20137e-09
-4.54145e-10
3.32272e-09
-4.54799e-10
3.44028e-09
-4.52204e-10
3.55275e-09
-4.39787e-10
3.6595e-09
-4.25904e-10
3.76023e-09
-4.10314e-10
3.85433e-09
-3.87841e-10
3.94208e-09
-3.64967e-10
4.02366e-09
-3.43595e-10
4.09942e-09
-3.19729e-10
4.17001e-09
-2.97994e-10
4.2361e-09
-2.7812e-10
4.29855e-09
-2.60387e-10
4.3582e-09
-2.47886e-10
4.41565e-09
-2.40274e-10
4.4719e-09
-2.29555e-10
4.52689e-09
-2.27138e-10
4.58348e-09
-2.38659e-10
4.63861e-09
-2.32908e-10
4.69459e-09
-2.43036e-10
4.74975e-09
-2.55642e-10
4.8054e-09
-2.47751e-10
4.85908e-09
-2.6031e-10
4.91121e-09
-2.52132e-10
4.9592e-09
-2.42184e-10
5.00314e-09
-2.23363e-10
5.04007e-09
-1.86523e-10
5.07005e-09
-1.40966e-10
5.08984e-09
-8.25005e-11
5.09943e-09
3.74586e-12
5.09549e-09
7.13894e-11
5.07846e-09
1.95503e-10
5.04434e-09
2.80942e-10
4.99335e-09
3.84477e-10
4.92194e-09
4.91993e-10
4.83186e-09
5.58901e-10
4.71924e-09
6.63622e-10
4.58732e-09
6.98426e-10
4.43335e-09
7.69954e-10
4.26205e-09
7.80738e-10
4.07201e-09
8.20441e-10
3.87066e-09
8.08324e-10
3.66169e-09
8.06893e-10
3.47219e-09
7.19803e-10
3.29734e-09
6.3976e-10
3.17788e-09
2.33888e-10
3.10227e-09
5.09487e-11
3.06825e-09
-8.34733e-11
3.07214e-09
-1.8891e-10
3.11461e-09
-3.19008e-10
3.18489e-09
-4.15616e-10
3.27747e-09
-5.24732e-10
3.37671e-09
-5.01464e-10
3.47669e-09
-4.42719e-10
3.57667e-09
-4.06384e-10
3.67591e-09
-3.85152e-10
3.7737e-09
-3.72887e-10
3.86913e-09
-3.63872e-10
3.96108e-09
-3.53555e-10
4.04819e-09
-3.38797e-10
4.129e-09
-3.17862e-10
4.20209e-09
-2.90303e-10
4.26624e-09
-2.56771e-10
4.32055e-09
-2.1876e-10
4.36455e-09
-1.78284e-10
4.39827e-09
-1.3749e-10
4.42217e-09
-9.84122e-11
4.43711e-09
-6.28346e-11
4.44429e-09
-3.21718e-11
4.44515e-09
-7.38084e-12
4.44127e-09
1.10557e-11
4.43426e-09
2.31189e-11
4.42563e-09
2.91728e-11
4.41675e-09
2.98763e-11
4.40879e-09
2.61124e-11
4.40263e-09
1.89088e-11
4.3989e-09
9.36215e-12
4.39794e-09
-1.42229e-12
4.39982e-09
-1.24031e-11
4.40437e-09
-2.26599e-11
4.41124e-09
-3.14368e-11
4.41996e-09
-3.81826e-11
4.43e-09
-4.25435e-11
4.4409e-09
-4.45103e-11
-4.281e-11
4.12522e-09
5.21403e-11
4.19508e-09
1.53547e-10
4.29009e-09
2.31928e-10
4.39225e-09
2.82448e-10
4.48976e-09
3.09743e-10
4.57488e-09
3.18692e-10
4.64262e-09
3.1283e-10
4.69251e-09
2.96674e-10
4.72659e-09
2.74708e-10
4.74753e-09
2.50335e-10
4.75737e-09
2.27395e-10
4.75875e-09
2.07129e-10
4.75504e-09
1.8945e-10
4.74774e-09
1.75322e-10
4.73778e-09
1.64737e-10
4.72587e-09
1.57215e-10
4.71243e-09
1.52292e-10
4.69759e-09
1.49942e-10
4.68134e-09
1.49854e-10
4.66359e-09
1.52063e-10
4.64416e-09
1.56666e-10
4.62283e-09
1.63836e-10
4.59929e-09
1.73815e-10
4.5732e-09
1.86894e-10
4.54414e-09
2.03423e-10
4.51163e-09
2.23816e-10
4.47516e-09
2.48565e-10
4.43414e-09
2.78262e-10
4.388e-09
3.13624e-10
4.33617e-09
3.55531e-10
4.27815e-09
4.05074e-10
4.21367e-09
4.63554e-10
4.14291e-09
5.32744e-10
4.06587e-09
6.36986e-10
3.98996e-09
5.88079e-10
3.92903e-09
3.4509e-10
3.89647e-09
1.08556e-10
3.90102e-09
-1.00794e-10
3.94319e-09
-3.06499e-10
4.01682e-09
-5.09221e-10
4.11442e-09
-7.30801e-10
4.22708e-09
-8.23352e-10
4.35176e-09
-8.40661e-10
4.47665e-09
-8.21838e-10
4.59542e-09
-7.72775e-10
4.70646e-09
-7.2812e-10
4.80954e-09
-6.91214e-10
4.90607e-09
-6.29379e-10
4.99239e-09
-5.91123e-10
5.07118e-09
-5.35832e-10
5.14277e-09
-4.75952e-10
5.20599e-09
-4.21104e-10
5.26281e-09
-3.38788e-10
5.31135e-09
-2.73039e-10
5.35353e-09
-1.72899e-10
5.38753e-09
-8.32942e-11
5.41441e-09
2.1465e-11
5.43288e-09
1.4201e-10
5.43985e-09
2.33335e-10
5.43763e-09
3.79104e-10
5.4238e-09
4.58359e-10
5.39618e-09
5.62579e-10
5.35436e-09
6.3993e-10
5.29685e-09
6.91486e-10
5.22482e-09
7.44404e-10
5.13733e-09
7.51959e-10
5.03727e-09
7.70675e-10
4.92532e-09
7.49628e-10
4.80484e-09
7.34183e-10
4.67742e-09
7.02271e-10
4.54632e-09
6.6127e-10
4.41279e-09
6.31954e-10
4.27936e-09
5.85256e-10
4.14749e-09
5.48525e-10
4.01779e-09
5.15549e-10
3.89128e-09
4.79655e-10
3.76817e-09
4.51378e-10
3.64891e-09
4.27681e-10
3.53334e-09
4.05014e-10
3.42168e-09
3.85248e-10
3.31351e-09
3.69675e-10
3.20893e-09
3.54118e-10
3.10788e-09
3.39619e-10
3.01047e-09
3.24921e-10
2.91717e-09
3.07594e-10
2.82833e-09
2.90829e-10
2.7444e-09
2.73327e-10
2.66665e-09
2.49739e-10
2.59514e-09
2.29811e-10
2.53078e-09
2.09236e-10
2.47412e-09
1.84604e-10
2.42546e-09
1.64108e-10
2.38435e-09
1.4603e-10
2.35199e-09
1.21505e-10
2.3267e-09
1.07757e-10
2.31032e-09
8.12243e-11
2.30089e-09
6.64279e-11
2.30052e-09
3.71128e-11
2.30732e-09
1.82401e-11
2.32459e-09
-2.00523e-11
2.34986e-09
-4.69542e-11
2.38602e-09
-9.04634e-11
2.43202e-09
-1.30127e-10
2.48867e-09
-1.74136e-10
2.55645e-09
-2.26368e-10
2.63406e-09
-2.69822e-10
2.7219e-09
-3.23516e-10
2.81834e-09
-3.67436e-10
2.92217e-09
-4.12174e-10
3.03235e-09
-4.52455e-10
3.14667e-09
-4.86945e-10
3.26399e-09
-5.15983e-10
3.3823e-09
-5.40475e-10
3.49994e-09
-5.52466e-10
3.61584e-09
-5.6814e-10
3.72819e-09
-5.66494e-10
3.83601e-09
-5.62616e-10
3.93851e-09
-5.54712e-10
4.03481e-09
-5.361e-10
4.12458e-09
-5.15686e-10
4.20787e-09
-4.93627e-10
4.28454e-09
-4.64531e-10
4.35518e-09
-4.35628e-10
4.42015e-09
-4.08599e-10
4.48015e-09
-3.7975e-10
4.53596e-09
-3.53825e-10
4.58832e-09
-3.30498e-10
4.63811e-09
-3.10198e-10
4.68604e-09
-2.95832e-10
4.73253e-09
-2.86788e-10
4.7789e-09
-2.75948e-10
4.82533e-09
-2.73588e-10
4.87096e-09
-2.84296e-10
4.91616e-09
-2.78109e-10
4.96244e-09
-2.89291e-10
5.00714e-09
-3.00314e-10
5.05218e-09
-2.92743e-10
5.09448e-09
-3.02554e-10
5.13539e-09
-2.92982e-10
5.17237e-09
-2.79111e-10
5.20614e-09
-2.57109e-10
5.23453e-09
-2.149e-10
5.2583e-09
-1.64756e-10
5.27475e-09
-9.89809e-11
5.28576e-09
-7.29817e-12
5.28702e-09
7.00981e-11
5.28177e-09
2.00731e-10
5.26406e-09
2.98642e-10
5.23531e-09
4.13229e-10
5.19198e-09
5.35324e-10
5.13386e-09
6.17027e-10
5.0576e-09
7.39886e-10
4.96296e-09
7.93064e-10
4.84734e-09
8.85575e-10
4.71193e-09
9.16154e-10
4.55523e-09
9.77135e-10
4.37916e-09
9.84393e-10
4.19398e-09
9.92063e-10
4.02273e-09
8.91051e-10
3.86066e-09
8.01826e-10
3.73613e-09
3.58424e-10
3.64815e-09
1.38936e-10
3.59899e-09
-3.43058e-11
3.58872e-09
-1.78646e-10
3.61932e-09
-3.49602e-10
3.6794e-09
-4.75696e-10
3.76199e-09
-6.07327e-10
3.85321e-09
-5.92678e-10
3.94722e-09
-5.36732e-10
4.04231e-09
-5.0147e-10
4.13684e-09
-4.7969e-10
4.22942e-09
-4.65467e-10
4.31874e-09
-4.53188e-10
4.40352e-09
-4.38341e-10
4.48254e-09
-4.17815e-10
4.5546e-09
-3.89928e-10
4.61864e-09
-3.54342e-10
4.67378e-09
-3.11912e-10
4.71948e-09
-2.64461e-10
4.75561e-09
-2.14411e-10
4.78242e-09
-1.64297e-10
4.80049e-09
-1.1648e-10
4.8107e-09
-7.30485e-11
4.81423e-09
-3.56958e-11
4.81242e-09
-5.57405e-12
4.80672e-09
1.67507e-11
4.79858e-09
3.12622e-11
4.78935e-09
3.84043e-11
4.78023e-09
3.8987e-11
4.77225e-09
3.40935e-11
4.76618e-09
2.49836e-11
4.76253e-09
1.30042e-11
4.7616e-09
-4.92061e-13
4.76343e-09
-1.423e-11
4.76785e-09
-2.7086e-11
4.77456e-09
-3.81471e-11
4.78314e-09
-4.67603e-11
4.79311e-09
-5.25139e-11
4.80407e-09
-5.54688e-11
-5.41655e-11
4.11722e-09
3.49177e-11
4.16711e-09