/*--------------------------------*- C++ -*----------------------------------*\
| =========                 |                                                 |
| \\      /  F ield         | OpenFOAM: The Open Source CFD Toolbox           |
|  \\    /   O peration     | Version:  2506                                  |
|   \\  /    A nd           | Website:  www.openfoam.com                      |
|    \\/     M anipulation  |                                                 |
\*---------------------------------------------------------------------------*/
FoamFile
{
    version     2.0;
    format      ascii;
    arch        "LSB;label=32;scalar=64";
    class       volVectorField;
    location    "1.6";
    object      U;
}
// * * * * * * * * * * * * * * * * * * * * * * * * * * * * * * * * * * * * * //

dimensions      [0 1 -1 0 0 0 0];

internalField   nonuniform List<vector> 
4000
(
(0.0138099 0.00104566 0)
(0.0124435 0.00142924 -3.88205e-21)
(0.010387 0.000974341 4.05383e-21)
(0.0084019 0.000525022 8.22628e-21)
(0.00715064 0.000266138 -1.68137e-20)
(0.00641741 0.000132837 8.51855e-21)
(0.00595543 6.90356e-05 0)
(0.00565455 4.02546e-05 0)
(0.005458 2.79207e-05 0)
(0.0053258 2.31287e-05 1.70274e-20)
(0.00523148 2.18799e-05 -1.70608e-20)
(0.0051593 2.22537e-05 3.38588e-20)
(0.0051001 2.33928e-05 -3.38971e-20)
(0.00504843 2.49066e-05 0)
(0.00500104 2.6588e-05 0)
(0.00495595 2.83581e-05 0)
(0.00491188 3.01789e-05 3.32365e-20)
(0.00486791 3.20535e-05 -3.32611e-20)
(0.00482325 3.40009e-05 0)
(0.00477714 3.60439e-05 0)
(0.00472881 3.82081e-05 0)
(0.00467739 4.05188e-05 0)
(0.00462196 4.30009e-05 0)
(0.00456144 4.56804e-05 6.47748e-20)
(0.00449463 4.85888e-05 -1.29408e-19)
(0.00442015 5.17675e-05 6.46411e-20)
(0.00433635 5.52777e-05 0)
(0.00424126 5.92181e-05 0)
(0.00413242 6.3767e-05 0)
(0.00400654 6.92376e-05 0)
(0.00385894 7.62565e-05 -6.36904e-20)
(0.0036827 8.64183e-05 6.3871e-20)
(0.00347408 9.97427e-05 0)
(0.00315719 0.000126674 5.58044e-20)
(0.00279114 0.000221151 6.39145e-20)
(0.00259623 0.000410218 -3.22409e-19)
(0.00259875 0.00065854 -2.59163e-19)
(0.00268305 0.000927584 6.52975e-20)
(0.00280802 0.00121205 -2.61846e-19)
(0.00298867 0.00152143 -5.904e-19)
(0.00330779 0.00187319 6.57675e-20)
(0.00378644 0.00223336 5.2045e-19)
(0.00427991 0.00252987 -5.15184e-19)
(0.00472055 0.00275406 0)
(0.00513337 0.00292578 0)
(0.00552617 0.00305603 -3.08986e-20)
(0.00592585 0.00315359 -4.58812e-19)
(0.00631506 0.00320578 -4.54218e-19)
(0.00668432 0.00321157 -2.69224e-19)
(0.00705329 0.00317207 -2.34803e-19)
(0.00739211 0.00307613 2.30497e-19)
(0.00771046 0.00292559 0)
(0.00797632 0.00270406 -2.76647e-20)
(0.00818975 0.00242863 4.66765e-19)
(0.00833062 0.0020867 0)
(0.00837924 0.00169698 -1.06267e-19)
(0.00834429 0.00126592 -2.59818e-20)
(0.00817761 0.000814448 -3.28644e-23)
(0.00794924 0.000375508 -4.41568e-22)
(0.00759237 -6.0729e-05 -1.29464e-20)
(0.00716162 -0.00044797 2.47545e-20)
(0.00669712 -0.00078441 0)
(0.00619323 -0.00106122 0)
(0.00570721 -0.00127736 4.84843e-20)
(0.00522196 -0.00143789 3.38805e-19)
(0.00478493 -0.00154962 4.78923e-20)
(0.00437811 -0.00162128 -4.82838e-20)
(0.00402175 -0.00166249 4.72744e-20)
(0.00370936 -0.00168101 1.41082e-19)
(0.00343507 -0.00168256 -3.27242e-19)
(0.00320645 -0.00167476 -4.64968e-20)
(0.00300153 -0.00165749 6.28026e-22)
(0.00282722 -0.00163531 0)
(0.00267938 -0.00160934 0)
(0.00254607 -0.00157822 0)
(0.00243204 -0.00154389 -2.21907e-20)
(0.00233343 -0.00150773 -3.30622e-19)
(0.00224231 -0.00146863 0)
(0.00216054 -0.0014273 6.23591e-22)
(0.00208755 -0.00138457 2.13957e-20)
(0.00201995 -0.00134022 -3.39903e-19)
(0.00195793 -0.00129471 3.05519e-19)
(0.00190131 -0.00124847 4.43702e-23)
(0.00184944 -0.00120157 3.34896e-19)
(0.00180403 -0.00115481 2.01028e-21)
(0.00176337 -0.00110815 -3.20166e-19)
(0.00172549 -0.00106052 -3.21609e-19)
(0.00169468 -0.00101291 3.23278e-19)
(0.00166843 -0.000965158 -4.87893e-21)
(0.00164263 -0.000915295 -3.07936e-19)
(0.00162318 -0.000864348 0)
(0.00160665 -0.000812062 -3.09495e-19)
(0.0015894 -0.000756603 -2.87002e-19)
(0.00157786 -0.000699346 2.92405e-19)
(0.00156469 -0.000638906 -1.62429e-19)
(0.0015564 -0.000575956 1.7813e-20)
(0.00154764 -0.000510262 1.40663e-19)
(0.00154292 -0.000441994 1.7319e-20)
(0.00153746 -0.00037097 1.20123e-19)
(0.00153687 -0.000297137 8.48272e-20)
(0.00153814 -0.000221813 -3.36366e-20)
(0.00154237 -0.000143483 8.34756e-20)
(0.00155306 -6.49845e-05 -8.31127e-21)
(0.0015645 1.39894e-05 -8.28156e-21)
(0.00158289 9.50218e-05 -3.30334e-20)
(0.00160696 0.000176987 0)
(0.00163721 0.000261062 0)
(0.00167753 0.000346691 -2.61399e-19)
(0.00172459 0.000434532 -8.33484e-21)
(0.00178228 0.000525478 1.38149e-19)
(0.00185029 0.000620124 1.34386e-19)
(0.00192887 0.000719303 4.21399e-21)
(0.00201947 0.000824405 -1.3995e-19)
(0.00212117 0.000934836 -2.80502e-22)
(0.00223437 0.00105202 0)
(0.00236385 0.0011763 2.73223e-19)
(0.00250012 0.00130593 -8.5114e-21)
(0.00264868 0.00144227 -2.55156e-19)
(0.00280822 0.00158352 -8.54815e-21)
(0.00297327 0.00172772 -2.71602e-19)
(0.00314727 0.00187468 -1.18013e-21)
(0.00332946 0.00202153 2.68726e-19)
(0.0035136 0.00216405 1.6569e-20)
(0.00370023 0.00230229 -2.97529e-19)
(0.00389051 0.00243432 1.64766e-20)
(0.0040805 0.0025577 2.58851e-19)
(0.00427091 0.0026711 3.16619e-20)
(0.00446103 0.00277248 -3.17709e-20)
(0.00465004 0.00286097 2.47975e-19)
(0.00484418 0.00293691 -2.11653e-19)
(0.00504115 0.00299556 -3.02314e-20)
(0.00523361 0.00303724 -4.37683e-19)
(0.0054392 0.003065 -2.90129e-20)
(0.00565453 0.00307082 -2.23667e-19)
(0.00586562 0.00305572 1.97675e-21)
(0.0061008 0.00302346 0)
(0.00634172 0.00295786 0)
(0.00657758 0.00286676 -8.9431e-22)
(0.0068274 0.00274013 0)
(0.00706597 0.00257608 -2.27173e-20)
(0.00729456 0.00236979 -6.57729e-20)
(0.00749554 0.00211712 -2.09685e-20)
(0.00764655 0.00181806 -4.06262e-20)
(0.00774765 0.00147805 -2.01859e-20)
(0.00775129 0.00109706 -5.62602e-20)
(0.00768828 0.00070043 1.8472e-20)
(0.00750333 0.000276822 0)
(0.00720468 -0.000113848 0)
(0.00684233 -0.000473035 0)
(0.00638801 -0.000780698 -1.5456e-20)
(0.00591191 -0.0010295 1.5538e-20)
(0.00538671 -0.00121964 5.97212e-20)
(0.00487338 -0.00134617 5.86295e-20)
(0.00436701 -0.00141958 0)
(0.00389934 -0.00144636 -5.68806e-20)
(0.00346046 -0.00143567 0)
(0.00306564 -0.00139496 -1.36772e-20)
(0.00270554 -0.00132938 6.90019e-20)
(0.00236825 -0.00123626 -1.36252e-20)
(0.00202595 -0.00106899 2.31052e-19)
(0.00197194 -0.000919297 -5.37274e-20)
(0.00213594 -0.000814849 -5.2888e-20)
(0.00229213 -0.000710344 0)
(0.00244059 -0.000590105 0)
(0.00262675 -0.0004556 0)
(0.00286266 -0.000314221 0)
(0.00319272 -0.000186192 0)
(0.00355133 -0.000111082 1.10111e-20)
(0.00380342 -7.95177e-05 -3.53818e-22)
(0.00396271 -6.57232e-05 -3.57012e-22)
(0.0040835 -5.86583e-05 -1.02581e-20)
(0.00418887 -5.4772e-05 0)
(0.00428723 -5.25452e-05 9.13263e-21)
(0.00438221 -5.10462e-05 -9.10378e-21)
(0.00447448 -4.96396e-05 2.66743e-22)
(0.00456258 -4.79464e-05 0)
(0.00464407 -4.58067e-05 0)
(0.00471629 -4.31662e-05 -7.28445e-21)
(0.00477688 -4.00108e-05 7.266e-21)
(0.00482485 -3.64765e-05 0)
(0.0048598 -3.29041e-05 0)
(0.00488182 -2.93024e-05 -2.73915e-21)
(0.00489198 -2.56398e-05 1.70747e-22)
(0.00489211 -2.19869e-05 2.74698e-21)
(0.00488388 -1.90404e-05 0)
(0.00486923 -1.69489e-05 0)
(0.00485039 -1.51025e-05 0)
(0.00482927 -1.35182e-05 0)
(0.0048077 -1.20782e-05 1.12899e-22)
(0.00478728 -1.08652e-05 0)
(0.00476918 -9.91944e-06 0)
(0.00475431 -9.31375e-06 0)
(0.00474301 -9.07038e-06 5.39872e-22)
(0.00473546 -8.72067e-06 -5.39012e-22)
(0.00473175 -8.18569e-06 0)
(0.00473153 -7.46325e-06 4.28666e-23)
(0.00473412 -6.50548e-06 1.1402e-22)
(0.00473851 -5.24113e-06 -7.59431e-23)
(0.00474229 -3.13225e-06 -3.78051e-23)
(0.00474563 2.3157e-06 0)
(0.0164264 0.00177185 0)
(0.0173807 0.00312628 0)
(0.0171948 0.00279217 0)
(0.0162827 0.0022065 7.64912e-21)
(0.0151754 0.00157969 -1.56135e-20)
(0.0141784 0.0010655 7.95625e-21)
(0.0133895 0.000697532 0)
(0.0127801 0.000456105 1.61762e-20)
(0.0123201 0.000304811 -1.63437e-20)
(0.0119761 0.000211982 1.63145e-20)
(0.0117151 0.000155918 -1.64063e-20)
(0.0115105 0.000122277 -3.26502e-20)
(0.0113433 0.000102166 3.27591e-20)
(0.0112004 9.01803e-05 3.25481e-20)
(0.0110736 8.30591e-05 -1.49704e-22)
(0.0109572 7.89779e-05 -6.49359e-20)
(0.0108476 7.6985e-05 3.24556e-20)
(0.0107419 7.66304e-05 0)
(0.0106382 7.7733e-05 0)
(0.0105344 8.02746e-05 0)
(0.0104287 8.43355e-05 0)
(0.0103192 9.00511e-05 0)
(0.0102037 9.75976e-05 0)
(0.0100801 0.000107196 0)
(0.00994592 0.000119123 0)
(0.00979837 0.000133738 0)
(0.00963429 0.000151529 0)
(0.00944997 0.000173186 0)
(0.00924098 0.000199734 0)
(0.00900178 0.000232794 0)
(0.00872529 0.000275104 -6.28856e-20)
(0.00840133 0.000331733 2.15887e-22)
(0.0080261 0.000411873 1.26377e-19)
(0.0075304 0.000527038 -5.55215e-20)
(0.00697609 0.000741877 -6.37401e-20)
(0.00661477 0.00112008 1.93925e-19)
(0.00652878 0.00164428 -2.61289e-19)
(0.00662101 0.00225953 -6.56756e-20)
(0.00683762 0.00293068 6.61968e-19)
(0.00719471 0.00364098 2.00196e-19)
(0.00777931 0.00438126 0)
(0.00858727 0.00509193 6.51412e-20)
(0.00945932 0.0057 3.86648e-19)
(0.0103128 0.00619153 6.40726e-20)
(0.0111528 0.00658014 5.0129e-19)
(0.0119831 0.00687771 -4.93557e-19)
(0.0128246 0.00709239 2.3796e-21)
(0.0136515 0.00720955 0)
(0.014459 0.00722329 -2.35517e-19)
(0.0152545 0.00713197 0)
(0.0160052 0.00692077 -7.20463e-22)
(0.0167118 0.00658942 0)
(0.0173338 0.00611759 -2.18476e-19)
(0.0178663 0.00552729 -2.14902e-19)
(0.0182693 0.00480449 0)
(0.0185192 0.00398293 -1.53701e-22)
(0.0186116 0.00307626 1.02152e-19)
(0.0184927 0.002109 2.48156e-20)
(0.0182178 0.00113752 4.9466e-20)
(0.0177105 0.000163129 -1.24669e-20)
(0.017037 -0.000747706 0)
(0.016231 -0.00157448 9.78956e-20)
(0.0153133 -0.00229479 -4.92477e-20)
(0.0143592 -0.00289536 -9.74263e-20)
(0.0133664 -0.00337724 -2.92323e-19)
(0.012413 -0.00374582 -4.89695e-20)
(0.0114884 -0.00401259 2.43345e-19)
(0.0106367 -0.00419505 -4.89635e-20)
(0.00985493 -0.0043071 0)
(0.00914589 -0.00436384 4.85364e-20)
(0.00852071 -0.00438009 -4.86607e-20)
(0.00795423 -0.00436136 1.33378e-21)
(0.00745253 -0.00431922 0)
(0.00700971 -0.0042574 -3.83129e-19)
(0.00660978 -0.00417775 -3.80523e-19)
(0.00625251 -0.00408457 2.35135e-20)
(0.00593235 -0.00397988 -2.34259e-20)
(0.00563856 -0.00386449 2.31134e-20)
(0.00536963 -0.00374077 -3.66603e-19)
(0.00512373 -0.00361035 3.41297e-19)
(0.0048962 -0.00347432 -3.60289e-19)
(0.00468565 -0.0033346 -3.66338e-19)
(0.00449115 -0.00319274 2.19944e-20)
(0.00431147 -0.00304989 -3.59206e-19)
(0.00414816 -0.00290757 3.40384e-19)
(0.00399961 -0.00276614 -3.37168e-19)
(0.00386293 -0.00262518 3.35485e-19)
(0.0037419 -0.0024853 -3.30071e-19)
(0.00363418 -0.00234569 -1.01712e-20)
(0.00353473 -0.00220484 1.00677e-20)
(0.00344806 -0.00206277 0)
(0.00337075 -0.00191874 0)
(0.00329837 -0.0017715 1.53952e-19)
(0.00323633 -0.0016214 -1.70194e-19)
(0.0031773 -0.00146796 1.49196e-19)
(0.00312771 -0.00131134 3.67528e-20)
(0.00308202 -0.0011524 1.38263e-22)
(0.00304587 -0.000991089 -5.46583e-23)
(0.00301478 -0.000828095 -3.17671e-19)
(0.00299513 -0.000661981 -5.2248e-20)
(0.00298547 -0.000495888 6.90841e-20)
(0.00298684 -0.000328323 -6.84671e-20)
(0.00300212 -0.000159947 0)
(0.00303151 9.83972e-06 -8.45455e-21)
(0.00308067 0.000182966 8.46025e-21)
(0.00314886 0.000359679 0)
(0.00323745 0.000542454 0)
(0.00335021 0.000732131 1.35584e-19)
(0.00348548 0.000931274 -1.35753e-19)
(0.0036465 0.00114193 1.40421e-19)
(0.00383327 0.00136647 -2.7357e-19)
(0.00404581 0.00160778 -1.99969e-23)
(0.00428505 0.00186722 -4.30798e-21)
(0.00454877 0.0021417 -1.37996e-19)
(0.00483689 0.00243757 0)
(0.00515158 0.00275411 0)
(0.00548375 0.00308829 0)
(0.0058366 0.0034389 2.84116e-19)
(0.00620705 0.00380277 2.64231e-19)
(0.00658881 0.00417607 0)
(0.00698355 0.00455491 -3.05741e-19)
(0.00738825 0.00493349 5.05207e-20)
(0.0077971 0.00530538 -3.33451e-20)
(0.00821141 0.0056667 1.66342e-20)
(0.00863122 0.00601198 -3.24442e-20)
(0.00905307 0.00633592 2.57711e-19)
(0.00947756 0.00663377 -2.21588e-19)
(0.00990474 0.00690079 2.81175e-19)
(0.0103356 0.00713356 -6.39254e-22)
(0.0107766 0.00732945 2.14425e-19)
(0.0112256 0.00748202 0)
(0.0116792 0.00759041 2.35611e-19)
(0.0121544 0.0076533 -2.81353e-20)
(0.0126469 0.00766154 -1.92913e-19)
(0.0131478 0.00761586 2.18606e-19)
(0.0136798 0.00751474 -2.5849e-20)
(0.0142203 0.00733859 2.59031e-20)
(0.0147636 0.00709452 -2.56152e-20)
(0.0153135 0.00676622 2.41909e-20)
(0.0158466 0.00635203 -2.23972e-20)
(0.0163506 0.00584442 1.10933e-19)
(0.0167991 0.00523985 -1.0475e-19)
(0.0171595 0.00453984 1.02065e-19)
(0.0174184 0.00375689 0)
(0.0175153 0.00289587 1.90376e-20)
(0.0174726 0.00200067 -1.75653e-20)
(0.0172234 0.00106686 -8.6045e-21)
(0.0167849 0.000167981 0)
(0.0161826 -0.000676222 -1.61224e-20)
(0.0154006 -0.0014331 3.13727e-20)
(0.0145203 -0.0020771 0)
(0.0135171 -0.0026017 -6.02238e-20)
(0.0124845 -0.00299425 -1.46367e-20)
(0.0114184 -0.00326295 1.47787e-20)
(0.0103869 -0.0034178 0)
(0.00938069 -0.00347202 5.80402e-20)
(0.00844037 -0.00344157 -5.74817e-20)
(0.00755772 -0.00333278 5.76635e-20)
(0.00675025 -0.00316034 0)
(0.00596222 -0.00287876 -1.14019e-19)
(0.00561292 -0.0025901 -7.07039e-20)
(0.00565925 -0.00230327 1.24411e-19)
(0.00583391 -0.00199126 -1.33719e-20)
(0.00605335 -0.00165454 1.31712e-20)
(0.00635099 -0.00130326 1.25543e-20)
(0.00673399 -0.000955515 1.19803e-20)
(0.00723889 -0.000645225 -1.04782e-20)
(0.00777932 -0.000421763 -7.09342e-22)
(0.00822194 -0.000284056 0)
(0.00856221 -0.000207281 6.55629e-22)
(0.00884846 -0.000168985 0)
(0.0091102 -0.000151726 -6.03081e-22)
(0.00935947 -0.000144109 -9.08698e-21)
(0.00960036 -0.000139238 9.58336e-21)
(0.00983219 -0.000132971 -7.92872e-22)
(0.010051 -0.0001231 7.90812e-21)
(0.0102512 -0.000108905 -1.49166e-20)
(0.0104273 -9.05052e-05 1.46529e-20)
(0.0105747 -6.88788e-05 -7.56267e-21)
(0.0106907 -4.73894e-05 0)
(0.0107744 -2.47119e-05 3.42899e-21)
(0.0108267 -2.9734e-06 -3.2159e-21)
(0.0108502 1.62742e-05 -3.4622e-22)
(0.0108484 3.23262e-05 -2.51992e-21)
(0.0108258 4.45319e-05 2.21228e-21)
(0.0107878 5.32589e-05 2.18278e-21)
(0.0107399 5.8345e-05 -2.44119e-21)
(0.0106864 6.00424e-05 2.09303e-21)
(0.0106316 5.89432e-05 -3.64934e-21)
(0.0105789 5.5531e-05 2.25054e-21)
(0.0105312 5.03108e-05 -7.63145e-22)
(0.0104903 4.38915e-05 -1.60907e-22)
(0.0104575 3.66878e-05 0)
(0.0104333 2.94398e-05 3.2849e-22)
(0.0104171 2.2794e-05 -4.49485e-22)
(0.0104078 1.7227e-05 2.32557e-23)
(0.0104041 1.31612e-05 -1.48627e-22)
(0.0104041 1.10633e-05 0)
(0.0104047 1.17061e-05 0)
(0.0104065 1.89667e-05 -9.79999e-24)
(0.0163812 0.00104155 0)
(0.017215 0.00223386 -3.79454e-21)
(0.0180469 0.0025794 3.74703e-21)
(0.0182765 0.00247128 7.38465e-21)
(0.0180764 0.00214706 -7.43517e-21)
(0.0177102 0.00174232 0)
(0.0172421 0.00134837 0)
(0.0167458 0.00101699 0)
(0.0162952 0.000758336 -1.51793e-20)
(0.0159094 0.000568883 3.0559e-20)
(0.0155866 0.000437163 1.5211e-20)
(0.0153167 0.000348744 -3.07411e-20)
(0.0150885 0.000290905 -3.06002e-20)
(0.0148911 0.000253438 3.07175e-20)
(0.0147159 0.000229131 0)
(0.0145565 0.000213495 -3.04814e-20)
(0.0144081 0.000203877 6.09791e-20)
(0.014267 0.000198835 -3.04914e-20)
(0.0141304 0.000197631 0)
(0.0139956 0.000199995 0)
(0.0138603 0.000205952 0)
(0.013722 0.000215684 0)
(0.0135782 0.00022949 0)
(0.0134263 0.000247772 -5.98398e-20)
(0.0132631 0.00027105 5.9972e-20)
(0.0130856 0.000299997 0)
(0.0128899 0.000335512 0)
(0.0126721 0.000378826 0)
(0.0124272 0.000431694 0)
(0.0121495 0.000496707 0)
(0.0118325 0.000577869 -5.93313e-20)
(0.0114672 0.000681596 5.95737e-20)
(0.0110521 0.000819362 0)
(0.0105421 0.00100144 3.72072e-21)
(0.00998314 0.00127945 0)
(0.00957834 0.00171862 -1.22047e-19)
(0.00943523 0.00231703 2.4798e-19)
(0.0095174 0.0030324 0)
(0.00979101 0.00382543 -4.98797e-19)
(0.0102628 0.00466212 8.30032e-22)
(0.0109834 0.00550759 -6.13942e-20)
(0.0119215 0.00629745 6.11609e-20)
(0.0129458 0.00698306 -4.81367e-19)
(0.0139833 0.00755757 0)
(0.0150238 0.0080289 -5.2456e-19)
(0.0160636 0.00839289 4.88154e-19)
(0.0171096 0.00865494 4.79189e-19)
(0.018138 0.00880764 0)
(0.019147 0.00883 2.16889e-19)
(0.0201366 0.00872353 0)
(0.0210774 0.00847787 -4.19012e-19)
(0.0219629 0.00809023 0)
(0.0227618 0.00755323 1.77267e-19)
(0.0234639 0.00686649 2.243e-19)
(0.024035 0.00603278 1.96563e-19)
(0.0244526 0.00508044 9.64196e-20)
(0.0246983 0.0040281 9.50299e-20)
(0.0247298 0.00289005 4.64583e-20)
(0.0245781 0.00171704 -2.31607e-20)
(0.0241814 0.000521369 -3.41038e-20)
(0.0235828 -0.000634325 0)
(0.0227972 -0.00172106 -8.89964e-20)
(0.0218457 -0.00271019 8.86727e-20)
(0.0207922 -0.00357641 0)
(0.0196453 -0.00431144 3.55479e-19)
(0.0184835 -0.00490827 0)
(0.0173105 -0.00537334 4.44528e-20)
(0.0161813 -0.00571786 -4.49116e-20)
(0.0151048 -0.00595536 0)
(0.0140963 -0.00610187 4.47977e-20)
(0.0131732 -0.00617403 -4.50914e-20)
(0.0123198 -0.00618272 -4.9419e-19)
(0.0115445 -0.00614223 3.14804e-19)
(0.0108422 -0.00606084 -1.21371e-21)
(0.0101997 -0.00594512 3.56441e-19)
(0.0096151 -0.00580211 2.21661e-20)
(0.00908218 -0.00563569 -3.76299e-19)
(0.00859076 -0.0054492 0)
(0.008137 -0.00524694 -3.4957e-19)
(0.00771746 -0.00503237 -6.71287e-19)
(0.0073269 -0.00480855 6.55085e-19)
(0.00696281 -0.00457907 3.51895e-19)
(0.00662346 -0.00434702 -3.4867e-19)
(0.00630715 -0.00411501 3.44502e-19)
(0.0060147 -0.0038854 0)
(0.00574502 -0.0036594 3.2731e-19)
(0.00549565 -0.00343743 3.31274e-21)
(0.00526898 -0.00321985 6.49186e-19)
(0.00506319 -0.00300584 2.97244e-19)
(0.00487434 -0.00279443 3.22955e-19)
(0.00470426 -0.00258488 0)
(0.00455019 -0.0023765 0)
(0.00440856 -0.00216875 -1.50227e-19)
(0.00428184 -0.00196163 0)
(0.00416519 -0.0017556 -1.82572e-20)
(0.00406256 -0.00155107 1.80645e-20)
(0.00397085 -0.00134928 -1.4234e-19)
(0.00389402 -0.00115065 1.40643e-19)
(0.00383054 -0.000956483 1.2156e-19)
(0.00378681 -0.000766553 1.72017e-20)
(0.00376238 -0.000581167 -6.80401e-20)
(0.00376129 -0.000399343 3.37139e-20)
(0.00378773 -0.000218963 -2.50944e-20)
(0.00384176 -3.75031e-05 8.33712e-21)
(0.0039284 0.000147417 0)
(0.00404816 0.000338937 6.61196e-20)
(0.00420291 0.000540865 0)
(0.00439477 0.000756585 1.31953e-19)
(0.00462252 0.000990052 2.46657e-22)
(0.00488732 0.00124453 -1.281e-19)
(0.00518826 0.0015232 1.32223e-19)
(0.00552402 0.00182865 -4.13546e-21)
(0.00589438 0.00216272 0)
(0.00629546 0.00252579 1.31374e-19)
(0.00672586 0.00291852 -1.31038e-19)
(0.00718491 0.00333922 0)
(0.00766564 0.00378626 8.10843e-21)
(0.00816825 0.00425643 -2.66501e-19)
(0.00868907 0.00474494 -2.42298e-19)
(0.00922269 0.00524691 2.38655e-19)
(0.00976875 0.00575629 -2.5254e-19)
(0.0103242 0.00626572 -1.55991e-20)
(0.0108844 0.00676853 2.32306e-19)
(0.0114496 0.00725783 3.0948e-20)
(0.0120196 0.00772555 2.71729e-19)
(0.0125924 0.00816452 -5.3908e-19)
(0.0131685 0.00856782 2.67192e-19)
(0.0137488 0.00892885 -2.04954e-19)
(0.0143349 0.00924214 1.6992e-19)
(0.0149316 0.00950252 2.7864e-19)
(0.015538 0.0097032 1.6329e-19)
(0.0161524 0.00984179 2.71548e-20)
(0.0167878 0.00991252 1.8236e-19)
(0.0174403 0.0099084 2.31196e-19)
(0.0181039 0.00982962 -2.44051e-20)
(0.0187909 0.00966943 2.44208e-20)
(0.0194826 0.0094128 6.98563e-20)
(0.020174 0.00906464 2.20567e-20)
(0.0208595 0.00861128 -2.13149e-20)
(0.0215197 0.00805156 2.13209e-20)
(0.0221372 0.00738155 -8.04539e-20)
(0.022686 0.00660095 1.9159e-20)
(0.0231359 0.00571518 -7.60007e-22)
(0.0234697 0.00473827 -1.83126e-20)
(0.0236377 0.00368142 -6.90885e-20)
(0.0236487 0.0025847 0)
(0.0234452 0.00145752 3.15232e-20)
(0.0230371 0.000351652 -1.95055e-20)
(0.0224341 -0.000705164 1.47696e-20)
(0.0216224 -0.00167982 -4.28687e-20)
(0.0206644 -0.00253878 -1.40842e-20)
(0.0195392 -0.0032679 5.48626e-20)
(0.0183309 -0.00384665 6.83001e-20)
(0.0170373 -0.00427546 -2.69389e-20)
(0.0157319 -0.00455757 6.7341e-20)
(0.0144143 -0.00470294 -5.30858e-20)
(0.013138 -0.00472698 -1.32461e-20)
(0.0119055 -0.00463104 -5.29791e-20)
(0.0107662 -0.00444185 1.34145e-20)
(0.00966527 -0.00412935 -5.35093e-20)
(0.00899825 -0.00376719 5.34531e-20)
(0.00876063 -0.00336213 -3.93378e-20)
(0.00875153 -0.00291202 -1.2845e-20)
(0.0088665 -0.00243271 -2.4804e-20)
(0.00910931 -0.00195118 0)
(0.00946791 -0.00149476 -2.30404e-20)
(0.00995645 -0.00110229 2.0858e-20)
(0.0104937 -0.000809296 3.44829e-22)
(0.0109758 -0.000613974 -3.37681e-22)
(0.0113897 -0.000495801 -9.6005e-22)
(0.0117631 -0.0004317 -9.68716e-21)
(0.0121154 -0.000400024 5.71021e-22)
(0.0124544 -0.000383563 0)
(0.0127823 -0.000370259 -5.21834e-22)
(0.013097 -0.000352409 4.98138e-22)
(0.0133933 -0.000325848 8.37158e-21)
(0.0136643 -0.000289283 -7.83503e-21)
(0.0139032 -0.000243567 -6.71721e-21)
(0.0141045 -0.000191114 7.09644e-21)
(0.0142641 -0.000135307 0)
(0.0143805 -7.92619e-05 -3.67049e-22)
(0.0144546 -2.61384e-05 0)
(0.0144896 2.14366e-05 -2.20154e-21)
(0.01449 6.159e-05 1.5573e-22)
(0.014462 9.33189e-05 2.65164e-21)
(0.014412 0.000116583 5.31356e-22)
(0.0143464 0.000131107 2.46913e-22)
(0.014272 0.000137418 -2.27503e-22)
(0.0141946 0.000136551 0)
(0.0141191 0.000129834 1.89341e-22)
(0.0140494 0.000118724 6.44499e-22)
(0.0139885 0.00010482 -4.91842e-22)
(0.0139378 8.95828e-05 -4.97102e-22)
(0.0138978 7.42019e-05 6.11324e-22)
(0.0138682 5.99162e-05 0)
(0.0138477 4.78427e-05 9.6467e-23)
(0.0138345 3.88811e-05 1.40018e-22)
(0.0138263 3.37801e-05 3.48408e-23)
(0.0138204 3.31506e-05 -3.47637e-23)
(0.0138155 4.13402e-05 9.22447e-24)
(0.0162717 0.000569068 0)
(0.0168387 0.00146764 0)
(0.0176469 0.00195015 0)
(0.0181898 0.00211575 7.42259e-21)
(0.0184851 0.00205916 -7.39796e-21)
(0.0186121 0.00187245 0)
(0.018555 0.00161495 0)
(0.0184093 0.00134459 0)
(0.0181935 0.00109481 0)
(0.0179457 0.000886335 0)
(0.0177012 0.000720965 0)
(0.0174737 0.00059595 -2.95193e-20)
(0.0172664 0.000506452 2.96543e-20)
(0.0170779 0.000443959 -2.9495e-20)
(0.0169053 0.000400693 5.90516e-20)
(0.0167455 0.000371175 -2.95444e-20)
(0.0165951 0.000351699 -2.93507e-20)
(0.0164513 0.000340078 2.94215e-20)
(0.0163114 0.00033501 0)
(0.0161731 0.000335948 0)
(0.0160342 0.000342829 5.81476e-20)
(0.0158922 0.000355875 -5.82619e-20)
(0.0157449 0.000375503 0)
(0.0155894 0.000402294 -5.77099e-20)
(0.015423 0.000436999 5.78236e-20)
(0.0152425 0.000480586 0)
(0.0150443 0.000534307 0)
(0.0148246 0.000599831 5.72132e-20)
(0.014579 0.00067943 -2.31305e-22)
(0.0143025 0.000776286 -5.72693e-20)
(0.0139899 0.000894982 -5.69868e-20)
(0.0136345 0.00104215 1.14099e-19)
(0.0132368 0.00122876 -5.71132e-20)
(0.0127678 0.00146283 5.3261e-20)
(0.0122625 0.00178063 -5.73823e-20)
(0.0118799 0.00223505 -5.81994e-20)
(0.0117278 0.00283157 5.95123e-20)
(0.0118079 0.00354178 1.78786e-19)
(0.0121069 0.00433052 2.98222e-19)
(0.0126263 0.00515796 5.97904e-20)
(0.0133891 0.00597985 -5.87458e-20)
(0.0143483 0.00674339 -5.18676e-19)
(0.0153967 0.00741773 5.11981e-19)
(0.0164731 0.00799652 5.03941e-19)
(0.0175617 0.00847798 -1.10587e-19)
(0.018655 0.00885775 8.18256e-20)
(0.0197507 0.00912857 -2.40834e-19)
(0.0208325 0.00929955 0)
(0.0218931 0.00928844 -2.33165e-19)
(0.0229295 0.00919295 2.56712e-20)
(0.0239206 0.00894718 2.00624e-19)
(0.0248576 0.00854855 2.44712e-20)
(0.0257176 0.00799701 -2.43278e-19)
(0.0264896 0.00730216 -1.67175e-19)
(0.0271447 0.00646535 -1.88856e-19)
(0.0276656 0.00550166 -9.36106e-20)
(0.0280338 0.00443251 -2.2197e-20)
(0.0282151 0.00327248 2.26154e-20)
(0.0282225 0.00206167 2.20137e-20)
(0.028011 0.00081469 3.24489e-20)
(0.0276012 -0.000417726 2.14887e-20)
(0.0269939 -0.00160669 0)
(0.0261995 -0.00272417 8.45547e-20)
(0.0252616 -0.00374064 0)
(0.024189 -0.00464067 -2.92686e-19)
(0.0230454 -0.0054065 -1.68123e-19)
(0.0218413 -0.00603718 -4.19676e-20)
(0.0206305 -0.00653368 0)
(0.0194315 -0.00690423 0)
(0.018268 -0.00716027 -1.68875e-19)
(0.0171649 -0.00731572 0)
(0.0161181 -0.00738276 3.80277e-19)
(0.0151419 -0.00737608 -3.80258e-19)
(0.014236 -0.00730624 3.58925e-19)
(0.0133937 -0.0071826 -1.02443e-22)
(0.0126147 -0.00701497 -9.99205e-23)
(0.0118944 -0.00681028 2.93865e-19)
(0.0112248 -0.00657466 4.18989e-20)
(0.0106021 -0.00631457 3.12256e-19)
(0.0100225 -0.00603572 3.31422e-19)
(0.00948064 -0.00574334 9.60282e-22)
(0.00897353 -0.00544299 -3.17115e-19)
(0.00849889 -0.00513955 3.14856e-19)
(0.00805472 -0.00483731 0)
(0.00764132 -0.00453987 4.99675e-21)
(0.00725792 -0.00424941 3.13162e-19)
(0.00690266 -0.00396718 -6.2734e-19)
(0.00657773 -0.00369388 -9.37691e-19)
(0.00628202 -0.00342848 -3.18007e-19)
(0.00601244 -0.00317001 1.01704e-20)
(0.00577024 -0.00291766 0)
(0.0055533 -0.00266992 9.30795e-21)
(0.00535781 -0.00242622 -9.22857e-21)
(0.00518548 -0.00218695 0)
(0.00503182 -0.00195165 1.43779e-19)
(0.00489951 -0.00172219 -1.76965e-20)
(0.00478596 -0.00149855 1.75401e-20)
(0.00469451 -0.00128282 1.15671e-22)
(0.00462412 -0.00107437 1.36839e-19)
(0.0045805 -0.000874643 -1.68903e-20)
(0.00456457 -0.00068215 3.35062e-20)
(0.00458022 -0.000495433 -1.66129e-20)
(0.00463111 -0.000312022 4.50585e-24)
(0.00471806 -0.000128332 -8.15145e-21)
(0.00484646 5.93359e-05 8.1336e-21)
(0.00501599 0.000256405 -6.4692e-20)
(0.00522875 0.000467137 -6.83977e-20)
(0.00548539 0.000696713 -1.24561e-19)
(0.00578425 0.000949598 2.56307e-19)
(0.00612508 0.00122977 -1.237e-19)
(0.00650593 0.00154071 -3.99495e-21)
(0.00692411 0.00188503 -3.96218e-21)
(0.00737817 0.00226419 3.97161e-21)
(0.00786307 0.00267868 -1.26453e-19)
(0.0083771 0.00312796 8.40973e-21)
(0.00891748 0.00361013 -5.98285e-23)
(0.00947806 0.00412269 1.08295e-19)
(0.0100578 0.00466128 3.78107e-19)
(0.010653 0.00522049 -2.43918e-19)
(0.0112592 0.0057944 -2.43632e-19)
(0.0118756 0.00637577 2.56407e-19)
(0.0124998 0.00695656 2.22091e-19)
(0.0131287 0.00752887 -2.21992e-19)
(0.0137625 0.00808428 -2.60697e-19)
(0.0144014 0.00861379 -2.16473e-19)
(0.0150447 0.00910918 3.04721e-20)
(0.0156933 0.00956245 -2.81517e-20)
(0.0163485 0.00996589 0)
(0.017012 0.0103127 -2.43564e-19)
(0.0176873 0.010596 -2.12143e-19)
(0.0183739 0.0108105 -1.82169e-19)
(0.0190697 0.0109529 0)
(0.0197851 0.0110111 -2.23081e-19)
(0.0205178 0.0109809 2.44053e-20)
(0.0212597 0.0108636 -7.01438e-20)
(0.0220141 0.0106491 -2.30597e-20)
(0.0227694 0.0103377 -6.53356e-22)
(0.0235189 0.00991736 -1.06454e-19)
(0.024253 0.00938575 2.09545e-20)
(0.0249547 0.0087431 -9.89962e-20)
(0.025607 0.00798925 1.731e-19)
(0.0261874 0.00712715 1.48175e-19)
(0.0266717 0.0061649 7.16546e-20)
(0.0270426 0.00511701 0)
(0.0272645 0.00399635 -1.66523e-20)
(0.0273366 0.00283452 2.09095e-22)
(0.0272177 0.00164531 7.45008e-21)
(0.0269091 0.000471434 -2.59448e-20)
(0.0264113 -0.00065857 1.45366e-20)
(0.0257093 -0.00171699 -2.7896e-20)
(0.0248435 -0.00267086 2.67424e-20)
(0.0237945 -0.00350409 0)
(0.0226241 -0.00419167 -6.41077e-20)
(0.0213282 -0.00472879 2.54627e-20)
(0.0199695 -0.00510986 -5.04312e-20)
(0.0185509 -0.0053403 -1.26374e-20)
(0.0171297 -0.00543085 6.26849e-20)
(0.0157136 -0.00537478 -1.25836e-20)
(0.014375 -0.00520335 0)
(0.0130734 -0.00490199 6.27032e-20)
(0.0121569 -0.00451407 -1.09401e-22)
(0.0116427 -0.00405311 -1.47488e-22)
(0.0113993 -0.00353121 -1.74346e-22)
(0.0113394 -0.00297594 2.35579e-20)
(0.0114575 -0.00242811 -2.31673e-22)
(0.0117267 -0.00192368 -1.47144e-22)
(0.0121439 -0.00150138 -1.0468e-20)
(0.0126286 -0.00118238 9.11862e-21)
(0.0130923 -0.000961585 9.70691e-21)
(0.0135181 -0.000822338 8.58817e-22)
(0.0139202 -0.000743127 -9.25776e-21)
(0.0143083 -0.000701015 1.08552e-21)
(0.0146844 -0.000675716 8.17304e-21)
(0.0150477 -0.000651813 -8.11242e-21)
(0.0153947 -0.000618983 -9.46971e-22)
(0.0157197 -0.00057153 -9.07983e-22)
(0.0160159 -0.000507743 0)
(0.0162764 -0.000429084 6.42367e-21)
(0.0164955 -0.000339338 -6.39801e-21)
(0.0166692 -0.000243722 0)
(0.0167958 -0.00014749 -7.00215e-22)
(0.0168763 -5.57032e-05 0)
(0.0169136 2.72613e-05 6.23394e-22)
(0.0169125 9.81435e-05 2.273e-21)
(0.0168792 0.000154917 -2.27113e-21)
(0.0168208 0.000196332 -5.12206e-22)
(0.0167445 0.0002227 4.72524e-22)
(0.0166576 0.000235068 0)
(0.0165665 0.000235096 -1.52661e-21)
(0.016477 0.000224952 1.52537e-21)
(0.0163934 0.000207098 3.26751e-22)
(0.0163191 0.000184058 5.48531e-22)
(0.0162561 0.000158397 -5.47826e-22)
(0.016205 0.000132527 4.08048e-22)
(0.0161655 0.000108566 -4.07183e-22)
(0.0161363 8.82994e-05 -1.52158e-22)
(0.0161156 7.30832e-05 -1.00876e-22)
(0.0161009 6.38777e-05 6.71373e-23)
(0.0160898 6.10278e-05 8.34589e-23)
(0.0160787 6.88725e-05 0)
(0.0162333 0.000360396 0)
(0.0166253 0.00100457 0)
(0.0172255 0.0014359 0)
(0.0177453 0.00166208 7.52703e-21)
(0.0181626 0.00172853 -7.47374e-21)
(0.0184768 0.00167906 0)
(0.0186799 0.00155251 1.46505e-20)
(0.0187975 0.00138271 -1.46676e-20)
(0.0187965 0.00120369 -1.45617e-20)
(0.018754 0.00103633 2.91478e-20)
(0.0186727 0.000888082 -1.45898e-20)
(0.0185637 0.000764955 0)
(0.0184462 0.000669844 0)
(0.0183263 0.000598433 2.89112e-20)
(0.0182076 0.000546031 -1.34166e-22)
(0.0180913 0.00050875 -5.77028e-20)
(0.0179773 0.000483364 2.8845e-20)
(0.0178644 0.000467805 0)
(0.0177513 0.000460736 0)
(0.0176367 0.000461587 2.84723e-20)
(0.017519 0.000470305 -2.85178e-20)
(0.0173966 0.000487201 0)
(0.0172674 0.000512845 0)
(0.0171293 0.000548009 -5.62682e-20)
(0.0169799 0.000593674 1.12452e-19)
(0.0168166 0.000651063 -5.61841e-20)
(0.0166363 0.000721715 -5.57835e-20)
(0.0164357 0.000807598 2.35184e-22)
(0.0162113 0.000911274 1.11214e-19)
(0.0159591 0.00103614 -5.55829e-20)
(0.0156754 0.00118679 -5.52319e-20)
(0.0153554 0.00136936 2.12719e-22)
(0.015001 0.00159315 5.51899e-20)
(0.0145919 0.00186435 5.47785e-20)
(0.0141574 0.00220824 -5.52598e-20)
(0.0138272 0.00266428 0)
(0.0136988 0.0032386 -2.2886e-19)
(0.0137902 0.0039103 -4.605e-19)
(0.0140997 0.00464941 0)
(0.0146261 0.00541824 2.2768e-19)
(0.0153767 0.00617452 -5.58456e-20)
(0.0162994 0.00687702 4.99467e-19)
(0.0173052 0.00750354 -4.37941e-19)
(0.0183425 0.00804638 -4.32152e-19)
(0.0193932 0.00850006 -2.65488e-19)
(0.0204487 0.00885651 5.2828e-20)
(0.0215034 0.0091064 2.07306e-19)
(0.0225485 0.00925761 -1.78708e-19)
(0.0235725 0.00925021 -2.53199e-20)
(0.0245657 0.00913728 -1.98327e-19)
(0.0255201 0.00887908 0)
(0.0264272 0.00848172 -1.93042e-19)
(0.0272688 0.0079438 2.14016e-19)