/*--------------------------------*- C++ -*----------------------------------*\
| =========                 |                                                 |
| \\      /  F ield         | OpenFOAM: The Open Source CFD Toolbox           |
|  \\    /   O peration     | Version:  2506                                  |
|   \\  /    A nd           | Website:  www.openfoam.com                      |
|    \\/     M anipulation  |                                                 |
\*---------------------------------------------------------------------------*/
FoamFile
{
    version     2.0;
    format      ascii;
    arch        "LSB;label=32;scalar=64";
    class       volScalarField;
    location    "1.55";
    object      s;
}
// * * * * * * * * * * * * * * * * * * * * * * * * * * * * * * * * * * * * * //

dimensions      [0 0 0 0 0 0 0];

internalField   nonuniform List<scalar> 
4000
(
1.65634e-09
1.89323e-09
2.39952e-09
3.11176e-09
4.07904e-09
5.40302e-09
7.21939e-09
9.71631e-09
1.31581e-08
1.79041e-08
2.44241e-08
3.3316e-08
4.53296e-08
6.14066e-08
8.27542e-08
1.1097e-07
1.48241e-07
1.97625e-07
2.63449e-07
3.51826e-07
4.71322e-07
6.33732e-07
8.54972e-07
1.15621e-06
1.56524e-06
2.11808e-06
2.86164e-06
3.8547e-06
5.17287e-06
6.91689e-06
9.15803e-06
1.23995e-05
1.73302e-05
2.46171e-05
3.51684e-05
5.04349e-05
7.13737e-05
0.000102032
0.000147733
0.000208564
0.000284386
0.000372913
0.000487258
0.0006283
0.000730505
0.000795561
0.000836486
0.000861132
0.000874078
0.000878823
0.000873603
0.000844646
0.000767321
0.000366019
-0.00167287
-0.0108245
-0.0619229
-0.107465
-0.361991
-0.380909
-0.28147
-0.137573
-0.0467174
-0.0158514
-0.00617557
-0.00256234
-0.00105974
-0.000453656
-0.00020517
-9.50972e-05
-4.41886e-05
-2.03995e-05
-9.30969e-06
-4.18307e-06
-1.84485e-06
-7.96813e-07
-3.36484e-07
-1.38792e-07
-5.58502e-08
-2.19146e-08
-8.38836e-09
-3.14325e-09
-1.1558e-09
-4.23127e-10
-1.5954e-10
-7.11911e-11
-5.0777e-11
-6.97003e-11
-1.15283e-09
-4.52818e-09
-1.402e-08
-3.85815e-08
-8.60815e-08
-2.17818e-07
-5.77807e-07
-1.08578e-06
-1.55163e-06
-2.30841e-06
-1.84247e-06
-2.32991e-05
-0.000122417
-0.000130894
0.00023307
0.00655152
0.00255218
-0.0262022
-0.114164
-0.254644
-0.440143
-0.620419
-0.6249
-0.540491
-0.271031
0.319783
1.13739
1.72941
2.49995
2.41182
1.80033
0.94866
0.31438
0.083613
0.0265697
0.00990549
0.0036924
0.00141911
0.000588946
0.000251617
0.000107365
4.53007e-05
1.88291e-05
7.68315e-06
3.06926e-06
1.19814e-06
4.56309e-07
1.69356e-07
6.12119e-08
2.155e-08
7.42571e-09
2.52719e-09
8.68432e-10
3.22081e-10
1.26953e-10
3.34593e-13
-6.71015e-11
-1.52125e-10
-3.50791e-10
-3.93461e-10
2.28331e-09
1.33655e-08
3.76102e-08
3.76998e-08
-4.36259e-08
-3.31753e-07
-1.20552e-06
-3.66918e-06
1.00782e-06
-3.30972e-05
-0.000136298
-0.000119359
0.000164769
0.00270667
0.0118628
-0.00165833
-0.0455991
-0.122878
-0.23989
-0.261088
-0.22985
-0.174348
-0.0847486
0.042338
0.224351
0.478654
0.814635
1.24935
1.79932
2.35921
2.76863
3.14157
3.55208
4.01928
4.51389
4.98362
5.38556
5.69497
5.89782
5.98264
5.95046
5.79526
5.49905
5.03309
4.33503
3.12434
1.16862
-1.16923
-3.7156
-5.77149
-6.55964
-4.25254
3.86673e-13
4.81286e-13
1.02373e-12
1.92469e-12
3.48001e-12
6.15957e-12
1.06806e-11
1.81548e-11
3.02753e-11
4.95658e-11
7.97453e-11
1.26252e-10
1.96974e-10
3.03239e-10
4.61138e-10
6.93233e-10
1.03069e-09
1.51581e-09
2.20454e-09
3.18752e-09
4.63933e-09
6.88043e-09
1.04357e-08
1.61179e-08
2.51695e-08
3.9447e-08
6.16602e-08
9.56796e-08
1.46769e-07
2.24184e-07
3.12557e-07
3.1776e-07
2.38282e-07
1.43691e-07
7.44687e-08
3.47236e-08
1.56836e-08
8.08008e-09
6.37439e-09
7.31204e-09
9.46654e-09
1.24107e-08
1.62488e-08
2.02473e-08
2.33589e-08
2.56945e-08
2.7441e-08
2.88096e-08
2.99337e-08
3.09488e-08
3.16245e-08
2.98852e-08
1.98937e-08
-1.15038e-09
-1.69908e-08
-1.99734e-07
-5.83071e-06
-3.42751e-05
-0.00422406
-0.221478
-0.473405
-0.470397
-0.317632
-0.145337
-0.0471309
-0.0141522
-0.0056807
-0.00256252
-0.00114964
-0.000523053
-0.000245809
-0.000117216
-5.5692e-05
-2.61553e-05
-1.21065e-05
-5.50871e-06
-2.45761e-06
-1.07358e-06
-4.58032e-07
-1.90581e-07
-7.73605e-08
-3.08523e-08
-1.22892e-08
-5.32831e-09
-3.20003e-09
-3.50374e-09
-5.67213e-09
-9.56504e-09
-1.1424e-08
-1.95447e-08
-5.10661e-08
-1.37602e-07
-3.37067e-07
-7.10993e-07
-1.14558e-06
-1.41266e-06
-1.4975e-07
-2.17409e-07
-1.23555e-05
-8.78357e-05
-0.000123581
3.50153e-05
0.000452271
-0.00274158
-0.0326032
-0.0895792
-0.150439
-0.185635
-0.169107
-0.114285
-0.0336723
0.0658085
0.153794
0.187631
0.170847
0.121541
0.0742296
0.656646
1.83897
2.21899
1.53325
0.70389
0.222374
0.0525716
0.0192245
0.0084631
0.00358844
0.00149523
0.00064773
0.000285157
0.000124436
5.33748e-05
2.24805e-05
9.28365e-06
3.7478e-06
1.47403e-06
5.62719e-07
2.07362e-07
7.33828e-08
2.46512e-08
7.96741e-09
2.42247e-09
-3.97586e-10
-1.20152e-09
-1.66335e-09
-2.51981e-09
-4.12212e-09
-3.65212e-09
9.37409e-09
5.92923e-08
1.31217e-07
1.07632e-07
-1.39214e-07
-9.48634e-07
-3.10052e-06
-3.9732e-06
-3.0905e-05
-0.000142757
-0.000131674
3.04124e-05
0.000590154
0.00144191
-0.026945
-0.0877334
-0.161614
-0.213707
-0.217484
-0.185381
-0.134143
-0.0784911
-0.0219344
0.0472817
0.13299
0.212126
0.244836
0.231902
0.204871
0.171695
0.137155
0.105688
0.0804559
0.0614395
0.0473914
0.0371088
0.0295966
0.0240523
0.0219671
0.0301124
0.0493018
0.0796814
0.119493
0.161289
0.186975
0.162111
-0.0530269
-0.724624
-2.00486
-4.13517
-6.30829
-6.0262
8.15332e-18
4.22342e-17
1.08122e-16
4.13467e-16
1.39601e-15
3.41184e-15
7.21079e-15
1.47308e-14
2.8785e-14
5.39751e-14
9.75772e-14
1.70812e-13
2.90573e-13
4.81678e-13
7.79712e-13
1.23445e-12
1.91365e-12
2.90688e-12
4.32868e-12
6.32476e-12
9.08101e-12
1.28354e-11
1.79004e-11
2.47093e-11
3.39055e-11
4.64523e-11
6.37244e-11
8.75067e-11
1.1988e-10
1.63144e-10
2.06036e-10
1.97438e-10
1.43642e-10
8.31823e-11
3.86524e-11
1.30619e-11
1.85996e-12
-7.31203e-13
-4.76995e-13
-5.14736e-14
2.74319e-13
4.26854e-13
5.82767e-13
7.30273e-13
8.49405e-13
9.45245e-13
1.02464e-12
1.09749e-12
1.17096e-12
1.27029e-12
1.80067e-12
1.42654e-10
2.15621e-09
1.66497e-08
1.46278e-07
1.33871e-06
5.6925e-06
1.15871e-05
3.32307e-06
-0.0187257
-0.251662
-0.472229
-0.544974
-0.419192
-0.236742
-0.0998109
-0.032545
-0.0126004
-0.00607974
-0.00305148
-0.00151293
-0.000749223
-0.000371676
-0.000182801
-8.83269e-05
-4.18026e-05
-1.93669e-05
-8.78182e-06
-3.88744e-06
-1.6766e-06
-7.0386e-07
-2.88308e-07
-1.15454e-07
-4.7e-08
-2.22055e-08
-1.52965e-08
-1.32737e-08
-1.33272e-08
-1.32777e-08
-1.6943e-08
-1.01749e-07
-3.65894e-07
-9.33793e-07
-1.77321e-06
-2.28878e-06
5.82588e-08
6.57986e-06
-7.00685e-07
-7.80802e-05
-0.000175274
-9.9607e-05
0.000253313
-0.00180104
-0.0295721
-0.0936168
-0.170882
-0.231908
-0.253583
-0.232035
-0.169716
-0.0695003
0.0615447
0.194026
0.247951
0.224052
0.134456
0.049805
0.00593463
0.624862
1.73996
2.10634
1.63915
0.944949
0.389022
0.120681
0.0403867
0.0181381
0.00865289
0.00399331
0.00181637
0.000829323
0.000375155
0.000165998
7.15345e-05
3.00034e-05
1.22168e-05
4.80375e-06
1.80659e-06
6.37694e-07
2.01256e-07
4.86443e-08
-5.24301e-09
-2.14351e-08
-2.21855e-08
-2.4078e-08
-3.05508e-08
-4.09288e-08
-3.10646e-08
6.22894e-08
2.72136e-07
4.06361e-07
6.9006e-08
-1.05265e-06
-3.84114e-06
-7.2611e-06
-2.61994e-05
-0.0001514
-0.000248201
-4.33713e-05
0.00035889
0.00110781
-0.0234328
-0.116684
-0.223008
-0.307799
-0.342341
-0.320974
-0.258567
-0.177014
-0.0923985
-0.00731827
0.0867325
0.188128
0.263942
0.270329
0.252101
0.194418
0.117662
0.0500967
0.0116363
0.0037273
0.0017706
0.000851881
0.000358995
9.99031e-05
-2.53474e-05
-7.51869e-05
-8.38744e-05
-7.2454e-05
-5.34593e-05
-2.18186e-05
-4.47013e-05
-0.00169056
-0.0148448
-0.0253649
-0.0475325
-0.313362
-2.30098
-5.77834
-5.88998
-5.90652e-17
-2.99187e-17
-1.01495e-16
-2.43862e-16
-3.9229e-16
-2.5369e-16
-6.14749e-17
-1.48124e-17
3.09578e-18
1.23194e-17
2.29214e-17
4.85982e-17
1.1513e-16
2.66428e-16
5.61281e-16
1.06744e-15
1.85098e-15
2.96191e-15
4.43621e-15
6.49775e-15
9.12403e-15
1.06535e-14
1.1855e-15
-4.34872e-14
-1.77485e-13
-5.08348e-13
-1.2326e-12
-2.69473e-12
-5.43525e-12
-1.09584e-11
-1.85327e-11
-2.16834e-11
-2.03754e-11
-1.70971e-11
-1.3327e-11
-9.96291e-12
-5.58527e-12
-2.20312e-12
-5.53452e-13
-9.74946e-14
-6.40861e-14
-4.54129e-14
-3.23706e-14
-2.07893e-14
-1.28533e-14
-7.49056e-15
-3.93117e-15
-2.22666e-15
-1.0778e-15
-4.7388e-16
1.58561e-16
3.79399e-14
4.02155e-13
6.03805e-12
2.42679e-10
6.56642e-09
1.23037e-07
6.27202e-07
9.09697e-06
-0.000168345
-0.0217274
-0.211147
-0.449751
-0.531075
-0.458395
-0.320673
-0.176533
-0.0770629
-0.0299644
-0.0143187
-0.00755868
-0.00397358
-0.00202547
-0.0010136
-0.000503205
-0.000247272
-0.000119461
-5.66007e-05
-2.62302e-05
-1.18622e-05
-5.22544e-06
-2.2406e-06
-9.2297e-07
-3.52325e-07
-1.07908e-07
1.9307e-09
7.23783e-08
1.16713e-07
1.65579e-07
1.22471e-07
-2.27414e-07
-9.40333e-07
-2.1001e-06
-2.46768e-06
1.92063e-06
2.02677e-05
2.01429e-05
-5.52021e-05
-0.000220014
-0.000215404
4.55747e-05
-0.00170435
-0.0307552
-0.102289
-0.191683
-0.265223
-0.295763
-0.274146
-0.205991
-0.102994
0.0264951
0.161189
0.247721
0.248693
0.170322
0.0611736
0.00565473
-0.000779661
0.0203601
0.591042
1.51802
1.81676
1.6003
1.1125
0.603402
0.253806
0.0906026
0.0388848
0.0193392
0.00969406
0.00466183
0.0021813
0.0010086
0.000458692
0.000203295
8.71334e-05
3.58906e-05
1.40377e-05
5.07549e-06
1.56129e-06
2.89716e-07
-1.92043e-07
-2.98675e-07
-2.8463e-07
-2.86804e-07
-3.29693e-07
-3.78974e-07
-2.66329e-07
1.62936e-07
6.20961e-07
1.29698e-08
-2.39744e-06
-6.85362e-06
-1.34608e-05
-2.53669e-05
-0.000160008
-0.000354967
-0.000250659
5.58592e-05
0.000783009
-0.034932
-0.140206
-0.304288
-0.42343
-0.477304
-0.458857
-0.383612
-0.279438
-0.170281
-0.0667447
0.0356042
0.145006
0.241896
0.266208
0.242563
0.174209
0.0918266
0.0288353
0.00403499
0.000470923
-7.25328e-05
-0.000105078
-8.03631e-05
-5.35932e-05
-2.80304e-05
-8.32304e-06
-3.98642e-06
-5.02803e-06
-6.68252e-06
-6.99387e-06
-1.11835e-05
-0.00030624
-0.00185022
-0.00308737
-0.00191232
-0.00223755
-0.00793928
-0.927945
-4.95291
-5.09544
4.70964e-17
2.82618e-17
4.84574e-17
6.87183e-17
6.30197e-17
2.12728e-17
5.30481e-18
1.05874e-18
-7.61131e-19
-5.06999e-18
-1.92182e-17
-5.19265e-17
-1.09394e-16
-1.8766e-16
-2.71403e-16
-3.31743e-16
-3.34228e-16
-2.46952e-16
-8.49852e-17
-3.85747e-17
-2.56156e-17
2.17484e-17
-4.97074e-16
-5.30736e-15
-2.26396e-14
-7.14131e-14
-1.88521e-13
-4.25894e-13
-8.90422e-13
-1.6503e-12
-2.30932e-12
-2.01986e-12
-1.1815e-12
-5.29792e-13
-1.99945e-13
-6.30243e-14
-1.64325e-14
-3.43705e-15
-4.9812e-16
-5.92054e-17
-3.68649e-18
1.43324e-17
3.25307e-17
6.82625e-17
1.2045e-16
3.12035e-16
2.90888e-16
4.57087e-16
2.23479e-16
7.90715e-17
-1.04533e-16
-2.81558e-15
-3.21575e-14
6.96342e-14
1.0737e-11
2.80298e-10
5.39982e-09
9.42936e-08
1.25685e-06
7.46065e-06
-8.38724e-05
-0.0155037
-0.156919
-0.366182
-0.467849
-0.470005
-0.397695
-0.285055
-0.165439
-0.0798565
-0.0365145
-0.0184688
-0.00981054
-0.00515819
-0.00266372
-0.00136399
-0.000693
-0.000347934
-0.000171518
-8.27474e-05
-3.89974e-05
-1.78869e-05
-7.81677e-06
-3.11213e-06
-9.35055e-07
2.97697e-07
1.20207e-06
1.77998e-06
2.3014e-06
2.34222e-06
1.4867e-06
1.63524e-06
4.41421e-06
2.1911e-05
6.46518e-05
8.46668e-05
1.02486e-05
-0.000238457
-0.00032988
-0.000137889
-0.00211247
-0.0331484
-0.112057
-0.213712
-0.299864
-0.339701
-0.321744
-0.254559
-0.150229
-0.02299
0.115563
0.229748
0.267008
0.220846
0.109735
0.0223555
-0.000518856
-0.000573337
-0.00107016
0.0257924
0.460475
1.15238
1.50758
1.49972
1.24377
0.846581
0.470241
0.217564
0.0924731
0.0446064
0.0230213
0.0117825
0.00578607
0.00275113
0.00128283
0.000584994
0.000258367
0.00010873
4.23497e-05
1.39827e-05
2.47888e-06
-1.64896e-06
-2.93808e-06
-3.02118e-06
-3.07851e-06
-3.39415e-06
-3.53511e-06
-2.89631e-06
-2.67919e-06
-6.31433e-06
-1.55452e-05
-2.63435e-05
-3.62573e-05
-5.03087e-05
-0.000174193
-0.00046687
-0.000461084
-3.18714e-05
-0.000448357
-0.0523014
-0.186494
-0.370143
-0.543759
-0.621286
-0.606263
-0.519038
-0.391483
-0.253974
-0.124503
-0.00545176
0.110294
0.216794
0.265783
0.249801
0.185625
0.0959258
0.026987
0.000683141
-0.000663639
-0.000458287
-0.000268951
-8.16729e-05
-7.11995e-06
-9.19949e-07
-5.33791e-07
-2.86895e-07
-1.29829e-07
-5.81631e-08
-2.97459e-08
-1.21538e-07
-3.73262e-06
-5.72371e-05
-0.00015
-9.81839e-05
-0.00012669
-0.000229006
-0.00108061
-0.393528
-4.05458
-3.82806
-1.2809e-17
-1.28346e-17
-1.44244e-17
-1.35021e-17
-7.81752e-18
-1.96909e-18
-4.12805e-19
7.51688e-19
3.56164e-18
1.01249e-17
2.17388e-17
3.71596e-17
5.22486e-17
6.08099e-17
5.96071e-17
4.87795e-17
3.30022e-17
1.76174e-17
8.3267e-18
6.65532e-18
2.79373e-18
-1.07166e-17
7.92353e-17
3.54206e-17
-7.2122e-17
-2.45476e-16
-5.8002e-16
-1.21799e-15
-2.48148e-15
-5.97397e-15
-1.02191e-14
-6.83301e-15
-2.93412e-15
-8.49614e-16
-1.6633e-16
4.25064e-17
2.30024e-16
6.14372e-16
2.50281e-16
3.82004e-17
-3.92607e-18
-6.94759e-18
-1.02063e-17
-1.75855e-17
-3.31175e-17
-6.05147e-17
-1.3283e-16
-9.55863e-17
-3.84207e-17
-2.77124e-18
5.68302e-17
2.89354e-16
9.13011e-17
-5.78356e-15
-1.01158e-13
-3.00773e-12
2.22466e-11
6.67185e-09
3.99851e-08
9.5674e-07
1.17418e-05
0.000106498
-0.00666297
-0.0968319
-0.254865
-0.386446
-0.456082
-0.454671
-0.411423
-0.309841
-0.186458
-0.0925747
-0.043491
-0.0230358
-0.0128416
-0.00709984
-0.0038417
-0.00204774
-0.00107809
-0.000559318
-0.00028525
-0.000142786
-6.88413e-05
-3.0186e-05
-9.34547e-06
1.9623e-06
1.00431e-05
1.67866e-05
2.15314e-05
2.65337e-05
3.44116e-05
7.10349e-05
0.000144424
0.000233359
0.000266141
0.000163273
-0.000149416
-0.000449541
-0.000316972
-0.00320774
-0.0373876
-0.124153
-0.238365
-0.336973
-0.384391
-0.368864
-0.300983
-0.191788
-0.0626481
0.0771087
0.205593
0.273582
0.258242
0.162596
0.0498751
0.00123317
-0.000584112
-0.000416578
-0.000447795
-0.00170425
0.0160682
0.281661
0.761396
1.19082
1.3552
1.28874
1.06455
0.763589
0.459414
0.23585
0.111164
0.0555675
0.0290782
0.0151563
0.0076341
0.0037126
0.00175606
0.000805032
0.00035096
0.000137344
4.08261e-05
1.16024e-06
-1.95206e-05
-2.65904e-05
-2.91065e-05
-3.16138e-05
-3.35865e-05
-3.96289e-05
-6.41501e-05
-0.000119784
-0.000166674
-0.000164251
-0.000156757
-0.000225514
-0.000619442
-0.000725815
-0.000327797
-0.00590584
-0.0778708
-0.248729
-0.464226
-0.652411
-0.760812
-0.740951
-0.650844
-0.498091
-0.331623
-0.175539
-0.036423
0.0899545
0.202253
0.267623
0.258282
0.199825
0.104184
0.028184
0.00053565
-0.000677103
-0.000404262
-0.000166699
-3.00185e-05
-6.10483e-06
-1.49438e-06
-2.95649e-08
1.80456e-08
5.60251e-09
1.57193e-09
5.20524e-10
5.54949e-10
-4.87482e-09
-2.58624e-07
-5.02136e-07
-2.46536e-06
4.24039e-07
-7.46655e-06
-7.26503e-05
-0.000346646
-0.283869
-3.37684
-2.35913
1.55599e-18
3.38997e-18
3.06662e-18
2.09082e-18
8.4164e-19
1.20936e-19
-3.99198e-19
-1.49845e-18
-3.61555e-18
-6.76113e-18
-1.0215e-17
-1.2742e-17
-1.32118e-17
-1.13529e-17
-8.31046e-18
-5.30165e-18
-3.17697e-18
-1.97754e-18
-1.51602e-18
-1.233e-18
-1.28921e-18
-3.1127e-18
4.1122e-18
1.89154e-17
4.91708e-17
1.13314e-16
2.16822e-16
3.97922e-16
6.84582e-16
6.44681e-16
5.06664e-16
5.34186e-16
7.17243e-16
4.68102e-16
1.71982e-16
1.96058e-17
-3.80668e-17
-1.11873e-16
-6.49302e-17
-1.38335e-17
1.23043e-18
2.60653e-18
3.48042e-18
5.65509e-18
9.51258e-18
1.62096e-17
2.49696e-17
1.59528e-17
4.57398e-18
-4.08864e-18
-1.38677e-17
-1.26342e-17
2.9658e-18
-1.25361e-15
3.45357e-14
8.33564e-13
9.36692e-12
8.45377e-11
3.31188e-09
1.87649e-07
1.55043e-06
1.7321e-05
0.00027348
-0.00180567
-0.0448346
-0.153339
-0.30059
-0.407033
-0.486212
-0.5382
-0.473409
-0.346451
-0.211741
-0.114564
-0.0609564
-0.0342745
-0.0197597
-0.01134
-0.00640972
-0.00356623
-0.00195732
-0.00105969
-0.000559051
-0.000282554
-0.000128113
-3.75506e-05
3.5865e-05
0.000108212
0.000191827
0.000313193
0.000486226
0.00066147
0.000766082
0.000751461
0.000547153
6.62953e-05
-0.000508545
-0.000570158
-0.00523224
-0.0443503
-0.139713
-0.266134
-0.376728
-0.428519
-0.413934
-0.3443
-0.228916
-0.0957537
0.0442822
0.180038
0.273654
0.285657
0.21748
0.0917684
0.011178
-0.000557843
-0.000414425
-0.000194771
-5.40248e-05
-0.000519953
-0.00247969
0.00618005
0.12718
0.457681
0.882597
1.15142
1.25793
1.21865
1.05647
0.804647
0.519278
0.290704
0.147418
0.0749132
0.0396884
0.0211729
0.0110571
0.00558115
0.00271601
0.0012422
0.000483533
8.17428e-05
-0.000103237
-0.000183374
-0.000227387
-0.000275349
-0.000387903
-0.000567168
-0.0007375
-0.000789979
-0.000686977
-0.000526698
-0.000546991
-0.000721385
-0.00118647
-0.000714082
-0.0169887
-0.113404
-0.323488
-0.575574
-0.783055
-0.886547
-0.867685
-0.76276
-0.585625
-0.39118
-0.212722
-0.0569118
0.0799947
0.198052
0.272443
0.268794
0.216257
0.116799
0.0326656
0.000850671
-0.00061281
-0.000342068
-0.000116115
-1.4362e-05
-1.7504e-06
-2.50573e-07
-4.94763e-08
-1.18961e-08
-2.34566e-11
7.70166e-10
3.11132e-10
7.99952e-11
7.38419e-11
-1.59016e-10
-1.06735e-08
5.05208e-08
9.93778e-08
2.32846e-07
6.75308e-06
0.000117108
-0.00171905
-0.328089
-3.04776
-0.917369
7.34592e-23
-5.93133e-19
-5.01407e-19
-2.69057e-19
-5.40201e-20
1.32077e-19
4.60731e-19
1.04097e-18
1.82266e-18
2.57366e-18
2.99139e-18
2.90773e-18
2.36897e-18
1.63147e-18
1.02103e-18
6.36896e-19
4.39563e-19
3.39564e-19
2.82118e-19
2.22062e-19
2.24779e-19
7.45468e-20
-1.99225e-19
2.96548e-18
9.80987e-18
2.49996e-17
5.50658e-17
5.94763e-17
2.91072e-17
7.51777e-18
4.89239e-19
-2.09913e-17
-7.30479e-17
-8.26429e-17
-4.87863e-17
-1.30533e-17
5.83018e-18
2.13569e-17
1.48795e-17
3.82799e-18
-3.42225e-19
-8.42757e-19
-1.0983e-18
-1.85901e-18
-2.98617e-18
-4.20164e-18
-4.62188e-18
-2.15672e-18
-3.70948e-20
1.97446e-18
2.84023e-18
8.10146e-19
-2.98782e-18
-3.53208e-18
1.94126e-14
1.45355e-13
2.72149e-13
8.47683e-12
4.55583e-10
4.22787e-09
1.0704e-07
2.52027e-06
3.63816e-05
0.000389129
-0.000884132
-0.0168315
-0.0916741
-0.214438
-0.37332
-0.530419
-0.636324
-0.694434
-0.607796
-0.445974
-0.284849
-0.165898
-0.0951589
-0.0565633
-0.0341292
-0.0204714
-0.0121104
-0.00708542
-0.00407379
-0.00227326
-0.00116731
-0.000473922
-3.20269e-05
0.000415121
0.000967804
0.00148829
0.00184391
0.00191697
0.00175758
0.0013663
0.000572179
-0.000466841
-0.0010077
-0.00870423
-0.055263
-0.160501
-0.297818
-0.418747
-0.471408
-0.455905
-0.382671
-0.260371
-0.121572
0.0190083
0.156126
0.266497
0.302965
0.260482
0.139855
0.0314303
-0.000349197
-0.000443866
-0.000214265
-3.57964e-05
-1.71304e-06
-4.45879e-05
-0.000672841
-0.00273413
0.000138777
0.0446261
0.23864
0.546543
0.889596
1.12094
1.2393
1.25676
1.13739
0.90817
0.630837
0.38803
0.214601
0.112526
0.0603543
0.0328423
0.0177964
0.00941543
0.00473157
0.0020991
0.000507464
-0.000522108
-0.0011619
-0.00167541
-0.0021153
-0.00240506
-0.00236594
-0.00200307
-0.00151518
-0.00129544
-0.00145566
-0.00187825
-0.00156196
-0.0361704
-0.166741
-0.416973
-0.699644
-0.921745
-1.00617
-0.972564
-0.840459
-0.643221
-0.426679
-0.228841
-0.0635908
0.0781962
0.199918
0.279398
0.279985
0.233432
0.132642
0.0407126
0.00167884
-0.000557634
-0.000311568
-9.85355e-05
-8.39727e-06
-3.74296e-07
1.05675e-08
9.80256e-09
3.3837e-09
9.97682e-10
7.99187e-11
-3.43215e-11
-3.07973e-12
3.30667e-12
3.88313e-12
-1.85301e-11
3.60012e-09
1.46974e-08
8.30087e-08
1.65082e-06
2.05784e-05
0.000299205
-0.0093671
-0.471408
-2.75181
-0.164712
-3.69831e-20
6.71089e-20
6.18648e-20
1.89586e-20
-3.48778e-20
-1.20573e-19
-2.65492e-19
-4.55634e-19
-6.28938e-19
-7.08872e-19
-6.64325e-19
-5.282e-19
-3.60631e-19
-2.216e-19
-1.38295e-19
-9.51982e-20
-7.22718e-20
-5.69395e-20
-4.19494e-20
-2.01652e-20
-7.20076e-21
-9.55113e-20
-5.02695e-19
-1.00776e-18
-1.71684e-18
-2.56013e-18
-3.88112e-18
-6.6961e-18
-8.45692e-18
-5.90138e-18
-3.46739e-18
-3.45717e-18
3.09986e-18
1.10346e-17
1.10195e-17
4.98485e-18
-4.25793e-19
-4.43217e-18
-3.54658e-18
-1.04688e-18
9.51068e-20
2.61581e-19
3.20147e-19
5.70175e-19
8.84135e-19
1.0335e-18
7.6315e-19
2.03721e-19
-1.90434e-19
-5.9308e-19
-5.68191e-19
5.56296e-19
-5.07043e-18
-1.26575e-17
4.22821e-15
4.56163e-14
4.03789e-14
1.38254e-12
1.73744e-11
2.33765e-10
4.42031e-09
2.42281e-07
3.45408e-06
5.30287e-05
0.000281136
-0.000190589
-0.00700491
-0.0555389
-0.176669
-0.376276
-0.596232
-0.788494
-0.923215
-0.912572
-0.797916
-0.621558
-0.436
-0.282213
-0.173696
-0.106268
-0.0655417
-0.0405163
-0.0248425
-0.0151555
-0.00911504
-0.00525332
-0.00250105
-0.000353467
0.00146354
0.00273039
0.00314949
0.00300405
0.00254988
0.00148175
-0.000363263
-0.00181897
-0.0148125
-0.0715056
-0.189285
-0.334564
-0.462002
-0.512168
-0.493548
-0.414224
-0.283863
-0.138982
0.00253522
0.137919
0.255241
0.313691
0.294152
0.19176
0.0630061
0.00236603
-0.000498523
-0.000266704
-4.95309e-05
-1.10188e-06
7.39111e-08
-1.60097e-06
-8.80003e-05
-0.000690459
-0.0022654
-0.00341874
0.00186088
0.0798797
0.273346
0.569291
0.890709
1.14399
1.29248
1.35907
1.24943
1.04218
0.790502
0.541635
0.338516
0.194552
0.106645
0.0583564
0.0318011
0.0171096
0.00878624
0.00393419
0.000681245
-0.0021727
-0.00373595
-0.00387046
-0.00365558
-0.00328797
-0.00292398
-0.00311978
-0.00358527
-0.00584267
-0.0699526
-0.24612
-0.535957
-0.842063
-1.05434
-1.10811
-1.05593
-0.897882
-0.66305
-0.430498
-0.222579
-0.0529087
0.0855445
0.205244
0.287906
0.29175
0.249536
0.149575
0.0510246
0.00345983
-0.000512121
-0.000302031
-9.99315e-05
-7.2279e-06
-5.83035e-08
4.83905e-08
1.66084e-08
2.71643e-09
2.21915e-10
5.874e-11
1.10708e-11
-2.89009e-12
-2.05846e-12
-1.72541e-13
-1.02961e-12
1.6117e-12
1.14844e-09
7.21428e-09
1.57135e-07
6.09209e-06
6.37248e-05
0.00038702
-0.0443744
-0.677872
-2.20014
-0.0557074
8.18615e-21
4.73547e-22
-8.21886e-22
9.37244e-21
2.91802e-20
6.28206e-20
1.08298e-19
1.51116e-19
1.71229e-19
1.59207e-19
1.24735e-19
8.52304e-20
5.24735e-20
3.17155e-20
2.09132e-20
1.50433e-20
1.12385e-20
8.1911e-21
5.15224e-21
2.8423e-21
5.44938e-21
1.23765e-20
-4.2076e-21
-1.11601e-19
-3.35127e-19
-7.57094e-19
-1.35746e-18
-1.4727e-18
-9.64163e-19
-5.17177e-19
-2.32178e-19
1.88595e-19
-1.40908e-19
-1.71762e-18
-2.5467e-18
-1.59902e-18
-1.78073e-19
9.54571e-19
8.9909e-19
3.10687e-19
-1.87848e-20
-8.01362e-20
-8.95382e-20
-1.59283e-19
-2.3574e-19
-2.32335e-19
-1.21659e-19
-4.86499e-21
7.27618e-20
1.43394e-19
1.37246e-19
-1.66826e-19
2.02789e-18
-1.20149e-17
-1.60369e-15
-3.08842e-15
-5.61706e-15
-2.266e-14
2.92535e-13
3.41103e-11
1.07408e-09
7.41905e-09
8.45319e-08
2.16237e-06
4.39889e-05
0.00025619
-8.93666e-05
-0.00427568
-0.0434484
-0.169926
-0.387277
-0.653963
-0.929749
-1.14608
-1.33029
-1.26224
-1.10802
-0.914349
-0.704088
-0.506652
-0.343761
-0.222372
-0.13911
-0.0856496
-0.0515995
-0.0305558
-0.0175522
-0.00936091
-0.00331523
0.00117867
0.00319863
0.00329364
0.00226384
-0.000517833
-0.0036244
-0.0253575
-0.0956908
-0.228304
-0.380058
-0.504721
-0.549328
-0.525308
-0.436617
-0.297085
-0.145979
-0.00421234
0.12769
0.246534
0.321857
0.322336
0.244734
0.10494
0.0127374
-0.000471631
-0.000311479
-8.18246e-05
-2.15861e-06
4.53305e-08
2.74425e-08
-6.32142e-08
-4.17759e-06
-0.000105281
-0.000564694
-0.0021874
-0.00573815
-0.0137692
-0.0043234
0.0530824
0.258282
0.580587
0.91092
1.21442
1.37731
1.41871
1.34437
1.18853
0.974558
0.737409
0.51745
0.341679
0.212975
0.127004
0.0692397
0.033668
0.0143578
0.00597056
0.00151633
-0.00150906
-0.00381788
-0.00532258
-0.00667043
-0.0075491
-0.0279406
-0.127586
-0.363777
-0.679331
-0.997559
-1.17675
-1.19377
-1.11535
-0.91743
-0.659321
-0.398763
-0.191629
-0.0280803
0.103373
0.215037
0.296636
0.304071
0.264486
0.166527
0.062769
0.0061637
-0.000434674
-0.000308406
-0.000112316
-9.49873e-06
-1.9649e-07
4.30292e-08
1.35687e-08
2.04489e-09
1.69987e-10
1.04911e-11
6.17527e-13
6.70524e-13
1.54789e-13
-1.37991e-13
-4.13087e-14
3.81178e-13
5.71595e-12
1.00803e-10
7.68233e-09
8.73653e-07
4.41059e-05
0.000212771
-0.00108553
-0.12584
-0.80715
-1.38806
-0.018619
-1.13072e-21
-3.0983e-21
-3.67535e-21
-7.06787e-21
-1.39971e-20
-2.43138e-20
-3.51825e-20
-4.15047e-20
-3.96996e-20
-3.12562e-20
-2.11885e-20
-1.30815e-20
-7.72144e-21
-4.76199e-21
-3.19969e-21
-2.24269e-21
-1.57151e-21
-1.04272e-21
-6.53868e-22
-6.31599e-22
-6.53286e-22
2.28511e-21
1.18544e-20
2.41488e-20
3.39553e-20
3.65302e-20
4.12388e-20
7.52024e-20
1.19242e-19
1.17985e-19
8.84415e-20
3.67299e-20
5.86467e-20
3.46593e-19
6.05342e-19
4.60306e-19
1.14796e-19
-1.99441e-19
-2.31938e-19
-9.65852e-20
-4.15185e-22
2.36275e-20
2.49764e-20
4.08285e-20
5.65234e-20
4.84941e-20
1.93332e-20
-3.03269e-21
-1.90534e-20
-3.49035e-20
-4.61091e-20
-1.48094e-19
1.08736e-18
-1.15077e-17
5.24323e-16
6.59906e-16
-9.71072e-16
-1.26812e-14
-2.10451e-14
3.05206e-12
2.33763e-10
1.41892e-09
1.62007e-09
3.0731e-08
1.95107e-06
3.99159e-05
0.000191391
-4.79267e-05
-0.00330656
-0.0386529
-0.153233
-0.368053
-0.680288
-1.01767
-1.32103
-1.54131
-1.66722
-1.60516
-1.46864
-1.274
-1.04428
-0.810636
-0.596628
-0.420059
-0.282355
-0.181729
-0.109916
-0.0588164
-0.0259648
-0.00785098
0.000538065
0.00192215
-0.00112963
-0.008834
-0.0442638
-0.133443
-0.277549
-0.437612
-0.547506
-0.583263
-0.551082
-0.44758
-0.297308
-0.140879
0.000155963
0.126607
0.24282
0.328576
0.345755
0.290811
0.153613
0.0329858
-0.000232029
-0.000378821
-0.000134648
-7.82191e-06
-5.75835e-08
1.60181e-08
7.7389e-09
1.97113e-09
-1.92103e-07
-5.49922e-06
-5.79297e-05
-0.000514756
-0.00255611
-0.00951285
-0.0217104
-0.0554645
-0.0804009
0.00578621
0.22633
0.582046
0.962596
1.24379
1.37131
1.39418
1.36185
1.25138
1.07273
0.859712
0.649481
0.465611
0.31227
0.194973
0.111859
0.0561693
0.0220318
0.00354304
-0.00662224
-0.0129868
-0.017195
-0.0707598
-0.223286
-0.510493
-0.855523
-1.14244
-1.27925
-1.26061
-1.13188
-0.885362
-0.606245
-0.348971
-0.139395
0.00983503
0.127652
0.229673
0.306938
0.317104
0.28002
0.182615
0.0750678
0.00984974
-0.000293886
-0.000325797
-0.000130916
-1.41657e-05
-4.03353e-07
3.93566e-08
1.2161e-08
1.88429e-09
1.19255e-10
6.48138e-12
4.30579e-13
1.34749e-14
1.3447e-14
4.13397e-14
3.07474e-13
1.69199e-12
4.35462e-12
4.91855e-11
1.83612e-09
4.62758e-08
1.04487e-05
0.000123439
0.000373617
-0.0143804
-0.220145
-0.708393
-0.577229
-0.00492602
1.1234e-22
1.06576e-21
1.78158e-21
2.97706e-21
5.03042e-21
7.61644e-21
9.6542e-21
9.92169e-21
8.20187e-21
5.59957e-21
3.39658e-21
1.97567e-21
1.14975e-21
7.1172e-22
4.65197e-22
3.07952e-22
2.00915e-22
1.23578e-22
7.44125e-23
4.8813e-23
-4.19143e-23
-2.14328e-22
1.9408e-22
2.3384e-21
6.4824e-21
1.27603e-20
2.02052e-20
2.04559e-20
9.25185e-21
-5.68089e-21
-1.39477e-20
-1.27299e-20
-2.11342e-20
-7.73385e-20
-1.39999e-19
-1.20867e-19
-4.36017e-20
3.84857e-20
5.85781e-20
2.97115e-20
2.61169e-21
-6.45719e-21
-7.02828e-21
-9.87664e-21
-1.24186e-20
-9.61345e-21
-3.23079e-21
6.54951e-22
4.29783e-21
1.16872e-20
2.21391e-20
1.44785e-19
-1.00179e-18
9.60621e-18
-1.38822e-16
-6.47419e-17
1.26583e-16
-6.28521e-15
-6.90719e-14
2.06186e-12
2.22955e-10
7.42807e-10
-3.25364e-09
-4.60334e-08
-1.09447e-07
1.12848e-07
2.91197e-05
0.000165244
-5.38504e-05
-0.00282061
-0.0260091
-0.113297
-0.311347
-0.60777
-0.964064
-1.32829
-1.60599
-1.76004
-1.79664
-1.75804
-1.65365
-1.46787
-1.21836
-0.953121
-0.703844
-0.487817
-0.312193
-0.178515
-0.0859216
-0.0311097
-0.00733644
-0.00559724
-0.0253139
-0.078627
-0.192326
-0.34229
-0.498261
-0.588528
-0.604135
-0.561704
-0.441838
-0.281841
-0.122563
0.0159232
0.135972
0.246042
0.335487
0.36594
0.329826
0.205025
0.0644301
0.00173758
-0.000437894
-0.000196245
-2.23426e-05
-3.49133e-07
1.76765e-08
5.32767e-09
5.87644e-10
1.16159e-09
1.45773e-09
-1.94947e-07
-2.78961e-06
-2.68709e-05
-0.000314701
-0.00228775
-0.00981136
-0.0401096
-0.0858794
-0.138928
-0.191993
-0.092298
0.155649
0.507838
0.862259
1.10604
1.22608
1.23483
1.18922
1.081
0.910588
0.707931
0.505377
0.327977
0.189333
0.0916067
0.0306184
-0.00465219
-0.0233158
-0.0564815
-0.155301
-0.38369
-0.70206
-1.05413
-1.27886
-1.34985
-1.29606
-1.10819
-0.813708
-0.513709
-0.265581
-0.0798451
0.0564935
0.157344
0.247449
0.319101
0.330845
0.29636
0.199373
0.0874611
0.0144547
-7.18936e-05
-0.000347682
-0.000152698
-2.15778e-05
-7.55394e-07
3.72328e-08
1.24386e-08
2.11723e-09
1.24291e-10
5.45505e-12
1.76691e-13
4.76944e-15
-9.74428e-16
3.44887e-17
4.92402e-13
4.53597e-12
1.66732e-11
-1.67775e-11
-3.51285e-09
-1.97664e-08
3.44791e-07
5.19945e-05
0.000225491
0.000225253
-0.0390309
-0.243716
-0.431069
-0.0757473
-0.000909992
-7.4993e-24
-2.36046e-22
-5.51005e-22
-9.3387e-22
-1.46162e-21
-2.01708e-21
-2.31348e-21
-2.12618e-21
-1.55289e-21
-9.40261e-22
-5.25576e-22
-2.95145e-22
-1.68974e-22
-1.01979e-22
-6.31992e-23
-3.92149e-23
-2.39695e-23
-1.36379e-23
-6.42416e-24
-7.6874e-27
4.97153e-24
-3.34222e-23
-1.84602e-22
-3.90816e-22
-5.02119e-22
-4.43015e-22
-3.58424e-22
-5.58095e-22
-6.29548e-22
8.41794e-22
2.98067e-21
3.97808e-21
6.44295e-21
1.7352e-20
3.08459e-20
2.93389e-20
1.34514e-20
-6.58423e-21
-1.42358e-20
-8.77339e-21
-1.57262e-21
1.57526e-21
1.96266e-21
2.34255e-21
2.59283e-21
1.85627e-21
6.05426e-22
5.7509e-23
-1.03755e-21
-5.28874e-21
-1.15362e-20
-7.33072e-20
4.24061e-19
-4.02659e-18
3.23385e-17
4.11097e-17
-1.0944e-16
-2.26406e-15
-6.17063e-15
2.5684e-13
1.90214e-11
3.88838e-10
1.13301e-09
-9.23112e-09
-8.43563e-08
-8.42863e-07
-2.80056e-06
1.92606e-05
0.000139312
5.67743e-05
-0.00162521
-0.0106517
-0.0666547
-0.206432
-0.450374
-0.775413
-1.11938
-1.43163
-1.6256
-1.70062
-1.68561
-1.63533
-1.47362
-1.22539
-0.942419
-0.665047
-0.42354
-0.237692
-0.11547
-0.0509502
-0.039692
-0.0683402
-0.146765
-0.272087
-0.431187
-0.557698
-0.621257
-0.616461
-0.55478
-0.416448
-0.24853
-0.0899382
0.0431861
0.155838
0.258472
0.346042
0.386282
0.363786
0.257654
0.105272
0.0107271
-0.000405062
-0.000251566
-5.41432e-05
-1.3173e-06
1.38569e-08
5.58445e-09
7.73021e-10
3.07337e-11
3.1756e-10
4.54622e-09
1.24599e-08
-1.76885e-07
7.81739e-07
1.15939e-06
9.53629e-05
-0.00147356
-0.00914768
-0.0387171
-0.103081
-0.193489
-0.278531
-0.347367
-0.263774
-0.0584215
0.217324
0.479881
0.673624
0.748156
0.738331
0.657827
0.525073
0.371688
0.226574
0.108783
0.0272036
-0.02614
-0.0703005
-0.149466
-0.322977
-0.599525
-0.952327
-1.23524
-1.38587
-1.38282
-1.27622
-1.02327
-0.699721
-0.393438
-0.161247
-0.00457502
0.103425
0.190991
0.268749
0.333474
0.345349
0.312441