/*--------------------------------*- C++ -*----------------------------------*\
| =========                 |                                                 |
| \\      /  F ield         | OpenFOAM: The Open Source CFD Toolbox           |
|  \\    /   O peration     | Version:  2506                                  |
|   \\  /    A nd           | Website:  www.openfoam.com                      |
|    \\/     M anipulation  |                                                 |
\*---------------------------------------------------------------------------*/
FoamFile
{
    version     2.0;
    format      ascii;
    arch        "LSB;label=32;scalar=64";
    class       volScalarField;
    location    "1";
    object      p;
}
// * * * * * * * * * * * * * * * * * * * * * * * * * * * * * * * * * * * * * //

dimensions      [0 2 -2 0 0 0 0];

internalField   nonuniform List<scalar> 
4000
(
-0.000107121
-6.11244e-05
-4.35485e-05
-3.64259e-05
-3.14151e-05
-2.80222e-05
-2.59367e-05
-2.46724e-05
-2.39629e-05
-2.36801e-05
-2.37428e-05
-2.40967e-05
-2.47077e-05
-2.55553e-05
-2.66286e-05
-2.79236e-05
-2.9442e-05
-3.11899e-05
-3.31781e-05
-3.54214e-05
-3.79389e-05
-4.07543e-05
-4.38967e-05
-4.74018e-05
-5.13136e-05
-5.56871e-05
-6.05927e-05
-6.61231e-05
-7.24034e-05
-7.95754e-05
-8.7976e-05
-9.85778e-05
-0.000110139
-0.0001216
-0.000132657
-0.000143202
-0.000153019
-0.000162657
-0.000169202
-0.000172122
-0.000173861
-0.0001744
-0.000173613
-0.000171663
-0.000168691
-0.000164794
-0.000160025
-0.00015467
-0.000148714
-0.00014208
-0.000134487
-0.00012558
-0.0001158
-0.00010374
-9.00406e-05
-7.37706e-05
-5.57092e-05
-3.44936e-05
-1.10477e-05
1.27686e-05
3.56857e-05
5.68578e-05
7.38515e-05
8.82293e-05
9.92603e-05
0.000107991
0.000114806
0.000119941
0.000123688
0.000126238
0.000127732
0.00012823
0.000127782
0.00012642
0.00012416
0.000120999
0.000116917
0.000111856
0.00010581
9.87509e-05
9.06295e-05
8.13109e-05
7.08382e-05
5.90899e-05
4.61456e-05
3.19754e-05
1.69277e-05
1.40619e-06
-1.40969e-05
-2.88784e-05
-4.23961e-05
-5.45945e-05
-6.56058e-05
-7.56019e-05
-8.46446e-05
-9.30392e-05
-0.000100779
-0.000107843
-0.00011413
-0.000119461
-0.000123652
-0.000126649
-0.000128448
-0.000129048
-0.000128384
-0.000126505
-0.000123374
-0.000118844
-0.000112832
-0.000105443
-9.66124e-05
-8.58544e-05
-7.43227e-05
-5.99381e-05
-4.4993e-05
-2.76662e-05
-8.22967e-06
1.22143e-05
3.29875e-05
5.33666e-05
7.06406e-05
8.56792e-05
9.77496e-05
0.000107668
0.000115378
0.000121439
0.000126135
0.000129581
0.000131904
0.000133223
0.000133608
0.000133102
0.000131712
0.000129418
0.00012621
0.00012207
0.000116973
0.000110886
0.000103677
9.53506e-05
8.58646e-05
7.50504e-05
6.30271e-05
4.96938e-05
3.53125e-05
2.01999e-05
4.82795e-06
-1.01399e-05
-2.40368e-05
-3.65951e-05
-4.78174e-05
-5.78895e-05
-6.69245e-05
-7.50462e-05
-8.2452e-05
-8.91086e-05
-9.48485e-05
-9.95316e-05
-0.000102872
-0.000104672
-0.000104661
-0.000102113
-9.61572e-05
-8.4053e-05
-7.52825e-05
-6.71277e-05
-5.72929e-05
-4.69814e-05
-3.68501e-05
-2.75368e-05
-2.07713e-05
-1.7002e-05
-1.38791e-05
-1.13665e-05
-9.44932e-06
-7.9305e-06
-6.67416e-06
-5.60483e-06
-4.66803e-06
-3.8208e-06
-3.03007e-06
-2.26937e-06
-1.51558e-06
-7.46319e-07
6.19818e-08
9.36769e-07
1.91258e-06
3.03075e-06
4.36402e-06
5.97554e-06
7.96435e-06
1.0456e-05
1.36078e-05
1.76225e-05
2.27858e-05
2.95678e-05
3.88899e-05
5.30785e-05
7.97691e-05
0.000136481
-7.17398e-05
-5.27642e-05
-4.24093e-05
-3.62595e-05
-3.1874e-05
-2.87655e-05
-2.66833e-05
-2.53412e-05
-2.45433e-05
-2.41727e-05
-2.41519e-05
-2.44282e-05
-2.49672e-05
-2.5747e-05
-2.67556e-05
-2.79876e-05
-2.94434e-05
-3.11281e-05
-3.30513e-05
-3.52263e-05
-3.76708e-05
-4.0407e-05
-4.34622e-05
-4.68697e-05
-5.06705e-05
-5.4915e-05
-5.96665e-05
-6.50057e-05
-7.10383e-05
-7.78896e-05
-8.57705e-05
-9.51827e-05
-0.000105329
-0.000115484
-0.000125346
-0.000134791
-0.000143572
-0.000151607
-0.000156908
-0.000159554
-0.000161162
-0.000161647
-0.000160853
-0.000158963
-0.000156118
-0.000152395
-0.000147881
-0.000142753
-0.000136946
-0.000130305
-0.000122704
-0.000113955
-0.000104148
-9.26169e-05
-7.98056e-05
-6.53556e-05
-4.97e-05
-3.23167e-05
-1.37924e-05
5.19723e-06
2.39039e-05
4.24213e-05
5.8678e-05
7.3039e-05
8.4861e-05
9.44944e-05
0.000102194
0.000108179
0.000112682
0.000115898
0.000117997
0.000119068
0.000119169
0.000118342
0.000116614
0.000113989
0.000110454
0.000105953
0.000100468
9.3977e-05
8.64433e-05
7.7741e-05
6.78899e-05
5.67854e-05
4.44906e-05
3.10006e-05
1.6613e-05
1.81392e-06
-1.28883e-05
-2.6885e-05
-3.97573e-05
-5.14296e-05
-6.20291e-05
-7.16776e-05
-8.054e-05
-8.86606e-05
-9.60041e-05
-0.000102607
-0.000108233
-0.000112712
-0.000116026
-0.000118135
-0.000119026
-0.00011872
-0.000117212
-0.000114467
-0.000110478
-0.000105194
-9.86721e-05
-9.10688e-05
-8.23528e-05
-7.22498e-05
-6.15125e-05
-4.91115e-05
-3.62215e-05
-2.18694e-05
-6.22348e-06
1.00765e-05
2.65971e-05
4.33581e-05
5.88697e-05
7.28244e-05
8.46961e-05
9.48353e-05
0.00010302
0.000109579
0.000114754
0.000118659
0.000121409
0.000123117
0.000123864
0.000123707
0.00012267
0.000120742
0.000117908
0.000114145
0.000109432
0.000103756
9.70022e-05
8.91426e-05
8.01539e-05
6.98892e-05
5.84484e-05
4.57547e-05
3.20178e-05
1.76587e-05
3.13885e-06
-1.09041e-05
-2.39029e-05
-3.56797e-05
-4.62341e-05
-5.57104e-05
-6.43118e-05
-7.20154e-05
-7.88205e-05
-8.48056e-05
-8.96348e-05
-9.30427e-05
-9.49084e-05
-9.49703e-05
-9.2903e-05
-8.81916e-05
-8.05307e-05
-6.94781e-05
-6.18523e-05
-5.47045e-05
-4.65869e-05
-3.86539e-05
-3.12382e-05
-2.46319e-05
-1.95756e-05
-1.62574e-05
-1.34956e-05
-1.12165e-05
-9.40906e-06
-7.94245e-06
-6.71211e-06
-5.65329e-06
-4.71767e-06
-3.86657e-06
-3.06945e-06
-2.30121e-06
-1.53934e-06
-7.61588e-07
5.64782e-08
9.4389e-07
1.93694e-06
3.08527e-06
4.44103e-06
6.09009e-06
8.13358e-06
1.07004e-05
1.39514e-05
1.80852e-05
2.33527e-05
3.00943e-05
3.88103e-05
5.02813e-05
6.58812e-05
9.06866e-05
-5.23628e-05
-4.57028e-05
-3.994e-05
-3.5286e-05
-3.16453e-05
-2.89167e-05
-2.69738e-05
-2.56605e-05
-2.48459e-05
-2.44361e-05
-2.43649e-05
-2.45858e-05
-2.5067e-05
-2.57879e-05
-2.67362e-05
-2.79063e-05
-2.92979e-05
-3.09155e-05
-3.27675e-05
-3.48662e-05
-3.7228e-05
-3.98734e-05
-4.28274e-05
-4.61208e-05
-4.97906e-05
-5.3882e-05
-5.84503e-05
-6.35638e-05
-6.93078e-05
-7.57756e-05
-8.30844e-05
-9.15177e-05
-0.000100528
-0.000109584
-0.000118421
-0.000126904
-0.000134718
-0.000141528
-0.000145965
-0.000148386
-0.000149865
-0.000150259
-0.000149421
-0.000147541
-0.000144743
-0.000141083
-0.000136642
-0.000131502
-0.000125579
-0.00011879
-0.000111051
-0.000102289
-9.25432e-05
-8.1668e-05
-6.98919e-05
-5.71505e-05
-4.3726e-05
-2.9431e-05
-1.45329e-05
8.1355e-07
1.62611e-05
3.20432e-05
4.6772e-05
6.04705e-05
7.23367e-05
8.23838e-05
9.06025e-05
9.71988e-05
0.000102341
0.000106158
0.000108803
0.000110384
0.000110972
0.000110613
0.000109346
0.000107188
0.000104137
0.000100141
9.51801e-05
8.92317e-05
8.2249e-05
7.41231e-05
6.48473e-05
5.43681e-05
4.27085e-05
2.99316e-05
1.63112e-05
2.2513e-06
-1.175e-05
-2.51282e-05
-3.75536e-05
-4.88938e-05
-5.92514e-05
-6.86653e-05
-7.72252e-05
-8.49394e-05
-9.17633e-05
-9.76099e-05
-0.000102434
-0.000106066
-0.000108509
-0.000109746
-0.000109772
-0.000108598
-0.00010622
-0.00010264
-9.78946e-05
-9.20355e-05
-8.5212e-05
-7.75625e-05
-6.90128e-05
-5.95822e-05
-4.98297e-05
-3.94041e-05
-2.84729e-05
-1.66748e-05
-4.11986e-06
9.00594e-06
2.2474e-05
3.63639e-05
4.99481e-05
6.26142e-05
7.39057e-05
8.38139e-05
9.20731e-05
9.88322e-05
0.000104301
0.00010857
0.000111709
0.000113796
0.000114889
0.000115041
0.000114297
0.000112668
0.000110159
0.000106742
0.000102378
9.70484e-05
9.06737e-05
8.32269e-05
7.46966e-05
6.49848e-05
5.41186e-05
4.21354e-05
2.92176e-05
1.57062e-05
2.04002e-06
-1.11749e-05
-2.34969e-05
-3.47247e-05
-4.48315e-05
-5.3916e-05
-6.20379e-05
-6.91947e-05
-7.52959e-05
-8.02198e-05
-8.38505e-05
-8.58994e-05
-8.62062e-05
-8.45444e-05
-8.07516e-05
-7.46963e-05
-6.67572e-05
-5.72759e-05
-5.08605e-05
-4.48156e-05
-3.82898e-05
-3.22977e-05
-2.69025e-05
-2.21884e-05
-1.8366e-05
-1.54686e-05
-1.30041e-05
-1.09427e-05
-9.26188e-06
-7.86868e-06
-6.68316e-06
-5.65087e-06
-4.72998e-06
-3.88669e-06
-3.09374e-06
-2.32809e-06
-1.56861e-06
-7.9392e-07
1.97799e-08
9.01057e-07
1.886e-06
3.02132e-06
4.36595e-06
6.00115e-06
8.02899e-06
1.05781e-05
1.38047e-05
1.78863e-05
2.30082e-05
2.93316e-05
3.69143e-05
4.54898e-05
5.43108e-05
6.40723e-05
-4.27968e-05
-3.99203e-05
-3.66112e-05
-3.33572e-05
-3.05786e-05
-2.83544e-05
-2.6686e-05
-2.55126e-05
-2.47614e-05
-2.43699e-05
-2.42895e-05
-2.44838e-05
-2.4927e-05
-2.56016e-05
-2.64969e-05
-2.76082e-05
-2.89352e-05
-3.04819e-05
-3.22559e-05
-3.42685e-05
-3.65347e-05
-3.90729e-05
-4.1906e-05
-4.50612e-05
-4.85715e-05
-5.24762e-05
-5.68225e-05
-6.16672e-05
-6.70788e-05
-7.31272e-05
-7.9888e-05
-8.75397e-05
-9.56326e-05
-0.000103757
-0.000111695
-0.000119325
-0.000126303
-0.000132231
-0.0001361
-0.000138319
-0.000139638
-0.000139895
-0.000138965
-0.000137037
-0.000134222
-0.000130563
-0.000126124
-0.000120906
-0.0001149
-0.000108086
-0.000100353
-9.17358e-05
-8.23007e-05
-7.20603e-05
-6.1241e-05
-4.99248e-05
-3.83282e-05
-2.63107e-05
-1.39589e-05
-1.19557e-06
1.18555e-05
2.53445e-05
3.84636e-05
5.11876e-05
6.25481e-05
7.25223e-05
8.1012e-05
8.793e-05
9.34451e-05
9.76748e-05
0.000100732
0.000102719
0.000103704
0.000103736
0.000102851
0.000101086
9.84293e-05
9.48499e-05
9.03206e-05
8.48246e-05
7.83139e-05
7.06826e-05
6.19334e-05
5.20704e-05
4.1029e-05
2.89043e-05
1.59416e-05
2.55079e-06
-1.07834e-05
-2.3583e-05
-3.55467e-05
-4.65121e-05
-5.65176e-05
-6.55618e-05
-7.37208e-05
-8.09379e-05
-8.71258e-05
-9.22617e-05
-9.62931e-05
-9.91328e-05
-0.000100777
-0.000101226
-0.000100478
-9.85521e-05
-9.54728e-05
-9.12944e-05
-8.61133e-05
-8.00472e-05
-7.32776e-05
-6.59202e-05
-5.79782e-05
-4.95629e-05
-4.08722e-05
-3.17836e-05
-2.2386e-05
-1.25059e-05
-2.14753e-06
8.72791e-06
2.00589e-05
3.18959e-05
4.37179e-05
5.52563e-05
6.58572e-05
7.53395e-05
8.34514e-05
9.02315e-05
9.57547e-05
0.000100142
0.000103458
0.000105753
0.000107086
0.000107493
0.000107011
0.00010565
0.000103404
0.000100272
9.62213e-05
9.12047e-05
8.51592e-05
7.8078e-05
6.99951e-05
6.08006e-05
5.04288e-05
3.90398e-05
2.6773e-05
1.39564e-05
1.05006e-06
-1.14376e-05
-2.31309e-05
-3.3806e-05
-4.33963e-05
-5.19302e-05
-5.94523e-05
-6.58473e-05
-7.10144e-05
-7.48641e-05
-7.72498e-05
-7.79728e-05
-7.68932e-05
-7.39023e-05
-6.91184e-05
-6.27886e-05
-5.55564e-05
-4.76235e-05
-4.22299e-05
-3.71981e-05
-3.20292e-05
-2.74148e-05
-2.3343e-05
-1.98018e-05
-1.68252e-05
-1.43902e-05
-1.22624e-05
-1.04492e-05
-8.93146e-06
-7.64555e-06
-6.53328e-06
-5.55159e-06
-4.66619e-06
-3.84891e-06
-3.07652e-06
-2.32898e-06
-1.58755e-06
-8.32985e-07
-4.36396e-08
8.06764e-07
1.75187e-06
2.83416e-06
4.11093e-06
5.65738e-06
7.57043e-06
9.97096e-06
1.30003e-05
1.68047e-05
2.14983e-05
2.70899e-05
3.33622e-05
3.97107e-05
4.53743e-05
5.0275e-05
-3.6582e-05
-3.5212e-05
-3.32969e-05
-3.11037e-05
-2.90602e-05
-2.73394e-05
-2.59846e-05
-2.49976e-05
-2.43514e-05
-2.40121e-05
-2.39486e-05
-2.41359e-05
-2.45549e-05
-2.51923e-05
-2.60402e-05
-2.70949e-05
-2.83566e-05
-2.98292e-05
-3.15199e-05
-3.34389e-05
-3.55997e-05
-3.80189e-05
-4.07169e-05
-4.37178e-05
-4.70504e-05
-5.07484e-05
-5.48518e-05
-5.94077e-05
-6.44718e-05
-7.00992e-05
-7.63435e-05
-8.33115e-05
-9.06113e-05
-9.79194e-05
-0.000105062
-0.000111931
-0.000118182
-0.0001234
-0.000126813
-0.000128806
-0.000129925
-0.000130011
-0.000128952
-0.000126938
-0.00012407
-0.00012038
-0.000115903
-0.00011066
-0.000104654
-9.7863e-05
-9.02568e-05
-8.19279e-05
-7.29685e-05
-6.34728e-05
-5.36646e-05
-4.36657e-05
-3.36217e-05
-2.34653e-05
-1.31537e-05
-2.51351e-06
8.51127e-06
2.00538e-05
3.16223e-05
4.31119e-05
5.37965e-05
6.34852e-05
7.20115e-05
7.90969e-05
8.48379e-05
8.93518e-05
9.27251e-05
9.50461e-05
9.63815e-05
9.67673e-05
9.62726e-05
9.48999e-05
9.26264e-05
8.94513e-05
8.53349e-05
8.02649e-05
7.42186e-05
6.71109e-05
5.89e-05
4.95978e-05
3.91631e-05
2.77146e-05
1.54417e-05
2.73797e-06
-9.93848e-06
-2.21585e-05
-3.36245e-05
-4.41532e-05
-5.37306e-05
-6.23502e-05
-6.99752e-05
-7.65973e-05
-8.21366e-05
-8.65451e-05
-8.98066e-05
-9.18842e-05
-9.27794e-05
-9.25031e-05
-9.10702e-05
-8.85235e-05
-8.4928e-05
-8.03913e-05
-7.50571e-05
-6.90718e-05
-6.26149e-05
-5.57793e-05
-4.85879e-05
-4.11078e-05
-3.34686e-05
-2.55891e-05
-1.75541e-05
-9.25279e-06
-6.32954e-07
8.42994e-06
1.79912e-05
2.81164e-05
3.84781e-05
4.88368e-05
5.86224e-05
6.76406e-05
7.55331e-05
8.22517e-05
8.77533e-05
9.21351e-05
9.54844e-05
9.78561e-05
9.93148e-05
9.99052e-05
9.96452e-05
9.85319e-05
9.65403e-05
9.36733e-05
8.99308e-05
8.52777e-05
7.96442e-05
7.29702e-05
6.52858e-05
5.65438e-05
4.67038e-05
3.59253e-05
2.43304e-05
1.22413e-05
8.79144e-08
-1.16845e-05
-2.27178e-05
-3.27762e-05
-4.17617e-05
-4.96531e-05
-5.63881e-05
-6.19051e-05
-6.60659e-05
-6.8803e-05
-6.99962e-05
-6.95338e-05
-6.73717e-05
-6.35497e-05
-5.84331e-05
-5.24656e-05
-4.62245e-05
-3.96176e-05
-3.51094e-05
-3.09998e-05
-2.69202e-05
-2.3343e-05
-2.02123e-05
-1.74865e-05
-1.51508e-05
-1.31582e-05
-1.13718e-05
-9.8078e-06
-8.46733e-06
-7.30704e-06
-6.28564e-06
-5.37087e-06
-4.53601e-06
-3.75863e-06
-3.01983e-06
-2.30305e-06
-1.59256e-06
-8.72068e-07
-1.23124e-07
6.76837e-07
1.55671e-06
2.55419e-06
3.71971e-06
5.12032e-06
6.84293e-06
8.99518e-06
1.16998e-05
1.50741e-05
1.9183e-05
2.39552e-05
2.90783e-05
3.39193e-05
3.78772e-05
4.0579e-05
-3.19939e-05
-3.13677e-05
-3.02602e-05
-2.88014e-05
-2.7328e-05
-2.6025e-05
-2.4967e-05
-2.41734e-05
-2.36474e-05
-2.33768e-05
-2.33458e-05
-2.3539e-05
-2.39441e-05
-2.45521e-05
-2.53576e-05
-2.63586e-05
-2.7556e-05
-2.89538e-05
-3.05588e-05
-3.23803e-05
-3.44305e-05
-3.67244e-05
-3.92799e-05
-4.21184e-05
-4.52646e-05
-4.87476e-05
-5.26011e-05
-5.68642e-05
-6.15825e-05
-6.68022e-05
-7.25631e-05
-7.8913e-05
-8.55112e-05
-9.2097e-05
-9.85321e-05
-0.000104718
-0.000110315
-0.000114921
-0.000117924
-0.000119668
-0.000120566
-0.000120464
-0.000119257
-0.000117138
-0.000114205
-0.000110476
-0.000105965
-0.000100748
-9.47964e-05
-8.81238e-05
-8.07647e-05
-7.28445e-05
-6.44779e-05
-5.57993e-05
-4.70122e-05
-3.82383e-05
-2.95675e-05
-2.09593e-05
-1.233e-05
-3.47605e-06
5.7514e-06
1.55154e-05
2.55659e-05
3.58125e-05
4.57313e-05
5.50075e-05
6.3334e-05
7.05028e-05
7.645e-05
8.12129e-05
8.48536e-05
8.74537e-05
8.90832e-05
8.97944e-05
8.96196e-05
8.85454e-05
8.66069e-05
8.3804e-05
8.00881e-05
7.54483e-05
6.9867e-05
6.3289e-05
5.56378e-05
4.69328e-05
3.71415e-05
2.63845e-05
1.48171e-05
2.80739e-06
-9.20804e-06
-2.08318e-05
-3.17575e-05
-4.17942e-05
-5.08797e-05
-5.89653e-05
-6.60068e-05
-7.19786e-05
-7.68301e-05
-8.05098e-05
-8.30356e-05
-8.43976e-05
-8.46078e-05
-8.36936e-05
-8.16925e-05
-7.86819e-05
-7.47691e-05
-7.01032e-05
-6.4851e-05
-5.91566e-05
-5.31749e-05
-4.69664e-05
-4.0547e-05
-3.39615e-05
-2.73123e-05
-2.05422e-05
-1.37158e-05
-6.7459e-06
4.39471e-07
7.98891e-06
1.60107e-05
2.46031e-05
3.36002e-05
4.28072e-05
5.17714e-05
6.0271e-05
6.78836e-05
7.44675e-05
7.99679e-05
8.43965e-05
8.78177e-05
9.02913e-05
9.18645e-05
9.25783e-05
9.24504e-05
9.14968e-05
8.97146e-05
8.70836e-05
8.36088e-05
7.92587e-05
7.39811e-05
6.77078e-05
6.04565e-05
5.22262e-05
4.29644e-05
3.28272e-05
2.19305e-05
1.05808e-05
-8.22551e-07
-1.18609e-05
-2.2177e-05
-3.16007e-05
-3.99082e-05
-4.69803e-05
-5.28515e-05
-5.74236e-05
-6.05606e-05
-6.22343e-05
-6.23836e-05
-6.09879e-05
-5.81207e-05
-5.39376e-05
-4.89464e-05
-4.36251e-05
-3.83631e-05
-3.28797e-05
-2.91582e-05
-2.5848e-05
-2.26351e-05
-1.98579e-05
-1.74325e-05
-1.53161e-05
-1.34846e-05
-1.18776e-05
-1.03963e-05
-9.0699e-06
-7.90437e-06
-6.87556e-06
-5.95336e-06
-5.11503e-06
-4.34076e-06
-3.61336e-06
-2.91811e-06
-2.24186e-06
-1.57206e-06
-8.95642e-07
-1.97753e-07
5.39802e-07
1.34034e-06
2.23617e-06
3.26926e-06
4.49712e-06
5.99473e-06
7.85514e-06
1.01837e-05
1.30773e-05
1.65763e-05
2.05851e-05
2.47977e-05
2.8586e-05
3.13476e-05
3.27567e-05
-2.84256e-05
-2.81499e-05
-2.75041e-05
-2.65396e-05
-2.54968e-05
-2.45247e-05
-2.37112e-05
-2.30953e-05
-2.26879e-05
-2.24903e-05
-2.2498e-05
-2.27038e-05
-2.3101e-05
-2.36846e-05
-2.44516e-05
-2.54013e-05
-2.65356e-05
-2.78586e-05
-2.93767e-05
-3.10987e-05
-3.30355e-05
-3.52005e-05
-3.76097e-05
-4.02816e-05
-4.32379e-05
-4.65033e-05
-5.01063e-05
-5.40793e-05
-5.84601e-05
-6.32884e-05
-6.85952e-05
-7.43807e-05
-8.03492e-05
-8.62866e-05
-9.20843e-05
-9.76479e-05
-0.000102651
-0.000106709
-0.000109334
-0.00011082
-0.000111493
-0.0001112
-0.000109842
-0.000107618
-0.000104626
-0.00010087
-9.63697e-05
-9.12109e-05
-8.53801e-05
-7.89215e-05
-7.19092e-05
-6.44885e-05
-5.67857e-05
-4.89465e-05
-4.11463e-05
-3.34869e-05
-2.60254e-05
-1.87262e-05
-1.14859e-05
-4.10983e-06
3.57195e-06
1.17465e-05
2.03172e-05
2.92633e-05
3.82155e-05
4.68816e-05
5.49302e-05
6.20783e-05
6.81784e-05
7.31818e-05
7.70895e-05
7.99613e-05
8.18578e-05
8.28317e-05
8.29151e-05
8.21377e-05
8.05175e-05
7.8064e-05
7.47457e-05
7.05503e-05
6.54298e-05
5.93609e-05
5.22619e-05
4.41551e-05
3.50052e-05
2.49323e-05
1.40709e-05
2.75689e-06
-8.57758e-06
-1.95829e-05
-2.99271e-05
-3.94088e-05
-4.792e-05
-5.54115e-05
-6.18112e-05
-6.71044e-05
-7.12603e-05
-7.42352e-05
-7.6073e-05
-7.67819e-05
-7.6389e-05
-7.49437e-05
-7.25121e-05
-6.92078e-05
-6.51725e-05
-6.05774e-05
-5.55863e-05
-5.03199e-05
-4.48981e-05
-3.93509e-05
-3.36888e-05
-2.79474e-05
-2.22081e-05
-1.64303e-05
-1.06578e-05
-4.81367e-06
1.17981e-06
7.46959e-06
1.41793e-05
2.1425e-05
2.91396e-05
3.72063e-05
4.52802e-05
5.3149e-05
6.04006e-05
6.68344e-05
7.23205e-05
7.68058e-05
8.03128e-05
8.28855e-05
8.45685e-05
8.54016e-05
8.5411e-05
8.46172e-05
8.30213e-05
8.06072e-05
7.73837e-05
7.33258e-05
6.83859e-05
6.25078e-05
5.56997e-05
4.79787e-05
3.92904e-05
2.97899e-05
1.95809e-05
8.9772e-06
-1.67887e-06
-1.19705e-05
-2.15693e-05
-3.02009e-05
-3.76957e-05
-4.39407e-05
-4.89044e-05
-5.25165e-05
-5.46808e-05
-5.54213e-05
-5.47414e-05
-5.27062e-05
-4.94874e-05
-4.52956e-05
-4.06871e-05
-3.60915e-05
-3.17085e-05
-2.71936e-05
-2.41654e-05
-2.15285e-05
-1.90091e-05
-1.68577e-05
-1.49748e-05
-1.33267e-05
-1.18906e-05
-1.06078e-05
-9.38567e-06
-8.27279e-06
-7.27322e-06
-6.3714e-06
-5.54938e-06
-4.79146e-06
-4.08335e-06
-3.41233e-06
-2.76728e-06
-2.13814e-06
-1.51529e-06
-8.88679e-07
-2.46902e-07
4.24142e-07
1.14294e-06
1.9353e-06
2.83635e-06
3.89423e-06
5.17267e-06
6.75152e-06
8.72183e-06
1.11664e-05
1.4113e-05
1.74604e-05
2.09849e-05
2.39812e-05
2.58129e-05
2.64182e-05
-2.55023e-05
-2.5383e-05
-2.4998e-05
-2.43536e-05
-2.3619e-05
-2.2909e-05
-2.22972e-05
-2.18276e-05
-2.15238e-05
-2.13932e-05
-2.14388e-05
-2.16584e-05
-2.20496e-05
-2.26104e-05
-2.334e-05
-2.42391e-05
-2.53102e-05
-2.65576e-05
-2.79874e-05
-2.96077e-05
-3.14285e-05
-3.34617e-05
-3.57215e-05
-3.82241e-05
-4.09882e-05
-4.4035e-05
-4.73885e-05
-5.10755e-05
-5.51275e-05
-5.95793e-05
-6.44553e-05
-6.97202e-05
-7.51154e-05
-8.04627e-05
-8.56798e-05
-9.06749e-05
-9.51336e-05
-9.86975e-05
-0.000100969
-0.000102203
-0.000102656
-0.000102181
-0.00010068
-9.83607e-05
-9.53239e-05
-9.15579e-05
-8.71225e-05
-8.20729e-05
-7.64311e-05
-7.02675e-05
-6.36794e-05
-5.68197e-05
-4.98148e-05
-4.28044e-05
-3.59327e-05
-2.92806e-05
-2.2878e-05
-1.66901e-05
-1.06104e-05
-4.46224e-06
1.9196e-06
8.71784e-06
1.59255e-05
2.35797e-05
3.14457e-05
3.93042e-05
4.68695e-05
5.38236e-05
5.99534e-05
6.51374e-05
6.9297e-05
7.24499e-05
7.46315e-05
7.58905e-05
7.62681e-05
7.57934e-05
7.44859e-05
7.23623e-05
6.94113e-05
6.56445e-05
6.09376e-05
5.53493e-05
4.8798e-05
4.12782e-05
3.27587e-05
2.33605e-05
1.32117e-05
2.61941e-06
-8.02767e-06
-1.84074e-05
-2.81326e-05
-3.69655e-05
-4.48485e-05
-5.16964e-05
-5.74222e-05
-6.20271e-05
-6.55e-05
-6.78081e-05
-6.90153e-05
-6.91458e-05
-6.8245e-05
-6.63883e-05
-6.36721e-05
-6.02403e-05
-5.62541e-05
-5.1885e-05
-4.72747e-05
-4.25107e-05
-3.76787e-05
-3.27874e-05
-2.78469e-05
-2.28874e-05
-1.79729e-05
-1.30717e-05
-8.21131e-06
-3.32086e-06
1.67649e-06
6.91625e-06
1.25183e-05
1.86031e-05
2.51568e-05
3.21283e-05
3.92667e-05
4.64084e-05
5.31784e-05
5.93599e-05
6.47625e-05
6.9271e-05
7.28578e-05
7.55351e-05
7.73391e-05
7.83068e-05
7.8471e-05
7.78445e-05
7.64404e-05
7.42442e-05
7.12679e-05
6.7504e-05
6.28882e-05
5.73938e-05
5.10239e-05
4.37937e-05
3.56712e-05
2.68108e-05
1.72955e-05
7.41543e-06
-2.48302e-06
-1.20086e-05
-2.079e-05
-2.85899e-05
-3.52271e-05
-4.0588e-05
-4.46353e-05
-4.73363e-05
-4.86407e-05
-4.86241e-05
-4.73479e-05
-4.4945e-05
-4.16485e-05
-3.76704e-05
-3.35594e-05
-2.96716e-05
-2.60564e-05
-2.2386e-05
-1.99594e-05
-1.78828e-05
-1.59235e-05
-1.42677e-05
-1.28097e-05
-1.15273e-05
-1.04025e-05
-9.37969e-06
-8.38165e-06
-7.45186e-06
-6.60155e-06
-5.81796e-06
-5.09234e-06
-4.41436e-06
-3.77398e-06
-3.16207e-06
-2.57044e-06
-1.99162e-06
-1.41842e-06
-8.43351e-07
-2.57833e-07
3.48876e-07
9.914e-07
1.69052e-06
2.47544e-06
3.38681e-06
4.47926e-06
5.82125e-06
7.49198e-06
9.56215e-06
1.20528e-05
1.48705e-05
1.77572e-05
2.0067e-05
2.12445e-05
2.12966e-05
-2.29849e-05
-2.29289e-05
-2.26904e-05
-2.22544e-05
-2.17343e-05
-2.12184e-05
-2.07664e-05
-2.04201e-05
-2.02017e-05
-2.01277e-05
-2.02057e-05
-2.04361e-05
-2.08196e-05
-2.13566e-05
-2.20479e-05
-2.28952e-05
-2.39015e-05
-2.50711e-05
-2.64099e-05
-2.79255e-05
-2.96269e-05
-3.15247e-05
-3.36315e-05
-3.59615e-05
-3.85307e-05
-4.13574e-05
-4.44617e-05
-4.78661e-05
-5.15965e-05
-5.56838e-05
-6.0147e-05
-6.49268e-05
-6.97941e-05
-7.45994e-05
-7.92853e-05
-8.37604e-05
-8.77208e-05
-9.08368e-05
-9.27829e-05
-9.37754e-05
-9.4024e-05
-9.33819e-05
-9.17527e-05
-8.93608e-05
-8.63e-05
-8.25595e-05
-7.82312e-05
-7.33414e-05
-6.79523e-05
-6.21498e-05
-5.6042e-05
-4.97799e-05
-4.34811e-05
-3.72699e-05
-3.12609e-05
-2.5515e-05
-2.00411e-05
-1.48049e-05
-9.70607e-06
-4.58831e-06
7.01173e-07
6.3267e-06
1.23287e-05
1.8775e-05
2.55345e-05
3.24627e-05
3.93458e-05
4.58935e-05
5.1866e-05
5.70964e-05
6.1433e-05
6.48386e-05
6.7305e-05
6.88602e-05
6.95425e-05
6.93851e-05
6.84046e-05
6.65838e-05
6.40792e-05
6.07138e-05
5.63809e-05
5.12522e-05
4.52481e-05
3.83026e-05
3.03982e-05
2.16572e-05
1.22229e-05
2.36786e-06
-7.59737e-06
-1.72561e-05
-2.62938e-05
-3.44789e-05
-4.16849e-05
-4.7847e-05
-5.28837e-05
-5.6808e-05
-5.96262e-05
-6.13164e-05
-6.19596e-05
-6.15951e-05
-6.029e-05
-5.81466e-05
-5.52876e-05
-5.18762e-05
-4.80755e-05
-4.40396e-05
-3.98773e-05
-3.56438e-05
-3.13978e-05
-2.71362e-05
-2.28706e-05
-1.86261e-05
-1.44524e-05
-1.03219e-05
-6.2499e-06
-2.1707e-06
1.98722e-06
6.34469e-06
1.10103e-05
1.60994e-05
2.1626e-05
2.75823e-05
3.37925e-05
4.01471e-05
4.63268e-05
5.21275e-05
5.7336e-05
6.17919e-05
6.54188e-05
6.81861e-05
7.0109e-05
7.12129e-05
7.15292e-05
7.10972e-05
6.98903e-05
6.79038e-05
6.52129e-05
6.17447e-05
5.74513e-05
5.23386e-05
4.64084e-05
3.96458e-05
3.20665e-05
2.38383e-05
1.50315e-05
5.88149e-06
-3.21999e-06
-1.1918e-05
-1.98569e-05
-2.67828e-05
-3.25323e-05
-3.70016e-05
-4.01767e-05
-4.20608e-05
-4.26485e-05
-4.20592e-05
-4.03991e-05
-3.7845e-05
-3.46561e-05
-3.10126e-05
-2.74325e-05
-2.41984e-05
-2.12518e-05
-1.83171e-05
-1.64048e-05
-1.47925e-05
-1.3288e-05
-1.20277e-05
-1.09067e-05
-9.91285e-06
-9.03389e-06
-8.21989e-06
-7.40757e-06
-6.635e-06
-5.91386e-06
-5.23819e-06
-4.60273e-06
-4.00127e-06
-3.42718e-06
-2.87414e-06
-2.33627e-06
-1.80812e-06
-1.28437e-06
-7.59457e-07
-2.26839e-07
3.21901e-07
8.98591e-07
1.52047e-06
2.21246e-06
3.00968e-06
3.95975e-06
5.11953e-06
6.55819e-06
8.32949e-06
1.04406e-05
1.278e-05
1.50293e-05
1.67418e-05
1.74509e-05
1.71359e-05
-2.07256e-05
-2.06878e-05
-2.053e-05
-2.02292e-05
-1.98594e-05
-1.94846e-05
-1.9153e-05
-1.89008e-05
-1.87552e-05
-1.87299e-05
-1.88314e-05
-1.9067e-05
-1.94392e-05
-1.99495e-05
-2.05999e-05
-2.13927e-05
-2.23312e-05
-2.34198e-05
-2.46642e-05
-2.60711e-05
-2.76487e-05
-2.94067e-05
-3.13559e-05
-3.35089e-05
-3.58796e-05
-3.84835e-05
-4.13378e-05
-4.44611e-05
-4.7875e-05
-5.1607e-05
-5.56718e-05
-5.99951e-05
-6.43723e-05
-6.86773e-05
-7.28764e-05
-7.68769e-05
-8.03824e-05
-8.30922e-05
-8.47397e-05
-8.55086e-05
-8.55716e-05
-8.47819e-05
-8.30475e-05
-8.06099e-05
-7.75565e-05
-7.38787e-05
-6.96878e-05
-6.50136e-05
-5.99348e-05
-5.45452e-05
-4.89558e-05
-4.33087e-05
-3.7707e-05
-3.2256e-05
-2.70435e-05
-2.21116e-05
-1.74568e-05
-1.30432e-05
-8.78059e-06
-4.53454e-06
-1.67156e-07
4.4627e-06
9.41915e-06
1.47808e-05
2.0487e-05
2.64524e-05
3.25338e-05
3.84987e-05
4.41186e-05
4.92159e-05
5.35936e-05
5.71642e-05
5.98686e-05
6.16983e-05
6.26766e-05
6.28312e-05
6.21952e-05
6.0763e-05
5.85652e-05
5.5513e-05
5.16685e-05
4.70561e-05
4.16336e-05
3.52423e-05
2.79212e-05
1.98094e-05
1.11055e-05
2.01123e-06
-7.22521e-06
-1.61573e-05
-2.44678e-05
-3.19466e-05
-3.84403e-05
-4.38981e-05
-4.82483e-05
-5.1514e-05
-5.37171e-05
-5.48461e-05
-5.49974e-05
-5.42265e-05
-5.26231e-05
-5.03142e-05
-4.74407e-05
-4.41705e-05
-4.06531e-05
-3.7014e-05
-3.33279e-05
-2.9624e-05
-2.59424e-05
-2.22743e-05
-1.86325e-05
-1.50367e-05
-1.15241e-05
-8.06928e-06
-4.67911e-06
-1.29342e-06
2.15176e-06
5.762e-06
9.63205e-06
1.38675e-05
1.8496e-05
2.35337e-05
2.88629e-05
3.44172e-05
3.99405e-05
4.52555e-05
5.01545e-05
5.44566e-05
5.80492e-05
6.08601e-05
6.28758e-05
6.40988e-05
6.4553e-05
6.42701e-05
6.32586e-05
6.15323e-05
5.90923e-05
5.58727e-05
5.19166e-05
4.72641e-05
4.18205e-05
3.54922e-05
2.84731e-05
2.0876e-05
1.27739e-05
4.40278e-06
-3.89473e-06
-1.17383e-05
-1.87928e-05
-2.48191e-05
-2.96807e-05
-3.32922e-05
-3.56715e-05
-3.68536e-05
-3.68717e-05
-3.58777e-05
-3.40063e-05
-3.14563e-05
-2.84866e-05
-2.52344e-05
-2.21793e-05
-1.95357e-05
-1.71722e-05
-1.48716e-05
-1.33941e-05
-1.21661e-05
-1.10314e-05
-1.00866e-05
-9.23566e-06
-8.47092e-06
-7.78664e-06
-7.14003e-06
-6.48053e-06
-5.84077e-06
-5.23193e-06
-4.65215e-06
-4.09891e-06
-3.56882e-06
-3.05775e-06
-2.56143e-06
-2.07573e-06
-1.59669e-06
-1.12031e-06
-6.42277e-07
-1.5733e-07
3.41415e-07
8.63999e-07
1.42537e-06
2.04733e-06
2.76073e-06
3.60632e-06
4.63311e-06
5.89366e-06
7.42211e-06
9.19914e-06
1.10987e-05
1.2797e-05
1.40439e-05
1.43285e-05
1.37836e-05
-1.86307e-05
-1.85889e-05
-1.84733e-05
-1.82594e-05
-1.79936e-05
-1.77214e-05
-1.74808e-05
-1.73029e-05
-1.72112e-05
-1.72206e-05
-1.73397e-05
-1.75755e-05
-1.79319e-05
-1.84117e-05
-1.90175e-05
-1.97521e-05
-2.0619e-05
-2.16226e-05
-2.2768e-05
-2.40615e-05
-2.55105e-05
-2.71235e-05
-2.89101e-05
-3.08811e-05
-3.30486e-05
-3.54261e-05
-3.80281e-05
-4.08702e-05
-4.39708e-05
-4.73542e-05
-5.10318e-05
-5.49219e-05
-5.88406e-05
-6.26819e-05
-6.64343e-05
-7.0002e-05
-7.30929e-05
-7.5435e-05
-7.68114e-05
-7.73772e-05
-7.72766e-05
-7.63615e-05
-7.45455e-05
-7.20878e-05
-6.90635e-05
-6.55008e-05
-6.14927e-05
-5.70842e-05
-5.23629e-05
-4.74252e-05
-4.23782e-05
-3.73501e-05
-3.24258e-05
-2.76915e-05
-2.32116e-05
-1.90124e-05
-1.50825e-05
-1.1386e-05
-7.84299e-06
-4.33968e-06
-7.54811e-07
3.03015e-06
7.08783e-06
1.1496e-05
1.62399e-05
2.12757e-05
2.65162e-05
3.17916e-05
3.69075e-05
4.17003e-05
4.59608e-05
4.95686e-05
5.24221e-05
5.44705e-05
5.571e-05
5.61477e-05
5.5814e-05
5.46977e-05
5.2816e-05
5.01759e-05
4.68228e-05
4.27615e-05
3.78289e-05
3.1912e-05
2.51234e-05
1.76689e-05
9.75875e-06
1.47209e-06
-6.97671e-06
-1.5124e-05
-2.26612e-05
-2.93872e-05
-3.51446e-05
-3.98928e-05
-4.35713e-05
-4.62102e-05
-4.78449e-05
-4.84736e-05
-4.82076e-05
-4.71198e-05
-4.53215e-05
-4.29583e-05
-4.01784e-05
-3.714e-05
-3.39684e-05
-3.07568e-05
-2.75498e-05
-2.43587e-05
-2.12115e-05
-1.80966e-05
-1.50265e-05
-1.20153e-05
-9.08967e-06
-6.22629e-06
-3.42644e-06
-6.36198e-07
2.20005e-06
5.1732e-06
8.36404e-06
1.18659e-05
1.57126e-05
1.99321e-05
2.44483e-05
2.92266e-05
3.40705e-05
3.88341e-05
4.33317e-05
4.73824e-05
5.08545e-05
5.36438e-05
5.57082e-05
5.7023e-05
5.76035e-05
5.74594e-05
5.66184e-05
5.51026e-05
5.28877e-05
5.00053e-05
4.6465e-05
4.21789e-05
3.70404e-05
3.11494e-05
2.47108e-05
1.78102e-05
1.0489e-05
2.92609e-06
-4.53054e-06
-1.14818e-05
-1.76253e-05
-2.27497e-05
-2.6751e-05
-2.9566e-05
-3.12428e-05
-3.18412e-05
-3.14246e-05
-3.01651e-05
-2.82119e-05
-2.57692e-05
-2.30801e-05
-2.02401e-05
-1.76862e-05
-1.55704e-05
-1.37147e-05
-1.1953e-05
-1.0841e-05
-9.93058e-06
-9.09688e-06
-8.4108e-06
-7.76879e-06
-7.18526e-06
-6.65544e-06
-6.14324e-06
-5.60933e-06
-5.08125e-06
-4.5693e-06
-4.07406e-06
-3.595e-06
-3.1306e-06
-2.67847e-06
-2.23584e-06
-1.7998e-06
-1.3674e-06
-9.35485e-07
-5.00473e-07
-5.80011e-08
3.9802e-07
8.76557e-07
1.39096e-06
1.96064e-06
2.6125e-06
3.38046e-06
4.30253e-06
5.41457e-06
6.72892e-06
8.19613e-06
9.68193e-06
1.09692e-05
1.17795e-05
1.1744e-05
1.10948e-05
-1.66384e-05
-1.6582e-05
-1.64858e-05
-1.63269e-05
-1.61326e-05
-1.59343e-05
-1.57614e-05
-1.56393e-05
-1.55882e-05
-1.56223e-05
-1.57509e-05
-1.59809e-05
-1.63167e-05
-1.67616e-05
-1.73187e-05
-1.79911e-05
-1.87822e-05
-1.96962e-05
-2.07379e-05
-2.19129e-05
-2.32279e-05
-2.46903e-05
-2.63085e-05
-2.80921e-05
-3.00515e-05
-3.21982e-05
-3.45447e-05
-3.71044e-05
-3.98927e-05
-4.29316e-05
-4.62304e-05
-4.97053e-05
-5.31913e-05
-5.66e-05
-5.99412e-05
-6.31134e-05
-6.58266e-05
-6.78365e-05
-6.89693e-05
-6.93553e-05
-6.91157e-05
-6.81005e-05
-6.62319e-05
-6.37857e-05
-6.08219e-05
-5.74267e-05
-5.36419e-05
-4.95419e-05
-4.52176e-05
-4.07609e-05
-3.62699e-05
-3.18548e-05
-2.75823e-05
-2.35199e-05
-1.97123e-05
-1.61738e-05
-1.28878e-05
-9.82019e-06
-6.90083e-06
-4.03526e-06
-1.11752e-06
1.94921e-06
5.23675e-06
8.81636e-06
1.27008e-05
1.68747e-05
2.12915e-05
2.58352e-05
3.03542e-05
3.47118e-05
3.87121e-05
4.22215e-05
4.51133e-05
4.73006e-05
4.87477e-05
4.94355e-05
4.93827e-05
4.85729e-05
4.70373e-05
4.47668e-05
4.17618e-05
3.80554e-05
3.36076e-05
2.83622e-05
2.23434e-05
1.56313e-05
8.38742e-06
8.25556e-07
-6.81425e-06
-1.41339e-05
-2.08639e-05
-2.68101e-05
-3.18224e-05
-3.58696e-05
-3.89018e-05
-4.09528e-05
-4.20692e-05
-4.22599e-05
-4.16514e-05
-4.0334e-05
-3.84376e-05
-3.61172e-05
-3.35162e-05
-3.07722e-05
-2.79811e-05
-2.52051e-05
-2.24662e-05
-1.97636e-05
-1.71173e-05
-1.45136e-05
-1.19634e-05
-9.47579e-06
-7.06924e-06
-4.72289e-06
-2.43468e-06
-1.57429e-07
2.15602e-06
4.58292e-06
7.19088e-06
1.00602e-05
1.32267e-05
1.67224e-05
2.05012e-05
2.45491e-05