/*--------------------------------*- C++ -*----------------------------------*\
| =========                 |                                                 |
| \\      /  F ield         | OpenFOAM: The Open Source CFD Toolbox           |
|  \\    /   O peration     | Version:  2506                                  |
|   \\  /    A nd           | Website:  www.openfoam.com                      |
|    \\/     M anipulation  |                                                 |
\*---------------------------------------------------------------------------*/
FoamFile
{
    version     2.0;
    format      ascii;
    arch        "LSB;label=32;scalar=64";
    class       surfaceScalarField;
    location    "1";
    object      phi;
}
// * * * * * * * * * * * * * * * * * * * * * * * * * * * * * * * * * * * * * //

dimensions      [0 3 -1 0 0 0 0];

oriented        oriented;

internalField   nonuniform List<scalar> 
7780
(
6.12464e-10
-6.12464e-10
1.04811e-09
-4.35649e-10
1.29488e-09
-2.46767e-10
1.45613e-09
-1.61248e-10
1.56874e-09
-1.12612e-10
1.65085e-09
-8.21085e-11
1.7141e-09
-6.32507e-11
1.76513e-09
-5.10314e-11
1.80768e-09
-4.25523e-11
1.84409e-09
-3.64065e-11
1.87592e-09
-3.18336e-11
1.90429e-09
-2.83646e-11
1.92998e-09
-2.56969e-11
1.95362e-09
-2.36323e-11
1.97566e-09
-2.20387e-11
1.99648e-09
-2.08268e-11
2.01642e-09
-1.99361e-11
2.03575e-09
-1.9327e-11
2.05472e-09
-1.89765e-11
2.0736e-09
-1.88736e-11
2.09262e-09
-1.90228e-11
2.11206e-09
-1.94411e-11
2.13222e-09
-2.01614e-11
2.15346e-09
-2.12387e-11
2.17622e-09
-2.27566e-11
2.20106e-09
-2.48422e-11
2.22875e-09
-2.76934e-11
2.26039e-09
-3.16383e-11
2.29761e-09
-3.72224e-11
2.34297e-09
-4.53555e-11
2.38972e-09
-9.17205e-11
2.39276e-09
-3.20227e-10
2.35117e-09
-6.18974e-10
2.28072e-09
-8.9927e-10
2.19056e-09
-1.14231e-09
2.09804e-09
-1.36208e-09
2.01327e-09
-1.56748e-09
1.8903e-09
-1.81942e-09
1.745e-09
-1.98038e-09
1.62011e-09
-2.04518e-09
1.51332e-09
-2.09379e-09
1.42628e-09
-2.13325e-09
1.3544e-09
-2.16015e-09
1.29485e-09
-2.17672e-09
1.24552e-09
-2.18391e-09
1.20345e-09
-2.1807e-09
1.16778e-09
-2.1656e-09
1.13441e-09
-2.13867e-09
1.09961e-09
-2.09761e-09
1.05859e-09
-2.03948e-09
1.00897e-09
-1.96011e-09
9.55598e-10
-1.85479e-09
8.91093e-10
-1.72752e-09
8.31835e-10
-1.56293e-09
7.86529e-10
-1.36281e-09
7.83107e-10
-1.11015e-09
8.32984e-10
-8.15352e-10
9.61272e-10
-4.503e-10
1.15444e-09
-3.78077e-11
1.36644e-09
3.84814e-10
1.56681e-09
7.77711e-10
1.74551e-09
1.14048e-09
1.88364e-09
1.40074e-09
1.99951e-09
1.62429e-09
2.09094e-09
1.77546e-09
2.16823e-09
1.8961e-09
2.23551e-09
1.98965e-09
2.29471e-09
2.05496e-09
2.3486e-09
2.10438e-09
2.39833e-09
2.14158e-09
2.4455e-09
2.16882e-09
2.4903e-09
2.18535e-09
2.5333e-09
2.19298e-09
2.57501e-09
2.19279e-09
2.61572e-09
2.18495e-09
2.65571e-09
2.1691e-09
2.69503e-09
2.14445e-09
2.73336e-09
2.10465e-09
2.77121e-09
2.05568e-09
2.80827e-09
1.99269e-09
2.84477e-09
1.91026e-09
2.87766e-09
1.78623e-09
2.90879e-09
1.64749e-09
2.93349e-09
1.44128e-09
2.95203e-09
1.19868e-09
2.95652e-09
8.45278e-10
2.94875e-09
4.53205e-10
2.9275e-09
1.29466e-11
2.89735e-09
-4.50834e-10
2.86409e-09
-8.66254e-10
2.83639e-09
-1.19136e-09
2.81363e-09
-1.47253e-09
2.79794e-09
-1.66423e-09
2.78441e-09
-1.829e-09
2.77027e-09
-1.93305e-09
2.75023e-09
-2.01088e-09
2.72208e-09
-2.07458e-09
2.6834e-09
-2.11041e-09
2.63544e-09
-2.1362e-09
2.57965e-09
-2.15371e-09
2.5173e-09
-2.1639e-09
2.44988e-09
-2.16783e-09
2.37801e-09
-2.16393e-09
2.3014e-09
-2.15196e-09
2.21834e-09
-2.13063e-09
2.12603e-09
-2.09814e-09
2.02202e-09
-2.05385e-09
1.90504e-09
-1.99391e-09
1.77754e-09
-1.91816e-09
1.63963e-09
-1.82981e-09
1.49138e-09
-1.72008e-09
1.34787e-09
-1.56712e-09
1.20321e-09
-1.39676e-09
1.09655e-09
-1.16765e-09
1.02995e-09
-9.04171e-10
1.03471e-09
-5.74062e-10
1.12091e-09
-1.87e-10
1.2583e-09
2.19654e-10
1.41277e-09
6.19746e-10
1.5652e-09
1.0011e-09
1.688e-09
1.29874e-09
1.79019e-09
1.53836e-09
1.87142e-09
1.71248e-09
1.94059e-09
1.85762e-09
1.99879e-09
1.95477e-09
2.05037e-09
2.02925e-09
2.09843e-09
2.08868e-09
2.14392e-09
2.13158e-09
2.18746e-09
2.16072e-09
2.23009e-09
2.18011e-09
2.27239e-09
2.191e-09
2.31499e-09
2.19384e-09
2.35815e-09
2.18887e-09
2.4019e-09
2.17458e-09
2.4471e-09
2.15169e-09
2.49357e-09
2.1198e-09
2.54192e-09
2.07668e-09
2.59256e-09
2.02067e-09
2.64395e-09
1.93594e-09
2.69789e-09
1.8381e-09
2.75344e-09
1.71477e-09
2.80666e-09
1.52573e-09
2.85918e-09
1.31722e-09
2.9025e-09
1.00648e-09
2.93675e-09
6.4469e-10
2.95786e-09
2.25963e-10
2.96663e-09
-2.37847e-10
2.96623e-09
-6.85302e-10
2.96527e-09
-1.04875e-09
2.9648e-09
-1.35395e-09
2.9663e-09
-1.58852e-09
2.96785e-09
-1.76234e-09
2.96705e-09
-1.88453e-09
2.95852e-09
-1.98751e-09
2.93993e-09
-2.04825e-09
2.90908e-09
-2.09131e-09
2.86636e-09
-2.12185e-09
2.81291e-09
-2.14477e-09
2.74965e-09
-2.15596e-09
2.66839e-09
-2.15015e-09
2.5636e-09
-2.13132e-09
2.42882e-09
-2.09878e-09
2.23347e-09
-2.02826e-09
2.05911e-09
-1.62287e-09
1.89259e-09
-1.40934e-09
1.73323e-09
-1.23083e-09
1.59949e-09
-1.01069e-09
1.51031e-09
-7.80811e-10
1.48427e-09
-5.23428e-10
1.52928e-09
-2.59155e-10
1.60226e-09
-8.19459e-11
1.64936e-09
-4.70948e-11
1.68295e-09
-3.35933e-11
1.70904e-09
-2.60851e-11
1.73061e-09
-2.15735e-11
1.74905e-09
-1.84397e-11
1.76499e-09
-1.59428e-11
1.77884e-09
-1.3844e-11
1.7909e-09
-1.20618e-11
1.80144e-09
-1.05471e-11
1.81069e-09
-9.25048e-12
1.81881e-09
-8.11513e-12
1.82589e-09
-7.07668e-12
1.83195e-09
-6.06364e-12
1.83694e-09
-4.99311e-12
1.8407e-09
-3.75941e-12
1.84298e-09
-2.27248e-12
1.8432e-09
-2.20659e-13
1.84093e-09
2.26353e-12
1.83523e-09
5.70103e-12
1.82492e-09
1.03148e-11
1.80842e-09
1.6497e-11
1.78358e-09
2.48421e-11
1.74715e-09
3.64286e-11
1.69361e-09
5.35391e-11
1.61208e-09
8.15328e-11
1.47859e-09
1.33491e-10
1.23481e-09
2.43776e-10
7.42463e-10
4.92347e-10
7.42463e-10
-5.0909e-11
-5.61555e-10
1.01077e-10
-5.87635e-10
3.02824e-10
-4.48514e-10
4.81903e-10
-3.40326e-10
6.34006e-10
-2.64715e-10
7.62456e-10
-2.10558e-10
8.70995e-10
-1.7179e-10
9.63332e-10
-1.43368e-10
1.0426e-09
-1.21816e-10
1.11127e-09
-1.0508e-10
1.17131e-09
-9.18788e-11
1.22429e-09
-8.13435e-11
1.27145e-09
-7.28565e-11
1.3138e-09
-6.59799e-11
1.35217e-09
-6.04064e-11
1.38726e-09
-5.59154e-11
1.41967e-09
-5.23476e-11
1.44993e-09
-4.95927e-11
1.47854e-09
-4.75825e-11
1.50595e-09
-4.62851e-11
1.53263e-09
-4.57003e-11
1.55905e-09
-4.58602e-11
1.58572e-09
-4.68367e-11
1.61324e-09
-4.87524e-11
1.64227e-09
-5.17931e-11
1.67366e-09
-5.62307e-11
1.70843e-09
-6.24635e-11
1.74789e-09
-7.10956e-11
1.79377e-09
-8.31022e-11
1.84847e-09
-1.00061e-10
1.90643e-09
-1.4968e-10
1.93009e-09
-3.43881e-10
1.9105e-09
-5.9939e-10
1.85613e-09
-8.44896e-10
1.77643e-09
-1.06261e-09
1.68684e-09
-1.27249e-09
1.59367e-09
-1.47431e-09
1.47042e-09
-1.69618e-09
1.33221e-09
-1.84217e-09
1.21025e-09
-1.92322e-09
1.10684e-09
-1.99039e-09
1.0219e-09
-2.0483e-09
9.52491e-10
-2.09074e-09
8.96118e-10
-2.12035e-09
8.49869e-10
-2.13765e-09
8.10187e-10
-2.14102e-09
7.74108e-10
-2.12952e-09
7.36519e-10
-2.10108e-09
6.92384e-10
-2.05347e-09
6.37667e-10
-1.98476e-09
5.69629e-10
-1.89207e-09
4.90388e-10
-1.77555e-09
3.96903e-10
-1.63403e-09
3.00925e-10
-1.46695e-09
2.12766e-10
-1.27465e-09
1.55463e-10
-1.05285e-09
1.46424e-10
-8.06313e-10
2.18867e-10
-5.22744e-10
3.83135e-10
-2.02075e-10
6.22444e-10
1.45507e-10
9.01165e-10
4.9899e-10
1.18612e-09
8.55515e-10
1.43557e-09
1.15128e-09
1.6467e-09
1.41315e-09
1.81455e-09
1.60761e-09
1.94835e-09
1.7623e-09
2.05584e-09
1.88217e-09
2.14283e-09
1.968e-09
2.21527e-09
2.03196e-09
2.27714e-09
2.07973e-09
2.33199e-09
2.11397e-09
2.38147e-09
2.13585e-09
2.42711e-09
2.14732e-09
2.47013e-09
2.14975e-09
2.51124e-09
2.14383e-09
2.55098e-09
2.12935e-09
2.58952e-09
2.10591e-09
2.62656e-09
2.06761e-09
2.66269e-09
2.01956e-09
2.69774e-09
1.95766e-09
2.73194e-09
1.87606e-09
2.76255e-09
1.75562e-09
2.79151e-09
1.61853e-09
2.81535e-09
1.41745e-09
2.83528e-09
1.17875e-09
2.84717e-09
8.33383e-10
2.85529e-09
4.45082e-10
2.86036e-09
7.88162e-12
2.86607e-09
-4.56548e-10
2.87346e-09
-8.73637e-10
2.88415e-09
-1.20206e-09
2.89344e-09
-1.48182e-09
2.89845e-09
-1.66924e-09
2.89411e-09
-1.82466e-09
2.87783e-09
-1.91676e-09
2.84747e-09
-1.98052e-09
2.80331e-09
-2.03041e-09
2.74709e-09
-2.0542e-09
2.68139e-09
-2.0705e-09
2.60706e-09
-2.07938e-09
2.52586e-09
-2.0827e-09
2.43826e-09
-2.08024e-09
2.34307e-09
-2.06874e-09
2.23767e-09
-2.04657e-09
2.11871e-09
-2.01167e-09
1.98387e-09
-1.96329e-09
1.83201e-09
-1.90198e-09
1.66411e-09
-1.82601e-09
1.48407e-09
-1.73811e-09
1.29417e-09
-1.63992e-09
1.09696e-09
-1.52287e-09
9.05512e-10
-1.37568e-09
7.19791e-10
-1.21104e-09
5.65585e-10
-1.01344e-09
4.50756e-10
-7.89341e-10
4.03378e-10
-5.26683e-10
4.44699e-10
-2.28321e-10
5.71068e-10
9.32849e-11
7.62132e-10
4.28683e-10
9.88183e-10
7.75052e-10
1.20576e-09
1.08116e-09
1.39806e-09
1.34606e-09
1.55639e-09
1.55415e-09
1.6858e-09
1.7282e-09
1.78867e-09
1.8519e-09
1.87181e-09
1.94611e-09
1.94158e-09
2.01892e-09
2.00162e-09
2.07154e-09
2.05459e-09
2.10775e-09
2.10303e-09
2.13166e-09
2.14869e-09
2.14534e-09
2.19301e-09
2.14951e-09
2.23689e-09
2.14499e-09
2.28067e-09
2.1308e-09
2.32537e-09
2.10698e-09
2.37094e-09
2.07424e-09
2.418e-09
2.02962e-09
2.46696e-09
1.97171e-09
2.51654e-09
1.88636e-09
2.56859e-09
1.78604e-09
2.62249e-09
1.66087e-09
2.67529e-09
1.47293e-09
2.7291e-09
1.26342e-09
2.77877e-09
9.56811e-10
2.82687e-09
5.9659e-10
2.87177e-09
1.81054e-10
2.91485e-09
-2.80927e-10
2.95594e-09
-7.26389e-10
2.99644e-09
-1.08925e-09
3.03181e-09
-1.38932e-09
3.05911e-09
-1.61581e-09
3.07345e-09
-1.77667e-09
3.07204e-09
-1.8831e-09
3.0523e-09
-1.96775e-09
3.01499e-09
-2.01094e-09
2.96261e-09
-2.03893e-09
2.89689e-09
-2.05617e-09
2.81788e-09
-2.0658e-09
2.72544e-09
-2.06357e-09
2.60844e-09
-2.03317e-09
2.45869e-09
-1.98156e-09
2.27171e-09
-1.91176e-09
2.04213e-09
-1.79863e-09
1.82773e-09
-1.40844e-09
1.61815e-09
-1.19975e-09
1.41599e-09
-1.02868e-09
1.23899e-09
-8.33706e-10
1.10566e-09
-6.47483e-10
1.03302e-09
-4.5079e-10
1.03105e-09
-2.57193e-10
1.07491e-09
-1.25805e-10
1.11967e-09
-9.18498e-11
1.16091e-09
-7.48397e-11
1.19834e-09
-6.35109e-11
1.23187e-09
-5.51051e-11
1.26157e-09
-4.81426e-11
1.2876e-09
-4.19706e-11
1.3102e-09
-3.64385e-11
1.32967e-09
-3.15307e-11
1.34634e-09
-2.722e-11
1.36052e-09
-2.34333e-11
1.37246e-09
-2.00489e-11
1.38228e-09
-1.69052e-11
1.39002e-09
-1.38047e-11
1.39554e-09
-1.0507e-11
1.39849e-09
-6.71464e-12
1.39829e-09
-2.06586e-12
1.39411e-09
3.9572e-12
1.38447e-09
1.18995e-11
1.36754e-09
2.26323e-11
1.34068e-09
3.7174e-11
1.3003e-09
5.68753e-11
1.24151e-09
8.36399e-11
1.15753e-09
1.20405e-10
1.03885e-09
1.72216e-10
8.71843e-10
2.48543e-10
6.38362e-10
3.66972e-10
3.28924e-10
5.53214e-10
2.87017e-11
7.92569e-10
7.71164e-10
-1.19762e-10
-4.41793e-10
-1.1936e-10
-5.88038e-10
-3.0243e-11
-5.37631e-10
9.04363e-11
-4.61006e-10
2.16096e-10
-3.90374e-10
3.36704e-10
-3.31167e-10
4.47884e-10
-2.8297e-10
5.48365e-10
-2.43848e-10
6.3843e-10
-2.11881e-10
7.18939e-10
-1.85589e-10
7.90909e-10
-1.63849e-10
8.5535e-10
-1.45784e-10
9.13199e-10
-1.30706e-10
9.65302e-10
-1.18083e-10
1.01241e-09
-1.07519e-10
1.05521e-09
-9.87143e-11
1.09431e-09
-9.14463e-11
1.13027e-09
-8.5555e-11
1.16363e-09
-8.09394e-11
1.1949e-09
-7.75506e-11
1.22458e-09
-7.5387e-11
1.25322e-09
-7.44981e-11
1.28138e-09
-7.49942e-11
1.30969e-09
-7.70594e-11
1.33886e-09
-8.09667e-11
1.36973e-09
-8.71017e-11
1.40327e-09
-9.6001e-11
1.44059e-09
-1.08416e-10
1.48294e-09
-1.25453e-10
1.5316e-09
-1.48719e-10
1.58166e-09
-1.99741e-10
1.60298e-09
-3.65201e-10
1.58511e-09
-5.81524e-10
1.53428e-09
-7.94068e-10
1.46017e-09
-9.88494e-10
1.37574e-09
-1.18806e-09
1.28577e-09
-1.38433e-09
1.17504e-09
-1.58545e-09
1.05882e-09
-1.72595e-09
9.58477e-10
-1.82287e-09
8.75032e-10
-1.90694e-09
8.07155e-10
-1.98043e-09
7.5255e-10
-2.03613e-09
7.08677e-10
-2.07648e-09
6.72184e-10
-2.10116e-09
6.3919e-10
-2.10802e-09
6.0588e-10
-2.09621e-09
5.67441e-10
-2.06264e-09
5.19504e-10
-2.00554e-09
4.59209e-10
-1.92447e-09
3.85628e-10
-1.81849e-09
3.00583e-10
-1.69051e-09
2.05597e-10
-1.53904e-09
1.0897e-10
-1.37032e-09
2.03036e-11
-1.18598e-09
-4.35025e-11
-9.89039e-10
-6.94633e-11
-7.80352e-10
-3.63961e-11
-5.55811e-10
6.94359e-11
-3.07906e-10
2.48674e-10
-3.37315e-11
4.88016e-10
2.59647e-10
7.66888e-10
5.76636e-10
1.0465e-09
8.71659e-10
1.30692e-09
1.15272e-09
1.5311e-09
1.38343e-09
1.71755e-09
1.57586e-09
1.86859e-09
1.73115e-09
1.98943e-09
1.84718e-09
2.08666e-09
1.93475e-09
2.16563e-09
2.00076e-09
2.23154e-09
2.04805e-09
2.28772e-09
2.07966e-09
2.33695e-09
2.09806e-09
2.38158e-09
2.1051e-09
2.42318e-09
2.10222e-09
2.46299e-09
2.08955e-09
2.50163e-09
2.06728e-09
2.53917e-09
2.03008e-09
2.57631e-09
1.98243e-09
2.61322e-09
1.92075e-09
2.65049e-09
1.83879e-09
2.6863e-09
1.71981e-09
2.72266e-09
1.58217e-09
2.75811e-09
1.382e-09
2.7942e-09
1.14265e-09
2.82811e-09
7.99474e-10
2.86219e-09
4.11006e-10
2.89548e-09
-2.54099e-11
2.92795e-09
-4.89023e-10
2.95556e-09
-9.01243e-10
2.9772e-09
-1.22371e-09
2.9882e-09
-1.49282e-09
2.9863e-09
-1.66734e-09
2.96881e-09
-1.80717e-09
2.93501e-09
-1.88295e-09
2.88622e-09
-1.93172e-09
2.82464e-09
-1.96882e-09
2.75217e-09
-1.98173e-09
2.67084e-09
-1.98916e-09
2.58263e-09
-1.99117e-09
2.48771e-09
-1.9878e-09
2.38474e-09
-1.97728e-09
2.27089e-09
-1.9549e-09
2.14291e-09
-1.91859e-09
1.99807e-09
-1.86683e-09
1.83573e-09
-1.80094e-09
1.65746e-09
-1.7237e-09
1.46686e-09
-1.6354e-09
1.26912e-09
-1.54037e-09
1.06777e-09
-1.43856e-09
8.67806e-10
-1.32291e-09
6.79061e-10
-1.18694e-09
5.04673e-10
-1.03666e-09
3.57138e-10
-8.65907e-10
2.47639e-10
-6.79843e-10
1.93116e-10
-4.72159e-10
2.07464e-10
-2.42669e-10
2.93634e-10
7.11489e-12
4.4584e-10
2.76478e-10
6.50209e-10
5.70682e-10
8.76422e-10
8.54949e-10
1.09749e-09
1.12498e-09
1.29651e-09
1.35513e-09
1.46775e-09
1.55696e-09
1.60842e-09
1.71124e-09
1.7219e-09
1.83263e-09
1.81405e-09
1.92677e-09
1.88962e-09
1.99597e-09
1.95269e-09
2.04469e-09
2.00715e-09
2.0772e-09
2.05589e-09
2.09661e-09
2.1012e-09
2.10419e-09
2.14491e-09
2.10128e-09
2.18818e-09
2.08753e-09
2.23258e-09
2.06258e-09
2.27846e-09
2.02836e-09
2.3267e-09
1.98137e-09
2.37779e-09
1.92062e-09
2.43105e-09
1.83311e-09
2.48854e-09
1.72855e-09
2.55068e-09
1.59873e-09
2.61649e-09
1.40712e-09
2.68729e-09
1.19262e-09
2.75979e-09
8.8431e-10
2.83498e-09
5.21398e-10
2.91043e-09
1.05602e-10
2.9838e-09
-3.54298e-10
3.04902e-09
-7.91609e-10
3.10328e-09
-1.14351e-09
3.14115e-09
-1.4272e-09
3.1605e-09
-1.63516e-09
3.1581e-09
-1.77426e-09
3.13434e-09
-1.85933e-09
3.09073e-09
-1.92412e-09
3.0303e-09
-1.95049e-09
2.95522e-09
-1.96383e-09
2.86611e-09
-1.96707e-09
2.76372e-09
-1.96345e-09
2.64546e-09
-1.94536e-09
2.49906e-09
-1.88683e-09
2.3185e-09
-1.80102e-09
2.1069e-09
-1.70014e-09
1.87189e-09
-1.56358e-09
1.6552e-09
-1.19171e-09
1.44688e-09
-9.91403e-10
1.25208e-09
-8.33877e-10
1.08601e-09
-6.6764e-10
9.6067e-10
-5.22152e-10
8.86012e-10
-3.76137e-10
8.65857e-10
-2.37039e-10
8.85668e-10
-1.45617e-10
9.17536e-10
-1.23718e-10
9.53031e-10
-1.10334e-10
9.88738e-10
-9.92178e-11
1.02279e-09
-8.9156e-11
1.05424e-09
-7.95928e-11
1.08269e-09
-7.04201e-11
1.10803e-09
-6.17841e-11
1.13034e-09
-5.38403e-11
1.14977e-09
-4.66509e-11
1.16651e-09
-4.01673e-11
1.1807e-09
-3.4237e-11
1.19241e-09
-2.86212e-11
1.20161e-09
-2.30024e-11
1.20808e-09
-1.69739e-11
1.21138e-09
-1.00152e-11
1.21077e-09
-1.45807e-12
1.20513e-09
9.60124e-12
1.19271e-09
2.43165e-11
1.17112e-09
4.42164e-11
1.13699e-09
7.13092e-11
1.08564e-09
1.0823e-10
1.01084e-09
1.58435e-10
9.04718e-10
2.26528e-10
7.58143e-10
3.18791e-10
5.63248e-10
4.43438e-10
3.22235e-10
6.07986e-10
7.20133e-11
8.03436e-10
-7.70635e-11
9.41646e-10
6.94101e-10
-9.64996e-11
-3.45293e-10
-1.46023e-10
-5.38514e-10
-1.26933e-10
-5.56722e-10
-6.61625e-11
-5.21776e-10
1.6001e-11
-4.72538e-10
1.06309e-10
-4.21474e-10
1.97181e-10
-3.73843e-10
2.84587e-10
-3.31254e-10
3.66622e-10
-2.93916e-10
4.4255e-10
-2.61518e-10
5.12252e-10
-2.3355e-10
5.7593e-10
-2.09462e-10
6.33955e-10
-1.8873e-10
6.86768e-10
-1.70897e-10
7.34842e-10
-1.55592e-10
7.78649e-10
-1.42522e-10
8.18662e-10
-1.31459e-10
8.55346e-10
-1.22239e-10
8.89163e-10
-1.14756e-10
9.20578e-10
-1.08966e-10
9.50071e-10
-1.04881e-10
9.7815e-10
-1.02577e-10
1.00536e-09
-1.02206e-10
1.03231e-09
-1.04009e-10
1.05968e-09
-1.08333e-10
1.08823e-09
-1.1565e-10
1.11882e-09
-1.26594e-10
1.1524e-09
-1.41999e-10
1.18994e-09
-1.62994e-10
1.23231e-09
-1.91086e-10
1.27521e-09
-2.42647e-10
1.29342e-09
-3.83405e-10
1.27871e-09
-5.66816e-10
1.23739e-09
-7.52745e-10
1.17852e-09
-9.29623e-10
1.11137e-09
-1.12091e-09
1.03922e-09
-1.31219e-09
9.52536e-10
-1.49877e-09
8.6483e-10
-1.63824e-09
7.90801e-10
-1.74884e-09
7.30393e-10
-1.84653e-09
6.81826e-10
-1.93186e-09
6.43138e-10
-1.99745e-09
6.11724e-10
-2.04506e-09
5.84085e-10
-2.07352e-09
5.56364e-10
-2.0803e-09
5.24574e-10
-2.06442e-09
4.85154e-10
-2.02322e-09
4.35228e-10
-1.95561e-09
3.72918e-10
-1.86216e-09
2.99072e-10
-1.74464e-09
2.16156e-10
-1.60759e-09
1.27737e-10
-1.45063e-09
4.08957e-11
-1.28348e-09
-3.64863e-11
-1.1086e-09
-9.34672e-11
-9.32058e-10
-1.20385e-10
-7.53434e-10
-1.04878e-10
-5.71317e-10
-3.69926e-11
-3.75792e-10
8.96466e-11
-1.60372e-10
2.72561e-10
7.67292e-11
5.06009e-10
3.43181e-10
7.65239e-10
6.12421e-10
1.03176e-09
8.8619e-10
1.28217e-09
1.13304e-09
1.50533e-09
1.35272e-09
1.69591e-09
1.54059e-09
1.85294e-09
1.69017e-09
1.98016e-09
1.80754e-09
2.08212e-09
1.89879e-09
2.1643e-09
1.96583e-09
2.2313e-09
2.01264e-09
2.28718e-09
2.04216e-09
2.3354e-09
2.05688e-09
2.3786e-09
2.05903e-09
2.41914e-09
2.04902e-09
2.45848e-09
2.02795e-09
2.49756e-09
1.99102e-09
2.53734e-09
1.94265e-09
2.57839e-09
1.87971e-09
2.62181e-09
1.79536e-09
2.66673e-09
1.67488e-09
2.71453e-09
1.53436e-09
2.76428e-09
1.33226e-09
2.8171e-09
1.08983e-09
2.87095e-09
7.45625e-10
2.92536e-09
3.56596e-10
2.97574e-09
-7.57947e-11
3.01923e-09
-5.3251e-10
3.04995e-09
-9.31962e-10
3.06677e-09
-1.24053e-09
3.06588e-09
-1.49193e-09
3.04714e-09
-1.64861e-09
3.00936e-09
-1.76939e-09
2.9558e-09
-1.8294e-09
2.8886e-09
-1.86451e-09
2.80979e-09
-1.89001e-09
2.72243e-09
-1.89436e-09
2.62867e-09
-1.8954e-09
2.52894e-09
-1.89144e-09
2.42172e-09
-1.88058e-09
2.30414e-09
-1.8597e-09
2.17275e-09
-1.82351e-09
2.02492e-09
-1.77076e-09
1.85986e-09
-1.70178e-09
1.67956e-09
-1.62065e-09
1.4883e-09
-1.53243e-09
1.29152e-09
-1.43861e-09
1.09485e-09
-1.34369e-09
9.02108e-10
-1.24582e-09
7.18007e-10
-1.13881e-09
5.48455e-10
-1.01739e-09
3.9824e-10
-8.86448e-10
2.74328e-10
-7.41996e-10
1.84224e-10
-5.89739e-10
1.37764e-10
-4.25699e-10
1.43213e-10
-2.48118e-10
2.0403e-10
-5.37024e-11
3.19638e-10
1.6087e-10
4.866e-10
4.0372e-10
6.87309e-10
6.54239e-10
9.02952e-10
9.0934e-10
1.11416e-09
1.14392e-09
1.30855e-09
1.36258e-09
1.47737e-09
1.54242e-09
1.61867e-09
1.69133e-09
1.73445e-09
1.811e-09
1.82829e-09
1.90212e-09
1.90431e-09
1.96867e-09
1.96702e-09
2.01448e-09
2.02047e-09
2.04316e-09
2.06806e-09
2.0566e-09
2.11243e-09
2.05691e-09
2.15573e-09
2.04423e-09
2.20027e-09
2.01805e-09
2.24704e-09
1.98159e-09
2.29755e-09
1.93086e-09
2.35298e-09
1.86519e-09
2.41355e-09
1.77254e-09
2.48077e-09
1.66133e-09
2.55476e-09
1.52473e-09
2.63575e-09
1.32614e-09
2.72465e-09
1.10372e-09
2.81872e-09
7.90247e-10
2.91613e-09
4.23983e-10
3.01021e-09
1.15253e-11
3.09518e-09
-4.39266e-10
3.16283e-09
-8.59262e-10
3.21003e-09
-1.19071e-09
3.2325e-09
-1.44967e-09
3.22954e-09
-1.63221e-09
3.20132e-09
-1.74605e-09
3.15212e-09
-1.81013e-09
3.08404e-09
-1.85602e-09
3.00016e-09
-1.86659e-09
2.90361e-09
-1.86726e-09
2.79482e-09
-1.85825e-09
2.67243e-09
-1.84107e-09
2.53261e-09
-1.80557e-09
2.36445e-09
-1.71872e-09
2.1658e-09
-1.60242e-09
1.94511e-09
-1.47947e-09
1.71375e-09
-1.3322e-09
1.50606e-09
-9.83988e-10
1.31231e-09
-7.97622e-10
1.13765e-09
-6.59208e-10
9.92738e-10
-5.2272e-10
8.85047e-10
-4.14464e-10
8.18418e-10
-3.09512e-10
7.92906e-10
-2.11529e-10
7.98391e-10
-1.51103e-10
8.16776e-10
-1.42104e-10
8.41199e-10
-1.34757e-10
8.68046e-10
-1.26065e-10
8.95198e-10
-1.16308e-10
9.21412e-10
-1.05806e-10
9.45997e-10
-9.50051e-11
9.68575e-10
-8.4362e-11
9.88954e-10
-7.42193e-11
1.00706e-09
-6.47529e-11
1.02286e-09
-5.59704e-11
1.03635e-09
-4.77274e-11
1.04748e-09
-3.97478e-11
1.0561e-09
-3.16298e-11
1.06196e-09
-2.28276e-11
1.06455e-09
-1.26117e-11
1.06311e-09
-1.53676e-14
1.05642e-09
1.62951e-11
1.0427e-09
3.8029e-11
1.01943e-09
6.74876e-11
9.83046e-10
1.07696e-10
9.28722e-10
1.62554e-10
8.5026e-10
2.36896e-10
7.4044e-10
3.36347e-10
5.92695e-10
4.66536e-10
4.05939e-10
6.30195e-10
1.95405e-10
8.1852e-10
9.67215e-12
9.89168e-10
-6.69176e-11
1.01824e-09
6.27183e-10
-7.02998e-11
-2.74993e-10
-1.2993e-10
-4.78884e-10
-1.47296e-10
-5.39355e-10
-1.29238e-10
-5.39835e-10
-8.72016e-11
-5.14574e-10
-3.08288e-11
-4.77847e-10
3.24377e-11
-4.37109e-10
9.78133e-11
-3.96629e-10
1.62408e-10
-3.5851e-10
2.24552e-10
-3.23662e-10
2.83334e-10
-2.92332e-10
3.38319e-10
-2.64448e-10
3.89376e-10
-2.39786e-10
4.36555e-10
-2.18076e-10
4.80021e-10
-1.99058e-10
5.20011e-10
-1.82512e-10
5.56811e-10
-1.68259e-10
5.90741e-10
-1.56169e-10
6.2215e-10
-1.46164e-10
6.51413e-10
-1.38229e-10
6.78939e-10
-1.32406e-10
7.05174e-10
-1.28812e-10
7.30615e-10
-1.27646e-10
7.55814e-10
-1.29208e-10
7.8139e-10
-1.33908e-10
8.08041e-10
-1.42301e-10
8.36537e-10
-1.5509e-10
8.67716e-10
-1.73178e-10
9.02437e-10
-1.97715e-10
9.41478e-10
-2.30127e-10
9.81446e-10
-2.82615e-10
1.00194e-09
-4.03896e-10
9.97096e-10
-5.61975e-10
9.72557e-10
-7.28207e-10
9.35479e-10
-8.92546e-10
8.9133e-10
-1.07676e-09
8.42135e-10
-1.26299e-09
7.81813e-10
-1.43845e-09
7.21624e-10
-1.57805e-09
6.7189e-10
-1.69911e-09
6.32152e-10
-1.8068e-09
6.00492e-10
-1.9002e-09
5.75136e-10
-1.97209e-09
5.5348e-10
-2.02341e-09
5.32115e-10
-2.05216e-09
5.07534e-10
-2.05572e-09
4.76382e-10
-2.03327e-09
4.36072e-10
-1.98291e-09
3.8508e-10
-1.90462e-09
3.23078e-10
-1.80016e-09
2.51763e-10
-1.67333e-09
1.74132e-10
-1.52996e-09
9.44316e-11
-1.37093e-09
1.86003e-11
-1.20765e-09
-4.71807e-11
-1.04282e-09
-9.58627e-11
-8.83376e-10
-1.20994e-10
-7.28302e-10
-1.14669e-10
-5.77642e-10
-6.92345e-11
-4.21226e-10
2.18454e-11
-2.51453e-10
1.61271e-10
-6.27003e-11
3.49878e-10
1.54568e-10
5.75937e-10
3.86361e-10
8.26602e-10
6.35531e-10
1.08154e-09
8.78118e-10
1.32536e-09
1.10892e-09
1.54732e-09
1.31863e-09
1.74006e-09
1.49744e-09
1.90186e-09
1.64572e-09
2.034e-09
1.76662e-09
2.14025e-09
1.85956e-09
2.22486e-09
1.92801e-09
2.29261e-09
1.97442e-09
2.34819e-09
2.00131e-09
2.39551e-09
2.01172e-09
2.43779e-09
2.00675e-09
2.47792e-09
1.98783e-09
2.51814e-09
1.9508e-09
2.55989e-09
1.9009e-09
2.60406e-09
1.83553e-09
2.65239e-09
1.74704e-09
2.7047e-09
1.62257e-09
2.76205e-09
1.47701e-09
2.82364e-09
1.27066e-09
2.889e-09
1.02448e-09
2.95474e-09
6.79879e-10
3.01816e-09
2.93182e-10
3.07255e-09
-1.30191e-10
3.11385e-09
-5.73805e-10
3.13573e-09
-9.53839e-10
3.13793e-09
-1.24273e-09
3.11785e-09
-1.47184e-09
3.07767e-09
-1.60843e-09
3.01852e-09
-1.71024e-09
2.94482e-09
-1.7557e-09
2.85903e-09
-1.77872e-09
2.76513e-09
-1.79612e-09
2.66547e-09
-1.79469e-09
2.56099e-09
-1.79091e-09
2.45033e-09
-1.78077e-09
2.33045e-09
-1.76071e-09
2.19778e-09
-1.72703e-09
2.04939e-09
-1.67513e-09
1.88449e-09
-1.60586e-09
1.70496e-09
-1.52226e-09
1.51545e-09
-1.43115e-09
1.32209e-09
-1.33907e-09
1.13084e-09
-1.24736e-09
9.46571e-10
-1.15941e-09
7.72071e-10
-1.07132e-09
6.10343e-10
-9.77076e-10
4.65057e-10
-8.72105e-10
3.39326e-10
-7.60719e-10
2.37847e-10
-6.40519e-10
1.65235e-10
-5.17128e-10
1.27391e-10
-3.87855e-10
1.29757e-10
-2.50483e-10
1.75876e-10
-9.98221e-11
2.67521e-10
6.92252e-11
4.05088e-10
2.66152e-10
5.80083e-10
4.79243e-10
7.81066e-10
7.08357e-10
9.91677e-10
9.33311e-10
1.19857e-09
1.15568e-09
1.38968e-09
1.35132e-09
1.55808e-09
1.52293e-09
1.70089e-09
1.66818e-09
1.81863e-09
1.78439e-09
1.91376e-09
1.87354e-09
1.99013e-09
1.93811e-09
2.05206e-09
1.98122e-09
2.10414e-09
2.00452e-09
2.15037e-09
2.01068e-09
2.19422e-09
2.00039e-09
2.23906e-09
1.9732e-09
2.28672e-09
1.93394e-09
2.33942e-09
1.87816e-09
2.39884e-09
1.80577e-09
2.4658e-09
1.70558e-09
2.54173e-09
1.5854e-09
2.62676e-09
1.4397e-09
2.72078e-09
1.23211e-09
2.82269e-09
1.00181e-09
2.92849e-09
6.84441e-10
3.03417e-09
3.18309e-10
3.13049e-09
-8.47961e-11
3.21023e-09
-5.19009e-10
3.26475e-09
-9.13778e-10
3.29197e-09
-1.21794e-09
3.28836e-09
-1.44606e-09
3.25742e-09
-1.60127e-09
3.202e-09
-1.69063e-09
3.12695e-09
-1.73508e-09
3.03501e-09
-1.76407e-09
2.93095e-09
-1.7625e-09
2.81675e-09
-1.75303e-09
2.69151e-09
-1.73298e-09
2.55227e-09
-1.70181e-09
2.39497e-09
-1.64828e-09
2.21138e-09
-1.53517e-09
2.00303e-09
-1.39412e-09
1.78083e-09
-1.25732e-09
1.55628e-09
-1.10766e-09
1.36066e-09
-7.88358e-10
1.18422e-09
-6.2116e-10
1.0303e-09
-5.05271e-10
9.05539e-10
-3.97946e-10
8.13258e-10
-3.22182e-10
7.53888e-10
-2.50144e-10
7.25975e-10
-1.83617e-10
7.21492e-10
-1.46621e-10
7.27477e-10
-1.48089e-10
7.39375e-10
-1.46655e-10
7.5456e-10
-1.41251e-10
7.71362e-10
-1.3311e-10
7.88647e-10
-1.23091e-10
8.05673e-10
-1.12031e-10
8.21921e-10
-1.00609e-10
8.37015e-10
-8.93133e-11
8.5068e-10
-7.84186e-11
8.62708e-10
-6.79984e-11
8.72922e-10
-5.79413e-11
8.81143e-10
-4.79681e-11
8.87142e-10
-3.76288e-11
8.90588e-10
-2.6274e-11
8.90973e-10
-1.29969e-11
8.87525e-10
3.43334e-12
8.79068e-10
2.47518e-11
8.63912e-10
5.31849e-11
8.39633e-10
9.17664e-11
8.02907e-10
1.44422e-10
7.49375e-10
2.16087e-10
6.7374e-10
3.12531e-10
5.70543e-10
4.39545e-10
4.36523e-10
6.00555e-10
2.75933e-10
7.90785e-10
1.09415e-10
9.85037e-10
-1.90701e-11
1.11765e-09
-5.33639e-11
1.05253e-09
5.73819e-10
-4.99885e-11
-2.25005e-10
-1.06838e-10
-4.22034e-10
-1.4129e-10
-5.04903e-10
-1.49774e-10
-5.31351e-10
-1.37157e-10
-5.27191e-10
-1.09364e-10
-5.0564e-10
-7.1801e-11
-4.74672e-10
-2.88814e-11
-4.39549e-10
1.64026e-11
-4.03794e-10
6.20493e-11
-3.69309e-10
1.06773e-10
-3.37055e-10
1.4979e-10
-3.07465e-10
1.90654e-10
-2.80651e-10
2.29147e-10
-2.56569e-10
2.65206e-10
-2.35117e-10
2.98878e-10
-2.16185e-10
3.30292e-10
-1.99673e-10
3.59636e-10
-1.85513e-10
3.87148e-10
-1.73677e-10
4.13112e-10
-1.64192e-10
4.37856e-10
-1.5715e-10
4.61758e-10
-1.52715e-10
4.85251e-10
-1.51139e-10
5.08824e-10
-1.52781e-10
5.33034e-10
-1.58119e-10
5.58504e-10
-1.67771e-10
5.85927e-10
-1.82512e-10
6.1605e-10
-2.03302e-10
6.49652e-10
-2.31316e-10
6.87473e-10
-2.67948e-10
7.27085e-10
-3.22226e-10
7.52921e-10
-4.29732e-10
7.60593e-10
-5.69647e-10
7.54123e-10
-7.21736e-10
7.38287e-10
-8.7671e-10
7.15684e-10
-1.05416e-09
6.87623e-10
-1.23493e-09
6.50493e-10
-1.40132e-09
6.13404e-10
-1.54097e-09
5.83681e-10
-1.66938e-09
5.60723e-10
-1.78384e-09
5.4246e-10
-1.88194e-09
5.27201e-10
-1.95683e-09
5.12431e-10
-2.00864e-09
4.94997e-10
-2.03472e-09
4.71879e-10
-2.0326e-09
4.40889e-10
-2.00228e-09
4.0005e-10
-1.94207e-09
3.49063e-10
-1.85363e-09
2.88697e-10
-1.73979e-09
2.21206e-10
-1.60584e-09
1.49784e-10
-1.45854e-09
7.86338e-11
-1.29978e-09
1.25107e-11
-1.14153e-09
-4.39788e-11
-9.8633e-10
-8.62672e-11
-8.41087e-10
-1.10119e-10
-7.04451e-10
-1.10618e-10
-5.77143e-10
-8.18339e-11
-4.50011e-10
-1.72409e-11
-3.16048e-10
8.8109e-11
-1.68053e-10
2.38522e-10
4.15354e-12
4.30046e-10
1.9484e-10
6.56015e-10
4.09572e-10
9.02281e-10
6.31865e-10
1.15465e-09
8.56556e-10
1.39917e-09
1.07412e-09
1.62465e-09
1.27195e-09
1.82421e-09
1.44614e-09
1.99444e-09
1.59637e-09
2.13561e-09
1.71839e-09
2.2497e-09
1.81392e-09
2.3404e-09
1.88372e-09
2.4121e-09
1.92963e-09
2.46981e-09
1.95402e-09
2.51819e-09
1.95838e-09
2.5614e-09
1.94463e-09
2.60314e-09
1.90906e-09
2.64606e-09
1.85797e-09
2.69184e-09
1.78975e-09
2.74251e-09
1.69636e-09
2.79812e-09
1.56697e-09
2.85945e-09
1.41567e-09
2.92545e-09
1.20467e-09
2.99461e-09
9.55314e-10
3.0622e-09
6.12287e-10
3.12387e-09
2.31512e-10
3.1716e-09
-1.77913e-10
3.20088e-09
-6.03087e-10
3.20562e-09
-9.58578e-10
3.18669e-09
-1.22381e-09
3.14332e-09
-1.42847e-09
3.07989e-09
-1.54501e-09
2.99883e-09
-1.62918e-09
2.90576e-09
-1.66264e-09
2.80438e-09
-1.67734e-09
2.69787e-09
-1.68961e-09
2.58756e-09
-1.68438e-09
2.47275e-09
-1.6761e-09
2.35046e-09
-1.65848e-09
2.21683e-09
-1.62707e-09
2.06862e-09
-1.57881e-09
1.90459e-09
-1.5111e-09
1.72649e-09
-1.42777e-09
1.53896e-09
-1.33472e-09
1.34853e-09
-1.24073e-09
1.16184e-09
-1.15238e-09
9.83985e-10
-1.0695e-09
8.18023e-10
-9.93445e-10
6.64991e-10
-9.18277e-10
5.26096e-10
-8.38176e-10
4.03356e-10
-7.49363e-10
2.98547e-10
-6.5591e-10
2.14817e-10
-5.56791e-10
1.55013e-10
-4.57326e-10
1.22789e-10
-3.55632e-10
1.22067e-10
-2.49761e-10
1.56548e-10
-1.34303e-10
2.2952e-10
-3.74629e-12
3.43707e-10
1.51964e-10
4.96101e-10
3.26848e-10
6.80531e-10
5.23928e-10
8.85355e-10
7.28488e-10
1.09895e-09
9.42085e-10
1.30841e-09
1.14186e-09
1.5035e-09
1.32784e-09
1.67759e-09
1.4941e-09
1.82718e-09
1.63479e-09
1.95162e-09
1.74909e-09
2.05285e-09
1.83688e-09
2.13421e-09
1.89987e-09
2.20016e-09
1.93857e-09
2.25524e-09
1.9556e-09
2.30395e-09
1.95168e-09
2.35139e-09
1.92576e-09
2.40033e-09
1.885e-09
2.45413e-09
1.82436e-09
2.51518e-09
1.74472e-09
2.58478e-09
1.63597e-09
2.66432e-09
1.50586e-09
2.75341e-09
1.35061e-09
2.8516e-09
1.13392e-09
2.95632e-09
8.97088e-10
3.06192e-09
5.78842e-10
3.16273e-09
2.17505e-10
3.24814e-09
-1.7021e-10
3.3103e-09
-5.81173e-10
3.34089e-09
-9.44366e-10
3.33919e-09
-1.21624e-09
3.30599e-09
-1.41287e-09
3.24622e-09
-1.54151e-09
3.16318e-09
-1.6076e-09
3.06412e-09
-1.63602e-09
2.95246e-09
-1.65242e-09
2.83216e-09
-1.6422e-09
2.70361e-09
-1.62446e-09
2.56428e-09
-1.59362e-09
2.41032e-09
-1.54782e-09
2.23837e-09
-1.47631e-09
2.04346e-09
-1.34028e-09
1.83011e-09
-1.1808e-09
1.6101e-09
-1.03734e-09
1.39424e-09
-8.91834e-10
1.21217e-09
-6.06292e-10
1.05352e-09
-4.62505e-10
9.19019e-10
-3.70753e-10
8.11816e-10
-2.90732e-10
7.31902e-10
-2.42263e-10
6.77985e-10
-1.96226e-10
6.4821e-10
-1.53842e-10
6.35944e-10
-1.34357e-10
6.31287e-10
-1.43432e-10
6.31583e-10
-1.46952e-10
6.35307e-10
-1.44975e-10
6.41336e-10
-1.39139e-10
6.48797e-10
-1.30552e-10
6.57032e-10
-1.20266e-10
6.65492e-10
-1.09069e-10
6.73711e-10
-9.75322e-11
6.81293e-10
-8.60009e-11
6.879e-10
-7.4605e-11
6.93231e-10
-6.32726e-11
6.97001e-10
-5.17377e-11
6.98897e-10
-3.95246e-11
6.98527e-10
-2.59046e-11
6.95353e-10
-9.8232e-12
6.88591e-10
1.01958e-11
6.77133e-10
3.62099e-11
6.59373e-10
7.0945e-11
6.33115e-10