/*--------------------------------*- C++ -*----------------------------------*\
| =========                 |                                                 |
| \\      /  F ield         | OpenFOAM: The Open Source CFD Toolbox           |
|  \\    /   O peration     | Version:  2506                                  |
|   \\  /    A nd           | Website:  www.openfoam.com                      |
|    \\/     M anipulation  |                                                 |
\*---------------------------------------------------------------------------*/
FoamFile
{
    version     2.0;
    format      ascii;
    arch        "LSB;label=32;scalar=64";
    class       volScalarField;
    location    "1";
    object      s;
}
// * * * * * * * * * * * * * * * * * * * * * * * * * * * * * * * * * * * * * //

dimensions      [0 0 0 0 0 0 0];

internalField   nonuniform List<scalar> 
4000
(
2.03371e-07
2.27021e-07
2.75798e-07
3.52886e-07
4.63286e-07
6.17954e-07
8.33179e-07
1.13232e-06
1.54731e-06
2.11989e-06
2.90333e-06
3.96542e-06
5.39349e-06
7.30349e-06
9.85375e-06
1.32622e-05
1.78261e-05
2.39426e-05
3.21328e-05
4.3064e-05
5.75959e-05
7.70382e-05
0.000103791
0.000140439
0.000178296
0.000204344
0.000225433
0.000244292
0.000261138
0.00027538
0.0002878
0.000304343
0.000324165
0.000345001
0.000368062
0.00039432
0.000423074
0.000463954
0.000521874
0.000587394
0.000646396
0.000678162
0.000677098
0.000629328
0.000416851
-0.000504035
-0.00409945
-0.0197837
-0.0808906
-0.238766
-0.585034
-1.26625
-2.48335
-4.5612
-8.23624
-11.9625
-12.3592
-11.6062
-10.5207
-7.60552
-4.03165
-1.57414
-0.413712
-0.0957813
-0.0301295
-0.0110384
-0.00398288
-0.0013689
-0.000476404
-0.000169783
-6.05122e-05
-2.12427e-05
-7.30836e-06
-2.45979e-06
-8.07071e-07
-2.5651e-07
-7.80613e-08
-2.22163e-08
-5.61117e-09
-9.74753e-10
1.48236e-10
4.01326e-10
3.41831e-10
2.85306e-10
2.59863e-10
2.84554e-10
3.92565e-10
6.48176e-10
7.87292e-10
2.04234e-09
1.85421e-08
1.29737e-07
7.11768e-07
3.41468e-06
1.45913e-05
5.36377e-05
0.000214143
0.000904532
0.00285046
0.00800063
0.0267481
0.0952436
0.299872
0.775647
1.58924
2.6231
3.80325
5.1572
6.5792
7.82666
9.38981
11.0628
12.3974
12.7377
12.285
10.9761
8.88697
4.62494
0.382141
-0.662145
-0.540986
-0.238456
-0.0845654
-0.0295176
-0.0104633
-0.00356739
-0.00119818
-0.000407278
-0.000138219
-4.61514e-05
-1.50502e-05
-4.78136e-06
-1.47665e-06
-4.41511e-07
-1.27176e-07
-3.56018e-08
-1.05002e-08
-3.82588e-09
-1.89897e-09
-4.56634e-10
8.56918e-11
2.25523e-10
2.24449e-10
2.22199e-10
2.50598e-10
3.31565e-10
3.57344e-10
8.60541e-10
8.24608e-09
6.79692e-08
3.84146e-07
1.83144e-06
8.26031e-06
3.20907e-05
0.000100258
0.000355204
0.00146695
0.00430861
0.0102102
0.0375303
0.139976
0.405012
1.05469
1.91471
2.94165
4.21452
5.10732
5.96223
7.75101
8.81538
9.04691
9.0175
8.67652
7.98558
6.89469
5.17314
2.84819
0.515494
-1.69152
-3.89045
-6.12781
-7.54231
-8.15266
-8.50029
-8.66351
-8.65973
-8.49563
-8.16527
-7.66009
-6.98421
-6.14326
-5.11835
-3.82048
-2.49366
-1.47376
-0.800756
-0.400038
-0.176263
-0.0553569
-0.0033916
5.20453e-11
5.96049e-11
1.11803e-10
1.9747e-10
3.41101e-10
5.80355e-10
9.68787e-10
1.58123e-09
2.51881e-09
3.9136e-09
5.93337e-09
8.78528e-09
1.27168e-08
1.80114e-08
2.49783e-08
3.39345e-08
4.51811e-08
5.89766e-08
7.56242e-08
1.00273e-07
1.46214e-07
2.36092e-07
3.90899e-07
6.21648e-07
9.31529e-07
1.32314e-06
1.79738e-06
2.35411e-06
2.9973e-06
3.76404e-06
4.08116e-06
3.19433e-06
1.88051e-06
9.08136e-07
3.8642e-07
1.55354e-07
6.60197e-08
3.47607e-08
2.63765e-08
2.59352e-08
2.74897e-08
2.84372e-08
1.90988e-08
-1.20373e-08
-4.41824e-08
-9.39606e-08
-4.64468e-07
-1.99392e-06
-6.6946e-06
-1.80018e-05
-4.24526e-05
-9.14254e-05
-0.000184731
-0.000365253
-0.000701953
-0.00111726
-0.00155359
-0.00234868
-0.0400898
-3.17474
-4.67148
-3.8492
-2.28337
-1.03088
-0.353983
-0.083484
-0.0283001
-0.0121178
-0.0052383
-0.00213048
-0.00083463
-0.000325784
-0.000125748
-4.72658e-05
-1.71471e-05
-5.9769e-06
-1.98607e-06
-6.17643e-07
-1.71435e-07
-3.49051e-08
9.48108e-10
8.29165e-09
7.20595e-09
5.65135e-09
4.6895e-09
4.51642e-09
5.19746e-09
7.05766e-09
8.51415e-09
9.75007e-09
2.59481e-08
1.43095e-07
7.23951e-07
3.08021e-06
1.17902e-05
4.22963e-05
0.000140501
0.00043879
0.00142107
0.0044942
0.0144643
0.0426075
0.0894803
0.167332
0.286092
0.372806
0.373169
0.282952
0.154472
0.0562309
0.0144159
0.00336632
0.00111253
0.000964508
0.00123053
0.00157177
0.00312481
0.673303
-0.375288
-1.46634
-1.93883
-1.41077
-0.727704
-0.264994
-0.081117
-0.0309302
-0.0127251
-0.00499115
-0.00186413
-0.00068287
-0.000245369
-8.54888e-05
-2.8551e-05
-9.08326e-06
-2.72734e-06
-7.49057e-07
-1.62241e-07
-1.515e-08
1.47529e-08
1.5315e-08
1.03704e-08
6.94623e-09
4.94118e-09
3.96615e-09
3.68608e-09
3.99844e-09
4.1157e-09
4.26752e-09
1.64892e-08
1.2164e-07
5.70566e-07
2.31041e-06
8.41218e-06
2.94866e-05
9.87317e-05
0.000313776
0.000948809
0.00290187
0.00960517
0.0351821
0.0913359
0.162492
0.255795
0.349238
0.37741
0.318358
0.211852
0.111048
0.0476115
0.0238707
0.0192874
0.0185463
0.015876
0.0116428
0.00747699
0.00412772
0.00158364
-0.000411707
-0.00214517
-0.00369645
-0.00507803
-0.0062023
-0.00704678
-0.00762054
-0.00793224
-0.00799468
-0.00782738
-0.0074537
-0.0158559
-0.0350175
-0.0641992
-0.0979016
-0.123925
-0.136005
-0.136634
-0.130948
-0.11947
-0.0887383
-0.0399211
-0.00167194
1.35816e-14
1.17738e-14
2.40687e-14
5.46375e-14
1.18691e-13
2.44716e-13
4.7876e-13
8.87888e-13
1.56531e-12
2.6339e-12
4.24716e-12
6.58632e-12
9.85241e-12
1.42513e-11
1.99729e-11
2.71685e-11
3.5926e-11
4.62492e-11
5.80641e-11
7.20568e-11
9.02401e-11
1.17451e-10
1.58255e-10
2.15323e-10
2.9108e-10
3.89092e-10
5.13356e-10
6.68069e-10
8.59231e-10
1.1041e-09
1.23268e-09
9.75242e-10
5.81732e-10
2.88087e-10
1.2593e-10
4.92312e-11
1.72685e-11
5.56187e-12
2.08994e-12
1.40894e-12
1.44012e-12
1.75705e-12
3.75468e-11
4.74785e-10
8.95134e-10
1.59594e-09
2.91725e-09
5.47629e-09
1.05544e-08
2.07451e-08
4.1093e-08
8.10979e-08
1.57674e-07
2.98683e-07
5.46513e-07
9.53158e-07
1.51335e-06
2.08185e-06
-6.77049e-06
-0.0918087
-1.44068
-2.48124
-2.55404
-2.0758
-1.33723
-0.670178
-0.272427
-0.0904285
-0.0344115
-0.0152917
-0.0069246
-0.00296574
-0.00120488
-0.000478876
-0.000186146
-6.97708e-05
-2.48444e-05
-8.27575e-06
-2.48412e-06
-5.96482e-07
-4.39678e-08
8.74584e-08
9.88791e-08
7.55064e-08
5.92523e-08
5.21259e-08
5.28179e-08
6.14824e-08
6.77571e-08
6.43138e-08
8.38553e-08
3.29803e-07
1.53618e-06
6.23539e-06
2.34947e-05
8.40681e-05
0.00028867
0.000962455
0.00306958
0.00961952
0.032384
0.092527
0.206116
0.361913
0.483267
0.500973
0.471819
0.337424
0.145659
0.0244286
-0.00082617
-0.00102382
-0.000648696
-0.000395343
-0.000202963
-9.57189e-05
0.000552515
-0.0296339
-0.159941
-0.788522
-1.68002
-2.12646
-1.8206
-1.22204
-0.627507
-0.247167
-0.0875183
-0.0360973
-0.015489
-0.00630763
-0.00241182
-0.000887953
-0.000317001
-0.000108188
-3.43794e-05
-9.77934e-06
-2.24455e-06
-2.24396e-07
2.9585e-07
2.73649e-07
1.73143e-07
1.09278e-07
7.23146e-08
5.28446e-08
4.36988e-08
4.17313e-08
3.70269e-08
3.74738e-08
8.68416e-08
3.67005e-07
1.38746e-06
5.23488e-06
1.90161e-05
6.6291e-05
0.000218942
0.000712473
0.00220963
0.00683922
0.0253708
0.0791295
0.179959
0.324697
0.456831
0.492279
0.479949
0.390264
0.220635
0.0695146
0.00276176
-0.00124925
-0.000876924
-0.000547796
-0.000316529
-0.000172934
-8.97484e-05
-4.46201e-05
-2.13708e-05
-9.57056e-06
-4.88462e-06
-3.3856e-06
-3.08378e-06
-3.22513e-06
-3.47509e-06
-3.68667e-06
-3.7999e-06
-3.79784e-06
-3.68612e-06
-3.47792e-06
-3.6101e-06
-4.65421e-06
-7.80116e-06
-2.01642e-05
-5.8258e-05
-0.000126403
-0.000251767
-0.000519587
-0.00680243
-0.0268503
-0.0202282
-0.000713425
-1.02071e-18
1.20556e-18
3.29477e-18
6.37316e-18
1.34416e-17
3.16722e-17
7.98273e-17
1.91865e-16
4.21756e-16
8.70069e-16
1.67419e-15
2.90143e-15
4.45273e-15
6.51721e-15
9.19008e-15
1.25092e-14
1.64659e-14
2.10041e-14
2.60226e-14
2.74933e-14
-2.92839e-14
-3.46081e-13
-1.3699e-12
-3.83002e-12
-8.74059e-12
-1.74008e-11
-3.13664e-11
-5.26527e-11
-8.32614e-11
-1.35408e-10
-1.66601e-10
-1.4247e-10
-9.46509e-11
-5.05817e-11
-2.22147e-11
-8.27911e-12
-3.2504e-12
-1.58419e-12
-8.86416e-13
-5.24412e-13
-3.0192e-13
-1.66066e-13
-8.35808e-14
-1.84944e-14
3.78277e-14
8.55021e-14
1.56141e-13
2.93553e-13
5.78394e-13
1.19358e-12
2.55175e-12
5.58959e-12
1.24725e-11
2.80845e-11
7.24171e-11
3.75827e-10
2.01752e-09
5.15709e-08
8.87159e-07
-8.40743e-06
-0.0198824
-0.430306
-1.19788
-1.63214
-1.59668
-1.33381
-0.938098
-0.548333
-0.266188
-0.106352
-0.0419544
-0.0187945
-0.0086782
-0.0038066
-0.00157057
-0.00062545
-0.000241475
-8.87584e-05
-2.98672e-05
-8.45753e-06
-1.36727e-06
5.48487e-07
9.17078e-07
7.82988e-07
6.11256e-07
5.02774e-07
4.55018e-07
4.49372e-07
4.35188e-07
4.01052e-07
3.93884e-07
8.18967e-07
3.19259e-06
1.22572e-05
4.55332e-05
0.000162657
0.000558596
0.0018523
0.00581683
0.0194916
0.0617343
0.150073
0.284811
0.42472
0.499834
0.48633
0.373372
0.181499
0.0372157
-0.000602361
-0.00119797
-0.000499177
-5.70402e-05
-5.29566e-06
-1.12795e-06
-2.21953e-07
1.44984e-06
-0.00101235
-0.00556725
-0.087175
-0.556319
-1.39749
-1.87668
-1.94044
-1.63881
-1.12269
-0.60916
-0.260193
-0.0986721
-0.0413182
-0.0178619
-0.00733594
-0.00279851
-0.00101454
-0.00035101
-0.00011112
-2.84254e-05
-3.23631e-06
2.35344e-06
2.93507e-06
2.07129e-06
1.35245e-06
8.81068e-07
6.07109e-07
4.57463e-07
3.79265e-07
3.09063e-07
2.9847e-07
3.00049e-07
7.6692e-07
2.88918e-06
1.13668e-05
4.21465e-05
0.000146837
0.000490885
0.00157777
0.00487701
0.0175815
0.0599592
0.147336
0.275586
0.408839
0.486769
0.48471
0.405364
0.238622
0.0803044
0.00487918
-0.00130809
-0.000913382
-0.000408088
-6.94065e-05
-1.05005e-05
-3.88574e-06
-1.65351e-06
-6.8005e-07
-2.68836e-07
-1.03e-07
-3.86253e-08
-1.45783e-08
-5.85779e-09
-2.7855e-09
-1.74892e-09
-1.41602e-09
-1.30227e-09
-1.23801e-09
-1.16974e-09
-8.23455e-10
1.67463e-08
1.66608e-07
8.95671e-07
3.69528e-06
1.04061e-05
2.88667e-05
4.49098e-05
0.000119308
0.00014922
-0.00316747
-0.00907622
-0.000172709
-2.21999e-18
2.47939e-19
-2.4712e-19
-1.46201e-18
-6.06106e-18
-1.92223e-17
-5.04976e-17
-1.09875e-16
-2.10464e-16
-3.48517e-16
-4.56972e-16
-4.07391e-16
-1.59607e-16
-7.32204e-17
-4.60453e-17
-3.57783e-17
-3.08608e-17
-2.75257e-17
-2.65183e-17
-7.3257e-17
-1.00632e-15
-9.83804e-15
-4.73765e-14
-1.61544e-13
-4.26905e-13
-9.4469e-13
-1.83032e-12
-3.19619e-12
-5.30476e-12
-7.36069e-12
-7.87159e-12
-4.92037e-12
-1.96379e-12
-5.71448e-13
-1.32001e-13
-2.52849e-14
-4.11992e-15
-6.0616e-16
-1.01864e-16
-3.02998e-17
-1.32574e-17
-6.67254e-18
-3.02815e-18
2.04867e-19
1.82428e-18
3.8954e-18
7.26143e-18
1.39728e-17
2.85422e-17
5.00024e-17
-1.08355e-16
-9.76588e-16
-2.80326e-15
-7.90974e-15
2.03185e-12
-3.50117e-12
-2.81574e-10
7.79293e-09
-2.42489e-07
-4.18515e-07
0.000353093
-0.00198258
-0.113965
-0.467656
-0.920749
-1.17295
-1.19054
-1.05772
-0.809257
-0.525702
-0.281912
-0.124395
-0.0509024
-0.0229369
-0.0107029
-0.00477858
-0.00199023
-0.00078573
-0.000295528
-0.000101293
-2.65292e-05
-6.72736e-07
5.87539e-06
6.67674e-06
5.42104e-06
4.34207e-06
3.67793e-06
3.24924e-06
2.8312e-06
2.40943e-06
1.96989e-06
2.31586e-06
6.45128e-06
2.44111e-05
9.07593e-05
0.000326878
0.00113027
0.00368203
0.0120026
0.0408943
0.111393
0.233001
0.382046
0.48804
0.501995
0.430278
0.25495
0.083597
0.00570914
-0.00115523
-0.00068232
-0.000170152
-6.85374e-06
-8.21218e-08
4.85992e-08
3.55642e-08
-1.28306e-09
3.16502e-06
-3.86353e-05
-0.00106864
-0.022748
-0.321707
-0.886914
-1.48303
-1.83706
-1.87128
-1.60258
-1.13065
-0.634713
-0.283568
-0.108278
-0.0448812
-0.0194377
-0.00804277
-0.00307225
-0.0010871
-0.000344096
-7.9852e-05
3.31153e-06
2.12323e-05
1.99221e-05
1.39809e-05
9.29203e-06
6.32563e-06
4.49797e-06
3.29068e-06
2.37384e-06
1.55118e-06
6.57711e-07
1.19484e-06
5.67868e-06
2.4949e-05
9.57865e-05
0.000340548
0.00114937
0.00362616
0.0127376
0.0454717
0.121975
0.243289
0.382016
0.479289
0.493941
0.437167
0.288039
0.120523
0.0184432
-0.000921461
-0.000891305
-0.000421711
-7.07891e-05
-2.09551e-06
2.45041e-07
8.79505e-08
2.98846e-08
9.42758e-09
2.812e-09
8.15282e-10
2.31535e-10
6.41627e-11
1.71594e-11
4.28091e-12
8.47997e-13
-3.66761e-14
-2.47484e-13
-2.83445e-13
-2.95822e-13
-3.63083e-11
5.84916e-10
9.86241e-09
8.53037e-08
4.27717e-07
2.36085e-06
5.29931e-06
2.39772e-05
4.90855e-05
9.54175e-05
-5.99607e-05
-0.00346648
0.000185298
2.98865e-18
2.49169e-19
7.10271e-19
2.26708e-18
6.30926e-18
1.48284e-17
2.99997e-17
5.19823e-17
7.68921e-17
9.02613e-17
7.62613e-17
4.47432e-17
2.18566e-17
1.45165e-17
1.19781e-17
1.04715e-17
9.24964e-18
8.15449e-18
7.25831e-18
5.60299e-18
2.94428e-17
-8.64115e-17
-4.46285e-16
-1.17648e-15
-2.28247e-15
-4.22016e-15
-7.97259e-15
-1.39899e-14
-2.36105e-14
-4.75877e-14
-7.368e-14
-2.87659e-14
-6.6666e-15
-1.1366e-15
-5.10771e-17
1.92432e-16
3.3331e-16
1.68717e-16
3.2981e-17
6.23198e-18
3.21042e-18
1.84251e-18
5.58607e-19
-3.39752e-19
-9.7249e-19
-1.73319e-18
-3.07646e-18
-5.86606e-18
-1.21973e-17
-2.78928e-17
-5.40339e-17
-9.69726e-17
4.27743e-16
-5.98541e-15
7.51907e-13
-7.82873e-12
-1.11361e-09
8.29869e-11
1.92492e-08
5.11615e-09
-3.62947e-07
0.000481041
0.00014488
-0.012335
-0.167129
-0.445502
-0.780934
-0.989902
-1.04796
-0.97846
-0.801917
-0.556985
-0.319922
-0.152007
-0.0632819
-0.028202
-0.0131445
-0.00596927
-0.00252131
-0.000972258
-0.000332476
-8.09474e-05
9.9737e-06
3.75215e-05
3.99271e-05
3.33844e-05
2.72187e-05
2.20016e-05
1.75292e-05
1.3501e-05
9.85478e-06
8.64263e-06
1.48353e-05
5.20125e-05
0.000189517
0.000685393
0.00234088
0.00761427
0.026441
0.0805682
0.185547
0.332262
0.463854
0.509048
0.468494
0.319572
0.13216
0.0197821
-0.000851552
-0.000867102
-0.000304284
-2.61794e-05
-9.85096e-07
1.84663e-08
2.34563e-08
3.57513e-09
3.43313e-09
5.43883e-08
5.61721e-06
0.000135811
0.000729993
-0.00767043
-0.1173
-0.491768
-1.05005
-1.56771
-1.86733
-1.95609
-1.65197
-1.15095
-0.648201
-0.296233
-0.117208
-0.0494298
-0.0217161
-0.00905869
-0.00337236
-0.00104961
-0.000188573
6.71805e-05
0.000132778
0.000114193
8.23564e-05
5.65672e-05
3.86208e-05
2.63742e-05
1.73582e-05
9.51113e-06
3.21577e-06
2.99236e-06
1.28645e-05
5.90452e-05
0.000230724
0.000837575
0.00275449
0.00942544
0.0348273
0.1002
0.213998
0.354269
0.466734
0.501521
0.457255
0.32601
0.153465
0.0310055
-0.000566422
-0.00100863
-0.000469937
-8.05481e-05
-2.65618e-06
2.59151e-07
1.02366e-07
3.08724e-08
2.29166e-09
1.90259e-10
4.06862e-11
9.73509e-12
2.2796e-12
5.14765e-13
1.12079e-13
2.35786e-14
4.88553e-15
9.39138e-16
8.70384e-17
1.65237e-17
-5.37365e-14
2.41885e-12
2.70131e-12
5.64747e-11
4.91107e-10
9.14747e-09
1.88527e-07
5.56037e-07
8.54571e-06
2.01134e-05
5.84692e-05
7.41482e-05
-0.000870352
0.00038639
-1.0548e-18
-4.67326e-19
-7.92729e-19
-1.75097e-18
-3.69199e-18
-6.95539e-18
-1.15257e-17
-1.63175e-17
-1.88481e-17
-1.63533e-17
-1.02757e-17
-5.65745e-18
-3.65663e-18
-2.79519e-18
-2.27531e-18
-1.87265e-18
-1.5402e-18
-1.26992e-18
-1.08059e-18
-8.00715e-19
2.08201e-18
6.00797e-20
-2.34074e-18
3.74629e-18
4.2524e-17
4.50646e-17
1.00361e-16
1.87281e-16
2.75289e-16
-1.23249e-16
-4.86785e-16
1.85625e-16
1.98196e-16
1.03978e-16
-6.04419e-18
-6.19431e-17
-8.43888e-17
-4.21204e-17
-1.00928e-17
-1.24115e-18
-3.20373e-19
-2.37461e-19
-6.38808e-20
1.55761e-19
4.19082e-19
7.80027e-19
1.40898e-18
2.67667e-18
5.4781e-18
1.23313e-17
2.56864e-17
8.98601e-17
1.58702e-17
5.21894e-15
-3.87823e-14
3.00855e-12
4.2482e-10
1.68249e-09
8.72805e-09
4.29446e-08
2.26759e-08
-4.54089e-07
0.000241012
0.00123933
-0.00284346
-0.0373673
-0.1992
-0.462411
-0.746534
-0.94472
-1.04367
-1.00794
-0.853079
-0.611881
-0.367055
-0.18481
-0.0794095
-0.0352078
-0.0163267
-0.00749557
-0.00314008
-0.00107688
-0.000199386
0.000125437
0.000203792
0.000204561
0.000174477
0.000143351
0.000110028
8.18865e-05
6.24212e-05
4.70107e-05
4.55429e-05
0.000120886
0.000420168
0.00148963
0.0049473
0.0169972
0.0565325
0.144196
0.282114
0.429727
0.507423
0.491722
0.379634
0.190409
0.0442323
-8.48944e-05
-0.0011432
-0.000478668
-7.25025e-05
-2.85107e-06
-1.12817e-08
2.55535e-08
5.85538e-09
2.67781e-10
8.33173e-10
8.8864e-09
4.30058e-08
1.23008e-05
0.000178357
0.00127592
-0.00355913
-0.037783
-0.241834
-0.685138
-1.25695
-1.7674
-2.16341
-2.09768
-1.75037
-1.21998
-0.700477
-0.330219
-0.132408
-0.0557408
-0.0243587
-0.00998707
-0.00323936
-0.000298698
0.000663235
0.000710818
0.000570998
0.000410047
0.000295152
0.000200577
0.000119358
6.16744e-05
3.16182e-05
1.80315e-05
3.72074e-05
0.000158023
0.000609267
0.00213408
0.00719021
0.0268179
0.0824314
0.186514
0.327218
0.452775
0.504585
0.477057
0.356531
0.186854
0.0479669
0.000124395
-0.00113406
-0.000530877
-9.95322e-05
-3.44565e-06
2.06183e-07
7.3954e-08
1.71755e-08
1.89059e-09
2.23272e-10
1.02243e-11
-3.58665e-13
-7.37761e-14
-1.27624e-14
-2.22721e-15
-3.71332e-16
-7.41351e-17
-3.01923e-17
-5.88421e-18
-4.59954e-17
2.74642e-16
-1.19809e-15
1.25192e-14
3.07808e-13
-1.73643e-12
-2.21012e-11
1.70009e-10
1.03574e-08
1.40342e-07
1.84783e-06
8.5931e-06
5.25582e-05
0.000172933
0.000215395
0.000547166
1.96054e-19
2.54415e-19
4.23747e-19
7.95253e-19
1.41198e-18
2.26076e-18
3.19314e-18
3.80753e-18
3.58496e-18
2.48849e-18
1.37704e-18
8.36568e-19
5.86621e-19
4.36688e-19
3.32613e-19
2.53739e-19
1.9462e-19
1.51582e-19
1.11812e-19
4.53952e-20
3.55197e-20
1.12229e-18
5.04616e-18
1.43049e-17
1.61722e-17
8.03676e-18
3.89937e-18
4.64667e-18
3.60455e-19
9.16635e-19
1.77374e-17
-1.56951e-17
-2.265e-17
-1.32221e-17
-1.06947e-18
1.28606e-17
1.85144e-17
1.11967e-17
3.32096e-18
3.2803e-19
-1.08793e-19
-4.28823e-20
1.82154e-20
-3.60163e-21
-9.05249e-20
-2.25589e-19
-4.48862e-19
-8.73104e-19
-1.77044e-18
-3.90028e-18
-7.59974e-18
-2.95113e-17
-5.61471e-18
-1.71148e-17
1.54553e-16
1.71261e-14
7.07846e-13
1.73249e-11
2.8533e-10
3.13351e-09
1.35526e-08
-1.27138e-07
7.58738e-07
0.000107498
0.000655961
-0.000427145
-0.00853768
-0.0759648
-0.248566
-0.515365
-0.809469
-0.996619
-1.13551
-1.07735
-0.912977
-0.67494
-0.425576
-0.230639
-0.106081
-0.0450447
-0.0196878
-0.0087498
-0.00343518
-0.000713965
0.000607757
0.000954167
0.000959563
0.000833234
0.000683032
0.000528259
0.000359392
0.000207459
0.000138134
0.000293276
0.000968632
0.0032698
0.010988
0.0386345
0.109367
0.233932
0.387483
0.496078
0.507512
0.430267
0.250353
0.0786346
0.00392184
-0.00117396
-0.000629864
-0.000138076
-5.65891e-06
-6.19175e-08
3.31374e-08
9.54575e-09
3.48735e-10
2.93123e-11
2.91251e-10
8.03964e-09
-3.17107e-08
4.15914e-08
1.73689e-05
0.000248217
0.000454152
-0.00162831
-0.0193317
-0.135135
-0.48008
-1.04571
-1.76969
-2.1809
-2.47146
-2.27631
-1.83938
-1.30007
-0.771687
-0.383409
-0.156173
-0.0619323
-0.0247948
-0.00892188
-0.00124097
0.00251954
0.00300719
0.00268299
0.00190196
0.00119138
0.000767858
0.000470249
0.000231418
9.63879e-05
0.000123032
0.000473199
0.00169544
0.00572103
0.0209008
0.0676512
0.162031
0.299587
0.436985
0.504989
0.488926
0.389873
0.215475
0.0674807
0.00220945
-0.00115977
-0.000601099
-0.00012879
-4.45668e-06
2.12267e-07
6.90721e-08
1.4921e-08
1.05798e-09
7.17081e-11
6.79098e-12
7.69823e-13
6.06872e-14
2.89679e-16
-1.64722e-15
-8.90232e-17
3.72658e-17
8.06963e-18
-1.98325e-19
2.32479e-18
-6.07652e-18
1.85595e-16
-2.70643e-16
-6.63338e-15
1.85289e-14
2.78008e-12
6.07094e-11
-2.0546e-10
-3.37667e-09
5.64934e-08
4.19972e-07
1.32291e-05
9.48317e-05
0.000317626
0.000586185
0.000575927
-2.36598e-20
-7.97774e-20
-1.47027e-19
-2.54585e-19
-4.01397e-19
-5.65689e-19
-7.0004e-19
-7.24571e-19
-5.83117e-19
-3.50512e-19
-1.89729e-19
-1.2136e-19
-8.23922e-20
-5.74394e-20
-4.06535e-20
-2.88767e-20
-2.08643e-20
-1.51981e-20
-9.63799e-21
-6.60728e-21
-2.35238e-20
-4.19909e-20
6.44612e-20
3.06066e-19
6.33093e-19
8.68906e-19
1.12985e-18
1.98197e-18
3.71731e-18
7.53399e-18
8.07286e-18
4.60697e-18
4.8931e-18
3.90749e-18
1.48528e-18
-1.91494e-18
-3.83471e-18
-2.87327e-18
-1.07413e-18
-1.43654e-19
6.00309e-20
3.24578e-20
-1.6791e-20
-2.81376e-20
-5.68593e-21
3.58865e-20
1.0136e-19
2.18479e-19
4.53889e-19
9.86739e-19
1.87098e-18
6.86313e-18
1.45879e-18
7.14238e-18
-3.6832e-17
2.6533e-15
5.53043e-14
1.28601e-12
4.62762e-11
1.21892e-09
1.42098e-08
-2.52525e-08
-7.12329e-07
-2.35703e-06
4.33771e-05
0.000119525
2.54022e-06
-0.005369
-0.0288456
-0.137328
-0.372324
-0.656302
-0.959046
-1.13542
-1.21951
-1.1424
-0.973651
-0.735009
-0.486141
-0.278909
-0.137955
-0.054808
-0.0209577
-0.0078896
-0.00228848
0.000947173
0.00248129
0.00262235
0.00227527
0.00164527
0.0010071
0.00052565
0.000337902
0.000702923
0.00220598
0.00730671
0.0259151
0.0811953
0.189976
0.342034
0.47543
0.517238
0.469058
0.310316
0.12223
0.0155171
-0.000902569
-0.000722632
-0.000226739
-1.46288e-05
-5.49289e-07
1.46306e-08
1.2122e-08
6.88164e-10
2.28219e-11
7.0053e-12
1.41971e-10
3.69971e-09
-5.8789e-09
-3.16627e-07
-1.74672e-06
2.51464e-05
0.000154843
2.01927e-05
-0.00255091
-0.0179382
-0.105378
-0.403531
-1.00525
-1.67959
-2.27987
-2.71603
-2.68131
-2.43213
-1.96089
-1.39396
-0.842863
-0.434434
-0.182605
-0.0605146
-0.0177236
-0.00234662
0.0049019
0.00701657
0.00661104
0.00500491
0.00317252
0.0016901
0.000742246
0.000310724
0.000426686
0.00144184
0.00471176
0.0166362
0.0554003
0.140205
0.272738
0.417838
0.50306
0.497725
0.416734
0.247732
0.0858136
0.00640105
-0.00111054
-0.00065089
-0.000168226
-6.09407e-06
2.08321e-07
6.98129e-08
1.4625e-08
8.07614e-10
3.64796e-11
2.31686e-12
1.81066e-13
1.47716e-14
1.19948e-15
1.33263e-16
-8.97323e-18
-3.01552e-18
-2.52273e-19
-6.38477e-19
7.83659e-19
3.66662e-17
1.01773e-16
-5.6817e-16
-3.44518e-15
8.52818e-14
4.29899e-12
2.65954e-11
7.53982e-12
-1.10998e-08
-5.74148e-08
-1.65942e-08
3.59801e-07
4.01354e-05
0.000187673
0.000434898
0.000575564
0.000465037
2.06016e-21
1.71325e-20
3.73579e-20
6.28688e-20
9.11941e-20
1.15991e-19
1.28635e-19
1.18869e-19
8.52697e-20
4.70328e-20
2.55036e-20
1.60322e-20
1.01918e-20
6.61746e-21
4.36612e-21
2.90942e-21
1.99445e-21
1.36935e-21
8.33831e-22
8.1145e-22
1.77261e-21
-2.41166e-21
-2.78064e-20
-8.84413e-20
-1.42343e-19
-1.02574e-19
-5.93193e-20
-1.01103e-19
-1.64074e-19
-4.41313e-19
-8.75113e-19
-1.02065e-18
-1.29829e-18
-1.1631e-18
-6.07466e-19
1.62092e-19
7.21216e-19
6.89252e-19
3.25927e-19
6.6543e-20
-1.41211e-20
-1.01614e-20
9.85786e-21
1.87753e-20
1.55626e-20
6.03709e-21
-8.62935e-21
-3.44303e-20
-8.51703e-20
-1.89053e-19
-3.69294e-19
-1.02563e-18
-1.22367e-18
6.7876e-18
-2.59965e-17
-7.76468e-17
5.84451e-15
4.08701e-13
1.0103e-11
7.83579e-11
1.06844e-09
1.24384e-08
-2.43026e-07
-2.61711e-06
-1.43602e-05
-2.14436e-05
-3.29793e-05
-0.000623881
-0.00399626
-0.0155934
-0.0897129
-0.264882
-0.539762
-0.842852
-1.09447
-1.22557
-1.2262
-1.14925
-0.979769
-0.740851
-0.503719
-0.29851
-0.153578
-0.0657286
-0.0178717
-0.00247025
0.00232316
0.00377453
0.00359451
0.00288979
0.00180367
0.00094332
0.000696907
0.00157262
0.00490656
0.0173349
0.0589089
0.151452
0.296002
0.446833
0.519499
0.495082
0.36857
0.17441
0.0352176
-0.00032229
-0.00092645
-0.00034327
-4.08806e-05
-1.76848e-06
-1.49929e-08
1.22552e-08
1.83884e-09
5.10968e-11
1.56022e-12
2.57886e-13
1.36835e-11
4.19114e-10
9.08198e-09
-2.26395e-08
-9.80016e-07
-8.06501e-06
2.0591e-05
7.05514e-05
-0.000320983
-0.00401153
-0.0192915
-0.101802
-0.393325
-0.92965
-1.59911
-2.30712
-2.70693
-2.82988
-2.72405
-2.42153
-1.90114
-1.31957
-0.801565
-0.414065
-0.175485
-0.0448635
8.41351e-05
0.00925485
0.0102053
0.00886686
0.00610985
0.00339475
0.0015346
0.000780061
0.00131587
0.00399315
0.0133507
0.0453683
0.120921
0.24713
0.396737
0.498883
0.506799
0.440188
0.278091
0.106704
0.0117644
-0.00105432
-0.000703088
-0.000217345
-1.06003e-05
2.32704e-08
6.23093e-08
1.52016e-08
7.19002e-10
2.71737e-11
7.95245e-13
2.08584e-14
8.80316e-16
-1.6962e-18
-1.65778e-17
-1.27387e-18
4.73635e-19
-2.14448e-20
-3.67243e-19
2.47786e-18
2.34077e-17
8.33288e-18
-5.72894e-16
-2.63775e-15
3.84328e-14
4.57652e-12
2.47506e-11
4.39015e-11
-5.51441e-09
-5.27284e-08
-1.37786e-07
-1.64479e-07
9.60943e-06
0.000102829
0.000299672
0.000492989
0.000520017
0.000167554
-1.34552e-22
-2.73346e-21
-7.3998e-21
-1.26085e-20
-1.73102e-20
-2.02862e-20
-2.05336e-20
-1.73306e-20
-1.14487e-20
-5.99282e-21
-3.2099e-21
-1.914e-21
-1.13273e-21
-6.86415e-22
-4.24429e-22
-2.67222e-22
-1.75173e-22
-1.15966e-22
-6.90844e-23
-4.71267e-23
-3.62454e-23
1.6448e-23
-6.67053e-22
-3.46869e-21
-8.12213e-21
-1.07784e-20
-1.12694e-20
-1.2746e-20
-5.22971e-21
2.27554e-20
1.0417e-19
2.06956e-19
2.95343e-19
2.92558e-19
1.80995e-19
1.90527e-20
-1.23555e-19
-1.56534e-19
-9.28979e-20
-2.70656e-20
6.84952e-22
2.17184e-21
-3.98214e-21
-8.05187e-21
-8.80873e-21
-7.91907e-21
-6.53807e-21
-3.72855e-21
2.31385e-21
8.60265e-21
1.87934e-20
-5.48325e-20
4.50486e-19
-5.56253e-18
2.77167e-17
-5.75114e-17
4.19829e-16
1.30631e-14
5.27903e-13
2.44016e-11
3.01428e-10
2.44518e-09
1.56672e-08
-5.20185e-07
-6.35777e-06
-4.08942e-05
-7.84276e-05
-0.000175101
-0.000775237
-0.00319875
-0.0111526
-0.0568678
-0.177666
-0.401219
-0.676246
-0.957847
-1.12844
-1.17927
-1.15895
-1.0562
-0.865772
-0.638438
-0.421206
-0.24523
-0.119837
-0.0453477
-0.00754991
0.00346018
0.00432654
0.00355062
0.00233798
0.00125037
0.00122974
0.00328492
0.0115041
0.0420018
0.119336
0.252342
0.411086
0.514114
0.512821
0.419969
0.230783
0.0641904
0.00130287
-0.00107732
-0.000465425
-7.68091e-05
-3.1895e-06
-2.19424e-08
1.75336e-08
3.13751e-09
1.01475e-10
2.82647e-12
9.85443e-14
5.04277e-14
1.97898e-12
5.89941e-11
1.0981e-09
1.90559e-08
-1.31788e-07
-2.85968e-06
-2.54315e-05
-1.04187e-05
1.284e-05
-0.000544983
-0.00439301
-0.018667
-0.0973157
-0.338558
-0.791379
-1.41222
-2.07099
-2.5312
-2.71113
-2.68665
-2.49864
-2.06342
-1.5184
-0.988975
-0.56002
-0.260238
-0.08697
-0.00721378
0.0104275
0.0104947
0.00801079
0.00457463
0.00208753
0.00152848
0.0032939
0.0105425
0.0366959
0.104135
0.223486
0.375009
0.492394
0.51576
0.461553
0.3062
0.128597
0.0182073
-0.000836899
-0.00074247
-0.00026038
-1.83442e-05
-2.50079e-07
6.24465e-08
1.68451e-08
9.08185e-10
2.82549e-11
5.25669e-13
-5.27608e-15
-9.59097e-16
-1.20395e-16
-7.06204e-18
1.60079e-18
2.93169e-19
-3.78747e-20
-1.97545e-19
1.43529e-18
1.10353e-17
-2.51887e-17
-3.86026e-16
-1.58949e-15
1.35854e-14
4.04188e-12
3.06242e-11
5.94112e-11
-9.41447e-10
-3.92571e-08
-1.36261e-07
-2.14457e-07
-1.63102e-07
3.30189e-05
0.000174598
0.00036987
0.000479762
0.000388393
8.80481e-06
5.69337e-24
3.40258e-22
1.18747e-21
2.12211e-21
2.8271e-21
3.10889e-21
2.91569e-21
2.28602e-21
1.42184e-21
7.17546e-22
3.72747e-22
2.08357e-22
1.15039e-22
6.5323e-23
3.80637e-23
2.27873e-23
1.43866e-23
9.30246e-24
5.38506e-24
2.71113e-24
2.3423e-24
1.34966e-23
9.6347e-23
3.50237e-22
7.14637e-22
6.95264e-22
3.71197e-22
2.73373e-22
-1.0743e-21
-5.21629e-21
-1.69579e-20
-3.7929e-20
-5.9453e-20
-6.41512e-20
-4.54536e-20
-1.38716e-20
1.92552e-20
3.42557e-20
2.51952e-20
9.73434e-21
1.13104e-21
-2.74187e-22
1.25196e-21
2.73679e-21
3.56607e-21
4.14121e-21
5.02868e-21
6.43089e-21
8.98071e-21
1.75815e-20
3.64e-20
1.16627e-19
9.18399e-20
1.45757e-18
-7.67013e-18
6.04684e-18
5.86087e-17
7.01238e-15
1.47078e-13
9.30335e-13
2.66944e-11
1.03616e-09
5.88062e-09
8.28935e-09
-9.35615e-07
-1.04566e-05
-6.95793e-05
-0.000149308
-0.000238599
-0.000507831
-0.00190707
-0.00779885
-0.0285848
-0.102537
-0.250073
-0.469978
-0.703835
-0.89952
-0.999908
-1.00014
-0.93253
-0.782662
-0.589331
-0.394624
-0.229944
-0.111499
-0.0398372
-0.00587042
0.00303354
0.00355699
0.00224839
0.00115744
0.00202079
0.00736122
0.0298674
0.093773
0.214053
0.373363
0.501105
0.526521
0.463195
0.28812
0.101955
0.00818708
-0.000981757
-0.000545238
-0.000128251
-5.59446e-06
-7.55779e-08
2.03757e-08
4.85626e-09
1.50477e-10
4.31509e-12
1.46307e-13
5.95932e-15
2.05933e-15
1.524e-13
8.70885e-12
4.53115e-10
4.72095e-09
3.96619e-08
-5.29071e-07
-7.86008e-06
-6.18179e-05
-0.000101419
-6.81755e-05
-0.000463306
-0.00360866
-0.0169754
-0.0738063
-0.243876
-0.580841
-1.07469
-1.59476
-2.04834
-2.27431
-2.29001
-2.1035
-1.72856
-1.26504
-0.8129
-0.44577
-0.194986
-0.0556398
-0.0013171
0.00878333
0.00779491
0.00436003
0.00190807
0.00242163
0.00758354
0.02897
0.0893297
0.202712
0.354915
0.484575
0.523771
0.48097
0.334799
0.150949
0.0262299
-0.00056125
-0.000780219
-0.000302493
-2.88859e-05
-6.37378e-07
7.08293e-08
2.05278e-08
1.42929e-09
4.65068e-11
9.5745e-13
1.48334e-15
-8.22137e-16
-1.40932e-16
-5.54877e-18
1.83665e-18
2.71476e-19
-1.25236e-20
-8.12794e-20
1.24069e-20
4.18773e-18
1.17171e-17
-1.24315e-16
-7.49227e-16
-3.32935e-16
7.67707e-13
1.89306e-11
5.26864e-11
4.15212e-11
-1.51094e-08
-9.06949e-08
-2.02139e-07
-2.76513e-07
1.23547e-06
6.17217e-05
0.000212873
0.000358845
0.000392624
0.000209639
1.02946e-06
-8.57017e-27
-3.42062e-23
-1.58657e-22
-3.06706e-22
-4.05601e-22
-4.25558e-22
-3.74512e-22
-2.76022e-22
-1.63822e-22
-8.02201e-23
-3.99385e-23
-2.0903e-23
-1.08107e-23
-5.77703e-24
-3.18898e-24
-1.82568e-24
-1.11644e-24
-7.06987e-25
-3.97234e-25
-2.20875e-25
-4.05694e-25
-7.03853e-25
2.74131e-24
2.08201e-23
5.83326e-23
8.61384e-23
8.8054e-23
1.12143e-22
2.24502e-22
7.84674e-22
2.52297e-21
6.23011e-21
1.08155e-20
1.26693e-20
1.01698e-20
4.4992e-21
-2.65414e-21
-7.30111e-21
-6.56337e-21
-3.18507e-21
-7.24347e-22
-3.87182e-23
-3.28796e-22
-7.9148e-22
-1.19781e-21
-1.64477e-21
-2.34368e-21
-3.62658e-21
-6.24948e-21
-1.25026e-20
-2.61172e-20
-5.86825e-20
-1.57978e-19
4.58198e-20
1.44894e-19
6.83053e-18
-6.58528e-17
-2.52043e-16
2.18442e-15
1.1812e-13
2.43613e-12
6.39499e-11
1.58309e-09
7.29825e-09
-1.2041e-08
-2.09234e-06
-1.82392e-05
-0.000119057
-0.00022504
-8.6133e-05
6.38792e-05
-0.00059015
-0.00339065
-0.0121309
-0.045884
-0.127171
-0.261445
-0.422534
-0.56204
-0.659167
-0.677815
-0.625894
-0.516626
-0.377165
-0.239316
-0.127568
-0.0529938
-0.0134034
-0.000101633
0.00167276
0.000457588
0.000459542
0.00409062
0.0217285
0.0756737
0.183343
0.339056
0.483716
0.536297
0.495257
0.34437
0.147494
0.0220063
-0.00063189
-0.000644924
-0.000198461
-1.33077e-05
-4.59237e-07
4.7144e-09
4.88842e-09
2.42423e-10
6.92661e-12
1.9751e-13
5.84893e-15
-8.35117e-18
-1.49014e-15
-1.33417e-15
1.11378e-12
4.19293e-11
1.72153e-09
1.44615e-08
5.42206e-08
-1.721e-06
-1.99584e-05
-0.000124152
-0.000232215
3.69023e-05
-7.37912e-05
-0.00220698
-0.0124459
-0.0447785
-0.147815
-0.360273