/*--------------------------------*- C++ -*----------------------------------*\
| =========                 |                                                 |
| \\      /  F ield         | OpenFOAM: The Open Source CFD Toolbox           |
|  \\    /   O peration     | Version:  2506                                  |
|   \\  /    A nd           | Website:  www.openfoam.com                      |
|    \\/     M anipulation  |                                                 |
\*---------------------------------------------------------------------------*/
FoamFile
{
    version     2.0;
    format      ascii;
    arch        "LSB;label=32;scalar=64";
    class       volVectorField;
    location    "1";
    object      U;
}
// * * * * * * * * * * * * * * * * * * * * * * * * * * * * * * * * * * * * * //

dimensions      [0 1 -1 0 0 0 0];

internalField   nonuniform List<vector> 
4000
(
(0.00259633 -0.00108495 8.23086e-23)
(0.00338875 -0.000803558 0)
(0.00460825 -0.000366423 3.98831e-23)
(0.005462 -0.000184982 3.32726e-23)
(0.00595743 -0.00011265 2.86849e-23)
(0.0062883 -7.14081e-05 0)
(0.00653294 -4.70435e-05 2.35145e-23)
(0.00671903 -3.28446e-05 2.22263e-23)
(0.00686432 -2.3971e-05 0)
(0.00698097 -1.80141e-05 0)
(0.00707668 -1.38365e-05 3.56532e-22)
(0.00715658 -1.07975e-05 -6.75151e-22)
(0.00722438 -8.50695e-06 3.18047e-22)
(0.00728281 -6.72353e-06 -3.61846e-22)
(0.00733397 -5.29264e-06 3.60562e-22)
(0.00737952 -4.11331e-06 2.40613e-23)
(0.00742081 -3.11739e-06 4.1605e-22)
(0.007459 -2.25968e-06 -4.14645e-22)
(0.0074951 -1.51377e-06 2.82133e-23)
(0.00753005 -8.6763e-07 0)
(0.00756478 -3.152e-07 0)
(0.00760021 1.44191e-07 -3.42252e-23)
(0.00763737 5.01214e-07 -3.67116e-23)
(0.00767739 7.29731e-07 0)
(0.00772165 7.8146e-07 -4.25522e-23)
(0.00777188 5.71365e-07 -4.59748e-23)
(0.00783033 -5.79645e-08 0)
(0.00790011 -1.41929e-06 0)
(0.00798524 -4.01401e-06 1.99605e-21)
(0.00809649 -9.39837e-06 -2.05043e-21)
(0.00824627 -2.88008e-05 0)
(0.00833793 -9.22722e-05 -5.26163e-21)
(0.00832348 -0.000212919 8.32537e-21)
(0.00823331 -0.000390025 -3.22324e-22)
(0.00810918 -0.000607542 -4.08645e-21)
(0.00797372 -0.000863288 6.12926e-20)
(0.00787227 -0.00115728 -7.9663e-22)
(0.00774459 -0.0015593 -1.33999e-20)
(0.00749162 -0.00206132 0)
(0.00717748 -0.00254863 5.09074e-21)
(0.00691301 -0.00296359 -5.15571e-21)
(0.00669293 -0.00331428 4.12234e-20)
(0.00650343 -0.00360659 0)
(0.00634534 -0.00383552 3.51985e-20)
(0.00621707 -0.00399803 -1.47343e-20)
(0.0061105 -0.00409677 2.03747e-20)
(0.00601884 -0.00413322 0)
(0.00593833 -0.00411492 -1.93532e-20)
(0.00585165 -0.00405429 -2.02854e-20)
(0.00574065 -0.00395797 -1.49888e-20)
(0.00558152 -0.00383328 0)
(0.0053782 -0.00366294 0)
(0.0051286 -0.00345726 -1.80032e-21)
(0.00482789 -0.00316435 1.39625e-20)
(0.00454248 -0.00276437 2.30601e-21)
(0.00436662 -0.00221613 -8.81505e-21)
(0.00439338 -0.00155332 -4.61337e-21)
(0.00474889 -0.000799679 1.10557e-21)
(0.00547888 -0.000116206 0)
(0.0063989 0.00034286 3.79233e-22)
(0.00726511 0.000577266 1.39007e-21)
(0.00801889 0.00064095 -8.07697e-22)
(0.00854922 0.000607196 -7.95676e-21)
(0.00892678 0.000535943 8.39176e-21)
(0.00917326 0.00046584 0)
(0.009335 0.000407173 0)
(0.00944637 0.000360563 0)
(0.00952141 0.000325509 1.45976e-21)
(0.0095736 0.000299551 2.14846e-20)
(0.00961176 0.0002799 1.18608e-20)
(0.00964118 0.000264236 0)
(0.00966401 0.000251262 -1.04228e-20)
(0.00968209 0.000240003 1.03489e-20)
(0.00969689 0.000229669 1.07473e-21)
(0.00970928 0.000219755 -1.11466e-20)
(0.0097198 0.000209943 9.75547e-21)
(0.0097289 0.000199967 1.07997e-20)
(0.0097353 0.000190223 1.00733e-20)
(0.00974014 0.000180348 0)
(0.0097438 0.00017005 0)
(0.00974624 0.000159006 -2.49779e-22)
(0.00974334 0.000148307 -7.30893e-21)
(0.0097385 0.000136542 0)
(0.00972714 0.000124385 5.35594e-21)
(0.00971085 0.000110374 -4.16243e-21)
(0.00968229 9.43799e-05 0)
(0.00964271 7.31556e-05 0)
(0.00959606 4.22382e-05 4.01474e-23)
(0.00955065 -2.51183e-06 3.08136e-22)
(0.00952501 -5.95482e-05 -1.16858e-21)
(0.00953227 -0.00011316 8.14554e-23)
(0.00957486 -0.000150937 -8.82036e-23)
(0.00964723 -0.000155623 -3.90696e-22)
(0.00974561 -0.000124681 0)
(0.00984826 -6.84112e-05 8.92254e-21)
(0.00993793 7.8397e-06 9.62315e-21)
(0.0100037 8.14849e-05 1.03707e-20)
(0.0100353 0.000136621 7.18207e-22)
(0.0100245 0.000160434 1.15328e-20)
(0.00998254 0.000146046 1.26772e-20)
(0.00990789 9.29471e-05 -2.04883e-22)
(0.00980758 4.5381e-06 1.38273e-20)
(0.00968325 -0.000114806 2.71322e-20)
(0.00953579 -0.000261346 6.61092e-22)
(0.00936164 -0.000434883 1.3112e-20)
(0.00914643 -0.000633642 0)
(0.00887749 -0.000862432 -1.31752e-20)
(0.0085419 -0.00111994 -1.19727e-20)
(0.00813746 -0.0013944 -8.41273e-22)
(0.00767306 -0.00166583 0)
(0.00714052 -0.001919 -1.08112e-20)
(0.00656856 -0.00207069 9.76612e-21)
(0.00599846 -0.00208631 0)
(0.00548521 -0.00188575 1.47283e-20)
(0.00516569 -0.00150703 2.63628e-21)
(0.00511139 -0.000950485 3.73349e-21)
(0.00545981 -0.000315626 0)
(0.00613776 0.000203613 -3.87908e-22)
(0.00691976 0.000526973 1.64903e-22)
(0.00768132 0.00066214 6.86176e-23)
(0.00827493 0.000664977 -2.19237e-22)
(0.00870722 0.000606225 8.99836e-21)
(0.0090022 0.000534566 -1.07688e-20)
(0.00920893 0.000466693 -7.31001e-22)
(0.00934586 0.000412032 -1.05475e-20)
(0.00943709 0.000370746 2.33385e-20)
(0.00950262 0.000339039 -1.19189e-20)
(0.00955032 0.000314468 1.31958e-20)
(0.00958474 0.000295379 -5.07847e-22)
(0.00961042 0.000280016 1.18001e-20)
(0.0096303 0.000266927 0)
(0.00964621 0.000255038 -1.29823e-20)
(0.00965933 0.000243558 2.02542e-21)
(0.00966976 0.000232202 -1.41242e-20)
(0.00967803 0.000220721 0)
(0.0096845 0.000208938 0)
(0.00968936 0.000196648 1.12396e-20)
(0.00969332 0.000183136 -1.02782e-20)
(0.00969312 0.000169232 0)
(0.00969123 0.000154272 0)
(0.009689 0.000136941 -8.1215e-21)
(0.00967908 0.000118492 1.62862e-21)
(0.00966731 9.69344e-05 -7.32624e-21)
(0.00964616 7.17978e-05 0)
(0.00961616 4.13258e-05 2.6063e-21)
(0.00957943 4.32549e-06 9.67318e-22)
(0.00953927 -4.39433e-05 -1.76203e-22)
(0.00950887 -0.000101226 -6.87437e-23)
(0.00950575 -0.000157188 0)
(0.00953506 -0.000202333 1.06003e-21)
(0.00959552 -0.00022032 2.67629e-22)
(0.00968049 -0.000205053 -8.78923e-21)
(0.00977966 -0.000162452 1.58598e-21)
(0.00987273 -9.70829e-05 1.53731e-22)
(0.00994455 -2.41911e-05 6.18631e-21)
(0.00998538 3.49852e-05 2.17484e-21)
(0.00998211 6.6126e-05 0)
(0.00994351 5.86932e-05 0)
(0.00986652 7.67517e-06 0)
(0.00975111 -8.97191e-05 -2.07404e-20)
(0.00958922 -0.000231588 2.63129e-21)
(0.00936243 -0.000410848 9.63357e-21)
(0.00898453 -0.000616929 7.46867e-21)
(0.00833397 -0.000808471 0)
(0.00781577 -0.000934959 -8.64051e-21)
(0.00733404 -0.00100506 -1.32116e-20)
(0.00686483 -0.000977857 -3.01554e-22)
(0.00652087 -0.000836199 -1.5825e-21)
(0.006386 -0.000591434 -3.32933e-21)
(0.00653777 -0.000307833 -9.77338e-22)
(0.00687762 -0.000109454 0)
(0.00714478 -3.91466e-05 -7.78349e-24)
(0.00729529 -1.99526e-05 0)
(0.00739492 -1.18389e-05 -5.25376e-24)
(0.00747237 -7.72545e-06 -4.37677e-24)
(0.00753404 -5.38774e-06 -2.20145e-22)
(0.00758299 -3.74074e-06 2.19127e-22)
(0.00762165 -2.40909e-06 7.58362e-23)
(0.00765174 -1.28549e-06 -7.78639e-23)
(0.00767457 -3.26511e-07 4.86345e-23)
(0.00769127 5.09846e-07 -9.06484e-23)
(0.00770273 1.26822e-06 3.782e-23)
(0.00770955 1.99521e-06 0)
(0.00771206 2.73458e-06 -3.44593e-25)
(0.00771024 3.56844e-06 -2.70333e-26)
(0.00770371 4.64828e-06 2.12069e-23)
(0.00769165 5.82748e-06 -1.98775e-23)
(0.00767246 7.3475e-06 5.38101e-23)
(0.00764419 9.64103e-06 -5.17536e-23)
(0.00760411 1.26547e-05 5.33602e-23)
(0.00754802 1.65457e-05 -4.69362e-23)
(0.00747053 2.15852e-05 4.79721e-24)
(0.00736438 2.82069e-05 6.24943e-24)
(0.00721922 3.73876e-05 0)
(0.00701864 5.16163e-05 1.04842e-23)
(0.00673248 7.73204e-05 1.35929e-23)
(0.00629259 0.000131601 1.86168e-22)
(0.00552497 0.000272158 -1.93644e-22)
(0.00411989 0.000699668 0)
(0.00309946 0.00117618 5.18615e-23)
(-2.67336e-05 -0.00217211 -2.73576e-23)
(-4.15743e-05 -0.00194044 3.90473e-23)
(0.000788029 -0.00130209 -4.63744e-23)
(0.00158064 -0.000904616 1.83078e-22)
(0.0022234 -0.00064972 -4.33336e-22)
(0.0027523 -0.000481248 2.16877e-23)
(0.003194 -0.000370132 2.02139e-22)
(0.00356277 -0.000294136 -7.78778e-23)
(0.00387208 -0.000239507 -5.01831e-23)
(0.00413371 -0.000198846 -4.90136e-23)
(0.00435679 -0.000167898 -7.25535e-23)
(0.00454847 -0.000143955 -4.41807e-22)
(0.00471441 -0.0001252 4.15194e-22)
(0.00485913 -0.000110402 -4.12804e-22)
(0.00498631 -9.87235e-05 7.86288e-22)
(0.00509903 -8.95842e-05 -9.53992e-22)
(0.00519987 -8.25775e-05 3.87591e-22)
(0.00529107 -7.74296e-05 -5.53892e-22)
(0.00537461 -7.3977e-05 -6.49356e-22)
(0.00545235 -7.21498e-05 9.74588e-22)
(0.00552605 -7.19514e-05 -7.10652e-23)
(0.00559749 -7.34597e-05 -1.3047e-21)
(0.00566849 -7.68472e-05 1.30227e-21)
(0.00574109 -8.24116e-05 1.37277e-21)
(0.00581758 -9.0614e-05 -1.40508e-21)
(0.00590072 -0.000102145 -4.9536e-23)
(0.00599386 -0.000118058 -1.83706e-21)
(0.00610126 -0.000140037 -4.887e-23)
(0.00622808 -0.000170927 4.14824e-21)
(0.00638357 -0.000215222 2.83963e-22)
(0.00657969 -0.000284856 -2.34144e-21)
(0.00674937 -0.000419202 -2.80975e-21)
(0.00682512 -0.000629379 -8.84703e-21)
(0.00680645 -0.000902351 -1.91496e-20)
(0.00672611 -0.00122883 -1.41723e-20)
(0.00661302 -0.00161529 -1.62808e-20)
(0.00649617 -0.00207504 3.0984e-21)
(0.00634441 -0.00264209 1.36257e-20)
(0.00607779 -0.00327539 -4.55391e-21)
(0.00575488 -0.00388581 -1.3358e-20)
(0.00547842 -0.00443256 -1.84029e-20)
(0.00524282 -0.00491075 -2.0097e-20)
(0.00503673 -0.00531291 0)
(0.00486277 -0.00562876 -4.0256e-20)
(0.00471676 -0.00585382 1.99349e-20)
(0.00458783 -0.00598878 -2.04826e-20)
(0.00446365 -0.00603647 2.01007e-20)
(0.00433317 -0.00600869 0)
(0.0041728 -0.0059179 1.47445e-21)
(0.00396111 -0.00577039 1.75966e-20)
(0.00367811 -0.00557365 -1.72934e-20)
(0.00331652 -0.0053194 1.98075e-21)
(0.00288445 -0.00501167 1.51427e-20)
(0.00237017 -0.00463097 -3.23961e-21)
(0.00184508 -0.00412677 1.37791e-20)
(0.00137725 -0.00344189 0)
(0.00108378 -0.00260261 4.77786e-21)
(0.00108655 -0.00159643 -2.09706e-21)
(0.00154719 -0.00052877 -1.40801e-22)
(0.00243168 0.000416181 -2.84032e-22)
(0.00359556 0.00110454 -1.88725e-21)
(0.00488264 0.00150611 -5.90099e-21)
(0.00601146 0.00163734 -7.63851e-21)
(0.00694791 0.00158655 -9.96788e-21)
(0.00764604 0.00146339 1.33713e-21)
(0.00814879 0.00132241 -1.29795e-21)
(0.00850723 0.00119171 0)
(0.0087549 0.00108447 0)
(0.0089253 0.00100126 -2.4613e-20)
(0.00904389 0.000937677 1.19552e-20)
(0.00912829 0.000888208 1.57885e-21)
(0.00918884 0.000848466 -1.52625e-20)
(0.009233 0.000814675 -1.05144e-20)
(0.00926626 0.000783908 -1.43044e-20)
(0.00929209 0.000754175 7.97493e-22)
(0.00931249 0.000724156 7.65274e-22)
(0.00932902 0.000692919 1.24783e-20)
(0.00934009 0.00066093 -1.12191e-20)
(0.00934737 0.000627162 -6.60779e-22)
(0.00935174 0.000590845 -9.63591e-21)
(0.00935405 0.000551214 8.86535e-21)
(0.00934899 0.000509419 0)
(0.00934212 0.000462156 0)
(0.0093296 0.000408956 0)
(0.00931689 0.000345532 4.50578e-21)
(0.00930279 0.000268211 -1.19737e-22)
(0.00930111 0.000171847 5.9281e-23)
(0.00932547 5.69992e-05 -6.14568e-23)
(0.00938485 -7.01251e-05 -1.27742e-22)
(0.00949244 -0.00018634 2.84434e-21)
(0.00963541 -0.000262231 -2.86843e-22)
(0.00980299 -0.000279272 8.5857e-25)
(0.00997082 -0.000239306 6.08791e-21)
(0.0101231 -0.000145714 -7.54827e-21)
(0.0102398 -1.87993e-05 8.46052e-21)
(0.0103108 0.000114587 -9.23598e-21)
(0.010332 0.000228635 9.28209e-21)
(0.0102996 0.000301207 1.06213e-20)
(0.0102332 0.000318829 -1.17001e-20)
(0.0101234 0.000275949 -1.19388e-20)
(0.00997987 0.000175236 0)
(0.00980526 2.32426e-05 1.20949e-20)
(0.00959583 -0.000173259 -1.32637e-20)
(0.00934167 -0.000410001 3.99611e-22)
(0.009027 -0.000686144 -1.62226e-21)
(0.00863559 -0.00100394 0)
(0.00815461 -0.0013644 2.5135e-20)
(0.00757775 -0.00176016 2.52119e-20)
(0.0069116 -0.00216983 1.08973e-20)
(0.00617085 -0.00255617 9.59554e-21)
(0.00536434 -0.00285284 1.12982e-20)
(0.00451893 -0.00299067 -1.94803e-20)
(0.00369554 -0.00297167 5.66925e-22)
(0.0029158 -0.00276298 -8.0322e-21)
(0.00232167 -0.00228307 6.55323e-22)
(0.00197409 -0.00156552 -2.00746e-21)
(0.00203929 -0.000692899 -1.37531e-22)
(0.00254619 0.000175419 3.70445e-22)
(0.00341874 0.000899912 1.62624e-22)
(0.00453546 0.00138699 -1.54844e-22)
(0.00563167 0.00162846 0)
(0.00658722 0.00163591 -1.0276e-20)
(0.00733227 0.00154851 -3.52388e-22)
(0.00790001 0.0014208 1.09826e-21)
(0.00830561 0.00129235 1.23071e-20)
(0.00858834 0.00118279 -1.35558e-20)
(0.00878801 0.00109472 -1.2663e-20)
(0.00892874 0.00102623 -2.71426e-20)
(0.00902691 0.000973474 -2.74753e-20)
(0.00909607 0.000931772 -1.26189e-20)
(0.00914582 0.000896906 -1.71372e-21)
(0.00918262 0.00086563 -1.31549e-20)
(0.00921099 0.000835568 2.68846e-20)
(0.00923288 0.000805301 -3.24281e-21)
(0.00924977 0.000773732 -9.09148e-21)
(0.00926274 0.000740229 0)
(0.00927206 0.000704385 0)
(0.00927929 0.000664925 7.30844e-22)
(0.00928 0.00062305 2.43914e-21)
(0.00927773 0.000576625 6.53207e-21)
(0.00927564 0.000523269 1.93314e-21)
(0.00926551 0.000464027 -2.76919e-22)
(0.00925722 0.000394569 -2.49954e-21)
(0.0092466 0.000313024 2.30309e-21)
(0.00924482 0.000214494 -2.69713e-21)
(0.00926437 0.000101532 0)
(0.00931045 -2.74602e-05 1.02776e-22)
(0.00940087 -0.000156591 -1.00699e-22)
(0.0095309 -0.000255026 1.17397e-21)
(0.0096894 -0.000300375 0)
(0.00985775 -0.000283227 0)
(0.0100155 -0.000212822 0)
(0.0101411 -0.000100823 0)
(0.0102236 2.59897e-05 1.59699e-20)
(0.0102518 0.000138048 3.70161e-21)
(0.0102207 0.000210014 2.01426e-21)
(0.0101494 0.000224789 -2.25598e-21)
(0.0100219 0.000171781 -1.31582e-20)
(0.00984308 4.92348e-05 4.32577e-21)
(0.00960337 -0.000138878 1.00915e-20)
(0.00928216 -0.000378249 8.68174e-23)
(0.00884916 -0.000635878 -7.55097e-21)
(0.00825563 -0.000856318 2.03851e-21)
(0.00745007 -0.00104162 -2.79815e-22)
(0.00674427 -0.00120329 -8.67286e-21)
(0.00604828 -0.00130685 7.52028e-21)
(0.00535836 -0.001289 0)
(0.00479526 -0.0011597 0)
(0.00444334 -0.000910429 1.31437e-21)
(0.0043703 -0.000606484 7.58429e-22)
(0.00454222 -0.000360826 -7.23394e-22)
(0.0047735 -0.00023617 8.96127e-24)
(0.00496239 -0.000171349 -4.38865e-22)
(0.00512263 -0.000132734 4.29068e-22)
(0.0052643 -0.000107454 1.49753e-23)
(0.00538748 -8.85471e-05 2.53262e-22)
(0.00549253 -7.28543e-05 -4.23184e-23)
(0.00558088 -5.93696e-05 -1.27216e-22)
(0.0056541 -4.77682e-05 -7.98826e-23)
(0.00571381 -3.78265e-05 -5.6232e-23)
(0.00576159 -2.92772e-05 5.64771e-23)
(0.00579885 -2.17803e-05 -1.22445e-24)
(0.00582658 -1.49304e-05 1.91936e-23)
(0.00584532 -8.26175e-06 -1.95726e-23)
(0.00585497 -1.24011e-06 3.07561e-26)
(0.00585473 6.7669e-06 2.24489e-23)
(0.00584283 1.64896e-05 -2.68368e-23)
(0.00581663 2.88548e-05 6.2262e-23)
(0.0057716 4.54885e-05 -6.89994e-23)
(0.00570126 6.78065e-05 4.93459e-23)
(0.00559681 9.77802e-05 -6.28136e-23)
(0.00544613 0.000138065 5.51744e-24)
(0.00523258 0.00019255 -2.14391e-23)
(0.00493358 0.000267914 -1.71475e-22)
(0.00451776 0.000377334 1.84217e-22)
(0.00394073 0.000549693 -4.66117e-23)
(0.00313821 0.000849241 -2.04451e-23)
(0.00202413 0.0014057 7.825e-23)
(0.000555914 0.00234514 0)
(3.77605e-05 0.00278079 -1.3374e-22)
(-0.000214559 -0.00183325 0)
(-0.000574467 -0.00210342 -1.97272e-22)
(-0.00031895 -0.00176302 9.25841e-23)
(0.000135909 -0.00142347 6.77853e-23)
(0.000631223 -0.00114932 -1.44942e-22)
(0.00111289 -0.00093642 2.40035e-22)
(0.00155839 -0.000773542 -2.37922e-22)
(0.00195874 -0.000647466 5.38031e-23)
(0.00231365 -0.000548031 5.16657e-23)
(0.00262662 -0.000468497 1.51744e-22)
(0.00290213 -0.000404234 4.99719e-23)
(0.00314472 -0.000351874 1.50493e-22)
(0.00335858 -0.000308912 -4.13283e-22)
(0.00354747 -0.000273491 9.38546e-22)
(0.00371476 -0.000244268 -3.67911e-22)
(0.00386341 -0.000220252 5.12251e-22)
(0.00399608 -0.000200709 -2.80162e-22)
(0.00411516 -0.000185115 1.82382e-22)
(0.00422285 -0.000173133 1.12681e-21)
(0.00432126 -0.000164587 -9.88359e-22)
(0.0044124 -0.00015944 7.27821e-23)
(0.00449831 -0.000157803 2.30293e-22)
(0.00458112 -0.000159963 -1.36922e-21)
(0.00466311 -0.000166422 1.45133e-21)
(0.00474686 -0.000177949 1.57961e-21)
(0.00483529 -0.000195665 -1.26658e-21)
(0.00493185 -0.000221172 -1.83854e-21)
(0.00504058 -0.000256828 1.70695e-21)
(0.00516584 -0.000306306 0)
(0.00531384 -0.000375246 0)
(0.00549222 -0.000473816 0)
(0.00565075 -0.000629515 0)
(0.00572555 -0.000856486 1.13716e-20)
(0.00570957 -0.00115244 1.55621e-20)
(0.00563462 -0.00151706 -1.6249e-20)
(0.00553075 -0.00196034 2.84891e-21)
(0.00541705 -0.00249346 -1.97532e-20)
(0.00527351 -0.0031193 4.20716e-21)
(0.0050468 -0.00378383 1.68659e-20)
(0.00479032 -0.00441872 -3.14967e-21)
(0.00457744 -0.00499466 3.65276e-20)
(0.00439886 -0.00550067 0)
(0.00424264 -0.00592412 -1.78141e-20)
(0.00411087 -0.00625351 -1.77004e-20)
(0.00399704 -0.00648389 2.23736e-21)
(0.00388777 -0.00661569 1.40709e-20)
(0.00376786 -0.00665392 -3.26053e-20)
(0.003623 -0.00660578 -1.41523e-20)
(0.00343142 -0.00648191 -2.64336e-21)
(0.00317488 -0.00630257 1.19687e-22)
(0.00284191 -0.00605452 5.22836e-21)
(0.00242955 -0.005742 -3.50379e-21)
(0.00195283 -0.00536442 -1.355e-21)
(0.00141315 -0.0049002 2.04007e-22)
(0.000871606 -0.00433225 1.11095e-20)
(0.000381502 -0.00363681 -4.0485e-21)
(4.25418e-05 -0.00282485 -3.85992e-21)
(-8.30358e-05 -0.00189434 1.81509e-21)
(0.000134727 -0.000904118 1.42891e-22)
(0.000719176 4.71198e-05 0)
(0.00162803 0.000859472 -4.6968e-22)
(0.00280995 0.00146309 4.42955e-22)
(0.0040349 0.00179975 4.63532e-22)
(0.00519649 0.00194625 8.13698e-21)
(0.00617913 0.0019248 -8.38553e-21)
(0.00696175 0.00182627 9.27827e-21)
(0.00755962 0.00169417 0)
(0.00799623 0.00156573 0)
(0.00830705 0.00145892 2.28577e-20)
(0.00852521 0.00137498 -2.33343e-20)
(0.00867718 0.00131059 0)
(0.00878222 0.00126098 1.0814e-20)
(0.0088546 0.00121988 8.20756e-22)
(0.00890541 0.00118201 -9.86102e-21)
(0.00894264 0.00114375 1.25848e-20)
(0.00897123 0.0011027 1.01859e-20)
(0.00899509 0.00105749 -2.23966e-20)
(0.00901401 0.00100717 6.62767e-22)
(0.00903031 0.000950585 5.96311e-22)
(0.00904545 0.000887348 1.7533e-20)
(0.00906129 0.000815676 -1.66207e-20)
(0.00907523 0.00073507 -2.22193e-22)
(0.00909257 0.000642812 3.13043e-23)
(0.00911476 0.000537627 1.89359e-22)
(0.00914928 0.000416898 -4.4153e-21)
(0.00920143 0.000277321 0)
(0.00928035 0.000120335 4.14263e-22)
(0.00939535 -4.2537e-05 8.31786e-25)
(0.00955197 -0.00019219 -1.69203e-22)
(0.00974042 -0.000300372 -2.45099e-21)
(0.00993881 -0.000342973 -1.96443e-22)
(0.0101297 -0.000312501 -9.76479e-21)
(0.0102902 -0.00021588 -6.06346e-21)
(0.0104084 -7.0891e-05 1.37923e-20)
(0.0104732 9.69864e-05 1.6804e-22)
(0.0104785 0.000258934 -8.96018e-21)
(0.0104363 0.000387921 -1.8813e-20)
(0.0103473 0.000462618 -1.03601e-20)
(0.0102187 0.000472093 0)
(0.0100547 0.000414272 1.08105e-20)
(0.009859 0.000293699 0)
(0.00962749 0.00011882 -1.22482e-20)
(0.00934873 -0.000102308 1.85555e-22)
(0.00900675 -0.000365314 1.12341e-20)
(0.00858469 -0.000670229 -1.25222e-20)
(0.00807012 -0.00101881 0)
(0.00745918 -0.00140927 -2.29137e-20)
(0.00675794 -0.00182955 -1.18109e-20)
(0.00598338 -0.0022525 -1.56327e-21)
(0.00515626 -0.0026339 -1.06962e-20)
(0.00429558 -0.00291545 0)
(0.00343051 -0.00305159 8.93815e-21)
(0.00262066 -0.00298448 0)
(0.00187687 -0.00271485 -5.48485e-21)
(0.0012976 -0.00224158 3.19975e-22)
(0.000936286 -0.00158281 0)
(0.000896008 -0.000797841 0)
(0.00121256 9.6237e-06 -3.8487e-22)
(0.00186406 0.000749693 0)
(0.0028206 0.00134908 2.00668e-22)
(0.00391681 0.00171381 -4.41419e-22)
(0.00500903 0.0018903 2.39045e-22)
(0.00596902 0.00191471 0)
(0.00677057 0.00184741 0)
(0.007392 0.00173543 1.15022e-20)
(0.00785231 0.00161852 -1.28218e-20)
(0.00818604 0.00151775 2.54387e-20)
(0.00842258 0.00144037 1.31874e-20)
(0.00858661 0.00138349 1.83695e-21)
(0.00869937 0.00134124 1.16563e-20)
(0.00877674 0.00130674 -1.61604e-21)
(0.00882986 0.00127315 1.33228e-20)
(0.00886738 0.00123739 2.29151e-21)
(0.00889522 0.00119772 -2.83702e-23)
(0.00891747 0.00115293 2.23314e-21)
(0.00893705 0.0011019 -2.9414e-21)
(0.00895491 0.00104291 1.06915e-20)
(0.00897326 0.000974151 2.07807e-20)
(0.00898822 0.000896526 0)
(0.00900432 0.000808849 -9.04638e-21)
(0.00902596 0.000710055 -9.34137e-21)
(0.00905216 0.000596958 1.80147e-21)
(0.00909063 0.000468475 4.52218e-21)
(0.00914349 0.000323511 2.13898e-21)
(0.00921835 0.000160307 -1.77002e-21)
(0.00932504 -1.06556e-05 -3.90065e-22)
(0.009472 -0.000172997 1.58926e-22)
(0.00965322 -0.000299234 -6.80483e-22)
(0.00985021 -0.000362007 -1.1663e-21)
(0.0100419 -0.000349849 -4.32573e-21)
(0.0102087 -0.000267099 2.18042e-21)
(0.0103328 -0.00013138 -1.20696e-21)
(0.0104002 3.12172e-05 -5.93448e-21)
(0.0104055 0.000190478 -1.35425e-20)
(0.0103589 0.00031644 -7.58865e-21)
(0.0102552 0.000384723 0)
(0.0100993 0.000381766 -8.02737e-21)
(0.00988991 0.000303811 2.40299e-20)
(0.00962229 0.000156023 1.26705e-21)
(0.00927937 -4.75927e-05 0)
(0.00884036 -0.000281005 7.86307e-21)
(0.00829079 -0.00050041 0)
(0.00761751 -0.000650384 0)
(0.00681592 -0.000760919 4.58435e-21)
(0.00610706 -0.000884525 8.59257e-21)
(0.00540995 -0.00097397 0)
(0.00474198 -0.00098673 0)
(0.00420243 -0.00091817 -2.01293e-21)
(0.00384128 -0.000776406 1.84553e-21)
(0.00369371 -0.000598017 -1.49679e-22)
(0.00374344 -0.000444523 -1.59972e-22)
(0.00388481 -0.000354646 -5.93203e-22)
(0.00403748 -0.000298094 1.4476e-23)
(0.0041893 -0.000256117 -2.32923e-23)
(0.00433516 -0.000221692 -2.98698e-23)
(0.00446945 -0.000191113 -2.51784e-22)
(0.00458944 -0.000162979 2.40041e-23)
(0.00469449 -0.000137233 2.1815e-22)
(0.00478487 -0.000114072 -5.06183e-24)
(0.00486132 -9.35162e-05 5.96838e-23)
(0.00492484 -7.53161e-05 -6.28278e-23)
(0.00497641 -5.89618e-05 2.4618e-24)
(0.0050168 -4.37312e-05 0)
(0.00504632 -2.87157e-05 8.2381e-25)
(0.00506469 -1.27965e-05 2.52872e-26)
(0.00507083 5.4209e-06 2.45107e-23)
(0.0050626 2.76862e-05 -2.14955e-23)
(0.00503648 5.63569e-05 6.22209e-23)
(0.0049869 9.42938e-05 -1.44657e-22)
(0.00490585 0.000145436 1.52298e-22)
(0.00478207 0.000214809 -5.88458e-23)
(0.00459993 0.000309024 -3.26919e-23)
(0.00433775 0.000437092 1.45534e-23)
(0.00396771 0.000612068 0)
(0.0034555 0.000854455 -7.12854e-23)
(0.00276453 0.00119809 3.14216e-23)
(0.00187298 0.00169408 0)
(0.00081745 0.00238297 -5.10165e-23)
(-0.000190824 0.00309094 1.05446e-22)
(-0.00023155 0.00266468 1.91635e-22)
(-0.000153593 -0.00137342 -1.63004e-22)
(-0.000544349 -0.00197777 0)
(-0.000554481 -0.0019364 0)
(-0.000370392 -0.00174493 -1.39197e-22)
(-6.95187e-05 -0.00152789 1.29665e-22)
(0.000277252 -0.00132515 2.39361e-22)
(0.000632862 -0.00114779 -2.37817e-22)
(0.000976318 -0.000996055 1.08366e-22)
(0.00129754 -0.000867194 0)
(0.00159261 -0.000758051 -1.03254e-22)
(0.00186079 -0.000665635 0)
(0.00210291 -0.000587296 -9.39685e-25)
(0.0023206 -0.000520765 0)
(0.00251587 -0.000464193 -1.05949e-22)
(0.0026908 -0.000416134 0)
(0.00284749 -0.000375464 0)
(0.00298799 -0.00034132 -1.1804e-22)
(0.0031143 -0.00031307 -6.2979e-22)
(0.00322835 -0.000290299 1.57095e-21)
(0.00333207 -0.000272793 -1.06218e-21)
(0.00342739 -0.000260522 0)
(0.0035163 -0.00025366 1.12418e-21)
(0.00360091 -0.000252619 -1.27382e-21)
(0.0036835 -0.0002581 -1.73684e-22)
(0.00376662 -0.000271135 0)
(0.00385314 -0.000293178 -1.69844e-21)
(0.00394632 -0.000326221 1.68257e-21)
(0.00404982 -0.000372978 0)
(0.0041674 -0.000437302 2.13017e-21)
(0.00430389 -0.000524541 -2.11406e-21)
(0.00446485 -0.000642668 2.49938e-21)
(0.00460866 -0.000812765 -4.96672e-21)
(0.00468066 -0.0010522 -8.58499e-21)
(0.00467969 -0.00136603 -3.28777e-21)
(0.00463837 -0.00175746 7.77205e-22)
(0.00458229 -0.00223401 -8.77121e-22)
(0.00451766 -0.00279837 -1.06086e-20)
(0.00443028 -0.00343486 1.45774e-22)
(0.00428131 -0.00409032 3.10712e-21)
(0.00411585 -0.00471436 -7.23942e-21)
(0.00398501 -0.00528396 3.09928e-21)
(0.00387876 -0.00578443 -4.36156e-21)
(0.00378442 -0.00620049 3.4899e-20)
(0.00370265 -0.00651997 1.36709e-20)
(0.00362501 -0.00673706 4.3012e-21)
(0.00353663 -0.00685136 0)
(0.00342155 -0.00686765 1.33542e-21)
(0.00326581 -0.00679121 3.14956e-20)
(0.00305315 -0.00663238 1.402e-20)
(0.00277193 -0.00639949 1.86854e-21)
(0.00241779 -0.00609587 2.74731e-20)
(0.00199524 -0.00572541 0)
(0.00152482 -0.00528953 -1.38953e-20)
(0.00101935 -0.00478209 1.93079e-22)
(0.000529943 -0.00420018 3.42296e-23)
(9.67452e-05 -0.00353952 4.91183e-21)
(-0.000214451 -0.0028117 2.30857e-21)
(-0.000351657 -0.00202177 -2.45787e-21)
(-0.000255574 -0.00119997 4.02856e-22)
(0.000124703 -0.000391037 -1.12395e-22)
(0.000771473 0.000352848 5.50314e-22)
(0.0016948 0.00099298 3.58369e-22)
(0.00277032 0.00145156 6.95522e-21)
(0.00391209 0.00173058 -8.39046e-21)
(0.00499223 0.0018371 1.52121e-20)
(0.00593948 0.00182941 1.07012e-21)
(0.0067239 0.00176584 -1.03217e-20)
(0.00733928 0.00166557 -1.31914e-21)
(0.00780184 0.00156342 -1.11919e-20)
(0.00813785 0.00147803 1.4075e-20)
(0.00837456 0.00141259 9.26052e-21)
(0.0085369 0.00136494 0)
(0.00864616 0.00132915 1.15392e-20)
(0.00871872 0.00129827 1.00581e-20)
(0.00876784 0.00126631 1.36924e-21)
(0.0088028 0.00122886 -2.13247e-20)
(0.00883153 0.00118255 1.19062e-20)
(0.00885714 0.00112526 -1.26363e-21)
(0.00888362 0.00105411 9.14785e-21)
(0.00891332 0.000968552 -9.0257e-21)
(0.00894879 0.000870094 8.29017e-21)
(0.00899052 0.000756306 -7.07823e-21)
(0.00904464 0.000625462 6.1802e-21)
(0.00911165 0.000476865 0)
(0.00919666 0.000312286 1.11535e-22)
(0.0093108 0.00013221 3.16466e-23)
(0.0094587 -5.31884e-05 -5.60051e-22)
(0.00963919 -0.000225522 0)
(0.00984488 -0.000361327 3.95623e-22)
(0.0100588 -0.000434996 1.29581e-21)
(0.0102563 -0.000431012 -4.40146e-22)
(0.0104199 -0.000349864 5.31844e-21)
(0.0105322 -0.000205622 5.17874e-21)
(0.010587 -2.07738e-05 -6.74337e-21)
(0.0105759 0.000175202 -3.67277e-22)
(0.0105191 0.00035326 7.94604e-21)
(0.0104096 0.000487416 9.20519e-21)
(0.0102609 0.000559278 5.85456e-22)
(0.0100806 0.000560259 9.65569e-21)
(0.00987086 0.000491937 -2.09615e-20)
(0.00962826 0.000362105 0)
(0.00934162 0.000181357 0)
(0.00899437 -4.14294e-05 0)
(0.00856963 -0.000302162 -1.13155e-20)
(0.0080553 -0.000601534 -6.82633e-22)
(0.0074488 -0.000941372 3.42307e-22)
(0.00675855 -0.00131822 1.37294e-21)
(0.00600227 -0.00171707 -9.21263e-21)
(0.00520412 -0.00210751 -1.00776e-20)
(0.00438743 -0.00244402 0)
(0.00357242 -0.0026729 0)
(0.00278315 -0.00275274 0)
(0.00206699 -0.00266405 0)
(0.00143787 -0.0024079 3.16488e-21)
(0.000956668 -0.00200012 1.52997e-21)
(0.000658286 -0.00146262 0)
(0.000603772 -0.000840973 6.96548e-24)
(0.000819543 -0.000194845 0)
(0.00130214 0.000423586 0)
(0.00205156 0.000974189 0)
(0.00299019 0.00138892 0)
(0.0040196 0.00164983 -2.66776e-22)
(0.00502265 0.00175833 8.36281e-21)
(0.00593525 0.00176625 2.87242e-22)
(0.00670226 0.00170904 -1.10515e-20)
(0.00731138 0.0016275 1.22999e-20)
(0.00777524 0.00153994 -1.26893e-20)
(0.00811396 0.0014667 0)
(0.00835205 0.00141215 1.24829e-20)
(0.00851398 0.00137235 -1.10603e-20)
(0.00862133 0.00134444 8.68148e-21)
(0.00869215 0.00132242 -1.16682e-20)
(0.00873841 0.00129888 6.78969e-22)
(0.00877 0.00126775 1.44851e-21)
(0.00879464 0.00122273 -6.88916e-22)
(0.00881788 0.00116523 -7.9136e-21)
(0.00884272 0.0010942 -3.33991e-21)
(0.00887271 0.00100903 -1.01284e-20)
(0.00890873 0.000905939 -2.17747e-21)
(0.00895378 0.000783626 1.01379e-20)
(0.0090102 0.0006451 1.46489e-20)
(0.00907683 0.000488343 7.52358e-21)
(0.009166 0.000316935 -1.43205e-21)
(0.00928016 0.000132471 -1.07449e-21)
(0.00942474 -5.64491e-05 5.90627e-22)
(0.00959952 -0.000232652 -1.92448e-22)
(0.00979836 -0.000373728 -2.46676e-23)
(0.0100072 -0.00045399 1.13061e-21)
(0.010203 -0.00045596 0)
(0.0103651 -0.000378285 4.27164e-21)
(0.0104775 -0.000234504 3.19589e-21)
(0.0105259 -4.96159e-05 0)
(0.0105091 0.000145523 4.41097e-21)
(0.0104381 0.000320148 8.19671e-21)
(0.0103081 0.000446436 -4.99083e-21)
(0.0101272 0.000505805 5.36126e-21)
(0.00989861 0.000489699 1.0088e-20)
(0.00961878 0.000402306 -1.03302e-20)
(0.00927588 0.000258583 -8.41635e-21)
(0.00885151 8.11467e-05 9.11196e-21)
(0.00833434 -0.000100286 -1.00162e-20)
(0.00772719 -0.000247549 6.39905e-21)
(0.00703414 -0.00032624 1.50571e-21)
(0.00627291 -0.000383665 -7.95478e-21)
(0.0056061 -0.000480671 0)
(0.00496571 -0.000570863 4.46161e-21)
(0.00437343 -0.000620812 1.0015e-21)
(0.00390165 -0.000628511 1.90248e-21)
(0.00357515 -0.00059597 -1.64748e-21)
(0.00340804 -0.000538425 6.45998e-22)
(0.00338894 -0.000479589 -6.48833e-22)
(0.00345552 -0.000436694 0)
(0.00355208 -0.000399799 -2.60747e-23)
(0.00366246 -0.000363637 -3.17681e-22)
(0.00377722 -0.000327099 3.60223e-22)
(0.00388896 -0.000290113 2.48242e-22)
(0.00399339 -0.00025343 -2.19164e-22)
(0.00408835 -0.00021818 8.89766e-23)
(0.00417274 -0.000185267 -8.8758e-23)
(0.00424614 -0.000155114 0)
(0.00430857 -0.000127641 5.3412e-23)
(0.00436022 -0.000102311 -4.66456e-23)
(0.00440124 -7.82038e-05 2.42727e-23)
(0.00443154 -5.40472e-05 -2.08132e-23)
(0.00445058 -2.81768e-05 -2.56624e-26)
(0.00445712 1.57551e-06 -1.59003e-24)
(0.00444894 3.80498e-05 0)
(0.00442225 8.50221e-05 0)
(0.00437142 0.00014738 -8.34987e-24)
(0.00428814 0.000231683 0)
(0.00416055 0.000346508 0)
(0.00397226 0.000503054 4.19012e-23)
(0.00370124 0.000715648 0)
(0.00332028 0.00100226 0)
(0.00279968 0.00138453 1.92948e-22)
(0.00211766 0.0018837 -1.02841e-22)
(0.00128784 0.00250045 0)
(0.000408107 0.00314447 0)
(-0.000253484 0.00343256 -1.73303e-23)
(-0.000178266 0.00231448 -1.15292e-22)
(-0.000100659 -0.00107031 5.96674e-23)
(-0.000424856 -0.00178298 -1.83856e-22)
(-0.000553494 -0.00193872 -1.38784e-22)
(-0.000529992 -0.00188365 2.77313e-22)
(-0.000394441 -0.00175287 -4.93804e-22)
(-0.000187754 -0.00159395 2.44626e-22)
(5.33132e-05 -0.00143217 0)
(0.000306073 -0.00127927 -1.09632e-22)
(0.000556654 -0.00113998 0)
(0.000797065 -0.00101559 -5.13766e-22)
(0.00102307 -0.000905728 4.09742e-22)
(0.00123269 -0.000809317 -1.03275e-22)
(0.00142534 -0.000725011 -4.20393e-22)
(0.00160131 -0.000651483 3.13625e-22)
(0.00176136 -0.000587576 -1.07446e-22)
(0.00190657 -0.000532329 0)
(0.00203819 -0.000484976 -1.15708e-22)