/*--------------------------------*- C++ -*----------------------------------*\
| =========                 |                                                 |
| \\      /  F ield         | OpenFOAM: The Open Source CFD Toolbox           |
|  \\    /   O peration     | Version:  2506                                  |
|   \\  /    A nd           | Website:  www.openfoam.com                      |
|    \\/     M anipulation  |                                                 |
\*---------------------------------------------------------------------------*/
FoamFile
{
    version     2.0;
    format      ascii;
    arch        "LSB;label=32;scalar=64";
    class       volVectorField;
    location    "1";
    object      vorticityField;
}
// * * * * * * * * * * * * * * * * * * * * * * * * * * * * * * * * * * * * * //

dimensions      [0 0 -1 0 0 0 0];

internalField   nonuniform List<vector> 
4000
(
(3.96367e-19 8.53791e-20 31.6329)
(7.7359e-20 7.2295e-20 34.3166)
(1.33754e-19 4.12089e-19 29.9019)
(5.19184e-19 6.3001e-19 25.8973)
(-7.25648e-19 7.57795e-19 23.3114)
(4.21252e-20 8.8475e-21 21.4455)
(4.7377e-19 7.93718e-19 19.968)
(-8.07884e-20 9.12563e-19 18.7778)
(-9.78687e-20 3.74118e-20 17.8033)
(-5.89514e-20 -6.08953e-19 16.9896)
(5.18011e-19 2.11808e-17 16.2994)
(-2.17385e-18 -3.81009e-17 15.7067)
(1.42762e-18 1.75713e-17 15.1917)
(-1.45918e-18 -1.93897e-17 14.7393)
(2.20557e-18 1.85723e-17 14.3377)
(-1.70447e-18 9.16725e-19 13.9773)
(1.42318e-18 2.01407e-17 13.6499)
(-1.8502e-18 -1.86451e-17 13.349)
(-1.06014e-18 3.27914e-19 13.0684)
(1.76907e-18 5.55074e-20 12.8028)
(-1.35386e-19 5.78621e-20 12.5471)
(-2.42882e-18 -9.9788e-19 12.296)
(2.27338e-18 -1.10279e-18 12.0443)
(2.45278e-18 2.05331e-20 11.7861)
(-2.59449e-18 -9.9557e-19 11.5146)
(-1.67933e-19 -1.14195e-18 11.2215)
(-3.2305e-18 -9.19318e-20 10.8965)
(4.12485e-19 -3.40632e-18 10.5257)
(1.02649e-17 4.32501e-17 10.0893)
(-3.65298e-18 -3.72599e-17 9.53237)
(-4.93818e-18 5.3618e-18 8.7849)
(-1.22062e-17 -1.04288e-16 8.15418)
(5.34876e-18 1.05782e-16 8.00484)
(-2.31572e-17 -3.90149e-17 8.38311)
(4.03365e-18 -2.15674e-16 9.20102)
(1.26583e-16 7.83956e-16 10.3826)
(1.37015e-17 7.60155e-17 11.7518)
(-4.24012e-17 -1.29765e-16 14.1464)
(-9.01725e-19 -4.54199e-17 17.9266)
(3.32467e-18 4.61749e-17 22.0463)
(-4.88875e-17 -1.74473e-16 26.0629)
(1.63877e-16 5.20132e-16 29.7821)
(-2.55716e-18 1.39015e-17 33.1405)
(2.58187e-16 3.34222e-16 36.0866)
(-1.24763e-16 -8.37777e-17 38.5598)
(4.19024e-18 3.02479e-16 40.5325)
(2.86135e-17 1.32782e-16 41.934)
(-4.54146e-17 -3.41303e-16 42.8579)
(-2.2674e-16 -2.48953e-16 43.4126)
(-1.38656e-16 -1.80276e-16 43.728)
(-3.44876e-17 -6.7103e-17 43.9365)
(4.07663e-18 7.34715e-18 43.9346)
(2.06703e-17 -2.37458e-17 44.1405)
(2.80541e-17 3.31755e-16 44.2772)
(-6.23791e-17 2.94222e-16 44.232)
(-1.65115e-17 -2.83919e-16 43.5246)
(-3.51804e-17 -7.37455e-17 42.1311)
(7.37876e-18 1.33122e-17 39.5263)
(-5.47657e-19 1.22043e-18 35.4718)
(2.42843e-18 -2.86637e-17 30.6453)
(9.76141e-18 -5.59514e-17 25.79)
(1.49152e-17 1.46325e-16 21.1829)
(-3.74617e-17 3.47263e-16 17.2024)
(3.65105e-17 -2.99805e-16 14.0405)
(5.95555e-19 1.72799e-17 11.5289)
(-3.22345e-18 2.82057e-18 9.68425)
(4.43135e-19 -3.98317e-18 8.29726)
(1.10147e-17 -1.08791e-16 7.25732)
(1.83692e-17 -7.09098e-16 6.49269)
(4.8011e-17 -3.76761e-16 5.9112)
(-1.56812e-18 5.90378e-17 5.45041)
(-5.18073e-17 3.56288e-16 5.06339)
(6.16398e-19 -3.48579e-16 4.72633)
(-1.16592e-17 6.61041e-17 4.41988)
(-3.60403e-17 3.23977e-16 4.13173)
(2.21278e-17 -3.72444e-16 3.85505)
(4.41114e-17 -3.67452e-16 3.58677)
(9.77888e-18 -2.61403e-16 3.3261)
(-1.97159e-18 2.64515e-17 3.08147)
(-1.72626e-17 1.66655e-17 2.84472)
(1.47076e-17 1.14868e-17 2.61652)
(-1.25024e-17 2.49799e-16 2.40237)
(4.41968e-19 -2.65427e-17 2.21635)
(8.80113e-18 -2.09456e-16 2.04515)
(4.57614e-19 2.10199e-16 1.90417)
(-5.71115e-20 -7.58086e-18 1.78964)
(9.88216e-20 -8.38778e-20 1.70758)
(-4.10648e-20 9.07016e-18 1.6385)
(2.44617e-19 3.76706e-17 1.58692)
(1.63826e-18 -7.94395e-17 1.54128)
(-2.05793e-19 -2.05884e-18 1.47626)
(4.50447e-18 -5.82985e-18 1.35812)
(9.33919e-18 -7.5406e-18 1.1362)
(-1.21042e-17 -2.99565e-17 0.756488)
(3.05812e-17 2.63271e-16 0.257214)
(-1.05109e-18 2.72754e-16 -0.306538)
(3.44714e-17 3.33547e-16 -0.859303)
(2.03163e-17 3.71233e-17 -1.26019)
(-7.33981e-18 2.75262e-16 -1.42747)
(-5.9504e-18 3.60316e-16 -1.26967)
(-5.29335e-19 -8.56411e-18 -0.742461)
(5.09154e-17 3.32143e-16 0.156522)
(3.29489e-17 7.46601e-16 1.42726)
(2.90786e-18 5.61711e-17 3.06762)
(4.42291e-17 3.51361e-16 5.11139)
(2.00491e-18 6.88366e-17 7.60693)
(-1.28463e-17 -2.55053e-16 10.6115)
(-2.0879e-17 -2.79074e-16 14.1455)
(1.92846e-17 -2.71751e-17 18.1077)
(2.44175e-17 4.33453e-17 22.3326)
(-8.49088e-17 -2.42634e-16 26.7209)
(6.10752e-17 1.48738e-16 30.565)
(7.35843e-19 -7.6131e-18 34.1052)
(9.10228e-17 4.5627e-16 36.3873)
(7.73119e-18 1.68486e-16 37.3916)
(2.58513e-17 2.16644e-16 36.8874)
(1.27727e-19 7.1414e-18 34.5247)
(-6.36455e-20 7.27837e-17 30.8003)
(1.34576e-18 -7.80372e-18 26.5186)
(-1.18996e-19 1.45455e-19 22.0731)
(-1.91451e-18 -9.2594e-18 18.1206)
(3.52079e-17 -2.36165e-16 14.8149)
(-2.62048e-17 3.85325e-16 12.2181)
(-3.2116e-21 1.9904e-17 10.2317)
(-2.73758e-17 2.29582e-16 8.7207)
(4.841e-17 -6.65119e-16 7.62601)
(-5.13756e-17 4.09449e-16 6.81246)
(-6.8851e-18 -3.41381e-16 6.18818)
(-3.56934e-17 9.06679e-17 5.70217)
(1.83468e-17 -3.01108e-16 5.31069)
(1.1015e-18 6.31276e-17 4.97651)
(-5.05402e-17 3.8431e-16 4.67496)
(3.83733e-17 -1.16168e-16 4.39039)
(-3.22682e-17 3.92536e-16 4.11563)
(-1.94764e-17 -1.45647e-17 3.84971)
(-2.66178e-18 -2.52371e-17 3.59039)
(2.17713e-17 -2.78395e-16 3.33662)
(-2.47353e-17 2.95157e-16 3.08529)
(1.61423e-18 -2.51766e-17 2.84513)
(1.27578e-17 7.45817e-18 2.62304)
(-1.03341e-17 2.33956e-16 2.40358)
(2.51595e-18 -5.53798e-17 2.2084)
(-2.08745e-17 2.53928e-16 2.03683)
(1.58487e-18 -1.88087e-17 1.89442)
(7.50356e-19 -1.37875e-16 1.79266)
(2.10501e-18 -8.28866e-17 1.71833)
(4.95914e-19 6.65993e-17 1.68609)
(-6.59618e-19 -4.58685e-17 1.68936)
(1.75192e-18 -1.44993e-18 1.68492)
(2.89406e-18 5.18882e-17 1.64622)
(2.3726e-18 2.23047e-17 1.52014)
(-1.81955e-17 -3.80764e-16 1.24887)
(2.17732e-18 4.51874e-17 0.835085)
(2.7254e-17 1.33698e-17 0.332972)
(1.79609e-17 2.33687e-16 -0.195013)
(9.57228e-18 1.01899e-16 -0.615533)
(-3.77481e-18 1.4042e-18 -0.811316)
(-2.63002e-17 -2.88755e-17 -0.651043)
(1.63809e-17 7.17995e-17 -0.0490033)
(-2.75391e-17 -7.47251e-16 1.0767)
(-3.76236e-18 2.03812e-18 2.83109)
(2.44534e-17 3.44516e-16 5.29634)
(2.18541e-17 3.6754e-16 8.85487)
(6.8787e-18 4.10495e-17 11.578)
(-3.40481e-17 -3.01353e-16 14.7424)
(-4.34016e-17 -4.66261e-16 17.7034)
(-6.16764e-18 -2.77941e-17 20.251)
(-8.70055e-18 -4.10523e-17 22.0204)
(-1.16734e-17 -1.61264e-16 22.5216)
(-4.51232e-18 -4.67312e-17 21.5101)
(-1.91145e-18 -1.67407e-18 19.5929)
(-1.07882e-20 -5.76023e-19 18.0442)
(-9.59255e-19 -6.83066e-21 17.0784)
(9.16661e-19 -5.91006e-19 16.4036)
(7.51328e-20 -2.42579e-19 15.8492)
(-1.97138e-20 -4.71389e-17 15.3818)
(3.38692e-19 4.61046e-17 14.9887)
(-3.2309e-20 2.36592e-17 14.6587)
(-3.39125e-19 -2.36592e-17 14.3831)
(-1.60977e-20 2.2531e-17 14.1548)
(-6.89603e-20 -4.67796e-17 13.9673)
(5.60657e-20 2.2243e-17 13.8153)
(4.77286e-20 6.50905e-20 13.6948)
(-4.21796e-20 -6.29608e-19 13.6036)
(-3.46482e-21 5.91076e-19 13.5418)
(1.10305e-19 -2.33216e-17 13.511)
(-1.16047e-19 2.1978e-17 13.5164)
(2.7016e-19 -2.24126e-17 13.5673)
(-2.72119e-19 2.17822e-17 13.6763)
(2.36279e-19 -1.16552e-17 13.8612)
(-2.37142e-19 1.04918e-17 14.1487)
(2.36098e-20 -6.74992e-19 14.5743)
(-2.06603e-20 -5.60108e-19 15.1869)
(-3.49657e-19 -8.17514e-21 16.0554)
(4.14165e-19 -5.39215e-19 17.2837)
(-4.56907e-20 -7.7684e-19 19.044)
(5.29691e-19 -4.27787e-18 21.6857)
(-4.45851e-19 4.85058e-18 26.0418)
(-4.37017e-21 -4.18168e-19 32.3329)
(1.12548e-20 -5.05445e-20 30.6138)
(-8.84852e-20 -2.53752e-19 -1.4063)
(-4.22879e-20 -7.30372e-20 9.36453)
(-3.74729e-20 -7.1773e-19 11.4907)
(9.02686e-19 1.67465e-18 11.5597)
(-1.73258e-18 -5.1994e-18 11.1114)
(6.92745e-19 -1.75323e-18 10.5178)
(3.55013e-20 3.4123e-18 9.9203)
(-1.45746e-19 -1.38742e-18 9.36428)
(-3.29703e-20 -1.09899e-18 8.85859)
(1.73848e-19 -1.10182e-18 8.40291)
(-7.3765e-19 -1.5115e-18 7.9947)
(1.17657e-18 -1.45291e-17 7.63033)
(-1.00802e-18 1.32926e-17 7.30572)
(2.21174e-18 -1.36905e-17 7.01672)
(-9.73199e-19 2.58194e-17 6.75935)
(3.21264e-19 -2.86206e-17 6.53001)
(-1.05372e-18 1.12892e-17 6.32534)
(6.8898e-19 -1.36486e-17 6.14229)
(2.0463e-18 -1.94533e-17 5.97798)
(-1.36007e-18 2.53801e-17 5.82972)
(-3.38725e-19 2.30709e-18 5.69493)
(3.41821e-19 -3.17417e-17 5.57104)
(-1.45331e-18 2.51581e-17 5.45537)
(2.40869e-18 3.2324e-17 5.34506)
(2.14886e-18 -2.56626e-17 5.23694)
(-2.31394e-18 1.16098e-19 5.12742)
(-3.88392e-18 -3.02993e-17 5.01219)
(4.412e-18 -9.0724e-18 4.8859)
(-1.69549e-18 6.12893e-17 4.74169)
(2.18657e-18 1.30984e-17 4.57004)
(-2.06686e-18 -2.65398e-17 4.34315)
(4.60974e-18 -2.10434e-17 4.03332)
(-8.43143e-18 -7.34523e-17 3.77232)
(1.78878e-18 -1.95077e-16 3.6293)
(-3.82939e-17 -1.66757e-16 3.58771)
(-1.06353e-16 -2.6799e-16 3.61372)
(6.68097e-18 -6.6258e-17 3.72559)
(6.34131e-17 1.75497e-16 4.06633)
(-5.23833e-18 4.23327e-17 4.5803)
(-1.09798e-16 -9.22021e-17 5.16032)
(-6.61613e-17 -5.63833e-17 5.87833)
(-1.91444e-16 -3.0334e-16 6.663)
(-3.91333e-17 7.8482e-18 7.44458)
(-3.95611e-16 -5.15266e-16 8.19914)
(2.00479e-16 1.71256e-16 8.90924)
(-2.47698e-16 -1.74413e-16 9.55195)
(1.8025e-16 4.16253e-17 10.1023)
(5.07047e-18 5.34477e-17 10.5745)
(3.12534e-19 4.22848e-17 10.983)
(1.94667e-16 2.37235e-16 11.3721)
(-2.13941e-16 -8.15072e-17 11.6922)
(2.28978e-17 -5.77291e-17 11.9989)
(1.91481e-16 1.01034e-16 12.3326)
(-7.04425e-17 -3.6574e-17 12.768)
(1.47835e-16 1.13242e-16 13.421)
(9.85139e-18 2.12576e-17 14.2449)
(4.03067e-17 4.88723e-17 15.1732)
(-1.59773e-17 -1.694e-17 16.2426)
(-4.93294e-19 -4.64994e-18 17.0373)
(-4.45531e-18 1.49929e-17 17.1804)
(-1.69217e-17 8.65098e-17 16.4509)
(-2.76037e-17 2.01523e-16 15.0464)
(-4.50447e-17 1.91987e-16 13.0464)
(-3.53261e-17 2.62442e-16 11.1655)
(-1.19772e-17 -3.98561e-17 9.3881)
(1.60691e-17 2.04135e-17 7.92187)
(4.02393e-19 -3.32624e-18 6.75709)
(-1.03235e-17 7.11273e-17 5.85345)
(-6.42542e-17 6.35275e-16 5.18982)
(-2.91342e-17 -3.15363e-16 4.70337)
(-2.01789e-18 3.38399e-17 4.34338)
(-3.18184e-18 3.93344e-16 4.06065)
(-5.18752e-17 3.01285e-16 3.82318)
(-4.14152e-17 3.63449e-16 3.60699)
(3.38048e-17 -1.0625e-16 3.39628)
(3.76151e-18 -5.05878e-17 3.18225)
(-3.3718e-17 -2.28354e-16 2.96347)
(-3.16118e-17 3.40959e-16 2.72942)
(1.57497e-19 1.14709e-17 2.49189)
(1.09426e-17 2.11728e-16 2.24857)
(-9.86019e-18 -2.48074e-16 2.00109)
(1.18538e-17 1.03403e-17 1.7333)
(5.3302e-20 -3.54906e-20 1.47269)
(-8.54067e-18 -3.84473e-18 1.18826)
(7.65286e-18 -1.96598e-16 0.896279)
(-3.37354e-19 1.38722e-17 0.570575)
(8.14792e-19 -1.11641e-17 0.236542)
(-2.07256e-19 1.17936e-17 -0.0932551)
(-7.52835e-19 -1.62702e-17 -0.385351)
(1.6015e-18 1.97225e-16 -0.588589)
(-9.97682e-19 -7.45208e-18 -0.695102)
(-1.34396e-17 -2.26512e-18 -0.746608)
(-4.91292e-18 2.41849e-16 -0.762707)
(2.08525e-17 -2.53929e-16 -0.749266)
(-1.60078e-17 2.74145e-16 -0.760974)
(-3.08973e-17 -3.0628e-16 -0.794107)
(-5.93376e-17 1.88911e-16 -0.869307)
(-3.27315e-17 3.46001e-16 -0.953182)
(-1.47039e-17 -2.84723e-16 -1.03063)
(3.48961e-18 -3.49755e-16 -1.04589)
(6.44296e-19 -6.09728e-17 -0.978623)
(-5.37271e-17 3.05213e-16 -0.7986)
(-5.93137e-17 -3.65413e-16 -0.486628)
(2.22536e-17 3.57032e-18 -0.020746)
(-5.08052e-17 -8.29513e-17 0.614602)
(-2.2169e-18 -6.86891e-17 1.42306)
(6.69096e-17 5.09668e-16 2.39795)
(1.24166e-16 6.09772e-16 3.52276)
(8.11112e-17 2.70293e-16 4.77805)
(6.2072e-17 1.66501e-16 6.18251)
(1.14874e-16 3.06959e-16 7.63015)
(-1.9681e-16 -3.10392e-16 8.96314)
(4.41892e-18 -1.72791e-17 10.1053)
(-1.31006e-16 -1.62732e-16 11.3471)
(1.73272e-18 -4.64038e-18 12.7015)
(-2.98399e-17 -5.34629e-17 13.8999)
(-2.35638e-18 -7.81338e-18 14.9057)
(6.59063e-19 -1.43081e-17 15.4755)
(6.99311e-19 -2.68438e-18 15.3229)
(-7.61816e-19 3.98601e-18 14.4263)
(2.61635e-19 2.0111e-17 12.7923)
(-5.80512e-17 2.65146e-16 10.9785)
(2.30527e-17 -3.44166e-17 9.32228)
(4.973e-18 -5.49116e-17 7.90164)
(7.84106e-17 -3.01354e-16 6.71249)
(-1.04561e-16 4.49841e-16 5.80325)
(3.70157e-17 2.48545e-16 5.14039)
(-6.42428e-17 6.63283e-16 4.66221)
(-6.00335e-17 5.89255e-16 4.31392)
(-2.10609e-17 2.21162e-16 4.05199)
(-6.74253e-18 4.35304e-17 3.83793)
(9.73406e-18 1.71722e-16 3.64256)
(4.91786e-17 -6.16801e-16 3.45041)
(2.72731e-17 1.26498e-16 3.2494)
(-1.9695e-17 1.92568e-16 3.03767)
(-7.26087e-18 -1.50603e-17 2.81435)
(-9.95244e-19 -1.61496e-19 2.57687)
(4.18113e-17 -6.44761e-17 2.3284)
(2.36925e-18 -7.08097e-17 2.06389)
(-1.86401e-18 -1.51877e-16 1.79863)
(2.37001e-18 -3.86739e-17 1.53014)
(9.63555e-19 8.258e-18 1.23754)
(1.07029e-17 7.47459e-17 0.947462)
(6.42805e-18 -9.07057e-17 0.634534)
(-8.97863e-18 1.37013e-16 0.322233)
(-2.72853e-18 -4.63048e-18 0.00762961)
(9.95607e-19 4.35986e-17 -0.296814)
(-1.64164e-18 -4.71992e-17 -0.529279)
(1.17184e-18 9.72041e-17 -0.663021)
(-8.88769e-18 -2.34678e-18 -0.722265)
(3.28349e-18 2.05119e-18 -0.749632)
(1.32595e-17 9.78903e-18 -0.76138)
(-1.69293e-17 -4.98012e-17 -0.769634)
(-2.81669e-17 6.05931e-16 -0.814113)
(-2.69214e-17 1.63059e-16 -0.895767)
(-3.82525e-18 9.03697e-17 -0.975659)
(-9.47381e-18 -5.42952e-17 -1.03772)
(5.88199e-17 -4.65435e-16 -1.02502)
(-8.35504e-18 1.01242e-16 -0.892578)
(4.71659e-17 4.08714e-16 -0.591121)
(1.64214e-17 6.87971e-17 -0.0656631)
(-3.78512e-17 -2.91044e-16 0.712896)
(-1.19806e-17 3.53632e-17 1.4627)
(1.67513e-17 2.71704e-17 1.81745)
(-3.88178e-18 -2.41894e-16 2.64849)
(6.06945e-17 1.92677e-16 3.64945)
(3.81806e-18 1.59844e-17 4.70863)
(-1.46769e-18 -2.65886e-18 5.76335)
(1.58119e-17 4.45718e-17 6.7175)
(5.62595e-18 3.19901e-17 7.40435)
(-2.96852e-18 -2.49128e-17 7.6874)
(-1.36527e-18 8.65539e-20 7.6219)
(-1.07814e-18 -3.28588e-17 7.41834)
(7.72674e-19 3.09865e-17 7.19421)
(3.41481e-20 1.83602e-18 6.97374)
(4.46859e-19 3.41045e-17 6.76371)
(-4.18066e-19 6.17681e-19 6.56681)
(5.55772e-20 -1.75424e-17 6.38495)
(-5.61529e-21 -1.55639e-17 6.21973)
(-1.06169e-19 -1.69724e-17 6.07205)
(1.40626e-19 1.68467e-17 5.94203)
(-7.41292e-20 -3.14709e-19 5.8293)
(3.79608e-20 1.7526e-17 5.7334)
(-3.18899e-20 -1.7788e-17 5.65413)
(-6.57816e-21 -7.03137e-19 5.59197)
(4.34477e-20 -1.56723e-17 5.54831)
(-4.77872e-20 1.88692e-17 5.52606)
(1.31439e-19 -1.70136e-17 5.53037)
(-3.14331e-19 1.86558e-17 5.56911)
(3.00429e-19 -6.70431e-18 5.65334)
(-1.45513e-19 8.92312e-18 5.79928)
(-4.7565e-20 -3.97502e-19 6.03061)
(-3.74401e-20 1.74244e-18 6.38309)
(-4.78674e-19 6.4821e-18 6.90749)
(3.81823e-19 -7.22596e-18 7.6773)
(-1.38894e-19 1.43196e-18 8.79217)
(-4.25182e-19 2.0715e-19 10.3313)
(7.00551e-19 -6.24881e-19 11.9804)
(2.14438e-19 3.6433e-19 10.9746)
(-3.78837e-19 -1.05739e-19 -2.12598)
(-2.71979e-19 3.36522e-19 -6.52322)
(-1.47298e-18 1.07098e-19 1.12063)
(7.77395e-19 -6.12572e-19 3.81848)
(-1.49465e-19 3.70456e-19 4.87732)
(2.15977e-19 -5.53464e-19 5.29971)
(1.60018e-18 2.01704e-18 5.4332)
(-2.04124e-18 -1.53086e-18 5.42183)
(5.40867e-19 4.53079e-19 5.33424)
(2.39973e-19 8.87608e-19 5.20566)
(4.27247e-19 2.58288e-18 5.05708)
(2.3606e-19 1.22989e-18 4.90175)
(1.1811e-18 3.86593e-18 4.748)
(-1.46212e-18 -1.06201e-17 4.60076)
(2.28983e-18 2.08472e-17 4.46265)
(-2.15036e-18 -7.48022e-18 4.33499)
(2.3896e-18 1.17316e-17 4.21835)
(-1.3113e-18 -5.97266e-18 4.11273)
(3.05702e-19 1.47672e-18 4.0177)
(4.77165e-18 2.58954e-17 3.93253)
(-4.73222e-18 -1.88131e-17 3.85635)
(3.94961e-19 -4.88692e-19 3.78816)
(4.26198e-18 6.72677e-18 3.72675)
(-5.20163e-18 -2.58126e-17 3.67072)
(-1.26685e-18 2.01138e-17 3.61843)
(2.84453e-18 2.8999e-17 3.56806)
(-4.45044e-18 -1.39202e-17 3.51756)
(5.73097e-18 -3.01181e-17 3.46449)
(1.66386e-18 2.00615e-17 3.40586)
(-3.98014e-18 2.91611e-18 3.33766)
(-4.17224e-18 -5.13481e-20 3.25538)
(8.38226e-18 2.03461e-19 3.1507)
(-4.64667e-19 -1.97507e-17 3.00819)
(2.16e-17 8.64389e-17 2.85321)
(4.77435e-17 1.99838e-16 2.68661)
(-1.95621e-17 -1.03693e-16 2.48678)
(4.31084e-17 2.78741e-17 2.24701)
(-8.64374e-17 -1.84149e-16 2.00497)
(1.15775e-17 -5.70062e-17 1.86715)
(1.18764e-16 1.50643e-16 1.83187)
(-2.30164e-17 -4.16373e-17 1.86083)
(3.24037e-16 3.03764e-16 2.00286)
(9.45022e-18 1.48002e-16 2.23561)
(-1.29452e-16 -1.79188e-17 2.52681)
(-9.55208e-17 -5.79864e-17 2.86317)
(6.81455e-18 -8.75169e-17 3.23033)
(1.84358e-16 2.29141e-16 3.60934)
(-4.59378e-16 -2.21785e-16 3.98938)
(-1.25806e-16 -1.01671e-16 4.35637)
(-3.68066e-17 -1.50683e-17 4.66402)
(-3.11202e-17 -4.81889e-17 4.94895)
(1.41351e-16 1.41266e-16 5.20068)
(-5.42953e-17 -1.03605e-17 5.38971)
(-6.05976e-17 -7.78071e-17 5.55138)
(1.31997e-17 -1.57613e-17 5.67084)
(1.18218e-16 1.56368e-17 5.85679)
(-4.63205e-17 2.8118e-17 6.15196)
(-5.60339e-17 -1.0386e-17 6.56226)
(2.33485e-17 -8.65603e-18 7.11935)
(2.28139e-18 4.64148e-18 7.82571)
(2.72164e-19 1.04256e-18 8.45322)
(1.94449e-18 5.87325e-18 8.87604)
(2.15475e-17 -1.86309e-17 8.89153)
(3.5584e-17 -7.39317e-17 8.39574)
(7.41896e-17 -1.62703e-16 7.59349)
(-3.24978e-17 1.70783e-16 6.51058)
(7.54964e-17 -2.61097e-16 5.4646)
(-2.77146e-17 4.55413e-17 4.55676)
(3.21893e-18 -5.91837e-17 3.8003)
(1.26451e-16 -5.85717e-16 3.21636)
(-9.62293e-17 6.88463e-16 2.79109)
(2.44456e-17 -1.11435e-16 2.49972)
(6.4921e-17 -3.21144e-16 2.30007)
(3.325e-17 -3.24385e-18 2.15377)
(1.3545e-17 1.78679e-16 2.03465)
(3.80044e-17 -3.79159e-16 1.92157)
(-1.13005e-17 -1.32472e-16 1.80056)
(-6.65871e-17 6.10951e-16 1.66126)
(2.24286e-17 -9.41681e-17 1.48955)
(2.0577e-17 -7.40743e-17 1.29277)
(4.36749e-17 -4.38181e-16 1.0713)
(-4.10882e-17 5.11854e-16 0.831705)
(-1.20561e-17 -2.09962e-17 0.560818)
(1.06063e-17 -7.69812e-18 0.279205)
(2.61467e-19 2.40735e-18 -0.0192852)
(-1.52016e-17 1.94875e-16 -0.317334)
(4.15182e-19 -8.96108e-18 -0.619194)
(-8.56086e-19 -4.41521e-17 -0.883312)
(7.33019e-20 3.3116e-19 -1.06935)
(-3.09114e-19 -2.98917e-17 -1.14863)
(-8.40132e-18 -1.90949e-16 -1.09963)
(-1.21971e-18 1.20998e-18 -0.952719)
(-5.1693e-18 -4.22761e-16 -0.738767)
(-4.85417e-18 -2.80934e-16 -0.512447)
(5.54402e-18 4.93846e-16 -0.304421)
(-1.96567e-17 5.77997e-17 -0.142471)
(3.73942e-17 -2.30222e-16 -0.0808116)
(2.09644e-17 -5.85404e-16 -0.0991444)
(-5.93102e-18 -3.67551e-16 -0.188437)
(4.03906e-17 -1.07157e-17 -0.290333)
(-3.15313e-17 2.98244e-16 -0.39495)
(-2.27169e-19 5.84579e-17 -0.45712)
(-2.15499e-17 -3.53244e-16 -0.444047)
(2.63885e-17 -2.6061e-17 -0.339367)
(-1.21072e-17 3.09251e-16 -0.144385)
(-2.16422e-17 -2.81308e-16 0.126723)
(1.81532e-18 2.63705e-17 0.454638)
(-1.51209e-16 -5.63463e-16 0.824464)
(-1.45552e-16 -3.89316e-16 1.23366)
(-5.0059e-17 -7.87555e-17 1.69566)
(-1.15531e-16 -2.24337e-16 2.2316)
(-3.03426e-17 -6.62391e-17 2.82542)
(1.51289e-16 1.67282e-16 3.50662)
(7.53207e-19 2.92873e-17 4.12282)
(-5.82297e-17 -4.34336e-17 4.6252)
(6.25682e-18 -6.7689e-18 5.25245)
(5.24098e-18 1.52546e-18 5.87463)
(4.14192e-19 6.72292e-19 6.51423)
(-1.63365e-18 1.3975e-17 7.09479)
(-4.67402e-19 -9.18432e-19 7.57202)
(1.90851e-18 -2.58708e-18 7.73931)
(-3.32938e-18 7.69396e-18 7.41817)
(2.60821e-17 -2.11178e-17 6.81361)
(2.07425e-17 -1.44986e-17 5.91754)
(-3.00908e-18 -2.37379e-17 4.97833)
(1.17713e-17 -1.84518e-16 4.09446)
(-8.21227e-18 2.10923e-16 3.37209)
(9.92107e-17 -6.53132e-16 2.82464)
(1.03365e-16 -3.07511e-16 2.43825)
(7.79043e-17 -1.15342e-16 2.17389)
(4.68608e-17 -2.70137e-16 1.99399)
(1.46638e-17 1.02465e-17 1.86755)
(3.70778e-17 -3.07362e-16 1.76921)
(-2.93939e-17 2.21955e-17 1.68333)
(8.46609e-18 -9.25983e-18 1.58823)
(1.31069e-17 -4.98115e-17 1.46623)
(-2.4197e-17 5.97022e-17 1.31649)
(1.80758e-17 -2.93046e-16 1.1357)
(3.18364e-17 -4.4051e-16 0.932564)
(-6.12916e-19 6.82295e-17 0.695704)
(-8.25447e-18 2.34304e-16 0.440795)
(-7.84272e-19 2.22719e-16 0.176383)
(1.29833e-17 -8.19286e-17 -0.104207)
(8.40861e-18 -1.42786e-16 -0.383542)
(-9.95359e-19 -7.61624e-17 -0.665191)
(4.54072e-18 9.05755e-17 -0.917568)
(-1.31026e-18 1.76973e-17 -1.09941)
(-3.26169e-19 1.97861e-19 -1.18688)
(-2.53172e-18 -1.38307e-16 -1.15143)
(-4.44703e-18 -9.20901e-17 -1.01575)
(-2.96779e-18 -2.78806e-16 -0.813269)
(7.84459e-18 1.14855e-16 -0.589256)
(4.24879e-19 -4.46084e-17 -0.381725)
(1.28052e-17 -2.3611e-16 -0.223981)
(-3.73736e-18 -5.81987e-16 -0.159737)
(-1.28714e-17 -3.49377e-16 -0.176013)
(6.61184e-18 7.7321e-18 -0.272784)
(3.03482e-17 -3.60203e-16 -0.374058)
(-2.24311e-17 8.79774e-16 -0.479469)
(-2.34303e-17 1.15562e-16 -0.535009)
(-4.48832e-18 -2.19916e-17 -0.496029)
(-1.47862e-17 2.8644e-16 -0.332154)
(3.45856e-17 5.61063e-17 -0.0484273)
(-3.36061e-18 -1.3618e-17 0.144388)
(-9.65496e-18 1.24279e-16 0.353659)
(5.93435e-17 2.64174e-16 0.565239)
(-3.38168e-18 1.52406e-17 0.881861)
(3.0884e-18 4.74496e-18 1.30701)
(-6.82617e-18 -5.72495e-17 1.76018)
(2.61947e-18 4.72639e-17 2.24242)
(-6.15067e-19 3.23062e-18 2.68988)
(-6.15856e-19 -2.61051e-19 3.03055)
(-2.57265e-18 -2.41608e-17 3.24429)
(7.76e-19 -9.96543e-20 3.35393)
(-1.73721e-18 -1.45852e-18 3.40836)
(6.73275e-19 -2.0979e-18 3.42768)
(-1.11848e-18 -2.80417e-17 3.42009)
(-4.14912e-19 -3.15443e-18 3.39127)
(1.41059e-18 2.94878e-17 3.34733)
(4.17882e-21 -7.24389e-19 3.29434)
(3.89431e-19 1.49946e-17 3.23765)
(-2.79117e-19 -1.54832e-17 3.1816)
(-1.0135e-19 9.09177e-19 3.12943)
(1.09221e-20 3.01078e-21 3.08342)
(9.86099e-22 1.02207e-18 3.0453)
(3.82578e-21 1.73939e-18 3.01658)
(3.12569e-21 -1.60999e-17 2.99893)
(6.26406e-21 1.39901e-17 2.99467)
(1.08336e-19 -1.46444e-17 3.00768)
(-4.46693e-19 2.82741e-17 3.04263)
(5.24615e-19 -2.2824e-17 3.10663)
(-1.15677e-19 7.42872e-18 3.21026)
(-1.21345e-19 2.36039e-18 3.36881)
(9.86595e-20 -9.28202e-19 3.60416)
(3.5609e-19 1.49768e-19 3.94577)
(-5.02027e-19 1.80189e-18 4.42687)
(4.05205e-20 -7.29012e-19 5.05666)
(4.42322e-20 1.42179e-19 5.69414)
(-4.99856e-19 7.23259e-20 5.58997)
(1.12854e-18 -3.38969e-19 2.07748)
(1.4111e-18 6.0145e-19 -9.48078)
(-7.52944e-19 3.74444e-19 -6.03507)
(2.96026e-20 -2.82849e-19 -1.27472)
(-4.61063e-19 2.34196e-19 0.86644)
(-8.59899e-19 1.00048e-19 2.01179)
(4.85378e-19 -8.30962e-19 2.72079)
(1.70826e-18 1.27117e-18 3.16977)
(-1.25858e-18 -3.98367e-19 3.45853)
(4.86192e-19 2.61206e-20 3.63989)
(-1.16996e-19 3.64702e-19 3.74735)
(-1.68769e-18 -1.46104e-18 3.8043)
(6.91845e-19 -1.64511e-19 3.82707)
(-3.25137e-19 -6.53788e-19 3.82715)
(-2.38271e-20 1.78256e-19 3.81241)
(-1.42133e-18 -2.04377e-18 3.78812)
(5.01269e-19 -1.77496e-19 3.75793)
(-9.69981e-19 1.92138e-19 3.72441)
(2.44319e-20 -1.21399e-18 3.68925)
(-3.00421e-19 -1.36349e-17 3.6535)
(-2.75052e-18 2.61591e-17 3.61769)
(1.98431e-18 -1.43333e-17 3.58203)
(2.19231e-18 -3.74681e-18 3.54642)
(-1.6472e-18 1.79569e-17 3.51038)
(8.99303e-19 -1.60278e-17 3.47314)
(-2.20831e-18 -4.26968e-18 3.43367)
(-3.16774e-18 2.6024e-18 3.39068)
(7.81315e-19 -2.32933e-17 3.34261)
(2.04534e-18 1.6754e-17 3.28759)
(-3.13961e-18 -8.25522e-19 3.22321)
(1.13483e-18 2.48467e-17 3.14604)
(8.67822e-19 -2.16985e-17 3.05177)
(2.80144e-18 2.73641e-17 2.93357)
(-2.58512e-18 -2.25984e-17 2.77413)
(-2.93609e-17 -8.04833e-17 2.56555)
(-2.50953e-17 -5.16851e-17 2.28961)
(5.4744e-17 3.83639e-17 1.94006)
(-2.60545e-17 -1.1981e-17 1.53796)
(3.86656e-18 -4.07137e-17 1.1361)
(7.91557e-18 -2.78755e-17 0.822035)
(-2.52182e-17 -3.16869e-17 0.602041)
(-1.23038e-17 9.14163e-18 0.463643)
(-2.5872e-17 -6.55834e-17 0.442547)
(-1.6959e-17 -8.37876e-17 0.527982)
(4.25111e-16 2.38633e-16 0.70044)
(1.5113e-16 1.75482e-16 0.947611)
(3.72446e-17 4.72548e-17 1.25237)
(8.33503e-19 7.69661e-18 1.59095)
(7.28e-17 1.26236e-17 1.93748)
(4.87743e-16 2.2313e-16 2.2872)
(1.96645e-16 1.71599e-16 2.59185)
(2.36037e-17 -2.17114e-17 2.8202)
(3.74253e-16 1.37547e-16 2.99473)
(-2.23489e-18 9.07196e-17 3.10096)
(-1.91412e-16 -5.81519e-17 3.14835)
(-6.14671e-19 -2.88436e-17 3.15594)
(-3.22132e-17 -3.66022e-17 3.16405)
(8.00388e-17 4.0749e-18 3.2141)
(3.66451e-17 1.38343e-17 3.35004)
(-3.9399e-17 8.26424e-18 3.55367)
(7.21039e-18 -5.14863e-18 3.87192)
(-5.80976e-20 1.43984e-18 4.22954)
(-2.64697e-18 -6.5462e-18 4.59723)
(8.0243e-18 -2.00084e-17 4.85889)
(6.74124e-17 -1.13521e-16 4.85413)
(-8.92451e-17 1.66199e-16 4.49341)
(1.24379e-16 -3.61218e-16 3.90666)
(-4.33331e-17 8.02724e-17 3.21473)
(-6.38615e-17 2.64031e-16 2.45758)
(-1.01676e-17 4.05821e-17 1.72557)
(-1.24637e-16 3.26891e-16 1.1342)
(1.22375e-16 -4.85788e-16 0.694842)
(1.48767e-17 -2.00657e-16 0.395603)
(-2.54266e-17 2.07099e-17 0.211614)
(4.98518e-17 -3.36366e-16 0.107582)
(5.2406e-17 -2.54254e-16 0.0527144)
(-4.32638e-17 9.45698e-17 0.0139048)
(-7.35695e-17 5.42743e-16 -0.0208554)
(8.3758e-17 -4.07039e-16 -0.0733941)
(-6.97208e-18 4.25931e-17 -0.159472)
(1.02914e-17 -2.20638e-16 -0.280751)
(-5.5355e-17 2.7503e-16 -0.424002)
(6.42774e-17 -2.74302e-16 -0.584824)
(-4.41487e-18 2.19036e-16 -0.773886)
(2.00129e-18 -2.20822e-16 -0.976735)
(-8.78593e-18 1.6869e-17 -1.17018)
(7.49168e-18 -9.21173e-18 -1.34479)
(-1.13021e-19 -4.63743e-18 -1.46981)
(-8.88155e-19 5.58135e-17 -1.52693)
(8.36109e-20 -1.66591e-18 -1.48254)
(2.49314e-18 5.54737e-17 -1.31749)
(7.59586e-18 9.98409e-17 -1.0519)
(-3.08611e-18 -3.48357e-17 -0.722907)
(2.41836e-17 2.48545e-16 -0.366377)
(-3.63053e-18 2.4795e-16 -0.0305203)
(-1.51601e-17 -2.53541e-16 0.248507)
(-1.37973e-17 -4.08931e-17 0.43499)
(8.82332e-18 2.55848e-16 0.512598)
(6.58807e-18 3.2856e-16 0.498463)
(1.83013e-17 3.66777e-17 0.408941)
(-5.4933e-17 3.14064e-16 0.282723)
(2.88505e-17 -5.92009e-16 0.162931)
(3.75693e-19 -5.27557e-17 0.0891738)
(2.41618e-17 2.60912e-17 0.0841649)
(-3.13426e-20 2.84448e-17 0.147344)
(-3.43325e-17 -3.19168e-16 0.255859)
(2.45663e-17 -1.99524e-17 0.375929)
(7.01802e-19 3.40252e-18 0.478456)
(5.88315e-17 1.02459e-16 0.553806)
(-8.77689e-18 -1.28859e-16 0.620999)
(-7.52916e-17 -2.18717e-16 0.717686)
(7.57071e-18 -1.65416e-17 0.883455)
(0 -0 1.12561)
(-9.61771e-18 -6.54324e-18 1.42733)
(-1.09167e-17 -1.19813e-17 1.76801)
(6.07309e-17 3.50053e-17 2.09122)
(2.78457e-17 1.93713e-17 2.42864)
(1.02053e-18 2.91729e-18 2.77174)
(7.68818e-19 5.35395e-19 3.11309)
(6.43222e-19 -6.76807e-20 3.42895)
(3.41074e-19 -8.90676e-20 3.72619)
(-9.15435e-19 3.69012e-19 3.94313)
(1.49749e-17 -7.15168e-18 3.984)
(-3.02604e-18 -1.20957e-17 3.71954)
(3.15449e-17 -1.43002e-16 3.20468)
(3.70415e-18 3.5936e-17 2.55204)
(-8.84866e-17 2.40345e-16 1.85173)
(9.00632e-17 -3.02658e-16 1.16633)
(-1.11833e-16 3.77252e-16 0.586103)
(-2.9934e-17 -3.14926e-17 0.160169)
(6.82211e-17 -2.82987e-16 -0.130663)
(-4.40686e-17 2.68555e-16 -0.299177)
(1.27142e-17 -1.96755e-16 -0.371146)
(-4.10283e-17 3.07372e-16 -0.387778)
(-5.32454e-18 -5.87435e-17 -0.388098)
(-1.4486e-17 -1.0662e-17 -0.401989)
(1.74699e-17 3.57216e-17 -0.435172)
(-4.80088e-18 1.80786e-16 -0.490152)
(-4.09015e-17 9.5185e-17 -0.574189)
(-6.18739e-17 2.65369e-16 -0.690572)
(-2.40586e-17 2.56548e-17 -0.846558)
(3.09778e-17 -3.14387e-16 -1.01915)
(2.04444e-17 -4.03953e-16 -1.19148)
(-1.70139e-18 -2.08906e-16 -1.35028)
(-3.55049e-18 6.41938e-17 -1.48912)
(-2.13964e-18 4.36753e-17 -1.58079)
(2.01656e-18 -4.58574e-17 -1.61109)
(9.16123e-19 2.30618e-17 -1.55053)
(-1.45945e-18 -4.02428e-18 -1.37549)
(8.21063e-18 1.94415e-16 -1.10236)
(2.07873e-18 -5.3039e-18 -0.76666)
(1.62938e-17 2.74991e-16 -0.407116)
(-8.93876e-18 1.84778e-16 -0.0605084)
(1.51212e-18 -1.83758e-18 0.212376)
(1.73046e-17 1.99409e-16 0.394894)
(2.08201e-17 4.06225e-16 0.459746)
(4.37676e-17 -1.84781e-16 0.438903)
(-2.10808e-17 1.80721e-16 0.335449)
(-4.24926e-19 4.46854e-16 0.194127)
(-2.65881e-17 -3.96149e-16 0.0566229)
(1.46873e-17 -3.60142e-16 -0.0369394)
(-2.01607e-17 3.58719e-16 -0.056039)
(-2.64565e-17 -3.90506e-16 0.00660251)
(-1.56752e-17 2.22273e-16 0.128735)
(2.17175e-17 1.13215e-16 0.168456)
(-4.30915e-17 -2.69059e-16 0.317619)
(-2.20461e-17 -3.76394e-17 0.32274)
(2.94391e-18 1.32202e-16 0.394001)
(3.18321e-18 3.3783e-17 0.554407)
(1.60523e-17 5.86101e-17 0.768356)
(-1.0918e-17 -4.56023e-17 1.04524)
(3.22764e-18 1.9981e-17 1.35437)
(-2.50066e-18 -2.03221e-17 1.66113)
(1.94483e-18 -1.05863e-18 1.9502)
(-8.9878e-19 -7.6522e-19 2.19604)
(-2.00329e-18 -2.23742e-17 2.39832)
(2.16248e-18 2.37568e-17 2.5589)
(2.4554e-18 2.54612e-17 2.67988)
(-1.14077e-18 -2.10051e-17 2.76538)
(-3.25191e-19 1.24928e-17 2.82139)
(-5.87099e-19 -1.25294e-17 2.85485)
(2.57011e-21 -2.45463e-19 2.87248)
(4.33868e-19 1.50608e-17 2.88036)
(-3.99709e-19 -1.31258e-17 2.88347)
(2.95566e-19 1.48698e-17 2.88572)
(-1.86768e-19 -1.32931e-17 2.89017)
(-2.92864e-20 -1.82309e-18 2.89939)
(-5.36122e-20 1.53503e-18 2.91582)
(3.15721e-20 -2.53017e-21 2.94217)
(-2.20518e-19 1.24382e-20 2.98183)
(3.66553e-19 1.49012e-18 3.03891)
(-3.59486e-19 -1.74388e-20 3.11923)
(6.06414e-20 -7.22408e-20 3.2304)
(3.95075e-19 -2.90164e-18 3.3813)
(-3.56949e-19 6.86409e-20 3.57943)
(3.43695e-19 -3.30436e-19 3.82786)
(2.06918e-18 -3.65299e-18 4.10732)
(-1.24566e-18 2.11786e-18 4.32422)
(2.6417e-19 -1.74872e-19 4.17383)
(-1.63182e-19 2.79726e-20 2.84142)
(-2.89e-19 2.04901e-19 -1.36231)
(-1.27632e-18 -3.06118e-19 -10.1506)
(1.04699e-18 1.4927e-19 -5.15066)
(-1.16858e-18 6.63976e-19 -1.96934)
(-1.83934e-18 -4.2765e-19 -0.312655)
(2.89116e-18 -7.82999e-20 0.683967)
(-5.23532e-18 9.45722e-19 1.39825)
(1.47696e-18 -1.2827e-18 1.93585)
(4.38873e-19 6.23401e-19 2.3326)
(-9.97508e-19 -4.47545e-19 2.62716)
(-4.28841e-20 7.03976e-19 2.84528)
(-2.9602e-18 -3.55026e-18 3.00707)
(3.03957e-18 1.78199e-18 3.12684)
(-9.62317e-19 3.00461e-19 3.21501)
(-2.20533e-18 -4.82806e-18 3.27912)
(2.95382e-18 2.74047e-18 3.32451)
(-6.78345e-19 -3.80017e-19 3.35506)
(-4.41796e-19 5.44831e-21 3.37366)
(9.6935e-19 -1.72364e-18 3.38241)
(1.45344e-18 7.23586e-18 3.38281)
(-3.14624e-18 -1.91704e-17 3.37588)
(3.07885e-18 7.58315e-18 3.36224)
(1.93696e-18 1.56393e-17 3.34211)
(-4.10367e-18 -1.11883e-17 3.31537)
(2.57239e-18 -2.33113e-18 3.28154)
(5.07122e-19 2.05932e-18 3.23984)
(5.52073e-19 6.76416e-19 3.18921)
(2.36752e-18 1.03321e-18 3.12829)
(-1.47264e-18 -1.53699e-17 3.05539)
(-3.0578e-18 -3.01525e-18 2.96834)