/*--------------------------------*- C++ -*----------------------------------*\
| =========                 |                                                 |
| \\      /  F ield         | OpenFOAM: The Open Source CFD Toolbox           |
|  \\    /   O peration     | Version:  2506                                  |
|   \\  /    A nd           | Website:  www.openfoam.com                      |
|    \\/     M anipulation  |                                                 |
\*---------------------------------------------------------------------------*/
FoamFile
{
    version     2.0;
    format      ascii;
    arch        "LSB;label=32;scalar=64";
    class       volScalarField;
    location    "2.2";
    object      p;
}
// * * * * * * * * * * * * * * * * * * * * * * * * * * * * * * * * * * * * * //

dimensions      [0 2 -2 0 0 0 0];

internalField   nonuniform List<scalar> 
4000
(
-0.0031052
-0.00316509
-0.00319006
-0.00319335
-0.00318918
-0.00318078
-0.00316934
-0.00315608
-0.00314185
-0.00312704
-0.00311187
-0.00309646
-0.00308088
-0.00306519
-0.00304943
-0.0030336
-0.00301774
-0.00300184
-0.00298592
-0.00296996
-0.00295397
-0.00293794
-0.00292188
-0.00290577
-0.00288963
-0.00287345
-0.00285725
-0.00284105
-0.00282485
-0.0028087
-0.00279264
-0.00277672
-0.00276104
-0.00274593
-0.00273122
-0.00271707
-0.0027037
-0.00269101
-0.00267893
-0.00266765
-0.00265738
-0.00264955
-0.00264421
-0.00264028
-0.00263753
-0.0026356
-0.00263423
-0.00263348
-0.00263246
-0.00263129
-0.00262961
-0.00262673
-0.00262291
-0.00261689
-0.00260919
-0.00259859
-0.00258536
-0.00256933
-0.00254972
-0.00252795
-0.00250247
-0.00247485
-0.00244499
-0.00241323
-0.00238036
-0.00234623
-0.00231175
-0.00227677
-0.0022419
-0.00220717
-0.00217292
-0.00213928
-0.00210629
-0.00207414
-0.0020429
-0.00201266
-0.00198352
-0.00195552
-0.00192872
-0.00190316
-0.00187884
-0.00185574
-0.00183386
-0.00181314
-0.00179354
-0.00177499
-0.00175743
-0.0017408
-0.00172503
-0.00171005
-0.00169583
-0.0016823
-0.00166942
-0.00165715
-0.00164544
-0.00163426
-0.00162355
-0.00161328
-0.0016034
-0.00159387
-0.0015846
-0.00157555
-0.00156664
-0.00155781
-0.00154903
-0.00154025
-0.00153141
-0.00152248
-0.00151339
-0.00150414
-0.00149471
-0.00148509
-0.00147528
-0.00146532
-0.0014552
-0.001445
-0.00143474
-0.00142447
-0.00141428
-0.0014042
-0.00139431
-0.00138468
-0.00137536
-0.00136639
-0.00135784
-0.00134973
-0.00134206
-0.00133487
-0.00132811
-0.00132177
-0.00131587
-0.00131024
-0.00130481
-0.0012997
-0.00129452
-0.00128917
-0.00128393
-0.0012779
-0.00127153
-0.00126416
-0.0012557
-0.00124581
-0.00123407
-0.00122004
-0.00120389
-0.0011845
-0.00116301
-0.00113803
-0.00111065
-0.00108097
-0.00104904
-0.001016
-0.000981499
-0.000946728
-0.000911595
-0.000876892
-0.00084264
-0.000809352
-0.000777212
-0.000746868
-0.000719233
-0.000693656
-0.000669358
-0.00064617
-0.000624027
-0.000602796
-0.000582216
-0.000562598
-0.00054402
-0.000526329
-0.00050936
-0.000492888
-0.000476679
-0.000460533
-0.000444292
-0.000427843
-0.000411116
-0.000394089
-0.000376776
-0.000359216
-0.000341462
-0.00032358
-0.000305636
-0.000287692
-0.000269799
-0.000251996
-0.000234307
-0.000216741
-0.000199284
-0.000181928
-0.000164643
-0.00014742
-0.000130231
-0.000113048
-9.58465e-05
-7.86043e-05
-6.13049e-05
-4.3938e-05
-2.6501e-05
-8.93615e-06
-0.00317817
-0.00319004
-0.00319574
-0.00319322
-0.00318665
-0.00317789
-0.00316693
-0.00315436
-0.00314072
-0.00312636
-0.00311153
-0.00309638
-0.003081
-0.00306546
-0.00304981
-0.00303409
-0.00301831
-0.00300248
-0.00298662
-0.00297071
-0.00295477
-0.00293878
-0.00292275
-0.00290668
-0.00289056
-0.0028744
-0.00285821
-0.00284199
-0.00282578
-0.00280958
-0.00279345
-0.00277742
-0.00276156
-0.00274623
-0.00273102
-0.00271597
-0.00270189
-0.00268875
-0.00267651
-0.0026655
-0.00265594
-0.00264902
-0.00264432
-0.00264075
-0.00263819
-0.00263631
-0.00263488
-0.00263389
-0.00263251
-0.00263088
-0.00262865
-0.00262522
-0.0026208
-0.00261423
-0.00260608
-0.00259537
-0.00258228
-0.00256674
-0.00254796
-0.00252735
-0.00250339
-0.00247746
-0.00244947
-0.00241958
-0.00238859
-0.00235624
-0.00232344
-0.00228998
-0.00225647
-0.00222292
-0.00218953
-0.00215659
-0.0021241
-0.0020923
-0.00206125
-0.00203104
-0.00200179
-0.00197357
-0.00194643
-0.00192043
-0.0018956
-0.00187192
-0.0018494
-0.00182802
-0.00180773
-0.00178849
-0.00177025
-0.00175292
-0.00173645
-0.00172077
-0.00170582
-0.00169157
-0.00167796
-0.00166493
-0.00165247
-0.00164051
-0.00162902
-0.00161794
-0.00160723
-0.00159683
-0.00158672
-0.00157684
-0.00156713
-0.00155755
-0.00154802
-0.0015385
-0.00152894
-0.00151931
-0.00150959
-0.00149975
-0.00148979
-0.0014797
-0.0014695
-0.00145923
-0.00144887
-0.00143852
-0.00142818
-0.00141792
-0.00140782
-0.0013979
-0.00138824
-0.00137889
-0.00136991
-0.0013613
-0.00135314
-0.00134542
-0.00133815
-0.00133131
-0.00132489
-0.00131882
-0.00131314
-0.00130765
-0.00130231
-0.00129719
-0.00129191
-0.00128642
-0.00128089
-0.00127453
-0.00126771
-0.00125985
-0.00125082
-0.0012403
-0.00122809
-0.00121371
-0.00119737
-0.00117808
-0.00115697
-0.00113271
-0.00110633
-0.00107793
-0.00104737
-0.00101587
-0.000982844
-0.000949608
-0.000915819
-0.000882409
-0.000849239
-0.00081693
-0.00078556
-0.000755683
-0.000726708
-0.00069988
-0.000674085
-0.000649433
-0.000625871
-0.000603494
-0.000582035
-0.000562036
-0.000543266
-0.000525418
-0.000508343
-0.000491807
-0.00047556
-0.000459393
-0.000443148
-0.000426715
-0.000410026
-0.000393047
-0.00037578
-0.000358256
-0.000340529
-0.000322665
-0.000304731
-0.000286794
-0.000268907
-0.000251109
-0.000233427
-0.000215872
-0.000198447
-0.000181137
-0.000163922
-0.00014677
-0.000129653
-0.000112546
-9.54207e-05
-7.82568e-05
-6.10359e-05
-4.37468e-05
-2.63844e-05
-8.90121e-06
-0.00321167
-0.00320131
-0.00319708
-0.00319227
-0.00318468
-0.00317538
-0.0031644
-0.00315228
-0.00313915
-0.00312522
-0.00311077
-0.00309594
-0.00308082
-0.00306549
-0.00305001
-0.00303442
-0.00301875
-0.00300301
-0.00298722
-0.00297139
-0.0029555
-0.00293957
-0.00292358
-0.00290754
-0.00289145
-0.00287531
-0.00285913
-0.00284291
-0.00282667
-0.00281042
-0.00279421
-0.00277807
-0.00276202
-0.00274645
-0.00273084
-0.00271525
-0.0027008
-0.00268754
-0.00267542
-0.00266482
-0.00265594
-0.00264968
-0.00264525
-0.00264165
-0.00263888
-0.00263668
-0.00263478
-0.00263311
-0.00263099
-0.0026285
-0.00262532
-0.00262099
-0.00261556
-0.00260821
-0.00259944
-0.00258841
-0.00257533
-0.0025602
-0.00254229
-0.00252288
-0.00250052
-0.00247642
-0.00245041
-0.0024225
-0.00239347
-0.00236289
-0.00233175
-0.0022997
-0.00226743
-0.00223491
-0.00220238
-0.00217018
-0.00213821
-0.00210678
-0.00207597
-0.00204583
-0.00201652
-0.0019881
-0.00196064
-0.00193421
-0.00190887
-0.00188465
-0.00186155
-0.00183958
-0.00181868
-0.00179884
-0.00177999
-0.00176207
-0.00174505
-0.00172883
-0.00171334
-0.00169854
-0.00168438
-0.00167079
-0.00165776
-0.00164521
-0.00163313
-0.00162144
-0.00161013
-0.00159912
-0.00158839
-0.00157788
-0.00156754
-0.00155733
-0.00154719
-0.00153709
-0.00152697
-0.00151683
-0.00150663
-0.00149635
-0.00148599
-0.00147557
-0.00146508
-0.00145458
-0.00144405
-0.00143361
-0.00142324
-0.00141301
-0.001403
-0.00139323
-0.00138376
-0.00137465
-0.00136591
-0.00135757
-0.00134967
-0.00134219
-0.00133513
-0.00132847
-0.00132216
-0.00131616
-0.00131045
-0.00130487
-0.00129936
-0.00129395
-0.00128829
-0.00128236
-0.00127625
-0.00126926
-0.00126169
-0.00125307
-0.00124326
-0.00123206
-0.00121924
-0.00120443
-0.00118791
-0.00116883
-0.00114822
-0.00112489
-0.00109973
-0.00107284
-0.00104389
-0.00101412
-0.000982664
-0.000950999
-0.000918498
-0.000886303
-0.000854054
-0.00082253
-0.000791603
-0.000762173
-0.000732278
-0.000704668
-0.000677954
-0.000652205
-0.000627502
-0.000604223
-0.000582097
-0.000561824
-0.000542878
-0.000524866
-0.000507687
-0.000491104
-0.000474843
-0.00045868
-0.00044245
-0.000426034
-0.000409356
-0.000392381
-0.00037511
-0.000357575
-0.000339833
-0.00032195
-0.000304
-0.000286048
-0.000268153
-0.000250355
-0.000232684
-0.000215149
-0.00019775
-0.000180471
-0.000163294
-0.00014619
-0.000129129
-0.000112085
-9.50286e-05
-7.79361e-05
-6.07884e-05
-4.35736e-05
-2.62847e-05
-8.90027e-06
-0.00322671
-0.00321022
-0.00319925
-0.00319212
-0.00318391
-0.00317367
-0.00316225
-0.00315032
-0.00313739
-0.00312371
-0.00310963
-0.00309517
-0.00308035
-0.00306528
-0.00305004
-0.00303465
-0.00301913
-0.00300353
-0.00298786
-0.00297212
-0.00295632
-0.00294046
-0.00292454
-0.00290856
-0.00289253
-0.00287643
-0.00286028
-0.00284408
-0.00282785
-0.00281159
-0.00279534
-0.00277913
-0.00276299
-0.00274723
-0.00273139
-0.00271557
-0.00270099
-0.00268778
-0.00267587
-0.00266562
-0.00265717
-0.0026511
-0.0026465
-0.00264255
-0.00263924
-0.00263636
-0.00263362
-0.00263095
-0.00262775
-0.00262407
-0.00261961
-0.00261393
-0.00260718
-0.0025988
-0.00258911
-0.00257749
-0.00256417
-0.00254921
-0.00253202
-0.0025136
-0.00249281
-0.00247054
-0.0024466
-0.00242088
-0.00239404
-0.00236558
-0.00233643
-0.00230615
-0.00227545
-0.00224428
-0.00221288
-0.00218161
-0.00215036
-0.00211949
-0.00208907
-0.00205916
-0.00202993
-0.00200149
-0.00197387
-0.00194719
-0.00192151
-0.00189686
-0.00187329
-0.00185079
-0.00182936
-0.00180897
-0.00178958
-0.00177111
-0.00175353
-0.00173678
-0.00172075
-0.00170543
-0.00169073
-0.00167659
-0.001663
-0.00164987
-0.0016372
-0.00162492
-0.001613
-0.00160138
-0.00159005
-0.00157892
-0.00156798
-0.00155718
-0.00154646
-0.00153581
-0.00152517
-0.00151454
-0.00150389
-0.00149321
-0.0014825
-0.00147179
-0.00146108
-0.00145041
-0.00143979
-0.00142931
-0.00141897
-0.00140883
-0.00139895
-0.00138935
-0.00138007
-0.00137116
-0.00136263
-0.00135448
-0.00134674
-0.00133938
-0.00133237
-0.0013257
-0.0013193
-0.00131313
-0.00130714
-0.00130119
-0.00129521
-0.00128916
-0.00128281
-0.00127612
-0.00126914
-0.00126122
-0.00125261
-0.00124298
-0.0012322
-0.00122012
-0.00120654
-0.0011914
-0.00117472
-0.00115595
-0.0011359
-0.00111369
-0.00108992
-0.0010647
-0.00103761
-0.00100976
-0.000980158
-0.000950256
-0.00091927
-0.000888422
-0.000857216
-0.000826538
-0.000796023
-0.000767016
-0.000736482
-0.000708362
-0.000681032
-0.00065448
-0.000628949
-0.00060508
-0.000582565
-0.000562135
-0.000543053
-0.000524887
-0.000507591
-0.000490934
-0.000474619
-0.00045841
-0.000442139
-0.000425685
-0.000408968
-0.000391952
-0.000374639
-0.000357063
-0.00033928
-0.000321361
-0.00030338
-0.000285405
-0.000267495
-0.000249693
-0.000232024
-0.000214502
-0.000197123
-0.000179872
-0.000162729
-0.000145667
-0.000128656
-0.000111666
-9.46684e-05
-7.76396e-05
-6.0559e-05
-4.3415e-05
-2.61936e-05
-8.92255e-06
-0.0032361
-0.00321772
-0.00320323
-0.00319353
-0.00318366
-0.00317244
-0.00316067
-0.00314863
-0.00313574
-0.00312223
-0.00310849
-0.00309429
-0.00307971
-0.00306493
-0.00304996
-0.0030348
-0.00301948
-0.00300406
-0.00298854
-0.00297294
-0.00295726
-0.0029415
-0.00292569
-0.0029098
-0.00289385
-0.00287783
-0.00286175
-0.00284562
-0.00282944
-0.00281323
-0.00279701
-0.00278081
-0.00276466
-0.00274883
-0.00273291
-0.00271708
-0.00270252
-0.00268941
-0.0026777
-0.00266767
-0.00265938
-0.00265319
-0.00264817
-0.00264365
-0.0026396
-0.0026358
-0.00263199
-0.00262809
-0.00262362
-0.00261851
-0.00261249
-0.00260526
-0.00259702
-0.00258739
-0.00257646
-0.00256413
-0.00255032
-0.0025352
-0.00251842
-0.00250061
-0.00248108
-0.00246038
-0.00243833
-0.00241478
-0.00239017
-0.00236405
-0.00233711
-0.00230898
-0.00228021
-0.00225078
-0.00222086
-0.00219085
-0.00216064
-0.00213058
-0.00210079
-0.00207131
-0.00204235
-0.00201402
-0.00198639
-0.00195956
-0.00193363
-0.00190865
-0.00188466
-0.00186171
-0.00183978
-0.00181888
-0.00179898
-0.00177999
-0.00176191
-0.00174465
-0.00172812
-0.00171229
-0.00169709
-0.00168243
-0.00166831
-0.00165462
-0.00164139
-0.0016285
-0.001616
-0.00160376
-0.00159182
-0.00158009
-0.00156855
-0.00155717
-0.00154588
-0.0015347
-0.00152356
-0.00151248
-0.00150142
-0.00149039
-0.0014794
-0.00146846
-0.00145758
-0.00144683
-0.00143618
-0.00142572
-0.00141546
-0.00140544
-0.00139571
-0.00138628
-0.00137717
-0.00136843
-0.00136003
-0.00135198
-0.00134428
-0.00133689
-0.00132977
-0.0013229
-0.0013162
-0.00130962
-0.00130311
-0.00129655
-0.00128983
-0.00128289
-0.00127566
-0.00126796
-0.00125975
-0.0012507
-0.00124091
-0.00123014
-0.00121828
-0.00120526
-0.00119096
-0.00117534
-0.00115845
-0.00113996
-0.00112041
-0.00109925
-0.00107684
-0.00105328
-0.00102815
-0.0010023
-0.000974809
-0.000946887
-0.000917748
-0.000888506
-0.000858622
-0.000828989
-0.00079903
-0.00077048
-0.000739626
-0.000711227
-0.000683594
-0.000656594
-0.000630578
-0.000606408
-0.000583725
-0.000563223
-0.00054403
-0.000525699
-0.000508238
-0.000491434
-0.000474981
-0.00045864
-0.000442246
-0.000425677
-0.000408855
-0.000391745
-0.000374349
-0.000356702
-0.000338861
-0.000320897
-0.000302884
-0.000284889
-0.000266967
-0.000249161
-0.000231495
-0.00021398
-0.000196613
-0.00017938
-0.000162257
-0.00014522
-0.000128239
-0.000111285
-9.43311e-05
-7.73527e-05
-6.03293e-05
-4.32503e-05
-2.60909e-05
-8.94409e-06
-0.00324243
-0.00322304
-0.00320689
-0.00319533
-0.00318416
-0.00317215
-0.0031598
-0.00314729
-0.00313437
-0.00312108
-0.00310752
-0.00309351
-0.00307914
-0.00306463
-0.00304992
-0.00303497
-0.00301985
-0.00300463
-0.00298929
-0.00297384
-0.0029583
-0.00294268
-0.00292699
-0.00291123
-0.00289539
-0.00287949
-0.00286352
-0.0028475
-0.00283142
-0.00281531
-0.00279918
-0.00278307
-0.002767
-0.00275119
-0.00273534
-0.00271963
-0.00270517
-0.00269217
-0.00268059
-0.00267064
-0.0026623
-0.00265578
-0.00265021
-0.00264499
-0.00264007
-0.00263522
-0.00263022
-0.00262494
-0.00261906
-0.00261238
-0.00260475
-0.00259602
-0.00258628
-0.00257531
-0.00256319
-0.00254991
-0.00253545
-0.00251997
-0.00250332
-0.00248575
-0.00246703
-0.00244752
-0.00242696
-0.00240523
-0.00238257
-0.00235863
-0.00233386
-0.00230794
-0.00228127
-0.00225382
-0.00222569
-0.00219725
-0.00216839
-0.00213947
-0.0021106
-0.00208184
-0.00205341
-0.00202542
-0.00199797
-0.00197117
-0.00194515
-0.00191997
-0.00189569
-0.00187237
-0.00185002
-0.00182867
-0.00180829
-0.00178882
-0.00177026
-0.00175253
-0.00173552
-0.00171922
-0.00170353
-0.00168837
-0.00167374
-0.00165951
-0.00164574
-0.00163228
-0.00161919
-0.00160636
-0.00159382
-0.00158149
-0.00156937
-0.00155742
-0.0015456
-0.00153393
-0.00152233
-0.00151085
-0.00149945
-0.00148814
-0.00147694
-0.00146585
-0.00145489
-0.00144411
-0.00143348
-0.0014231
-0.00141295
-0.00140306
-0.00139347
-0.00138418
-0.00137519
-0.00136654
-0.00135818
-0.0013501
-0.00134229
-0.00133471
-0.00132732
-0.00132006
-0.00131287
-0.00130569
-0.00129846
-0.00129109
-0.0012834
-0.00127552
-0.0012672
-0.00125831
-0.00124877
-0.00123852
-0.00122752
-0.0012156
-0.00120268
-0.00118875
-0.00117375
-0.00115767
-0.00114059
-0.00112227
-0.00110313
-0.00108289
-0.00106167
-0.00103958
-0.00101629
-0.000992314
-0.000966924
-0.000941009
-0.000913891
-0.000886423
-0.000858109
-0.00082973
-0.000800561
-0.000772589
-0.000741886
-0.000713451
-0.000685811
-0.00065873
-0.000632576
-0.000608359
-0.000585686
-0.000565175
-0.000545885
-0.000527371
-0.000509689
-0.000492656
-0.000475971
-0.000459402
-0.000442791
-0.000426024
-0.000409026
-0.000391765
-0.000374246
-0.000356501
-0.000338586
-0.000320574
-0.000302533
-0.000284524
-0.000266598
-0.000248791
-0.000231129
-0.000213619
-0.000196255
-0.000179023
-0.000161903
-0.000144868
-0.000127895
-0.000110955
-9.40231e-05
-7.70778e-05
-6.00985e-05
-4.30759e-05
-2.5974e-05
-8.95105e-06
-0.00324666
-0.00322689
-0.0032097
-0.00319695
-0.0031849
-0.00317227
-0.00315946
-0.00314663
-0.00313362
-0.00312034
-0.00310678
-0.00309292
-0.0030788
-0.0030645
-0.00304999
-0.00303521
-0.00302026
-0.00300526
-0.0029901
-0.00297481
-0.00295943
-0.00294397
-0.00292842
-0.0029128
-0.00289711
-0.00288135
-0.00286553
-0.00284965
-0.00283372
-0.00281776
-0.00280178
-0.00278582
-0.00276989
-0.00275419
-0.00273849
-0.00272299
-0.00270866
-0.00269575
-0.00268422
-0.00267422
-0.00266569
-0.00265872
-0.00265249
-0.00264648
-0.0026406
-0.00263463
-0.00262838
-0.0026217
-0.00261432
-0.0026061
-0.00259693
-0.00258673
-0.00257554
-0.00256328
-0.00255001
-0.00253578
-0.00252066
-0.00250473
-0.00248805
-0.00247047
-0.00245219
-0.0024335
-0.00241403
-0.00239372
-0.00237261
-0.00235048
-0.00232759
-0.0023037
-0.00227905
-0.00225361
-0.00222739
-0.0022007
-0.00217344
-0.00214591
-0.00211825
-0.00209049
-0.00206288
-0.00203551
-0.00200849
-0.00198196
-0.00195605
-0.00193085
-0.00190643
-0.00188288
-0.00186022
-0.00183849
-0.00181771
-0.0017978
-0.00177879
-0.0017606
-0.00174314
-0.00172638
-0.00171024
-0.00169459
-0.00167948
-0.00166474
-0.00165043
-0.00163641
-0.00162276
-0.00160934
-0.00159622
-0.00158331
-0.00157064
-0.00155816
-0.00154584
-0.00153373
-0.00152174
-0.00150993
-0.00149826
-0.00148675
-0.00147541
-0.00146424
-0.00145326
-0.0014425
-0.00143194
-0.00142166
-0.00141162
-0.00140184
-0.00139234
-0.00138312
-0.00137416
-0.00136547
-0.00135702
-0.00134877
-0.0013407
-0.00133276
-0.00132491
-0.00131709
-0.00130924
-0.0013013
-0.0012932
-0.00128485
-0.00127617
-0.00126723
-0.00125768
-0.00124756
-0.00123683
-0.00122541
-0.00121325
-0.00120024
-0.00118636
-0.00117162
-0.00115601
-0.00113955
-0.00112233
-0.00110415
-0.00108532
-0.00106587
-0.00104565
-0.00102481
-0.00100314
-0.00098082
-0.000957333
-0.000933306
-0.000908198
-0.000882544
-0.000855931
-0.000828959
-0.000800817
-0.000773594
-0.000743556
-0.000715339
-0.000687941
-0.000661087
-0.000635102
-0.000611039
-0.000588508
-0.000568015
-0.000548618
-0.000529894
-0.000511932
-0.000494583
-0.000477569
-0.000460672
-0.000443749
-0.000426699
-0.000409454
-0.000391986
-0.000374307
-0.000356443
-0.000338438
-0.00032038
-0.000302321
-0.000284311
-0.000266391
-0.000248591
-0.000230934
-0.000213427
-0.000196058
-0.000178812
-0.000161672
-0.000144618
-0.000127627
-0.000110676
-9.37448e-05
-7.68136e-05
-5.98637e-05
-4.2888e-05
-2.5841e-05
-8.93627e-06
-0.00324945
-0.00322956
-0.0032118
-0.00319831
-0.00318566
-0.00317259
-0.00315944
-0.00314638
-0.00313327
-0.00311996
-0.00310644
-0.00309269
-0.00307872
-0.00306454
-0.00305017
-0.00303559
-0.00302085
-0.00300599
-0.00299099
-0.00297587
-0.00296065
-0.00294534
-0.00292995
-0.00291449
-0.00289896
-0.00288337
-0.00286772
-0.00285201
-0.00283627
-0.00282049
-0.00280471
-0.00278894
-0.00277322
-0.00275768
-0.00274219
-0.00272694
-0.00271276
-0.00269989
-0.00268834
-0.0026782
-0.00266937
-0.00266185
-0.00265489
-0.00264805
-0.00264116
-0.00263404
-0.00262651
-0.00261843
-0.00260958
-0.00259988
-0.00258924
-0.00257764
-0.00256511
-0.00255166
-0.00253735
-0.00252227
-0.00250649
-0.00249011
-0.00247317
-0.00245566
-0.0024378
-0.00241945
-0.00240067
-0.0023815
-0.0023616
-0.00234089
-0.00231947
-0.0022973
-0.00227447
-0.00225089
-0.00222653
-0.0022016
-0.00217606
-0.00215009
-0.00212382
-0.00209728
-0.00207074
-0.00204425
-0.00201794
-0.00199191
-0.00196635
-0.00194135
-0.00191699
-0.00189337
-0.00187054
-0.00184855
-0.00182744
-0.00180716
-0.00178775
-0.00176914
-0.00175124
-0.00173403
-0.00171744
-0.00170133
-0.00168574
-0.0016705
-0.00165568
-0.00164113
-0.00162693
-0.00161294
-0.00159928
-0.00158582
-0.00157263
-0.00155967
-0.00154692
-0.00153442
-0.00152211
-0.00151004
-0.00149818
-0.00148653
-0.00147511
-0.00146392
-0.00145296
-0.00144225
-0.00143175
-0.00142154
-0.00141156
-0.00140181
-0.00139232
-0.00138305
-0.00137399
-0.00136513
-0.00135642
-0.00134784
-0.00133934
-0.00133088
-0.00132241
-0.00131388
-0.00130523
-0.00129641
-0.00128734
-0.00127794
-0.00126827
-0.00125814
-0.00124743
-0.00123616
-0.00122431
-0.00121181
-0.0011986
-0.00118465
-0.00116997
-0.00115457
-0.00113847
-0.00112172
-0.00110436
-0.00108638
-0.00106796
-0.00104906
-0.0010296
-0.00100987
-0.000989657
-0.000968728
-0.000946858
-0.000924551
-0.000901346
-0.000877469
-0.000852597
-0.000827132
-0.000800281
-0.000773921
-0.000744954
-0.000717268
-0.000690298
-0.000663885
-0.000638299
-0.000614526
-0.000592209
-0.000571718
-0.000552177
-0.000533202
-0.000514894
-0.000497141
-0.000479701
-0.000462379
-0.000445053
-0.00042764
-0.000410081
-0.000392354
-0.000374477
-0.000356477
-0.000338392
-0.000320295
-0.000302231
-0.000284234
-0.000266331
-0.000248546
-0.0002309
-0.000213395
-0.000196013
-0.000178737
-0.000161557
-0.000144459
-0.000127426
-0.000110441
-9.34876e-05
-7.65518e-05
-5.96174e-05
-4.26801e-05
-2.56875e-05
-8.89618e-06
-0.00325119
-0.0032313
-0.00321323
-0.00319929
-0.00318632
-0.00317298
-0.00315961
-0.00314641
-0.00313323
-0.00311991
-0.00310642
-0.00309275
-0.00307888
-0.00306482
-0.00305058
-0.00303615
-0.00302156
-0.00300684
-0.00299198
-0.00297702
-0.00296195
-0.0029468
-0.00293157
-0.00291628
-0.00290092
-0.0028855
-0.00287004
-0.00285453
-0.002839
-0.00282344
-0.00280788
-0.00279234
-0.00277686
-0.00276153
-0.00274628
-0.00273129
-0.00271726
-0.00270441
-0.00269278
-0.00268243
-0.00267323
-0.00266509
-0.00265736
-0.00264964
-0.00264172
-0.00263342
-0.0026246
-0.00261515
-0.00260489
-0.00259377
-0.00258176
-0.00256887
-0.00255513
-0.00254061
-0.00252538
-0.00250956
-0.00249321
-0.00247642
-0.00245928
-0.00244177
-0.00242408
-0.00240606
-0.00238778
-0.00236927
-0.00235034
-0.00233077
-0.00231059
-0.00228987
-0.00226851
-0.00224654
-0.00222386
-0.0022006
-0.00217672
-0.00215236
-0.00212757
-0.00210244
-0.00207711
-0.00205167
-0.00202633
-0.00200104
-0.00197605
-0.00195148
-0.00192739
-0.0019039
-0.00188107
-0.00185897
-0.00183765
-0.0018171
-0.00179735
-0.00177835
-0.00176006
-0.00174242
-0.00172539
-0.00170883
-0.00169279
-0.00167706
-0.00166175
-0.00164669
-0.00163198
-0.00161747
-0.0016033
-0.00158935
-0.0015757
-0.00156232
-0.00154919
-0.00153638
-0.00152381
-0.00151154
-0.00149954
-0.0014878
-0.00147634
-0.00146513
-0.00145418
-0.00144349
-0.001433
-0.00142278
-0.00141276
-0.00140293
-0.0013933
-0.00138384
-0.00137452
-0.00136532
-0.00135619
-0.0013471
-0.00133801
-0.00132888
-0.00131966
-0.0013103
-0.00130076
-0.00129097
-0.0012809
-0.00127049
-0.00125971
-0.00124846
-0.00123668
-0.00122438
-0.00121151
-0.00119804
-0.00118396
-0.00116924
-0.00115391
-0.001138
-0.00112154
-0.00110459
-0.00108721
-0.00106943
-0.00105134
-0.00103295
-0.00101421
-0.000995349
-0.000976306
-0.000956643
-0.000936299
-0.000915543
-0.000894001
-0.000871783
-0.000848617
-0.000824683
-0.000799345
-0.00077382
-0.000746275
-0.000719427
-0.000693075
-0.000667258
-0.000642224
-0.000618814
-0.000596725
-0.000576189
-0.000556444
-0.000537162
-0.000518441
-0.000500201
-0.000482245
-0.000464413
-0.000446607
-0.000428762
-0.00041083
-0.000392802
-0.000374697
-0.000356557
-0.000338413
-0.00032029
-0.000302242
-0.000284273
-0.000266382
-0.00024861
-0.000230986
-0.000213489
-0.000196086
-0.000178765
-0.000161526
-0.000144365
-0.000127269
-0.000110229
-9.32351e-05
-7.62796e-05
-5.93503e-05
-4.24458e-05
-2.55107e-05
-8.82895e-06
-0.00325203
-0.00323223
-0.00321406
-0.0031999
-0.00318677
-0.00317333
-0.00315989
-0.00314664
-0.00313344
-0.00312014
-0.0031067
-0.00309309
-0.00307931
-0.00306535
-0.0030512
-0.00303689
-0.00302242
-0.00300782
-0.0029931
-0.00297827
-0.00296335
-0.00294834
-0.00293327
-0.00291814
-0.00290295
-0.00288772
-0.00287246
-0.00285716
-0.00284184
-0.00282651
-0.00281121
-0.00279593
-0.0027807
-0.00276561
-0.00275061
-0.0027359
-0.00272201
-0.00270917
-0.00269742
-0.0026868
-0.00267717
-0.00266838
-0.00265985
-0.00265122
-0.00264225
-0.00263277
-0.00262269
-0.00261189
-0.00260028
-0.00258783
-0.00257454
-0.00256047
-0.00254566
-0.00253021
-0.0025142
-0.00249774
-0.00248091
-0.00246378
-0.00244648
-0.00242894
-0.00241136
-0.00239361
-0.00237575
-0.00235771
-0.00233939
-0.00232069
-0.0023016
-0.00228205
-0.00226191
-0.00224129
-0.0022201
-0.00219832
-0.00217599
-0.00215314
-0.00212985
-0.00210617
-0.00208214
-0.00205792
-0.00203365
-0.00200936
-0.00198517
-0.00196121
-0.0019376
-0.00191444
-0.00189179
-0.00186976
-0.00184839
-0.00182767
-0.00180769
-0.0017884
-0.00176975
-0.00175174
-0.00173431
-0.00171732
-0.00170084
-0.00168467
-0.0016689
-0.00165338
-0.0016382
-0.00162323
-0.00160861
-0.00159423
-0.00158019
-0.00156645
-0.00155302
-0.00153994
-0.00152717
-0.00151475
-0.00150263
-0.00149081
-0.00147928
-0.00146802
-0.00145701
-0.00144624
-0.00143567
-0.0014253
-0.00141509
-0.00140501
-0.00139507
-0.00138524
-0.00137549
-0.00136578
-0.00135606
-0.00134631
-0.00133649
-0.00132657
-0.00131649
-0.00130623
-0.00129574
-0.00128498
-0.0012739
-0.00126247
-0.00125065
-0.00123839
-0.00122565
-0.00121242
-0.00119867
-0.0011844
-0.0011696
-0.00115427
-0.00113845
-0.00112216
-0.00110548
-0.00108843
-0.00107109
-0.00105352
-0.00103575
-0.00101787
-0.000999849
-0.00098172
-0.000963505
-0.000944888
-0.000925997
-0.000906638
-0.00088657
-0.000865909
-0.000844383
-0.000821962
-0.000798219
-0.000773725
-0.00074772
-0.000721868
-0.000696312
-0.000671218
-0.000646825
-0.0006238
-0.000601915
-0.000581267
-0.000561247
-0.000541596
-0.000522394
-0.000503592
-0.000485043
-0.000466633
-0.000448298
-0.00042998
-0.000411625
-0.000393258
-0.000374925
-0.000356647
-0.000338414
-0.000320255
-0.000302279
-0.000284403
-0.000266528
-0.000248735
-0.000231122
-0.000213646
-0.000196218
-0.000178834
-0.000161523
-0.000144286
-0.000127116
-0.000110009
-9.29638e-05
-7.59811e-05
-5.90531e-05
-4.21823e-05
-2.53176e-05
-8.73776e-06
-0.0032521
-0.00323236
-0.00321425
-0.00320011
-0.00318702
-0.00317362
-0.00316022
-0.00314702
-0.00313387
-0.00312063
-0.00310725
-0.00309371
-0.00308
-0.00306611
-0.00305205
-0.00303783
-0.00302346
-0.00300896
-0.00299434
-0.00297963
-0.00296484
-0.00294997
-0.00293504
-0.00292006
-0.00290505
-0.00289
-0.00287493
-0.00285985
-0.00284475
-0.00282966
-0.00281462
-0.0027996
-0.00278465
-0.00276981
-0.00275509
-0.00274065
-0.0027269
-0.00271405
-0.00270216
-0.00269124
-0.00268115
-0.00267169
-0.00266235
-0.00265279
-0.00264275
-0.0026321
-0.00262077
-0.00260867
-0.00259578
-0.00258208
-0.00256763
-0.00255249
-0.00253674
-0.00252051
-0.00250383
-0.00248686
-0.00246965
-0.00245226
-0.00243483
-0.00241726
-0.00239978
-0.00238222
-0.00236465
-0.002347
-0.00232921
-0.00231122
-0.00229293
-0.00227426
-0.00225519
-0.00223574
-0.00221579
-0.00219531
-0.00217436
-0.00215291
-0.00213102
-0.00210871
-0.00208604
-0.00206311
-0.00203993
-0.00201676
-0.00199357
-0.00197043
-0.00194749
-0.00192485
-0.00190258
-0.00188079
-0.00185953
-0.00183882
-0.00181874
-0.00179926
-0.00178037
-0.00176205
-0.00174428
-0.00172693
-0.00171006
-0.0016935
-0.00167733
-0.00166141
-0.00164583
-0.00163048
-0.00161548
-0.00160075
-0.00158639
-0.00157236
-0.00155868
-0.00154539
-0.00153244
-0.00151985
-0.00150759
-0.00149563
-0.00148396
-0.00147253
-0.00146134
-0.00145036
-0.00143954
-0.00142887
-0.00141829
-0.00140777
-0.00139733
-0.00138697
-0.00137662
-0.00136623
-0.00135578
-0.00134524
-0.00133459
-0.00132379
-0.00131281
-0.00130162
-0.00129017
-0.00127844
-0.0012664
-0.00125402
-0.00124126
-0.00122809
-0.00121451
-0.00120048
-0.001186
-0.00117108
-0.00115572
-0.00113993
-0.00112376
-0.00110723
-0.00109042
-0.00107335
-0.00105611
-0.00103877
-0.00102133
-0.0010039
-0.000986463
-0.000968991
-0.00095157
-0.000933946
-0.000916173
-0.000897961
-0.00087934
-0.000860176
-0.000840177
-0.000819247
-0.000797127
-0.000773936
-0.000749422
-0.000724654
-0.000700001
-0.000675698
-0.000651975
-0.00062932
-0.000607584
-0.000586755
-0.000566386
-0.0005463
-0.000526555
-0.000507126
-0.000487914
-0.000468856
-0.000449975
-0.000431211
-0.00041242
-0.000393675
-0.000375105
-0.000356711
-0.000338425
-0.000320249
-0.000302249
-0.000284372
-0.000266563
-0.000248839
-0.000231257
-0.000213798
-0.000196338
-0.000178872
-0.000161478
-0.00014416
-0.000126913
-0.000109738
-9.26422e-05
-7.56368e-05
-5.87139e-05
-4.18838e-05
-2.51252e-05
-8.64872e-06
-0.00325142
-0.00323172
-0.00321379
-0.00319994
-0.00318706
-0.00317384
-0.00316061
-0.00314755
-0.00313452
-0.00312138
-0.00310807
-0.00309461
-0.00308096
-0.00306713
-0.00305313
-0.00303897
-0.00302467
-0.00301024
-0.00299572
-0.0029811
-0.00296641
-0.00295166
-0.00293687
-0.00292204
-0.00290718
-0.00289231
-0.00287743
-0.00286255
-0.00284768
-0.00283284
-0.00281804
-0.00280329
-0.00278861
-0.00277404
-0.0027596
-0.00274544
-0.00273184
-0.00271898
-0.00270695
-0.00269571
-0.00268515
-0.002675
-0.00266485
-0.00265435
-0.00264324
-0.00263142
-0.00261886
-0.00260551
-0.0025914
-0.00257655
-0.00256104
-0.00254498
-0.00252842
-0.00251153
-0.00249433
-0.00247695
-0.00245946
-0.00244189
-0.00242438
-0.00240681
-0.00238942
-0.00237202
-0.00235469
-0.00233737
-0.00232
-0.00230254
-0.00228486
-0.00226697
-0.00224877
-0.00223025
-0.00221134
-0.002192
-0.00217225
-0.00215206
-0.00213145
-0.00211044
-0.00208907
-0.0020674
-0.00204541
-0.00202333
-0.00200119
-0.00197901
-0.00195691
-0.00193495
-0.00191323
-0.00189184
-0.00187088
-0.00185034
-0.0018303
-0.00181078
-0.00179177
-0.00177326
-0.00175525
-0.00173763
-0.00172046
-0.00170359
-0.0016871
-0.00167086
-0.00165498
-0.00163932
-0.00162404
-0.00160904
-0.00159442
-0.00158015
-0.00156625
-0.00155275
-0.0015396
-0.00152681
-0.00151435
-0.00150215
-0.00149021
-0.00147846
-0.0014669
-0.00145551
-0.00144422
-0.001433
-0.00142184
-0.00141071
-0.00139961
-0.00138859
-0.00137753
-0.00136635
-0.00135507
-0.00134368
-0.00133215
-0.00132045
-0.00130855
-0.00129644
-0.00128407
-0.00127144
-0.00125851
-0.00124527
-0.00123169
-0.00121774
-0.00120345
-0.00118876
-0.0011737
-0.00115828
-0.0011425
-0.00112638
-0.00110998
-0.00109331
-0.00107646
-0.00105944
-0.00104236
-0.00102525
-0.00100814
-0.000991114
-0.000974196
-0.000957314
-0.000940599
-0.000923785
-0.000906981
-0.000889896
-0.000872566
-0.000854704
-0.000836104
-0.000816781
-0.000796272
-0.000774364
-0.000751359
-0.000727757
-0.000704072
-0.000680583
-0.00065752
-0.000635187
-0.000613522
-0.000592442
-0.000571656
-0.000551068
-0.000530723
-0.000510628
-0.000490757
-0.000471057
-0.000451535
-0.000432202
-0.000413011
-0.000393996
-0.000375206
-0.000356697
-0.000338348
-0.000320119
-0.00030212
-0.000284278
-0.000266532
-0.000248867
-0.000231288
-0.00021377
-0.000196265
-0.000178775
-0.000161332
-0.000143949
-0.000126635
-0.000109404
-9.22584e-05
-7.52423e-05
-5.83293e-05