/*--------------------------------*- C++ -*----------------------------------*\
| =========                 |                                                 |
| \\      /  F ield         | OpenFOAM: The Open Source CFD Toolbox           |
|  \\    /   O peration     | Version:  2506                                  |
|   \\  /    A nd           | Website:  www.openfoam.com                      |
|    \\/     M anipulation  |                                                 |
\*---------------------------------------------------------------------------*/
FoamFile
{
    version     2.0;
    format      ascii;
    arch        "LSB;label=32;scalar=64";
    class       volVectorField;
    location    "2.2";
    object      U;
}
// * * * * * * * * * * * * * * * * * * * * * * * * * * * * * * * * * * * * * //

dimensions      [0 1 -1 0 0 0 0];

internalField   nonuniform List<vector> 
4000
(
(0.0111819 0.000981946 0)
(0.00953949 0.0013119 2.82658e-21)
(0.00740207 0.00087704 -2.96214e-21)
(0.00552405 0.000485029 -6.17643e-21)
(0.0042809 0.000264941 1.2689e-20)
(0.00346284 0.000143223 -6.46424e-21)
(0.00289641 7.51312e-05 0)
(0.00249976 3.91497e-05 0)
(0.0022188 2.01312e-05 0)
(0.0020158 8.88123e-06 -1.31113e-20)
(0.00186606 1.68141e-06 1.3158e-20)
(0.00175326 -3.11676e-06 -2.61252e-20)
(0.00166623 -6.57673e-06 2.61777e-20)
(0.00159729 -9.1834e-06 0)
(0.00154082 -1.11369e-05 0)
(0.00149256 -1.26397e-05 0)
(0.00144936 -1.38532e-05 -2.56306e-20)
(0.0014089 -1.48649e-05 2.56516e-20)
(0.00136946 -1.57441e-05 0)
(0.00132979 -1.65534e-05 0)
(0.001289 -1.73328e-05 0)
(0.00124643 -1.81038e-05 0)
(0.00120154 -1.888e-05 0)
(0.00115386 -1.96698e-05 -4.96339e-20)
(0.00110295 -2.04772e-05 9.90861e-20)
(0.00104837 -2.13047e-05 -4.94554e-20)
(0.000989662 -2.21552e-05 0)
(0.000926359 -2.30323e-05 0)
(0.000857975 -2.39412e-05 0)
(0.000783977 -2.48714e-05 0)
(0.000703734 -2.5703e-05 4.81072e-20)
(0.000617 -2.60772e-05 -4.81878e-20)
(0.000525955 -2.724e-05 0)
(0.000401371 -2.27416e-05 -4.16179e-20)
(0.000271786 -4.26439e-06 -4.72133e-20)
(0.00024269 3.67147e-05 2.37487e-19)
(0.00032507 0.000113327 1.89509e-19)
(0.000457759 0.000220662 -4.75785e-20)
(0.000621313 0.00035996 1.89892e-19)
(0.000817146 0.000539522 4.26859e-19)
(0.00110439 0.000771172 -4.7396e-20)
(0.00147953 0.00103387 -3.76589e-19)
(0.00185529 0.00127069 3.75345e-19)
(0.00219279 0.00146191 0)
(0.00249746 0.00161174 0)
(0.00277262 0.00172554 2.33949e-20)
(0.00303944 0.00181042 3.51222e-19)
(0.00328304 0.00185707 3.51677e-19)
(0.0035026 0.00186942 2.11302e-19)
(0.00371112 0.00184794 1.88132e-19)
(0.00388667 0.0017863 -1.88456e-19)
(0.00403833 0.00168932 0)
(0.00413986 0.0015474 2.36166e-20)
(0.00419604 0.00136869 -4.02195e-19)
(0.00418767 0.00115039 0)
(0.00410411 0.000908224 9.45729e-20)
(0.00395567 0.00065066 2.3499e-20)
(0.00371176 0.000389568 -7.31296e-24)
(0.00342026 0.000147026 1.82892e-22)
(0.0030465 -7.31937e-05 1.19257e-20)
(0.00262645 -0.000250075 -2.31764e-20)
(0.00219877 -0.000376238 0)
(0.00176043 -0.000451663 0)
(0.00134787 -0.000481098 -4.50725e-20)
(0.000961863 -0.000468892 -3.1385e-19)
(0.000616581 -0.000428206 -4.39016e-20)
(0.000319244 -0.000364035 4.43233e-20)
(6.04355e-05 -0.000288592 -4.24785e-20)
(-0.000148955 -0.000206827 -1.25321e-19)
(-0.000323368 -0.000126699 2.8654e-19)
(-0.000461601 -5.39673e-05 4.02557e-20)
(-0.000570646 1.25992e-05 -1.26189e-21)
(-0.000658853 7.04228e-05 0)
(-0.000721347 0.000119742 0)
(-0.00076707 0.000160324 0)
(-0.000797706 0.000192203 1.7794e-20)
(-0.000813883 0.000216082 2.63475e-19)
(-0.000819564 0.000232933 0)
(-0.000817731 0.000243656 -1.24129e-21)
(-0.000808791 0.00024946 -1.65142e-20)
(-0.000795362 0.000251507 2.61492e-19)
(-0.000779481 0.000250648 -2.33809e-19)
(-0.000761695 0.000247489 -9.16489e-23)
(-0.000743219 0.000242561 -2.52334e-19)
(-0.000725166 0.000236271 -9.74283e-22)
(-0.000706945 0.000228909 2.38569e-19)
(-0.000689191 0.000220477 2.38498e-19)
(-0.000672654 0.000210808 -2.39151e-19)
(-0.000655002 0.000199829 3.59827e-21)
(-0.000636971 0.000187542 2.25659e-19)
(-0.000619443 0.000173766 0)
(-0.000599419 0.000158897 2.25404e-19)
(-0.000578798 0.000143135 2.08449e-19)
(-0.000557989 0.000126505 -2.12023e-19)
(-0.000534144 0.000109726 1.1752e-19)
(-0.000511493 9.24247e-05 -1.28781e-20)
(-0.000485678 7.57106e-05 -1.01378e-19)
(-0.00046087 5.89977e-05 -1.2429e-20)
(-0.000434288 4.35414e-05 -8.6228e-20)
(-0.000409469 2.89085e-05 -6.07687e-20)
(-0.000383723 1.73278e-05 2.40502e-20)
(-0.000359267 8.09629e-06 -5.96005e-20)
(-0.00033407 2.46276e-06 5.92891e-21)
(-0.000308447 2.83202e-07 5.89563e-21)
(-0.000280541 1.29083e-07 2.34353e-20)
(-0.000252276 2.89497e-06 0)
(-0.000221807 8.29909e-06 0)
(-0.000189277 1.78027e-05 1.84301e-19)
(-0.000153354 3.15223e-05 5.86614e-21)
(-0.000113083 5.04877e-05 -9.70726e-20)
(-6.72114e-05 7.5137e-05 -9.42701e-20)
(-1.57053e-05 0.000106188 -2.94961e-21)
(4.43613e-05 0.00014406 9.78382e-20)
(0.000109692 0.000189064 1.97198e-22)
(0.000185504 0.000241974 0)
(0.000269571 0.000302715 -1.89391e-19)
(0.000360735 0.000370623 5.88726e-21)
(0.000461897 0.000446401 1.76429e-19)
(0.000570656 0.000528815 5.89915e-21)
(0.000685715 0.000616997 1.87495e-19)
(0.000808985 0.000710873 4.06398e-22)
(0.000938616 0.000808634 -1.861e-19)
(0.00107179 0.000908471 -1.15473e-20)
(0.0012099 0.00100987 2.07706e-19)
(0.00135193 0.00111107 -1.15298e-20)
(0.00149591 0.00121006 -1.83216e-19)
(0.0016418 0.00130549 -2.2761e-20)
(0.00178816 0.00139551 2.28117e-20)
(0.00193409 0.00147898 -1.81495e-19)
(0.00208346 0.00155548 1.58271e-19)
(0.00223147 0.0016213 2.2641e-20)
(0.00237495 0.00167579 3.38213e-19)
(0.00252487 0.00172064 2.25744e-20)
(0.00267314 0.00175 1.80131e-19)
(0.00281314 0.0017635 -1.81088e-22)
(0.00296507 0.00176375 0)
(0.00310709 0.00174112 0)
(0.00324123 0.00169873 1.18572e-22)
(0.00337022 0.00163229 0)
(0.00348009 0.00153975 2.24028e-20)
(0.00356933 0.00141958 6.70946e-20)
(0.00362419 0.0012697 2.22942e-20)
(0.00362849 0.00109427 4.44225e-20)
(0.00358576 0.00089667 2.231e-20)
(0.00346088 0.000682807 6.58667e-20)
(0.00328119 0.000467459 -2.18571e-20)
(0.00301244 0.000256321 0)
(0.00266934 7.3661e-05 0)
(0.00228711 -7.51682e-05 0)
(0.00185572 -0.000177088 2.01084e-20)
(0.00142283 -0.000233561 -2.02341e-20)
(0.000984753 -0.000240166 -7.76329e-20)
(0.000571296 -0.000208437 -7.53847e-20)
(0.000195403 -0.000140931 0)
(-0.000140387 -5.42183e-05 7.01801e-20)
(-0.000421504 4.75922e-05 0)
(-0.000655191 0.000149487 1.54061e-20)
(-0.000829605 0.000246658 -7.64813e-20)
(-0.000949823 0.000324501 1.42504e-20)
(-0.000999825 0.000361403 -2.37285e-19)
(-0.00103085 0.000319368 5.32378e-20)
(-0.000959684 0.000253565 5.13589e-20)
(-0.000867783 0.000178789 0)
(-0.000739591 0.000110461 0)
(-0.000572776 5.29103e-05 0)
(-0.000363802 1.84405e-05 0)
(-9.52245e-05 3.28734e-07 0)
(0.000205457 9.90854e-07 -1.00011e-20)
(0.000464354 7.41933e-06 3.28534e-22)
(0.00066223 1.38216e-05 3.12509e-22)
(0.000807205 1.99046e-05 9.30427e-21)
(0.000907858 2.51083e-05 0)
(0.000973406 2.89308e-05 -8.37625e-21)
(0.00101334 3.12777e-05 8.36047e-21)
(0.00103647 3.23939e-05 -2.46982e-22)
(0.00105016 3.26326e-05 0)
(0.0010602 3.22497e-05 0)
(0.00107059 3.12851e-05 6.83399e-21)
(0.00108363 2.97633e-05 -6.82292e-21)
(0.00110019 2.78204e-05 0)
(0.00112001 2.56582e-05 0)
(0.00114206 2.34713e-05 2.59216e-21)
(0.00116479 2.14024e-05 -1.57699e-22)
(0.00118644 1.95286e-05 -2.6026e-21)
(0.00120533 1.78471e-05 0)
(0.00122004 1.63112e-05 0)
(0.00122943 1.49188e-05 0)
(0.00123296 1.39116e-05 0)
(0.00123079 1.34393e-05 -1.08207e-22)
(0.00122349 1.33017e-05 0)
(0.0012118 1.34443e-05 0)
(0.00119658 1.33738e-05 0)
(0.00117865 1.30148e-05 -5.26969e-22)
(0.00115903 1.2407e-05 5.2641e-22)
(0.00113872 1.15826e-05 0)
(0.0011186 1.0579e-05 -4.23372e-23)
(0.00109938 9.43693e-06 -1.13511e-22)
(0.00108141 8.17933e-06 7.54411e-23)
(0.00106358 7.24612e-06 3.79046e-23)
(0.00104564 9.26032e-06 0)
(0.0136224 0.00172553 0)
(0.0141904 0.00306336 0)
(0.0137246 0.00275078 0)
(0.0127318 0.00223826 -5.74646e-21)
(0.0115438 0.00168949 1.17924e-20)
(0.0104509 0.00122397 -6.0453e-21)
(0.00951732 0.000868459 0)
(0.00875221 0.000617131 -1.24703e-20)
(0.00814118 0.000444613 1.26601e-20)
(0.00765987 0.000324908 -1.26959e-20)
(0.00728267 0.000241699 1.28154e-20)
(0.00698569 0.000184085 2.55689e-20)
(0.0067492 0.000143906 -2.5717e-20)
(0.00655788 0.000116045 -2.55759e-20)
(0.00639951 9.73884e-05 1.31683e-22)
(0.00626424 8.55285e-05 5.11043e-20)
(0.00614446 7.86092e-05 -2.55532e-20)
(0.00603435 7.53446e-05 0)
(0.0059294 7.47686e-05 0)
(0.00582621 7.61311e-05 0)
(0.00572216 7.89257e-05 0)
(0.00561523 8.2859e-05 0)
(0.00550369 8.77781e-05 0)
(0.00538596 9.3625e-05 0)
(0.00526049 0.00010041 0)
(0.00512565 0.000108186 0)
(0.0049797 0.000117033 0)
(0.00482068 0.000127051 0)
(0.00464636 0.000138369 0)
(0.00445417 0.000151196 0)
(0.00424101 0.000165967 4.87955e-20)
(0.00400293 0.000183811 -2.80554e-22)
(0.00374224 0.000206263 -9.76865e-20)
(0.0034062 0.000237182 4.28739e-20)
(0.00305408 0.000287141 4.8843e-20)
(0.00289363 0.000390985 -1.47722e-19)
(0.0029716 0.000594903 1.96616e-19)
(0.00319293 0.000898901 4.9114e-20)
(0.00351291 0.0012904 -4.92927e-19)
(0.00393235 0.00176201 -1.47897e-19)
(0.004522 0.00231134 0)
(0.00524834 0.00289186 -4.87361e-20)
(0.00598804 0.00342428 -2.9105e-19)
(0.0066915 0.00387295 -4.83138e-20)
(0.00735856 0.00423304 -3.85045e-19)
(0.00799325 0.00450988 3.8407e-19)
(0.00861505 0.00471214 4.03579e-23)
(0.00920366 0.00482817 0)
(0.00976047 0.00486208 1.91247e-19)
(0.0102916 0.00481243 0)
(0.0107715 0.00467291 1.55837e-22)
(0.0112027 0.0044501 0)
(0.0115452 0.00412847 1.91191e-19)
(0.0118018 0.00372307 1.91524e-19)
(0.0119368 0.00323241 0)
(0.0119362 0.00267969 -1.87088e-22)
(0.0117952 0.002083 -9.52725e-20)
(0.0114693 0.00146198 -2.37755e-20)
(0.0110151 0.000856272 -4.7363e-20)
(0.0103731 0.000281506 1.19888e-20)
(0.00960409 -0.000225306 0)
(0.00874661 -0.000643437 -9.52155e-20)
(0.00782113 -0.000960252 4.79559e-20)
(0.00689127 -0.00117575 9.52559e-20)
(0.00596699 -0.00129114 2.85229e-19)
(0.00509943 -0.00132674 4.7746e-20)
(0.00429749 -0.00129008 -2.35109e-19)
(0.00357747 -0.00120684 4.72085e-20)
(0.00294808 -0.0010889 0)
(0.00239954 -0.000953825 -4.56138e-20)
(0.00193621 -0.000817417 4.57311e-20)
(0.00154695 -0.000682436 -2.56468e-21)
(0.00122021 -0.000559337 0)
(0.000958126 -0.000449917 3.47956e-19)
(0.000744955 -0.000355119 3.41959e-19)
(0.00057515 -0.000277868 -2.07582e-20)
(0.000445989 -0.000216861 2.06647e-20)
(0.000347788 -0.000169847 -1.99811e-20)
(0.000274413 -0.000136007 3.14376e-19)
(0.000223394 -0.000113149 -2.9088e-19)
(0.000188578 -9.80063e-05 3.04051e-19)
(0.000165237 -8.81305e-05 3.0476e-19)
(0.000151412 -8.17292e-05 -1.81773e-20)
(0.000144061 -7.77139e-05 2.94718e-19)
(0.000141044 -7.5752e-05 -2.75771e-19)
(0.000141733 -7.50652e-05 2.72037e-19)
(0.000143868 -7.5239e-05 -2.6865e-19)
(0.000147451 -7.73688e-05 2.61541e-19)
(0.000155199 -8.10326e-05 8.00071e-21)
(0.000164711 -8.58787e-05 -7.91253e-21)
(0.000176878 -9.3289e-05 0)
(0.000194656 -0.000102329 0)
(0.000214411 -0.000111772 -1.18742e-19)
(0.000237646 -0.000122132 1.30253e-19)
(0.00026556 -0.000131113 -1.13689e-19)
(0.000295233 -0.000139281 -2.78816e-20)
(0.000329886 -0.000144439 -2.26825e-22)
(0.000366054 -0.000147124 9.04879e-23)
(0.00040613 -0.000145384 2.3757e-19)
(0.000449225 -0.000139873 3.88539e-20)
(0.00049739 -0.000127958 -5.12307e-20)
(0.000548387 -0.000110161 5.05496e-20)
(0.000605432 -8.53694e-05 0)
(0.000665588 -5.35441e-05 6.18268e-21)
(0.00073332 -1.58905e-05 -6.18312e-21)
(0.00080801 2.87038e-05 0)
(0.000893042 8.0206e-05 0)
(0.000989386 0.000140603 -9.79294e-20)
(0.00109794 0.000210762 9.77062e-20)
(0.00122064 0.00029252 -1.00753e-19)
(0.00135864 0.000387334 1.95777e-19)
(0.00151213 0.000496623 2.09709e-23)
(0.00168404 0.000621803 3.07008e-21)
(0.00187063 0.000763759 9.80388e-20)
(0.00207737 0.000923675 0)
(0.00230137 0.00110179 0)
(0.00254038 0.00129714 0)
(0.00279743 0.0015098 -2.00927e-19)
(0.00306883 0.00173778 -1.87443e-19)
(0.00335262 0.00197892 0)
(0.00365057 0.00223152 2.17048e-19)
(0.00395956 0.002492 -3.60356e-20)
(0.00427618 0.00275646 2.39168e-20)
(0.00460185 0.00302208 -1.19566e-20)
(0.00493491 0.0032846 2.36966e-20)
(0.00527314 0.00353962 -1.8949e-19)
(0.00561633 0.00378316 1.65196e-19)
(0.00596297 0.00401087 -2.12033e-19)
(0.00631298 0.0042192 1.1093e-22)
(0.00667053 0.00440532 -1.64702e-19)
(0.00702959 0.0045628 0)
(0.00738869 0.00468921 -1.87823e-19)
(0.00775965 0.00478399 2.33829e-20)
(0.008131 0.00483785 1.63624e-19)
(0.00849925 0.00484879 -1.8733e-19)
(0.0088837 0.00481792 2.33105e-20)
(0.00925471 0.0047313 -2.33928e-20)
(0.00961669 0.00459213 2.35512e-20)
(0.00996329 0.00439111 -2.3317e-20)
(0.0102773 0.00412728 2.31114e-20)
(0.0105474 0.00379786 -1.15869e-19)
(0.0107512 0.00340262 1.14752e-19)
(0.0108609 0.00294762 -1.1479e-19)
(0.0108704 0.00244378 0)
(0.0107263 0.00190211 -2.24855e-20)
(0.0104603 0.0013521 2.21963e-20)
(0.0100097 0.000807765 1.09469e-20)
(0.00940152 0.000308063 0)
(0.00866731 -0.000126777 2.13498e-20)
(0.00780095 -0.000471244 -4.21019e-20)
(0.00687933 -0.00071894 0)
(0.00589384 -0.000856265 8.1576e-20)
(0.00491891 -0.000900086 1.96987e-20)
(0.00396988 -0.000850535 -1.99622e-20)
(0.00308768 -0.000739645 0)
(0.00228339 -0.000575385 -7.4932e-20)
(0.00156932 -0.000389981 7.24276e-20)
(0.000960247 -0.000196598 -7.07836e-20)
(0.000456932 -2.64446e-05 0)
(5.67963e-05 0.000101564 1.3081e-19)
(-0.000155825 4.23404e-05 7.82642e-20)
(-5.57567e-05 -9.2589e-05 -1.34237e-19)
(0.000154222 -0.000235022 1.38611e-20)
(0.000464901 -0.000361647 -1.36026e-20)
(0.000885104 -0.000460224 -1.23859e-20)
(0.00140717 -0.000504798 -1.15051e-20)
(0.00204448 -0.000502402 1.00987e-20)
(0.00271469 -0.000443492 6.72087e-22)
(0.00329091 -0.000354921 0)
(0.00374575 -0.00026602 -6.15633e-22)
(0.00409495 -0.000188567 0)
(0.00435588 -0.000126038 5.68926e-22)
(0.00454645 -7.93101e-05 8.61918e-21)
(0.00468525 -4.74833e-05 -9.11226e-21)
(0.00478964 -2.83178e-05 7.6019e-22)
(0.00487403 -1.89466e-05 -7.62991e-21)
(0.00494924 -1.65091e-05 1.44362e-20)
(0.00502248 -1.84756e-05 -1.42343e-20)
(0.00509778 -2.26386e-05 7.36047e-21)
(0.00517636 -2.71001e-05 0)
(0.00525716 -3.03655e-05 -3.35085e-21)
(0.00533753 -3.14171e-05 3.13948e-21)
(0.00541394 -2.97327e-05 3.38347e-22)
(0.00548263 -2.52845e-05 2.463e-21)
(0.00554019 -1.84622e-05 -2.15903e-21)
(0.00558403 -9.93833e-06 -2.13554e-21)
(0.00561263 -4.89926e-07 2.38676e-21)
(0.0056257 9.31073e-06 -2.05458e-21)
(0.00562376 1.90055e-05 3.58669e-21)
(0.00560822 2.77011e-05 -2.21668e-21)
(0.00558137 3.52066e-05 7.53188e-22)
(0.00554583 4.09689e-05 1.59628e-22)
(0.00550461 4.46715e-05 0)
(0.00546054 4.64365e-05 -3.30065e-22)
(0.00541614 4.65084e-05 4.51639e-22)
(0.0053735 4.52275e-05 -2.38498e-23)
(0.00533425 4.30175e-05 1.50902e-22)
(0.00529932 4.04113e-05 0)
(0.00526804 3.81713e-05 0)
(0.00524015 3.98896e-05 1.04169e-23)
(0.0135633 0.00102921 0)
(0.0142019 0.00223514 2.79737e-21)
(0.0147525 0.00261245 -2.75712e-21)
(0.0150423 0.00255841 -5.48451e-21)
(0.0148512 0.002337 5.51819e-21)
(0.0144586 0.00200193 0)
(0.0139314 0.00164016 0)
(0.0133654 0.00131435 0)
(0.0128246 0.00103972 1.1454e-20)
(0.0123364 0.000815461 -2.31422e-20)
(0.0119105 0.000639952 -1.15596e-20)
(0.0115452 0.000506267 2.34399e-20)
(0.0112343 0.000405446 2.33886e-20)
(0.0109702 0.000330915 -2.35368e-20)
(0.0107445 0.000277675 0)
(0.0105485 0.000241031 2.34049e-20)
(0.0103744 0.000217134 -4.68638e-20)
(0.0102159 0.000203139 2.34474e-20)
(0.0100673 0.000196729 0)
(0.00992396 0.000196019 0)
(0.0097821 0.000199667 0)
(0.00963868 0.000206839 0)
(0.00949103 0.00021707 0)
(0.00933673 0.000230167 4.58835e-20)
(0.00917341 0.000246151 -4.60086e-20)
(0.00899867 0.000265196 0)
(0.0088099 0.00028759 0)
(0.00860417 0.000313721 0)
(0.0083782 0.000344099 0)
(0.00812815 0.000379431 0)
(0.00784959 0.000420798 4.51636e-20)
(0.00753645 0.000470125 -4.53871e-20)
(0.00719101 0.000530917 0)
(0.00676265 0.000604104 -2.82802e-21)
(0.0063049 0.000707963 0)
(0.00603141 0.000891278 9.20423e-20)
(0.0060188 0.00119668 -1.84179e-19)
(0.00620257 0.00162801 0)
(0.00654211 0.00216895 3.67773e-19)
(0.00703348 0.0027977 4.34914e-24)
(0.00772606 0.00349211 4.54686e-20)
(0.00856985 0.00419538 -4.52382e-20)
(0.009452 0.00484212 3.59163e-19)
(0.0103259 0.00540139 0)
(0.0111832 0.00586285 4.00265e-19)
(0.012022 0.00622588 -3.76679e-19)
(0.0128518 0.00649545 -3.75353e-19)
(0.0136524 0.00665785 0)
(0.014425 0.0067138 -1.75653e-19)
(0.0151688 0.00666008 0)
(0.0158624 0.0064921 3.50273e-19)
(0.0165014 0.00621557 0)
(0.0170499 0.0058166 -1.53301e-19)
(0.0175073 0.00531035 -1.96427e-19)
(0.0178371 0.00469586 -1.73758e-19)
(0.0180227 0.00399218 -8.67345e-20)
(0.0180507 0.00321839 -8.59635e-20)
(0.0178766 0.00239344 -4.29101e-20)
(0.0175383 0.00155881 2.14253e-20)
(0.0169734 0.000730641 3.19928e-20)
(0.0162298 -4.70545e-05 0)
(0.0153266 -0.00074648 8.49618e-20)
(0.0142851 -0.00134434 -8.49763e-20)
(0.0131685 -0.00182687 0)
(0.0119902 -0.00218661 -3.40584e-19)
(0.0108213 -0.00243376 0)
(0.00967647 -0.00257166 -4.23503e-20)
(0.00859829 -0.00262453 4.29077e-20)
(0.00760306 -0.0026047 0)
(0.00669847 -0.00253329 -4.20057e-20)
(0.00589904 -0.00242962 4.23638e-20)
(0.00519396 -0.00230266 4.58562e-19)
(0.00458029 -0.00217109 -2.89827e-19)
(0.00405727 -0.00204069 2.10941e-21)
(0.00360939 -0.00191565 -3.21473e-19)
(0.00323067 -0.00180234 -1.9739e-20)
(0.0029157 -0.00170113 3.34039e-19)
(0.00265227 -0.00161065 0)
(0.00243276 -0.00153132 3.04016e-19)
(0.00225265 -0.00146142 5.76743e-19)
(0.00210428 -0.00139772 -5.56928e-19)
(0.00198101 -0.00133795 -2.96713e-19)
(0.001878 -0.00127999 2.90962e-19)
(0.00179003 -0.00122258 -2.83748e-19)
(0.00171411 -0.00116591 0)
(0.00164804 -0.0011095 -2.64588e-19)
(0.0015883 -0.00105333 -3.43602e-21)
(0.00153526 -0.000999407 -5.17546e-19)
(0.00149012 -0.000947247 -2.3519e-19)
(0.00144958 -0.000896604 -2.53652e-19)
(0.00141568 -0.000849112 0)
(0.00139072 -0.000803847 0)
(0.0013718 -0.000759553 1.1535e-19)
(0.00136105 -0.000716685 0)
(0.00135833 -0.000672697 1.38342e-20)
(0.00136262 -0.000627985 -1.36608e-20)
(0.00137535 -0.00058034 1.06756e-19)
(0.00139502 -0.000529988 -1.04999e-19)
(0.00142261 -0.000475202 -9.02013e-20)
(0.0014588 -0.000416797 -1.27215e-20)
(0.0015052 -0.000353482 4.99669e-20)
(0.00156129 -0.000285428 -2.46566e-20)
(0.0016306 -0.000212006 1.82763e-20)
(0.00171172 -0.000132423 -6.06079e-21)
(0.00180974 -4.58461e-05 0)
(0.00192406 4.95183e-05 -4.7661e-20)
(0.00205815 0.000154589 0)
(0.00221308 0.000271528 -9.45348e-20)
(0.00238953 0.000402064 -1.78477e-22)
(0.00258913 0.000548419 9.12966e-20)
(0.00281247 0.000712657 -9.40042e-20)
(0.00305921 0.000896662 2.93732e-21)
(0.00333133 0.00110202 0)
(0.00362468 0.00132995 -9.29661e-20)
(0.0039434 0.00158116 9.26571e-20)
(0.00428419 0.00185583 0)
(0.00464426 0.00215292 -5.72897e-21)
(0.00502557 0.0024714 1.88609e-19)
(0.00542429 0.00280888 1.71186e-19)
(0.00583817 0.0031624 -1.69687e-19)
(0.00626822 0.0035288 1.80157e-19)
(0.0067113 0.0039036 1.1183e-20)
(0.00716438 0.00428192 -1.67372e-19)
(0.00762842 0.00465915 -2.22975e-20)
(0.00810179 0.00502963 -1.98966e-19)
(0.00858273 0.00538767 3.9692e-19)
(0.00907106 0.00572761 -1.97999e-19)
(0.0095657 0.00604357 1.5355e-19)
(0.0100669 0.00633028 -1.30832e-19)
(0.0105778 0.00658277 -2.17581e-19)
(0.0110939 0.00679366 -1.30147e-19)
(0.0116143 0.00695912 -2.17236e-20)
(0.0121475 0.00707582 -1.51127e-19)
(0.0126839 0.00713329 -1.94481e-19)
(0.013222 0.00712907 2.14726e-20)
(0.0137738 0.00706168 -2.15047e-20)
(0.0143126 0.00691895 -6.40334e-20)
(0.0148412 0.00670156 -2.09337e-20)
(0.0153492 0.00640053 2.1174e-20)
(0.0158205 0.00601587 -2.12282e-20)
(0.0162401 0.00554628 8.38469e-20)
(0.0165843 0.00499345 -2.153e-20)
(0.0168253 0.00436279 2.3557e-22)
(0.0169506 0.0036697 2.06994e-20)
(0.0169106 0.00292457 8.11308e-20)
(0.0167248 0.00215898 0)
(0.0163303 0.00138752 -3.92159e-20)
(0.0157457 0.000651794 2.4469e-20)
(0.0149858 -2.33288e-05 -1.91832e-20)
(0.0140392 -0.000608117 5.63078e-20)
(0.0129754 -0.00108443 1.81711e-20)
(0.0117776 -0.00143463 -7.29991e-20)
(0.0105314 -0.00166315 -8.94005e-20)
(0.00924634 -0.00176641 3.52909e-20)
(0.00798908 -0.00176932 -8.709e-20)
(0.00677236 -0.00167987 6.79392e-20)
(0.00563536 -0.00153247 1.63754e-20)
(0.00459599 -0.00134497 6.44462e-20)
(0.00368975 -0.00116015 -1.62517e-20)
(0.00289406 -0.000981879 6.23065e-20)
(0.00244519 -0.000996008 -5.96922e-20)
(0.00242363 -0.00109598 4.2701e-20)
(0.00260518 -0.00119461 1.36665e-20)
(0.00293813 -0.00126636 2.52766e-20)
(0.00343321 -0.00129933 0)
(0.00406442 -0.00126695 2.21186e-20)
(0.00482952 -0.00117657 -1.9762e-20)
(0.0056204 -0.00102372 -2.76513e-22)
(0.00631057 -0.000835773 3.25883e-22)
(0.00687619 -0.000648727 8.81727e-22)
(0.00733196 -0.000482577 8.96805e-21)
(0.00769268 -0.000345635 -5.30535e-22)
(0.00797413 -0.000240682 0)
(0.00819437 -0.000166732 4.90871e-22)
(0.00837151 -0.000120019 -4.7145e-22)
(0.00852147 -9.52103e-05 -7.98764e-21)
(0.00865678 -8.63763e-05 7.48575e-21)
(0.00878626 -8.76204e-05 6.45063e-21)
(0.00891501 -9.35426e-05 -6.81335e-21)
(0.00904479 -9.96048e-05 0)
(0.00917455 -0.000102361 3.52462e-22)
(0.00930114 -9.95476e-05 0)
(0.00942019 -9.00947e-05 2.11205e-21)
(0.00952694 -7.40487e-05 -1.46758e-22)
(0.00961697 -5.23719e-05 -2.53538e-21)
(0.00968679 -2.66541e-05 -5.0866e-22)
(0.00973422 1.1795e-06 -2.36503e-22)
(0.00975853 2.9102e-05 2.1827e-22)
(0.00976039 5.52e-05 0)
(0.00974174 7.79279e-05 -1.82551e-22)
(0.00970567 9.6225e-05 -6.23795e-22)
(0.00965605 0.000109594 4.75451e-22)
(0.00959711 0.00011788 4.84851e-22)
(0.00953295 0.000121313 -5.97106e-22)
(0.00946735 0.000120459 0)
(0.00940353 0.000116139 -9.51429e-23)
(0.00934406 0.000109333 -1.3891e-22)
(0.00929063 0.000101191 -3.49445e-23)
(0.00924398 9.2676e-05 3.49065e-23)
(0.00920041 8.81697e-05 -9.57706e-24)
(0.0134698 0.000548359 0)
(0.0138389 0.00143788 0)
(0.0144381 0.0019498 0)
(0.0150215 0.00217148 -5.50739e-21)
(0.0154056 0.00220695 5.4732e-21)
(0.0156322 0.00209611 0)
(0.0156183 0.00189649 0)
(0.0155048 0.00166228 0)
(0.0153079 0.0014222 0)
(0.0150558 0.00119553 0)
(0.0147837 0.000997841 0)
(0.0145143 0.000830744 2.20356e-20)
(0.0142583 0.000692202 -2.21851e-20)
(0.0140214 0.000581796 2.21012e-20)
(0.0138046 0.000497576 -4.43237e-20)
(0.0136066 0.000435424 2.22074e-20)
(0.013425 0.000391633 2.20686e-20)
(0.0132567 0.000363295 -2.21453e-20)
(0.0130979 0.000347501 0)
(0.012945 0.000341638 0)
(0.0127945 0.000343723 -4.37338e-20)
(0.0126435 0.000352415 4.38425e-20)
(0.012489 0.000366881 0)
(0.0123284 0.000386728 4.33413e-20)
(0.0121591 0.000411933 -4.34491e-20)
(0.0119784 0.000442766 0)
(0.0117833 0.000479727 0)
(0.0115708 0.000523522 -4.28306e-20)
(0.0113373 0.000575084 2.46108e-22)
(0.0110787 0.000635646 4.28636e-20)
(0.0107906 0.000706918 4.25279e-20)
(0.0104666 0.000791381 -8.51573e-20)
(0.0101086 0.000893644 4.26449e-20)
(0.00967623 0.00101284 -3.96786e-20)
(0.00920958 0.00116913 4.28277e-20)
(0.00888843 0.00141097 4.32442e-20)
(0.00880073 0.0017706 -4.37274e-20)
(0.00891904 0.00225167 -1.30718e-19)
(0.00921995 0.00283982 -2.17153e-19)
(0.00969915 0.00350762 -4.30682e-20)
(0.0103855 0.00422241 4.29772e-20)
(0.0112243 0.00492966 3.83698e-19)
(0.0121209 0.00558247 -3.81663e-19)
(0.0130334 0.00615751 -3.79839e-19)
(0.013949 0.00664215 8.41137e-20)
(0.0148611 0.00703011 -6.28833e-20)
(0.0157721 0.00732446 1.87923e-19)
(0.0166638 0.00750025 0)
(0.0175335 0.00756233 1.87085e-19)
(0.0183771 0.00750661 -2.07465e-20)
(0.0191765 0.00733216 -1.65746e-19)
(0.0199263 0.00705344 -2.06295e-20)
(0.0206008 0.00663564 2.06165e-19)
(0.0211945 0.00610116 1.44614e-19)
(0.0216788 0.00545146 1.64915e-19)
(0.0220368 0.0047043 8.1384e-20)
(0.0222542 0.00387434 2.05442e-20)
(0.0222941 0.00297644 -2.00759e-20)
(0.0221743 0.00204699 -1.99096e-20)
(0.0218416 0.00109803 -2.94139e-20)
(0.0213221 0.000171443 -1.94063e-20)
(0.0206171 -0.000705647 0)
(0.0197356 -0.00150653 -7.74937e-20)
(0.0187227 -0.00220799 0)
(0.017586 -0.00279678 2.7092e-19)
(0.0163926 -0.00326736 1.55255e-19)
(0.0151581 -0.0036177 3.89395e-20)
(0.0139366 -0.00385901 0)
(0.0127514 -0.00400069 0)
(0.0116253 -0.00405968 1.54792e-19)
(0.0105843 -0.00405487 0)
(0.00962548 -0.0039973 -3.45037e-19)
(0.00875866 -0.00390742 3.42932e-19)
(0.00798593 -0.00379527 -3.21064e-19)
(0.0072972 -0.00366869 2.71083e-22)
(0.00669007 -0.00353701 2.66998e-22)
(0.00615953 -0.00340342 -2.56423e-19)
(0.00569425 -0.00326906 -3.63141e-20)
(0.00528722 -0.0031362 -2.67524e-19)
(0.00493319 -0.00300488 -2.81402e-19)
(0.00462389 -0.00287348 -1.79105e-21)
(0.00435193 -0.00274148 2.64143e-19)
(0.00411145 -0.00260795 -2.59672e-19)
(0.00389629 -0.00247218 0)
(0.00370237 -0.00233504 -4.0371e-21)
(0.00352595 -0.002197 -2.51962e-19)
(0.00336222 -0.00205917 4.99651e-19)
(0.00321094 -0.00192474 7.40384e-19)
(0.00307226 -0.00179448 2.48967e-19)
(0.00294319 -0.00166896 -8.54912e-21)
(0.00282602 -0.00155005 0)
(0.00272291 -0.00143706 -7.13368e-21)
(0.00263169 -0.00132912 7.06678e-21)
(0.00255522 -0.00122666 0)
(0.00249346 -0.00112709 -1.08635e-19)
(0.00244648 -0.00103063 1.32462e-20)
(0.00241539 -0.000935155 -1.31153e-20)
(0.00239972 -0.000840663 -2.23141e-22)
(0.00240004 -0.00074535 -1.01019e-19)
(0.00241784 -0.000649659 1.23609e-20)
(0.00245453 -0.000551935 -2.44544e-20)
(0.00251046 -0.000451967 1.21e-20)
(0.00258903 -0.00034837 3.83199e-24)
(0.0026894 -0.000239483 5.87436e-21)
(0.00281656 -0.000123746 -5.86192e-21)
(0.00296942 1.77684e-06 4.63967e-20)
(0.00315114 0.000139087 4.89251e-20)
(0.00336188 0.00029126 8.88308e-20)
(0.00360159 0.000460917 -1.82358e-19)
(0.00387083 0.000650702 8.78262e-20)
(0.00416908 0.000863034 2.83238e-21)
(0.00449492 0.00109988 2.79826e-21)
(0.00484915 0.00136268 -2.80503e-21)
(0.00522686 0.00165237 8.90768e-20)
(0.00563101 0.00196916 -5.7518e-21)
(0.00605759 0.00231247 4.00379e-23)
(0.00650373 0.00268107 -7.64086e-20)
(0.0069704 0.00307288 -2.66394e-19)
(0.00745395 0.00348488 1.72617e-19)
(0.00795229 0.00391357 1.72049e-19)
(0.008466 0.00435472 -1.81698e-19)
(0.00899242 0.00480318 -1.59077e-19)
(0.00952932 0.0052535 1.58697e-19)
(0.0100775 0.00569999 1.89078e-19)
(0.0106357 0.00613612 1.57141e-19)
(0.0112031 0.00655548 -2.11213e-20)
(0.0117795 0.00695143 2.08211e-20)
(0.0123645 0.00731715 0)
(0.0129585 0.00764622 1.85763e-19)
(0.0135637 0.00793226 1.64577e-19)
(0.0141768 0.00816772 1.43672e-19)
(0.014797 0.00834795 0)
(0.0154291 0.00846783 1.83555e-19)
(0.0160664 0.00851634 -2.03605e-20)
(0.0167081 0.00849019 6.05313e-20)
(0.0173595 0.00838676 2.02027e-20)
(0.0179986 0.00819781 5.21923e-22)
(0.0186245 0.00792249 1.0008e-19)
(0.0192279 0.00755372 -1.99521e-20)
(0.0197945 0.00709231 9.83835e-20)
(0.0203095 0.00653926 -1.76938e-19)
(0.0207516 0.00589787 -1.56269e-19)
(0.0210993 0.00517522 -7.7142e-20)
(0.0213379 0.00438631 0)
(0.0214273 0.00354174 1.82208e-20)
(0.0213767 0.002669 -2.79643e-22)
(0.0211354 0.00178135 -8.86088e-21)
(0.0207102 0.000915883 3.12037e-20)
(0.020103 9.63062e-05 -1.76957e-20)
(0.0192953 -0.000650305 3.41476e-20)
(0.0183358 -0.00129904 -3.38173e-20)
(0.017199 -0.00183288 0)
(0.0159573 -0.00224224 8.11119e-20)
(0.0146099 -0.00252094 -3.19112e-20)
(0.0132265 -0.00267874 6.32926e-20)
(0.0118164 -0.00272129 1.5686e-20)
(0.0104332 -0.00267339 -7.55552e-20)
(0.00909699 -0.00255256 1.51606e-20)
(0.00788297 -0.00240489 0)
(0.00675485 -0.00222812 -7.11823e-20)
(0.00604271 -0.00219009 5.59508e-22)
(0.00579124 -0.00222437 5.2267e-22)
(0.00580587 -0.00224885 4.97697e-22)
(0.00601256 -0.0022339 -2.31259e-20)
(0.00642108 -0.00217173 4.36078e-22)
(0.00699152 -0.00204225 1.94681e-22)
(0.00770691 -0.0018541 9.66752e-21)
(0.00844966 -0.00160949 -8.37584e-21)
(0.0091059 -0.00133333 -8.84368e-21)
(0.00965826 -0.00106077 -7.89181e-22)
(0.0101208 -0.000815528 8.45803e-21)
(0.0105039 -0.000609757 -1.00148e-21)
(0.0108178 -0.0004486 -7.57752e-21)
(0.0110754 -0.000331974 7.5456e-21)
(0.0112911 -0.000255628 8.90118e-22)
(0.0114782 -0.000212528 8.53317e-22)
(0.0116482 -0.000194213 0)
(0.0118095 -0.000191872 -6.08436e-21)
(0.0119675 -0.000197167 6.05348e-21)
(0.0121243 -0.00020289 0)
(0.0122793 -0.00020341 6.62718e-22)
(0.0124298 -0.000194898 0)
(0.0125713 -0.000175452 -5.87221e-22)
(0.012699 -0.000145011 -2.13406e-21)
(0.0128078 -0.000105049 2.12708e-21)
(0.0128938 -5.81332e-05 4.79612e-22)
(0.0129542 -7.45497e-06 -4.43588e-22)
(0.0129874 4.35684e-05 0)
(0.0129939 9.16829e-05 1.43872e-21)
(0.0129754 0.000134155 -1.43715e-21)
(0.0129349 0.000168932 -3.09082e-22)
(0.0128767 0.000194828 -5.20918e-22)
(0.0128054 0.000211445 5.20238e-22)
(0.0127258 0.000219112 -3.90921e-22)
(0.0126426 0.000218774 3.90624e-22)
(0.0125599 0.000211829 1.47165e-22)
(0.0124811 0.000199954 9.83036e-23)
(0.0124084 0.000185075 -6.53542e-23)
(0.0123447 0.000168536 -8.22227e-23)
(0.0122789 0.000153939 0)
(0.0134505 0.000334822 0)
(0.0136027 0.000950695 0)
(0.0139982 0.00140047 0)
(0.0145569 0.00167109 -5.6012e-21)
(0.0150671 0.00179792 5.54601e-21)
(0.0154606 0.00181399 0)
(0.0157417 0.0017496 -1.08642e-20)
(0.0159286 0.00162677 1.08541e-20)
(0.0160494 0.00147383 1.07762e-20)
(0.0160573 0.00131276 -2.15564e-20)
(0.0160203 0.00115656 1.07899e-20)
(0.015944 0.00101039 0)
(0.0158377 0.000878397 0)
(0.0157138 0.000766321 -2.14272e-20)
(0.0155827 0.000675523 1.05973e-22)
(0.015449 0.000603838 4.28429e-20)
(0.0153166 0.000550039 -2.14348e-20)
(0.0151867 0.000513256 0)
(0.015059 0.000491182 0)
(0.0149322 0.000481452 -2.11556e-20)
(0.014805 0.000482264 2.12e-20)
(0.0146755 0.000492294 0)
(0.0145416 0.000510614 0)
(0.0144011 0.000536756 4.17331e-20)
(0.0142518 0.000570703 -8.3391e-20)
(0.0140911 0.000612814 4.16592e-20)
(0.0139165 0.000663774 4.12759e-20)
(0.013725 0.000724563 -2.34177e-22)
(0.0135136 0.000796464 -8.21988e-20)
(0.0132784 0.000881122 4.10781e-20)
(0.0130158 0.000980689 4.07091e-20)
(0.0127203 0.00109792 -2.36746e-22)
(0.0123934 0.00123767 -4.07025e-20)
(0.012005 0.00139899 -4.03213e-20)
(0.0115839 0.00160008 4.07593e-20)
(0.0112712 0.00188209 0)
(0.0111519 0.00226707 1.6749e-19)
(0.0112241 0.00275534 3.33597e-19)
(0.0114799 0.00333434 0)
(0.011917 0.00397734 -1.65251e-19)