/*--------------------------------*- C++ -*----------------------------------*\
| =========                 |                                                 |
| \\      /  F ield         | OpenFOAM: The Open Source CFD Toolbox           |
|  \\    /   O peration     | Version:  2506                                  |
|   \\  /    A nd           | Website:  www.openfoam.com                      |
|    \\/     M anipulation  |                                                 |
\*---------------------------------------------------------------------------*/
FoamFile
{
    version     2.0;
    format      ascii;
    arch        "LSB;label=32;scalar=64";
    class       surfaceScalarField;
    location    "3.95";
    object      phi;
}
// * * * * * * * * * * * * * * * * * * * * * * * * * * * * * * * * * * * * * //

dimensions      [0 3 -1 0 0 0 0];

oriented        oriented;

internalField   nonuniform List<scalar> 
7780
(
4.0836e-10
-4.0836e-10
7.04001e-10
-2.95641e-10
8.78822e-10
-1.74821e-10
9.98836e-10
-1.20014e-10
1.08706e-09
-8.82197e-11
1.15445e-09
-6.73933e-11
1.20802e-09
-5.35747e-11
1.25207e-09
-4.40435e-11
1.28923e-09
-3.71634e-11
1.32125e-09
-3.20155e-11
1.34929e-09
-2.80467e-11
1.3742e-09
-2.49083e-11
1.39655e-09
-2.23506e-11
1.41675e-09
-2.02016e-11
1.43512e-09
-1.83637e-11
1.45189e-09
-1.6774e-11
1.46728e-09
-1.53908e-11
1.48146e-09
-1.41826e-11
1.49461e-09
-1.31412e-11
1.50686e-09
-1.22595e-11
1.51841e-09
-1.15427e-11
1.52941e-09
-1.10047e-11
1.54009e-09
-1.0678e-11
1.5507e-09
-1.06053e-11
1.56157e-09
-1.08764e-11
1.57313e-09
-1.15596e-11
1.58597e-09
-1.28347e-11
1.60089e-09
-1.49275e-11
1.61918e-09
-1.82842e-11
1.64287e-09
-2.36898e-11
1.66951e-09
-5.72185e-11
1.67269e-09
-2.18868e-10
1.64858e-09
-4.25068e-10
1.60309e-09
-6.13926e-10
1.54006e-09
-7.7505e-10
1.47184e-09
-9.20908e-10
1.40792e-09
-1.05961e-09
1.31888e-09
-1.23179e-09
1.21474e-09
-1.34132e-09
1.12616e-09
-1.38706e-09
1.05283e-09
-1.42307e-09
9.9578e-10
-1.45275e-09
9.51339e-10
-1.47333e-09
9.16895e-10
-1.48622e-09
8.90423e-10
-1.49213e-09
8.69527e-10
-1.49059e-09
8.53384e-10
-1.48071e-09
8.39107e-10
-1.46271e-09
8.24096e-10
-1.43503e-09
8.05298e-10
-1.39594e-09
7.8104e-10
-1.34236e-09
7.53855e-10
-1.27037e-09
7.18789e-10
-1.18351e-09
6.8422e-10
-1.06852e-09
6.54427e-10
-9.27725e-10
6.45811e-10
-7.48611e-10
6.65504e-10
-5.40218e-10
7.29409e-10
-2.82873e-10
8.3538e-10
-3.25576e-13
9.56031e-10
2.85179e-10
1.07608e-09
5.45048e-10
1.18678e-09
7.86337e-10
1.27588e-09
9.57331e-10
1.35025e-09
1.10894e-09
1.40936e-09
1.21039e-09
1.45851e-09
1.29275e-09
1.50057e-09
1.35666e-09
1.53756e-09
1.40064e-09
1.57141e-09
1.43377e-09
1.60285e-09
1.45865e-09
1.6331e-09
1.47661e-09
1.66229e-09
1.48732e-09
1.69072e-09
1.49204e-09
1.71875e-09
1.49144e-09
1.74649e-09
1.48571e-09
1.77398e-09
1.47469e-09
1.80116e-09
1.45779e-09
1.82778e-09
1.4306e-09
1.85414e-09
1.39724e-09
1.88008e-09
1.35429e-09
1.90584e-09
1.29804e-09
1.92962e-09
1.21322e-09
1.95278e-09
1.1183e-09
1.97289e-09
9.76754e-10
1.99057e-09
8.10031e-10
2.00189e-09
5.66533e-10
2.00816e-09
2.96618e-10
2.00899e-09
-6.47373e-12
2.00732e-09
-3.25399e-10
2.00522e-09
-6.09571e-10
2.00516e-09
-8.28905e-10
2.00603e-09
-1.01766e-09
2.00583e-09
-1.14215e-09
2.00306e-09
-1.25016e-09
1.995e-09
-1.31603e-09
1.97974e-09
-1.36576e-09
1.95813e-09
-1.40824e-09
1.92973e-09
-1.43298e-09
1.89661e-09
-1.4521e-09
1.86088e-09
-1.46671e-09
1.82457e-09
-1.47753e-09
1.78942e-09
-1.48481e-09
1.75611e-09
-1.48704e-09
1.72441e-09
-1.48374e-09
1.69304e-09
-1.47395e-09
1.66029e-09
-1.45677e-09
1.62444e-09
-1.4315e-09
1.58319e-09
-1.39414e-09
1.5354e-09
-1.34326e-09
1.48062e-09
-1.28326e-09
1.4192e-09
-1.20905e-09
1.35056e-09
-1.09459e-09
1.27765e-09
-9.75262e-10
1.20355e-09
-7.92427e-10
1.13402e-09
-5.906e-10
1.07809e-09
-3.31192e-10
1.04643e-09
-3.68884e-11
1.042e-09
2.47226e-10
1.06106e-09
5.07408e-10
1.09867e-09
7.46791e-10
1.14351e-09
9.2181e-10
1.19099e-09
1.0681e-09
1.23579e-09
1.17492e-09
1.27797e-09
1.26804e-09
1.31609e-09
1.3307e-09
1.35085e-09
1.3802e-09
1.38347e-09
1.42037e-09
1.41447e-09
1.4494e-09
1.4442e-09
1.46916e-09
1.47338e-09
1.48228e-09
1.50243e-09
1.48958e-09
1.53176e-09
1.49144e-09
1.56152e-09
1.48803e-09
1.59172e-09
1.47826e-09
1.62296e-09
1.46266e-09
1.6551e-09
1.44092e-09
1.68862e-09
1.4115e-09
1.72381e-09
1.3733e-09
1.75983e-09
1.31537e-09
1.79804e-09
1.24837e-09
1.83805e-09
1.1638e-09
1.87788e-09
1.03387e-09
1.91886e-09
8.90442e-10
1.95649e-09
6.76238e-10
1.99099e-09
4.27172e-10
2.02e-09
1.39002e-10
2.04393e-09
-1.79699e-10
2.06419e-09
-4.86536e-10
2.08361e-09
-7.33227e-10
2.10117e-09
-9.38569e-10
2.11614e-09
-1.09414e-09
2.12631e-09
-1.2075e-09
2.12971e-09
-1.28542e-09
2.12564e-09
-1.35322e-09
2.11236e-09
-1.39214e-09
2.09049e-09
-1.42115e-09
2.06111e-09
-1.4425e-09
2.02666e-09
-1.46033e-09
1.98939e-09
-1.47182e-09
1.94534e-09
-1.47335e-09
1.89597e-09
-1.47125e-09
1.8507e-09
-1.4736e-09
1.83249e-09
-1.49387e-09
1.77626e-09
-1.16588e-09
1.71088e-09
-1.00618e-09
1.64375e-09
-8.78179e-10
1.57114e-09
-7.05587e-10
1.50026e-09
-5.20701e-10
1.43492e-09
-3.08297e-10
1.38475e-09
-9.54477e-11
1.35709e-09
2.15631e-11
1.34444e-09
1.26515e-11
1.34111e-09
3.32098e-12
1.34332e-09
-2.20909e-12
1.34842e-09
-5.09789e-12
1.35424e-09
-5.81408e-12
1.35975e-09
-5.51063e-12
1.36434e-09
-4.59848e-12
1.3676e-09
-3.259e-12
1.3693e-09
-1.69837e-12
1.36941e-09
-1.10975e-13
1.36817e-09
1.24285e-12
1.36568e-09
2.49418e-12
1.36203e-09
3.65007e-12
1.35733e-09
4.69994e-12
1.35162e-09
5.70215e-12
1.34489e-09
6.73816e-12
1.33685e-09
8.03991e-12
1.32724e-09
9.60024e-12
1.31569e-09
1.15591e-11
1.30131e-09
1.43733e-11
1.28293e-09
1.83861e-11
1.25877e-09
2.41552e-11
1.22605e-09
3.27167e-11
1.17987e-09
4.61811e-11
1.1111e-09
6.87718e-11
1.00197e-09
1.09135e-10
8.15806e-10
1.86161e-10
4.76957e-10
3.38849e-10
4.76957e-10
-2.63098e-11
-3.8205e-10
9.43573e-11
-4.16309e-10
2.58522e-10
-3.38986e-10
4.11833e-10
-2.73325e-10
5.46892e-10
-2.23279e-10
6.63983e-10
-1.84484e-10
7.64999e-10
-1.54591e-10
8.52351e-10
-1.31395e-10
9.28289e-10
-1.13101e-10
9.94697e-10
-9.84238e-11
1.0531e-09
-8.64498e-11
1.10465e-09
-7.64546e-11
1.15023e-09
-6.79299e-11
1.19058e-09
-6.05525e-11
1.22626e-09
-5.4049e-11
1.25769e-09
-4.82013e-11
1.28518e-09
-4.28839e-11
1.30905e-09
-3.80458e-11
1.32956e-09
-3.36591e-11
1.34702e-09
-2.97137e-11
1.36169e-09
-2.62108e-11
1.37384e-09
-2.31572e-11
1.38376e-09
-2.05991e-11
1.39183e-09
-1.86775e-11
1.3985e-09
-1.75402e-11
1.40435e-09
-1.74148e-11
1.41016e-09
-1.86405e-11
1.41689e-09
-2.16645e-11
1.42589e-09
-2.7278e-11
1.43903e-09
-3.68345e-11
1.45313e-09
-7.13148e-11
1.44395e-09
-2.0969e-10
1.40283e-09
-3.83952e-10
1.3335e-09
-5.44588e-10
1.24359e-09
-6.85143e-10
1.1475e-09
-8.2482e-10
1.05398e-09
-9.66086e-10
9.44275e-10
-1.12208e-09
8.29986e-10
-1.22703e-09
7.3599e-10
-1.29306e-09
6.63352e-10
-1.35043e-09
6.09824e-10
-1.39922e-09
5.72109e-10
-1.43562e-09
5.47329e-10
-1.46144e-09
5.32341e-10
-1.47714e-09
5.23835e-10
-1.48208e-09
5.19271e-10
-1.47615e-09
5.1478e-10
-1.45823e-09
5.0682e-10
-1.42707e-09
4.92227e-10
-1.38135e-09
4.69612e-10
-1.31974e-09
4.4047e-10
-1.24123e-09
4.0305e-10
-1.14609e-09
3.65087e-10
-1.03055e-09
3.33505e-10
-8.96142e-10
3.22119e-10
-7.37225e-10
3.40057e-10
-5.58156e-10
4.03756e-10
-3.46572e-10
5.13322e-10
-1.09892e-10
6.59522e-10
1.38979e-10
8.22687e-10
3.81883e-10
9.84937e-10
6.24089e-10
1.12737e-09
8.14896e-10
1.24696e-09
9.89347e-10
1.3418e-09
1.11554e-09
1.41638e-09
1.21817e-09
1.47429e-09
1.29875e-09
1.51932e-09
1.35562e-09
1.55565e-09
1.39745e-09
1.58615e-09
1.42817e-09
1.61307e-09
1.44971e-09
1.63787e-09
1.46251e-09
1.66179e-09
1.46811e-09
1.68561e-09
1.4676e-09
1.70984e-09
1.46147e-09
1.7348e-09
1.44973e-09
1.7605e-09
1.43208e-09
1.78686e-09
1.40425e-09
1.81399e-09
1.37011e-09
1.84176e-09
1.32652e-09
1.87055e-09
1.26925e-09
1.89928e-09
1.18449e-09
1.92887e-09
1.08872e-09
1.95841e-09
9.47214e-10
1.98844e-09
7.8e-10
2.01789e-09
5.37078e-10
2.0486e-09
2.6591e-10
2.08026e-09
-3.81306e-11
2.11345e-09
-3.5859e-10
2.14534e-09
-6.41463e-10
2.17433e-09
-8.57894e-10
2.19738e-09
-1.04071e-09
2.21137e-09
-1.15614e-09
2.2147e-09
-1.25348e-09
2.20574e-09
-1.30707e-09
2.18515e-09
-1.34516e-09
2.15604e-09
-1.37914e-09
2.1205e-09
-1.39743e-09
2.08228e-09
-1.41388e-09
2.04435e-09
-1.42878e-09
2.00875e-09
-1.44193e-09
1.97641e-09
-1.45247e-09
1.94665e-09
-1.45727e-09
1.91752e-09
-1.4546e-09
1.88635e-09
-1.44278e-09
1.85066e-09
-1.42109e-09
1.80864e-09
-1.38948e-09
1.75839e-09
-1.34389e-09
1.69991e-09
-1.28478e-09
1.63386e-09
-1.21721e-09
1.56162e-09
-1.13681e-09
1.4842e-09
-1.01717e-09
1.40441e-09
-8.95472e-10
1.32391e-09
-7.11931e-10
1.2466e-09
-5.13289e-10
1.17522e-09
-2.59816e-10
1.11694e-09
2.13975e-11
1.07705e-09
2.87112e-10
1.06157e-09
5.22889e-10
1.06851e-09
7.39857e-10
1.09227e-09
8.98046e-10
1.12778e-09
1.0326e-09
1.17007e-09
1.13263e-09
1.2138e-09
1.2243e-09
1.25595e-09
1.28856e-09
1.29486e-09
1.34129e-09
1.33052e-09
1.3847e-09
1.36325e-09
1.41667e-09
1.39356e-09
1.43885e-09
1.42237e-09
1.45347e-09
1.45058e-09
1.46138e-09
1.47908e-09
1.46295e-09
1.50837e-09
1.45874e-09
1.53876e-09
1.44786e-09
1.571e-09
1.43042e-09
1.60501e-09
1.40691e-09
1.64127e-09
1.37525e-09
1.68009e-09
1.33448e-09
1.72111e-09
1.27434e-09
1.76538e-09
1.20411e-09
1.8128e-09
1.11637e-09
1.86292e-09
9.83748e-10
1.91608e-09
8.37284e-10
1.97071e-09
6.21606e-10
2.02777e-09
3.70118e-10
2.08579e-09
8.098e-11
2.14456e-09
-2.38467e-10
2.20057e-09
-5.42549e-10
2.25169e-09
-7.8434e-10
2.29416e-09
-9.81043e-10
2.32603e-09
-1.12602e-09
2.3442e-09
-1.22568e-09
2.34778e-09
-1.289e-09
2.33802e-09
-1.34346e-09
2.31621e-09
-1.37033e-09
2.28597e-09
-1.3909e-09
2.25107e-09
-1.40759e-09
2.21602e-09
-1.42526e-09
2.18481e-09
-1.44058e-09
2.15309e-09
-1.44162e-09
2.12278e-09
-1.44093e-09
2.10552e-09
-1.45635e-09
2.10175e-09
-1.49013e-09
2.06524e-09
-1.1294e-09
2.01365e-09
-9.54606e-10
1.95284e-09
-8.17362e-10
1.87955e-09
-6.32295e-10
1.80192e-09
-4.43063e-10
1.72077e-09
-2.27145e-10
1.6421e-09
-1.6778e-11
1.5781e-09
8.55624e-11
1.53742e-09
5.33295e-11
1.5147e-09
2.60421e-11
1.50398e-09
8.51138e-12
1.50006e-09
-1.17866e-12
1.49953e-09
-5.28546e-12
1.49981e-09
-5.79133e-12
1.4992e-09
-3.98929e-12
1.49661e-09
-6.68503e-13
1.49146e-09
3.44913e-12
1.48358e-09
7.77559e-12
1.47291e-09
1.19051e-11
1.45968e-09
1.57334e-11
1.44408e-09
1.92467e-11
1.42631e-09
2.24697e-11
1.40641e-09
2.56032e-11
1.38417e-09
2.89753e-11
1.35932e-09
3.28932e-11
1.331e-09
3.79195e-11
1.29794e-09
4.46215e-11
1.25855e-09
5.37605e-11
1.21023e-09
6.67078e-11
1.14901e-09
8.53755e-11
1.06872e-09
1.13005e-10
9.59863e-10
1.55036e-10
8.08734e-10
2.199e-10
5.99097e-10
3.18772e-10
3.25921e-10
4.59337e-10
5.46059e-11
6.10164e-10
5.31563e-10
-7.50105e-11
-3.07039e-10
-5.66489e-11
-4.3467e-10
3.02948e-11
-4.2593e-10
1.4368e-10
-3.8671e-10
2.62271e-10
-3.4187e-10
3.77039e-10
-2.99253e-10
4.83941e-10
-2.61492e-10
5.81612e-10
-2.29067e-10
6.70005e-10
-2.01494e-10
7.49601e-10
-1.7802e-10
8.21041e-10
-1.5789e-10
8.84983e-10
-1.40396e-10
9.42024e-10
-1.24971e-10
9.92674e-10
-1.11203e-10
1.03737e-09
-9.87495e-11
1.07651e-09
-8.73343e-11
1.1104e-09
-7.67756e-11
1.13932e-09
-6.69714e-11
1.16353e-09
-5.78676e-11
1.18327e-09
-4.94482e-11
1.19877e-09
-4.17145e-11
1.21031e-09
-3.46971e-11
1.2182e-09
-2.84871e-11
1.2228e-09
-2.32826e-11
1.22462e-09
-1.93514e-11
1.22424e-09
-1.70411e-11
1.22244e-09
-1.6835e-11
1.22016e-09
-1.93869e-11
1.21856e-09
-2.5681e-11
1.21893e-09
-3.7202e-11
1.21768e-09
-7.00633e-11
1.19118e-09
-1.83197e-10
1.13226e-09
-3.25023e-10
1.04787e-09
-4.60197e-10
9.49351e-10
-5.86628e-10
8.49754e-10
-7.25223e-10
7.55705e-10
-8.72037e-10
6.55091e-10
-1.02146e-09
5.59818e-10
-1.13175e-09
4.86405e-10
-1.21965e-09
4.3383e-10
-1.29786e-09
3.9832e-10
-1.36371e-09
3.77135e-10
-1.41443e-09
3.6748e-10
-1.45179e-09
3.65931e-10
-1.47559e-09
3.68962e-10
-1.48511e-09
3.73341e-10
-1.48053e-09
3.75345e-10
-1.46023e-09
3.71908e-10
-1.42363e-09
3.60879e-10
-1.37032e-09
3.41906e-10
-1.30077e-09
3.16696e-10
-1.21602e-09
2.86626e-10
-1.11602e-09
2.58104e-10
-1.00203e-09
2.37904e-10
-8.75942e-10
2.36365e-10
-7.35685e-10
2.61467e-10
-5.83257e-10
3.2372e-10
-4.08825e-10
4.26228e-10
-2.124e-10
5.6446e-10
7.46927e-13
7.27122e-10
2.19221e-10
9.00561e-10
4.5065e-10
1.06674e-09
6.48718e-10
1.21576e-09
8.40312e-10
1.34026e-09
9.91036e-10
1.43953e-09
1.1189e-09
1.51546e-09
1.22283e-09
1.57172e-09
1.29938e-09
1.61252e-09
1.35666e-09
1.64227e-09
1.39842e-09
1.66527e-09
1.42671e-09
1.68464e-09
1.44314e-09
1.70268e-09
1.45005e-09
1.72113e-09
1.44914e-09
1.74086e-09
1.44173e-09
1.76248e-09
1.4281e-09
1.78626e-09
1.40831e-09
1.8124e-09
1.3781e-09
1.84092e-09
1.34159e-09
1.87174e-09
1.29571e-09
1.90553e-09
1.23546e-09
1.94205e-09
1.14797e-09
1.98158e-09
1.04919e-09
2.02414e-09
9.04653e-10
2.06988e-09
7.34264e-10
2.11842e-09
4.88533e-10
2.16902e-09
2.1531e-10
2.2185e-09
-8.76068e-11
2.26558e-09
-4.05673e-10
2.3058e-09
-6.81678e-10
2.33711e-09
-8.89212e-10
2.35657e-09
-1.06017e-09
2.36264e-09
-1.16221e-09
2.35499e-09
-1.24583e-09
2.33474e-09
-1.28682e-09
2.30433e-09
-1.31475e-09
2.26795e-09
-1.34276e-09
2.22875e-09
-1.35823e-09
2.19048e-09
-1.37561e-09
2.15529e-09
-1.3936e-09
2.12382e-09
-1.41045e-09
2.09543e-09
-1.42408e-09
2.06793e-09
-1.42977e-09
2.03834e-09
-1.425e-09
2.00369e-09
-1.40812e-09
1.9618e-09
-1.37921e-09
1.91254e-09
-1.34022e-09
1.85559e-09
-1.28695e-09
1.79249e-09
-1.22169e-09
1.72515e-09
-1.14987e-09
1.65602e-09
-1.06767e-09
1.58749e-09
-9.48645e-10
1.52187e-09
-8.29849e-10
1.46091e-09
-6.50968e-10
1.40667e-09
-4.59054e-10
1.35863e-09
-2.11776e-10
1.3165e-09
6.35258e-11
1.2782e-09
3.25412e-10
1.24794e-09
5.53154e-10
1.22929e-09
7.58509e-10
1.22652e-09
9.00814e-10
1.23699e-09
1.02212e-09
1.25885e-09
1.11078e-09
1.28721e-09
1.19594e-09
1.31931e-09
1.25646e-09
1.35147e-09
1.30913e-09
1.38191e-09
1.35426e-09
1.41019e-09
1.38838e-09
1.43642e-09
1.41263e-09
1.46125e-09
1.42864e-09
1.48563e-09
1.437e-09
1.51078e-09
1.43781e-09
1.53756e-09
1.43197e-09
1.56655e-09
1.41886e-09
1.59869e-09
1.39828e-09
1.63403e-09
1.37157e-09
1.67319e-09
1.33608e-09
1.71662e-09
1.29105e-09
1.76477e-09
1.2262e-09
1.8183e-09
1.15058e-09
1.87699e-09
1.05768e-09
1.94167e-09
9.19071e-10
2.01179e-09
7.67165e-10
2.08666e-09
5.46733e-10
2.16529e-09
2.91488e-10
2.24346e-09
2.81274e-12
2.31836e-09
-3.13367e-10
2.38467e-09
-6.08856e-10
2.4391e-09
-8.38768e-10
2.47803e-09
-1.01998e-09
2.50054e-09
-1.14852e-09
2.50551e-09
-1.23065e-09
2.49501e-09
-1.2785e-09
2.47211e-09
-1.32056e-09
2.44076e-09
-1.33899e-09
2.40614e-09
-1.35628e-09
2.37284e-09
-1.37429e-09
2.34544e-09
-1.39784e-09
2.32752e-09
-1.42265e-09
2.3125e-09
-1.42658e-09
2.29877e-09
-1.4272e-09
2.29173e-09
-1.44931e-09
2.28204e-09
-1.48046e-09
2.2544e-09
-1.10178e-09
2.21425e-09
-9.14468e-10
2.16399e-09
-7.67103e-10
2.10381e-09
-5.72116e-10
2.04369e-09
-3.8294e-10
1.98376e-09
-1.67211e-10
1.92378e-09
4.32009e-11
1.86835e-09
1.40993e-10
1.82534e-09
9.63393e-11
1.79407e-09
5.73123e-11
1.77226e-09
3.03235e-11
1.75715e-09
1.39273e-11
1.74605e-09
5.8155e-12
1.73655e-09
3.70512e-12
1.72677e-09
5.79736e-12
1.71534e-09
1.07566e-11
1.70138e-09
1.74139e-11
1.68445e-09
2.4699e-11
1.66446e-09
3.18952e-11
1.64141e-09
3.87889e-11
1.6154e-09
4.52529e-11
1.58658e-09
5.12939e-11
1.55491e-09
5.72715e-11
1.52015e-09
6.37299e-11
1.48175e-09
7.13028e-11
1.43868e-09
8.09812e-11
1.38938e-09
9.39254e-11
1.33169e-09
1.11447e-10
1.26257e-09
1.35827e-10
1.17714e-09
1.7081e-10
1.06798e-09
2.22163e-10
9.24727e-10
2.98292e-10
7.35411e-10
4.09217e-10
4.94162e-10
5.6002e-10
2.24037e-10
7.29463e-10
1.73155e-11
8.16885e-10
5.48879e-10
-6.33321e-11
-2.43707e-10
-9.01217e-11
-4.0788e-10
-6.40047e-11
-4.52047e-10
-3.29188e-12
-4.47422e-10
7.57983e-11
-4.2096e-10
1.62348e-10
-3.85802e-10
2.49874e-10
-3.49019e-10
3.34725e-10
-3.13918e-10
4.14968e-10
-2.81737e-10
4.89659e-10
-2.5271e-10
5.58386e-10
-2.26617e-10
6.21047e-10
-2.03058e-10
6.77697e-10
-1.81621e-10
7.2845e-10
-1.61956e-10
7.7346e-10
-1.43759e-10
8.12901e-10
-1.26776e-10
8.4695e-10
-1.10824e-10
8.75769e-10
-9.57902e-11
8.99514e-10
-8.16129e-11
9.18347e-10
-6.82814e-11
9.32452e-10
-5.58196e-11
9.4206e-10
-4.43047e-11
9.47462e-10
-3.38894e-11
9.4903e-10
-2.48503e-11
9.47236e-10
-1.75581e-11
9.42699e-10
-1.25037e-11
9.36197e-10
-1.03331e-11
9.28717e-10
-1.1907e-11
9.2144e-10
-1.84033e-11
9.15714e-10
-3.1476e-11
9.08223e-10
-6.25727e-11
8.77125e-10
-1.52099e-10
8.1858e-10
-2.66478e-10
7.42321e-10
-3.83937e-10
6.60599e-10
-5.04906e-10
5.82282e-10
-6.46906e-10
5.11153e-10
-8.00908e-10
4.38589e-10
-9.48901e-10
3.74692e-10
-1.06786e-09
3.29543e-10
-1.1745e-09
3.01001e-10
-1.26931e-09
2.8533e-10
-1.34804e-09
2.80516e-10
-1.40962e-09
2.84035e-10
-1.45531e-09
2.92574e-10
-1.48413e-09
3.02751e-10
-1.49529e-09
3.11396e-10
-1.48918e-09
3.15463e-10
-1.4643e-09
3.12827e-10
-1.421e-09
3.02499e-10
-1.36e-09
2.85082e-10
-1.28335e-09
2.62728e-10
-1.19366e-09
2.3815e-10
-1.09144e-09
2.16857e-10
-9.80739e-10
2.04493e-10
-8.63577e-10
2.08331e-10
-7.39523e-10
2.34387e-10
-6.09313e-10
2.90061e-10
-4.64498e-10
3.80034e-10
-3.02374e-10
5.04818e-10
-1.24037e-10
6.58907e-10
6.51327e-11
8.34441e-10
2.75114e-10
1.01608e-09
4.67072e-10
1.19192e-09
6.64466e-10
1.35032e-09
8.32634e-10
1.48508e-09
9.84147e-10
1.59342e-09
1.11451e-09
1.67613e-09
1.21668e-09
1.73588e-09
1.29692e-09
1.77657e-09
1.35773e-09
1.80318e-09
1.40009e-09
1.82057e-09
1.42574e-09
1.83269e-09
1.43792e-09
1.84321e-09
1.43861e-09
1.85487e-09
1.43008e-09
1.86938e-09
1.41359e-09
1.88776e-09
1.38994e-09
1.91084e-09
1.35503e-09
1.93858e-09
1.31386e-09
1.97072e-09
1.26357e-09
2.00784e-09
1.19834e-09
2.04966e-09
1.10616e-09
2.09592e-09
1.00293e-09
2.14662e-09
8.53953e-10
2.20095e-09
6.79937e-10
2.25772e-09
4.31757e-10
2.31461e-09
1.58416e-10
2.36719e-09
-1.40179e-10
2.41322e-09
-4.51705e-10
2.44742e-09
-7.1588e-10
2.46844e-09
-9.10232e-10
2.47412e-09
-1.06584e-09
2.46512e-09
-1.15321e-09
2.44267e-09
-1.22337e-09
2.4102e-09
-1.25436e-09
2.37138e-09
-1.27592e-09
2.3307e-09
-1.30208e-09
2.2913e-09
-1.31884e-09
2.25584e-09
-1.34015e-09
2.22474e-09
-1.3625e-09
2.1969e-09
-1.38262e-09
2.16996e-09
-1.39714e-09
2.14e-09
-1.39981e-09
2.10424e-09
-1.38924e-09
2.06134e-09
-1.36521e-09
2.01111e-09
-1.32898e-09
1.95416e-09
-1.28327e-09
1.89127e-09
-1.22406e-09
1.82567e-09
-1.15609e-09
1.7597e-09
-1.0839e-09
1.69585e-09
-1.00382e-09
1.63713e-09
-8.89916e-10
1.58457e-09
-7.7729e-10
1.54106e-09
-6.0746e-10
1.50725e-09
-4.25241e-10
1.48246e-09
-1.86985e-10
1.46602e-09
7.99582e-11
1.45304e-09
3.38399e-10
1.4422e-09
5.63995e-10
1.43244e-09
7.68261e-10
1.42765e-09
9.05605e-10
1.42956e-09
1.02021e-09
1.44028e-09
1.10005e-09
1.45762e-09
1.1786e-09
1.48089e-09
1.23318e-09
1.50648e-09
1.28354e-09
1.53178e-09
1.32896e-09
1.55536e-09
1.3648e-09
1.57666e-09
1.39133e-09
1.59608e-09
1.40923e-09
1.61458e-09
1.41851e-09
1.63378e-09
1.41861e-09
1.65518e-09
1.41057e-09
1.68001e-09
1.39403e-09
1.70972e-09
1.36856e-09
1.74449e-09
1.3368e-09
1.78515e-09
1.29543e-09
1.8321e-09
1.24409e-09
1.88576e-09
1.17254e-09
1.9463e-09
1.09004e-09
2.01337e-09
9.90614e-10
2.08782e-09
8.4462e-10
2.16793e-09
6.87049e-10
2.25226e-09
4.62401e-10
2.33827e-09
2.05483e-10
2.42012e-09
-7.90399e-11
2.49391e-09
-3.87156e-10
2.55338e-09
-6.68321e-10
2.59575e-09
-8.81141e-10
2.61845e-09
-1.04268e-09
2.62261e-09
-1.15267e-09
2.60966e-09
-1.2177e-09
2.58433e-09
-1.25318e-09
2.55116e-09
-1.2874e-09
2.51574e-09
-1.30356e-09
2.4835e-09
-1.32405e-09
2.45842e-09
-1.34921e-09
2.44352e-09
-1.38294e-09
2.44024e-09
-1.41937e-09
2.43786e-09
-1.42419e-09
2.42983e-09
-1.41915e-09
2.41681e-09
-1.43629e-09
2.38877e-09
-1.45242e-09
2.35439e-09
-1.0674e-09
2.3109e-09
-8.70987e-10
2.26032e-09
-7.16527e-10
2.20618e-09
-5.17989e-10
2.15899e-09
-3.35745e-10
2.11876e-09
-1.26985e-10
2.08273e-09
7.92363e-11
2.04718e-09
1.76541e-10
2.0125e-09
1.31017e-10
1.98085e-09
8.89642e-11
1.95316e-09
5.80123e-11
1.92918e-09
3.79129e-11
1.90786e-09
2.71301e-11
1.88785e-09
2.37156e-11
1.8678e-09
2.58519e-11
1.84663e-09
3.19268e-11
1.82351e-09
4.05328e-11
1.79764e-09
5.05652e-11
1.76849e-09
6.10442e-11
1.73615e-09
7.11341e-11
1.70078e-09
8.06222e-11
1.66228e-09
8.97893e-11
1.62046e-09
9.9098e-11
1.57493e-09
1.09256e-10
1.52504e-09
1.21192e-10
1.46983e-09
1.36192e-10
1.40788e-09
1.55871e-10
1.33705e-09
1.82283e-10
1.25414e-09
2.1873e-10
1.15437e-09
2.70582e-10
1.03067e-09
3.4586e-10
8.739e-10
4.55066e-10
6.75794e-10
6.07322e-10
4.38777e-10
7.97038e-10
1.9538e-10
9.7286e-10
2.39103e-11
9.88355e-10
5.72789e-10
-4.91343e-11
-1.94573e-10
-9.16554e-11
-3.65359e-10
-1.02125e-10
-4.41578e-10
-8.33396e-11
-4.66207e-10
-4.33432e-11
-4.60956e-10
9.78571e-12
-4.38931e-10
6.95935e-11
-4.08827e-10
1.31832e-10
-3.76156e-10
1.93724e-10
-3.43629e-10
2.53492e-10
-3.12479e-10
3.1001e-10
-2.83135e-10
3.62582e-10
-2.5563e-10
4.10792e-10
-2.2983e-10
4.54392e-10
-2.05557e-10
4.93253e-10
-1.82619e-10
5.27322e-10
-1.60845e-10
5.566e-10
-1.40102e-10
5.81115e-10
-1.20305e-10
6.00923e-10
-1.0142e-10
6.16108e-10
-8.34669e-11
6.26805e-10
-6.65163e-11
6.33209e-10
-5.07093e-11
6.356e-10
-3.62802e-11
6.34358e-10
-2.36077e-11
6.29982e-10
-1.31821e-11
6.2313e-10
-5.65223e-12
6.14654e-10
-1.85698e-12
6.05636e-10
-2.88894e-12
5.97383e-10
-1.01506e-11
5.91428e-10
-2.55212e-11
5.85437e-10
-5.65809e-11
5.6163e-10
-1.28292e-10
5.18797e-10
-2.23645e-10
4.66634e-10
-3.31773e-10
4.15266e-10
-4.53539e-10
3.68707e-10
-6.00346e-10
3.28079e-10
-7.6028e-10
2.8734e-10
-9.08163e-10
2.54261e-10
-1.03478e-09
2.34735e-10
-1.15498e-09
2.26747e-10
-1.26133e-09
2.2729e-10
-1.34858e-09
2.3494e-10
-1.41727e-09
2.47441e-10
-1.46781e-09
2.61753e-10
-1.49844e-09
2.7485e-10
-1.50839e-09
2.84026e-10
-1.49835e-09
2.87095e-10
-1.46737e-09
2.82901e-10
-1.4168e-09
2.71417e-10
-1.34851e-09
2.53916e-10
-1.26585e-09
2.32808e-10
-1.17256e-09
2.11109e-10
-1.06974e-09
1.93325e-10
-9.62956e-10
1.83791e-10
-8.54042e-10
1.87564e-10
-7.43296e-10
2.08966e-10
-6.30714e-10
2.53655e-10
-5.09188e-10
3.26764e-10
-3.75482e-10
4.31638e-10
-2.28911e-10
5.68669e-10
-7.18994e-11
7.35585e-10
1.08196e-10
9.21477e-10
2.81178e-10
1.1163e-09
4.69642e-10
1.3065e-09
6.42444e-10
1.48216e-09
8.08495e-10
1.63545e-09
9.61226e-10
1.76231e-09
1.08982e-09
1.86142e-09
1.19781e-09
1.93321e-09
1.28593e-09
1.98181e-09
1.35148e-09
2.01228e-09
1.39525e-09
2.02965e-09
1.42054e-09
2.03919e-09
1.42907e-09
2.04575e-09
1.42352e-09
2.05287e-09
1.40648e-09
2.06327e-09
1.37955e-09
2.07892e-09
1.3394e-09
2.10048e-09
1.2923e-09
2.12795e-09
1.2361e-09
2.16213e-09
1.16415e-09
2.20262e-09
1.06567e-09
2.24871e-09
9.56836e-10
2.29984e-09
8.02815e-10
2.35443e-09
6.25347e-10
2.41021e-09
3.75982e-10
2.4639e-09
1.04724e-10
2.51e-09
-1.8628e-10
2.54568e-09
-4.87379e-10
2.56558e-09
-7.35781e-10
2.5696e-09
-9.14257e-10
2.55693e-09
-1.05317e-09
2.53054e-09
-1.12682e-09
2.49324e-09
-1.18606e-09
2.45017e-09
-1.21129e-09
2.4055e-09
-1.23125e-09
2.36325e-09
-1.25983e-09
2.32551e-09
-1.2811e-09
2.29303e-09
-1.30767e-09
2.26415e-09
-1.33362e-09
2.23582e-09
-1.35429e-09
2.20455e-09
-1.36588e-09
2.16747e-09
-1.36272e-09
2.12325e-09
-1.34501e-09
2.07102e-09
-1.31299e-09
2.01119e-09
-1.26914e-09
1.94593e-09
-1.21802e-09
1.87806e-09
-1.15619e-09
1.81152e-09
-1.08956e-09
1.7482e-09
-1.02058e-09
1.68987e-09
-9.45498e-10
1.63949e-09
-8.3953e-10
1.59658e-09
-7.34381e-10
1.56408e-09
-5.74963e-10
1.5419e-09
-4.03059e-10
1.53114e-09
-1.7623e-10
1.53252e-09
7.85785e-11
1.54132e-09
3.29608e-10
1.5547e-09
5.50611e-10
1.56905e-09
7.53908e-10
1.58388e-09
8.90783e-10
1.59984e-09
1.00424e-09
1.61938e-09
1.0805e-09
1.64238e-09
1.1556e-09
1.66979e-09
1.20577e-09
1.6993e-09
1.25403e-09
1.72868e-09
1.29958e-09
1.75597e-09
1.33752e-09
1.78001e-09
1.3673e-09
1.80039e-09
1.38885e-09
1.81769e-09
1.40121e-09
1.83366e-09
1.40264e-09
1.85039e-09
1.39383e-09
1.86984e-09
1.37459e-09
1.89438e-09
1.34402e-09
1.92466e-09
1.30652e-09
1.962e-09
1.25809e-09
2.00702e-09
1.19907e-09
2.06022e-09
1.11935e-09
2.12162e-09
1.02863e-09
2.19028e-09
9.21955e-10
2.26656e-09
7.68336e-10
2.34792e-09
6.05686e-10
2.43172e-09
3.78602e-10
2.51443e-09
1.22777e-10
2.58898e-09
-1.53589e-10
2.65076e-09
-4.48937e-10
2.69336e-09
-7.10917e-10
2.71547e-09
-9.03255e-10
2.71639e-09
-1.04359e-09
2.69983e-09
-1.13611e-09
2.66979e-09
-1.18766e-09
2.63308e-09
-1.21648e-09
2.595e-09
-1.24932e-09
2.56142e-09
-1.26999e-09
2.5367e-09
-1.29934e-09
2.52273e-09
-1.33525e-09
2.51931e-09
-1.37953e-09
2.52492e-09
-1.42498e-09
2.52457e-09
-1.42384e-09
2.50947e-09
-1.40404e-09
2.47948e-09
-1.40627e-09
2.42898e-09
-1.40191e-09
2.3821e-09
-1.02051e-09
2.33038e-09
-8.19275e-10
2.27499e-09
-6.61146e-10
2.22077e-09
-4.6377e-10
2.17715e-09
-2.92133e-10
2.14516e-09
-9.49917e-11
2.12305e-09
1.01346e-10
2.10293e-09
1.96656e-10
2.07796e-09
1.55991e-10
2.05003e-09
1.16892e-10
2.02103e-09
8.70098e-11
1.99215e-09
6.67891e-11
1.96373e-09
5.55511e-11
1.93547e-09
5.19815e-11
1.90673e-09
5.45888e-11
1.8768e-09
6.18558e-11
1.84501e-09
7.23244e-11
1.81087e-09
8.47078e-11
1.77403e-09
9.78773e-11
1.7342e-09
1.10971e-10
1.69112e-09
1.23701e-10
1.6446e-09
1.3631e-10
1.59433e-09
1.49364e-10
1.53987e-09
1.63721e-10
1.48053e-09
1.80525e-10
1.41545e-09
2.01276e-10
1.34339e-09
2.2793e-10
1.26248e-09
2.6319e-10
1.1699e-09
3.11313e-10
1.06143e-09
3.79052e-10
9.31104e-10
4.76188e-10
7.71906e-10
6.14264e-10
5.79669e-10
7.9956e-10
3.62765e-10
1.01394e-09
1.56039e-10
1.17959e-09
2.09009e-11
1.12349e-09
5.9369e-10
-3.69812e-11
-1.57592e-10
-8.23041e-11
-3.20037e-10
-1.11325e-10
-4.12557e-10
-1.19067e-10
-4.58465e-10
-1.084e-10
-4.71623e-10
-8.36331e-11
-4.63698e-10
-4.96661e-11
-4.42794e-10
-1.04343e-11
-4.15388e-10
3.12183e-11
-3.85281e-10
7.32504e-11
-3.54511e-10
1.14219e-10
-3.24104e-10
1.5312e-10
-2.94531e-10
1.89263e-10
-2.65973e-10
2.22169e-10
-2.38463e-10
2.51517e-10
-2.11967e-10
2.77098e-10
-1.86426e-10
2.98785e-10
-1.61789e-10
3.16512e-10
-1.38032e-10
3.30267e-10
-1.15175e-10
3.40092e-10
-9.32918e-11
3.46098e-10
-7.2522e-11
3.48484e-10
-5.30958e-11
3.47528e-10
-3.53237e-11
3.4367e-10
-1.97505e-11
3.37471e-10
-6.98268e-12
3.29667e-10
2.15146e-12
3.21208e-10
6.60262e-12
3.13277e-10
5.04169e-12
3.07297e-10
-4.17075e-12
3.04899e-10
-2.31231e-11
3.04836e-10
-5.65178e-11
2.94421e-10
-1.17877e-10
2.73702e-10
-2.02926e-10
2.50132e-10
-3.08204e-10
2.30222e-10
-4.33628e-10
2.14046e-10
-5.8417e-10
2.01056e-10
-7.4729e-10
1.87399e-10
-8.94505e-10
1.78877e-10
-1.02626e-09
1.78963e-10
-1.15506e-09
1.86264e-10
-1.26863e-09
1.98443e-10
-1.36076e-09
2.14389e-10
-1.43322e-09
2.32054e-10
-1.48547e-09
2.48727e-10
-1.51512e-09
2.61861e-10
-1.52152e-09
2.69379e-10
-1.50587e-09
2.69946e-10
-1.46793e-09
2.6324e-10
-1.4101e-09
2.49932e-10
-1.3352e-09
2.31698e-10
-1.24762e-09
2.10988e-10
-1.15185e-09
1.9066e-10
-1.04941e-09
1.74263e-10
-9.46559e-10
1.64973e-10
-8.44752e-10
1.66278e-10
-7.44601e-10
1.81178e-10
-6.45615e-10
2.13937e-10
-5.41947e-10
2.69088e-10
-4.30633e-10
3.50811e-10
-3.10635e-10
4.62446e-10
-1.83535e-10
6.06769e-10
-3.61289e-11
7.78596e-10
1.09351e-10
9.72912e-10
2.7533e-10
1.17805e-09
4.37314e-10
1.38375e-09
6.02801e-10
1.57924e-09
7.65738e-10
1.75544e-09
9.13617e-10
1.90717e-09
1.04607e-09
2.03038e-09
1.1627e-09
2.12434e-09
1.25751e-09
2.19037e-09
1.32921e-09
2.23341e-09
1.3775e-09
2.25839e-09
1.40411e-09
2.27189e-09
1.41003e-09
2.27895e-09
1.39943e-09
2.28496e-09
1.37354e-09
2.29336e-09
1.331e-09
2.30648e-09
1.27918e-09
2.32538e-09
1.2172e-09
2.35164e-09
1.13788e-09
2.38493e-09
1.03238e-09
2.42462e-09
9.17142e-10
2.46958e-09
7.57857e-10
2.51769e-09
5.77241e-10
2.56545e-09
3.28212e-10
2.60894e-09
6.12388e-11
2.64173e-09
-2.19073e-10
2.66076e-09
-5.06404e-10
2.66129e-09
-7.36314e-10
2.64495e-09
-8.97916e-10
2.61259e-09
-1.02081e-09
2.56934e-09
-1.08357e-09
2.51927e-09
-1.13599e-09
2.4684e-09
-1.16041e-09
2.42054e-09
-1.18339e-09
2.3784e-09
-1.21769e-09
2.34224e-09
-1.24494e-09
2.31062e-09
-1.27605e-09
2.28049e-09
-1.3035e-09
2.24782e-09
-1.32162e-09
2.20899e-09
-1.32705e-09
2.1617e-09
-1.31544e-09
2.10523e-09
-1.28854e-09
2.04057e-09
-1.24832e-09
1.9708e-09
-1.19937e-09
1.89942e-09
-1.14663e-09
1.82939e-09
-1.08616e-09
1.76425e-09
-1.02443e-09
1.70506e-09
-9.6139e-10
1.65261e-09
-8.93051e-10
1.60919e-09
-7.96107e-10
1.57309e-09
-6.98282e-10
1.54733e-09
-5.49197e-10
1.53143e-09
-3.87161e-10
1.52735e-09
-1.72149e-10
1.53692e-09
6.90101e-11
1.55684e-09
3.09681e-10
1.58552e-09
5.21939e-10
1.61971e-09
7.19713e-10
1.65625e-09
8.54245e-10
1.69376e-09
9.66726e-10
1.73225e-09
1.04201e-09
1.77237e-09
1.11549e-09
1.81536e-09
1.16278e-09
1.86002e-09
1.20937e-09
1.90472e-09
1.25488e-09
1.9469e-09
1.29534e-09
1.98497e-09
1.32923e-09
2.01722e-09
1.3566e-09
2.0433e-09
1.37513e-09
2.06423e-09
1.38171e-09
2.08238e-09
1.37568e-09
2.09998e-09
1.35699e-09
2.1205e-09
1.3235e-09
2.14542e-09
1.28159e-09
2.17693e-09
1.22658e-09
2.21631e-09
1.15969e-09
2.26428e-09
1.07138e-09
2.32109e-09
9.71819e-10
2.38546e-09
8.57593e-10
2.45706e-09
6.96737e-10
2.53283e-09
5.29913e-10
2.60871e-09
3.02724e-10
2.68042e-09
5.10644e-11
2.73992e-09
-2.13093e-10
2.78235e-09
-4.91358e-10
2.80209e-09
-7.30662e-10
2.8002e-09
-9.01356e-10
2.77837e-09
-1.02176e-09
2.743e-09
-1.10074e-09
2.70011e-09
-1.14476e-09
2.65759e-09
-1.17395e-09
2.62033e-09
-1.21207e-09
2.59303e-09
-1.24269e-09
2.57758e-09
-1.2839e-09
2.57277e-09
-1.33045e-09
2.57534e-09
-1.38211e-09
2.58015e-09
-1.4298e-09
2.57096e-09
-1.41466e-09
2.54056e-09
-1.37364e-09
2.48995e-09
-1.35564e-09
2.41613e-09
-1.32807e-09
2.3533e-09
-9.57672e-10
2.29088e-09
-7.56848e-10
2.2292e-09
-5.99469e-10
2.17329e-09
-4.07868e-10
2.13102e-09
-2.49869e-10
2.10352e-09
-6.74925e-11
2.08939e-09
1.1548e-10
2.07873e-09
2.0731e-10
2.06073e-09
1.73991e-10
2.03675e-09
1.40872e-10
2.00864e-09
1.15127e-10
1.97795e-09
9.74758e-11
1.94567e-09
8.78303e-11
1.91218e-09
8.54676e-11
1.87746e-09
8.9311e-11
1.84124e-09
9.80827e-11
1.80314e-09
1.10423e-10
1.76282e-09
1.25028e-10
1.71993e-09
1.40762e-10
1.67409e-09
1.56815e-10
1.62489e-09
1.72896e-10
1.57198e-09
1.89227e-10
1.51491e-09
2.06433e-10
1.45316e-09
2.25469e-10
1.38608e-09
2.47607e-10
1.31286e-09
2.74493e-10
1.23245e-09
3.08339e-10
1.14329e-09
3.5235e-10
1.04303e-09
4.11568e-10
9.28255e-10
4.93832e-10
7.94394e-10
6.10049e-10
6.3707e-10
7.71587e-10
4.56536e-10
9.80094e-10
2.66314e-10