/*--------------------------------*- C++ -*----------------------------------*\
| =========                 |                                                 |
| \\      /  F ield         | OpenFOAM: The Open Source CFD Toolbox           |
|  \\    /   O peration     | Version:  2506                                  |
|   \\  /    A nd           | Website:  www.openfoam.com                      |
|    \\/     M anipulation  |                                                 |
\*---------------------------------------------------------------------------*/
FoamFile
{
    version     2.0;
    format      ascii;
    arch        "LSB;label=32;scalar=64";
    class       volVectorField;
    location    "3.95";
    object      vorticityField;
}
// * * * * * * * * * * * * * * * * * * * * * * * * * * * * * * * * * * * * * //

dimensions      [0 0 -1 0 0 0 0];

internalField   nonuniform List<vector> 
4000
(
(2.72533e-19 4.85727e-20 21.6686)
(5.93051e-20 5.15534e-20 23.2883)
(9.55492e-20 2.87039e-19 20.0068)
(3.92256e-19 4.53592e-19 17.0337)
(-5.49045e-19 5.58147e-19 14.9676)
(2.29628e-20 4.96373e-21 13.3799)
(3.7626e-19 5.98993e-19 12.0889)
(-6.48795e-20 7.02556e-19 11.0281)
(-8.43382e-20 3.17309e-20 10.1457)
(-5.01674e-20 -5.89839e-19 9.40256)
(4.9688e-19 1.56063e-17 8.77034)
(-2.11457e-18 -2.74526e-17 8.22739)
(1.39849e-18 1.25137e-17 7.76107)
(-1.51226e-18 -1.41183e-17 7.35863)
(2.3019e-18 1.32483e-17 7.01149)
(-1.80735e-18 6.64158e-19 6.71257)
(1.54959e-18 1.49489e-17 6.4574)
(-2.04241e-18 -1.33096e-17 6.24076)
(-1.18515e-18 3.44712e-20 6.05872)
(1.96455e-18 6.29195e-20 5.90721)
(-1.51676e-19 6.67115e-20 5.78255)
(-2.72425e-18 -7.7163e-19 5.68071)
(2.55942e-18 -8.87441e-19 5.59836)
(2.74987e-18 2.29603e-20 5.53111)
(-2.90929e-18 -7.4952e-19 5.4736)
(-1.81839e-19 -9.08346e-19 5.41942)
(-3.58273e-18 -1.04591e-19 5.36037)
(4.8996e-19 -3.80941e-18 5.28552)
(1.1317e-17 3.19392e-17 5.17885)
(-4.0869e-18 -2.48857e-17 5.00598)
(-5.37885e-18 5.70073e-18 4.72551)
(-1.28091e-17 -7.78059e-17 4.48701)
(3.12433e-18 7.19743e-17 4.53465)
(-3.16541e-17 -1.80835e-17 4.92534)
(-3.6796e-18 -1.87783e-16 5.62571)
(1.07578e-16 5.51691e-16 6.60433)
(2.73396e-19 1.018e-16 7.76968)
(-2.71388e-17 -8.73095e-17 9.61744)
(-1.21748e-18 -4.61308e-17 12.4366)
(-5.18388e-18 2.95987e-17 15.5123)
(-4.26164e-17 -1.58325e-16 18.448)
(1.23955e-16 3.58206e-16 21.0747)
(-2.69213e-18 1.48517e-17 23.3199)
(1.72912e-16 2.23839e-16 25.141)
(-8.40196e-17 -3.92852e-17 26.5117)
(2.30409e-18 1.94764e-16 27.4376)
(2.85753e-17 1.26794e-16 27.9)
(-4.21533e-17 -2.32658e-16 27.9809)
(-1.52705e-16 -1.90529e-16 27.7712)
(-8.21763e-17 -1.38163e-16 27.3911)
(-3.11727e-17 -6.03084e-17 26.9358)
(3.66262e-18 6.27803e-18 26.3798)
(2.15074e-17 -1.77297e-17 25.9716)
(2.22094e-17 2.26372e-16 25.5959)
(-2.80755e-17 1.84747e-16 25.2)
(-1.24952e-17 -1.913e-16 24.5387)
(-1.89781e-17 -6.45253e-17 23.5438)
(4.24411e-18 1.63498e-17 21.9465)
(2.46588e-19 -5.73248e-19 19.5691)
(1.7345e-18 -2.2266e-17 16.7415)
(3.38452e-18 -4.61804e-17 13.85)
(-8.91441e-18 9.76758e-17 11.0999)
(-4.56471e-17 2.39413e-16 8.75744)
(1.54331e-17 -2.23478e-16 6.93874)
(5.41896e-19 1.98486e-17 5.59844)
(-3.57253e-18 3.12602e-18 4.69302)
(4.74116e-19 -4.26164e-18 4.11985)
(1.125e-17 -9.82674e-17 3.79576)
(6.20005e-18 -4.93963e-16 3.62946)
(5.16842e-17 -2.56144e-16 3.54447)
(-1.66981e-18 6.36212e-17 3.49956)
(-5.64587e-17 2.5623e-16 3.45595)
(8.56836e-19 -2.50691e-16 3.38534)
(-2.00575e-17 8.51788e-17 3.2788)
(-3.34564e-17 2.1815e-16 3.13659)
(2.48428e-17 -2.89787e-16 2.9632)
(4.96652e-17 -2.72402e-16 2.76504)
(5.8103e-18 -1.63013e-16 2.54828)
(-2.24317e-18 2.997e-17 2.3241)
(-1.99654e-17 1.92882e-17 2.09513)
(1.72181e-17 9.74592e-18 1.86481)
(-1.48879e-17 1.75123e-16 1.63707)
(5.34358e-19 -3.21111e-17 1.41912)
(1.09507e-17 -1.40754e-16 1.20724)
(5.20793e-19 1.48932e-16 1.00574)
(-7.97143e-20 -9.81694e-18 0.815561)
(2.16279e-19 2.66325e-21 0.633081)
(-2.71325e-19 6.42301e-18 0.439452)
(4.24394e-20 2.52652e-17 0.212631)
(1.31465e-18 -5.76859e-17 -0.0746061)
(-2.3052e-19 -1.13232e-18 -0.453833)
(-2.24605e-18 7.37039e-18 -0.97681)
(8.56058e-18 -4.2791e-18 -1.63826)
(-1.10654e-17 -2.72183e-17 -2.4542)
(2.82159e-17 1.80282e-16 -3.34769)
(-1.75146e-17 2.00965e-16 -4.24172)
(3.31944e-17 2.4133e-16 -5.09263)
(1.9022e-17 3.11845e-17 -5.79633)
(-2.829e-17 1.98725e-16 -6.32872)
(-3.00539e-17 2.75435e-16 -6.68788)
(-2.47965e-19 -6.91943e-18 -6.91107)
(4.9042e-17 2.23983e-16 -7.05627)
(-5.86142e-18 5.57524e-16 -7.17169)
(1.35143e-18 5.01325e-17 -7.28669)
(-8.89021e-18 2.91481e-16 -7.39281)
(1.89856e-18 6.51837e-17 -7.43854)
(6.02521e-17 -2.18506e-16 -7.34852)
(5.83598e-17 -2.57942e-16 -7.02082)
(2.29772e-17 -2.2906e-17 -6.35706)
(2.38055e-17 4.16745e-17 -5.35668)
(1.84533e-17 -2.71918e-16 -4.08936)
(-3.77044e-17 1.98158e-16 -2.44504)
(7.13138e-19 -6.53408e-18 -0.712173)
(1.13905e-17 4.25803e-16 1.16177)
(8.99618e-18 1.16295e-16 2.96154)
(3.91778e-18 2.04932e-16 4.6188)
(1.40357e-19 6.2482e-18 6.01043)
(-7.20638e-20 4.94435e-17 6.99686)
(9.00169e-19 -5.95765e-18 7.53117)
(-8.28414e-20 5.68313e-19 7.62922)
(-1.45584e-18 -1.02091e-17 7.43983)
(1.52986e-17 -1.70532e-16 7.07737)
(-2.4439e-17 2.717e-16 6.60435)
(1.48006e-19 1.39636e-17 6.11849)
(-1.59588e-17 1.38748e-16 5.67011)
(3.89607e-17 -4.55902e-16 5.28899)
(-5.20064e-17 3.03073e-16 4.97599)
(-1.41633e-17 -2.26765e-16 4.71795)
(-4.37526e-17 8.83541e-17 4.49599)
(1.34249e-17 -2.015e-16 4.29333)
(1.20455e-18 6.76474e-17 4.09405)
(-5.47965e-17 2.82706e-16 3.8864)
(4.73311e-17 -1.05857e-16 3.66399)
(-3.57327e-17 2.84228e-16 3.42638)
(-2.18059e-17 -1.59255e-17 3.17653)
(-3.04529e-18 -2.88734e-17 2.91756)
(2.49353e-17 -1.88307e-16 2.6531)
(-2.37472e-17 2.17945e-16 2.38453)
(1.9607e-18 -2.91632e-17 2.12067)
(1.5214e-17 9.07964e-18 1.86394)
(-1.24027e-17 1.61654e-16 1.61052)
(3.0292e-18 -3.8217e-17 1.37381)
(-2.19333e-17 1.79567e-16 1.14866)
(2.1715e-18 -2.44567e-17 0.946071)
(-4.39905e-19 -9.68094e-17 0.760972)
(3.28982e-18 -5.22821e-17 0.583461)
(-8.41732e-19 4.67966e-17 0.392282)
(4.65322e-19 -3.2326e-17 0.163946)
(7.92074e-19 -5.79445e-19 -0.160652)
(1.17361e-18 3.66386e-17 -0.614869)
(1.53818e-18 1.76834e-17 -1.2446)
(-1.08635e-17 -2.64966e-16 -2.05885)
(-2.81341e-19 3.12972e-17 -2.98156)
(4.1422e-17 -6.92804e-18 -4.01245)
(1.93149e-17 1.58506e-16 -5.01609)
(5.04159e-18 7.76884e-17 -5.92403)
(-3.57242e-18 9.99215e-19 -6.66988)
(-2.48856e-17 -2.73223e-17 -7.25445)
(1.53911e-17 6.62463e-17 -7.69342)
(1.51859e-17 -5.5173e-16 -8.05906)
(-1.22921e-17 -1.34122e-17 -8.44781)
(-3.85593e-17 2.91029e-16 -8.88051)
(3.2456e-17 2.54478e-16 -10.4151)
(7.24948e-18 4.12921e-17 -9.12279)
(-3.73698e-17 -2.02546e-16 -8.18826)
(6.42322e-19 -4.06536e-16 -6.97659)
(-5.07524e-18 -2.83988e-17 -5.5598)
(-7.26716e-19 -4.00126e-17 -4.04431)
(-2.8464e-18 -1.43037e-16 -2.36691)
(-1.41036e-18 -4.78238e-17 -0.618587)
(-2.67254e-18 -2.30955e-18 0.835642)
(9.68267e-21 -6.16295e-19 1.77428)
(-1.31359e-18 -1.09821e-20 2.29823)
(1.27069e-18 -5.83184e-19 2.56851)
(8.44256e-20 -2.25023e-19 2.69145)
(-2.03716e-20 -3.67072e-17 2.73967)
(1.55414e-19 3.57902e-17 2.76198)
(-1.5436e-19 1.81659e-17 2.78871)
(-2.77763e-20 -1.81461e-17 2.83859)
(-3.2279e-20 1.6698e-17 2.92274)
(2.56417e-19 -3.55176e-17 3.04613)
(-1.86386e-19 1.714e-17 3.20724)
(-4.49521e-19 -1.79283e-19 3.40208)
(4.61243e-19 -5.37691e-19 3.62747)
(-4.92511e-20 2.48882e-20 3.88017)
(1.37499e-18 -1.67434e-17 4.1579)
(-1.42139e-18 1.59719e-17 4.4595)
(1.7669e-18 -1.61472e-17 4.7921)
(-1.79246e-18 1.59565e-17 5.15012)
(1.01236e-18 -8.66511e-18 5.55961)
(-1.06477e-18 7.81675e-18 6.02763)
(6.38172e-20 -8.94661e-19 6.57989)
(-8.44661e-20 -4.23619e-19 7.25441)
(-8.56927e-19 -1.05767e-20 8.11031)
(9.80269e-19 -4.52298e-19 9.24015)
(-1.19671e-19 -8.49474e-19 10.8054)
(7.00293e-19 -2.59915e-18 13.0946)
(-5.4247e-19 3.61548e-18 16.6929)
(-6.74573e-21 -6.24124e-19 21.5039)
(-9.10917e-20 3.3248e-21 21.1004)
(-6.44838e-20 -1.70877e-19 -1.00347)
(-3.91926e-20 -3.18123e-20 6.02761)
(-2.18236e-20 -5.17312e-19 7.38747)
(7.20123e-19 1.49161e-18 7.32068)
(-1.38528e-18 -4.40255e-18 6.88902)
(5.33467e-19 -1.44572e-18 6.35027)
(6.56862e-20 3.04764e-18 5.80034)
(-1.3724e-19 -1.22021e-18 5.27755)
(-3.85586e-20 -1.03228e-18 4.79655)
(1.4818e-19 -1.04439e-18 4.36174)
(-7.1625e-19 -1.26208e-18 3.97308)
(1.18017e-18 -1.3233e-17 3.62902)
(-1.03807e-18 1.19223e-17 3.3268)
(2.30033e-18 -1.25363e-17 3.06321)
(-1.10058e-18 2.34974e-17 2.83577)
(4.70079e-19 -2.5839e-17 2.64201)
(-1.21231e-18 1.00889e-17 2.47938)
(8.72909e-19 -1.20405e-17 2.34593)
(2.37635e-18 -1.79436e-17 2.24007)
(-1.66708e-18 2.25287e-17 2.16026)
(-3.54899e-19 2.87461e-18 2.10509)
(7.0133e-19 -2.86772e-17 2.07308)
(-1.90097e-18 2.09387e-17 2.06238)
(2.33998e-18 2.90078e-17 2.07083)
(2.73782e-18 -2.15639e-17 2.09649)
(-2.52517e-18 1.36877e-19 2.13622)
(-3.74682e-18 -2.49951e-17 2.18642)
(4.88851e-18 -9.8626e-18 2.2424)
(-3.21639e-18 4.89738e-17 2.29731)
(2.33607e-18 1.31907e-17 2.34332)
(-1.44254e-18 -1.90435e-17 2.37384)
(6.48632e-18 -1.17958e-17 2.40153)
(-3.85127e-18 -4.23695e-17 2.50139)
(1.44907e-17 -1.32427e-16 2.67196)
(-3.14668e-17 -1.22615e-16 2.86967)
(-1.02385e-16 -2.20093e-16 3.07695)
(-2.2078e-18 -8.00812e-17 3.34838)
(5.07138e-17 1.34062e-16 3.87503)
(2.07547e-18 6.08814e-17 4.63998)
(-8.9907e-17 -4.70652e-17 5.45545)
(-3.29084e-17 6.35596e-18 6.33776)
(-1.52679e-16 -2.42096e-16 7.20176)
(-3.98709e-17 7.13758e-18 7.96993)
(-3.00174e-16 -3.94182e-16 8.61262)
(1.48255e-16 1.09667e-16 9.11424)
(-1.83826e-16 -1.12536e-16 9.46168)
(1.1522e-16 -1.15803e-17 9.64455)
(3.67229e-18 5.0832e-17 9.69623)
(-3.00901e-19 3.23271e-17 9.63329)
(1.2847e-16 1.86792e-16 9.48489)
(-1.38581e-16 -5.6529e-17 9.26296)
(1.46508e-17 -5.16243e-17 8.97559)
(1.18999e-16 9.2682e-17 8.68352)
(-4.90043e-17 -3.03908e-17 8.37594)
(8.63431e-17 1.02236e-16 8.10245)
(6.75396e-18 1.76845e-17 7.82266)
(2.23904e-17 4.95777e-17 7.55475)
(-8.64674e-18 -2.39618e-17 7.27168)
(-9.7024e-19 -4.2651e-18 6.83821)
(-3.8033e-18 1.79949e-17 6.15096)
(-1.48505e-17 7.14913e-17 5.17418)
(-1.22892e-17 1.55802e-16 4.02645)
(2.84909e-18 1.77641e-16 2.76291)
(-1.28248e-17 1.78809e-16 1.64208)
(-1.8188e-17 -3.13565e-17 0.710658)
(2.22262e-17 9.59358e-18 0.0444915)
(4.45969e-19 -3.68645e-18 -0.333575)
(-1.10894e-17 7.65339e-17 -0.477756)
(-1.81074e-17 4.43e-16 -0.451883)
(-6.44012e-17 -2.28741e-16 -0.308762)
(-4.2812e-18 5.31639e-17 -0.107774)
(2.71178e-17 2.74483e-16 0.0888369)
(-3.41063e-17 2.23473e-16 0.243548)
(-3.69262e-17 2.42905e-16 0.348443)
(5.11529e-17 -1.03284e-16 0.405559)
(3.24353e-18 -4.8198e-17 0.415876)
(-5.63066e-17 -1.17181e-16 0.38304)
(-3.06802e-17 2.53798e-16 0.309143)
(7.19643e-19 5.74868e-18 0.207585)
(2.71788e-17 1.24937e-16 0.0855221)
(-2.51522e-17 -1.73227e-16 -0.0508794)
(1.40899e-17 1.19094e-17 -0.20882)
(5.3445e-20 -3.55859e-20 -0.372784)
(-1.06009e-17 -5.19155e-18 -0.53846)
(1.81204e-19 -1.41141e-16 -0.699545)
(-2.44114e-19 1.44537e-17 -0.855845)
(1.09218e-18 -8.07727e-18 -1.01007)
(8.26654e-20 8.58123e-18 -1.14723)
(-9.89836e-20 -1.1427e-17 -1.24928)
(2.63032e-19 1.45996e-16 -1.32683)
(-3.97742e-19 -6.34931e-18 -1.40505)
(-1.46322e-17 4.12482e-18 -1.51594)
(-1.76749e-17 1.88689e-16 -1.68601)
(3.74867e-17 -1.96159e-16 -1.93783)
(-3.66399e-17 2.12776e-16 -2.25163)
(-1.29858e-17 -2.34385e-16 -2.6286)
(-8.26056e-17 1.30544e-16 -3.05589)
(-6.18869e-17 2.77737e-16 -3.48597)
(7.3594e-18 -2.04174e-16 -3.90593)
(2.66532e-17 -2.69139e-16 -4.29341)
(6.20378e-19 -6.0059e-17 -4.64055)
(-1.00069e-16 2.52017e-16 -4.94946)
(-1.9657e-17 -2.88273e-16 -5.22271)
(1.98796e-17 1.96501e-18 -5.4617)
(-7.21333e-17 -4.10707e-17 -5.66799)
(-2.14644e-18 -6.64197e-17 -5.82876)
(-1.09714e-16 4.85944e-16 -5.9281)
(-8.255e-17 6.20373e-16 -5.9483)
(-4.63181e-17 3.26682e-16 -5.87826)
(-6.38882e-17 2.44599e-16 -5.72936)
(1.05278e-17 3.33126e-16 -5.51462)
(4.18068e-17 -4.86362e-16 -5.24288)
(-2.80627e-18 -1.02489e-17 -4.98977)
(-4.21523e-17 -2.40314e-16 -4.71506)
(-6.99935e-18 1.23412e-17 -4.46725)
(-7.70261e-18 -8.91586e-17 -4.17035)
(2.11093e-20 -1.45541e-17 -3.75637)
(1.71934e-18 -4.59467e-17 -3.147)
(3.27465e-20 -4.2385e-18 -2.43151)
(-1.11759e-19 5.41164e-18 -1.68726)
(3.19848e-19 1.7919e-17 -1.07418)
(-3.58228e-17 1.99546e-16 -0.605366)
(2.24425e-17 -3.2897e-17 -0.284817)
(2.66653e-18 -4.71516e-17 -0.0642436)
(6.55049e-17 -2.06464e-16 0.0720113)
(-9.34235e-17 3.45335e-16 0.168561)
(6.26263e-17 1.69299e-16 0.262967)
(-3.48691e-17 4.73532e-16 0.360105)
(-3.30841e-17 3.92827e-16 0.449235)
(-1.82971e-17 1.26102e-16 0.526389)
(-5.79076e-18 3.20767e-17 0.583379)
(2.92734e-17 7.05551e-17 0.610766)
(3.03131e-17 -4.29246e-16 0.602315)
(3.25291e-17 1.08691e-16 0.556275)
(-7.29928e-18 1.29857e-16 0.477569)
(-8.10594e-18 -1.69304e-17 0.371109)
(-1.38105e-18 -1.69306e-20 0.243408)
(5.81481e-17 -6.35911e-17 0.10022)
(6.26923e-19 -5.45239e-17 -0.0612629)
(-1.3486e-17 -1.02303e-16 -0.230884)
(8.64243e-19 -1.96612e-17 -0.396562)
(1.17923e-18 1.01715e-17 -0.564476)
(2.29635e-17 5.08688e-17 -0.724571)
(5.40744e-18 -6.39133e-17 -0.875127)
(-9.46459e-18 9.92318e-17 -1.01697)
(-4.29145e-18 -5.82513e-18 -1.15022)
(1.76671e-18 3.15655e-17 -1.26715)
(-5.42795e-19 -3.4451e-17 -1.36446)
(-3.64078e-19 7.54973e-17 -1.45296)
(-6.00568e-18 -2.08762e-18 -1.57432)
(2.3214e-18 1.44894e-18 -1.76239)
(1.04339e-17 7.70298e-18 -2.04033)
(-1.44604e-17 -4.3701e-17 -2.39955)
(-7.48013e-17 4.62758e-16 -2.85)
(-4.15349e-17 1.33186e-16 -3.3388)
(-1.05903e-17 7.21464e-17 -3.8628)
(8.1739e-20 -3.8704e-17 -4.38921)
(1.26463e-16 -3.84989e-16 -4.90708)
(-3.76964e-17 8.54042e-17 -5.41567)
(5.95956e-18 3.26355e-16 -5.9205)
(1.86783e-17 6.17599e-17 -6.45284)
(4.24268e-18 -2.4307e-16 -7.00643)
(-3.38018e-17 4.33094e-17 -7.64875)
(1.80955e-17 3.77348e-17 -7.16164)
(9.28722e-17 -3.29823e-16 -7.3692)
(7.45267e-18 2.23669e-16 -7.44719)
(3.95547e-18 1.73674e-17 -7.35876)
(-2.06878e-18 -3.40428e-18 -7.20119)
(1.52186e-17 3.93442e-17 -6.93566)
(1.72834e-18 5.1188e-17 -6.5046)
(1.55742e-18 -4.0717e-17 -5.90598)
(-1.8624e-18 -9.52451e-20 -5.3262)
(1.50049e-19 -4.34471e-17 -4.79036)
(-4.78548e-19 4.04424e-17 -4.36054)
(4.10577e-20 2.58641e-18 -4.02906)
(1.09777e-19 4.05728e-17 -3.78006)
(-2.22369e-19 -1.43036e-19 -3.58501)
(1.40075e-19 -2.12416e-17 -3.4186)
(1.14666e-20 -1.79745e-17 -3.26418)
(4.46873e-20 -1.85869e-17 -3.11121)
(-2.2058e-19 1.86191e-17 -2.95081)
(2.26513e-19 -4.66792e-19 -2.7786)
(-1.87829e-19 1.81405e-17 -2.59241)
(8.57048e-20 -1.94562e-17 -2.39097)
(-6.52504e-20 -7.14653e-19 -2.17406)
(3.34175e-19 -1.51204e-17 -1.94155)
(-2.99458e-19 1.88611e-17 -1.69243)
(3.53786e-19 -1.6484e-17 -1.42398)
(-1.33109e-18 1.85533e-17 -1.13528)
(1.20453e-18 -6.63534e-18 -0.814654)
(-2.39884e-19 8.66869e-18 -0.448182)
(-2.64622e-19 -8.62913e-19 -0.0245399)
(1.34362e-20 2.10907e-18 0.482308)
(-4.46214e-19 5.42569e-18 1.11738)
(9.06103e-20 -7.19056e-18 1.94986)
(-7.06131e-20 1.84234e-18 3.0683)
(-6.60692e-19 -4.49148e-20 4.52881)
(8.09798e-19 -6.15226e-19 6.06071)
(3.33354e-19 4.78433e-19 5.81948)
(-2.60855e-20 -1.79223e-19 -1.88899)
(-2.1121e-19 2.55803e-19 -4.63291)
(-1.07706e-18 6.3988e-21 0.555527)
(5.82679e-19 -4.19218e-19 2.59181)
(-6.1123e-20 4.1833e-19 3.52435)
(9.80153e-20 -6.36798e-19 3.95881)
(1.40856e-18 2.20303e-18 4.12984)
(-1.74395e-18 -1.81258e-18 4.15064)
(4.63321e-19 5.02769e-19 4.08623)
(2.16242e-19 8.47394e-19 3.97599)
(4.14027e-19 2.6231e-18 3.84358)
(2.21052e-19 1.15731e-18 3.70416)
(1.14072e-18 3.89049e-18 3.56786)
(-1.387e-18 -1.09256e-17 3.43781)
(2.17611e-18 2.15042e-17 3.31834)
(-2.14992e-18 -7.85287e-18 3.21163)
(2.39219e-18 1.18843e-17 3.1188)
(-1.32476e-18 -6.15839e-18 3.03899)
(2.76477e-19 1.23057e-18 2.97246)
(4.78116e-18 2.5966e-17 2.91913)
(-4.7936e-18 -1.87018e-17 2.87927)
(4.12297e-19 -8.0579e-19 2.85288)
(4.63045e-18 6.80138e-18 2.83976)
(-5.05633e-18 -2.48131e-17 2.8382)
(-2.22254e-18 1.81542e-17 2.8466)
(2.22988e-18 2.73473e-17 2.86351)
(-4.1772e-18 -1.16787e-17 2.88687)
(7.56506e-18 -2.7294e-17 2.91375)
(6.662e-19 1.66882e-17 2.93998)
(-4.4188e-18 3.21796e-18 2.95958)
(-4.53832e-18 -5.60062e-20 2.96591)
(9.1188e-18 2.2124e-19 2.95933)
(-5.86779e-19 -2.1252e-17 2.93535)
(1.25154e-17 5.211e-17 2.90375)
(3.43801e-17 1.58638e-16 2.81231)
(2.02087e-19 -5.18729e-17 2.61694)
(3.84815e-17 1.78075e-17 2.33189)
(-6.67849e-17 -1.25311e-16 2.05528)
(5.81161e-18 -7.54048e-17 1.942)
(9.59241e-17 9.54619e-17 2.00709)
(-1.75702e-17 -2.85383e-17 2.1677)
(2.66542e-16 1.8686e-16 2.45255)
(9.7557e-18 1.5306e-16 2.80864)
(-9.1266e-17 4.0945e-17 3.17497)
(-5.17741e-17 -1.81141e-18 3.52488)
(2.19314e-19 -9.46176e-17 3.84035)
(1.42874e-16 1.87726e-16 4.10416)
(-3.49869e-16 -1.34816e-16 4.30192)
(-7.68353e-17 -6.84158e-17 4.43858)
(-2.50483e-17 -1.18463e-17 4.50838)
(-2.90075e-17 -4.56325e-17 4.51197)
(1.11749e-16 1.1867e-16 4.44971)
(-3.69767e-17 -8.77657e-18 4.32713)
(-4.69656e-17 -6.09481e-17 4.16892)
(1.04746e-17 -1.22422e-17 3.9516)
(6.79714e-17 4.57341e-17 3.72807)
(-2.77717e-17 -6.18193e-19 3.50281)
(-3.33273e-17 -3.42905e-17 3.27602)
(1.4646e-17 1.43723e-17 3.02819)
(6.65827e-19 5.25337e-18 2.7175)
(3.43171e-19 1.16153e-18 2.25846)
(1.08223e-17 8.9927e-18 1.66604)
(2.25095e-17 -2.63172e-17 0.860454)
(6.17995e-17 -3.42702e-17 -0.0927487)
(6.37877e-18 -1.8462e-16 -1.10646)
(3.71775e-17 1.75473e-16 -2.04479)
(8.58763e-18 -2.55578e-16 -2.81232)
(-2.95987e-17 4.92603e-17 -3.34621)
(3.48366e-18 -6.29974e-17 -3.64896)
(3.48166e-17 -4.59557e-16 -3.74339)
(-1.12378e-17 5.54405e-16 -3.6506)
(2.56011e-17 -1.18443e-16 -3.44165)
(4.84016e-17 -2.43602e-16 -3.17371)
(5.73978e-17 2.01639e-17 -2.88063)
(5.27206e-17 1.09686e-16 -2.59322)
(1.99712e-17 -2.88138e-16 -2.34027)
(-4.58933e-17 -5.13281e-17 -2.13487)
(-2.28037e-17 4.516e-16 -1.9798)
(2.4054e-17 -9.88111e-17 -1.87197)
(2.17357e-17 -7.74938e-17 -1.80826)
(1.15433e-17 -2.99225e-16 -1.77539)
(-1.08306e-17 3.88188e-16 -1.76498)
(-1.34782e-17 -2.73627e-17 -1.76483)
(1.25206e-17 -9.09454e-18 -1.77327)
(-1.48536e-19 6.491e-18 -1.76812)
(-9.97874e-18 1.42147e-16 -1.75946)
(5.87507e-19 -1.17674e-17 -1.72446)
(-3.25301e-18 -3.39824e-17 -1.6637)
(1.87585e-19 6.47483e-19 -1.55201)
(-1.05256e-18 -2.44916e-17 -1.38855)
(-4.48087e-18 -1.47405e-16 -1.20109)
(-7.48204e-19 2.70197e-18 -1.01589)
(1.56987e-17 -3.29673e-16 -0.860597)
(9.04316e-18 -2.22407e-16 -0.77031)
(-3.29836e-17 3.87937e-16 -0.776524)
(-2.37322e-17 5.67223e-17 -0.885964)
(6.54777e-17 -1.74148e-16 -1.10473)
(7.82884e-17 -4.65132e-16 -1.41702)
(2.33157e-17 -3.0039e-16 -1.77756)
(3.94753e-17 -1.02867e-17 -2.15814)
(-7.45593e-17 2.5025e-16 -2.51909)
(-2.22071e-19 5.69842e-17 -2.83417)
(2.68011e-17 -2.98512e-16 -3.08876)
(2.47462e-17 -2.56515e-17 -3.2793)
(-8.86475e-17 3.0083e-16 -3.40544)
(5.57576e-17 -2.59539e-16 -3.48975)
(1.76018e-18 2.57272e-17 -3.54928)
(7.01548e-17 -6.25732e-16 -3.61705)
(-2.76771e-17 -4.19406e-16 -3.66517)
(-6.15291e-17 -3.57593e-17 -3.72157)
(1.90745e-17 -3.01074e-16 -3.77344)
(-2.8664e-17 -6.20544e-17 -3.82472)
(1.72514e-17 2.85869e-16 -3.87134)
(6.61023e-19 2.6552e-17 -3.95713)
(5.37195e-17 -2.46274e-16 -4.0679)
(1.11443e-20 5.43985e-18 -4.26792)
(4.36871e-18 1.28599e-18 -4.52715)
(3.34927e-19 5.37081e-19 -4.85222)
(-2.48354e-18 4.58424e-17 -5.1528)
(-3.82351e-19 -7.27064e-19 -5.30071)
(5.67627e-19 -5.50957e-18 -5.26938)
(-4.76081e-19 1.22552e-17 -5.13496)
(2.1963e-17 -2.10551e-17 -4.95861)
(1.68669e-17 -1.17787e-17 -4.72027)
(-2.89057e-18 -2.17965e-17 -4.4867)
(-4.55808e-17 -1.6909e-16 -4.25443)
(4.8844e-17 1.70523e-16 -4.03232)
(2.2135e-17 -5.19843e-16 -3.80099)
(8.15408e-17 -2.24556e-16 -3.55157)
(9.98404e-17 -8.84499e-17 -3.28682)
(1.08136e-17 -2.0772e-16 -3.01934)
(1.835e-17 -2.07876e-18 -2.76358)
(2.2012e-17 -2.19668e-16 -2.53151)
(-5.7042e-17 3.3585e-17 -2.33374)
(9.40145e-18 -1.07915e-17 -2.17712)
(2.75455e-17 -2.72546e-17 -2.06153)
(-2.09249e-17 4.02056e-17 -1.98287)
(-8.28279e-18 -2.35553e-16 -1.93508)
(-5.07278e-18 -3.00871e-16 -1.91307)
(-8.11725e-19 7.8938e-17 -1.90967)
(3.25112e-18 1.72663e-16 -1.91236)
(2.35537e-17 1.51476e-16 -1.91068)
(1.18387e-17 -7.6043e-17 -1.89652)
(3.54474e-18 -1.02869e-16 -1.87855)
(-6.80838e-18 -4.99137e-17 -1.83562)
(1.14703e-17 7.1709e-17 -1.76983)
(-8.7471e-19 1.10172e-17 -1.66425)
(-3.6131e-19 -2.27406e-18 -1.50464)
(-3.74145e-18 -1.10223e-16 -1.32005)
(-7.62297e-19 -6.98189e-17 -1.13625)
(1.01685e-17 -2.22698e-16 -0.984906)
(-1.05425e-18 9.24168e-17 -0.902292)
(4.83216e-18 -3.49991e-17 -0.918286)
(3.79874e-17 -1.89884e-16 -1.04752)
(5.54408e-17 -4.68887e-16 -1.30673)
(1.89227e-17 -2.82398e-16 -1.65523)
(6.26117e-18 7.89844e-18 -2.08306)
(7.6245e-17 -3.12749e-16 -2.54942)
(-1.52229e-16 7.38431e-16 -3.02082)
(-4.73555e-17 1.27575e-16 -3.47641)
(-3.53793e-18 -2.04816e-17 -3.88248)
(-9.57023e-17 3.01721e-16 -4.26287)
(3.41671e-17 5.53619e-17 -4.57378)
(-3.4994e-18 -1.50437e-17 -4.73318)
(-7.08443e-17 1.95104e-16 -4.39837)
(-3.2172e-17 3.66229e-16 -4.56075)
(-2.86231e-18 1.70354e-17 -4.71186)
(3.7701e-18 5.86174e-18 -4.82301)
(2.11249e-17 -1.31834e-16 -4.98902)
(-1.92901e-17 1.08049e-16 -5.20543)
(1.72618e-18 2.613e-18 -5.42205)
(1.93079e-18 -3.88342e-18 -5.52113)
(2.41458e-18 -5.2259e-17 -5.41182)
(9.88973e-19 1.08031e-19 -5.11212)
(-1.9418e-18 -3.10665e-18 -4.74758)
(8.9407e-19 -4.19983e-18 -4.38778)
(8.64088e-20 -4.68104e-17 -4.06304)
(-1.44433e-19 -3.12188e-18 -3.78027)
(-5.24593e-21 4.73643e-17 -3.53463)
(8.6187e-20 -1.00552e-18 -3.31886)
(-4.39686e-19 2.19678e-17 -3.12687)
(1.44616e-19 -2.37228e-17 -2.95159)
(2.63631e-19 1.42078e-18 -2.7779)
(-6.05394e-20 7.4197e-21 -2.59893)
(-1.70882e-20 1.28135e-18 -2.41786)
(-9.2104e-20 1.94914e-18 -2.2285)
(-1.16789e-19 -2.01352e-17 -2.02677)
(2.47632e-19 1.81129e-17 -1.81011)
(-1.83821e-19 -1.72997e-17 -1.5786)
(-5.16909e-19 3.41965e-17 -1.31955)
(6.4672e-19 -2.81815e-17 -1.04361)
(2.75409e-19 1.00196e-17 -0.734055)
(1.9581e-20 2.37337e-18 -0.379539)
(1.85921e-19 -1.10634e-18 0.0401023)
(8.73084e-19 3.64629e-19 0.556426)
(-5.0967e-19 2.1092e-18 1.20665)
(-1.37136e-19 -9.26484e-19 1.99399)
(7.65853e-20 2.43137e-19 2.76372)
(-5.31271e-19 2.18649e-20 2.85377)
(9.79014e-19 -7.18746e-19 0.449416)
(1.01029e-18 7.65974e-19 -7.41827)
(-5.25505e-19 2.77975e-19 -4.39212)
(1.7447e-20 -2.16655e-19 -1.10778)
(-3.54834e-19 1.81768e-19 0.629131)
(-7.69072e-19 -8.83274e-22 1.74981)
(4.85522e-19 -5.47287e-19 2.50888)
(1.57387e-18 1.43613e-18 3.01343)
(-1.21509e-18 -7.4967e-19 3.34619)
(4.92635e-19 2.24075e-19 3.56185)
(-9.98897e-20 3.13892e-19 3.6988)
(-1.54519e-18 -1.56071e-18 3.78312)
(6.28419e-19 -1.4588e-19 3.83265)
(-3.03938e-19 -6.59303e-19 3.85968)
(-2.55154e-20 1.79246e-19 3.87147)
(-1.41737e-18 -2.13219e-18 3.87385)
(5.0546e-19 -1.78009e-19 3.87078)
(-1.02508e-18 2.04802e-19 3.86492)
(6.29936e-20 -1.18148e-18 3.85778)
(3.29498e-20 -1.41139e-17 3.85061)
(-4.01849e-18 2.65513e-17 3.84416)
(2.88317e-18 -1.42176e-17 3.8391)
(2.43244e-18 -4.13316e-18 3.83573)
(-2.80932e-18 1.7496e-17 3.83376)
(2.07043e-18 -1.49983e-17 3.83195)
(-2.26234e-18 -4.29466e-18 3.82885)
(-3.50684e-18 2.87545e-18 3.82281)
(2.53161e-18 -2.08288e-17 3.81149)
(5.08068e-19 1.36224e-17 3.79159)
(-3.44646e-18 -8.53879e-19 3.75843)
(-1.1224e-18 2.01713e-17 3.70517)
(3.35234e-18 -1.66958e-17 3.62449)
(8.50261e-20 2.10029e-17 3.51197)
(3.74796e-18 -6.90054e-18 3.33338)
(-2.14169e-17 -5.65855e-17 3.07903)
(-2.32417e-17 -4.41556e-17 2.70337)
(6.13545e-17 4.0737e-17 2.19844)
(-2.98827e-17 -1.19817e-17 1.6154)
(2.18028e-17 -3.09767e-18 1.07199)
(8.14103e-18 -2.94545e-17 0.696904)
(-3.44627e-17 -4.58938e-17 0.501198)
(1.6709e-18 3.84202e-17 0.444014)
(-3.5047e-17 -8.07915e-17 0.545542)
(-8.94376e-18 -7.00997e-17 0.757845)
(3.53943e-16 1.2783e-16 1.02939)
(1.20135e-16 1.35362e-16 1.33438)
(2.63747e-17 3.43524e-17 1.65173)
(2.40177e-19 7.02929e-18 1.9597)
(6.79053e-17 1.09647e-17 2.23793)
(3.69298e-16 1.47519e-16 2.47551)
(1.41036e-16 1.37318e-16 2.65708)
(1.59101e-17 -1.9881e-17 2.77409)
(2.52273e-16 1.10172e-16 2.82196)
(-1.91268e-18 7.82413e-17 2.80365)
(-1.22999e-16 -6.35853e-17 2.73622)
(-4.59604e-19 -2.46472e-17 2.62001)
(-1.96768e-17 -2.1513e-17 2.48403)
(4.90636e-17 2.83156e-17 2.33927)
(2.1119e-17 2.45233e-17 2.20517)
(-2.53691e-17 -2.74125e-17 2.07009)
(4.67482e-18 5.77986e-18 1.91978)
(4.21397e-18 6.7917e-18 1.6818)
(-1.57166e-17 -4.078e-17 1.31094)
(5.64481e-18 -3.02681e-17 0.705504)
(1.25636e-17 -1.55564e-16 -0.0797385)
(-2.50138e-17 1.96768e-16 -1.06298)
(-4.94238e-18 -4.09174e-16 -2.10222)
(-8.08359e-17 4.97446e-17 -3.12288)
(3.038e-17 2.79827e-16 -4.0282)
(-8.54707e-19 3.783e-17 -4.7392)
(-6.89584e-17 2.83209e-16 -5.24009)
(5.35889e-17 -4.30357e-16 -5.50217)
(-5.13886e-17 -1.75496e-16 -5.56109)
(-2.71705e-17 2.17957e-17 -5.44073)
(8.39072e-18 -2.70086e-16 -5.20092)
(2.19515e-17 -1.91406e-16 -4.89383)
(-5.27654e-17 1.12522e-16 -4.56189)
(6.49822e-18 4.17501e-16 -4.23477)
(5.5211e-17 -3.3814e-16 -3.93292)
(-2.88152e-18 3.56947e-17 -3.65855)
(-2.91762e-17 -1.64589e-16 -3.42126)
(-3.71098e-17 2.15228e-16 -3.20951)
(4.99243e-17 -2.19517e-16 -3.01634)
(2.42063e-17 1.7209e-16 -2.8227)
(-2.29731e-17 -1.78507e-16 -2.64539)
(-1.05741e-17 2.00291e-17 -2.45036)
(9.13774e-18 -8.85608e-18 -2.25386)
(-3.37465e-19 -2.75204e-18 -2.01922)
(9.59336e-19 4.34539e-17 -1.75901)
(-2.64453e-20 -1.69589e-18 -1.46264)
(1.82368e-18 4.39933e-17 -1.13503)
(3.89132e-18 7.80786e-17 -0.794725)
(-1.49955e-18 -2.85624e-17 -0.468303)
(7.53179e-18 1.97258e-16 -0.185997)
(-1.98581e-17 2.02526e-16 0.0142334)
(6.88088e-18 -2.02645e-16 0.10102)
(-1.48443e-17 -3.36017e-17 0.0645512)
(-1.78703e-17 2.043e-16 -0.0943114)
(-2.50334e-17 2.70953e-16 -0.351935)
(1.5503e-17 3.24921e-17 -0.659734)
(-9.47774e-17 2.73064e-16 -0.975407)
(1.18613e-16 -5.10362e-16 -1.25054)
(3.64929e-19 -5.12442e-17 -1.45564)
(2.34723e-17 2.53466e-17 -1.57419)
(-3.58697e-20 2.73313e-17 -1.60418)
(4.12789e-17 -3.09769e-16 -1.58527)
(2.94634e-17 -2.12543e-17 -1.55146)
(-2.42148e-18 5.26258e-18 -1.52744)
(5.91394e-17 7.11103e-17 -1.52886)
(1.1887e-16 -2.34031e-16 -1.53934)
(6.2381e-17 -3.15243e-16 -1.59329)
(6.67331e-18 -1.61825e-17 -1.69272)
(0 -0 -1.80247)
(-8.56194e-18 -5.83753e-18 -1.92297)
(-9.99597e-18 -1.0595e-17 -2.06699)
(1.96004e-18 1.20757e-16 -2.23862)
(-1.35926e-17 1.254e-16 -2.47639)
(9.24518e-19 2.54181e-18 -2.79769)
(-4.20459e-19 7.19644e-18 -3.24665)
(5.5009e-19 -5.47543e-20 -3.83715)
(2.34801e-19 -6.13158e-20 -4.48883)
(-6.85245e-19 2.76358e-19 -5.11012)
(1.08331e-17 -5.14011e-18 -5.59962)
(-7.68354e-19 -6.28713e-18 -5.95415)
(-3.46967e-17 -2.38523e-16 -6.1705)
(1.24346e-18 2.83281e-17 -6.29722)
(-2.83299e-17 2.23608e-16 -6.32474)
(3.05723e-17 -2.63908e-16 -6.2934)
(-5.68778e-17 3.24543e-16 -6.20199)
(-3.012e-17 -2.9557e-17 -6.04203)
(2.44875e-17 -2.1739e-16 -5.819)
(-1.24518e-17 2.08929e-16 -5.5521)
(-3.10771e-17 -1.63613e-16 -5.25455)
(9.51675e-18 2.58656e-16 -4.94027)
(-2.81205e-17 -7.10385e-17 -4.62664)
(-2.01723e-17 -2.1032e-18 -4.32756)
(3.80023e-17 4.50656e-17 -4.05174)
(2.85745e-17 1.43182e-16 -3.8034)
(-4.89249e-17 7.24121e-17 -3.57785)
(-4.40546e-17 2.08954e-16 -3.37435)
(-2.01764e-17 8.06548e-18 -3.17729)
(-7.54642e-19 -2.66107e-16 -2.9841)
(-2.19074e-17 -3.10676e-16 -2.79454)
(-2.86121e-17 -1.51298e-16 -2.58665)
(1.85763e-19 5.80932e-17 -2.37693)
(7.3094e-19 3.43376e-17 -2.13384)
(1.23914e-18 -3.56553e-17 -1.86456)
(1.73197e-18 1.88814e-17 -1.56112)
(-1.54969e-18 -2.99312e-18 -1.22717)
(4.51199e-18 1.56503e-16 -0.880083)
(5.54417e-19 -5.4283e-18 -0.545397)
(-1.94824e-18 2.21119e-16 -0.257645)
(-2.11944e-17 1.52199e-16 -0.0561802)
(1.01813e-18 -2.21459e-18 0.0276917)
(-4.50723e-18 1.60814e-16 -0.021953)
(-2.19136e-17 3.36866e-16 -0.212409)
(6.94654e-17 -1.58979e-16 -0.505161)
(-5.43288e-17 1.59637e-16 -0.874437)
(-6.13511e-17 3.90792e-16 -1.27113)
(4.35679e-17 -3.51542e-16 -1.64758)
(7.67333e-17 -3.32858e-16 -1.98659)
(-1.10828e-16 3.86143e-16 -2.24135)
(7.34875e-17 -4.10262e-16 -2.4023)
(-9.90884e-17 3.0147e-16 -2.43032)
(5.80566e-19 1.45283e-16 -2.28172)
(5.13411e-17 -3.91267e-16 -2.07031)
(-2.40857e-17 -4.16899e-17 -2.06318)
(-5.91702e-17 2.80567e-16 -2.095)
(-1.14775e-17 7.39285e-17 -2.16885)
(-8.31159e-18 1.36154e-16 -2.32255)
(1.12486e-17 -1.25504e-16 -2.5605)
(-5.16598e-18 5.75947e-17 -2.86411)
(5.9109e-18 -5.74805e-17 -3.14093)
(2.4844e-18 -1.3608e-18 -3.24635)
(-7.32935e-19 -2.9324e-18 -3.14562)
(1.20864e-18 -5.08217e-17 -2.9203)
(-1.35141e-18 5.53813e-17 -2.64119)
(-1.46529e-19 5.22118e-17 -2.35291)
(5.972e-19 -4.45479e-17 -2.07899)
(-7.78821e-19 2.4488e-17 -1.83003)
(4.00296e-19 -2.46871e-17 -1.60893)
(-3.2054e-20 2.50425e-19 -1.4145)
(-7.73285e-19 2.6013e-17 -1.24338)
(9.55335e-19 -2.31392e-17 -1.08861)
(-1.25374e-18 2.49723e-17 -0.940732)
(3.71168e-19 -2.26878e-17 -0.792553)
(7.3403e-19 -2.16649e-18 -0.638066)
(-9.86019e-19 2.62741e-18 -0.471916)
(4.67599e-19 -6.52926e-20 -0.290039)
(-1.59205e-18 8.47592e-20 -0.0896477)
(2.68446e-18 2.31006e-18 0.135838)
(-1.91459e-18 -1.15339e-19 0.382833)
(2.62282e-19 -2.72248e-19 0.656213)
(5.71235e-19 -3.88916e-18 0.973127)
(-1.15735e-18 2.60719e-19 1.35336)
(1.08153e-18 -7.50902e-19 1.8187)
(1.798e-18 -5.0711e-18 2.37338)
(-1.237e-18 3.37213e-18 2.92929)
(5.03608e-19 -3.86402e-19 3.13826)
(-3.52348e-19 1.93211e-20 2.11468)
(-4.08567e-19 3.01389e-19 -1.62153)
(-1.23072e-18 -3.44246e-19 -8.94698)
(7.83946e-19 1.25773e-19 -3.80462)
(-8.82722e-19 4.95825e-19 -1.66047)
(-1.5166e-18 -3.665e-19 -0.34127)
(2.43093e-18 6.62005e-20 0.6441)
(-4.65556e-18 4.48892e-19 1.41842)
(1.42221e-18 -8.68518e-19 2.00981)
(3.49191e-19 5.03606e-19 2.44927)
(-9.1984e-19 -5.61001e-19 2.77965)
(-4.3631e-20 6.51862e-19 3.03199)
(-2.89665e-18 -3.83971e-18 3.22807)
(2.92108e-18 2.15204e-18 3.38313)
(-9.34644e-19 1.40531e-19 3.50774)
(-2.12902e-18 -5.02487e-18 3.60905)
(2.89522e-18 2.94356e-18 3.69233)
(-6.45147e-19 -3.90187e-19 3.76136)
(-4.72642e-19 1.28481e-20 3.81889)
(1.1204e-18 -1.74828e-18 3.86682)
(1.2661e-18 7.4152e-18 3.90651)
(-2.03314e-18 -1.86796e-17 3.93879)
(2.39759e-18 6.6361e-18 3.96412)
(1.01342e-18 1.51102e-17 3.98251)
(-3.24434e-18 -9.88374e-18 3.99334)
(2.86142e-18 -2.59611e-18 3.99528)
(3.69411e-19 1.8342e-18 3.9865)
(6.19294e-19 7.55179e-19 3.96467)