/*--------------------------------*- C++ -*----------------------------------*\
| =========                 |                                                 |
| \\      /  F ield         | OpenFOAM: The Open Source CFD Toolbox           |
|  \\    /   O peration     | Version:  2506                                  |
|   \\  /    A nd           | Website:  www.openfoam.com                      |
|    \\/     M anipulation  |                                                 |
\*---------------------------------------------------------------------------*/
FoamFile
{
    version     2.0;
    format      ascii;
    arch        "LSB;label=32;scalar=64";
    class       volScalarField;
    location    "1";
    object      p;
}
// * * * * * * * * * * * * * * * * * * * * * * * * * * * * * * * * * * * * * //

dimensions      [0 2 -2 0 0 0 0];

internalField   nonuniform List<scalar> 
4000
(
0.00455071
0.00447496
0.00442519
0.00439501
0.00437006
0.00434694
0.00432514
0.00430411
0.00428344
0.00426297
0.00424266
0.00422246
0.00420237
0.00418237
0.00416246
0.00414264
0.0041229
0.00410327
0.00408373
0.00406431
0.004045
0.00402582
0.00400679
0.00398792
0.00396925
0.00395079
0.00393258
0.00391467
0.00389709
0.00387993
0.00386326
0.0038472
0.00383191
0.00381746
0.00380493
0.00379408
0.00378309
0.00377128
0.00375839
0.00374383
0.00372691
0.00370594
0.00368114
0.00365363
0.00362339
0.00359062
0.0035554
0.00351763
0.00347809
0.00343659
0.00339346
0.00334932
0.0033039
0.00325849
0.00321246
0.00316714
0.00312229
0.0030784
0.00303642
0.00299505
0.00295641
0.00291909
0.00288365
0.00285013
0.00281783
0.00278745
0.00275801
0.00273009
0.00270305
0.00267709
0.0026521
0.00262787
0.00260461
0.0025821
0.0025604
0.00253955
0.00251949
0.00250023
0.0024818
0.00246416
0.0024473
0.00243119
0.00241582
0.00240116
0.00238718
0.00237383
0.00236111
0.002349
0.00233745
0.00232644
0.00231599
0.00230602
0.00229653
0.00228751
0.0022789
0.00227072
0.00226287
0.00225537
0.00224813
0.00224116
0.00223436
0.00222771
0.00222109
0.00221448
0.00220784
0.00220105
0.0021941
0.00218685
0.00217926
0.00217121
0.00216265
0.00215346
0.00214359
0.00213289
0.00212137
0.00210885
0.00209532
0.0020807
0.00206487
0.00204789
0.00202969
0.00201023
0.00198954
0.00196763
0.00194444
0.00192003
0.00189439
0.00186753
0.00183947
0.00181018
0.0017796
0.00174787
0.0017149
0.00168051
0.00164497
0.00160818
0.00156982
0.00153061
0.00148996
0.0014484
0.00140591
0.00136275
0.00131922
0.00127581
0.00123244
0.00119045
0.00114873
0.0011094
0.0010715
0.00103554
0.00100196
0.000969756
0.000940156
0.000911798
0.000885642
0.000860581
0.000837417
0.000815501
0.000795259
0.000776799
0.000762235
0.000747203
0.000732595
0.000718378
0.000704568
0.000690463
0.000675893
0.000659653
0.0006423
0.000624327
0.000605726
0.000586506
0.000566706
0.000546385
0.00052562
0.0005045
0.00048312
0.000461575
0.000439948
0.000418312
0.000396728
0.00037523
0.000353865
0.000332659
0.000311626
0.000290772
0.000270093
0.000249576
0.000229209
0.000208966
0.000188828
0.000168776
0.000148789
0.000128846
0.000108933
8.90386e-05
6.91584e-05
4.92777e-05
2.94043e-05
9.62969e-06
0.00450152
0.0044585
0.00442135
0.00439468
0.00437119
0.00434842
0.00432653
0.00430538
0.00428464
0.00426413
0.0042438
0.0042236
0.00420352
0.00418354
0.00416366
0.00414387
0.00412418
0.00410458
0.00408509
0.00406571
0.00404645
0.00402732
0.00400833
0.00398951
0.00397087
0.00395245
0.00393427
0.00391637
0.00389881
0.00388164
0.00386493
0.00384878
0.00383332
0.00381856
0.00380512
0.00379273
0.00377996
0.00376633
0.00375155
0.00373505
0.00371617
0.00369357
0.0036677
0.00363942
0.00360867
0.00357563
0.00354041
0.00350298
0.00346406
0.00342351
0.00338164
0.00333902
0.00329552
0.00325206
0.00320831
0.00316521
0.00312273
0.003081
0.00304083
0.00300139
0.00296417
0.00292821
0.00289385
0.00286118
0.00282969
0.00279987
0.00277098
0.00274345
0.00271678
0.0026911
0.00266628
0.00264216
0.00261891
0.00259638
0.00257458
0.00255357
0.00253329
0.00251377
0.00249501
0.00247701
0.00245976
0.00244324
0.00242744
0.00241233
0.00239788
0.00238408
0.00237087
0.00235826
0.0023462
0.00233467
0.00232366
0.00231314
0.00230307
0.00229346
0.00228425
0.00227544
0.00226697
0.00225882
0.00225091
0.00224325
0.00223576
0.00222841
0.00222114
0.00221388
0.00220655
0.00219907
0.00219139
0.00218338
0.002175
0.00216614
0.00215671
0.00214662
0.0021358
0.00212412
0.00211156
0.00209797
0.00208336
0.00206766
0.00205082
0.00203284
0.00201369
0.00199332
0.00197179
0.00194909
0.00192519
0.00190015
0.00187396
0.00184663
0.00181817
0.00178857
0.00175779
0.00172592
0.00169289
0.00165859
0.00162324
0.00158676
0.00154897
0.00151043
0.00147074
0.00143033
0.00138927
0.00134781
0.00130622
0.00126489
0.00122383
0.00118403
0.00114489
0.00110765
0.00107169
0.00103732
0.00100501
0.000974035
0.000945283
0.000917747
0.000892134
0.000867544
0.00084462
0.000822874
0.000802558
0.000783558
0.000767603
0.000751384
0.000735577
0.000720171
0.000705067
0.000689848
0.000674259
0.000657515
0.00063997
0.000621917
0.000603302
0.000584111
0.00056437
0.000544133
0.000523469
0.000502461
0.000481199
0.00045977
0.000438252
0.000416717
0.000395222
0.000373825
0.000352566
0.000331457
0.000310512
0.000289739
0.000269136
0.000248693
0.00022841
0.000208254
0.000188204
0.000168239
0.000148337
0.00012848
0.000108651
8.88409e-05
6.90364e-05
4.92362e-05
2.94235e-05
9.63429e-06
0.00447784
0.0044491
0.00441899
0.00439453
0.00437169
0.00434935
0.00432762
0.00430647
0.0042857
0.00426516
0.00424481
0.0042246
0.00420451
0.00418454
0.00416466
0.00414489
0.00412521
0.00410564
0.00408617
0.00406681
0.00404757
0.00402846
0.00400949
0.00399068
0.00397205
0.00395363
0.00393545
0.00391753
0.00389993
0.00388269
0.00386588
0.00384955
0.00383382
0.00381862
0.00380431
0.00379061
0.00377643
0.00376135
0.00374502
0.00372687
0.00370638
0.00368268
0.0036562
0.00362756
0.0035967
0.00356374
0.00352886
0.00349212
0.00345409
0.00341469
0.00337421
0.00333316
0.00329151
0.00324989
0.00320818
0.00316697
0.0031263
0.00308634
0.00304767
0.00300973
0.0029735
0.00293844
0.00290474
0.00287251
0.00284143
0.00281179
0.0027831
0.00275563
0.00272904
0.00270337
0.00267855
0.00265443
0.00263111
0.00260848
0.00258655
0.00256534
0.00254483
0.00252503
0.00250596
0.00248762
0.00247
0.00245309
0.00243689
0.00242136
0.00240649
0.00239226
0.00237863
0.00236558
0.00235307
0.0023411
0.00232963
0.00231863
0.00230808
0.00229797
0.00228826
0.00227894
0.00226995
0.0022613
0.00225291
0.00224476
0.00223676
0.00222889
0.00222108
0.00221326
0.00220536
0.0021973
0.00218901
0.00218037
0.00217133
0.00216177
0.00215161
0.00214075
0.00212912
0.00211661
0.00210321
0.00208877
0.0020733
0.00205676
0.00203909
0.00202031
0.00200039
0.00197932
0.00195713
0.00193383
0.00190942
0.00188392
0.00185735
0.0018297
0.00180099
0.00177121
0.00174034
0.00170846
0.00167551
0.00164144
0.00160643
0.00157042
0.00153335
0.00149562
0.001457
0.00141784
0.00137825
0.00133843
0.00129864
0.00125917
0.00122012
0.00118206
0.0011446
0.00110875
0.00107412
0.00104088
0.00100941
0.000979193
0.000950887
0.000923765
0.000898343
0.000873979
0.000851079
0.000829295
0.000808826
0.000789291
0.000772024
0.000754703
0.000737844
0.000721409
0.000705293
0.000689115
0.000672739
0.000655587
0.00063788
0.000619766
0.000601147
0.000581985
0.000562298
0.000542134
0.000521556
0.000500643
0.000479483
0.000458156
0.000436745
0.000415315
0.000393926
0.000372626
0.000351436
0.000330396
0.000309523
0.000288822
0.000268293
0.00024793
0.000227706
0.000207618
0.000187641
0.000167751
0.000147928
0.00012815
0.000108401
8.86648e-05
6.89312e-05
4.91908e-05
2.94258e-05
9.60913e-06
0.00446631
0.00444248
0.00441611
0.00439348
0.00437164
0.00434968
0.00432824
0.00430724
0.00428653
0.00426602
0.00424568
0.00422547
0.00420539
0.00418542
0.00416556
0.00414579
0.00412613
0.00410656
0.0040871
0.00406775
0.00404851
0.0040294
0.00401043
0.0039916
0.00397295
0.00395449
0.00393625
0.00391826
0.00390055
0.00388317
0.00386615
0.00384954
0.0038334
0.00381765
0.00380253
0.00378776
0.00377239
0.00375603
0.00373838
0.00371892
0.00369728
0.00367282
0.00364595
0.0036171
0.00358627
0.00355358
0.00351923
0.00348332
0.00344626
0.00340812
0.00336916
0.00332974
0.00328989
0.00325006
0.00321024
0.00317079
0.00313181
0.00309343
0.00305603
0.00301929
0.00298385
0.00294944
0.00291618
0.00288422
0.00285331
0.00282371
0.00279504
0.00276754
0.0027409
0.00271516
0.00269026
0.00266607
0.00264264
0.00261989
0.0025978
0.00257641
0.00255569
0.00253564
0.0025163
0.00249765
0.0024797
0.00246245
0.00244588
0.00242999
0.00241475
0.00240013
0.0023861
0.00237265
0.00235974
0.00234734
0.00233544
0.00232399
0.00231299
0.00230242
0.00229222
0.00228242
0.00227293
0.00226377
0.00225486
0.00224619
0.00223767
0.00222929
0.00222094
0.00221258
0.00220412
0.00219547
0.00218657
0.00217728
0.00216755
0.00215727
0.00214634
0.00213469
0.00212223
0.00210887
0.0020946
0.0020793
0.00206299
0.00204562
0.00202717
0.00200764
0.00198705
0.00196537
0.00194264
0.00191888
0.00189408
0.00186828
0.00184147
0.00181367
0.00178489
0.00175513
0.00172438
0.0016927
0.00166006
0.00162643
0.00159197
0.00155665
0.00152048
0.00148373
0.00144631
0.00140849
0.00137038
0.00133215
0.00129402
0.00125621
0.0012188
0.00118218
0.0011462
0.00111146
0.0010778
0.00104532
0.00101434
0.000984537
0.000956387
0.000929392
0.000903932
0.000879624
0.00085657
0.000834562
0.000813841
0.00079383
0.000775702
0.000757446
0.000739641
0.000722283
0.000705305
0.000688351
0.000671403
0.000653895
0.000636011
0.00061783
0.000599192
0.000580034
0.00056037
0.000540241
0.000519709
0.00049885
0.000477749
0.00045649
0.00043515
0.000413793
0.000392477
0.000371247
0.000350136
0.000329176
0.000308383
0.000287762
0.000267313
0.000247029
0.000226894
0.000206894
0.000187004
0.000167202
0.000147465
0.000127772
0.000108104
8.84455e-05
6.87828e-05
4.91016e-05
2.9385e-05
9.56988e-06
0.00445913
0.004437
0.00441303
0.00439186
0.00437104
0.00434979
0.00432868
0.00430783
0.00428724
0.0042668
0.00424649
0.00422631
0.00420624
0.00418627
0.00416641
0.00414665
0.00412698
0.00410741
0.00408795
0.00406859
0.00404934
0.0040302
0.0040112
0.00399233
0.00397363
0.00395509
0.00393675
0.00391863
0.00390076
0.00388316
0.00386586
0.00384889
0.00383229
0.00381592
0.00380001
0.00378429
0.00376783
0.00375031
0.00373149
0.00371093
0.00368838
0.00366334
0.00363616
0.00360722
0.00357654
0.00354425
0.00351056
0.00347558
0.00343959
0.00340277
0.00336539
0.0033276
0.00328951
0.00325143
0.0032134
0.00317565
0.00313828
0.00310135
0.00306516
0.00302952
0.00299484
0.00296101
0.00292816
0.00289641
0.00286561
0.00283598
0.00280726
0.00277962
0.00275285
0.00272697
0.00270192
0.00267758
0.002654
0.00263108
0.00260881
0.00258722
0.00256627
0.00254598
0.00252636
0.00250741
0.00248914
0.00247156
0.00245465
0.0024384
0.0024228
0.00240781
0.00239341
0.00237959
0.00236628
0.00235347
0.00234116
0.00232928
0.00231783
0.00230679
0.00229612
0.00228582
0.00227583
0.00226617
0.00225673
0.00224754
0.00223848
0.00222956
0.00222065
0.00221171
0.00220266
0.00219337
0.00218381
0.00217383
0.00216336
0.0021523
0.00214056
0.00212806
0.00211474
0.00210052
0.00208537
0.00206923
0.00205209
0.00203395
0.00201478
0.0019946
0.00197342
0.00195123
0.00192808
0.00190397
0.00187891
0.00185293
0.00182602
0.0017982
0.00176948
0.00173988
0.00170939
0.00167804
0.00164583
0.00161278
0.001579
0.0015445
0.00150931
0.00147364
0.00143747
0.00140099
0.00136434
0.00132763
0.00129105
0.00125474
0.00121878
0.00118347
0.00114872
0.00111492
0.00108202
0.00105011
0.00101947
0.000989882
0.000961749
0.000934715
0.000909108
0.000884647
0.000861322
0.000839023
0.000817962
0.00079746
0.000778702
0.000759642
0.000740993
0.000722817
0.000705103
0.000687495
0.000670072
0.000652218
0.000634133
0.000615859
0.00059717
0.00057798
0.000558302
0.000538178
0.000517666
0.000496843
0.000475792
0.000454594
0.000433325
0.000412048
0.000390817
0.000369676
0.000348661
0.000327796
0.000307098
0.000286573
0.00026622
0.000246032
0.000225994
0.000206089
0.000186293
0.000166584
0.000146938
0.000127334
0.000107751
8.81727e-05
6.85846e-05
4.89692e-05
2.93141e-05
9.5314e-06
0.00445429
0.00443284
0.00441033
0.00439033
0.00437036
0.0043497
0.00432893
0.00430833
0.0042879
0.00426754
0.00424728
0.00422712
0.00420706
0.0041871
0.00416724
0.00414746
0.00412779
0.0041082
0.00408872
0.00406933
0.00405004
0.00403087
0.00401181
0.00399287
0.00397407
0.00395542
0.00393694
0.00391865
0.00390056
0.00388269
0.00386506
0.00384768
0.00383055
0.00381356
0.00379689
0.00378026
0.00376281
0.00374425
0.0037244
0.00370291
0.00367962
0.00365412
0.00362676
0.00359785
0.00356743
0.00353566
0.00350271
0.0034687
0.0034339
0.00339844
0.00336255
0.00332635
0.00328995
0.00325356
0.00321721
0.00318106
0.00314519
0.00310964
0.00307461
0.00304001
0.0030061
0.00297287
0.00294043
0.00290889
0.00287819
0.00284852
0.0028197
0.00279189
0.00276493
0.00273883
0.00271356
0.00268899
0.0026652
0.00264206
0.00261957
0.00259775
0.00257656
0.002556
0.0025361
0.00251686
0.00249827
0.00248036
0.00246311
0.00244652
0.00243057
0.00241523
0.00240047
0.00238628
0.0023726
0.00235941
0.0023467
0.00233441
0.00232252
0.00231104
0.00229989
0.00228911
0.00227861
0.00226843
0.00225845
0.00224872
0.0022391
0.0022296
0.00222009
0.00221052
0.00220082
0.00219084
0.00218056
0.00216982
0.00215856
0.00214667
0.00213409
0.00212073
0.00210654
0.00209145
0.00207546
0.00205852
0.00204063
0.00202179
0.00200199
0.00198126
0.00195961
0.00193705
0.00191359
0.00188927
0.00186407
0.00183803
0.00181115
0.00178343
0.00175489
0.00172555
0.00169542
0.00166449
0.00163284
0.00160045
0.00156744
0.00153383
0.00149965
0.00146509
0.00143016
0.00139499
0.00135972
0.00132443
0.00128925
0.00125431
0.00121965
0.00118549
0.00115178
0.0011188
0.00108653
0.00105507
0.00102467
0.000995179
0.000966964
0.000939762
0.000913892
0.000889095
0.000865423
0.000842736
0.0008213
0.000800295
0.000781005
0.00076126
0.000741886
0.000723019
0.000704698
0.000686533
0.00066868
0.000650475
0.000632152
0.000613729
0.000594929
0.000575651
0.000555914
0.000535762
0.000515253
0.000494461
0.000473469
0.000452353
0.000431182
0.000410016
0.000388905
0.00036789
0.000347002
0.000326263
0.000305686
0.000285279
0.000265039
0.000244959
0.000225025
0.000205218
0.000185517
0.000165899
0.000146342
0.000126824
0.000107327
8.78316e-05
6.83242e-05
4.87863e-05
2.92111e-05
9.49189e-06
0.00445097
0.00442987
0.00440823
0.00438904
0.00436968
0.00434951
0.0043291
0.00430876
0.00428847
0.00426822
0.00424802
0.0042279
0.00420786
0.0041879
0.00416803
0.00414824
0.00412855
0.00410894
0.00408941
0.00406999
0.00405065
0.0040314
0.00401226
0.00399323
0.0039743
0.00395551
0.00393685
0.00391834
0.00389999
0.0038818
0.00386379
0.00384595
0.00382829
0.00381067
0.00379325
0.00377576
0.0037574
0.00373792
0.00371718
0.00369491
0.00367104
0.00364522
0.00361779
0.00358902
0.00355896
0.00352778
0.00349563
0.00346263
0.00342902
0.00339491
0.00336046
0.00332579
0.00329097
0.00325616
0.00322138
0.00318673
0.00315225
0.003118
0.00308409
0.00305052
0.00301739
0.00298477
0.00295279
0.00292153
0.00289097
0.00286128
0.00283237
0.00280437
0.00277718
0.00275082
0.00272528
0.00270043
0.00267636
0.00265295
0.00263019
0.00260809
0.00258662
0.00256578
0.00254558
0.00252603
0.00250712
0.00248888
0.0024713
0.00245436
0.00243806
0.00242237
0.00240725
0.00239271
0.00237866
0.00236509
0.00235199
0.0023393
0.00232699
0.00231506
0.00230344
0.00229218
0.00228116
0.00227045
0.00225991
0.0022496
0.00223937
0.00222924
0.00221908
0.00220883
0.00219841
0.00218769
0.00217662
0.00216507
0.00215297
0.00214024
0.00212678
0.00211255
0.00209751
0.0020816
0.00206484
0.00204716
0.00202861
0.00200919
0.00198888
0.00196773
0.00194575
0.00192293
0.00189931
0.00187489
0.00184968
0.0018237
0.00179695
0.00176943
0.00174116
0.0017122
0.00168249
0.00165208
0.00162106
0.0015894
0.00155719
0.00152449
0.00149134
0.00145788
0.00142414
0.00139022
0.00135623
0.00132224
0.00128834
0.00125462
0.00122112
0.00118798
0.00115519
0.00112292
0.0010912
0.00106011
0.00102988
0.00100044
0.000972071
0.000944613
0.000918377
0.000893132
0.000869052
0.000845867
0.000823988
0.00080247
0.000782677
0.000762353
0.000742376
0.00072294
0.000704116
0.000685467
0.000667185
0.000648605
0.000629986
0.00061133
0.000592336
0.0005729
0.000553054
0.000532845
0.00051233
0.000491581
0.000470675
0.00044968
0.000428654
0.00040765
0.000386712
0.000365873
0.000345157
0.000324584
0.000304162
0.000283898
0.000263788
0.000243826
0.000223998
0.000204288
0.000184677
0.000165144
0.000145669
0.000126234
0.000106819
8.74098e-05
6.79912e-05
4.85456e-05
2.90724e-05
9.447e-06
0.00444874
0.00442783
0.00440671
0.00438804
0.00436914
0.00434935
0.00432923
0.00430911
0.00428898
0.00426883
0.0042487
0.00422862
0.0042086
0.00418865
0.00416877
0.00414897
0.00412925
0.00410961
0.00409004
0.00407056
0.00405115
0.00403183
0.00401259
0.00399343
0.00397437
0.0039554
0.00393653
0.00391777
0.00389912
0.00388059
0.00386217
0.00384385
0.00382562
0.00380737
0.00378922
0.0037709
0.00375171
0.00373143
0.00370993
0.00368703
0.0036627
0.0036367
0.0036093
0.00358074
0.00355111
0.00352057
0.00348926
0.00345728
0.00342483
0.00339201
0.00335893
0.0033257
0.00329237
0.00325902
0.00322569
0.00319242
0.00315926
0.00312622
0.0030934
0.00306085
0.00302853
0.00299654
0.00296508
0.00293418
0.00290383
0.00287421
0.00284526
0.00281711
0.00278971
0.00276309
0.00273724
0.00271208
0.00268769
0.00266395
0.00264087
0.00261845
0.00259665
0.00257549
0.00255496
0.00253508
0.00251583
0.00249724
0.00247929
0.00246199
0.00244532
0.00242926
0.00241377
0.00239885
0.00238441
0.00237046
0.00235696
0.00234385
0.0023311
0.00231873
0.00230663
0.00229486
0.00228331
0.00227204
0.00226091
0.00224998
0.0022391
0.00222829
0.00221741
0.00220642
0.00219523
0.00218371
0.00217181
0.00215941
0.00214645
0.00213285
0.00211854
0.00210348
0.00208764
0.00207098
0.00205352
0.00203523
0.00201614
0.00199626
0.00197559
0.00195415
0.00193196
0.00190902
0.00188535
0.00186095
0.00183584
0.00181001
0.00178348
0.00175626
0.00172836
0.0016998
0.00167056
0.00164075
0.00161039
0.00157947
0.00154809
0.00151631
0.00148416
0.00145176
0.00141914
0.0013864
0.00135359
0.00132079
0.00128804
0.00125542
0.00122295
0.00119072
0.00115877
0.00112716
0.00109592
0.00106515
0.00103509
0.00100567
0.000977121
0.000949364
0.000922707
0.000896945
0.000872354
0.000848618
0.00082622
0.00080418
0.000783853
0.000763032
0.000742549
0.000722633
0.000703361
0.000684255
0.000665509
0.00064652
0.000627539
0.000608555
0.000589277
0.000569619
0.000549623
0.000529343
0.00050883
0.000488152
0.000467376
0.000446553
0.00042573
0.00040495
0.000384245
0.000363637
0.000343144
0.000322777
0.000302543
0.000282444
0.00026248
0.000242642
0.000222921
0.000203304
0.000183775
0.000164319
0.000144919
0.00012556
0.000106227
8.69063e-05
6.75858e-05
4.82487e-05
2.88994e-05
9.39549e-06
0.00444733
0.00442655
0.00440574
0.0043874
0.0043688
0.00434927
0.00432938
0.00430942
0.00428942
0.00426936
0.00424929
0.00422925
0.00420926
0.00418932
0.00416944
0.00414963
0.00412989
0.00411021
0.0040906
0.00407106
0.00405158
0.00403217
0.00401282
0.00399353
0.00397431
0.00395515
0.00393605
0.00391702
0.00389806
0.00387915
0.0038603
0.00384148
0.00382268
0.00380382
0.00378496
0.00376584
0.00374589
0.0037249
0.00370277
0.00367936
0.00365469
0.00362859
0.0036013
0.00357301
0.00354386
0.00351399
0.00348352
0.00345254
0.00342121
0.00338962
0.00335784
0.00332594
0.00329397
0.00326196
0.00322996
0.00319798
0.00316604
0.00313416
0.00310238
0.00307078
0.00303932
0.00300803
0.00297712
0.00294665
0.00291661
0.00288718
0.00285828
0.00283005
0.00280251
0.00277566
0.00274953
0.00272406
0.00269932
0.00267523
0.00265179
0.00262901
0.00260685
0.00258532
0.00256443
0.00254417
0.00252454
0.00250556
0.00248721
0.0024695
0.00245242
0.00243595
0.00242004
0.00240469
0.00238983
0.00237544
0.0023615
0.00234794
0.00233473
0.00232187
0.00230926
0.00229696
0.00228484
0.00227297
0.00226121
0.00224963
0.00223804
0.0022265
0.00221487
0.00220308
0.00219108
0.00217872
0.00216597
0.00215271
0.0021389
0.00212446
0.00210934
0.00209351
0.00207696
0.00205966
0.00204163
0.00202286
0.00200337
0.00198317
0.00196227
0.00194067
0.0019184
0.00189546
0.00187184
0.00184757
0.00182263
0.00179704
0.00177079
0.00174392
0.00171643
0.00168829
0.00165961
0.00163041
0.00160071
0.00157054
0.00153998
0.00150908
0.0014779
0.0014465
0.00141493
0.00138326
0.00135154
0.00131981
0.00128811
0.00125648
0.00122494
0.00119354
0.00116236
0.00113139
0.00110057
0.00107011
0.00104024
0.00101087
0.000982121
0.000954062
0.000926976
0.000900688
0.000875468
0.000851143
0.000828162
0.000805597
0.000784669
0.000763392
0.000742465
0.000722108
0.000702389
0.00068282
0.000663548
0.000644116
0.000624729
0.000605348
0.000585719
0.000565791
0.000545621
0.000525262
0.000504769
0.000484209
0.000463624
0.000443033
0.000422467
0.000401966
0.00038155
0.000361225
0.000340997
0.00032087
0.000300849
0.000280933
0.000261123
0.000241414
0.000221798
0.000202268
0.000182815
0.000163428
0.000144096
0.00012481
0.000105558
8.63312e-05
6.71186e-05
4.79053e-05
2.86992e-05
9.34094e-06
0.00444662
0.00442594
0.00440529
0.00438713
0.00436871
0.00434933
0.00432957
0.00430973
0.00428981
0.00426982
0.0042498
0.0042298
0.00420983
0.0041899
0.00417003
0.00415021
0.00413045
0.00411074
0.00409109
0.00407149
0.00405194
0.00403245
0.004013
0.00399357
0.00397418
0.00395482
0.00393549
0.00391618
0.00389688
0.0038776
0.00385833
0.00383901
0.00381964
0.00380017
0.00378061
0.00376073
0.00374008
0.00371847
0.0036958
0.00367197
0.00364705
0.00362093
0.00359379
0.00356582
0.00353717
0.00350798
0.00347833
0.00344833
0.00341807
0.00338762
0.00335704
0.00332637
0.00329564
0.00326486
0.00323407
0.00320326
0.00317244
0.00314164
0.00311085
0.00308017
0.00304953
0.00301904
0.00298878
0.00295876
0.00292912
0.00289998
0.00287123
0.00284302
0.00281545
0.00278846
0.00276209
0.00273635
0.0027113
0.00268687
0.00266307
0.0026399
0.00261734
0.00259541
0.0025741
0.00255343
0.00253339
0.00251397
0.00249516
0.00247697
0.00245942
0.00244247
0.00242609
0.00241025
0.00239488
0.00237999
0.00236553
0.00235146
0.00233771
0.00232431
0.00231114
0.00229826
0.00228553
0.00227302
0.00226059
0.0022483
0.00223599
0.00222368
0.00221125
0.00219865
0.0021858
0.0021726
0.00215901
0.00214492
0.0021303
0.00211509
0.00209925
0.00208276
0.00206562
0.00204781
0.00202935
0.00201024
0.00199051
0.00197014
0.00194913
0.0019275
0.00190526
0.0018824
0.00185892
0.00183483
0.00181012
0.00178481
0.00175889
0.00173238
0.0017053
0.00167766
0.00164952
0.00162092
0.00159188
0.00156244
0.00153267
0.00150262
0.00147233
0.00144187
0.00141127
0.00138059
0.00134985
0.0013191
0.00128834
0.00125761
0.00122691
0.00119629
0.0011658
0.00113539
0.00110507
0.00107492
0.00104521
0.00101591
0.000987003
0.00095869
0.000931203
0.000904377
0.000878506
0.000853559
0.000829918
0.000806818
0.000785217
0.000763486
0.000742132
0.000721329
0.000701116
0.000681087
0.000661274
0.000641357
0.000621511
0.000601698
0.000581725
0.000561556
0.000541225
0.000520751
0.00050025
0.00047984
0.000459522
0.000439231
0.000418968
0.000398792
0.000378705
0.000358695
0.00033876
0.000318894
0.000299098
0.000279373
0.000259721
0.000240139
0.000220627
0.00020118
0.000181797
0.000162474
0.000143209
0.000123995
0.000104828
8.57014e-05
6.66066e-05
4.75308e-05
2.84816e-05
9.29086e-06
0.00444656
0.00442595
0.00440536
0.00438725
0.00436888
0.00434956
0.00432984
0.00431005
0.00429017
0.00427021
0.00425023
0.00423025
0.0042103
0.00419039
0.00417052
0.0041507
0.00413093
0.00411121
0.00409152
0.00407188
0.00405226
0.00403268
0.00401312
0.00399357
0.00397402
0.00395447
0.00393491
0.00391532
0.00389569
0.00387604
0.00385636
0.00383657
0.00381663
0.00379656
0.00377632
0.00375573
0.00373443
0.00371226
0.00368911
0.00366495
0.00363983
0.00361372
0.00358676
0.00355913
0.003531
0.00350248
0.00347364
0.00344456
0.0034153
0.00338592
0.00335643
0.00332687
0.00329726
0.00326759
0.00323789
0.00320814
0.00317835
0.00314855
0.00311869
0.0030889
0.00305908
0.00302934
0.00299974
0.00297033
0.00294119
0.00291239
0.00288385
0.00285579
0.00282831
0.00280127
0.00277475
0.00274882
0.00272352
0.00269878
0.00267465
0.0026511
0.00262814
0.00260579
0.00258404
0.00256291
0.00254242
0.00252255
0.00250323
0.00248447
0.00246636
0.00244886
0.00243193
0.00241553
0.00239957
0.00238408
0.00236902
0.00235434
0.00233999
0.00232597
0.00231217
0.00229864
0.00228525
0.00227205
0.00225892
0.00224588
0.00223281
0.00221971
0.00220647
0.00219305
0.00217937
0.00216535
0.00215096
0.00213613
0.0021208
0.00210493
0.00208848
0.00207147
0.0020539
0.00203574
0.00201699
0.00199767
0.00197781
0.0019574
0.0019364
0.00191481
0.00189267
0.00186996
0.00184667
0.0018228
0.00179835
0.00177333
0.00174774
0.00172161
0.00169495
0.00166779
0.00164018
0.00161216
0.00158375
0.00155501
0.00152598
0.00149672
0.00146727
0.00143767
0.00140796
0.00137817
0.00134832
0.00131845
0.00128854
0.00125863
0.0012287
0.00119879
0.00116891
0.00113904
0.0011092
0.00107947
0.00104996
0.00102073
0.000991714
0.000963198
0.000935309
0.000907959
0.000881476
0.000855904
0.00083152
0.000807852
0.00078552
0.000763314
0.000741521
0.000720252
0.000699531
0.000679005
0.000658725
0.000638391
0.000617955
0.000597597
0.000577327
0.000556939
0.00053648
0.000516021
0.000495651
0.000475425
0.000455315
0.000435291
0.000415365
0.000395543
0.000375801
0.000356114
0.000336482
0.000316876
0.000297303
0.000277768
0.00025827
0.000238811
0.000219397
0.000200032
0.000180719
0.000161463
0.000142266
0.000123131
0.000104055
8.50365e-05
6.60698e-05
4.7143e-05
2.82573e-05
9.25194e-06
0.00444716
0.00442659
0.00440595
0.00438776
0.00436932
0.00434995
0.0043302
0.00431038
0.00429049
0.00427055
0.00425058
0.00423062
0.00421069
0.00419079
0.00417094
0.00415112
0.00413135
0.00411161
0.00409191
0.00407222
0.00405256
0.0040329
0.00401325
0.00399358
0.00397389
0.00395417
0.00393439
0.00391454
0.00389461
0.00387461
0.00385449
0.00383421
0.00381376
0.00379313
0.00377225
0.00375097
0.00372906
0.00370637
0.00368279
0.00365833
0.00363306
0.00360698
0.0035802
0.00355293
0.00352532
0.00349745
0.00346937
0.00344117
0.00341282
0.00338441
0.00335591
0.00332735
0.00329874
0.00327005
0.00324133
0.00321254
0.00318368
0.00315479
0.00312581
0.00309686
0.00306783
0.00303886
0.00300994
0.00298114
0.00295252
0.00292411
0.00289597
0.0028682
0.00284083
0.00281384
0.00278723
0.00276122
0.00273577
0.0027108
0.00268637
0.00266246
0.00263914
0.00261639
0.00259417
0.00257258
0.00255163
0.00253124
0.00251139
0.00249206
0.00247332
0.00245518
0.00243759
0.00242051
0.0024039
0.00238775
0.002372
0.00235663
0.00234159
0.00232687
0.00231237
0.00229812
0.00228402
0.00227008
0.00225621
0.0022424
0.00222856
0.00221468
0.00220067
0.00218649
0.00217205
0.00215724
0.00214204
0.00212651
0.00211064
0.00209428
0.00207737
0.00205997
0.00204209
0.00202373
0.00200485
0.00198546
0.00196555
0.00194516
0.00192428
0.00190281
0.00188079
0.00185824
0.00183514
0.0018115
0.0017873
0.00176256
0.0017373
0.00171153
0.00168527
0.00165857
0.00163146
0.00160398
0.00157617
0.00154808
0.00151974
0.00149122
0.00146253
0.00143371
0.0014048
0.00137582
0.00134677
0.00131769
0.00128855
0.00125938
0.00123017
0.00120091
0.00117162
0.00114229
0.00111292
0.00108358
0.00105428
0.00102518
0.00099618
0.00096752
0.00093926
0.000911441
0.000884289
0.000858033
0.000832882
0.00080863
0.000785527
0.000762833
0.000740617
0.000718893
0.000697548
0.000676445
0.000655696
0.000634977
0.00061422
0.000593534
0.000572885
0.000552272
0.000531757
0.000511331
0.000491077
0.000471026
0.000451156
0.000431437
0.000411847
0.000392357
0.000372934
0.000353545
0.000334209
0.000314846
0.00029548
0.000276123
0.000256771
0.00023743
0.000218111
0.000198826
0.000179584
0.000160398
0.000141276
0.000122224
0.000103248
8.43472e-05
6.55188e-05
4.67522e-05
2.80506e-05
9.2435e-06
0.00444845
0.00442789
0.00440708
0.00438867
0.00437003
0.00435049
0.00433062
0.00431072
0.00429079
0.00427082
0.00425085
0.0042309
0.00421099
0.00419112
0.00417128
0.00415149
0.00413172
0.00411199
0.00409227
0.00407257
0.00405286
0.00403315
0.00401341
0.00399364
0.00397382
0.00395394
0.00393397
0.00391389
0.0038937
0.00387336
0.00385285
0.00383214
0.00381119
0.00379003
0.00376853
0.00374659
0.00372409
0.00370088
0.00367689
0.00365213
0.00362673
0.00360071
0.00357408
0.00354716
0.00352006
0.00349282
0.00346547
0.00343806
0.00341056
0.00338301
0.0033554
0.00332771
0.00329998
0.00327217
0.00324432
0.00321638
0.00318837
0.00316031
0.00313214
0.00310398
0.00307571
0.00304747
0.00301924
0.00299107
0.002963
0.00293507
0.00290736
0.00287989
0.00285271
0.00282586
0.00279938
0.00277337
0.00274778
0.00272265
0.00269798
0.00267375
0.00265007
0.00262701
0.00260445
0.00258239
0.0025609
0.00253995
0.00251957
0.00249973
0.00248038
0.00246152
0.00244319
0.00242536
0.00240802
0.00239112
0.00237463
0.0023585
0.0023427
0.00232721
0.00231195
0.00229693
0.00228207
0.00226735
0.00225271
0.00223813
0.00222353
0.00220888
0.00219412
0.0021792
0.00216404
0.0021486
0.00213285
0.00211678
0.00210037
0.00208357
0.00206633
0.00204867
0.00203064
0.00201218
0.00199325
0.00197386
0.001954
0.00193367
0.00191286
0.00189152
0.00186965
0.00184727
0.00182435
0.00180091
0.00177694
0.00175246
0.00172749
0.00170204
0.00167616
0.00164988
0.00162323
0.00159626
0.001569
0.00154151
0.0015138
0.00148594
0.00145794
0.00142983
0.00140164
0.00137339
0.00134506
0.00131669
0.00128825
0.00125976
0.0012312
0.00120255
0.00117384
0.00114503
0.00111612
0.00108719
0.00105817
0.00102924
0.00100027
0.000971463
0.000942872
0.000914664
0.000886953
0.000860024
0.000833983
0.000809015
0.000785089
0.000761848
0.000739139
0.000716939
0.000695121
0.000673678
0.000652476
0.000631414
0.000610407
0.000589454
0.000568587
0.000547847
0.00052728
0.000506911
0.000486787
0.000466917
0.000447278
0.000427829
0.000408526
0.000389324
0.00037018
0.000351055
0.000331951
0.000312802
0.000293621
0.000274422
0.000255203
0.000235975
0.000216752
0.000197552
0.000178391
0.000159285
0.000140249
0.000121294
0.000102428
8.36545e-05
6.49723e-05
4.63723e-05
2.78547e-05
9.25031e-06
0.00445058
0.00442997
0.00440879
0.00438996
0.00437097
0.00435115
0.00433107
0.00431104
0.00429103
0.00427103
0.00425105
0.00423111
0.00421123
0.00419139