/*--------------------------------*- C++ -*----------------------------------*\
| =========                 |                                                 |
| \\      /  F ield         | OpenFOAM: The Open Source CFD Toolbox           |
|  \\    /   O peration     | Version:  2506                                  |
|   \\  /    A nd           | Website:  www.openfoam.com                      |
|    \\/     M anipulation  |                                                 |
\*---------------------------------------------------------------------------*/
FoamFile
{
    version     2.0;
    format      ascii;
    arch        "LSB;label=32;scalar=64";
    class       volVectorField;
    location    "1";
    object      vorticityField;
}
// * * * * * * * * * * * * * * * * * * * * * * * * * * * * * * * * * * * * * //

dimensions      [0 0 -1 0 0 0 0];

internalField   nonuniform List<vector> 
4000
(
(-2.28966e-20 7.76091e-18 -32.7231)
(-8.399e-18 -6.72987e-18 -35.7822)
(8.90371e-18 -2.51813e-17 -33.6579)
(3.39097e-17 3.88456e-17 -29.6525)
(-6.95701e-17 3.16551e-18 -26.6711)
(3.55834e-17 -3.42786e-17 -24.7928)
(-2.90619e-19 1.64178e-17 -23.4902)
(3.51052e-17 -0 -22.511)
(-3.44664e-17 -3.24695e-17 -21.7475)
(6.90075e-17 2.98491e-17 -21.1302)
(-6.90355e-17 -2.93671e-17 -20.6139)
(-2.31991e-18 2.69126e-17 -20.1717)
(-1.05446e-18 6.96553e-17 -19.7869)
(7.24364e-17 -6.45805e-17 -19.4476)
(-3.33271e-19 -0 -19.1443)
(-1.36565e-16 -6.32678e-17 -18.8696)
(1.34378e-16 5.84882e-17 -18.6168)
(-7.10271e-17 6.8089e-17 -18.3801)
(3.36201e-18 -6.33094e-17 -18.1543)
(0 -0 -17.9343)
(0 -0 -17.7155)
(0 -0 -17.4932)
(8.34202e-18 -1.22938e-16 -17.263)
(1.14419e-16 2.36595e-16 -17.0202)
(-2.62849e-16 1.80238e-17 -16.76)
(1.49498e-16 -2.54231e-16 -16.4773)
(-9.40042e-18 1.22551e-16 -16.1662)
(0 -0 -15.8196)
(0 -0 -15.4292)
(-1.06221e-17 1.20013e-16 -14.9837)
(-2.51249e-16 -1.12759e-16 -14.4677)
(1.4051e-16 -1.2749e-16 -13.862)
(2.65948e-16 1.56631e-17 -13.1357)
(7.15992e-18 -1.24152e-16 -12.0821)
(-7.73796e-17 6.99181e-16 -10.8533)
(-3.02076e-16 5.72871e-16 -10.1951)
(-9.70974e-16 -1.02282e-15 -10.364)
(-7.67934e-18 8.46242e-18 -11.0956)
(7.06153e-16 1.71025e-15 -12.2982)
(-7.29269e-16 -1.08053e-15 -14.0508)
(3.83979e-16 -2.23334e-15 -16.6444)
(1.10434e-15 2.12581e-15 -19.8011)
(-3.37533e-16 9.36262e-16 -22.9638)
(2.56357e-16 -1.0075e-15 -25.9974)
(1.20046e-15 8.40503e-16 -28.9005)
(-1.38175e-15 1.7567e-16 -31.7093)
(-1.26847e-15 4.03881e-16 -34.4677)
(-1.07886e-15 -1.06082e-15 -37.0052)
(-1.2253e-15 -1.27271e-15 -39.3756)
(-5.26163e-16 -1.34652e-15 -41.5487)
(7.04623e-16 -3.29541e-16 -43.4284)
(-4.28938e-17 5.32661e-16 -45.0993)
(-6.53583e-16 -1.19893e-15 -46.3753)
(7.30383e-16 1.47351e-17 -47.3904)
(-9.88448e-17 1.15496e-15 -48.0037)
(-3.34938e-16 5.63921e-17 -48.2478)
(2.56374e-16 -9.03799e-17 -48.1551)
(8.42857e-17 -3.02038e-17 -47.5907)
(1.56394e-16 5.06295e-17 -46.8192)
(-7.57382e-17 -4.86245e-17 -45.6306)
(7.92011e-17 -2.09524e-17 -44.1047)
(3.13677e-16 7.31376e-18 -42.459)
(-1.47575e-16 -7.0598e-17 -40.5887)
(-8.73474e-17 -6.93586e-16 -38.6602)
(5.80025e-17 -1.17287e-16 -36.6616)
(-1.12303e-16 8.18726e-16 -34.6234)
(6.36647e-16 -1.26462e-16 -32.6498)
(2.69817e-17 -4.31156e-16 -30.6519)
(3.03824e-16 6.76085e-16 -28.7614)
(-7.86472e-16 8.02583e-16 -26.8835)
(-1.78051e-16 -5.94963e-16 -25.0971)
(-5.04157e-17 -2.40903e-16 -23.3784)
(-1.97958e-19 2.318e-18 -21.6944)
(-9.75357e-16 6.18661e-16 -20.1131)
(-9.472e-16 6.72894e-16 -18.5879)
(-3.89626e-17 7.9016e-16 -17.1316)
(-7.94457e-16 5.11573e-16 -15.7681)
(9.40448e-17 -8.18607e-16 -14.4829)
(-8.61118e-16 4.61967e-16 -13.2756)
(7.62152e-16 2.36528e-16 -12.1595)
(-1.44188e-15 4.061e-16 -11.1274)
(-1.67696e-16 -7.50853e-16 -10.1745)
(4.19849e-17 -1.0574e-16 -9.29827)
(-8.0661e-17 2.90993e-17 -8.49231)
(6.83044e-16 1.06952e-15 -7.75234)
(-1.2302e-15 1.61621e-15 -7.07401)
(5.07057e-17 -1.46044e-15 -6.44814)
(-6.15703e-17 -7.34848e-16 -5.87298)
(-1.20081e-17 1.40644e-15 -5.3501)
(-5.06695e-16 3.27152e-16 -4.87057)
(1.88447e-18 1.95293e-18 -4.43592)
(-4.99695e-16 9.17922e-16 -4.05006)
(-2.34009e-16 -1.1276e-15 -3.70587)
(1.76079e-16 -3.79285e-16 -3.40758)
(6.51685e-18 5.84694e-16 -3.15523)
(7.34901e-17 -6.45075e-16 -2.94683)
(2.19047e-16 -9.67406e-17 -2.78638)
(2.79932e-17 3.13333e-17 -2.66914)
(-3.30355e-16 -5.34991e-17 -2.59585)
(5.33913e-17 2.75177e-16 -2.56546)
(5.88057e-17 -3.38452e-18 -2.58725)
(1.8524e-17 -5.40717e-17 -2.65904)
(-9.7937e-18 1.71732e-16 -2.78704)
(-2.55013e-17 4.62979e-17 -2.96194)
(-3.76597e-17 -1.87065e-17 -3.19702)
(-6.83442e-19 -6.20422e-17 -3.49752)
(3.69832e-18 4.96615e-16 -3.8713)
(-1.923e-16 -2.62366e-17 -4.32654)
(-2.33925e-16 -8.40042e-16 -4.86333)
(4.39903e-16 -1.22654e-16 -5.49024)
(-2.21994e-16 1.64496e-16 -6.21197)
(1.00614e-17 5.56376e-16 -7.0262)
(-2.31811e-16 -1.09618e-16 -7.9431)
(-2.20527e-16 -4.34276e-16 -8.94006)
(-6.8324e-18 -5.78251e-16 -10.0459)
(4.54759e-16 3.00483e-16 -11.2238)
(3.5903e-18 1.139e-15 -12.4795)
(2.33611e-17 9.64936e-17 -13.8107)
(4.64666e-16 3.40551e-16 -15.1831)
(-4.82726e-16 -3.62054e-16 -16.5925)
(-5.57378e-16 -1.72992e-15 -18.0379)
(5.92413e-16 3.96175e-16 -19.4929)
(2.67973e-17 1.29403e-15 -20.9475)
(-5.47362e-16 -4.01132e-16 -22.4096)
(-1.06323e-16 -1.35333e-15 -23.857)
(1.07391e-15 7.60976e-16 -25.2912)
(-3.67779e-16 3.89905e-16 -26.7092)
(5.19474e-16 -1.06701e-16 -28.1051)
(5.83281e-16 8.4034e-16 -29.49)
(-3.41862e-18 8.44322e-16 -30.8861)
(-1.77149e-17 5.13804e-16 -32.2381)
(-5.53486e-16 -1.64411e-16 -33.5943)
(-2.08869e-16 -6.18741e-16 -34.9917)
(-1.10337e-15 -7.64678e-16 -36.3335)
(4.32211e-16 1.6838e-17 -37.6757)
(-7.4609e-17 -3.90777e-17 -39.0852)
(7.69971e-17 4.23768e-17 -40.3419)
(-2.62329e-17 -1.56523e-16 -41.6472)
(8.42817e-17 8.78372e-17 -42.8243)
(-1.23888e-16 1.17688e-16 -43.9219)
(1.24498e-16 1.65194e-16 -44.8688)
(-4.39132e-16 -1.75598e-16 -45.6219)
(1.9682e-16 1.50529e-16 -46.1081)
(-6.5007e-17 4.25802e-17 -46.3719)
(-1.39111e-16 -8.46277e-17 -46.1864)
(-1.36049e-17 -2.18893e-16 -45.8059)
(-2.44605e-17 3.98031e-17 -44.9026)
(0 -0 -43.641)
(-5.29761e-17 3.82287e-17 -42.1051)
(5.75718e-17 -2.32477e-17 -40.2049)
(2.4805e-17 -1.93669e-16 -38.173)
(-2.60922e-17 -9.18505e-17 -35.8944)
(1.55723e-16 9.16043e-17 -33.5138)
(8.29124e-17 2.36077e-16 -31.0619)
(-1.69581e-16 6.61693e-17 -28.5708)
(1.63549e-16 -1.71291e-16 -26.0549)
(-2.47655e-16 -1.08534e-16 -23.4872)
(3.412e-16 -1.89006e-16 -20.9007)
(-7.63192e-17 -3.14615e-16 -18.1327)
(2.37948e-16 -1.88913e-16 -15.1152)
(-2.28324e-16 7.19764e-16 -12.8115)
(1.81808e-16 -1.34857e-16 -11.6466)
(-4.60833e-17 -9.312e-17 -10.749)
(3.20794e-17 -7.47833e-18 -10.1162)
(3.03128e-17 -4.66201e-18 -9.86584)
(2.89581e-17 -2.40597e-18 -10.0654)
(-2.78697e-17 -2.09633e-17 -10.821)
(2.35419e-17 -6.17145e-18 -11.9675)
(1.70025e-18 2.13137e-17 -13.1046)
(2.85948e-18 1.89395e-17 -14.1741)
(-2.35086e-17 7.21024e-18 -15.2154)
(-5.10314e-18 -3.80174e-17 -16.2079)
(4.9142e-19 8.6681e-18 -17.1147)
(3.96359e-18 2.66807e-17 -17.9062)
(-2.85795e-18 -1.83555e-17 -18.5632)
(1.90695e-17 5.82295e-19 -19.0777)
(-3.47127e-17 1.42734e-17 -19.4515)
(1.75922e-17 -3.9608e-18 -19.6956)
(-2.73594e-18 -2.46544e-17 -19.8255)
(9.8329e-19 1.43212e-17 -19.8601)
(8.47162e-18 5.43247e-18 -19.8208)
(-1.37456e-17 4.27725e-18 -19.726)
(-1.05064e-18 -1.08453e-17 -19.5938)
(1.82758e-19 -4.74237e-18 -19.4412)
(5.46996e-18 5.43166e-18 -19.2816)
(5.11564e-18 1.52593e-20 -19.125)
(-5.70335e-18 -1.70124e-20 -18.9781)
(4.87972e-18 -2.1015e-19 -18.8446)
(-8.25056e-18 -4.77774e-19 -18.7259)
(5.2392e-18 2.39838e-19 -18.6207)
(-1.76994e-18 -5.27951e-21 -18.5252)
(-4.00231e-19 -1.08557e-18 -18.4355)
(1.20395e-18 -1.31203e-18 -18.3473)
(-3.90468e-19 3.47144e-18 -18.2561)
(-1.0591e-18 -1.17005e-18 -18.1577)
(1.45362e-19 -6.6583e-19 -18.0483)
(-9.24456e-20 -9.3702e-19 -17.9249)
(-1.61445e-19 8.94005e-19 -17.781)
(-8.2601e-20 4.28626e-19 -17.5941)
(-2.25155e-20 -7.60954e-20 -17.3692)
(0 -0 2.64498)
(-1.51326e-20 -0 -6.32664)
(-1.50748e-19 -1.59557e-17 -11.5187)
(-8.41737e-19 2.88655e-17 -13.4283)
(1.78087e-17 6.40575e-18 -13.6163)
(-1.68861e-17 -3.57117e-17 -13.143)
(3.89747e-19 -1.65301e-17 -12.5584)
(-6.49343e-19 2.73885e-17 -12.0323)
(-3.37272e-17 5.68632e-18 -11.5835)
(3.28475e-17 -5.41589e-18 -11.2009)
(6.52484e-17 1.04257e-16 -10.8705)
(-1.33615e-16 -8.88721e-17 -10.5813)
(6.63632e-18 -1.41801e-16 -10.3257)
(6.52304e-17 5.64361e-17 -10.098)
(-8.51433e-18 1.96668e-16 -9.89346)
(-6.41467e-17 -4.63065e-17 -9.70796)
(7.28104e-17 -1.40528e-16 -9.53789)
(-2.64932e-18 6.54149e-17 -9.37988)
(0 -0 -9.23089)
(0 -0 -9.08824)
(0 -0 -8.94925)
(0 -0 -8.81136)
(0 -0 -8.67211)
(-2.63186e-16 -0 -8.5291)
(3.9469e-16 -0 -8.3799)
(-1.31263e-16 -0 -8.22197)
(0 -0 -8.05281)
(0 -0 -7.86979)
(0 -0 -7.6698)
(-1.10823e-17 1.25213e-16 -7.44935)
(-1.30852e-18 1.40318e-17 -7.20417)
(3.60523e-17 -3.7638e-16 -6.92856)
(-9.45385e-18 8.33806e-17 -6.61433)
(-1.41591e-16 3.88723e-16 -6.24699)
(-7.88666e-17 -4.81635e-16 -5.85324)
(3.42928e-16 4.09257e-16 -5.60909)
(9.68725e-16 8.23306e-16 -5.67958)
(7.09352e-17 -1.90114e-15 -6.10035)
(-4.40801e-16 -8.62705e-16 -6.86205)
(1.03687e-15 2.08418e-15 -7.97724)
(-3.02168e-16 1.16545e-16 -9.46758)
(-8.51498e-16 -1.5418e-15 -11.0813)
(7.30691e-17 -1.37267e-16 -12.7366)
(3.37173e-17 -2.70918e-16 -14.4334)
(-1.26671e-15 1.92349e-16 -16.1018)
(1.05922e-15 2.18912e-15 -17.759)
(2.39335e-15 3.72442e-16 -19.3857)
(1.07644e-15 1.15382e-15 -20.9168)
(1.22541e-15 7.79025e-16 -22.396)
(6.53086e-16 -2.20989e-16 -23.7464)
(-1.80611e-15 -8.82259e-16 -24.9689)
(-3.84104e-17 4.73219e-16 -26.0694)
(5.09301e-16 8.96211e-16 -26.9791)
(-6.3943e-16 -5.39357e-16 -27.7524)
(6.63164e-16 -3.03253e-16 -28.317)
(6.39167e-16 -4.73414e-17 -28.7134)
(4.06238e-16 -6.65184e-17 -28.9141)
(1.44124e-16 1.23459e-16 -28.9143)
(-8.34329e-17 3.1955e-17 -28.7194)
(-8.7219e-17 1.17709e-16 -28.3444)
(-4.94692e-17 -2.34177e-16 -27.7463)
(-3.22945e-16 4.56852e-17 -26.9745)
(2.55077e-16 4.33908e-16 -26.048)
(-1.91978e-16 6.61169e-16 -24.9539)
(2.2473e-16 6.11212e-17 -23.7771)
(1.08887e-17 -1.1425e-15 -22.4771)
(2.33084e-16 -2.24903e-16 -21.165)
(-3.20839e-16 7.1124e-16 -19.7617)
(-3.61544e-16 -4.63e-17 -18.3838)
(9.81763e-16 -4.2238e-16 -16.9912)
(-6.11817e-18 1.36534e-16 -15.611)
(-1.4044e-15 5.73247e-16 -14.2905)
(7.76112e-16 4.47932e-16 -12.9819)
(2.38495e-17 1.11701e-15 -11.7384)
(1.07491e-15 -1.41341e-15 -10.5574)
(1.59401e-16 -9.51355e-16 -9.42994)
(-1.71319e-16 1.06791e-16 -8.37737)
(-4.27092e-17 8.45086e-16 -7.403)
(-7.36003e-16 -1.55895e-16 -6.498)
(-1.60701e-15 9.80358e-16 -5.66941)
(2.13301e-15 3.18196e-16 -4.91744)
(2.08687e-16 -9.52816e-16 -4.23553)
(-7.30083e-16 4.96135e-16 -3.62145)
(1.18231e-16 -7.2357e-16 -3.07206)
(-2.30325e-17 -9.78194e-17 -2.57972)
(1.25484e-15 -7.70893e-16 -2.14371)
(5.59764e-16 -4.7232e-16 -1.76124)
(6.81753e-16 4.31665e-16 -1.424)
(5.55003e-16 -1.12472e-15 -1.13435)
(1.11436e-15 -7.05893e-16 -0.890705)
(3.54101e-19 2.2474e-17 -0.685731)
(5.05979e-16 -6.27693e-16 -0.522776)
(2.10251e-16 2.34448e-16 -0.398875)
(-4.6879e-16 2.63463e-16 -0.309183)
(2.14788e-16 -5.57937e-16 -0.255844)
(8.88419e-18 3.0678e-16 -0.230252)
(-4.57841e-16 2.41333e-16 -0.234932)
(2.20923e-16 5.77788e-16 -0.261428)
(2.03742e-17 1.30776e-16 -0.31131)
(-1.20501e-16 -7.39527e-16 -0.376952)
(-5.85711e-17 3.34181e-17 -0.463641)
(-7.09949e-17 1.47793e-16 -0.565075)
(-2.93325e-17 -1.1515e-16 -0.685119)
(2.58063e-17 -1.52412e-17 -0.823587)
(5.05562e-17 -1.31977e-17 -0.982877)
(1.0508e-16 2.94635e-17 -1.17072)
(-1.96839e-18 -2.64318e-16 -1.38987)
(6.19158e-16 4.03142e-16 -1.64725)
(9.84188e-18 1.24053e-17 -1.94844)
(-4.15325e-16 1.13548e-16 -2.29768)
(-9.87506e-18 3.22351e-16 -2.70071)
(-1.63992e-17 -5.59674e-16 -3.15967)
(2.26363e-16 3.97146e-16 -3.67973)
(2.09079e-16 1.2095e-16 -4.25318)
(-2.26052e-16 -4.15517e-16 -4.90388)
(-4.54237e-16 -2.6293e-16 -5.5968)
(1.72174e-17 -6.1601e-16 -6.34944)
(-8.51937e-18 -6.82965e-16 -7.16013)
(-3.38936e-16 2.58333e-16 -8.00747)
(9.67726e-16 1.94004e-15 -8.89982)
(-5.61475e-16 -3.40105e-16 -9.82556)
(-5.31715e-16 -1.04189e-15 -10.7682)
(4.28244e-16 3.99804e-16 -11.7313)
(6.45358e-16 4.46748e-16 -12.7115)
(4.95953e-16 -1.95034e-16 -13.6887)
(-1.52892e-15 -9.34191e-16 -14.6694)
(3.90403e-16 5.05518e-16 -15.6454)
(-2.7044e-16 -1.09538e-15 -16.6116)
(-1.26567e-16 6.65281e-17 -17.5739)
(1.25409e-15 6.65164e-16 -18.5302)
(4.76476e-16 2.70109e-16 -19.4522)
(1.23857e-15 6.41262e-16 -20.3833)
(6.71439e-16 1.50142e-15 -21.3081)
(9.69406e-16 3.81669e-16 -22.1759)
(-1.48917e-17 -6.85794e-16 -23.0568)
(1.18266e-16 5.79288e-16 -23.9228)
(2.3331e-16 6.93189e-17 -24.6793)
(8.52981e-17 9.87837e-18 -25.473)
(-5.17928e-17 -7.99802e-17 -26.1389)
(8.81172e-17 -1.16656e-16 -26.7617)
(2.57129e-17 6.26899e-18 -27.2781)
(6.36795e-17 3.29386e-16 -27.6808)
(1.33571e-16 -4.10737e-16 -27.9505)
(3.49638e-17 2.04932e-16 -28.0896)
(-4.59736e-17 -2.81597e-17 -28.0273)
(-5.2023e-17 8.20106e-17 -27.8484)
(1.09427e-16 -1.0448e-17 -27.4197)
(-6.99912e-17 1.85366e-17 -26.8387)
(4.61071e-17 -2.70653e-17 -26.0381)
(-1.21327e-16 -1.2156e-16 -25.0458)
(-7.11104e-17 2.32884e-16 -23.8863)
(3.87464e-17 2.06529e-16 -22.5537)
(3.554e-17 -1.55825e-16 -21.0708)
(-1.04863e-16 -3.62002e-17 -19.4825)
(3.77825e-16 -2.4642e-16 -17.7975)
(-1.92843e-16 7.92257e-17 -16.0476)
(2.52326e-17 7.04792e-17 -14.2625)
(-3.93755e-16 -5.70389e-17 -12.4707)
(1.22852e-16 3.4328e-16 -10.6561)
(-6.48261e-16 6.36952e-16 -8.87714)
(2.29068e-16 -5.40753e-16 -7.1722)
(-2.78633e-17 -2.38229e-16 -6.04434)
(1.34279e-19 2.4824e-16 -5.3529)
(-7.21131e-17 -4.9579e-17 -4.95902)
(-1.24157e-18 -8.36426e-18 -4.82932)
(-5.3456e-17 3.82334e-17 -4.96961)
(5.63917e-17 3.43825e-17 -5.35941)
(-2.68137e-17 -2.05423e-17 -5.91423)
(-3.32876e-19 -2.80896e-18 -6.52189)
(-1.6578e-18 -1.05496e-18 -7.11732)
(-5.3659e-20 2.52806e-18 -7.68213)
(3.26716e-18 2.0086e-17 -8.20912)
(-2.23623e-17 -3.13863e-18 -8.68841)
(1.73988e-17 -3.64706e-17 -9.11003)
(1.03064e-18 5.21258e-18 -9.46636)
(2.26366e-17 9.6687e-18 -9.75293)
(-1.97757e-17 2.43912e-17 -9.97095)
(-1.48182e-18 -5.5885e-17 -10.1219)
(3.25621e-18 5.23938e-17 -10.2116)
(-1.54984e-18 -2.29374e-17 -10.2501)
(-4.48336e-19 -4.94696e-18 -10.2483)
(6.6053e-18 1.85511e-17 -10.2138)
(-5.82921e-18 -2.62304e-20 -10.1556)
(-6.08896e-18 4.61254e-18 -10.0852)
(5.93708e-18 -1.83464e-17 -10.0082)
(1.77784e-18 -6.21361e-20 -9.92953)
(5.55528e-19 1.1352e-17 -9.85271)
(-4.17854e-19 -8.49018e-18 -9.77955)
(-3.1692e-19 1.93639e-17 -9.71039)
(2.7448e-19 -1.90555e-17 -9.64401)
(1.68126e-18 9.85316e-18 -9.57825)
(-1.21728e-18 -2.61709e-19 -9.51062)
(-2.39358e-18 -1.05029e-18 -9.43857)
(2.65574e-18 -2.36812e-18 -9.35969)
(3.45434e-22 5.30888e-18 -9.27181)
(1.23796e-19 -1.18549e-18 -9.17312)
(7.40501e-20 2.34907e-18 -9.06242)
(2.44621e-19 -3.16042e-19 -8.93905)
(2.23614e-22 2.06479e-20 -8.80298)
(3.55407e-21 1.28572e-18 -8.6921)
(-2.3108e-20 7.83257e-18 4.99843)
(-2.76572e-19 -5.70087e-18 1.69564)
(5.06004e-19 -2.54272e-17 -1.76063)
(-3.64306e-19 1.92763e-17 -4.2692)
(1.74665e-17 1.9673e-17 -5.72866)
(-1.72826e-17 -1.56538e-17 -6.42316)
(0 -0 -6.67049)
(-3.59179e-17 3.16899e-17 -6.72402)
(3.67934e-17 -5.64952e-17 -6.70525)
(-3.29321e-17 -7.73676e-17 -6.65721)
(3.16005e-17 1.20817e-16 -6.59568)
(9.36223e-19 1.08628e-16 -6.52729)
(-1.60856e-19 -1.14489e-16 -6.45553)
(-1.3297e-16 -7.64757e-17 -6.3826)
(1.26243e-16 1.26865e-16 -6.30985)
(7.98684e-17 -1.13993e-16 -6.23793)
(-1.34927e-16 -2.45666e-17 -6.16708)
(5.88914e-17 1.38571e-16 -6.09717)
(3.35535e-18 -6.31839e-17 -6.02792)
(0 -0 -5.95891)
(1.29181e-16 -0 -5.88964)
(-1.29425e-16 -0 -5.81948)
(-8.39297e-18 1.23689e-16 -5.74768)
(-1.19704e-16 -1.01777e-16 -5.67341)
(1.37472e-16 -1.45835e-16 -5.59573)
(-9.14012e-18 1.23924e-16 -5.51363)
(0 -0 -5.42605)
(1.26709e-16 -0 -5.33189)
(-5.69965e-19 -0 -5.23009)
(-1.3748e-16 1.21772e-16 -5.11969)
(1.79937e-17 -1.03331e-16 -4.99977)
(2.63498e-16 -1.40579e-16 -4.86881)
(-4.0439e-16 1.14536e-16 -4.72481)
(2.34875e-16 -2.7054e-18 -4.55975)
(-1.82996e-17 2.53721e-16 -4.39271)
(-4.79309e-16 -5.47812e-16 -4.28238)
(7.07352e-16 -1.25818e-16 -4.2911)
(3.53146e-16 1.72066e-15 -4.47214)
(-7.87975e-16 -2.37294e-16 -4.83954)
(-1.93528e-16 -1.07937e-15 -5.39625)
(-1.29353e-16 -1.96462e-16 -6.1223)
(-1.42189e-15 7.18572e-17 -6.8892)
(2.04284e-16 5.29351e-16 -7.6899)
(1.07083e-15 7.53615e-16 -8.53713)
(-1.53941e-15 -1.73945e-15 -9.40259)
(1.79138e-15 -1.7373e-15 -10.2917)
(-5.71571e-16 4.41028e-16 -11.1868)
(-5.20761e-17 6.05148e-16 -12.0733)
(7.57001e-17 -2.11769e-16 -12.9502)
(-4.24193e-17 1.46907e-15 -13.7807)
(4.21247e-16 6.84761e-16 -14.5785)
(1.8165e-16 -1.30788e-15 -15.3177)
(5.55834e-18 -7.05155e-16 -15.9856)
(2.16186e-16 -2.8919e-16 -16.5853)
(-5.64829e-16 -1.38263e-16 -17.1007)
(-3.00146e-16 4.85751e-17 -17.5346)
(-3.91242e-16 -8.91133e-17 -17.8753)
(-2.41341e-17 2.01875e-16 -18.126)
(-1.08147e-16 2.04923e-16 -18.2531)
(1.55886e-16 -8.72971e-18 -18.2908)
(5.92055e-17 1.2023e-16 -18.1819)
(-2.86655e-16 -5.98822e-17 -17.9345)
(4.56111e-16 -3.79908e-16 -17.5522)
(3.83805e-16 -7.00468e-16 -17.0134)
(-1.50308e-16 -3.88204e-16 -16.3737)
(-4.86107e-16 8.59218e-16 -15.5929)
(-8.97372e-16 3.96014e-16 -14.7376)
(1.4744e-16 8.89637e-17 -13.786)
(2.29554e-17 -2.20107e-16 -12.814)
(-6.7126e-16 3.90287e-16 -11.7997)
(2.44322e-17 1.31361e-15 -10.7704)
(1.31219e-15 -1.18252e-15 -9.77238)
(-1.05577e-15 -8.50263e-16 -8.7854)
(1.95908e-15 -1.22894e-15 -7.84479)
(8.51214e-16 -8.13538e-16 -6.9585)
(-1.78328e-16 1.88222e-15 -6.12397)
(8.78749e-16 -2.69411e-16 -5.35473)
(5.80301e-17 -8.82114e-17 -4.65497)
(1.56042e-15 7.93513e-16 -4.01939)
(2.34053e-16 -2.30201e-15 -3.45022)
(7.38975e-16 -3.2969e-15 -2.94672)
(-5.43546e-17 2.32548e-15 -2.50387)
(6.74301e-16 -3.08607e-16 -2.11899)
(6.8668e-16 -1.42407e-15 -1.78855)
(-6.55872e-16 4.85022e-16 -1.50774)
(1.24157e-15 -9.11734e-16 -1.27534)
(-1.86912e-15 4.18641e-16 -1.08763)
(-1.2534e-15 -9.20125e-17 -0.940739)
(-5.97542e-16 1.05672e-15 -0.834552)
(-8.76963e-18 6.29677e-16 -0.76527)
(1.15927e-17 7.35763e-16 -0.728149)
(2.36987e-17 3.27457e-16 -0.723251)
(-2.7342e-16 1.61932e-16 -0.744027)
(2.80546e-16 -4.25753e-16 -0.78721)
(-2.47256e-18 -3.2041e-17 -0.849604)
(-8.46553e-17 2.9521e-16 -0.924156)
(2.63248e-17 -2.5001e-16 -1.00923)
(-1.74322e-17 -5.60542e-16 -1.09414)
(7.41017e-16 5.0293e-17 -1.18076)
(6.46992e-17 3.67069e-16 -1.26128)
(-5.56795e-17 -1.70404e-17 -1.34079)
(7.99529e-17 -9.62741e-17 -1.41096)
(1.5841e-18 5.28436e-17 -1.47754)
(-4.59769e-19 -4.97833e-17 -1.53978)
(-1.71025e-18 -1.12239e-16 -1.59991)
(-1.03365e-16 -2.27392e-17 -1.66572)
(-1.09112e-16 -1.48448e-16 -1.73704)
(-4.12622e-16 -1.20746e-16 -1.82297)
(6.30102e-16 7.02501e-16 -1.92621)
(-4.30883e-16 -3.84906e-16 -2.05258)
(4.41424e-16 -1.13618e-16 -2.2065)
(-5.2889e-18 2.71751e-16 -2.39164)
(1.15287e-17 -2.8015e-16 -2.61255)
(3.74267e-17 2.4251e-16 -2.86894)
(-6.81635e-18 3.47426e-16 -3.1707)
(-3.77519e-18 -3.06346e-16 -3.50938)
(2.05977e-16 7.06483e-16 -3.89185)
(1.16702e-16 8.2408e-16 -4.31768)
(-1.02927e-15 -1.63568e-15 -4.77933)
(-3.6181e-16 -4.25636e-16 -5.28172)
(9.75261e-16 1.49579e-15 -5.81876)
(2.94625e-16 -9.37544e-16 -6.38122)
(-2.63952e-16 -5.71673e-16 -6.97078)
(-5.75073e-16 -5.18443e-16 -7.58353)
(-1.34976e-16 8.97721e-16 -8.20708)
(-8.40845e-16 1.89749e-16 -8.84295)
(5.39347e-16 -8.08418e-16 -9.4846)
(-7.53185e-16 6.31548e-18 -10.1269)
(-5.45925e-16 -1.88604e-15 -10.7698)
(-7.90182e-16 -1.06255e-15 -11.409)
(-2.47066e-16 1.09131e-16 -12.0293)
(-5.78473e-16 -4.70165e-16 -12.6502)
(-4.11956e-16 -1.19164e-15 -13.2597)
(8.6332e-16 5.48275e-16 -13.8312)
(-7.67627e-16 1.38896e-16 -14.4025)
(-3.35406e-18 -2.9425e-16 -14.9495)
(1.4322e-18 -2.05111e-16 -15.4337)
(-1.88268e-16 2.27979e-17 -15.9237)
(-2.89774e-17 5.5225e-17 -16.3402)
(-2.13125e-16 -3.93995e-18 -16.7244)
(1.4884e-16 3.34886e-16 -17.0506)
(8.49347e-16 4.61406e-17 -17.3161)
(-8.40682e-17 6.62508e-17 -17.5183)
(1.54525e-17 2.33394e-16 -17.6535)
(-1.71384e-16 1.79913e-16 -17.7026)
(2.35853e-17 -2.42323e-16 -17.6842)
(7.21136e-17 -7.02618e-17 -17.5555)
(-9.28783e-17 1.18684e-16 -17.3432)
(1.19331e-16 -1.00606e-18 -16.9989)
(-1.9074e-16 2.48163e-16 -16.5286)
(7.20036e-17 -1.95866e-16 -15.9216)
(1.479e-16 -4.20144e-16 -15.1749)
(-2.02028e-16 2.35466e-18 -14.2889)
(6.22452e-17 7.59456e-17 -13.29)
(-2.19524e-16 -8.81871e-17 -12.1435)
(-1.50696e-16 4.06807e-16 -10.9245)
(3.75318e-16 -1.37349e-16 -9.71615)
(-1.71253e-16 1.30238e-16 -8.45868)
(-9.60549e-18 -2.65676e-17 -7.23797)
(4.87105e-16 -2.32873e-16 -6.10766)
(1.48994e-16 -1.74112e-16 -5.07484)
(-2.7683e-16 2.93341e-16 -4.38479)
(3.20436e-17 -2.40458e-17 -4.06824)
(3.13853e-17 -4.35916e-19 -3.99971)
(-3.17663e-17 9.97277e-19 -4.10486)
(-3.08443e-17 -1.5303e-17 -4.34626)
(-1.06391e-17 -7.72992e-17 -4.68137)
(2.96923e-17 4.25764e-17 -5.04409)
(2.47559e-17 1.48438e-18 -5.37136)
(2.77009e-18 1.94379e-17 -5.6387)
(-2.14625e-17 1.62372e-17 -5.85388)
(2.10905e-18 -2.16035e-17 -6.03233)
(4.27211e-17 2.63726e-18 -6.18595)
(-4.34671e-17 -5.87793e-20 -6.32123)
(-2.08036e-18 -2.04185e-17 -6.44073)
(-2.08125e-17 -1.14889e-17 -6.54468)
(3.91754e-17 5.96026e-17 -6.63244)
(-2.12541e-17 -5.74553e-18 -6.70285)
(8.59123e-19 -4.21631e-17 -6.75539)
(1.09757e-18 1.60259e-17 -6.79074)
(-9.88903e-18 1.40044e-18 -6.81058)
(7.85894e-18 4.00311e-18 -6.81661)
(2.22911e-18 1.12322e-17 -6.81097)
(1.09351e-17 -1.04285e-17 -6.79654)
(-1.06372e-17 -1.51631e-17 -6.77537)
(-6.08208e-18 1.652e-18 -6.74909)
(6.94149e-18 2.81335e-19 -6.71895)
(-4.88467e-18 1.89361e-18 -6.6857)
(4.79799e-18 -8.84865e-19 -6.6498)
(-1.61232e-18 -2.7738e-18 -6.61119)
(2.6319e-18 -4.64295e-18 -6.56942)
(1.73242e-18 7.26143e-18 -6.52389)
(-1.39891e-18 3.65359e-18 -6.47396)
(2.30093e-19 -8.46954e-18 -6.41892)
(8.81127e-20 1.11862e-18 -6.35796)
(-4.05015e-19 -1.9292e-18 -6.2903)
(1.29302e-19 -2.82252e-18 -6.21546)
(1.81271e-19 -1.06876e-18 -6.1339)
(1.80606e-19 1.50762e-18 -6.04807)
(4.0126e-20 -1.36491e-18 -6.00282)
(0 -0 3.46865)
(8.34319e-18 -0 2.5268)
(-8.16769e-18 -1.54937e-17 1.15092)
(3.74062e-19 1.11946e-17 -0.438572)
(-5.23609e-19 1.98236e-17 -1.67234)
(2.29006e-19 -1.55245e-17 -2.65593)
(3.25471e-17 -0 -3.31653)
(-3.26282e-17 -0 -3.79138)
(1.3435e-18 -0 -4.13607)
(-2.90031e-18 -0 -4.39424)
(-6.81361e-17 6.20016e-17 -4.59204)
(6.95566e-17 -4.68942e-17 -4.74442)
(6.80375e-17 -1.54753e-17 -4.86117)
(-1.3485e-18 -4.67238e-17 -4.94976)
(4.21005e-19 -2.95012e-17 -5.01606)
(-6.97339e-17 2.00107e-16 -5.06459)
(-6.4865e-17 -1.09341e-16 -5.09885)
(7.07529e-17 -7.58687e-17 -5.12158)
(-3.2763e-18 6.16955e-17 -5.13496)
(7.04234e-17 -1.21837e-16 -5.14073)
(-7.02468e-17 9.47487e-17 -5.14021)
(-8.20203e-18 1.49156e-16 -5.13443)
(-2.73912e-19 -1.2706e-18 -5.12407)
(1.46924e-17 -9.47371e-17 -5.10955)
(1.26835e-16 -1.47079e-16 -5.091)
(-1.33583e-16 1.2102e-16 -5.06833)
(-1.14173e-16 -1.19506e-16 -5.04128)
(1.65092e-18 -2.40175e-17 -5.00948)
(2.26536e-16 2.39541e-16 -4.97248)
(-1.3491e-16 1.42221e-16 -4.9299)
(3.80489e-17 -3.34291e-16 -4.88143)
(-1.26305e-16 -4.47444e-17 -4.82634)
(1.08592e-16 1.48885e-16 -4.7639)
(1.15458e-16 -1.99777e-17 -4.68304)
(-1.47913e-16 2.46668e-16 -4.60267)
(2.81414e-16 -1.87066e-16 -4.54698)
(-9.66029e-16 -7.45085e-16 -4.5184)
(-9.26126e-16 -8.82267e-16 -4.54377)
(1.07878e-15 6.28654e-16 -4.63952)
(4.25873e-16 1.03003e-15 -4.81219)
(-1.38985e-16 1.34612e-15 -5.0514)
(1.02054e-15 -3.88624e-16 -5.30933)
(4.59461e-16 -2.62871e-15 -5.59579)
(-1.02855e-15 4.3289e-16 -5.92166)
(4.92332e-16 1.45735e-15 -6.28348)
(-1.09316e-15 -4.11985e-16 -6.68444)
(-8.16834e-16 2.66324e-17 -7.1109)
(-4.84703e-16 -2.71041e-16 -7.57906)
(-7.68787e-16 -1.47914e-16 -8.07615)
(-4.78407e-16 -1.27624e-15 -8.53812)
(1.30989e-15 2.84941e-16 -9.02476)
(-6.52826e-16 7.49669e-16 -9.5254)
(-2.17271e-17 8.15586e-16 -10.0021)
(-8.29023e-16 -1.26023e-16 -10.4574)
(-7.88962e-17 9.2681e-17 -10.8945)
(-9.91714e-18 -2.23457e-16 -11.3037)
(-5.15912e-16 -3.13508e-16 -11.6803)
(-1.41435e-16 -1.50537e-16 -12.0252)
(8.67543e-18 -5.67518e-17 -12.3084)
(8.00194e-17 -5.49687e-17 -12.5501)
(-1.52685e-16 4.45347e-17 -12.7076)
(3.17971e-16 -1.84868e-16 -12.7753)
(-4.5161e-16 -6.34775e-17 -12.7439)
(1.71332e-16 8.40523e-16 -12.5916)
(-7.21701e-16 1.04187e-15 -12.3397)
(7.87052e-16 -5.60318e-16 -11.9618)
(-2.10412e-16 -2.57678e-16 -11.4971)
(1.49415e-16 -1.59886e-16 -10.9387)
(-5.47448e-16 6.44232e-16 -10.3207)
(4.2724e-16 2.62484e-17 -9.65299)
(2.59197e-16 -1.4719e-15 -8.95434)
(5.55245e-16 2.14766e-16 -8.26057)
(-5.51903e-16 7.11369e-16 -7.57037)
(-9.24664e-17 -1.18628e-15 -6.91051)
(-9.73352e-16 1.47843e-15 -6.29126)
(4.30499e-17 -7.59658e-16 -5.71562)
(7.35597e-16 -7.7776e-16 -5.19324)
(3.65592e-17 -1.07776e-16 -4.72656)
(1.53318e-15 -1.90526e-15 -4.31199)
(1.40604e-15 -3.44477e-16 -3.94932)
(-2.93859e-15 3.52787e-15 -3.63582)
(-6.84525e-16 -1.84546e-16 -3.36655)
(7.21416e-16 -1.39226e-15 -3.13857)
(-7.36554e-16 1.25435e-15 -2.94836)
(3.01261e-18 -7.74937e-16 -2.79249)
(-1.30154e-15 2.25876e-15 -2.67004)
(1.26681e-15 2.44169e-15 -2.57798)
(-2.66352e-16 -3.02321e-16 -2.51394)
(-5.40552e-16 -1.85228e-15 -2.48008)
(-1.71307e-15 2.01806e-16 -2.46935)
(-2.6953e-16 1.46523e-16 -2.47781)
(1.63097e-17 1.09634e-17 -2.50812)
(2.78698e-16 -1.1543e-16 -2.55145)
(-3.91011e-17 -3.2123e-16 -2.60255)
(-4.58748e-16 1.96697e-16 -2.66124)
(-2.30189e-17 2.85155e-16 -2.71528)
(2.35986e-16 -1.22129e-16 -2.76872)
(-7.16795e-16 -4.77638e-17 -2.80745)
(-3.96695e-16 1.06535e-16 -2.83861)
(-2.22931e-17 2.17996e-16 -2.8511)
(1.08363e-16 -2.22315e-17 -2.85542)
(-1.03593e-16 7.82526e-17 -2.84234)
(6.54567e-17 -1.81868e-17 -2.81974)
(-7.03994e-19 -1.43624e-17 -2.78736)
(8.45897e-19 1.08293e-16 -2.74695)
(-2.13751e-16 1.33736e-16 -2.70599)
(2.20132e-18 1.35309e-16 -2.6632)
(-2.08994e-16 -6.63675e-16 -2.62654)
(-1.94295e-16 -1.22069e-16 -2.59777)
(3.97346e-16 6.93551e-16 -2.58158)
(-1.65951e-17 -2.50892e-16 -2.58139)
(6.26724e-18 -1.22876e-17 -2.60046)
(2.39476e-18 2.58353e-16 -2.64284)
(-2.32913e-16 -6.16738e-17 -2.70924)
(4.08504e-16 -5.5534e-17 -2.80759)
(1.0169e-17 -2.16657e-16 -2.93298)
(-6.36249e-16 -1.29078e-15 -3.0929)
(4.0318e-16 7.28e-16 -3.2872)
(8.44247e-16 2.18893e-15 -3.51254)
(-6.11104e-16 -1.31255e-15 -3.77275)
(1.02058e-15 -7.27964e-16 -4.06508)
(-7.13242e-16 3.85112e-16 -4.384)
(-5.13564e-16 1.10382e-15 -4.73019)
(-3.01981e-16 2.04696e-16 -5.10059)
(-6.75612e-16 -8.44326e-16 -5.48717)
(1.57972e-15 5.93167e-16 -5.88936)
(-1.22366e-16 3.19198e-17 -6.30208)
(4.54965e-16 8.38021e-16 -6.72067)
(-5.13484e-16 6.75126e-16 -7.14322)
(-8.32696e-16 -2.49673e-16 -7.56602)
(-4.5433e-16 -4.21957e-16 -7.97964)
(-5.49394e-17 6.36778e-17 -8.39115)
(-7.40009e-16 6.17408e-17 -8.79458)
(-5.92653e-16 -7.98185e-16 -9.17486)
(-6.57804e-17 3.07523e-16 -9.55054)
(-1.24416e-16 -1.68059e-16 -9.90747)
(-5.02534e-16 -6.87687e-17 -10.2306)
(-2.00222e-16 2.07598e-16 -10.5495)
(1.58273e-16 -3.09167e-17 -10.8315)
(1.18308e-17 2.00316e-17 -11.0943)
(3.52783e-16 -1.15872e-15 -11.3305)
(-1.95959e-16 -3.9855e-16 -11.54)
(-5.76761e-17 3.98467e-17 -11.7251)
(2.25911e-16 2.5901e-16 -11.8834)
(3.04585e-16 1.31587e-16 -12.0114)
(1.09568e-16 -4.57132e-17 -12.1105)
(-1.06862e-16 2.36158e-17 -12.1655)
(6.8388e-17 1.02555e-16 -12.1795)
(-5.53953e-17 -5.90139e-17 -12.1234)
(2.64153e-16 7.22085e-17 -11.9879)
(2.72674e-17 -1.91526e-16 -11.7608)
(-2.58866e-16 2.92087e-16 -11.4235)
(-1.65011e-17 2.08556e-16 -10.977)
(6.49222e-17 -1.65717e-16 -10.4142)
(-1.63816e-16 3.50976e-16 -9.70838)
(1.03961e-16 -2.8699e-16 -8.95957)
(-2.82904e-16 -1.08841e-16 -8.17299)
(2.96826e-16 6.3611e-17 -7.32241)
(-2.57961e-17 -1.77517e-16 -6.54225)
(-3.179e-17 -1.31239e-16 -5.85216)
(-1.51264e-16 2.15564e-16 -5.36997)
(1.34684e-16 -4.29468e-17 -5.13522)
(2.69459e-17 -5.9968e-17 -5.18117)
(1.16892e-16 -5.66782e-17 -5.39459)
(-2.24527e-17 5.40976e-17 -5.68984)
(3.18892e-17 1.67005e-17 -6.00413)
(-7.79729e-17 2.90165e-19 -6.29125)
(-5.29389e-18 -6.00802e-17 -6.50176)
(5.24196e-18 -5.32015e-18 -6.60623)
(2.55817e-17 3.58217e-17 -6.61434)
(-2.88582e-19 2.39186e-17 -6.55762)
(-8.05437e-18 -4.10897e-17 -6.46864)
(-5.67271e-18 -8.76306e-18 -6.37301)
(5.52811e-18 4.80636e-17 -6.28733)
(4.53675e-18 -1.13375e-17 -6.22065)
(-4.21295e-17 1.01353e-18 -6.17631)
(3.51085e-17 -1.55922e-17 -6.15353)
(1.70543e-17 -1.73072e-17 -6.14889)
(-1.22047e-17 4.51913e-17 -6.15767)
(-4.40642e-18 -1.24621e-17 -6.17479)
(9.09925e-18 4.34255e-18 -6.19556)
(-6.68849e-18 -2.9711e-18 -6.21581)
(6.75629e-19 -9.15776e-18 -6.23215)
(5.53642e-18 -8.96248e-18 -6.24246)
(-1.16452e-17 2.12493e-17 -6.24524)
(8.00878e-19 -2.48139e-18 -6.2397)
(-1.70683e-18 -5.19899e-18 -6.22574)
(-1.3267e-18 4.36886e-18 -6.20386)
(3.33543e-18 1.15256e-17 -6.17503)
(-4.10261e-18 -1.88972e-17 -6.14064)
(-3.80474e-18 -1.88186e-18 -6.10216)
(3.90832e-18 -5.32825e-18 -6.06108)
(-1.24573e-18 7.55717e-18 -6.01868)
(-1.23151e-18 -7.51981e-18 -5.97582)
(3.14907e-20 8.4244e-18 -5.93288)
(7.42614e-19 2.60454e-18 -5.88968)
(-7.04567e-19 3.02039e-18 -5.84571)
(-6.18802e-20 -2.1751e-18 -5.80088)
(3.14281e-19 -5.32789e-18 -5.75475)
(-1.01311e-19 1.84756e-19 -5.7543)
(0 -0 2.33745)
(0 -0 2.05989)
(1.38473e-19 -1.56454e-17 1.54306)
(5.23722e-19 1.12798e-17 0.844234)
(-7.71029e-19 1.99623e-17 0.0063159)
(7.74967e-19 -4.63793e-17 -0.714504)
(3.26803e-17 2.20615e-17 -1.36673)
(-6.70543e-17 7.02354e-17 -1.94823)
(3.41765e-17 -8.35118e-17 -2.4337)
(1.0113e-18 -1.72904e-17 -2.84678)
(-2.32908e-18 6.99883e-17 -3.19959)
(6.68569e-17 -3.07005e-17 -3.49762)
(-1.27325e-16 -6.07657e-17 -3.7478)
(1.30003e-16 -1.63695e-17 -3.95727)
(-1.39514e-16 1.82167e-16 -4.13261)
(6.75308e-17 -2.80204e-17 -4.27947)
(9.00829e-18 -1.37625e-16 -4.4026)
(-5.85104e-18 6.0614e-17 -4.506)
(3.35241e-18 -5.98061e-17 -4.59311)
(5.89107e-17 4.40895e-17 -4.66685)
(-7.19857e-17 7.56205e-17 -4.72967)
(9.79204e-18 -5.9904e-17 -4.78361)
(-1.30542e-16 1.18101e-16 -4.83031)
(1.44497e-16 -2.05599e-16 -4.87104)
(-4.4216e-18 -6.06463e-17 -4.90673)
(-2.75754e-17 3.83028e-16 -4.93798)
(7.64476e-18 -8.92006e-17 -4.9651)
(2.16741e-17 -3.5057e-16 -4.98822)
(-1.2635e-16 5.99952e-17 -5.00727)
(9.49571e-17 3.77044e-16 -5.02209)