/*--------------------------------*- C++ -*----------------------------------*\
| =========                 |                                                 |
| \\      /  F ield         | OpenFOAM: The Open Source CFD Toolbox           |
|  \\    /   O peration     | Version:  2506                                  |
|   \\  /    A nd           | Website:  www.openfoam.com                      |
|    \\/     M anipulation  |                                                 |
\*---------------------------------------------------------------------------*/
FoamFile
{
    version     2.0;
    format      ascii;
    arch        "LSB;label=32;scalar=64";
    class       surfaceScalarField;
    location    "1.8";
    object      phi;
}
// * * * * * * * * * * * * * * * * * * * * * * * * * * * * * * * * * * * * * //

dimensions      [0 3 -1 0 0 0 0];

oriented        oriented;

internalField   nonuniform List<scalar> 
7780
(
1.32883e-09
3.71294e-10
9.09068e-10
4.19632e-10
6.0683e-10
3.02188e-10
3.98032e-10
2.08807e-10
2.52546e-10
1.4548e-10
1.48777e-10
1.03768e-10
7.23879e-11
7.63898e-11
1.43399e-11
5.8048e-11
-3.08342e-11
4.51731e-11
-6.66001e-11
3.57643e-11
-9.52891e-11
2.86871e-11
-1.18517e-10
2.32262e-11
-1.37486e-10
1.89669e-11
-1.53143e-10
1.56562e-11
-1.66242e-10
1.30978e-11
-1.77377e-10
1.11344e-11
-1.8703e-10
9.65346e-12
-1.95596e-10
8.56549e-12
-2.03386e-10
7.79084e-12
-2.10657e-10
7.27066e-12
-2.17598e-10
6.9419e-12
-2.24345e-10
6.74731e-12
-2.30984e-10
6.63876e-12
-2.3756e-10
6.57684e-12
-2.44087e-10
6.52747e-12
-2.50543e-10
6.45694e-12
-2.56864e-10
6.322e-12
-2.62933e-10
6.07049e-12
-2.68564e-10
5.63275e-12
-2.73454e-10
4.8933e-12
-2.77082e-10
3.6335e-12
-2.78301e-10
1.22685e-12
-2.75762e-10
-2.52722e-12
-2.65937e-10
-9.80937e-12
-2.50445e-10
-1.54795e-11
-2.33565e-10
-1.68811e-11
-2.1347e-10
-2.01157e-11
-1.88968e-10
-2.45397e-11
-1.60708e-10
-2.83004e-11
-1.29617e-10
-3.1113e-11
-9.30502e-11
-3.65502e-11
-5.20254e-11
-4.09593e-11
-1.2122e-11
-3.97972e-11
2.48965e-11
-3.68832e-11
5.72322e-11
-3.21812e-11
8.49273e-11
-2.75294e-11
1.09078e-10
-2.39819e-11
1.27235e-10
-1.7995e-11
1.41796e-10
-1.44149e-11
1.51631e-10
-9.7184e-12
1.56195e-10
-4.48115e-12
1.57242e-10
-1.00189e-12
1.51307e-10
5.94652e-12
1.41659e-10
9.63249e-12
1.2514e-10
1.64889e-11
1.03747e-10
2.13593e-11
7.68687e-11
2.68508e-11
4.41707e-11
3.26778e-11
9.34917e-12
3.48028e-11
-3.06557e-11
3.99778e-11
-7.00336e-11
3.93353e-11
-1.09453e-10
3.93608e-11
-1.47117e-10
3.75967e-11
-1.81903e-10
3.4714e-11
-2.13905e-10
3.19299e-11
-2.42581e-10
2.86102e-11
-2.68243e-10
2.56047e-11
-2.91354e-10
2.30668e-11
-3.12073e-10
2.06898e-11
-3.31147e-10
1.90705e-11
-3.49018e-10
1.78976e-11
-3.64956e-10
1.59973e-11
-3.80252e-10
1.5393e-11
-3.94224e-10
1.41026e-11
-4.06694e-10
1.26299e-11
-4.18247e-10
1.1736e-11
-4.2846e-10
1.04131e-11
-4.37003e-10
8.75073e-12
-4.44435e-10
7.63666e-12
-4.50703e-10
6.45855e-12
-4.55747e-10
5.21064e-12
-4.59941e-10
4.33193e-12
-4.63433e-10
3.5984e-12
-4.66427e-10
3.07004e-12
-4.6945e-10
3.07078e-12
-4.72288e-10
2.8635e-12
-4.74935e-10
2.65603e-12
-4.78327e-10
3.38957e-12
-4.81652e-10
3.31693e-12
-4.84586e-10
2.92276e-12
-4.88497e-10
3.89789e-12
-4.9197e-10
3.46067e-12
-4.94896e-10
2.91417e-12
-4.98712e-10
3.80512e-12
-5.00667e-10
1.9455e-12
-5.03989e-10
3.31279e-12
-5.05051e-10
1.05408e-12
-5.0714e-10
2.08158e-12
-5.06346e-10
-7.99806e-13
-5.06996e-10
6.45689e-13
-5.04724e-10
-2.27478e-12
-5.02713e-10
-2.01413e-12
-4.99595e-10
-3.11994e-12
-4.94309e-10
-5.28774e-12
-4.88897e-10
-5.41624e-12
-4.80299e-10
-8.6033e-12
-4.71849e-10
-8.45868e-12
-4.60523e-10
-1.13372e-11
-4.47804e-10
-1.27348e-11
-4.32971e-10
-1.48519e-11
-4.16283e-10
-1.67122e-11
-3.97288e-10
-1.90217e-11
-3.76556e-10
-2.07611e-11
-3.53135e-10
-2.34549e-11
-3.28729e-10
-2.44429e-11
-3.02286e-10
-2.64835e-11
-2.74641e-10
-2.76906e-11
-2.46062e-10
-2.86246e-11
-2.16743e-10
-2.93627e-11
-1.87262e-10
-2.95191e-11
-1.57975e-10
-2.93166e-11
-1.29353e-10
-2.8639e-11
-1.01825e-10
-2.75267e-11
-7.5545e-11
-2.62586e-11
-5.09045e-11
-2.45981e-11
-2.80833e-11
-2.27582e-11
-7.21011e-12
-2.07888e-11
1.13965e-11
-1.84983e-11
2.79589e-11
-1.64256e-11
4.28637e-11
-1.47335e-11
5.54291e-11
-1.23538e-11
6.62232e-11
-1.05367e-11
7.59462e-11
-9.41593e-12
8.334e-11
-7.0372e-12
8.93099e-11
-5.56771e-12
9.49179e-11
-5.16995e-12
9.73424e-11
-1.9688e-12
9.939e-11
-1.59313e-12
9.88863e-11
9.25637e-13
9.62877e-11
2.95186e-12
9.07007e-11
5.84148e-12
8.15118e-11
9.3233e-12
6.77864e-11
1.37356e-11
4.9955e-11
1.77342e-11
2.61194e-11
2.36677e-11
-1.12245e-12
2.70491e-11
-3.49245e-11
3.36278e-11
-7.13736e-11
3.63163e-11
-1.1038e-10
3.89199e-11
-1.50591e-10
4.01627e-11
-1.89947e-10
3.933e-11
-2.27977e-10
3.80165e-11
-2.63409e-10
3.54268e-11
-2.95152e-10
3.17504e-11
-3.24055e-10
2.89278e-11
-3.48457e-10
2.44529e-11
-3.7025e-10
2.18743e-11
-3.86589e-10
1.64481e-11
-3.95855e-10
9.39105e-12
-3.91901e-10
-3.83461e-12
-4.14288e-10
2.24654e-11
-4.31849e-10
1.76116e-11
-4.41618e-10
9.79873e-12
-4.4326e-10
1.65711e-12
-4.42354e-10
-8.97639e-13
-4.36725e-10
-5.61915e-12
-4.3005e-10
-6.65894e-12
-4.10013e-10
-2.00166e-11
-3.80355e-10
-2.96369e-11
-3.48602e-10
-3.17326e-11
-3.19042e-10
-2.95415e-11
-2.94079e-10
-2.49469e-11
-2.74613e-10
-1.94533e-11
-2.60602e-10
-1.4002e-11
-2.51541e-10
-9.05439e-12
-2.46779e-10
-4.75724e-12
-2.45306e-10
-1.47065e-12
-2.45964e-10
6.58688e-13
-2.47937e-10
1.97238e-12
-2.50466e-10
2.52764e-12
-2.52946e-10
2.47855e-12
-2.54933e-10
1.98528e-12
-2.56158e-10
1.22363e-12
-2.5653e-10
3.70535e-13
-2.56115e-10
-4.15768e-13
-2.55103e-10
-1.01228e-12
-2.5375e-10
-1.35293e-12
-2.52375e-10
-1.37469e-12
-2.51324e-10
-1.05014e-12
-2.50849e-10
-4.74854e-13
-2.51199e-10
3.51473e-13
-2.525e-10
1.30131e-12
-2.54747e-10
2.24726e-12
-2.58005e-10
3.25876e-12
-2.62237e-10
4.23182e-12
-2.67358e-10
5.12134e-12
-2.73286e-10
5.92713e-12
-2.79987e-10
6.70127e-12
-2.87759e-10
7.77226e-12
9.84601e-12
1.80564e-09
2.65606e-10
1.72786e-09
4.97364e-10
1.54115e-09
4.88876e-10
1.32546e-09
4.24504e-10
1.12031e-09
3.50641e-10
9.41976e-10
2.82115e-10
7.92462e-10
2.25911e-10
6.68934e-10
1.81577e-10
5.67407e-10
1.46698e-10
4.8384e-10
1.1933e-10
4.1483e-10
9.76959e-11
3.57633e-10
8.04202e-11
3.09949e-10
6.6649e-11
2.69845e-10
5.57585e-11
2.35719e-10
4.72214e-11
2.06239e-10
4.0613e-11
1.80281e-10
3.56108e-11
1.56906e-10
3.1939e-11
1.35343e-10
2.93534e-11
1.14964e-10
2.76494e-11
9.52627e-11
2.66422e-11
7.58431e-11
2.61664e-11
5.64001e-11
2.60813e-11
3.67087e-11
2.62677e-11
1.66126e-11
2.6623e-11
-3.98418e-12
2.70534e-11
-2.51228e-11
2.74605e-11
-4.6782e-11
2.77301e-11
-6.88629e-11
2.77148e-11
-9.11688e-11
2.72014e-11
-1.13382e-10
2.58509e-11
-1.35263e-10
2.31135e-11
-1.55981e-10
1.81989e-11
-1.75901e-10
1.01202e-11
-1.82404e-10
-8.96591e-12
-1.6369e-10
-3.5582e-11
-1.24401e-10
-5.93952e-11
-7.02271e-11
-7.87194e-11
-3.8294e-12
-9.47284e-11
7.38942e-11
-1.08891e-10
1.65386e-10
-1.28105e-10
2.59728e-10
-1.35349e-10
3.47841e-10
-1.2793e-10
4.2788e-10
-1.16917e-10
4.9791e-10
-1.02183e-10
5.58807e-10
-8.83806e-11
6.11693e-10
-7.68035e-11
6.5415e-10
-6.03738e-11
6.88872e-10
-4.90488e-11
7.1477e-10
-3.5528e-11
7.31143e-10
-2.07725e-11
7.38965e-10
-8.75904e-12
7.34667e-10
1.02878e-11
7.20958e-10
2.33634e-11
6.93416e-10
4.40325e-11
6.54759e-10
6.0004e-11
6.036e-10
7.79924e-11
5.39522e-10
9.67387e-11
4.67625e-10
1.06682e-10
3.82971e-10
1.24609e-10
2.94831e-10
1.2744e-10
2.02393e-10
1.31751e-10
1.09233e-10
1.30702e-10
1.8818e-11
1.25076e-10
-6.88156e-11
1.19523e-10
-1.4996e-10
1.09733e-10
-2.26225e-10
1.01869e-10
-2.95946e-10
9.28092e-11
-3.60223e-10
8.5011e-11
-4.18683e-10
7.75948e-11
-4.71757e-10
7.10526e-11
-5.19983e-10
6.43189e-11
-5.63576e-10
5.90877e-11
-6.02795e-10
5.34213e-11
-6.37663e-10
4.75917e-11
-6.68422e-10
4.25788e-11
-6.95141e-10
3.72048e-11
-7.17867e-10
3.15327e-11
-7.36882e-10
2.66872e-11
-7.52451e-10
2.20417e-11
-7.64804e-10
1.75594e-11
-7.74404e-10
1.39121e-11
-7.81713e-10
1.08778e-11
-7.87248e-10
8.57173e-12
-7.91566e-10
7.35518e-12
-7.95016e-10
6.28305e-12
-7.97976e-10
5.59187e-12
-8.00747e-10
6.14267e-12
-8.03368e-10
5.92582e-12
-8.05909e-10
5.45483e-12
-8.08348e-10
6.3309e-12
-8.10565e-10
5.67286e-12
-8.12332e-10
4.67716e-12
-8.13633e-10
5.10344e-12
-8.13997e-10
2.30639e-12
-8.13847e-10
3.15888e-12
-8.12134e-10
-6.62474e-13
-8.09462e-10
-5.93238e-13
-8.04364e-10
-5.90113e-12
-7.98013e-10
-5.7089e-12
-7.89162e-10
-1.11291e-11
-7.78186e-10
-1.29936e-11
-7.63973e-10
-1.73349e-11
-7.46918e-10
-2.2345e-11
-7.26653e-10
-2.56835e-11
-7.02475e-10
-3.27819e-11
-6.74006e-10
-3.69286e-11
-6.41253e-10
-4.409e-11
-6.03857e-10
-5.01304e-11
-5.61946e-10
-5.67638e-11
-5.15468e-10
-6.31921e-11
-4.64783e-10
-6.97109e-11
-4.10041e-10
-7.55085e-11
-3.5212e-10
-8.13834e-11
-2.91005e-10
-8.55672e-11
-2.27925e-10
-8.9575e-11
-1.63412e-10
-9.22191e-11
-9.82638e-11
-9.37934e-11
-3.36875e-11
-9.39647e-11
2.97245e-11
-9.29612e-11
9.13821e-11
-9.1009e-11
1.50317e-10
-8.76126e-11
2.06016e-10
-8.32661e-11
2.58277e-10
-7.85582e-11
3.06519e-10
-7.28729e-11
3.50625e-10
-6.68908e-11
3.90511e-10
-6.06957e-11
4.26224e-10
-5.42272e-11
4.5802e-10
-4.82343e-11
4.86272e-10
-4.29906e-11
5.10416e-10
-3.64953e-11
5.31521e-10
-3.16254e-11
5.50387e-10
-2.82464e-11
5.6549e-10
-2.20814e-11
5.78531e-10
-1.85194e-11
5.89982e-10
-1.64953e-11
5.96892e-10
-8.71822e-12
6.02028e-10
-6.53349e-12
6.02962e-10
2.18047e-13
5.9958e-10
6.58022e-12
5.90098e-10
1.55665e-11
5.73145e-10
2.64878e-11
5.4755e-10
3.94846e-11
5.12426e-10
5.29351e-11
4.64425e-10
7.16659e-11
4.07383e-10
8.40228e-11
3.35497e-10
1.05412e-10
2.55358e-10
1.16349e-10
1.66433e-10
1.2776e-10
7.07785e-11
1.35756e-10
-2.6341e-11
1.3641e-10
-1.25488e-10
1.37139e-10
-2.2068e-10
1.30604e-10
-3.12994e-10
1.2406e-10
-3.98615e-10
1.14557e-10
-4.77613e-10
1.03476e-10
-5.47947e-10
9.22514e-11
-6.09087e-10
7.76401e-11
-6.60559e-10
6.09057e-11
-6.99641e-10
3.52653e-11
-7.33927e-10
5.67468e-11
-7.55841e-10
3.95148e-11
-7.60534e-10
1.44801e-11
-7.45279e-10
-1.3607e-11
-7.10555e-10
-3.5628e-11
-6.56319e-10
-5.98568e-11
-5.84982e-10
-7.79921e-11
-5.01746e-10
-1.03245e-10
-4.16366e-10
-1.15008e-10
-3.36082e-10
-1.12008e-10
-2.65326e-10
-1.00288e-10
-2.06224e-10
-8.40397e-11
-1.59424e-10
-6.62451e-11
-1.24395e-10
-4.90245e-11
-9.96558e-11
-3.37877e-11
-8.31409e-11
-2.12679e-11
-7.27933e-11
-1.18151e-11
-6.66911e-11
-5.44138e-12
-6.28968e-11
-1.82062e-12
-5.98684e-11
-5.00097e-13
-5.65019e-11
-8.87972e-13
-5.20596e-11
-2.45733e-12
-4.61992e-11
-4.63743e-12
-3.89495e-11
-6.88001e-12
-3.06401e-11
-8.72594e-12
-2.18167e-11
-9.83641e-12
-1.31491e-11
-1.00211e-11
-5.32167e-12
-9.20242e-12
1.05112e-12
-7.42301e-12
5.42351e-12
-4.84707e-12
7.49301e-12
-1.71762e-12
7.02671e-12
1.7682e-12
4.015e-12
5.25966e-12
-1.33608e-12
8.61054e-12
-8.74044e-12
1.16368e-11
-1.78406e-11
1.42219e-11
-2.82609e-11
1.63473e-11
-3.96694e-11
1.81092e-11
-5.17955e-11
1.98976e-11
2.27011e-11
1.80391e-09
1.61554e-10
1.91492e-09
3.86432e-10
1.93193e-09
4.71914e-10
1.87548e-09
4.8095e-10
1.77727e-09
4.48862e-10
1.6593e-09
4.0011e-10
1.53795e-09
3.47276e-10
1.42305e-09
2.96486e-10
1.31879e-09
2.50954e-10
1.22622e-09
2.11894e-10
1.14516e-09
1.78751e-10
1.07478e-09
1.50805e-10
1.01377e-09
1.27655e-10
9.6074e-10
1.08783e-10
9.14374e-10
9.35856e-11
8.73444e-10
8.15418e-11
8.36804e-10
7.22492e-11
8.03428e-10
6.53136e-11
7.72427e-10
6.03536e-11
7.43026e-10
5.70496e-11
7.1456e-10
5.51072e-11
6.86467e-10
5.42589e-11
6.58273e-10
5.42751e-11
6.29582e-10
5.49576e-11
6.00071e-10
5.6134e-11
5.69471e-10
5.76527e-11
5.37562e-10
5.93695e-11
5.0416e-10
6.11317e-11
4.69118e-10
6.27577e-11
4.32314e-10
6.40071e-11
3.93625e-10
6.45434e-11
3.52842e-10
6.39016e-11
3.09687e-10
6.13598e-11
2.6065e-10
5.91648e-11
2.26159e-10
2.55352e-11
2.28267e-10
-3.76717e-11
2.61286e-10
-9.23935e-11
3.16873e-10
-1.34294e-10
3.91609e-10
-1.69472e-10
4.83788e-10
-2.01108e-10
5.94063e-10
-2.38443e-10
7.07223e-10
-2.48579e-10
8.14376e-10
-2.35141e-10
9.13085e-10
-2.15667e-10
1.00105e-09
-1.9017e-10
1.07913e-09
-1.66471e-10
1.1483e-09
-1.45977e-10
1.20642e-09
-1.18477e-10
1.2558e-09
-9.83886e-11
1.29542e-09
-7.51021e-11
1.32475e-09
-5.0055e-11
1.34409e-09
-2.80471e-11
1.35038e-09
4.03919e-12
1.34556e-09
2.82144e-11
1.32561e-09
6.39954e-11
1.29198e-09
9.36311e-11
1.24299e-09
1.26983e-10
1.17743e-09
1.62282e-10
1.09918e-09
1.84926e-10
1.00276e-09
2.21021e-10
8.96727e-10
2.33452e-10
7.79998e-10
2.48448e-10
6.5673e-10
2.53923e-10
5.31106e-10
2.50645e-10
4.03663e-10
2.46912e-10
2.80333e-10
2.33023e-10
1.60301e-10
2.21884e-10
4.80877e-11
2.0503e-10
-5.73495e-11
1.9048e-10
-1.54691e-10
1.74989e-10
-2.43724e-10
1.60153e-10
-3.25751e-10
1.46418e-10
-3.99529e-10
1.32936e-10
-4.66087e-10
1.20043e-10
-5.25632e-10
1.07188e-10
-5.77952e-10
9.49364e-11
-6.23556e-10
8.28323e-11
-6.62816e-10
7.07947e-11
-6.95753e-10
5.96046e-11
-7.22825e-10
4.90761e-11
-7.44507e-10
3.91913e-11
-7.61245e-10
3.05931e-11
-7.73674e-10
2.32485e-11
-7.82446e-10
1.72902e-11
-7.88235e-10
1.30979e-11
-7.91811e-10
9.82249e-12
-7.9369e-10
7.44391e-12
-7.9443e-10
6.86403e-12
-7.9436e-10
5.8435e-12
-7.93624e-10
4.71042e-12
-7.92188e-10
4.88786e-12
-7.90049e-10
3.52987e-12
-7.86845e-10
1.46895e-12
-7.82617e-10
8.70908e-13
-7.77466e-10
-2.84955e-12
-7.70431e-10
-3.88033e-12
-7.62211e-10
-8.88691e-12
-7.51728e-10
-1.10807e-11
-7.40118e-10
-1.75152e-11
-7.2547e-10
-2.03609e-11
-7.08699e-10
-2.79036e-11
-6.88454e-10
-3.32432e-11
-6.64602e-10
-4.11894e-11
-6.36856e-10
-5.00937e-11
-6.03993e-10
-5.85482e-11
-5.66569e-10
-7.02058e-11
-5.22975e-10
-8.05223e-11
-4.73927e-10
-9.31354e-11
-4.18745e-10
-1.05309e-10
-3.57706e-10
-1.17799e-10
-2.90956e-10
-1.29938e-10
-2.19195e-10
-1.41469e-10
-1.42726e-10
-1.51975e-10
-6.31775e-11
-1.6093e-10
1.98332e-11
-1.68576e-10
1.04045e-10
-1.73784e-10
1.88828e-10
-1.77001e-10
2.73386e-10
-1.78353e-10
3.56136e-10
-1.76721e-10
4.36448e-10
-1.73284e-10
5.13703e-10
-1.68284e-10
5.86773e-10
-1.60712e-10
6.55259e-10
-1.5179e-10
7.19064e-10
-1.4241e-10
7.77666e-10
-1.31525e-10
8.31103e-10
-1.20382e-10
8.79445e-10
-1.09096e-10
9.22855e-10
-9.77015e-11
9.61816e-10
-8.72678e-11
9.96763e-10
-7.80193e-11
1.02738e-09
-6.72082e-11
1.0547e-09
-5.90408e-11
1.07958e-09
-5.32263e-11
1.10067e-09
-4.328e-11
1.11981e-09
-3.774e-11
1.13699e-09
-3.37418e-11
1.14988e-09
-2.1639e-11
1.16072e-09
-1.73702e-11
1.16668e-09
-5.67521e-12
1.16786e-09
5.52107e-12
1.16292e-09
2.06677e-11
1.14955e-09
4.0052e-11
1.12652e-09
6.27136e-11
1.09212e-09
8.74959e-11
1.0432e-09
1.2069e-10
9.81792e-10
1.45456e-10
9.01925e-10
1.85243e-10
8.08825e-10
2.09379e-10
7.01523e-10
2.34984e-10
5.81262e-10
2.55951e-10
4.53816e-10
2.63808e-10
3.17186e-10
2.73736e-10
1.80745e-10
2.67022e-10
4.29004e-11
2.61892e-10
-8.8909e-11
2.46364e-10
-2.16069e-10
2.30647e-10
-3.32836e-10
2.09042e-10
-4.38987e-10
1.83822e-10
-5.30951e-10
1.52888e-10
-6.07682e-10
1.11988e-10
-6.45648e-10
9.46882e-11
-6.59065e-10
5.29055e-11
-6.45846e-10
1.23978e-12
-6.04897e-10
-5.45723e-11
-5.33684e-10
-1.06852e-10
-4.36098e-10
-1.57449e-10
-3.13867e-10
-2.00224e-10
-1.8734e-10
-2.29767e-10
-6.8348e-11
-2.33991e-10
3.94216e-11
-2.19767e-10
1.33363e-10
-1.94218e-10
2.12165e-10
-1.6283e-10
2.75865e-10
-1.29934e-10
3.25576e-10
-9.8726e-11
3.63142e-10
-7.13469e-11
3.90891e-10
-4.90104e-11
4.11285e-10
-3.22052e-11
4.26705e-10
-2.08588e-11
4.39333e-10
-1.4447e-11
4.50971e-10
-1.21375e-11
4.62992e-10
-1.29084e-11
4.76219e-10
-1.56852e-11
4.90978e-10
-1.93979e-11
5.07158e-10
-2.30606e-11
5.24278e-10
-2.58474e-11
5.41592e-10
-2.7151e-11
5.58222e-10
-2.66527e-11
5.73269e-10
-2.42491e-11
5.85905e-10
-2.00593e-11
5.95461e-10
-1.44033e-11
6.01479e-10
-7.73438e-12
6.03772e-10
-5.23584e-13
6.02427e-10
6.60576e-12
5.97715e-10
1.3323e-11
5.90117e-10
1.92366e-11
5.80217e-10
2.41221e-11
5.68662e-10
2.79023e-11
5.5611e-10
3.06606e-11
5.43322e-10
3.26852e-11
3.53985e-11
1.76519e-09
9.63503e-11
1.88715e-09
2.64426e-10
1.98763e-09
3.71498e-10
2.04878e-09
4.19836e-10
2.06757e-09
4.30103e-10
2.04993e-09
4.17781e-10
2.00934e-09
3.87891e-10
1.95544e-09
3.50389e-10
1.89518e-09
3.11213e-10
1.83313e-09
2.73944e-10
1.77267e-09
2.392e-10
1.71562e-09
2.07858e-10
1.66255e-09
1.80719e-10
1.61362e-09
1.57716e-10
1.56871e-09
1.38488e-10
1.5275e-09
1.22752e-10
1.48944e-09
1.10308e-10
1.45394e-09
1.00808e-10
1.42044e-09
9.38519e-11
1.38835e-09
8.91391e-11
1.35711e-09
8.63467e-11
1.3262e-09
8.51753e-11
1.29511e-09
8.53638e-11
1.26339e-09
8.6678e-11
1.23061e-09
8.89065e-11
1.1964e-09
9.18652e-11
1.16038e-09
9.53887e-11
1.1222e-09
9.93158e-11
1.08148e-09
1.03472e-10
1.03785e-09
1.07646e-10
9.90823e-10
1.11569e-10
9.39823e-10
1.14906e-10
8.83942e-10
1.17245e-10
8.19039e-10
1.24073e-10
7.65214e-10
7.9368e-11
7.4716e-10
-1.96e-11
7.61827e-10
-1.07034e-10
8.02905e-10
-1.75345e-10
8.6724e-10
-2.33791e-10
9.52019e-10
-2.85898e-10
1.05606e-09
-3.42525e-10
1.16439e-09
-3.56979e-10
1.26999e-09
-3.4081e-10
1.36941e-09
-3.15148e-10
1.45991e-09
-2.80729e-10
1.54197e-09
-2.48572e-10
1.61623e-09
-2.20284e-10
1.68095e-09
-1.83217e-10
1.73755e-09
-1.55006e-10
1.78564e-09
-1.23193e-10
1.82449e-09
-8.88912e-11
1.854e-09
-5.75256e-11
1.87231e-09
-1.4246e-11
1.88031e-09
2.0245e-11
1.87521e-09
6.91193e-11
1.85741e-09
1.11447e-10
1.82531e-09
1.59087e-10
1.77719e-09
2.10396e-10
1.71524e-09
2.4688e-10
1.63418e-09
3.02087e-10
1.53998e-09
3.27655e-10
1.43072e-09
3.57693e-10
1.30971e-09
3.74921e-10
1.1803e-09
3.80018e-10
1.04347e-09
3.83686e-10
9.05304e-10
3.71142e-10
7.65585e-10
3.61562e-10
6.3e-10
3.40592e-10
4.98702e-10
3.21782e-10
3.7432e-10
2.99399e-10
2.58255e-10
2.76263e-10
1.49388e-10
2.5534e-10
5.0107e-11
2.32271e-10
-4.07834e-11
2.10982e-10
-1.2346e-10
1.89901e-10
-1.97176e-10
1.68676e-10
-2.62566e-10
1.48231e-10
-3.20071e-10
1.28286e-10
-3.69525e-10
1.09027e-10
-4.11381e-10
9.08857e-11
-4.46305e-10
7.40608e-11
-4.74683e-10
5.89129e-11
-4.97241e-10
4.57512e-11
-5.14757e-10
3.47565e-11
-5.27859e-10
2.61594e-11
-5.37674e-10
1.96055e-11
-5.45058e-10
1.4805e-11
-5.50162e-10
1.19518e-11
-5.54047e-10
9.71658e-12
-5.5715e-10
7.8043e-12
-5.58842e-10
6.57239e-12
-5.59813e-10
4.49448e-12
-5.5998e-10
1.6305e-12
-5.58139e-10
-9.765e-13
-5.55219e-10
-5.77445e-12
-5.49405e-10
-9.69952e-12
-5.4197e-10
-1.63266e-11
-5.30985e-10
-2.2071e-11
-5.17771e-10
-3.0733e-11
-4.99816e-10
-3.83201e-11
-4.78487e-10
-4.9237e-11
-4.51715e-10
-6.00194e-11
-4.19773e-10
-7.31354e-11
-3.82099e-10
-8.77709e-11
-3.37258e-10
-1.03391e-10
-2.86367e-10
-1.21098e-10
-2.27669e-10
-1.39221e-10
-1.62439e-10
-1.58364e-10
-9.0257e-11
-1.77488e-10
-1.18133e-11
-1.96239e-10
7.22562e-11
-2.14002e-10
1.60942e-10
-2.30148e-10
2.5355e-10
-2.44577e-10
3.48126e-10
-2.55499e-10
4.44837e-10
-2.65278e-10
5.41184e-10
-2.70121e-10
6.36531e-10
-2.72337e-10
7.30039e-10
-2.71849e-10
8.20183e-10
-2.66856e-10
9.06459e-10
-2.59553e-10
9.88404e-10
-2.50228e-10
1.06509e-09
-2.374e-10
1.13636e-09
-2.23079e-10
1.20226e-09
-2.08342e-10
1.26254e-09
-1.9184e-10
1.31742e-09
-1.75307e-10
1.36713e-09
-1.58853e-10
1.41197e-09
-1.426e-10
1.4525e-09
-1.27872e-10
1.48919e-09
-1.14802e-10
1.52204e-09
-1.00172e-10
1.55181e-09
-8.89363e-11
1.57939e-09
-8.09558e-11
1.60381e-09
-6.78598e-11
1.6266e-09
-6.07092e-11
1.64741e-09
-5.47118e-11
1.66487e-09
-3.92502e-11
1.68011e-09
-3.2733e-11
1.69146e-09
-1.70993e-11
1.69811e-09
-1.141e-12
1.69955e-09
1.92904e-11
1.69339e-09
4.633e-11
1.67874e-09
7.75355e-11
1.65354e-09
1.12878e-10
1.61535e-09
1.59042e-10
1.56464e-09
1.96285e-10
1.49625e-09
2.53673e-10
1.41302e-09
2.92607e-10
1.31347e-09
3.3449e-10
1.19723e-09
3.72135e-10
1.06916e-09
3.91832e-10
9.26119e-10
4.16743e-10
7.77146e-10
4.15973e-10
6.19886e-10
4.19138e-10
4.63405e-10
4.02838e-10
3.06272e-10
3.87783e-10
1.56445e-10
3.58878e-10
1.51646e-11
3.25115e-10
-1.08649e-10
2.76706e-10
-2.1531e-10
2.18632e-10
-2.58374e-10
1.37726e-10
-2.6458e-10
5.9085e-11
-2.38069e-10
-2.52909e-11
-1.79855e-10
-1.128e-10
-8.61774e-11
-2.00539e-10
3.51112e-11
-2.78746e-10
1.80733e-10
-3.45851e-10
3.23362e-10
-3.72395e-10
4.52235e-10
-3.62859e-10
5.66644e-10
-3.34167e-10
6.65977e-10
-2.9354e-10
7.50146e-10
-2.46986e-10
8.19728e-10
-1.99503e-10
8.75941e-10
-1.54927e-10
9.2051e-10
-1.15906e-10
9.55525e-10
-8.40164e-11
9.83252e-10
-5.99266e-11
1.00595e-09
-4.35511e-11
1.0257e-09
-3.4193e-11
1.04427e-09
-3.07063e-11
1.06302e-09
-3.1657e-11
1.08281e-09
-3.54806e-11
1.10403e-09
-4.06144e-11
1.12658e-09
-4.56179e-11
1.15e-09
-4.92698e-11
1.1735e-09
-5.06462e-11
1.19615e-09
-4.93025e-11
1.21695e-09
-4.50587e-11
1.23497e-09
-3.80783e-11
1.24941e-09
-2.88385e-11
1.25969e-09
-1.80148e-11
1.26555e-09
-6.38765e-12
1.26695e-09
5.20637e-12
1.26421e-09
1.60657e-11
1.25785e-09
2.56033e-11
1.24855e-09
3.34219e-11
1.23712e-09
3.93332e-11
1.22441e-09
4.33658e-11
1.21141e-09
4.5691e-11
4.80609e-11
1.73737e-09
5.8967e-11
1.82602e-09
1.75736e-10
1.93103e-09
2.66483e-10
2.02611e-09
3.24777e-10
2.10113e-09
3.55106e-10
2.15509e-09
3.63895e-10
2.18735e-09
3.55641e-10
2.19985e-09
3.37849e-10
2.19655e-09
3.14532e-10
2.18266e-09
2.87831e-10
2.16199e-09
2.59866e-10
2.13701e-09
2.32835e-10
2.10921e-09
2.08515e-10
2.08006e-09
1.86873e-10
2.05061e-09
1.67926e-10
2.02147e-09
1.5189e-10
1.9928e-09
1.3898e-10
1.96468e-09
1.28928e-10
1.93711e-09
1.21421e-10
1.90991e-09
1.16342e-10
1.88283e-09
1.13416e-10
1.85561e-09
1.12399e-10
1.82789e-09
1.13085e-10
1.79929e-09
1.15272e-10
1.76944e-09
1.18761e-10
1.73792e-09
1.2338e-10
1.70433e-09
1.28977e-10
1.66824e-09
1.35413e-10
1.62916e-09
1.42553e-10
1.58655e-09
1.50248e-10
1.5398e-09
1.58328e-10
1.4881e-09
1.666e-10
1.43041e-09
1.74945e-10
1.36294e-09
1.91541e-10
1.30168e-09
1.40633e-10
1.26826e-09
1.38373e-11
1.26329e-09
-1.02034e-10
1.2844e-09
-1.96419e-10
1.32964e-09
-2.79e-10
1.3958e-09
-3.52042e-10
1.4806e-09
-4.27334e-10
1.57161e-09
-4.48026e-10
1.66391e-09
-4.33171e-10
1.75299e-09
-4.04283e-10
1.83575e-09
-3.63554e-10
1.91222e-09
-3.25095e-10
1.98272e-09
-2.90841e-10
2.04592e-09
-2.46462e-10
2.1023e-09
-2.11426e-10
2.15251e-09
-1.73446e-10
2.19514e-09
-1.31548e-10
2.23013e-09
-9.2499e-11
2.25697e-09
-4.10779e-11
2.27577e-09
1.46384e-12
2.28502e-09
5.98911e-11
2.28454e-09
1.11949e-10
2.27323e-09
1.70407e-10
2.2494e-09
2.34236e-10
2.21383e-09
2.8246e-10
2.16229e-09
3.5364e-10
2.09777e-09
3.92184e-10
2.01781e-09
4.37667e-10
1.92403e-09
4.68707e-10
1.81803e-09
4.86009e-10
1.7004e-09
5.01275e-10
1.57568e-09
4.95812e-10
1.44412e-09
4.93064e-10
1.31091e-09
4.7376e-10
1.17706e-09
4.55599e-10
1.04576e-09
4.30693e-10
9.19444e-10
4.02591e-10
7.97747e-10
3.77068e-10
6.83879e-10
3.4618e-10
5.77266e-10
3.1764e-10
4.78111e-10
2.89101e-10
3.87509e-10
2.59315e-10
3.04939e-10
2.30825e-10
2.30124e-10
2.03107e-10
1.63339e-10
1.75802e-10
1.04335e-10
1.49867e-10
5.25072e-11
1.25858e-10
7.68125e-12
1.03704e-10
-3.07308e-11
8.41286e-11
-6.33794e-11
6.73733e-11
-9.06991e-11
5.34525e-11
-1.13841e-10
4.27265e-11
-1.33757e-10
3.47059e-11
-1.50431e-10
2.86132e-11
-1.65303e-10
2.45792e-11
-1.78924e-10
2.14178e-11
-1.90669e-10
1.831e-11
-2.01312e-10
1.51308e-11
-2.10768e-10
1.10799e-11
-2.17476e-10
5.72579e-12
-2.22677e-10
-5.79422e-13
-2.23552e-10
-8.82945e-12
-2.21624e-10
-1.82587e-11
-2.14269e-10
-2.94298e-11
-2.02911e-10
-4.20951e-11
-1.84459e-10
-5.67762e-11
-1.6064e-10
-7.30597e-11
-1.29008e-10
-9.16551e-11
-9.00141e-11
-1.12133e-10
-4.33013e-11
-1.34487e-10
1.23726e-11
-1.59068e-10
7.54448e-11
-1.84172e-10
1.47327e-10
-2.11103e-10
2.26233e-10
-2.37269e-10
3.12026e-10
-2.63278e-10
4.0361e-10
-2.87818e-10
4.9977e-10
-3.10156e-10
5.99245e-10
-3.29615e-10
7.00918e-10
-3.4624e-10
8.02767e-10
-3.57338e-10
9.04691e-10
-3.6719e-10
1.00431e-09
-3.69728e-10
1.10104e-09
-3.69049e-10
1.19416e-09
-3.64945e-10
1.28244e-09
-3.55118e-10
1.3656e-09
-3.427e-10
1.44347e-09
-3.28075e-10
1.51546e-09
-3.09373e-10
1.58174e-09
-2.89352e-10
1.64253e-09
-2.69131e-10
1.69787e-09
-2.47191e-10
1.74817e-09
-2.25621e-10
1.79378e-09
-2.04488e-10
1.83514e-09
-1.83995e-10
1.87283e-09
-1.656e-10
1.90728e-09
-1.49313e-10
1.93875e-09
-1.31718e-10
1.96759e-09
-1.17873e-10
1.99477e-09
-1.08268e-10
2.0197e-09
-9.29423e-11
2.04333e-09
-8.45082e-11
2.06512e-09
-7.6691e-11
2.08466e-09
-5.89941e-11
2.10211e-09
-5.03539e-11
2.11684e-09
-3.19845e-11
2.12789e-09
-1.22951e-11
2.13497e-09
1.21619e-11
2.13626e-09
4.50621e-11
2.13135e-09
8.25459e-11
2.1182e-09
1.26163e-10
2.09545e-09
1.81957e-10
2.06237e-09
2.29524e-10
2.01543e-09
3.00716e-10
1.95507e-09
3.53016e-10
1.87981e-09
4.09755e-10
1.78773e-09
4.6419e-10
1.68197e-09
4.97562e-10
1.55842e-09
5.40259e-10
1.42409e-09
5.50283e-10
1.27578e-09
5.67443e-10
1.12159e-09
5.57017e-10
9.59768e-10
5.49603e-10
7.98486e-10
5.2016e-10
6.40781e-10
4.82821e-10
5.01303e-10
4.1618e-10
3.7892e-10
3.41e-10
3.30219e-10
1.86408e-10
3.23158e-10
6.61266e-11
3.53029e-10
-5.51756e-11
4.16049e-10
-1.7583e-10
5.15234e-10
-2.99733e-10
6.39492e-10
-4.03012e-10
7.83447e-10
-4.89816e-10
9.19281e-10
-5.08236e-10
1.03853e-09
-4.82106e-10
1.14252e-09
-4.38156e-10
1.23223e-09
-3.83239e-10
1.30863e-09
-3.23381e-10
1.37281e-09
-2.63673e-10
1.42603e-09
-2.08132e-10
1.46975e-09
-1.59614e-10
1.50562e-09
-1.19875e-10
1.53541e-09
-8.97028e-11
1.56089e-09
-6.90273e-11
1.58376e-09
-5.70583e-11
1.6055e-09
-5.24423e-11
1.62728e-09
-5.34395e-11
1.64991e-09
-5.81077e-11
1.67377e-09
-6.44745e-11
1.69885e-09
-7.06988e-11
1.72476e-09
-7.51873e-11
1.75075e-09
-7.66337e-11
1.77603e-09
-7.45814e-11
1.79961e-09
-6.86433e-11
1.82053e-09
-5.90005e-11
1.83794e-09
-4.62518e-11
1.85119e-09
-3.12615e-11
1.85986e-09
-1.50628e-11
1.86383e-09
1.244e-12
1.86325e-09
1.66371e-11
1.85859e-09
3.02667e-11
1.85049e-09
4.15232e-11
1.83977e-09
5.00627e-11
1.82731e-09
5.58253e-11
1.81411e-09
5.88837e-11
6.103e-11
1.72175e-09
3.71862e-11
1.78158e-09
1.15872e-10
1.86402e-09
1.84026e-10
1.95462e-09
2.34172e-10
2.04263e-09
2.67116e-10
2.12149e-09
2.85056e-10
2.18704e-09
2.90115e-10
2.23929e-09
2.85608e-10
2.2794e-09
2.74427e-10
2.30855e-09
2.58681e-10
2.32713e-09
2.41279e-10
2.33641e-09
2.23548e-10
2.33918e-09
2.05749e-10
2.33692e-09
1.89126e-10
2.3309e-09
1.73944e-10
2.32191e-09
1.60878e-10
2.31047e-09
1.50423e-10
2.29727e-09
1.42126e-10
2.28274e-09
1.35942e-10
2.26708e-09
1.3201e-10
2.25035e-09
1.30141e-10
2.2326e-09
1.30151e-10
2.21369e-09
1.31988e-10
2.19344e-09
1.3552e-10
2.1716e-09
1.40606e-10
2.14785e-09
1.47129e-10
2.12184e-09
1.54988e-10
2.09316e-09
1.64097e-10
2.06133e-09
1.74383e-10
2.0258e-09
1.85774e-10
1.98593e-09
1.98201e-10
1.94092e-09
2.11606e-10
1.88978e-09
2.26088e-10
1.82956e-09
2.51764e-10
1.77086e-09
1.99336e-10
1.72964e-09
5.50713e-11
1.70983e-09
-8.21995e-11
1.71277e-09
-1.99324e-10
1.73802e-09
-3.04202e-10
1.78264e-09
-3.96617e-10
1.84409e-09
-4.88764e-10
1.91332e-09
-5.17265e-10
1.98729e-09
-5.07174e-10
2.06053e-09
-4.77579e-10
2.12977e-09
-4.32845e-10
2.19466e-09
-3.9004e-10
2.25531e-09
-3.51543e-10
2.31079e-09
-3.01995e-10
2.36126e-09
-2.61962e-10
2.40718e-09
-2.19415e-10
2.44755e-09
-1.7196e-10
2.48263e-09
-1.276e-10
2.51251e-09
-7.0954e-11
2.53694e-09
-2.2958e-11
2.5557e-09
4.11474e-11
2.5683e-09
9.93599e-11
2.57437e-09
1.6436e-10
2.57261e-09
2.36005e-10
2.56293e-09
2.92145e-10
2.5427e-09
3.73873e-10
2.51249e-09
4.22406e-10
2.46983e-09
4.80344e-10
2.41487e-09
5.23689e-10
2.34743e-09
5.53466e-10
2.26747e-09
5.81224e-10
2.17704e-09
5.86205e-10
2.0764e-09
5.93656e-10
1.96894e-09
5.81169e-10
1.85594e-09
5.68552e-10
1.74006e-09
5.46531e-10
1.62411e-09
5.18516e-10
1.50834e-09
4.92839e-10
1.39625e-09
4.58274e-10
1.28795e-09
4.25975e-10
1.18414e-09
3.92939e-10
1.08632e-09
3.57177e-10
9.94314e-10
3.22865e-10
9.08244e-10
2.89199e-10
8.28497e-10
2.5556e-10
7.55134e-10
2.23229e-10
6.87751e-10
1.93235e-10
6.26478e-10
1.64967e-10
5.71034e-10
1.39559e-10
5.21086e-10
1.17308e-10
4.7652e-10
9.80071e-11
4.36474e-10
8.27631e-11
4.00183e-10
7.09906e-11
3.67904e-10
6.08869e-11
3.38162e-10
5.43165e-11
3.10493e-10
4.90824e-11
2.85364e-10
4.34352e-11
2.62091e-10
3.83991e-11
2.40587e-10
3.25789e-11
2.22727e-10
2.35819e-11
2.07488e-10
1.46561e-11
1.97751e-10
9.04618e-13
1.92382e-10
-1.28932e-11
1.9455e-10
-3.16007e-11
2.02761e-10
-5.03089e-11
2.20577e-10
-7.45953e-11
2.4596e-10
-9.84465e-11
2.81558e-10
-1.27256e-10
3.26283e-10
-1.56863e-10
3.80446e-10
-1.88653e-10
4.44731e-10
-2.23356e-10
5.17102e-10
-2.56545e-10
5.98337e-10
-2.92339e-10
6.86194e-10
-3.25126e-10
7.79873e-10
-3.56955e-10
8.77965e-10
-3.85906e-10
9.78727e-10
-4.10911e-10
1.08078e-09
-4.31659e-10
1.18269e-09
-4.48141e-10
1.28258e-09
-4.57211e-10
1.38018e-09
-4.64775e-10
1.47347e-09
-4.63001e-10
1.56201e-09
-4.57578e-10
1.64537e-09
-4.48285e-10
1.72277e-09
-4.32489e-10
1.79421e-09
-4.14121e-10
1.85987e-09
-3.93712e-10
1.91959e-09
-3.6907e-10
1.97386e-09
-3.43598e-10
2.02306e-09
-3.18313e-10
2.06751e-09
-2.91633e-10
2.10776e-09
-2.65867e-10
2.14428e-09
-2.41002e-10
2.17758e-09
-2.173e-10
2.20819e-09
-1.96228e-10
2.2365e-09
-1.77644e-10
2.26288e-09
-1.58134e-10
2.2872e-09
-1.42253e-10
2.31079e-09
-1.31956e-10
2.33323e-09
-1.1549e-10
2.35446e-09
-1.05876e-10
2.37423e-09
-9.66251e-11
2.39294e-09
-7.78828e-11
2.40996e-09
-6.75688e-11
2.42547e-09
-4.76655e-11
2.43836e-09
-2.53477e-11
2.44907e-09
1.33851e-12
2.45589e-09
3.81917e-11
2.45917e-09
7.92761e-11
2.45712e-09
1.28293e-10
2.44951e-09
1.89688e-10
2.43485e-09
2.44328e-10
2.41153e-09
3.24164e-10
2.37814e-09
3.86491e-10
2.33368e-09
4.54255e-10
2.27533e-09
5.22548e-10
2.20455e-09
5.6833e-10
2.11683e-09
6.27964e-10
2.01631e-09
6.50788e-10
1.8992e-09
6.84546e-10
1.77109e-09
6.8512e-10
1.62953e-09
6.91169e-10
1.48109e-09
6.68596e-10
1.33005e-09
6.33859e-10
1.1952e-09
5.51016e-10
1.07464e-09
4.61545e-10
1.02338e-09
2.37645e-10
1.01356e-09
7.59265e-11
1.04016e-09
-8.17816e-11
1.09826e-09
-2.33935e-10
1.18959e-09
-3.91071e-10
1.30096e-09
-5.14391e-10
1.42581e-09
-6.14687e-10
1.53953e-09
-6.21973e-10
1.63631e-09
-5.78892e-10
1.71873e-09
-5.20587e-10
1.78876e-09
-4.53265e-10
1.8481e-09
-3.82716e-10
1.89823e-09
-3.13793e-10
1.94048e-09
-2.50368e-10
1.97611e-09
-1.9523e-10
2.00637e-09
-1.50125e-10
2.03251e-09
-1.15835e-10
2.05576e-09
-9.22723e-11
2.07729e-09
-7.85846e-11
2.09815e-09
-7.32915e-11
2.11917e-09
-7.44576e-11
2.14095e-09
-7.9887e-11
2.16379e-09
-8.73132e-11
2.18769e-09
-9.45955e-11
2.21237e-09
-9.98761e-11
2.23701e-09
-1.0127e-10
2.26118e-09
-9.87574e-11