/*--------------------------------*- C++ -*----------------------------------*\
| =========                 |                                                 |
| \\      /  F ield         | OpenFOAM: The Open Source CFD Toolbox           |
|  \\    /   O peration     | Version:  2506                                  |
|   \\  /    A nd           | Website:  www.openfoam.com                      |
|    \\/     M anipulation  |                                                 |
\*---------------------------------------------------------------------------*/
FoamFile
{
    version     2.0;
    format      ascii;
    arch        "LSB;label=32;scalar=64";
    class       volScalarField;
    location    "4.7";
    object      p;
}
// * * * * * * * * * * * * * * * * * * * * * * * * * * * * * * * * * * * * * //

dimensions      [0 2 -2 0 0 0 0];

internalField   nonuniform List<scalar> 
4000
(
0.000555041
0.000497119
0.000465763
0.00045221
0.000444001
0.000438278
0.00043428
0.000431274
0.000428784
0.000426585
0.000424574
0.000422694
0.00042091
0.000419205
0.000417567
0.000415991
0.000414476
0.00041302
0.000411626
0.000410296
0.000409034
0.000407843
0.00040673
0.000405699
0.000404757
0.00040391
0.000403164
0.000402528
0.00040201
0.000401617
0.00040136
0.000401256
0.000401321
0.000401444
0.000402086
0.000403145
0.000403887
0.000404146
0.00040389
0.000402859
0.000400758
0.000396401
0.000389766
0.000381563
0.000371814
0.000360715
0.000348396
0.00033477
0.000320477
0.000305414
0.000289849
0.000274296
0.000258571
0.000243625
0.000229008
0.000215735
0.000203669
0.000193
0.00018442
0.000176875
0.000171784
0.000168002
0.000165776
0.000164996
0.000165095
0.000166364
0.000168082
0.000170527
0.000173203
0.000176187
0.000179304
0.000182427
0.000185613
0.000188714
0.000191739
0.000194679
0.000197492
0.000200182
0.000202755
0.000205202
0.000207531
0.00020975
0.000211863
0.000213877
0.000215798
0.000217625
0.000219363
0.000221011
0.000222564
0.000224021
0.000225383
0.00022665
0.000227828
0.000228917
0.000229924
0.000230854
0.00023171
0.000232503
0.00023324
0.000233929
0.000234575
0.000235188
0.00023577
0.000236328
0.000236865
0.000237381
0.000237883
0.00023836
0.000238816
0.000239237
0.000239616
0.000239933
0.000240173
0.000240294
0.000240291
0.000240089
0.000239666
0.000238968
0.000237919
0.000236477
0.000234576
0.000232134
0.000229103
0.000225437
0.000221058
0.000215942
0.000210057
0.000203379
0.000195912
0.00018766
0.000178593
0.000168835
0.000158396
0.000147222
0.000135563
0.000123461
0.000110712
9.79679e-05
8.48298e-05
7.17569e-05
5.878e-05
4.6135e-05
3.40491e-05
2.28876e-05
1.251e-05
3.94661e-06
-3.72777e-06
-9.16336e-06
-1.31825e-05
-1.56385e-05
-1.63492e-05
-1.61388e-05
-1.44087e-05
-1.21539e-05
-8.98088e-06
-5.60114e-06
-1.79648e-06
1.98478e-06
5.79498e-06
9.45051e-06
1.35166e-05
1.66267e-05
1.9451e-05
2.203e-05
2.44258e-05
2.65382e-05
2.84284e-05
2.96549e-05
3.03449e-05
3.06749e-05
3.06613e-05
3.0342e-05
2.97651e-05
2.8976e-05
2.80153e-05
2.69193e-05
2.57197e-05
2.44441e-05
2.31155e-05
2.17534e-05
2.03737e-05
1.89898e-05
1.76126e-05
1.62513e-05
1.49141e-05
1.36079e-05
1.23389e-05
1.11126e-05
9.93416e-06
8.80757e-06
7.73581e-06
6.7204e-06
5.76117e-06
4.85585e-06
3.99973e-06
3.19052e-06
2.41779e-06
1.6723e-06
9.43664e-07
2.69708e-07
0.000503375
0.000480246
0.000462339
0.000452552
0.000445686
0.000440121
0.000435831
0.000432504
0.00042976
0.000427367
0.000425211
0.000423225
0.000421363
0.000419599
0.000417918
0.00041631
0.00041477
0.000413297
0.00041189
0.000410552
0.000409284
0.000408092
0.000406978
0.000405949
0.000405011
0.000404169
0.000403431
0.000402805
0.000402298
0.000401921
0.000401681
0.000401594
0.000401676
0.000401787
0.000402302
0.00040313
0.000403531
0.000403356
0.000402523
0.000400713
0.000397626
0.000392314
0.000384998
0.00037631
0.000366233
0.000354945
0.000342583
0.000329117
0.000315132
0.000300544
0.000285613
0.0002708
0.000255959
0.000241939
0.000228393
0.00021605
0.000204782
0.000194739
0.000186529
0.00017928
0.000174164
0.000170272
0.000167783
0.000166658
0.000166387
0.000167251
0.000168603
0.00017069
0.000173069
0.000175785
0.000178692
0.000181642
0.000184691
0.000187693
0.000190643
0.000193534
0.000196317
0.000198991
0.00020156
0.000204011
0.000206347
0.000208577
0.000210704
0.000212734
0.000214675
0.000216525
0.000218291
0.000219976
0.000221574
0.000223089
0.000224521
0.00022586
0.000227113
0.00022828
0.000229363
0.000230376
0.000231309
0.000232178
0.000232979
0.00023373
0.000234426
0.000235085
0.000235703
0.000236288
0.000236847
0.000237372
0.000237876
0.000238341
0.000238773
0.000239154
0.000239473
0.000239707
0.000239839
0.000239821
0.000239645
0.00023923
0.000238555
0.00023756
0.00023617
0.000234345
0.000232017
0.000229111
0.000225589
0.000221406
0.000216501
0.000210861
0.000204469
0.000197313
0.000189412
0.000180783
0.00017141
0.00016143
0.000150864
0.000139664
0.000128087
0.000116146
0.000103734
9.13809e-05
7.87979e-05
6.63746e-05
5.4177e-05
4.24025e-05
3.12684e-05
2.10602e-05
1.17505e-05
3.97718e-06
-2.92648e-06
-7.90365e-06
-1.15987e-05
-1.39171e-05
-1.46499e-05
-1.45438e-05
-1.30348e-05
-1.10226e-05
-8.12475e-06
-5.0045e-06
-1.44583e-06
2.12262e-06
5.76469e-06
9.17799e-06
1.31731e-05
1.62751e-05
1.91255e-05
2.17321e-05
2.41363e-05
2.62037e-05
2.80193e-05
2.9163e-05
2.98198e-05
3.01498e-05
3.01469e-05
2.98437e-05
2.92901e-05
2.85311e-05
2.76054e-05
2.65478e-05
2.53889e-05
2.41551e-05
2.28683e-05
2.15471e-05
2.02065e-05
1.88591e-05
1.75152e-05
1.61837e-05
1.48721e-05
1.3587e-05
1.23349e-05
1.11215e-05
9.9518e-06
8.83032e-06
7.7607e-06
6.74523e-06
5.7846e-06
4.87774e-06
4.02209e-06
3.21007e-06
2.43736e-06
1.69396e-06
9.67396e-07
2.88669e-07
0.000479045
0.000471475
0.000460905
0.000452942
0.000446675
0.000441559
0.000437261
0.000433745
0.000430795
0.000428218
0.000425913
0.000423807
0.000421851
0.000420013
0.000418275
0.000416621
0.000415046
0.000413544
0.000412115
0.000410759
0.000409477
0.000408273
0.000407151
0.000406114
0.00040517
0.000404324
0.000403583
0.000402954
0.000402446
0.000402067
0.000401824
0.000401728
0.000401793
0.000401846
0.00040221
0.000402788
0.000402811
0.000402142
0.000400698
0.000398127
0.000394187
0.000388157
0.000380419
0.000371501
0.000361354
0.000350132
0.000337989
0.000324947
0.000311514
0.000297645
0.000283551
0.000269654
0.000255872
0.000242815
0.000230239
0.000218705
0.000208149
0.000198646
0.000190716
0.000183625
0.000178344
0.000174167
0.000171246
0.000169607
0.000168799
0.000169118
0.000169962
0.000171587
0.000173567
0.000175939
0.000178573
0.000181292
0.000184169
0.000187038
0.000189886
0.000192709
0.000195447
0.000198092
0.000200648
0.000203096
0.000205434
0.000207673
0.00020981
0.000211854
0.000213812
0.000215684
0.000217477
0.000219198
0.000220837
0.000222398
0.000223885
0.000225285
0.000226601
0.00022784
0.000228985
0.000230056
0.000231042
0.000231966
0.000232813
0.00023361
0.000234341
0.000235032
0.000235674
0.000236275
0.000236845
0.000237367
0.00023786
0.0002383
0.000238693
0.000239017
0.000239258
0.000239391
0.000239395
0.000239217
0.00023885
0.000238206
0.000237266
0.000235969
0.000234241
0.000232045
0.000229319
0.000225996
0.000222045
0.000217432
0.000212109
0.000206077
0.000199329
0.000191869
0.000183723
0.00017492
0.000165466
0.000155475
0.000144977
0.000133957
0.000122635
0.000111037
9.91159e-05
8.73049e-05
7.54016e-05
6.3727e-05
5.23667e-05
4.14731e-05
3.12358e-05
2.18588e-05
1.33077e-05
6.11215e-06
-2.67009e-07
-5.00009e-06
-8.58427e-06
-1.09801e-05
-1.19274e-05
-1.21211e-05
-1.09729e-05
-9.34161e-06
-6.79931e-06
-4.02132e-06
-7.50629e-07
2.5579e-06
6.02826e-06
9.15612e-06
1.31592e-05
1.61552e-05
1.89355e-05
2.15114e-05
2.3892e-05
2.58783e-05
2.76139e-05
2.86574e-05
2.92677e-05
2.95964e-05
2.96009e-05
2.93082e-05
2.87729e-05
2.80402e-05
2.71469e-05
2.61262e-05
2.50076e-05
2.3816e-05
2.25724e-05
2.1294e-05
1.99949e-05
1.86867e-05
1.73791e-05
1.60801e-05
1.47968e-05
1.35357e-05
1.23024e-05
1.11033e-05
9.94386e-06
8.829e-06
7.76302e-06
6.74904e-06
5.78868e-06
4.88159e-06
4.0255e-06
3.21541e-06
2.44505e-06
1.70431e-06
9.77279e-07
2.95732e-07
0.000468051
0.000465266
0.000458813
0.000452319
0.000447013
0.000442463
0.000438325
0.000434844
0.000431797
0.000429081
0.000426647
0.000424417
0.000422353
0.000420428
0.000418617
0.000416902
0.000415274
0.00041373
0.000412263
0.000410874
0.000409563
0.000408332
0.000407183
0.000406121
0.000405152
0.00040428
0.000403512
0.000402854
0.000402313
0.000401896
0.000401607
0.000401447
0.000401428
0.000401363
0.000401553
0.000401885
0.000401549
0.000400413
0.000398411
0.000395217
0.000390659
0.00038418
0.00037623
0.000367258
0.000357215
0.00034625
0.000334527
0.000322099
0.000309421
0.00029644
0.000283304
0.000270457
0.000257818
0.0002458
0.000234259
0.000223571
0.000213726
0.000204738
0.000197019
0.000190004
0.000184457
0.000179871
0.000176383
0.00017407
0.000172568
0.000172174
0.000172352
0.000173364
0.000174807
0.000176717
0.000178973
0.000181375
0.000184007
0.000186682
0.000189381
0.000192099
0.00019476
0.000197352
0.000199876
0.000202306
0.000204636
0.000206874
0.000209015
0.000211065
0.000213034
0.000214921
0.000216732
0.000218482
0.000220155
0.000221757
0.000223297
0.000224753
0.000226131
0.000227437
0.000228646
0.000229787
0.000230833
0.000231815
0.000232708
0.00023355
0.000234312
0.00023503
0.000235687
0.000236295
0.000236863
0.000237369
0.000237838
0.000238236
0.000238572
0.00023882
0.000238964
0.000238974
0.000238829
0.000238469
0.00023789
0.000236999
0.000235778
0.000234169
0.000232099
0.000229538
0.000226433
0.000222723
0.000218389
0.000213408
0.000207745
0.000201413
0.000194417
0.000186773
0.000178517
0.000169688
0.000160307
0.000150471
0.000140227
0.000129577
0.000118701
0.000107644
9.63964e-05
8.52973e-05
7.42199e-05
6.34114e-05
5.29638e-05
4.29817e-05
3.36184e-05
2.50091e-05
1.71297e-05
1.03798e-05
4.34629e-06
-3.49736e-07
-4.05177e-06
-6.7478e-06
-8.14174e-06
-8.84413e-06
-8.25604e-06
-7.17064e-06
-5.12524e-06
-2.79636e-06
1.08928e-07
3.10283e-06
6.39458e-06
9.24913e-06
1.32767e-05
1.61469e-05
1.88186e-05
2.13353e-05
2.36801e-05
2.55757e-05
2.72313e-05
2.81629e-05
2.87061e-05
2.90186e-05
2.90174e-05
2.87218e-05
2.81926e-05
2.74762e-05
2.66075e-05
2.56178e-05
2.45351e-05
2.33832e-05
2.21816e-05
2.09461e-05
1.96898e-05
1.84233e-05
1.71552e-05
1.5893e-05
1.46428e-05
1.34108e-05
1.22028e-05
1.10246e-05
9.88214e-06
8.78069e-06
7.72505e-06
6.71898e-06
5.76471e-06
4.86267e-06
4.01091e-06
3.20498e-06
2.43793e-06
1.69924e-06
9.71715e-07
2.9081e-07
0.00046132
0.000459994
0.000456019
0.000451324
0.000446996
0.000442924
0.000439171
0.000435834
0.000432738
0.000429958
0.000427442
0.000425087
0.000422905
0.000420882
0.00041898
0.000417184
0.000415486
0.00041388
0.000412356
0.000410915
0.000409555
0.000408277
0.000407081
0.000405972
0.000404952
0.000404028
0.000403203
0.000402482
0.000401871
0.000401373
0.000400989
0.000400712
0.000400548
0.000400315
0.000400288
0.000400334
0.000399634
0.000398051
0.000395546
0.000391838
0.000386821
0.000380064
0.000372045
0.00036315
0.000353352
0.000342801
0.000331656
0.000320006
0.000308159
0.000296149
0.00028418
0.00027249
0.000261047
0.000250142
0.000239696
0.000229923
0.000220842
0.000212433
0.000204987
0.000198111
0.000192354
0.000187389
0.000183327
0.000180286
0.000178011
0.00017677
0.000176138
0.000176363
0.000177102
0.000178381
0.000180102
0.00018205
0.000184314
0.000186695
0.00018916
0.000191702
0.000194232
0.000196728
0.000199187
0.000201578
0.000203882
0.000206109
0.000208247
0.0002103
0.000212278
0.000214176
0.000216004
0.000217781
0.000219485
0.000221128
0.000222719
0.000224234
0.000225675
0.000227053
0.000228329
0.000229543
0.00023065
0.000231694
0.000232633
0.000233519
0.000234306
0.000235044
0.000235706
0.000236305
0.000236855
0.000237323
0.000237744
0.000238073
0.000238321
0.000238461
0.000238471
0.000238322
0.000237988
0.000237408
0.000236579
0.000235404
0.000233872
0.000231927
0.000229502
0.000226573
0.000223098
0.000219027
0.000214354
0.000209065
0.000203141
0.000196605
0.000189473
0.000181771
0.000173544
0.000164838
0.000155682
0.000146166
0.000136354
0.000126246
0.000115974
0.000105622
9.51908e-05
8.49323e-05
7.47802e-05
6.49129e-05
5.5417e-05
4.6357e-05
3.78464e-05
2.99631e-05
2.27098e-05
1.63405e-05
1.05721e-05
5.82966e-06
1.90915e-06
-1.18689e-06
-3.1626e-06
-4.50837e-06
-4.65433e-06
-4.27606e-06
-2.9095e-06
-1.18396e-06
1.2119e-06
3.78162e-06
6.82978e-06
9.39327e-06
1.3401e-05
1.61362e-05
1.86655e-05
2.1091e-05
2.33774e-05
2.51587e-05
2.6706e-05
2.75014e-05
2.79559e-05
2.82378e-05
2.82225e-05
2.79183e-05
2.73926e-05
2.66936e-05
2.5853e-05
2.48997e-05
2.386e-05
2.27563e-05
2.16063e-05
2.04243e-05
1.92221e-05
1.80093e-05
1.67936e-05
1.55814e-05
1.43781e-05
1.31891e-05
1.20199e-05
1.08763e-05
9.76389e-06
8.68816e-06
7.65412e-06
6.66584e-06
5.7259e-06
4.8351e-06
3.99179e-06
3.19178e-06
2.42809e-06
1.69026e-06
9.62249e-07
2.77437e-07
0.000456828
0.000456072
0.000453507
0.000450101
0.000446607
0.000443148
0.000439791
0.000436582
0.000433519
0.000430763
0.000428219
0.000425747
0.000423461
0.000421348
0.000419347
0.000417457
0.000415678
0.000413995
0.000412399
0.000410888
0.000409461
0.000408115
0.00040685
0.000405669
0.000404574
0.000403568
0.000402655
0.000401836
0.000401115
0.000400493
0.000399966
0.000399522
0.000399161
0.000398718
0.000398428
0.000398142
0.000397073
0.000395077
0.000392131
0.000388012
0.000382667
0.000375775
0.000367811
0.000359107
0.000349673
0.000339652
0.000329198
0.0003184
0.000307461
0.000296504
0.000285771
0.00027526
0.000265016
0.000255241
0.000245886
0.000237064
0.000228782
0.000221012
0.000213935
0.000207304
0.000201479
0.000196268
0.000191738
0.00018805
0.000185053
0.000182954
0.000181462
0.000180799
0.000180709
0.000181209
0.000182235
0.000183577
0.000185321
0.000187271
0.000189382
0.000191643
0.000193954
0.000196283
0.00019862
0.000200925
0.000203171
0.000205362
0.000207481
0.000209526
0.000211507
0.000213415
0.000215257
0.000217058
0.000218791
0.000220471
0.000222112
0.000223683
0.000225186
0.000226637
0.00022798
0.000229269
0.000230436
0.000231542
0.000232525
0.00023345
0.000234255
0.000235
0.00023565
0.000236221
0.000236727
0.00023713
0.000237468
0.000237692
0.000237812
0.0002378
0.000237631
0.000237276
0.000236707
0.000235863
0.000234745
0.000233255
0.000231387
0.000229092
0.000226311
0.000223028
0.000219214
0.00021483
0.000209881
0.000204368
0.000198284
0.00019166
0.00018452
0.0001769
0.000168847
0.00016041
0.000151626
0.000142575
0.000133338
0.000123875
0.000114352
0.000104813
9.52749e-05
8.59201e-05
7.67249e-05
6.781e-05
5.92479e-05
5.10748e-05
4.33703e-05
3.61868e-05
2.94659e-05
2.34379e-05
1.78986e-05
1.30943e-05
8.93798e-06
5.43628e-06
2.84615e-06
8.14806e-07
-1.53669e-07
-5.79794e-07
-3.82356e-08
9.41457e-07
2.67039e-06
4.68209e-06
7.37245e-06
9.59617e-06
1.3467e-05
1.60423e-05
1.83936e-05
2.06849e-05
2.28744e-05
2.45083e-05
2.59059e-05
2.6544e-05
2.6895e-05
2.71338e-05
2.70994e-05
2.67875e-05
2.62707e-05
2.55979e-05
2.4797e-05
2.38933e-05
2.29113e-05
2.18716e-05
2.07897e-05
1.96781e-05
1.85474e-05
1.74063e-05
1.62617e-05
1.51186e-05
1.39813e-05
1.28543e-05
1.17426e-05
1.06515e-05
9.5864e-06
8.55238e-06
7.55428e-06
6.596e-06
5.68035e-06
4.80809e-06
3.97786e-06
3.18582e-06
2.4255e-06
1.68695e-06
9.57615e-07
2.57054e-07
0.000453813
0.000453324
0.000451544
0.000448967
0.000446099
0.000443114
0.000440084
0.000437084
0.000434177
0.000431426
0.000428808
0.000426294
0.000423967
0.000421786
0.000419678
0.000417692
0.000415829
0.000414064
0.000412387
0.000410794
0.000409287
0.000407856
0.000406504
0.00040523
0.000404036
0.000402922
0.000401889
0.000400939
0.000400072
0.000399285
0.000398573
0.000397919
0.000397318
0.00039663
0.000396039
0.000395384
0.000393952
0.000391589
0.000388278
0.00038385
0.000378297
0.000371395
0.000363591
0.000355175
0.000346191
0.000336781
0.000327078
0.000317165
0.000307244
0.000297395
0.00028778
0.00027842
0.000269346
0.000260672
0.000252368
0.000244473
0.000236986
0.000229881
0.000223246
0.000216942
0.000211209
0.000205916
0.000201059
0.000196885
0.000193319
0.000190463
0.000188168
0.000186627
0.000185673
0.00018532
0.000185543
0.000186156
0.000187238
0.000188616
0.000190239
0.000192089
0.000194063
0.000196124
0.000198249
0.000200395
0.000202523
0.000204631
0.000206696
0.000208708
0.000210673
0.000212577
0.000214424
0.000216243
0.000217999
0.000219711
0.000221394
0.000223015
0.000224572
0.00022609
0.000227495
0.000228854
0.000230078
0.000231241
0.000232261
0.000233218
0.000234028
0.000234766
0.000235384
0.000235902
0.000236334
0.000236636
0.000236853
0.000236928
0.000236875
0.000236665
0.00023627
0.000235664
0.000234819
0.000233676
0.000232239
0.000230416
0.000228206
0.00022557
0.000222455
0.00021886
0.000214762
0.000210137
0.000205003
0.00019937
0.000193242
0.000186657
0.000179645
0.000172244
0.000164503
0.000156469
0.000148182
0.000139713
0.000131123
0.000122397
0.000113702
0.000105023
9.63947e-05
8.79494e-05
7.96879e-05
7.1685e-05
6.3996e-05
5.66387e-05
4.96595e-05
4.30752e-05
3.68543e-05
3.11464e-05
2.58195e-05
2.09602e-05
1.65881e-05
1.27263e-05
9.55557e-06
6.86455e-06
5.07083e-06
3.81996e-06
3.45809e-06
3.59737e-06
4.53289e-06
5.86416e-06
8.05725e-06
9.87581e-06
1.34354e-05
1.5803e-05
1.79372e-05
2.00414e-05
2.20786e-05
2.35287e-05
2.47342e-05
2.52066e-05
2.54494e-05
2.5635e-05
2.55789e-05
2.52654e-05
2.47687e-05
2.4137e-05
2.33932e-05
2.25575e-05
2.16527e-05
2.06975e-05
1.97046e-05
1.86841e-05
1.76457e-05
1.65979e-05
1.55464e-05
1.44945e-05
1.34449e-05
1.24012e-05
1.13677e-05
1.03492e-05
9.3503e-06
8.37545e-06
7.42894e-06
6.51394e-06
5.63324e-06
4.78748e-06
3.97547e-06
3.19388e-06
2.43724e-06
1.69626e-06
9.64138e-07
2.31956e-07
0.000451809
0.00045145
0.000450103
0.000448044
0.000445613
0.00044297
0.000440199
0.000437383
0.000434592
0.000431875
0.000429256
0.00042674
0.000424353
0.000422086
0.000419919
0.000417864
0.00041592
0.000414071
0.000412311
0.000410633
0.000409034
0.00040751
0.000406059
0.000404678
0.000403366
0.000402123
0.000400947
0.000399839
0.000398795
0.000397812
0.00039688
0.000395981
0.000395107
0.000394145
0.000393224
0.000392181
0.0003904
0.00038772
0.000384119
0.000379477
0.000373821
0.00036701
0.00035945
0.000351395
0.000342925
0.000334175
0.000325259
0.000316259
0.00030734
0.000298567
0.000290033
0.000281772
0.000273799
0.000266155
0.000258826
0.000251804
0.00024508
0.000238626
0.000232468
0.00022653
0.000221028
0.000215811
0.000210752
0.000206264
0.00020232
0.000198876
0.000195908
0.000193589
0.000191824
0.000190631
0.000190023
0.000189848
0.000190172
0.000190868
0.000191882
0.000193193
0.000194703
0.000196376
0.000198178
0.000200062
0.000201984
0.000203935
0.000205883
0.000207811
0.000209719
0.000211589
0.000213417
0.000215235
0.000216998
0.000218728
0.000220439
0.000222097
0.000223694
0.000225265
0.000226719
0.000228136
0.000229408
0.000230612
0.000231656
0.00023263
0.000233429
0.000234139
0.000234701
0.000235138
0.000235464
0.000235631
0.000235686
0.000235573
0.000235304
0.000234855
0.000234196
0.000233307
0.000232159
0.0002307
0.000228938
0.000226788
0.000224256
0.000221314
0.00021792
0.000214079
0.000209781
0.000205013
0.000199802
0.000194168
0.000188124
0.000181708
0.000174954
0.0001679
0.00016059
0.000153067
0.000145372
0.000137564
0.000129668
0.000121745
0.000113868
0.000106039
9.82951e-05
9.07218e-05
8.33312e-05
7.61661e-05
6.92633e-05
6.26312e-05
5.62883e-05
5.02342e-05
4.44377e-05
3.90249e-05
3.39091e-05
2.9005e-05
2.44545e-05
2.02995e-05
1.66105e-05
1.33221e-05
1.07653e-05
8.73401e-06
7.45244e-06
6.70928e-06
6.77488e-06
7.33561e-06
8.89213e-06
1.02298e-05
1.3285e-05
1.5373e-05
1.72417e-05
1.90975e-05
2.09137e-05
2.21436e-05
2.31217e-05
2.34354e-05
2.35774e-05
2.37046e-05
2.36289e-05
2.33261e-05
2.28665e-05
2.22962e-05
2.16309e-05
2.08852e-05
2.00805e-05
1.92335e-05
1.83526e-05
1.74458e-05
1.65226e-05
1.55916e-05
1.4657e-05
1.37191e-05
1.27791e-05
1.18397e-05
1.09045e-05
9.97788e-06
9.06319e-06
8.16376e-06
7.28309e-06
6.4243e-06
5.58867e-06
4.77693e-06
3.98818e-06
3.21966e-06
2.4673e-06
1.72239e-06
9.85682e-07
2.06218e-07
0.00045056
0.000450265
0.000449151
0.000447394
0.000445238
0.000442818
0.000440223
0.000437534
0.000434823
0.000432146
0.000429535
0.000427009
0.000424584
0.000422265
0.000420049
0.000417935
0.00041592
0.000413997
0.000412159
0.0004104
0.000408708
0.000407088
0.000405532
0.000404036
0.000402596
0.000401211
0.000399877
0.000398591
0.00039735
0.000396149
0.000394975
0.000393807
0.000392634
0.000391376
0.00039011
0.000388673
0.000386559
0.000383608
0.000379784
0.00037501
0.000369333
0.000362691
0.000355438
0.000347798
0.000339885
0.000331825
0.000323711
0.00031562
0.000307673
0.000299922
0.000292419
0.000285182
0.000278215
0.000271511
0.000265065
0.000258839
0.00025282
0.000246983
0.000241309
0.000235804
0.000230525
0.000225459
0.000220418
0.000215733
0.000211524
0.000207673
0.000204221
0.000201298
0.000198839
0.000196891
0.000195503
0.000194552
0.00019409
0.000194047
0.000194376
0.000195051
0.000195982
0.000197152
0.000198518
0.000200021
0.000201625
0.000203322
0.000205066
0.00020683
0.000208611
0.000210388
0.000212151
0.000213925
0.000215661
0.000217381
0.00021909
0.000220759
0.00022237
0.000223967
0.000225446
0.000226894
0.000228188
0.000229415
0.000230463
0.00023143
0.000232196
0.000232855
0.000233336
0.000233667
0.000233856
0.000233859
0.000233721
0.000233391
0.000232879
0.000232168
0.000231228
0.000230046
0.000228594
0.000226831
0.000224766
0.000222328
0.000219529
0.000216349
0.000212759
0.000208766
0.000204372
0.000199575
0.000194414
0.000188907
0.000183072
0.000176948
0.000170567
0.000163965
0.000157178
0.000150244
0.000143197
0.000136084
0.000128926
0.000121782
0.000114694
0.000107674
0.000100753
9.39802e-05
8.73718e-05
8.09505e-05
7.47349e-05
6.87311e-05
6.29352e-05
5.7344e-05
5.19411e-05
4.67594e-05
4.17586e-05
3.68646e-05
3.22384e-05
2.78499e-05
2.37041e-05
1.98874e-05
1.66794e-05
1.39517e-05
1.17751e-05
1.01476e-05
9.31383e-06
9.04836e-06
9.85469e-06
1.06202e-05
1.30027e-05
1.47219e-05
1.62652e-05
1.78071e-05
1.93286e-05
2.03079e-05
2.10386e-05
2.1215e-05
2.12732e-05
2.13422e-05
2.12556e-05
2.09858e-05
2.05903e-05
2.01069e-05
1.95425e-05
1.89093e-05
1.82312e-05
1.75176e-05
1.67691e-05
1.59944e-05
1.52064e-05
1.44166e-05
1.36245e-05
1.28236e-05
1.20127e-05
1.1195e-05
1.03749e-05
9.55602e-06
8.73996e-06
7.92894e-06
7.12586e-06
6.33251e-06
5.54965e-06
4.77779e-06
4.0163e-06
3.26328e-06
2.51618e-06
1.76636e-06
1.02268e-06
1.85213e-07
0.000449938
0.00044967
0.000448661
0.000447046
0.000445023
0.000442715
0.000440208
0.000437583
0.000434914
0.000432256
0.000429646
0.000427108
0.000424658
0.000422305
0.000420048
0.000417886
0.000415815
0.00041383
0.000411923
0.000410088
0.000408314
0.0004066
0.00040494
0.000403327
0.000401756
0.000400223
0.000398723
0.000397251
0.0003958
0.000394374
0.00039295
0.000391494
0.000390007
0.00038844
0.000386821
0.000384994
0.000382565
0.000379379
0.000375387
0.000370543
0.00036491
0.000358491
0.000351586
0.000344401
0.000337073
0.000329716
0.000322401
0.000315198
0.000308182
0.000301393
0.000294849
0.000288546
0.000282483
0.000276621
0.000270959
0.000265442
0.000260055
0.00025478
0.000249566
0.000244467
0.000239419
0.000234526
0.00022967
0.000225013
0.000220627
0.000216466
0.000212693
0.000209345
0.000206329
0.000203748
0.000201698
0.000200042
0.000198824
0.000198046
0.00019767
0.000197651
0.000197938
0.000198511
0.000199354
0.000200366
0.00020153
0.000202859
0.000204299
0.0002058
0.000207357
0.000208952
0.00021057
0.00021223
0.000213879
0.000215535
0.000217192
0.000218824
0.000220407
0.000221985
0.000223449
0.000224887
0.00022617
0.000227382
0.000228404
0.000229333
0.000230042
0.000230623
0.000231001
0.000231204
0.000231238
0.000231062
0.000230718
0.000230164
0.000229407
0.00022844
0.000227232
0.00022578
0.000224056
0.000222033
0.00021972
0.000217066
0.000214086
0.00021077
0.000207094
0.000203064
0.000198691
0.000193993
0.000189011
0.000183757
0.000178247
0.00017252
0.000166603
0.000160527
0.000154321
0.000148015
0.000141636
0.000135218
0.000128787
0.000122382
0.000116029
0.000109749
0.000103566
9.75019e-05
9.15747e-05
8.57956e-05
8.01658e-05
7.46945e-05
6.93585e-05
6.41583e-05
5.90717e-05
5.40887e-05
4.92043e-05
4.43637e-05
3.96505e-05
3.50902e-05
3.06346e-05
2.63679e-05
2.25544e-05
1.91688e-05
1.61841e-05
1.37347e-05
1.20242e-05
1.09028e-05
1.08731e-05
1.10011e-05
1.25611e-05
1.38147e-05
1.49722e-05
1.61411e-05
1.73033e-05
1.80173e-05
1.85072e-05
1.85822e-05
1.85839e-05
1.86048e-05
1.85135e-05
1.82917e-05
1.79998e-05
1.76466e-05
1.7206e-05
1.67033e-05
1.6187e-05
1.56415e-05
1.50422e-05
1.44051e-05
1.37535e-05
1.31159e-05
1.24878e-05
1.1846e-05
1.11826e-05
1.05e-05
9.80694e-06
9.10782e-06
8.40046e-06
7.68524e-06
6.96622e-06
6.24389e-06
5.51775e-06
4.78859e-06
4.05617e-06
3.32012e-06
2.58009e-06
1.82569e-06
1.06989e-06
1.73001e-07
0.000449886
0.00044962
0.000448617
0.00044701
0.000444994
0.00044269
0.000440184
0.000437558
0.000434885
0.000432218
0.000429596
0.000427043
0.000424573
0.000422194
0.000419908
0.000417711
0.000415597
0.000413563
0.0004116
0.000409699
0.000407852
0.000406053
0.000404294
0.000402569
0.000400871
0.000399194
0.000397529
0.000395869
0.000394199
0.000392549
0.000390889
0.000389139
0.000387327
0.000385444
0.000383471
0.000381265
0.000378537
0.000375141
0.000371018
0.000366149
0.000360605
0.000354443
0.00034791
0.000341203
0.000334477
0.000327826
0.000321297
0.000314951
0.000308815
0.000302919
0.000297249
0.000291786
0.000286521
0.000281396
0.000276416
0.000271517
0.000266683
0.000261908
0.000257113
0.000252396
0.000247626
0.000242945
0.000238267
0.000233669
0.000229251
0.000225016
0.00022105
0.000217355
0.000213886
0.000210835
0.000208269
0.000206015
0.000204115
0.000202653
0.000201615
0.000200904
0.000200514
0.000200429
0.000200646
0.000201146
0.000201762
0.000202609
0.000203645
0.000204788
0.000206012
0.000207317
0.000208685
0.00021013
0.000211603
0.000213116
0.000214646
0.000216171
0.000217657
0.000219149
0.000220541
0.000221909
0.00022313
0.000224279
0.000225235
0.000226088
0.000226712
0.000227192
0.000227451
0.000227518
0.000227393
0.000227043
0.000226503
0.000225744
0.000224773
0.000223591
0.00022217
0.00022051
0.000218584
0.000216378
0.000213902
0.000211125
0.000208067
0.000204732
0.000201102
0.000197163
0.000192937
0.000188469
0.000183792
0.0001789
0.000173804
0.000168548
0.000163156
0.000157646
0.000152042
0.000146366
0.000140641
0.00013489
0.000129133
0.000123405
0.000117715
0.000112089
0.000106546
0.000101092
9.57424e-05
9.05048e-05
8.53632e-05
8.03345e-05
7.53773e-05
7.05e-05
6.56697e-05
6.08647e-05
5.60934e-05
5.12991e-05
4.65137e-05
4.17959e-05
3.71138e-05
3.25836e-05
2.82685e-05
2.42463e-05
2.05068e-05
1.73143e-05
1.4766e-05
1.27745e-05
1.18058e-05
1.13915e-05
1.19834e-05
1.26467e-05
1.33523e-05
1.41045e-05
1.48596e-05
1.53e-05
1.55835e-05
1.56182e-05
1.56229e-05
1.56493e-05
1.55506e-05
1.53283e-05
1.51577e-05
1.50061e-05
1.47223e-05
1.43595e-05
1.40115e-05
1.36447e-05
1.32231e-05
1.27689e-05
1.23031e-05
1.18345e-05
1.13584e-05
1.08683e-05
1.03506e-05
9.79912e-06
9.2294e-06
8.6491e-06
8.05361e-06
7.43954e-06
6.80673e-06
6.15757e-06
5.49073e-06
4.80566e-06
4.10194e-06
3.38216e-06
2.64826e-06
1.88998e-06
1.1124e-06
1.62037e-07
0.000450406
0.000450116
0.000449023
0.000447292
0.000445155
0.000442748
0.000440156
0.000437462
0.000434738
0.000432034
0.000429386
0.000426814
0.000424327
0.000421933
0.00041963
0.000417409
0.000415268
0.0004132
0.000411195
0.000409242
0.000407333
0.000405459
0.000403613
0.000401787
0.000399971
0.000398157
0.000396338
0.000394503
0.000392644
0.000390756
0.000388815
0.000386794
0.000384691
0.000382497
0.000380169
0.000377593
0.000374576
0.000370981
0.000366748
0.000361882
0.000356452
0.000350563
0.00034442
0.000338203
0.000332084
0.000326134
0.000320368
0.00031484
0.000309523
0.000304442
0.000299555
0.00029483
0.000290255
0.000285763
0.000281362
0.000276988
0.000272625
0.000268283
0.000263863
0.00025949
0.000255001
0.000250552
0.000246068
0.000241605
0.000237239
0.000232973
0.000228872
0.000224959
0.00022128
0.000217918
0.000214881
0.000212126
0.000209631
0.000207597
0.000205983
0.00020464
0.000203585
0.000202826
0.000202402
0.000202328
0.000202395
0.000202666
0.000203173
0.000203865
0.000204664
0.000205575
0.000206582
0.000207687
0.000208875
0.00021015
0.000211463
0.000212787
0.000214089
0.000215402
0.000216644
0.000217866
0.000218963
0.000219986
0.000220833
0.000221566
0.000222081
0.000222439
0.000222575
0.000222513
0.000222246
0.000221754
0.000221056
0.000220136
0.000219002
0.000217664
0.000216107
0.000214336
0.000212321
0.000210061
0.000207568
0.000204834
0.000201852
0.000198608
0.000195105
0.000191353
0.000187382
0.000183247
0.000178956
0.000174496
0.000169876
0.00016513
0.00016028
0.000155338
0.000150321
0.000145245
0.000140128
0.000134987
0.000129832
0.000124702
0.000119587
0.000114524
0.00010952
0.000104579
9.97069e-05
9.49156e-05
9.01725e-05
8.55054e-05
8.08549e-05
7.62423e-05
7.1621e-05
6.69729e-05
6.23036e-05
5.75608e-05
5.27519e-05
4.79532e-05
4.30833e-05
3.82984e-05
3.35286e-05
2.90108e-05
2.47053e-05
2.08269e-05
1.73899e-05
1.45324e-05
1.25972e-05
1.1589e-05
1.12265e-05
1.12239e-05
1.14334e-05
1.17672e-05
1.2085e-05
1.2204e-05
1.23072e-05
1.23841e-05
1.24131e-05
1.24373e-05
1.24456e-05
1.24065e-05
1.23768e-05
1.23449e-05
1.2201e-05
1.20053e-05
1.18688e-05
1.17029e-05
1.14597e-05
1.11835e-05
1.08937e-05
1.05889e-05
1.02645e-05
9.91657e-06
9.53908e-06
9.1282e-06
8.69118e-06
8.22945e-06
7.73945e-06
7.21837e-06
6.66331e-06
6.0816e-06
5.46973e-06
4.82653e-06
4.15361e-06
3.45313e-06
2.72734e-06
1.96985e-06
1.20643e-06
2.00261e-07
0.000451552
0.000451207
0.000449902
0.000447891
0.000445495
0.000442871
0.000440102
0.000437274
0.000434456
0.000431693
0.000429011
0.000426418
0.000423918
0.000421526
0.000419224
0.00041699
0.000414836
0.000412753
0.000410723
0.000408733
0.000406776
0.000404843
0.000402924
0.000401009
0.000399089
0.000397154
0.000395193
0.000393196
0.000391151
0.000389044
0.00038686
0.000384581
0.000382193
0.000379689
0.00037701
0.000374077
0.000370772
0.000366976
0.000362636
0.000357781
0.000352471
0.000346848
0.000341095
0.0003354
0.000329887