/*--------------------------------*- C++ -*----------------------------------*\
| =========                 |                                                 |
| \\      /  F ield         | OpenFOAM: The Open Source CFD Toolbox           |
|  \\    /   O peration     | Version:  2506                                  |
|   \\  /    A nd           | Website:  www.openfoam.com                      |
|    \\/     M anipulation  |                                                 |
\*---------------------------------------------------------------------------*/
FoamFile
{
    version     2.0;
    format      ascii;
    arch        "LSB;label=32;scalar=64";
    class       volScalarField;
    location    "4.6";
    object      p;
}
// * * * * * * * * * * * * * * * * * * * * * * * * * * * * * * * * * * * * * //

dimensions      [0 2 -2 0 0 0 0];

internalField   nonuniform List<scalar> 
4000
(
0.000555535
0.000497613
0.000466257
0.000452704
0.000444494
0.000438771
0.000434774
0.000431767
0.000429277
0.000427078
0.000425067
0.000423187
0.000421404
0.0004197
0.000418063
0.00041649
0.000414976
0.000413524
0.000412135
0.00041081
0.000409554
0.000408371
0.000407265
0.000406243
0.000405308
0.000404468
0.00040373
0.0004031
0.000402588
0.0004022
0.000401948
0.000401849
0.000401918
0.000402046
0.000402695
0.000403763
0.000404509
0.000404768
0.000404506
0.000403461
0.000401338
0.000396945
0.000390267
0.00038202
0.000372231
0.000361097
0.00034875
0.000335105
0.000320801
0.000305734
0.000290173
0.000274628
0.000258914
0.000243981
0.000229378
0.000216117
0.000204059
0.000193396
0.000184817
0.00017727
0.000172172
0.000168382
0.000166147
0.000165359
0.00016545
0.000166715
0.000168432
0.00017088
0.000173563
0.000176558
0.000179692
0.000182835
0.000186047
0.000189178
0.00019224
0.000195225
0.000198092
0.000200846
0.000203495
0.000206029
0.000208453
0.000210773
0.000212986
0.000215094
0.000217094
0.00021898
0.000220749
0.000222396
0.000223919
0.000225322
0.000226609
0.000227782
0.00022885
0.000229823
0.000230706
0.000231514
0.000232251
0.000232932
0.000233562
0.000234149
0.000234704
0.000235236
0.000235749
0.000236249
0.000236744
0.00023723
0.000237717
0.000238197
0.000238672
0.000239131
0.000239566
0.000239957
0.000240288
0.000240515
0.000240628
0.000240547
0.000240247
0.000239665
0.000238718
0.000237359
0.000235513
0.000233094
0.000230052
0.000226338
0.000221878
0.000216651
0.000210634
0.000203814
0.000196206
0.000187826
0.000178655
0.000168823
0.000158342
0.000147158
0.000135523
0.000123467
0.000110772
9.80867e-05
8.5005e-05
7.19798e-05
5.90384e-05
4.64147e-05
3.43356e-05
2.31684e-05
1.2776e-05
4.19221e-06
-3.50538e-06
-8.96311e-06
-1.30026e-05
-1.54761e-05
-1.62006e-05
-1.60004e-05
-1.42755e-05
-1.20209e-05
-8.84145e-06
-5.44866e-06
-1.62342e-06
2.18558e-06
6.03084e-06
9.72809e-06
1.38437e-05
1.7006e-05
1.98874e-05
2.25293e-05
2.49931e-05
2.71763e-05
2.91384e-05
3.04282e-05
3.11688e-05
3.15347e-05
3.15391e-05
3.12173e-05
3.06165e-05
2.9782e-05
2.87551e-05
2.75738e-05
2.62726e-05
2.48824e-05
2.34307e-05
2.19418e-05
2.04375e-05
1.89367e-05
1.74567e-05
1.60126e-05
1.46174e-05
1.32819e-05
1.20142e-05
1.08196e-05
9.70067e-06
8.65619e-06
7.68151e-06
6.76867e-06
5.90683e-06
5.08315e-06
4.28366e-06
3.49457e-06
2.70349e-06
1.89846e-06
1.06994e-06
2.80786e-07
0.000503869
0.00048074
0.000462833
0.000453046
0.000446179
0.000440615
0.000436325
0.000432997
0.000430252
0.00042786
0.000425704
0.000423718
0.000421856
0.000420093
0.000418412
0.000416806
0.000415268
0.000413798
0.000412396
0.000411062
0.000409801
0.000408615
0.000407509
0.000406488
0.000405557
0.000404724
0.000403993
0.000403374
0.000402875
0.000402503
0.000402269
0.000402187
0.000402274
0.00040239
0.000402911
0.000403748
0.000404151
0.000403972
0.00040313
0.000401303
0.000398188
0.000392839
0.00038548
0.000376752
0.000366638
0.000355319
0.000342934
0.000329452
0.000315459
0.00030087
0.000285941
0.000271137
0.000256307
0.000242299
0.000228765
0.000216431
0.00020517
0.000195131
0.000186922
0.00017967
0.000174548
0.000170649
0.00016815
0.000167017
0.000166739
0.000167598
0.000168948
0.000171037
0.000173422
0.000176147
0.000179069
0.000182036
0.000185108
0.000188137
0.000191119
0.000194048
0.000196877
0.000199605
0.000202238
0.000204764
0.000207186
0.00020951
0.000211734
0.000213861
0.000215889
0.000217815
0.000219638
0.000221357
0.000222959
0.000224448
0.000225826
0.000227087
0.000228242
0.000229299
0.000230257
0.000231137
0.000231936
0.000232673
0.000233353
0.000233993
0.000234587
0.000235153
0.000235693
0.000236213
0.000236724
0.000237217
0.000237706
0.000238178
0.000238634
0.00023906
0.000239445
0.000239764
0.000239997
0.000240094
0.000240041
0.000239753
0.000239199
0.000238315
0.000237017
0.000235258
0.000232966
0.000230063
0.000226507
0.000222257
0.000217254
0.000211493
0.000204963
0.000197664
0.000189626
0.000180877
0.000171413
0.000161374
0.000150786
0.000139604
0.000128064
0.000116174
0.000103821
9.15257e-05
7.89942e-05
6.66119e-05
5.44426e-05
4.26837e-05
3.1553e-05
2.13378e-05
1.20141e-05
4.22236e-06
-2.70266e-06
-7.70086e-06
-1.1416e-05
-1.37525e-05
-1.45003e-05
-1.44058e-05
-1.29038e-05
-1.08933e-05
-7.99046e-06
-4.85848e-06
-1.28052e-06
2.31427e-06
5.98982e-06
9.44242e-06
1.34857e-05
1.66383e-05
1.95459e-05
2.22154e-05
2.46878e-05
2.68258e-05
2.87123e-05
2.99176e-05
3.06245e-05
3.09915e-05
3.10089e-05
3.07068e-05
3.01341e-05
2.93353e-05
2.83495e-05
2.7213e-05
2.59582e-05
2.46147e-05
2.32082e-05
2.17618e-05
2.0296e-05
1.88291e-05
1.73777e-05
1.59564e-05
1.45785e-05
1.32552e-05
1.19954e-05
1.08053e-05
9.68832e-06
8.64484e-06
7.67093e-06
6.75976e-06
5.90142e-06
5.08354e-06
4.29236e-06
3.51388e-06
2.73494e-06
1.94213e-06
1.12073e-06
3.10271e-07
0.000479539
0.000471969
0.000461399
0.000453436
0.000447169
0.000442053
0.000437754
0.000434238
0.000431287
0.00042871
0.000426406
0.0004243
0.000422343
0.000420506
0.000418768
0.000417116
0.000415542
0.000414043
0.000412617
0.000411266
0.000409989
0.000408792
0.000407676
0.000406648
0.000405712
0.000404874
0.000404141
0.000403521
0.00040302
0.000402647
0.00040241
0.000402319
0.000402389
0.000402447
0.000402817
0.000403401
0.000403424
0.000402749
0.000401291
0.000398699
0.00039473
0.000388664
0.000380886
0.000371933
0.000361754
0.000350507
0.000338345
0.000325289
0.000311851
0.00029798
0.000283889
0.000269999
0.000256225
0.000243178
0.00023061
0.000219083
0.000208533
0.000199033
0.000191103
0.000184009
0.000178723
0.000174539
0.000171611
0.000169965
0.00016915
0.000169464
0.000170305
0.000171931
0.000173915
0.000176295
0.000178941
0.000181676
0.000184573
0.000187466
0.000190343
0.000193199
0.000195977
0.000198668
0.00020128
0.000203794
0.000206209
0.000208535
0.000210769
0.000212913
0.000214971
0.000216934
0.000218803
0.00022058
0.000222247
0.000223806
0.00022526
0.000226596
0.000227824
0.000228952
0.000229971
0.000230909
0.000231755
0.000232539
0.000233246
0.000233913
0.000234525
0.000235109
0.000235659
0.000236186
0.0002367
0.000237187
0.000237667
0.000238116
0.000238541
0.00023892
0.000239238
0.000239469
0.000239586
0.000239533
0.000239297
0.000238783
0.000237963
0.00023677
0.000235122
0.000232976
0.000230267
0.000226926
0.000222924
0.000218229
0.000212799
0.000206643
0.000199762
0.000192168
0.000183898
0.000174989
0.000165458
0.000155419
0.000144908
0.000133909
0.000122628
0.000111083
9.92228e-05
8.74688e-05
7.56136e-05
6.39753e-05
5.26386e-05
4.17567e-05
3.15208e-05
2.2137e-05
1.35729e-05
6.36024e-06
-3.88831e-08
-4.79235e-06
-8.39675e-06
-1.08116e-05
-1.17756e-05
-1.19828e-05
-1.08436e-05
-9.216e-06
-6.6708e-06
-3.88289e-06
-5.94622e-07
2.73865e-06
6.24104e-06
9.40606e-06
1.34567e-05
1.65022e-05
1.93376e-05
2.19751e-05
2.44232e-05
2.64791e-05
2.82844e-05
2.93883e-05
3.00495e-05
3.0418e-05
3.04469e-05
3.01605e-05
2.96123e-05
2.88465e-05
2.79001e-05
2.68071e-05
2.55983e-05
2.43014e-05
2.29406e-05
2.15373e-05
2.01108e-05
1.86787e-05
1.72567e-05
1.58595e-05
1.45003e-05
1.31903e-05
1.19398e-05
1.07564e-05
9.64456e-06
8.60521e-06
7.63637e-06
6.73188e-06
5.88232e-06
5.07554e-06
4.29747e-06
3.53317e-06
2.76776e-06
1.98533e-06
1.16559e-06
3.27959e-07
0.000468545
0.000465761
0.000459307
0.000452813
0.000447507
0.000442957
0.000438819
0.000435337
0.00043229
0.000429574
0.000427139
0.000424909
0.000422845
0.000420921
0.00041911
0.000417395
0.000415769
0.000414227
0.000412764
0.000411378
0.000410072
0.000408847
0.000407705
0.000406651
0.00040569
0.000404826
0.000404066
0.000403416
0.000402883
0.000402472
0.000402188
0.000402034
0.000402019
0.000401958
0.000402152
0.000402486
0.000402149
0.000401004
0.000398987
0.00039577
0.000391183
0.000384669
0.000376686
0.000367684
0.000357615
0.000346629
0.000334889
0.00032245
0.000309771
0.000296786
0.000283651
0.000270809
0.000258176
0.000246164
0.000234629
0.000223946
0.000214104
0.000205118
0.000197399
0.000190382
0.000184832
0.000180241
0.000176747
0.000174428
0.000172921
0.000172522
0.000172698
0.000173709
0.000175155
0.000177071
0.000179337
0.000181753
0.000184402
0.000187099
0.000189823
0.000192569
0.000195265
0.000197896
0.000200468
0.000202956
0.000205354
0.000207672
0.000209906
0.000212058
0.000214134
0.000216126
0.000218034
0.000219863
0.000221591
0.000223218
0.000224749
0.000226162
0.000227463
0.000228665
0.000229745
0.000230743
0.000231633
0.000232455
0.00023319
0.000233881
0.000234503
0.000235095
0.000235645
0.000236166
0.000236671
0.000237139
0.000237595
0.000238009
0.000238386
0.000238703
0.000238939
0.000239062
0.000239045
0.000238823
0.000238384
0.000237626
0.000236524
0.000235012
0.00023301
0.000230482
0.000227374
0.000223626
0.000219222
0.000214145
0.000208367
0.00020191
0.000194787
0.000187022
0.000178658
0.000169741
0.000160296
0.000150421
0.000140175
0.00012955
0.000118713
0.00010771
9.65214e-05
8.54779e-05
7.44457e-05
6.36699e-05
5.32423e-05
4.32691e-05
3.39056e-05
2.52893e-05
1.73977e-05
1.06316e-05
4.57946e-06
-1.36105e-07
-3.85816e-06
-6.57383e-06
-7.98561e-06
-8.70296e-06
-8.12597e-06
-7.04651e-06
-5.00078e-06
-2.66448e-06
2.55791e-07
3.27204e-06
6.5937e-06
9.48329e-06
1.35567e-05
1.64748e-05
1.91997e-05
2.17764e-05
2.41876e-05
2.61515e-05
2.78754e-05
2.88672e-05
2.94631e-05
2.98186e-05
2.98463e-05
2.95624e-05
2.90263e-05
2.82835e-05
2.73681e-05
2.63119e-05
2.5144e-05
2.38904e-05
2.25734e-05
2.12132e-05
1.98275e-05
1.84329e-05
1.70446e-05
1.56769e-05
1.43428e-05
1.30542e-05
1.18215e-05
1.06532e-05
9.55475e-06
8.52813e-06
7.57193e-06
6.68067e-06
5.84527e-06
5.05348e-06
4.2907e-06
3.5408e-06
2.78703e-06
2.01088e-06
1.19012e-06
3.34363e-07
0.000461815
0.000460488
0.000456513
0.000451819
0.00044749
0.000443419
0.000439665
0.000436328
0.000433232
0.000430451
0.000427935
0.00042558
0.000423398
0.000421375
0.000419474
0.000417678
0.000415981
0.000414376
0.000412856
0.000411418
0.000410063
0.00040879
0.000407601
0.000406498
0.000405487
0.00040457
0.000403753
0.00040304
0.000402436
0.000401944
0.000401564
0.000401292
0.000401131
0.0004009
0.000400875
0.00040092
0.000400216
0.000398623
0.000396101
0.000392371
0.000387326
0.00038054
0.000372493
0.000363573
0.000353755
0.000343186
0.000332029
0.000320372
0.00030852
0.000296505
0.000284538
0.000272851
0.000261411
0.000250508
0.000240065
0.000230294
0.000221215
0.000212807
0.000205361
0.000198484
0.000192725
0.000187757
0.000183691
0.000180646
0.000178368
0.000177124
0.00017649
0.000176714
0.000177456
0.000178739
0.000180468
0.000182428
0.000184707
0.000187105
0.000189592
0.000192159
0.000194718
0.000197249
0.000199749
0.000202189
0.000204554
0.000206853
0.000209079
0.000211232
0.000213321
0.000215336
0.000217278
0.000219158
0.000220944
0.000222641
0.00022425
0.000225744
0.000227124
0.000228405
0.000229551
0.000230611
0.000231546
0.000232408
0.000233164
0.000233872
0.000234494
0.000235083
0.000235618
0.000236116
0.000236593
0.00023702
0.000237431
0.000237784
0.000238088
0.000238313
0.000238433
0.000238416
0.000238227
0.000237798
0.000237117
0.000236079
0.000234661
0.000232803
0.00023043
0.000227516
0.000224017
0.000219888
0.000215127
0.00020973
0.000203687
0.000197028
0.000189779
0.000181972
0.000173658
0.000164884
0.000155682
0.000146136
0.000136343
0.000126257
0.000116014
0.000105711
9.53366e-05
8.51287e-05
7.5017e-05
6.51783e-05
5.56989e-05
4.66451e-05
3.8133e-05
3.02428e-05
2.29776e-05
1.65936e-05
1.08086e-05
6.04864e-06
2.1094e-06
-1.00575e-06
-2.99937e-06
-4.36071e-06
-4.51932e-06
-4.14907e-06
-2.78487e-06
-1.05483e-06
1.35263e-06
3.9414e-06
7.01627e-06
9.61235e-06
1.36626e-05
1.64439e-05
1.90245e-05
2.15081e-05
2.3859e-05
2.57067e-05
2.73201e-05
2.81754e-05
2.86841e-05
2.90115e-05
2.90287e-05
2.87409e-05
2.82139e-05
2.74943e-05
2.66133e-05
2.55994e-05
2.448e-05
2.32792e-05
2.20175e-05
2.0713e-05
1.93822e-05
1.80405e-05
1.67024e-05
1.53812e-05
1.40894e-05
1.28388e-05
1.16397e-05
1.05007e-05
9.42797e-06
8.42416e-06
7.48832e-06
6.61552e-06
5.79705e-06
5.02082e-06
4.27205e-06
3.53403e-06
2.78907e-06
2.0173e-06
1.19801e-06
3.32417e-07
0.000457323
0.000456567
0.000454002
0.000450596
0.000447102
0.000443643
0.000440285
0.000437076
0.000434014
0.000431257
0.000428713
0.000426241
0.000423955
0.000421842
0.000419841
0.000417952
0.000416174
0.000414493
0.0004129
0.000411392
0.000409969
0.000408628
0.000407369
0.000406194
0.000405107
0.000404108
0.000403201
0.00040239
0.000401675
0.000401058
0.000400534
0.000400094
0.000399735
0.000399293
0.000399002
0.000398712
0.000397636
0.000395629
0.000392667
0.000388527
0.000383158
0.000376242
0.000368256
0.000359532
0.000350082
0.000340048
0.000329583
0.00031878
0.000307832
0.000296873
0.000286141
0.000275629
0.000265385
0.00025561
0.000246256
0.000237433
0.000229152
0.000221381
0.000214303
0.000207672
0.000201846
0.000196633
0.000192102
0.000188413
0.000185415
0.000183315
0.000181822
0.00018116
0.000181072
0.000181577
0.00018261
0.000183962
0.000185718
0.000187683
0.000189813
0.000192096
0.000194432
0.000196792
0.000199164
0.000201512
0.000203811
0.000206068
0.000208269
0.000210411
0.000212503
0.000214533
0.000216501
0.000218424
0.000220264
0.000222025
0.000223711
0.000225286
0.000226746
0.00022811
0.000229326
0.000230453
0.000231433
0.000232334
0.000233106
0.000233823
0.000234433
0.000235003
0.000235504
0.000235957
0.000236381
0.00023674
0.000237074
0.000237332
0.000237524
0.000237616
0.000237578
0.000237374
0.000236967
0.000236286
0.000235321
0.000233965
0.000232204
0.000229982
0.000227234
0.000223946
0.000220089
0.000215629
0.000210581
0.000204954
0.00019875
0.00019201
0.000184769
0.000177064
0.000168946
0.000160464
0.000151653
0.000142585
0.000133398
0.000123934
0.000114433
0.000104937
9.54448e-05
8.61306e-05
7.69682e-05
6.80762e-05
5.95269e-05
5.13576e-05
4.36504e-05
3.64598e-05
2.97289e-05
2.36879e-05
1.8135e-05
1.33169e-05
9.14424e-06
5.62524e-06
3.0187e-06
9.72464e-07
-9.21774e-09
-4.44773e-07
9.22323e-08
1.07371e-06
2.81066e-06
4.83771e-06
7.5507e-06
9.80412e-06
1.37125e-05
1.63318e-05
1.87324e-05
2.10795e-05
2.33306e-05
2.50285e-05
2.64893e-05
2.71866e-05
2.7592e-05
2.78772e-05
2.78772e-05
2.75849e-05
2.7071e-05
2.63827e-05
2.5547e-05
2.45889e-05
2.35338e-05
2.24037e-05
2.12167e-05
1.99889e-05
1.8735e-05
1.74694e-05
1.62053e-05
1.49547e-05
1.37289e-05
1.25385e-05
1.13933e-05
1.03016e-05
9.26964e-06
8.30027e-06
7.39291e-06
6.54316e-06
5.74299e-06
4.98104e-06
4.2431e-06
3.51297e-06
2.77351e-06
2.00513e-06
1.19135e-06
3.19523e-07
0.000454308
0.00045382
0.000452039
0.000449462
0.000446594
0.000443609
0.000440579
0.000437579
0.000434671
0.00043192
0.000429303
0.00042679
0.000424462
0.000422281
0.000420174
0.000418189
0.000416327
0.000414563
0.000412888
0.000411298
0.000409795
0.000408369
0.000407022
0.000405755
0.000404567
0.000403459
0.000402433
0.000401489
0.000400627
0.000399845
0.000399135
0.000398483
0.000397882
0.000397194
0.0003966
0.000395939
0.000394499
0.000392125
0.000388798
0.000384353
0.000378779
0.000371858
0.000364037
0.000355605
0.000346609
0.000337188
0.000327476
0.000317556
0.000307627
0.000297777
0.000288159
0.000278796
0.000269721
0.000261044
0.000252738
0.000244843
0.000237355
0.000230246
0.000223608
0.000217306
0.000211572
0.000206279
0.000201423
0.00019725
0.000193685
0.00019083
0.000188537
0.000186998
0.000186048
0.0001857
0.00018593
0.000186553
0.000187645
0.000189037
0.000190676
0.000192546
0.000194543
0.000196631
0.000198788
0.000200972
0.000203148
0.000205317
0.000207457
0.00020956
0.000211634
0.000213661
0.00021564
0.000217592
0.000219472
0.000221287
0.000223039
0.000224688
0.000226224
0.00022767
0.000228954
0.000230147
0.000231174
0.000232111
0.000232894
0.000233613
0.000234198
0.000234732
0.000235178
0.000235562
0.000235902
0.00023616
0.000236378
0.000236501
0.000236536
0.00023645
0.000236205
0.000235768
0.000235097
0.000234124
0.00023284
0.000231144
0.000229027
0.000226445
0.000223344
0.000219723
0.000215566
0.000210854
0.000205616
0.00019987
0.000193632
0.000186946
0.000179852
0.000172389
0.000164606
0.000156551
0.00014826
0.000139805
0.000131219
0.000122505
0.000113838
0.000105189
9.65901e-05
8.81714e-05
7.99323e-05
7.19455e-05
6.42649e-05
5.69092e-05
4.99266e-05
4.33359e-05
3.71077e-05
3.13881e-05
2.60516e-05
2.11843e-05
1.67985e-05
1.29223e-05
9.7385e-06
7.03471e-06
5.22838e-06
3.96756e-06
3.60001e-06
3.73916e-06
4.67952e-06
6.02265e-06
8.23418e-06
1.0079e-05
1.36702e-05
1.60793e-05
1.82602e-05
2.04174e-05
2.25126e-05
2.40235e-05
2.52889e-05
2.58188e-05
2.61147e-05
2.63452e-05
2.6323e-05
2.60303e-05
2.55393e-05
2.48963e-05
2.41228e-05
2.32394e-05
2.22696e-05
2.12335e-05
2.0146e-05
1.90203e-05
1.78697e-05
1.67074e-05
1.5545e-05
1.43927e-05
1.32594e-05
1.2154e-05
1.10849e-05
1.00598e-05
9.08434e-06
8.16152e-06
7.29081e-06
6.46842e-06
5.68742e-06
4.93784e-06
4.20697e-06
3.48034e-06
2.74304e-06
1.97713e-06
1.17294e-06
2.93342e-07
0.000452304
0.000451945
0.000450598
0.000448539
0.000446109
0.000443466
0.000440694
0.000437879
0.000435087
0.000432371
0.000429751
0.000427236
0.000424849
0.000422582
0.000420416
0.000418362
0.000416419
0.000414572
0.000412814
0.000411139
0.000409543
0.000408024
0.000406577
0.000405202
0.000403896
0.000402659
0.000401489
0.000400386
0.000399347
0.000398367
0.000397438
0.00039654
0.000395664
0.000394701
0.000393777
0.000392726
0.000390936
0.000388245
0.00038463
0.000379974
0.0003743
0.000367475
0.000359902
0.000351834
0.000343353
0.000334593
0.000325669
0.000316661
0.000307735
0.000298958
0.00029042
0.000282155
0.000274178
0.00026653
0.000259198
0.000252173
0.000245446
0.000238989
0.000232829
0.000226891
0.000221388
0.000216172
0.000211116
0.00020663
0.000202688
0.000199245
0.000196283
0.000193969
0.000192209
0.000191023
0.000190423
0.000190257
0.000190593
0.000191301
0.000192331
0.000193659
0.000195192
0.00019689
0.000198722
0.000200641
0.000202608
0.000204615
0.000206634
0.000208647
0.000210658
0.000212647
0.000214607
0.000216561
0.000218457
0.000220303
0.000222101
0.000223807
0.000225403
0.000226918
0.000228262
0.000229516
0.000230583
0.000231552
0.00023234
0.000233052
0.0002336
0.000234083
0.000234453
0.000234741
0.000234968
0.000235089
0.000235153
0.000235099
0.000234934
0.000234626
0.000234132
0.000233423
0.000232454
0.000231163
0.000229544
0.000227506
0.000225048
0.000222139
0.000218738
0.000214854
0.000210485
0.000205628
0.000200319
0.000194585
0.000188448
0.000181954
0.000175141
0.000168048
0.000160719
0.000153195
0.000145513
0.000137731
0.000129802
0.000121914
0.000114063
0.000106247
9.85138e-05
9.09523e-05
8.35725e-05
7.64152e-05
6.9516e-05
6.28835e-05
5.65372e-05
5.04783e-05
4.46778e-05
3.92536e-05
3.41327e-05
2.92288e-05
2.46666e-05
2.05009e-05
1.68038e-05
1.35061e-05
1.09382e-05
8.89712e-06
7.61016e-06
6.86615e-06
6.93399e-06
7.50381e-06
9.07586e-06
1.04351e-05
1.35158e-05
1.56421e-05
1.7554e-05
1.946e-05
2.13294e-05
2.26161e-05
2.36497e-05
2.40179e-05
2.42094e-05
2.43776e-05
2.43334e-05
2.40506e-05
2.35983e-05
2.30203e-05
2.23307e-05
2.15451e-05
2.06858e-05
1.97707e-05
1.88102e-05
1.78144e-05
1.67952e-05
1.57648e-05
1.47334e-05
1.37073e-05
1.26926e-05
1.16958e-05
1.07237e-05
9.78278e-06
8.87846e-06
8.01318e-06
7.1864e-06
6.3951e-06
5.63391e-06
4.89485e-06
4.16747e-06
3.44034e-06
2.70238e-06
1.9383e-06
1.14726e-06
2.55411e-07
0.000451056
0.00045076
0.000449647
0.00044789
0.000445733
0.000443314
0.000440718
0.00043803
0.000435319
0.000432641
0.000430031
0.000427505
0.000425081
0.000422762
0.000420547
0.000418434
0.000416421
0.0004145
0.000412664
0.000410907
0.000409219
0.000407603
0.000406052
0.000404561
0.000403126
0.000401746
0.000400418
0.000399137
0.0003979
0.000396703
0.00039553
0.000394362
0.000393188
0.000391929
0.000390658
0.000389212
0.000387089
0.000384128
0.000380293
0.000375506
0.000369816
0.000363162
0.000355898
0.000348247
0.000340324
0.000332254
0.000324131
0.000316032
0.000308078
0.000300321
0.000292812
0.000285569
0.000278597
0.000271889
0.000265439
0.000259209
0.000253186
0.000247346
0.00024167
0.000236164
0.000230883
0.000225818
0.000220781
0.0002161
0.000211894
0.000208045
0.000204601
0.000201684
0.000199231
0.000197291
0.000195913
0.000194973
0.000194523
0.000194493
0.000194837
0.000195525
0.000196483
0.000197678
0.000199073
0.000200609
0.000202256
0.000204004
0.000205814
0.000207659
0.000209538
0.000211427
0.000213316
0.000215223
0.000217091
0.000218931
0.000220737
0.000222467
0.000224093
0.000225651
0.000227034
0.000228329
0.000229424
0.000230413
0.000231197
0.00023189
0.000232391
0.000232807
0.000233083
0.000233256
0.000233342
0.0002333
0.000233177
0.000232914
0.000232515
0.000231954
0.000231183
0.00023018
0.0002289
0.000227291
0.00022535
0.000223001
0.000220251
0.000217083
0.000213467
0.00020942
0.000204952
0.000200077
0.000194833
0.000189248
0.000183348
0.000177173
0.00017076
0.000164142
0.000157354
0.00015043
0.0001434
0.000136297
0.000129141
0.000122018
0.000114939
0.000107916
0.000100991
9.4216e-05
8.76066e-05
8.11843e-05
7.49673e-05
6.89612e-05
6.31623e-05
5.75679e-05
5.21623e-05
4.69763e-05
4.19746e-05
3.70818e-05
3.24493e-05
2.80547e-05
2.39055e-05
2.00846e-05
1.68676e-05
1.4131e-05
1.1951e-05
1.03233e-05
9.48942e-06
9.23057e-06
1.00527e-05
1.0835e-05
1.32364e-05
1.49899e-05
1.6575e-05
1.81603e-05
1.9729e-05
2.07597e-05
2.15404e-05
2.17662e-05
2.18678e-05
2.19724e-05
2.19134e-05
2.16616e-05
2.12746e-05
2.07865e-05
2.02036e-05
1.95403e-05
1.88205e-05
1.80558e-05
1.72485e-05
1.64074e-05
1.55441e-05
1.46722e-05
1.38002e-05
1.29269e-05
1.20538e-05
1.11849e-05
1.03257e-05
9.48242e-06
8.66024e-06
7.86066e-06
7.08296e-06
6.32526e-06
5.58443e-06
4.85503e-06
4.12836e-06
3.39731e-06
2.65671e-06
1.89439e-06
1.11915e-06
2.11926e-07
0.000450433
0.000450166
0.000449157
0.000447542
0.000445519
0.000443211
0.000440703
0.000438079
0.00043541
0.000432752
0.000430142
0.000427605
0.000425155
0.000422802
0.000420547
0.000418386
0.000416316
0.000414333
0.000412429
0.000410596
0.000408826
0.000407116
0.00040546
0.000403852
0.000402287
0.000400759
0.000399264
0.000397797
0.00039635
0.000394927
0.000393505
0.000392048
0.00039056
0.000388992
0.000387368
0.000385533
0.000383096
0.000379901
0.000375898
0.000371043
0.000365399
0.00035897
0.000352055
0.000344859
0.000337521
0.000330154
0.00032283
0.000315619
0.000308595
0.000301799
0.000295248
0.000288939
0.00028287
0.000277002
0.000271336
0.000265814
0.000260424
0.000255145
0.000249929
0.000244829
0.00023978
0.000234887
0.000230033
0.00022538
0.000220997
0.00021684
0.000213076
0.000209734
0.000206725
0.000204154
0.000202114
0.000200469
0.000199265
0.000198501
0.000198141
0.000198139
0.000198445
0.000199044
0.000199918
0.000200961
0.000202168
0.000203546
0.000205045
0.000206623
0.000208271
0.000209971
0.000211707
0.000213491
0.000215266
0.000217039
0.000218794
0.000220494
0.000222102
0.000223655
0.000225041
0.000226342
0.000227439
0.000228424
0.00022919
0.000229849
0.000230293
0.00023063
0.000230801
0.000230846
0.000230777
0.000230558
0.00023023
0.000229745
0.000229101
0.000228278
0.00022723
0.000225939
0.000224364
0.000222467
0.000220248
0.000217653
0.000214699
0.000211376
0.00020766
0.000203571
0.000199133
0.000194381
0.000189344
0.000184038
0.000178495
0.000172749
0.000166827
0.000160756
0.000154561
0.00014827
0.000141905
0.000135496
0.00012907
0.00012267
0.000116311
0.000110017
0.000103817
9.77393e-05
9.18003e-05
8.60124e-05
8.03764e-05
7.4901e-05
6.95623e-05
6.43607e-05
5.9274e-05
5.42915e-05
4.94096e-05
4.45723e-05
3.98591e-05
3.52981e-05
3.08429e-05
2.65758e-05
2.27579e-05
1.93659e-05
1.63803e-05
1.39314e-05
1.22178e-05
1.10999e-05
1.10789e-05
1.12318e-05
1.28063e-05
1.40877e-05
1.52804e-05
1.64867e-05
1.76899e-05
1.8449e-05
1.89819e-05
1.90979e-05
1.91347e-05
1.91842e-05
1.9114e-05
1.89098e-05
1.86317e-05
1.82758e-05
1.78208e-05
1.73e-05
1.67544e-05
1.61765e-05
1.55457e-05
1.48755e-05
1.41782e-05
1.34768e-05
1.27845e-05
1.20854e-05
1.13733e-05
1.06468e-05
9.90917e-06
9.17075e-06
8.43705e-06
7.70758e-06
6.981e-06
6.25704e-06
5.53612e-06
4.81713e-06
4.0915e-06
3.35548e-06
2.61172e-06
1.85158e-06
1.09176e-06
1.71447e-07
0.000450382
0.000450116
0.000449113
0.000447506
0.00044549
0.000443186
0.00044068
0.000438054
0.000435381
0.000432715
0.000430093
0.00042754
0.000425071
0.000422693
0.000420408
0.000418211
0.000416099
0.000414067
0.000412107
0.000410209
0.000408365
0.00040657
0.000404816
0.000403096
0.000401403
0.000399731
0.000398071
0.000396416
0.00039475
0.000393106
0.000391446
0.000389694
0.000387881
0.000385998
0.000384021
0.000381807
0.000379072
0.000375667
0.000371535
0.000366657
0.000361103
0.000354931
0.000348389
0.000341671
0.000334934
0.000328272
0.000321733
0.000315379
0.000309234
0.00030333
0.000297653
0.000292183
0.000286912
0.000281782
0.000276797
0.000271894
0.000267056
0.000262277
0.00025748
0.000252761
0.000247991
0.000243309
0.000238633
0.000234038
0.000229623
0.000225393
0.000221434
0.000217744
0.000214285
0.000211244
0.000208687
0.000206445
0.000204558
0.000203112
0.00020209
0.000201399
0.000201023
0.000200961
0.000201207
0.000201741
0.000202401
0.000203293
0.00020438
0.000205594
0.000206903
0.000208305
0.000209782
0.00021134
0.000212929
0.000214551
0.000216176
0.00021777
0.00021929
0.000220769
0.000222101
0.000223355
0.000224414
0.000225359
0.000226084
0.000226686
0.000227063
0.000227313
0.000227377
0.000227294
0.00022707
0.000226679
0.000226152
0.000225453
0.000224577
0.000223516
0.000222228
0.000220696
0.000218879
0.000216756
0.000214331
0.00021158
0.000208526
0.000205173
0.000201502
0.000197514
0.000193249
0.000188765
0.000184063
0.000179142
0.000174049
0.000168807
0.000163431
0.00015794
0.000152355
0.000146694
0.000140978
0.000135229
0.000129468
0.00012373
0.000118022
0.000112373
0.000106804
0.000101327
9.59572e-05
9.07044e-05
8.55528e-05
8.05184e-05
7.55589e-05
7.0682e-05
6.58543e-05
6.10534e-05
5.6288e-05
5.15004e-05
4.67206e-05
4.20067e-05
3.73285e-05
3.28014e-05
2.84864e-05
2.44603e-05
2.07219e-05
1.75309e-05
1.49798e-05
1.29912e-05
1.20268e-05
1.16335e-05
1.22416e-05
1.293e-05
1.36619e-05
1.44409e-05
1.52298e-05
1.57098e-05
1.60321e-05
1.60964e-05
1.61237e-05
1.61696e-05
1.60748e-05
1.5871e-05
1.57383e-05
1.55886e-05
1.52908e-05
1.49236e-05
1.45642e-05
1.41881e-05
1.37587e-05
1.3291e-05
1.28015e-05
1.22987e-05
1.17845e-05
1.12517e-05
1.07004e-05
1.01179e-05
9.49802e-06
8.86149e-06
8.21543e-06
7.5561e-06
6.88089e-06
6.19052e-06
5.48634e-06
4.76755e-06
4.03933e-06
3.30712e-06
2.56811e-06
1.8156e-06
1.06721e-06
1.39515e-07
0.000450902
0.000450613
0.00044952
0.000447788
0.000445652
0.000443244
0.000440652
0.000437958
0.000435235
0.000432532
0.000429884
0.000427312
0.000424825
0.000422432
0.00042013
0.000417911
0.000415771
0.000413705
0.000411703
0.000409753
0.000407847
0.000405978
0.000404137
0.000402315
0.000400505
0.000398697
0.000396882
0.000395053
0.000393198
0.000391314
0.000389375
0.000387354
0.000385251
0.000383054
0.000380723
0.000378142
0.000375117
0.000371515
0.000367273
0.000362397
0.000356958
0.000351059
0.000344909
0.000338679
0.000332546
0.000326585
0.000320811
0.000315273
0.000309948
0.000304859
0.000299965
0.000295234
0.000290652
0.000286155
0.000281749
0.000277371
0.000273006
0.000268659
0.000264236
0.000259862
0.000255371
0.000250922
0.000246439
0.000241979
0.000237615
0.000233353
0.000229258
0.000225351
0.00022168
0.000218326
0.000215299
0.000212555
0.000210075
0.000208056
0.000206455
0.00020513
0.000204093
0.000203356
0.000202952
0.000202924
0.000203027
0.000203331
0.000203893
0.000204648
0.000205519
0.000206519
0.000207627
0.000208833
0.000210121
0.000211495
0.000212899
0.000214293
0.000215631
0.000216946
0.00021815
0.000219287
0.000220254
0.00022111
0.000221765
0.000222281
0.00022258
0.000222738
0.000222701
0.000222504
0.000222146
0.00022161
0.000220915
0.000220033
0.000218961
0.000217703
0.00021623
0.000214537
0.000212583
0.000210364
0.000207889
0.000205155
0.000202151
0.000198861
0.000195309
0.000191539
0.000187582
0.000183468
0.00017919
0.000174738
0.000170147
0.000165437
0.000160619
0.000155705
0.000150708
0.000145642
0.000140525
0.000135376
0.000130204
0.000125052
0.000119909
0.000114815
0.000109779
0.000104808
9.991e-05
9.50995e-05
9.03436e-05
8.56697e-05
8.10174e-05
7.64068e-05
7.17906e-05
6.71498e-05
6.24895e-05
5.77566e-05
5.29572e-05
4.81667e-05
4.33043e-05
3.85255e-05
3.37593e-05
2.92418e-05
2.49382e-05
2.10613e-05
1.76214e-05
1.47698e-05
1.28454e-05
1.18378e-05
1.14938e-05
1.15205e-05
1.17456e-05
1.20883e-05
1.24255e-05
1.25782e-05
1.2733e-05
1.28318e-05
1.28574e-05
1.28938e-05
1.29121e-05
1.28892e-05
1.28813e-05
1.28592e-05
1.27296e-05
1.25434e-05
1.24053e-05
1.22542e-05
1.20297e-05
1.1763e-05
1.14738e-05
1.11616e-05
1.08223e-05
1.04508e-05
1.00444e-05
9.59986e-06
9.10473e-06
8.57351e-06
8.01159e-06
7.41584e-06
6.7861e-06
6.12573e-06
5.43897e-06
4.7301e-06
4.00593e-06
3.27268e-06
2.53493e-06
1.79197e-06
1.07522e-06
1.47725e-07
0.000452049
0.000451703
0.000450399
0.000448388
0.000445992
0.000443368
0.000440599
0.000437771
0.000434954
0.000432191
0.000429509
0.000426916
0.000424417
0.000422026
0.000419725
0.000417493
0.00041534
0.000413259
0.000411231
0.000409245
0.000407292
0.000405363
0.000403449
0.000401539
0.000399625
0.000397696
0.000395741
0.000393749
0.000391709
0.000389606
0.000387424
0.000385149
0.000382758
0.000380249
0.000377569
0.000374632
0.00037132
0.000367516
0.000363168
0.000358302
0.000352982
0.000347345