/*--------------------------------*- C++ -*----------------------------------*\
| =========                 |                                                 |
| \\      /  F ield         | OpenFOAM: The Open Source CFD Toolbox           |
|  \\    /   O peration     | Version:  2506                                  |
|   \\  /    A nd           | Website:  www.openfoam.com                      |
|    \\/     M anipulation  |                                                 |
\*---------------------------------------------------------------------------*/
FoamFile
{
    version     2.0;
    format      ascii;
    arch        "LSB;label=32;scalar=64";
    class       volVectorField;
    location    "4.6";
    object      U;
}
// * * * * * * * * * * * * * * * * * * * * * * * * * * * * * * * * * * * * * //

dimensions      [0 1 -1 0 0 0 0];

internalField   nonuniform List<vector> 
4000
(
(0.00816188 0.000799223 0)
(0.00705276 0.000969041 -4.50432e-22)
(0.00555845 0.000585192 4.67291e-22)
(0.00426864 0.000296914 8.94009e-22)
(0.00346987 0.000157853 -1.80752e-21)
(0.00297482 8.77499e-05 9.07863e-22)
(0.00263943 5.08253e-05 0)
(0.00240384 3.15992e-05 0)
(0.00223445 2.13784e-05 0)
(0.00210816 1.57015e-05 1.78881e-21)
(0.00201038 1.23365e-05 -1.79282e-21)
(0.00193225 1.02482e-05 3.56011e-21)
(0.00186802 8.93081e-06 -3.56516e-21)
(0.00181377 8.08358e-06 0)
(0.00176674 7.54331e-06 0)
(0.00172494 7.2214e-06 0)
(0.00168685 7.055e-06 3.5106e-21)
(0.00165132 7.00128e-06 -3.51309e-21)
(0.00161743 7.03525e-06 0)
(0.00158443 7.14113e-06 0)
(0.00155166 7.30755e-06 0)
(0.00151855 7.52816e-06 0)
(0.00148456 7.80019e-06 0)
(0.00144919 8.12254e-06 6.90878e-21)
(0.00141191 8.49575e-06 -1.38119e-20)
(0.0013722 8.92253e-06 6.90338e-21)
(0.00132951 9.40885e-06 0)
(0.00128325 9.96709e-06 0)
(0.00123274 1.0623e-05 0)
(0.00117714 1.14397e-05 0)
(0.00111527 1.26019e-05 -6.88463e-21)
(0.00104565 1.45391e-05 6.89342e-21)
(0.000967464 1.69854e-05 0)
(0.000853642 2.4898e-05 6.05969e-21)
(0.000724734 5.25381e-05 6.97329e-21)
(0.000661962 0.000105833 -3.49634e-20)
(0.000675643 0.000179191 -2.82137e-20)
(0.000725064 0.000265222 7.10518e-21)
(0.000798053 0.000366442 -2.85649e-20)
(0.000899755 0.000490324 -6.44011e-20)
(0.00107096 0.000646432 7.17885e-21)
(0.00132215 0.000823557 5.66772e-20)
(0.0015903 0.000986365 -5.57495e-20)
(0.00184297 0.00112388 0)
(0.00208408 0.00123902 0)
(0.00231121 0.0013324 -3.18021e-21)
(0.00253609 0.00140612 -4.64698e-20)
(0.00274865 0.00145269 -4.52574e-20)
(0.00294327 0.00147267 -2.62677e-20)
(0.00313088 0.00146585 -2.20831e-20)
(0.00329523 0.0014272 2.08576e-20)
(0.00344234 0.00135941 0)
(0.0035576 0.00125622 -2.28833e-21)
(0.00364074 0.00112363 3.78558e-20)
(0.00368256 0.000957508 0)
(0.00367049 0.000769668 -7.93586e-21)
(0.00361416 0.000567443 -1.84802e-21)
(0.00349058 0.0003584 -6.41907e-24)
(0.00333299 0.000158228 -8.43343e-23)
(0.00311476 -3.35628e-05 -8.79586e-22)
(0.00285865 -0.000195982 1.5751e-21)
(0.0025915 -0.000328215 0)
(0.00230799 -0.000427087 0)
(0.00203627 -0.000493451 3.07938e-21)
(0.001772 -0.000530686 2.15961e-20)
(0.00153183 -0.000543689 3.11416e-21)
(0.00131386 -0.000537294 -3.12679e-21)
(0.00112023 -0.00051718 3.18635e-21)
(0.000952877 -0.00048751 9.62871e-21)
(0.000805346 -0.000451735 -2.26951e-20)
(0.000680866 -0.000413332 -3.2641e-21)
(0.000571692 -0.000373165 -5.82794e-23)
(0.000477281 -0.000333186 0)
(0.000397589 -0.000294421 0)
(0.000327142 -0.000257032 0)
(0.000266351 -0.000221714 -1.7693e-21)
(0.000214111 -0.000188796 -2.66463e-20)
(0.000167923 -0.000158173 0)
(0.000127572 -0.000130081 -8.93212e-23)
(9.287e-05 -0.000104732 1.83603e-21)
(6.2794e-05 -8.21328e-05 -2.94051e-20)
(3.70805e-05 -6.23398e-05 2.67627e-20)
(1.56382e-05 -4.53738e-05 -9.44276e-24)
(-1.90133e-06 -3.11677e-05 3.03975e-20)
(-1.57059e-05 -1.96372e-05 3.14741e-22)
(-2.60305e-05 -1.06085e-05 -2.98823e-20)
(-3.35799e-05 -3.85449e-06 -3.04042e-20)
(-3.88121e-05 9.59881e-07 3.08225e-20)
(-4.19983e-05 4.32333e-06 -4.69918e-22)
(-4.39376e-05 6.61459e-06 -3.01464e-20)
(-4.49372e-05 8.05617e-06 0)
(-4.50631e-05 8.92738e-06 -3.0928e-20)
(-4.5003e-05 9.37228e-06 -2.89468e-20)
(-4.47712e-05 9.43688e-06 2.97165e-20)
(-4.42389e-05 9.27636e-06 -1.66368e-20)
(-4.38804e-05 8.74028e-06 1.8355e-21)
(-4.30833e-05 8.04564e-06 1.46247e-20)
(-4.22785e-05 6.97689e-06 1.82092e-21)
(-4.08169e-05 5.74714e-06 1.26663e-20)
(-3.89317e-05 4.07538e-06 9.00668e-21)
(-3.60581e-05 2.54306e-06 -3.59236e-21)
(-3.22193e-05 1.05162e-06 8.9607e-21)
(-2.67699e-05 3.69025e-08 -8.95442e-22)
(-1.9635e-05 -2.81458e-07 -8.96958e-22)
(-1.00976e-05 2.90548e-07 -3.60561e-21)
(2.0322e-06 2.39023e-06 0)
(1.73895e-05 6.18484e-06 0)
(3.65408e-05 1.24621e-05 -2.8956e-20)
(5.98678e-05 2.16093e-05 -9.27338e-22)
(8.81573e-05 3.43602e-05 1.54415e-20)
(0.000121983 5.1271e-05 1.5112e-20)
(0.000161722 7.30364e-05 4.77053e-22)
(0.000208515 0.000100163 -1.58744e-20)
(0.000261727 0.00013326 -1.35534e-23)
(0.000322774 0.000172689 0)
(0.000392169 0.000218917 3.14434e-20)
(0.00046817 0.000271565 -9.85908e-22)
(0.000552542 0.000331023 -2.96117e-20)
(0.000644319 0.000396675 -9.92623e-22)
(0.000741795 0.000467715 -3.16576e-20)
(0.000845941 0.000543837 -1.70322e-22)
(0.000955669 0.00062371 3.13187e-20)
(0.00106833 0.000705715 1.92236e-21)
(0.00118413 0.000789012 -3.44223e-20)
(0.00130253 0.000872101 1.89889e-21)
(0.00142142 0.00095314 2.94526e-20)
(0.00154054 0.00103086 3.53071e-21)
(0.00165887 0.0011037 -3.54027e-21)
(0.00177559 0.00117048 2.68912e-20)
(0.00189328 0.00123074 -2.21911e-20)
(0.00201005 0.00128218 -3.15806e-21)
(0.00212292 0.00132375 -4.33603e-20)
(0.00224003 0.00135653 -2.83791e-21)
(0.00235805 0.00137709 -2.05006e-20)
(0.00247081 0.00138529 5.21018e-22)
(0.00259303 0.00138322 0)
(0.00271369 0.00136384 0)
(0.00282912 0.00132975 -2.32224e-22)
(0.00294781 0.00127765 0)
(0.00305641 0.00120568 -1.17288e-21)
(0.00315593 0.00111236 -2.90215e-21)
(0.0032368 0.000995893 -7.30737e-22)
(0.00328781 0.00085705 -1.1366e-21)
(0.00330947 0.00069846 -5.25886e-22)
(0.00327707 0.000520952 -6.24906e-22)
(0.00320442 0.000340492 1.57453e-22)
(0.00307205 0.000155903 0)
(0.00288151 -9.65282e-06 0)
(0.00266078 -0.000156887 0)
(0.00239679 -0.000274532 2.96812e-22)
(0.00212435 -0.000360278 -2.97848e-22)
(0.00183687 -0.000413586 -1.20695e-21)
(0.0015586 -0.000435216 -1.0796e-21)
(0.00129489 -0.000430731 0)
(0.00105332 -0.000405791 6.70431e-22)
(0.000836446 -0.000365502 0)
(0.000644654 -0.000315657 7.56339e-24)
(0.00048004 -0.000260446 1.70976e-22)
(0.000336199 -0.000202489 -1.48905e-22)
(0.00021288 -0.000138728 3.06551e-21)
(0.000157795 -9.99341e-05 -1.04112e-21)
(0.000168843 -8.05575e-05 -1.25929e-21)
(0.000179652 -6.88045e-05 0)
(0.000202374 -5.85881e-05 0)
(0.00024617 -4.91152e-05 0)
(0.000316972 -3.72074e-05 0)
(0.000430692 -2.70196e-05 0)
(0.00057825 -2.08445e-05 5.53361e-22)
(0.000718696 -1.87118e-05 9.98165e-24)
(0.0008443 -1.78185e-05 3.32929e-24)
(0.000959459 -1.68147e-05 -5.64889e-22)
(0.00106401 -1.55704e-05 0)
(0.00115722 -1.41607e-05 5.37601e-22)
(0.0012389 -1.26531e-05 -5.36112e-22)
(0.00130913 -1.10938e-05 1.57991e-23)
(0.00136821 -9.5227e-06 0)
(0.00141661 -7.9775e-06 0)
(0.00145495 -6.48975e-06 -4.24962e-22)
(0.00148402 -5.08424e-06 4.24185e-22)
(0.0015047 -3.78059e-06 0)
(0.00151795 -2.59538e-06 0)
(0.00152482 -1.52522e-06 -1.48706e-22)
(0.00152639 -5.86623e-07 1.2759e-23)
(0.00152377 1.80038e-07 1.45854e-22)
(0.00151804 7.76833e-07 0)
(0.00151027 1.2224e-06 0)
(0.00150144 1.51023e-06 0)
(0.00149244 1.64024e-06 0)
(0.001484 1.62269e-06 5.24774e-24)
(0.0014767 1.47699e-06 0)
(0.00147092 1.23769e-06 0)
(0.00146685 9.35919e-07 0)
(0.00146445 6.11137e-07 2.36698e-23)
(0.00146349 3.08585e-07 -2.36355e-23)
(0.00146357 7.70385e-08 0)
(0.00146412 -2.5088e-08 1.87847e-24)
(0.00146444 6.41296e-08 4.92703e-24)
(0.0014634 4.3033e-07 -3.33312e-24)
(0.00145805 1.7974e-06 -1.58465e-24)
(0.0014463 6.80722e-06 0)
(0.0101626 0.00148333 0)
(0.0105613 0.00234272 0)
(0.0101511 0.00199839 0)
(0.00927861 0.00150302 8.71289e-22)
(0.00836713 0.00106525 -1.77008e-21)
(0.00760965 0.000737343 8.96621e-22)
(0.006998 0.000514706 0)
(0.00650898 0.000368918 1.79684e-21)
(0.00612176 0.000272963 -1.81476e-21)
(0.00581417 0.000208655 1.80841e-21)
(0.0055665 0.00016437 -1.81962e-21)
(0.00536379 0.000133188 -3.62316e-21)
(0.00519487 0.0001109 3.63797e-21)
(0.00505139 9.47533e-05 3.61986e-21)
(0.00492708 8.30026e-05 -1.42299e-23)
(0.00481716 7.45311e-05 -7.23678e-21)
(0.00471788 6.85535e-05 3.6196e-21)
(0.00462629 6.45168e-05 0)
(0.00453999 6.20501e-05 0)
(0.00445699 6.09043e-05 0)
(0.00437557 6.091e-05 0)
(0.0042942 6.19635e-05 0)
(0.00421145 6.40108e-05 0)
(0.00412595 6.70324e-05 0)
(0.00403634 7.10365e-05 0)
(0.00394122 7.60584e-05 0)
(0.00383914 8.21638e-05 0)
(0.00372857 8.94649e-05 0)
(0.00360776 9.81577e-05 0)
(0.00347474 0.000108612 0)
(0.00332705 0.00012159 -7.1938e-21)
(0.00316161 0.00013872 -4.423e-26)
(0.00297791 0.000163023 1.44823e-20)
(0.00274224 0.000200495 -6.36046e-21)
(0.00248864 0.000267972 -7.32804e-21)
(0.00234773 0.000385668 2.21889e-20)
(0.00235506 0.000561064 -2.98822e-20)
(0.00245845 0.000785603 -7.53573e-21)
(0.00263634 0.00105562 7.59516e-20)
(0.00289687 0.00137259 2.31094e-20)
(0.00328962 0.00173764 0)
(0.00380418 0.00212557 7.42157e-21)
(0.00434962 0.00248917 4.36995e-20)
(0.00488355 0.00280793 7.24709e-21)
(0.00540426 0.00307791 5.53567e-20)
(0.00590826 0.00329746 -5.36158e-20)
(0.006406 0.00346626 7.90152e-22)
(0.00688263 0.00357374 0)
(0.00733295 0.00361896 -2.41735e-20)
(0.00776365 0.00359854 0)
(0.00815493 0.00350732 -2.39243e-22)
(0.00850882 0.00334772 0)
(0.00880193 0.00311084 -1.95932e-20)
(0.00903144 0.00280823 -1.86382e-20)
(0.00917838 0.00243652 0)
(0.00922921 0.00201445 -5.71069e-23)
(0.00918381 0.00155558 7.89454e-21)
(0.00901204 0.00107417 1.79376e-21)
(0.00875047 0.000599548 3.56947e-21)
(0.00836245 0.000137365 -9.01806e-22)
(0.00788305 -0.000279007 0)
(0.00734142 -0.000638873 6.82771e-21)
(0.00674662 -0.000931586 -3.42875e-21)
(0.0061407 -0.00115369 -6.70422e-21)
(0.00552695 -0.00130724 -2.02058e-20)
(0.00494088 -0.00139933 -3.38903e-21)
(0.00438488 -0.00143715 1.71973e-20)
(0.00387311 -0.00143274 -3.4722e-21)
(0.00340975 -0.00139475 0)
(0.00299131 -0.00133252 3.63914e-21)
(0.00262276 -0.00125472 -3.63914e-21)
(0.00229368 -0.00116526 -9.49011e-23)
(0.00200226 -0.00107071 0)
(0.00174777 -0.000974004 -3.06309e-20)
(0.00152139 -0.000877163 -3.10157e-20)
(0.00132168 -0.000782951 1.97939e-21)
(0.00114649 -0.000692511 -1.97124e-21)
(0.000990706 -0.000606517 2.0171e-21)
(0.000852589 -0.000526174 -3.23953e-20)
(0.000731243 -0.000452215 3.04464e-20)
(0.000624358 -0.000385026 -3.26585e-20)
(0.000530649 -0.000325111 -3.40237e-20)
(0.00044948 -0.000272677 2.06303e-21)
(0.00037982 -0.000227663 -3.40572e-20)
(0.000321027 -0.000189887 3.29832e-20)
(0.000272236 -0.000158712 -3.28435e-20)
(0.000231884 -0.000133382 3.30903e-20)
(0.000199365 -0.000113224 -3.31696e-20)
(0.000173875 -9.69733e-05 -1.0348e-21)
(0.000153187 -8.35141e-05 1.02432e-21)
(0.000136677 -7.23688e-05 0)
(0.00012382 -6.27063e-05 0)
(0.000112787 -5.40659e-05 1.61574e-20)
(0.000103702 -4.65846e-05 -1.80816e-20)
(9.62796e-05 -3.97849e-05 1.59502e-20)
(8.99957e-05 -3.42313e-05 3.95218e-21)
(8.57109e-05 -2.95034e-05 -1.02914e-23)
(8.29651e-05 -2.61824e-05 5.9385e-24)
(8.2799e-05 -2.37028e-05 -3.4825e-20)
(8.57578e-05 -2.26936e-05 -5.7716e-21)
(9.31891e-05 -2.2124e-05 7.65529e-21)
(0.000105174 -2.20285e-05 -7.63194e-21)
(0.00012356 -2.13144e-05 0)
(0.000148435 -1.91301e-05 -9.54768e-22)
(0.00018196 -1.46513e-05 9.55614e-22)
(0.000224646 -6.07086e-06 0)
(0.000277994 7.49561e-06 0)
(0.000343413 2.81715e-05 1.55989e-20)
(0.000421498 5.73105e-05 -1.57334e-20)
(0.000513807 9.68129e-05 1.6374e-20)
(0.000621133 0.000148322 -3.20615e-20)
(0.000744019 0.000213507 5.81397e-25)
(0.000883832 0.000293743 -5.09835e-22)
(0.00103931 0.000390374 -1.64568e-20)
(0.00121218 0.000503998 0)
(0.0014021 0.000635458 0)
(0.00160625 0.000784137 0)
(0.00182615 0.000949773 3.46052e-20)
(0.00205935 0.00113103 3.22638e-20)
(0.00230312 0.00132581 0)
(0.00255784 0.0015321 -3.74711e-20)
(0.00282092 0.00174677 6.17594e-21)
(0.0030887 0.0019661 -4.05955e-21)
(0.00336109 0.00218684 2.01996e-21)
(0.0036367 0.00240503 -3.87398e-21)
(0.00391295 0.00261648 3.04519e-20)
(0.0041894 0.00281746 -2.56876e-20)
(0.00446494 0.00300421 3.20436e-20)
(0.0047394 0.00317351 -1.53981e-22)
(0.00501598 0.00332292 2.37602e-20)
(0.00529198 0.00344832 0)
(0.00556566 0.0035476 2.45351e-20)
(0.00584682 0.00362014 -2.70816e-21)
(0.00613053 0.00366097 -1.77696e-20)
(0.00641247 0.0036693 1.98242e-20)
(0.00670683 0.00364534 -2.07666e-21)
(0.0069981 0.00357961 2.08503e-21)
(0.00728399 0.0034749 -2.02629e-21)
(0.00756675 0.00332446 1.62844e-21)
(0.00783065 0.00312695 -1.16066e-21)
(0.00806979 0.00287951 5.53029e-21)
(0.00826774 0.0025814 -3.97897e-21)
(0.00840569 0.002235 3.27694e-21)
(0.0084764 0.00184804 0)
(0.00844657 0.00142507 3.40576e-22)
(0.0083309 0.000991936 -5.32849e-24)
(0.00809339 0.000553329 1.34752e-23)
(0.00774219 0.000143271 0)
(0.00730291 -0.000228141 1.9704e-22)
(0.00676763 -0.000542045 -4.91802e-22)
(0.00618496 -0.00078899 0)
(0.00554964 -0.000964113 1.07254e-21)
(0.00490729 -0.00106766 2.43795e-22)
(0.00426762 -0.00110499 -2.45571e-22)
(0.0036579 -0.00108734 0)
(0.00308354 -0.00102321 -3.65789e-22)
(0.00255625 -0.000926422 1.22177e-22)
(0.00208137 -0.000806201 2.13487e-22)
(0.00166111 -0.000674426 0)
(0.00128757 -0.000529629 -1.62595e-21)
(0.00107064 -0.000437443 -1.45084e-21)
(0.00102156 -0.000378061 3.10323e-21)
(0.00102246 -0.000334501 -4.30966e-22)
(0.00107074 -0.00030286 4.25929e-22)
(0.00118318 -0.000280295 5.19236e-22)
(0.00136753 -0.000258862 5.71541e-22)
(0.00164257 -0.000243015 -4.77673e-22)
(0.00197689 -0.000226923 -3.62364e-23)
(0.00230008 -0.000209571 0)
(0.00259631 -0.000192564 3.69379e-23)
(0.00286954 -0.000175339 0)
(0.00311897 -0.000157227 -3.61152e-23)
(0.00334301 -0.000138461 -5.61192e-22)
(0.00354096 -0.000119513 5.92253e-22)
(0.0037128 -0.00010077 -4.94959e-23)
(0.003859 -8.25596e-05 4.94353e-22)
(0.00398042 -6.51823e-05 -9.30891e-22)
(0.00407831 -4.89084e-05 9.08002e-22)
(0.00415429 -3.39712e-05 -4.66474e-22)
(0.00421033 -2.05639e-05 0)
(0.00424863 -8.84036e-06 2.02144e-22)
(0.00427163 1.08632e-06 -1.89419e-22)
(0.00428191 9.14584e-06 -1.97278e-23)
(0.00428212 1.5315e-05 -1.38893e-22)
(0.0042749 1.96128e-05 1.22145e-22)
(0.00426278 2.21627e-05 1.14454e-22)
(0.0042481 2.31235e-05 -1.27795e-22)
(0.00423287 2.27019e-05 1.04753e-22)
(0.00421872 2.11708e-05 -1.80568e-22)
(0.00420686 1.88554e-05 1.09556e-22)
(0.00419799 1.61067e-05 -3.66592e-23)
(0.00419233 1.32853e-05 -7.56343e-24)
(0.00418961 1.0741e-05 0)
(0.00418917 8.79471e-06 1.52684e-23)
(0.00419 7.73094e-06 -2.08978e-23)
(0.00419082 7.81788e-06 1.08278e-24)
(0.00419024 9.36847e-06 -6.93645e-24)
(0.00418665 1.28998e-05 0)
(0.00417688 1.95865e-05 0)
(0.00415839 3.16622e-05 -3.82897e-25)
(0.0101548 0.000930785 0)
(0.010718 0.00187936 -4.36222e-22)
(0.0111799 0.00208084 4.32438e-22)
(0.0111181 0.00193195 8.37175e-22)
(0.0108342 0.00165175 -8.45337e-22)
(0.0104094 0.00133934 0)
(0.00994856 0.00105962 0)
(0.00950742 0.000831804 0)
(0.00911003 0.000656061 -1.69506e-21)
(0.0087636 0.000523751 3.41146e-21)
(0.00846557 0.000424376 1.69634e-21)
(0.00820995 0.000349942 -3.4325e-21)
(0.00798968 0.000294189 -3.41941e-21)
(0.00779812 0.000252235 3.43531e-21)
(0.00762958 0.000220712 0)
(0.00747916 0.000197276 -3.41917e-21)
(0.00734265 0.000180156 6.84667e-21)
(0.00721658 0.00016806 -3.42642e-21)
(0.00709798 0.000160087 0)
(0.0069843 0.000155608 0)
(0.00687325 0.000154184 0)
(0.00676278 0.00015554 0)
(0.00665092 0.000159525 0)
(0.00653579 0.000166077 -6.80128e-21)
(0.00641547 0.000175211 6.816e-21)
(0.00628802 0.00018701 0)
(0.0061514 0.000201627 0)
(0.00600342 0.000219309 0)
(0.0058417 0.000240451 0)
(0.00566356 0.000265706 0)
(0.00546598 0.000296241 -6.86143e-21)
(0.00524526 0.000334231 6.88584e-21)
(0.00500224 0.000383664 0)
(0.00470606 0.000449289 4.33477e-22)
(0.00439213 0.000547269 0)
(0.00419992 0.000705126 -1.42035e-20)
(0.00418492 0.000938291 2.87301e-20)
(0.00430768 0.00124167 0)
(0.00454687 0.00160728 -5.78428e-20)
(0.0049061 0.00202778 2.00235e-22)
(0.00542128 0.00249268 -7.0913e-21)
(0.00606219 0.00296977 7.07234e-21)
(0.00674038 0.00341855 -5.51755e-20)
(0.00741645 0.00381931 0)
(0.00808349 0.00416328 -5.85918e-20)
(0.00873674 0.00444546 5.38061e-20)
(0.00938189 0.00466186 5.17664e-20)
(0.0100043 0.00480217 0)
(0.0105999 0.00486333 2.21927e-20)
(0.0111703 0.00484008 0)
(0.0116978 0.00472896 -4.06451e-20)
(0.01218 0.00453021 0)
(0.0125949 0.00423641 1.61414e-20)
(0.0129383 0.00385975 1.98344e-20)
(0.0131881 0.00339971 1.67645e-20)
(0.0133313 0.00287244 7.84655e-21)
(0.0133613 0.00229104 7.6156e-21)
(0.0132493 0.0016705 3.55426e-21)
(0.0130212 0.00104207 -1.77031e-21)
(0.0126397 0.000416025 -2.52426e-21)
(0.0121349 -0.00017269 0)
(0.0115252 -0.000706428 -6.33037e-21)
(0.010824 -0.0011685 6.2752e-21)
(0.0100729 -0.00154781 0)
(0.0092803 -0.00184115 2.54368e-20)
(0.00849029 -0.0020509 0)
(0.0077107 -0.00218161 3.26073e-21)
(0.00696746 -0.00224517 -3.28399e-21)
(0.0062698 -0.00225091 0)
(0.0056222 -0.00221106 3.44644e-21)
(0.0050341 -0.00213728 -3.46024e-21)
(0.00449748 -0.00203643 -3.90452e-20)
(0.00401293 -0.00191904 2.53062e-20)
(0.00357996 -0.0017904 8.14024e-23)
(0.00318985 -0.00165514 2.99009e-20)
(0.00284066 -0.00151843 1.90524e-21)
(0.00252964 -0.00138295 -3.25026e-20)
(0.00225049 -0.00125077 0)
(0.00200044 -0.00112445 -3.12655e-20)
(0.0017778 -0.00100565 -6.12442e-20)
(0.00157927 -0.000895433 6.0741e-20)
(0.00140266 -0.000794987 3.29949e-20)
(0.00124671 -0.00070492 -3.31846e-20)
(0.00110976 -0.000625387 3.34545e-20)
(0.000990948 -0.000556303 0)
(0.00088906 -0.000496698 3.26039e-20)
(0.000801914 -0.000445323 1.36114e-22)
(0.000728902 -0.000401328 6.5758e-20)
(0.000668779 -0.000362936 3.04205e-20)
(0.000618279 -0.000328552 3.33866e-20)
(0.000576709 -0.000297582 0)
(0.000542938 -0.000268805 0)
(0.000514057 -0.000241553 -1.6e-20)
(0.000490337 -0.000216227 0)
(0.000470688 -0.000192151 -1.9766e-21)
(0.00045479 -0.000170327 1.95362e-21)
(0.000443248 -0.000150247 -1.55642e-20)
(0.000436058 -0.000132837 1.54417e-20)
(0.000434222 -0.000117369 1.34323e-20)
(0.000438906 -0.000104633 1.90386e-21)
(0.000451788 -9.33665e-05 -7.59476e-21)
(0.000473485 -8.35244e-05 3.78395e-21)
(0.000506836 -7.35871e-05 -2.83447e-21)
(0.000551918 -6.2117e-05 9.43485e-22)
(0.000612178 -4.76937e-05 0)
(0.000688146 -2.75875e-05 7.59641e-21)
(0.000781909 -1.69732e-07 0)
(0.000895213 3.76129e-05 1.5359e-20)
(0.00102849 8.79553e-05 8.03247e-24)
(0.00118347 0.000153526 -1.50921e-20)
(0.00136065 0.000236706 1.56903e-20)
(0.00156013 0.000339728 -4.92994e-22)
(0.00178296 0.000464385 0)
(0.00202692 0.000612289 1.59227e-20)
(0.00229341 0.000784054 -1.59789e-20)
(0.00258092 0.000980294 0)
(0.00288599 0.00120022 9.99892e-22)
(0.00320928 0.00144275 -3.29085e-20)
(0.00354748 0.00170581 -3.00359e-20)
(0.00389743 0.00198645 2.95289e-20)
(0.00425875 0.00228127 -3.12046e-20)
(0.00462832 0.00258589 -1.92174e-21)
(0.00500262 0.00289539 2.84472e-20)
(0.00538126 0.00320486 3.78849e-21)
(0.00576266 0.00350876 3.26251e-20)
(0.00614469 0.00380162 -6.42396e-20)
(0.006527 0.00407816 3.15602e-20)
(0.00690892 0.00433327 -2.38245e-20)
(0.00729077 0.0045625 1.887e-20)
(0.00767515 0.00476194 3.02202e-20)
(0.00806018 0.00492654 1.70551e-20)
(0.00844515 0.00505397 2.82314e-21)
(0.00883763 0.00514183 1.76656e-20)
(0.00923322 0.00518444 2.1842e-20)
(0.00962934 0.00518104 -2.07554e-21)
(0.0100352 0.00512957 2.08118e-21)
(0.0104361 0.0050216 5.32536e-21)
(0.0108304 0.00485921 1.4556e-21)
(0.0112145 0.00463586 -1.25442e-21)
(0.0115742 0.00435104 1.25819e-21)
(0.0118998 0.00400312 -3.82772e-21)
(0.0121737 0.00359294 6.44347e-22)
(0.0123766 0.00312488 -1.78888e-22)
(0.0124977 0.00260841 -4.9151e-22)
(0.0125047 0.00205215 -1.03563e-21)
(0.0124068 0.00147854 0)
(0.0121667 0.000896411 -3.59539e-23)
(0.0117914 0.000338457 5.57985e-23)
(0.0112956 -0.000179199 -1.8371e-22)
(0.010672 -0.000635062 6.68812e-22)
(0.00996479 -0.0010139 1.59168e-22)
(0.00916739 -0.00130617 -9.99753e-22)
(0.00833087 -0.00150801 -9.1795e-22)
(0.00746418 -0.00162047 3.47122e-22)
(0.00660689 -0.00165346 -6.10857e-22)
(0.00576769 -0.00161437 3.44699e-22)
(0.00497021 -0.00151933 -2.14278e-23)
(0.00422484 -0.0013798 -2.71668e-22)
(0.00355242 -0.00121605 9.09916e-23)
(0.00293836 -0.00102709 -7.70088e-22)
(0.00254214 -0.000896022 1.09827e-21)
(0.00238904 -0.00080064 -9.82066e-22)
(0.00234575 -0.00072422 -3.59833e-22)
(0.00239047 -0.000666529 -8.67496e-22)
(0.00254072 -0.000626919 0)
(0.00279738 -0.000594094 -1.04039e-21)
(0.00317254 -0.00057033 9.99592e-22)
(0.00361409 -0.000542642 5.13447e-23)
(0.00404066 -0.000507529 9.57393e-24)
(0.00443422 -0.000469269 -3.17006e-23)
(0.00479821 -0.000428931 -5.56239e-22)
(0.00513155 -0.000386322 3.45066e-23)
(0.00543225 -0.000342088 0)
(0.00569949 -0.000297217 -3.25599e-23)
(0.0059333 -0.000252586 3.13062e-23)
(0.00613417 -0.000208963 5.23243e-22)
(0.00630306 -0.000167064 -4.90839e-22)
(0.00644141 -0.00012756 -4.15276e-22)
(0.00655111 -9.10578e-05 4.39179e-22)
(0.00663447 -5.80871e-05 0)
(0.0066942 -2.90901e-05 -2.20069e-23)
(0.00673331 -4.40909e-06 0)
(0.00675506 1.57298e-05 -1.24901e-22)
(0.00676286 3.1238e-05 1.19373e-23)
(0.00676014 4.21944e-05 1.46968e-22)
(0.00675023 4.88493e-05 2.8315e-23)
(0.00673619 5.16231e-05 1.2889e-23)
(0.00672072 5.10873e-05 -1.15905e-23)
(0.006706 4.79548e-05 0)
(0.00669362 4.30483e-05 9.23863e-24)
(0.00668454 3.7239e-05 3.07199e-23)
(0.00667906 3.14064e-05 -2.34596e-23)
(0.00667686 2.63748e-05 -2.33296e-23)
(0.00667708 2.28639e-05 2.86748e-23)
(0.00667844 2.14588e-05 0)
(0.00667936 2.26135e-05 4.5442e-24)
(0.00667823 2.67054e-05 6.65211e-24)
(0.00667347 3.41851e-05 1.66037e-24)
(0.00666279 4.58413e-05 -1.65765e-24)
(0.0066431 6.3924e-05 3.62749e-25)
(0.0100748 0.000516285 0)
(0.0104761 0.00128223 0)
(0.0110149 0.00167913 0)
(0.0113788 0.00179433 8.34605e-22)
(0.0115702 0.00173083 -8.33356e-22)
(0.0115414 0.00156934 0)
(0.0114226 0.00136656 0)
(0.0112264 0.00116079 0)
(0.0109939 0.000975972 0)
(0.0107557 0.000818456 0)
(0.0105261 0.000687817 0)
(0.0103119 0.000582896 -3.27663e-21)
(0.0101152 0.000499897 3.2938e-21)
(0.0099355 0.000434511 -3.27886e-21)
(0.00977152 0.000383591 6.5706e-21)
(0.00962104 0.000344599 -3.29019e-21)
(0.00948152 0.000315326 -3.27506e-21)
(0.00935059 0.00029407 3.28452e-21)
(0.00922598 0.000279592 0)
(0.00910552 0.000270989 0)
(0.00898711 0.000267595 6.52924e-21)
(0.00886879 0.000269004 -6.54355e-21)
(0.00874858 0.000274991 0)
(0.00862452 0.000285474 -6.51855e-21)
(0.00849458 0.000300492 6.5324e-21)
(0.00835665 0.000320204 0)
(0.00820848 0.000344881 0)
(0.00804765 0.000374924 6.52831e-21)
(0.00787154 0.000410927 -7.66665e-24)
(0.00767726 0.000453778 -6.5555e-21)
(0.0074617 0.000504875 -6.56595e-21)
(0.00722111 0.00056652 1.31733e-20)
(0.00695713 0.000642716 -6.60872e-21)
(0.00664285 0.00073594 6.21523e-21)
(0.00631076 0.000860351 -6.68507e-21)
(0.00609302 0.00104443 -6.79621e-21)
(0.00605449 0.00130552 6.88961e-21)
(0.00617251 0.00164213 2.06343e-20)
(0.00643032 0.00204547 3.45543e-20)
(0.00682646 0.00250215 7.02678e-21)
(0.00738165 0.00299478 -6.79831e-21)
(0.00805527 0.00349096 -5.92844e-20)
(0.00876893 0.00395914 5.80001e-20)
(0.00948803 0.00438214 5.63381e-20)
(0.0102034 0.0047488 -1.22338e-20)
(0.0109098 0.00505123 8.93435e-21)
(0.0116092 0.00528286 -2.56964e-20)
(0.0122888 0.00543591 0)
(0.0129448 0.00550348 -2.38292e-20)
(0.0135769 0.00547864 2.59203e-21)
(0.0141699 0.00536106 1.94251e-20)
(0.0147179 0.00514959 2.26636e-21)
(0.0152041 0.00483944 -2.2298e-20)
(0.0156232 0.00443978 -1.46891e-20)
(0.0159557 0.00395176 -1.60922e-20)
(0.0161891 0.00338915 -7.84282e-21)
(0.016314 0.00276423 -1.58689e-21)
(0.0163055 0.00209023 1.80183e-21)
(0.0161782 0.00139507 1.67041e-21)
(0.0158985 0.000689328 2.4466e-21)
(0.0154858 4.96576e-06 1.63671e-21)
(0.0149474 -0.000638961 0)
(0.0142926 -0.00122277 6.2595e-21)
(0.0135542 -0.00173002 0)
(0.0127396 -0.00215288 -2.13566e-20)
(0.0118922 -0.00248623 -1.24045e-20)
(0.0110222 -0.00273045 -3.08493e-21)
(0.010162 -0.00289206 0)
(0.00932536 -0.00297847 0)
(0.00852477 -0.00300051 -1.30138e-20)
(0.00777555 -0.00297014 0)
(0.00707458 -0.00289571 3.03145e-20)
(0.00642775 -0.00278957 -3.08408e-20)
(0.0058366 -0.00265932 2.9711e-20)
(0.00529497 -0.0025118 2.55688e-23)
(0.00480241 -0.00235443 2.54913e-23)
(0.00435667 -0.00219183 2.56931e-20)
(0.00395173 -0.00202774 3.71228e-21)
(0.00358476 -0.00186625 2.82595e-20)
(0.00325378 -0.00171033 3.04585e-20)
(0.00295501 -0.00156204 -1.23705e-22)
(0.00268571 -0.00142344 -3.00396e-20)
(0.00244412 -0.00129588 3.02656e-20)
(0.0022281 -0.00118 0)
(0.00203664 -0.00107616 4.94583e-22)
(0.00186833 -0.000983493 3.10727e-20)
(0.0017206 -0.000900674 -6.31547e-20)
(0.00159326 -0.00082686 -9.55038e-20)
(0.00148498 -0.000759879 -3.27772e-20)
(0.00139198 -0.000697813 9.04307e-22)
(0.00131381 -0.000639983 0)
(0.00124893 -0.000584908 9.87566e-22)
(0.00119354 -0.000531742 -9.77702e-22)
(0.00114805 -0.000481156 0)
(0.00111043 -0.000432356 1.55107e-20)
(0.00108058 -0.000386779 -1.93034e-21)
(0.00105853 -0.0003439 1.9115e-21)
(0.00104463 -0.000304994 -4.29461e-24)
(0.00103948 -0.000269375 1.51302e-20)
(0.00104525 -0.000238053 -1.88185e-21)
(0.00106356 -0.000209426 3.74186e-21)
(0.00109546 -0.000183358 -1.86133e-21)
(0.00114439 -0.000158001 1.6408e-25)
(0.00121033 -0.000131457 -9.30094e-22)
(0.00129767 -0.00010185 9.28904e-22)
(0.0014066 -6.57785e-05 -7.45492e-21)
(0.00153948 -2.09852e-05 -7.94564e-21)
(0.00169787 3.62081e-05 -1.45553e-20)
(0.00188172 0.000108668 3.01798e-20)
(0.00209237 0.000199539 -1.46777e-20)
(0.00232963 0.000311681 -4.75845e-22)
(0.00259279 0.000447608 -4.77962e-22)
(0.0028822 0.000609295 4.79647e-22)
(0.00319453 0.00079833 -1.53996e-20)
(0.00353056 0.00101525 1.03116e-21)
(0.00388771 0.00126025 -3.76847e-24)
(0.004262 0.00153229 1.33694e-20)
(0.00465329 0.0018296 4.68487e-20)
(0.00505788 0.00214944 -3.01952e-20)
(0.00547249 0.00248823 -3.02576e-20)
(0.00589642 0.00284159 3.17832e-20)
(0.00632668 0.00320434 2.7229e-20)
(0.0067603 0.0035708 -2.72738e-20)
(0.00719703 0.00393501 -3.14452e-20)
(0.00763567 0.00429056 -2.60723e-20)
(0.00807492 0.0046312 3.92079e-21)
(0.00851485 0.00495078 -3.29372e-21)
(0.00895543 0.00524339 0)
(0.00939737 0.00550376 -2.71431e-20)
(0.00984292 0.00572708 -2.29588e-20)
(0.0102911 0.00590807 -1.9135e-20)
(0.0107413 0.00604387 0)
(0.0111992 0.00613043 -2.15658e-20)
(0.0116613 0.00616269 2.28787e-21)
(0.0121251 0.00614 -6.05778e-21)
(0.0125952 0.00605906 -1.93008e-21)
(0.0130594 0.00591342 -1.32925e-22)
(0.0135153 0.00570463 -7.29722e-21)
(0.0139567 0.00542796 1.37448e-21)
(0.0143711 0.00508377 -5.44849e-21)
(0.0147479 0.00467232 8.43884e-21)
(0.0150709 0.00419597 6.07311e-21)
(0.0153233 0.00366049 2.51242e-21)
(0.0154935 0.00307553 0)
(0.0155544 0.00245029 -4.10092e-22)
(0.0155095 0.00180508 7.36505e-24)
(0.0153264 0.00114976 1.9152e-23)
(0.0150081 0.000512796 -1.49775e-23)
(0.01456 -8.864e-05 -3.49723e-23)
(0.0139721 -0.000634388 1.33462e-22)
(0.0132784 -0.00110628 -3.50078e-22)
(0.0124677 -0.00149285 0)
(0.0115861 -0.00178501 8.18358e-22)
(0.0106379 -0.00198033 -2.46711e-22)
(0.00966562 -0.00208309 4.68123e-22)
(0.00867808 -0.00209823 7.09449e-23)
(0.0077067 -0.00203903 9.34248e-23)
(0.00676546 -0.00191678 -3.35065e-23)
(0.00589705 -0.00175632 0)
(0.00508268 -0.00155754 9.54915e-22)
(0.00452124 -0.00140512 6.87011e-23)
(0.00424581 -0.00128646 5.51751e-23)
(0.00413187 -0.00118553 5.14486e-23)
(0.00414426 -0.00110416 8.83354e-22)
(0.00429878 -0.00104569 4.11296e-23)
(0.0045857 -0.000998122 1.40465e-23)
(0.00500757 -0.00096068 -5.14904e-22)
(0.00549515 -0.000916578 4.4479e-22)
(0.00596268 -0.000860183 5.26488e-22)
(0.00639256 -0.000796848 6.8121e-23)
(0.00678919 -0.000729258 -5.21157e-22)
(0.00715215 -0.000658055 6.32007e-23)
(0.00747968 -0.000584377 4.93788e-22)
(0.00777131 -0.000509703 -4.90935e-22)
(0.0080274 -0.000435373 -5.75052e-23)
(0.0082487 -0.00036257 -5.63299e-23)
(0.00843628 -0.000292413 0)
(0.00859162 -0.000225979 3.91251e-22)
(0.00871663 -0.000164273 -3.90063e-22)
(0.00881358 -0.000108202 0)
(0.00888512 -5.85538e-05 -4.09397e-23)
(0.00893423 -1.59711e-05 0)
(0.00896417 1.9093e-05 3.50962e-23)
(0.00897841 4.64239e-05 1.24661e-22)
(0.00898049 6.60914e-05 -1.24447e-22)
(0.00897389 7.84609e-05 -2.71516e-23)
(0.0089619 8.42136e-05 2.42292e-23)
(0.00894744 8.43207e-05 0)
(0.00893293 7.99931e-05 -7.44199e-23)
(0.00892023 7.26205e-05 7.42682e-23)
(0.00891049 6.36964e-05 1.54301e-23)
(0.00890421 5.47117e-05 2.56118e-23)
(0.00890119 4.7057e-05 -2.55547e-23)
(0.00890066 4.19321e-05 1.90213e-23)
(0.00890136 4.02745e-05 -1.898e-23)
(0.00890171 4.27218e-05 -7.16907e-24)
(0.00890009 4.96221e-05 -4.85334e-24)
(0.008895 6.11431e-05 3.22847e-24)
(0.00888479 7.74115e-05 4.02086e-24)
(0.00886546 0.000101173 0)
(0.0100413 0.000317359 0)
(0.0102866 0.000874248 0)
(0.010715 0.00124878 0)
(0.0111427 0.00144423 8.43003e-22)
(0.0114793 0.00150571 -8.37309e-22)
(0.0117073 0.00147245 0)
(0.0118553 0.00137423 1.6248e-21)
(0.0118996 0.00124492 -1.6272e-21)
(0.0118807 0.00110796 -1.60877e-21)
(0.0118217 0.000974028 3.21888e-21)
(0.0117326 0.000850817 -1.61056e-21)
(0.0116289 0.000744773 0)
(0.0115182 0.000655608 0)
(0.0114058 0.000581516 3.18942e-21)
(0.0112948 0.000521596 -1.40688e-23)
(0.0111864 0.000474347 -6.37534e-21)
(0.0110805 0.000437979 3.18926e-21)
(0.0109771 0.000411079 0)
(0.0108752 0.000392575 0)
(0.0107738 0.000381628 3.16344e-21)
(0.0106718 0.00037754 -3.16948e-21)
(0.0105678 0.000379953 0)
(0.0104602 0.000388685 0)
(0.0103475 0.0004037 -6.29888e-21)
(0.0102279 0.000425126 1.26044e-20)
(0.0100996 0.000453239 -6.30562e-21)
(0.00996045 0.000488459 -6.29144e-21)
(0.00980823 0.000531363 1.02888e-23)
(0.00964042 0.000582729 1.26022e-20)
(0.00945434 0.00064362 -6.31014e-21)
(0.00924714 0.00071554 -6.31254e-21)
(0.00901537 0.00080067 3.41615e-24)
(0.00876089 0.000902621 6.34075e-21)
(0.00846086 0.00102215 6.34811e-21)