/*--------------------------------*- C++ -*----------------------------------*\
| =========                 |                                                 |
| \\      /  F ield         | OpenFOAM: The Open Source CFD Toolbox           |
|  \\    /   O peration     | Version:  2506                                  |
|   \\  /    A nd           | Website:  www.openfoam.com                      |
|    \\/     M anipulation  |                                                 |
\*---------------------------------------------------------------------------*/
FoamFile
{
    version     2.0;
    format      ascii;
    arch        "LSB;label=32;scalar=64";
    class       volVectorField;
    location    "0.05";
    object      vorticityField;
}
// * * * * * * * * * * * * * * * * * * * * * * * * * * * * * * * * * * * * * //

dimensions      [0 0 -1 0 0 0 0];

internalField   nonuniform List<vector> 
4000
(
(-2.48704e-20 8.42994e-18 -44.2755)
(-9.14412e-18 -6.94114e-18 -47.8728)
(9.72135e-18 -2.78251e-17 -46.2253)
(3.66086e-17 4.16136e-17 -42.3225)
(-7.50315e-17 5.02865e-18 -39.4743)
(3.82952e-17 -3.82132e-17 -38.0077)
(-3.16985e-19 1.79073e-17 -37.2555)
(3.69671e-17 -0 -36.8181)
(-3.61165e-17 -3.52358e-17 -36.5501)
(7.34835e-17 3.04159e-17 -36.3815)
(-7.33439e-17 -2.98011e-17 -36.2665)
(5.74654e-19 2.50154e-17 -36.179)
(-4.35987e-18 7.94912e-17 -36.1063)
(7.50422e-17 -6.98856e-17 -36.0412)
(-3.34639e-19 -0 -35.9779)
(-1.40587e-16 -6.83304e-17 -35.9123)
(1.41576e-16 5.88199e-17 -35.841)
(-7.66851e-17 7.78559e-17 -35.7608)
(3.62944e-18 -6.83454e-17 -35.6685)
(0 -0 -35.5605)
(0 -0 -35.433)
(0 -0 -35.2815)
(9.00207e-18 -1.32665e-16 -35.101)
(1.23521e-16 2.46503e-16 -34.8852)
(-2.83793e-16 3.70728e-17 -34.6265)
(1.61441e-16 -2.83207e-16 -34.3159)
(-1.0148e-17 1.32296e-16 -33.9418)
(0 -0 -33.4887)
(0 -0 -32.9366)
(-1.15238e-17 1.30202e-16 -32.2591)
(-2.64578e-16 -1.14499e-16 -31.4184)
(1.52694e-16 -1.46343e-16 -30.3636)
(2.73137e-16 1.62169e-17 -29.03)
(1.58895e-17 -1.41897e-16 -26.9549)
(-7.55831e-17 7.66381e-16 -24.3933)
(-3.6132e-16 6.47101e-16 -22.9573)
(-1.04286e-15 -1.12229e-15 -23.2675)
(1.22441e-18 6.12007e-18 -24.7141)
(6.87929e-16 1.89486e-15 -26.9542)
(-8.77285e-16 -1.11884e-15 -30.0342)
(4.27651e-16 -2.47003e-15 -34.4156)
(1.20773e-15 2.33206e-15 -39.2763)
(-4.14661e-16 1.00079e-15 -43.6029)
(2.74269e-16 -1.11133e-15 -47.3261)
(1.25832e-15 8.84171e-16 -50.6135)
(-1.45754e-15 2.30131e-16 -53.7191)
(-1.44377e-15 5.36497e-16 -56.8162)
(-1.17525e-15 -1.16447e-15 -59.7031)
(-1.2799e-15 -1.42279e-15 -62.5432)
(-5.72373e-16 -1.46499e-15 -65.2731)
(7.90733e-16 -4.16369e-16 -67.7694)
(-4.6544e-17 5.77993e-16 -70.1825)
(-6.75625e-16 -1.27565e-15 -72.2469)
(8.43148e-16 -4.62822e-17 -74.1684)
(-1.06448e-16 1.24383e-15 -75.6887)
(-3.67163e-16 9.76235e-17 -76.8319)
(2.50473e-16 -5.43393e-17 -77.6296)
(8.47343e-17 -2.59601e-17 -77.8662)
(1.5694e-16 6.39817e-17 -77.9001)
(-7.87384e-17 -5.19189e-17 -77.3491)
(8.46515e-17 -1.527e-17 -76.3078)
(3.14186e-16 1.04254e-17 -75.0421)
(-1.47127e-16 -7.72505e-17 -73.3819)
(-7.57948e-17 -7.59458e-16 -71.568)
(1.03469e-16 -2.19977e-16 -69.5992)
(-1.14107e-16 8.58263e-16 -67.4677)
(6.6778e-16 -1.5741e-17 -65.3533)
(3.41093e-17 -4.8072e-16 -63.0909)
(3.329e-16 7.41756e-16 -60.9463)
(-8.65286e-16 8.59565e-16 -58.7325)
(-1.76185e-16 -6.35936e-16 -56.5957)
(-1.46232e-16 -4.14864e-16 -54.5046)
(-1.97034e-19 2.30719e-18 -52.3776)
(-9.86324e-16 6.25618e-16 -50.3792)
(-9.59167e-16 6.85429e-16 -48.3895)
(-4.34955e-17 8.71541e-16 -46.421)
(-8.67427e-16 5.5132e-16 -44.5411)
(9.87077e-17 -8.91589e-16 -42.7004)
(-9.74571e-16 3.28572e-16 -40.8782)
(7.72237e-16 2.97585e-16 -39.118)
(-1.51905e-15 4.00395e-16 -37.4038)
(-2.08906e-16 -9.82794e-16 -35.7249)
(4.24349e-17 -1.1392e-16 -34.0917)
(-3.1411e-17 -1.07358e-17 -32.4985)
(7.77771e-16 1.32381e-15 -30.9479)
(-1.29824e-15 1.73691e-15 -29.4556)
(5.20292e-18 -1.56737e-15 -27.9979)
(-9.07079e-17 -9.44106e-16 -26.5765)
(-1.10934e-17 1.54303e-15 -25.2321)
(-5.57274e-16 3.59779e-16 -23.9241)
(2.06135e-18 1.82229e-18 -22.6544)
(-5.46966e-16 1.00824e-15 -21.4774)
(-2.77871e-16 -1.22713e-15 -20.3403)
(1.92772e-16 -4.70582e-16 -19.2644)
(9.61856e-18 6.95571e-16 -18.2844)
(7.46144e-17 -7.08485e-16 -17.3556)
(2.24878e-16 -1.46378e-16 -16.5476)
(2.97984e-17 3.11345e-17 -15.8073)
(-3.35504e-16 -1.0362e-16 -15.1814)
(5.97389e-17 2.78831e-16 -14.6519)
(5.80128e-17 3.31551e-18 -14.2648)
(2.61458e-17 -7.18621e-17 -13.9878)
(-1.07728e-17 1.86983e-16 -13.8641)
(-2.71659e-17 5.23057e-17 -13.855)
(-4.21391e-17 -2.06001e-17 -14.0024)
(-7.50564e-19 -6.81355e-17 -14.2774)
(4.06488e-18 5.45838e-16 -14.7)
(-2.3068e-16 4.44664e-19 -15.2499)
(-2.46864e-16 -9.19119e-16 -15.9248)
(4.73557e-16 -1.39291e-16 -16.7131)
(-2.11491e-16 1.57133e-16 -17.6159)
(1.13713e-17 6.12093e-16 -18.6061)
(-2.5559e-16 -1.19804e-16 -19.7086)
(-2.17998e-16 -5.04573e-16 -20.8577)
(-7.55324e-18 -6.39305e-16 -22.1411)
(5.02593e-16 3.32102e-16 -23.4703)
(3.2156e-18 1.26087e-15 -24.8767)
(-2.74599e-17 1.50538e-16 -26.3686)
(4.98031e-16 3.6958e-16 -27.9064)
(-5.35391e-16 -4.01243e-16 -29.5124)
(-5.59566e-16 -1.96294e-15 -31.1963)
(6.54674e-16 4.37385e-16 -32.929)
(3.37223e-17 1.43705e-15 -34.7135)
(-6.13139e-16 -4.41797e-16 -36.5742)
(-1.14005e-16 -1.50538e-15 -38.4846)
(1.17385e-15 8.3153e-16 -40.4566)
(-3.86582e-16 4.41468e-16 -42.486)
(5.484e-16 -1.30243e-16 -44.5611)
(6.47314e-16 9.31736e-16 -46.6949)
(-7.19909e-17 9.91279e-16 -48.9121)
(-2.4131e-17 5.72265e-16 -51.1141)
(-6.8819e-16 -1.21443e-16 -53.3711)
(-2.31802e-16 -6.76878e-16 -55.724)
(-1.18913e-15 -8.2641e-16 -58.0114)
(3.86527e-16 1.01939e-16 -60.3303)
(-7.76789e-17 -4.01963e-17 -62.7729)
(8.0074e-17 4.42702e-17 -64.9753)
(4.67777e-18 -2.29565e-16 -67.2858)
(8.69411e-17 9.2416e-17 -69.3863)
(-1.33121e-16 1.3844e-16 -71.4122)
(9.16011e-17 2.30307e-16 -73.2622)
(-4.49603e-16 -1.68409e-16 -74.8929)
(1.73432e-16 2.08069e-16 -76.1887)
(-7.15508e-17 5.65826e-17 -77.2014)
(-1.50009e-16 -7.44169e-17 -77.5795)
(-3.86526e-18 -2.87324e-16 -77.8343)
(-2.34903e-17 4.14631e-17 -77.3399)
(0 -0 -76.4067)
(-5.09527e-17 3.88113e-17 -75.0754)
(5.46478e-17 -7.90448e-18 -73.1706)
(2.29558e-17 -2.12833e-16 -71.0554)
(-1.37077e-17 -9.75817e-17 -68.4491)
(1.63032e-16 9.25124e-17 -65.62)
(8.20246e-17 2.45094e-16 -62.5246)
(-1.76338e-16 6.88058e-17 -59.2176)
(1.58546e-16 -1.72236e-16 -55.7321)
(-2.7948e-16 -1.88852e-16 -52.015)
(3.4851e-16 -2.05431e-16 -48.0614)
(-8.03602e-17 -3.45914e-16 -43.5274)
(2.20828e-16 -3.47141e-16 -38.0654)
(-2.4273e-16 7.95971e-16 -33.9248)
(2.03038e-16 -8.52463e-17 -32.6452)
(-4.94618e-17 -1.06154e-16 -31.8827)
(3.34567e-17 -7.79941e-18 -31.3701)
(3.16118e-17 -4.86178e-18 -31.4555)
(2.99092e-17 -2.48499e-18 -32.3638)
(-2.89271e-17 -2.31899e-17 -34.4117)
(2.60101e-17 -1.88822e-17 -36.8717)
(1.75936e-18 2.36212e-17 -38.5601)
(2.80206e-18 2.06058e-17 -39.4472)
(-2.55903e-17 1.98212e-17 -39.9204)
(-5.41195e-18 -4.11035e-17 -40.1901)
(2.01765e-18 -1.79643e-18 -40.3325)
(2.73606e-18 3.97219e-17 -40.3884)
(-2.93738e-18 -2.02205e-17 -40.3833)
(1.92031e-17 6.19654e-19 -40.3336)
(-3.49227e-17 1.5247e-17 -40.2509)
(1.67168e-17 5.66451e-18 -40.1433)
(-1.86972e-18 -3.61911e-17 -40.0171)
(1.05014e-18 1.52948e-17 -39.8766)
(8.56928e-18 5.80657e-18 -39.7253)
(-1.42127e-17 8.98542e-18 -39.566)
(-1.0795e-18 -1.1575e-17 -39.4012)
(5.19482e-19 -9.91398e-18 -39.2329)
(5.54076e-18 5.80672e-18 -39.0628)
(5.17078e-18 1.54238e-20 -38.8923)
(-5.76265e-18 -1.71893e-20 -38.7226)
(4.93077e-18 -2.25747e-19 -38.5548)
(-8.32172e-18 -9.52943e-19 -38.3898)
(5.29291e-18 2.55714e-19 -38.2284)
(-1.78752e-18 -5.33195e-21 -38.0715)
(-4.0555e-19 -1.15858e-18 -37.9199)
(1.27865e-18 -3.82839e-18 -37.7745)
(-4.55933e-19 6.12482e-18 -37.6359)
(-1.06763e-18 -1.24817e-18 -37.5051)
(1.50768e-19 -1.14774e-18 -37.3824)
(-8.07157e-20 -2.21671e-18 -37.2681)
(-1.70433e-19 1.55536e-18 -37.1615)
(-8.64667e-20 1.06649e-18 -37.0549)
(-2.28421e-20 -8.11626e-20 -36.9869)
(0 -0 2.72027)
(7.15499e-20 -0 -7.63081)
(-2.80236e-19 -1.70378e-17 -13.6495)
(-1.2e-18 2.9486e-17 -16.0459)
(1.98241e-17 9.52852e-18 -16.4541)
(-1.84966e-17 -3.93778e-17 -16.0929)
(4.08024e-19 -1.72715e-17 -15.6722)
(-7.95144e-19 2.54398e-17 -15.3784)
(-3.56106e-17 9.50192e-18 -15.1977)
(3.34794e-17 -9.46042e-18 -15.0846)
(6.98252e-17 1.12148e-16 -15.0119)
(-1.42225e-16 -8.46353e-17 -14.9647)
(9.46692e-18 -1.54666e-16 -14.9293)
(6.77075e-17 5.04994e-17 -14.9002)
(-8.77191e-18 2.02788e-16 -14.8752)
(-6.61826e-17 -3.11384e-17 -14.8524)
(7.17953e-17 -1.53112e-16 -14.8291)
(6.36802e-19 6.73081e-17 -14.8038)
(0 -0 -14.7758)
(0 -0 -14.744)
(0 -0 -14.7071)
(0 -0 -14.664)
(0 -0 -14.6127)
(-2.76441e-16 -0 -14.5517)
(4.18222e-16 -0 -14.4799)
(-1.41701e-16 -0 -14.3934)
(0 -0 -14.2876)
(0 -0 -14.1603)
(0 -0 -14.0071)
(-1.1348e-17 1.28216e-16 -13.8196)
(6.98462e-18 3.14272e-17 -13.5869)
(2.77159e-17 -3.86564e-16 -13.2964)
(-8.23301e-18 5.3228e-17 -12.9321)
(-1.53933e-16 4.14877e-16 -12.4922)
(-9.17912e-17 -4.86725e-16 -11.8691)
(4.08892e-16 3.91809e-16 -11.2427)
(1.01963e-15 9.25729e-16 -11.0595)
(6.1467e-17 -1.98626e-15 -11.5551)
(-3.63203e-16 -1.01991e-15 -12.6963)
(1.15946e-15 2.22052e-15 -14.4071)
(-3.23398e-16 1.20444e-16 -16.6476)
(-9.38823e-16 -1.67236e-15 -18.9059)
(2.09765e-16 -2.09979e-16 -21.0644)
(4.69568e-17 -3.00825e-16 -23.146)
(-1.2279e-15 5.95683e-17 -25.0774)
(1.01575e-15 2.44122e-15 -26.921)
(2.52586e-15 4.58159e-16 -28.6906)
(1.17721e-15 1.23393e-15 -30.3419)
(1.27728e-15 8.86437e-16 -31.9868)
(7.08566e-16 -2.17046e-16 -33.5411)
(-1.88877e-15 -9.51042e-16 -35.0107)
(-3.96006e-17 4.87884e-16 -36.3791)
(4.94219e-16 1.0193e-15 -37.6001)
(-7.49485e-16 -5.03515e-16 -38.7326)
(6.76134e-16 -3.11757e-16 -39.7333)
(6.64688e-16 -2.86589e-17 -40.7015)
(4.23871e-16 -1.09922e-16 -41.5166)
(1.46819e-16 1.19917e-16 -42.1643)
(-8.42187e-17 3.9696e-18 -42.6456)
(-8.58244e-17 1.26329e-16 -43.0512)
(-5.4267e-17 -2.34564e-16 -43.2292)
(-3.31046e-16 -2.58345e-17 -43.2581)
(2.58929e-16 4.7375e-16 -43.1116)
(-1.86021e-16 7.30023e-16 -42.7416)
(1.91933e-16 2.62427e-16 -42.2255)
(1.12732e-17 -1.10486e-15 -41.3983)
(1.91875e-16 -3.53391e-16 -40.5493)
(-3.15303e-16 7.46959e-16 -39.4575)
(-3.91256e-16 -3.2786e-17 -38.3382)
(1.03274e-15 -4.86936e-16 -37.0813)
(2.1992e-17 1.60984e-16 -35.7182)
(-1.43643e-15 4.51811e-16 -34.3819)
(7.60794e-16 4.66992e-16 -32.9391)
(1.84067e-16 1.38773e-15 -31.5023)
(1.22372e-15 -1.1619e-15 -30.07)
(1.5483e-16 -9.77843e-16 -28.6098)
(-7.83999e-17 6.20811e-17 -27.1669)
(-5.23553e-17 8.4648e-16 -25.7538)
(-6.22491e-16 -4.06379e-17 -24.3416)
(-1.73651e-15 7.55931e-16 -22.9541)
(2.33e-15 5.31009e-16 -21.6047)
(2.35068e-16 -7.84046e-16 -20.2841)
(-7.25475e-16 4.7598e-16 -19.001)
(1.89241e-16 -4.8247e-16 -17.7603)
(-1.06336e-16 -2.13451e-16 -16.5534)
(1.42843e-15 -6.20901e-16 -15.3999)
(4.94194e-16 -6.87511e-16 -14.3)
(6.793e-16 6.011e-16 -13.228)
(5.50321e-16 -1.12904e-15 -12.2204)
(1.15405e-15 -7.37346e-16 -11.2797)
(3.60386e-19 2.28729e-17 -10.3691)
(5.55369e-16 -6.62066e-16 -9.53011)
(2.20152e-16 1.44647e-16 -8.75635)
(-4.88014e-16 3.38139e-16 -8.02293)
(2.19332e-16 -6.21974e-16 -7.37895)
(-1.28493e-20 3.00104e-16 -6.76919)
(-4.85241e-16 2.29792e-16 -6.24005)
(2.18917e-16 5.9513e-16 -5.74483)
(3.24185e-17 2.48731e-16 -5.35359)
(-1.30934e-16 -7.44511e-16 -5.02647)
(-5.87806e-17 7.05637e-18 -4.77595)
(-8.04928e-17 1.75309e-16 -4.58783)
(-2.89671e-17 -1.1882e-16 -4.47275)
(2.72215e-17 -1.29661e-17 -4.43327)
(5.57045e-17 -1.63422e-17 -4.46506)
(1.08661e-16 3.05602e-17 -4.5689)
(-2.0634e-18 -2.77077e-16 -4.75147)
(6.77227e-16 3.94357e-16 -4.99924)
(-4.52155e-18 5.65969e-17 -5.32423)
(-4.2909e-16 7.37395e-17 -5.70575)
(-5.301e-17 4.10994e-16 -6.16325)
(-1.76149e-17 -5.91147e-16 -6.70308)
(2.48829e-16 4.28227e-16 -7.31936)
(2.06069e-16 1.60093e-16 -7.97892)
(-2.41641e-16 -4.42981e-16 -8.7185)
(-5.02016e-16 -2.90587e-16 -9.49562)
(1.89485e-17 -6.61107e-16 -10.3505)
(4.5828e-17 -7.86285e-16 -11.2692)
(-3.11266e-16 2.03582e-16 -12.2331)
(1.0574e-15 2.09801e-15 -13.266)
(-6.53259e-16 -2.97804e-16 -14.3563)
(-5.78416e-16 -1.14825e-15 -15.4888)
(4.51775e-16 4.39031e-16 -16.6803)
(7.1856e-16 4.90207e-16 -17.9236)
(5.22133e-16 -2.01296e-16 -19.2025)
(-1.59188e-15 -1.10565e-15 -20.5291)
(3.53939e-16 6.25628e-16 -21.8923)
(-2.04651e-16 -1.28548e-15 -23.2862)
(-1.60366e-16 5.55073e-17 -24.7155)
(1.39758e-15 6.51381e-16 -26.1704)
(5.06365e-16 2.90333e-16 -27.6061)
(1.41873e-15 6.18418e-16 -29.0826)
(6.97368e-16 1.60372e-15 -30.5572)
(9.63825e-16 5.51504e-16 -31.9592)
(4.79814e-17 -8.32994e-16 -33.3859)
(1.12163e-16 6.28357e-16 -34.7849)
(2.51026e-16 4.9095e-17 -36.0391)
(9.00829e-17 3.10119e-18 -37.3547)
(-4.16133e-17 -1.06349e-16 -38.4735)
(8.34242e-17 -8.88194e-17 -39.5192)
(7.67436e-17 -9.80842e-17 -40.4202)
(2.41007e-17 4.88323e-16 -41.1598)
(1.70807e-16 -5.28631e-16 -41.7658)
(3.9262e-17 2.05767e-16 -42.3481)
(-2.75857e-17 -6.27932e-17 -42.7242)
(-5.52812e-17 9.69341e-17 -42.9249)
(1.06044e-16 8.31176e-18 -42.8894)
(-6.80026e-17 1.77176e-17 -42.7459)
(4.70796e-17 1.22179e-17 -42.4224)
(-1.22275e-16 -1.94594e-16 -41.9556)
(-7.14668e-17 2.24255e-16 -41.2834)
(5.67945e-17 3.55056e-16 -40.4484)
(2.97402e-17 -1.11412e-16 -39.3515)
(-1.09501e-16 -6.8927e-17 -38.0588)
(3.73923e-16 -2.42893e-16 -36.5189)
(-2.3902e-16 -6.32252e-17 -34.8683)
(6.51564e-17 1.45953e-16 -32.9445)
(-4.60315e-16 -1.77615e-16 -30.8601)
(1.25798e-16 3.4738e-16 -28.5393)
(-6.3908e-16 8.03855e-16 -25.9486)
(3.05065e-16 -4.37352e-16 -22.4227)
(-9.32602e-17 -4.35908e-16 -19.688)
(8.70457e-18 2.81458e-16 -17.8501)
(-7.9813e-17 -7.45861e-17 -16.6591)
(-5.33749e-18 -3.22978e-17 -15.903)
(-5.57768e-17 1.17188e-17 -15.6045)
(5.87871e-17 5.67286e-17 -15.7122)
(-2.96915e-17 -1.9457e-17 -16.1711)
(-2.04378e-19 -2.85488e-18 -16.7883)
(-1.51626e-18 -2.78928e-18 -17.3273)
(1.89528e-18 2.56103e-18 -17.6914)
(3.22378e-18 2.18311e-17 -17.9085)
(-2.45166e-17 2.02375e-17 -18.0245)
(1.95978e-17 -6.15868e-17 -18.0724)
(9.45036e-19 7.28451e-18 -18.0717)
(2.31053e-17 -1.17452e-17 -18.0392)
(-2.05033e-17 6.56574e-17 -17.9826)
(2.24908e-20 -9.8028e-17 -17.9044)
(2.03499e-18 7.47964e-17 -17.8113)
(-1.56318e-18 -2.31351e-17 -17.7071)
(-4.29886e-19 -1.64007e-17 -17.595)
(7.01968e-18 2.92668e-17 -17.4768)
(-5.88664e-18 1.27629e-18 -17.3541)
(-6.50975e-18 1.46908e-17 -17.2283)
(5.97308e-18 -2.72471e-17 -17.1002)
(1.78842e-18 -1.0064e-17 -16.9709)
(5.65903e-19 2.27174e-17 -16.8411)
(-4.16931e-19 -1.98038e-17 -16.7115)
(-3.45999e-19 3.98693e-17 -16.5827)
(2.87235e-19 -3.28095e-17 -16.4552)
(1.68984e-18 1.48765e-17 -16.3295)
(-1.22908e-18 9.89883e-19 -16.2058)
(-2.48153e-18 -1.05873e-18 -16.0847)
(2.74374e-18 -6.02398e-18 -15.9665)
(7.33131e-22 1.0218e-17 -15.8515)
(1.17732e-19 -1.92428e-18 -15.7401)
(6.34547e-20 4.79631e-18 -15.6326)
(2.55414e-19 -3.17542e-19 -15.5291)
(5.52804e-21 2.0955e-20 -15.4271)
(1.98919e-20 2.55523e-18 -15.329)
(-2.48559e-20 8.42502e-18 5.31594)
(-2.74808e-19 -5.64296e-18 2.00352)
(5.21696e-19 -2.7852e-17 -1.59586)
(-2.78792e-19 1.96411e-17 -3.89307)
(1.84067e-17 2.22621e-17 -4.86097)
(-1.83385e-17 -1.68333e-17 -5.08365)
(0 -0 -5.02258)
(-3.78274e-17 3.3561e-17 -4.91373)
(3.88492e-17 -5.63593e-17 -4.82882)
(-3.48829e-17 -8.81741e-17 -4.77463)
(3.27195e-17 1.2321e-16 -4.73939)
(-4.54132e-19 1.20702e-16 -4.71663)
(1.91513e-18 -1.11729e-16 -4.7014)
(-1.39495e-16 -8.74224e-17 -4.69046)
(1.3351e-16 1.31554e-16 -4.68214)
(8.09717e-17 -1.09281e-16 -4.67552)
(-1.40688e-16 -4.25051e-17 -4.66978)
(6.20918e-17 1.51521e-16 -4.66436)
(3.45588e-18 -6.50771e-17 -4.65888)
(0 -0 -4.65312)
(1.34853e-16 -0 -4.64689)
(-1.34887e-16 -0 -4.63992)
(-8.57392e-18 1.26355e-16 -4.63187)
(-1.24526e-16 -8.52395e-17 -4.62248)
(1.42479e-16 -1.67569e-16 -4.61145)
(-9.32666e-18 1.26453e-16 -4.5981)
(0 -0 -4.58087)
(1.31035e-16 -0 -4.56092)
(-5.58643e-19 -0 -4.53775)
(-1.41618e-16 1.23804e-16 -4.51017)
(1.68563e-17 -8.63126e-17 -4.47669)
(2.71622e-16 -1.6158e-16 -4.43549)
(-4.15101e-16 1.16375e-16 -4.38739)
(2.4115e-16 -3.83878e-18 -4.35225)
(-1.72021e-17 2.60196e-16 -4.26101)
(-5.04244e-16 -5.34436e-16 -4.07122)
(7.54284e-16 -1.86529e-16 -3.93437)
(3.69783e-16 1.7874e-15 -4.05386)
(-8.89187e-16 -1.26651e-16 -4.49514)
(-2.06612e-16 -1.12453e-15 -5.22804)
(-1.47502e-16 -1.87412e-16 -6.15878)
(-1.48336e-15 5.0502e-17 -7.12484)
(1.26229e-16 6.98244e-16 -8.11114)
(1.13078e-15 7.95233e-16 -9.07894)
(-1.72284e-15 -1.6563e-15 -10.027)
(1.97615e-15 -1.96628e-15 -10.989)
(-5.07316e-16 2.94877e-16 -11.8902)
(-5.44308e-17 6.32583e-16 -12.6633)
(1.13537e-16 -3.02521e-16 -13.4084)
(-4.30111e-17 1.52108e-15 -14.1493)
(3.69104e-16 8.865e-16 -14.9252)
(1.87985e-16 -1.34813e-15 -15.632)
(2.80096e-17 -8.09514e-16 -16.2558)
(2.46221e-16 -4.08965e-16 -16.8253)
(-5.61062e-16 -2.46713e-16 -17.3793)
(-2.97961e-16 -7.83667e-18 -17.9282)
(-3.92425e-16 -1.49625e-16 -18.4734)
(-2.01778e-17 1.74241e-16 -19.0487)
(-1.08535e-16 2.22446e-16 -19.499)
(1.59542e-16 1.68703e-17 -19.9306)
(6.11195e-17 1.18927e-16 -20.322)
(-2.78595e-16 1.34559e-17 -20.7215)
(4.47224e-16 -4.52758e-16 -21.0718)
(3.82509e-16 -6.91562e-16 -21.2495)
(-2.38342e-16 -6.92042e-16 -21.3315)
(-4.85216e-16 8.5054e-16 -21.1951)
(-9.11864e-16 3.53425e-16 -20.9892)
(1.63303e-16 1.27482e-16 -20.6165)
(2.25531e-17 -2.16249e-16 -20.1442)
(-6.85476e-16 3.46422e-16 -19.5173)
(4.70663e-17 1.3278e-15 -18.7977)
(1.50973e-15 -7.70093e-16 -18.0781)
(-1.19561e-15 -1.10687e-15 -17.2587)
(1.97507e-15 -1.17985e-15 -16.404)
(7.00389e-16 -1.07145e-15 -15.503)
(-1.88679e-16 1.83415e-15 -14.5958)
(1.06481e-15 3.77094e-17 -13.6907)
(5.48904e-17 -8.53343e-17 -12.792)
(1.74497e-15 1.03457e-15 -11.8929)
(5.33595e-16 -1.77504e-15 -11.0063)
(4.32852e-16 -3.70634e-15 -10.153)
(-2.02784e-16 2.01049e-15 -9.3271)
(8.29872e-16 -5.32905e-17 -8.53536)
(5.53635e-16 -1.61931e-15 -7.78456)
(-6.67306e-16 4.91932e-16 -7.06922)
(1.10988e-15 -1.09075e-15 -6.39354)
(-1.86814e-15 3.87637e-16 -5.76399)
(-1.46198e-15 -5.14339e-16 -5.16965)
(-6.96778e-16 8.56656e-16 -4.62181)
(-1.23914e-16 4.31101e-16 -4.12379)
(1.14285e-17 7.25342e-16 -3.65762)
(2.33512e-17 3.24242e-16 -3.237)
(-2.40065e-16 2.35664e-16 -2.86215)
(2.86295e-16 -4.25464e-16 -2.51807)
(-6.65843e-18 -1.91893e-17 -2.22217)
(-8.94595e-17 2.8606e-16 -1.95245)
(4.88686e-17 -1.87972e-16 -1.7252)
(-3.65526e-17 -6.26379e-16 -1.52733)
(7.41754e-16 -4.03502e-18 -1.37256)
(6.51161e-17 3.61563e-16 -1.2414)
(-5.41548e-17 9.71519e-18 -1.14183)
(8.17079e-17 -1.1043e-16 -1.06739)
(1.45058e-18 6.37182e-17 -1.01882)
(-3.53536e-19 -5.41707e-17 -0.996965)
(-1.75051e-18 -1.16198e-16 -0.998497)
(-1.03085e-16 -4.79679e-17 -1.02519)
(-1.1481e-16 -1.56156e-16 -1.07777)
(-4.18975e-16 -1.72661e-16 -1.15471)
(6.64995e-16 7.37316e-16 -1.25962)
(-4.73952e-16 -3.64677e-16 -1.39048)
(4.85994e-16 -1.61786e-16 -1.54803)
(-6.40702e-18 2.88507e-16 -1.73866)
(1.23634e-17 -2.98648e-16 -1.9663)
(6.05364e-17 2.20183e-16 -2.22799)
(-3.23008e-17 4.06964e-16 -2.52926)
(-4.04662e-18 -3.27578e-16 -2.85922)
(2.25837e-16 7.58673e-16 -3.23136)
(8.30145e-17 9.63824e-16 -3.64285)
(-1.16421e-15 -1.69261e-15 -4.08955)
(-3.47249e-16 -5.25654e-16 -4.58003)
(1.00402e-15 1.68373e-15 -5.10823)
(3.18061e-16 -1.00048e-15 -5.66968)
(-2.38309e-16 -6.86675e-16 -6.28329)
(-6.14547e-16 -5.68336e-16 -6.93224)
(-8.37712e-17 8.62781e-16 -7.60395)
(-1.04198e-15 4.08217e-16 -8.31908)
(6.54293e-16 -9.75069e-16 -9.05927)
(-8.68045e-16 9.62154e-17 -9.82056)
(-5.32723e-16 -2.08399e-15 -10.6087)
(-7.51562e-16 -1.2763e-15 -11.4124)
(-2.07502e-16 2.1772e-17 -12.2105)
(-6.03241e-16 -5.12086e-16 -13.0399)
(-3.61812e-16 -1.37435e-15 -13.8348)
(1.00626e-15 4.01619e-16 -14.6067)
(-8.15565e-16 1.65446e-16 -15.3609)
(8.7584e-18 -3.26174e-16 -16.0535)
(3.23965e-17 -2.82695e-16 -16.6598)
(-1.84047e-16 -6.62364e-18 -17.2991)
(-4.04855e-17 8.5913e-17 -17.8884)
(-2.06384e-16 -3.5609e-17 -18.3786)
(1.15396e-16 4.60641e-16 -18.7594)
(8.65591e-16 1.71409e-17 -19.0673)
(-8.42803e-17 6.38474e-17 -19.3198)
(8.09121e-18 2.639e-16 -19.5742)
(-1.86773e-16 3.18369e-16 -19.7869)
(2.27293e-17 -2.36558e-16 -19.8985)
(7.12227e-17 -1.457e-16 -19.9546)
(-9.13092e-17 1.65273e-16 -19.9819)
(1.13347e-16 -4.06121e-17 -20.0129)
(-1.69637e-16 3.57695e-16 -20.0712)
(7.92189e-17 -1.45731e-16 -20.0046)
(1.0764e-16 -5.55635e-16 -19.8625)
(-2.51981e-16 -2.06327e-16 -19.5375)
(8.5569e-17 1.55249e-16 -19.1455)
(-2.80677e-16 -2.88865e-16 -18.6271)
(-9.12819e-17 5.31728e-16 -17.983)
(3.81593e-16 -9.38805e-17 -17.1177)
(-1.09455e-16 2.57453e-16 -16.2012)
(-2.555e-17 -5.95618e-17 -15.2435)
(5.56039e-16 -9.90093e-17 -14.0741)
(1.06208e-16 -2.80288e-16 -11.9083)
(-2.57359e-16 3.73126e-16 -9.78719)
(4.52286e-17 4.10635e-18 -8.16697)
(4.73856e-17 6.0393e-17 -7.06148)
(-3.30348e-17 1.21652e-18 -6.30643)
(-2.47887e-17 4.23811e-17 -5.8422)
(-1.4449e-17 -1.34466e-16 -5.56696)
(3.12192e-17 4.09644e-17 -5.52393)
(2.58716e-17 1.88993e-18 -5.67004)
(3.10514e-18 2.18522e-17 -5.87723)
(-2.30281e-17 4.4981e-17 -6.05454)
(2.23012e-18 -2.33641e-17 -6.1743)
(4.33133e-17 2.6517e-18 -6.24249)
(-4.42786e-17 1.44989e-18 -6.27256)
(-2.08165e-18 -2.19676e-17 -6.2751)
(-2.01036e-17 -3.76583e-17 -6.25812)
(3.86953e-17 8.45283e-17 -6.22745)
(-2.15658e-17 1.65624e-17 -6.18647)
(1.03725e-18 -6.59852e-17 -6.13788)
(1.10339e-18 1.61108e-17 -6.08358)
(-1.00075e-17 2.72082e-18 -6.02531)
(7.92797e-18 4.0322e-18 -5.96423)
(2.29637e-18 2.07355e-17 -5.90093)
(1.11388e-17 -1.04948e-17 -5.83626)
(-1.08598e-17 -2.72279e-17 -5.77042)
(-6.17381e-18 -8.16341e-19 -5.70377)
(7.03137e-18 -1.00377e-18 -5.63678)
(-4.9365e-18 3.19229e-18 -5.56983)
(4.78659e-18 -8.92548e-19 -5.50323)
(-1.5638e-18 -4.06789e-18 -5.43719)
(2.68166e-18 -9.85901e-18 -5.37184)
(1.76253e-18 1.12197e-17 -5.30734)
(-1.43626e-18 8.8142e-18 -5.24383)
(2.50861e-19 -1.48987e-17 -5.18144)
(7.23565e-20 1.12594e-18 -5.12028)
(-4.18469e-19 -3.00185e-18 -5.06049)
(1.12812e-19 -5.38679e-18 -5.00225)
(1.70562e-19 -2.35925e-18 -4.94573)
(1.98544e-19 2.79497e-18 -4.89112)
(2.43221e-20 -2.63816e-18 -4.82038)
(0 -0 3.59787)
(8.97426e-18 -0 2.45648)
(-8.78636e-18 -1.67773e-17 1.12037)
(3.59917e-19 1.12226e-17 -0.324193)
(-6.06788e-19 2.23984e-17 -1.02545)
(2.48465e-19 -1.68437e-17 -1.27485)
(3.55945e-17 -0 -1.32543)
(-3.56771e-17 -0 -1.30594)
(3.33261e-19 -0 -1.28352)
(-6.96868e-19 -0 -1.26361)
(-7.28414e-17 6.61281e-17 -1.24978)
(7.3405e-17 -4.40614e-17 -1.24237)
(7.03693e-17 -2.26462e-17 -1.23894)
(1.7937e-18 -4.27022e-17 -1.23709)
(-4.43261e-19 -4.43218e-17 -1.23561)
(-7.73332e-17 2.17655e-16 -1.23454)
(-6.3763e-17 -1.08116e-16 -1.23376)
(7.26147e-17 -8.66804e-17 -1.23316)
(-3.4382e-18 6.47442e-17 -1.23259)
(7.51289e-17 -1.27187e-16 -1.23188)
(-7.52203e-17 8.37108e-17 -1.23139)
(-8.1686e-18 1.70695e-16 -1.23111)
(-2.62422e-19 -1.66388e-18 -1.23091)
(1.01186e-17 -8.2613e-17 -1.23073)
(1.39756e-16 -1.68546e-16 -1.23056)
(-1.41458e-16 1.25605e-16 -1.23027)
(-1.21163e-16 -1.23586e-16 -1.22973)
(1.86733e-18 -4.11849e-17 -1.22902)
(2.3981e-16 2.47305e-16 -1.22822)
(-1.42235e-16 1.63015e-16 -1.22727)
(3.39503e-17 -3.27578e-16 -1.22734)
(-1.26339e-16 -7.94869e-17 -1.22844)
(1.12712e-16 1.70087e-16 -1.23315)
(1.22728e-16 -3.59963e-17 -1.23886)
(-1.55756e-16 2.69285e-16 -1.24099)
(2.84476e-16 -1.76795e-16 -1.21677)
(-9.96998e-16 -7.89133e-16 -1.17535)
(-9.64521e-16 -9.73502e-16 -1.19831)
(1.16266e-15 5.74311e-16 -1.33519)
(4.68175e-16 1.06463e-15 -1.58829)
(-1.59865e-16 1.43117e-15 -1.90324)
(1.00214e-15 -2.63033e-16 -2.25)
(5.49857e-16 -2.92377e-15 -2.6243)
(-1.00921e-15 3.09861e-16 -3.00393)
(4.73122e-16 1.55647e-15 -3.36982)
(-1.12148e-15 -4.51779e-16 -3.74779)
(-8.79824e-16 1.1151e-16 -4.16841)
(-5.16802e-16 -2.9114e-16 -4.52757)
(-8.43753e-16 -6.50037e-17 -4.81429)
(-5.05125e-16 -1.34905e-15 -5.1292)
(1.38783e-15 2.07365e-16 -5.43454)
(-6.85247e-16 7.66186e-16 -5.73281)
(-3.254e-17 9.51241e-16 -6.02337)
(-8.7179e-16 -4.4836e-17 -6.27816)
(-8.47443e-17 2.02417e-16 -6.54784)
(-6.45255e-18 -1.82861e-16 -6.82313)
(-5.35345e-16 -3.00267e-16 -7.11205)
(-1.42662e-16 -1.68209e-16 -7.41863)
(5.60397e-18 -7.36236e-17 -7.70243)
(7.70781e-17 -7.85926e-17 -8.0158)
(-1.61961e-16 3.27471e-17 -8.28536)
(3.17126e-16 -1.86162e-16 -8.60906)
(-4.68272e-16 -1.2962e-16 -8.88369)
(1.80526e-16 8.42838e-16 -9.09055)
(-6.22886e-16 1.29528e-15 -9.26539)
(8.49625e-16 -4.22709e-16 -9.34569)
(-1.9719e-16 -2.1814e-16 -9.37588)
(1.46932e-16 -1.5836e-16 -9.30257)
(-5.53357e-16 6.41865e-16 -9.14995)
(5.06986e-16 1.7584e-16 -8.92694)
(2.54887e-16 -1.44999e-15 -8.63033)
(3.40195e-16 -1.34172e-16 -8.29534)
(-3.39022e-16 1.04783e-15 -7.91722)
(-2.87002e-16 -1.48764e-15 -7.44653)
(-9.57065e-16 1.45234e-15 -6.95222)
(4.24801e-17 -7.44373e-16 -6.51162)
(5.57649e-16 -1.00975e-15 -6.05168)
(1.21565e-17 -1.4069e-16 -5.56677)
(1.33896e-15 -2.1236e-15 -5.07028)
(1.20011e-15 -6.03253e-16 -4.59607)
(-2.89732e-15 3.4583e-15 -4.15688)
(-5.05379e-16 6.12648e-17 -3.73586)
(5.47519e-16 -1.5933e-15 -3.33773)
(-7.24308e-16 1.22804e-15 -2.9667)
(5.25144e-19 -7.59945e-16 -2.62086)
(-1.4236e-15 1.99792e-15 -2.30193)
(1.52023e-15 2.79446e-15 -2.01339)
(1.23596e-16 3.06798e-16 -1.74832)
(-4.09361e-16 -1.61151e-15 -1.5102)
(-1.69362e-15 1.98892e-16 -1.30014)
(-2.67069e-16 1.44699e-16 -1.1108)
(1.34058e-17 5.35628e-18 -0.945169)
(2.78714e-16 -1.09232e-16 -0.802544)
(-3.89205e-17 -3.17311e-16 -0.676736)
(-4.8872e-16 1.23019e-16 -0.572011)
(-1.97584e-17 2.90712e-16 -0.480644)
(2.32138e-16 -1.30101e-16 -0.406329)
(-7.20603e-16 -4.50093e-17 -0.343816)
(-4.13387e-16 4.69472e-17 -0.295392)
(-2.15434e-17 2.25507e-16 -0.255999)
(1.08308e-16 -3.66358e-17 -0.226539)
(-1.06204e-16 8.67124e-17 -0.204951)
(6.72391e-17 -1.89477e-17 -0.190588)
(-7.71582e-19 -1.18085e-17 -0.183415)
(1.32792e-18 1.10582e-16 -0.182474)
(-2.30252e-16 1.6468e-16 -0.187869)
(-5.67282e-18 1.66512e-16 -0.200151)
(-2.33089e-16 -6.59929e-16 -0.218854)
(-1.74446e-16 -2.09292e-16 -0.245432)
(4.05839e-16 7.72795e-16 -0.279795)
(-1.03233e-17 -2.63806e-16 -0.32304)
(5.91117e-18 -1.22098e-17 -0.376421)
(3.34227e-18 2.79247e-16 -0.4419)
(-2.72955e-16 -2.92182e-17 -0.519772)
(4.47081e-16 -7.02655e-17 -0.613088)
(1.1282e-17 -2.35526e-16 -0.719468)
(-6.85394e-16 -1.43414e-15 -0.843692)
(5.0229e-16 6.9557e-16 -0.985742)
(8.79577e-16 2.43466e-15 -1.14564)
(-7.10607e-16 -1.36067e-15 -1.32669)
(1.16426e-15 -8.62638e-16 -1.5281)
(-7.50132e-16 3.62864e-16 -1.74845)
(-6.01079e-16 1.26761e-15 -1.99084)
(-3.73054e-16 2.86719e-16 -2.25901)
(-7.75916e-16 -8.33529e-16 -2.54312)
(1.71712e-15 6.07711e-16 -2.84902)
(-1.30168e-16 5.02619e-17 -3.17361)
(4.83573e-16 8.92032e-16 -3.51243)
(-6.1935e-16 8.40289e-16 -3.86674)
(-9.51973e-16 -1.49865e-16 -4.23104)
(-5.43421e-16 -3.35498e-16 -4.58941)
(-5.82009e-17 6.26948e-17 -4.99856)
(-8.64663e-16 2.30867e-16 -5.37188)
(-6.07954e-16 -8.55003e-16 -5.7008)
(-9.36373e-17 3.74339e-16 -6.06233)
(-1.38712e-16 -1.53908e-16 -6.378)
(-5.30098e-16 -6.40898e-17 -6.65533)
(-2.56392e-16 3.4141e-16 -6.90379)
(1.71105e-16 -5.96658e-17 -7.13876)
(-2.15036e-17 1.55271e-16 -7.34233)
(4.25172e-16 -1.42843e-15 -7.49956)
(-1.45393e-16 -6.37466e-16 -7.62106)
(-4.06476e-17 -7.61526e-17 -7.72239)
(2.26743e-16 2.59492e-16 -7.81327)
(2.99864e-16 1.56892e-16 -7.92002)
(1.1204e-16 -4.76949e-17 -8.00871)
(-1.05157e-16 5.93384e-18 -8.12895)
(7.01135e-17 1.64962e-16 -8.17726)
(-5.62456e-17 -9.56906e-17 -8.27141)
(2.69205e-16 1.42977e-16 -8.34441)
(1.08272e-17 -2.67466e-16 -8.38652)
(-2.49564e-16 2.81856e-16 -8.42219)
(4.98994e-17 4.03877e-16 -8.38934)
(3.53437e-17 -2.41531e-16 -8.3258)
(-9.95833e-17 4.99286e-16 -8.19125)
(1.12079e-16 -2.33924e-16 -8.01007)
(-3.5845e-16 -2.96724e-16 -7.68833)
(3.05183e-16 9.9735e-17 -7.39684)
(-2.46969e-17 -1.7347e-16 -7.07224)
(-1.1452e-16 -3.04564e-16 -6.52135)
(-1.52264e-16 2.13208e-16 -5.52061)
(1.37573e-16 -4.32107e-17 -4.36964)
(2.90588e-17 -5.9909e-17 -3.39236)
(1.01844e-16 -1.17561e-16 -2.68623)
(-2.02507e-17 5.40994e-17 -2.20145)
(3.30748e-17 1.82519e-17 -1.88982)
(-7.73877e-17 2.96918e-17 -1.68306)
(-6.27379e-18 -8.6523e-17 -1.59763)
(6.91006e-18 -3.2984e-17 -1.61119)
(2.76175e-17 3.44351e-17 -1.66824)
(-3.49105e-18 5.05539e-17 -1.73132)
(-7.96059e-18 -4.47945e-17 -1.78173)
(-3.84777e-18 -3.16851e-17 -1.81522)
(3.52454e-18 7.18523e-17 -1.83283)
(4.62275e-18 -9.3037e-18 -1.83781)
(-4.35014e-17 3.75782e-18 -1.83367)
(3.60886e-17 -1.59557e-17 -1.82305)
(1.77944e-17 -3.67936e-17 -1.80778)
(-1.27163e-17 6.52618e-17 -1.78882)
(-4.60356e-18 -1.2752e-17 -1.76714)
(9.49411e-18 6.46135e-18 -1.74397)
(-7.00994e-18 -3.04315e-18 -1.72028)
(4.72551e-19 -1.13766e-17 -1.69538)
(5.78653e-18 -1.82251e-17 -1.67066)
(-1.19233e-17 3.07934e-17 -1.64532)
(9.16645e-19 -1.19964e-19 -1.61926)
(-1.77472e-18 -7.28391e-18 -1.5928)
(-1.42751e-18 4.48582e-18 -1.56611)
(3.49419e-18 2.0614e-17 -1.53991)
(-4.27788e-18 -2.81567e-17 -1.51412)
(-3.93288e-18 -3.81849e-18 -1.48865)
(4.07151e-18 -9.76825e-18 -1.46353)
(-1.37466e-18 1.20438e-17 -1.43877)
(-1.24444e-18 -1.19792e-17 -1.41443)
(4.92848e-20 1.28884e-17 -1.39045)
(8.05835e-19 4.98369e-18 -1.36664)
(-6.84407e-19 5.23279e-18 -1.34349)
(-7.42044e-20 -3.2836e-18 -1.32117)
(2.29286e-19 -8.40284e-18 -1.30196)
(-1.06566e-19 1.88497e-19 -1.25672)
(0 -0 2.4521)
(0 -0 1.84702)
(1.50191e-19 -1.69693e-17 1.117)
(4.0072e-19 1.14298e-17 0.4799)
(-7.13121e-19 2.25196e-17 -0.00648003)
(8.46393e-19 -5.06449e-17 -0.221764)
(3.52802e-17 2.25216e-17 -0.297351)
(-7.31189e-17 7.83816e-17 -0.311526)
(3.81116e-17 -8.94681e-17 -0.306206)
(8.92111e-20 -2.24666e-17 -0.296677)
(-2.04878e-18 7.81141e-17 -0.291163)
(7.13285e-17 -3.34178e-17 -0.289404)
(-1.37612e-16 -6.57141e-17 -0.288532)
(1.39571e-16 -2.1986e-17 -0.288228)
(-1.47548e-16 1.96309e-16 -0.288174)
(7.23545e-17 -2.09388e-17 -0.288305)
(6.39086e-18 -1.52812e-16 -0.288445)
(-3.4459e-18 6.51423e-17 -0.288615)
(3.58514e-18 -6.3958e-17 -0.288791)
(6.40213e-17 4.18655e-17 -0.288966)
(-7.20382e-17 8.60532e-17 -0.289131)
(4.49739e-18 -6.39607e-17 -0.289262)
(-1.41853e-16 1.25593e-16 -0.289398)
(1.50967e-16 -2.06989e-16 -0.289505)
(5.86972e-19 -8.76209e-17 -0.289618)
(-2.89249e-17 4.17948e-16 -0.28989)
(8.23779e-18 -8.26949e-17 -0.291353)
(2.86636e-17 -3.70397e-16 -0.292304)
(-1.36153e-16 3.86711e-17 -0.292792)