/*--------------------------------*- C++ -*----------------------------------*\
| =========                 |                                                 |
| \\      /  F ield         | OpenFOAM: The Open Source CFD Toolbox           |
|  \\    /   O peration     | Version:  2506                                  |
|   \\  /    A nd           | Website:  www.openfoam.com                      |
|    \\/     M anipulation  |                                                 |
\*---------------------------------------------------------------------------*/
FoamFile
{
    version     2.0;
    format      ascii;
    arch        "LSB;label=32;scalar=64";
    class       surfaceScalarField;
    location    "4.1";
    object      phi;
}
// * * * * * * * * * * * * * * * * * * * * * * * * * * * * * * * * * * * * * //

dimensions      [0 3 -1 0 0 0 0];

oriented        oriented;

internalField   nonuniform List<scalar> 
7780
(
6.71284e-10
-6.71284e-10
1.18361e-09
-5.12328e-10
1.48768e-09
-3.04065e-10
1.6884e-09
-2.00722e-10
1.82705e-09
-1.38647e-10
1.92531e-09
-9.82617e-11
1.99869e-09
-7.33826e-11
2.05664e-09
-5.79534e-11
2.10441e-09
-4.77663e-11
2.14502e-09
-4.06135e-11
2.18037e-09
-3.53413e-11
2.21165e-09
-3.12848e-11
2.2397e-09
-2.80455e-11
2.26508e-09
-2.53807e-11
2.28821e-09
-2.31373e-11
2.30943e-09
-2.1215e-11
2.32898e-09
-1.95476e-11
2.34707e-09
-1.80925e-11
2.36389e-09
-1.68252e-11
2.37963e-09
-1.57358e-11
2.39446e-09
-1.48269e-11
2.40857e-09
-1.41133e-11
2.42219e-09
-1.36237e-11
2.4356e-09
-1.3404e-11
2.44912e-09
-1.35247e-11
2.46322e-09
-1.40929e-11
2.47849e-09
-1.52754e-11
2.49583e-09
-1.73435e-11
2.51657e-09
-2.07394e-11
2.54277e-09
-2.61961e-11
2.56805e-09
-7.02492e-11
2.55022e-09
-2.99355e-10
2.48478e-09
-5.95116e-10
2.38399e-09
-8.6894e-10
2.25796e-09
-1.10644e-09
2.12708e-09
-1.32373e-09
2.00625e-09
-1.53142e-09
1.84845e-09
-1.78459e-09
1.67021e-09
-1.94744e-09
1.52129e-09
-2.02114e-09
1.40122e-09
-2.08052e-09
1.31064e-09
-2.12972e-09
1.2432e-09
-2.16458e-09
1.19393e-09
-2.187e-09
1.15852e-09
-2.19782e-09
1.13201e-09
-2.19627e-09
1.1127e-09
-2.18195e-09
1.09589e-09
-2.15524e-09
1.07818e-09
-2.1147e-09
1.05572e-09
-2.05804e-09
1.0276e-09
-1.98161e-09
1.00124e-09
-1.8818e-09
9.70885e-10
-1.76167e-09
9.53967e-10
-1.60527e-09
9.60128e-10
-1.41428e-09
1.01513e-09
-1.16857e-09
1.12297e-09
-8.73317e-10
1.29487e-09
-4.93915e-10
1.50338e-09
-5.31537e-11
1.70075e-09
3.99445e-10
1.86361e-09
8.15217e-10
1.99133e-09
1.19145e-09
2.08603e-09
1.44417e-09
2.16501e-09
1.66119e-09
2.23021e-09
1.80169e-09
2.28857e-09
1.91506e-09
2.34231e-09
2.00321e-09
2.39226e-09
2.06421e-09
2.43966e-09
2.11087e-09
2.48462e-09
2.14631e-09
2.52811e-09
2.17248e-09
2.57008e-09
2.18816e-09
2.61083e-09
2.19522e-09
2.65071e-09
2.19462e-09
2.68989e-09
2.1865e-09
2.72858e-09
2.17041e-09
2.76684e-09
2.14553e-09
2.80462e-09
2.10521e-09
2.84212e-09
2.05603e-09
2.87905e-09
1.99282e-09
2.91583e-09
1.90999e-09
2.9503e-09
1.78464e-09
2.9833e-09
1.64562e-09
3.01165e-09
1.43763e-09
3.03469e-09
1.19418e-09
3.04607e-09
8.38393e-10
3.04452e-09
4.46979e-10
3.02528e-09
1.09329e-11
2.98808e-09
-4.43778e-10
2.93639e-09
-8.4782e-10
2.88285e-09
-1.16553e-09
2.8332e-09
-1.44565e-09
2.79611e-09
-1.64283e-09
2.7712e-09
-1.81763e-09
2.75906e-09
-1.93505e-09
2.75613e-09
-2.02798e-09
2.75623e-09
-2.10281e-09
2.75385e-09
-2.14671e-09
2.74535e-09
-2.17565e-09
2.72716e-09
-2.1913e-09
2.69704e-09
-2.19613e-09
2.65676e-09
-2.19497e-09
2.60959e-09
-2.18864e-09
2.55643e-09
-2.17543e-09
2.49851e-09
-2.15577e-09
2.43726e-09
-2.12921e-09
2.37281e-09
-2.09341e-09
2.30339e-09
-2.04146e-09
2.22859e-09
-1.97085e-09
2.1472e-09
-1.88633e-09
2.0579e-09
-1.77903e-09
1.96589e-09
-1.61863e-09
1.87123e-09
-1.44676e-09
1.78944e-09
-1.19252e-09
1.72821e-09
-9.09542e-10
1.70514e-09
-5.46234e-10
1.72696e-09
-1.22613e-10
1.77753e-09
3.06463e-10
1.83934e-09
7.12413e-10
1.90133e-09
1.09154e-09
1.95405e-09
1.36882e-09
2.0009e-09
1.5937e-09
2.04331e-09
1.75129e-09
2.08431e-09
1.88579e-09
2.12397e-09
1.97331e-09
2.16291e-09
2.04189e-09
2.20195e-09
2.09771e-09
2.24112e-09
2.1379e-09
2.28031e-09
2.16507e-09
2.31987e-09
2.18316e-09
2.35997e-09
2.19321e-09
2.4009e-09
2.1955e-09
2.44281e-09
2.19012e-09
2.48573e-09
2.17541e-09
2.53044e-09
2.15218e-09
2.57671e-09
2.12e-09
2.62513e-09
2.07661e-09
2.67605e-09
2.02039e-09
2.72856e-09
1.93483e-09
2.78376e-09
1.83683e-09
2.84081e-09
1.71327e-09
2.89715e-09
1.52262e-09
2.95273e-09
1.31416e-09
3.00082e-09
1.00172e-09
3.03924e-09
6.40512e-10
3.06139e-09
2.24925e-10
3.06356e-09
-2.31242e-10
3.04528e-09
-6.67417e-10
3.01712e-09
-1.02156e-09
2.98679e-09
-1.32408e-09
2.96236e-09
-1.56261e-09
2.94746e-09
-1.74588e-09
2.94287e-09
-1.88075e-09
2.94527e-09
-1.99843e-09
2.95217e-09
-2.0737e-09
2.95724e-09
-2.12719e-09
2.95559e-09
-2.1629e-09
2.94444e-09
-2.18707e-09
2.92122e-09
-2.19603e-09
2.87578e-09
-2.18602e-09
2.81033e-09
-2.17072e-09
2.73626e-09
-2.15951e-09
2.65683e-09
-2.1442e-09
2.56852e-09
-1.7089e-09
2.47769e-09
-1.485e-09
2.38481e-09
-1.29728e-09
2.2966e-09
-1.05621e-09
2.22566e-09
-7.99047e-10
2.17857e-09
-5.02375e-10
2.1608e-09
-1.96381e-10
2.16188e-09
-1.0041e-11
2.16097e-09
9.01576e-13
2.15889e-09
2.0792e-12
2.15638e-09
2.51102e-12
2.15423e-09
2.15287e-12
2.15289e-09
1.33766e-12
2.15246e-09
4.32147e-13
2.1528e-09
-3.40166e-13
2.15367e-09
-8.65471e-13
2.15462e-09
-9.54299e-13
2.15521e-09
-5.86435e-13
2.15512e-09
8.18719e-14
2.15413e-09
9.93328e-13
2.15208e-09
2.05455e-12
2.14881e-09
3.26894e-12
2.14425e-09
4.55701e-12
2.13833e-09
5.91828e-12
2.13094e-09
7.3967e-12
2.12185e-09
9.0889e-12
2.11069e-09
1.11579e-11
2.09682e-09
1.3864e-11
2.07918e-09
1.76416e-11
2.05589e-09
2.32887e-11
2.02347e-09
3.24287e-11
1.97485e-09
4.8616e-11
1.895e-09
7.98517e-11
1.75083e-09
1.4417e-10
1.46652e-09
2.84307e-10
8.77677e-10
5.88844e-10
8.77677e-10
-3.57911e-11
-6.35493e-10
1.53535e-10
-7.01655e-10
4.0194e-10
-5.5247e-10
6.19732e-10
-4.18514e-10
7.99845e-10
-3.18761e-10
9.48284e-10
-2.46701e-10
1.07131e-09
-1.96405e-10
1.17458e-09
-1.61231e-10
1.26257e-09
-1.35749e-10
1.3385e-09
-1.16546e-10
1.40474e-09
-1.01576e-10
1.463e-09
-8.95506e-11
1.51459e-09
-7.96314e-11
1.56047e-09
-7.12651e-11
1.60141e-09
-6.4079e-11
1.63801e-09
-5.78162e-11
1.67077e-09
-5.23007e-11
1.70009e-09
-4.74156e-11
1.72636e-09
-4.30914e-11
1.74992e-09
-3.92977e-11
1.77113e-09
-3.60398e-11
1.79038e-09
-3.33571e-11
1.80808e-09
-3.1327e-11
1.82475e-09
-3.00727e-11
1.841e-09
-2.97792e-11
1.85763e-09
-3.07172e-11
1.87564e-09
-3.32846e-11
1.89637e-09
-3.8079e-11
1.92168e-09
-4.6045e-11
1.95412e-09
-5.86401e-11
1.98725e-09
-1.03374e-10
1.97909e-09
-2.91201e-10
1.92131e-09
-5.37339e-10
1.82628e-09
-7.73904e-10
1.70713e-09
-9.87287e-10
1.5816e-09
-1.1982e-09
1.45817e-09
-1.40799e-09
1.3082e-09
-1.63462e-09
1.15038e-09
-1.78961e-09
1.01983e-09
-1.89059e-09
9.17458e-10
-1.97815e-09
8.39985e-10
-2.05225e-09
7.8258e-10
-2.10718e-09
7.40848e-10
-2.14527e-09
7.1012e-10
-2.16709e-09
6.85689e-10
-2.17184e-09
6.64494e-10
-2.16075e-09
6.41939e-10
-2.13268e-09
6.1417e-10
-2.08693e-09
5.78376e-10
-2.02225e-09
5.33946e-10
-1.93718e-09
4.85212e-10
-1.83307e-09
4.30604e-10
-1.70706e-09
3.82853e-10
-1.55752e-09
3.52376e-10
-1.3838e-09
3.61707e-10
-1.1779e-09
4.26146e-10
-9.37756e-10
5.7384e-10
-6.41609e-10
8.07382e-10
-2.86695e-10
1.09607e-09
1.10761e-10
1.39288e-09
5.18402e-10
1.66059e-09
9.23748e-10
1.86743e-09
1.23733e-09
2.02727e-09
1.50135e-09
2.14528e-09
1.68368e-09
2.23609e-09
1.82425e-09
2.30935e-09
1.92994e-09
2.37092e-09
2.00265e-09
2.42524e-09
2.05655e-09
2.47444e-09
2.09712e-09
2.52052e-09
2.1264e-09
2.56407e-09
2.14462e-09
2.60571e-09
2.15357e-09
2.646e-09
2.15433e-09
2.68521e-09
2.14728e-09
2.72364e-09
2.13198e-09
2.76135e-09
2.10781e-09
2.79824e-09
2.06832e-09
2.83451e-09
2.01976e-09
2.86981e-09
1.95752e-09
2.90443e-09
1.87537e-09
2.93594e-09
1.75313e-09
2.96499e-09
1.61656e-09
2.98786e-09
1.41476e-09
3.00347e-09
1.17857e-09
3.00485e-09
8.37014e-10
2.99152e-09
4.60302e-10
2.96189e-09
4.05702e-11
2.92191e-09
-4.03802e-10
2.88013e-09
-8.06035e-10
2.8472e-09
-1.1326e-09
2.82658e-09
-1.42503e-09
2.82139e-09
-1.63764e-09
2.82694e-09
-1.82318e-09
2.83832e-09
-1.94643e-09
2.84765e-09
-2.03731e-09
2.85049e-09
-2.10565e-09
2.84281e-09
-2.13903e-09
2.82203e-09
-2.15487e-09
2.78758e-09
-2.15685e-09
2.74255e-09
-2.1511e-09
2.69011e-09
-2.14254e-09
2.63089e-09
-2.12941e-09
2.56552e-09
-2.11005e-09
2.49536e-09
-2.08561e-09
2.42051e-09
-2.05436e-09
2.33999e-09
-2.01289e-09
2.25198e-09
-1.95345e-09
2.15607e-09
-1.87494e-09
2.05063e-09
-1.78089e-09
1.93627e-09
-1.66466e-09
1.81868e-09
-1.50104e-09
1.70016e-09
-1.32824e-09
1.59384e-09
-1.0862e-09
1.50781e-09
-8.23509e-10
1.45794e-09
-4.9637e-10
1.45887e-09
-1.23544e-10
1.50957e-09
2.55766e-10
1.59891e-09
6.23072e-10
1.70785e-09
9.82601e-10
1.81056e-09
1.26611e-09
1.8992e-09
1.50506e-09
1.97199e-09
1.6785e-09
2.03379e-09
1.82399e-09
2.08707e-09
1.92004e-09
2.13489e-09
1.99407e-09
2.17989e-09
2.05271e-09
2.22313e-09
2.09466e-09
2.2651e-09
2.1231e-09
2.30653e-09
2.14173e-09
2.34783e-09
2.15191e-09
2.38945e-09
2.15388e-09
2.43161e-09
2.14796e-09
2.47438e-09
2.13265e-09
2.51856e-09
2.108e-09
2.56392e-09
2.07464e-09
2.61102e-09
2.0295e-09
2.66014e-09
1.97127e-09
2.71017e-09
1.8848e-09
2.76207e-09
1.78492e-09
2.81477e-09
1.66057e-09
2.86506e-09
1.47232e-09
2.91255e-09
1.26667e-09
2.94972e-09
9.64541e-10
2.97473e-09
6.15503e-10
2.98338e-09
2.16271e-10
2.97806e-09
-2.2592e-10
2.96577e-09
-6.5513e-10
2.9579e-09
-1.01369e-09
2.95847e-09
-1.32464e-09
2.97095e-09
-1.57509e-09
2.99245e-09
-1.76739e-09
3.01857e-09
-1.90687e-09
3.04183e-09
-2.0217e-09
3.0562e-09
-2.08807e-09
3.05873e-09
-2.12972e-09
3.04645e-09
-2.15062e-09
3.01831e-09
-2.15894e-09
2.97631e-09
-2.15403e-09
2.91622e-09
-2.12591e-09
2.83891e-09
-2.09341e-09
2.74935e-09
-2.06995e-09
2.64629e-09
-2.04113e-09
2.54573e-09
-1.60835e-09
2.44269e-09
-1.38196e-09
2.33907e-09
-1.19367e-09
2.23858e-09
-9.55725e-10
2.15166e-09
-7.12129e-10
2.08359e-09
-4.34308e-10
2.03999e-09
-1.52781e-10
2.01461e-09
1.53386e-11
1.99184e-09
2.3676e-11
1.97025e-09
2.36652e-11
1.95039e-09
2.23731e-11
1.93288e-09
1.96663e-11
1.91802e-09
1.61974e-11
1.90557e-09
1.28801e-11
1.89497e-09
1.02556e-11
1.88539e-09
8.71533e-12
1.87591e-09
8.53058e-12
1.86565e-09
9.67241e-12
1.85381e-09
1.19206e-11
1.83979e-09
1.50158e-11
1.82313e-09
1.87099e-11
1.80359e-09
2.28149e-11
1.78094e-09
2.72004e-11
1.75499e-09
3.18666e-11
1.72543e-09
3.69601e-11
1.69172e-09
4.27981e-11
1.65297e-09
4.99092e-11
1.60771e-09
5.91221e-11
1.55359e-09
7.17685e-11
1.48673e-09
9.0146e-11
1.40062e-09
1.18538e-10
1.28387e-09
1.65368e-10
1.11646e-09
2.47258e-10
8.66064e-10
3.94566e-10
5.0114e-10
6.49231e-10
9.4684e-11
9.953e-10
9.72361e-10
-1.34663e-10
-5.00829e-10
-1.3441e-10
-7.01908e-10
-3.719e-11
-6.4969e-10
9.50121e-11
-5.50716e-10
2.32422e-10
-4.56171e-10
3.63637e-10
-3.77916e-10
4.84255e-10
-3.17023e-10
5.93119e-10
-2.70096e-10
6.90726e-10
-2.33356e-10
7.78125e-10
-2.03945e-10
8.56433e-10
-1.79884e-10
9.26677e-10
-1.59795e-10
9.89752e-10
-1.42706e-10
1.04641e-09
-1.27924e-10
1.09729e-09
-1.14956e-10
1.14292e-09
-1.03448e-10
1.18377e-09
-9.31467e-11
1.22023e-09
-8.38848e-11
1.2527e-09
-7.55614e-11
1.28154e-09
-6.81367e-11
1.30713e-09
-6.16278e-11
1.32988e-09
-5.61087e-11
1.35027e-09
-5.17168e-11
1.36887e-09
-4.86654e-11
1.38635e-09
-4.72647e-11
1.40359e-09
-4.7953e-11
1.42165e-09
-5.13448e-11
1.44188e-09
-5.83102e-11
1.46596e-09
-7.01285e-11
1.49594e-09
-8.8617e-11
1.52692e-09
-1.34359e-10
1.52506e-09
-2.89338e-10
1.48123e-09
-4.93503e-10
1.40476e-09
-6.97443e-10
1.30791e-09
-8.90434e-10
1.20452e-09
-1.09481e-09
1.10078e-09
-1.30424e-09
9.81313e-10
-1.51515e-09
8.63542e-10
-1.67184e-09
7.68832e-10
-1.79588e-09
6.95965e-10
-1.90528e-09
6.40674e-10
-1.99695e-09
5.9936e-10
-2.06587e-09
5.68417e-10
-2.11433e-09
5.43754e-10
-2.14243e-09
5.2138e-10
-2.14946e-09
4.98082e-10
-2.13745e-09
4.70285e-10
-2.10488e-09
4.34832e-10
-2.05148e-09
3.90035e-10
-1.97745e-09
3.36259e-10
-1.88341e-09
2.76181e-10
-1.77299e-09
2.11052e-10
-1.64193e-09
1.49791e-10
-1.49625e-09
1.00616e-10
-1.33462e-09
7.90673e-11
-1.15635e-09
9.86068e-11
-9.57295e-10
1.82969e-10
-7.25972e-10
3.47438e-10
-4.51164e-10
5.90344e-10
-1.32144e-10
8.88379e-10
2.20366e-10
1.20996e-09
6.02167e-10
1.5024e-09
9.44886e-10
1.75087e-09
1.25288e-09
1.94723e-09
1.48733e-09
2.09863e-09
1.67284e-09
2.21525e-09
1.81332e-09
2.30624e-09
1.91167e-09
2.37995e-09
1.98284e-09
2.44174e-09
2.03534e-09
2.49589e-09
2.07224e-09
2.54452e-09
2.09599e-09
2.58922e-09
2.10886e-09
2.63117e-09
2.11238e-09
2.67104e-09
2.10741e-09
2.70935e-09
2.09367e-09
2.74633e-09
2.07083e-09
2.78191e-09
2.03274e-09
2.8163e-09
1.98537e-09
2.84913e-09
1.9247e-09
2.88057e-09
1.84392e-09
2.90807e-09
1.72563e-09
2.93229e-09
1.59234e-09
2.9495e-09
1.39755e-09
2.95915e-09
1.16892e-09
2.95567e-09
8.40495e-10
2.9413e-09
4.74673e-10
2.91829e-09
6.35785e-11
2.89476e-09
-3.80273e-10
2.87689e-09
-7.88161e-10
2.87203e-09
-1.12775e-09
2.87881e-09
-1.43181e-09
2.89358e-09
-1.65241e-09
2.90956e-09
-1.83916e-09
2.92148e-09
-1.95835e-09
2.92353e-09
-2.03936e-09
2.91306e-09
-2.09517e-09
2.88775e-09
-2.11372e-09
2.84912e-09
-2.11624e-09
2.80005e-09
-2.10779e-09
2.74251e-09
-2.09355e-09
2.67792e-09
-2.07795e-09
2.60748e-09
-2.05898e-09
2.53309e-09
-2.03566e-09
2.45435e-09
-2.00687e-09
2.36989e-09
-1.96989e-09
2.27831e-09
-1.92131e-09
2.17816e-09
-1.8533e-09
2.06987e-09
-1.76665e-09
1.95333e-09
-1.66434e-09
1.83077e-09
-1.5421e-09
1.7083e-09
-1.37857e-09
1.58852e-09
-1.20846e-09
1.48153e-09
-9.79208e-10
1.39212e-09
-7.34098e-10
1.32988e-09
-4.34125e-10
1.30629e-09
-9.99541e-11
1.32656e-09
2.35489e-10
1.39222e-09
5.57416e-10
1.49622e-09
8.78599e-10
1.61591e-09
1.14643e-09
1.73429e-09
1.38667e-09
1.83954e-09
1.57325e-09
1.93028e-09
1.73325e-09
2.00647e-09
1.84385e-09
2.0714e-09
1.92913e-09
2.12879e-09
1.99532e-09
2.18086e-09
2.04258e-09
2.22907e-09
2.07489e-09
2.27484e-09
2.09596e-09
2.31904e-09
2.10771e-09
2.36245e-09
2.11047e-09
2.40549e-09
2.10492e-09
2.44834e-09
2.0898e-09
2.49185e-09
2.06449e-09
2.53584e-09
2.03065e-09
2.58086e-09
1.98448e-09
2.62714e-09
1.92499e-09
2.67342e-09
1.83852e-09
2.72065e-09
1.7377e-09
2.76772e-09
1.6135e-09
2.81142e-09
1.42863e-09
2.85193e-09
1.22616e-09
2.88311e-09
9.33361e-10
2.90588e-09
5.9273e-10
2.92034e-09
2.01817e-10
2.93263e-09
-2.38214e-10
2.94792e-09
-6.70418e-10
2.97326e-09
-1.03902e-09
3.00765e-09
-1.35904e-09
3.04744e-09
-1.61487e-09
3.08516e-09
-1.80511e-09
3.11599e-09
-1.9377e-09
3.13331e-09
-2.03903e-09
3.13444e-09
-2.08921e-09
3.11819e-09
-2.11348e-09
3.08519e-09
-2.11761e-09
3.03914e-09
-2.11289e-09
2.98358e-09
-2.09847e-09
2.91166e-09
-2.054e-09
2.82109e-09
-2.00282e-09
2.71795e-09
-1.9668e-09
2.60156e-09
-1.92474e-09
2.49748e-09
-1.50426e-09
2.39408e-09
-1.27856e-09
2.29139e-09
-1.09098e-09
2.19256e-09
-8.56904e-10
2.10647e-09
-6.26034e-10
2.03633e-09
-3.64166e-10
1.98486e-09
-1.01315e-10
1.94679e-09
5.34074e-11
1.91158e-09
5.88913e-11
1.87894e-09
5.63045e-11
1.84935e-09
5.19656e-11
1.82296e-09
4.60494e-11
1.79982e-09
3.93441e-11
1.77967e-09
3.30239e-11
1.76158e-09
2.83526e-11
1.74425e-09
2.60433e-11
1.72654e-09
2.62428e-11
1.70742e-09
2.87908e-11
1.68601e-09
3.33265e-11
1.6616e-09
3.94309e-11
1.63363e-09
4.66795e-11
1.60171e-09
5.47311e-11
1.56553e-09
6.33845e-11
1.52473e-09
7.26586e-11
1.47884e-09
8.28525e-11
1.42705e-09
9.45891e-11
1.36807e-09
1.08889e-10
1.29987e-09
1.27323e-10
1.21931e-09
1.52333e-10
1.12156e-09
1.87888e-10
9.99379e-10
2.40723e-10
8.42301e-10
3.22446e-10
6.37449e-10
4.52111e-10
3.77246e-10
6.54769e-10
8.99619e-11
9.36515e-10
-9.11023e-11
1.17636e-09
8.81258e-10
-1.15678e-10
-3.85151e-10
-1.83268e-10
-6.34319e-10
-1.73853e-10
-6.59104e-10
-1.16994e-10
-6.07575e-10
-3.44666e-11
-5.38698e-10
5.91505e-11
-4.71533e-10
1.54996e-10
-4.12869e-10
2.48181e-10
-3.6328e-10
3.36341e-10
-3.21517e-10
4.18492e-10
-2.86095e-10
4.9435e-10
-2.55742e-10
5.63984e-10
-2.2943e-10
6.27625e-10
-2.06346e-10
6.85565e-10
-1.85864e-10
7.38113e-10
-1.67504e-10
7.8557e-10
-1.50904e-10
8.28226e-10
-1.35803e-10
8.66364e-10
-1.22023e-10
9.00266e-10
-1.09463e-10
9.30226e-10
-9.80962e-11
9.56565e-10
-8.79666e-11
9.79652e-10
-7.9196e-11
9.99927e-10
-7.19922e-11
1.01793e-09
-6.66662e-11
1.03432e-09
-6.36564e-11
1.04993e-09
-6.35617e-11
1.06577e-09
-6.71908e-11
1.0831e-09
-7.56358e-11
1.10337e-09
-9.04015e-11
1.12825e-09
-1.13492e-10
1.15406e-09
-1.60174e-10
1.15431e-09
-2.89584e-10
1.12162e-09
-4.60819e-10
1.06412e-09
-6.39934e-10
9.92916e-10
-8.19234e-10
9.17982e-10
-1.01988e-09
8.43506e-10
-1.22977e-09
7.60455e-10
-1.4321e-09
6.82357e-10
-1.59374e-09
6.21412e-10
-1.73494e-09
5.75143e-10
-1.85901e-09
5.39566e-10
-1.96138e-09
5.12091e-10
-2.03839e-09
4.8989e-10
-2.09212e-09
4.69654e-10
-2.1222e-09
4.48115e-10
-2.12792e-09
4.22595e-10
-2.11193e-09
3.90742e-10
-2.07303e-09
3.50572e-10
-2.01131e-09
3.01183e-10
-1.92806e-09
2.4379e-10
-1.82601e-09
1.80662e-10
-1.70986e-09
1.14414e-10
-1.57569e-09
5.15016e-11
-1.43334e-09
-1.96874e-12
-1.28115e-09
-3.62353e-11
-1.12208e-09
-4.22973e-11
-9.51233e-10
-4.43227e-12
-7.63837e-10
9.22784e-11
-5.47875e-10
2.57768e-10
-2.97634e-10
4.9132e-10
-1.3186e-11
7.82019e-10
3.11468e-10
1.09097e-09
6.35935e-10
1.38811e-09
9.55741e-10
1.64862e-09
1.22682e-09
1.86576e-09
1.45569e-09
2.04004e-09
1.63905e-09
2.17698e-09
1.77473e-09
2.28501e-09
1.87481e-09
2.3714e-09
1.94894e-09
2.44263e-09
2.00102e-09
2.50279e-09
2.03583e-09
2.55504e-09
2.05661e-09
2.60168e-09
2.06575e-09
2.64416e-09
2.06492e-09
2.68356e-09
2.05427e-09
2.72046e-09
2.03393e-09
2.75503e-09
1.99817e-09
2.78766e-09
1.95273e-09
2.81814e-09
1.89422e-09
2.84671e-09
1.81536e-09
2.87097e-09
1.70137e-09
2.89204e-09
1.57128e-09
2.90688e-09
1.38271e-09
2.91615e-09
1.15965e-09
2.91639e-09
8.40257e-10
2.91301e-09
4.78053e-10
2.90868e-09
6.79044e-11
2.9094e-09
-3.80986e-10
2.91837e-09
-7.97137e-10
2.9372e-09
-1.14657e-09
2.95953e-09
-1.45414e-09
2.9804e-09
-1.67329e-09
2.99312e-09
-1.85188e-09
2.99376e-09
-1.95899e-09
2.97886e-09
-2.02447e-09
2.94789e-09
-2.0642e-09
2.90301e-09
-2.06885e-09
2.84738e-09
-2.0606e-09
2.78295e-09
-2.04335e-09
2.71231e-09
-2.02291e-09
2.6375e-09
-2.00314e-09
2.55913e-09
-1.98061e-09
2.47761e-09
-1.95415e-09
2.39136e-09
-1.92062e-09
2.29867e-09
-1.8772e-09
2.1984e-09
-1.82105e-09
2.09009e-09
-1.74498e-09
1.97542e-09
-1.65198e-09
1.85584e-09
-1.54476e-09
1.73465e-09
-1.42092e-09
1.61785e-09
-1.26177e-09
1.50747e-09
-1.09808e-09
1.41073e-09
-8.82469e-10
1.3296e-09
-6.52963e-10
1.26879e-09
-3.7332e-10
1.23435e-09
-6.55106e-11
1.23e-09
2.39834e-10
1.26191e-09
5.25508e-10
1.33365e-09
8.0686e-10
1.4357e-09
1.04438e-09
1.55432e-09
1.26805e-09
1.67385e-09
1.45372e-09
1.78584e-09
1.62126e-09
1.88443e-09
1.74526e-09
1.96967e-09
1.84389e-09
2.04385e-09
1.92114e-09
2.1091e-09
1.97734e-09
2.1673e-09
2.01669e-09
2.22043e-09
2.04284e-09
2.26987e-09
2.05827e-09
2.3168e-09
2.06354e-09
2.36194e-09
2.05978e-09
2.4057e-09
2.04604e-09
2.44906e-09
2.02113e-09
2.49198e-09
1.98773e-09
2.5351e-09
1.94136e-09
2.57876e-09
1.88133e-09
2.62183e-09
1.79545e-09
2.6655e-09
1.69403e-09
2.70913e-09
1.56986e-09
2.7505e-09
1.38726e-09
2.79105e-09
1.18562e-09
2.82705e-09
8.97355e-10
2.86281e-09
5.56973e-10
2.89962e-09
1.65013e-10
2.94158e-09
-2.80182e-10
2.99025e-09
-7.19081e-10
3.04599e-09
-1.09477e-09
3.10142e-09
-1.41447e-09
3.15066e-09
-1.66412e-09
3.18668e-09
-1.84113e-09
3.20578e-09
-1.9568e-09
3.20428e-09
-2.03753e-09
3.18218e-09
-2.06712e-09
3.14293e-09
-2.07422e-09
3.09053e-09
-2.06523e-09
3.02809e-09
-2.05044e-09
2.95798e-09
-2.02835e-09
2.87441e-09
-1.97044e-09
2.77477e-09
-1.90318e-09
2.66485e-09
-1.85687e-09
2.54425e-09
-1.80415e-09
2.44179e-09
-1.4018e-09
2.34233e-09
-1.17909e-09
2.24466e-09
-9.93306e-10
2.15212e-09
-7.64363e-10
2.07307e-09
-5.46984e-10
2.00977e-09
-3.00871e-10
1.96294e-09
-5.44845e-11
1.92629e-09
9.00615e-11
1.89101e-09
9.41675e-11
1.85749e-09
8.98254e-11
1.82631e-09
8.31462e-11
1.79764e-09
7.47202e-11
1.77121e-09
6.57746e-11
1.74641e-09
5.78201e-11
1.72251e-09
5.22507e-11
1.69863e-09
4.99282e-11
1.67377e-09
5.11006e-11
1.64699e-09
5.55764e-11
1.61741e-09
6.28997e-11
1.58434e-09
7.2505e-11
1.54719e-09
8.38238e-11
1.50553e-09
9.63993e-11
1.45893e-09
1.09983e-10
1.40694e-09
1.24645e-10
1.34893e-09
1.40865e-10
1.28391e-09
1.59607e-10
1.21037e-09
1.82428e-10
1.12601e-09
2.11682e-10
1.02743e-09
2.50913e-10
9.09773e-10
3.05548e-10
7.66602e-10
3.83894e-10
5.90945e-10
4.98102e-10
3.79878e-10
6.63178e-10
1.47388e-10
8.87258e-10
-5.09215e-11
1.13483e-09
-1.08784e-10
1.23423e-09
7.72474e-10
-8.60164e-11
-2.99135e-10
-1.65223e-10
-5.55112e-10
-1.96035e-10
-6.28292e-10
-1.84913e-10
-6.18697e-10
-1.45524e-10
-5.78087e-10
-8.82679e-11
-5.28789e-10
-2.17068e-11
-4.7943e-10
4.84583e-11
-4.33446e-10
1.18662e-10
-3.91721e-10
1.86795e-10
-3.54227e-10
2.51645e-10
-3.20592e-10
3.1255e-10
-2.90335e-10
3.69179e-10
-2.62975e-10
4.21398e-10
-2.38084e-10
4.69192e-10
-2.15298e-10
5.12616e-10
-1.94328e-10
5.51769e-10
-1.74957e-10
5.86787e-10
-1.57041e-10
6.17835e-10
-1.40511e-10
6.45114e-10
-1.25375e-10
6.68871e-10
-1.11724e-10
6.89417e-10
-9.97418e-11
7.07144e-10
-8.97192e-11
7.22553e-10
-8.20752e-11
7.36279e-10
-7.73821e-11
7.49118e-10
-7.64006e-11
7.62052e-10
-8.01256e-11
7.76268e-10
-8.98513e-11
7.93137e-10
-1.0727e-10
8.1416e-10
-1.34515e-10
8.36708e-10
-1.82721e-10
8.40553e-10
-2.93429e-10
8.20942e-10
-4.41208e-10
7.85232e-10
-6.04225e-10
7.42522e-10
-7.76524e-10
6.98488e-10
-9.75843e-10
6.54984e-10
-1.18626e-09
6.05803e-10
-1.38292e-09
5.6051e-10
-1.54845e-09
5.25977e-10
-1.70041e-09
4.99789e-10
-1.83282e-09
4.78702e-10
-1.94029e-09
4.60999e-10
-2.02069e-09
4.44573e-10
-2.0757e-09
4.26863e-10
-2.10449e-09
4.05247e-10
-2.10631e-09
3.78184e-10
-2.08487e-09
3.43792e-10
-2.03864e-09
3.01224e-10
-1.96874e-09
2.50598e-10
-1.87743e-09
1.93464e-10
-1.76888e-09
1.32077e-10
-1.64847e-09
6.95286e-11
-1.51314e-09
1.05975e-11
-1.37441e-09
-4.01983e-11
-1.23036e-09
-7.67641e-11
-1.08552e-09
-9.31786e-11
-9.34819e-10
-8.05285e-11
-7.76487e-10
-2.83159e-11
-6.00087e-10
7.46154e-11
-4.00565e-10
2.35863e-10
-1.74434e-10
4.59298e-10
8.80325e-11
7.27443e-10
3.67789e-10
1.01912e-09
6.64064e-10
1.30369e-09
9.42254e-10
1.56462e-09
1.19478e-09
1.79045e-09
1.41322e-09
1.97772e-09
1.58747e-09
2.1297e-09
1.72284e-09
2.2518e-09
1.82684e-09
2.35047e-09
1.90236e-09
2.43091e-09
1.95539e-09
2.49762e-09
1.98989e-09
2.5542e-09
2.00917e-09
2.60321e-09
2.0159e-09
2.64657e-09
2.01091e-09
2.68553e-09
1.99497e-09
2.72076e-09
1.96294e-09
2.75313e-09
1.92036e-09
2.78288e-09
1.86447e-09
2.81063e-09
1.78761e-09
2.83447e-09
1.67753e-09
2.85622e-09
1.54952e-09
2.87415e-09
1.36478e-09
2.89071e-09
1.14309e-09
2.90446e-09
8.26509e-10
2.91904e-09
4.63476e-10
2.93686e-09
5.00815e-11
2.96203e-09
-4.06159e-10
2.99165e-09
-8.2675e-10
3.02324e-09
-1.17817e-09
3.04902e-09
-1.47993e-09
3.06421e-09
-1.68847e-09
3.06348e-09
-1.85115e-09
3.04481e-09
-1.94032e-09
3.0081e-09
-1.98776e-09
2.95647e-09
-2.01258e-09
2.89276e-09
-2.00515e-09
2.82004e-09
-1.98788e-09
2.74215e-09
-1.96545e-09
2.66172e-09
-1.94248e-09
2.5793e-09
-1.92071e-09
2.49469e-09
-1.896e-09
2.4068e-09
-1.86626e-09
2.31365e-09
-1.82747e-09
2.21384e-09
-1.77738e-09
2.1071e-09
-1.71431e-09
1.99426e-09
-1.63215e-09
1.87824e-09
-1.53597e-09
1.76148e-09
-1.42799e-09
1.64755e-09
-1.30699e-09
1.5417e-09
-1.15592e-09
1.44501e-09
-1.00139e-09
1.36236e-09
-7.99824e-10
1.29404e-09
-5.84641e-10
1.24212e-09
-3.21397e-10
1.20916e-09
-3.25509e-11
1.19519e-09
2.53804e-10
1.20457e-09
5.16125e-10
1.24341e-09
7.68027e-10
1.31258e-09
9.75205e-10
1.40777e-09
1.17286e-09
1.51768e-09
1.34381e-09
1.6325e-09
1.50644e-09
1.74206e-09
1.6357e-09
1.8423e-09
1.74365e-09
1.93206e-09
1.83139e-09
2.01153e-09
1.89786e-09
2.08187e-09
1.94636e-09
2.14481e-09
1.9799e-09
2.20188e-09
2.0012e-09
2.25449e-09
2.01092e-09
2.30365e-09
2.01061e-09
2.35002e-09
1.99966e-09
2.3948e-09
1.97636e-09
2.43821e-09
1.94432e-09
2.48115e-09
1.89842e-09
2.52429e-09
1.83819e-09
2.56703e-09
1.7527e-09
2.61114e-09
1.64992e-09
2.65658e-09
1.52442e-09
2.70288e-09
1.34096e-09
2.75338e-09
1.13511e-09
2.80666e-09
8.44078e-10
2.86577e-09
4.97857e-10
2.93109e-09
9.96978e-11
3.00358e-09
-3.52679e-10
3.07821e-09
-7.93705e-10
3.15023e-09
-1.16679e-09
3.21047e-09
-1.4747e-09
3.25336e-09
-1.707e-09
3.27367e-09
-1.86144e-09
3.27e-09
-1.95312e-09
3.24246e-09
-2.00999e-09
3.19627e-09
-2.02093e-09
3.13629e-09
-2.01425e-09
3.06587e-09
-1.99481e-09
2.98887e-09
-1.97344e-09
2.90902e-09
-1.9485e-09
2.81874e-09
-1.88016e-09
2.71531e-09
-1.79975e-09
2.6035e-09
-1.74506e-09
2.48353e-09
-1.68417e-09
2.38413e-09
-1.3024e-09
2.28881e-09
-1.08378e-09
2.19614e-09
-9.00635e-10
2.11007e-09
-6.78297e-10
2.0389e-09
-4.75816e-10
1.9847e-09
-2.4667e-10
1.9473e-09
-1.70801e-11
1.91913e-09
1.18228e-10
1.89093e-09
1.22368e-10
1.86283e-09
1.17927e-10
1.83517e-09
1.10805e-10
1.80797e-09
1.01919e-10
1.78098e-09
9.2767e-11
1.75378e-09
8.50209e-11
1.7259e-09
8.01325e-11
1.69679e-09
7.90319e-11
1.66584e-09
8.20514e-11
1.63238e-09
8.90401e-11
1.59575e-09
9.9531e-11
1.55535e-09
1.12901e-10
1.51066e-09
1.28512e-10
1.46121e-09
1.45849e-10
1.40654e-09
1.64656e-10
1.34611e-09
1.85075e-10
1.2792e-09
2.0777e-10
1.20478e-09
2.34027e-10
1.12131e-09
2.65898e-10
1.02655e-09
3.06443e-10
9.17326e-10
3.60139e-10
7.89417e-10
4.33456e-10
6.38036e-10
5.35276e-10
4.6004e-10
6.76098e-10
2.60055e-10
8.63163e-10
6.23917e-11
1.08492e-09
-7.62746e-11
1.27349e-09
-8.68909e-11
1.24484e-09
6.85584e-10
-6.0681e-11
-2.38453e-10
-1.32898e-10
-4.82894e-10
-1.79095e-10
-5.82096e-10
-1.94106e-10
-6.03686e-10
-1.83742e-10
-5.8845e-10
-1.55273e-10
-5.57259e-10
-1.14908e-10
-5.19795e-10
-6.77092e-11
-4.80644e-10
-1.72932e-11
-4.42137e-10
3.38612e-11
-4.05382e-10
8.41046e-11
-3.70836e-10
1.3237e-10
-3.38601e-10
1.7798e-10
-3.08584e-10
2.20512e-10
-2.80617e-10
2.5972e-10
-2.54506e-10
2.95476e-10
-2.30083e-10
3.27735e-10
-2.07216e-10
3.56521e-10
-1.85827e-10
3.81913e-10
-1.65903e-10
4.04047e-10
-1.47509e-10
4.23124e-10
-1.308e-10
4.39421e-10
-1.1604e-10
4.53318e-10
-1.03615e-10
4.6531e-10
-9.40674e-11
4.7604e-10
-8.81124e-11
4.86318e-10
-8.66786e-11
4.9714e-10
-9.09476e-11
5.09698e-10
-1.02409e-10
5.25354e-10
-1.22927e-10
5.4557e-10
-1.54731e-10
5.68676e-10
-2.05828e-10
5.79919e-10
-3.04671e-10
5.76542e-10
-4.37831e-10
5.64354e-10
-5.92037e-10
5.49436e-10
-7.61606e-10
5.33607e-10
-9.60014e-10
5.16844e-10
-1.1695e-09
4.94681e-10
-1.36076e-09
4.73802e-10
-1.52757e-09
4.5825e-10
-1.68485e-09
4.46236e-10
-1.82081e-09
4.35164e-10
-1.92922e-09
4.2399e-10
-2.00951e-09
4.11221e-10
-2.06293e-09
3.9488e-10
-2.08815e-09
3.73112e-10
-2.08454e-09
3.45252e-10
-2.05701e-09
3.09771e-10
-2.00316e-09
2.66764e-10
-1.92573e-09
2.17038e-10
-1.82771e-09
1.62372e-10
-1.71421e-09
1.05013e-10
-1.59111e-09
4.80563e-11
-1.45618e-09
-4.9135e-12
-1.32144e-09
-5.05486e-11
-1.18472e-09
-8.50297e-11
-1.05104e-09
-1.04416e-10
-9.15432e-10
-1.0347e-10
-7.77433e-10
-7.57812e-11
-6.27776e-10
-1.28255e-11
-4.63521e-10
9.36356e-11
-2.80895e-10
2.52217e-10
-7.05495e-11
4.60118e-10
1.59888e-10
7.09134e-10
4.15045e-10
9.77787e-10
6.73603e-10
1.24728e-09
9.25288e-10
1.50107e-09
1.15943e-09
1.72714e-09
1.36139e-09
1.921e-09
1.52897e-09
2.08295e-09
1.66489e-09
2.21631e-09
1.769e-09
2.3253e-09
1.84639e-09
2.41448e-09
1.90071e-09
2.48808e-09
1.93556e-09
2.5496e-09
1.95439e-09
2.60187e-09
1.95863e-09
2.64705e-09
1.94979e-09
2.68658e-09
1.92342e-09
2.72194e-09
1.885e-09
2.75408e-09
1.83233e-09
2.78472e-09
1.75697e-09
2.81313e-09
1.64911e-09
2.84133e-09
1.52132e-09
2.86861e-09
1.33751e-09
2.89703e-09
1.11467e-09
2.92645e-09
7.97089e-10
2.96128e-09
4.2864e-10
3.00062e-09
1.07441e-11
3.04361e-09
-4.49149e-10
3.08362e-09
-8.66765e-10
3.11657e-09
-1.21112e-09
3.13445e-09
-1.4978e-09
3.13414e-09
-1.68816e-09
3.11171e-09
-1.82873e-09
3.06967e-09
-1.89828e-09
3.01081e-09
-1.9289e-09
2.93857e-09
-1.94034e-09
2.85682e-09
-1.9234e-09
2.77063e-09
-1.9017e-09
2.68313e-09
-1.87795e-09
2.59557e-09
-1.85492e-09
2.50743e-09
-1.83257e-09
2.41735e-09
-1.80592e-09
2.32352e-09
-1.77243e-09
2.22421e-09
-1.72815e-09
2.11886e-09
-1.67204e-09
2.00842e-09
-1.60387e-09
1.89491e-09
-1.51864e-09
1.782e-09
-1.42305e-09
1.67238e-09
-1.31837e-09
1.56919e-09
-1.2038e-09
1.4765e-09
-1.06323e-09
1.39433e-09
-9.19216e-10
1.32599e-09
-7.31482e-10
1.27091e-09
-5.29568e-10
1.23013e-09
-2.80612e-10
1.20477e-09
-7.19449e-12
1.19275e-09
2.65826e-10
1.19525e-09
5.13626e-10
1.21516e-09
7.48115e-10
1.25596e-09
9.34409e-10
1.321e-09
1.10783e-09
1.40658e-09
1.25823e-09
1.50654e-09
1.40648e-09
1.61181e-09
1.53043e-09
1.71545e-09
1.64001e-09
1.81351e-09
1.73333e-09
1.90348e-09
1.8079e-09
1.98477e-09
1.86507e-09
2.058e-09
1.90667e-09
2.12415e-09
1.93505e-09
2.18442e-09
1.95065e-09
2.23987e-09
1.95516e-09
2.29133e-09
1.94821e-09
2.34021e-09
1.92747e-09
2.38706e-09
1.89747e-09
2.43308e-09
1.8524e-09
2.4794e-09
1.79187e-09
2.52635e-09
1.70575e-09
2.57662e-09
1.59965e-09
2.63175e-09
1.46929e-09
2.69208e-09
1.28062e-09
2.75976e-09
1.06744e-09
2.8343e-09
7.69539e-10
2.91897e-09
4.1318e-10
3.01058e-09
8.09244e-12
3.10475e-09
-4.46856e-10
3.19181e-09
-8.80765e-10
3.26482e-09
-1.2398e-09
3.31462e-09
-1.52451e-09
3.33823e-09
-1.73061e-09
3.33227e-09
-1.85548e-09
3.30071e-09
-1.92156e-09
3.24774e-09
-1.95703e-09
3.17925e-09
-1.95244e-09
3.10032e-09
-1.93532e-09
3.01633e-09
-1.91082e-09
2.93089e-09
-1.888e-09
2.84642e-09
-1.86403e-09
2.7536e-09
-1.78735e-09
2.6498e-09
-1.69594e-09
2.53869e-09
-1.63396e-09
2.42056e-09
-1.56603e-09
2.32346e-09
-1.2053e-09
2.23103e-09
-9.91349e-10
2.1422e-09
-8.11798e-10
2.06152e-09
-5.97618e-10
1.99711e-09
-4.11413e-10
1.95106e-09
-2.00617e-10
1.92293e-09
1.10499e-11
1.9043e-09
1.36857e-10
1.88475e-09
1.41919e-10
1.8638e-09
1.38878e-10
1.84133e-09
1.33272e-10
1.81715e-09
1.26104e-10
1.79102e-09
1.18894e-10
1.76275e-09
1.13288e-10
1.73218e-09
1.10702e-10
1.69913e-09
1.12086e-10
1.66333e-09
1.17847e-10
1.62445e-09
1.27923e-10
1.58207e-09
1.4191e-10
1.53576e-09
1.59214e-10
1.48507e-09
1.79202e-10
1.42956e-09
2.01361e-10
1.36874e-09
2.25467e-10
1.30208e-09
2.51743e-10
1.22884e-09
2.81012e-10
1.14804e-09
3.14822e-10
1.05832e-09
3.55622e-10
9.5774e-10
4.0702e-10
8.43701e-10
4.74178e-10
7.12994e-10
5.64163e-10
5.6265e-10
6.8562e-10