/*--------------------------------*- C++ -*----------------------------------*\
| =========                 |                                                 |
| \\      /  F ield         | OpenFOAM: The Open Source CFD Toolbox           |
|  \\    /   O peration     | Version:  2506                                  |
|   \\  /    A nd           | Website:  www.openfoam.com                      |
|    \\/     M anipulation  |                                                 |
\*---------------------------------------------------------------------------*/
FoamFile
{
    version     2.0;
    format      ascii;
    arch        "LSB;label=32;scalar=64";
    class       volVectorField;
    location    "4.1";
    object      vorticityField;
}
// * * * * * * * * * * * * * * * * * * * * * * * * * * * * * * * * * * * * * //

dimensions      [0 0 -1 0 0 0 0];

internalField   nonuniform List<vector> 
4000
(
(3.78391e-19 1.46428e-19 30.7896)
(2.10561e-20 7.07291e-20 33.3857)
(1.78125e-19 5.33673e-19 28.224)
(2.44616e-19 7.3835e-19 23.3844)
(-1.16589e-19 8.57414e-19 20.2543)
(3.1002e-20 6.08685e-21 18.0743)
(1.21712e-19 9.83584e-19 16.4013)
(1.65848e-20 1.04123e-18 15.085)
(-1.05462e-20 4.01885e-21 14.0286)
(-6.97489e-21 -1.29884e-20 13.159)
(5.8393e-20 2.33115e-17 12.4292)
(-1.07856e-19 -4.43309e-17 11.8093)
(4.41887e-20 2.09872e-17 11.2781)
(-1.69665e-20 -2.23818e-17 10.8205)
(1.18935e-20 2.22944e-17 10.4248)
(1.95434e-20 1.20767e-18 10.0822)
(-2.06071e-20 2.23735e-17 9.78551)
(4.33992e-20 -2.23124e-17 9.52896)
(4.96822e-20 1.2252e-18 9.30746)
(-6.41142e-20 -1.99907e-21 9.11641)
(6.09092e-21 -3.27678e-21 8.95146)
(1.36187e-19 -1.20755e-18 8.8082)
(-1.34291e-19 -1.19992e-18 8.68195)
(-1.70443e-19 -2.08778e-21 8.56748)
(1.7694e-19 -1.2036e-18 8.45863)
(9.1465e-21 -1.19093e-18 8.34786)
(2.51766e-19 7.02273e-21 8.22541)
(-3.2525e-20 2.49433e-19 8.07867)
(-7.07425e-19 4.32473e-17 7.89036)
(2.18484e-19 -4.47657e-17 7.61021)
(2.92161e-19 -7.09968e-20 7.16602)
(-1.63588e-19 -9.0979e-17 6.8538)
(3.6359e-18 1.2012e-16 7.02413)
(1.09525e-17 -4.57395e-17 7.71956)
(1.33034e-17 -9.68863e-17 8.86877)
(5.10312e-17 7.41155e-16 10.4474)
(3.40458e-17 -6.35368e-17 12.2365)
(-4.71294e-17 -1.19197e-16 15.2482)
(-2.69017e-20 -2.49304e-18 19.927)
(2.27563e-17 4.77749e-17 24.9885)
(-2.56565e-17 -5.70227e-17 29.8623)
(1.49234e-16 4.72237e-16 34.2545)
(-2.38673e-19 1.37819e-18 38.0395)
(3.14469e-16 2.83446e-16 41.1545)
(-1.4727e-16 -1.13893e-16 43.5669)
(2.61053e-19 3.33036e-16 45.298)
(1.9013e-18 8.46356e-18 46.3165)
(-2.98951e-18 -3.4169e-16 46.7613)
(-2.10029e-16 -1.92776e-16 46.7524)
(-1.61107e-16 -1.39698e-16 46.4302)
(-3.77769e-18 -6.53432e-18 45.8953)
(4.43161e-19 8.45981e-19 44.9625)
(-9.28634e-18 -2.23999e-17 44.0389)
(4.8957e-18 3.23644e-16 42.7627)
(-9.12904e-17 2.21692e-16 41.1025)
(3.30794e-18 -2.824e-16 38.5456)
(-3.59678e-17 -8.34831e-17 35.1162)
(8.55273e-18 3.23556e-17 30.4797)
(-1.62031e-19 2.44393e-19 24.7483)
(1.11152e-18 -3.2815e-17 18.7965)
(4.5276e-18 -8.47856e-17 13.484)
(1.30794e-17 5.59329e-17 9.2089)
(-2.92045e-18 3.44653e-16 6.0421)
(1.13826e-17 -3.39334e-16 3.91648)
(1.70208e-20 1.40112e-18 2.47248)
(-2.28989e-19 2.0037e-19 1.56502)
(2.29316e-20 -2.06124e-19 0.989784)
(5.68425e-19 -5.08545e-17 0.626655)
(1.14648e-18 -7.12117e-16 0.40301)
(2.45983e-18 -3.77556e-16 0.264044)
(-5.84099e-20 2.608e-18 0.178197)
(-2.42081e-18 3.23069e-16 0.127354)
(-1.08128e-19 -3.15774e-16 0.0998499)
(-7.13364e-19 -4.01248e-17 0.0876597)
(-1.23777e-18 3.40608e-16 0.0856653)
(7.7539e-19 -2.913e-16 0.0905889)
(1.57176e-18 -3.19594e-16 0.100474)
(3.92926e-19 -3.03064e-16 0.113788)
(-6.8598e-20 8.98059e-19 0.130101)
(-6.43612e-19 6.20013e-19 0.148173)
(5.64426e-19 8.31317e-18 0.167761)
(-4.51039e-19 2.39784e-16 0.18961)
(1.76821e-20 -1.06549e-18 0.216513)
(3.96718e-19 -2.11381e-16 0.248191)
(8.38829e-20 1.99938e-16 0.290491)
(-5.97742e-21 -4.26965e-19 0.349332)
(2.56799e-20 1.62523e-20 0.437963)
(-5.48719e-20 1.00382e-17 0.56417)
(-2.66411e-20 3.49181e-17 0.725736)
(-3.76694e-19 -8.22518e-17 0.908698)
(8.32475e-20 2.06959e-19 1.09068)
(3.32944e-18 -7.87289e-18 1.28093)
(-9.74388e-19 -1.44794e-17 1.3837)
(9.97873e-19 2.39553e-18 1.3458)
(-2.48611e-18 2.57413e-16 1.03754)
(2.86866e-18 2.73798e-16 0.444231)
(-2.62812e-18 2.71915e-16 -0.428283)
(-1.4862e-18 1.72784e-17 -1.54795)
(-1.15739e-17 3.17296e-16 -2.77499)
(-1.74793e-17 3.44071e-16 -3.9526)
(2.7071e-19 -6.37788e-18 -4.94669)
(-2.7956e-19 3.43055e-16 -5.63697)
(-2.47856e-17 7.11419e-16 -5.95975)
(-9.21106e-19 1.67924e-17 -5.90448)
(-2.07548e-17 3.6924e-16 -5.4887)
(1.18357e-19 3.96254e-18 -4.75257)
(1.69957e-17 -3.73986e-16 -3.74634)
(1.1879e-17 -3.49544e-16 -2.52533)
(2.50754e-18 -2.35963e-17 -1.05956)
(2.37448e-18 4.40152e-18 0.654959)
(-7.35549e-18 -3.39466e-16 2.61216)
(9.58938e-18 3.11694e-16 4.68563)
(9.10473e-20 -5.37038e-19 6.82106)
(1.8173e-17 5.93038e-16 8.67912)
(2.23163e-19 1.39913e-16 10.0866)
(6.34657e-18 2.86186e-16 10.7109)
(1.94039e-20 4.61151e-19 10.3082)
(-9.2219e-20 7.30552e-17 9.00656)
(1.78746e-19 -8.94576e-18 7.25689)
(-1.95875e-20 -1.39571e-19 5.42422)
(-1.99025e-19 8.85682e-18 3.88685)
(7.29162e-18 -3.23233e-16 2.75393)
(-1.02171e-18 3.48702e-16 1.96311)
(-6.92819e-20 2.13184e-17 1.42553)
(-3.80354e-18 3.21086e-16 1.05348)
(3.69966e-18 -6.78643e-16 0.804447)
(-1.4243e-18 3.3321e-16 0.630338)
(1.22816e-18 -3.71593e-16 0.504373)
(2.01836e-19 3.47305e-18 0.414469)
(1.42271e-18 -3.21224e-16 0.351016)
(2.08829e-20 1.54834e-18 0.306426)
(-1.25503e-18 3.32334e-16 0.27597)
(2.73294e-19 -4.27062e-17 0.25639)
(-7.7103e-19 3.5314e-16 0.245295)
(-4.97054e-19 -2.75722e-19 0.241002)
(-6.29907e-20 -5.97235e-19 0.241723)
(5.19826e-19 -2.79945e-16 0.24615)
(-1.40473e-18 2.67917e-16 0.253473)
(5.43747e-20 -6.54136e-19 0.26415)
(4.04093e-19 2.13427e-19 0.279711)
(-3.02181e-19 2.28872e-16 0.297994)
(1.89445e-19 -5.36098e-17 0.32278)
(-1.85306e-18 2.53455e-16 0.358544)
(1.07821e-19 -9.00865e-19 0.408956)
(4.20986e-19 -1.38694e-16 0.487288)
(3.25266e-19 -9.016e-17 0.601579)
(-2.59066e-19 6.79516e-17 0.758229)
(1.69697e-19 -4.7107e-17 0.950824)
(-2.46806e-19 1.53391e-19 1.16761)
(5.81016e-19 5.17684e-17 1.40393)
(9.73642e-20 -1.99357e-18 1.62964)
(-1.08853e-18 -3.63145e-16 1.73662)
(1.30475e-18 6.46579e-17 1.64152)
(-8.8428e-18 2.08256e-19 1.23942)
(-2.35926e-18 2.18762e-16 0.520684)
(-6.38895e-19 7.42682e-17 -0.488659)
(2.7343e-19 -3.17248e-19 -1.72876)
(1.47176e-18 1.61587e-18 -3.04097)
(-5.4946e-19 -2.75847e-18 -4.23389)
(2.40904e-17 -7.44229e-16 -5.21773)
(-5.0112e-18 1.00568e-16 -5.89863)
(-2.51502e-17 4.12675e-16 -6.18154)
(6.28047e-18 3.01312e-16 -6.1206)
(4.19202e-19 2.25195e-18 -4.35984)
(-2.24152e-18 -3.0656e-16 -2.92226)
(3.88703e-18 -5.21671e-16 -1.44321)
(1.91969e-19 -2.89274e-18 -0.0412828)
(-9.28005e-22 -6.7252e-17 1.23125)
(1.71339e-19 -1.92071e-16 2.31527)
(-3.48014e-19 -6.07999e-17 3.06726)
(1.19575e-19 -8.32457e-21 3.47035)
(2.6101e-21 -8.84054e-19 3.76757)
(3.5586e-19 -7.00981e-22 4.09148)
(-3.43026e-19 -8.68214e-19 4.4309)
(-7.55667e-20 -1.25404e-18 4.75088)
(2.42143e-20 -5.72469e-17 5.03759)
(-5.45859e-19 5.81301e-17 5.28888)
(-1.40415e-19 2.73457e-17 5.50746)
(7.27027e-19 -2.86864e-17 5.70157)
(-1.31121e-20 2.64091e-17 5.88309)
(4.92664e-19 -5.58587e-17 6.06584)
(-3.74087e-19 2.73503e-17 6.26123)
(-7.07083e-19 -3.85773e-19 6.4777)
(7.08294e-19 -7.6173e-19 6.72105)
(-5.80647e-20 1.44876e-19 6.99544)
(1.67092e-18 -2.66554e-17 7.30382)
(-1.72709e-18 2.55366e-17 7.64788)
(1.99259e-18 -2.58551e-17 8.0297)
(-2.02526e-18 2.54365e-17 8.4532)
(1.08225e-18 -1.37177e-17 8.92577)
(-1.14535e-18 1.23962e-17 9.46031)
(6.66657e-20 -1.13144e-18 10.0785)
(-8.99263e-20 -6.32673e-19 10.8167)
(-8.77907e-19 -9.72703e-21 11.7387)
(1.00305e-18 -6.56684e-19 12.962)
(-1.19942e-19 -1.06023e-18 14.7133)
(7.71882e-19 -4.90956e-18 17.4784)
(-6.26985e-19 5.91856e-18 22.3838)
(-7.01938e-21 -6.58361e-19 29.8554)
(-1.82542e-20 -4.72622e-20 29.0271)
(-1.27623e-20 -2.13046e-19 -2.12074)
(2.665e-19 -1.27588e-19 10.1753)
(-1.36908e-19 -6.27414e-19 13.1082)
(1.06931e-18 1.51485e-18 13.5163)
(-1.81163e-18 -6.82893e-18 13.1509)
(3.64251e-19 -1.0192e-18 12.5321)
(5.43867e-19 4.12698e-18 11.8706)
(-2.05156e-19 -2.07236e-18 11.25)
(-1.37422e-19 -1.2343e-18 10.6895)
(-9.66588e-20 -1.32664e-18 10.1873)
(-1.32163e-19 -2.5264e-18 9.73781)
(-4.41762e-19 -1.63389e-17 9.33549)
(3.68035e-19 1.59097e-17 8.97518)
(-2.43266e-19 -1.55015e-17 8.65242)
(4.57975e-19 2.95688e-17 8.36342)
(-5.10287e-19 -3.45625e-17 8.10493)
(1.86897e-19 1.41919e-17 7.8741)
(-2.13485e-19 -1.80802e-17 7.66838)
(-2.13377e-19 -1.94443e-17 7.48542)
(2.77979e-19 3.08978e-17 7.32297)
(-9.57311e-21 -1.97483e-18 7.17882)
(-2.25481e-19 -3.35305e-17 7.05063)
(2.79114e-19 3.44321e-17 6.93588)
(6.88812e-21 3.10137e-17 6.83162)
(-3.29636e-19 -3.19373e-17 6.73437)
(1.51538e-19 -6.89026e-19 6.6398)
(3.26578e-20 -3.31612e-17 6.54246)
(-4.00903e-19 2.37186e-18 6.43532)
(9.71812e-19 6.65511e-17 6.3086)
(7.42111e-20 8.65253e-19 6.14706)
(-5.85861e-19 -3.37692e-17 5.91952)
(-2.00181e-18 -3.39763e-17 5.59342)
(-7.08271e-18 -1.03463e-16 5.27341)
(-1.97627e-17 -2.13048e-16 5.01008)
(-1.62651e-17 -1.52115e-16 4.7943)
(-1.69525e-17 -1.90923e-16 4.60983)
(2.95163e-17 -4.61283e-18 4.49169)
(4.24855e-17 1.31406e-16 4.59956)
(-2.64937e-17 -3.17036e-17 4.92516)
(-1.0294e-16 -9.05196e-17 5.3671)
(-1.52486e-16 -1.21835e-16 6.02018)
(-1.5032e-16 -1.72224e-16 6.82299)
(-1.92873e-18 9.03012e-19 7.67631)
(-3.56396e-16 -3.37434e-16 8.53805)
(1.87331e-16 1.64154e-16 9.38068)
(-2.61443e-16 -1.43119e-16 10.1653)
(2.59859e-16 1.33533e-16 10.8616)
(-4.41174e-20 3.36689e-18 11.4822)
(-4.01958e-17 4.58016e-17 12.0327)
(1.8293e-16 1.6771e-16 12.5414)
(-2.35872e-16 -1.14047e-16 12.9719)
(2.419e-17 5.39511e-18 13.3691)
(2.01793e-16 9.41999e-17 13.821)
(-4.22343e-17 -2.41193e-17 14.315)
(1.29615e-16 1.32376e-16 14.9451)
(9.48593e-19 2.72534e-18 15.7189)
(3.79012e-17 7.07729e-17 16.5712)
(-1.64456e-17 -4.17636e-17 17.2986)
(-1.77623e-18 -5.4125e-18 17.4173)
(-9.58559e-19 2.13035e-17 16.4629)
(-5.40763e-18 9.84899e-17 14.4426)
(-1.22504e-17 2.46098e-16 11.6679)
(-2.60531e-17 2.84491e-16 8.83141)
(-1.15133e-17 3.33866e-16 6.4499)
(1.68527e-19 -4.37333e-17 4.55457)
(1.67243e-19 4.29259e-17 3.17055)
(2.85855e-20 -2.36292e-19 2.19005)
(-5.60864e-19 3.94239e-18 1.51311)
(-6.82731e-18 7.39508e-16 1.06198)
(3.90611e-19 -3.67395e-16 0.766001)
(-1.586e-19 -4.20646e-17 0.575276)
(-8.16458e-19 4.50364e-16 0.454827)
(-2.76437e-18 3.09808e-16 0.382015)
(-1.54019e-18 3.90022e-16 0.34155)
(6.29074e-19 -4.93264e-18 0.323027)
(3.37675e-19 -2.19615e-17 0.319329)
(-5.61849e-19 -3.49545e-16 0.325615)
(-1.11538e-18 3.03773e-16 0.338298)
(-6.82031e-21 1.79266e-17 0.356679)
(-8.80618e-19 2.8062e-16 0.378542)
(1.10848e-18 -2.67966e-16 0.403533)
(4.25664e-19 4.18832e-19 0.430321)
(6.5721e-22 -4.37597e-22 0.463127)
(-3.86717e-19 -3.32132e-19 0.496336)
(2.57244e-18 -2.08908e-16 0.53412)
(-5.41194e-20 6.5138e-18 0.565349)
(2.06597e-19 -1.14816e-17 0.580369)
(-8.02602e-20 1.20092e-17 0.541411)
(1.60568e-19 -1.07944e-17 0.403156)
(5.7455e-19 1.98922e-16 0.170294)
(-1.41423e-19 -1.25737e-17 -0.0833234)
(3.09786e-18 1.54117e-17 -0.302638)
(7.61638e-18 2.23963e-16 -0.43706)
(-9.56316e-18 -2.5961e-16 -0.495737)
(7.49813e-18 2.78381e-16 -0.504804)
(-4.06214e-19 -2.69829e-16 -0.474656)
(8.41279e-19 2.96879e-16 -0.439346)
(-8.21289e-18 3.23478e-16 -0.437415)
(1.32763e-17 -3.30325e-16 -0.462278)
(1.75525e-17 -3.30098e-16 -0.521287)
(-2.49242e-20 9.89788e-19 -0.639143)
(-2.91382e-17 3.63056e-16 -0.757212)
(2.4722e-17 -3.68284e-16 -0.778003)
(2.28807e-19 1.22889e-17 -0.73546)
(-4.67684e-18 -1.71212e-17 -0.645821)
(-1.48531e-19 -4.52411e-18 -0.459063)
(-3.22167e-17 7.37251e-16 -0.15329)
(-1.95322e-17 7.56232e-16 0.254233)
(-2.37277e-18 3.51852e-16 0.711497)
(1.39005e-18 3.11255e-16 1.2348)
(1.03819e-17 3.43886e-16 1.81848)
(-2.81498e-17 -6.25453e-16 2.43021)
(8.26385e-19 1.52853e-17 3.0931)
(-2.24161e-17 -2.90662e-16 3.76789)
(1.51504e-18 2.85504e-17 4.49397)
(-6.27446e-18 -1.21263e-16 5.30401)
(-6.5249e-19 -1.39526e-17 6.13193)
(4.26873e-20 -5.2844e-17 6.71084)
(2.26592e-19 -7.59716e-18 6.76805)
(-2.44757e-19 7.94699e-18 6.22476)
(2.23367e-20 8.35175e-19 5.2768)
(-8.20038e-18 3.14623e-16 4.24261)
(6.2218e-19 8.41459e-18 3.32117)
(7.48767e-19 -3.2107e-17 2.58283)
(5.12155e-18 -3.22672e-16 2.01073)
(-5.4494e-18 3.50846e-16 1.58899)
(-5.01736e-18 3.40838e-16 1.2799)
(-8.23543e-18 6.91801e-16 1.05145)
(-7.09329e-18 6.85136e-16 0.884059)
(-1.20579e-18 2.96472e-16 0.763053)
(-3.67942e-19 4.19163e-17 0.676466)
(-2.64945e-18 3.22235e-16 0.615689)
(4.65774e-18 -6.37752e-16 0.574654)
(3.40145e-19 7.88359e-17 0.548755)
(-2.77435e-18 2.22864e-16 0.534865)
(-1.92738e-19 -3.88056e-19 0.530121)
(6.93214e-20 -4.49979e-20 0.532088)
(-7.42296e-19 -3.58545e-18 0.539672)
(3.95969e-19 -6.32601e-17 0.551281)
(2.35015e-18 -1.77147e-16 0.56876)
(3.47692e-19 -5.59758e-17 0.589856)
(9.48893e-20 5.05881e-19 0.612157)
(-2.31938e-18 9.70593e-17 0.639997)
(1.14899e-18 -9.51759e-17 0.662843)
(-1.45896e-18 1.38318e-16 0.675024)
(-2.52035e-19 -1.90577e-19 0.648368)
(-8.4916e-20 4.42674e-17 0.541733)
(5.26131e-19 -4.57256e-17 0.328072)
(1.3794e-18 9.61608e-17 0.0763287)
(1.04888e-18 2.3146e-19 -0.159365)
(-3.97344e-19 -2.48264e-19 -0.314914)
(-1.11425e-18 -8.23414e-19 -0.379235)
(1.8611e-18 5.62319e-18 -0.41033)
(1.496e-17 6.33358e-16 -0.411655)
(2.37099e-18 1.5286e-16 -0.412823)
(2.16576e-20 7.82336e-17 -0.444009)
(4.18059e-18 -8.66458e-17 -0.515648)
(2.83579e-17 -5.39362e-16 -0.631369)
(-1.32882e-17 1.89786e-16 -0.792192)
(-2.40795e-17 3.7547e-16 -0.968465)
(1.5736e-19 -2.19714e-19 -1.10321)
(1.68618e-17 -3.02603e-16 -1.13856)
(-6.67536e-18 1.0282e-16 -1.00866)
(2.08697e-18 4.78113e-19 -0.630654)
(1.77403e-17 -3.86126e-16 -0.332965)
(-4.0933e-18 2.96379e-16 -0.0993419)
(2.60235e-19 9.68829e-19 0.159597)
(1.96441e-19 -1.09505e-20 0.472191)
(7.8586e-19 6.38972e-17 0.855119)
(-3.66682e-19 5.71923e-17 1.30509)
(1.69902e-19 -5.29202e-17 1.75103)
(1.94773e-19 7.04709e-19 2.11311)
(4.62172e-19 -5.4787e-17 2.40861)
(-3.31281e-19 5.43957e-17 2.66253)
(4.50577e-20 2.64064e-18 2.88826)
(-2.0347e-19 5.18268e-17 3.09724)
(5.81198e-19 -2.06962e-18 3.28602)
(-2.7629e-19 -2.71204e-17 3.45462)
(-2.31842e-19 -2.25597e-17 3.61367)
(1.07916e-19 -2.27642e-17 3.76817)
(-4.39728e-19 2.38928e-17 3.92466)
(4.51553e-19 -4.59441e-19 4.08762)
(-2.13602e-19 2.27643e-17 4.26223)
(5.11658e-20 -2.4376e-17 4.45251)
(-7.90014e-20 -8.71856e-19 4.66204)
(4.30101e-19 -1.92369e-17 4.89396)
(-3.69943e-19 2.38815e-17 5.15085)
(4.4734e-19 -2.10009e-17 5.43583)
(-1.57195e-18 2.34586e-17 5.75326)
(1.40939e-18 -8.50988e-18 6.11004)
(-2.953e-19 1.10574e-17 6.51734)
(-2.88907e-19 -8.05384e-19 6.99342)
(1.72163e-20 2.44829e-18 7.56896)
(-4.65881e-19 7.35542e-18 8.29644)
(9.58322e-20 -9.04007e-18 9.26548)
(-8.371e-20 2.14723e-18 10.6161)
(-6.82629e-19 1.36911e-19 12.4862)
(9.57762e-19 -8.28279e-19 14.5187)
(3.43393e-19 5.30037e-19 13.3062)
(-3.81404e-19 -1.59681e-19 -3.19997)
(-7.44468e-20 1.43775e-19 -7.59074)
(-1.7021e-18 2.22553e-19 1.30788)
(8.57344e-19 -3.56851e-19 4.91799)
(3.8783e-19 3.83808e-20 6.50381)
(-7.94623e-19 -3.34999e-19 7.14236)
(1.42977e-18 2.01479e-18 7.34158)
(-1.53093e-18 -1.92045e-18 7.33372)
(2.40217e-19 1.01605e-18 7.23018)
(1.60465e-19 1.21808e-18 7.08141)
(5.7158e-19 2.80818e-18 6.91197)
(1.13377e-19 1.42702e-18 6.73536)
(4.64635e-19 3.3549e-18 6.5594)
(-8.6626e-19 -1.00605e-17 6.38873)
(1.84706e-18 2.25927e-17 6.22611)
(-6.7952e-19 -8.75716e-18 6.07314)
(5.99769e-19 1.29192e-17 5.93068)
(-3.24472e-19 -7.05701e-18 5.79908)
(1.76956e-19 4.28732e-18 5.67834)
(6.69363e-19 2.56642e-17 5.56816)
(-5.89715e-19 -2.21123e-17 5.46804)
(1.16222e-20 1.86247e-18 5.3773)
(-1.06903e-19 4.32103e-18 5.29498)
(-2.02697e-19 -2.47425e-17 5.21985)
(5.98005e-19 2.6923e-17 5.15023)
(2.72415e-19 2.47821e-17 5.08396)
(-3.56939e-20 -2.08591e-17 5.01815)
(-1.04341e-18 -2.49194e-17 4.94908)
(4.45325e-19 2.36061e-17 4.87181)
(2.87895e-19 -2.28785e-19 4.77934)
(3.0651e-19 3.87487e-21 4.66315)
(-5.86744e-19 -1.42595e-20 4.50569)
(2.53483e-19 9.22137e-19 4.24625)
(1.27557e-17 1.07845e-16 3.91104)
(2.50579e-17 1.31053e-16 3.52013)
(-3.70618e-17 -1.21157e-16 3.06981)
(1.96195e-17 1.8205e-18 2.56266)
(-6.50765e-17 -1.50148e-16 2.04389)
(2.22893e-17 2.51722e-17 1.6346)
(1.19937e-16 1.0401e-16 1.36152)
(-4.15405e-17 -8.56441e-18 1.22822)
(3.22626e-16 2.3437e-16 1.31221)
(1.19619e-18 7.48785e-18 1.58427)
(-2.07563e-16 -1.03142e-16 1.97853)
(-2.19959e-16 -1.04445e-16 2.45864)
(2.81897e-17 8.09862e-18 2.99458)
(1.73266e-16 1.04007e-16 3.54603)
(-4.56312e-16 -2.14679e-16 4.08402)
(-2.12418e-16 -8.92937e-17 4.6016)
(-7.10831e-17 -6.66119e-18 5.05651)
(-1.55124e-18 -3.4584e-18 5.47892)
(5.39019e-17 5.49788e-17 5.86325)
(-5.23145e-17 -1.82074e-17 6.20461)
(2.86805e-18 -3.12129e-17 6.55636)
(3.80985e-18 -1.55959e-18 6.92691)
(1.62452e-16 3.4673e-17 7.39)
(-5.99847e-17 -4.72015e-18 8.00806)
(-5.98066e-17 -1.37766e-17 8.82643)
(2.7657e-17 6.15102e-18 9.86824)
(2.36205e-18 5.53664e-18 11.0089)
(1.58653e-19 4.28719e-20 11.9493)
(-1.87723e-18 1.71522e-17 12.3028)
(3.19841e-18 -1.88416e-17 11.782)
(-4.77775e-18 -4.15447e-17 10.3624)
(3.73166e-17 -2.59944e-16 8.5648)
(-2.94057e-17 2.68757e-16 6.7634)
(2.85327e-17 -3.05053e-16 5.16541)
(-2.04483e-18 3.32921e-18 3.85451)
(1.74935e-19 -3.61315e-18 2.8432)
(2.07242e-17 -7.11957e-16 2.10509)
(-1.45912e-17 7.21372e-16 1.58377)
(1.55647e-18 -6.3545e-18 1.22512)
(3.57617e-18 -3.13791e-16 0.984988)
(-1.30216e-18 -3.52913e-18 0.830784)
(-2.2559e-18 2.92313e-16 0.736561)
(2.17859e-18 -3.56137e-16 0.683537)
(2.064e-18 -2.93978e-16 0.658199)
(-6.28415e-18 6.4068e-16 0.651265)
(8.49092e-19 -2.1571e-17 0.65533)
(1.02216e-18 -2.01237e-17 0.66757)
(6.49335e-18 -5.15694e-16 0.683299)
(-7.03761e-18 5.08771e-16 0.700406)
(-6.59162e-19 6.51435e-18 0.712658)
(5.27349e-19 -4.12854e-19 0.723146)
(1.00848e-19 -6.16137e-18 0.71604)
(-3.06509e-18 2.03224e-16 0.689048)
(3.99994e-20 -6.46276e-19 0.612714)
(8.97953e-19 -4.51878e-17 0.468853)
(3.68255e-20 -6.74605e-19 0.211332)
(1.71857e-19 -3.41736e-17 -0.115469)
(-3.12945e-19 -1.86476e-16 -0.457303)
(-3.10491e-20 -1.31764e-17 -0.727353)
(-1.22177e-17 -4.24398e-16 -0.882892)
(-6.81973e-18 -2.20578e-16 -0.872754)
(1.52244e-17 4.93412e-16 -0.721617)
(1.88749e-18 2.15356e-17 -0.483538)
(-4.14507e-18 -3.08141e-16 -0.206626)
(7.35704e-18 -6.00639e-16 0.059246)
(1.02983e-17 -3.09698e-16 0.281365)
(-1.5481e-18 2.06404e-19 0.413476)
(-2.40671e-17 3.40501e-16 0.456631)
(1.95895e-21 -3.24256e-20 0.408234)
(2.87922e-17 -3.59738e-16 0.342754)
(-1.17188e-19 4.39158e-18 0.306606)
(-2.81198e-17 3.582e-16 0.311317)
(2.50407e-17 -3.69328e-16 0.344973)
(1.46065e-19 2.68184e-18 0.43366)
(2.51937e-17 -7.22899e-16 0.586915)
(2.66194e-18 -3.68545e-16 0.785974)
(-2.97668e-18 -1.77741e-17 1.00449)
(-6.02983e-18 -3.35175e-16 1.22839)
(-3.05485e-18 -6.48408e-18 1.4422)
(1.96601e-17 2.96634e-16 1.63799)
(5.71718e-20 2.69904e-18 1.83343)
(-1.45737e-17 -2.48052e-16 2.05496)
(1.15354e-18 1.3388e-17 2.32686)
(2.81946e-19 9.67819e-20 2.73309)
(1.71737e-20 6.79116e-20 3.34249)
(-5.3951e-20 5.30788e-17 4.12943)
(-3.07754e-20 -7.68354e-20 4.90966)
(4.98866e-19 -7.35026e-18 5.44132)
(-1.05248e-18 1.56911e-17 5.48451)
(1.60913e-18 -9.04472e-18 5.09653)
(7.22939e-19 -5.02505e-19 4.46504)
(-9.99136e-20 -7.89809e-19 3.78097)
(1.89483e-17 -3.31704e-16 3.13738)
(-1.72743e-17 3.61914e-16 2.59469)
(2.31287e-17 -6.9277e-16 2.15953)
(7.94225e-18 -3.4114e-16 1.81846)
(-3.33785e-18 -3.10416e-17 1.55692)
(9.64159e-18 -3.08114e-16 1.36029)
(-1.01793e-19 4.03341e-17 1.21473)
(3.72833e-18 -3.23546e-16 1.10883)
(4.47855e-18 -7.20596e-17 1.03379)
(2.30276e-19 -1.24059e-19 0.982171)
(-2.94522e-18 -4.07207e-17 0.948475)
(-1.64923e-18 7.08379e-17 0.928017)
(6.60966e-18 -2.718e-16 0.916099)
(9.58164e-18 -5.19665e-16 0.910328)
(-3.14393e-20 1.99651e-18 0.904964)
(-2.89715e-18 2.37017e-16 0.900031)
(-7.14801e-18 2.7482e-16 0.890522)
(1.58332e-18 -5.3762e-17 0.863622)
(2.18255e-18 -1.5069e-16 0.818972)
(1.99487e-18 -9.29205e-17 0.728806)
(-2.19782e-18 8.96176e-17 0.578007)
(-5.66428e-19 2.19873e-17 0.32468)
(2.72934e-19 -4.14306e-19 -0.00756946)
(-7.26016e-19 -1.37485e-16 -0.371598)
(-8.88794e-19 -9.69342e-17 -0.673668)
(-9.86004e-18 -2.6223e-16 -0.852496)
(3.47772e-18 1.13279e-16 -0.884852)
(-2.52476e-18 -6.27855e-17 -0.763864)
(-9.64349e-18 -2.73385e-16 -0.541033)
(-8.34103e-18 -5.7258e-16 -0.279007)
(1.07264e-18 -2.97165e-16 -0.0198664)
(-6.20958e-20 7.23907e-19 0.197342)
(1.47605e-17 -3.39763e-16 0.327578)
(-5.62483e-17 9.74851e-16 0.363443)
(-8.20689e-18 8.87888e-17 0.297448)
(1.06263e-18 1.02332e-18 0.167114)
(-3.05002e-17 3.79797e-16 0.0700038)
(8.08781e-19 1.22251e-18 0.0133743)
(-2.00404e-19 -6.94592e-19 0.0219334)
(-1.51062e-17 2.41052e-16 0.0524684)
(-1.43754e-17 3.83351e-16 0.0883719)
(-6.01136e-19 6.31112e-19 0.111613)
(1.53372e-22 -7.94432e-21 0.145927)
(3.97934e-18 -1.26527e-16 0.191177)
(-2.02792e-18 1.19914e-16 0.260059)
(-5.18558e-20 -1.4474e-18 0.373885)
(7.71877e-20 -4.94177e-18 0.524608)
(1.2153e-18 -5.37934e-17 0.664242)
(-3.30518e-19 1.81607e-18 0.787623)
(8.82608e-19 -3.19041e-18 0.896788)
(-4.44396e-19 -5.14658e-18 1.00451)
(7.87468e-19 -4.82009e-17 1.12184)
(7.60741e-19 -1.15629e-18 1.25283)
(-1.45389e-18 4.86875e-17 1.39409)
(4.47478e-20 -1.6666e-18 1.54154)
(-8.50651e-19 2.20372e-17 1.69258)
(1.55821e-19 -2.40448e-17 1.84562)
(5.85415e-19 1.86801e-18 2.00086)
(-1.07645e-19 3.98549e-21 2.15971)
(-7.41077e-21 1.46198e-18 2.32449)
(-9.04605e-20 1.66184e-18 2.49817)
(-2.31491e-19 -2.02994e-17 2.68427)
(3.86404e-19 1.81337e-17 2.88681)
(-2.27001e-19 -1.71638e-17 3.11037)
(-5.69917e-19 3.38364e-17 3.36065)
(7.38864e-19 -2.82446e-17 3.64535)
(2.94132e-19 1.01084e-17 3.97589)
(2.8919e-20 2.23308e-18 4.37039)
(1.94722e-19 -1.23545e-18 4.85869)
(8.94997e-19 3.86933e-19 5.48925)
(-4.98843e-19 1.94072e-18 6.33216)
(-1.52046e-19 -1.02601e-18 7.44569)
(7.86195e-20 2.55936e-19 8.6789)
(-6.55743e-19 5.49464e-20 8.92726)
(1.41942e-18 -5.06098e-19 4.19729)
(1.74229e-18 8.8432e-19 -11.8011)
(-9.14066e-19 2.17877e-19 -6.98125)
(4.56479e-20 -1.10034e-19 -1.57191)
(-1.60767e-19 7.1771e-20 1.20082)
(-1.35507e-18 3.97516e-19 2.66222)
(1.15048e-18 -4.77462e-19 3.49081)
(1.94911e-18 5.39554e-19 3.95973)
(-1.82775e-18 -3.23818e-19 4.23642)
(8.16146e-19 2.31938e-19 4.40005)
(-1.32438e-20 5.04099e-20 4.49204)
(-6.00677e-19 -1.48272e-18 4.53661)
(8.13583e-20 -1.919e-20 4.54946)
(1.40082e-19 -7.70627e-19 4.54125)
(-1.98235e-20 7.66021e-21 4.51932)
(-2.82242e-19 -2.12774e-18 4.4888)
(7.6155e-21 -5.88225e-21 4.45329)
(1.41847e-21 -3.01723e-22 4.41528)
(-1.82961e-19 -2.43988e-18 4.37648)
(-9.27263e-19 -1.0893e-17 4.33799)
(2.18859e-18 2.57595e-17 4.30046)
(-1.40128e-18 -1.73515e-17 4.26417)
(-8.00792e-20 1.36858e-19 4.22906)
(9.03457e-19 1.55728e-17 4.19471)
(-1.01582e-18 -1.83954e-17 4.16033)
(1.27988e-20 -1.88099e-18 4.12461)
(2.30589e-19 -2.01886e-19 4.08569)
(-8.60608e-19 -1.94937e-17 4.04101)
(6.92676e-19 1.91208e-17 3.98716)
(2.52531e-19 7.80835e-20 3.91962)
(1.39431e-18 1.92314e-17 3.83204)
(-1.54559e-18 -1.94276e-17 3.71709)
(2.44954e-18 1.99151e-17 3.56261)
(-5.92862e-18 -3.87863e-17 3.31914)
(-1.16802e-17 -6.65332e-17 2.97859)
(-5.31309e-18 -2.55989e-17 2.53206)
(-6.61896e-18 2.0928e-17 1.97862)
(6.34031e-18 -1.98369e-17 1.34816)
(-4.91124e-17 -5.69824e-17 0.711483)
(4.50047e-18 -3.48622e-19 0.184416)
(4.21631e-17 5.18298e-18 -0.194179)
(-7.19844e-17 -3.4375e-17 -0.40247)
(4.68941e-17 9.68864e-18 -0.40072)
(-4.50568e-17 -2.82845e-17 -0.217817)
(4.25515e-16 2.06282e-16 0.0917249)
(1.67377e-16 8.65165e-17 0.492431)
(5.84553e-17 2.70052e-17 0.95565)
(1.34087e-19 5.27619e-19 1.43774)
(6.42226e-19 7.84347e-18 1.90168)
(5.01579e-16 1.97048e-16 2.35202)
(2.13155e-16 9.30983e-17 2.75036)
(3.00584e-17 6.46692e-18 3.07514)
(4.4542e-16 1.47002e-16 3.34722)
(-2.579e-19 1.10302e-17 3.56904)
(-2.14072e-16 -6.10012e-17 3.76277)
(1.79431e-18 -2.77612e-18 3.95003)
(1.25033e-17 -1.35513e-17 4.17654)
(7.87201e-17 1.17272e-17 4.49412)
(3.66451e-17 1.01766e-17 4.96018)
(-4.70643e-17 -5.38543e-18 5.62702)
(8.55437e-18 -1.44101e-19 6.56253)
(1.51004e-18 6.14743e-18 7.66704)
(-8.0049e-18 -1.66517e-17 8.74905)
(4.60118e-19 -1.10243e-17 9.49449)
(3.20263e-17 -2e-16 9.50277)
(-3.79609e-17 2.49626e-16 8.85807)
(6.57382e-17 -4.49261e-16 7.74409)
(1.42209e-17 -1.35092e-17 6.50382)
(-3.7479e-17 3.21247e-16 5.24736)
(-2.76472e-18 4.16527e-17 4.12698)
(-1.75591e-17 3.49765e-16 3.21161)
(1.72472e-17 -4.42654e-16 2.50174)
(1.19805e-17 -2.91363e-16 1.97303)
(-1.2995e-18 1.34858e-18 1.5939)
(5.85046e-18 -3.4411e-16 1.33202)
(4.69315e-18 -2.93114e-16 1.15793)
(-1.56061e-18 -3.43487e-17 1.04719)
(-1.24175e-17 6.29103e-16 0.980271)
(6.91648e-18 -3.48751e-16 0.943074)
(-8.52744e-19 3.69607e-17 0.922096)
(7.35628e-18 -2.76978e-16 0.910557)
(-5.89039e-18 2.69995e-16 0.899739)
(6.70538e-18 -2.56888e-16 0.883403)
(-7.72291e-18 2.36949e-16 0.849393)
(7.66657e-18 -2.24328e-16 0.798507)
(-5.3263e-19 8.99682e-19 0.707866)
(6.62149e-19 -6.41636e-18 0.568801)
(1.5659e-19 -5.64919e-18 0.345729)
(-1.52073e-18 5.67669e-17 0.0407197)
(-3.29121e-20 6.71833e-21 -0.31927)
(-5.44952e-19 5.66343e-17 -0.689956)
(2.29962e-19 9.3505e-17 -0.984663)
(-3.68589e-19 -2.44106e-17 -1.14024)
(6.21701e-18 2.40972e-16 -1.10409)
(9.91711e-18 2.20927e-16 -0.907113)
(-6.81217e-18 -2.49199e-16 -0.591867)
(7.68592e-19 9.34913e-18 -0.220991)
(6.31071e-19 2.66875e-16 0.156193)
(-5.5082e-18 2.98683e-16 0.484178)
(-1.59402e-18 1.77711e-17 0.718169)
(-1.77143e-17 3.22433e-16 0.854264)
(4.6585e-17 -6.69594e-16 0.908241)
(-1.93274e-21 2.714e-19 0.886982)
(2.20761e-19 2.38389e-19 0.821819)
(1.8716e-21 1.32807e-18 0.778048)
(2.53884e-17 -3.50391e-16 0.765631)
(2.76913e-18 -2.21901e-17 0.789059)
(-6.4823e-19 1.08297e-17 0.860385)
(2.01595e-18 1.85983e-17 0.970823)
(1.00249e-17 -3.23299e-16 1.09513)
(1.55468e-18 -3.32289e-16 1.20777)
(8.45575e-19 -1.30708e-18 1.2904)
(0 -0 1.33185)
(-1.10325e-18 -7.43244e-19 1.3367)
(-9.14161e-19 -9.9698e-19 1.31451)
(1.12041e-17 1.22525e-16 1.30108)
(5.06857e-18 1.04929e-16 1.31235)
(8.41344e-20 2.21946e-19 1.40979)
(9.71383e-20 5.88392e-18 1.65883)
(8.7146e-20 -9.58048e-21 2.12777)
(1.34673e-20 -3.51684e-21 2.82707)
(-3.73348e-20 1.50589e-20 3.63635)
(5.74233e-19 -2.75955e-19 4.29522)
(-8.37218e-19 7.33059e-18 4.59576)
(2.78957e-17 -2.52916e-16 4.5331)
(8.94288e-19 -7.32399e-18 4.22489)
(-2.06186e-17 3.12577e-16 3.77634)
(1.95904e-17 -3.42385e-16 3.30093)
(-1.8053e-17 3.50189e-16 2.86037)
(-8.64512e-19 -1.04316e-18 2.47774)
(1.21568e-17 -3.29757e-16 2.16093)
(-8.45644e-18 2.86886e-16 1.90757)
(1.21469e-17 -2.34028e-16 1.70973)
(-1.43274e-17 3.10105e-16 1.55799)
(6.89077e-18 -3.2718e-17 1.44362)
(5.98124e-19 -3.63764e-17 1.35766)
(-5.73533e-18 3.08136e-17 1.29225)
(-9.12185e-18 2.05351e-16 1.24084)
(1.65806e-18 7.24206e-17 1.19591)
(-7.81199e-18 2.58225e-16 1.15282)
(-2.91624e-18 5.95557e-17 1.10073)
(1.32905e-17 -2.87228e-16 1.03616)
(1.66988e-17 -4.35938e-16 0.951421)
(1.12739e-17 -2.53089e-16 0.82732)
(-1.97494e-18 4.9559e-17 0.660697)
(-2.28831e-18 4.55344e-17 0.40996)
(1.05658e-18 -4.51355e-17 0.0918973)
(-4.55274e-19 2.20658e-17 -0.287704)
(-4.42673e-19 2.59847e-19 -0.680372)
(1.94719e-18 1.8547e-16 -0.986282)
(-3.83814e-19 3.14533e-19 -1.1634)
(8.70091e-18 2.65276e-16 -1.14606)
(1.05367e-17 1.79186e-16 -0.958537)
(-2.10234e-19 1.36753e-19 -0.653983)
(5.05189e-18 2.00408e-16 -0.284402)
(2.95745e-18 3.57838e-16 0.0976757)
(-9.49384e-19 -2.38239e-16 0.432274)
(-8.61101e-18 2.47994e-16 0.664172)
(-2.1511e-17 4.21033e-16 0.791688)
(2.95921e-17 -4.39537e-16 0.816695)
(2.71659e-17 -3.61732e-16 0.755892)
(-3.64768e-17 4.54158e-16 0.652025)
(3.65723e-17 -4.65855e-16 0.526394)
(-2.77957e-17 3.70874e-16 0.450683)
(-5.10718e-18 9.699e-17 0.417804)
(2.1859e-17 -4.0035e-16 0.367193)
(-1.18663e-18 -1.65444e-18 0.350456)
(-1.38174e-17 2.77329e-16 0.330417)
(-2.62907e-18 6.58473e-17 0.305186)
(-3.97332e-18 1.25112e-16 0.258638)
(5.38995e-18 -1.1928e-16 0.188921)
(-2.23034e-18 5.5952e-17 0.105983)
(2.26233e-18 -5.52581e-17 0.0243643)
(-5.06984e-19 1.27125e-19 -0.0562091)
(3.72411e-19 -3.59068e-18 -0.115129)
(1.74644e-18 -4.63691e-17 -0.148441)
(-1.84368e-18 5.3738e-17 -0.14629)
(-2.31068e-18 4.68782e-17 -0.106864)
(5.37654e-19 -4.18207e-17 -0.0238467)
(8.6284e-19 2.29947e-17 0.0976162)
(5.43558e-19 -2.31244e-17 0.239524)
(-2.25363e-20 8.46454e-19 0.391698)
(-9.32742e-19 2.37158e-17 0.54593)
(1.18397e-18 -2.12355e-17 0.699231)
(-1.48278e-18 2.28021e-17 0.850043)
(1.90376e-19 -2.1009e-17 0.999374)
(1.01483e-18 -1.82885e-18 1.14975)
(-1.22413e-18 2.37947e-18 1.30508)
(5.96973e-19 -8.5642e-20 1.47067)
(-1.89098e-18 1.00345e-19 1.65247)
(3.16938e-18 2.0193e-18 1.85727)
(-2.19305e-18 -1.36018e-19 2.09338)
(2.89063e-19 -3.05171e-19 2.37211)
(6.3315e-19 -3.35032e-18 2.71055)
(-1.28908e-18 2.92265e-19 3.13492)
(1.20667e-18 -8.08631e-19 3.68159)
(1.9411e-18 -3.52299e-18 4.38295)
(-1.34233e-18 2.59879e-18 5.19472)
(5.34313e-19 -4.15011e-19 5.75131)
(-3.67005e-19 2.55741e-20 4.75068)
(-5.66007e-19 3.43566e-19 -0.814424)
(-1.69945e-18 -4.33541e-19 -12.6057)
(7.37352e-19 -3.45108e-20 -5.88613)
(-1.58814e-18 5.17871e-19 -2.46341)
(-1.71982e-18 2.57559e-19 -0.379588)
(3.14748e-18 -8.24297e-19 0.804483)
(-5.50729e-18 1.53665e-18 1.55098)
(2.43757e-18 -9.45471e-19 2.06348)
(9.73032e-20 1.41687e-19 2.42927)
(-9.03204e-19 -3.26084e-19 2.70047)
(2.69775e-22 6.92359e-20 2.90502)
(-3.68576e-18 -2.45355e-18 3.06078)
(2.93006e-18 2.02079e-18 3.18042)
(-5.60515e-19 -9.61183e-19 3.27317)
(-2.06037e-18 -3.94849e-18 3.34571)
(1.58694e-18 3.059e-18 3.40292)
(-4.9675e-19 -8.67457e-19 3.44835)
(-6.73607e-21 -4.52786e-21 3.4845)
(-3.59401e-19 -1.06702e-18 3.51317)
(7.68795e-19 4.62614e-18 3.5355)
(-3.02323e-18 -1.78442e-17 3.55218)
(1.89897e-18 1.21347e-17 3.56346)
(1.2475e-18 1.14072e-17 3.56917)
(-1.36642e-18 -1.28127e-17 3.56873)
(-1.24818e-19 9.09349e-20 3.56109)
(9.59166e-20 2.00071e-18 3.54461)
(-3.41717e-20 -4.51458e-20 3.51706)
(-2.99916e-19 -2.28463e-18 3.47544)
(-1.19247e-18 -1.38117e-17 3.41593)