/*--------------------------------*- C++ -*----------------------------------*\
| =========                 |                                                 |
| \\      /  F ield         | OpenFOAM: The Open Source CFD Toolbox           |
|  \\    /   O peration     | Version:  2506                                  |
|   \\  /    A nd           | Website:  www.openfoam.com                      |
|    \\/     M anipulation  |                                                 |
\*---------------------------------------------------------------------------*/
FoamFile
{
    version     2.0;
    format      ascii;
    arch        "LSB;label=32;scalar=64";
    class       volScalarField;
    location    "3";
    object      p;
}
// * * * * * * * * * * * * * * * * * * * * * * * * * * * * * * * * * * * * * //

dimensions      [0 2 -2 0 0 0 0];

internalField   nonuniform List<scalar> 
4000
(
0.00454792
0.00447217
0.0044224
0.00439222
0.00436727
0.00434415
0.00432235
0.00430131
0.00428064
0.00426018
0.00423986
0.00421966
0.00419957
0.00417956
0.00415965
0.00413982
0.00412009
0.00410045
0.00408091
0.00406148
0.00404216
0.00402298
0.00400394
0.00398507
0.00396638
0.00394791
0.00392969
0.00391176
0.00389417
0.00387699
0.0038603
0.00384421
0.0038289
0.00381441
0.00380185
0.00379096
0.00377995
0.00376811
0.0037552
0.00374062
0.0037237
0.00370274
0.00367798
0.00365052
0.00362034
0.00358763
0.00355248
0.00351479
0.00347531
0.00343387
0.00339078
0.00334669
0.0033013
0.00325591
0.00320991
0.0031646
0.00311977
0.00307589
0.00303395
0.00299261
0.00295403
0.00291678
0.0028814
0.00284796
0.00281574
0.00278543
0.00275607
0.0027282
0.00270119
0.00267524
0.00265023
0.00262593
0.00260258
0.00257993
0.00255806
0.002537
0.00251672
0.00249721
0.00247851
0.00246059
0.00244343
0.00242702
0.00241132
0.0023963
0.00238192
0.00236815
0.00235495
0.00234231
0.00233019
0.00231856
0.00230743
0.00229675
0.00228652
0.00227672
0.00226731
0.00225831
0.00224963
0.0022413
0.00223324
0.00222545
0.00221784
0.00221041
0.00220306
0.00219577
0.0021885
0.00218114
0.00217368
0.00216603
0.00215816
0.00214999
0.00214147
0.00213253
0.00212313
0.00211316
0.0021026
0.0020913
0.00207923
0.00206628
0.00205235
0.00203737
0.00202121
0.00200379
0.00198507
0.001965
0.00194348
0.00192051
0.00189606
0.00187011
0.00184268
0.00181377
0.00178331
0.00175148
0.00171822
0.00168341
0.00164733
0.00160993
0.00157091
0.00153106
0.0014898
0.00144769
0.00140472
0.00136119
0.0013174
0.00127384
0.00123042
0.00118849
0.00114688
0.00110775
0.00107007
0.00103433
0.00100098
0.000968977
0.000939549
0.000911331
0.000885277
0.000860281
0.000837147
0.000815227
0.000794955
0.00077645
0.000761823
0.000746742
0.000732094
0.000717845
0.000704013
0.000689897
0.000675326
0.000659108
0.000641789
0.000623852
0.000605288
0.000586104
0.000566337
0.000546046
0.000525305
0.000504203
0.000482834
0.00046129
0.000439659
0.000418011
0.000396404
0.00037488
0.000353489
0.00033226
0.000311211
0.000290349
0.000269673
0.000249174
0.000228837
0.000208632
0.000188545
0.00016855
0.000148622
0.000128738
0.000108879
8.90308e-05
6.91839e-05
4.93328e-05
2.9477e-05
9.69769e-06
0.00449873
0.00445571
0.00441856
0.00439189
0.0043684
0.00434563
0.00432373
0.00430258
0.00428184
0.00426134
0.004241
0.0042208
0.00420071
0.00418073
0.00416085
0.00414106
0.00412136
0.00410177
0.00408227
0.00406289
0.00404362
0.00402448
0.00400549
0.00398666
0.00396801
0.00394958
0.00393138
0.00391348
0.0038959
0.0038787
0.00386197
0.0038458
0.00383031
0.00381552
0.00380205
0.00378962
0.00377682
0.00376316
0.00374836
0.00373185
0.00371296
0.00369039
0.00366456
0.00363633
0.00360565
0.00357267
0.00353751
0.00350015
0.00346129
0.00342078
0.00337896
0.00333638
0.00329291
0.00324947
0.00320574
0.00316265
0.00312019
0.00307848
0.00303834
0.00299894
0.00296177
0.00292587
0.00289158
0.00285899
0.00282758
0.00279784
0.00276903
0.00274155
0.00271492
0.00268928
0.00266445
0.00264029
0.00261697
0.00259433
0.00257238
0.00255118
0.00253069
0.00251093
0.00249191
0.00247364
0.0024561
0.00243929
0.00242317
0.00240772
0.00239292
0.00237871
0.00236506
0.00235197
0.00233937
0.00232726
0.00231561
0.0023044
0.00229361
0.00228323
0.00227321
0.00226356
0.00225423
0.00224522
0.00223646
0.00222794
0.00221962
0.00221144
0.00220335
0.00219532
0.0021873
0.0021792
0.002171
0.00216261
0.002154
0.0021451
0.00213584
0.00212616
0.00211599
0.00210523
0.00209386
0.00208171
0.00206875
0.00205487
0.00203997
0.00202398
0.00200683
0.00198842
0.00196873
0.0019477
0.00192527
0.00190144
0.0018762
0.00184955
0.00182152
0.0017921
0.00176128
0.00172918
0.00169578
0.00166101
0.00162511
0.00158802
0.00154963
0.0015105
0.00147026
0.00142938
0.00138793
0.00134617
0.00130439
0.00126296
0.00122188
0.0011822
0.00114316
0.00110608
0.00107032
0.00103616
0.00100405
0.000973267
0.000944681
0.000917281
0.00089177
0.000867245
0.000844359
0.000822615
0.000802273
0.000783231
0.000767211
0.000750941
0.000735092
0.000719652
0.000704524
0.000689295
0.000673709
0.000656989
0.000639481
0.000621464
0.000602887
0.000583733
0.000564028
0.000543822
0.000523183
0.000502193
0.000480941
0.000459513
0.000437987
0.000416437
0.000394923
0.000373507
0.000352217
0.000331077
0.000310109
0.000289322
0.000268717
0.000248286
0.000228025
0.000207906
0.000187902
0.000167989
0.000148143
0.000128343
0.000108568
8.88028e-05
6.90374e-05
4.92635e-05
2.9472e-05
9.69871e-06
0.00447505
0.00444631
0.0044162
0.00439174
0.0043689
0.00434656
0.00432483
0.00430367
0.0042829
0.00426237
0.00424201
0.0042218
0.00420171
0.00418173
0.00416186
0.00414208
0.0041224
0.00410282
0.00408335
0.00406399
0.00404474
0.00402562
0.00400665
0.00398783
0.0039692
0.00395077
0.00393257
0.00391464
0.00389702
0.00387977
0.00386293
0.00384658
0.00383081
0.00381559
0.00380124
0.00378751
0.0037733
0.00375819
0.00374185
0.00372369
0.0037032
0.00367953
0.00365309
0.0036245
0.00359369
0.0035608
0.00352597
0.00348929
0.0034513
0.00341195
0.00337151
0.00333049
0.00328886
0.00324726
0.00320557
0.00316437
0.00312372
0.00308379
0.00304515
0.00300725
0.00297107
0.00293607
0.00290243
0.00287028
0.00283928
0.00280972
0.00278111
0.00275372
0.00272717
0.00270155
0.00267674
0.0026526
0.00262923
0.00260651
0.00258445
0.00256308
0.00254237
0.00252235
0.00250303
0.00248442
0.00246652
0.00244932
0.00243281
0.00241696
0.00240174
0.00238713
0.00237309
0.00235959
0.00234658
0.00233406
0.00232198
0.00231033
0.00229909
0.00228823
0.00227773
0.00226757
0.00225772
0.00224817
0.00223886
0.00222979
0.00222089
0.00221214
0.00220349
0.00219488
0.00218627
0.0021776
0.00216881
0.00215985
0.00215065
0.00214115
0.00213128
0.00212097
0.00211015
0.00209872
0.00208663
0.00207374
0.00206001
0.00204533
0.00202959
0.00201276
0.00199477
0.00197552
0.00195501
0.00193319
0.00191002
0.00188552
0.00185969
0.00183254
0.00180409
0.00177437
0.00174338
0.00171121
0.00167787
0.00164334
0.0016078
0.00157124
0.00153363
0.00149539
0.00145632
0.00141677
0.00137686
0.00133682
0.00129689
0.00125736
0.00121832
0.00118031
0.00114299
0.00110729
0.00107283
0.00103978
0.0010085
0.000978453
0.000950305
0.000923311
0.000897987
0.000873687
0.000850832
0.000829055
0.000808564
0.000788988
0.000771656
0.000754283
0.000737378
0.000720908
0.000704767
0.000688581
0.000672212
0.000655086
0.000637417
0.000619343
0.000600766
0.000581645
0.000561997
0.000541867
0.000521316
0.000500423
0.000479272
0.000457948
0.000436527
0.000415079
0.000393664
0.000372323
0.0003511
0.000330027
0.000309124
0.000288402
0.000267864
0.000247503
0.000227298
0.000207242
0.000187308
0.000167469
0.000147701
0.000127979
0.000108283
8.85962e-05
6.89042e-05
4.91956e-05
2.94553e-05
9.67693e-06
0.00446352
0.00443969
0.00441332
0.00439069
0.00436885
0.00434688
0.00432545
0.00430445
0.00428373
0.00426322
0.00424288
0.00422267
0.00420259
0.00418262
0.00416275
0.00414298
0.00412332
0.00410375
0.00408428
0.00406493
0.00404569
0.00402657
0.00400759
0.00398876
0.0039701
0.00395163
0.00393338
0.00391538
0.00389765
0.00388025
0.00386321
0.00384658
0.00383041
0.00381463
0.00379947
0.00378467
0.00376927
0.00375288
0.00373522
0.00371576
0.00369413
0.00366971
0.00364287
0.00361407
0.00358328
0.00355064
0.00351634
0.00348048
0.00344346
0.00340536
0.00336643
0.00332703
0.0032872
0.00324739
0.00320758
0.00316815
0.00312919
0.00309083
0.00305346
0.00301676
0.00298137
0.00294701
0.00291382
0.00288193
0.0028511
0.00282158
0.00279299
0.00276557
0.002739
0.00271331
0.00268844
0.00266425
0.0026408
0.00261798
0.00259579
0.00257425
0.00255335
0.0025331
0.00251352
0.00249462
0.0024764
0.00245887
0.00244201
0.0024258
0.00241024
0.00239527
0.00238087
0.00236701
0.00235364
0.00234073
0.00232827
0.0023162
0.00230452
0.00229321
0.00228223
0.00227157
0.0022612
0.00225112
0.00224126
0.00223163
0.00222215
0.00221283
0.00220359
0.0021944
0.00218521
0.00217595
0.00216659
0.00215703
0.00214725
0.00213715
0.00212667
0.00211573
0.00210425
0.00209213
0.00207932
0.00206569
0.00205117
0.00203569
0.00201914
0.0020015
0.00198269
0.00196267
0.00194141
0.0019189
0.00189513
0.0018701
0.00184384
0.00181636
0.00178769
0.00175787
0.00172691
0.00169489
0.00166186
0.00162778
0.00159284
0.00155704
0.0015204
0.00148324
0.00144546
0.00140733
0.00136899
0.00133061
0.00129239
0.00125455
0.00121718
0.00118062
0.00114475
0.00111015
0.00107664
0.00104431
0.0010135
0.000983845
0.000955834
0.000928955
0.000903588
0.000879348
0.000856338
0.000834342
0.000813602
0.000793553
0.000775363
0.000757051
0.000739197
0.0007218
0.000704797
0.000687837
0.000670899
0.000653423
0.000635583
0.000617448
0.000598858
0.000579748
0.000560129
0.000540038
0.000519535
0.000498696
0.000477605
0.000456344
0.000434989
0.000413607
0.000392255
0.000370982
0.000349828
0.000328825
0.000307992
0.000287341
0.000266876
0.00024659
0.000226469
0.000206498
0.00018665
0.000166899
0.000147218
0.000127583
0.000107971
8.83632e-05
6.87433e-05
4.90965e-05
2.94069e-05
9.64534e-06
0.00445634
0.00443421
0.00441024
0.00438907
0.00436825
0.00434699
0.00432588
0.00430504
0.00428444
0.004264
0.00424369
0.00422351
0.00420343
0.00418347
0.0041636
0.00414384
0.00412417
0.0041046
0.00408513
0.00406577
0.00404651
0.00402738
0.00400837
0.0039895
0.00397078
0.00395224
0.00393389
0.00391575
0.00389787
0.00388025
0.00386294
0.00384595
0.00382931
0.00381292
0.00379698
0.00378122
0.00376474
0.0037472
0.00372836
0.00370781
0.00368527
0.00366025
0.00363311
0.00360421
0.00357357
0.00354133
0.00350767
0.00347272
0.00343677
0.00339998
0.00336262
0.00332485
0.00328677
0.00324871
0.00321069
0.00317296
0.0031356
0.0030987
0.00306254
0.00302693
0.00299229
0.00295852
0.00292573
0.00289404
0.00286331
0.00283376
0.00280512
0.00277757
0.00275088
0.00272506
0.00270005
0.00267573
0.00265214
0.00262918
0.00260684
0.00258513
0.00256403
0.00254355
0.00252371
0.00250453
0.002486
0.00246815
0.00245097
0.00243443
0.00241853
0.00240323
0.0023885
0.0023743
0.00236058
0.00234732
0.00233449
0.00232203
0.00230993
0.00229818
0.00228673
0.00227559
0.0022647
0.00225407
0.00224365
0.00223345
0.0022234
0.00221348
0.00220365
0.00219386
0.00218407
0.0021742
0.00216424
0.00215408
0.00214368
0.00213295
0.00212183
0.00211022
0.00209804
0.0020852
0.00207163
0.00205721
0.00204189
0.00202559
0.00200822
0.00198977
0.00197019
0.00194943
0.0019275
0.0019044
0.00188012
0.00185469
0.00182814
0.00180048
0.00177175
0.001742
0.00171124
0.00167955
0.00164699
0.00161353
0.00157933
0.00154444
0.00150888
0.0014729
0.00143647
0.00139978
0.00136298
0.00132618
0.00128956
0.00125326
0.00121736
0.00118212
0.00114746
0.00111378
0.001081
0.00104922
0.00101871
0.000989249
0.000961235
0.000934301
0.000908778
0.000884382
0.000861106
0.000838815
0.000817741
0.000797204
0.00077839
0.000759272
0.000740571
0.000722354
0.000704615
0.000687003
0.000669597
0.000651784
0.000633751
0.000615533
0.000596902
0.000577769
0.000558143
0.000538062
0.000517582
0.000496778
0.000475733
0.000454529
0.000433238
0.000411927
0.00039065
0.000369457
0.000348386
0.000327467
0.00030672
0.000286157
0.000265781
0.000245587
0.000225561
0.000205683
0.00018593
0.000166272
0.000146684
0.000127139
0.000107614
8.80872e-05
6.85429e-05
4.89635e-05
2.93345e-05
9.61426e-06
0.0044515
0.00443005
0.00440754
0.00438754
0.00436756
0.0043469
0.00432614
0.00430554
0.0042851
0.00426474
0.00424448
0.00422432
0.00420426
0.0041843
0.00416443
0.00414466
0.00412498
0.00410539
0.0040859
0.00406651
0.00404722
0.00402804
0.00400897
0.00399003
0.00397123
0.00395257
0.00393408
0.00391578
0.00389767
0.00387979
0.00386214
0.00384474
0.0038276
0.00381058
0.00379388
0.00377723
0.00375975
0.00374117
0.00372131
0.00369982
0.00367655
0.00365107
0.00362374
0.00359486
0.00356448
0.00353274
0.00349982
0.00346584
0.00343106
0.00339563
0.00335975
0.00332357
0.00328718
0.00325079
0.00321446
0.00317832
0.00314246
0.00310693
0.00307193
0.00303736
0.00300349
0.0029703
0.00293791
0.00290643
0.0028758
0.0028462
0.00281746
0.00278973
0.00276283
0.0027368
0.00271159
0.00268706
0.00266327
0.00264011
0.00261757
0.00259566
0.00257434
0.00255363
0.00253354
0.00251408
0.00249526
0.0024771
0.0024596
0.00244275
0.00242653
0.00241091
0.00239586
0.00238135
0.00236731
0.00235372
0.00234055
0.00232773
0.00231524
0.00230307
0.00229117
0.00227955
0.00226815
0.002257
0.00224602
0.00223524
0.00222459
0.00221408
0.00220363
0.00219322
0.00218281
0.00217232
0.00216173
0.00215093
0.00213987
0.00212848
0.00211666
0.00210433
0.00209141
0.00207779
0.00206343
0.0020482
0.00203205
0.00201494
0.00199677
0.00197755
0.00195725
0.00193584
0.00191334
0.00188977
0.00186511
0.00183942
0.00181272
0.00178504
0.00175641
0.00172688
0.00169646
0.00166525
0.0016333
0.00160056
0.00156722
0.00153332
0.00149889
0.00146412
0.00142903
0.00139376
0.00135841
0.0013231
0.00128793
0.00125302
0.00121843
0.00118435
0.00115072
0.00111783
0.00108566
0.0010543
0.001024
0.000994615
0.000966497
0.000939376
0.000913576
0.000888823
0.000865212
0.000842541
0.000821092
0.000800053
0.000780715
0.000760911
0.000741484
0.000722576
0.000704232
0.000686069
0.000668243
0.000650088
0.000631827
0.000613472
0.000594741
0.000575528
0.000555851
0.000535746
0.000515271
0.000494498
0.000473508
0.000452379
0.00043118
0.000409971
0.000388806
0.000367728
0.000346773
0.00032597
0.000305337
0.000284886
0.000264618
0.000244529
0.000224605
0.000204825
0.000185165
0.000165598
0.000146099
0.00012664
0.000107198
8.77535e-05
6.82887e-05
4.87855e-05
2.92329e-05
9.57899e-06
0.00444818
0.00442708
0.00440544
0.00438624
0.00436689
0.00434672
0.00432631
0.00430596
0.00428568
0.00426542
0.00424522
0.0042251
0.00420506
0.0041851
0.00416522
0.00414544
0.00412574
0.00410612
0.0040866
0.00406717
0.00404782
0.00402858
0.00400943
0.00399039
0.00397146
0.00395266
0.003934
0.00391547
0.00389711
0.00387891
0.00386089
0.00384304
0.00382535
0.00380771
0.00379026
0.00377275
0.00375437
0.00373488
0.00371413
0.00369187
0.00366801
0.00364221
0.00361481
0.00358606
0.00355603
0.00352487
0.00349275
0.00345977
0.00342617
0.00339207
0.00335763
0.00332297
0.00328817
0.00325336
0.00321859
0.00318395
0.00314949
0.00311524
0.00308137
0.00304782
0.00301471
0.00298213
0.00295019
0.00291898
0.00288847
0.00285885
0.00283
0.00280207
0.00277495
0.00274865
0.00272316
0.00269836
0.00267431
0.00265089
0.0026281
0.00260594
0.00258437
0.00256339
0.00254303
0.00252329
0.00250418
0.00248572
0.0024679
0.00245073
0.0024342
0.00241827
0.00240291
0.0023881
0.00237376
0.00235985
0.00234635
0.00233319
0.00232033
0.00230777
0.00229543
0.00228336
0.00227146
0.00225978
0.00224824
0.0022369
0.00222564
0.00221451
0.00220343
0.00219238
0.00218133
0.00217017
0.00215891
0.00214742
0.00213567
0.00212355
0.00211099
0.0020979
0.00208419
0.00206976
0.00205459
0.00203853
0.00202157
0.00200366
0.00198475
0.00196483
0.00194391
0.00192196
0.00189902
0.00187511
0.00185023
0.00182443
0.00179773
0.00177017
0.00174179
0.00171261
0.00168266
0.00165207
0.00162079
0.00158887
0.00155645
0.00152358
0.00149028
0.00145672
0.00142292
0.00138897
0.00135499
0.00132103
0.00128718
0.00125352
0.00122011
0.00118705
0.00115432
0.00112212
0.00109049
0.00105947
0.00102932
0.000999954
0.00097166
0.000944262
0.000918082
0.000892876
0.000868825
0.000845668
0.000823783
0.000802233
0.000782401
0.000762022
0.000741993
0.00072252
0.000703678
0.000685038
0.000666793
0.000648273
0.000629724
0.000611146
0.00059223
0.000572869
0.000553087
0.00053293
0.00051245
0.000491718
0.000470811
0.000449798
0.000428741
0.00040769
0.00038669
0.000365781
0.000344993
0.000324349
0.000303867
0.000283556
0.000263416
0.000243443
0.000223623
0.000203938
0.000184365
0.00016488
0.000145458
0.000126076
0.000106713
8.73485e-05
6.79676e-05
4.85523e-05
2.90957e-05
9.53285e-06
0.00444595
0.00442504
0.00440392
0.00438525
0.00436635
0.00434655
0.00432644
0.00430632
0.00428618
0.00426603
0.0042459
0.00422582
0.0042058
0.00418584
0.00416596
0.00414616
0.00412644
0.00410679
0.00408723
0.00406774
0.00404833
0.004029
0.00400976
0.0039906
0.00397153
0.00395255
0.00393368
0.00391491
0.00389625
0.00387771
0.00385927
0.00384094
0.00382269
0.00380443
0.00378626
0.00376792
0.00374872
0.00372842
0.00370692
0.00368403
0.00365971
0.00363372
0.00360634
0.0035778
0.00354819
0.00351767
0.00348637
0.00345441
0.00342197
0.00338916
0.00335609
0.00332286
0.00328954
0.00325619
0.00322287
0.00318961
0.00315646
0.00312343
0.00309065
0.00305812
0.00302579
0.00299385
0.00296242
0.00293154
0.00290123
0.00287166
0.00284276
0.00281466
0.00278732
0.00276074
0.00273494
0.00270982
0.00268544
0.00266171
0.0026386
0.00261614
0.00259427
0.002573
0.00255234
0.00253229
0.00251286
0.00249408
0.00247594
0.00245844
0.00244158
0.00242532
0.00240964
0.00239451
0.00237985
0.00236562
0.0023518
0.0023383
0.00232507
0.00231213
0.00229937
0.00228685
0.00227445
0.00226226
0.00225015
0.00223823
0.00222636
0.0022146
0.00220287
0.00219115
0.00217941
0.00216756
0.00215559
0.00214337
0.00213087
0.00211799
0.00210463
0.00209073
0.00207621
0.00206095
0.00204495
0.00202809
0.00201036
0.00199172
0.00197215
0.00195164
0.00193022
0.00190788
0.00188464
0.00186054
0.00183559
0.00180983
0.00178328
0.00175598
0.00172796
0.00169926
0.0016699
0.00163995
0.0016094
0.00157836
0.00154689
0.00151505
0.00148286
0.00145045
0.00141786
0.00138516
0.00135243
0.0013197
0.00128704
0.00125449
0.00122214
0.00119
0.00115807
0.00112652
0.00109535
0.00106465
0.00103464
0.00100528
0.000976775
0.000949056
0.000922435
0.000896712
0.000872119
0.000848403
0.000826007
0.00080394
0.000783583
0.000762713
0.000742184
0.000722236
0.000702955
0.000683866
0.000665166
0.000646241
0.000627337
0.000608438
0.000589246
0.000569667
0.000549739
0.000529511
0.000509035
0.000488373
0.000467595
0.000446757
0.000425905
0.000405078
0.00038431
0.000363631
0.000343064
0.000322627
0.000302332
0.000282187
0.000262193
0.000242343
0.000222628
0.000203031
0.000183535
0.000164118
0.000144762
0.000125446
0.000106153
8.68684e-05
6.7577e-05
4.82626e-05
2.89227e-05
9.47297e-06
0.00444454
0.00442376
0.00440294
0.00438461
0.00436601
0.00434648
0.00432658
0.00430663
0.00428662
0.00426656
0.00424649
0.00422645
0.00420646
0.00418651
0.00416663
0.00414682
0.00412707
0.0041074
0.00408778
0.00406824
0.00404876
0.00402935
0.00400999
0.0039907
0.00397147
0.00395231
0.0039332
0.00391417
0.00389519
0.00387628
0.00385742
0.00383859
0.00381977
0.0038009
0.00378202
0.00376288
0.00374292
0.00372192
0.00369979
0.00367638
0.00365172
0.00362564
0.00359836
0.00357008
0.00354094
0.00351109
0.00348063
0.00344966
0.00341834
0.00338676
0.00335498
0.00332309
0.00329112
0.00325912
0.00322713
0.00319515
0.00316322
0.00313135
0.00309959
0.00306801
0.00303655
0.00300529
0.0029744
0.00294395
0.00291393
0.00288453
0.00285566
0.00282746
0.00279996
0.00277314
0.00274703
0.00272158
0.00269686
0.00267276
0.0026493
0.00262647
0.00260425
0.00258263
0.00256163
0.00254124
0.00252145
0.0025023
0.0024838
0.00246593
0.00244869
0.00243207
0.00241601
0.00240052
0.0023855
0.00237092
0.00235674
0.00234287
0.00232927
0.00231593
0.00230274
0.00228977
0.00227688
0.00226417
0.00225152
0.002239
0.0022265
0.0022141
0.00220169
0.00218928
0.00217683
0.00216425
0.00215152
0.00213854
0.00212525
0.00211156
0.00209739
0.00208267
0.00206731
0.00205125
0.00203446
0.00201685
0.00199843
0.00197917
0.00195905
0.0019381
0.00191633
0.00189375
0.00187038
0.00184624
0.00182136
0.00179577
0.0017695
0.00174257
0.00171501
0.00168686
0.00165814
0.00162884
0.0015991
0.00156894
0.0015384
0.00150754
0.00147641
0.00144509
0.00141362
0.00138206
0.00135045
0.00131884
0.00128725
0.00125572
0.00122429
0.00119297
0.00116183
0.0011309
0.00110015
0.00106973
0.00103988
0.00101057
0.000981852
0.000953807
0.000926731
0.000900466
0.000875245
0.000850921
0.00082794
0.000805351
0.0007844
0.000763082
0.000742116
0.000721735
0.000702015
0.00068247
0.00066325
0.00064388
0.000624568
0.000605274
0.000585738
0.000565895
0.000545796
0.000525494
0.000505036
0.000484484
0.000463897
0.000443303
0.000422725
0.000402188
0.000381711
0.000361317
0.00034102
0.000320829
0.000300752
0.000280794
0.000260956
0.000241234
0.00022162
0.000202104
0.000182672
0.000163312
0.00014401
0.000124751
0.000105525
8.63201e-05
6.71252e-05
4.79252e-05
2.872e-05
9.40226e-06
0.00444383
0.00442315
0.0044025
0.00438434
0.00436591
0.00434654
0.00432678
0.00430693
0.00428701
0.00426702
0.004247
0.004227
0.00420702
0.0041871
0.00416722
0.0041474
0.00412763
0.00410793
0.00408827
0.00406867
0.00404912
0.00402962
0.00401017
0.00399073
0.00397134
0.00395198
0.00393264
0.00391332
0.00389402
0.00387474
0.00385545
0.00383613
0.00381674
0.00379726
0.00377768
0.0037578
0.00373714
0.00371552
0.00369284
0.00366902
0.0036441
0.00361799
0.00359086
0.0035629
0.00353426
0.00350508
0.00347544
0.00344545
0.00341519
0.00338475
0.00335418
0.00332351
0.00329279
0.00326201
0.00323123
0.00320042
0.00316961
0.00313882
0.00310804
0.00307737
0.00304674
0.00301626
0.00298601
0.002956
0.00292637
0.00289724
0.00286851
0.00284031
0.00281275
0.00278576
0.0027594
0.00273366
0.0027086
0.00268415
0.00266031
0.00263708
0.00261446
0.00259244
0.00257105
0.00255027
0.00253008
0.0025105
0.00249156
0.00247326
0.00245559
0.00243852
0.00242202
0.0024061
0.00239064
0.00237564
0.00236103
0.00234674
0.0023327
0.00231893
0.00230528
0.00229184
0.00227845
0.00226521
0.00225199
0.00223889
0.00222576
0.00221271
0.00219963
0.00218651
0.00217333
0.00215999
0.00214649
0.00213272
0.00211862
0.00210411
0.00208912
0.00207359
0.00205744
0.00204063
0.00202314
0.00200489
0.00198589
0.00196613
0.00194562
0.00192437
0.00190243
0.00187977
0.00185641
0.00183237
0.00180768
0.00178239
0.00175648
0.00173
0.00170295
0.00167538
0.00164729
0.00161873
0.00158978
0.00156045
0.0015308
0.00150087
0.00147072
0.0014404
0.00140996
0.00137943
0.00134883
0.00131822
0.00128759
0.00125698
0.00122639
0.00119584
0.00116538
0.00113502
0.00110477
0.00107466
0.00104495
0.00101569
0.000986813
0.000958489
0.000930987
0.000904176
0.000878299
0.000853339
0.000829691
0.000806566
0.000784945
0.000763181
0.000741795
0.000720975
0.000700768
0.000680766
0.000661006
0.000641146
0.000621367
0.000601629
0.00058174
0.000561658
0.000541411
0.000521042
0.000500591
0.000480159
0.000459815
0.000439534
0.000419294
0.000399099
0.000378967
0.000358898
0.000338902
0.00031898
0.000299138
0.000279379
0.000259704
0.000240109
0.000220592
0.000201148
0.000181772
0.000162458
0.000143201
0.000123994
0.000104834
8.57138e-05
6.66259e-05
4.75549e-05
2.84962e-05
9.32761e-06
0.00444377
0.00442316
0.00440257
0.00438446
0.00436608
0.00434676
0.00432705
0.00430725
0.00428737
0.00426741
0.00424743
0.00422745
0.0042075
0.00418758
0.00416771
0.00414789
0.00412812
0.00410839
0.0040887
0.00406906
0.00404944
0.00402986
0.00401029
0.00399073
0.00397118
0.00395163
0.00393206
0.00391247
0.00389283
0.00387318
0.00385349
0.00383369
0.00381374
0.00379365
0.00377341
0.00375281
0.00373151
0.00370933
0.00368618
0.00366201
0.0036369
0.00361079
0.00358384
0.00355622
0.0035281
0.00349959
0.00347075
0.00344168
0.00341242
0.00338304
0.00335356
0.00332401
0.00329441
0.00326474
0.00323505
0.0032053
0.00317552
0.00314572
0.00311587
0.00308609
0.00305627
0.00302654
0.00299694
0.00296753
0.0029384
0.00290958
0.00288105
0.00285298
0.00282548
0.00279843
0.00277189
0.00274594
0.0027206
0.00269583
0.00267163
0.002648
0.00262495
0.00260249
0.00258067
0.00255946
0.00253884
0.00251876
0.00249931
0.00248049
0.0024623
0.0024447
0.00242766
0.0024112
0.00239521
0.00237968
0.00236455
0.00234975
0.00233521
0.00232093
0.00230679
0.00229282
0.00227891
0.00226512
0.00225133
0.00223763
0.00222389
0.00221019
0.00219642
0.0021826
0.00216869
0.0021546
0.00214033
0.00212578
0.00211089
0.00209559
0.00207981
0.00206352
0.00204666
0.00202918
0.00201109
0.00199234
0.00197293
0.00195285
0.00193212
0.00191076
0.00188879
0.0018662
0.00184295
0.00181911
0.00179472
0.00176978
0.0017443
0.00171828
0.00169177
0.00166478
0.00163733
0.00160948
0.00158126
0.00155272
0.00152389
0.00149483
0.00146558
0.00143617
0.00140664
0.00137703
0.00134735
0.00131763
0.00128786
0.00125808
0.00122826
0.00119842
0.00116859
0.00113877
0.00110898
0.00107929
0.00104979
0.00102059
0.000991584
0.000963048
0.000935142
0.000907794
0.000881289
0.00085569
0.000831294
0.0008076
0.000785246
0.00076301
0.000741193
0.000719911
0.000699193
0.000678688
0.000658449
0.000638184
0.000617838
0.000597508
0.000577303
0.000557035
0.000536655
0.000516272
0.000495948
0.000475731
0.000455647
0.000435669
0.000415765
0.000395923
0.000376147
0.000356423
0.000336749
0.000317104
0.000297499
0.000277938
0.000258418
0.000238944
0.000219518
0.000200143
0.000180821
0.000161554
0.000142344
0.000123191
0.000104098
8.50695e-05
6.60978e-05
4.71626e-05
2.82582e-05
9.25773e-06
0.00444437
0.00442379
0.00440316
0.00438497
0.00436653
0.00434715
0.0043274
0.00430758
0.00428769
0.00426775
0.00424777
0.00422781
0.00420788
0.00418798
0.00416813
0.00414831
0.00412854
0.0041088
0.00408909
0.0040694
0.00404973
0.00403007
0.00401042
0.00399075
0.00397105
0.00395132
0.00393154
0.00391168
0.00389176
0.00387175
0.00385162
0.00383134
0.00381088
0.00379024
0.00376935
0.00374807
0.00372615
0.00370345
0.00367987
0.00365541
0.00363014
0.00360406
0.00357728
0.00355001
0.00352241
0.00349455
0.00346648
0.00343828
0.00340994
0.00338153
0.00335304
0.00332448
0.00329588
0.0032672
0.00323848
0.00320969
0.00318085
0.00315196
0.00312298
0.00309404
0.00306501
0.00303604
0.00300712
0.00297832
0.00294968
0.00292126
0.00289311
0.00286531
0.00283791
0.00281089
0.00278424
0.00275817
0.00273267
0.00270764
0.00268312
0.00265913
0.00263565
0.00261275
0.0025905
0.00256884
0.0025477
0.00252711
0.00250712
0.00248769
0.00246887
0.00245064
0.00243297
0.00241586
0.00239923
0.00238306
0.00236731
0.00235189
0.00233675
0.00232188
0.00230716
0.00229262
0.00227815
0.00226378
0.00224941
0.00223511
0.00222076
0.00220641
0.00219198
0.00217747
0.00216284
0.00214802
0.002133
0.00211771
0.0021021
0.00208609
0.00206964
0.00205272
0.0020353
0.00201733
0.00199877
0.00197959
0.00195985
0.00193961
0.00191885
0.00189753
0.00187564
0.00185319
0.00183019
0.00180664
0.00178258
0.00175802
0.00173296
0.00170741
0.00168141
0.00165498
0.00162814
0.00160094
0.0015734
0.00154559
0.00151751
0.00148923
0.00146078
0.00143218
0.00140348
0.00137469
0.00134582
0.00131691
0.00128791
0.00125887
0.00122976
0.00120058
0.00117136
0.00114208
0.00111276
0.00108347
0.00105418
0.00102508
0.000996093
0.000967419
0.000939138
0.000911315
0.000884134
0.000857838
0.000832662
0.000808377
0.000785249
0.000762526
0.000740289
0.000718563
0.000697223
0.000676107
0.000655386
0.000634742
0.000614047
0.000593404
0.000572846
0.000552326
0.000531869
0.000511524
0.000491336
0.000471332
0.000451509
0.000431836
0.000412273
0.00039279
0.000373362
0.000353961
0.000334597
0.000315208
0.000295826
0.000276449
0.000257076
0.000237716
0.000218378
0.000199071
0.000179805
0.000160591
0.000141437
0.000122351
0.000103341
8.44106e-05
6.55574e-05
4.67692e-05
2.80513e-05
9.22596e-06
0.00444566
0.0044251
0.00440429
0.00438588
0.00436723
0.00434769
0.00432782
0.00430792
0.00428799
0.00426802
0.00424804
0.00422809
0.00420818
0.00418831
0.00416847
0.00414867
0.00412891
0.00410917
0.00408945
0.00406974
0.00405003
0.00403032
0.00401058
0.00399081
0.00397098
0.0039511
0.00393112
0.00391104
0.00389084
0.0038705
0.00384998
0.00382927
0.00380831
0.00378714
0.00376564
0.00374369
0.00372119
0.00369797
0.00367398
0.00364922
0.00362381
0.00359779
0.00357117
0.00354424
0.00351715
0.00348992
0.00346257
0.00343517
0.00340767
0.00338013
0.00335252
0.00332485
0.00329712
0.00326932
0.00324147
0.00321354
0.00318553
0.00315748
0.00312931
0.00310116
0.00307288
0.00304465
0.0030164
0.00298822
0.00296014
0.0029322
0.00290446
0.00287696
0.00284973
0.00282283
0.0027963
0.00277022
0.00274455
0.00271933
0.00269453
0.00267019
0.00264639
0.00262316
0.00260046
0.00257828
0.0025566
0.00253551
0.00251495
0.0024949
0.00247537
0.00245643
0.00243804
0.0024202
0.00240284
0.00238595
0.00236947
0.00235334
0.0023375
0.00232194
0.00230657
0.00229139
0.0022763
0.00226132
0.00224635
0.00223143
0.00221648
0.00220152
0.00218648
0.00217134
0.00215607
0.0021406
0.00212487
0.00210882
0.00209246
0.00207582
0.00205885
0.00204148
0.00202361
0.00200527
0.00198642
0.00196705
0.00194718
0.00192691
0.00190621
0.00188499
0.00186323
0.00184097
0.00181822
0.00179498
0.00177126
0.00174707
0.00172241
0.00169731
0.00167178
0.00164586
0.00161957
0.00159295
0.00156602
0.00153886
0.00151145
0.00148387
0.00145613
0.00142826
0.00140029
0.00137224
0.00134409
0.0013159
0.0012876
0.00125924
0.00123078
0.00120223
0.00117359
0.00114485
0.00111599
0.0010871
0.0010581
0.00102919
0.00100022
0.000971406
0.000942789
0.000914563
0.00088682
0.000859853
0.000833786
0.000808773
0.000784799
0.000761533
0.000738802
0.000716587
0.000694766
0.000673318
0.000652142
0.000631127
0.00061017
0.000589271
0.00056848
0.000547823
0.000527333
0.000507048
0.000487
0.000467199
0.000447623
0.000428231
0.000408972
0.0003898
0.000370675
0.000351564
0.000332441
0.000313282
0.000294097
0.000274883
0.000255644
0.000236393
0.000217143
0.000197909
0.000178709
0.00015956
0.000140475
0.00012147
0.000102555
8.37369e-05
6.50171e-05
4.6387e-05
2.78514e-05
9.20673e-06
0.00444779
0.00442718
0.004406
0.00438717
0.00436817
0.00434835
0.00432827
0.00430824
0.00428823
0.00426823
0.00424824
0.00422831
0.00420842
0.00418858
0.00416878