/*--------------------------------*- C++ -*----------------------------------*\
| =========                 |                                                 |
| \\      /  F ield         | OpenFOAM: The Open Source CFD Toolbox           |
|  \\    /   O peration     | Version:  2506                                  |
|   \\  /    A nd           | Website:  www.openfoam.com                      |
|    \\/     M anipulation  |                                                 |
\*---------------------------------------------------------------------------*/
FoamFile
{
    version     2.0;
    format      ascii;
    arch        "LSB;label=32;scalar=64";
    class       volScalarField;
    location    "3";
    object      s;
}
// * * * * * * * * * * * * * * * * * * * * * * * * * * * * * * * * * * * * * //

dimensions      [0 0 0 0 0 0 0];

internalField   nonuniform List<scalar> 
4000
(
-7.85009e-22
9.3054e-20
-8.39828e-19
5.0966e-18
-2.19951e-17
6.9311e-17
-4.9163e-15
-9.13001e-14
-8.84699e-13
-4.56981e-13
9.34934e-11
2.08534e-09
3.71619e-08
4.68663e-07
5.67367e-06
5.24551e-05
0.000451343
0.00522448
0.0279137
0.0826389
0.151528
0.196217
0.202313
0.19726
0.175746
0.125963
0.0605788
0.0157936
0.00142905
0.00127559
0.00135722
0.001586
0.00218022
0.00350968
0.00608222
0.0106324
0.01746
0.0254561
0.033943
0.0423426
0.0508164
0.0576371
0.0607931
0.061087
0.060414
0.0595261
0.0586837
0.0576832
0.0567733
0.0559304
0.0550933
0.0544175
0.0537022
0.0531108
0.0523572
0.0515249
0.0504041
0.0487016
0.0461918
0.0425215
0.0375141
0.031091
0.0239247
0.0171251
0.0114333
0.00713025
0.00416122
0.00228416
0.00119543
0.000605555
0.00030041
0.00014551
6.82997e-05
3.14302e-05
1.46191e-05
7.06744e-06
3.53545e-06
1.77956e-06
8.77111e-07
4.17493e-07
1.90995e-07
8.40478e-08
3.56463e-08
1.45652e-08
5.71864e-09
2.15146e-09
7.65888e-10
2.50021e-10
7.22203e-11
1.46852e-11
-1.67855e-12
-3.88877e-12
-3.15724e-12
-2.17254e-12
-1.38045e-12
-1.1922e-12
-1.34008e-12
-1.66685e-12
-1.52177e-12
-4.50129e-13
-9.3996e-14
1.60614e-13
-2.1249e-13
-4.5989e-12
-3.32091e-11
-1.39163e-10
-3.87976e-10
-7.25659e-10
-1.17817e-09
-2.39284e-09
-2.42762e-08
-1.05191e-07
-2.70187e-07
-5.33764e-07
-8.26204e-07
-1.16067e-06
-1.54025e-06
-1.97572e-06
-2.43778e-06
-2.90425e-06
-3.35296e-06
-3.74533e-06
-4.08524e-06
-4.37793e-06
-4.58567e-06
-4.71035e-06
-4.75945e-06
-4.73412e-06
-4.66015e-06
-4.56848e-06
-4.40163e-06
-4.22464e-06
-4.09569e-06
-3.9011e-06
-3.73389e-06
-3.64304e-06
-3.46525e-06
-3.36599e-06
-3.226e-06
-3.08101e-06
-2.90748e-06
-2.68827e-06
-2.41316e-06
-2.08098e-06
-1.61294e-06
-1.2371e-06
-8.84482e-07
-5.82805e-07
-3.51586e-07
-1.94348e-07
-9.98867e-08
-4.91808e-08
-2.41375e-08
-1.20069e-08
-5.68967e-09
-2.31159e-09
-8.13862e-10
-3.97791e-10
-4.91903e-10
-9.1921e-10
-1.83528e-09
-3.46604e-09
-6.43964e-09
-1.18416e-08
-2.02675e-08
-2.89168e-08
-3.55033e-08
-1.81241e-07
-6.01655e-07
-7.80729e-07
-7.18007e-07
-5.26296e-07
-3.15061e-07
-1.50205e-07
-5.05547e-08
-7.47622e-09
-1.08509e-09
-1.37425e-10
5.66904e-11
1.05401e-10
1.04209e-10
8.32548e-11
5.89862e-11
3.7424e-11
2.07627e-11
9.53778e-12
2.97816e-12
-1.69177e-13
-1.05561e-12
-7.4302e-13
-1.19122e-13
2.51792e-13
2.96377e-13
1.94172e-13
8.53095e-14
2.0504e-14
-3.79636e-15
-6.38655e-15
-3.31906e-15
-1.34929e-15
-2.93721e-20
2.39952e-19
-1.41286e-18
7.38237e-18
-3.19073e-17
9.31749e-17
-1.19289e-16
-7.70431e-15
-4.20651e-14
-1.05612e-12
3.46238e-11
-1.63503e-10
-3.81954e-10
1.62907e-08
3.79832e-07
4.34402e-06
3.66057e-05
0.000244006
0.00088193
0.0022702
0.00459018
0.00773886
0.011011
0.0140706
0.0165092
0.0182441
0.0191141
0.0189664
0.0187455
0.0187104
0.0188507
0.0191007
0.0195978
0.020936
0.0250049
0.0339732
0.0473011
0.0621969
0.0755115
0.0846925
0.082786
0.0791265
0.076195
0.0745586
0.0740937
0.074191
0.0743835
0.0749084
0.0752565
0.0755359
0.0757818
0.0757657
0.0758485
0.0756663
0.0756626
0.0753875
0.0747241
0.0739104
0.0732499
0.0726687
0.0723084
0.0719276
0.0717762
0.07199
0.0724509
0.0733456
0.073862
0.073551
0.0713711
0.065383
0.0517769
0.0329409
0.0158633
0.00728872
0.00402965
0.00234139
0.00134982
0.000753209
0.000399718
0.000202231
9.81873e-05
4.59577e-05
2.07623e-05
9.04947e-06
3.80729e-06
1.54805e-06
6.09444e-07
2.32546e-07
8.64735e-08
3.13767e-08
1.09966e-08
3.68039e-09
1.11658e-09
2.47752e-10
-4.51312e-11
-1.89109e-10
-3.69343e-10
-6.52312e-10
-8.34008e-10
-8.52615e-10
-1.01753e-09
-2.38214e-09
-7.73448e-09
-2.75681e-08
-1.05249e-07
-3.29984e-07
-8.56579e-07
-1.67128e-06
-2.64911e-06
-3.81647e-06
-5.36372e-06
-7.1541e-06
-8.99765e-06
-1.17272e-05
-1.48245e-05
-1.69625e-05
-1.84581e-05
-1.93664e-05
-1.98134e-05
-1.98375e-05
-1.95207e-05
-1.90321e-05
-1.85202e-05
-1.80225e-05
-1.7573e-05
-1.71606e-05
-1.67808e-05
-1.64496e-05
-1.61346e-05
-1.57688e-05
-1.54299e-05
-1.50548e-05
-1.45187e-05
-1.39825e-05
-1.3359e-05
-1.24688e-05
-1.17244e-05
-1.07675e-05
-9.93356e-06
-9.23333e-06
-8.82522e-06
-8.90569e-06
-9.57641e-06
-1.06777e-05
-1.20678e-05
-1.32559e-05
-1.41717e-05
-1.48831e-05
-1.52804e-05
-1.52752e-05
-1.47839e-05
-1.36142e-05
-1.17908e-05
-9.36477e-06
-6.55926e-06
-3.77624e-06
-1.56076e-06
-3.52294e-07
-1.88942e-07
-3.59588e-07
-6.47112e-07
-1.2516e-06
-2.41512e-06
-4.00046e-06
-6.45805e-06
-1.04968e-05
-1.55139e-05
-2.07633e-05
-2.43261e-05
-2.32941e-05
-2.03682e-05
-1.63824e-05
-1.18329e-05
-7.64197e-06
-4.52045e-06
-2.42203e-06
-1.3719e-06
-8.34552e-07
-4.99512e-07
-2.91158e-07
-1.60889e-07
-9.24422e-08
-5.77443e-08
-3.84838e-08
-2.74248e-08
-2.0519e-08
-1.55466e-08
-1.15825e-08
-8.30434e-09
-5.64839e-09
-3.63731e-09
-2.20355e-09
-1.24969e-09
-6.73286e-10
-3.51026e-10
-1.78339e-10
-8.814e-11
-4.21267e-11
-1.9247e-11
-8.2736e-12
-1.88561e-20
1.1603e-19
-5.10103e-19
1.98781e-18
-5.72044e-18
5.84532e-18
2.66973e-17
-1.23514e-16
-1.58905e-15
-4.62471e-13
3.56174e-12
-1.61549e-11
-1.71594e-10
8.65705e-11
4.91789e-09
1.18674e-08
2.68325e-08
6.52137e-08
2.14761e-07
5.7016e-07
1.20956e-06
2.26632e-06
3.74822e-06
5.87833e-06
1.11785e-05
3.90657e-05
0.000356898
0.00115763
0.00206615
0.00303722
0.00409141
0.00533194
0.00684011
0.00887261
0.0110991
0.0123374
0.012129
0.0113114
0.0104976
0.00951691
0.00811824
0.00686075
0.00600829
0.00548035
0.00522414
0.00515475
0.0051988
0.00538136
0.00563197
0.00596328
0.00639302
0.00688926
0.00758311
0.00846985
0.00977138
0.0116694
0.0145326
0.0187616
0.0242018
0.0307489
0.037403
0.0441302
0.0507435
0.0571322
0.0638989
0.0694596
0.0732589
0.0770522
0.0818682
0.0864333
0.0860164
0.082972
0.0773071
0.0690152
0.0570928
0.0432216
0.0279637
0.0152496
0.0086675
0.00528449
0.00322148
0.00195164
0.00115327
0.000651709
0.000351779
0.00018356
9.36125e-05
4.66662e-05
2.27098e-05
1.07202e-05
4.90847e-06
2.18466e-06
9.40922e-07
3.89622e-07
1.54038e-07
5.43288e-08
1.06596e-08
-1.76439e-08
-8.81394e-08
-1.89525e-07
-3.38042e-07
-5.94353e-07
-9.82168e-07
-1.57606e-06
-2.47319e-06
-4.02163e-06
-7.15628e-06
-1.1567e-05
-1.59898e-05
-1.89072e-05
-1.99162e-05
-1.81055e-05
-1.27475e-05
-3.45374e-06
6.97531e-05
0.000612347
0.00162748
0.00305937
0.00475466
0.00661748
0.00858011
0.0105069
0.0123129
0.0139734
0.0154016
0.0165836
0.017524
0.0182247
0.0187403
0.0191679
0.0194142
0.0195775
0.0198308
0.0199349
0.0200328
0.0202895
0.0202354
0.020255
0.0200176
0.0195396
0.0187081
0.0173494
0.0154035
0.0129813
0.0101181
0.0077384
0.0057389
0.00415126
0.00288877
0.00191491
0.001207
0.000708505
0.000389338
0.000196695
9.13306e-05
3.76447e-05
1.24353e-05
1.22282e-06
-3.29637e-06
-4.87827e-06
-5.72466e-06
-7.2337e-06
-1.18616e-05
-2.36481e-05
-4.21831e-05
-5.80773e-05
-6.68914e-05
-6.86716e-05
-6.08704e-05
-4.30011e-05
-2.29841e-05
-1.19997e-05
-1.24827e-05
-1.86212e-05
-2.32827e-05
-2.38145e-05
-1.89527e-05
-1.44432e-05
-1.23024e-05
-1.20438e-05
-1.27747e-05
-1.37496e-05
-1.45775e-05
-1.4879e-05
-1.45512e-05
-1.35694e-05
-1.21153e-05
-1.0485e-05
-8.77111e-06
-6.97386e-06
-5.1323e-06
-3.37819e-06
-2.03571e-06
-1.16457e-06
-6.36703e-07
-3.30395e-07
-1.62202e-07
-7.69431e-08
-3.57732e-08
-1.5385e-08
-7.72924e-22
-3.64683e-21
5.45365e-20
-3.45228e-19
1.54286e-18
-4.23704e-18
1.01938e-18
1.18306e-17
-6.25252e-17
-6.14586e-15
-2.29261e-13
-3.02223e-13
-3.48376e-12
1.47092e-11
-1.6056e-11
-3.38125e-10
-1.42565e-09
-1.55943e-09
7.74269e-10
4.0186e-09
4.99081e-09
2.59543e-09
-3.08286e-09
-9.06635e-09
-6.86581e-09
2.57149e-08
-3.96745e-08
2.18401e-07
5.26888e-07
9.01836e-07
1.38494e-06
3.54035e-05
0.000173448
0.000492445
0.000838588
0.000889957
0.000828967
0.000754971
0.000645767
0.000517454
0.000387256
0.000288908
0.00022433
0.000183153
0.000158471
0.00014425
0.000136607
0.000135004
0.000136915
0.000142476
0.000151978
0.000164755
0.000183373
0.000206681
0.000238647
0.000281706
0.000364751
0.000616979
0.00129498
0.00276285
0.00510912
0.00862099
0.0137469
0.0207254
0.0294684
0.0391083
0.048634
0.0575339
0.0663807
0.074684
0.0811376
0.0840291
0.0854236
0.0884608
0.0893379
0.0880723
0.0851268
0.0801307
0.0726642
0.0611662
0.0471242
0.0315484
0.0183011
0.0108676
0.00676483
0.00421641
0.00265304
0.00164825
0.000989435
0.000569964
0.000316876
0.0001729
9.26159e-05
4.84953e-05
2.48406e-05
1.22274e-05
5.69117e-06
2.21661e-06
2.00245e-07
-1.20803e-06
-2.50179e-06
-3.86029e-06
-5.25026e-06
-6.3367e-06
-6.24511e-06
-3.44224e-06
5.42687e-06
2.84274e-05
0.000394361
0.0019988
0.00505444
0.00955957
0.0154409
0.022458
0.0306938
0.0396039
0.0485234
0.0572926
0.0655234
0.0729999
0.0796762
0.0854078
0.0901872
0.0941512
0.0973406
0.0998748
0.101867
0.103383
0.104572
0.105622
0.106479
0.107277
0.108263
0.109201
0.110238
0.111571
0.112691
0.113966
0.115027
0.115791
0.116036
0.11537
0.113337
0.109561
0.102857
0.0939096
0.0817099
0.0676273
0.0523305
0.0366245
0.0232911
0.0142627
0.00862454
0.00504021
0.00280767
0.00145873
0.000724855
0.000352627
0.000177128
9.98897e-05
7.69577e-05
6.85388e-05
5.59802e-05
3.33789e-05
1.71322e-05
4.53386e-05
0.00250353
0.00833026
0.0152265
0.0204719
0.0220763
0.0197193
0.014725
0.00909183
0.00447714
0.00170439
0.000587025
0.000179842
4.21591e-05
-1.35953e-06
-1.56241e-05
-2.28889e-05
-2.9679e-05
-3.74969e-05
-4.58212e-05
-5.43189e-05
-5.83023e-05
-5.78368e-05
-5.57709e-05
-5.15759e-05
-4.06022e-05
-2.99833e-05
-2.29281e-05
-1.70454e-05
-1.19884e-05
-7.89008e-06
-4.79447e-06
-2.62615e-06
-1.25449e-06
-4.4362e-07
2.40559e-21
-1.69115e-20
7.65825e-20
-2.86009e-19
7.79457e-19
-9.53952e-19
-2.05219e-18
3.8152e-18
2.57523e-18
1.19594e-16
-1.08053e-14
-9.1752e-14
4.83461e-13
3.7866e-12
-1.46464e-11
-5.43356e-11
-5.92205e-11
-1.28258e-10
-3.90648e-10
-1.18869e-09
-3.09867e-09
-5.42851e-09
-7.15444e-09
-8.1851e-09
-8.59031e-09
-1.41293e-08
-1.08394e-08
4.95291e-09
1.24656e-08
1.09533e-08
4.24914e-09
2.03418e-08
1.25882e-07
5.39096e-07
1.14836e-06
1.13044e-06
1.01922e-06
1.09621e-06
1.17304e-06
1.1649e-06
1.0584e-06
9.37482e-07
8.37438e-07
7.60559e-07
7.08482e-07
6.74857e-07
6.54368e-07
6.50458e-07
6.56203e-07
6.74106e-07
7.06074e-07
7.50612e-07
8.17336e-07
9e-07
1.00506e-06
1.12508e-06
1.41229e-06
1.76403e-06
2.45968e-06
3.43424e-06
4.40625e-06
4.50759e-05
0.000448795
0.00174616
0.00435726
0.00848657
0.0149006
0.0232202
0.0327192
0.0427625
0.0532116
0.0626007
0.0698733
0.0761128
0.0811487
0.0845808
0.0865718
0.0884962
0.0924744
0.0970204
0.0972389
0.0952665
0.0909551
0.0851566
0.075358
0.0611214
0.0456126
0.0298679
0.0178601
0.0111538
0.00720591
0.00483368
0.00330187
0.00224502
0.00149016
0.000942123
0.000585452
0.00036321
0.00022732
0.000145836
0.000109513
0.000262166
0.000762794
0.00190562
0.00414657
0.00790215
0.0137012
0.0219085
0.0328796
0.0462782
0.0613975
0.0765148
0.0905458
0.103115
0.114519
0.124688
0.133656
0.141124
0.146921
0.151233
0.154406
0.156671
0.15821
0.159188
0.159724
0.159928
0.1599
0.159765
0.159614
0.159523
0.159576
0.159825
0.160317
0.161089
0.162161
0.163546
0.165241
0.167246
0.169547
0.172124
0.174932
0.177912
0.180926
0.183705
0.18553
0.185594
0.182777
0.176517
0.164705
0.144405
0.118793
0.0900114
0.0622797
0.0375938
0.0206171
0.0114179
0.0064187
0.0035488
0.00195861
0.00117507
0.00100817
0.00121455
0.00177682
0.00284958
0.00638922
0.016678
0.0412877
0.0748436
0.107368
0.132345
0.146256
0.148135
0.138615
0.119361
0.0930089
0.063154
0.0361278
0.0189415
0.00926249
0.00425354
0.00189613
0.000826456
0.000355044
0.000147551
5.25649e-05
4.84643e-06
-2.2142e-05
-3.67286e-05
-3.46613e-05
-4.24593e-06
5.87372e-05
0.000140454
0.000199255
0.000203173
0.000160533
0.000102794
5.79192e-05
3.0816e-05
1.55901e-05
7.48293e-06
6.61486e-22
-3.9305e-21
1.50673e-20
-4.30762e-20
6.94156e-20
1.04988e-19
-1.45102e-18
1.06164e-17
-7.49545e-17
3.26224e-16
-4.7246e-16
-1.50119e-14
9.5643e-14
-5.45819e-14
-2.11999e-13
-2.20145e-13
3.66278e-13
1.58384e-12
4.25552e-12
8.6619e-12
6.38086e-12
3.82575e-12
2.12247e-12
2.82068e-12
-6.87614e-12
-1.14873e-10
-7.3974e-11
1.34726e-10
-3.12119e-10
-2.43045e-09
-6.38709e-09
-1.2487e-08
-2.98693e-08
-8.48972e-08
-1.31e-07
-8.10944e-08
-1.61704e-08
3.32553e-08
6.90385e-08
9.10851e-08
9.77166e-08
9.57028e-08
9.02149e-08
8.3705e-08
7.78677e-08
7.29839e-08
6.89068e-08
6.61909e-08
6.427e-08
6.33059e-08
6.33773e-08
6.42563e-08
6.65693e-08
6.99031e-08
7.49541e-08
8.13391e-08
8.15932e-08
1.8382e-08
-2.56609e-07
-6.24552e-07
1.54004e-07
3.81643e-06
5.80176e-06
5.02014e-06
-8.98904e-07
4.39485e-05
0.000758587
0.00264638
0.0060045
0.0110561
0.0182001
0.0266314
0.035209
0.0431998
0.0505
0.0571963
0.0629316
0.0673707
0.0720933
0.0775758
0.082859
0.0878494
0.0920113
0.0969022
0.103229
0.107986
0.107469
0.104745
0.0997564
0.0930841
0.0838856
0.0728819
0.0617507
0.0503259
0.0381484
0.027271
0.0212831
0.0203289
0.0220993
0.0257876
0.0302488
0.0352672
0.0410307
0.0484985
0.0581984
0.0696205
0.0826757
0.0967995
0.111162
0.124058
0.134462
0.141718
0.147358
0.152379
0.156744
0.160309
0.162861
0.164671
0.165469
0.16572
0.165538
0.16505
0.164324
0.163394
0.162317
0.161118
0.159835
0.158515
0.15718
0.155842
0.15459
0.153406
0.152221
0.151252
0.150394
0.149654
0.149382
0.149451
0.150199
0.151838
0.154579
0.158802
0.164597
0.171803
0.179426
0.186396
0.192956
0.198534
0.206543
0.208406
0.204257
0.1936
0.176196
0.145038
0.10818
0.0722738
0.0426345
0.0224481
0.0128032
0.00816535
0.00675456
0.00734161
0.0101427
0.0166592
0.034203
0.0700961
0.121974
0.175666
0.223281
0.258415
0.280061
0.290439
0.291228
0.282628
0.263837
0.234605
0.196667
0.153551
0.109747
0.0692708
0.0378819
0.0211182
0.0127144
0.00822261
0.00589184
0.00496964
0.00512289
0.00624304
0.00835479
0.0114887
0.0155937
0.0204169
0.0249545
0.0280195
0.0289069
0.0273014
0.0233436
0.018224
0.0135767
0.0090756
7.72369e-24
2.5922e-22
-1.41784e-21
6.93538e-21
-2.55959e-20
5.9286e-20
-1.30911e-19
1.0126e-18
-7.23282e-18
3.39605e-17
-2.01909e-16
1.61527e-15
-4.7039e-15
-1.09394e-14
-9.45174e-15
-8.2885e-15
8.37583e-14
2.03795e-13
4.26605e-13
7.79038e-13
1.12642e-12
1.44698e-12
1.72126e-12
2.01688e-12
4.17965e-12
9.14118e-12
1.86553e-11
3.76611e-11
6.02184e-11
7.93863e-11
4.95694e-11
-1.44377e-09
-4.56842e-09
-1.14038e-08
-1.8011e-08
-1.48222e-08
-7.44331e-09
1.06147e-09
7.91341e-09
1.12919e-08
1.25845e-08
1.24322e-08
1.15601e-08
1.04601e-08
9.45242e-09
8.61052e-09
7.92245e-09
7.44162e-09
7.09454e-09
6.88913e-09
6.82036e-09
6.85849e-09
7.05756e-09
7.37915e-09
7.88138e-09
8.61001e-09
9.49925e-09
1.41769e-08
1.20388e-08
1.93917e-08
9.89356e-08
9.94211e-08
-1.65696e-06
-5.02905e-06
-5.41781e-06
-4.73547e-07
-2.98624e-08
-2.89107e-06
-8.09611e-06
0.00016213
0.00117106
0.00328034
0.00653063
0.0108037
0.0159064
0.0210583
0.0259533
0.0302707
0.033979
0.037489
0.0411172
0.0458062
0.0511691
0.0569942
0.064454
0.0733828
0.0825697
0.0929453
0.101452
0.108317
0.112682
0.115947
0.117943
0.118013
0.117729
0.117594
0.117672
0.118322
0.118988
0.119368
0.119189
0.11921
0.119998
0.121883
0.125038
0.129423
0.134709
0.139047
0.142552
0.143856
0.143411
0.141773
0.139039
0.135361
0.130722
0.125667
0.120678
0.116031
0.111934
0.108384
0.105288
0.102634
0.100298
0.0981146
0.0960148
0.0938985
0.091695
0.089368
0.0868781
0.0841899
0.0814268
0.0786012
0.0756192
0.0728253
0.0701641
0.0676561
0.0656761
0.0641067
0.0632102
0.0631617
0.0641191
0.0664941
0.0706417
0.0769618
0.086567
0.0997064
0.116814
0.136136
0.157223
0.179089
0.197402
0.205759
0.216141
0.214488
0.204269
0.184121
0.15063
0.111105
0.0768143
0.0507931
0.0385545
0.0372258
0.0449645
0.0652337
0.104719
0.161033
0.219299
0.266949
0.30334
0.322555
0.332448
0.338919
0.343158
0.345374
0.345496
0.342371
0.33324
0.314444
0.282594
0.241965
0.197988
0.155548
0.118594
0.0893543
0.0683726
0.0551309
0.0487446
0.0480394
0.0516348
0.0585103
0.0675117
0.0773803
0.0867737
0.0943869
0.0991164
0.100166
0.0972946
0.0901293
0.0818146
0.0623219
-2.06279e-23
2.09321e-22
-9.94046e-22
3.3524e-21
-7.98651e-21
6.71895e-21
4.77943e-20
-4.08902e-19
2.48316e-18
-9.68683e-18
5.92708e-18
1.11519e-16
-3.81388e-16
-3.5302e-16
-5.3257e-16
2.68175e-15
3.96452e-15
2.93243e-15
1.29962e-14
3.05046e-14
5.32834e-14
7.89672e-14
1.17059e-13
2.19805e-13
5.15566e-13
9.93945e-13
1.67126e-12
3.88863e-12
6.58255e-12
9.41784e-12
8.59462e-12
-2.73471e-11
-6.94342e-11
-2.44949e-10
-8.86785e-10
-9.6408e-10
-6.19644e-10
8.33178e-11
1.01107e-09
1.43239e-09
1.51077e-09
1.40851e-09
1.2471e-09
1.08992e-09
9.64056e-10
8.68401e-10
7.95821e-10
7.47959e-10
7.16077e-10
7.00476e-10
6.99943e-10
7.11427e-10
7.39614e-10
7.80474e-10
8.42964e-10
9.27875e-10
9.71147e-10
1.34682e-09
1.99579e-09
4.25081e-09
9.03303e-09
2.1836e-08
-9.47515e-08
-2.98525e-07
-3.03077e-07
-7.5529e-07
-5.36826e-06
-1.0153e-05
-1.14397e-05
-1.336e-05
-1.41435e-05
-1.70656e-05
-1.15855e-05
1.52763e-05
0.000507766
0.0013845
0.00255262
0.00388215
0.00517698
0.00633147
0.00740097
0.00860148
0.0101442
0.0121768
0.0149912
0.0190026
0.0243494
0.0320869
0.0419193
0.0535076
0.0660074
0.0790963
0.0915435
0.103003
0.1104
0.114502
0.117182
0.119436
0.121584
0.123061
0.123847
0.123766
0.122942
0.121276
0.118381
0.113594
0.106144
0.0964981
0.0863435
0.0764855
0.0674714
0.0595236
0.0526481
0.04693
0.0421297
0.0382863
0.0352705
0.0329286
0.0312058
0.0299722
0.0290661
0.0284154
0.0279208
0.0274778
0.0270319
0.026516
0.0258826
0.0251081
0.0241778
0.0230927
0.0219234
0.0206922
0.0194043
0.0182066
0.0170839
0.0160654
0.015254
0.0146142
0.0142103
0.0140834
0.0142702
0.0148923
0.0160689
0.0179884
0.0212034
0.0262427
0.0346837
0.0480805
0.0661419
0.0903928
0.119847
0.149035
0.177117
0.201777
0.213225
0.22553
0.223665
0.212122
0.193164
0.165752
0.14856
0.144513
0.155779
0.182438
0.220795
0.263448
0.290876
0.308953
0.320631
0.325539
0.327344
0.329739
0.334232
0.340401
0.347328
0.355793
0.36445
0.367162
0.365197
0.358719
0.343703
0.318573
0.287725
0.256185
0.227596
0.204367
0.18773
0.177917
0.174341
0.175825
0.180824
0.18761
0.19446
0.199838
0.202572
0.201827
0.197412
0.188288
0.178846
0.152349
-2.25013e-24
8.93461e-24
-5.7406e-23
1.77279e-22
-2.12625e-22
-6.74636e-22
6.05799e-21
-4.01641e-20
2.22357e-19
-9.03489e-19
3.14387e-18
-8.35536e-18
-9.64654e-18
-9.07198e-18
4.51528e-17
1.16026e-16
1.21764e-16
9.01337e-17
1.43137e-16
3.14438e-16
5.86369e-16
1.13909e-15
2.52897e-15
7.3208e-15
1.08594e-14
1.3064e-14
4.66474e-14
2.60725e-13
5.01065e-13
7.24711e-13
7.36943e-13
-1.25863e-12
-2.10361e-12
-7.26052e-12
-2.59211e-11
1.02265e-12
5.1335e-11
1.11722e-10
1.67684e-10
1.78717e-10
1.63298e-10
1.42123e-10
1.22818e-10
1.07635e-10
9.69598e-11
8.96369e-11
8.47035e-11
8.26181e-11
8.30868e-11
8.63326e-11
9.18711e-11
9.91051e-11
1.08981e-10
1.22554e-10
1.40035e-10
1.59305e-10
1.7729e-10
1.95735e-10
2.83342e-10
6.54234e-10
1.09151e-09
8.10039e-09
2.80754e-08
6.3495e-08
8.98082e-08
2.41898e-08
-4.80276e-07
-1.36641e-06
-2.49362e-06
-7.36916e-06
-1.20759e-05
-1.61346e-05
-1.91562e-05
-2.67222e-05
-3.16904e-05
-3.24103e-05
-2.75173e-05
-1.55726e-05
1.96567e-06
2.12782e-05
3.84964e-05
5.24854e-05
6.46626e-05
7.76571e-05
9.66374e-05
0.000150238
0.000510255
0.00143235
0.00322733
0.00617394
0.0104557
0.016162
0.0237311
0.0339507
0.0455869
0.0567502
0.0664462
0.0734239
0.0772553
0.077349
0.0743158
0.0685609
0.0608317
0.0515647
0.0413882
0.0314761
0.0233164
0.0177688
0.0140009
0.0113361
0.00940558
0.00798345
0.00692611
0.00615196
0.00557138
0.00515739
0.00486936
0.0046761
0.00456488
0.00451503
0.0045061
0.00453043
0.0045727
0.0046167
0.00465326
0.00466988
0.0046579
0.00461243
0.00452942
0.00440875
0.00426063
0.00408837
0.00389248
0.0037022
0.00351463
0.00334147
0.00320483
0.00310237
0.00304859
0.00305829
0.00314446
0.00333593
0.00365371
0.00414062
0.00484111
0.00577245
0.00722475
0.0100217
0.0150861
0.0239317
0.0387266
0.061531
0.0895697
0.124697
0.157663
0.188747
0.213692
0.225392
0.233916
0.238756
0.241346
0.246734
0.257193
0.269069
0.281894
0.29544
0.294344
0.286656
0.274302
0.262533
0.255324
0.254924
0.261608
0.274035
0.290775
0.310337
0.331131
0.351425
0.369521
0.383833
0.390906
0.39067
0.387385
0.379724
0.368391
0.355941
0.344534
0.335536
0.32951
0.326199
0.32475
0.324033
0.322871
0.32014
0.315002
0.306897
0.295904
0.280975
0.267256
0.235621
1.16753e-25
-3.14649e-24
1.7383e-23
-6.02943e-23
1.49759e-22
-1.91032e-22
-3.51733e-22
3.39874e-21
-1.75821e-20
6.16612e-20
-2.46876e-20
-6.6783e-19
1.14552e-18
2.56808e-18
5.9451e-18
-5.06959e-18
-2.04352e-17
-2.71021e-17
-1.92101e-17
-1.02621e-17
-3.41988e-18
7.68609e-18
4.32115e-17
1.64894e-16
2.632e-16
3.64856e-16
1.60104e-15
8.73581e-15
1.25553e-14
-6.82136e-15
2.30436e-16
-1.47399e-13
-1.5509e-13
-7.97467e-13
1.02358e-12
1.16828e-11
2.13721e-11
2.29774e-11
2.04808e-11
1.79875e-11
1.58105e-11
1.41247e-11
1.2949e-11
1.24494e-11
1.24746e-11
1.29312e-11
1.42469e-11
1.68293e-11
2.06186e-11
2.59595e-11
3.1637e-11
3.9067e-11
4.99042e-11
6.94637e-11
9.38282e-11
1.15569e-10
1.34195e-10
1.51393e-10
1.69837e-10
1.97238e-10
2.16572e-10
1.07697e-09
3.73199e-09
8.09901e-09
1.40468e-08
4.10071e-08
8.57181e-08
8.55414e-08
-1.16722e-07
-9.96886e-07
-2.59425e-06
-5.08395e-06
-8.87019e-06
-1.45127e-05
-1.98342e-05
-2.49489e-05
-2.85477e-05
-3.25471e-05
-3.58479e-05
-3.81483e-05
-3.88979e-05
-3.78619e-05
-3.4897e-05
-2.9918e-05
-2.30113e-05
-1.37468e-05
-1.54606e-06
1.35663e-05
3.33885e-05
6.34077e-05
0.000123123
0.000280905
0.000790752
0.00203583
0.00413053
0.00686704
0.0100925
0.0132691
0.016231
0.0184794
0.0195433
0.0187379
0.0161913
0.0124184
0.00853316
0.00558624
0.00363796
0.00241753
0.00166435
0.0011959
0.000901579
0.000714071
0.000594257
0.000519528
0.000473603
0.000449264
0.00044028
0.000442496
0.000454193
0.000473214
0.000497515
0.000526539
0.000558637
0.00059183
0.000624774
0.000655494
0.000682372
0.00070406
0.000719053
0.000726748
0.000728721
0.000726505
0.000720867
0.000718438
0.000719321
0.000726015
0.000740298
0.000761674
0.000799589
0.000871912
0.000988558
0.0011524
0.00134952
0.00158811
0.00188476
0.00225244
0.00272907
0.00337171
0.00421519
0.00533866
0.00773242
0.0134221
0.0236265
0.0412577
0.0676741
0.0997609
0.137532
0.171681
0.199749
0.222415
0.236047
0.246327
0.253775
0.255963
0.251769
0.238984
0.218011
0.1962
0.182695
0.177558
0.182002
0.193493
0.206167
0.22246
0.242627
0.265073
0.289024
0.313733
0.338268
0.36148
0.382216
0.399555
0.413248
0.421182
0.423335
0.424504
0.424673
0.423871
0.422105
0.419044
0.414085
0.406779
0.397652
0.38851
0.378754
0.364957
0.346663
0.325493
0.307137
0.271587
-1.49489e-26
5.64783e-26
-1.89653e-25
5.9213e-25
-1.43839e-24
7.65397e-25
5.16636e-24
6.97026e-24
-2.75348e-22
1.43173e-21
-5.09731e-21
9.0627e-21
3.57776e-20
4.96308e-20
-2.31852e-20
-2.70451e-19
-7.76102e-19
-1.37459e-18
-1.7725e-18
-1.96575e-18
-1.05377e-18
-2.6165e-18
-1.92959e-17
-3.45102e-17
-2.52588e-17
-6.62886e-17
6.09667e-17
6.98803e-16
-2.05372e-15
-7.93949e-15
-1.52809e-14
-2.59044e-14
6.22993e-16
4.18564e-14
6.90932e-13
1.41708e-12
1.31948e-12
1.19475e-12
1.23715e-12
1.36199e-12
1.47302e-12
1.88199e-12
4.25588e-12
6.93259e-12
9.67347e-12
1.12147e-11
1.36527e-11
1.89912e-11
2.93597e-11
4.6351e-11
7.03708e-11
1.04245e-10
1.54185e-10
2.37461e-10
3.77133e-10
5.97017e-10
9.0292e-10
1.26167e-09
1.63476e-09
1.93373e-09
2.17026e-09
2.3685e-09
2.57965e-09
2.95191e-09
4.27213e-09
7.47058e-09
1.27152e-08
1.53301e-08
2.35062e-08
3.2379e-08
-1.32702e-08
-3.63201e-07
-1.28572e-06
-2.80696e-06
-4.90454e-06
-7.92147e-06
-1.12117e-05
-1.40853e-05
-1.63489e-05
-1.79038e-05
-1.86854e-05
-1.86972e-05
-1.79509e-05
-1.64095e-05
-1.40101e-05
-1.0978e-05
-7.13091e-06
-2.50771e-06
2.56356e-06
7.22795e-06
1.32765e-05
2.16182e-05
2.93383e-05
3.47431e-05
3.76742e-05
4.00488e-05
4.76813e-05
6.74824e-05
0.000101251
0.000140174
0.000173045
0.00018772
0.0001815
0.00015771
0.000124035
8.89027e-05
5.76729e-05
3.33441e-05
1.62671e-05
5.421e-06
-5.94933e-07
-3.1098e-06
-3.11712e-06
-1.38574e-06
1.45987e-06
5.09671e-06
9.28904e-06
1.39241e-05
1.90802e-05
2.4833e-05
3.12078e-05
3.83076e-05
4.61491e-05
5.47302e-05
6.41153e-05
7.42793e-05
8.50332e-05
9.58165e-05
0.000107188
0.000121212
0.000139371
0.00016243
0.000189675
0.000219561
0.000253741
0.000291849
0.00032832
0.000366026
0.00043782
0.000570965
0.000747637
0.000961231
0.00121787
0.00152574
0.00188988
0.00230792
0.0027743
0.00329312
0.00387951
0.00455824
0.00526344
0.00610966
0.00789906
0.0109413
0.0179824
0.0305752
0.0500846
0.0786012
0.107684
0.137829
0.159169
0.172392
0.17636
0.170375
0.156347
0.140479
0.127716
0.128527
0.13488
0.146435
0.164098
0.183734
0.203833
0.223772
0.243445
0.263068
0.283032
0.303659
0.324965
0.346644
0.36801
0.388082
0.405809
0.420384
0.431448
0.438988
0.442858
0.443512
0.442775
0.440279
0.434178
0.423979
0.409246
0.389926
0.366255
0.340799
0.31697
0.291816
0.269957
0.23477
9.87052e-25
-6.35519e-24
1.73372e-23
-3.13574e-23
3.10104e-23
5.08819e-23
-2.89425e-22
4.13982e-22
-2.08242e-22
-2.20894e-21
2.47752e-20
2.13469e-20
-6.31578e-20
-2.21532e-19
-3.97169e-19
-3.24795e-19
-1.69966e-20
4.06398e-19
7.20211e-19
8.23302e-19
8.33335e-19
6.58057e-19
-2.32567e-19
-2.08274e-18
-5.13058e-18
-9.81401e-18
-3.21291e-18
-5.50784e-17
-4.32968e-16
-6.57174e-16
-1.67348e-15
3.21134e-16
8.40718e-15
3.56728e-14
4.01924e-14
4.58292e-14
5.6672e-14
7.66409e-14
1.08917e-13
1.86393e-13
8.48667e-13
3.68754e-12
2.28382e-11
4.85843e-11
6.67631e-11
7.86227e-11
9.38442e-11
1.22667e-10
1.78762e-10
2.75511e-10
4.24342e-10
7.27613e-10
1.4913e-09
2.92693e-09
4.81426e-09
6.90739e-09
9.10085e-09
1.16502e-08
1.4655e-08
1.73764e-08
1.94402e-08
2.04232e-08
2.02837e-08
1.93768e-08
1.79871e-08
1.65023e-08
1.53557e-08
1.53829e-08
1.56023e-08
1.36606e-08
9.86712e-09
-7.41846e-09
-3.54408e-08
-7.9239e-08
-1.45927e-07
-4.17514e-07
-9.32281e-07
-1.6048e-06
-2.31954e-06
-2.97494e-06
-3.49236e-06
-3.82149e-06
-3.95385e-06
-3.90912e-06
-3.71577e-06
-3.31917e-06
-2.77242e-06
-2.02203e-06
-9.42755e-07
2.6597e-07
1.23658e-06
2.14996e-06
3.34453e-06
4.77224e-06
6.32839e-06
8.11963e-06
9.48363e-06
7.90827e-06
3.8588e-06
-1.70192e-06
-7.85476e-06
-1.37197e-05
-1.87367e-05
-2.25827e-05
-2.51637e-05
-2.65819e-05
-2.70544e-05
-2.68631e-05
-2.62219e-05
-2.5267e-05
-2.42206e-05
-2.23411e-05
-2.00538e-05
-1.75809e-05
-1.50478e-05
-1.25478e-05
-1.00302e-05
-7.50253e-06
-4.98671e-06
-2.37226e-06
4.79617e-07
3.66235e-06
7.18997e-06
1.11422e-05
1.56349e-05
2.11487e-05
2.81118e-05
3.55902e-05
4.71414e-05
7.03514e-05
0.000100492
0.00013634
0.000177979
0.000230356
0.000300328
0.000398538
0.000544688
0.00076816
0.00111133
0.00166662
0.00257724
0.00374264
0.00506465
0.00636505
0.00758338
0.00872859
0.00968984
0.010417
0.010927
0.0112163
0.0114297
0.0114167
0.0115752
0.0124548
0.0138335
0.0153647
0.0189629
0.0272587
0.0392341
0.0541555
0.06583
0.0735902
0.0768604
0.0791674
0.0823615
0.086651
0.0997049
0.122373
0.149187
0.174948
0.198355
0.218994
0.23663
0.252406
0.267616
0.282803
0.298132
0.313878
0.330403
0.347808
0.36592
0.384288
0.402141
0.416647
0.424021
0.428101
0.429308
0.427065
0.421081
0.410762
0.395138
0.372722
0.344496
0.313143
0.280804
0.249304
0.220169
0.19379
0.17319
0.145614
5.08835e-24
-2.02408e-23
7.76572e-23
-2.41279e-22
5.65558e-22
-3.86517e-22
-3.27519e-21
1.47276e-20
-3.67449e-20
1.20275e-19
-2.27119e-19
-5.40374e-19
1.5643e-19
1.46218e-18
3.12464e-18
9.56159e-18
1.42509e-17
1.92669e-17
2.14223e-17
2.01511e-17
1.60911e-17
1.02162e-17
3.87779e-18
-2.03249e-18
-6.46921e-18
-8.60946e-18
-1.3932e-17
-2.3063e-17
-2.56589e-17
-4.68e-17
3.22554e-17
8.68727e-16
1.39422e-15
2.05988e-15
1.65231e-15
1.97776e-15
3.68727e-15
6.28357e-15
3.75389e-14
5.46408e-13
6.45784e-12
3.22273e-11
2.15821e-10
4.59376e-10
6.30289e-10
7.52568e-10
8.66411e-10
1.01013e-09
1.28523e-09
2.07923e-09
4.49822e-09
1.00961e-08
1.72855e-08
2.45061e-08
3.0693e-08
3.62053e-08
4.01494e-08
4.47069e-08
5.12052e-08
5.88578e-08
6.67905e-08
7.31923e-08
7.71636e-08
7.92465e-08
7.85391e-08
7.67278e-08
7.41311e-08
7.15077e-08
6.84075e-08
6.5401e-08
6.58186e-08
6.91546e-08
7.01436e-08
6.93018e-08
6.67546e-08
5.95249e-08
4.81387e-08
3.32284e-08
1.74626e-08
2.53389e-09
-9.16543e-09
-1.52245e-08
-1.41799e-08
-5.96742e-09
-1.26373e-09
-2.21243e-08
-6.20756e-08
-1.0119e-07
-1.04413e-07
-9.36746e-09
1.81173e-07
3.50884e-07
5.21956e-07
7.30119e-07
9.90866e-07
1.30219e-06
1.59814e-06
1.78385e-06
1.72929e-06
1.11539e-06
1.30216e-08
-1.01966e-06
-2.12955e-06
-3.20831e-06
-4.13938e-06
-4.81135e-06
-5.14958e-06
-5.21131e-06
-5.11018e-06
-4.917e-06
-4.69982e-06
-4.48414e-06
-4.0947e-06
-3.49936e-06
-2.67666e-06
-1.56247e-06
-3.39947e-08
2.03596e-06
4.66067e-06
7.78293e-06
1.16463e-05
1.73377e-05
2.5718e-05
3.6829e-05
5.01325e-05
6.53168e-05
8.48774e-05
0.000116799
0.000178029
0.000301731
0.000546447
0.00101384
0.00196303
0.00366248
0.00622318
0.00963849
0.013898
0.018921
0.0246608
0.0309587
0.0379569
0.0447449
0.051066
0.0562999
0.0602228
0.062747
0.0636431
0.0629034
0.0608879
0.057434
0.0534037
0.0485199
0.0435678
0.0384155
0.0343763
0.03138
0.0294308
0.0302346
0.0331167
0.0370407
0.0418518
0.0479897
0.056392
0.0695917
0.0896318
0.118197
0.152569
0.182981
0.205361
0.2189
0.230225
0.239299
0.248516
0.256148
0.265668
0.278655
0.29306
0.306162
0.31722
0.328253
0.340426
0.352938
0.363763
0.371267
0.374278
0.371953
0.363584
0.348671
0.32724
0.300109
0.268834
0.235437
0.201998
0.170301
0.141694
0.117021
0.0966325
0.0802692
0.0684606
0.0554831
-4.90837e-23
2.34352e-22
-4.74746e-22
5.45735e-22
1.0493e-21
-7.23177e-21
9.90708e-21
5.0203e-20
-2.51112e-19
6.79008e-19
-3.21087e-18
-6.05651e-18