/*--------------------------------*- C++ -*----------------------------------*\
| =========                 |                                                 |
| \\      /  F ield         | OpenFOAM: The Open Source CFD Toolbox           |
|  \\    /   O peration     | Version:  2506                                  |
|   \\  /    A nd           | Website:  www.openfoam.com                      |
|    \\/     M anipulation  |                                                 |
\*---------------------------------------------------------------------------*/
FoamFile
{
    version     2.0;
    format      ascii;
    arch        "LSB;label=32;scalar=64";
    class       volVectorField;
    location    "3";
    object      U;
}
// * * * * * * * * * * * * * * * * * * * * * * * * * * * * * * * * * * * * * //

dimensions      [0 1 -1 0 0 0 0];

internalField   nonuniform List<vector> 
4000
(
(0.00799083 0.000752327 0)
(0.0072199 0.000878072 -4.14989e-21)
(0.00604814 0.000505113 4.28409e-21)
(0.00498969 0.000236756 8.62941e-21)
(0.00438881 0.000118312 -1.74563e-20)
(0.00405864 6.64539e-05 8.77876e-21)
(0.00384554 4.25633e-05 0)
(0.00369421 3.16674e-05 0)
(0.00358137 2.68814e-05 0)
(0.00349244 2.49215e-05 1.73615e-20)
(0.00341894 2.42733e-05 -1.73888e-20)
(0.00335634 2.42702e-05 3.44924e-20)
(0.00330196 2.46299e-05 -3.45312e-20)
(0.00325393 2.52219e-05 0)
(0.00321084 2.59793e-05 0)
(0.00317153 2.68696e-05 0)
(0.00313505 2.78745e-05 3.38289e-20)
(0.00310056 2.89935e-05 -3.38512e-20)
(0.00306725 3.02351e-05 0)
(0.00303439 3.16073e-05 0)
(0.00300124 3.31206e-05 0)
(0.0029671 3.47853e-05 0)
(0.00293126 3.66091e-05 0)
(0.00289297 3.86047e-05 6.57328e-20)
(0.00285144 4.07901e-05 -1.31254e-19)
(0.00280579 4.319e-05 6.55258e-20)
(0.00275497 4.58467e-05 0)
(0.00269774 4.88339e-05 0)
(0.00263251 5.22731e-05 0)
(0.00255715 5.63757e-05 0)
(0.0024686 6.15557e-05 -6.41671e-20)
(0.00236241 6.87062e-05 6.42863e-20)
(0.00223461 7.82345e-05 0)
(0.00204221 9.61979e-05 5.58903e-20)
(0.0018148 0.000156238 6.37843e-20)
(0.00166858 0.000269577 -3.21407e-19)
(0.00162375 0.000410067 -2.58195e-19)
(0.00162773 0.000555471 6.50564e-20)
(0.00166253 0.000705245 -2.6074e-19)
(0.00173818 0.00086612 -5.8776e-19)
(0.00189728 0.00104932 6.54628e-20)
(0.00216358 0.00124398 5.19797e-19)
(0.00245854 0.0014142 -5.16514e-19)
(0.00273848 0.00155473 0)
(0.00301263 0.00167306 0)
(0.0032774 0.00176977 -3.1419e-20)
(0.00354365 0.00184604 -4.68251e-19)
(0.00380307 0.00189291 -4.65333e-19)
(0.00404564 0.00190994 -2.77038e-19)
(0.00428586 0.0018966 -2.43123e-19)
(0.00450625 0.00184609 2.40097e-19)
(0.00471221 0.00176162 0)
(0.00489111 0.00163375 -2.91855e-20)
(0.00503854 0.00147316 4.93653e-19)
(0.00514987 0.00127202 0)
(0.00520859 0.00104207 -1.13359e-19)
(0.00522349 0.000785827 -2.78013e-20)
(0.00516596 0.000514794 -1.46905e-23)
(0.00507351 0.000248873 -3.94988e-22)
(0.00490999 -2.16862e-05 -1.38459e-20)
(0.00469946 -0.000264778 2.64943e-20)
(0.00446624 -0.000482396 0)
(0.00420182 -0.000667027 0)
(0.00394009 -0.00081609 5.11714e-20)
(0.00366825 -0.000932843 3.55979e-19)
(0.00341502 -0.00101688 4.99574e-20)
(0.00316891 -0.00107518 -5.03181e-20)
(0.00294523 -0.00110946 4.87347e-20)
(0.0027385 -0.00112574 1.4483e-19)
(0.00254842 -0.00112582 -3.34488e-19)
(0.00238112 -0.00111396 -4.73795e-20)
(0.00222275 -0.00109196 1.01769e-21)
(0.00208161 -0.00106217 0)
(0.00195332 -0.00102759 0)
(0.00183266 -0.00098832 0)
(0.00172384 -0.000946292 -2.21149e-20)
(0.00162457 -0.000903188 -3.29203e-19)
(0.00153199 -0.000859313 0)
(0.00144852 -0.000815768 9.27959e-22)
(0.00137363 -0.000773607 2.11652e-20)
(0.00130596 -0.000733068 -3.3631e-19)
(0.00124577 -0.000694448 3.02174e-19)
(0.00119236 -0.000657865 6.54777e-23)
(0.00114491 -0.000623001 3.30526e-19)
(0.00110361 -0.000589821 1.79492e-21)
(0.00106643 -0.000557911 -3.15737e-19)
(0.00103209 -0.000526492 -3.17105e-19)
(0.00100221 -0.000495618 3.18925e-19)
(0.000974137 -0.000465054 -4.81525e-21)
(0.000946508 -0.000434053 -3.03752e-19)
(0.00092209 -0.000402928 0)
(0.000898018 -0.000371743 -3.0559e-19)
(0.000874075 -0.000340015 -2.8353e-19)
(0.000852989 -0.000308269 2.89142e-19)
(0.000830785 -0.000276445 -1.60708e-19)
(0.000812262 -0.000244516 1.76449e-20)
(0.000793393 -0.000212998 1.39367e-19)
(0.000778236 -0.000181408 1.71617e-20)
(0.000763599 -0.000150367 1.19138e-19)
(0.000753384 -0.000119 8.41715e-20)
(0.000745283 -8.84109e-05 -3.33802e-20)
(0.000740857 -5.73442e-05 8.28602e-20)
(0.000740493 -2.62735e-05 -8.25025e-21)
(0.00074321 4.73682e-06 -8.21752e-21)
(0.000750543 3.66352e-05 -3.27513e-20)
(0.000762866 6.90172e-05 0)
(0.000779521 0.000103091 0)
(0.00080278 0.000138386 -2.58489e-19)
(0.000830907 0.000175848 -8.23319e-21)
(0.000865831 0.000216054 1.36312e-19)
(0.000907221 0.000259526 1.3246e-19)
(0.000955774 0.000306864 4.1489e-21)
(0.00101167 0.000358729 -1.37653e-19)
(0.00107587 0.000415473 -2.50729e-22)
(0.00114657 0.000477605 0)
(0.00122812 0.000545573 2.68165e-19)
(0.00131516 0.000618573 -8.35356e-21)
(0.00141013 0.000697316 -2.50425e-19)
(0.00151291 0.000780918 -8.38248e-21)
(0.00162051 0.000867758 -2.66545e-19)
(0.00173437 0.000957385 -9.43891e-22)
(0.00185355 0.00104807 2.64138e-19)
(0.00197418 0.00113814 1.6326e-20)
(0.00209665 0.00122705 -2.93306e-19)
(0.00222184 0.00131334 1.62539e-20)
(0.00234707 0.00139526 2.56326e-19)
(0.00247274 0.00147187 3.15063e-20)
(0.00259854 0.00154184 -3.15973e-20)
(0.00272388 0.00160442 2.48077e-19)
(0.00285216 0.00165956 -2.13087e-19)
(0.0029831 0.00170476 -3.04523e-20)
(0.0031118 0.00173976 -4.45038e-19)
(0.00324842 0.00176624 -2.95648e-20)
(0.0033923 0.00177979 -2.30343e-19)
(0.00353391 0.00178024 1.52403e-21)
(0.00368956 0.00176972 0)
(0.00385244 0.00173927 0)
(0.00401109 0.00169249 -7.1391e-22)
(0.00418196 0.0016242 0)
(0.00434678 0.00153228 -2.49913e-20)
(0.00450862 0.00141399 -7.31812e-20)
(0.00465693 0.00126649 -2.36708e-20)
(0.00477966 0.00108949 -4.62912e-20)
(0.00487559 0.000885784 -2.309e-20)
(0.00492032 0.000654652 -6.56843e-20)
(0.00492399 0.000411867 2.16105e-20)
(0.00486507 0.00014901 0)
(0.00473578 -9.93332e-05 0)
(0.00456839 -0.000333565 0)
(0.00434341 -0.00053916 -1.84988e-20)
(0.00410019 -0.000710216 1.85475e-20)
(0.00382225 -0.00085052 7.07811e-20)
(0.00354156 -0.000949948 6.87751e-20)
(0.00325415 -0.00101704 0)
(0.00297788 -0.00104986 -6.49504e-20)
(0.00270272 -0.00105289 0)
(0.0024375 -0.00102738 -1.48984e-20)
(0.00217548 -0.000977298 7.50007e-20)
(0.00191097 -0.000897482 -1.4413e-20)
(0.00162903 -0.000764197 2.4289e-19)
(0.00151786 -0.000627207 -5.58088e-20)
(0.00150049 -0.000519207 -5.46259e-20)
(0.00147805 -0.000421646 0)
(0.00146383 -0.000329194 0)
(0.00148289 -0.000241036 0)
(0.00154408 -0.000164309 0)
(0.00167032 -0.00010358 0)
(0.00184788 -7.57109e-05 1.13952e-20)
(0.00201675 -6.89696e-05 -3.09939e-22)
(0.0021734 -6.76182e-05 -3.19516e-22)
(0.00232723 -6.66734e-05 -1.07147e-20)
(0.00247502 -6.49521e-05 0)
(0.00261128 -6.21668e-05 9.62154e-21)
(0.00273145 -5.84037e-05 -9.58839e-21)
(0.00283254 -5.39133e-05 2.81553e-22)
(0.00291321 -4.89945e-05 0)
(0.00297365 -4.38586e-05 0)
(0.00301523 -3.86805e-05 -7.68741e-21)
(0.0030403 -3.38667e-05 7.67404e-21)
(0.0030518 -2.93559e-05 0)
(0.00305245 -2.56315e-05 0)
(0.00304483 -2.28997e-05 -2.89098e-21)
(0.00303172 -2.06429e-05 1.80549e-22)
(0.00301579 -1.88229e-05 2.90168e-21)
(0.00299915 -1.73187e-05 0)
(0.0029835 -1.6092e-05 0)
(0.0029701 -1.51028e-05 0)
(0.0029597 -1.43309e-05 0)
(0.00295278 -1.38263e-05 1.2009e-22)
(0.00294913 -1.35908e-05 0)
(0.00294826 -1.32728e-05 0)
(0.00294968 -1.27235e-05 0)
(0.00295266 -1.19477e-05 5.79763e-22)
(0.00295634 -1.09472e-05 -5.78848e-22)
(0.00295984 -9.70975e-06 0)
(0.00296231 -8.19207e-06 4.62456e-23)
(0.00296291 -6.35822e-06 1.23106e-22)
(0.00296046 -4.10223e-06 -8.20553e-23)
(0.0029516 -7.3491e-07 -4.08187e-23)
(0.00293294 7.78318e-06 0)
(0.00987615 0.00143531 0)
(0.0104318 0.00199212 0)
(0.0101838 0.00162937 0)
(0.00948075 0.001134 8.5082e-21)
(0.0087905 0.000740733 -1.72802e-20)
(0.00826745 0.000482227 8.74307e-21)
(0.00786622 0.000328765 0)
(0.0075449 0.000239991 1.75574e-20)
(0.00728363 0.000186188 -1.76691e-20)
(0.00706729 0.000151088 1.75899e-20)
(0.00688406 0.000126522 -1.76647e-20)
(0.00672614 0.000108284 -3.51197e-20)
(0.00658832 9.42101e-05 3.52289e-20)
(0.0064667 8.31499e-05 3.49892e-20)
(0.00635812 7.44337e-05 -1.66815e-22)
(0.00625994 6.76507e-05 -6.97951e-20)
(0.00616989 6.25504e-05 3.48815e-20)
(0.00608596 5.89667e-05 0)
(0.00600628 5.68349e-05 0)
(0.00592914 5.60798e-05 0)
(0.0058529 5.6653e-05 0)
(0.00577598 5.85435e-05 0)
(0.00569686 6.17734e-05 0)
(0.00561401 6.64006e-05 0)
(0.00552585 7.25302e-05 0)
(0.00543072 8.03406e-05 0)
(0.00532681 9.01488e-05 0)
(0.00521205 0.000102343 0)
(0.005084 0.000117565 0)
(0.00493967 0.000136829 0)
(0.00477529 0.000161806 -6.67736e-20)
(0.00458594 0.000195475 2.75204e-22)
(0.00436866 0.00024341 1.3361e-19)
(0.00409161 0.000314233 -5.85658e-20)
(0.00378637 0.000447455 -6.6859e-20)
(0.00357616 0.000668871 2.02426e-19)
(0.00350604 0.000954436 -2.72344e-19)
(0.00353586 0.00127347 -6.85754e-20)
(0.003649 0.00161749 6.91563e-19)
(0.00386062 0.00198643 2.09103e-19)
(0.00421747 0.00237869 0)
(0.00472662 0.00277129 6.87376e-20)
(0.00529018 0.0031287 4.09458e-19)
(0.00585245 0.00344134 6.80108e-20)
(0.00641259 0.00370929 5.35822e-19)
(0.00696414 0.00392968 -5.30358e-19)
(0.0075141 0.00409853 1.96891e-21)
(0.00805072 0.00420282 0)
(0.00856369 0.00424016 -2.57398e-19)
(0.00906202 0.00420537 0)
(0.00952679 0.00409141 -7.15577e-22)
(0.0099577 0.00390029 0)
(0.0103378 0.00362097 -2.44781e-19)
(0.0106591 0.00326883 -2.42238e-19)
(0.0109067 0.00283591 0)
(0.011063 0.00234227 4.16106e-24)
(0.0111292 0.00179729 1.16808e-19)
(0.0110765 0.00121625 2.8593e-20)
(0.010934 0.000633569 5.67688e-20)
(0.0106645 4.43626e-05 -1.42934e-20)
(0.0102983 -0.000505219 0)
(0.00985871 -0.00100773 1.11431e-19)
(0.00935126 -0.00144843 -5.57468e-20)
(0.00881634 -0.00181929 -1.09734e-19)
(0.00824973 -0.00211734 -3.26883e-19)
(0.00769337 -0.00234372 -5.44165e-20)
(0.00714085 -0.00250815 2.67892e-19)
(0.00661685 -0.00261313 -5.36011e-20)
(0.00611922 -0.00266905 0)
(0.00565231 -0.00268198 5.22013e-20)
(0.00522393 -0.00265926 -5.22058e-20)
(0.00481955 -0.00260706 2.07945e-21)
(0.00444737 -0.00253144 0)
(0.00410338 -0.00243778 -4.0433e-19)
(0.0037816 -0.00233012 -4.00059e-19)
(0.00348494 -0.00221292 2.45777e-20)
(0.00321121 -0.00208996 -2.4505e-20)
(0.00295699 -0.0019644 2.40448e-20)
(0.0027239 -0.00183936 -3.8097e-19)
(0.00251142 -0.00171713 3.54596e-19)
(0.00231794 -0.00159936 -3.73852e-19)
(0.0021432 -0.00148704 -3.79176e-19)
(0.00198599 -0.00138092 2.27609e-20)
(0.00184476 -0.00128044 -3.71584e-19)
(0.00171882 -0.00118522 3.51427e-19)
(0.00160535 -0.00109454 -3.48247e-19)
(0.00150203 -0.00100765 3.46301e-19)
(0.001409 -0.000923711 -3.40218e-19)
(0.0013227 -0.00084194 -1.04785e-20)
(0.00124174 -0.00076258 1.03854e-20)
(0.00116703 -0.000685228 0)
(0.00109561 -0.000610105 0)
(0.00102781 -0.000537825 1.58795e-19)
(0.000965215 -0.000468604 -1.75478e-19)
(0.000905073 -0.00040332 1.53904e-19)
(0.000851601 -0.000342161 3.79322e-20)
(0.000801961 -0.000285941 1.92399e-22)
(0.000760308 -0.000234463 -7.31132e-23)
(0.000724835 -0.000188116 -3.28111e-19)
(0.00069941 -0.000145699 -5.39676e-20)
(0.000682734 -0.000107246 7.13854e-20)
(0.000677864 -7.11491e-05 -7.07546e-20)
(0.000684341 -3.66957e-05 0)
(0.000703447 -1.81269e-06 -8.72598e-21)
(0.000736457 3.57339e-05 8.73289e-21)
(0.000784629 7.74062e-05 0)
(0.000847714 0.000125603 0)
(0.000927755 0.00018185 1.3965e-19)
(0.00102401 0.000248369 -1.39767e-19)
(0.00113777 0.000326783 1.44501e-19)
(0.00126909 0.00041882 -2.81385e-19)
(0.00141837 0.000525796 -2.05834e-23)
(0.00158544 0.000648885 -4.42853e-21)
(0.00177062 0.000789194 -1.41819e-19)
(0.0019716 0.000946831 0)
(0.00219108 0.00112201 0)
(0.00242318 0.00131392 0)
(0.00266905 0.00152202 2.92395e-19)
(0.00292702 0.00174229 2.72476e-19)
(0.00319269 0.00197219 0)
(0.00346643 0.00221056 -3.15715e-19)
(0.00374676 0.00245258 5.2279e-20)
(0.00402963 0.00269423 -3.45882e-20)
(0.00431487 0.00293222 1.72724e-20)
(0.00460273 0.00316269 -3.38833e-20)
(0.00489079 0.00338185 2.6974e-19)
(0.00517956 0.00358646 -2.33002e-19)
(0.00546925 0.00377345 2.96792e-19)
(0.00576037 0.00394029 -5.16621e-22)
(0.00605653 0.00408495 2.27833e-19)
(0.00635776 0.00420398 0)
(0.00666131 0.00429624 2.53358e-19)
(0.00697703 0.00436089 -3.06518e-20)
(0.00730373 0.00439255 -2.11494e-19)
(0.00763417 0.00439036 2.40714e-19)
(0.00798185 0.00435296 -2.89379e-20)
(0.00833784 0.00426971 2.90298e-20)
(0.00869142 0.00414378 -2.89743e-20)
(0.00905168 0.00396561 2.77233e-20)
(0.00939956 0.00373341 -2.62667e-20)
(0.00973016 0.00344231 1.30707e-19)
(0.0100272 0.0030901 -1.25357e-19)
(0.0102722 0.00267781 1.23391e-19)
(0.0104558 0.00221244 0)
(0.0105465 0.00169597 2.34077e-20)
(0.0105492 0.00115846 -2.21488e-20)
(0.0104375 0.000593649 -1.0842e-20)
(0.010209 4.7614e-05 0)
(0.00988712 -0.000470424 -2.04605e-20)
(0.00946007 -0.000937847 3.97952e-20)
(0.00896976 -0.00133671 0)
(0.00840611 -0.00167048 -7.55654e-20)
(0.00781524 -0.00191808 -1.81345e-20)
(0.00719656 -0.00209097 1.82263e-20)
(0.00658468 -0.00218634 0)
(0.00596908 -0.0022081 6.88909e-20)
(0.00536793 -0.00216178 -6.68724e-20)
(0.00477818 -0.00205339 6.59613e-20)
(0.00420781 -0.00188494 0)
(0.0036353 -0.00164275 -1.25373e-19)
(0.00328912 -0.0013641 -7.69251e-20)
(0.00310637 -0.00110079 1.34877e-19)
(0.0029763 -0.000868101 -1.43997e-20)
(0.00289566 -0.000670234 1.42941e-20)
(0.00289282 -0.000503563 1.35631e-20)
(0.00298266 -0.000373761 1.29846e-20)
(0.00318834 -0.000285915 -1.14066e-20)
(0.00348705 -0.000249887 -7.76225e-22)
(0.00381179 -0.000242439 0)
(0.00414066 -0.000240945 7.21801e-22)
(0.00446885 -0.000234977 0)
(0.00478439 -0.000220604 -6.67036e-22)
(0.00507455 -0.000197901 -1.0074e-20)
(0.00532956 -0.000168889 1.06244e-20)
(0.00554323 -0.000136219 -8.81265e-22)
(0.00571286 -0.00010249 8.79732e-21)
(0.00583891 -6.98984e-05 -1.66148e-20)
(0.00592436 -4.01745e-05 1.63381e-20)
(0.00597397 -1.43974e-05 -8.44405e-21)
(0.00599349 6.64558e-06 0)
(0.00598909 2.23731e-05 3.83128e-21)
(0.00596769 3.32625e-05 -3.59703e-21)
(0.00593578 3.97236e-05 -3.87306e-22)
(0.00589852 4.22396e-05 -2.82095e-21)
(0.00586031 4.15313e-05 2.47729e-21)
(0.00582471 3.83488e-05 2.44898e-21)
(0.00579413 3.34614e-05 -2.73973e-21)
(0.00576993 2.76936e-05 2.35579e-21)
(0.00575263 2.17924e-05 -4.10991e-21)
(0.00574189 1.60518e-05 2.53733e-21)
(0.00573651 1.11983e-05 -8.61141e-22)
(0.0057347 7.72065e-06 -1.82079e-22)
(0.00573452 5.77723e-06 0)
(0.00573403 5.41121e-06 3.73724e-22)
(0.00573137 6.57136e-06 -5.11286e-22)
(0.00572495 9.21626e-06 2.65953e-23)
(0.00571347 1.34519e-05 -1.69722e-22)
(0.00569566 1.97611e-05 0)
(0.00566896 2.92718e-05 0)
(0.00562783 4.53411e-05 -1.12376e-23)
(0.00987673 0.000895129 0)
(0.0105619 0.00167962 -4.1651e-21)
(0.0110077 0.00171985 4.14595e-21)
(0.0108819 0.00149515 8.24174e-21)
(0.0105987 0.00118151 -8.32412e-21)
(0.0102557 0.00090602 0)
(0.00990854 0.000697756 0)
(0.00958672 0.0005516 0)
(0.00929895 0.00044975 -1.68514e-20)
(0.00904531 0.00037635 3.38332e-20)
(0.00882171 0.000321223 1.68053e-20)
(0.00862372 0.000278319 -3.3931e-20)
(0.00844766 0.000244168 -3.3747e-20)
(0.00829019 0.00021675 3.38694e-20)
(0.00814825 0.000194796 0)
(0.00801905 0.000177466 -3.35928e-20)
(0.00790005 0.000164197 6.72e-20)
(0.00778889 0.000154587 -3.35993e-20)
(0.00768337 0.000148361 0)
(0.00758142 0.000145321 0)
(0.00748105 0.000145325 0)
(0.00738035 0.000148288 0)
(0.00727746 0.000154184 0)
(0.00717053 0.000163059 -6.57773e-20)
(0.0070577 0.000175049 6.59036e-20)
(0.00693705 0.000190403 0)
(0.00680656 0.000209528 0)
(0.00666405 0.000233046 0)
(0.00650709 0.000261884 0)
(0.00633294 0.000297415 0)
(0.00613853 0.00034171 -6.47674e-20)
(0.0059203 0.00039802 6.49638e-20)
(0.0056781 0.000472003 0)
(0.00539206 0.0005712 4.04202e-21)
(0.00509075 0.000722521 0)
(0.00488452 0.000952158 -1.30969e-19)
(0.00483376 0.00125216 2.64979e-19)
(0.00492035 0.00160551 0)
(0.00513117 0.00200468 -5.34039e-19)
(0.0054726 0.00244339 5.76332e-22)
(0.00597108 0.00290616 -6.61232e-20)
(0.00660931 0.00336204 6.59269e-20)
(0.0072997 0.00378423 -5.20907e-19)
(0.00799425 0.00416369 0)
(0.00868598 0.00449425 -5.73075e-19)
(0.00936803 0.00476886 5.35996e-19)
(0.0100425 0.00497914 5.29482e-19)
(0.0106986 0.00511259 0)
(0.0113279 0.00516486 2.42743e-19)
(0.0119334 0.00512833 0)
(0.0124993 0.0049982 -4.74904e-19)
(0.0130208 0.00477519 0)
(0.0134822 0.0044522 2.03417e-19)
(0.0138754 0.004041 2.58392e-19)
(0.014184 0.00353941 2.27401e-19)
(0.0143943 0.00296544 1.12434e-19)
(0.0145005 0.0023323 1.11046e-19)
(0.0144795 0.00165168 5.47072e-20)
(0.0143496 0.000956128 -2.72605e-20)
(0.0140822 0.000251065 -4.02906e-20)
(0.0136991 -0.000422262 0)
(0.013215 -0.00104952 -1.05098e-19)
(0.0126404 -0.00161337 1.04365e-19)
(0.012009 -0.00209844 0)
(0.0113247 -0.00250299 4.13446e-19)
(0.0106276 -0.00281945 0)
(0.00991931 -0.00305737 5.09167e-20)
(0.00922658 -0.00321105 -5.11763e-20)
(0.00855418 -0.00329968 0)
(0.00790985 -0.00332696 5.01215e-20)
(0.00730324 -0.00330177 -5.02733e-20)
(0.00672648 -0.00323257 -5.46417e-19)
(0.0061864 -0.0031272 3.46084e-19)
(0.00568125 -0.00299312 -1.77735e-21)
(0.00520663 -0.00283739 3.87759e-19)
(0.0047642 -0.00266649 2.39952e-20)
(0.0043525 -0.00248633 -4.07006e-19)
(0.00396878 -0.00230243 0)
(0.00361378 -0.00211941 -3.76233e-19)
(0.00328726 -0.00194093 -7.20741e-19)
(0.00298791 -0.00176986 7.02223e-19)
(0.00271536 -0.00160796 3.76922e-19)
(0.00246847 -0.00145619 -3.7295e-19)
(0.0022456 -0.00131445 3.6768e-19)
(0.00204559 -0.00118202 0)
(0.00186569 -0.00105793 3.48438e-19)
(0.00170306 -0.000941311 3.8354e-21)
(0.00155656 -0.000831019 6.89969e-19)
(0.00142267 -0.000726402 3.15584e-19)
(0.00129912 -0.000627619 3.42545e-19)
(0.00118567 -0.000534542 0)
(0.00107981 -0.000447704 0)
(0.000981071 -0.000368133 -1.58871e-19)
(0.000890494 -0.000296468 0)
(0.000806461 -0.000233653 -1.92878e-20)
(0.00073186 -0.000180497 1.9095e-20)
(0.000665704 -0.000137262 -1.50318e-19)
(0.000611054 -0.000104321 1.48512e-19)
(0.000567892 -8.08125e-05 1.28293e-19)
(0.000539215 -6.60644e-05 1.81577e-20)
(0.000525774 -5.7925e-05 -7.17691e-20)
(0.000529527 -5.50397e-05 3.55664e-20)
(0.000552668 -5.45679e-05 -2.64567e-20)
(0.00059678 -5.28791e-05 8.78611e-21)
(0.000663075 -4.69061e-05 0)
(0.000752801 -3.276e-05 6.95874e-20)
(0.000866498 -7.40857e-06 0)
(0.00100591 3.28797e-05 1.38777e-19)
(0.0011704 9.1178e-05 2.17936e-22)
(0.00136052 0.000170312 -1.34639e-19)
(0.00157645 0.00027268 1.38966e-19)
(0.00181695 0.00040008 -4.34726e-21)
(0.00208146 0.000553685 0)
(0.00236842 0.000734621 1.38224e-19)
(0.00267554 0.00094265 -1.37964e-19)
(0.00300285 0.00117709 0)
(0.00334483 0.00143651 8.54909e-21)
(0.00370117 0.00171823 -2.81318e-19)
(0.00406924 0.00201876 -2.55733e-19)
(0.0044445 0.00233411 2.52673e-19)
(0.0048262 0.00265985 -2.67849e-19)
(0.00521245 0.00299089 -1.6584e-20)
(0.00559993 0.00332198 2.47466e-19)
(0.00598836 0.00364777 3.29858e-20)
(0.00637771 0.00396271 2.91269e-19)
(0.00676651 0.00426179 -5.79186e-19)
(0.00715542 0.00454035 2.87825e-19)
(0.00754512 0.00479405 -2.21646e-19)
(0.00793663 0.00501919 1.85288e-19)
(0.00833286 0.00521233 3.05328e-19)
(0.00873416 0.00536955 1.80097e-19)
(0.0091395 0.00548892 3.00123e-20)
(0.00955566 0.00556753 2.03786e-19)
(0.00998123 0.00560023 2.59904e-19)
(0.0104113 0.00558594 -2.78321e-20)
(0.0108532 0.00552097 2.78894e-20)
(0.0112979 0.00539675 8.07915e-20)
(0.0117372 0.00521532 2.57257e-20)
(0.0121716 0.00496821 -2.53671e-20)
(0.0125853 0.0046546 2.54189e-20)
(0.0129687 0.00427173 -9.73799e-20)
(0.0133054 0.00381971 2.39699e-20)
(0.0135772 0.00330245 -7.08764e-22)
(0.0137716 0.0027286 -2.2863e-20)
(0.0138634 0.00210482 -8.7708e-20)
(0.0138532 0.00145955 0)
(0.0137145 0.000796016 4.08679e-20)
(0.0134473 0.000149716 -2.53308e-20)
(0.0130656 -0.000465271 1.94014e-20)
(0.012563 -0.00102771 -5.63174e-20)
(0.0119724 -0.00151535 -1.82248e-20)
(0.0112893 -0.00192333 7.16227e-20)
(0.0105547 -0.00223402 8.77813e-20)
(0.00977325 -0.00245102 -3.4359e-20)
(0.00898087 -0.00257648 8.46225e-20)
(0.00817477 -0.00259319 -6.57082e-20)
(0.00737875 -0.00253246 -1.5972e-20)
(0.00659479 -0.00239188 -6.28483e-20)
(0.00584245 -0.00217603 1.5792e-20)
(0.00510152 -0.00189132 -6.1411e-20)
(0.00456012 -0.00156237 5.99654e-20)
(0.00420527 -0.00124775 -4.40813e-20)
(0.00395645 -0.000983696 -1.44679e-20)
(0.00380451 -0.000783656 -2.78607e-20)
(0.00377581 -0.000645682 0)
(0.00388407 -0.000561562 -2.5856e-20)
(0.00414341 -0.000529191 2.34748e-20)
(0.00451732 -0.000535007 4.35007e-22)
(0.00493264 -0.000550796 -3.25873e-22)
(0.00535723 -0.000556997 -1.03044e-21)
(0.00577739 -0.000544153 -1.09021e-20)
(0.00617696 -0.000509736 6.45105e-22)
(0.00654091 -0.000456344 0)
(0.00685835 -0.000389228 -5.92575e-22)
(0.00712267 -0.000314415 5.67098e-22)
(0.00733129 -0.000237669 9.55558e-21)
(0.00748519 -0.00016392 -8.9653e-21)
(0.00758831 -9.69912e-05 -7.69411e-21)
(0.00764675 -3.95165e-05 8.1493e-21)
(0.00766798 7.04523e-06 0)
(0.00766044 4.2335e-05 -4.22121e-22)
(0.0076325 6.70181e-05 0)
(0.00759155 8.16121e-05 -2.53261e-21)
(0.00754446 8.72161e-05 1.7897e-22)
(0.00749701 8.5489e-05 3.05175e-21)
(0.00745352 7.8266e-05 6.12335e-22)
(0.00741695 6.74463e-05 2.85016e-22)
(0.00738891 5.49699e-05 -2.6301e-22)
(0.00736945 4.26534e-05 0)
(0.00735757 3.17949e-05 2.1934e-22)
(0.00735163 2.34346e-05 7.48192e-22)
(0.00734921 1.82717e-05 -5.70116e-22)
(0.00734763 1.66363e-05 -5.78945e-22)
(0.00734428 1.85255e-05 7.12113e-22)
(0.0073368 2.36719e-05 0)
(0.00732333 3.17038e-05 1.12941e-22)
(0.00730265 4.23352e-05 1.64256e-22)
(0.00727405 5.56289e-05 4.09582e-23)
(0.00723692 7.20633e-05 -4.08884e-23)
(0.00718298 9.39832e-05 1.08748e-23)
(0.00979431 0.000519501 0)
(0.0103542 0.00120147 0)
(0.0108884 0.0014653 0)
(0.0111126 0.00145269 8.21612e-21)
(0.0111079 0.00131654 -8.23247e-21)
(0.0110338 0.00113273 0)
(0.0108794 0.000957632 0)
(0.0106855 0.000811378 0)
(0.0104833 0.000693725 0)
(0.0102866 0.000599549 0)
(0.010101 0.000523324 0)
(0.00992815 0.000460692 -3.28783e-20)
(0.00976853 0.000408872 3.30097e-20)
(0.00962141 0.000366084 -3.28145e-20)
(0.00948545 0.000331089 6.5686e-20)
(0.00935902 0.000302987 -3.28612e-20)
(0.0092404 0.000281126 -3.2637e-20)
(0.0091278 0.000265019 3.27168e-20)
(0.00901943 0.000254298 0)
(0.0089135 0.000248678 0)
(0.00880825 0.000247953 6.46108e-20)
(0.00870192 0.000251988 -6.47342e-20)
(0.00859275 0.00026073 0)
(0.00847896 0.000274217 -6.4062e-20)
(0.00835874 0.000292601 6.41815e-20)
(0.00823022 0.000316181 0)
(0.00809144 0.000345446 0)
(0.00794036 0.000381121 6.33832e-20)
(0.00777481 0.000424255 -2.85601e-22)
(0.00759251 0.000476334 -6.3384e-20)
(0.00739116 0.000539447 -6.29829e-20)
(0.0071683 0.000616562 1.26018e-19)
(0.00692562 0.00071226 -6.30347e-20)
(0.00664661 0.000831296 5.87106e-20)
(0.0063593 0.000988988 -6.30629e-20)
(0.00616931 0.00120752 -6.34912e-20)
(0.0061407 0.00149268 6.45924e-20)
(0.00626551 0.00183817 1.93874e-19)
(0.00653261 0.00223735 3.23117e-19)
(0.00694101 0.00267973 6.46341e-20)
(0.00750138 0.00314544 -6.394e-20)
(0.00818042 0.00360609 -5.6696e-19)
(0.00890192 0.0040398 5.61139e-19)
(0.00962707 0.00443549 5.54724e-19)
(0.0103476 0.00478321 -1.22225e-19)
(0.0110578 0.00507294 9.08722e-20)
(0.0117576 0.00529452 -2.69163e-19)
(0.0124385 0.00543904 0)
(0.0130933 0.00549305 -2.63818e-19)
(0.0137206 0.00545565 2.91567e-20)
(0.0143092 0.00532988 2.29747e-19)
(0.0148525 0.00510163 2.82263e-20)
(0.0153364 0.00477376 -2.81306e-19)
(0.0157531 0.00435494 -1.94814e-19)
(0.0160879 0.00384711 -2.20973e-19)
(0.0163295 0.00326385 -1.09606e-19)
(0.0164703 0.0026179 -2.66158e-20)
(0.0164919 0.00192234 2.67678e-20)
(0.0164038 0.0012043 2.62495e-20)
(0.0161842 0.000473288 3.87602e-20)
(0.0158467 -0.000237639 2.56197e-20)
(0.0153981 -0.000911459 0)
(0.0148472 -0.00153045 1.01073e-19)
(0.0142195 -0.00207717 0)
(0.0135209 -0.00254492 -3.48713e-19)
(0.0127856 -0.00292407 -1.99121e-19)
(0.0120197 -0.00321687 -4.95469e-20)
(0.0112501 -0.00342311 0)
(0.0104864 -0.00354984 0)
(0.00973942 -0.0036042 -1.95096e-19)
(0.00902177 -0.00359436 0)
(0.00833136 -0.00352944 4.33543e-19)
(0.00767625 -0.00341869 -4.30862e-19)
(0.00705731 -0.00327081 4.04218e-19)
(0.00647233 -0.00309472 -1.99354e-22)
(0.00592333 -0.00289884 -1.93931e-22)
(0.00540969 -0.00269073 3.26427e-19)
(0.00492939 -0.00247761 4.64222e-20)
(0.00448294 -0.0022656 3.44721e-19)
(0.00407046 -0.00205946 3.6506e-19)
(0.00369089 -0.00186279 1.4276e-21)
(0.00334396 -0.00167805 -3.47941e-19)
(0.00302891 -0.00150639 3.44812e-19)
(0.00274436 -0.00134786 0)
(0.00248941 -0.00120167 5.44898e-21)
(0.00226163 -0.00106649 3.41287e-19)
(0.00205801 -0.00094097 -6.81934e-19)
(0.00187732 -0.00082393 -1.01679e-18)
(0.001716 -0.000714292 -3.43982e-19)
(0.00157073 -0.000611865 1.1271e-20)
(0.00144088 -0.000516916 0)
(0.00132377 -0.000429751 1.0006e-20)
(0.00121751 -0.000351301 -9.91877e-21)
(0.00112334 -0.000282747 0)
(0.00103904 -0.000224447 1.54069e-19)
(0.000967208 -0.000177761 -1.89204e-20)
(0.000906908 -0.000142367 1.87588e-20)
(0.000860878 -0.000118818 1.93797e-22)
(0.000829127 -0.000105449 1.46038e-19)
(0.000815135 -0.000102101 -1.79937e-20)
(0.000819834 -0.000105794 3.57103e-20)
(0.000845166 -0.000115048 -1.77044e-20)
(0.000894175 -0.000125694 -6.18113e-25)
(0.000967234 -0.000134453 -8.66667e-21)
(0.00106755 -0.000137845 8.64914e-21)
(0.00119573 -0.000130793 -6.87248e-20)
(0.00135275 -0.000109989 -7.26789e-20)
(0.00154031 -7.0527e-05 -1.32281e-19)
(0.00175708 -8.89598e-06 2.72266e-19)
(0.00200372 7.82835e-05 -1.31453e-19)
(0.00227893 0.000193864 -4.245e-21)
(0.00258098 0.000340081 -4.21188e-21)
(0.00290852 0.000518154 4.22302e-21)
(0.00325819 0.000728983 -1.3448e-19)
(0.00362772 0.00097183 8.81643e-21)
(0.00401545 0.00124563 -5.67278e-23)
(0.00441571 0.00154805 1.15625e-19)
(0.00482755 0.0018756 4.03819e-19)
(0.00524789 0.00222404 -2.61161e-19)
(0.00567273 0.00258849 -2.60875e-19)
(0.00610125 0.00296344 2.75141e-19)
(0.00653177 0.0033429 2.39347e-19)
(0.00696193 0.00372074 -2.39302e-19)
(0.00739198 0.00409068 -2.82509e-19)
(0.00782226 0.00444651 -2.34869e-19)
(0.00825226 0.00478262 3.26999e-20)
(0.00868303 0.00509366 -3.07603e-20)
(0.00911563 0.00537472 0)
(0.00955131 0.00562145 -2.69042e-19)
(0.00999242 0.00582985 -2.35725e-19)
(0.0104394 0.00599592 -2.03569e-19)
(0.0108915 0.0061169 0)
(0.0113532 0.00618905 -2.52923e-19)
(0.0118228 0.00620825 2.78025e-20)
(0.0122958 0.0061729 -8.07841e-20)
(0.012775 0.00607887 -2.67303e-20)
(0.0132521 0.0059201 -8.42313e-22)
(0.0137197 0.00569759 -1.26497e-19)
(0.0141741 0.00540577 2.50186e-20)
(0.0146018 0.00504475 -1.19919e-19)
(0.0149922 0.00461436 2.11968e-19)
(0.0153303 0.00411687 1.83485e-19)
(0.0156004 0.00355807 8.93336e-20)
(0.0157904 0.00294747 0)
(0.0158806 0.00229478 -2.0938e-20)
(0.0158686 0.00162015 3.08455e-22)
(0.0157327 0.000932843 9.70126e-21)
(0.0154721 0.000262221 -3.39873e-20)
(0.0150935 -0.000375647 1.91378e-20)
(0.0145918 -0.000961783 -3.67091e-20)
(0.0139906 -0.00147535 3.5603e-20)
(0.0132864 -0.00190808 0)
(0.0125128 -0.0022436 -8.45649e-20)
(0.0116751 -0.00248048 3.32443e-20)
(0.0108054 -0.00261632 -6.54199e-20)
(0.00990968 -0.00263766 -1.6185e-20)
(0.00901491 -0.00257954 7.83653e-20)
(0.00812495 -0.0024267 -1.56013e-20)
(0.00727145 -0.00219844 0)
(0.00643656 -0.00190677 7.41476e-20)
(0.00578114 -0.00158572 -3.47001e-22)
(0.00532757 -0.00128537 -3.43493e-22)
(0.00501762 -0.00104749 -3.34614e-22)
(0.00484131 -0.000891585 2.69847e-20)
(0.00482522 -0.000816732 -3.18151e-22)
(0.00497675 -0.000804641 -1.64057e-22)
(0.00530229 -0.000840845 -1.19794e-20)
(0.00574576 -0.000892048 1.0361e-20)
(0.00622254 -0.000927999 1.10505e-20)
(0.00669736 -0.000934417 1.02394e-21)
(0.00715607 -0.000905347 -1.05044e-20)
(0.00758338 -0.000841196 1.23907e-21)
(0.00796579 -0.000747842 9.3564e-21)
(0.00829425 -0.00063407 -9.30518e-21)
(0.00856392 -0.000509377 -1.0919e-21)
(0.00877373 -0.00038269 -1.04867e-21)
(0.00892585 -0.000261639 0)
(0.00902516 -0.00015216 7.45734e-21)
(0.00907857 -5.8332e-05 -7.44996e-21)
(0.00909428 1.75621e-05 0)
(0.00908115 7.48199e-05 -8.16885e-22)
(0.00904792 0.000113738 0)
(0.00900256 0.00013585 7.26186e-22)
(0.00895224 0.000143477 2.64582e-21)
(0.00890286 0.000139388 -2.64288e-21)
(0.00885879 0.000126661 -5.96726e-22)
(0.00882289 0.000108496 5.51481e-22)
(0.0087965 8.79752e-05 0)
(0.00877952 6.78815e-05 -1.78664e-21)
(0.00877063 5.07503e-05 1.78251e-21)
(0.00876768 3.83663e-05 3.82576e-22)
(0.0087679 3.17296e-05 6.43659e-22)
(0.00876827 3.12499e-05 -6.42292e-22)
(0.00876583 3.67543e-05 4.8072e-22)
(0.008758 4.75693e-05 -4.79887e-22)
(0.00874281 6.2727e-05 -1.79977e-22)
(0.00871918 8.12164e-05 -1.19707e-22)
(0.00868687 0.000102209 7.97107e-23)
(0.00864655 0.000125142 9.92077e-23)
(0.00858777 0.000151808 0)
(0.00976251 0.000329366 0)
(0.0101852 0.000852965 0)
(0.0106639 0.00114622 0)
(0.0109586 0.00125062 8.2735e-21)
(0.0111338 0.00123051 -8.24775e-21)
(0.0112486 0.00114469 0)
(0.0112698 0.00103821 1.6278e-20)
(0.0112415 0.000930902 -1.63186e-20)
(0.0111763 0.000830958 -1.62105e-20)
(0.0110915 0.000742225 3.2445e-20)
(0.0109969 0.000664463 -1.62346e-20)
(0.0108983 0.000596493 0)
(0.0107993 0.000537705 0)
(0.0107019 0.000487625 3.21331e-20)
(0.0106068 0.000445764 -1.52948e-22)
(0.0105142 0.000411663 -6.41205e-20)
(0.0104235 0.000384921 3.20532e-20)
(0.0103342 0.000365199 0)
(0.0102454 0.000352219 0)
(0.0101559 0.000345741 3.16264e-20)
(0.0100647 0.000345602 -3.16785e-20)
(0.00997057 0.000351704 0)
(0.00987212 0.000364028 0)
(0.00976794 0.00038266 -6.24565e-20)
(0.00965653 0.000407801 1.24808e-19)
(0.00953628 0.000439805 -6.23519e-20)
(0.00940548 0.000479215 -6.18706e-20)
(0.00926235 0.000526811 2.84363e-22)
(0.00910501 0.000583665 1.23298e-19)
(0.0089316 0.000651218 -6.16158e-20)
(0.00874034 0.000731382 -6.11774e-20)
(0.00852937 0.000826665 2.67324e-22)
(0.00830124 0.000940607 6.11304e-20)
(0.0080399 0.00107553 6.06674e-20)
(0.00777218 0.00124105 -6.10846e-20)
(0.00759933 0.00145569 0)
(0.00758341 0.00172923 -2.50326e-19)
(0.00772046 0.00206024 -5.00998e-19)