/*--------------------------------*- C++ -*----------------------------------*\
| =========                 |                                                 |
| \\      /  F ield         | OpenFOAM: The Open Source CFD Toolbox           |
|  \\    /   O peration     | Version:  2506                                  |
|   \\  /    A nd           | Website:  www.openfoam.com                      |
|    \\/     M anipulation  |                                                 |
\*---------------------------------------------------------------------------*/
FoamFile
{
    version     2.0;
    format      ascii;
    arch        "LSB;label=32;scalar=64";
    class       volVectorField;
    location    "3";
    object      vorticityField;
}
// * * * * * * * * * * * * * * * * * * * * * * * * * * * * * * * * * * * * * //

dimensions      [0 0 -1 0 0 0 0];

internalField   nonuniform List<vector> 
4000
(
(-2.28822e-20 7.75604e-18 -32.7231)
(-8.39381e-18 -6.72485e-18 -35.7822)
(8.89821e-18 -2.51662e-17 -33.6578)
(3.38882e-17 3.88198e-17 -29.6523)
(-6.95259e-17 3.16568e-18 -26.6707)
(3.55607e-17 -3.42578e-17 -24.7922)
(-2.90433e-19 1.64073e-17 -23.4895)
(3.50825e-17 -0 -22.51)
(-3.44442e-17 -3.24482e-17 -21.7462)
(6.89626e-17 2.98281e-17 -21.1286)
(-6.89908e-17 -2.9346e-17 -20.6119)
(-2.31905e-18 2.68919e-17 -20.1692)
(-1.05292e-18 6.96122e-17 -19.7839)
(7.23893e-17 -6.4538e-17 -19.444)
(-3.33323e-19 -0 -19.1402)
(-1.36477e-16 -6.32253e-17 -18.8647)
(1.3429e-16 5.84469e-17 -18.6112)
(-7.09796e-17 6.80454e-17 -18.3737)
(3.35976e-18 -6.3267e-17 -18.1469)
(0 -0 -17.926)
(0 -0 -17.706)
(0 -0 -17.4825)
(8.33626e-18 -1.22853e-16 -17.251)
(1.1434e-16 2.3643e-16 -17.0067)
(-2.62668e-16 1.80136e-17 -16.745)
(1.49395e-16 -2.54057e-16 -16.4606)
(-9.39392e-18 1.22466e-16 -16.1477)
(0 -0 -15.7992)
(0 -0 -15.4068)
(-1.06144e-17 1.19927e-16 -14.9593)
(-2.51089e-16 -1.12681e-16 -14.4413)
(1.4041e-16 -1.27395e-16 -13.8338)
(2.65805e-16 1.5655e-17 -13.106)
(7.12769e-18 -1.24054e-16 -12.0521)
(-7.73518e-17 6.98646e-16 -10.8243)
(-3.01751e-16 5.72427e-16 -10.1654)
(-9.70339e-16 -1.02206e-15 -10.33)
(-7.71926e-18 8.46769e-18 -11.0544)
(7.06158e-16 1.7091e-15 -12.2469)
(-7.28422e-16 -1.08001e-15 -13.9859)
(3.83704e-16 -2.23179e-15 -16.5599)
(1.10369e-15 2.12453e-15 -19.6927)
(-3.36882e-16 9.35954e-16 -22.8322)
(2.56282e-16 -1.00684e-15 -25.8458)
(1.20041e-15 8.40436e-16 -28.7332)
(-1.3816e-15 1.75187e-16 -31.5308)
(-1.26731e-15 4.02817e-16 -34.2822)
(-1.07832e-15 -1.06024e-15 -36.818)
(-1.22515e-15 -1.2718e-15 -39.191)
(-5.25887e-16 -1.34581e-15 -41.3704)
(7.04039e-16 -3.28984e-16 -43.2603)
(-4.28702e-17 5.32368e-16 -44.9437)
(-6.53379e-16 -1.19829e-15 -46.2336)
(7.29645e-16 1.49683e-17 -47.2621)
(-9.87836e-17 1.15425e-15 -47.8882)
(-3.34692e-16 5.62468e-17 -48.1425)
(2.56308e-16 -9.04224e-17 -48.0567)
(8.42521e-17 -3.02029e-17 -47.4957)
(1.56326e-16 5.05743e-17 -46.7232)
(-7.56955e-17 -4.85912e-17 -45.5293)
(7.91491e-17 -2.09553e-17 -43.994)
(3.13557e-16 7.29839e-18 -42.335)
(-1.47527e-16 -7.05554e-17 -40.4484)
(-8.73677e-17 -6.93163e-16 -38.5012)
(5.77993e-17 -1.16754e-16 -36.4834)
(-1.12278e-16 8.18428e-16 -34.4248)
(6.36463e-16 -1.272e-16 -32.4313)
(2.69363e-17 -4.30876e-16 -30.4143)
(3.03675e-16 6.7576e-16 -28.505)
(-7.8605e-16 8.02341e-16 -26.6098)
(-1.78143e-16 -5.94798e-16 -24.8062)
(-4.94171e-17 -2.39282e-16 -23.0705)
(-1.98957e-19 2.32971e-18 -21.3701)
(-9.75984e-16 6.19059e-16 -19.7716)
(-9.47854e-16 6.7329e-16 -18.23)
(-3.88993e-17 7.89522e-16 -16.7594)
(-7.93957e-16 5.11322e-16 -15.3847)
(9.40564e-17 -8.18133e-16 -14.0939)
(-8.6029e-16 4.64385e-16 -12.8893)
(7.62776e-16 2.35254e-16 -11.7853)
(-1.44169e-15 4.06809e-16 -10.7759)
(-1.67855e-16 -7.4734e-16 -9.85621)
(4.20102e-17 -1.0524e-16 -9.02368)
(-8.20473e-17 3.02071e-17 -8.269)
(6.8239e-16 1.06531e-15 -7.58497)
(-1.22849e-15 1.61279e-15 -6.96434)
(5.18703e-17 -1.45715e-15 -6.39468)
(-6.25706e-17 -7.31942e-16 -5.87033)
(-1.19905e-17 1.40129e-15 -5.38915)
(-5.04539e-16 3.25755e-16 -4.94149)
(1.86548e-18 1.34658e-18 -4.52574)
(-4.97142e-16 9.13031e-16 -4.14456)
(-2.32272e-16 -1.12174e-15 -3.79121)
(1.74514e-16 -3.77429e-16 -3.46955)
(6.93733e-18 5.81355e-16 -3.1795)
(7.31186e-17 -6.4105e-16 -2.9209)
(2.17798e-16 -9.59668e-17 -2.69648)
(2.77813e-17 3.11493e-17 -2.50517)
(-3.29821e-16 -5.19299e-17 -2.3479)
(5.27889e-17 2.73827e-16 -2.22644)
(5.91602e-17 -3.58404e-18 -2.14176)
(1.76161e-17 -5.31569e-17 -2.09257)
(-9.73301e-18 1.70678e-16 -2.08375)
(-2.5499e-17 4.60074e-17 -2.1116)
(-3.72847e-17 -1.85874e-17 -2.18248)
(-6.79702e-19 -6.17027e-17 -2.29841)
(3.68482e-18 4.94802e-16 -2.46368)
(-1.87285e-16 -3.04332e-17 -2.68456)
(-2.37137e-16 -8.38788e-16 -2.96334)
(4.43331e-16 -1.2106e-16 -3.30832)
(-2.33059e-16 1.6828e-16 -3.72664)
(1.0003e-17 5.56437e-16 -4.22413)
(-2.32073e-16 -1.09974e-16 -4.81282)
(-2.30423e-16 -4.27091e-16 -5.49176)
(-6.85496e-18 -5.80149e-16 -6.28185)
(4.56294e-16 3.01518e-16 -7.17691)
(3.85198e-18 1.14346e-15 -8.18332)
(4.74521e-17 7.9411e-17 -9.31046)
(4.7604e-16 3.47938e-16 -10.5461)
(-4.85585e-16 -3.64411e-16 -11.8926)
(-5.86153e-16 -1.72223e-15 -13.3517)
(5.97471e-16 3.99817e-16 -14.901)
(2.56815e-17 1.30266e-15 -16.5272)
(-5.49472e-16 -4.05055e-16 -18.2305)
(-1.08108e-16 -1.36142e-15 -19.9858)
(1.08397e-15 7.68162e-16 -21.7821)
(-3.73141e-16 3.91546e-16 -23.6045)
(5.25458e-16 -1.0623e-16 -25.4338)
(5.86e-16 8.43971e-16 -27.265)
(4.24832e-18 8.41111e-16 -29.1052)
(-1.7448e-17 5.14015e-16 -30.8908)
(-5.51187e-16 -1.68706e-16 -32.6543)
(-2.09204e-16 -6.21369e-16 -34.4231)
(-1.10458e-15 -7.65674e-16 -36.096)
(4.32277e-16 1.69162e-17 -37.7228)
(-7.44996e-17 -3.89422e-17 -39.3685)
(7.68745e-17 4.23381e-17 -40.8098)
(-2.5391e-17 -1.58265e-16 -42.2509)
(8.40591e-17 8.76222e-17 -43.5148)
(-1.23691e-16 1.17844e-16 -44.6556)
(1.23002e-16 1.66659e-16 -45.6061)
(-4.37822e-16 -1.74774e-16 -46.3286)
(1.95483e-16 1.5161e-16 -46.756)
(-6.49442e-17 4.27775e-17 -46.941)
(-1.38884e-16 -8.42466e-17 -46.6603)
(-1.33236e-17 -2.19304e-16 -46.1846)
(-2.43845e-17 3.97214e-17 -45.1821)
(0 -0 -43.8266)
(-5.28659e-17 3.81835e-17 -42.2107)
(5.74561e-17 -2.32171e-17 -40.2444)
(2.47754e-17 -1.93514e-16 -38.1603)
(-2.60625e-17 -9.18286e-17 -35.843)
(1.55639e-16 9.15359e-17 -33.4356)
(8.28874e-17 2.35991e-16 -30.9665)
(-1.69543e-16 6.61544e-17 -28.4657)
(1.63574e-16 -1.71279e-16 -25.9449)
(-2.47559e-16 -1.08224e-16 -23.3756)
(3.41225e-16 -1.88972e-16 -20.7884)
(-7.63139e-17 -3.14539e-16 -18.0213)
(2.38073e-16 -1.88207e-16 -15.0086)
(-2.28309e-16 7.19563e-16 -12.7084)
(1.81745e-16 -1.35157e-16 -11.5373)
(-4.60778e-17 -9.30752e-17 -10.6332)
(3.20832e-17 -7.47923e-18 -9.99406)
(3.03205e-17 -4.66319e-18 -9.73505)
(2.89684e-17 -2.40683e-18 -9.92163)
(-2.78824e-17 -2.09557e-17 -10.6563)
(2.35336e-17 -6.0892e-18 -11.776)
(1.69998e-18 2.13163e-17 -12.888)
(2.86184e-18 1.8948e-17 -13.9346)
(-2.35071e-17 7.10831e-18 -14.9533)
(-5.10526e-18 -3.80171e-17 -15.9224)
(4.58021e-19 8.80295e-18 -16.8049)
(4.00237e-18 2.65511e-17 -17.5708)
(-2.86177e-18 -1.83498e-17 -18.201)
(1.91135e-17 5.8258e-19 -18.6876)
(-3.48021e-17 1.42793e-17 -19.0327)
(1.76783e-17 -4.15331e-18 -19.2474)
(-2.77935e-18 -2.44758e-17 -19.3476)
(9.83784e-19 1.43284e-17 -19.3533)
(8.49743e-18 5.4344e-18 -19.2851)
(-1.3772e-17 4.17475e-18 -19.1622)
(-1.05241e-18 -1.08544e-17 -19.0045)
(1.67538e-19 -4.62153e-18 -18.8297)
(5.48628e-18 5.43329e-18 -18.6518)
(5.13089e-18 1.53048e-20 -18.4823)
(-5.72087e-18 -1.70647e-20 -18.3289)
(4.89426e-18 -2.10092e-19 -18.1961)
(-8.27513e-18 -4.62368e-19 -18.0859)
(5.25354e-18 2.39867e-19 -17.9962)
(-1.77448e-18 -5.29305e-21 -17.9232)
(-4.0113e-19 -1.08595e-18 -17.8625)
(1.20364e-18 -1.25798e-18 -17.8089)
(-3.88065e-19 3.41821e-18 -17.7565)
(-1.06137e-18 -1.1704e-18 -17.6996)
(1.45045e-19 -6.56178e-19 -17.6333)
(-9.32864e-20 -9.19054e-19 -17.5531)
(-1.61426e-19 8.84459e-19 -17.4531)
(-8.25784e-20 4.20898e-19 -17.314)
(-2.2723e-20 -7.62787e-20 -17.145)
(0 -0 2.64515)
(-1.51018e-20 -0 -6.32631)
(-1.50692e-19 -1.59456e-17 -11.519)
(-8.40998e-19 2.88449e-17 -13.4285)
(1.77969e-17 6.40596e-18 -13.6163)
(-1.68751e-17 -3.5691e-17 -13.1426)
(3.89494e-19 -1.65193e-17 -12.5579)
(-6.48754e-19 2.73675e-17 -12.0316)
(-3.37056e-17 5.68612e-18 -11.5826)
(3.28267e-17 -5.41542e-18 -11.1996)
(6.52057e-17 1.04192e-16 -10.8688)
(-1.33528e-16 -8.88097e-17 -10.5793)
(6.63144e-18 -1.41714e-16 -10.3232)
(6.5189e-17 5.63957e-17 -10.095)
(-8.5088e-18 1.96541e-16 -9.88983)
(-6.41064e-17 -4.62702e-17 -9.70365)
(7.27673e-17 -1.40441e-16 -9.53281)
(-2.65065e-18 6.53729e-17 -9.37392)
(0 -0 -9.22394)
(0 -0 -9.08016)
(0 -0 -8.93989)
(0 -0 -8.80056)
(0 -0 -8.65969)
(-2.6302e-16 -0 -8.51487)
(3.94436e-16 -0 -8.36365)
(-1.31172e-16 -0 -8.20349)
(0 -0 -8.03189)
(0 -0 -7.84624)
(0 -0 -7.64344)
(-1.10761e-17 1.25143e-16 -7.42008)
(-1.34663e-18 1.39965e-17 -7.17197)
(3.60753e-17 -3.76178e-16 -6.89358)
(-9.44779e-18 8.3399e-17 -6.57688)
(-1.4149e-16 3.88484e-16 -6.20755)
(-7.87918e-17 -4.81405e-16 -5.81256)
(3.42532e-16 4.0914e-16 -5.56721)
(9.68222e-16 8.22633e-16 -5.63536)
(7.09605e-17 -1.90035e-15 -6.05217)
(-4.41357e-16 -8.62046e-16 -6.80831)
(1.03608e-15 2.08305e-15 -7.91617)
(-3.0208e-16 1.16475e-16 -9.39716)
(-8.50851e-16 -1.54109e-15 -11.0007)
(7.1624e-17 -1.36849e-16 -12.6458)
(3.36396e-17 -2.70819e-16 -14.3329)
(-1.26784e-15 1.93652e-16 -15.9932)
(1.06034e-15 2.1876e-15 -17.6441)
(2.39334e-15 3.71614e-16 -19.2664)
(1.07587e-15 1.15344e-15 -20.7953)
(1.22535e-15 7.78358e-16 -22.2745)
(6.52761e-16 -2.21092e-16 -23.6273)
(-1.80582e-15 -8.8177e-16 -24.854)
(-3.83985e-17 4.73072e-16 -25.9603)
(5.09446e-16 8.95338e-16 -26.8771)
(-6.38686e-16 -5.3938e-16 -27.658)
(6.62947e-16 -3.03149e-16 -28.2304)
(6.38922e-16 -4.74167e-17 -28.6338)
(4.06068e-16 -6.63689e-17 -28.8404)
(1.4408e-16 1.23417e-16 -28.8446)
(-8.33998e-17 3.20188e-17 -28.6514)
(-8.71956e-17 1.17639e-16 -28.275)
(-4.94312e-17 -2.34086e-16 -27.6723)
(-3.22778e-16 4.59271e-17 -26.8922)
(2.54963e-16 4.3361e-16 -25.9537)
(-1.9199e-16 6.60767e-16 -24.8449)
(2.24767e-16 6.0065e-17 -23.6484)
(1.08733e-17 -1.14264e-15 -22.3261)
(2.33407e-16 -2.24033e-16 -20.9908)
(-3.20942e-16 7.11042e-16 -19.5601)
(-3.614e-16 -4.64219e-17 -18.1539)
(9.81697e-16 -4.21935e-16 -16.7316)
(-6.42915e-18 1.36352e-16 -15.3205)
(-1.40487e-15 5.75613e-16 -13.9677)
(7.7712e-16 4.47942e-16 -12.627)
(2.13615e-17 1.11408e-15 -11.3515)
(1.07375e-15 -1.41875e-15 -10.1398)
(1.59632e-16 -9.51809e-16 -8.98464)
(-1.73753e-16 1.08153e-16 -7.90782)
(-4.26002e-17 8.45921e-16 -6.9145)
(-7.39325e-16 -1.57127e-16 -5.99759)
(-1.60774e-15 9.8731e-16 -5.1638)
(2.13298e-15 3.12755e-16 -4.41298)
(2.10479e-16 -9.57392e-16 -3.73971)
(-7.32147e-16 4.97561e-16 -3.13993)
(1.19063e-16 -7.29831e-16 -2.60695)
(-2.24391e-17 -9.73906e-17 -2.13324)
(1.2534e-15 -7.73869e-16 -1.71576)
(5.59546e-16 -4.68996e-16 -1.3479)
(6.86263e-16 4.27879e-16 -1.01915)
(5.55956e-16 -1.12417e-15 -0.731208)
(1.11295e-15 -7.04934e-16 -0.481169)
(3.53284e-19 2.24221e-17 -0.260396)
(5.03395e-16 -6.24949e-16 -0.0723679)
(2.08131e-16 2.35287e-16 0.0851661)
(-4.65966e-16 2.62436e-16 0.216182)
(2.13227e-16 -5.55428e-16 0.318655)
(9.11854e-18 3.05387e-16 0.397177)
(-4.55471e-16 2.42271e-16 0.451735)
(2.2161e-16 5.7587e-16 0.485691)
(2.04987e-17 1.26116e-16 0.501127)
(-1.1946e-16 -7.38284e-16 0.501043)
(-5.92529e-17 3.61152e-17 0.486319)
(-6.99327e-17 1.4601e-16 0.458565)
(-3.00628e-17 -1.15285e-16 0.417937)
(2.59531e-17 -1.56625e-17 0.363726)
(5.03093e-17 -1.29901e-17 0.295034)
(1.0765e-16 2.99015e-17 0.207397)
(-1.99424e-18 -2.6779e-16 0.0978995)
(6.23228e-16 4.13688e-16 -0.0395797)
(1.17449e-17 -1.39046e-18 -0.210435)
(-4.24959e-16 1.31828e-16 -0.420058)
(4.5702e-18 3.07435e-16 -0.676262)
(-1.67325e-17 -5.703e-16 -0.983451)
(2.26742e-16 4.03417e-16 -1.34787)
(2.21957e-16 1.14645e-16 -1.772)
(-2.34397e-16 -4.26702e-16 -2.26739)
(-4.5577e-16 -2.63817e-16 -2.82569)
(1.75129e-17 -6.30506e-16 -3.45914)
(-3.80655e-17 -6.80128e-16 -4.17081)
(-3.7894e-16 3.03672e-16 -4.95581)
(9.84201e-16 1.97918e-15 -5.81261)
(-5.54603e-16 -3.78221e-16 -6.73881)
(-5.40649e-16 -1.05226e-15 -7.72894)
(4.40683e-16 4.04367e-16 -8.78189)
(6.4871e-16 4.5168e-16 -9.89211)
(5.06694e-16 -1.99173e-16 -11.0407)
(-1.57015e-15 -9.17329e-16 -12.2278)
(4.14598e-16 4.92774e-16 -13.4404)
(-2.93959e-16 -1.08444e-15 -14.6669)
(-1.26026e-16 6.93827e-17 -15.9044)
(1.25377e-15 6.74582e-16 -17.1428)
(4.77939e-16 2.72366e-16 -18.3474)
(1.23808e-15 6.47007e-16 -19.5516)
(6.72156e-16 1.50348e-15 -20.7337)
(9.721e-16 3.81899e-16 -21.8383)
(-1.50579e-17 -6.87071e-16 -22.9302)
(1.17954e-16 5.79648e-16 -23.9785)
(2.32738e-16 6.85009e-17 -24.8863)
(8.51244e-17 9.28407e-18 -25.8007)
(-5.12455e-17 -8.05838e-17 -26.5553)
(8.75441e-17 -1.15333e-16 -27.2381)
(2.74274e-17 3.00639e-18 -27.7873)
(6.1726e-17 3.33258e-16 -28.199)
(1.34262e-16 -4.12428e-16 -28.4571)
(3.49419e-17 2.04246e-16 -28.5678)
(-4.53082e-17 -2.90442e-17 -28.4627)
(-5.19299e-17 8.19232e-17 -28.2336)
(1.08953e-16 -1.01136e-17 -27.7469)
(-6.97522e-17 1.85169e-17 -27.1043)
(4.59172e-17 -2.67137e-17 -26.2421)
(-1.20942e-16 -1.218e-16 -25.1916)
(-7.10132e-17 2.32639e-16 -23.9798)
(3.85093e-17 2.06554e-16 -22.5999)
(3.54467e-17 -1.55765e-16 -21.0764)
(-1.04797e-16 -3.61214e-17 -19.4552)
(3.77768e-16 -2.46426e-16 -17.7437)
(-1.92634e-16 7.97696e-17 -15.9719)
(2.5073e-17 7.01622e-17 -14.1703)
(-3.93494e-16 -5.64611e-17 -12.365)
(1.22871e-16 3.43342e-16 -10.5424)
(-6.48487e-16 6.36324e-16 -8.75974)
(2.28691e-16 -5.41537e-16 -7.05624)
(-2.74676e-17 -2.37112e-16 -5.92715)
(7.3433e-20 2.48112e-16 -5.23318)
(-7.21025e-17 -4.94416e-17 -4.83495)
(-1.21076e-18 -8.20456e-18 -4.69868)
(-5.3485e-17 3.85048e-17 -4.82921)
(5.64468e-17 3.42394e-17 -5.20567)
(-2.68058e-17 -2.05715e-17 -5.7441)
(-3.34443e-19 -2.81145e-18 -6.33417)
(-1.66054e-18 -1.03318e-18 -6.91175)
(-1.11972e-19 2.53101e-18 -7.45821)
(3.27184e-18 2.00918e-17 -7.96586)
(-2.23856e-17 -3.54783e-18 -8.42447)
(1.74153e-17 -3.60993e-17 -8.82395)
(1.03226e-18 5.16994e-18 -9.15676)
(2.27432e-17 1.02095e-17 -9.41888)
(-1.98984e-17 2.34201e-17 -9.61036)
(-1.51003e-18 -5.48856e-17 -9.73482)
(3.31441e-18 5.19016e-17 -9.79908)
(-1.55447e-18 -2.3006e-17 -9.81254)
(-4.39174e-19 -4.55903e-18 -9.78571)
(6.59846e-18 1.82453e-17 -9.72959)
(-5.85738e-18 -8.52035e-20 -9.65467)
(-6.09626e-18 4.23908e-18 -9.5699)
(5.97346e-18 -1.8076e-17 -9.48285)
(1.78892e-18 3.38123e-19 -9.39929)
(5.54858e-19 1.09263e-17 -9.32288)
(-4.22851e-19 -8.0587e-18 -9.25553)
(-3.09218e-19 1.8621e-17 -9.19747)
(2.67925e-19 -1.8594e-17 -9.14706)
(1.69215e-18 9.69293e-18 -9.10155)
(-1.21882e-18 -3.15761e-19 -9.05795)
(-2.39828e-18 -1.05294e-18 -9.01302)
(2.65605e-18 -2.27334e-18 -8.96348)
(8.58536e-21 5.17479e-18 -8.90649)
(1.24461e-19 -1.177e-18 -8.83967)
(7.91887e-20 2.29337e-18 -8.76132)
(2.45154e-19 -3.16812e-19 -8.67053)
(8.03858e-23 2.08405e-20 -8.56746)
(8.26017e-21 1.26473e-18 -8.48685)
(-2.30934e-20 7.82763e-18 4.99854)
(-2.76619e-19 -5.69595e-18 1.69585)
(5.05904e-19 -2.54123e-17 -1.76053)
(-3.63743e-19 1.92614e-17 -4.26915)
(1.7455e-17 1.96631e-17 -5.72858)
(-1.72715e-17 -1.56438e-17 -6.42309)
(0 -0 -6.67034)
(-3.58947e-17 3.16694e-17 -6.72374)
(3.67693e-17 -5.64547e-17 -6.7048)
(-3.291e-17 -7.73253e-17 -6.65655)
(3.15805e-17 1.20736e-16 -6.5948)
(9.34899e-19 1.08565e-16 -6.52614)
(-1.61598e-19 -1.1441e-16 -6.45405)
(-1.32883e-16 -7.6432e-17 -6.38075)
(1.26162e-16 1.26784e-16 -6.30756)
(7.98154e-17 -1.13918e-16 -6.23514)
(-1.34839e-16 -2.45559e-17 -6.1637)
(5.88534e-17 1.38486e-16 -6.09311)
(3.35325e-18 -6.31444e-17 -6.02306)
(0 -0 -5.95315)
(1.29102e-16 -0 -5.88283)
(-1.29349e-16 -0 -5.81148)
(-8.38815e-18 1.23618e-16 -5.73832)
(-1.1964e-16 -1.01736e-16 -5.6625)
(1.37401e-16 -1.45736e-16 -5.58308)
(-9.13506e-18 1.23855e-16 -5.49904)
(0 -0 -5.40932)
(1.26649e-16 -0 -5.31284)
(-5.70674e-19 -0 -5.20857)
(-1.37424e-16 1.2172e-16 -5.09557)
(1.7957e-17 -1.03343e-16 -4.97303)
(2.63414e-16 -1.40466e-16 -4.83953)
(-4.04207e-16 1.1449e-16 -4.69318)
(2.34786e-16 -2.6996e-18 -4.52577)
(-1.83396e-17 2.53634e-16 -4.35677)
(-4.79071e-16 -5.47732e-16 -4.24518)
(7.06985e-16 -1.25556e-16 -4.253)
(3.53156e-16 1.72043e-15 -4.43304)
(-7.87076e-16 -2.37858e-16 -4.79933)
(-1.93331e-16 -1.07938e-15 -5.35492)
(-1.2932e-16 -1.96675e-16 -6.08017)
(-1.42238e-15 7.19787e-17 -6.8466)
(2.0547e-16 5.28392e-16 -7.64648)
(1.07121e-15 7.53872e-16 -8.4924)
(-1.53841e-15 -1.7414e-15 -9.35624)
(1.79042e-15 -1.73602e-15 -10.2436)
(-5.72682e-16 4.4292e-16 -11.1374)
(-5.20882e-17 6.05291e-16 -12.0218)
(7.51119e-17 -2.10874e-16 -12.8981)
(-4.24208e-17 1.469e-15 -13.7286)
(4.22013e-16 6.83123e-16 -14.5262)
(1.81619e-16 -1.30771e-15 -15.2664)
(5.32205e-18 -7.04442e-16 -15.9361)
(2.15782e-16 -2.88353e-16 -16.5382)
(-5.64845e-16 -1.37643e-16 -17.0562)
(-3.00152e-16 4.87684e-17 -17.4929)
(-3.91159e-16 -8.88133e-17 -17.8362)
(-2.41306e-17 2.01917e-16 -18.0888)
(-1.0809e-16 2.04802e-16 -18.217)
(1.55817e-16 -8.81024e-18 -18.2539)
(5.91774e-17 1.20193e-16 -18.1423)
(-2.86599e-16 -6.01348e-17 -17.8895)
(4.56029e-16 -3.79483e-16 -17.4984)
(3.83727e-16 -7.00437e-16 -16.9474)
(-1.49522e-16 -3.86386e-16 -16.2908)
(-4.86067e-16 8.59116e-16 -15.4914)
(-8.97274e-16 3.96396e-16 -14.6097)
(1.473e-16 8.86545e-17 -13.6287)
(2.29675e-17 -2.20223e-16 -12.6264)
(-6.71446e-16 3.9103e-16 -11.5771)
(2.41094e-17 1.31454e-15 -10.5099)
(1.31056e-15 -1.18924e-15 -9.47179)
(-1.05431e-15 -8.46279e-16 -8.4442)
(1.96019e-15 -1.23245e-15 -7.46284)
(8.54484e-16 -8.10299e-16 -6.53716)
(-1.78337e-16 1.88586e-15 -5.66629)
(8.75791e-16 -2.77302e-16 -4.86415)
(5.83134e-17 -8.81539e-17 -4.13583)
(1.55825e-15 7.88699e-16 -3.4768)
(2.28507e-16 -2.32145e-15 -2.88882)
(7.47771e-16 -3.29284e-15 -2.36979)
(-5.21986e-17 2.34207e-15 -1.9146)
(6.72803e-16 -3.18607e-16 -1.51835)
(6.89368e-16 -1.42257e-15 -1.17569)
(-6.55748e-16 4.85259e-16 -0.880941)
(1.24689e-15 -9.10846e-16 -0.631128)
(-1.87405e-15 4.25791e-16 -0.421369)
(-1.25873e-15 -7.23236e-17 -0.247624)
(-5.98103e-16 1.06729e-15 -0.109403)
(-5.26197e-18 6.37114e-16 -0.0021108)
(1.16082e-17 7.36746e-16 0.0760196)
(2.37898e-17 3.2743e-16 0.125849)
(-2.73048e-16 1.60451e-16 0.151948)
(2.79304e-16 -4.25189e-16 0.154868)
(-1.4192e-19 -3.34655e-17 0.139036)
(-8.4359e-17 2.95599e-16 0.10581)
(2.53139e-17 -2.52614e-16 0.0599444)
(-1.43845e-17 -5.56618e-16 0.00382506)
(7.43861e-16 5.25234e-17 -0.0576378)
(6.44149e-17 3.70224e-16 -0.122833)
(-5.52946e-17 -1.99128e-17 -0.189975)
(7.98368e-17 -9.56148e-17 -0.256158)
(1.10623e-18 5.17185e-17 -0.321729)
(-6.9592e-19 -5.00661e-17 -0.385257)
(-1.38426e-18 -1.15048e-16 -0.449035)
(-1.06604e-16 -1.64912e-17 -0.51629)
(-1.13502e-16 -1.53751e-16 -0.5877)
(-4.24613e-16 -1.06976e-16 -0.669904)
(6.51618e-16 7.19716e-16 -0.764293)
(-4.4089e-16 -4.11869e-16 -0.876881)
(4.45244e-16 -1.03971e-16 -1.01135)
(-5.35227e-18 2.80702e-16 -1.1716)
(1.18954e-17 -2.90647e-16 -1.36073)
(2.31814e-17 2.74542e-16 -1.5803)
(5.95703e-18 3.3433e-16 -1.8364)
(-3.90365e-18 -3.17663e-16 -2.12744)
(2.12482e-16 7.31736e-16 -2.4598)
(1.61971e-16 7.98219e-16 -2.83468)
(-1.02943e-15 -1.724e-15 -3.25288)
(-4.07971e-16 -3.92497e-16 -3.71865)
(1.03571e-15 1.48512e-15 -4.22848)
(3.02853e-16 -9.62707e-16 -4.78019)
(-3.04217e-16 -5.42724e-16 -5.37716)
(-5.87489e-16 -5.18118e-16 -6.0179)
(-1.73517e-16 9.47528e-16 -6.69302)
(-7.88208e-16 1.31214e-16 -7.4031)
(5.19752e-16 -7.94219e-16 -8.14109)
(-7.43313e-16 -8.61017e-18 -8.89998)
(-5.63339e-16 -1.88354e-15 -9.67618)
(-8.13439e-16 -1.04883e-15 -10.4612)
(-2.56631e-16 1.181e-16 -11.2362)
(-5.8144e-16 -4.69292e-16 -12.0149)
(-4.16596e-16 -1.18846e-15 -12.7807)
(8.60176e-16 5.48508e-16 -13.5028)
(-7.66709e-16 1.39453e-16 -14.2149)
(-3.1548e-18 -2.93822e-16 -14.8899)
(1.90151e-18 -2.07415e-16 -15.4868)
(-1.86678e-16 2.09806e-17 -16.0727)
(-2.94654e-17 5.61297e-17 -16.5671)
(-2.11513e-16 -5.04232e-18 -17.0115)
(1.45626e-16 3.38808e-16 -17.3809)
(8.45952e-16 4.59319e-17 -17.6738)
(-8.40204e-17 6.59842e-17 -17.8894)
(1.50437e-17 2.33703e-16 -18.0256)
(-1.71878e-16 1.83117e-16 -18.0641)
(2.35085e-17 -2.41469e-16 -18.0269)
(7.21486e-17 -7.14367e-17 -17.8713)
(-9.26816e-17 1.19094e-16 -17.6248)
(1.19066e-16 -1.28639e-18 -17.2407)
(-1.90429e-16 2.48394e-16 -16.7276)
(7.17458e-17 -1.95233e-16 -16.0772)
(1.47897e-16 -4.19952e-16 -15.287)
(-2.01509e-16 2.08464e-18 -14.3602)
(6.20722e-17 7.5711e-17 -13.3231)
(-2.19113e-16 -8.7681e-17 -12.1417)
(-1.5095e-16 4.06309e-16 -10.8927)
(3.75323e-16 -1.37526e-16 -9.65951)
(-1.71621e-16 1.29638e-16 -8.38065)
(-9.50705e-18 -2.63751e-17 -7.14662)
(4.86751e-16 -2.33853e-16 -6.00749)
(1.49315e-16 -1.73528e-16 -4.97434)
(-2.77046e-16 2.92963e-16 -4.28508)
(3.19488e-17 -2.42621e-17 -3.96807)
(3.12317e-17 -1.01042e-18 -3.89646)
(-3.17729e-17 1.0282e-18 -3.99592)
(-3.09587e-17 -1.58939e-17 -4.22936)
(-1.05932e-17 -7.67553e-17 -4.55556)
(2.97539e-17 4.26951e-17 -4.90833)
(2.48204e-17 1.52718e-18 -5.2245)
(2.7801e-18 1.95015e-17 -5.48008)
(-2.15806e-17 1.57887e-17 -5.68302)
(2.11837e-18 -2.16252e-17 -5.84861)
(4.28393e-17 2.64494e-18 -5.98859)
(-4.35994e-17 -9.39563e-20 -6.10938)
(-2.09149e-18 -2.04597e-17 -6.21357)
(-2.07935e-17 -1.06105e-17 -6.30154)
(3.92157e-17 5.8994e-17 -6.3727)
(-2.1327e-17 -6.70384e-18 -6.42648)
(8.7085e-19 -4.13748e-17 -6.463)
(1.10292e-18 1.6104e-17 -6.48341)
(-9.92879e-18 1.35145e-18 -6.48986)
(7.8842e-18 4.02108e-18 -6.48512)
(2.21957e-18 1.07624e-17 -6.47206)
(1.09855e-17 -1.04947e-17 -6.45331)
(-1.06668e-17 -1.4577e-17 -6.43112)
(-6.10049e-18 1.82692e-18 -6.4072)
(6.9664e-18 3.47196e-19 -6.38261)
(-4.8988e-18 1.83885e-18 -6.35775)
(4.80298e-18 -8.89119e-19 -6.33271)
(-1.61073e-18 -2.72459e-18 -6.30698)
(2.62508e-18 -4.39319e-18 -6.27976)
(1.75103e-18 7.07789e-18 -6.25032)
(-1.38394e-18 3.43042e-18 -6.21768)
(2.08039e-19 -8.21553e-18 -6.18085)
(8.74991e-20 1.12223e-18 -6.13893)
(-4.1489e-19 -1.88385e-18 -6.09116)
(1.1786e-19 -2.74052e-18 -6.03712)
(1.7631e-19 -1.03486e-18 -5.97744)
(1.87206e-19 1.47536e-18 -5.91439)
(3.58409e-20 -1.34419e-18 -5.89046)
(0 -0 3.46869)
(8.33792e-18 -0 2.52691)
(-8.16254e-18 -1.54838e-17 1.15119)
(3.74203e-19 1.11847e-17 -0.438233)
(-5.23624e-19 1.98136e-17 -1.67205)
(2.28859e-19 -1.55146e-17 -2.65589)
(3.25259e-17 -0 -3.31655)
(-3.2607e-17 -0 -3.79143)
(1.34294e-18 -0 -4.13605)
(-2.89913e-18 -0 -4.39416)
(-6.80916e-17 6.19612e-17 -4.59189)
(6.95104e-17 -4.68565e-17 -4.74417)
(6.7995e-17 -1.54726e-17 -4.8608)
(-1.3505e-18 -4.6688e-17 -4.94924)
(4.23931e-19 -2.94926e-17 -5.01534)
(-6.96892e-17 1.99984e-16 -5.06363)
(-6.48271e-17 -1.09269e-16 -5.0976)
(7.07107e-17 -7.58233e-17 -5.11998)
(-3.27425e-18 6.16568e-17 -5.13295)
(7.03788e-17 -1.21763e-16 -5.13822)
(-7.0197e-17 9.46994e-17 -5.13714)
(-8.20322e-18 1.49059e-16 -5.1307)
(-2.73955e-19 -1.26683e-18 -5.11959)
(1.46785e-17 -9.47062e-17 -5.10421)
(1.26767e-16 -1.46977e-16 -5.08468)
(-1.33509e-16 1.20954e-16 -5.06092)
(-1.14112e-16 -1.1945e-16 -5.03266)
(1.66175e-18 -2.39597e-17 -4.99954)
(2.26429e-16 2.39443e-16 -4.96114)
(-1.34863e-16 1.42113e-16 -4.91711)
(3.80205e-17 -3.34243e-16 -4.86717)
(-1.26233e-16 -4.45692e-17 -4.81067)
(1.08551e-16 1.48748e-16 -4.7469)
(1.15435e-16 -1.98738e-17 -4.66445)
(-1.47891e-16 2.46521e-16 -4.58269)
(2.81329e-16 -1.87146e-16 -4.52668)
(-9.6579e-16 -7.44935e-16 -4.49885)
(-9.26383e-16 -8.82057e-16 -4.52599)
(1.07856e-15 6.29305e-16 -4.62447)
(4.25955e-16 1.03034e-15 -4.80084)
(-1.38998e-16 1.34636e-15 -5.04516)
(1.02168e-15 -3.90696e-16 -5.30871)
(4.58614e-16 -2.62757e-15 -5.60031)
(-1.02981e-15 4.3523e-16 -5.9304)
(4.92744e-16 1.45731e-15 -6.29523)
(-1.09359e-15 -4.11747e-16 -6.69806)
(-8.16445e-16 2.55269e-17 -7.12609)
(-4.84622e-16 -2.71082e-16 -7.59268)
(-7.68193e-16 -1.48947e-16 -8.08799)
(-4.78302e-16 -1.27596e-15 -8.55065)
(1.30931e-15 2.85754e-16 -9.03587)
(-6.52597e-16 7.49627e-16 -9.53355)
(-2.14365e-17 8.14499e-16 -10.0084)
(-8.28522e-16 -1.26559e-16 -10.4622)
(-7.87815e-17 9.20779e-17 -10.8979)
(-9.88468e-18 -2.23603e-16 -11.3058)
(-5.15742e-16 -3.13521e-16 -11.6814)
(-1.41401e-16 -1.50431e-16 -12.025)
(8.67859e-18 -5.66679e-17 -12.307)
(8.00077e-17 -5.4856e-17 -12.5466)
(-1.5258e-16 4.45683e-17 -12.7013)
(3.17864e-16 -1.84802e-16 -12.7646)
(-4.513e-16 -6.31374e-17 -12.7266)
(1.71215e-16 8.40344e-16 -12.5649)
(-7.22587e-16 1.04014e-15 -12.2999)
(7.86205e-16 -5.61239e-16 -11.9054)
(-2.10594e-16 -2.57968e-16 -11.4186)
(1.49464e-16 -1.59917e-16 -10.8354)
(-5.47601e-16 6.44606e-16 -10.1871)
(4.25995e-16 2.40875e-17 -9.485)
(2.59457e-16 -1.47353e-15 -8.74821)
(5.59723e-16 2.21346e-16 -8.01282)
(-5.56418e-16 7.0592e-16 -7.27946)
(-8.84533e-17 -1.18216e-15 -6.57561)
(-9.74854e-16 1.48102e-15 -5.91307)
(4.32459e-17 -7.61743e-16 -5.29652)
(7.4113e-16 -7.73684e-16 -4.73617)
(3.75042e-17 -1.07685e-16 -4.23476)
(1.5432e-15 -1.90519e-15 -3.78876)
(1.41498e-15 -3.37159e-16 -3.39705)
(-2.94831e-15 3.54558e-15 -3.05536)
(-6.91494e-16 -1.94313e-16 -2.75755)
(7.28463e-16 -1.3905e-15 -2.49861)
(-7.38809e-16 1.25983e-15 -2.27331)
(3.11879e-18 -7.79586e-16 -2.0776)
(-1.30229e-15 2.28399e-15 -1.90969)
(1.26843e-15 2.43545e-15 -1.76661)
(-2.7307e-16 -3.3507e-16 -1.64769)
(-5.4488e-16 -1.87235e-15 -1.55445)
(-1.72242e-15 2.09737e-16 -1.48375)
(-2.72458e-16 1.48257e-16 -1.43511)
(1.66507e-17 1.12743e-17 -1.40935)
(2.78722e-16 -1.15679e-16 -1.40138)
(-3.9495e-17 -3.22989e-16 -1.41034)
(-4.6001e-16 2.05807e-16 -1.43446)
(-2.34457e-17 2.85929e-16 -1.46937)
(2.36516e-16 -1.21728e-16 -1.51501)
(-7.24442e-16 -4.54943e-17 -1.56531)
(-3.96868e-16 1.17521e-16 -1.62099)
(-2.29794e-17 2.19236e-16 -1.67844)
(1.10549e-16 -1.98346e-17 -1.73935)
(-1.06695e-16 7.87753e-17 -1.79843)
(6.68868e-17 -1.90303e-17 -1.85781)
(-6.27482e-19 -1.57573e-17 -1.91552)
(1.06819e-18 1.13351e-16 -1.97314)
(-2.22016e-16 1.31999e-16 -2.03183)
(1.62969e-18 1.31111e-16 -2.09058)
(-2.14305e-16 -7.0848e-16 -2.152)
(-2.0783e-16 -8.51542e-17 -2.21588)
(4.17155e-16 7.00173e-16 -2.28487)
(-1.45556e-17 -2.61979e-16 -2.3586)
(6.76619e-18 -1.36685e-17 -2.43938)
(2.21577e-18 2.70185e-16 -2.52905)
(-2.30442e-16 -8.90101e-17 -2.62681)
(4.24143e-16 -5.938e-17 -2.73858)
(1.04154e-17 -2.2472e-16 -2.86183)
(-6.71732e-16 -1.30854e-15 -3.0024)
(3.61628e-16 8.33612e-16 -3.1626)
(9.07613e-16 2.20104e-15 -3.34236)
(-5.89409e-16 -1.39738e-15 -3.54725)
(1.00075e-15 -6.96326e-16 -3.77877)
(-7.60717e-16 4.37382e-16 -4.03614)
(-4.88988e-16 1.0832e-15 -4.32356)
(-2.61807e-16 1.64964e-16 -4.6424)
(-6.552e-16 -8.88299e-16 -4.98875)
(1.59493e-15 6.03866e-16 -5.36433)
(-1.24486e-16 2.55363e-17 -5.76607)
(4.5903e-16 8.42018e-16 -6.19026)
(-4.94321e-16 6.57519e-16 -6.63454)
(-8.20597e-16 -2.64541e-16 -7.09381)
(-4.45696e-16 -4.3073e-16 -7.55689)
(-5.51821e-17 6.23467e-17 -8.0289)
(-7.32561e-16 6.00768e-17 -8.50006)
(-5.9322e-16 -7.97555e-16 -8.95161)
(-6.43486e-17 3.08971e-16 -9.39984)
(-1.23949e-16 -1.66611e-16 -9.82823)
(-5.00307e-16 -6.93192e-17 -10.2191)
(-2.01333e-16 2.12787e-16 -10.5998)
(1.57971e-16 -3.21845e-17 -10.9362)
(8.8883e-18 2.76256e-17 -11.245)
(3.56137e-16 -1.1668e-15 -11.5187)
(-1.90958e-16 -4.08625e-16 -11.7573)
(-5.53857e-17 3.36596e-17 -11.9636)
(2.25092e-16 2.57996e-16 -12.136)
(3.02963e-16 1.32623e-16 -12.2712)
(1.08956e-16 -4.5539e-17 -12.3714)
(-1.06349e-16 2.30226e-17 -12.4213)
(6.78262e-17 1.03674e-16 -12.4239)
(-5.50699e-17 -5.94996e-17 -12.3498)
(2.6317e-16 7.31671e-17 -12.191)
(2.73556e-17 -1.91683e-16 -11.9366)
(-2.58465e-16 2.91636e-16 -11.5684)
(-1.69502e-17 2.08724e-16 -11.0897)
(6.50625e-17 -1.65527e-16 -10.4931)
(-1.64083e-16 3.50589e-16 -9.75399)
(1.03913e-16 -2.87109e-16 -8.97622)
(-2.82292e-16 -1.08007e-16 -8.16128)
(2.96811e-16 6.34208e-17 -7.28507)
(-2.58131e-17 -1.77624e-16 -6.48799)
(-3.11458e-17 -1.30112e-16 -5.78655)
(-1.51321e-16 2.15711e-16 -5.30269)
(1.34743e-16 -4.29403e-17 -5.06932)
(2.69487e-17 -5.99834e-17 -5.11694)
(1.17158e-16 -5.61096e-17 -5.32923)
(-2.25204e-17 5.41766e-17 -5.621)
(3.19107e-17 1.67867e-17 -5.93047)
(-7.82012e-17 -1.85344e-19 -6.21346)
(-5.23039e-18 -5.98142e-17 -6.41959)
(5.34349e-18 -4.77063e-18 -6.51886)
(2.56791e-17 3.60533e-17 -6.52127)
(-4.1467e-19 2.3366e-17 -6.45867)
(-8.06749e-18 -4.1142e-17 -6.36382)
(-5.59197e-18 -7.98481e-18 -6.26239)
(5.44375e-18 4.74501e-17 -6.17099)
(4.54717e-18 -1.1502e-17 -6.09877)
(-4.23459e-17 9.06566e-19 -6.04916)
(3.52882e-17 -1.56818e-17 -6.02156)
(1.7249e-17 -1.62308e-17 -6.01278)
(-1.23706e-17 4.4287e-17 -6.01836)
(-4.43714e-18 -1.25388e-17 -6.03353)
(9.14642e-18 4.19867e-18 -6.05381)
(-6.7294e-18 -2.9895e-18 -6.07532)
(6.87154e-19 -9.02967e-18 -6.09512)
(5.5947e-18 -8.28761e-18 -6.11088)
(-1.1736e-17 2.06474e-17 -6.12084)
(8.03896e-19 -2.66625e-18 -6.12379)
(-1.71671e-18 -5.04237e-18 -6.11905)
(-1.33421e-18 4.39241e-18 -6.1065)
(3.38479e-18 1.08916e-17 -6.08658)
(-4.15365e-18 -1.83022e-17 -6.06036)
(-3.83577e-18 -1.72611e-18 -6.02947)
(3.88901e-18 -5.05464e-18 -5.99566)
(-1.2158e-18 7.2938e-18 -5.96023)
(-1.27466e-18 -7.29378e-18 -5.92433)
(7.01141e-20 8.20188e-18 -5.88878)
(7.61004e-19 2.51053e-18 -5.85388)
(-6.86984e-19 2.9356e-18 -5.81962)
(-7.23442e-20 -2.13092e-18 -5.78616)
(2.81246e-19 -5.22623e-18 -5.7528)
(-1.02594e-19 1.85655e-19 -5.7684)
(0 -0 2.33754)
(0 -0 2.06004)
(1.38385e-19 -1.56354e-17 1.54329)
(5.23744e-19 1.12698e-17 0.844514)
(-7.70876e-19 1.99523e-17 0.0065895)
(7.74465e-19 -4.63492e-17 -0.714335)
(3.26597e-17 2.20416e-17 -1.36674)
(-6.70111e-17 7.0195e-17 -1.94844)
(3.41531e-17 -8.34519e-17 -2.43383)
(1.01253e-18 -1.72892e-17 -2.84704)
(-2.32851e-18 6.99474e-17 -3.19994)
(6.68134e-17 -3.06803e-17 -3.49804)
(-1.27241e-16 -6.07257e-17 -3.7483)
(1.2992e-16 -1.6366e-17 -3.95783)
(-1.39424e-16 1.82048e-16 -4.13322)
(6.74821e-17 -2.79903e-17 -4.28011)
(9.00777e-18 -1.37541e-16 -4.40326)
(-5.85001e-18 6.05747e-17 -4.50668)
(3.35028e-18 -5.9768e-17 -4.59378)
(5.88755e-17 4.40619e-17 -4.66751)
(-7.19503e-17 7.55727e-17 -4.73031)
(9.7945e-18 -5.98666e-17 -4.78422)
(-1.30457e-16 1.18031e-16 -4.83089)
(1.44402e-16 -2.05498e-16 -4.87158)
(-4.40341e-18 -6.05651e-17 -4.90723)
(-2.75743e-17 3.8279e-16 -4.93844)
(7.62373e-18 -8.9189e-17 -4.96553)
(2.16481e-17 -3.50404e-16 -4.98865)
(-1.26242e-16 6.00725e-17 -5.00773)
(9.49017e-17 3.76819e-16 -5.02263)