/*--------------------------------*- C++ -*----------------------------------*\
| =========                 |                                                 |
| \\      /  F ield         | OpenFOAM: The Open Source CFD Toolbox           |
|  \\    /   O peration     | Version:  2506                                  |
|   \\  /    A nd           | Website:  www.openfoam.com                      |
|    \\/     M anipulation  |                                                 |
\*---------------------------------------------------------------------------*/
FoamFile
{
    version     2.0;
    format      ascii;
    arch        "LSB;label=32;scalar=64";
    class       volVectorField;
    location    "5";
    object      U;
}
// * * * * * * * * * * * * * * * * * * * * * * * * * * * * * * * * * * * * * //

dimensions      [0 1 -1 0 0 0 0];

internalField   nonuniform List<vector> 
4000
(
(0.00816188 0.000799226 0)
(0.00705275 0.000969047 -4.49634e-22)
(0.00555841 0.0005852 4.66463e-22)
(0.00426856 0.000296924 8.92309e-22)
(0.00346976 0.000157863 -1.80406e-21)
(0.00297466 8.776e-05 9.06111e-22)
(0.00263922 5.08353e-05 0)
(0.00240357 3.16088e-05 0)
(0.00223411 2.13883e-05 0)
(0.00210774 1.57115e-05 1.78524e-21)
(0.00200987 1.23462e-05 -1.78925e-21)
(0.00193163 1.02579e-05 3.55297e-21)
(0.00186727 8.94085e-06 -3.55801e-21)
(0.00181286 8.09462e-06 0)
(0.00176565 7.55677e-06 0)
(0.00172361 7.23926e-06 0)
(0.00168523 7.07966e-06 3.50338e-21)
(0.00164934 7.03538e-06 -3.50588e-21)
(0.00161499 7.08267e-06 0)
(0.00158143 7.2044e-06 0)
(0.00154799 7.38804e-06 0)
(0.0015141 7.62624e-06 0)
(0.00147924 7.9145e-06 0)
(0.0014429 8.24982e-06 6.8935e-21)
(0.00140461 8.63094e-06 -1.37813e-20)
(0.00136387 9.05901e-06 6.88806e-21)
(0.00132018 9.53883e-06 0)
(0.00127299 1.00821e-05 0)
(0.00122168 1.07143e-05 0)
(0.00116546 1.14987e-05 0)
(0.00110319 1.26188e-05 -6.86767e-21)
(0.00103344 1.45001e-05 6.87648e-21)
(0.000955417 1.68839e-05 0)
(0.000842398 2.46672e-05 6.04362e-21)
(0.000714661 5.18858e-05 6.95373e-21)
(0.000652259 0.00010434 -3.48662e-20)
(0.00066526 0.000176483 -2.81341e-20)
(0.000713557 0.00026108 7.08527e-21)
(0.00078526 0.000360685 -2.84858e-20)
(0.00088554 0.000482775 -6.42282e-20)
(0.0010549 0.000636925 7.15995e-21)
(0.00130406 0.000812336 5.65411e-20)
(0.00157101 0.000974258 -5.56277e-20)
(0.00182369 0.00111178 0)
(0.00206581 0.00122764 0)
(0.00229475 0.00132225 -3.17528e-21)
(0.00252197 0.00139753 -4.63999e-20)
(0.0027373 0.00144584 -4.51917e-20)
(0.00293492 0.00146766 -2.62301e-20)
(0.00312555 0.00146256 -2.20501e-20)
(0.00329281 0.00142541 2.08235e-20)
(0.00344258 0.00135889 0)
(0.0035602 0.00125678 -2.28359e-21)
(0.00364532 0.00112484 3.77715e-20)
(0.00368861 0.000959032 0)
(0.0036774 0.000771107 -7.91384e-21)
(0.00362129 0.000568605 -1.84229e-21)
(0.00349729 0.000359192 -6.412e-24)
(0.00333877 0.000158645 -8.43439e-23)
(0.0031191 -3.34432e-05 -8.766e-22)
(0.00286121 -0.000195997 1.5696e-21)
(0.00259212 -0.000328148 0)
(0.00230662 -0.000426719 0)
(0.002033 -0.000492582 3.07027e-21)
(0.00176704 -0.000529158 2.15353e-20)
(0.00152542 -0.000541418 3.10611e-21)
(0.00130632 -0.000534239 -3.11906e-21)
(0.00111182 -0.000513373 3.17876e-21)
(0.000943906 -0.000483012 9.60608e-21)
(0.00079608 -0.000446654 -2.26412e-20)
(0.000671524 -0.000407786 -3.25618e-21)
(0.000562526 -0.000367302 -5.61959e-23)
(0.000468502 -0.000327166 0)
(0.00038938 -0.000288392 0)
(0.000319718 -0.00025115 0)
(0.000259872 -0.0002161 -1.76178e-21)
(0.000208672 -0.000183509 -2.65253e-20)
(0.000163553 -0.000153195 0)
(0.000124128 -0.000125263 -8.0637e-23)
(8.99601e-05 -9.97522e-05 1.82275e-21)
(5.97545e-05 -7.64953e-05 -2.91802e-20)
(3.2941e-05 -5.53874e-05 2.65413e-20)
(9.1311e-06 -3.63328e-05 -8.27445e-24)
(-1.22617e-05 -1.92345e-05 3.00554e-20)
(-3.15085e-05 -4.03836e-06 2.94463e-22)
(-4.88357e-05 9.33513e-06 -2.9464e-20)
(-6.45857e-05 2.09089e-05 -2.99434e-20)
(-7.881e-05 3.06372e-05 3.03374e-20)
(-9.13527e-05 3.85755e-05 -4.62104e-22)
(-0.000102405 4.46669e-05 -2.96213e-20)
(-0.000112064 4.89147e-05 0)
(-0.00011995 5.14688e-05 -3.03816e-20)
(-0.0001262 5.22647e-05 -2.84435e-20)
(-0.000130971 5.14345e-05 2.92105e-20)
(-0.000133603 4.91204e-05 -1.63639e-20)
(-0.000134971 4.52204e-05 1.80666e-21)
(-0.000134321 4.02627e-05 1.44108e-20)
(-0.000132243 3.41045e-05 1.79815e-21)
(-0.000128115 2.73306e-05 1.25116e-20)
(-0.0001226 2.01621e-05 8.90992e-21)
(-0.000114922 1.34386e-05 -3.55901e-21)
(-0.000105172 7.14229e-06 8.88784e-21)
(-9.29977e-05 1.93107e-06 -8.89036e-22)
(-7.81846e-05 -1.83644e-06 -8.9178e-22)
(-6.03588e-05 -3.86711e-06 -3.59188e-21)
(-3.93195e-05 -3.33654e-06 0)
(-1.45072e-05 -9.78129e-08 0)
(1.44738e-05 6.69432e-06 -2.89887e-20)
(4.78695e-05 1.73604e-05 -9.28916e-22)
(8.62409e-05 3.25416e-05 1.54759e-20)
(0.000129946 5.26412e-05 1.51521e-20)
(0.000179063 7.81583e-05 4.78402e-22)
(0.000234475 0.000109346 -1.59175e-20)
(0.000295161 0.000146522 -1.48453e-23)
(0.000362252 0.00018976 0)
(0.00043605 0.00023921 3.14857e-20)
(0.000514395 0.000294174 -9.85837e-22)
(0.000598994 0.000354843 -2.95831e-20)
(0.000688791 0.000420389 -9.91498e-22)
(0.00078204 0.000489913 -3.15612e-20)
(0.000879931 0.000563139 -1.83949e-22)
(0.000981617 0.00063883 3.11419e-20)
(0.00108484 0.000715577 1.908e-21)
(0.00119029 0.000792848 -3.41512e-20)
(0.00129801 0.000869512 1.88335e-21)
(0.00140645 0.000944131 2.91798e-20)
(0.00151592 0.00101584 3.49703e-21)
(0.00162595 0.00108345 -3.50695e-21)
(0.00173613 0.00114609 2.66482e-20)
(0.00184931 0.00120351 -2.20119e-20)
(0.00196376 0.00125358 -3.13333e-21)
(0.00207654 0.00129526 -4.31037e-20)
(0.00219551 0.00132964 -2.82247e-21)
(0.00231746 0.00135344 -2.04363e-20)
(0.00243613 0.00136534 5.14508e-22)
(0.00256486 0.00136682 0)
(0.00269245 0.00135185 0)
(0.00281518 0.00132151 -2.31955e-22)
(0.00294053 0.00127309 0)
(0.00305518 0.00120394 -1.17539e-21)
(0.0031595 0.00111253 -2.90561e-21)
(0.00324373 0.000997181 -7.30196e-22)
(0.00329661 0.000858777 -1.13239e-21)
(0.00331874 0.000700114 -5.23536e-22)
(0.00328557 0.000522203 -6.09619e-22)
(0.00321122 0.000341314 1.5189e-22)
(0.00307665 0.000156367 0)
(0.00288373 -9.32807e-06 0)
(0.00266075 -0.000156564 0)
(0.00239482 -0.000274024 3.04629e-22)
(0.00212085 -0.00035946 -3.05702e-22)
(0.00183229 -0.000412395 -1.23716e-21)
(0.00155335 -0.000433661 -1.10906e-21)
(0.00128938 -0.000428869 0)
(0.0010479 -0.000403734 6.99505e-22)
(0.000831457 -0.000363396 0)
(0.000640414 -0.00031369 1.59526e-23)
(0.000476858 -0.00025883 1.29074e-22)
(0.000334376 -0.000201444 -1.39109e-22)
(0.000212629 -0.000138447 2.89178e-21)
(0.000158874 -0.000100237 -9.94566e-22)
(0.000170588 -8.11974e-05 -1.20796e-21)
(0.000181918 -6.94692e-05 0)
(0.0002047 -5.91156e-05 0)
(0.000247668 -4.93658e-05 0)
(0.000316319 -3.71841e-05 0)
(0.000425841 -2.67114e-05 0)
(0.000566984 -2.0286e-05 5.27688e-22)
(0.000699754 -1.79013e-05 7.97294e-24)
(0.000817028 -1.67778e-05 1.63778e-24)
(0.000923533 -1.56026e-05 -5.35884e-22)
(0.00101955 -1.42591e-05 0)
(0.00110482 -1.28226e-05 5.06692e-22)
(0.00117958 -1.13587e-05 -5.05351e-22)
(0.0012443 -9.91054e-06 1.48671e-23)
(0.0012996 -8.51285e-06 0)
(0.00134618 -7.19459e-06 0)
(0.0013848 -5.97633e-06 -4.02266e-22)
(0.00141625 -4.87009e-06 4.01504e-22)
(0.00144132 -3.88073e-06 0)
(0.00146077 -3.00779e-06 0)
(0.0014753 -2.24737e-06 -1.44673e-22)
(0.00148559 -1.59358e-06 1.09093e-23)
(0.00149225 -1.03544e-06 1.43281e-22)
(0.00149581 -5.56227e-07 0)
(0.00149677 -1.6218e-07 0)
(0.00149555 1.62814e-07 0)
(0.00149253 4.19441e-07 0)
(0.00148798 6.14532e-07 5.48568e-24)
(0.00148218 8.13692e-07 0)
(0.0014754 9.82563e-07 0)
(0.00146779 1.1276e-06 0)
(0.00145953 1.25865e-06 2.4493e-23)
(0.00145072 1.38555e-06 -2.44616e-23)
(0.00144147 1.52268e-06 0)
(0.00143181 1.69791e-06 1.85756e-24)
(0.00142174 1.94804e-06 4.61218e-24)
(0.00141094 2.31015e-06 -3.18469e-24)
(0.00139735 3.37509e-06 -1.41988e-24)
(0.00137959 7.95839e-06 0)
(0.0101626 0.00148333 0)
(0.0105613 0.00234276 0)
(0.0101511 0.00199844 0)
(0.00927849 0.00150309 8.69636e-22)
(0.00836691 0.00106533 -1.7667e-21)
(0.00760932 0.000737438 8.949e-22)
(0.00699754 0.000514816 0)
(0.00650835 0.000369045 1.79331e-21)
(0.00612094 0.000273113 -1.8112e-21)
(0.00581312 0.000208832 1.80484e-21)
(0.00556517 0.000164578 -1.81603e-21)
(0.00536212 0.000133435 -3.61597e-21)
(0.00519278 0.000111197 3.63078e-21)
(0.00504879 9.51134e-05 3.61266e-21)
(0.00492386 8.34458e-05 -1.42453e-23)
(0.00481318 7.50809e-05 -7.22243e-21)
(0.00471295 6.92355e-05 3.61246e-21)
(0.0046202 6.53566e-05 0)
(0.00453249 6.30765e-05 0)
(0.0044478 6.21348e-05 0)
(0.0043644 6.23485e-05 0)
(0.00428075 6.35998e-05 0)
(0.00419546 6.58171e-05 0)
(0.00410719 6.89625e-05 0)
(0.00401466 7.30273e-05 0)
(0.00391656 7.80329e-05 0)
(0.00381155 8.40354e-05 0)
(0.0036982 9.11417e-05 0)
(0.00357491 9.9547e-05 0)
(0.0034398 0.000109624 0)
(0.00329055 0.000122135 -7.17991e-21)
(0.00312418 0.000138706 4.02913e-25)
(0.00294024 0.000162341 1.44539e-20)
(0.00270544 0.000199003 -6.34789e-21)
(0.00245345 0.000265237 -7.31235e-21)
(0.00231326 0.000380901 2.21401e-20)
(0.00231985 0.000553359 -2.98168e-20)
(0.00242172 0.000774229 -7.51935e-21)
(0.00259786 0.00104007 7.5791e-20)
(0.0028566 0.00135265 2.30599e-20)
(0.0032475 0.00171339 0)
(0.00376063 0.0020979 7.40964e-21)
(0.00430606 0.00245968 4.36334e-20)
(0.00484173 0.00277835 7.23586e-21)
(0.00536567 0.00304975 5.52826e-20)
(0.00587408 0.00327188 -5.35461e-20)
(0.00637705 0.00344406 7.89766e-22)
(0.00685964 0.00355537 0)
(0.0073162 0.00360477 -2.41401e-20)
(0.00775316 0.00358832 0)
(0.00815054 0.00350072 -2.40683e-22)
(0.00851019 0.00334431 0)
(0.00880846 0.00311009 -1.95498e-20)
(0.00904237 0.00280938 -1.85934e-20)
(0.00919277 0.00243888 0)
(0.00924598 0.00201732 -5.70172e-23)
(0.0092018 0.00155848 7.86923e-21)
(0.00902998 0.00107678 1.78721e-21)
(0.00876716 0.000601709 3.55664e-21)
(0.00837668 0.000139113 -8.98562e-22)
(0.00789381 -0.00027746 0)
(0.00734793 -0.00063717 6.80441e-21)
(0.00674836 -0.000929287 -3.41754e-21)
(0.0061374 -0.00115034 -6.6838e-21)
(0.00551865 -0.00130244 -2.01493e-20)
(0.00492782 -0.00139276 -3.38014e-21)
(0.00436752 -0.00142859 1.71573e-20)
(0.00385193 -0.00142211 -3.4646e-21)
(0.00338536 -0.00138206 0)
(0.00296431 -0.00131792 3.63184e-21)
(0.00259368 -0.00123843 -3.63204e-21)
(0.00226312 -0.00114755 -9.07542e-23)
(0.00197071 -0.00105192 0)
(0.00171568 -0.000954461 -3.05586e-20)
(0.00148917 -0.000857206 -3.0934e-20)
(0.00128964 -0.000762835 1.97279e-21)
(0.00111477 -0.000672341 -1.96469e-21)
(0.00095932 -0.000586182 2.00825e-21)
(0.000821261 -0.000505214 -3.22353e-20)
(0.000699292 -0.000429726 3.02894e-20)
(0.000590631 -0.000359628 -3.24651e-20)
(0.000493454 -0.000294986 -3.37652e-20)
(0.000406576 -0.000235703 2.04631e-21)
(0.000328497 -0.000181675 -3.37633e-20)
(0.000258319 -0.000132924 3.26356e-20)
(0.000195228 -8.92994e-05 -3.25015e-20)
(0.000138073 -5.0803e-05 3.27217e-20)
(8.6726e-05 -1.77438e-05 -3.27583e-20)
(4.12876e-05 1.00118e-05 -1.02184e-21)
(8.34256e-07 3.24763e-05 1.0116e-21)
(-3.43763e-05 4.93784e-05 0)
(-6.37998e-05 6.10398e-05 0)
(-8.81908e-05 6.76364e-05 1.59039e-20)
(-0.000107166 6.92437e-05 -1.78034e-20)
(-0.000120305 6.66213e-05 1.57081e-20)
(-0.000128383 5.96707e-05 3.89354e-21)
(-0.000130322 4.96055e-05 -2.1095e-23)
(-0.00012681 3.66986e-05 8.17491e-24)
(-0.00011656 2.21318e-05 -3.44235e-20)
(-0.000100071 6.31284e-06 -5.7189e-21)
(-7.62737e-05 -8.82773e-06 7.59381e-21)
(-4.5536e-05 -2.2758e-05 -7.59119e-21)
(-6.45363e-06 -3.38014e-05 0)
(4.0706e-05 -4.06932e-05 -9.53814e-22)
(9.75387e-05 -4.23792e-05 9.54071e-22)
(0.000164162 -3.67701e-05 0)
(0.000241594 -2.30697e-05 0)
(0.000330711 8.11842e-07 1.56073e-20)
(0.000431586 3.59393e-05 -1.5751e-20)
(0.00054521 8.38112e-05 1.63961e-20)
(0.000671784 0.000145541 -3.21035e-20)
(0.000811243 0.000222158 6.72756e-25)
(0.000964433 0.000314298 -5.10354e-22)
(0.00112953 0.000422509 -1.64696e-20)
(0.00130788 0.000546591 0)
(0.00149893 0.000686584 0)
(0.00169961 0.000841177 0)
(0.00191161 0.00100957 3.45426e-20)
(0.00213276 0.00119002 3.21512e-20)
(0.00236077 0.0013803 0)
(0.00259673 0.00157853 -3.7293e-20)
(0.00283891 0.00178192 6.14046e-21)
(0.00308462 0.00198735 -4.03205e-21)
(0.0033348 0.0021924 2.00598e-21)
(0.00358916 0.00239409 -3.84212e-21)
(0.00384612 0.00258923 3.02043e-20)
(0.00410613 0.00277514 -2.54807e-20)
(0.00436884 0.00294895 3.17983e-20)
(0.0046346 0.0031082 -1.50421e-22)
(0.00490686 0.00325093 2.36016e-20)
(0.00518295 0.00337337 0)
(0.00546104 0.00347332 2.44214e-20)
(0.00575047 0.00355 -2.70207e-21)
(0.0060454 0.00359812 -1.77439e-20)
(0.00634063 0.00361526 1.98057e-20)
(0.00664977 0.00360072 -2.07877e-21)
(0.00695628 0.00354544 2.08655e-21)
(0.00725697 0.00345046 -2.03088e-21)
(0.00755329 0.00330905 1.63144e-21)
(0.00782871 0.00311894 -1.1623e-21)
(0.00807696 0.00287705 5.53741e-21)
(0.00828134 0.00258272 -3.97329e-21)
(0.00842296 0.00223851 3.26744e-21)
(0.00849473 0.00185245 0)
(0.00846371 0.00142943 3.35494e-22)
(0.00834512 0.000995831 1.82554e-24)
(0.00810353 0.000556614 1.71933e-23)
(0.00774766 0.000146079 0)
(0.00730368 -0.000225537 2.05246e-22)
(0.00676403 -0.000539308 -5.08346e-22)
(0.00617754 -0.000785818 0)
(0.00553911 -0.000960276 1.1048e-21)
(0.00489432 -0.00106305 2.51667e-22)
(0.00425295 -0.00109963 -2.53513e-22)
(0.00364215 -0.00108137 0)
(0.00306742 -0.00101689 -3.98128e-22)
(0.00254043 -0.000920133 1.56769e-22)
(0.00206658 -0.000800418 1.77043e-22)
(0.00164804 -0.000669644 0)
(0.00127697 -0.000526325 -1.53493e-21)
(0.00106203 -0.000435219 -1.38802e-21)
(0.00101355 -0.000376243 2.97794e-21)
(0.00101411 -0.000332317 -4.1435e-22)
(0.00106053 -0.000299547 4.09542e-22)
(0.00116867 -0.000275145 4.98684e-22)
(0.00134544 -0.00025152 5.48031e-22)
(0.00160858 -0.00023333 -4.58293e-22)
(0.00192709 -0.000215235 -3.46702e-23)
(0.00223239 -0.000196475 0)
(0.00250978 -0.000178712 3.51631e-23)
(0.00276403 -0.000161444 0)
(0.00299528 -0.00014405 -3.42101e-23)
(0.00320292 -0.000126746 -5.3001e-22)
(0.0033872 -0.00010994 5.5943e-22)
(0.00354896 -9.39272e-05 -4.66637e-23)
(0.00368934 -7.89053e-05 4.66261e-22)
(0.00380968 -6.50121e-05 -8.78579e-22)
(0.00391147 -5.23315e-05 8.58589e-22)
(0.0039963 -4.08951e-05 -4.41608e-22)
(0.00406575 -3.06905e-05 0)
(0.00412141 -2.16727e-05 1.94446e-22)
(0.00416479 -1.37758e-05 -1.82291e-22)
(0.00419733 -6.92148e-06 -1.92116e-23)
(0.00422036 -1.02246e-06 -1.37732e-22)
(0.00423512 4.01581e-06 1.20989e-22)
(0.00424272 8.28859e-06 1.16345e-22)
(0.00424416 1.18875e-05 -1.29972e-22)
(0.00424032 1.48885e-05 1.08937e-22)
(0.00423201 1.73652e-05 -1.88657e-22)
(0.00421993 1.94397e-05 1.15161e-22)
(0.00420467 2.116e-05 -3.87065e-23)
(0.00418681 2.25579e-05 -8.02806e-24)
(0.0041668 2.36844e-05 0)
(0.0041451 2.45959e-05 1.56575e-23)
(0.00412205 2.53629e-05 -2.15481e-23)
(0.00409798 2.60973e-05 9.80714e-25)
(0.00407315 2.69988e-05 -6.82748e-24)
(0.00404757 2.84636e-05 0)
(0.00401969 3.14575e-05 0)
(0.00398788 3.8782e-05 -2.72e-25)
(0.0101548 0.000930803 0)
(0.010718 0.00187942 -4.35423e-22)
(0.0111799 0.00208095 4.31646e-22)
(0.011118 0.00193209 8.35588e-22)
(0.010834 0.00165193 -8.43735e-22)
(0.010409 0.00133957 0)
(0.00994807 0.0010599 0)
(0.00950672 0.00083213 0)
(0.00910908 0.000656457 -1.69172e-21)
(0.00876232 0.000524229 3.40474e-21)
(0.0084639 0.000424951 1.69297e-21)
(0.0082078 0.000350637 -3.42573e-21)
(0.00798694 0.000295036 -3.41263e-21)
(0.00779467 0.00025327 3.42854e-21)
(0.00762524 0.000221987 0)
(0.00747373 0.000198848 -3.41242e-21)
(0.0073359 0.000182089 6.83322e-21)
(0.00720822 0.000170415 -3.41974e-21)
(0.00708769 0.000162937 0)
(0.0069717 0.000158995 0)
(0.00685796 0.000158121 0)
(0.00674438 0.000160006 0)
(0.00662904 0.000164458 0)
(0.00651008 0.000171372 -6.78849e-21)
(0.00638568 0.000180718 6.8037e-21)
(0.00625398 0.000192545 0)
(0.00611308 0.00020698 0)
(0.00596092 0.000224256 0)
(0.0057953 0.000244761 0)
(0.00561368 0.000269156 0)
(0.00541319 0.000298613 -6.85008e-21)
(0.00519031 0.000335315 6.875e-21)
(0.00494595 0.00038324 0)
(0.00464956 0.000447154 4.32789e-22)
(0.00433637 0.000542947 0)
(0.00414477 0.000697746 -1.41779e-20)
(0.00412961 0.000926902 2.8679e-20)
(0.00425173 0.00122543 0)
(0.00449025 0.00158564 -5.77451e-20)
(0.00484908 0.00200064 1.97315e-22)
(0.00536434 0.00246046 -7.08114e-21)
(0.00600621 0.00293376 7.06152e-21)
(0.0066867 0.00338054 -5.50968e-20)
(0.00736652 0.00378115 0)
(0.00803854 0.00412662 -5.85131e-20)
(0.00869772 0.00441164 5.37327e-20)
(0.0093495 0.00463186 5.16947e-20)
(0.00997914 0.00477653 0)
(0.0105821 0.00484268 2.21558e-20)
(0.0111599 0.00482418 0)
(0.0116945 0.00471759 -4.05665e-20)
(0.0121836 0.00452295 0)
(0.0126048 0.00423262 1.6104e-20)
(0.0129536 0.00385874 1.97827e-20)
(0.013208 0.00340071 1.67201e-20)
(0.0133546 0.00287489 7.82332e-21)
(0.0133867 0.00229434 7.59159e-21)
(0.0132756 0.00167416 3.54192e-21)
(0.0130468 0.00104578 -1.76411e-21)
(0.0126632 0.000419692 -2.51505e-21)
(0.0121549 -0.00016896 0)
(0.0115404 -0.000702345 -6.30751e-21)
(0.0108333 -0.00116361 6.2536e-21)
(0.0100755 -0.00154158 0)
(0.00927567 -0.00183302 2.53625e-20)
(0.00847823 -0.00204036 0)
(0.00769134 -0.00216821 3.25316e-21)
(0.0069411 -0.00222858 -3.27681e-21)
(0.00623699 -0.00223098 0)
(0.00558356 -0.00218775 3.44013e-21)
(0.00499031 -0.00211069 -3.45435e-21)
(0.00444929 -0.0020068 -3.89774e-20)
(0.00396102 -0.00188668 2.52626e-20)
(0.00352498 -0.00175565 7.65012e-23)
(0.0031324 -0.00161833 2.98353e-20)
(0.00278118 -0.0014798 1.90039e-21)
(0.00246842 -0.00134253 -3.24201e-20)
(0.00218765 -0.0012083 0)
(0.00193584 -0.00107923 -3.11596e-20)
(0.00171091 -0.00095637 -6.09874e-20)
(0.0015091 -0.000840187 6.04422e-20)
(0.00132766 -0.000731279 3.28176e-20)
(0.00116466 -0.00062988 -3.29768e-20)
(0.00101786 -0.00053612 3.31884e-20)
(0.000885852 -0.000450309 0)
(0.000767202 -0.000372369 3.22843e-20)
(0.000659896 -0.000302362 1.57967e-22)
(0.000563784 -0.000240968 6.50704e-20)
(0.000478594 -0.000188052 3.00902e-20)
(0.000402579 -0.000143614 3.3018e-20)
(0.000336484 -0.000108158 0)
(0.000280774 -8.11353e-05 0)
(0.0002341 -6.20793e-05 -1.58455e-20)
(0.000197621 -5.09418e-05 0)
(0.000171323 -4.62703e-05 -1.96127e-21)
(0.00015492 -4.78995e-05 1.93888e-21)
(0.000149545 -5.40139e-05 -1.54756e-20)
(0.000154339 -6.40275e-05 1.53438e-20)
(0.000170094 -7.59858e-05 1.33668e-20)
(0.00019713 -8.95449e-05 1.89375e-21)
(0.000236607 -0.000102136 -7.56651e-21)
(0.000288064 -0.00011279 3.77192e-21)
(0.000353614 -0.000119204 -2.82687e-21)
(0.000432469 -0.000119394 9.40645e-22)
(0.000527242 -0.00011175 0)
(0.00063762 -9.33676e-05 7.58775e-21)
(0.000764884 -6.2858e-05 0)
(0.000909938 -1.74632e-05 1.53554e-20)
(0.00107241 4.44472e-05 2.03249e-24)
(0.00125323 0.000124796 -1.50902e-20)
(0.00145217 0.00022507 1.56906e-20)
(0.00166865 0.00034648 -4.92999e-22)
(0.00190319 0.000489701 0)
(0.00215314 0.000655191 1.59184e-20)
(0.00241969 0.000842454 -1.59669e-20)
(0.00270137 0.00105102 0)
(0.00299486 0.00127923 9.97451e-22)
(0.00330132 0.00152534 -3.28183e-20)
(0.00361818 0.00178684 -2.9952e-20)
(0.00394317 0.00206071 2.93987e-20)
(0.00427698 0.00234383 -3.10461e-20)
(0.00461777 0.00263239 -1.91008e-21)
(0.00496327 0.00292238 2.8271e-20)
(0.00531436 0.00321006 3.76556e-21)
(0.00567066 0.00349123 3.23994e-20)
(0.00603111 0.00376179 -6.37936e-20)
(0.00639623 0.00401783 3.13408e-20)
(0.00676598 0.00425544 -2.36627e-20)
(0.00714101 0.00447114 1.87623e-20)
(0.00752402 0.00466162 3.0067e-20)
(0.00791289 0.00482218 1.69861e-20)
(0.00830664 0.00495022 2.81156e-21)
(0.00871215 0.00504306 1.7626e-20)
(0.00912386 0.00509428 2.18065e-20)
(0.00953807 0.00510197 -2.07589e-21)
(0.00996308 0.00506323 2.0808e-21)
(0.0103833 0.00496867 5.32912e-21)
(0.0107959 0.00481952 1.45402e-21)
(0.0111966 0.0046083 -1.25585e-21)
(0.0115704 0.00433399 1.25947e-21)
(0.011907 0.00399461 -3.82508e-21)
(0.0121889 0.0035909 6.45579e-22)
(0.0123966 0.00312731 -1.80238e-22)
(0.0125195 0.00261354 -4.88048e-22)
(0.0125258 0.00205861 -1.01426e-21)
(0.0124252 0.00148535 0)
(0.0121808 0.000902984 -5.00392e-23)
(0.0118003 0.000344612 6.4808e-23)
(0.0112989 -0.000173366 -1.91341e-22)
(0.0106697 -0.000629273 6.91778e-22)
(0.00995726 -0.0010078 1.66795e-22)
(0.00915513 -0.00129941 -1.02979e-21)
(0.00831446 -0.00150032 -9.55031e-22)
(0.00744424 -0.00161171 3.61847e-22)
(0.00658403 -0.00164364 -6.47798e-22)
(0.00574259 -0.00160367 3.75221e-22)
(0.00494356 -0.00150811 -1.32131e-23)
(0.00419749 -0.00136858 -2.36416e-22)
(0.00352517 -0.0012054 8.20036e-23)
(0.00291229 -0.00101761 -7.29601e-22)
(0.00251672 -0.000887324 1.05072e-21)
(0.00236267 -0.000791742 -9.4285e-22)
(0.00231683 -0.000714085 -3.46191e-22)
(0.002357 -0.000653985 -8.36257e-22)
(0.0024996 -0.000610824 0)
(0.00274479 -0.000573792 -9.99829e-22)
(0.00310397 -0.00054565 9.59716e-22)
(0.00352605 -0.000514192 4.77332e-23)
(0.00393146 -0.000476512 7.56912e-24)
(0.00430329 -0.000437153 -3.18181e-23)
(0.00464583 -0.000397326 -5.29754e-22)
(0.00495901 -0.000356919 3.27269e-23)
(0.00524196 -0.000316555 0)
(0.00549491 -0.000277106 -3.0759e-23)
(0.00571886 -0.000239242 2.95386e-23)
(0.00591511 -0.000203429 4.93246e-22)
(0.00608523 -0.000169996 -4.62658e-22)
(0.00623095 -0.000139156 -3.92606e-22)
(0.0063541 -0.000111014 4.15075e-22)
(0.00645659 -8.55778e-05 0)
(0.00654031 -6.27841e-05 -2.10663e-23)
(0.00660707 -4.25211e-05 0)
(0.00665864 -2.46462e-05 -1.22154e-22)
(0.00669669 -8.99309e-06 1.00943e-23)
(0.00672277 4.62386e-06 1.45365e-22)
(0.00673832 1.6398e-05 2.85336e-23)
(0.00674466 2.65207e-05 1.31779e-23)
(0.00674297 3.5175e-05 -1.20009e-23)
(0.00673436 4.25301e-05 0)
(0.00671981 4.87257e-05 9.75614e-24)
(0.00670018 5.39139e-05 3.27116e-23)
(0.0066763 5.81957e-05 -2.50167e-23)
(0.00664891 6.16705e-05 -2.46305e-23)
(0.0066187 6.44424e-05 3.023e-23)
(0.00658631 6.66315e-05 0)
(0.00655232 6.84017e-05 4.67187e-24)
(0.00651732 7.00014e-05 6.61799e-24)
(0.0064818 7.18595e-05 1.52231e-24)
(0.00644541 7.4737e-05 -1.52012e-24)
(0.00640467 8.17036e-05 2.57941e-25)
(0.0100748 0.000516308 0)
(0.0104761 0.0012823 0)
(0.0110149 0.00167927 0)
(0.0113787 0.00179453 8.33019e-22)
(0.0115701 0.0017311 -8.31772e-22)
(0.0115412 0.0015697 0)
(0.0114223 0.00136702 0)
(0.0112259 0.00116133 0)
(0.0109931 0.000976651 0)
(0.0107546 0.000819282 0)
(0.0105246 0.000688819 0)
(0.0103099 0.000584119 -3.2701e-21)
(0.0101126 0.00050139 3.28725e-21)
(0.00993216 0.000436337 -3.27231e-21)
(0.00976729 0.000385835 6.5575e-21)
(0.00961571 0.000347355 -3.28364e-21)
(0.00947486 0.000318696 -3.26851e-21)
(0.00934234 0.000298144 3.278e-21)
(0.00921584 0.000284506 0)
(0.0090931 0.000276818 0)
(0.00897205 0.000274374 6.51621e-21)
(0.00885067 0.000276717 -6.53074e-21)
(0.00872699 0.00028356 0)
(0.00859907 0.000294748 -6.50576e-21)
(0.00846492 0.000310253 6.52004e-21)
(0.00832251 0.000330167 0)
(0.00816969 0.000354712 0)
(0.00800416 0.000384258 6.51641e-21)
(0.00782344 0.000419379 -8.0319e-24)
(0.0076248 0.000460965 -6.54463e-21)
(0.0074053 0.000510426 -6.55504e-21)
(0.00716134 0.000570078 1.31525e-20)
(0.00689471 0.00064393 -6.5988e-21)
(0.00657863 0.000734511 6.20581e-21)
(0.00624569 0.000855792 -6.67526e-21)
(0.00602786 0.00103595 -6.78544e-21)
(0.00598965 0.00129238 6.879e-21)
(0.00610828 0.00162369 2.06035e-20)
(0.00636716 0.00202136 3.44995e-20)
(0.00676503 0.00247246 7.01362e-21)
(0.00732291 0.0029602 -6.78774e-21)
(0.00800025 0.0034529 -5.91987e-20)
(0.00871854 0.00391928 5.79128e-20)
(0.00944315 0.00434211 5.62517e-20)
(0.0101646 0.00471007 -1.22142e-20)
(0.0108775 0.00501505 8.91939e-21)
(0.0115839 0.0052502 -2.56513e-20)
(0.0122706 0.00540703 0)
(0.0129336 0.00547953 -2.3784e-20)
(0.0135726 0.00545935 2.5867e-21)
(0.0141722 0.00534627 1.93829e-20)
(0.0147266 0.00513902 2.26079e-21)
(0.0152186 0.00483261 -2.22401e-20)
(0.0156428 0.00443615 -1.46487e-20)
(0.0159797 0.00395077 -1.60469e-20)
(0.0162168 0.00339024 -7.82039e-21)
(0.0163442 0.00276688 -1.58102e-21)
(0.0163372 0.00209397 1.79594e-21)
(0.0162101 0.00139959 1.66446e-21)
(0.0159292 0.000694464 2.43786e-21)
(0.0155139 1.07142e-05 1.63103e-21)
(0.0149715 -0.000632439 0)
(0.0143113 -0.00121512 6.23791e-21)
(0.0135662 -0.00172077 0)
(0.0127437 -0.00214148 -2.12894e-20)
(0.0118878 -0.00247209 -1.23683e-20)
(0.0110087 -0.00271298 -3.07666e-21)
(0.0101391 -0.00287073 0)
(0.00929327 -0.00295285 0)
(0.00848373 -0.00297035 -1.29886e-20)
(0.00772604 -0.00293532 0)
(0.00701721 -0.00285625 3.02637e-20)
(0.00636318 -0.00274561 -3.079e-20)
(0.00576551 -0.00261108 2.96607e-20)
(0.00521801 -0.00245951 2.50476e-23)
(0.00472014 -0.00229823 2.48607e-23)
(0.00426951 -0.00213165 2.56368e-20)
(0.00385997 -0.00196323 3.70362e-21)
(0.00348848 -0.00179661 2.81773e-20)
(0.00315283 -0.00163416 3.03553e-20)
(0.00284892 -0.00147728 -1.06838e-22)
(0.00257359 -0.00132743 -2.98959e-20)
(0.00232455 -0.00118551 3.00931e-20)
(0.00209908 -0.00105219 0)
(0.00189554 -0.000928247 4.90687e-22)
(0.00171203 -0.000813904 3.08263e-20)
(0.00154581 -0.000709448 -6.2569e-20)
(0.00139676 -0.000615948 -9.45305e-20)
(0.00126423 -0.000533328 -3.242e-20)
(0.00114559 -0.000461649 9.016e-22)
(0.00104189 -0.000401688 0)
(0.000953403 -0.000352831 9.76878e-22)
(0.000878205 -0.000314389 -9.67917e-22)
(0.000818225 -0.000286397 0)
(0.000772943 -0.000266837 1.53737e-20)
(0.000742764 -0.00025547 -1.91715e-21)
(0.000728406 -0.000249841 1.89886e-21)
(0.000729627 -0.000249443 -2.03547e-23)
(0.000746933 -0.000251362 1.50299e-20)
(0.000781245 -0.000254976 -1.87273e-21)
(0.000833408 -0.000257134 3.72253e-21)
(0.000903058 -0.000256553 -1.8511e-21)
(0.000992558 -0.000250474 6.96954e-25)
(0.00110049 -0.000236418 -9.27504e-22)
(0.00123008 -0.000212408 9.25324e-22)
(0.0013802 -0.000175036 -7.43522e-21)
(0.00155213 -0.000122526 -7.93154e-21)
(0.00174626 -5.18072e-05 -1.45294e-20)
(0.00196153 3.90854e-05 3.01451e-20)
(0.00219839 0.000152182 -1.46693e-20)
(0.00245588 0.000289073 -4.7545e-22)
(0.00273272 0.000450885 -4.77684e-22)
(0.00302887 0.000638133 4.79468e-22)
(0.00334084 0.000850947 -1.53908e-20)
(0.00366956 0.00108851 1.03253e-21)
(0.00401281 0.00134973 -4.89655e-24)
(0.00436725 0.0016326 1.33439e-20)
(0.00473362 0.00193463 4.67517e-20)
(0.00510937 0.00225269 -3.01009e-20)
(0.00549249 0.00258321 -3.01637e-20)
(0.00588363 0.00292229 3.16618e-20)
(0.00628126 0.00326549 2.70935e-20)
(0.00668378 0.00360829 -2.71386e-20)
(0.0070922 0.00394617 -3.12672e-20)
(0.00750644 0.00427428 -2.59192e-20)
(0.00792606 0.00458801 3.89207e-21)
(0.00835176 0.00488277 -3.27392e-21)
(0.00878384 0.00515403 0)
(0.00922306 0.00539761 -2.6996e-20)
(0.00967146 0.00560941 -2.28488e-20)
(0.0101275 0.00578451 -1.90557e-20)
(0.0105902 0.00591962 0)
(0.0110644 0.00601077 -2.15149e-20)
(0.011545 0.00605198 2.28307e-21)
(0.0120288 0.00604124 -6.0524e-21)
(0.0125195 0.00597434 -1.92904e-21)
(0.013004 0.00584387 -1.3623e-22)
(0.0134788 0.00565037 -7.30244e-21)
(0.0139371 0.00538817 1.37492e-21)
(0.0143657 0.00505702 -5.44368e-21)
(0.0147538 0.00465668 8.42757e-21)
(0.0150851 0.0041893 6.05424e-21)
(0.0153429 0.00366056 2.49709e-21)
(0.0155157 0.00308031 0)
(0.0155767 0.00245798 -4.03586e-22)
(0.01553 0.00181427 7.88299e-24)
(0.0153434 0.00115945 1.56275e-23)
(0.0150204 0.000522406 -2.76625e-24)
(0.014567 -7.93063e-05 -4.20993e-23)
(0.0139735 -0.000625238 1.48116e-22)
(0.0132741 -0.00109702 -3.64455e-22)
(0.0124578 -0.00148309 0)
(0.011571 -0.00177434 8.53171e-22)
(0.0106177 -0.00196842 -2.60596e-22)
(0.00964066 -0.00206976 4.95856e-22)
(0.00864876 -0.00208346 7.79696e-23)
(0.00767343 -0.00202301 5.67562e-23)
(0.00672884 -0.0018999 -2.58972e-23)
(0.00585765 -0.00173905 0)
(0.00504152 -0.00154043 9.06653e-22)
(0.00447788 -0.00138791 6.74925e-23)
(0.00419896 -0.00126807 5.3833e-23)
(0.00407987 -0.00116471 4.98994e-23)
(0.00408518 -0.00107961 8.52016e-22)
(0.00422988 -0.00101614 3.91547e-23)
(0.0045039 -0.000962832 1.35567e-23)
(0.00490965 -0.000919644 -4.94873e-22)
(0.00537916 -0.000870684 4.27729e-22)
(0.00582798 -0.000811125 5.03396e-22)
(0.00623932 -0.000746812 6.34739e-23)
(0.00661828 -0.000680678 -4.97012e-22)
(0.0069652 -0.000613486 6.00092e-23)
(0.00727926 -0.000546369 4.66884e-22)
(0.00756083 -0.000480656 -4.6417e-22)
(0.00781111 -0.000417396 -5.41766e-23)
(0.00803155 -0.000357323 -5.30509e-23)
(0.00822377 -0.000300953 0)
(0.00838954 -0.000248633 3.68897e-22)
(0.00853075 -0.000200549 -3.67551e-22)
(0.00864929 -0.000156737 0)
(0.00874708 -0.000117123 -3.89355e-23)
(0.00882595 -8.15636e-05 0)
(0.00888769 -4.98664e-05 3.39372e-23)
(0.008934 -2.18006e-05 1.22871e-22)
(0.00896652 2.90172e-06 -1.22604e-22)
(0.00898674 2.45264e-05 -2.7335e-23)
(0.00899608 4.33571e-05 2.47128e-23)
(0.00899581 5.96655e-05 0)
(0.00898714 7.37036e-05 -7.85215e-23)
(0.00897115 8.56879e-05 7.83994e-23)
(0.00894886 9.58133e-05 1.64965e-23)
(0.0089212 0.000104257 2.73884e-23)
(0.00888908 0.000111167 -2.73427e-23)
(0.00885334 0.000116686 1.9937e-23)
(0.00881478 0.000120968 -1.99073e-23)
(0.00877417 0.000124201 -7.24552e-24)
(0.00873234 0.000126627 -4.66607e-24)
(0.00868999 0.000128613 3.18391e-24)
(0.00864776 0.000130539 3.56995e-24)
(0.0085991 0.000135526 0)
(0.0100413 0.000317385 0)
(0.0102866 0.000874334 0)
(0.010715 0.00124894 0)
(0.0111427 0.00144447 8.41396e-22)
(0.0114793 0.00150605 -8.35713e-22)
(0.0117072 0.0014729 0)
(0.0118551 0.00137481 1.62162e-21)
(0.0118992 0.00124566 -1.62401e-21)
(0.0118802 0.00110888 -1.60558e-21)
(0.0118209 0.000975156 3.21248e-21)
(0.0117315 0.000852195 -1.60735e-21)
(0.0116274 0.000746469 0)
(0.0115163 0.000657678 0)
(0.0114033 0.000584043 3.18295e-21)
(0.0112916 0.000524695 -1.40723e-23)
(0.0111823 0.00047814 -6.36235e-21)
(0.0110754 0.000442594 3.18275e-21)
(0.0109707 0.000416623 0)
(0.0108674 0.000399233 0)
(0.0107644 0.000389503 3.15681e-21)
(0.0106604 0.000386715 -3.16287e-21)
(0.010554 0.000390437 0)
(0.0104438 0.000400406 0)
(0.0103281 0.000416502 -6.28539e-21)
(0.0102052 0.000438762 1.25777e-20)
(0.0100732 0.000467374 -6.29248e-21)
(0.00993009 0.000502681 -6.27817e-21)
(0.0097737 0.0005452 1.06011e-23)
(0.0096016 0.000595675 1.25769e-20)
(0.0094112 0.000655154 -6.29801e-21)
(0.0091998 0.000725145 -6.30046e-21)
(0.00896407 0.000807843 3.75377e-24)
(0.00870603 0.000906876 6.32992e-21)
(0.00840283 0.00102306 6.33747e-21)