/*--------------------------------*- C++ -*----------------------------------*\
| =========                 |                                                 |
| \\      /  F ield         | OpenFOAM: The Open Source CFD Toolbox           |
|  \\    /   O peration     | Version:  2506                                  |
|   \\  /    A nd           | Website:  www.openfoam.com                      |
|    \\/     M anipulation  |                                                 |
\*---------------------------------------------------------------------------*/
FoamFile
{
    version     2.0;
    format      ascii;
    arch        "LSB;label=32;scalar=64";
    class       volVectorField;
    location    "5";
    object      vorticityField;
}
// * * * * * * * * * * * * * * * * * * * * * * * * * * * * * * * * * * * * * //

dimensions      [0 0 -1 0 0 0 0];

internalField   nonuniform List<vector> 
4000
(
(-2.47925e-21 8.40354e-19 -33.3793)
(-1.04513e-18 3.46729e-19 -35.6379)
(1.10368e-18 -3.72659e-18 -32.6595)
(3.56431e-18 2.74814e-18 -27.8682)
(-7.27163e-18 2.71498e-18 -24.0431)
(3.69925e-18 -4.61711e-18 -21.3511)
(-2.99774e-20 1.6935e-18 -19.3648)
(3.58332e-18 -0 -17.868)
(-3.53047e-18 -3.33658e-18 -16.7312)
(7.09231e-18 1.75264e-18 -15.8518)
(-7.1043e-18 -1.71239e-18 -15.1547)
(-2.24895e-19 3.69255e-19 -14.5892)
(-1.17617e-19 9.57692e-18 -14.1202)
(7.47373e-18 -6.64984e-18 -13.7224)
(-2.84643e-20 -0 -13.3774)
(-1.41225e-17 -6.54772e-18 -13.0714)
(1.39137e-17 3.97482e-18 -12.7937)
(-7.35752e-18 9.12531e-18 -12.5359)
(3.47962e-19 -6.55241e-18 -12.2913)
(0 -0 -12.0541)
(0 -0 -11.8197)
(0 -0 -11.5838)
(8.74237e-19 -1.28838e-17 -11.3426)
(1.2002e-17 2.13547e-17 -11.0922)
(-2.76041e-17 8.69238e-18 -10.8293)
(1.57159e-17 -3.00369e-17 -10.5501)
(-9.87488e-19 1.28736e-17 -10.251)
(0 -0 -9.92779)
(0 -0 -9.57603)
(-1.13604e-18 1.28355e-17 -9.18991)
(-2.69611e-17 -9.54878e-18 -8.7617)
(1.49822e-17 -1.61387e-17 -8.28344)
(2.8768e-17 1.55261e-18 -7.7396)
(7.92892e-19 -1.47255e-17 -6.98745)
(-8.17343e-18 7.44557e-17 -6.15594)
(-3.30705e-17 6.70047e-17 -5.77779)
(-1.06243e-16 -1.11037e-16 -6.00925)
(-4.10607e-19 -6.52962e-19 -6.66388)
(6.97562e-17 2.06156e-16 -7.69746)
(-1.02833e-16 -6.97717e-17 -9.193)
(4.36325e-17 -2.46283e-16 -11.4575)
(1.20022e-16 2.29906e-16 -14.2882)
(-3.74011e-17 1.01324e-16 -17.1798)
(2.74058e-17 -1.08565e-16 -19.9729)
(1.23863e-16 8.65723e-17 -22.6246)
(-1.41813e-16 2.02063e-17 -25.1555)
(-1.9378e-16 1.66963e-16 -27.6206)
(-1.01724e-16 -1.11517e-16 -29.8584)
(-7.90779e-17 -1.97255e-16 -31.9248)
(-4.76652e-17 -1.22414e-16 -33.7882)
(9.92084e-17 -1.19811e-16 -35.3537)
(-3.67918e-18 4.56924e-17 -36.6963)
(-5.46553e-17 -8.54693e-17 -37.6312)
(8.93692e-17 -1.06868e-16 -38.2793)
(-7.43276e-18 8.68902e-17 -38.4846)
(-3.47173e-17 5.54816e-17 -38.2762)
(7.89115e-18 5.1992e-17 -37.6936)
(3.78383e-18 9.43233e-18 -36.6148)
(8.44879e-18 1.58187e-17 -35.2801)
(-5.14145e-18 -2.48121e-18 -33.5078)
(4.93742e-18 4.67076e-18 -31.4138)
(1.91571e-17 3.54111e-19 -29.2054)
(-9.05926e-18 -4.19362e-18 -26.8266)
(-7.5593e-18 -4.94373e-17 -24.4433)
(-1.04499e-17 -5.9174e-17 -22.0773)
(-8.9901e-18 4.4118e-17 -19.7762)
(5.91529e-17 4.29644e-17 -17.6312)
(-1.09741e-19 -3.20095e-17 -15.5895)
(2.19972e-17 4.95718e-17 -13.7507)
(-5.45242e-17 5.12605e-17 -12.0446)
(-1.0863e-17 -3.71837e-17 -10.5187)
(-2.71367e-17 -5.83239e-17 -9.14594)
(1.09863e-20 -1.28645e-19 -7.89608)
(-7.37633e-17 4.67875e-17 -6.80042)
(-7.32998e-17 5.21849e-17 -5.81542)
(-2.83442e-18 6.38097e-17 -4.93784)
(-6.42201e-17 4.102e-17 -4.16771)
(7.71752e-18 -6.56567e-17 -3.48426)
(-7.98009e-17 2.9738e-17 -2.87887)
(6.5118e-17 2.0859e-17 -2.34959)
(-1.25088e-16 3.45797e-17 -1.885)
(-1.81524e-17 -6.78304e-17 -1.47746)
(3.77794e-18 -1.17256e-17 -1.12239)
(-7.39959e-18 2.41266e-18 -0.813431)
(6.32294e-17 9.71182e-17 -0.546244)
(-1.14636e-16 1.51639e-16 -0.317374)
(4.91893e-18 -1.37367e-16 -0.12209)
(-4.63675e-18 -6.559e-17 0.0413942)
(-1.20411e-18 1.34872e-16 0.174671)
(-4.92036e-17 3.17847e-17 0.281683)
(2.05186e-19 1.38551e-18 0.363543)
(-4.94793e-17 9.11583e-17 0.422167)
(-2.32786e-17 -1.12203e-16 0.460551)
(1.86457e-17 -3.50097e-17 0.480186)
(-3.63618e-19 5.60093e-17 0.483307)
(7.59822e-18 -6.54501e-17 0.472511)
(2.31925e-17 -7.73816e-18 0.450212)
(2.98622e-18 3.09371e-18 0.417721)
(-3.42228e-17 -3.87086e-18 0.376597)
(5.74269e-18 3.00119e-17 0.328761)
(6.2207e-18 -1.06965e-18 0.273132)
(1.90717e-18 -5.06366e-18 0.209461)
(-1.04927e-18 1.84254e-17 0.135413)
(-2.77734e-18 4.97617e-18 0.0490409)
(-4.0945e-18 -2.02121e-18 -0.0534596)
(-7.4544e-20 -6.76703e-18 -0.176585)
(4.13239e-19 5.54903e-17 -0.325399)
(-2.09479e-17 -2.65244e-18 -0.506897)
(-2.67244e-17 -9.45045e-17 -0.726795)
(5.03173e-17 -1.39548e-17 -0.993226)
(-2.58853e-17 1.612e-17 -1.31391)
(1.17651e-18 6.39764e-17 -1.6953)
(-2.68526e-17 -1.27151e-17 -2.14895)
(-2.42596e-17 -5.57512e-17 -2.6729)
(-8.04559e-19 -6.8085e-17 -3.28758)
(5.35744e-17 3.54128e-17 -3.98673)
(2.56244e-19 1.34963e-16 -4.77617)
(-8.21418e-18 3.49411e-17 -5.6656)
(5.59216e-17 4.16187e-17 -6.64505)
(-5.74923e-17 -4.298e-17 -7.71701)
(-4.4542e-17 -2.43785e-16 -8.88539)
(7.03933e-17 4.69751e-17 -10.1355)
(4.17323e-18 1.5094e-16 -11.4592)
(-6.64512e-17 -4.35407e-17 -12.8598)
(-1.09753e-17 -1.58702e-16 -14.3176)
(1.22377e-16 8.69916e-17 -15.8258)
(-3.69096e-17 4.06025e-17 -17.3734)
(5.23642e-17 -6.06433e-18 -18.9439)
(6.25277e-17 8.80921e-17 -20.5323)
(-6.10471e-17 1.82938e-16 -22.1453)
(-7.0935e-18 5.31845e-17 -23.7231)
(-1.22851e-16 9.17004e-17 -25.289)
(-2.51815e-17 -5.59502e-17 -26.8656)
(-9.5635e-17 -6.77395e-17 -28.3536)
(-4.59699e-17 1.42613e-16 -29.7911)
(-5.22454e-18 -1.83381e-18 -31.2342)
(5.585e-18 3.45288e-18 -32.4656)
(3.84267e-17 -9.69825e-17 -33.6722)
(4.78067e-18 4.08152e-18 -34.6813)
(-1.08767e-17 1.79906e-17 -35.535)
(-2.44348e-17 9.16549e-17 -36.1659)
(-1.8258e-17 6.97478e-18 -36.5312)
(-1.45678e-17 7.86238e-17 -36.5636)
(-5.2463e-18 1.36637e-17 -36.314)
(-2.96807e-18 1.32393e-17 -35.5636)
(8.19677e-18 -6.76541e-17 -34.5712)
(9.7103e-20 2.91567e-19 -33.0431)
(0 -0 -31.1713)
(4.96462e-19 -6.0337e-19 -29.0487)
(9.02697e-19 1.05458e-17 -26.6141)
(-1.82019e-18 -6.86313e-18 -24.0981)
(-1.56462e-19 1.607e-18 -21.4342)
(-2.64516e-18 -1.62245e-18 -18.7855)
(-1.13974e-18 -3.17948e-18 -16.2044)
(1.82595e-18 -7.12472e-19 -13.7427)
(-8.44908e-19 1.74534e-18 -11.4527)
(-8.972e-18 -2.53902e-17 -9.33597)
(-4.31661e-19 -2.46474e-18 -7.43998)
(-3.52107e-19 -4.22332e-18 -5.71659)
(-8.38049e-18 -2.61759e-17 -4.19037)
(-4.42426e-18 1.04864e-17 -3.26675)
(7.25464e-18 5.64894e-18 -3.03072)
(-1.23588e-18 -1.9928e-18 -2.93374)
(9.19222e-19 -2.14289e-19 -2.97865)
(1.11481e-18 -1.71455e-19 -3.21569)
(1.22264e-18 -1.01583e-19 -3.68368)
(-1.13496e-18 -9.72662e-19 -4.47333)
(1.03378e-18 -2.20011e-18 -5.49194)
(1.30564e-19 5.52405e-19 -6.46346)
(1.88465e-19 6.34748e-19 -7.32448)
(-1.12855e-18 2.97485e-18 -8.10059)
(-2.61673e-19 -1.94908e-18 -8.79717)
(-4.9181e-21 -2.93038e-18 -9.41351)
(2.39838e-19 4.78105e-18 -9.95134)
(-1.56176e-19 -1.19606e-18 -10.4142)
(1.01301e-18 3.07737e-20 -10.8067)
(-1.84092e-18 7.47148e-19 -11.1339)
(9.44678e-19 3.92062e-18 -11.4013)
(-1.56736e-19 -5.40439e-18 -11.6147)
(5.14714e-20 7.49659e-19 -11.7797)
(4.31026e-19 2.7197e-19 -11.9018)
(-6.93729e-19 2.12155e-18 -11.9862)
(-4.89593e-20 -5.24514e-19 -12.0378)
(1.12176e-20 -2.41072e-18 -12.0611)
(2.68098e-19 2.68281e-19 -12.06)
(2.43755e-19 7.27092e-22 -12.0384)
(-2.71397e-19 -8.09543e-22 -11.9992)
(2.26326e-19 -9.58874e-21 -11.9455)
(-3.79025e-19 -2.88134e-19 -11.8795)
(2.38443e-19 1.09525e-20 -11.8033)
(-7.9759e-20 -2.37912e-22 -11.7191)
(-1.76362e-20 -4.588e-20 -11.6284)
(5.22802e-20 -1.10672e-18 -11.5324)
(-1.81023e-20 1.19456e-18 -11.4324)
(-4.47312e-20 -4.92786e-20 -11.3293)
(7.01728e-21 -2.79751e-19 -11.2238)
(-3.52878e-21 -5.44244e-19 -11.1165)
(-6.60654e-21 2.8957e-19 -11.0057)
(-3.44456e-21 2.66723e-19 -10.8791)
(-5.52465e-22 -2.65264e-21 -10.7467)
(0 -0 3.17896)
(3.00529e-20 -0 -6.36895)
(-5.68635e-20 -1.62982e-18 -12.8042)
(3.40409e-19 -1.08315e-19 -15.4188)
(1.08724e-18 6.46791e-18 -16.1267)
(-1.41736e-18 -6.40694e-18 -15.8626)
(3.97203e-20 -1.68374e-18 -15.2715)
(1.65456e-19 -1.50021e-18 -14.6253)
(-3.61537e-18 4.87305e-18 -14.0194)
(3.36054e-18 -4.40075e-18 -13.4849)
(6.50353e-18 1.45692e-17 -13.0245)
(-1.37892e-17 -2.0267e-18 -12.6299)
(9.86137e-19 -2.17289e-17 -12.2906)
(6.72043e-18 -8.98785e-19 -11.9965)
(-8.94164e-19 2.04891e-17 -11.7387)
(-6.71921e-18 8.13444e-18 -11.5096)
(7.38478e-18 -2.09198e-17 -11.3027)
(-1.54497e-19 6.77026e-18 -11.1126)
(0 -0 -10.9345)
(0 -0 -10.7644)
(0 -0 -10.5989)
(0 -0 -10.4345)
(0 -0 -10.2685)
(-2.73642e-17 -0 -10.0978)
(4.11828e-17 -0 -9.91973)
(-1.37888e-17 -0 -9.73133)
(0 -0 -9.52956)
(0 -0 -9.31109)
(0 -0 -9.07209)
(-1.19097e-18 1.34562e-17 -8.80788)
(-3.30602e-19 9.9437e-18 -8.51235)
(3.69742e-18 -4.10879e-17 -8.17737)
(-1.59334e-19 -6.24295e-18 -7.7926)
(-1.57572e-17 4.89531e-17 -7.32907)
(-9.39477e-18 -4.64113e-17 -6.84179)
(4.07974e-17 2.13929e-17 -6.52639)
(9.72095e-17 1.25006e-16 -6.51888)
(5.39251e-18 -2.01218e-16 -6.84252)
(-1.77941e-17 -1.70585e-16 -7.49623)
(1.11112e-16 2.39664e-16 -8.50164)
(-3.27954e-17 1.35583e-17 -9.91844)
(-8.524e-17 -1.79658e-16 -11.5392)
(7.48756e-17 -1.38188e-16 -13.2482)
(1.25097e-17 -4.13313e-17 -15.0104)
(-2.43836e-17 -1.77385e-16 -16.7432)
(-8.07008e-18 4.38343e-16 -18.4544)
(1.85915e-16 1.38598e-16 -20.1323)
(1.04524e-16 1.11522e-16 -21.7107)
(7.52645e-17 1.50742e-16 -23.2374)
(5.93055e-17 -2.13193e-17 -24.6396)
(-1.28711e-16 -1.42964e-16 -25.9115)
(-3.03748e-18 3.74188e-17 -27.0625)
(-1.84273e-17 2.40964e-16 -28.0137)
(-8.00939e-17 5.81106e-17 -28.82)
(4.88621e-17 -2.36764e-17 -29.3935)
(3.58146e-17 3.69824e-17 -29.7662)
(3.61739e-17 -5.59491e-17 -29.899)
(8.2468e-18 1.09689e-17 -29.7765)
(-3.67915e-18 -3.19649e-17 -29.4173)
(-5.88461e-18 1.40814e-17 -28.7905)
(-2.87478e-18 -1.43532e-17 -27.9019)
(-2.48388e-17 -7.55627e-17 -26.7825)
(1.95827e-17 7.31632e-17 -25.4664)
(-2.34158e-18 9.13262e-17 -23.9867)
(4.50088e-17 1.41371e-16 -22.4119)
(6.27092e-18 -5.01771e-17 -20.7493)
(-7.03856e-18 -7.66482e-17 -19.0968)
(-1.49368e-17 6.23879e-17 -17.4376)
(-2.39528e-17 -3.2603e-18 -15.852)
(6.15523e-17 -3.9383e-17 -14.3295)
(4.46101e-18 2.08966e-17 -12.8965)
(-1.26697e-16 -2.31604e-17 -11.5735)
(5.65805e-17 3.45836e-17 -10.334)
(4.25753e-17 1.64942e-16 -9.20607)
(1.18754e-16 -3.9585e-17 -8.17531)
(1.13726e-17 -7.5605e-17 -7.23328)
(-1.19969e-17 9.93751e-18 -6.38427)
(-4.41838e-18 7.04805e-17 -5.61864)
(-5.39752e-17 -5.3945e-18 -4.92702)
(-1.52766e-16 5.59309e-17 -4.30826)
(1.98277e-16 5.44717e-17 -3.75582)
(2.04497e-17 -7.91548e-17 -3.26276)
(-6.4946e-17 4.51121e-17 -2.82544)
(1.75094e-17 -5.32198e-17 -2.43898)
(-1.94161e-18 -6.26713e-18 -2.09895)
(1.20173e-16 -6.43274e-17 -1.80276)
(5.01731e-17 -4.84817e-17 -1.54575)
(6.23134e-17 3.79885e-17 -1.32485)
(5.29287e-17 -1.08024e-16 -1.13894)
(1.07944e-16 -6.82613e-17 -0.983092)
(3.44117e-20 2.18403e-18 -0.85551)
(5.0042e-17 -6.23796e-17 -0.754881)
(2.16002e-17 2.42665e-17 -0.676356)
(-4.83675e-17 2.32316e-17 -0.618557)
(2.27482e-17 -5.41331e-17 -0.579578)
(1.15872e-18 3.18313e-17 -0.55579)
(-4.75475e-17 2.33679e-17 -0.547045)
(2.28556e-17 6.04345e-17 -0.549534)
(1.58856e-18 1.05191e-17 -0.564051)
(-1.27717e-17 -7.83211e-17 -0.587838)
(-6.40882e-18 3.90981e-18 -0.623378)
(-7.42109e-18 1.53211e-17 -0.668172)
(-3.20104e-18 -1.23368e-17 -0.725839)
(2.82247e-18 -1.7173e-18 -0.796459)
(5.49158e-18 -1.41285e-18 -0.882969)
(1.17381e-17 3.26392e-18 -0.989086)
(-2.22877e-19 -2.99283e-17 -1.11692)
(6.9428e-17 4.57128e-17 -1.27172)
(1.07332e-18 5.7395e-18 -1.45679)
(-4.71209e-17 7.60021e-18 -1.67708)
(-1.97903e-18 4.72345e-17 -1.93723)
(-1.88797e-18 -6.51009e-17 -2.2413)
(2.615e-17 4.70529e-17 -2.59565)
(2.30621e-17 1.94955e-17 -2.99988)
(-2.71284e-17 -4.95043e-17 -3.46711)
(-5.35127e-17 -3.09753e-17 -3.98894)
(2.04549e-18 -7.44998e-17 -4.57688)
(1.11597e-17 -1.07303e-16 -5.23146)
(-1.15445e-17 -2.75796e-17 -5.94731)
(1.15576e-16 2.33268e-16 -6.73205)
(-9.3847e-17 4.18563e-18 -7.58339)
(-5.58011e-17 -1.36972e-16 -8.4925)
(4.41065e-17 5.60961e-17 -9.46162)
(7.86873e-17 4.71054e-17 -10.4897)
(4.79971e-17 -1.02542e-17 -11.5615)
(-8.88145e-17 -2.37602e-16 -12.6785)
(-4.05832e-17 1.90441e-16 -13.8309)
(8.2859e-17 -2.92887e-16 -15.0086)
(-1.53318e-17 6.63514e-18 -16.2094)
(1.80191e-16 -1.45479e-17 -17.4269)
(4.60426e-17 3.00159e-17 -18.6263)
(1.93202e-16 -5.40372e-17 -19.8349)
(4.50341e-17 1.58811e-16 -21.0374)
(-4.28144e-17 2.57889e-16 -22.1748)
(7.96092e-17 -2.01475e-16 -23.3033)
(-5.54975e-18 7.62668e-17 -24.3995)
(3.0517e-17 -2.45246e-17 -25.3597)
(2.14509e-17 -3.6321e-17 -26.323)
(1.19784e-17 -3.79864e-17 -27.1292)
(-8.52575e-18 3.15045e-17 -27.8549)
(4.92224e-17 -1.36137e-16 -28.4391)
(-6.33655e-17 2.33795e-16 -28.8706)
(4.08228e-17 -1.53427e-16 -29.1273)
(1.10324e-18 5.98152e-18 -29.2131)
(9.12808e-18 -5.71361e-17 -29.0453)
(-8.89954e-19 1.47556e-17 -28.718)
(-1.77243e-18 2.26374e-17 -28.0727)
(1.3029e-19 -3.52032e-19 -27.2309)
(4.81871e-19 4.20841e-17 -26.1264)
(-3.9955e-18 -7.64938e-17 -24.787)
(8.77406e-19 -3.23355e-18 -23.266)
(2.02857e-17 1.28024e-16 -21.546)
(5.49385e-18 2.23569e-17 -19.7145)
(-3.68196e-18 -1.9765e-17 -17.7877)
(-3.48268e-18 1.62457e-18 -15.84)
(-2.17424e-17 -7.6907e-17 -13.9059)
(1.03854e-17 2.626e-17 -12.0287)
(-1.9389e-17 -5.27623e-17 -10.2457)
(9.84693e-19 3.15154e-18 -8.58526)
(2.9454e-18 3.21478e-17 -7.10717)
(1.55193e-17 2.13882e-17 -6.00814)
(-1.34978e-17 -4.06582e-17 -5.41433)
(1.01681e-18 8.89097e-18 -5.10811)
(-3.23084e-18 -5.02238e-18 -4.99714)
(-9.56708e-19 -4.68952e-18 -5.07347)
(-3.38524e-18 -5.92763e-18 -5.34511)
(2.94475e-18 5.16846e-18 -5.81207)
(-1.09009e-18 -2.71507e-19 -6.4007)
(-1.49171e-20 -1.30914e-19 -6.99766)
(-1.40333e-19 -7.32259e-19 -7.55367)
(2.85906e-20 1.26629e-19 -8.0612)
(2.188e-19 1.84384e-18 -8.52238)
(-8.09134e-19 1.00874e-17 -8.93819)
(5.12958e-19 -1.30087e-17 -9.30907)
(9.07014e-20 1.40386e-18 -9.63609)
(9.49708e-19 -1.10491e-17 -9.9209)
(-6.36943e-19 2.37383e-17 -10.1655)
(-3.96251e-19 -2.69336e-17 -10.3724)
(3.15686e-19 1.58558e-17 -10.5439)
(-8.05715e-20 -1.19205e-18 -10.6828)
(-6.22779e-20 -7.61199e-18 -10.7917)
(3.62867e-19 7.52016e-18 -10.8734)
(-2.84129e-19 1.0301e-18 -10.9304)
(-2.97319e-19 6.65695e-18 -10.9654)
(2.83152e-19 -6.2545e-18 -10.9806)
(9.77289e-20 -6.42894e-18 -10.9784)
(8.84698e-21 8.00343e-18 -10.9609)
(9.29421e-21 -7.84034e-18 -10.93)
(-6.72364e-20 1.38978e-17 -10.8875)
(4.89033e-20 -9.34291e-18 -10.8351)
(5.84835e-20 3.59915e-18 -10.7743)
(-6.14627e-20 1.00948e-18 -10.7065)
(-1.01682e-19 -4.4868e-20 -10.6331)
(1.23382e-19 -2.16633e-18 -10.5552)
(-1.91499e-20 3.28945e-18 -10.4738)
(5.00991e-21 -3.15107e-19 -10.39)
(-6.33529e-21 1.60349e-18 -10.3043)
(9.37498e-21 -1.27467e-20 -10.217)
(-1.94282e-22 5.00652e-22 -10.127)
(-1.11796e-20 1.00933e-18 -10.0538)
(-2.4142e-21 8.18307e-19 5.45356)
(-3.79196e-19 1.31638e-18 2.32301)
(4.02717e-19 -4.51624e-18 -1.63492)
(5.92625e-19 -1.86881e-18 -5.00229)
(1.16124e-18 5.83603e-18 -7.50506)
(-1.76806e-18 -1.58566e-18 -8.95228)
(0 -0 -9.7734)
(-3.66497e-18 3.17931e-18 -10.1608)
(3.33991e-18 5.46842e-19 -10.29)
(-2.61327e-18 -2.00012e-17 -10.286)
(3.46854e-18 6.57302e-18 -10.2144)
(-2.22347e-19 2.25536e-17 -10.1109)
(-6.4466e-19 -6.1483e-19 -9.99527)
(-1.31048e-17 -1.86801e-17 -9.87813)
(1.25815e-17 1.28565e-17 -9.76441)
(8.2134e-18 -1.33075e-18 -9.65617)
(-1.32247e-17 -2.28022e-17 -9.55389)
(5.6382e-18 2.41467e-17 -9.45707)
(3.41293e-19 -6.42684e-18 -9.36471)
(0 -0 -9.27557)
(1.30204e-17 -0 -9.18826)
(-1.30494e-17 -0 -9.10128)
(-8.65692e-19 1.27579e-17 -9.01309)
(-1.26289e-17 7.26066e-18 -8.92206)
(1.44661e-17 -3.2805e-17 -8.82647)
(-9.43079e-19 1.27865e-17 -8.72449)
(0 -0 -8.61405)
(1.30208e-17 -0 -8.49284)
(-1.6049e-20 -0 -8.35813)
(-1.42166e-17 1.28736e-17 -8.20655)
(1.484e-18 3.56324e-18 -8.03375)
(2.843e-17 -2.93573e-17 -7.83378)
(-4.32605e-17 1.21068e-17 -7.60122)
(2.5233e-17 -1.25532e-18 -7.32955)
(-1.53357e-18 2.74633e-17 -7.03689)
(-5.49558e-17 -4.20352e-17 -6.78459)
(8.48823e-17 -4.8822e-17 -6.65462)
(3.76716e-17 1.85913e-16 -6.72595)
(-1.24895e-16 8.06221e-17 -7.02669)
(-2.92709e-17 -9.15789e-17 -7.55424)
(-2.27341e-17 -1.66065e-18 -8.29541)
(-1.39784e-16 -1.14858e-17 -9.12162)
(-6.40516e-17 2.08628e-16 -10.0323)
(1.08268e-16 7.19636e-17 -11.026)
(-2.78353e-16 5.05485e-17 -12.0522)
(3.01308e-16 -4.03917e-16 -13.1076)
(7.41793e-17 -2.08105e-16 -14.172)
(-5.34377e-18 6.22234e-17 -15.2227)
(8.97068e-17 -2.0142e-16 -16.2785)
(-3.61583e-18 1.28479e-16 -17.2904)
(-1.09008e-16 4.20368e-16 -18.2666)
(1.49205e-17 -1.0939e-16 -19.2016)
(5.15533e-17 -2.00037e-16 -20.0712)
(9.27152e-17 -2.77043e-16 -20.8862)
(1.88113e-17 -2.4523e-16 -21.6179)
(-1.47809e-18 -8.66449e-17 -22.2717)
(-4.9351e-18 -1.27311e-16 -22.8197)
(4.40365e-18 -3.18524e-17 -23.2599)
(-9.47436e-18 3.92469e-17 -23.5543)
(7.96239e-18 3.68323e-17 -23.7105)
(3.83892e-18 7.01215e-18 -23.6816)
(-1.20775e-17 7.5044e-17 -23.4528)
(1.94517e-17 -9.62591e-17 -23.0288)
(2.34376e-17 -4.32272e-17 -22.396)
(-6.79145e-17 -3.34056e-16 -21.605)
(-3.00961e-17 5.2528e-17 -20.6359)
(-6.63294e-17 -5.3294e-18 -19.5721)
(1.86356e-17 3.61965e-17 -18.401)
(1.52264e-18 -1.46106e-17 -17.1977)
(-5.38823e-17 4.79452e-18 -15.9715)
(1.01365e-17 1.14981e-16 -14.7507)
(1.73073e-16 9.64667e-17 -13.5764)
(-1.41506e-16 -2.09612e-16 -12.4334)
(1.74202e-16 -2.80753e-17 -11.355)
(3.02042e-17 -1.3029e-16 -10.342)
(-1.65583e-17 1.42925e-16 -9.39083)
(1.22899e-16 8.31905e-17 -8.51106)
(4.32454e-18 -4.0703e-18 -7.70077)
(1.70309e-16 1.44934e-16 -6.95389)
(6.90435e-17 -1.00901e-16 -6.27164)
(2.11093e-17 -3.62675e-16 -5.65139)
(-2.98369e-17 1.49369e-16 -5.08807)
(8.22701e-17 1.52108e-17 -4.57987)
(5.51732e-17 -1.42147e-16 -4.12354)
(-6.09053e-17 4.30687e-17 -3.7152)
(1.10854e-16 -9.21635e-17 -3.35362)
(-1.82722e-16 1.84831e-17 -3.03493)
(-1.33637e-16 -5.36348e-17 -2.75479)
(-6.36535e-17 8.09942e-17 -2.51351)
(-7.01066e-18 4.47376e-17 -2.30559)
(1.11891e-18 7.10151e-17 -2.12704)
(2.33741e-18 3.26758e-17 -1.97802)
(-2.78613e-17 1.57263e-17 -1.85323)
(2.83503e-17 -4.25645e-17 -1.74953)
(-5.44835e-19 -3.03752e-18 -1.66805)
(-8.6504e-18 3.03443e-17 -1.60184)
(2.41097e-18 -2.68619e-17 -1.55482)
(-3.0597e-18 -6.13293e-17 -1.52012)
(7.75422e-17 5.75781e-18 -1.50195)
(6.77478e-18 3.85569e-17 -1.49474)
(-5.77389e-18 -2.07421e-18 -1.50351)
(8.49789e-18 -1.01708e-17 -1.5235)
(3.96213e-19 6.3814e-18 -1.55863)
(-1.11528e-19 -5.54751e-18 -1.60796)
(-1.81582e-19 -1.25797e-17 -1.67273)
(-1.21406e-17 -6.16023e-18 -1.75554)
(-1.23898e-17 -1.71955e-17 -1.8563)
(-4.73821e-17 -2.36473e-17 -1.9781)
(7.24218e-17 8.75111e-17 -2.12203)
(-5.03772e-17 -3.90127e-17 -2.29035)
(5.23983e-17 -2.09492e-17 -2.48523)
(-6.97139e-19 3.21569e-17 -2.70848)
(1.35935e-18 -3.3461e-17 -2.96366)
(1.0737e-17 4.15066e-18 -3.24947)
(-9.39064e-18 7.01993e-17 -3.57531)
(-4.49193e-19 -3.67798e-17 -3.93353)
(2.54877e-17 8.30872e-17 -4.33425)
(-2.244e-17 1.8498e-16 -4.77706)
(-1.50731e-16 -1.41435e-16 -5.25906)
(5.04611e-18 -1.52209e-16 -5.78755)
(5.69087e-17 2.96337e-16 -6.36131)
(2.94716e-17 -1.0413e-16 -6.97572)
(4.39294e-17 -2.01799e-16 -7.63522)
(-5.51158e-17 -7.25531e-17 -8.33942)
(9.76712e-17 -9.22749e-17 -9.07925)
(-3.13813e-16 3.83575e-16 -9.85756)
(1.64693e-16 -2.57057e-16 -10.6684)
(-1.66086e-16 1.36586e-16 -11.5057)
(5.67761e-17 -3.80819e-16 -12.3673)
(1.08727e-16 -4.18469e-16 -13.2472)
(1.03242e-16 -2.03501e-16 -14.1251)
(-3.65752e-17 -7.29874e-17 -15.0162)
(1.22627e-16 -3.82493e-16 -15.9061)
(2.33292e-16 -2.35193e-16 -16.7587)
(-8.23213e-17 5.39465e-17 -17.6118)
(2.12687e-17 -6.12606e-17 -18.4379)
(7.1133e-17 -1.67547e-16 -19.1883)
(3.09897e-17 -9.78341e-17 -19.9412)
(-2.13044e-17 5.28161e-17 -20.603)
(9.75493e-18 -5.18196e-17 -21.2219)
(-7.16397e-17 2.50362e-16 -21.7687)
(2.7744e-17 6.89916e-18 -22.24)
(-4.05874e-18 9.02263e-19 -22.634)
(-1.28228e-17 5.84499e-17 -22.9472)
(-3.85395e-17 2.211e-16 -23.1503)
(-2.95874e-19 -1.87379e-18 -23.2723)
(6.7109e-18 -1.07239e-16 -23.2374)
(-3.23177e-18 6.85765e-17 -23.0941)
(-1.76531e-18 -4.23346e-17 -22.77)
(1.05173e-17 1.2158e-16 -22.2698)
(5.11469e-18 6.02187e-17 -21.5903)
(-2.25694e-17 -1.26158e-16 -20.7063)
(-3.41874e-17 -2.11465e-16 -19.6545)
(1.37916e-17 6.44169e-17 -18.4252)
(-3.8036e-17 -1.71932e-16 -17.0695)
(2.37426e-17 7.45372e-17 -15.6104)
(6.0893e-18 2.09554e-17 -14.0955)
(1.73584e-17 5.05393e-17 -12.5615)
(-5.29534e-18 -1.52863e-17 -11.0647)
(2.66213e-17 6.09225e-17 -9.68475)
(-6.94539e-18 -2.91023e-17 -8.52799)
(-3.41601e-19 2.17863e-17 -7.72372)
(3.79724e-18 8.12383e-18 -7.22605)
(7.14671e-18 2.23249e-17 -6.94889)
(-9.99252e-19 4.66266e-19 -6.85343)
(1.99148e-18 1.56387e-17 -6.92141)
(-3.93452e-18 -2.2663e-17 -7.12047)
(1.27371e-18 -2.30223e-19 -7.39398)
(1.26833e-18 -1.18487e-18 -7.68809)
(3.67967e-19 5.15557e-19 -7.97122)
(3.25603e-19 1.52403e-17 -8.23234)
(5.66517e-20 -1.84478e-18 -8.47216)
(2.19795e-18 1.35589e-19 -8.69213)
(-2.20135e-18 8.71554e-19 -8.89253)
(-1.33482e-19 -1.96825e-18 -9.07346)
(-1.80418e-18 -2.2276e-17 -9.23513)
(2.68559e-18 2.29004e-17 -9.37787)
(-7.60043e-19 1.94382e-17 -9.50207)
(-3.27239e-19 -2.28398e-17 -9.60824)
(5.61227e-20 8.19422e-19 -9.69698)
(-4.89431e-19 1.10226e-18 -9.769)
(3.98916e-19 1.92733e-19 -9.82511)
(1.36296e-19 9.86544e-18 -9.86619)
(4.99678e-19 -4.46424e-19 -9.89318)
(-5.17321e-19 -1.21391e-17 -9.90707)
(-2.81269e-19 -2.95964e-18 -9.90888)
(3.30794e-19 -1.03817e-18 -9.89965)
(-2.31214e-19 1.13555e-18 -9.88043)
(2.27739e-19 -4.0025e-20 -9.85226)
(-7.15688e-20 -1.16192e-18 -9.81615)
(1.60712e-19 -5.29728e-18 -9.77312)
(3.89998e-20 4.36872e-18 -9.72415)
(-1.08583e-19 5.18042e-18 -9.67019)
(6.65081e-20 -6.38203e-18 -9.61211)
(4.34377e-21 4.78774e-20 -9.55077)
(3.16974e-21 -1.50821e-18 -9.48691)
(3.16691e-20 -2.56325e-18 -9.42118)
(2.09043e-20 -1.25112e-18 -9.35408)
(-7.12876e-21 1.26482e-18 -9.28501)
(1.22661e-20 -1.01505e-18 -9.22632)
(0 -0 3.61439)
(8.71653e-19 -0 3.04634)
(-8.50198e-19 -1.56988e-18 1.88274)
(6.7547e-19 -2.90426e-18 0.0370567)
(-6.84831e-19 6.04166e-18 -1.71929)
(2.31229e-20 -1.56753e-18 -3.27948)
(3.24023e-18 -0 -4.57406)
(-3.24502e-18 -0 -5.50457)
(1.7839e-19 -0 -6.16638)
(-3.96784e-19 -0 -6.63665)
(-6.80079e-18 6.1627e-18 -6.95408)
(6.23711e-18 9.72303e-18 -7.16762)
(7.65324e-18 -1.59139e-17 -7.31239)
(-8.65362e-19 9.19149e-18 -7.41039)
(1.1529e-18 -3.04409e-17 -7.47607)
(-7.28478e-18 3.36255e-17 -7.51953)
(-7.19228e-18 2.30098e-18 -7.54773)
(7.62946e-18 -2.08265e-17 -7.56521)
(-3.28058e-19 6.1776e-18 -7.57494)
(7.03237e-18 -1.22802e-17 -7.57886)
(-6.2354e-18 -1.54758e-17 -7.57814)
(-1.6078e-18 4.00635e-17 -7.57336)
(-3.31151e-20 -4.70898e-20 -7.56471)
(9.69386e-19 1.43132e-17 -7.55211)
(1.33111e-17 -3.88611e-17 -7.53518)
(-1.34796e-17 1.22874e-17 -7.51333)
(-1.15665e-17 -1.22806e-17 -7.48571)
(1.26062e-18 -2.46581e-17 -7.4512)
(2.31804e-17 2.52057e-17 -7.40835)
(-1.50366e-17 3.64201e-17 -7.35523)
(2.80994e-18 -1.44128e-17 -7.28929)
(-1.0247e-17 -4.45367e-17 -7.20676)
(9.56712e-18 3.49958e-17 -7.10503)
(1.4106e-17 -1.8848e-17 -6.98261)
(-1.76919e-17 4.4028e-17 -6.84045)
(2.72155e-17 -3.04677e-18 -6.68045)
(-9.99017e-17 -9.64687e-17 -6.53154)
(-8.17974e-17 -1.58007e-16 -6.46591)
(1.43794e-16 -1.75401e-17 -6.5233)
(4.7538e-17 1.11274e-16 -6.70361)
(-2.32876e-17 1.65208e-16 -6.98508)
(-8.71138e-18 2.38086e-16 -7.3072)
(1.80867e-16 -5.72868e-16 -7.69652)
(4.36997e-17 -2.90269e-16 -8.15871)
(1.83809e-17 2.2532e-16 -8.67381)
(-8.19227e-17 -1.04613e-16 -9.23729)
(-1.73394e-16 2.12426e-16 -9.83026)
(-4.42433e-17 -2.77088e-17 -10.4576)
(-1.61206e-16 1.95603e-16 -11.1137)
(-3.06256e-17 -1.37626e-16 -11.7683)
(1.91832e-16 -1.80602e-16 -12.4506)
(-4.33852e-17 3.08769e-17 -13.1316)
(-1.01946e-16 3.84784e-16 -13.82)
(-1.21282e-16 1.87988e-16 -14.5076)
(-6.48922e-17 2.43995e-16 -15.1964)
(-2.92381e-17 1.24042e-16 -15.8822)
(-3.72043e-17 -9.06885e-18 -16.5548)
(-4.24948e-18 -4.33181e-17 -17.2171)
(2.95023e-18 -3.37512e-17 -17.8252)
(6.58648e-18 -5.41864e-17 -18.4012)
(-9.78304e-18 -3.45402e-17 -18.8835)
(1.9095e-17 -1.12472e-17 -19.2518)
(-3.70198e-17 -1.36853e-16 -19.4835)
(1.08286e-17 5.13516e-17 -19.5397)
(1.62546e-17 4.40759e-16 -19.4419)
(9.08957e-17 1.9806e-16 -19.1467)
(-2.35921e-18 3.27255e-17 -18.71)
(9.54803e-18 -1.00383e-17 -18.1076)
(-3.54422e-17 4.24807e-17 -17.3984)
(8.24388e-17 1.69179e-16 -16.5928)
(1.78368e-17 -1.01404e-16 -15.7168)
(-6.18269e-17 -2.42822e-16 -14.818)
(4.34781e-17 2.39318e-16 -13.8903)
(-8.00255e-17 -2.41146e-16 -12.9719)
(-7.44571e-17 1.11596e-16 -12.0736)
(3.50492e-18 -5.86951e-17 -11.1991)
(1.63366e-17 -1.45053e-16 -10.3637)
(-4.25802e-18 -2.52776e-17 -9.57253)
(8.79822e-17 -2.26443e-16 -8.82462)
(8.42799e-17 -9.71803e-17 -8.12475)
(-2.69495e-16 2.53657e-16 -7.4746)
(-3.44246e-17 3.13633e-17 -6.87197)
(4.23554e-17 -1.63347e-16 -6.31772)
(-6.6558e-17 1.11306e-16 -5.8109)
(-5.78265e-20 -7.1117e-17 -5.3489)
(-1.45674e-16 1.50725e-16 -4.93248)
(1.49853e-16 3.03544e-16 -4.55928)
(1.07856e-17 6.38349e-17 -4.22424)
(-4.41197e-17 -1.53553e-16 -3.92951)
(-1.72624e-16 -2.60845e-18 -3.66984)
(-2.57692e-17 1.36011e-17 -3.43988)
(1.38708e-18 5.24564e-19 -3.24087)
(2.79914e-17 -1.10047e-17 -3.06765)
(-3.86903e-18 -3.22157e-17 -2.9153)
(-4.98323e-17 8.34986e-18 -2.78783)
(-2.07832e-18 2.9356e-17 -2.67569)
(2.40449e-17 -1.32254e-17 -2.58615)
(-7.62842e-17 -1.18606e-17 -2.51037)
(-4.46057e-17 1.39417e-18 -2.45512)
(-2.10312e-18 2.33727e-17 -2.4128)
(1.10583e-17 -3.90247e-18 -2.39032)
(-1.09391e-17 9.1637e-18 -2.38143)
(7.28053e-18 -1.08546e-18 -2.38992)
(5.45479e-20 -1.05057e-18 -2.41396)
(9.80226e-22 1.16474e-17 -2.45316)
(-2.34802e-17 1.87707e-17 -2.50897)
(8.99478e-19 2.43061e-17 -2.57954)
(-2.3413e-17 -6.68265e-17 -2.66595)
(-2.21823e-17 -4.58897e-17 -2.7676)
(4.50546e-17 1.03001e-16 -2.88469)
(-1.85097e-18 -2.85855e-17 -3.01751)
(5.98424e-19 -6.64524e-19 -3.16628)
(4.26854e-19 3.00342e-17 -3.33271)
(-3.42057e-17 1.74559e-17 -3.5147)
(4.70208e-17 4.83197e-18 -3.71935)
(1.37479e-18 -2.61353e-17 -3.94)
(-5.95938e-17 -2.01019e-16 -4.18466)
(1.06489e-16 -5.82572e-17 -4.4534)
(4.83623e-17 3.90188e-16 -4.74449)
(-1.23164e-16 -5.01722e-17 -5.06425)
(1.82844e-16 -2.11811e-16 -5.41302)
(-1.92266e-18 -1.15433e-16 -5.78864)
(-1.32955e-16 2.57539e-16 -6.19587)
(-1.52364e-16 2.47632e-16 -6.63548)
(-1.69944e-16 6.43254e-17 -7.10279)
(1.6994e-16 8.70266e-17 -7.60084)
(-3.35497e-17 2.9925e-17 -8.12666)
(4.9183e-17 8.61403e-17 -8.67709)
(-2.15464e-16 3.39151e-16 -9.25067)
(-2.36291e-16 2.29953e-16 -9.84335)
(-1.83858e-16 1.95749e-16 -10.4435)
(-5.7292e-18 7.51784e-19 -11.058)
(-2.63778e-16 3.66352e-16 -11.6786)
(-2.61303e-17 -1.15493e-16 -12.2816)
(-8.44906e-17 1.88181e-16 -12.8896)
(-3.44142e-17 3.91124e-17 -13.4826)
(-2.04848e-17 -4.62987e-17 -14.0402)
(-1.25394e-16 2.81017e-16 -14.5998)
(3.1793e-17 -6.47409e-17 -15.1168)
(-1.12943e-16 3.38743e-16 -15.6155)
(1.98132e-16 -6.2391e-16 -16.0869)
(1.40907e-16 -5.37943e-16 -16.5316)
(6.7145e-17 -2.8875e-16 -16.9563)
(5.59352e-18 6.72892e-18 -17.3593)
(-8.52646e-18 9.47509e-17 -17.7368)
(2.51399e-18 4.27513e-18 -18.0943)
(1.61085e-18 -3.71897e-17 -18.4047)
(-4.43596e-18 1.1894e-16 -18.6776)
(1.48966e-18 -6.60528e-17 -18.8635)
(3.12816e-18 1.36205e-16 -18.9487)
(-9.70878e-18 -1.02135e-16 -18.9088)
(2.70427e-18 -2.97837e-18 -18.7103)
(3.90773e-17 2.22894e-16 -18.3516)
(-1.7877e-17 -9.17883e-17 -17.8049)
(3.36648e-17 1.44176e-16 -17.0876)
(8.15411e-18 4.08359e-17 -16.2028)
(-4.7192e-17 -1.87035e-16 -15.1815)
(9.45301e-18 3.03566e-17 -14.0491)
(-2.23688e-19 -1.87737e-18 -12.863)
(-2.71031e-17 -8.568e-17 -11.7033)
(-2.30669e-18 4.54118e-18 -10.6397)
(3.21466e-18 -1.35639e-19 -9.77225)
(9.40327e-19 -1.52131e-18 -9.15342)
(-2.39392e-18 -2.42088e-17 -8.74112)
(-4.71537e-19 9.35624e-19 -8.4936)
(8.12898e-19 -3.21971e-18 -8.38034)
(-1.00485e-19 1.72039e-17 -8.35983)
(-2.84522e-18 -1.70063e-17 -8.38961)
(-2.39247e-18 -2.02527e-17 -8.44082)
(1.00125e-18 -2.61458e-18 -8.49437)
(2.36242e-18 2.21563e-17 -8.54219)
(-6.91233e-19 -5.25479e-18 -8.58532)
(-1.90539e-18 -2.44029e-17 -8.62573)
(1.9076e-18 2.62836e-17 -8.664)
(4.15101e-19 2.98107e-18 -8.70007)
(-2.00159e-18 2.8274e-18 -8.73369)
(1.76698e-18 -7.77825e-19 -8.76451)
(1.41339e-19 -2.77446e-17 -8.79206)
(8.70905e-20 2.90374e-17 -8.81584)
(-2.08208e-19 -6.21062e-19 -8.83538)
(4.90704e-19 4.06347e-18 -8.85023)
(-3.12241e-19 -1.41113e-19 -8.86004)
(1.70505e-20 -4.31984e-18 -8.86457)
(2.22731e-19 -1.4442e-17 -8.86366)
(-5.1931e-19 1.49677e-17 -8.85726)
(2.47507e-20 2.93866e-18 -8.84543)
(-5.7839e-20 -4.12708e-18 -8.82834)
(-5.61544e-20 1.93966e-19 -8.80622)
(2.09339e-20 1.43943e-17 -8.77939)
(-5.51552e-20 -1.46732e-17 -8.74821)
(-1.17968e-19 -3.90478e-18 -8.71308)
(2.50745e-19 -7.05422e-18 -8.67445)
(-1.34915e-19 7.12836e-18 -8.63276)
(3.94055e-20 -7.04953e-18 -8.58846)
(-8.96826e-20 7.06335e-18 -8.54197)
(-7.27474e-21 3.00336e-18 -8.49367)
(-7.63839e-20 3.41481e-18 -8.4439)
(2.14924e-20 -1.73566e-18 -8.39285)
(9.63068e-20 -5.46201e-18 -8.33898)
(-1.93605e-21 6.70102e-21 -8.28453)
(0 -0 2.35069)
(0 -0 2.34934)
(1.40734e-20 -1.59008e-18 2.12611)
(5.89217e-19 -2.84104e-18 1.53317)
(-6.15381e-19 6.01046e-18 0.779367)
(7.75444e-20 -4.6439e-18 -0.201356)
(4.22149e-18 -6.21422e-18 -1.13315)
(-7.64476e-18 1.53821e-17 -1.98493)
(2.65149e-18 1.2242e-19 -2.73798)
(1.51357e-18 -1.84636e-17 -3.39236)
(-8.90259e-19 1.52754e-17 -3.88883)
(6.64485e-18 -3.03759e-18 -4.29184)
(-1.264e-17 -6.01519e-18 -4.62474)
(1.37096e-17 -1.77119e-17 -4.89356)
(-1.39905e-17 1.82116e-17 -5.11144)
(5.36683e-18 2.89212e-17 -5.29078)
(1.61116e-18 -2.94205e-17 -5.44055)
(-6.42279e-19 6.01481e-18 -5.56707)
(3.34411e-19 -5.9658e-18 -5.67533)
(6.41456e-18 -1.07685e-17 -5.76933)
(-7.86588e-18 2.27116e-17 -5.85186)
(1.12595e-18 -5.97725e-18 -5.92502)
(-1.30602e-17 1.18782e-17 -5.99046)
(1.34159e-17 8.32853e-18 -6.04936)
(1.88641e-18 -6.37841e-17 -6.10257)
(-4.06802e-18 6.73335e-17 -6.15063)
(-7.1264e-19 1.88897e-17 -6.19384)
(1.89045e-18 -3.61461e-17 -6.2322)
(-9.47525e-18 -4.80869e-17 -6.26545)
(8.07045e-18 6.53959e-17 -6.29303)