/*--------------------------------*- C++ -*----------------------------------*\
| =========                 |                                                 |
| \\      /  F ield         | OpenFOAM: The Open Source CFD Toolbox           |
|  \\    /   O peration     | Version:  2506                                  |
|   \\  /    A nd           | Website:  www.openfoam.com                      |
|    \\/     M anipulation  |                                                 |
\*---------------------------------------------------------------------------*/
FoamFile
{
    version     2.0;
    format      ascii;
    arch        "LSB;label=32;scalar=64";
    class       volScalarField;
    location    "1";
    object      p;
}
// * * * * * * * * * * * * * * * * * * * * * * * * * * * * * * * * * * * * * //

dimensions      [0 2 -2 0 0 0 0];

internalField   nonuniform List<scalar> 
4000
(
0.004544
0.00446853
0.00441874
0.00438853
0.00436356
0.00434044
0.00431864
0.00429761
0.00427697
0.00425653
0.00423624
0.00421607
0.004196
0.00417602
0.00415613
0.00413634
0.00411663
0.00409702
0.00407752
0.00405812
0.00403883
0.00401968
0.00400068
0.00398184
0.0039632
0.00394476
0.00392658
0.0039087
0.00389115
0.00387401
0.00385736
0.00384132
0.00382605
0.00381161
0.00379909
0.00378823
0.00377724
0.00376543
0.00375255
0.00373803
0.00372115
0.00370023
0.0036755
0.00364805
0.00361786
0.00358513
0.00354994
0.00351221
0.00347269
0.00343121
0.00338808
0.00334396
0.00329858
0.0032532
0.00320721
0.00316193
0.00311714
0.00307329
0.00303137
0.00299005
0.00295146
0.0029142
0.00287881
0.00284534
0.00281307
0.00278274
0.00275336
0.0027255
0.00269851
0.00267264
0.00264772
0.00262354
0.00260032
0.00257784
0.00255616
0.00253532
0.00251528
0.00249603
0.00247761
0.00245998
0.00244314
0.00242706
0.00241171
0.00239708
0.00238313
0.00236981
0.00235711
0.00234503
0.0023335
0.00232252
0.00231209
0.00230214
0.00229268
0.00228369
0.00227511
0.00226694
0.00225912
0.00225165
0.00224443
0.00223749
0.00223071
0.00222409
0.00221751
0.00221093
0.00220432
0.00219757
0.00219066
0.00218344
0.00217589
0.00216789
0.00215937
0.00215022
0.00214039
0.00212973
0.00211825
0.00210576
0.00209225
0.00207764
0.00206183
0.00204485
0.00202665
0.00200718
0.00198648
0.00196455
0.00194134
0.00191692
0.00189127
0.00186442
0.00183637
0.00180711
0.00177657
0.00174488
0.00171196
0.00167763
0.00164216
0.00160543
0.00156711
0.00152795
0.00148734
0.00144581
0.00140334
0.00136021
0.00131673
0.00127336
0.00123005
0.00118814
0.00114652
0.00110728
0.00106946
0.00103357
0.00100006
0.000967914
0.000938358
0.00091004
0.00088391
0.000858877
0.000835725
0.000813814
0.000793568
0.000775099
0.000760493
0.000745448
0.000730839
0.000716632
0.000702838
0.000688774
0.000674259
0.000658103
0.000640845
0.000622966
0.000604459
0.000585329
0.000565616
0.000545375
0.000524682
0.000503625
0.000482298
0.000460798
0.000439209
0.000417604
0.000396045
0.000374572
0.000353231
0.000332049
0.000311041
0.000290215
0.000269567
0.000249085
0.000228755
0.000208554
0.000188459
0.000168452
0.000148509
0.000128611
0.000108741
8.88876e-05
6.90456e-05
4.91997e-05
2.93572e-05
9.61279e-06
0.0044952
0.0044521
0.0044149
0.00438822
0.00436473
0.00434194
0.00432004
0.00429889
0.00427817
0.00425769
0.00423738
0.0042172
0.00419714
0.00417718
0.00415733
0.00413756
0.0041179
0.00409833
0.00407886
0.00405951
0.00404027
0.00402117
0.00400221
0.00398341
0.0039648
0.00394641
0.00392826
0.00391039
0.00389285
0.0038757
0.00385902
0.00384289
0.00382744
0.0038127
0.00379927
0.00378689
0.00377414
0.00376055
0.00374582
0.00372936
0.00371052
0.00368799
0.00366218
0.00363397
0.00360328
0.00357028
0.0035351
0.00349771
0.00345881
0.00341827
0.00337643
0.00333382
0.00329032
0.00324687
0.00320314
0.00316005
0.00311758
0.00307588
0.00303575
0.00299635
0.00295917
0.00292325
0.00288892
0.0028563
0.00282485
0.00279507
0.00276623
0.00273876
0.00271214
0.0026865
0.00266172
0.00263765
0.00261443
0.00259192
0.00257014
0.00254914
0.00252888
0.00250936
0.00249063
0.00247266
0.00245543
0.00243895
0.00242318
0.0024081
0.00239369
0.00237991
0.00236674
0.00235416
0.00234213
0.00233063
0.00231965
0.00230915
0.00229912
0.00228953
0.00228036
0.00227158
0.00226314
0.00225503
0.00224716
0.00223954
0.00223209
0.00222478
0.00221755
0.00221033
0.00220305
0.00219562
0.00218798
0.00218003
0.0021717
0.00216289
0.00215352
0.00214348
0.00213271
0.00212108
0.00210857
0.00209502
0.00208045
0.00206479
0.00204798
0.00203002
0.00201087
0.00199051
0.00196897
0.00194626
0.00192235
0.0018973
0.00187111
0.00184378
0.00181533
0.00178575
0.001755
0.00172317
0.00169019
0.00165595
0.00162066
0.00158424
0.00154651
0.00150802
0.00146837
0.00142799
0.00138695
0.0013455
0.00130394
0.00126263
0.0012216
0.00118186
0.00114273
0.00110554
0.00106964
0.00103534
0.00100309
0.000972162
0.000943448
0.000915946
0.000890351
0.000865788
0.000842875
0.00082113
0.000800807
0.000781797
0.000765794
0.000749574
0.000733785
0.000718407
0.000703343
0.000688172
0.000672647
0.000655989
0.000638537
0.000620576
0.000602053
0.000582951
0.000563297
0.000543139
0.000522546
0.000501601
0.000480393
0.000459009
0.00043753
0.000416027
0.000394562
0.000373189
0.000351953
0.000330865
0.000309943
0.000289196
0.000268623
0.000248215
0.000227965
0.000207847
0.000187839
0.000167917
0.00014806
0.000128247
0.000108461
8.86914e-05
6.89246e-05
4.91593e-05
2.93779e-05
9.61841e-06
0.00447137
0.00444265
0.00441253
0.00438807
0.00436524
0.00434288
0.00432115
0.0043
0.00427924
0.00425873
0.00423839
0.00421821
0.00419814
0.00417819
0.00415834
0.00413859
0.00411894
0.00409939
0.00407995
0.00406061
0.0040414
0.00402231
0.00400337
0.00398459
0.00396599
0.0039476
0.00392944
0.00391155
0.00389398
0.00387677
0.00385997
0.00384367
0.00382795
0.00381278
0.00379848
0.00378479
0.00377064
0.00375559
0.0037393
0.00372119
0.00370074
0.00367708
0.00365066
0.00362207
0.00359125
0.00355833
0.00352349
0.00348677
0.00344875
0.00340937
0.00336891
0.00332787
0.00328622
0.00324461
0.00320292
0.00316173
0.00312109
0.00308117
0.00304254
0.00300464
0.00296846
0.00293344
0.00289978
0.0028676
0.00283657
0.00280698
0.00277834
0.00275094
0.0027244
0.00269878
0.00267401
0.00264993
0.00262664
0.00260404
0.00258212
0.00256093
0.00254044
0.00252066
0.00250162
0.00248331
0.00246572
0.00244885
0.00243268
0.00241719
0.00240235
0.00238815
0.00237455
0.00236152
0.00234905
0.0023371
0.00232566
0.00231468
0.00230417
0.00229409
0.0022844
0.00227511
0.00226615
0.00225753
0.00224917
0.00224105
0.00223309
0.00222526
0.00221749
0.00220971
0.00220187
0.00219385
0.0021856
0.00217702
0.00216803
0.00215852
0.00214841
0.0021376
0.00212602
0.00211356
0.00210019
0.00208579
0.00207036
0.00205385
0.0020362
0.00201742
0.0019975
0.00197643
0.00195423
0.00193092
0.00190649
0.00188097
0.00185438
0.00182672
0.00179801
0.00176824
0.0017374
0.00170555
0.00167265
0.00163865
0.00160369
0.00156775
0.00153075
0.00149307
0.00145451
0.00141538
0.00137582
0.00133602
0.00129625
0.00125681
0.00121778
0.00117976
0.00114237
0.00110658
0.00107201
0.00103884
0.00100743
0.000977271
0.000949013
0.000921932
0.00089654
0.0008722
0.000849322
0.000827543
0.000807071
0.000787529
0.000770242
0.000752922
0.000736079
0.000719671
0.000703589
0.000687458
0.000671146
0.000654072
0.000636451
0.000618426
0.000599897
0.000580824
0.000561223
0.000541139
0.000520632
0.000499783
0.000478676
0.000457395
0.000436021
0.000414623
0.00039326
0.000371982
0.000350813
0.000329795
0.000308945
0.00028827
0.000267769
0.000247437
0.000227251
0.000207203
0.000187269
0.000167424
0.000147646
0.000127914
0.000108209
8.85146e-05
6.88202e-05
4.91157e-05
2.93824e-05
9.59454e-06
0.00445984
0.00443603
0.00440966
0.00438702
0.00436519
0.00434322
0.00432178
0.00430079
0.00428009
0.00425959
0.00423927
0.00421909
0.00419903
0.00417908
0.00415924
0.0041395
0.00411985
0.00410031
0.00408088
0.00406155
0.00404234
0.00402326
0.00400431
0.00398552
0.00396689
0.00394846
0.00393025
0.00391228
0.0038946
0.00387724
0.00386025
0.00384366
0.00382755
0.00381181
0.00379671
0.00378197
0.00376662
0.00375029
0.00373268
0.00371326
0.00369167
0.00366725
0.00364041
0.0036116
0.0035808
0.00354815
0.00351383
0.00347794
0.0034409
0.00340278
0.00336383
0.00332442
0.00328458
0.00324476
0.00320495
0.00316553
0.00312658
0.00308822
0.00305086
0.00301416
0.00297876
0.00294438
0.00291117
0.00287925
0.00284839
0.00281884
0.00279023
0.00276279
0.0027362
0.00271052
0.00268567
0.00266151
0.00263812
0.00261539
0.00259333
0.00257196
0.00255126
0.00253124
0.00251193
0.00249332
0.0024754
0.00245819
0.00244166
0.0024258
0.00241059
0.002396
0.002382
0.00236858
0.0023557
0.00234333
0.00233145
0.00232003
0.00230906
0.00229851
0.00228834
0.00227856
0.0022691
0.00225998
0.0022511
0.00224247
0.00223399
0.00222565
0.00221735
0.00220903
0.00220063
0.00219202
0.00218317
0.00217395
0.00216427
0.00215404
0.00214317
0.00213156
0.00211915
0.00210584
0.00209161
0.00207635
0.00206006
0.00204272
0.00202429
0.00200478
0.00198419
0.00196251
0.00193977
0.001916
0.00189118
0.00186536
0.00183853
0.00181072
0.00178193
0.00175217
0.00172144
0.00168977
0.00165717
0.00162359
0.00158918
0.00155394
0.00151782
0.00148114
0.00144378
0.001406
0.00136792
0.00132973
0.00129162
0.00125384
0.00121647
0.00117988
0.00114394
0.00110926
0.00107565
0.00104322
0.00101231
0.000982556
0.000954458
0.000927507
0.000902087
0.000877801
0.000854776
0.000832785
0.000812067
0.000792055
0.00077393
0.00075568
0.000737893
0.000720562
0.000703619
0.000686712
0.000669825
0.000652389
0.000634586
0.000616492
0.000597943
0.000578875
0.000559297
0.000539249
0.000518789
0.000497993
0.000476947
0.000455733
0.00043443
0.000413104
0.000391814
0.000370606
0.000349516
0.000328577
0.000307805
0.000287208
0.000266788
0.000246535
0.000226437
0.000206476
0.00018663
0.000166873
0.000147182
0.000127536
0.000107913
8.82969e-05
6.8674e-05
4.9029e-05
2.93442e-05
9.55647e-06
0.00445269
0.00443056
0.00440659
0.00438542
0.0043646
0.00434334
0.00432223
0.0043014
0.00428082
0.00426039
0.0042401
0.00421993
0.00419988
0.00417994
0.00416009
0.00414035
0.00412071
0.00410117
0.00408173
0.00406239
0.00404317
0.00402406
0.00400508
0.00398625
0.00396756
0.00394906
0.00393075
0.00391265
0.00389481
0.00387723
0.00385996
0.00384302
0.00382644
0.00381009
0.00379421
0.00377852
0.00376209
0.0037446
0.00372582
0.0037053
0.0036828
0.00365778
0.00363063
0.00360172
0.00357107
0.00353882
0.00350515
0.00347018
0.00343422
0.00339743
0.00336005
0.00332227
0.00328419
0.00324614
0.00320812
0.00317039
0.00313304
0.00309614
0.00305998
0.00302436
0.00298972
0.00295593
0.00292311
0.0028914
0.00286065
0.00283107
0.0028024
0.00277482
0.0027481
0.00272226
0.00269726
0.00267295
0.0026494
0.00262651
0.00260428
0.00258271
0.0025618
0.00254154
0.00252196
0.00250305
0.00248482
0.00246728
0.0024504
0.00243419
0.00241862
0.00240366
0.0023893
0.0023755
0.00236222
0.00234944
0.00233715
0.0023253
0.00231387
0.00230287
0.00229222
0.00228195
0.00227199
0.00226236
0.00225295
0.00224381
0.00223479
0.00222591
0.00221706
0.00220816
0.00219917
0.00218994
0.00218043
0.00217051
0.00216009
0.00214909
0.0021374
0.00212496
0.00211168
0.0020975
0.00208239
0.00206628
0.00204917
0.00203105
0.0020119
0.00199173
0.00197056
0.00194838
0.00192523
0.00190111
0.00187604
0.00185004
0.00182312
0.00179529
0.00176656
0.00173695
0.00170646
0.00167513
0.00164294
0.00160993
0.0015762
0.00154176
0.00150663
0.00147103
0.00143492
0.0013985
0.00136189
0.00132522
0.00128866
0.00125238
0.00121646
0.00118117
0.00114646
0.0011127
0.00107985
0.00104799
0.0010174
0.000987861
0.000959778
0.000932787
0.000907221
0.000882786
0.000859493
0.000837216
0.000816169
0.000795673
0.000776935
0.000757888
0.000739261
0.000721114
0.000703437
0.000685873
0.000668508
0.000650721
0.000632713
0.000614523
0.000595922
0.000576821
0.00055723
0.000537187
0.000516747
0.000495987
0.00047499
0.000453838
0.000432605
0.000411358
0.000390153
0.000369034
0.000348039
0.000327195
0.000306518
0.000286017
0.000265692
0.000245536
0.000225535
0.000205669
0.000185917
0.000166253
0.000146654
0.000127097
0.00010756
8.80249e-05
6.84771e-05
4.88983e-05
2.9275e-05
9.51881e-06
0.00444785
0.00442641
0.0044039
0.0043839
0.00436392
0.00434326
0.00432251
0.00430191
0.00428148
0.00426115
0.00424089
0.00422075
0.00420071
0.00418077
0.00416092
0.00414117
0.00412152
0.00410196
0.0040825
0.00406313
0.00404387
0.00402472
0.00400569
0.00398678
0.00396801
0.00394939
0.00393093
0.00391266
0.0038946
0.00387676
0.00385916
0.0038418
0.0038247
0.00380774
0.00379109
0.0037745
0.00375708
0.00373856
0.00371875
0.0036973
0.00367405
0.00364858
0.00362124
0.00359235
0.00356196
0.00353021
0.00349729
0.0034633
0.00342853
0.00339309
0.00335721
0.00332103
0.00328465
0.00324827
0.00321194
0.00317581
0.00313996
0.00310443
0.00306943
0.00303486
0.00300099
0.00296778
0.00293538
0.00290388
0.00287323
0.0028436
0.00281483
0.00278706
0.00276013
0.00273407
0.00270884
0.00268431
0.00266055
0.00263744
0.00261499
0.0025932
0.00257205
0.00255153
0.00253168
0.00251248
0.00249393
0.00247606
0.00245885
0.00244229
0.00242638
0.00241107
0.00239634
0.00238218
0.00236853
0.00235537
0.00234268
0.00233042
0.00231856
0.0023071
0.00229597
0.00228523
0.00227476
0.00226461
0.00225467
0.00224498
0.0022354
0.00222594
0.00221649
0.00220697
0.00219733
0.00218741
0.00217719
0.00216651
0.0021553
0.00214347
0.00213094
0.00211762
0.00210348
0.00208842
0.00207248
0.00205556
0.00203769
0.00201888
0.0019991
0.00197838
0.00195675
0.00193419
0.00191074
0.00188642
0.00186122
0.00183517
0.00180828
0.00178055
0.001752
0.00172266
0.00169253
0.00166161
0.00162997
0.00159761
0.00156464
0.00153108
0.00149696
0.00146247
0.0014276
0.0013925
0.00135728
0.00132204
0.0012869
0.00125198
0.00121735
0.00118321
0.00114954
0.00111659
0.00108436
0.00105294
0.00102259
0.000993144
0.000964976
0.000937814
0.000911984
0.000887216
0.000863577
0.000840913
0.000819499
0.000798506
0.000779249
0.000759523
0.000740174
0.000721338
0.000703053
0.000684931
0.000667131
0.000648988
0.000630736
0.000612394
0.00059368
0.000574489
0.000554837
0.000534765
0.000514327
0.000493598
0.00047266
0.000451589
0.000430455
0.000409319
0.000388235
0.000367243
0.000346375
0.000325657
0.000305104
0.000284721
0.00026451
0.000244463
0.000224565
0.000204798
0.00018514
0.000165567
0.000146057
0.000126586
0.000107134
8.76831e-05
6.82162e-05
4.87151e-05
2.91723e-05
9.47943e-06
0.00444454
0.00442343
0.0044018
0.0043826
0.00436325
0.00434309
0.00432269
0.00430235
0.00428208
0.00426183
0.00424165
0.00422155
0.00420151
0.00418157
0.00416172
0.00414196
0.00412228
0.00410269
0.00408319
0.00406379
0.00404447
0.00402526
0.00400614
0.00398713
0.00396824
0.00394947
0.00393084
0.00391235
0.00389403
0.00387587
0.00385789
0.00384008
0.00382244
0.00380485
0.00378746
0.00377
0.00375168
0.00373223
0.00371154
0.00368931
0.00366547
0.00363969
0.00361228
0.00358352
0.00355349
0.00352233
0.00349021
0.00345723
0.00342364
0.00338955
0.00335512
0.00332047
0.00328568
0.00325089
0.00321613
0.00318149
0.00314705
0.00311282
0.00307894
0.0030454
0.00301232
0.00297972
0.00294776
0.00291654
0.00288602
0.00285638
0.0028275
0.00279954
0.00277238
0.00274605
0.00272053
0.00269571
0.00267167
0.00264829
0.00262557
0.00260352
0.00258209
0.00256129
0.00254114
0.00252164
0.00250278
0.00248457
0.00246702
0.00245012
0.00243385
0.00241819
0.0024031
0.00238859
0.00237457
0.00236104
0.00234796
0.0023353
0.00232301
0.00231111
0.00229952
0.00228829
0.0022773
0.00226662
0.00225612
0.00224585
0.00223566
0.00222558
0.00221547
0.00220528
0.00219492
0.00218426
0.00217325
0.00216176
0.00214972
0.00213703
0.00212363
0.00210944
0.00209444
0.00207856
0.00206183
0.00204418
0.00202565
0.00200625
0.00198596
0.00196483
0.00194286
0.00192006
0.00189645
0.00187204
0.00184684
0.00182086
0.0017941
0.00176659
0.00173832
0.00170936
0.00167964
0.00164924
0.00161823
0.00158659
0.00155441
0.00152175
0.00148866
0.00145526
0.00142158
0.00138774
0.00135381
0.00131987
0.00128602
0.00125233
0.00121886
0.00118574
0.00115298
0.00112074
0.00108906
0.001058
0.00102782
0.000998413
0.000970089
0.000942666
0.000916467
0.000891251
0.000867199
0.000844039
0.000822187
0.000800688
0.000780935
0.000760637
0.000740686
0.000721282
0.000702494
0.000683883
0.00066565
0.000647128
0.000628575
0.000609996
0.000591085
0.000571734
0.00055197
0.000531838
0.000511392
0.000490704
0.000469851
0.0004489
0.000427912
0.00040694
0.000386029
0.000365215
0.000344523
0.000323973
0.000303577
0.000283339
0.00026326
0.000243331
0.00022354
0.00020387
0.000184301
0.000164813
0.000145384
0.000125994
0.000106625
8.72586e-05
6.78804e-05
4.84718e-05
2.90317e-05
9.43365e-06
0.0044423
0.0044214
0.00440028
0.00438161
0.00436271
0.00434293
0.00432282
0.00430271
0.00428259
0.00426245
0.00424233
0.00422227
0.00420226
0.00418233
0.00416247
0.00414269
0.00412299
0.00410336
0.00408382
0.00406436
0.00404498
0.00402568
0.00400647
0.00398734
0.0039683
0.00394935
0.00393051
0.00391178
0.00389316
0.00387465
0.00385626
0.00383797
0.00381977
0.00380155
0.00378343
0.00376514
0.00374599
0.00372574
0.00370429
0.00368143
0.00365714
0.00363117
0.00360379
0.00357524
0.00354564
0.00351512
0.00348383
0.00345187
0.00341945
0.00338665
0.0033536
0.00332039
0.00328709
0.00325376
0.00322046
0.00318722
0.00315409
0.00312109
0.00308828
0.00305576
0.0030235
0.00299153
0.0029601
0.00292923
0.00289892
0.00286933
0.00284042
0.00281229
0.00278492
0.00275831
0.00273249
0.00270735
0.00268298
0.00265928
0.00263623
0.00261385
0.00259211
0.00257099
0.00255051
0.00253068
0.00251147
0.00249292
0.002475
0.00245773
0.0024411
0.00242506
0.0024096
0.00239471
0.00238031
0.00236639
0.00235292
0.00233984
0.00232712
0.00231477
0.0023027
0.00229096
0.00227944
0.0022682
0.00225711
0.00224623
0.00223539
0.00222463
0.00221381
0.00220287
0.00219174
0.00218027
0.00216844
0.0021561
0.00214319
0.00212964
0.00211537
0.00210035
0.00208454
0.00206791
0.00205048
0.00203221
0.00201314
0.00199328
0.00197262
0.00195121
0.00192904
0.00190612
0.00188247
0.00185809
0.001833
0.00180718
0.00178067
0.00175345
0.00172555
0.001697
0.00166777
0.00163797
0.00160761
0.00157671
0.00154535
0.0015136
0.0014815
0.00144915
0.00141661
0.00138393
0.00135119
0.00131845
0.00128576
0.00125317
0.00122074
0.00118853
0.0011566
0.00112502
0.00109382
0.00106308
0.00103306
0.00100367
0.000975158
0.000947434
0.000920809
0.000895075
0.000870507
0.000846796
0.000824428
0.000802412
0.000782126
0.000761335
0.000740881
0.000720995
0.000701757
0.000682688
0.000663988
0.000645053
0.000626136
0.000607226
0.000588027
0.000568449
0.00054853
0.000528322
0.000507875
0.000487255
0.000466529
0.000445751
0.000424966
0.000404219
0.000383545
0.000362966
0.0003425
0.000322161
0.000301955
0.000281887
0.000261954
0.000242152
0.000222468
0.000202891
0.000183404
0.000163991
0.000144635
0.000125319
0.000106029
8.67506e-05
6.74698e-05
4.81698e-05
2.88549e-05
9.38003e-06
0.00444089
0.00442012
0.00439931
0.00438097
0.00436238
0.00434285
0.00432297
0.00430303
0.00428303
0.00426298
0.00424293
0.0042229
0.00420292
0.004183
0.00416314
0.00414335
0.00412362
0.00410397
0.00408438
0.00406486
0.00404541
0.00402602
0.0040067
0.00398743
0.00396823
0.0039491
0.00393003
0.00391103
0.00389209
0.00387321
0.00385439
0.0038356
0.00381683
0.003798
0.00377917
0.00376008
0.00374017
0.00371922
0.00369712
0.00367375
0.00364912
0.00362305
0.00359578
0.00356752
0.00353838
0.00350853
0.00347808
0.00344713
0.00341583
0.00338426
0.00335251
0.00332064
0.0032887
0.00325673
0.00322476
0.0031928
0.00316089
0.00312905
0.0030973
0.00306574
0.00303432
0.00300307
0.00297218
0.00294175
0.00291175
0.00288234
0.00285347
0.00282526
0.00279774
0.0027709
0.00274479
0.00271934
0.00269462
0.00267056
0.00264715
0.00262441
0.0026023
0.00258082
0.00255997
0.00253976
0.00252018
0.00250123
0.00248291
0.00246523
0.00244818
0.00243173
0.00241585
0.00240054
0.00238571
0.00237135
0.00235744
0.00234391
0.00233073
0.0023179
0.00230532
0.00229305
0.00228097
0.00226913
0.00225741
0.00224587
0.00223433
0.00222284
0.00221126
0.00219953
0.00218758
0.00217527
0.00216258
0.00214938
0.00213561
0.00212122
0.00210614
0.00209035
0.00207383
0.00205655
0.00203855
0.0020198
0.00200033
0.00198015
0.00195927
0.0019377
0.00191545
0.00189253
0.00186894
0.0018447
0.00181979
0.00179422
0.001768
0.00174114
0.00171366
0.00168554
0.00165686
0.00162767
0.00159798
0.00156782
0.00153728
0.00150642
0.00147527
0.00144392
0.00141242
0.00138082
0.00134917
0.0013175
0.00128586
0.00125427
0.00122277
0.0011914
0.00116023
0.00112929
0.00109852
0.00106808
0.00103824
0.0010089
0.000980186
0.000952157
0.000925099
0.000898838
0.00087364
0.000849337
0.000826385
0.000803848
0.000782959
0.000761713
0.000740815
0.000720489
0.000700802
0.000681269
0.000662043
0.00064266
0.000623335
0.000604026
0.000584473
0.00056462
0.00054452
0.000524226
0.000503793
0.000483285
0.000462748
0.000442201
0.000421674
0.00040121
0.000380828
0.000360536
0.000340341
0.000320247
0.000300259
0.000280378
0.000260603
0.00024093
0.000221353
0.000201863
0.000182449
0.000163103
0.000143813
0.000124568
0.000105357
8.61697e-05
6.69957e-05
4.78196e-05
2.86494e-05
9.32229e-06
0.00444019
0.00441951
0.00439887
0.00438071
0.00436228
0.00434292
0.00432317
0.00430333
0.00428342
0.00426344
0.00424344
0.00422345
0.00420349
0.00418358
0.00416372
0.00414392
0.00412418
0.0041045
0.00408487
0.00406529
0.00404576
0.0040263
0.00400687
0.00398746
0.0039681
0.00394877
0.00392946
0.00391018
0.00389091
0.00387166
0.00385241
0.00383313
0.00381379
0.00379434
0.00377482
0.00375497
0.00373436
0.00371279
0.00369015
0.00366636
0.00364147
0.00361538
0.00358827
0.00356032
0.00353169
0.00350252
0.0034729
0.00344292
0.00341268
0.00338227
0.00335172
0.00332108
0.00329039
0.00325964
0.00322888
0.0031981
0.00316732
0.00313656
0.0031058
0.00307516
0.00304457
0.00301411
0.00298388
0.0029539
0.00292429
0.00289517
0.00286646
0.00283826
0.0028107
0.00278373
0.00275737
0.00273165
0.00270661
0.0026822
0.00265844
0.0026353
0.00261279
0.00259091
0.00256964
0.00254901
0.00252901
0.00250963
0.00249085
0.00247268
0.00245516
0.00243824
0.00242188
0.00240607
0.00239074
0.00237588
0.00236145
0.00234741
0.0023337
0.00232034
0.0023072
0.00229435
0.00228165
0.00226918
0.00225679
0.00224454
0.00223227
0.00222001
0.00220763
0.00219508
0.00218228
0.00216914
0.0021556
0.00214156
0.00212698
0.00211181
0.00209601
0.00207956
0.00206244
0.00204465
0.00202622
0.00200714
0.00198742
0.00196708
0.00194609
0.00192449
0.00190228
0.00187945
0.00185601
0.00183195
0.00180728
0.00178199
0.0017561
0.00172962
0.00170257
0.00167495
0.00164683
0.00161823
0.0015892
0.00155978
0.00153002
0.0015
0.00146975
0.00143933
0.00140879
0.00137817
0.0013475
0.00131681
0.00128611
0.00125543
0.00122477
0.00119418
0.00116372
0.00113334
0.00110305
0.00107294
0.00104324
0.00101398
0.000985098
0.000956814
0.00092935
0.00090255
0.0008767
0.000851774
0.00082816
0.000805087
0.00078352
0.000761821
0.000740497
0.000719723
0.000699543
0.00067955
0.000659783
0.000639916
0.000620128
0.000600381
0.00058048
0.000560382
0.000540117
0.000519704
0.000499252
0.000478885
0.000458612
0.000438366
0.000418144
0.000398006
0.000377958
0.000357988
0.000338091
0.000318264
0.000298507
0.000278821
0.000259208
0.000239665
0.000220191
0.000200783
0.000181439
0.000162155
0.000142927
0.000123752
0.000104623
8.55332e-05
6.64758e-05
4.74372e-05
2.84257e-05
9.26853e-06
0.00444013
0.00441952
0.00439893
0.00438083
0.00436245
0.00434314
0.00432344
0.00430365
0.00428378
0.00426384
0.00424386
0.0042239
0.00420397
0.00418407
0.00416422
0.00414442
0.00412467
0.00410496
0.0040853
0.00406567
0.00404608
0.00402653
0.00400699
0.00398746
0.00396794
0.00394842
0.00392888
0.00390932
0.00388972
0.0038701
0.00385044
0.00383068
0.00381077
0.00379073
0.00377053
0.00374997
0.00372871
0.00370657
0.00368346
0.00365933
0.00363424
0.00360817
0.00358124
0.00355363
0.00352552
0.00349702
0.00346821
0.00343915
0.00340992
0.00338057
0.00335112
0.00332159
0.00329202
0.00326238
0.00323272
0.00320301
0.00317326
0.00314349
0.00311367
0.00308392
0.00305414
0.00302445
0.00299488
0.0029655
0.0029364
0.00290762
0.00287911
0.00285106
0.00282359
0.00279657
0.00277006
0.00274414
0.00271885
0.00269414
0.00267004
0.00264652
0.00262361
0.0026013
0.00257958
0.00255849
0.00253804
0.0025182
0.0024989
0.00248017
0.00246208
0.00244461
0.0024277
0.00241132
0.00239541
0.00237995
0.00236492
0.00235028
0.00233596
0.00232198
0.00230821
0.00229471
0.00228136
0.0022682
0.0022551
0.00224211
0.00222908
0.00221603
0.00220284
0.00218946
0.00217583
0.00216185
0.00214751
0.00213272
0.00211744
0.0021016
0.00208519
0.00206821
0.00205067
0.00203253
0.00201381
0.00199451
0.00197468
0.0019543
0.00193333
0.00191178
0.00188968
0.001867
0.00184374
0.00181991
0.0017955
0.00177052
0.00174497
0.00171887
0.00169224
0.00166511
0.00163752
0.00160951
0.00158112
0.0015524
0.00152339
0.00149415
0.00146473
0.00143517
0.00140551
0.00137578
0.00134599
0.00131619
0.00128634
0.00125648
0.00122659
0.00119671
0.00116686
0.00113702
0.00110721
0.00107751
0.00104803
0.00101883
0.000989841
0.000961348
0.000933481
0.000906157
0.000879694
0.00085414
0.000829781
0.000806139
0.000783835
0.00076166
0.000739896
0.000718658
0.000697967
0.000677477
0.000657242
0.000636968
0.000616593
0.00059628
0.000576077
0.000555764
0.00053536
0.00051495
0.000494623
0.000474441
0.000454376
0.000434392
0.000414507
0.000394727
0.00037503
0.000355389
0.000335801
0.000316241
0.000296712
0.00027722
0.000257764
0.000238346
0.000218971
0.000199644
0.000180368
0.000161148
0.000141986
0.000122885
0.000103845
8.48614e-05
6.5931e-05
4.70415e-05
2.81958e-05
9.22665e-06
0.00444072
0.00442015
0.00439952
0.00438134
0.00436289
0.00434353
0.00432379
0.00430398
0.0042841
0.00426417
0.00424421
0.00422426
0.00420435
0.00418447
0.00416463
0.00414484
0.00412508
0.00410536
0.00408568
0.00406602
0.00404637
0.00402674
0.00400711
0.00398747
0.0039678
0.0039481
0.00392835
0.00390853
0.00388863
0.00386866
0.00384857
0.00382832
0.0038079
0.0037873
0.00376646
0.00374521
0.00372333
0.00370067
0.00367713
0.0036527
0.00362746
0.00360141
0.00357467
0.00354742
0.00351983
0.00349199
0.00346394
0.00343576
0.00340745
0.00337907
0.00335061
0.00332208
0.00329351
0.00326486
0.00323618
0.00320742
0.00317861
0.00314976
0.00312081
0.00309191
0.00306291
0.00303398
0.0030051
0.00297634
0.00294775
0.00291936
0.00289125
0.00286349
0.00283613
0.00280917
0.00278257
0.00275656
0.00273113
0.00270619
0.00268178
0.00265791
0.00263462
0.00261191
0.00258973
0.00256816
0.00254724
0.00252688
0.00250706
0.00248774
0.00246902
0.00245091
0.00243334
0.00241629
0.00239971
0.00238359
0.00236788
0.00235255
0.00233754
0.00232285
0.0023084
0.00229418
0.00228011
0.00226621
0.00225237
0.00223861
0.00222481
0.00221097
0.002197
0.00218287
0.00216847
0.0021537
0.00213855
0.00212305
0.00210722
0.0020909
0.00207402
0.00205665
0.00203881
0.00202047
0.00200162
0.00198226
0.00196239
0.00194203
0.00192119
0.00189977
0.00187778
0.00185527
0.00183222
0.00180862
0.00178446
0.00175977
0.00173454
0.00170881
0.00168259
0.00165592
0.00162884
0.00160138
0.00157359
0.00154552
0.0015172
0.0014887
0.00146003
0.00143125
0.00140239
0.00137346
0.00134447
0.00131545
0.00128637
0.00125726
0.00122808
0.00119886
0.00116961
0.0011403
0.00111096
0.00108165
0.00105238
0.0010233
0.000994332
0.000965695
0.000937456
0.000909662
0.00088253
0.00085629
0.000831161
0.000806933
0.000783847
0.000761186
0.000739
0.000717309
0.000695997
0.000674921
0.000654215
0.000633559
0.000612858
0.000592222
0.00057164
0.000551089
0.000530615
0.000510236
0.000490023
0.000470012
0.000450183
0.000430505
0.000410958
0.000391516
0.000372142
0.000352804
0.000333516
0.000314206
0.00029489
0.00027558
0.000256273
0.000236974
0.000217695
0.000198446
0.00017924
0.000160087
0.000140997
0.000121977
0.000103033
8.41655e-05
6.53723e-05
4.66432e-05
2.79825e-05
9.21527e-06
0.00444202
0.00442146
0.00440065
0.00438224
0.0043636
0.00434406
0.0043242
0.00430431
0.00428439
0.00426443
0.00424447
0.00422454
0.00420464
0.00418479
0.00416497
0.00414519
0.00412545
0.00410573
0.00408604
0.00406635
0.00404667
0.00402698
0.00400727
0.00398752
0.00396773
0.00394787
0.00392793
0.00390788
0.00388771
0.0038674
0.00384692
0.00382624
0.00380532
0.00378419
0.00376273
0.00374082
0.00371835
0.00369518
0.00367122
0.0036465
0.00362113
0.00359514
0.00356854
0.00354164
0.00351457
0.00348736
0.00346003
0.00343266
0.00340519
0.00337768
0.0033501
0.00332246
0.00329477
0.003267
0.00323918
0.00321128
0.00318331
0.00315529
0.00312716
0.00309905
0.00307081
0.00304262
0.00301442
0.00298628
0.00295825
0.00293035
0.00290266
0.00287521
0.00284804
0.00282121
0.00279474
0.00276874
0.00274316
0.00271806
0.00269342
0.00266922
0.00264557
0.00262254
0.00260001
0.00257797
0.00255651
0.00253558
0.00251522
0.0024954
0.00247606
0.00245723
0.00243892
0.00242112
0.00240381
0.00238694
0.00237049
0.0023544
0.00233863
0.00232317
0.00230796
0.00229296
0.00227814
0.00226345
0.00224886
0.00223431
0.00221975
0.00220514
0.00219042
0.00217554
0.00216042
0.00214501
0.0021293
0.00211327
0.0020969
0.00208013
0.00206293
0.00204531
0.00202731
0.00200888
0.00198998
0.00197063
0.00195082
0.00193053
0.00190976
0.00188847
0.00186664
0.0018443
0.00182143
0.00179804
0.00177411
0.00174968
0.00172475
0.00169935
0.0016735
0.00164726
0.00162064
0.00159369
0.00156646
0.00153899
0.0015113
0.00148346
0.00145549
0.00142742
0.00139927
0.00137106
0.00134279
0.00131448
0.00128609
0.00125766
0.00122914
0.00120053
0.00117185
0.00114307
0.00111419
0.00108529
0.00105629
0.00102739
0.000998444
0.000969662
0.00094109
0.000912903
0.000885212
0.0008583
0.000832282
0.000807334
0.000783423
0.000760208
0.000737526
0.000715353
0.000693569
0.000672159
0.000651002
0.000629993
0.00060904
0.000588139
0.00056733
0.000546643
0.00052612
0.000505793
0.000485707
0.000465876
0.000446276
0.000426869
0.000407612
0.000388461
0.000369371
0.000350301
0.000331254
0.00031216
0.000293032
0.000273883
0.000254711
0.000235526
0.000216343
0.000197179
0.000178051
0.000158977
0.00013997
0.000121045
0.000102209
8.34677e-05
6.482e-05
4.62578e-05
2.77821e-05
9.2211e-06
0.00444414
0.00442353
0.00440236
0.00438353
0.00436453
0.00434472
0.00432465
0.00430462
0.00428463
0.00426464
0.00424466
0.00422475
0.00420488
0.00418505
0.00416527
0.00414552