/*--------------------------------*- C++ -*----------------------------------*\
| =========                 |                                                 |
| \\      /  F ield         | OpenFOAM: The Open Source CFD Toolbox           |
|  \\    /   O peration     | Version:  2506                                  |
|   \\  /    A nd           | Website:  www.openfoam.com                      |
|    \\/     M anipulation  |                                                 |
\*---------------------------------------------------------------------------*/
FoamFile
{
    version     2.0;
    format      ascii;
    arch        "LSB;label=32;scalar=64";
    class       volVectorField;
    location    "1";
    object      vorticityField;
}
// * * * * * * * * * * * * * * * * * * * * * * * * * * * * * * * * * * * * * //

dimensions      [0 0 -1 0 0 0 0];

internalField   nonuniform List<vector> 
4000
(
(-2.53086e-20 8.57847e-18 -32.7365)
(-9.2692e-18 -7.60615e-18 -35.7576)
(9.86135e-18 -2.78057e-17 -33.6358)
(3.76622e-17 4.34444e-17 -29.6219)
(-7.74232e-17 3.07275e-18 -26.6149)
(3.96599e-17 -3.79922e-17 -24.7102)
(-3.24085e-19 1.83083e-17 -23.3845)
(3.92156e-17 -0 -22.3873)
(-3.85371e-17 -3.6274e-17 -21.6109)
(7.71509e-17 3.36895e-17 -20.9847)
(-7.7213e-17 -3.31708e-17 -20.4619)
(-2.77026e-18 3.07463e-17 -20.0146)
(-9.79362e-19 7.7195e-17 -19.6255)
(8.11891e-17 -7.21859e-17 -19.2823)
(-3.7381e-19 -0 -18.9756)
(-1.53186e-16 -7.07493e-17 -18.6978)
(1.50519e-16 6.60307e-17 -18.4423)
(-7.94283e-17 7.55206e-17 -18.2031)
(3.7599e-18 -7.0802e-17 -17.9751)
(0 -0 -17.7531)
(0 -0 -17.5325)
(0 -0 -17.3085)
(9.33374e-18 -1.37553e-16 -17.0768)
(1.28006e-16 2.65907e-16 -16.8327)
(-2.94096e-16 1.78347e-17 -16.5714)
(1.67287e-16 -2.83335e-16 -16.2878)
(-1.05199e-17 1.37146e-16 -15.9759)
(0 -0 -15.629)
(0 -0 -15.2387)
(-1.18954e-17 1.344e-16 -14.7941)
(-2.82122e-16 -1.27302e-16 -14.2798)
(1.57364e-16 -1.41776e-16 -13.6773)
(2.99644e-16 1.74838e-17 -12.9563)
(7.24514e-18 -1.38585e-16 -11.9133)
(-8.78027e-17 7.84759e-16 -10.6998)
(-3.35447e-16 6.39867e-16 -10.053)
(-1.09135e-15 -1.14711e-15 -10.226)
(-9.46345e-18 5.61287e-18 -10.956)
(7.99177e-16 1.89589e-15 -12.1525)
(-7.97311e-16 -1.20516e-15 -13.8982)
(4.22202e-16 -2.45854e-15 -16.4843)
(1.21138e-15 2.32861e-15 -19.6365)
(-3.62896e-16 1.03071e-15 -22.7989)
(2.81228e-16 -1.10151e-15 -25.8345)
(1.31779e-15 9.22114e-16 -28.7409)
(-1.51327e-15 1.85136e-16 -31.5527)
(-1.37201e-15 4.22314e-16 -34.3139)
(-1.17452e-15 -1.1548e-15 -36.8539)
(-1.34068e-15 -1.3778e-15 -39.2262)
(-5.72105e-16 -1.46425e-15 -41.4002)
(7.61234e-16 -3.47268e-16 -43.277)
(-4.66317e-17 5.79079e-16 -44.9422)
(-7.13147e-16 -1.30542e-15 -46.2119)
(7.86911e-16 2.85886e-17 -47.2178)
(-1.07461e-16 1.25563e-15 -47.8193)
(-3.62856e-16 5.47774e-17 -48.0487)
(2.81407e-16 -1.05731e-16 -47.9395)
(9.21555e-17 -3.4018e-17 -47.3568)
(1.70957e-16 5.34211e-17 -46.5637)
(-8.24873e-17 -5.28853e-17 -45.3523)
(8.60631e-17 -2.37847e-17 -43.8041)
(3.42601e-16 7.73297e-18 -42.1366)
(-1.61248e-16 -7.64422e-17 -40.2459)
(-9.65595e-17 -7.5031e-16 -38.2995)
(5.85705e-17 -1.16435e-16 -36.283)
(-1.22535e-16 8.89984e-16 -34.2321)
(6.9259e-16 -1.50021e-16 -32.2472)
(2.84371e-17 -4.65329e-16 -30.2417)
(3.28638e-16 7.31258e-16 -28.3438)
(-8.50167e-16 8.69942e-16 -26.4637)
(-1.94888e-16 -6.44871e-16 -24.6795)
(-4.75197e-17 -2.48133e-16 -22.9641)
(-2.12187e-19 2.48462e-18 -21.2858)
(-1.06944e-15 6.78339e-16 -19.711)
(-1.03953e-15 7.37947e-16 -18.1938)
(-4.19557e-17 8.58841e-16 -16.7465)
(-8.648e-16 5.57489e-16 -15.3922)
(1.03043e-16 -8.91117e-16 -14.1166)
(-9.4412e-16 5.19305e-16 -12.9193)
(8.42242e-16 2.5322e-16 -11.8131)
(-1.5875e-15 4.5006e-16 -10.7915)
(-1.89398e-16 -8.07959e-16 -9.84904)
(4.6745e-17 -1.19615e-16 -8.98388)
(-9.80972e-17 3.87917e-17 -8.18939)
(7.5795e-16 1.16716e-15 -7.46102)
(-1.36748e-15 1.79314e-15 -6.79412)
(6.43904e-17 -1.62268e-15 -6.17972)
(-7.31925e-17 -8.03366e-16 -5.61573)
(-1.36212e-17 1.56433e-15 -5.10327)
(-5.64652e-16 3.64606e-16 -4.63401)
(2.16905e-18 5.85111e-18 -4.20943)
(-5.59863e-16 1.02999e-15 -3.83301)
(-2.5945e-16 -1.26807e-15 -3.49829)
(1.95593e-16 -4.20934e-16 -3.20941)
(9.55521e-18 6.54896e-16 -2.96593)
(8.39528e-17 -7.29681e-16 -2.76657)
(2.48929e-16 -1.08198e-16 -2.61448)
(3.18201e-17 3.46561e-17 -2.50549)
(-3.81403e-16 -5.82366e-17 -2.44004)
(6.01404e-17 3.14499e-16 -2.417)
(6.82135e-17 -4.73847e-18 -2.44479)
(2.01249e-17 -6.09919e-17 -2.52153)
(-1.11884e-17 1.96222e-16 -2.65341)
(-2.9258e-17 5.27586e-17 -2.83167)
(-4.28798e-17 -2.13589e-17 -3.0694)
(-7.80315e-19 -7.08363e-17 -3.3719)
(4.20559e-18 5.64731e-16 -3.74677)
(-2.16592e-16 -3.17104e-17 -4.20289)
(-2.67034e-16 -9.54374e-16 -4.74046)
(4.99666e-16 -1.37584e-16 -5.36819)
(-2.54697e-16 1.88254e-16 -6.09098)
(1.13075e-17 6.26788e-16 -6.9068)
(-2.6046e-16 -1.23229e-16 -7.82572)
(-2.50177e-16 -4.84739e-16 -8.82567)
(-7.61403e-18 -6.44402e-16 -9.93435)
(5.06785e-16 3.34806e-16 -11.1171)
(4.08393e-18 1.26589e-15 -12.3772)
(3.40182e-17 1.00434e-16 -13.7118)
(5.16785e-16 3.75094e-16 -15.0869)
(-5.32463e-16 -3.99448e-16 -16.4993)
(-6.2367e-16 -1.89629e-15 -17.9477)
(6.51103e-16 4.35561e-16 -19.4051)
(2.86168e-17 1.41785e-15 -20.8609)
(-5.97672e-16 -4.39177e-16 -22.3234)
(-1.1682e-16 -1.47715e-15 -23.7702)
(1.17392e-15 8.32112e-16 -25.2028)
(-4.04156e-16 4.23532e-16 -26.6184)
(5.69617e-16 -1.12502e-16 -28.011)
(6.32529e-16 9.10615e-16 -29.3915)
(8.88968e-18 9.05378e-16 -30.7816)
(-1.86363e-17 5.53246e-16 -32.1262)
(-5.8497e-16 -1.88509e-16 -33.473)
(-2.25631e-16 -6.71244e-16 -34.8595)
(-1.19531e-15 -8.28117e-16 -36.1896)
(4.8062e-16 3.71671e-18 -37.5199)
(-8.10609e-17 -4.2513e-17 -38.9176)
(8.36442e-17 4.60075e-17 -40.1638)
(-3.34157e-17 -1.5945e-16 -41.459)
(9.15107e-17 9.50914e-17 -42.6273)
(-1.33645e-16 1.25282e-16 -43.7164)
(1.40213e-16 1.7011e-16 -44.655)
(-4.76563e-16 -1.92227e-16 -45.3991)
(2.17352e-16 1.55479e-16 -45.8754)
(-6.99538e-17 4.44421e-17 -46.127)
(-1.50203e-16 -9.36826e-17 -45.9271)
(-1.60041e-17 -2.29197e-16 -45.5297)
(-2.67589e-17 4.31942e-17 -44.6093)
(0 -0 -43.3282)
(-5.79808e-17 4.1648e-17 -41.7725)
(6.30852e-17 -2.72384e-17 -39.8531)
(2.72923e-17 -2.09221e-16 -37.8019)
(-2.98452e-17 -9.9859e-17 -35.5068)
(1.69443e-16 9.99293e-17 -33.1121)
(9.08201e-17 2.57389e-16 -30.6508)
(-1.85046e-16 7.22039e-17 -28.1543)
(1.80125e-16 -1.87605e-16 -25.6395)
(-2.69507e-16 -1.11562e-16 -23.0788)
(3.74933e-16 -2.0624e-16 -20.5053)
(-8.40081e-17 -3.45946e-16 -17.7593)
(2.62617e-16 -1.93228e-16 -14.7767)
(-2.53965e-16 7.91215e-16 -12.5072)
(2.03037e-16 -1.54567e-16 -11.3558)
(-5.14159e-17 -1.02745e-16 -10.4693)
(3.60117e-17 -8.39503e-18 -9.84567)
(3.40697e-17 -5.2398e-18 -9.59894)
(3.25537e-17 -2.7047e-18 -9.79583)
(-3.12764e-17 -2.33163e-17 -10.5418)
(2.62008e-17 -5.9604e-18 -11.6769)
(1.89072e-18 2.37744e-17 -12.81)
(3.1959e-18 2.11289e-17 -13.8819)
(-2.61739e-17 6.99981e-18 -14.9292)
(-5.68748e-18 -4.22895e-17 -15.9299)
(4.14832e-19 1.0811e-17 -16.8465)
(4.53858e-18 2.85154e-17 -17.6483)
(-3.19008e-18 -2.03621e-17 -18.3156)
(2.13293e-17 6.48161e-19 -18.8396)
(-3.88297e-17 1.58852e-17 -19.2215)
(1.97606e-17 -5.68686e-18 -19.4718)
(-3.13143e-18 -2.61678e-17 -19.6061)
(1.09456e-18 1.59418e-17 -19.6436)
(9.47767e-18 6.05096e-18 -19.6051)
(-1.53545e-17 4.18468e-18 -19.5096)
(-1.17431e-18 -1.20813e-17 -19.376)
(1.75556e-19 -4.64914e-18 -19.2217)
(6.12406e-18 6.05286e-18 -19.0603)
(5.72979e-18 1.70913e-20 -18.9022)
(-6.38963e-18 -1.90595e-20 -18.7545)
(5.468e-18 -2.34372e-19 -18.6211)
(-9.24824e-18 -4.75499e-19 -18.5035)
(5.87276e-18 2.67648e-19 -18.4004)
(-1.98429e-18 -5.91889e-21 -18.3081)
(-4.4865e-19 -1.21224e-18 -18.2222)
(1.34526e-18 -1.15701e-18 -18.1383)
(-4.33219e-19 3.56963e-18 -18.0515)
(-1.1882e-18 -1.30691e-18 -17.9574)
(1.62598e-19 -6.8819e-19 -17.8518)
(-1.04782e-19 -8.95403e-19 -17.7314)
(-1.80655e-19 9.2335e-19 -17.5895)
(-9.24137e-20 4.03855e-19 -17.4029)
(-2.55577e-20 -8.51057e-20 -17.1774)
(0 -0 2.62241)
(-1.70944e-20 -0 -6.31641)
(-2.0411e-19 -1.77069e-17 -11.5246)
(-1.0846e-18 3.25037e-17 -13.4423)
(2.00249e-17 6.27316e-18 -13.6413)
(-1.88558e-17 -3.93386e-17 -13.1748)
(4.36221e-19 -1.8513e-17 -12.5917)
(-7.42462e-19 3.13316e-17 -12.0614)
(-3.74702e-17 5.58994e-18 -11.6064)
(3.63618e-17 -5.33387e-18 -11.2179)
(7.27714e-17 1.16051e-16 -10.8828)
(-1.49049e-16 -1.00872e-16 -10.5898)
(7.63881e-18 -1.57568e-16 -10.3311)
(7.27032e-17 6.45184e-17 -10.1007)
(-9.54666e-18 2.20525e-16 -9.89372)
(-7.15375e-17 -5.44874e-17 -9.70599)
(8.11584e-17 -1.56363e-16 -9.53383)
(-2.85512e-18 7.33904e-17 -9.37386)
(0 -0 -9.22304)
(0 -0 -9.07864)
(0 -0 -8.93801)
(0 -0 -8.79856)
(0 -0 -8.65781)
(-2.94397e-16 -0 -8.51335)
(4.41598e-16 -0 -8.36274)
(-1.46896e-16 -0 -8.20341)
(0 -0 -8.03289)
(0 -0 -7.84852)
(0 -0 -7.64721)
(-1.24755e-17 1.40955e-16 -7.42553)
(-1.49358e-18 1.37779e-17 -7.17927)
(4.07433e-17 -4.2385e-16 -6.9028)
(-1.08638e-17 9.77843e-17 -6.58804)
(-1.58808e-16 4.36468e-16 -6.22023)
(-8.78592e-17 -5.45166e-16 -5.82713)
(3.82811e-16 4.6632e-16 -5.58424)
(1.08803e-15 9.19471e-16 -5.65371)
(8.10234e-17 -2.13451e-15 -6.06995)
(-5.00245e-16 -9.48303e-16 -6.82437)
(1.14411e-15 2.32456e-15 -7.93157)
(-3.33372e-16 1.33649e-16 -9.41578)
(-9.33373e-16 -1.69186e-15 -11.0272)
(6.83498e-17 -1.35383e-16 -12.6824)
(3.52783e-17 -2.91908e-16 -14.3801)
(-1.39791e-15 2.39433e-16 -16.0499)
(1.1691e-15 2.36988e-15 -17.7087)
(2.61285e-15 3.87953e-16 -19.337)
(1.17139e-15 1.25827e-15 -20.8692)
(1.33794e-15 8.37469e-16 -22.3497)
(7.10367e-16 -2.43286e-16 -23.7012)
(-1.96538e-15 -9.52678e-16 -24.9239)
(-4.19309e-17 5.16592e-16 -26.0236)
(5.59448e-16 9.5739e-16 -26.9319)
(-6.91735e-16 -6.01196e-16 -27.7031)
(7.20698e-16 -3.31847e-16 -28.2642)
(6.95533e-16 -5.61379e-17 -28.6557)
(4.40353e-16 -6.59999e-17 -28.8496)
(1.56497e-16 1.35115e-16 -28.8409)
(-9.07745e-17 3.93091e-17 -28.6354)
(-9.46691e-17 1.27522e-16 -28.2466)
(-5.36418e-17 -2.55774e-16 -27.6334)
(-3.49889e-16 5.9858e-17 -26.8452)
(2.76125e-16 4.68518e-16 -25.9024)
(-2.1043e-16 7.13777e-16 -24.7891)
(2.4089e-16 4.49763e-17 -23.5966)
(1.18912e-17 -1.25205e-15 -22.2844)
(2.57543e-16 -2.31684e-16 -20.957)
(-3.50017e-16 7.72893e-16 -19.5433)
(-3.91463e-16 -5.24053e-17 -18.1562)
(1.06561e-15 -4.54276e-16 -16.7571)
(-8.88998e-18 1.47058e-16 -15.3738)
(-1.52856e-15 6.34206e-16 -14.0521)
(8.47791e-16 4.92982e-16 -12.7448)
(1.44836e-17 1.20551e-15 -11.5043)
(1.16645e-15 -1.56783e-15 -10.3275)
(1.7495e-16 -1.0427e-15 -9.20573)
(-1.96558e-16 1.21643e-16 -8.1599)
(-4.65854e-17 9.33431e-16 -7.19282)
(-8.17053e-16 -1.83295e-16 -6.29566)
(-1.76601e-15 1.09741e-15 -5.47585)
(2.34329e-15 3.47777e-16 -4.7329)
(2.33501e-16 -1.06811e-15 -4.06023)
(-8.10482e-16 5.55269e-16 -3.45633)
(1.33277e-16 -8.23169e-16 -2.91717)
(-2.15887e-17 -9.92184e-17 -2.43494)
(1.38976e-15 -8.68219e-16 -2.00938)
(6.24274e-16 -5.12445e-16 -1.63709)
(7.69606e-16 4.72592e-16 -1.30968)
(6.24334e-16 -1.26393e-15 -1.02989)
(1.25013e-15 -7.91655e-16 -0.795417)
(3.99356e-19 2.53462e-17 -0.599426)
(5.66783e-16 -7.08458e-16 -0.445297)
(2.34102e-16 2.72945e-16 -0.329931)
(-5.28883e-16 2.93143e-16 -0.248502)
(2.42688e-16 -6.32551e-16 -0.202753)
(1.07043e-17 3.50383e-16 -0.184446)
(-5.21726e-16 2.75642e-16 -0.195695)
(2.53791e-16 6.64157e-16 -0.228233)
(2.41905e-17 1.4573e-16 -0.283582)
(-1.37372e-16 -8.51207e-16 -0.35423)
(-6.76155e-17 3.97477e-17 -0.445052)
(-8.07432e-17 1.69116e-16 -0.549752)
(-3.38309e-17 -1.32682e-16 -0.672536)
(2.95667e-17 -1.76823e-17 -0.813083)
(5.77203e-17 -1.50911e-17 -0.974054)
(1.20404e-16 3.38379e-17 -1.16319)
(-2.2535e-18 -3.02602e-16 -1.38314)
(7.04437e-16 4.62289e-16 -1.64103)
(1.18635e-17 1.18944e-17 -1.94245)
(-4.71806e-16 1.3194e-16 -2.29183)
(-8.4421e-18 3.5993e-16 -2.69492)
(-1.85268e-17 -6.3594e-16 -3.15395)
(2.54382e-16 4.47017e-16 -3.67424)
(2.36256e-16 1.32113e-16 -4.24878)
(-2.52944e-16 -4.6726e-16 -4.89783)
(-5.06204e-16 -2.93011e-16 -5.59102)
(1.91225e-17 -6.86636e-16 -6.34631)
(-1.57826e-17 -7.50506e-16 -7.1569)
(-3.83934e-16 3.0487e-16 -8.00414)
(1.06862e-15 2.14867e-15 -8.89656)
(-6.11233e-16 -3.87239e-16 -9.82245)
(-5.8594e-16 -1.14749e-15 -10.765)
(4.71931e-16 4.38078e-16 -11.7275)
(7.05174e-16 4.89221e-16 -12.7064)
(5.4454e-16 -2.16415e-16 -13.6815)
(-1.68308e-15 -9.99469e-16 -14.6593)
(4.39257e-16 5.35491e-16 -15.6318)
(-3.11709e-16 -1.17332e-15 -16.5939)
(-1.35426e-16 7.6398e-17 -17.552)
(1.35363e-15 7.33765e-16 -18.5045)
(5.17371e-16 2.94182e-16 -19.423)
(1.32992e-15 7.08701e-16 -20.3509)
(7.29978e-16 1.62921e-15 -21.2728)
(1.06214e-15 3.85915e-16 -22.1374)
(-2.62984e-17 -7.27102e-16 -23.0145)
(1.30025e-16 6.26039e-16 -23.8759)
(2.50785e-16 7.8212e-17 -24.6268)
(9.12575e-17 1.32076e-17 -25.4141)
(-5.76662e-17 -8.30452e-17 -26.0732)
(9.6459e-17 -1.31189e-16 -26.6891)
(2.21925e-17 2.2814e-17 -27.1989)
(7.54412e-17 3.33926e-16 -27.5955)
(1.401e-16 -4.30086e-16 -27.8597)
(3.79494e-17 2.22938e-16 -27.9936)
(-5.10252e-17 -2.48181e-17 -27.9259)
(-5.6332e-17 8.73586e-17 -27.7417)
(1.19019e-16 -1.4009e-17 -27.3054)
(-7.60921e-17 2.03112e-17 -26.7148)
(4.98752e-17 -3.474e-17 -25.9025)
(-1.31267e-16 -1.23238e-16 -24.897)
(-7.72924e-17 2.55141e-16 -23.7236)
(3.91698e-17 2.08208e-16 -22.3753)
(3.80266e-17 -1.74561e-16 -20.8789)
(-1.13689e-16 -3.62733e-17 -19.2784)
(4.12847e-16 -2.70148e-16 -17.5828)
(-2.06429e-16 1.01116e-16 -15.8275)
(2.42385e-17 6.94452e-17 -14.0386)
(-4.26908e-16 -5.23249e-17 -12.2486)
(1.35227e-16 3.79888e-16 -10.442)
(-7.15774e-16 6.90934e-16 -8.67829)
(2.49139e-16 -6.10872e-16 -7.00047)
(-2.70848e-17 -2.50433e-16 -5.89499)
(-3.08192e-19 2.75605e-16 -5.22014)
(-8.03516e-17 -5.40561e-17 -4.83873)
(-1.15992e-18 -7.83974e-18 -4.71845)
(-5.97274e-17 4.48339e-17 -4.8649)
(6.29939e-17 3.72365e-17 -5.25876)
(-2.98569e-17 -2.31997e-17 -5.81642)
(-3.7679e-19 -3.15097e-18 -6.4268)
(-1.84347e-18 -1.03773e-18 -7.026)
(-1.28671e-19 2.83279e-18 -7.59558)
(3.64162e-18 2.23235e-17 -8.12797)
(-2.49512e-17 -5.9306e-18 -8.61302)
(1.94099e-17 -3.82339e-17 -9.0404)
(1.14457e-18 5.60109e-18 -9.40227)
(2.52375e-17 1.34098e-17 -9.69406)
(-2.20589e-17 2.22486e-17 -9.91637)
(-1.63579e-18 -5.72377e-17 -10.0711)
(3.63179e-18 5.57782e-17 -10.1639)
(-1.7338e-18 -2.566e-17 -10.2045)
(-5.02353e-19 -4.02273e-18 -10.2038)
(7.36441e-18 1.93758e-17 -10.17)
(-6.49454e-18 -2.11851e-19 -10.1126)
(-6.77971e-18 3.85697e-18 -10.0425)
(6.60985e-18 -1.94232e-17 -9.96586)
(1.9782e-18 1.22299e-18 -9.88792)
(6.26806e-19 1.12445e-17 -9.8123)
(-4.71923e-19 -8.0522e-18 -9.74089)
(-3.43118e-19 1.90911e-17 -9.67399)
(2.98717e-19 -1.96333e-17 -9.61037)
(1.87918e-18 1.0414e-17 -9.54781)
(-1.35772e-18 -4.68906e-19 -9.48364)
(-2.67245e-18 -1.178e-18 -9.41514)
(2.96432e-18 -2.21056e-18 -9.33968)
(2.74756e-21 5.33782e-18 -9.25491)
(1.38183e-19 -1.25376e-18 -9.15886)
(8.39108e-20 2.33132e-18 -9.05019)
(2.73466e-19 -3.54792e-19 -8.92812)
(2.89366e-22 2.34458e-20 -8.79268)
(6.15459e-21 1.2789e-18 -8.683)
(-2.55433e-20 8.65803e-18 5.00886)
(-2.72135e-19 -6.51715e-18 1.71398)
(5.25708e-19 -2.78848e-17 -1.75038)
(-5.40865e-19 2.17588e-17 -4.28328)
(1.96039e-17 2.13053e-17 -5.7717)
(-1.92579e-17 -1.73201e-17 -6.49655)
(0 -0 -6.76743)
(-4.01192e-17 3.52234e-17 -6.83255)
(4.11616e-17 -6.36625e-17 -6.81733)
(-3.69202e-17 -8.44462e-17 -6.76927)
(3.53814e-17 1.35255e-16 -6.70679)
(1.8236e-18 1.1943e-16 -6.63746)
(-8.73407e-19 -1.29122e-16 -6.56493)
(-1.48413e-16 -8.36943e-17 -6.49133)
(1.40211e-16 1.41506e-16 -6.4179)
(9.02632e-17 -1.28733e-16 -6.34524)
(-1.50761e-16 -2.44136e-17 -6.27354)
(6.54817e-17 1.53205e-16 -6.20271)
(3.74648e-18 -7.05493e-17 -6.13249)
(0 -0 -6.06249)
(1.43757e-16 -0 -5.99223)
(-1.44064e-16 -0 -5.92107)
(-9.38581e-18 1.3832e-16 -5.84826)
(-1.33205e-16 -1.16602e-16 -5.77298)
(1.53111e-16 -1.60336e-16 -5.69428)
(-1.02239e-17 1.38618e-16 -5.61112)
(0 -0 -5.52239)
(1.41249e-16 -0 -5.42698)
(-6.35571e-19 -0 -5.32379)
(-1.534e-16 1.36461e-16 -5.21181)
(2.16068e-17 -1.18262e-16 -5.09009)
(2.94004e-16 -1.55123e-16 -4.957)
(-4.54267e-16 1.28396e-16 -4.81048)
(2.63494e-16 -2.88559e-18 -4.64227)
(-1.92502e-17 2.85263e-16 -4.47182)
(-5.39512e-16 -6.19213e-16 -4.35812)
(7.94471e-16 -1.33925e-16 -4.36251)
(3.94679e-16 1.92347e-15 -4.53766)
(-8.81296e-16 -2.85974e-16 -4.89805)
(-2.16067e-16 -1.20827e-15 -5.44758)
(-1.40854e-16 -2.18386e-16 -6.16823)
(-1.55918e-15 8.08591e-17 -6.93233)
(2.26229e-16 5.54098e-16 -7.73261)
(1.16654e-15 8.16926e-16 -8.58111)
(-1.67194e-15 -1.92993e-15 -9.44855)
(1.94516e-15 -1.86492e-15 -10.3399)
(-6.36244e-16 5.13164e-16 -11.2379)
(-5.68283e-17 6.60409e-16 -12.1259)
(7.96388e-17 -2.08642e-16 -13.0063)
(-4.63595e-17 1.59691e-15 -13.8404)
(4.70921e-16 7.05367e-16 -14.6406)
(1.97112e-16 -1.42123e-15 -15.3833)
(6.48993e-18 -7.47867e-16 -16.0548)
(2.32825e-16 -2.86971e-16 -16.6587)
(-6.17332e-16 -1.26281e-16 -17.1778)
(-3.27136e-16 6.31407e-17 -17.6156)
(-4.28441e-16 -8.49044e-17 -17.9595)
(-2.75228e-17 2.24305e-16 -18.212)
(-1.18476e-16 2.19765e-16 -18.3399)
(1.69181e-16 -1.35893e-17 -18.3756)
(6.39842e-17 1.30606e-16 -18.263)
(-3.14175e-16 -7.43897e-17 -18.0098)
(4.96418e-16 -4.0329e-16 -17.6198)
(4.1881e-16 -7.61609e-16 -17.0712)
(-1.45131e-16 -3.86454e-16 -16.422)
(-5.25127e-16 9.32521e-16 -15.6298)
(-9.77463e-16 4.36196e-16 -14.7647)
(1.59661e-16 9.21199e-17 -13.8026)
(2.49955e-17 -2.39671e-16 -12.8194)
(-7.28384e-16 4.28295e-16 -11.7971)
(2.54082e-17 1.42973e-15 -10.7614)
(1.41183e-15 -1.32324e-15 -9.75844)
(-1.13897e-15 -9.06004e-16 -8.76827)
(2.14143e-15 -1.35152e-15 -7.82598)
(9.45333e-16 -8.74161e-16 -6.93901)
(-1.95017e-16 2.06597e-15 -6.10489)
(9.51851e-16 -3.1602e-16 -5.33708)
(6.33745e-17 -9.35283e-17 -4.63931)
(1.70935e-15 8.61228e-16 -4.00622)
(2.39285e-16 -2.56945e-15 -3.44033)
(8.33411e-16 -3.62075e-15 -2.94024)
(-5.04679e-17 2.58854e-15 -2.50108)
(7.40495e-16 -3.58617e-16 -2.1202)
(7.70833e-16 -1.57322e-15 -1.79379)
(-7.31654e-16 5.37141e-16 -1.51695)
(1.39205e-15 -1.01034e-15 -1.28853)
(-2.09183e-15 4.6328e-16 -1.10439)
(-1.39586e-15 -9.00279e-17 -0.960863)
(-6.67965e-16 1.19004e-15 -0.858301)
(-6.44235e-18 7.15806e-16 -0.79163)
(1.30749e-17 8.29838e-16 -0.757298)
(2.6843e-17 3.71949e-16 -0.754881)
(-3.1173e-16 1.81402e-16 -0.777935)
(3.19419e-16 -4.83723e-16 -0.823258)
(-3.48261e-18 -3.66971e-17 -0.88758)
(-9.66084e-17 3.38506e-16 -0.963644)
(2.93211e-17 -2.8904e-16 -1.04964)
(-1.92307e-17 -6.40439e-16 -1.13519)
(8.51346e-16 5.91746e-17 -1.22242)
(7.46431e-17 4.22045e-16 -1.30343)
(-6.46367e-17 -2.0609e-17 -1.38313)
(9.23766e-17 -1.10241e-16 -1.45329)
(1.73498e-18 6.02831e-17 -1.51991)
(-4.12691e-19 -5.7087e-17 -1.58229)
(-2.0629e-18 -1.28561e-16 -1.64262)
(-1.17833e-16 -2.41469e-17 -1.70883)
(-1.24199e-16 -1.68686e-16 -1.78067)
(-4.70828e-16 -1.33344e-16 -1.86731)
(7.15659e-16 7.98012e-16 -1.9714)
(-4.88048e-16 -4.39832e-16 -2.09877)
(5.00331e-16 -1.24358e-16 -2.25379)
(-5.88711e-18 3.07423e-16 -2.44015)
(1.29799e-17 -3.14405e-16 -2.66245)
(4.15607e-17 2.79122e-16 -2.92033)
(-4.71152e-18 3.82264e-16 -3.22381)
(-4.22157e-18 -3.42655e-16 -3.56337)
(2.28203e-16 7.84686e-16 -3.94807)
(1.33955e-16 8.92795e-16 -4.37574)
(-1.13235e-15 -1.82571e-15 -4.83906)
(-4.08719e-16 -4.54181e-16 -5.34328)
(1.08817e-15 1.63131e-15 -5.88226)
(3.23363e-16 -1.03441e-15 -6.44667)
(-3.01255e-16 -6.06478e-16 -7.03805)
(-6.30849e-16 -5.62704e-16 -7.65229)
(-1.63565e-16 1.00801e-15 -8.27667)
(-8.87666e-16 1.58412e-16 -8.91256)
(5.74179e-16 -8.60845e-16 -9.55326)
(-8.10424e-16 -1.09933e-17 -10.1937)
(-6.063e-16 -2.03104e-15 -10.8344)
(-8.81743e-16 -1.11964e-15 -11.4714)
(-2.81057e-16 1.42809e-16 -12.0903)
(-6.31936e-16 -5.07167e-16 -12.7111)
(-4.6104e-16 -1.26242e-15 -13.322)
(9.19377e-16 6.26092e-16 -13.8958)
(-8.30905e-16 1.45777e-16 -14.47)
(-5.2997e-18 -3.14145e-16 -15.0198)
(-5.31319e-18 -2.0778e-16 -15.5057)
(-2.05456e-16 3.33686e-17 -15.9965)
(-3.00383e-17 5.46843e-17 -16.4122)
(-2.31195e-16 1.13179e-18 -16.7948)
(1.64448e-16 3.39648e-16 -17.1188)
(9.19184e-16 5.16185e-17 -17.3822)
(-9.33275e-17 7.12908e-17 -17.5831)
(1.79575e-17 2.47871e-16 -17.7181)
(-1.83018e-16 1.73657e-16 -17.7679)
(2.59438e-17 -2.63122e-16 -17.7518)
(7.80147e-17 -6.53561e-17 -17.6249)
(-1.00485e-16 1.21959e-16 -17.4136)
(1.3022e-16 3.82834e-18 -17.0684)
(-2.09424e-16 2.55744e-16 -16.5952)
(7.72474e-17 -2.19104e-16 -15.9838)
(1.6584e-16 -4.41435e-16 -15.2295)
(-2.14015e-16 2.66781e-17 -14.3356)
(6.49807e-17 7.40077e-17 -13.325)
(-2.33232e-16 -7.43789e-17 -12.1726)
(-1.70546e-16 4.32318e-16 -10.9447)
(4.10443e-16 -1.53666e-16 -9.72394)
(-1.93195e-16 1.32319e-16 -8.46)
(-9.29896e-18 -2.55165e-17 -7.23542)
(5.33727e-16 -2.69635e-16 -6.10625)
(1.69376e-16 -1.84147e-16 -5.08563)
(-3.1141e-16 3.21196e-16 -4.41008)
(3.53349e-17 -2.86371e-17 -4.10383)
(3.39768e-17 -4.77242e-18 -4.04205)
(-3.56912e-17 1.17272e-18 -4.15281)
(-3.51578e-17 -2.09206e-17 -4.39876)
(-1.12132e-17 -8.26492e-17 -4.73804)
(3.30943e-17 4.79408e-17 -5.10431)
(2.75203e-17 1.82283e-18 -5.43416)
(3.05581e-18 2.17025e-17 -5.70367)
(-2.40209e-17 1.55652e-17 -5.92092)
(2.35052e-18 -2.39384e-17 -6.10144)
(4.76005e-17 2.93787e-18 -6.25717)
(-4.84257e-17 -2.31265e-19 -6.39459)
(-2.28864e-18 -2.2559e-17 -6.5163)
(-2.31749e-17 -9.2564e-18 -6.62259)
(4.37255e-17 6.30659e-17 -6.71273)
(-2.39471e-17 -9.57168e-18 -6.7855)
(1.15153e-18 -4.35946e-17 -6.84032)
(1.22204e-18 1.78433e-17 -6.87773)
(-1.10482e-17 1.38046e-18 -6.89931)
(8.79478e-18 4.46076e-18 -6.9068)
(2.49066e-18 1.11178e-17 -6.90255)
(1.21926e-17 -1.16161e-17 -6.88936)
(-1.18716e-17 -1.51621e-17 -6.86932)
(-6.8057e-18 2.25617e-18 -6.84418)
(7.76404e-18 4.87694e-19 -6.81524)
(-5.47257e-18 1.93871e-18 -6.78329)
(5.41402e-18 -9.86664e-19 -6.7488)
(-1.84459e-18 -2.9241e-18 -6.71171)
(2.93711e-18 -4.42878e-18 -6.67157)
(1.93347e-18 7.52244e-18 -6.62773)
(-1.54937e-18 3.33607e-18 -6.57949)
(2.4134e-19 -8.54736e-18 -6.52606)
(1.08393e-19 1.24879e-18 -6.46658)
(-4.536e-19 -1.96221e-18 -6.4002)
(1.43773e-19 -2.79077e-18 -6.32641)
(1.99663e-19 -1.01586e-18 -6.24558)
(2.03137e-19 1.50662e-18 -6.16016)
(4.32986e-20 -1.36683e-18 -6.1168)
(0 -0 3.47012)
(9.22245e-18 -0 2.53842)
(-9.02324e-18 -1.71132e-17 1.16937)
(3.59264e-19 1.28149e-17 -0.42702)
(-4.95651e-19 2.14464e-17 -1.68174)
(2.52957e-19 -1.71482e-17 -2.69244)
(3.59465e-17 -0 -3.38222)
(-3.60447e-17 -0 -3.87326)
(1.70202e-18 -0 -4.22733)
(-3.67755e-18 -0 -4.49031)
(-7.56025e-17 6.87806e-17 -4.69097)
(7.75369e-17 -5.37268e-17 -4.8455)
(7.5753e-17 -1.54322e-17 -4.96417)
(-1.97194e-18 -5.36076e-17 -5.05448)
(3.63541e-19 -2.94413e-17 -5.12224)
(-7.66621e-17 2.20702e-16 -5.17193)
(-7.29227e-17 -1.23143e-16 -5.20707)
(7.89408e-17 -8.27325e-17 -5.23042)
(-3.64304e-18 6.86015e-17 -5.24423)
(7.81037e-17 -1.35584e-16 -5.25026)
(-7.80036e-17 1.08579e-16 -5.2499)
(-9.04705e-18 1.6288e-16 -5.24419)
(-3.09211e-19 -1.35069e-18 -5.23384)
(1.75897e-17 -1.08554e-16 -5.21927)
(1.39519e-16 -1.60773e-16 -5.20065)
(-1.483e-16 1.34803e-16 -5.1779)
(-1.26702e-16 -1.33219e-16 -5.15073)
(1.69812e-18 -2.39097e-17 -5.11874)
(2.51478e-16 2.67047e-16 -5.08147)
(-1.4976e-16 1.55855e-16 -5.03847)
(4.387e-17 -3.75724e-16 -4.98938)
(-1.4208e-16 -4.45296e-17 -4.93337)
(1.20904e-16 1.63484e-16 -4.86967)
(1.27945e-16 -1.98305e-17 -4.78745)
(-1.64403e-16 2.73355e-16 -4.70511)
(3.16783e-16 -2.11392e-16 -4.64624)
(-1.08172e-15 -8.30051e-16 -4.61362)
(-1.03113e-15 -9.70861e-16 -4.63476)
(1.19839e-15 7.14615e-16 -4.72659)
(4.67263e-16 1.14083e-15 -4.89561)
(-1.50078e-16 1.47296e-15 -5.13202)
(1.12527e-15 -4.56088e-16 -5.38819)
(4.95913e-16 -2.83483e-15 -5.67475)
(-1.13361e-15 5.10404e-16 -6.00244)
(5.46441e-16 1.58517e-15 -6.36695)
(-1.19644e-15 -4.45839e-16 -6.77108)
(-8.8434e-16 5.51917e-18 -7.20212)
(-5.24704e-16 -2.94468e-16 -7.67158)
(-8.26593e-16 -1.81927e-16 -8.1714)
(-5.18123e-16 -1.3802e-15 -8.64156)
(1.4155e-15 3.3038e-16 -9.1337)
(-7.06611e-16 8.153e-16 -9.63808)
(-1.80518e-17 8.53204e-16 -10.1215)
(-8.94534e-16 -1.56269e-16 -10.5844)
(-8.33373e-17 7.69158e-17 -11.0296)
(-1.0016e-17 -2.54889e-16 -11.4476)
(-5.58847e-16 -3.41716e-16 -11.8335)
(-1.54059e-16 -1.59936e-16 -12.1877)
(9.70194e-18 -5.84539e-17 -12.4802)
(8.71034e-17 -5.48984e-17 -12.73)
(-1.64622e-16 5.1286e-17 -12.8947)
(3.45251e-16 -2.00122e-16 -12.9678)
(-4.88125e-16 -5.67119e-17 -12.9401)
(1.84366e-16 9.09649e-16 -12.7894)
(-7.94927e-16 1.09249e-15 -12.5373)
(8.44848e-16 -6.27072e-16 -12.1575)
(-2.29322e-16 -2.83898e-16 -11.6893)
(1.62529e-16 -1.73455e-16 -11.1245)
(-5.9194e-16 6.98432e-16 -10.5004)
(4.55079e-16 1.18913e-17 -9.82591)
(2.8225e-16 -1.60071e-15 -9.12037)
(6.25393e-16 2.6453e-16 -8.41988)
(-6.18627e-16 7.44908e-16 -7.72318)
(-8.77192e-17 -1.26738e-15 -7.05733)
(-1.06585e-15 1.61522e-15 -6.43235)
(4.68348e-17 -8.32549e-16 -5.85123)
(8.1823e-16 -8.37608e-16 -5.32375)
(4.14285e-17 -1.18863e-16 -4.85212)
(1.69473e-15 -2.08191e-15 -4.43277)
(1.56156e-15 -3.67958e-16 -4.06571)
(-3.24295e-15 3.89729e-15 -3.74789)
(-7.66115e-16 -2.17934e-16 -3.47433)
(8.07821e-16 -1.53106e-15 -3.24211)
(-8.19555e-16 1.39275e-15 -3.04762)
(3.45077e-18 -8.64793e-16 -2.88744)
(-1.44632e-15 2.5358e-15 -2.76071)
(1.40367e-15 2.71803e-15 -2.66433)
(-3.16329e-16 -3.56934e-16 -2.59666)
(-6.12152e-16 -2.08328e-15 -2.55815)
(-1.92601e-15 2.29755e-16 -2.54285)
(-3.03347e-16 1.64796e-16 -2.54862)
(1.84775e-17 1.26892e-17 -2.57598)
(3.1636e-16 -1.31354e-16 -2.61636)
(-4.43322e-17 -3.65764e-16 -2.66475)
(-5.19099e-16 2.26832e-16 -2.72108)
(-2.64738e-17 3.24251e-16 -2.77289)
(2.70427e-16 -1.3937e-16 -2.82434)
(-8.18308e-16 -5.43874e-17 -2.86106)
(-4.52953e-16 1.25491e-16 -2.89041)
(-2.57553e-17 2.49291e-16 -2.90112)
(1.24841e-16 -2.48033e-17 -2.90384)
(-1.18757e-16 8.9319e-17 -2.88911)
(7.49651e-17 -2.10265e-17 -2.8649)
(-9.74546e-19 -1.6642e-17 -2.83125)
(9.95972e-19 1.23703e-16 -2.78962)
(-2.4378e-16 1.50488e-16 -2.74771)
(2.40203e-18 1.50307e-16 -2.70421)
(-2.38237e-16 -7.56953e-16 -2.66719)
(-2.19883e-16 -1.28849e-16 -2.63837)
(4.49651e-16 7.78874e-16 -2.62242)
(-2.0818e-17 -2.84434e-16 -2.62277)
(7.13063e-18 -1.40003e-17 -2.64273)
(2.62164e-18 2.88859e-16 -2.68637)
(-2.58937e-16 -7.59805e-17 -2.75442)
(4.55462e-16 -6.35944e-17 -2.85483)
(1.12337e-17 -2.4016e-16 -2.98258)
(-7.07034e-16 -1.41975e-15 -3.1454)
(4.35026e-16 8.33416e-16 -3.34293)
(9.42762e-16 2.39712e-15 -3.57182)
(-6.64202e-16 -1.46551e-15 -3.83601)
(1.11044e-15 -7.79805e-16 -4.13275)
(-7.93359e-16 4.46207e-16 -4.45645)
(-5.51831e-16 1.1889e-15 -4.80773)
(-3.1351e-16 1.93949e-16 -5.1834)
(-7.25848e-16 -9.45583e-16 -5.57509)
(1.72419e-15 6.47385e-16 -5.98193)
(-1.33463e-16 3.01202e-17 -6.39843)
(4.96012e-16 9.11339e-16 -6.81968)
(-5.39707e-16 7.01894e-16 -7.24377)
(-8.87965e-16 -3.00941e-16 -7.66738)
(-4.78543e-16 -4.8354e-16 -8.0817)
(-5.97795e-17 6.7727e-17 -8.49477)
(-7.81777e-16 3.11121e-17 -8.9013)
(-6.44875e-16 -8.6031e-16 -9.28625)
(-6.38367e-17 3.18337e-16 -9.66815)
(-1.32313e-16 -1.86237e-16 -10.0322)
(-5.4289e-16 -7.23525e-17 -10.3623)
(-2.06331e-16 2.00087e-16 -10.6878)
(1.68884e-16 -2.82245e-17 -10.975)
(2.10148e-17 -6.37728e-18 -11.2417)
(3.66804e-16 -1.20167e-15 -11.4806)
(-2.22969e-16 -3.85808e-16 -11.692)
(-6.70702e-17 6.68548e-17 -11.879)
(2.44238e-16 2.80001e-16 -12.0401)
(3.311e-16 1.35551e-16 -12.172)
(1.18215e-16 -4.96946e-17 -12.2769)
(-1.16193e-16 2.87035e-17 -12.3387)
(7.44591e-17 1.00687e-16 -12.3604)
(-6.01877e-17 -5.80231e-17 -12.3116)
(2.86029e-16 6.65025e-17 -12.1824)
(3.11573e-17 -1.97479e-16 -11.9602)
(-2.81712e-16 3.17517e-16 -11.6251)
(-2.48288e-17 2.03141e-16 -11.1789)
(7.3314e-17 -1.705e-16 -10.6137)
(-1.84252e-16 3.65355e-16 -9.90536)
(1.13171e-16 -3.17987e-16 -9.14629)
(-3.01757e-16 -9.88003e-17 -8.34976)
(3.23709e-16 6.54114e-17 -7.48977)
(-2.86573e-17 -1.94871e-16 -6.69935)
(-2.89612e-17 -1.3081e-16 -6.00024)
(-1.68021e-16 2.37423e-16 -5.51279)
(1.49652e-16 -4.79363e-17 -5.27554)
(3.00089e-17 -6.70712e-17 -5.31673)
(1.31257e-16 -5.90024e-17 -5.52512)
(-2.4972e-17 6.04034e-17 -5.81736)
(3.60651e-17 1.88673e-17 -6.12944)
(-8.73447e-17 -2.13925e-18 -6.41532)
(-5.62063e-18 -6.47652e-17 -6.62514)
(6.15065e-18 -3.11469e-18 -6.72904)
(2.83479e-17 4.03492e-17 -6.73635)
(-3.60446e-19 2.36673e-17 -6.6785)
(-8.88242e-18 -4.51566e-17 -6.58812)
(-6.02536e-18 -6.46455e-18 -6.49103)
(5.89922e-18 5.00401e-17 -6.40405)
(4.96155e-18 -1.30181e-17 -6.33646)
(-4.66986e-17 7.23842e-19 -6.29175)
(3.8923e-17 -1.72832e-17 -6.2692)
(1.90222e-17 -1.56808e-17 -6.26534)
(-1.36688e-17 4.66052e-17 -6.27532)
(-4.87112e-18 -1.38161e-17 -6.29393)
(1.00655e-17 4.34997e-18 -6.31631)
(-7.39436e-18 -3.29616e-18 -6.33814)
(7.87262e-19 -9.69983e-18 -6.35596)
(6.10069e-18 -8.2202e-18 -6.36755)
(-1.29149e-17 2.18641e-17 -6.37133)
(8.7702e-19 -3.15578e-18 -6.36651)
(-1.8993e-18 -5.31994e-18 -6.35295)
(-1.4623e-18 4.85302e-18 -6.33112)
(3.70769e-18 1.11227e-17 -6.30205)
(-4.5621e-18 -1.93177e-17 -6.26719)
(-4.23012e-18 -1.64816e-18 -6.22812)
(4.32714e-18 -5.09705e-18 -6.18638)
(-1.3585e-18 7.57643e-18 -6.14335)
(-1.38813e-18 -7.54629e-18 -6.09996)
(4.60662e-20 8.55546e-18 -6.05663)
(8.25527e-19 2.52051e-18 -6.01325)
(-7.77155e-19 2.96316e-18 -5.96928)
(-7.25078e-20 -2.2206e-18 -5.92459)
(3.36534e-19 -5.31459e-18 -5.87851)
(-1.13552e-19 2.0567e-19 -5.88057)
(0 -0 2.33314)
(0 -0 2.06416)
(1.53033e-19 -1.72905e-17 1.55807)
(5.56849e-19 1.29077e-17 0.869622)
(-8.15844e-19 2.16106e-17 0.0270583)
(8.55939e-19 -5.12254e-17 -0.70843)
(3.60214e-17 2.52764e-17 -1.37516)
(-7.39743e-17 7.66875e-17 -1.96832)
(3.7797e-17 -9.31951e-17 -2.46493)
(1.0078e-18 -1.72982e-17 -2.88237)
(-2.52279e-18 7.64774e-17 -3.23953)
(7.41634e-17 -3.39503e-17 -3.54108)
(-1.40986e-16 -6.72646e-17 -3.79471)
(1.43921e-16 -1.63725e-17 -4.00761)
(-1.54941e-16 2.01712e-16 -4.18617)
(7.51599e-17 -3.4526e-17 -4.33589)
(1.033e-17 -1.50702e-16 -4.46149)
(-6.90775e-18 6.71526e-17 -4.56702)
(3.71658e-18 -6.63029e-17 -4.65596)
(6.50692e-17 5.05849e-17 -4.73128)
(-8.04748e-17 8.21428e-17 -4.79548)
(1.17795e-17 -6.64249e-17 -4.85065)
(-1.44405e-16 1.31032e-16 -4.89844)
(1.60976e-16 -2.31447e-16 -4.94017)
(-6.13663e-18 -6.06963e-17 -4.9768)
(-3.04686e-17 4.21836e-16 -5.00897)
(8.64872e-18 -1.02186e-16 -5.03701)
(2.30744e-17 -3.89233e-16 -5.06104)
(-1.40244e-16 7.29116e-17 -5.08101)