/*--------------------------------*- C++ -*----------------------------------*\
| =========                 |                                                 |
| \\      /  F ield         | OpenFOAM: The Open Source CFD Toolbox           |
|  \\    /   O peration     | Version:  2506                                  |
|   \\  /    A nd           | Website:  www.openfoam.com                      |
|    \\/     M anipulation  |                                                 |
\*---------------------------------------------------------------------------*/
FoamFile
{
    version     2.0;
    format      ascii;
    arch        "LSB;label=32;scalar=64";
    class       volScalarField;
    location    "0.6";
    object      p;
}
// * * * * * * * * * * * * * * * * * * * * * * * * * * * * * * * * * * * * * //

dimensions      [0 2 -2 0 0 0 0];

internalField   nonuniform List<scalar> 
4000
(
0.00507262
0.00495354
0.00487817
0.00483534
0.00480233
0.00477389
0.00474885
0.00472585
0.00470379
0.00468218
0.00466077
0.00463949
0.00461828
0.00459713
0.00457604
0.00455504
0.00453414
0.00451338
0.00449277
0.00447234
0.00445212
0.00443214
0.00441242
0.00439302
0.00437396
0.00435529
0.00433708
0.00431939
0.00430228
0.00428585
0.00427022
0.00425552
0.00424197
0.0042294
0.00421946
0.00421131
0.00420159
0.00418936
0.00417439
0.00415568
0.00413198
0.00410016
0.00406124
0.00401808
0.00397102
0.00392054
0.00386685
0.00380967
0.00375045
0.00368882
0.00362528
0.00356107
0.00349561
0.0034314
0.0033673
0.00330578
0.00324652
0.00319033
0.00313907
0.00309026
0.00304772
0.00300876
0.00297411
0.00294372
0.00291617
0.00289237
0.00287042
0.00285117
0.00283325
0.00281689
0.00280164
0.00278707
0.00277341
0.0027602
0.00274744
0.00273519
0.00272328
0.0027117
0.00270052
0.00268968
0.00267919
0.00266909
0.00265938
0.00265005
0.00264114
0.00263259
0.0026244
0.00261661
0.00260912
0.00260194
0.00259509
0.00258846
0.00258207
0.00257594
0.00256988
0.00256404
0.0025582
0.0025525
0.00254672
0.00254102
0.00253511
0.00252912
0.00252286
0.00251629
0.00250939
0.00250193
0.002494
0.00248531
0.00247589
0.00246558
0.00245432
0.00244199
0.00242855
0.00241382
0.00239789
0.00238047
0.00236172
0.00234154
0.00231981
0.00229661
0.00227188
0.00224551
0.00221756
0.002188
0.00215672
0.00212374
0.00208901
0.00205247
0.00201412
0.00197388
0.00193158
0.00188747
0.00184138
0.001793
0.00174281
0.00169073
0.00163618
0.0015806
0.00152303
0.00146451
0.00140515
0.00134558
0.00128648
0.00122889
0.00117277
0.0011207
0.00107053
0.00102637
0.000986219
0.000950727
0.000920683
0.000894051
0.000872796
0.000854259
0.000839795
0.00082738
0.000817843
0.000809738
0.000803343
0.000797977
0.000796431
0.000791059
0.000783779
0.000774892
0.000764572
0.000751838
0.000736702
0.000717148
0.000695217
0.000672709
0.000649926
0.000627018
0.000604115
0.000581265
0.000558458
0.000535668
0.000512866
0.000490035
0.000467185
0.000444325
0.000421463
0.000398635
0.000375878
0.000353195
0.000330635
0.000308196
0.000285918
0.000263808
0.000241869
0.000220101
0.0001985
0.00017706
0.000155775
0.000134628
0.000113608
9.27029e-05
7.1908e-05
5.12095e-05
3.05962e-05
1.01083e-05
0.00498351
0.00492302
0.00486992
0.00483391
0.00480475
0.00477739
0.00475189
0.00472824
0.00470571
0.00468379
0.00466221
0.00464083
0.00461958
0.00459842
0.00457735
0.00455637
0.00453551
0.00451477
0.0044942
0.00447381
0.00445362
0.00443367
0.00441399
0.00439461
0.00437558
0.00435693
0.00433873
0.00432104
0.00430393
0.00428748
0.0042718
0.00425701
0.00424326
0.00423037
0.00421937
0.00420942
0.00419748
0.00418265
0.00416468
0.00414258
0.00411527
0.00408051
0.00403985
0.00399573
0.00394825
0.00389777
0.00384446
0.00378814
0.00373033
0.00367048
0.00360926
0.00354773
0.00348553
0.00342455
0.00336404
0.00330606
0.00325025
0.00319689
0.00314771
0.0031009
0.00305935
0.00302113
0.0029867
0.00295618
0.00292836
0.00290406
0.00288168
0.00286191
0.00284361
0.00282688
0.00281138
0.00279662
0.00278282
0.00276954
0.00275672
0.00274438
0.00273238
0.00272069
0.00270936
0.00269835
0.00268767
0.00267734
0.00266737
0.00265776
0.00264855
0.00263969
0.0026312
0.00262307
0.00261523
0.00260768
0.00260046
0.00259347
0.00258667
0.00258011
0.00257366
0.00256737
0.0025611
0.00255491
0.00254865
0.00254238
0.0025359
0.00252927
0.00252234
0.00251504
0.00250731
0.00249896
0.00249002
0.00248026
0.00246968
0.00245814
0.00244557
0.00243187
0.00241701
0.00240084
0.00238349
0.0023647
0.00234457
0.00232305
0.00230002
0.00227556
0.00224961
0.00222209
0.00219304
0.00216245
0.0021302
0.00209632
0.00206077
0.0020235
0.00198449
0.00194368
0.00190097
0.00185655
0.00181031
0.00176201
0.0017121
0.00166052
0.00160694
0.00155254
0.00149668
0.00144022
0.0013834
0.00132677
0.00127097
0.0012168
0.00116431
0.00111565
0.00106924
0.00102756
0.000989489
0.000955442
0.000926225
0.000900172
0.00087894
0.000860336
0.000845506
0.000832731
0.000822706
0.000814166
0.000807416
0.000801394
0.000798886
0.000792955
0.000785046
0.000775463
0.000764173
0.000750297
0.000733917
0.000713812
0.000691818
0.000669394
0.000646739
0.000623959
0.000601189
0.000578484
0.000555834
0.000533206
0.000510573
0.000487915
0.00046523
0.000442526
0.000419819
0.000397132
0.000374494
0.000351949
0.000329521
0.000307224
0.000285061
0.000263049
0.000241198
0.000219508
0.000197979
0.000176605
0.000155379
0.000134295
0.000113342
9.25069e-05
7.17748e-05
5.11332e-05
3.05726e-05
1.0097e-05
0.00494221
0.00490903
0.00486755
0.00483482
0.00480684
0.00477995
0.00475464
0.00473074
0.00470783
0.00468557
0.00466373
0.00464218
0.00462081
0.00459958
0.00457846
0.00455746
0.00453657
0.00451583
0.00449525
0.00447485
0.00445465
0.00443469
0.00441499
0.00439558
0.00437651
0.00435782
0.00433956
0.00432178
0.00430456
0.00428795
0.00427206
0.00425695
0.00424274
0.0042292
0.00421691
0.00420506
0.00419101
0.0041739
0.00415342
0.00412866
0.00409884
0.00406267
0.00402174
0.00397782
0.00393091
0.00388122
0.00382904
0.00377444
0.00371868
0.00366111
0.00360271
0.00354423
0.00348552
0.00342785
0.00337096
0.00331577
0.00326267
0.00321175
0.00316425
0.00311891
0.00307773
0.00303953
0.00300466
0.00297331
0.00294457
0.00291912
0.00289571
0.00287486
0.00285564
0.00283807
0.00282186
0.00280651
0.00279219
0.00277849
0.00276532
0.00275268
0.00274041
0.00272848
0.0027169
0.00270564
0.00269468
0.00268407
0.00267379
0.00266386
0.0026543
0.00264509
0.00263622
0.00262775
0.0026196
0.00261175
0.0026042
0.00259688
0.00258977
0.00258288
0.00257608
0.00256943
0.00256278
0.00255618
0.00254948
0.00254271
0.0025357
0.00252848
0.0025209
0.00251289
0.00250439
0.00249523
0.00248541
0.00247474
0.0024632
0.00245068
0.00243709
0.00242238
0.00240648
0.00238932
0.00237092
0.00235113
0.00233001
0.00230752
0.00228358
0.00225823
0.00223142
0.00220312
0.00217332
0.00214201
0.00210911
0.00207465
0.00203858
0.00200088
0.00196153
0.0019205
0.00187775
0.00183343
0.00178745
0.00173967
0.0016905
0.00163996
0.00158783
0.00153511
0.00148142
0.0014274
0.00137338
0.0013198
0.00126722
0.00121624
0.00116698
0.00112066
0.00107649
0.00103629
0.000999339
0.000965853
0.000936612
0.000910309
0.000888338
0.000868967
0.000853193
0.000839546
0.000828634
0.000819255
0.000811827
0.000804836
0.000801177
0.000794374
0.000785642
0.000775204
0.000762889
0.000747908
0.000730546
0.000710135
0.000688244
0.000665988
0.000643495
0.000620867
0.000598252
0.00057571
0.000553229
0.000530775
0.000508317
0.000485838
0.000463321
0.000440783
0.000418246
0.000395725
0.000373248
0.000350848
0.000328529
0.000306334
0.000284271
0.000262351
0.000240585
0.000218973
0.000197516
0.00017621
0.000155048
0.000134023
0.000113123
9.23355e-05
7.16499e-05
5.10532e-05
3.0537e-05
1.00462e-05
0.0049226
0.00489681
0.00486354
0.00483427
0.00480759
0.00478177
0.00475679
0.00473279
0.00470982
0.0046874
0.00466535
0.0046436
0.00462206
0.00460071
0.00457951
0.00455844
0.00453751
0.00451672
0.00449609
0.00447564
0.00445539
0.00443537
0.00441559
0.0043961
0.00437691
0.00435808
0.00433965
0.00432166
0.00430417
0.00428723
0.0042709
0.00425522
0.00424025
0.00422574
0.00421204
0.00419839
0.00418243
0.00416337
0.00414088
0.00411421
0.00408291
0.00404624
0.00400554
0.00396215
0.0039161
0.00386757
0.00381693
0.00376447
0.00371089
0.00365614
0.00360094
0.00354578
0.0034907
0.00343643
0.00338298
0.00333094
0.00328065
0.00323215
0.00318627
0.00314223
0.0031013
0.00306293
0.0030274
0.00299495
0.00296495
0.00293797
0.00291311
0.00289077
0.00287021
0.00285142
0.00283412
0.00281787
0.00280275
0.00278838
0.00277465
0.00276151
0.00274882
0.00273651
0.00272457
0.00271297
0.00270169
0.00269074
0.00268013
0.00266985
0.00265994
0.00265038
0.00264117
0.00263234
0.00262382
0.0026156
0.00260768
0.00260001
0.00259254
0.00258527
0.0025781
0.00257105
0.00256397
0.00255692
0.00254972
0.00254242
0.00253483
0.00252698
0.0025187
0.00250994
0.00250063
0.00249061
0.00247987
0.00246824
0.0024557
0.00244215
0.00242752
0.00241176
0.00239483
0.00237664
0.00235724
0.00233649
0.00231445
0.00229109
0.00226635
0.00224024
0.00221275
0.00218383
0.00215349
0.00212171
0.00208844
0.00205369
0.00201743
0.00197965
0.00194034
0.00189949
0.00185715
0.00181341
0.00176814
0.00172129
0.00167336
0.00162436
0.00157423
0.00152362
0.00147242
0.00142113
0.00137008
0.0013196
0.00127013
0.00122211
0.00117568
0.00113145
0.00108927
0.00105022
0.00101391
0.000980491
0.000950677
0.000923575
0.00090031
0.000879636
0.000862399
0.000847401
0.000835208
0.00082454
0.000816084
0.000807972
0.000803046
0.000795198
0.000785498
0.000774117
0.000760839
0.000744942
0.000726875
0.000706243
0.000684416
0.00066229
0.000639947
0.000617479
0.000595031
0.000572661
0.000550352
0.000528068
0.000505779
0.000483464
0.000461115
0.000438743
0.000416365
0.000394002
0.00037168
0.000349424
0.000327256
0.000305199
0.000283266
0.000261468
0.000239812
0.000218302
0.000196937
0.000175715
0.00015463
0.000133675
0.000112839
9.21127e-05
7.14836e-05
5.09365e-05
3.04715e-05
9.97243e-06
0.00490991
0.00488636
0.0048579
0.00483195
0.00480736
0.0047828
0.00475832
0.00473464
0.00471167
0.004689
0.00466684
0.004645
0.00462331
0.00460182
0.00458052
0.00455936
0.00453835
0.00451749
0.00449678
0.00447625
0.00445591
0.00443578
0.00441588
0.00439623
0.00437687
0.00435783
0.00433914
0.00432084
0.00430296
0.00428555
0.00426863
0.00425221
0.00423631
0.00422067
0.00420553
0.00419013
0.00417241
0.00415162
0.00412747
0.00409939
0.00406716
0.00403034
0.00399006
0.00394736
0.00390235
0.00385527
0.00380649
0.00375632
0.00370505
0.00365346
0.00360154
0.0035497
0.00349813
0.00344729
0.00339725
0.00334841
0.00330083
0.00325472
0.00321062
0.00316804
0.0031276
0.00308927
0.00305334
0.00301997
0.00298879
0.00296026
0.00293383
0.00290981
0.00288766
0.00286734
0.00284865
0.00283117
0.00281495
0.00279963
0.00278508
0.00277123
0.00275791
0.00274504
0.00273261
0.00272055
0.00270883
0.00269746
0.00268643
0.00267575
0.00266544
0.00265547
0.00264586
0.00263663
0.00262771
0.00261911
0.00261081
0.00260275
0.0025949
0.00258724
0.00257965
0.00257217
0.00256463
0.00255709
0.00254935
0.00254147
0.00253325
0.0025247
0.00251568
0.00250611
0.00249593
0.00248499
0.00247328
0.00246066
0.00244709
0.0024325
0.00241684
0.00240005
0.00238212
0.00236297
0.00234264
0.00232103
0.00229818
0.00227406
0.00224864
0.00222192
0.00219389
0.00216451
0.00213379
0.00210171
0.00206825
0.00203341
0.00199717
0.00195954
0.00192053
0.00188015
0.0018384
0.00179544
0.00175114
0.00170565
0.00165928
0.00161208
0.00156417
0.00151586
0.00146727
0.00141876
0.00137064
0.00132314
0.00127659
0.00123127
0.0011873
0.00114512
0.00110469
0.00106661
0.00103076
0.000997293
0.000966804
0.000938757
0.000914024
0.000891811
0.000872815
0.00085613
0.000842292
0.000830051
0.000820217
0.000810813
0.000804439
0.000795405
0.000784626
0.000772248
0.000758057
0.00074136
0.000722719
0.000701868
0.000680061
0.000658057
0.000635878
0.000613591
0.000591331
0.000569149
0.000547025
0.000524921
0.000502808
0.000480667
0.000458495
0.000436299
0.000414098
0.000391913
0.000369771
0.000347694
0.000325704
0.000303816
0.000282043
0.000260395
0.000238878
0.000217496
0.000196247
0.00017513
0.000154141
0.000133272
0.000112515
9.18591e-05
7.12945e-05
5.08035e-05
3.03966e-05
9.90319e-06
0.00490117
0.00487873
0.004853
0.00482951
0.00480652
0.00478297
0.00475926
0.00473597
0.00471308
0.00469043
0.00466825
0.00464632
0.00462446
0.00460286
0.00458146
0.0045602
0.00453909
0.00451814
0.00449733
0.00447669
0.00445622
0.00443595
0.00441588
0.00439603
0.00437644
0.00435711
0.00433809
0.00431939
0.00430103
0.00428304
0.00426543
0.00424817
0.00423125
0.00421444
0.00419786
0.0041808
0.00416148
0.00413918
0.00411366
0.00408454
0.00405173
0.00401497
0.00397525
0.0039334
0.0038896
0.00384412
0.00379731
0.00374946
0.00370086
0.0036522
0.00360339
0.00355476
0.00350651
0.00345894
0.0034121
0.00336618
0.00332128
0.00327745
0.0032352
0.00319426
0.00315454
0.00311648
0.00308049
0.00304659
0.00301451
0.00298467
0.00295681
0.00293116
0.00290737
0.00288542
0.00286516
0.00284624
0.00282869
0.00281219
0.00279659
0.00278181
0.00276765
0.00275404
0.00274095
0.0027283
0.00271603
0.00270414
0.00269262
0.00268147
0.00267069
0.00266027
0.00265022
0.00264055
0.00263121
0.00262218
0.00261347
0.002605
0.00259672
0.00258864
0.0025806
0.00257265
0.00256462
0.00255654
0.00254822
0.00253971
0.0025308
0.0025215
0.00251168
0.00250125
0.00249016
0.00247827
0.00246558
0.00245195
0.00243737
0.00242177
0.00240512
0.00238737
0.0023685
0.00234848
0.00232732
0.00230495
0.00228141
0.00225666
0.00223069
0.00220349
0.00217506
0.00214537
0.00211443
0.00208222
0.00204873
0.00201397
0.00197793
0.00194064
0.00190212
0.00186241
0.00182144
0.00177935
0.00173634
0.00169247
0.00164782
0.00160254
0.00155678
0.00151082
0.0014648
0.00141898
0.0013736
0.00132884
0.00128492
0.00124203
0.00120025
0.00115987
0.00112094
0.00108372
0.00104823
0.00101472
0.00098362
0.000954641
0.000928456
0.000904651
0.000883789
0.000865249
0.000849444
0.000835691
0.000824121
0.000813203
0.000805193
0.000794876
0.000782954
0.000769555
0.000754494
0.00073709
0.000717965
0.000696923
0.000675141
0.000653274
0.000631281
0.000609198
0.000587144
0.000565165
0.000543236
0.000521319
0.000499389
0.000477434
0.000455448
0.000433444
0.00041144
0.000389458
0.000367523
0.000345658
0.000323875
0.000302187
0.000280607
0.000259141
0.000237793
0.000216565
0.000195457
0.000174467
0.000153592
0.000132826
0.00011216
9.15855e-05
7.10932e-05
5.06655e-05
3.03216e-05
9.84688e-06
0.00489517
0.00487332
0.00484919
0.00482731
0.0048055
0.00478278
0.00475972
0.00473681
0.00471414
0.00469166
0.00466942
0.00464738
0.00462549
0.00460381
0.00458231
0.00456095
0.00453974
0.00451867
0.00449775
0.00447698
0.00445636
0.0044359
0.00441563
0.00439555
0.00437567
0.00435601
0.00433659
0.00431742
0.00429852
0.00427988
0.0042615
0.00424334
0.00422536
0.00420736
0.00418939
0.00417079
0.00415
0.00412641
0.00409981
0.00406992
0.00403679
0.00400027
0.0039612
0.00392031
0.00387781
0.00383399
0.00378919
0.00374364
0.00369772
0.00365179
0.00360592
0.00356033
0.00351518
0.00347061
0.00342668
0.00338347
0.00334105
0.00329946
0.00325885
0.0032195
0.00318093
0.00314326
0.00310746
0.00307344
0.00304082
0.00300999
0.00298097
0.0029539
0.00292861
0.00290507
0.00288322
0.00286279
0.00284378
0.00282593
0.00280911
0.00279323
0.00277805
0.00276352
0.00274962
0.00273624
0.0027233
0.00271079
0.00269869
0.00268698
0.00267568
0.00266475
0.0026542
0.00264405
0.00263424
0.00262475
0.00261558
0.00260665
0.00259791
0.00258935
0.00258083
0.00257237
0.00256378
0.00255511
0.00254616
0.00253696
0.00252731
0.00251723
0.00250655
0.00249524
0.00248322
0.00247037
0.0024567
0.00244209
0.00242654
0.00240999
0.00239241
0.00237378
0.00235409
0.00233329
0.00231142
0.00228841
0.00226429
0.00223905
0.00221265
0.00218512
0.00215643
0.00212656
0.00209553
0.00206333
0.00202996
0.00199543
0.00195975
0.00192295
0.00188506
0.00184612
0.00180615
0.0017652
0.00172362
0.00168133
0.0016384
0.00159506
0.00155143
0.00150776
0.00146417
0.00142084
0.00137796
0.00133565
0.00129406
0.0012533
0.00121344
0.0011746
0.001137
0.00110058
0.00106535
0.00103183
0.00100023
0.000970394
0.000942856
0.000917499
0.00089478
0.000874351
0.000856481
0.000841003
0.000827622
0.000815021
0.000805202
0.000793523
0.000780426
0.000766005
0.000750113
0.000732085
0.000712557
0.000691385
0.000669667
0.000647965
0.000626181
0.000604322
0.00058249
0.000560724
0.000538994
0.000517264
0.000495521
0.000473757
0.000451971
0.000430174
0.000408389
0.000386635
0.000364939
0.000343318
0.000321777
0.000300324
0.000278969
0.000257716
0.000236566
0.00021552
0.000194577
0.000173736
0.000152994
0.000132346
0.000111784
9.13004e-05
7.08887e-05
5.05306e-05
3.02526e-05
9.80591e-06
0.00489112
0.00486958
0.00484639
0.00482554
0.00480458
0.00478251
0.00475993
0.00473738
0.00471493
0.00469257
0.00467035
0.00464828
0.00462637
0.00460463
0.00458304
0.00456159
0.00454028
0.0045191
0.00449805
0.00447713
0.00445634
0.00443569
0.00441519
0.00439483
0.00437464
0.00435461
0.00433475
0.00431507
0.00429557
0.00427623
0.00425704
0.00423795
0.00421891
0.00419973
0.00418044
0.0041604
0.00413831
0.00411362
0.00408614
0.00405571
0.00402244
0.00398629
0.00394797
0.00390809
0.00386694
0.00382481
0.00378199
0.00373872
0.00369531
0.003652
0.00360889
0.00356611
0.00352377
0.00348193
0.00344063
0.00339987
0.0033597
0.00332015
0.00328126
0.00324324
0.00320585
0.00316909
0.0031336
0.00309961
0.00306676
0.00303534
0.00300547
0.00297727
0.0029507
0.00292575
0.00290241
0.00288049
0.00286
0.00284073
0.00282257
0.00280543
0.00278919
0.00277357
0.0027587
0.00274444
0.00273072
0.00271748
0.00270469
0.00269234
0.00268042
0.00266891
0.0026578
0.0026471
0.00263675
0.00262674
0.00261705
0.00260761
0.00259834
0.00258926
0.00258018
0.00257114
0.00256195
0.00255263
0.002543
0.00253307
0.00252264
0.00251173
0.00250019
0.00248797
0.00247503
0.00246125
0.00244664
0.0024311
0.00241464
0.00239722
0.00237881
0.00235941
0.002339
0.00231755
0.00229508
0.00227156
0.00224699
0.00222138
0.00219469
0.00216693
0.0021381
0.00210819
0.0020772
0.00204515
0.00201202
0.00197784
0.00194264
0.00190645
0.0018693
0.00183126
0.00179237
0.00175273
0.00171255
0.0016718
0.00163063
0.00158921
0.00154765
0.00150613
0.00146477
0.0014237
0.00138306
0.00134292
0.00130337
0.00126447
0.00122627
0.00118883
0.00115226
0.00111654
0.00108174
0.00104818
0.0010161
0.000985525
0.00095678
0.000929961
0.000905461
0.000883153
0.000863279
0.000845685
0.000830491
0.000816205
0.00080446
0.000791345
0.000777057
0.000761624
0.000744935
0.000726358
0.0007065
0.000685276
0.000663678
0.000642172
0.00062062
0.000599002
0.000577405
0.000555855
0.000534322
0.000512781
0.000491229
0.000469663
0.000448085
0.000426514
0.000404968
0.000383463
0.000362043
0.000340708
0.000319439
0.00029825
0.000277151
0.000256141
0.000235216
0.000214376
0.000193619
0.000172947
0.000152356
0.000131838
0.000111391
9.10089e-05
7.06851e-05
5.04025e-05
3.01923e-05
9.78103e-06
0.00488856
0.00486722
0.00484458
0.00482435
0.00480393
0.0047823
0.00476007
0.00473777
0.00471549
0.00469324
0.00467106
0.004649
0.00462707
0.00460528
0.00458363
0.0045621
0.0045407
0.00451941
0.00449823
0.00447717
0.0044562
0.00443535
0.0044146
0.00439396
0.00437343
0.004353
0.00433268
0.00431246
0.00429234
0.00427227
0.00425225
0.00423223
0.00421214
0.00419183
0.00417127
0.0041499
0.00412665
0.00410102
0.00407285
0.00404204
0.00400877
0.00397306
0.00393553
0.0038967
0.00385692
0.00381647
0.00377561
0.00373454
0.0036935
0.00365267
0.00361211
0.00357191
0.00353212
0.00349272
0.00345377
0.00341521
0.00337707
0.00333937
0.00330209
0.00326538
0.0032291
0.0031934
0.00315853
0.00312469
0.00309184
0.00306012
0.00302969
0.00300066
0.00297307
0.00294694
0.00292229
0.002899
0.0028771
0.00285643
0.0028369
0.00281842
0.00280094
0.00278427
0.00276832
0.00275302
0.00273839
0.00272431
0.00271074
0.00269764
0.00268501
0.00267281
0.00266105
0.00264971
0.00263874
0.00262812
0.00261783
0.00260778
0.00259791
0.00258821
0.0025785
0.00256882
0.00255896
0.00254894
0.00253857
0.00252787
0.00251663
0.00250489
0.00249249
0.0024794
0.00246556
0.0024509
0.00243541
0.00241903
0.00240176
0.00238357
0.00236445
0.00234439
0.00232338
0.0023014
0.00227847
0.00225455
0.00222966
0.00220379
0.00217693
0.00214907
0.00212022
0.00209037
0.00205953
0.00202772
0.00199495
0.00196123
0.00192661
0.00189112
0.00185481
0.00181774
0.00177999
0.00174167
0.00170289
0.0016637
0.00162424
0.00158465
0.00154502
0.0015055
0.00146617
0.00142713
0.00138847
0.00135024
0.00131247
0.0012752
0.00123843
0.00120219
0.00116653
0.00113145
0.00109708
0.0010635
0.00103101
0.000999818
0.000970003
0.000941831
0.000915646
0.000891495
0.000869625
0.000849934
0.000832764
0.000816766
0.000803029
0.000788414
0.000772917
0.000756489
0.00073903
0.00071997
0.000699852
0.00067866
0.000657243
0.000635963
0.000614663
0.000593308
0.000571959
0.000550628
0.000529277
0.000507916
0.000486576
0.000465225
0.000443861
0.000422538
0.000401255
0.000379999
0.00035888
0.000337881
0.000316913
0.000296012
0.000275193
0.000254449
0.00023377
0.000213155
0.000192599
0.000172108
0.000151681
0.000131307
0.000110984
9.07097e-05
7.04809e-05
5.02797e-05
3.01387e-05
9.77164e-06
0.00488727
0.00486606
0.00484369
0.00482378
0.00480364
0.00478226
0.00476023
0.00473808
0.00471591
0.00469373
0.00467158
0.00464953
0.00462759
0.00460577
0.00458407
0.00456248
0.004541
0.00451961
0.00449832
0.00447711
0.00445598
0.00443491
0.00441392
0.00439299
0.00437211
0.00435128
0.00433049
0.00430974
0.00428899
0.00426819
0.00424735
0.0042264
0.00420529
0.00418389
0.00416213
0.00413954
0.00411523
0.00408879
0.00406006
0.00402899
0.00399581
0.00396059
0.00392385
0.0038861
0.00384768
0.0038089
0.00376994
0.00373098
0.00369218
0.00365367
0.00361548
0.00357761
0.00354011
0.00350291
0.00346605
0.00342945
0.00339314
0.0033571
0.0033213
0.0032859
0.00325074
0.00321602
0.00318184
0.00314838
0.00311572
0.00308394
0.00305322
0.00302363
0.00299528
0.00296821
0.00294245
0.00291798
0.00289478
0.0028728
0.00285195
0.00283218
0.00281337
0.00279557
0.00277849
0.00276209
0.00274639
0.00273135
0.00271689
0.00270295
0.00268951
0.00267653
0.002664
0.00265192
0.00264022
0.00262889
0.00261788
0.00260712
0.00259654
0.00258613
0.0025757
0.00256528
0.00255468
0.0025439
0.00253275
0.00252125
0.0025092
0.00249663
0.0024834
0.00246948
0.00245482
0.00243935
0.00242309
0.00240597
0.002388
0.00236917
0.00234946
0.00232887
0.00230739
0.00228501
0.00226174
0.00223755
0.00221245
0.00218644
0.00215951
0.00213165
0.00210288
0.00207319
0.0020426
0.00201113
0.00197878
0.00194561
0.00191164
0.00187691
0.0018415
0.00180546
0.00176888
0.00173184
0.00169446
0.00165679
0.00161897
0.0015811
0.00154326
0.00150555
0.00146806
0.00143083
0.00139392
0.00135737
0.00132115
0.00128528
0.00124975
0.00121455
0.00117972
0.00114523
0.00111119
0.0010777
0.00104495
0.00101315
0.000982385
0.000952992
0.000925235
0.000899307
0.000875467
0.000853737
0.000834505
0.000816718
0.000800963
0.000784808
0.000768092
0.000750686
0.000732484
0.000713002
0.000692697
0.000671622
0.000650452
0.000629432
0.000608386
0.000587315
0.000566256
0.000545183
0.000523999
0.000502754
0.000481636
0.000460543
0.000439405
0.000418323
0.000397324
0.000376406
0.000355602
0.000334895
0.000314246
0.000293662
0.000273141
0.000252678
0.000232255
0.000211873
0.000191531
0.000171233
0.000150973
0.000130745
0.000110553
9.03944e-05
7.02683e-05
5.01568e-05
3.00843e-05
9.7741e-06
0.00488716
0.00486601
0.00484371
0.00482385
0.00480377
0.00478245
0.00476046
0.00473835
0.00471621
0.00469405
0.00467192
0.00464987
0.00462793
0.00460609
0.00458436
0.00456273
0.00454118
0.00451972
0.00449832
0.00447698
0.00445568
0.00443443
0.0044132
0.00439198
0.00437077
0.00434954
0.00432828
0.00430702
0.00428568
0.00426415
0.0042425
0.00422066
0.00419857
0.00417612
0.00415323
0.00412948
0.00410421
0.00407705
0.00404784
0.00401659
0.00398353
0.00394881
0.00391287
0.00387618
0.00383913
0.00380198
0.00376487
0.00372793
0.00369126
0.00365491
0.00361888
0.00358313
0.00354768
0.00351244
0.00347743
0.00344258
0.00340789
0.00337336
0.00333892
0.00330475
0.00327066
0.00323689
0.00320346
0.00317053
0.0031382
0.00310655
0.00307573
0.00304583
0.00301695
0.00298917
0.00296253
0.00293706
0.00291275
0.00288958
0.00286751
0.0028465
0.00282646
0.00280739
0.00278914
0.00277167
0.00275486
0.00273874
0.00272327
0.00270838
0.00269402
0.00268015
0.00266675
0.00265381
0.00264126
0.00262908
0.00261723
0.00260564
0.00259423
0.00258298
0.00257174
0.00256049
0.00254907
0.00253746
0.0025255
0.00251318
0.00250034
0.00248697
0.00247295
0.00245828
0.00244288
0.00242672
0.00240979
0.00239206
0.00237353
0.00235419
0.00233403
0.00231304
0.00229122
0.00226856
0.00224506
0.00222071
0.00219551
0.00216946
0.00214255
0.00211478
0.00208617
0.00205672
0.00202645
0.00199539
0.00196354
0.00193097
0.0018977
0.00186379
0.0018293
0.0017943
0.00175887
0.0017231
0.00168708
0.00165087
0.00161458
0.0015783
0.0015421
0.00150604
0.00147018
0.00143457
0.0013992
0.0013641
0.00132923
0.00129459
0.00126014
0.00122586
0.00119177
0.00115783
0.00112411
0.00109074
0.00105777
0.00102547
0.0009939
0.000963402
0.000934183
0.000906553
0.000880788
0.000857043
0.000835698
0.000816071
0.0007983
0.000780581
0.00076264
0.00074428
0.000725371
0.000705537
0.000685115
0.000664239
0.000643401
0.00062273
0.000601912
0.000581085
0.000560375
0.000539529
0.000518573
0.00049759
0.000476656
0.000455741
0.000434849
0.000414041
0.00039334
0.000372745
0.000352258
0.000331866
0.000311543
0.000291273
0.000271048
0.000250871
0.000230702
0.00021055
0.000190422
0.00017032
0.000150233
0.000130155
0.000110094
9.00499e-05
7.00316e-05
5.00235e-05
3.00157e-05
9.77292e-06
0.00488821
0.00486708
0.00484464
0.00482459
0.00480433
0.00478286
0.00476078
0.00473859
0.0047164
0.00469422
0.00467208
0.00465004
0.0046281
0.00460626
0.00458451
0.00456285
0.00454127
0.00451974
0.00449825
0.0044768
0.00445536
0.00443392
0.00441248
0.004391
0.00436948
0.00434789
0.00432621
0.00430442
0.00428246
0.00426029
0.00423788
0.0042152
0.00419216
0.0041687
0.00414473
0.00411989
0.00409372
0.00406587
0.00403622
0.00400481
0.00397188
0.00393765
0.00390249
0.00386686
0.00383116
0.00379562
0.00376031
0.00372531
0.00369063
0.0036563
0.00362223
0.0035884
0.00355477
0.00352127
0.0034879
0.00345459
0.00342133
0.00338816
0.00335496
0.00332193
0.00328888
0.00325603
0.00322337
0.00319105
0.00315916
0.00312776
0.00309701
0.00306698
0.00303779
0.00300952
0.00298221
0.00295593
0.00293068
0.00290648
0.00288331
0.00286114
0.00283993
0.00281965
0.00280021
0.00278163
0.00276374
0.00274652
0.00272995
0.002714
0.00269862
0.00268376
0.00266938
0.00265546
0.00264195
0.00262881
0.002616
0.00260345
0.0025911
0.00257889
0.00256672
0.00255455
0.00254224
0.00252975
0.00251695
0.0025038
0.00249017
0.00247605
0.00246132
0.00244597
0.00242995
0.00241321
0.00239574
0.00237752
0.00235856
0.00233885
0.00231836
0.0022971
0.00227505
0.00225222
0.0022286
0.00220419
0.00217897
0.00215296
0.00212615
0.00209855
0.00207017
0.00204102
0.00201113
0.00198052
0.00194923
0.00191729
0.00188475
0.00185167
0.00181812
0.00178415
0.00174985
0.0017153
0.00168056
0.00164573
0.00161086
0.00157605
0.00154133
0.00150675
0.00147235
0.00143815
0.00140413
0.0013703
0.00133661
0.00130304
0.00126954
0.00123608
0.00120265
0.00116923
0.00113583
0.00110259
0.00106949
0.00103681
0.00100453
0.000973039
0.000942474
0.000913227
0.000885574
0.00085982
0.000836319
0.000814808
0.000795036
0.000775736
0.000756577
0.000737298
0.000717736
0.000697659
0.000677192
0.000656563
0.000636136
0.000615793
0.000595384
0.000574935
0.000554466
0.000533875
0.000513182
0.000492443
0.000471712
0.000451015
0.000430382
0.00040985
0.00038944
0.000369152
0.000348977
0.000328895
0.00030888
0.000288907
0.000268952
0.00024907
0.000229131
0.000209196
0.000189271
0.000169348
0.000149426
0.000129508
0.000109596
8.96917e-05
6.97941e-05
4.98847e-05
2.99815e-05
9.81001e-06
0.00489054
0.00486935
0.00484653
0.00482598
0.00480529
0.00478349
0.00476114
0.00473876
0.00471646
0.00469422
0.00467207
0.00465003
0.0046281
0.00460627
0.00458454
0.00456288
0.00454127
0.0045197
0.00449815
0.00447661
0.00445505
0.00443346
0.00441183
0.00439012
0.00436832
0.00434639
0.00432432
0.00430205
0.00427955
0.00425677
0.00423366
0.00421017
0.00418624
0.00416181
0.00413679
0.00411091
0.00408383
0.0040553
0.00402519
0.0039936
0.00396078
0.00392699
0.00389258
0.00385801
0.00382367
0.00378973
0.00375618
0.00372305
0.00369024
0.00365775
0.00362547
0.00359334
0.00356133
0.00352935
0.00349741
0.00346546
0.00343348
0.00340152
0.00336945
0.00333748
0.00330539
0.00327343
0.00324155
0.00320987
0.00317848
0.00314745
0.0031169
0.0030869
0.00305756
0.00302897
0.00300118
0.00297428
0.00294827
0.0029232
0.00289907
0.00287586
0.00285357
0.00283216
0.00281159
0.00279183
0.00277283
0.00275452
0.00273686
0.00271981
0.00270335
0.00268742
0.00267199
0.00265702
0.00264245
0.00262825
0.00261438
0.00260077
0.00258737
0.00257412
0.00256094
0.00254776
0.0025345
0.00252108
0.00250742
0.00249344
0.00247906
0.00246422
0.00244886
0.00243292
0.00241636
0.00239916
0.00238128
0.00236267
0.00234338
0.00232342
0.00230274
0.0022813
0.00225913
0.00223621
0.00221255
0.00218814
0.00216298
0.00213708
0.00211042
0.00208304
0.00205493
0.00202613
0.00199665
0.00196653
0.0019358
0.00190452
0.00187273
0.00184048
0.00180784
0.00177488
0.00174167
0.00170826
0.00167475
0.00164119
0.00160762
0.00157413
0.00154074
0.00150748
0.00147436
0.00144141
0.00140856
0.00137586
0.00134318
0.00131056
0.00127789
0.00124516
0.00121235
0.00117941
0.00114634
0.00111327
0.0010801
0.00104714
0.00101428
0.000981915
0.000950114
0.000919323
0.00088983
0.00086205
0.000836329
0.000812887
0.000791122
0.000770227
0.000749881
0.000729731
0.00070958
0.000689318
0.000669002
0.000648783
0.000628774
0.000608843
0.000588871
0.000568819
0.000548665
0.000528374
0.00050796
0.000487475
0.000466979
0.000446522
0.000426143
0.000405879
0.000385746
0.000365744
0.000345856
0.00032606
0.000306324
0.000286623
0.000266928
0.000247265
0.000227548
0.000207817
0.00018808
0.00016833
0.00014857
0.000128805
0.000109039
8.92725e-05
6.95027e-05
4.97113e-05
2.99182e-05
9.83077e-06
0.00489437
0.00487302
0.00484944
0.00482801
0.00480659
0.00478424
0.00476147
0.0047388
0.00471634
0.00469402
0.00467184
0.00464984