/*--------------------------------*- C++ -*----------------------------------*\
| =========                 |                                                 |
| \\      /  F ield         | OpenFOAM: The Open Source CFD Toolbox           |
|  \\    /   O peration     | Version:  2506                                  |
|   \\  /    A nd           | Website:  www.openfoam.com                      |
|    \\/     M anipulation  |                                                 |
\*---------------------------------------------------------------------------*/
FoamFile
{
    version     2.0;
    format      ascii;
    arch        "LSB;label=32;scalar=64";
    class       volVectorField;
    location    "0.6";
    object      vorticityField;
}
// * * * * * * * * * * * * * * * * * * * * * * * * * * * * * * * * * * * * * //

dimensions      [0 0 -1 0 0 0 0];

internalField   nonuniform List<vector> 
4000
(
(-2.12155e-20 7.19109e-18 -55.9098)
(-7.89025e-18 -5.29995e-18 -59.8145)
(8.44912e-18 -2.46239e-17 -56.8437)
(3.11772e-17 3.56143e-17 -50.6641)
(-6.44176e-17 5.09366e-18 -45.3639)
(3.31672e-17 -3.3736e-17 -41.5483)
(-2.78989e-19 1.57608e-17 -38.8569)
(3.20113e-17 -0 -36.9449)
(-3.15031e-17 -3.14959e-17 -35.5908)
(6.51006e-17 2.74769e-17 -34.6206)
(-6.51734e-17 -2.70515e-17 -33.9028)
(1.32575e-18 2.32098e-17 -33.3474)
(-4.60087e-18 7.0558e-17 -32.8961)
(6.67904e-17 -6.26973e-17 -32.5112)
(-2.95731e-19 -0 -32.169)
(-1.25538e-16 -6.14715e-17 -31.8545)
(1.26994e-16 5.39475e-17 -31.5577)
(-6.90186e-17 6.90389e-17 -31.2715)
(3.26671e-18 -6.15149e-17 -30.9902)
(0 -0 -30.7087)
(0 -0 -30.4216)
(0 -0 -30.1235)
(8.12709e-18 -1.1977e-16 -29.8082)
(1.11488e-16 2.25182e-16 -29.4685)
(-2.56236e-16 2.82189e-17 -29.0964)
(1.45803e-16 -2.53137e-16 -28.6826)
(-9.16691e-18 1.19506e-16 -28.2162)
(0 -0 -27.6838)
(0 -0 -27.0696)
(-1.04206e-17 1.17737e-16 -26.3526)
(-2.39628e-16 -1.06267e-16 -25.5047)
(1.37897e-16 -1.29537e-16 -24.4906)
(2.48152e-16 1.48524e-17 -23.2651)
(1.3293e-17 -1.25504e-16 -21.4405)
(-6.94866e-17 6.90361e-16 -19.2978)
(-3.19558e-16 5.74787e-16 -18.2361)
(-9.39088e-16 -1.00781e-15 -18.7436)
(-6.72907e-20 7.70496e-18 -20.3124)
(6.20081e-16 1.69888e-15 -22.7223)
(-7.83817e-16 -1.00945e-15 -26.0762)
(3.84294e-16 -2.22138e-15 -30.9318)
(1.08643e-15 2.09681e-15 -36.6107)
(-3.82012e-16 8.95304e-16 -42.0203)
(2.4449e-16 -9.99938e-16 -46.9383)
(1.10874e-15 7.79724e-16 -51.4006)
(-1.28165e-15 2.13598e-16 -55.5892)
(-1.30543e-15 5.24918e-16 -59.676)
(-1.03899e-15 -1.03669e-15 -63.3899)
(-1.10522e-15 -1.28589e-15 -66.89)
(-5.0321e-16 -1.28855e-15 -70.1087)
(7.08937e-16 -4.04803e-16 -72.8909)
(-4.07393e-17 5.05911e-16 -75.3912)
(-5.81017e-16 -1.10387e-15 -77.2379)
(7.55649e-16 -8.14836e-17 -78.6948)
(-9.24951e-17 1.08082e-15 -79.4536)
(-3.22833e-16 1.03675e-16 -79.6019)
(2.08754e-16 -2.81812e-17 -79.1539)
(7.13266e-17 -1.77519e-17 -77.874)
(1.33518e-16 5.92621e-17 -76.23)
(-6.80718e-17 -4.47523e-17 -73.8229)
(7.3639e-17 -1.2944e-17 -70.8747)
(2.73062e-16 9.13133e-18 -67.7124)
(-1.28568e-16 -6.81809e-17 -64.2343)
(-6.58527e-17 -6.6718e-16 -60.733)
(9.15562e-17 -1.86108e-16 -57.219)
(-1.00056e-16 7.62815e-16 -53.7765)
(5.91204e-16 -4.288e-17 -50.5581)
(3.12694e-17 -4.23226e-16 -47.4462)
(2.95511e-16 6.59865e-16 -44.6378)
(-7.70941e-16 7.75064e-16 -41.97)
(-1.6368e-16 -5.74022e-16 -39.548)
(-9.74427e-17 -3.10302e-16 -37.3143)
(-1.21877e-19 1.42713e-18 -35.1805)
(-9.12451e-16 5.7876e-16 -33.2467)
(-8.89473e-16 6.34601e-16 -31.4059)
(-4.01134e-17 7.88742e-16 -29.6555)
(-7.88093e-16 5.04928e-16 -28.028)
(9.10357e-17 -8.11012e-16 -26.4781)
(-8.64101e-16 3.75037e-16 -24.9909)
(7.23449e-16 2.61973e-16 -23.594)
(-1.40484e-15 3.78323e-16 -22.2732)
(-1.70202e-16 -8.29372e-16 -21.0217)
(3.98746e-17 -1.06507e-16 -19.8476)
(-4.49167e-17 2.12937e-18 -18.7474)
(6.90743e-16 1.14683e-15 -17.7225)
(-1.20403e-15 1.60256e-15 -16.7799)
(1.88584e-17 -1.44562e-15 -15.9027)
(-6.49895e-17 -8.06143e-16 -15.0894)
(-1.0899e-17 1.41285e-15 -14.3571)
(-5.10076e-16 3.2932e-16 -13.6744)
(1.87483e-18 9.54951e-19 -13.0401)
(-5.0094e-16 9.21069e-16 -12.4797)
(-2.49164e-16 -1.12304e-15 -11.9558)
(1.7967e-16 -4.10818e-16 -11.4833)
(4.68363e-18 6.15199e-16 -11.0754)
(6.93969e-17 -6.44163e-16 -10.7018)
(2.09448e-16 -1.18817e-16 -10.4043)
(2.75127e-17 3.02986e-17 -10.1482)
(-3.06634e-16 -8.18125e-17 -9.96711)
(5.47075e-17 2.59989e-16 -9.84859)
(5.28669e-17 7.93895e-19 -9.82717)
(2.34054e-17 -6.15872e-17 -9.8802)
(-9.7333e-18 1.69708e-16 -10.0446)
(-2.4577e-17 4.67384e-17 -10.2939)
(-3.80823e-17 -1.86142e-17 -10.6679)
(-6.78228e-19 -6.15689e-17 -11.15)
(3.67445e-18 4.9341e-16 -11.763)
(-2.07854e-16 -3.49408e-18 -12.4976)
(-2.21897e-16 -8.3101e-16 -13.3557)
(4.26743e-16 -1.26563e-16 -14.3322)
(-1.88983e-16 1.44564e-16 -15.4295)
(1.02534e-17 5.54346e-16 -16.6287)
(-2.31376e-16 -1.08614e-16 -17.9538)
(-1.94931e-16 -4.57622e-16 -19.337)
(-6.84543e-18 -5.7939e-16 -20.8592)
(4.55514e-16 3.00985e-16 -22.427)
(2.92014e-18 1.14253e-15 -24.0667)
(-3.65539e-17 1.43854e-16 -25.7907)
(4.44809e-16 3.30472e-16 -27.5525)
(-4.84859e-16 -3.63087e-16 -29.3716)
(-4.89368e-16 -1.78848e-15 -31.2603)
(5.90867e-16 3.94471e-16 -33.1853)
(3.15583e-17 1.29841e-15 -35.1476)
(-5.54394e-16 -3.9798e-16 -37.1772)
(-1.01414e-16 -1.35667e-15 -39.2442)
(1.04894e-15 7.43263e-16 -41.3619)
(-3.39479e-16 4.00943e-16 -43.5285)
(4.81849e-16 -1.20085e-16 -45.7327)
(5.78575e-16 8.30997e-16 -47.9902)
(-9.11075e-17 9.15097e-16 -50.3335)
(-2.33913e-17 5.05981e-16 -52.6517)
(-6.40244e-16 -7.39655e-17 -55.019)
(-2.05854e-16 -6.00044e-16 -57.4914)
(-1.03828e-15 -7.23293e-16 -59.882)
(3.03542e-16 1.34708e-16 -62.2826)
(-6.6396e-17 -3.34929e-17 -64.7994)
(6.86574e-17 3.83215e-17 -67.0125)
(1.88425e-17 -2.29408e-16 -69.3037)
(7.35614e-17 7.7789e-17 -71.3148)
(-1.13627e-16 1.21202e-16 -73.1576)
(6.3175e-17 2.24939e-16 -74.6925)
(-3.74246e-16 -1.36317e-16 -75.8454)
(1.34101e-16 2.00938e-16 -76.4828)
(-6.06011e-17 5.03494e-17 -76.6981)
(-1.23536e-16 -5.71907e-17 -76.0634)
(4.84027e-19 -2.56229e-16 -75.1015)
(-1.88519e-17 3.39064e-17 -73.1411)
(0 -0 -70.5819)
(-4.1133e-17 3.14634e-17 -67.5421)
(4.41251e-17 -6.75255e-18 -63.8962)
(1.87713e-17 -1.73199e-16 -60.0662)
(-1.22525e-17 -8.03049e-17 -55.8402)
(1.33466e-16 7.55445e-17 -51.5571)
(6.82897e-17 2.02677e-16 -47.2403)
(-1.46919e-16 5.73267e-17 -43.0173)
(1.35873e-16 -1.44589e-16 -38.9372)
(-2.30078e-16 -1.3895e-16 -35.0053)
(3.01326e-16 -1.70868e-16 -31.2598)
(-7.07905e-17 -2.99118e-16 -27.4587)
(2.07692e-16 -2.36056e-16 -23.3989)
(-2.10665e-16 6.78395e-16 -20.656)
(1.72048e-16 -9.82264e-17 -20.0606)
(-4.29506e-17 -8.97792e-17 -19.8589)
(2.92815e-17 -6.82608e-18 -19.8793)
(2.78286e-17 -4.27995e-18 -20.3571)
(2.65095e-17 -2.20252e-18 -21.4529)
(-2.54838e-17 -2.01756e-17 -23.4484)
(2.2637e-17 -1.24418e-17 -25.8414)
(1.60264e-18 2.0282e-17 -27.732)
(2.55822e-18 1.78556e-17 -29.0771)
(-2.23824e-17 1.37482e-17 -30.1381)
(-4.75963e-18 -3.6046e-17 -31.0553)
(1.61777e-18 1.25971e-18 -31.8795)
(2.52224e-18 3.20768e-17 -32.6286)
(-2.59427e-18 -1.77044e-17 -33.305)
(1.69279e-17 5.45011e-19 -33.9006)
(-3.07148e-17 1.34174e-17 -34.4033)
(1.46462e-17 3.37761e-18 -34.8008)
(-1.59831e-18 -3.02358e-17 -35.0876)
(9.23387e-19 1.34487e-17 -35.2626)
(7.50011e-18 5.09497e-18 -35.3282)
(-1.24663e-17 7.23416e-18 -35.2929)
(-9.40193e-19 -1.01635e-17 -35.1717)
(4.9758e-19 -8.05589e-18 -34.978)
(4.83757e-18 5.09064e-18 -34.726)
(4.50191e-18 1.34287e-20 -34.4313)
(-5.02e-18 -1.49741e-20 -34.1094)
(4.28557e-18 -1.96572e-19 -33.7743)
(-7.2295e-18 -8.2997e-19 -33.4369)
(4.59854e-18 2.22612e-19 -33.1059)
(-1.55269e-18 -4.63148e-21 -32.7879)
(-3.5172e-19 -1.00293e-18 -32.4876)
(1.11401e-18 -2.85912e-18 -32.2085)
(-4.02475e-19 4.84885e-18 -31.9521)
(-9.24693e-19 -1.08061e-18 -31.7176)
(1.31881e-19 -9.71914e-19 -31.5039)
(-6.8095e-20 -1.66609e-18 -31.3099)
(-1.48325e-19 1.22163e-18 -31.1324)
(-7.55614e-20 7.94741e-19 -30.9598)
(-1.93992e-20 -6.98261e-20 -30.8028)
(0 -0 4.02933)
(1.85647e-19 -0 -7.64178)
(-4.90495e-19 -1.42085e-17 -17.0364)
(-1.30138e-18 2.28997e-17 -21.9939)
(1.74287e-17 1.12209e-17 -23.9481)
(-1.59553e-17 -3.46845e-17 -24.1943)
(3.58566e-19 -1.52522e-17 -23.6742)
(-4.50378e-19 2.0604e-17 -22.8834)
(-3.0227e-17 9.47689e-18 -22.1045)
(2.67902e-17 -9.07016e-18 -21.4264)
(6.09433e-17 1.00042e-16 -20.8652)
(-1.2491e-16 -7.35105e-17 -20.4086)
(1.11533e-17 -1.38691e-16 -20.0357)
(5.85332e-17 4.37871e-17 -19.7257)
(-7.83468e-18 1.81041e-16 -19.4618)
(-5.75942e-17 -2.64732e-17 -19.2311)
(6.05809e-17 -1.37388e-16 -19.0245)
(2.53155e-18 6.02063e-17 -18.8351)
(0 -0 -18.6582)
(0 -0 -18.4896)
(0 -0 -18.3261)
(0 -0 -18.1643)
(0 -0 -18.0007)
(-2.46574e-16 -0 -17.8318)
(3.74788e-16 -0 -17.6535)
(-1.28002e-16 -0 -17.4611)
(0 -0 -17.2494)
(0 -0 -17.0122)
(0 -0 -16.7418)
(-1.02992e-17 1.16366e-16 -16.4287)
(8.314e-18 2.66654e-17 -16.0605)
(2.34646e-17 -3.51215e-16 -15.6198)
(-7.64202e-18 5.25749e-17 -15.0866)
(-1.39072e-16 3.75064e-16 -14.4239)
(-8.1743e-17 -4.43607e-16 -13.6116)
(3.66116e-16 3.55816e-16 -12.9108)
(9.15315e-16 8.3548e-16 -12.6959)
(5.65933e-17 -1.78661e-15 -13.1504)
(-3.16738e-16 -9.09741e-16 -14.2757)
(1.03859e-15 2.0059e-15 -16.0401)
(-2.88205e-16 1.09558e-16 -18.4536)
(-8.48829e-16 -1.50074e-15 -21.0616)
(2.34234e-16 -2.13514e-16 -23.7497)
(4.30664e-17 -2.63719e-16 -26.4999)
(-1.02174e-15 -2.20896e-17 -29.1618)
(8.25599e-16 2.23173e-15 -31.7505)
(2.179e-15 4.48914e-16 -34.2612)
(1.04271e-15 1.08404e-15 -36.6288)
(1.09264e-15 8.0528e-16 -38.9357)
(6.22487e-16 -1.84566e-16 -41.0732)
(-1.60296e-15 -8.51938e-16 -43.0565)
(-3.39727e-17 4.18544e-16 -44.8971)
(3.86103e-16 9.5576e-16 -46.4989)
(-6.85257e-16 -3.974e-16 -47.9299)
(5.69896e-16 -2.69908e-16 -49.0795)
(5.61185e-16 -2.40948e-18 -50.0024)
(3.60641e-16 -1.13804e-16 -50.6411)
(1.20686e-16 1.06339e-16 -50.9783)
(-6.8822e-17 -8.57428e-18 -50.9889)
(-7.07351e-17 1.09409e-16 -50.6975)
(-4.72988e-17 -2.03606e-16 -50.0216)
(-2.79206e-16 -4.53164e-17 -49.0083)
(2.19162e-16 4.31214e-16 -47.6941)
(-1.66259e-16 6.48237e-16 -46.0856)
(1.42865e-16 2.451e-16 -44.3247)
(9.02844e-18 -9.90005e-16 -42.3412)
(1.80799e-16 -2.85965e-16 -40.3506)
(-2.84042e-16 6.64059e-16 -38.2483)
(-3.49875e-16 -3.24981e-17 -36.2097)
(9.31698e-16 -4.25898e-16 -34.1854)
(1.36888e-17 1.39091e-16 -32.2113)
(-1.30315e-15 4.11176e-16 -30.3598)
(6.94765e-16 4.36112e-16 -28.5349)
(1.19583e-16 1.2073e-15 -26.8152)
(1.07611e-15 -1.15326e-15 -25.1827)
(1.46333e-16 -9.00437e-16 -23.606)
(-9.08067e-17 6.18749e-17 -22.1149)
(-4.495e-17 7.9682e-16 -20.7092)
(-6.25362e-16 -1.06422e-16 -19.3653)
(-1.56445e-15 7.80688e-16 -18.0972)
(2.10291e-15 4.32212e-16 -16.9082)
(1.87842e-16 -8.08676e-16 -15.7902)
(-6.75531e-16 4.50651e-16 -14.7467)
(1.37708e-16 -5.41372e-16 -13.7768)
(-6.00675e-17 -1.42852e-16 -12.8723)
(1.27844e-15 -6.40248e-16 -12.0417)
(4.94327e-16 -5.69177e-16 -11.2806)
(6.16469e-16 5.04273e-16 -10.5684)
(5.13843e-16 -1.06094e-15 -9.92213)
(1.06907e-15 -6.80704e-16 -9.33487)
(3.37108e-19 2.13955e-17 -8.78076)
(5.08028e-16 -6.11196e-16 -8.28311)
(2.08025e-16 1.60416e-16 -7.83086)
(-4.55146e-16 2.90171e-16 -7.40394)
(2.06887e-16 -5.57769e-16 -7.03685)
(2.09206e-18 2.82773e-16 -6.68719)
(-4.43927e-16 2.09974e-16 -6.39802)
(1.99258e-16 5.45554e-16 -6.13278)
(2.46029e-17 2.00462e-16 -5.92834)
(-1.19649e-16 -6.85959e-16 -5.75435)
(-5.29858e-17 9.60295e-18 -5.64519)
(-7.30174e-17 1.55829e-16 -5.5845)
(-2.5809e-17 -1.08127e-16 -5.5865)
(2.45265e-17 -1.20931e-17 -5.65409)
(5.02395e-17 -1.4418e-17 -5.78813)
(9.64262e-17 2.73896e-17 -5.99409)
(-1.85577e-18 -2.49195e-16 -6.28039)
(6.06042e-16 3.57834e-16 -6.63974)
(-2.88542e-18 5.63752e-17 -7.08548)
(-3.83669e-16 5.93412e-17 -7.60917)
(-5.26348e-17 3.74565e-16 -8.21642)
(-1.57167e-17 -5.30367e-16 -8.90105)
(2.25344e-16 3.8497e-16 -9.6717)
(1.80188e-16 1.43858e-16 -10.5026)
(-2.12314e-16 -3.94659e-16 -11.435)
(-4.54991e-16 -2.63367e-16 -12.4054)
(1.68703e-17 -5.9152e-16 -13.4585)
(6.22216e-17 -7.07577e-16 -14.576)
(-2.46897e-16 1.45591e-16 -15.7346)
(9.43259e-16 1.87366e-15 -16.96)
(-5.88321e-16 -2.37344e-16 -18.2397)
(-5.18296e-16 -1.03613e-15 -19.5533)
(3.91326e-16 3.90259e-16 -20.9168)
(6.48144e-16 4.38696e-16 -22.3328)
(4.50513e-16 -1.79528e-16 -23.7752)
(-1.35737e-15 -1.04036e-15 -25.2611)
(2.61049e-16 6.13858e-16 -26.7813)
(-1.19214e-16 -1.21133e-15 -28.3282)
(-1.55274e-16 4.06416e-17 -29.9099)
(1.24453e-15 5.38697e-16 -31.5235)
(4.38847e-16 2.54348e-16 -33.1171)
(1.28003e-15 5.0461e-16 -34.7537)
(5.9525e-16 1.40192e-15 -36.405)
(7.78031e-16 5.76038e-16 -37.9797)
(7.19953e-17 -7.75737e-16 -39.5889)
(9.00006e-17 5.5387e-16 -41.1832)
(2.1738e-16 2.8874e-17 -42.5994)
(8.61454e-17 -1.87735e-17 -44.0822)
(-2.80865e-17 -1.03447e-16 -45.354)
(6.44716e-17 -5.92004e-17 -46.5559)
(8.84268e-17 -1.3486e-16 -47.5919)
(-1.09735e-17 5.02349e-16 -48.4537)
(1.5661e-16 -4.91422e-16 -49.1147)
(3.37323e-17 1.70426e-16 -49.5842)
(-1.33617e-17 -7.74933e-17 -49.7469)
(-4.53336e-17 8.24301e-17 -49.737)
(8.2127e-17 1.58961e-17 -49.3341)
(-5.35062e-17 1.43268e-17 -48.6848)
(3.60962e-17 2.50398e-17 -47.6589)
(-9.52388e-17 -1.8389e-16 -46.2996)
(-5.71394e-17 1.83248e-16 -44.6346)
(4.26366e-17 3.223e-16 -42.6492)
(2.01676e-17 -9.22999e-17 -40.4047)
(-8.84089e-17 -5.60379e-17 -37.9392)
(3.10019e-16 -2.04622e-16 -35.3081)
(-1.91284e-16 -4.04154e-17 -32.591)
(4.28598e-17 9.69355e-17 -29.7988)
(-3.79434e-16 -1.29465e-16 -26.9965)
(1.08899e-16 3.04748e-16 -24.1507)
(-5.72294e-16 6.3923e-16 -21.3108)
(2.447e-16 -4.21327e-16 -18.4519)
(-6.06731e-17 -3.16767e-16 -16.4935)
(5.46157e-18 2.38506e-16 -15.25)
(-6.7912e-17 -5.78066e-17 -14.4943)
(-3.84666e-18 -2.15662e-17 -14.1325)
(-4.92665e-17 1.57067e-17 -14.1946)
(5.13154e-17 4.40229e-17 -14.6661)
(-2.57409e-17 -1.74406e-17 -15.4399)
(-2.26635e-19 -2.53421e-18 -16.3318)
(-1.40232e-18 -2.27684e-18 -17.1783)
(1.75252e-18 2.27345e-18 -17.9181)
(2.88904e-18 1.92605e-17 -18.5657)
(-2.10397e-17 1.5612e-17 -19.1426)
(1.66309e-17 -5.22339e-17 -19.6608)
(8.74965e-19 6.49362e-18 -20.1253)
(1.94888e-17 -1.04122e-17 -20.536)
(-1.68442e-17 5.83638e-17 -20.889)
(-2.48688e-19 -8.81003e-17 -21.1864)
(1.6736e-18 6.71948e-17 -21.4192)
(-1.37003e-18 -2.0276e-17 -21.5782)
(-3.98722e-19 -1.57963e-17 -21.6704)
(6.1894e-18 2.67286e-17 -21.6985)
(-5.0339e-18 1.45734e-18 -21.6642)
(-5.7588e-18 1.39701e-17 -21.5745)
(5.1073e-18 -2.45688e-17 -21.4375)
(1.6028e-18 -9.79202e-18 -21.2619)
(3.89376e-19 2.11537e-17 -21.0569)
(-2.53054e-19 -1.84146e-17 -20.8319)
(-4.61974e-19 3.62971e-17 -20.5954)
(3.3741e-19 -2.93336e-17 -20.3549)
(1.39503e-18 1.32615e-17 -20.1162)
(-1.05815e-18 1.1189e-18 -19.8841)
(-2.12402e-18 -9.16664e-19 -19.6618)
(2.36126e-18 -5.17692e-18 -19.4517)
(-2.65812e-20 9.0488e-18 -19.2549)
(9.63755e-20 -1.53878e-18 -19.0716)
(3.79562e-20 4.22503e-18 -18.9012)
(2.18669e-19 -2.74566e-19 -18.7426)
(6.1633e-21 1.77998e-20 -18.5912)
(7.32036e-21 2.40454e-18 -18.45)
(-2.08573e-20 7.06969e-18 6.4577)
(-4.19394e-19 -3.55603e-18 3.95876)
(6.24181e-19 -2.42559e-17 -0.473827)
(1.87102e-19 1.37709e-17 -4.63027)
(1.52689e-17 2.08248e-17 -7.97938)
(-1.55745e-17 -1.38534e-17 -10.3489)
(0 -0 -11.6667)
(-3.27376e-17 2.82697e-17 -12.337)
(3.34221e-17 -4.43895e-17 -12.5611)
(-2.99022e-17 -8.13546e-17 -12.5204)
(2.91728e-17 1.02362e-16 -12.3699)
(2.76397e-18 1.09324e-16 -12.1917)
(-2.3434e-18 -9.11113e-17 -12.0216)
(-1.20364e-16 -8.02884e-17 -11.872)
(1.1235e-16 1.13929e-16 -11.7439)
(7.52807e-17 -9.09566e-17 -11.6338)
(-1.22087e-16 -4.48695e-17 -11.5372)
(5.23098e-17 1.35834e-16 -11.4499)
(3.01362e-18 -5.6749e-17 -11.369)
(0 -0 -11.2923)
(1.15076e-16 -0 -11.218)
(-1.15283e-16 -0 -11.1448)
(-7.5493e-18 1.11255e-16 -11.0715)
(-1.06878e-16 -6.96144e-17 -10.9971)
(1.22841e-16 -1.53109e-16 -10.9202)
(-8.22142e-18 1.11468e-16 -10.8393)
(0 -0 -10.7527)
(1.13021e-16 -0 -10.6584)
(-4.52009e-19 -0 -10.5536)
(-1.22767e-16 1.10046e-16 -10.4348)
(2.01595e-17 -7.34358e-17 -10.2976)
(2.36435e-16 -1.4706e-16 -10.1352)
(-3.72018e-16 1.03553e-16 -9.94138)
(2.14942e-16 -3.72666e-18 -9.72436)
(-1.10947e-17 2.33143e-16 -9.42989)
(-4.53171e-16 -4.78705e-16 -9.04094)
(6.76027e-16 -1.67712e-16 -8.71324)
(3.23412e-16 1.58383e-15 -8.67556)
(-8.20441e-16 -9.41139e-17 -9.02642)
(-1.96033e-16 -9.80254e-16 -9.75156)
(-1.29417e-16 -1.55546e-16 -10.7709)
(-1.27628e-15 4.61099e-17 -11.89)
(4.73452e-17 6.47707e-16 -13.1353)
(9.57422e-16 6.65689e-16 -14.4983)
(-1.55615e-15 -1.33419e-15 -15.9239)
(1.77351e-15 -1.79731e-15 -17.3838)
(-3.63847e-16 1.37271e-16 -18.7988)
(-4.70396e-17 5.46827e-16 -20.236)
(1.63092e-16 -3.48324e-16 -21.6188)
(-3.7597e-17 1.2899e-15 -22.9946)
(2.22335e-16 9.43807e-16 -24.3255)
(1.57529e-16 -1.14037e-15 -25.599)
(7.37801e-17 -7.49128e-16 -26.8458)
(2.7262e-16 -4.81654e-16 -28.0473)
(-4.24577e-16 -3.3594e-16 -29.1787)
(-2.34335e-16 -4.87882e-17 -30.2449)
(-3.1787e-16 -1.91721e-16 -31.2349)
(-1.65407e-17 1.23658e-16 -32.1618)
(-9.78846e-17 1.9843e-16 -32.9259)
(1.29555e-16 3.16925e-17 -33.6135)
(4.92597e-17 1.01194e-16 -34.0772)
(-2.43627e-16 3.80835e-17 -34.3186)
(3.75434e-16 -4.04087e-16 -34.3157)
(3.36085e-16 -6.01669e-16 -34.0063)
(-1.56731e-16 -6.9947e-16 -33.4842)
(-4.00956e-16 7.2747e-16 -32.6488)
(-8.11452e-16 3.12478e-16 -31.664)
(1.46357e-16 1.13578e-16 -30.4476)
(2.01321e-17 -1.93071e-16 -29.1384)
(-6.00057e-16 3.09425e-16 -27.7288)
(4.03175e-17 1.20286e-15 -26.2508)
(1.29973e-15 -7.52726e-16 -24.7966)
(-1.0472e-15 -1.00622e-15 -23.3131)
(1.81827e-15 -1.03991e-15 -21.8674)
(7.03686e-16 -9.12806e-16 -20.4702)
(-1.7152e-16 1.70123e-15 -19.1074)
(9.30036e-16 -1.09823e-17 -17.8049)
(4.85363e-17 -7.40804e-17 -16.5736)
(1.57064e-15 9.17586e-16 -15.4022)
(3.83503e-16 -1.77927e-15 -14.2994)
(5.01902e-16 -3.33224e-15 -13.2704)
(-1.30521e-16 1.932e-15 -12.31)
(7.21556e-16 -1.05289e-16 -11.4201)
(5.74201e-16 -1.44177e-15 -10.5993)
(-6.27136e-16 4.61585e-16 -9.83885)
(1.07971e-15 -9.48309e-16 -9.14276)
(-1.74535e-15 3.41274e-16 -8.50865)
(-1.28323e-15 -3.96774e-16 -7.91926)
(-6.20239e-16 8.43575e-16 -7.38444)
(-9.25512e-17 4.49577e-16 -6.90081)
(1.06817e-17 6.77949e-16 -6.44838)
(2.15013e-17 3.00791e-16 -6.03931)
(-2.339e-16 1.96915e-16 -5.66859)
(2.66007e-16 -3.95046e-16 -5.31914)
(-1.1248e-17 -1.74294e-17 -5.01447)
(-8.16304e-17 2.63144e-16 -4.7233)
(4.0603e-17 -1.84723e-16 -4.47483)
(-3.5201e-17 -5.64869e-16 -4.24131)
(6.75856e-16 6.64066e-18 -4.04873)
(6.00093e-17 3.27644e-16 -3.87172)
(-5.04684e-17 5.84322e-18 -3.73418)
(7.47413e-17 -9.84482e-17 -3.62146)
(2.03307e-18 5.77873e-17 -3.54342)
(-1.07141e-19 -4.84991e-17 -3.50163)
(-1.96886e-18 -1.03074e-16 -3.49399)
(-9.12818e-17 -4.74111e-17 -3.52849)
(-9.97847e-17 -1.37279e-16 -3.60573)
(-3.71581e-16 -1.66897e-16 -3.728)
(5.82501e-16 6.60078e-16 -3.90121)
(-4.18163e-16 -3.13919e-16 -4.1252)
(4.36921e-16 -1.49473e-16 -4.40366)
(-5.62621e-18 2.54649e-16 -4.73682)
(1.08859e-17 -2.62447e-16 -5.12912)
(7.06065e-17 1.6994e-16 -5.5726)
(-4.03472e-17 3.87063e-16 -6.08388)
(-3.56579e-18 -2.87743e-16 -6.63742)
(1.95747e-16 6.62176e-16 -7.25319)
(1.29543e-17 9.0783e-16 -7.9226)
(-1.04566e-15 -1.44331e-15 -8.63495)
(-2.51654e-16 -5.34426e-16 -9.4013)
(8.29867e-16 1.56349e-15 -10.214)
(2.66059e-16 -8.78097e-16 -11.0626)
(-1.42285e-16 -6.85777e-16 -11.9542)
(-5.21727e-16 -4.99829e-16 -12.8868)
(1.25061e-17 6.42316e-16 -13.8461)
(-1.05488e-15 5.54092e-16 -14.8387)
(6.36311e-16 -9.31957e-16 -15.8582)
(-8.08207e-16 1.45423e-16 -16.8992)
(-3.85482e-16 -1.90471e-15 -17.9604)
(-5.43805e-16 -1.26826e-15 -19.0395)
(-9.97852e-17 -9.00546e-17 -20.1122)
(-5.18492e-16 -4.5948e-16 -21.2007)
(-2.13178e-16 -1.31442e-15 -22.281)
(9.40391e-16 2.17205e-16 -23.3178)
(-7.08877e-16 1.59312e-16 -24.3643)
(2.01513e-17 -2.93615e-16 -25.3734)
(6.44898e-17 -3.17973e-16 -26.316)
(-1.2095e-16 -6.01998e-17 -27.2601)
(-4.56963e-17 9.48129e-17 -28.1045)
(-1.54162e-16 -5.27453e-17 -28.9069)
(3.76919e-17 4.96608e-16 -29.6393)
(6.98383e-16 2.74167e-17 -30.3047)
(-7.81242e-17 4.9356e-17 -30.9094)
(-6.4926e-19 2.39625e-16 -31.4496)
(-1.71204e-16 3.6386e-16 -31.9183)
(1.88692e-17 -1.88759e-16 -32.3184)
(6.16805e-17 -1.67699e-16 -32.6236)
(-7.29381e-17 1.64101e-16 -32.835)
(8.99571e-17 -4.88774e-17 -32.8749)
(-1.34252e-16 3.31862e-16 -32.7406)
(6.1412e-17 -8.60757e-17 -32.3744)
(9.00183e-17 -4.83415e-16 -31.7767)
(-2.00925e-16 -2.49895e-16 -30.9022)
(6.6039e-17 1.40898e-16 -29.7714)
(-2.28465e-16 -2.86148e-16 -28.3712)
(-8.71579e-17 4.36072e-16 -26.7655)
(3.19067e-16 -7.81227e-17 -24.9533)
(-1.0938e-16 1.95281e-16 -22.9897)
(-1.87999e-17 -4.51788e-17 -20.8978)
(4.74207e-16 -9.89788e-17 -18.7881)
(1.07459e-16 -2.14354e-16 -16.3364)
(-2.34361e-16 3.03145e-16 -14.1558)
(3.78794e-17 -2.46072e-18 -12.4876)
(4.03216e-17 4.67442e-17 -11.3383)
(-2.89666e-17 1.07505e-18 -10.6047)
(-2.17729e-17 2.75329e-17 -10.2468)
(-1.32519e-17 -1.11605e-16 -10.173)
(2.66626e-17 3.5302e-17 -10.3511)
(2.20302e-17 7.3737e-19 -10.7055)
(2.64936e-18 1.79598e-17 -11.1218)
(-1.83108e-17 3.92407e-17 -11.5151)
(1.83498e-18 -2.03077e-17 -11.8541)
(3.7462e-17 2.29785e-18 -12.1373)
(-3.80985e-17 1.34945e-18 -12.373)
(-1.74222e-18 -1.9061e-17 -12.572)
(-1.88957e-17 -4.03069e-17 -12.7434)
(3.50763e-17 7.96024e-17 -12.8939)
(-1.89386e-17 2.2611e-17 -13.028)
(9.57785e-19 -6.52468e-17 -13.1449)
(9.42933e-19 1.37679e-17 -13.2415)
(-8.66271e-18 2.71974e-18 -13.3153)
(6.93003e-18 3.43185e-18 -13.3633)
(1.87233e-18 2.22719e-17 -13.3826)
(9.41838e-18 -8.9548e-18 -13.3717)
(-9.08551e-18 -2.85622e-17 -13.3306)
(-5.26281e-18 -2.31213e-18 -13.2611)
(6.08557e-18 -1.24118e-18 -13.1658)
(-4.30932e-18 3.08254e-18 -13.049)
(4.33672e-18 -7.54183e-19 -12.9153)
(-1.50922e-18 -3.7919e-18 -12.7696)
(2.38792e-18 -1.04396e-17 -12.6166)
(1.38665e-18 1.12651e-17 -12.4603)
(-1.26688e-18 9.42668e-18 -12.304)
(2.68782e-19 -1.48622e-17 -12.1504)
(1.04436e-19 9.53118e-19 -12.0015)
(-3.20512e-19 -3.18183e-18 -11.8584)
(1.37539e-19 -5.46458e-18 -11.7221)
(1.53425e-19 -2.43332e-18 -11.593)
(1.50314e-19 2.80006e-18 -11.4699)
(2.9805e-20 -2.47476e-18 -11.3329)
(0 -0 4.13111)
(7.53057e-18 -0 3.76973)
(-7.31442e-18 -1.38692e-17 2.84473)
(8.89843e-19 6.6767e-18 1.25197)
(-1.0129e-18 2.1016e-17 -0.642055)
(2.03914e-19 -1.38235e-17 -2.37382)
(2.90249e-17 -0 -3.86596)
(-2.90582e-17 -0 -5.07413)
(1.26514e-18 -0 -5.85265)
(-2.87638e-18 -0 -6.37889)
(-6.08605e-17 5.51366e-17 -6.70705)
(6.21326e-17 -2.82924e-17 -6.88921)
(6.13245e-17 -2.71443e-17 -6.99599)
(-1.81215e-18 -2.83809e-17 -7.06619)
(6.89437e-19 -5.26892e-17 -7.11846)
(-6.18427e-17 1.91348e-16 -7.16074)
(-5.88742e-17 -8.42954e-17 -7.19582)
(6.36565e-17 -8.06161e-17 -7.22429)
(-2.91723e-18 5.49338e-17 -7.24605)
(6.27867e-17 -1.08534e-16 -7.26101)
(-6.23205e-17 5.87239e-17 -7.26924)
(-7.60846e-18 1.5854e-16 -7.27105)
(-2.48073e-19 -1.07146e-18 -7.26691)
(1.36908e-17 -5.91001e-17 -7.25736)
(1.12518e-16 -1.56397e-16 -7.24298)
(-1.19126e-16 1.0784e-16 -7.2243)
(-1.01862e-16 -1.06596e-16 -7.20178)
(2.17318e-18 -4.60933e-17 -7.17573)
(2.02214e-16 2.13932e-16 -7.1462)
(-1.2121e-16 1.51388e-16 -7.11292)
(3.41513e-17 -2.74808e-16 -7.07523)
(-1.11368e-16 -8.67243e-17 -7.03138)
(9.51179e-17 1.5604e-16 -6.98105)
(1.05107e-16 -3.8104e-17 -6.9297)
(-1.34642e-16 2.43496e-16 -6.84749)
(2.5388e-16 -1.47603e-16 -6.68321)
(-8.76965e-16 -6.97806e-16 -6.46389)
(-8.18697e-16 -8.6902e-16 -6.31909)
(1.03092e-15 4.71733e-16 -6.33724)
(3.92588e-16 9.22338e-16 -6.53257)
(-1.35314e-16 1.24346e-15 -6.84898)
(7.86429e-16 -8.48138e-17 -7.22737)
(5.71015e-16 -2.64249e-15 -7.69784)
(-7.67131e-16 8.6196e-17 -8.25664)
(4.18498e-16 1.38775e-15 -8.87947)
(-9.5709e-16 -4.33749e-16 -9.56594)
(-8.23841e-16 2.03078e-16 -10.2427)
(-4.25936e-16 -2.43892e-16 -11.0669)
(-7.66955e-16 6.32555e-17 -11.8044)
(-4.06446e-16 -1.13593e-15 -12.5039)
(1.22079e-15 6.02526e-17 -13.3358)
(-5.54047e-16 6.19467e-16 -14.1443)
(-1.09109e-16 9.77487e-16 -14.9759)
(-7.67133e-16 7.53096e-17 -15.8181)
(-1.26222e-16 3.01144e-16 -16.696)
(-3.37658e-17 -6.67745e-17 -17.5838)
(-4.40703e-16 -2.44241e-16 -18.492)
(-1.15186e-16 -1.57131e-16 -19.4442)
(9.84264e-18 -7.69455e-17 -20.359)
(6.83081e-17 -9.45367e-17 -21.3007)
(-1.27707e-16 2.81157e-18 -22.157)
(2.67297e-16 -1.54012e-16 -22.9278)
(-3.91262e-16 -1.82666e-16 -23.5695)
(1.41528e-16 7.01005e-16 -24.003)
(-5.49984e-16 1.27914e-15 -24.262)
(7.06729e-16 -2.22613e-16 -24.2458)
(-1.64658e-16 -1.60312e-16 -24.0431)
(1.29622e-16 -1.36097e-16 -23.5847)
(-4.60634e-16 5.48932e-16 -22.957)
(4.34921e-16 2.25742e-16 -22.1622)
(2.27054e-16 -1.27486e-15 -21.2264)
(3.50796e-16 -1.90356e-16 -20.2305)
(-3.43127e-16 9.29335e-16 -19.1537)
(-2.34275e-16 -1.30476e-15 -18.0562)
(-8.81038e-16 1.31416e-15 -16.9613)
(3.59301e-17 -6.72328e-16 -15.872)
(5.57455e-16 -8.90014e-16 -14.8158)
(1.27338e-17 -1.28578e-16 -13.8085)
(1.25148e-15 -1.88897e-15 -12.8495)
(1.16424e-15 -5.20923e-16 -11.9481)
(-2.66824e-15 3.12201e-15 -11.1105)
(-5.15392e-16 1.13567e-17 -10.3338)
(5.53075e-16 -1.42039e-15 -9.6193)
(-6.78106e-16 1.13752e-15 -8.9651)
(9.0762e-19 -7.00251e-16 -8.36327)
(-1.29555e-15 1.86328e-15 -7.81431)
(1.33499e-15 2.52512e-15 -7.31511)
(1.24962e-17 1.91283e-16 -6.85142)
(-4.10517e-16 -1.52795e-15 -6.42826)
(-1.56494e-15 1.54182e-16 -6.04176)
(-2.41394e-16 1.30465e-16 -5.67822)
(1.22411e-17 5.68501e-18 -5.3444)
(2.57852e-16 -1.02068e-16 -5.03652)
(-3.49228e-17 -2.88401e-16 -4.7414)
(-4.39919e-16 1.09507e-16 -4.47611)
(-1.78595e-17 2.63835e-16 -4.21661)
(2.11923e-16 -1.17966e-16 -3.98494)
(-6.46003e-16 -4.94641e-17 -3.75882)
(-3.76227e-16 3.54685e-17 -3.55873)
(-1.8801e-17 2.02483e-16 -3.36377)
(9.60968e-17 -3.43357e-17 -3.19304)
(-9.28425e-17 7.75304e-17 -3.03334)
(5.95999e-17 -1.56756e-17 -2.89355)
(-7.98396e-19 -9.51433e-18 -2.77399)
(8.57485e-19 9.5405e-17 -2.67341)
(-1.9892e-16 1.48867e-16 -2.59932)
(-3.45377e-18 1.56005e-16 -2.55039)
(-2.05025e-16 -5.5787e-16 -2.53135)
(-1.4675e-16 -2.26131e-16 -2.54479)
(3.48877e-16 6.98219e-16 -2.59274)
(-1.59005e-17 -2.29818e-16 -2.67762)
(4.96931e-18 -9.54058e-18 -2.80085)
(3.14455e-18 2.3999e-16 -2.96506)
(-2.49612e-16 1.50253e-18 -3.16756)
(3.84102e-16 -5.11434e-17 -3.41608)
(9.70147e-18 -2.02888e-16 -3.69983)
(-5.6223e-16 -1.27392e-15 -4.02787)
(5.10887e-16 4.76759e-16 -4.39664)
(7.02563e-16 2.20601e-15 -4.80106)
(-6.69196e-16 -1.09186e-15 -5.24574)
(1.06301e-15 -8.37734e-16 -5.72676)
(-5.61499e-16 2.04095e-16 -6.23857)
(-5.84472e-16 1.17556e-15 -6.78385)
(-4.16407e-16 3.98074e-16 -7.36008)
(-7.44187e-16 -6.21251e-16 -7.95984)
(1.47712e-15 5.48362e-16 -8.58471)
(-1.40997e-16 4.94857e-17 -9.2305)
(4.22353e-16 7.66407e-16 -9.89342)
(-6.35499e-16 8.6584e-16 -10.565)
(-9.12398e-16 6.429e-18 -11.2585)
(-5.50657e-16 -1.61457e-16 -11.9457)
(-5.0831e-17 4.82535e-17 -12.6316)
(-8.47971e-16 3.85604e-16 -13.3091)
(-5.07089e-16 -7.5144e-16 -13.9888)
(-1.24246e-16 4.08157e-16 -14.6615)
(-1.31022e-16 -1.00025e-16 -15.2687)
(-4.24726e-16 -8.41866e-17 -15.8593)
(-2.74661e-16 4.25577e-16 -16.4789)
(1.53084e-16 -8.47519e-17 -17.0324)
(-9.04409e-17 3.19582e-16 -17.5611)
(4.55879e-16 -1.47504e-15 -18.0661)
(-2.40067e-17 -8.06833e-16 -18.5552)
(1.39559e-17 -2.30264e-16 -19.0401)
(1.79591e-16 2.06355e-16 -19.5197)
(2.30165e-16 1.83218e-16 -20.0147)
(8.65739e-17 -3.34087e-17 -20.503)
(-8.14018e-17 -1.85536e-17 -21.0162)
(5.04978e-17 1.97427e-16 -21.5215)
(-4.22787e-17 -1.12017e-16 -21.9857)
(2.0816e-16 1.91708e-16 -22.3942)
(7.82874e-18 -2.59733e-16 -22.6835)
(-1.96188e-16 2.19333e-16 -22.8464)
(3.73914e-17 4.23823e-16 -22.8125)
(2.5857e-17 -2.34668e-16 -22.5744)
(-8.07984e-17 4.54765e-16 -22.0887)
(9.87003e-17 -1.7555e-16 -21.3782)
(-2.96002e-16 -3.22813e-16 -20.4301)
(2.55572e-16 8.94101e-17 -19.2251)
(-2.29899e-17 -1.46336e-16 -17.8541)
(-8.2827e-17 -2.55902e-16 -16.3702)
(-1.32502e-16 1.83426e-16 -14.5426)
(1.18579e-16 -3.72713e-17 -12.7022)
(2.50571e-17 -5.18335e-17 -11.1351)
(8.72586e-17 -9.65912e-17 -9.96726)
(-1.71728e-17 4.58953e-17 -9.17946)
(2.94686e-17 1.24318e-17 -8.73197)
(-6.51882e-17 2.8426e-17 -8.52761)
(-6.99973e-18 -7.63329e-17 -8.51554)
(3.68064e-18 -3.34521e-17 -8.6228)
(2.25818e-17 2.70418e-17 -8.76959)
(4.93908e-19 4.96488e-17 -8.89666)
(-7.03476e-18 -3.92984e-17 -8.97489)
(-5.3745e-18 -3.73196e-17 -8.99948)
(5.26031e-18 7.10246e-17 -8.97881)
(3.96786e-18 -5.87832e-18 -8.92738)
(-3.60649e-17 4.46466e-18 -8.8612)
(3.00725e-17 -1.32626e-17 -8.79455)
(1.3903e-17 -4.66527e-17 -8.73811)
(-9.78104e-18 7.02233e-17 -8.69777)
(-3.72895e-18 -1.0575e-17 -8.67524)
(7.77624e-18 7.86407e-18 -8.66865)
(-5.66112e-18 -2.51619e-18 -8.67361)
(6.24325e-19 -1.19616e-17 -8.68435)
(4.8552e-18 -2.39193e-17 -8.69471)
(-1.00943e-17 3.42811e-17 -8.69937)
(6.12447e-19 1.66862e-18 -8.69386)
(-1.34697e-18 -8.47524e-18 -8.67505)
(-1.11919e-18 3.69271e-18 -8.6416)
(2.41741e-18 2.51436e-17 -8.59362)
(-3.07767e-18 -3.13263e-17 -8.53227)
(-3.11056e-18 -5.42478e-18 -8.45945)
(3.49095e-18 -1.18563e-17 -8.37737)
(-1.22237e-18 1.37176e-17 -8.28835)
(-9.21886e-19 -1.35205e-17 -8.19465)
(-9.83466e-20 1.42558e-17 -8.09829)
(5.93178e-19 5.51434e-18 -8.00094)
(-6.16306e-19 6.04438e-18 -7.90401)
(-3.51829e-20 -3.57771e-18 -7.80881)
(2.70123e-19 -9.76055e-18 -7.71949)
(-8.43424e-20 1.54911e-19 -7.5941)
(0 -0 2.68275)
(0 -0 2.67904)
(1.24814e-19 -1.41021e-17 2.60321)
(8.58453e-19 6.98652e-18 2.17726)
(-1.12509e-18 2.11188e-17 1.47473)
(6.92492e-19 -4.14545e-17 0.641772)
(2.98255e-17 1.28346e-17 -0.314041)
(-6.06173e-17 6.93829e-17 -1.17041)
(3.03032e-17 -6.74142e-17 -1.91596)
(1.48716e-18 -2.92605e-17 -2.5624)
(-2.33363e-18 6.92422e-17 -3.09918)
(5.94554e-17 -2.73338e-17 -3.47726)
(-1.13682e-16 -5.41597e-17 -3.78559)
(1.16324e-16 -2.83324e-17 -4.0359)
(-1.24239e-16 1.62426e-16 -4.24337)
(5.97277e-17 2.35867e-18 -4.41993)
(7.87097e-18 -1.36323e-16 -4.57262)
(-4.86434e-18 5.40305e-17 -4.70514)
(2.98916e-18 -5.33258e-17 -4.81957)
(5.29962e-17 2.58392e-17 -4.91736)
(-6.398e-17 8.08937e-17 -4.99971)
(8.0634e-18 -5.3407e-17 -5.06789)
(-1.16975e-16 1.05345e-16 -5.12327)
(1.28263e-16 -1.56825e-16 -5.16731)
(-2.23317e-18 -1.07104e-16 -5.20157)
(-2.51697e-17 3.681e-16 -5.22766)
(6.03217e-18 -5.33469e-17 -5.2472)
(1.97165e-17 -3.12897e-16 -5.26182)
(-1.11166e-16 1.69269e-18 -5.27306)
(8.35855e-17 3.62086e-16 -5.28231)
(1.16576e-17 -5.49112e-17 -5.29081)