/*--------------------------------*- C++ -*----------------------------------*\
| =========                 |                                                 |
| \\      /  F ield         | OpenFOAM: The Open Source CFD Toolbox           |
|  \\    /   O peration     | Version:  2506                                  |
|   \\  /    A nd           | Website:  www.openfoam.com                      |
|    \\/     M anipulation  |                                                 |
\*---------------------------------------------------------------------------*/
FoamFile
{
    version     2.0;
    format      ascii;
    arch        "LSB;label=32;scalar=64";
    class       surfaceScalarField;
    location    "4.95";
    object      phi;
}
// * * * * * * * * * * * * * * * * * * * * * * * * * * * * * * * * * * * * * //

dimensions      [0 3 -1 0 0 0 0];

oriented        oriented;

internalField   nonuniform List<scalar> 
7780
(
6.70095e-10
-6.70095e-10
1.1863e-09
-5.1621e-10
1.49973e-09
-3.13424e-10
1.71241e-09
-2.12678e-10
1.86292e-09
-1.50518e-10
1.97141e-09
-1.08489e-10
2.05289e-09
-8.14717e-11
2.11694e-09
-6.40581e-11
2.16923e-09
-5.22839e-11
2.21318e-09
-4.39498e-11
2.251e-09
-3.7824e-11
2.28415e-09
-3.31529e-11
2.31362e-09
-2.94645e-11
2.34008e-09
-2.64634e-11
2.36404e-09
-2.39615e-11
2.38588e-09
-2.18357e-11
2.40588e-09
-2.00048e-11
2.4243e-09
-1.84161e-11
2.44134e-09
-1.70367e-11
2.45719e-09
-1.58493e-11
2.47204e-09
-1.48501e-11
2.48608e-09
-1.40475e-11
2.49955e-09
-1.34634e-11
2.51268e-09
-1.31357e-11
2.52581e-09
-1.31239e-11
2.53933e-09
-1.35188e-11
2.55379e-09
-1.44623e-11
2.56997e-09
-1.61866e-11
2.58905e-09
-1.90807e-11
2.61289e-09
-2.38371e-11
2.63587e-09
-6.79498e-11
2.61974e-09
-3.01053e-10
2.55817e-09
-5.98994e-10
2.45944e-09
-8.70991e-10
2.33076e-09
-1.10378e-09
2.19196e-09
-1.31581e-09
2.0591e-09
-1.51939e-09
1.88994e-09
-1.77323e-09
1.70238e-09
-1.93812e-09
1.54601e-09
-2.0137e-09
1.42074e-09
-2.07531e-09
1.32667e-09
-2.12623e-09
1.25638e-09
-2.16173e-09
1.20401e-09
-2.1839e-09
1.16496e-09
-2.19419e-09
1.13443e-09
-2.19224e-09
1.11063e-09
-2.17746e-09
1.08918e-09
-2.1506e-09
1.06735e-09
-2.11058e-09
1.04175e-09
-2.0549e-09
1.01202e-09
-1.97999e-09
9.86237e-10
-1.88239e-09
9.59461e-10
-1.76524e-09
9.49904e-10
-1.61263e-09
9.67294e-10
-1.4255e-09
1.03706e-09
-1.18334e-09
1.16154e-09
-8.89951e-10
1.34839e-09
-5.08859e-10
1.56594e-09
-6.21951e-11
1.76454e-09
3.98206e-10
1.92195e-09
8.20668e-10
2.03936e-09
1.20177e-09
2.12344e-09
1.45479e-09
2.19197e-09
1.67164e-09
2.24936e-09
1.80951e-09
2.30188e-09
1.92089e-09
2.35135e-09
2.00748e-09
2.39829e-09
2.06724e-09
2.44362e-09
2.11293e-09
2.48715e-09
2.14775e-09
2.52968e-09
2.17343e-09
2.57107e-09
2.18875e-09
2.6115e-09
2.19553e-09
2.65126e-09
2.19475e-09
2.69045e-09
2.18648e-09
2.72927e-09
2.17028e-09
2.76776e-09
2.1453e-09
2.80587e-09
2.10488e-09
2.84379e-09
2.05562e-09
2.88123e-09
1.9923e-09
2.91865e-09
1.90935e-09
2.95404e-09
1.78372e-09
2.98818e-09
1.64448e-09
3.01827e-09
1.43589e-09
3.04381e-09
1.19168e-09
3.05963e-09
8.33956e-10
3.06543e-09
4.39632e-10
3.05825e-09
-1.12817e-12
3.03923e-09
-4.61963e-10
3.00917e-09
-8.69446e-10
2.97354e-09
-1.18344e-09
2.93314e-09
-1.45491e-09
2.8917e-09
-1.63847e-09
2.8492e-09
-1.80004e-09
2.80754e-09
-1.90552e-09
2.76647e-09
-1.98984e-09
2.72622e-09
-2.06247e-09
2.68647e-09
-2.10934e-09
2.64736e-09
-2.14503e-09
2.60817e-09
-2.1703e-09
2.56833e-09
-2.18639e-09
2.52697e-09
-2.19388e-09
2.48289e-09
-2.19172e-09
2.43503e-09
-2.18072e-09
2.38238e-09
-2.16104e-09
2.32429e-09
-2.13237e-09
2.25994e-09
-2.09351e-09
2.18829e-09
-2.03924e-09
2.11092e-09
-1.96828e-09
2.02792e-09
-1.88472e-09
1.94043e-09
-1.78084e-09
1.85859e-09
-1.6288e-09
1.7814e-09
-1.46424e-09
1.72801e-09
-1.22092e-09
1.70249e-09
-9.45256e-10
1.71532e-09
-5.82131e-10
1.7643e-09
-1.49777e-10
1.82797e-09
2.93369e-10
1.88989e-09
7.12309e-10
1.94365e-09
1.09977e-09
1.98745e-09
1.37774e-09
2.02603e-09
1.60197e-09
2.06218e-09
1.75755e-09
2.09826e-09
1.89071e-09
2.13455e-09
1.97669e-09
2.17099e-09
2.04439e-09
2.20819e-09
2.09956e-09
2.24606e-09
2.13919e-09
2.28438e-09
2.16594e-09
2.32335e-09
2.18376e-09
2.36305e-09
2.1936e-09
2.40376e-09
2.19572e-09
2.44558e-09
2.19021e-09
2.48853e-09
2.17537e-09
2.5334e-09
2.15203e-09
2.57993e-09
2.11975e-09
2.62871e-09
2.07625e-09
2.6801e-09
2.01991e-09
2.73332e-09
1.93412e-09
2.7894e-09
1.83596e-09
2.84754e-09
1.71217e-09
2.90564e-09
1.52086e-09
2.96352e-09
1.31185e-09
3.01555e-09
9.97779e-10
3.06037e-09
6.34117e-10
3.09304e-09
2.14398e-10
3.11205e-09
-2.48075e-10
3.11619e-09
-6.8985e-10
3.10995e-09
-1.04347e-09
3.09441e-09
-1.33888e-09
3.07299e-09
-1.5656e-09
3.04689e-09
-1.73468e-09
3.01833e-09
-1.85678e-09
2.98694e-09
-1.96465e-09
2.95393e-09
-2.0338e-09
2.91968e-09
-2.08787e-09
2.88388e-09
-2.12875e-09
2.84629e-09
-2.16062e-09
2.80643e-09
-2.17938e-09
2.75497e-09
-2.17999e-09
2.68841e-09
-2.1696e-09
2.61038e-09
-2.15554e-09
2.51414e-09
-2.12738e-09
2.43221e-09
-1.71527e-09
2.35252e-09
-1.49615e-09
2.27505e-09
-1.31271e-09
2.20704e-09
-1.07641e-09
2.16091e-09
-8.23864e-10
2.14269e-09
-5.31246e-10
2.15323e-09
-2.24697e-10
2.17695e-09
-3.26776e-11
2.19434e-09
-1.73886e-11
2.2074e-09
-1.30621e-11
2.21755e-09
-1.01538e-11
2.22559e-09
-8.04118e-12
2.23193e-09
-6.33471e-12
2.23679e-09
-4.86518e-12
2.24029e-09
-3.50186e-12
2.24251e-09
-2.21557e-12
2.24342e-09
-9.14377e-13
2.24313e-09
2.90054e-13
2.2418e-09
1.33234e-12
2.23944e-09
2.36004e-12
2.2361e-09
3.34073e-12
2.23181e-09
4.28519e-12
2.22658e-09
5.23299e-12
2.22033e-09
6.24529e-12
2.21292e-09
7.41477e-12
2.20404e-09
8.87937e-12
2.19319e-09
1.08482e-11
2.17954e-09
1.36526e-11
2.16169e-09
1.78455e-11
2.13729e-09
2.44052e-11
2.1021e-09
3.51835e-11
2.04817e-09
5.3931e-11
1.95954e-09
8.86336e-11
1.80266e-09
1.56883e-10
1.50221e-09
3.00443e-10
8.95169e-10
6.07045e-10
8.95169e-10
-3.47376e-11
-6.35357e-10
1.62523e-10
-7.13471e-10
4.26371e-10
-5.77272e-10
6.63418e-10
-4.49724e-10
8.63506e-10
-3.50606e-10
1.03034e-09
-2.7532e-10
1.1692e-09
-2.20332e-10
1.28557e-09
-1.80435e-10
1.38414e-09
-1.50855e-10
1.46853e-09
-1.28338e-10
1.54148e-09
-1.10768e-10
1.60504e-09
-9.67156e-11
1.66078e-09
-8.52057e-11
1.70989e-09
-7.55747e-11
1.7533e-09
-6.73677e-11
1.79173e-09
-6.02692e-11
1.82579e-09
-5.40608e-11
1.85597e-09
-4.85935e-11
1.8827e-09
-4.3771e-11
1.90639e-09
-3.95393e-11
1.92742e-09
-3.58815e-11
1.94619e-09
-3.28161e-11
1.96313e-09
-3.03986e-11
1.97872e-09
-2.8727e-11
1.99355e-09
-2.79531e-11
2.00833e-09
-2.83013e-11
2.02397e-09
-3.01021e-11
2.04163e-09
-3.38521e-11
2.0629e-09
-4.03448e-11
2.08991e-09
-5.08481e-11
2.11595e-09
-9.39894e-11
2.09959e-09
-2.84695e-10
2.03156e-09
-5.30968e-10
1.92337e-09
-7.62797e-10
1.78867e-09
-9.69087e-10
1.64727e-09
-1.1744e-09
1.50971e-09
-1.38183e-09
1.34973e-09
-1.61325e-09
1.18577e-09
-1.77416e-09
1.05131e-09
-1.87924e-09
9.45886e-10
-1.96989e-09
8.6525e-10
-2.04559e-09
8.03897e-10
-2.10038e-09
7.5726e-10
-2.13727e-09
7.20837e-10
-2.15776e-09
6.90462e-10
-2.16187e-09
6.63208e-10
-2.15021e-09
6.35386e-10
-2.12277e-09
6.03657e-10
-2.07885e-09
5.65985e-10
-2.01723e-09
5.22202e-10
-1.93621e-09
4.77536e-10
-1.83772e-09
4.31384e-10
-1.71909e-09
3.97339e-10
-1.57858e-09
3.86321e-10
-1.41449e-09
4.20736e-10
-1.21775e-09
5.14975e-10
-9.8419e-10
6.93471e-10
-6.87355e-10
9.53448e-10
-3.22172e-10
1.25869e-09
9.2964e-11
1.55877e-09
5.20591e-10
1.81408e-09
9.46449e-10
2.00101e-09
1.26786e-09
2.13496e-09
1.53769e-09
2.22771e-09
1.71675e-09
2.29659e-09
1.85202e-09
2.35292e-09
1.95115e-09
2.40252e-09
2.01764e-09
2.44844e-09
2.06702e-09
2.49161e-09
2.10458e-09
2.53345e-09
2.13159e-09
2.57413e-09
2.14806e-09
2.61401e-09
2.15565e-09
2.65334e-09
2.15542e-09
2.69223e-09
2.14759e-09
2.73084e-09
2.13167e-09
2.76919e-09
2.10695e-09
2.80721e-09
2.06686e-09
2.84508e-09
2.01775e-09
2.8825e-09
1.95488e-09
2.91992e-09
1.87193e-09
2.95534e-09
1.7483e-09
2.98954e-09
1.61028e-09
3.01971e-09
1.40572e-09
3.04538e-09
1.16601e-09
3.06137e-09
8.17968e-10
3.06739e-09
4.33614e-10
3.06048e-09
5.78482e-12
3.04175e-09
-4.4324e-10
3.01201e-09
-8.39703e-10
2.97673e-09
-1.14815e-09
2.93667e-09
-1.41485e-09
2.8956e-09
-1.5974e-09
2.85344e-09
-1.75788e-09
2.81207e-09
-1.86416e-09
2.77111e-09
-1.94887e-09
2.73063e-09
-2.02199e-09
2.69019e-09
-2.0689e-09
2.64936e-09
-2.1042e-09
2.60687e-09
-2.12782e-09
2.56141e-09
-2.14094e-09
2.51173e-09
-2.1442e-09
2.45673e-09
-2.13672e-09
2.39546e-09
-2.11945e-09
2.32678e-09
-2.09235e-09
2.24988e-09
-2.05547e-09
2.16464e-09
-2.00827e-09
2.07151e-09
-1.94611e-09
1.97274e-09
-1.86951e-09
1.86964e-09
-1.78162e-09
1.76545e-09
-1.67665e-09
1.66892e-09
-1.53226e-09
1.58155e-09
-1.37687e-09
1.5189e-09
-1.15827e-09
1.48538e-09
-9.11737e-10
1.49244e-09
-5.89186e-10
1.54602e-09
-2.03357e-10
1.63511e-09
2.04279e-10
1.7424e-09
6.05012e-10
1.84759e-09
9.94584e-10
1.93401e-09
1.29131e-09
2.00123e-09
1.53476e-09
2.0532e-09
1.70558e-09
2.09675e-09
1.84715e-09
2.13625e-09
1.93719e-09
2.17385e-09
2.00679e-09
2.21115e-09
2.06225e-09
2.24868e-09
2.10166e-09
2.28655e-09
2.12807e-09
2.32511e-09
2.14519e-09
2.3645e-09
2.15422e-09
2.40496e-09
2.15526e-09
2.4466e-09
2.14857e-09
2.48942e-09
2.13255e-09
2.53419e-09
2.10726e-09
2.58063e-09
2.0733e-09
2.62936e-09
2.02752e-09
2.68071e-09
1.96856e-09
2.7339e-09
1.88093e-09
2.78997e-09
1.77989e-09
2.84811e-09
1.65403e-09
2.90623e-09
1.46274e-09
2.96415e-09
1.25393e-09
3.01623e-09
9.45698e-10
3.06114e-09
5.89213e-10
3.09392e-09
1.81611e-10
3.11307e-09
-2.67227e-10
3.1174e-09
-6.9417e-10
3.11136e-09
-1.03743e-09
3.09604e-09
-1.32356e-09
3.07484e-09
-1.5444e-09
3.04894e-09
-1.70878e-09
3.02051e-09
-1.82835e-09
2.9891e-09
-1.93323e-09
2.9558e-09
-2.0005e-09
2.92071e-09
-2.05279e-09
2.88302e-09
-2.09105e-09
2.84183e-09
-2.11944e-09
2.79601e-09
-2.13357e-09
2.73592e-09
-2.1199e-09
2.65771e-09
-2.09139e-09
2.56425e-09
-2.06208e-09
2.45417e-09
-2.0173e-09
2.35941e-09
-1.6205e-09
2.26806e-09
-1.40481e-09
2.18026e-09
-1.22491e-09
2.10309e-09
-9.99245e-10
2.0479e-09
-7.68664e-10
2.02016e-09
-5.03511e-10
2.02259e-09
-2.27127e-10
2.04289e-09
-5.29722e-11
2.06133e-09
-3.58271e-11
2.07634e-09
-2.80741e-11
2.08782e-09
-2.16373e-11
2.09588e-09
-1.6097e-11
2.10063e-09
-1.10912e-11
2.10214e-09
-6.37604e-12
2.10045e-09
-1.81341e-12
2.0956e-09
2.63646e-12
2.08771e-09
6.98258e-12
2.07683e-09
1.11618e-11
2.06303e-09
1.51348e-11
2.04646e-09
1.89336e-11
2.02723e-09
2.25655e-11
2.00543e-09
2.60845e-11
1.98106e-09
2.96057e-11
1.95399e-09
3.33142e-11
1.92392e-09
3.74899e-11
1.89024e-09
4.25519e-11
1.85195e-09
4.91383e-11
1.80735e-09
5.82563e-11
1.75363e-09
7.15634e-11
1.68613e-09
9.19088e-11
1.59691e-09
1.24402e-10
1.47232e-09
1.78522e-10
1.28902e-09
2.7193e-10
1.01043e-09
4.35473e-10
6.00561e-10
7.10314e-10
1.32781e-10
1.07482e-09
1.02795e-09
-1.33892e-10
-5.01465e-10
-1.2799e-10
-7.19372e-10
-1.99778e-11
-6.85285e-10
1.26436e-10
-5.96139e-10
2.78911e-10
-5.03081e-10
4.2481e-10
-4.21218e-10
5.58881e-10
-3.54403e-10
6.79577e-10
-3.01131e-10
7.87306e-10
-2.58584e-10
8.83182e-10
-2.24214e-10
9.68458e-10
-1.96044e-10
1.04433e-09
-1.72587e-10
1.11186e-09
-1.52735e-10
1.17196e-09
-1.35678e-10
1.22542e-09
-1.20822e-10
1.27288e-09
-1.07737e-10
1.31493e-09
-9.61116e-11
1.35207e-09
-8.57301e-11
1.38475e-09
-7.64505e-11
1.41341e-09
-6.81956e-11
1.43847e-09
-6.09469e-11
1.4604e-09
-5.47439e-11
1.47969e-09
-4.96878e-11
1.49691e-09
-4.59496e-11
1.51274e-09
-4.37848e-11
1.528e-09
-4.35581e-11
1.54368e-09
-4.57827e-11
1.56101e-09
-5.11837e-11
1.5815e-09
-6.08341e-11
1.60693e-09
-7.62751e-11
1.63162e-09
-1.18681e-10
1.61989e-09
-2.72965e-10
1.56346e-09
-4.74536e-10
1.47385e-09
-6.73191e-10
1.36541e-09
-8.60647e-10
1.2534e-09
-1.06239e-09
1.14435e-09
-1.27278e-09
1.02235e-09
-1.49125e-09
9.03488e-10
-1.6553e-09
8.07348e-10
-1.7831e-09
7.31706e-10
-1.89425e-09
6.72191e-10
-1.98608e-09
6.25371e-10
-2.05356e-09
5.88191e-10
-2.10008e-09
5.57088e-10
-2.12666e-09
5.28509e-10
-2.13329e-09
4.99401e-10
-2.1211e-09
4.67433e-10
-2.0908e-09
4.29539e-10
-2.04096e-09
3.84752e-10
-1.97244e-09
3.34064e-10
-1.88552e-09
2.80814e-10
-1.78447e-09
2.26931e-10
-1.66521e-09
1.81746e-10
-1.5334e-09
1.54051e-10
-1.38679e-09
1.59241e-10
-1.22294e-09
2.10518e-10
-1.03547e-09
3.29976e-10
-8.06813e-10
5.30225e-10
-5.22422e-10
8.05346e-10
-1.82156e-10
1.12648e-09
1.99461e-10
1.45487e-09
6.18057e-10
1.7392e-09
9.83531e-10
1.96664e-09
1.31025e-09
2.13374e-09
1.54965e-09
2.25191e-09
1.73385e-09
2.33561e-09
1.86745e-09
2.3981e-09
1.95515e-09
2.44968e-09
2.01544e-09
2.49539e-09
2.05886e-09
2.53811e-09
2.08887e-09
2.5787e-09
2.10747e-09
2.61806e-09
2.1163e-09
2.65677e-09
2.11671e-09
2.69512e-09
2.10924e-09
2.73329e-09
2.0935e-09
2.77131e-09
2.06893e-09
2.8091e-09
2.02907e-09
2.84681e-09
1.98004e-09
2.88413e-09
1.91757e-09
2.92149e-09
1.83456e-09
2.95689e-09
1.71291e-09
2.9911e-09
1.57606e-09
3.02132e-09
1.37549e-09
3.04707e-09
1.14027e-09
3.06316e-09
8.01875e-10
3.06931e-09
4.27464e-10
3.06255e-09
1.25491e-11
3.04398e-09
-4.24674e-10
3.01439e-09
-8.10111e-10
2.97925e-09
-1.113e-09
2.9393e-09
-1.3749e-09
2.89827e-09
-1.55637e-09
2.856e-09
-1.71561e-09
2.81433e-09
-1.82249e-09
2.77276e-09
-1.90729e-09
2.73087e-09
-1.98011e-09
2.68772e-09
-2.02575e-09
2.64248e-09
-2.05896e-09
2.59393e-09
-2.07927e-09
2.54065e-09
-2.08767e-09
2.48155e-09
-2.0851e-09
2.4155e-09
-2.07068e-09
2.34173e-09
-2.04568e-09
2.25962e-09
-2.01024e-09
2.16925e-09
-1.96511e-09
2.07155e-09
-1.91057e-09
1.96796e-09
-1.84252e-09
1.86153e-09
-1.76307e-09
1.75448e-09
-1.67457e-09
1.65059e-09
-1.57276e-09
1.55662e-09
-1.4383e-09
1.47469e-09
-1.29494e-09
1.41445e-09
-1.09803e-09
1.37863e-09
-8.75911e-10
1.3754e-09
-5.8596e-10
1.41217e-09
-2.40132e-10
1.48726e-09
1.29195e-10
1.59382e-09
4.98446e-10
1.71754e-09
8.70872e-10
1.83547e-09
1.17338e-09
1.93678e-09
1.43345e-09
2.01717e-09
1.62519e-09
2.08002e-09
1.7843e-09
2.1302e-09
1.88701e-09
2.17296e-09
1.96403e-09
2.21265e-09
2.02257e-09
2.25115e-09
2.06316e-09
2.2892e-09
2.09002e-09
2.32758e-09
2.10681e-09
2.36665e-09
2.11515e-09
2.4068e-09
2.1151e-09
2.44816e-09
2.10721e-09
2.49076e-09
2.08996e-09
2.53535e-09
2.06267e-09
2.58166e-09
2.02699e-09
2.63029e-09
1.97889e-09
2.68157e-09
1.91729e-09
2.7347e-09
1.82779e-09
2.79074e-09
1.72385e-09
2.84887e-09
1.5959e-09
2.90699e-09
1.40461e-09
2.96493e-09
1.19599e-09
3.01706e-09
8.93574e-10
3.06202e-09
5.44246e-10
3.09489e-09
1.48742e-10
3.11414e-09
-2.86479e-10
3.11857e-09
-6.98597e-10
3.11263e-09
-1.0315e-09
3.09739e-09
-1.30831e-09
3.07619e-09
-1.52321e-09
3.05019e-09
-1.68278e-09
3.02151e-09
-1.79967e-09
2.98942e-09
-1.90113e-09
2.95466e-09
-1.96574e-09
2.91691e-09
-2.01504e-09
2.87514e-09
-2.04929e-09
2.82822e-09
-2.07252e-09
2.7748e-09
-2.08015e-09
2.70532e-09
-2.05043e-09
2.61656e-09
-2.00262e-09
2.51301e-09
-1.95854e-09
2.39687e-09
-1.90116e-09
2.29782e-09
-1.52145e-09
2.20366e-09
-1.31064e-09
2.11473e-09
-1.13598e-09
2.03721e-09
-9.21722e-10
1.9802e-09
-7.11653e-10
1.94766e-09
-4.70966e-10
1.94179e-09
-2.21265e-10
1.95337e-09
-6.45449e-11
1.96621e-09
-4.86685e-11
1.97776e-09
-3.96305e-11
1.98689e-09
-3.07647e-11
1.99286e-09
-2.20703e-11
1.99523e-09
-1.34561e-11
1.99367e-09
-4.82133e-12
1.988e-09
3.86452e-12
1.97807e-09
1.25594e-11
1.96387e-09
2.11842e-11
1.94539e-09
2.96387e-11
1.92269e-09
3.78397e-11
1.89587e-09
4.57528e-11
1.86504e-09
5.33928e-11
1.83027e-09
6.08527e-11
1.79155e-09
6.8331e-11
1.7487e-09
7.6159e-11
1.70135e-09
8.48451e-11
1.64874e-09
9.51561e-11
1.58962e-09
1.08262e-10
1.52187e-09
1.26003e-10
1.44208e-09
1.51361e-10
1.34469e-09
1.89299e-10
1.22088e-09
2.48213e-10
1.05722e-09
3.42181e-10
8.35845e-10
4.93301e-10
5.42692e-10
7.28625e-10
2.02631e-10
1.05038e-09
-4.46151e-11
1.32207e-09
9.83335e-10
-1.16261e-10
-3.85205e-10
-1.82764e-10
-6.52869e-10
-1.70679e-10
-6.97369e-10
-1.08818e-10
-6.57999e-10
-1.97307e-11
-5.92169e-10
8.10116e-11
-5.2196e-10
1.83862e-10
-4.57254e-10
2.83676e-10
-4.00945e-10
3.77891e-10
-3.52799e-10
4.65381e-10
-3.11704e-10
5.45793e-10
-2.76456e-10
6.19183e-10
-2.45977e-10
6.85813e-10
-2.19366e-10
7.46035e-10
-1.95901e-10
8.0023e-10
-1.75017e-10
8.48777e-10
-1.56284e-10
8.92046e-10
-1.39381e-10
9.30397e-10
-1.24081e-10
9.64187e-10
-1.1024e-10
9.9378e-10
-9.77891e-11
1.01957e-09
-8.6733e-11
1.04198e-09
-7.71531e-11
1.0615e-09
-6.92138e-11
1.07873e-09
-6.31733e-11
1.09434e-09
-5.94017e-11
1.10919e-09
-5.8408e-11
1.12429e-09
-6.08797e-11
1.14085e-09
-6.77447e-11
1.1603e-09
-8.02866e-11
1.18424e-09
-1.00214e-10
1.20845e-09
-1.42886e-10
1.20467e-09
-2.69188e-10
1.16693e-09
-4.36795e-10
1.10561e-09
-6.11872e-10
1.03304e-09
-7.88082e-10
9.59056e-10
-9.88401e-10
8.86849e-10
-1.20057e-09
8.05936e-10
-1.41033e-09
7.28586e-10
-1.57795e-09
6.66084e-10
-1.7206e-09
6.15877e-10
-1.84404e-09
5.74687e-10
-1.94489e-09
5.40601e-10
-2.01947e-09
5.1156e-10
-2.07104e-09
4.84966e-10
-2.10007e-09
4.57846e-10
-2.10617e-09
4.27854e-10
-2.0911e-09
3.93365e-10
-2.05632e-09
3.52645e-10
-2.00024e-09
3.05113e-10
-1.92491e-09
2.52591e-10
-1.833e-09
1.97683e-10
-1.72956e-09
1.43309e-10
-1.61084e-09
9.59661e-11
-1.48606e-09
6.19063e-11
-1.35273e-09
5.072e-11
-1.21176e-09
7.16364e-11
-1.05638e-09
1.40461e-10
-8.75637e-10
2.7234e-10
-6.54301e-10
4.76102e-10
-3.85918e-10
7.47783e-10
-7.22202e-11
1.06978e-09
2.96063e-10
1.39545e-09
6.5786e-10
1.69241e-09
1.01329e-09
1.93737e-09
1.30469e-09
2.12689e-09
1.54432e-09
2.2658e-09
1.72855e-09
2.36486e-09
1.85609e-09
2.43683e-09
1.94346e-09
2.49233e-09
2.00336e-09
2.53959e-09
2.04162e-09
2.58238e-09
2.06468e-09
2.62258e-09
2.0761e-09
2.6613e-09
2.07799e-09
2.69925e-09
2.07129e-09
2.73689e-09
2.05585e-09
2.77442e-09
2.0314e-09
2.81179e-09
1.9917e-09
2.84919e-09
1.94265e-09
2.88627e-09
1.88048e-09
2.92347e-09
1.79736e-09
2.95876e-09
1.67762e-09
2.99292e-09
1.54191e-09
3.02312e-09
1.34529e-09
3.04889e-09
1.1145e-09
3.06502e-09
7.85739e-10
3.07124e-09
4.21251e-10
3.06454e-09
1.92409e-11
3.04604e-09
-4.06173e-10
3.01648e-09
-7.8055e-10
2.98131e-09
-1.07783e-09
2.94122e-09
-1.33481e-09
2.8999e-09
-1.51505e-09
2.8571e-09
-1.67281e-09
2.8143e-09
-1.77969e-09
2.77055e-09
-1.86354e-09
2.72516e-09
-1.93472e-09
2.67717e-09
-1.97776e-09
2.62566e-09
-2.00744e-09
2.56924e-09
-2.02285e-09
2.50657e-09
-2.02499e-09
2.43673e-09
-2.01526e-09
2.35909e-09
-1.99305e-09
2.27354e-09
-1.96013e-09
2.18035e-09
-1.91705e-09
2.08062e-09
-1.86538e-09
1.9762e-09
-1.80615e-09
1.86932e-09
-1.73564e-09
1.76341e-09
-1.65716e-09
1.66088e-09
-1.57205e-09
1.56503e-09
-1.4769e-09
1.48065e-09
-1.35392e-09
1.40945e-09
-1.22374e-09
1.35603e-09
-1.04462e-09
1.32199e-09
-8.41867e-10
1.31237e-09
-5.76336e-10
1.33355e-09
-2.61313e-10
1.38739e-09
7.5351e-11
1.47475e-09
4.11095e-10
1.59081e-09
7.54805e-10
1.7179e-09
1.04629e-09
1.84085e-09
1.3105e-09
1.94811e-09
1.51792e-09
2.0364e-09
1.69601e-09
2.10631e-09
1.8171e-09
2.16206e-09
1.90827e-09
2.20893e-09
1.9757e-09
2.251e-09
2.02108e-09
2.29076e-09
2.05027e-09
2.32989e-09
2.06768e-09
2.36912e-09
2.07592e-09
2.40916e-09
2.07506e-09
2.45028e-09
2.06609e-09
2.49262e-09
2.04762e-09
2.53698e-09
2.01831e-09
2.5831e-09
1.98087e-09
2.63157e-09
1.93042e-09
2.68272e-09
1.86614e-09
2.73577e-09
1.77475e-09
2.79174e-09
1.66788e-09
2.84982e-09
1.53782e-09
2.90792e-09
1.34651e-09
2.96587e-09
1.13805e-09
3.01801e-09
8.41431e-10
3.06301e-09
4.99244e-10
3.09593e-09
1.15828e-10
3.11522e-09
-3.05776e-10
3.11968e-09
-7.03048e-10
3.11371e-09
-1.02553e-09
3.09835e-09
-1.29295e-09
3.07691e-09
-1.50178e-09
3.05038e-09
-1.65625e-09
3.02058e-09
-1.76987e-09
2.98648e-09
-1.86703e-09
2.94866e-09
-1.92793e-09
2.90665e-09
-1.97303e-09
2.8592e-09
-2.00184e-09
2.80506e-09
-2.01837e-09
2.74298e-09
-2.01807e-09
2.66428e-09
-1.97174e-09
2.56712e-09
-1.90547e-09
2.45764e-09
-1.84906e-09
2.33953e-09
-1.78306e-09
2.24033e-09
-1.42224e-09
2.14766e-09
-1.21797e-09
2.06149e-09
-1.04981e-09
1.98662e-09
-8.46848e-10
1.931e-09
-6.56031e-10
1.89716e-09
-4.37132e-10
1.88643e-09
-2.10535e-10
1.89104e-09
-6.91489e-11
1.89764e-09
-5.52777e-11
1.90405e-09
-4.60377e-11
1.90896e-09
-3.56706e-11
1.91131e-09
-2.44282e-11
1.91032e-09
-1.24577e-11
1.90535e-09
1.47589e-13
1.89595e-09
1.32621e-11
1.88179e-09
2.67153e-11
1.86266e-09
4.03129e-11
1.83844e-09
5.38593e-11
1.80909e-09
6.719e-11
1.77464e-09
8.02083e-11
1.73512e-09
9.29077e-11
1.69057e-09
1.05404e-10
1.64093e-09
1.17971e-10
1.58601e-09
1.31081e-10
1.52538e-09
1.45474e-10
1.45826e-09
1.62275e-10
1.38332e-09
1.83202e-10
1.29838e-09
2.10943e-10
1.19996e-09
2.49784e-10
1.08265e-09
3.06611e-10
9.38535e-10
3.92325e-10
7.57548e-10
5.23169e-10
5.31452e-10
7.19396e-10
2.67563e-10
9.92515e-10
1.86677e-11
1.29927e-09
-9.13969e-11
1.43213e-09
8.91939e-10
-8.75652e-11
-2.9764e-10
-1.69307e-10
-5.71128e-10
-2.02012e-10
-6.64664e-10
-1.92415e-10
-6.67596e-10
-1.53578e-10
-6.31006e-10
-9.57038e-11
-5.79834e-10
-2.7822e-11
-5.25135e-10
4.40857e-11
-4.72852e-10
1.16231e-10
-4.24944e-10
1.86308e-10
-3.81781e-10
2.52956e-10
-3.43103e-10
3.1541e-10
-3.08432e-10
3.73291e-10
-2.77246e-10
4.26448e-10
-2.49058e-10
4.74879e-10
-2.23448e-10
5.18668e-10
-2.00073e-10
5.57961e-10
-1.78673e-10
5.92946e-10
-1.59066e-10
6.23853e-10
-1.41146e-10
6.50951e-10
-1.24887e-10
6.74562e-10
-1.10344e-10
6.95073e-10
-9.76648e-11
7.12956e-10
-8.70967e-11
7.28785e-10
-7.90027e-11
7.43264e-10
-7.38805e-11
7.57247e-10
-7.2391e-11
7.71764e-10
-7.53962e-11
7.88032e-10
-8.40135e-11
8.07451e-10
-9.97053e-11
8.31544e-10
-1.24307e-10
8.5748e-10
-1.68821e-10
8.6426e-10
-2.75968e-10
8.47996e-10
-4.20532e-10
8.16987e-10
-5.80863e-10
7.80131e-10
-7.51226e-10
7.42189e-10
-9.50459e-10
7.03751e-10
-1.16213e-09
6.57374e-10
-1.36396e-09
6.11937e-10
-1.53251e-09
5.74336e-10
-1.683e-09
5.42777e-10
-1.81248e-09
5.15143e-10
-1.91726e-09
4.90551e-10
-1.99488e-09
4.67628e-10
-2.04812e-09
4.44307e-10
-2.07675e-09
4.1844e-10
-2.0803e-09
3.88626e-10
-2.06129e-09
3.53146e-10
-2.02084e-09
3.11576e-10
-1.95867e-09
2.64206e-10
-1.87754e-09
2.12869e-10
-1.78166e-09
1.59913e-10
-1.67661e-09
1.08432e-10
-1.55936e-09
6.29533e-11
-1.44058e-09
2.77667e-11
-1.31755e-09
8.62872e-12
-1.19262e-09
1.15319e-11
-1.05929e-09
4.6803e-11
-9.10908e-10
1.26829e-10
-7.34327e-10
2.63809e-10
-5.22899e-10
4.65373e-10
-2.73784e-10
7.32964e-10
2.84711e-11
1.04116e-09
3.49659e-10
1.3606e-09
6.93852e-10
1.65646e-09
1.00884e-09
1.91116e-09
1.28961e-09
2.1155e-09
1.52422e-09
2.27045e-09
1.70113e-09
2.38452e-09
1.8294e-09
2.4676e-09
1.92028e-09
2.53012e-09
1.9791e-09
2.58034e-09
2.01446e-09
2.62411e-09
2.03233e-09
2.66469e-09
2.03742e-09
2.70341e-09
2.03257e-09
2.74115e-09
2.01812e-09
2.7784e-09
1.99416e-09
2.81535e-09
1.95474e-09
2.85233e-09
1.90567e-09
2.88905e-09
1.84376e-09
2.92597e-09
1.76045e-09
2.96104e-09
1.64254e-09
2.99504e-09
1.50791e-09
3.02515e-09
1.31518e-09
3.05085e-09
1.0888e-09
3.06695e-09
7.69637e-10
3.07314e-09
4.15057e-10
3.06643e-09
2.59594e-11
3.04786e-09
-3.87603e-10
3.01814e-09
-7.50829e-10
2.98269e-09
-1.04239e-09
2.94215e-09
-1.29427e-09
2.89996e-09
-1.47287e-09
2.85551e-09
-1.62836e-09
2.81004e-09
-1.73421e-09
2.76251e-09
-1.81602e-09
2.71203e-09
-1.88424e-09
2.65744e-09
-1.92317e-09
2.59778e-09
-1.94778e-09
2.53175e-09
-1.95683e-09
2.4584e-09
-1.95164e-09
2.37736e-09
-1.93422e-09
2.28873e-09
-1.90443e-09
2.19327e-09
-1.86467e-09
2.09218e-09
-1.81596e-09
1.98741e-09
-1.76061e-09
1.88146e-09
-1.7002e-09
1.77686e-09
-1.63105e-09
1.67692e-09
-1.55721e-09
1.58359e-09
-1.47872e-09
1.49913e-09
-1.39244e-09
1.42657e-09
-1.28136e-09
1.3663e-09
-1.16347e-09
1.3205e-09
-9.98815e-10
1.28967e-09
-8.11045e-10
1.27699e-09
-5.63656e-10
1.28762e-09
-2.71936e-10
1.32386e-09
3.91063e-11
1.3895e-09
3.4546e-10
1.48581e-09
6.58496e-10
1.60372e-09
9.28382e-10
1.73125e-09
1.18297e-09
1.85445e-09
1.39472e-09
1.9648e-09
1.58566e-09
2.05711e-09
1.7248e-09
2.1319e-09
1.83348e-09
2.19285e-09
1.91476e-09
2.24389e-09
1.97003e-09
2.28854e-09
2.00562e-09
2.33013e-09
2.02609e-09
2.37061e-09
2.03544e-09
2.41125e-09
2.03442e-09
2.45255e-09
2.0248e-09
2.49483e-09
2.00534e-09
2.53902e-09
1.97412e-09
2.58494e-09
1.93495e-09
2.63322e-09
1.88213e-09
2.68421e-09
1.81515e-09
2.73712e-09
1.72184e-09
2.79299e-09
1.61202e-09
2.85099e-09
1.47981e-09
2.90904e-09
1.28846e-09
2.96695e-09
1.08014e-09
3.01907e-09
7.89308e-10
3.06406e-09
4.54253e-10
3.09696e-09
8.29315e-11
3.11621e-09
-3.25026e-10
3.12054e-09
-7.07381e-10
3.11436e-09
-1.01935e-09
3.09858e-09
-1.27717e-09
3.07634e-09
-1.47954e-09
3.04836e-09
-1.62827e-09
3.0163e-09
-1.73781e-09
2.97895e-09
-1.82967e-09
2.93672e-09
-1.8857e-09
2.88896e-09
-1.92528e-09
2.83445e-09
-1.94733e-09
2.77217e-09
-1.95609e-09
2.70149e-09
-1.94739e-09
2.61502e-09
-1.88528e-09
2.51229e-09
-1.80274e-09
2.4003e-09
-1.73709e-09
2.28306e-09
-1.66582e-09
2.1861e-09
-1.32528e-09
2.09687e-09
-1.12874e-09
2.01478e-09
-9.67718e-10
1.94356e-09
-7.75624e-10
1.89025e-09
-6.02721e-10
1.85662e-09
-4.03505e-10
1.84336e-09
-1.97273e-10
1.84335e-09
-6.91353e-11
1.84499e-09
-5.69165e-11
1.8466e-09
-4.76512e-11
1.84709e-09
-3.61581e-11
1.84542e-09
-2.2763e-11
1.8407e-09
-7.73566e-12
1.83216e-09
8.68802e-12
1.81918e-09
2.62442e-11
1.80126e-09
4.46324e-11
1.77804e-09
6.35339e-11
1.74926e-09
8.26393e-11
1.71476e-09
1.01686e-10
1.67447e-09
1.20501e-10
1.62834e-09
1.39036e-10
1.57634e-09
1.5741e-10
1.51836e-09
1.7595e-10
1.45419e-09
1.9525e-10
1.38341e-09
2.16254e-10
1.30527e-09
2.40413e-10
1.21852e-09
2.69952e-10
1.12113e-09
3.0833e-10
1.00996e-09
3.60961e-10
8.80351e-10
4.36214e-10
7.26297e-10
5.46379e-10
5.42179e-10
7.07287e-10
3.28973e-10
9.32602e-10
1.08173e-10
1.21331e-09
-5.95363e-11
1.46698e-09
-8.88208e-11
1.46142e-09
8.03118e-10
-6.24885e-11
-2.35151e-10
-1.39043e-10
-4.94573e-10
-1.89965e-10
-6.13742e-10
-2.09022e-10
-6.48539e-10
-2.01931e-10
-6.38097e-10
-1.76234e-10
-6.05531e-10
-1.37676e-10
-5.63694e-10
-9.16096e-11
-5.18919e-10
-4.18206e-11
-4.74733e-10
9.06781e-12
-4.3267e-10
5.92708e-11
-3.93306e-10
1.0761e-10
-3.5677e-10
1.53333e-10
-3.22969e-10
1.95977e-10
-2.91702e-10
2.35275e-10
-2.62747e-10
2.71102e-10
-2.359e-10
3.03435e-10
-2.11006e-10
3.32333e-10
-1.87965e-10
3.57928e-10
-1.66741e-10
3.8042e-10
-1.47379e-10
4.00084e-10
-1.30008e-10
4.17282e-10
-1.14863e-10
4.32478e-10
-1.02293e-10
4.46258e-10
-9.27824e-11
4.59345e-10
-8.69671e-11
4.7262e-10
-8.56661e-11
4.87136e-10
-8.99124e-11
5.04119e-10
-1.00997e-10
5.2494e-10
-1.20526e-10
5.51051e-10
-1.50418e-10
5.80748e-10
-1.98518e-10
5.99204e-10
-2.94424e-10
6.03803e-10
-4.25131e-10
6.00096e-10
-5.77156e-10
5.93198e-10
-7.44328e-10
5.84041e-10
-9.41302e-10
5.71615e-10
-1.14971e-09
5.50647e-10
-1.34299e-09
5.27697e-10
-1.50956e-09
5.07482e-10
-1.66278e-09
4.89179e-10
-1.79418e-09
4.714e-10
-1.89948e-09
4.53855e-10
-1.97733e-09
4.35586e-10
-2.02985e-09
4.1495e-10
-2.05611e-09
3.90434e-10
-2.05579e-09
3.61335e-10
-2.03219e-09
3.26189e-10
-1.98569e-09
2.8534e-10
-1.91782e-09
2.39663e-10
-1.83186e-09
1.9104e-10
-1.73304e-09
1.41628e-10
-1.6272e-09
9.42997e-11
-1.51203e-09
5.21945e-11
-1.39847e-09
1.82436e-11
-1.28359e-09
-4.08786e-12
-1.17029e-09
-1.1028e-11
-1.05235e-09
3.79602e-12
-9.25732e-10
4.92975e-11
-7.79828e-10
1.36301e-10
-6.09902e-10
2.75037e-10
-4.1252e-10
4.75678e-10
-1.7217e-10
7.31295e-10
9.40425e-11
1.02759e-09
3.97553e-10
1.33412e-09
7.02311e-10
1.6264e-09
9.97333e-10
1.88516e-09
1.26545e-09
2.09901e-09
1.48729e-09
2.26723e-09
1.66118e-09
2.3948e-09
1.79271e-09
2.49008e-09
1.88382e-09
2.56147e-09
1.94307e-09
2.6169e-09
1.97689e-09
2.66319e-09
1.99113e-09
2.70476e-09
1.991e-09
2.74406e-09
1.97881e-09
2.78205e-09
1.95617e-09
2.81917e-09
1.91762e-09
2.85598e-09
1.86886e-09
2.89241e-09
1.80733e-09
2.92899e-09
1.72387e-09
2.96376e-09
1.60778e-09
2.9975e-09
1.47416e-09
3.0274e-09
1.28529e-09
3.05293e-09
1.06326e-09
3.06888e-09
7.53685e-10
3.07492e-09
4.09018e-10
3.068e-09
3.2876e-11
3.04914e-09
-3.68737e-10
3.01899e-09
-7.2068e-10
2.98284e-09
-1.00624e-09
2.94105e-09
-1.25248e-09
2.89685e-09
-1.42866e-09
2.84944e-09
-1.58096e-09
2.79988e-09
-1.68465e-09
2.7469e-09
-1.76304e-09
2.68943e-09
-1.82677e-09
2.62634e-09
-1.86009e-09
2.55686e-09
-1.8783e-09
2.48011e-09
-1.88007e-09
2.39575e-09
-1.86728e-09
2.30416e-09
-1.84264e-09
2.20631e-09
-1.80658e-09
2.1038e-09
-1.76217e-09
1.99861e-09
-1.71078e-09
1.89323e-09
-1.65523e-09
1.79033e-09
-1.5973e-09
1.69231e-09
-1.53302e-09
1.60182e-09
-1.46672e-09
1.51999e-09
-1.39689e-09
1.44786e-09
-1.32032e-09
1.3871e-09
-1.2206e-09
1.3366e-09
-1.11297e-09
1.29768e-09
-9.59894e-10
1.27017e-09
-7.83536e-10
1.25629e-09
-5.4978e-10
1.26037e-09
-2.76009e-10
1.2842e-09
1.52761e-11
1.33184e-09
2.97822e-10
1.40688e-09
5.83448e-10
1.50647e-09
8.28795e-10
1.62465e-09
1.06479e-09
1.7501e-09
1.26927e-09
1.87278e-09
1.46299e-09
1.98352e-09
1.61406e-09
2.0782e-09
1.7388e-09
2.1571e-09
1.83585e-09
2.22248e-09
1.90465e-09
2.2774e-09
1.9507e-09
2.32535e-09
1.97814e-09
2.36927e-09
1.99153e-09
2.41164e-09
1.99205e-09
2.4539e-09
1.98253e-09
2.49669e-09
1.96255e-09
2.54107e-09
1.92974e-09
2.58698e-09
1.88904e-09
2.63515e-09
1.83396e-09
2.68599e-09
1.76431e-09
2.73876e-09
1.66908e-09
2.79448e-09
1.55629e-09
2.85237e-09
1.42192e-09
2.91032e-09
1.23051e-09
2.96814e-09
1.02232e-09
3.02018e-09
7.37268e-10
3.06508e-09
4.09357e-10
3.09784e-09
5.0166e-11
3.11688e-09
-3.44065e-10
3.12086e-09
-7.11361e-10
3.11408e-09
-1.01257e-09
3.09728e-09
-1.26037e-09
3.07338e-09
-1.45564e-09
3.04294e-09
-1.59783e-09
3.00745e-09
-1.70231e-09
2.96549e-09
-1.78772e-09
2.91741e-09
-1.83762e-09
2.86266e-09
-1.87052e-09
2.8003e-09
-1.88497e-09
2.72993e-09
-1.88572e-09
2.65173e-09
-1.86919e-09
2.55964e-09
-1.7932e-09
2.45412e-09
-1.69722e-09
2.34232e-09
-1.62529e-09
2.22786e-09
-1.55136e-09
2.13451e-09
-1.23193e-09
2.04955e-09
-1.04379e-09
1.97186e-09
-8.90023e-10
1.90441e-09
-7.08171e-10
1.85361e-09
-5.51914e-10
1.8208e-09
-3.70695e-10
1.80632e-09
-1.828e-10
1.8034e-09
-6.62096e-11
1.80147e-09
-5.49866e-11
1.79926e-09
-4.54427e-11
1.79591e-09
-3.28114e-11
1.79054e-09
-1.73891e-11
1.78228e-09
5.2628e-13
1.77034e-09
2.0625e-11
1.75403e-09
4.25503e-11
1.73277e-09
6.58968e-11
1.70607e-09
9.02344e-11
1.67356e-09
1.15144e-10
1.63499e-09
1.40261e-10
1.59016e-09
1.65328e-10
1.53895e-09
1.90243e-10
1.48125e-09
2.15107e-10
1.41693e-09
2.40277e-10
1.34574e-09
2.66434e-10
1.26732e-09
2.94682e-10
1.18099e-09
3.26743e-10
1.08567e-09
3.65264e-10
9.79659e-10
4.14344e-10
8.6035e-10
4.8027e-10
7.24222e-10