/*--------------------------------*- C++ -*----------------------------------*\
| =========                 |                                                 |
| \\      /  F ield         | OpenFOAM: The Open Source CFD Toolbox           |
|  \\    /   O peration     | Version:  2506                                  |
|   \\  /    A nd           | Website:  www.openfoam.com                      |
|    \\/     M anipulation  |                                                 |
\*---------------------------------------------------------------------------*/
FoamFile
{
    version     2.0;
    format      ascii;
    arch        "LSB;label=32;scalar=64";
    class       volScalarField;
    location    "3";
    object      p;
}
// * * * * * * * * * * * * * * * * * * * * * * * * * * * * * * * * * * * * * //

dimensions      [0 2 -2 0 0 0 0];

internalField   nonuniform List<scalar> 
4000
(
-0.000106726
-6.0734e-05
-4.31396e-05
-3.5978e-05
-3.09222e-05
-2.74899e-05
-2.53805e-05
-2.41151e-05
-2.34314e-05
-2.32025e-05
-2.33462e-05
-2.38052e-05
-2.4541e-05
-2.55285e-05
-2.67511e-05
-2.81991e-05
-2.98684e-05
-3.17597e-05
-3.38782e-05
-3.62338e-05
-3.88412e-05
-4.17201e-05
-4.4896e-05
-4.84018e-05
-5.22789e-05
-5.65808e-05
-6.1377e-05
-6.67606e-05
-7.28592e-05
-7.98203e-05
-8.79918e-05
-9.83755e-05
-0.000109743
-0.000121036
-0.000131951
-0.000142387
-0.000152117
-0.000161793
-0.000168366
-0.000171207
-0.000172877
-0.000173341
-0.000172481
-0.000170482
-0.000167487
-0.000163593
-0.000158838
-0.000153509
-0.000147575
-0.000140958
-0.000133371
-0.000124451
-0.000114665
-0.000102578
-8.88521e-05
-7.25257e-05
-5.44095e-05
-3.31997e-05
-9.90785e-06
1.36263e-05
3.62035e-05
5.7079e-05
7.38803e-05
8.82159e-05
9.93208e-05
0.000108188
0.000115171
0.000120489
0.000124427
0.000127154
0.000128796
0.000129407
0.000129037
0.000127722
0.000125482
0.000122322
0.000118229
0.000113148
0.000107078
9.99963e-05
9.1856e-05
8.25223e-05
7.20369e-05
6.02801e-05
4.73319e-05
3.31608e-05
1.8116e-05
2.60335e-06
-1.28854e-05
-2.76441e-05
-4.11219e-05
-5.32581e-05
-6.41946e-05
-7.40839e-05
-8.30037e-05
-9.12838e-05
-9.89012e-05
-0.000105908
-0.000112212
-0.000117571
-0.000121834
-0.000124851
-0.000126615
-0.000127151
-0.000126481
-0.000124685
-0.000121753
-0.000117583
-0.000112079
-0.000105083
-9.62358e-05
-8.51498e-05
-7.2425e-05
-5.73487e-05
-4.10396e-05
-2.31227e-05
-4.47914e-06
1.4058e-05
3.23857e-05
5.01997e-05
6.56177e-05
7.95952e-05
9.13982e-05
0.000101589
0.000109886
0.00011664
0.000122068
0.000126251
0.000129271
0.000131213
0.000132134
0.000132072
0.000131045
0.000129046
0.000126075
0.000122118
0.000117157
0.000111169
0.00010404
9.57865e-05
8.63618e-05
7.55953e-05
6.36142e-05
5.03205e-05
3.59747e-05
2.08987e-05
5.56995e-06
-9.34837e-06
-2.31743e-05
-3.56232e-05
-4.66931e-05
-5.65793e-05
-6.54022e-05
-7.3306e-05
-8.05075e-05
-8.69825e-05
-9.26784e-05
-9.74029e-05
-0.000100811
-0.000102672
-0.000102745
-0.000100604
-9.52453e-05
-8.72754e-05
-8.00164e-05
-7.23168e-05
-6.32879e-05
-5.36316e-05
-4.37434e-05
-3.43942e-05
-2.70665e-05
-2.21059e-05
-1.77588e-05
-1.38743e-05
-1.04008e-05
-7.2463e-06
-4.34475e-06
-1.62731e-06
9.54167e-07
3.45293e-06
5.91664e-06
8.39167e-06
1.0928e-05
1.35532e-05
1.62843e-05
1.91537e-05
2.21933e-05
2.54346e-05
2.89095e-05
3.26567e-05
3.67259e-05
4.1184e-05
4.61241e-05
5.16822e-05
5.80843e-05
6.57574e-05
7.56305e-05
9.01014e-05
0.000116878
0.000173583
-7.13336e-05
-5.23665e-05
-4.1994e-05
-3.5809e-05
-3.13831e-05
-2.82402e-05
-2.61394e-05
-2.48013e-05
-2.4034e-05
-2.37211e-05
-2.3784e-05
-2.41668e-05
-2.48308e-05
-2.57495e-05
-2.69052e-05
-2.82872e-05
-2.98902e-05
-3.1714e-05
-3.37628e-05
-3.60453e-05
-3.85748e-05
-4.13695e-05
-4.44534e-05
-4.78571e-05
-5.16189e-05
-5.57879e-05
-6.04264e-05
-6.56154e-05
-7.14623e-05
-7.80965e-05
-8.57364e-05
-9.49024e-05
-0.000104812
-0.000114742
-0.0001244
-0.000133674
-0.000142329
-0.000150355
-0.00015567
-0.00015831
-0.000159943
-0.000160448
-0.00015967
-0.000157801
-0.000154983
-0.000151293
-0.000146813
-0.000141716
-0.000135939
-0.000129337
-0.000121761
-0.000113027
-0.00010323
-9.16913e-05
-7.88492e-05
-6.43099e-05
-4.85724e-05
-3.11484e-05
-1.26917e-05
6.11135e-06
2.45481e-05
4.27758e-05
5.8816e-05
7.30582e-05
8.48807e-05
9.45977e-05
0.00010243
0.000108576
0.000113266
0.000116678
0.000118952
0.000120164
0.000120369
0.000119612
0.00011792
0.000115307
0.000111772
0.000107258
0.000101754
9.52394e-05
8.76848e-05
7.89658e-05
6.90982e-05
5.79807e-05
4.56797e-05
3.21857e-05
1.77972e-05
3.00601e-06
-1.16791e-05
-2.56476e-05
-3.84764e-05
-5.00852e-05
-6.06057e-05
-7.0163e-05
-7.8937e-05
-8.69962e-05
-9.4332e-05
-0.000100891
-0.000106554
-0.000111196
-0.000114675
-0.000116903
-0.000117891
-0.000117711
-0.000116389
-0.000113949
-0.000110366
-0.000105556
-9.94138e-05
-9.18195e-05
-8.25921e-05
-7.17014e-05
-5.95702e-05
-4.6042e-05
-3.18965e-05
-1.70941e-05
-2.10571e-06
1.26444e-05
2.70828e-05
4.13861e-05
5.47854e-05
6.73649e-05
7.85885e-05
8.86742e-05
9.72451e-05
0.000104377
0.000110205
0.000114823
0.000118291
0.000120671
0.000122018
0.000122371
0.000121756
0.000120173
0.000117618
0.000114077
0.000109531
0.000103974
9.73098e-05
8.95334e-05
8.06192e-05
7.04119e-05
5.90173e-05
4.63714e-05
3.2679e-05
1.8363e-05
3.89621e-06
-1.00797e-05
-2.29864e-05
-3.46354e-05
-4.50287e-05
-5.43246e-05
-6.27482e-05
-7.02936e-05
-7.70401e-05
-8.29341e-05
-8.77807e-05
-9.14187e-05
-9.35337e-05
-9.39064e-05
-9.23752e-05
-8.8591e-05
-8.22221e-05
-7.45853e-05
-6.77834e-05
-6.07572e-05
-5.29735e-05
-4.50628e-05
-3.74426e-05
-3.05486e-05
-2.48783e-05
-2.04712e-05
-1.662e-05
-1.30542e-05
-9.7696e-06
-6.73678e-06
-3.9132e-06
-1.24971e-06
1.30346e-06
3.79121e-06
6.25754e-06
8.75327e-06
1.13017e-05
1.39262e-05
1.66661e-05
1.95472e-05
2.26005e-05
2.58601e-05
2.93569e-05
3.31303e-05
3.72345e-05
4.17399e-05
4.67416e-05
5.2374e-05
5.88362e-05
6.64273e-05
7.56633e-05
8.74029e-05
0.00010309
0.000127906
-5.19599e-05
-4.53031e-05
-3.9524e-05
-3.48394e-05
-3.11635e-05
-2.8406e-05
-2.64495e-05
-2.51449e-05
-2.43647e-05
-2.40159e-05
-2.4031e-05
-2.43601e-05
-2.49672e-05
-2.58268e-05
-2.69213e-05
-2.82398e-05
-2.97764e-05
-3.15302e-05
-3.35045e-05
-3.57071e-05
-3.81498e-05
-4.08495e-05
-4.38279e-05
-4.71126e-05
-5.07383e-05
-5.47486e-05
-5.91976e-05
-6.41535e-05
-6.97026e-05
-7.59404e-05
-8.29887e-05
-9.11464e-05
-9.98745e-05
-0.000108653
-0.000117235
-0.000125513
-0.000133193
-0.000139988
-0.000144467
-0.000146967
-0.00014855
-0.000149032
-0.000148265
-0.000146443
-0.000143693
-0.00014008
-0.00013568
-0.000130581
-0.000124707
-0.000117971
-0.00011028
-0.000101564
-9.18558e-05
-8.09957e-05
-6.91805e-05
-5.63365e-05
-4.27964e-05
-2.84348e-05
-1.35371e-05
1.71591e-06
1.69715e-05
3.25014e-05
4.70128e-05
6.05475e-05
7.23591e-05
8.24415e-05
9.07661e-05
9.75031e-05
0.000102799
0.00010679
0.000109613
0.000111353
0.000112069
0.000111808
0.000110605
0.000108484
0.000105453
0.000101459
9.64867e-05
9.0519e-05
8.35111e-05
7.53614e-05
6.60618e-05
5.5564e-05
4.38918e-05
3.11093e-05
1.74892e-05
3.43501e-06
-1.05525e-05
-2.39041e-05
-3.62906e-05
-4.75781e-05
-5.788e-05
-6.72423e-05
-7.5774e-05
-8.35082e-05
-9.03585e-05
-9.63336e-05
-0.000101301
-0.000105146
-0.000107853
-0.000109372
-0.000109707
-0.000108913
-0.000107008
-0.000103988
-9.98167e-05
-9.4429e-05
-8.77807e-05
-7.98452e-05
-7.06057e-05
-6.02091e-05
-4.90351e-05
-3.71012e-05
-2.50035e-05
-1.2755e-05
-6.08907e-07
1.13442e-05
2.32564e-05
3.50855e-05
4.6568e-05
5.76346e-05
6.80295e-05
7.76818e-05
8.61824e-05
9.34446e-05
9.94885e-05
0.000104387
0.000108166
0.000110874
0.000112559
0.000113258
0.000112997
0.000111783
0.000109616
0.000106483
0.000102351
9.71916e-05
9.09403e-05
8.35969e-05
7.5147e-05
6.54914e-05
5.46736e-05
4.27332e-05
2.9861e-05
1.64038e-05
2.80187e-06
-1.03345e-05
-2.25554e-05
-3.36572e-05
-4.36292e-05
-5.25991e-05
-6.06412e-05
-6.77238e-05
-7.38172e-05
-7.8922e-05
-8.27869e-05
-8.51896e-05
-8.59937e-05
-8.50419e-05
-8.22882e-05
-7.76246e-05
-7.12046e-05
-6.42502e-05
-5.8177e-05
-5.20033e-05
-4.5446e-05
-3.89974e-05
-3.29878e-05
-2.76598e-05
-2.30709e-05
-1.91028e-05
-1.55365e-05
-1.22071e-05
-9.09807e-06
-6.19949e-06
-3.46911e-06
-8.71515e-07
1.64053e-06
4.10145e-06
6.54524e-06
9.02861e-06
1.15764e-05
1.42001e-05
1.69396e-05
1.98216e-05
2.2875e-05
2.61305e-05
2.96209e-05
3.33874e-05
3.74829e-05
4.19752e-05
4.69508e-05
5.25178e-05
5.88031e-05
6.59399e-05
7.4001e-05
8.27654e-05
9.16353e-05
0.000101469
-4.2406e-05
-3.95286e-05
-3.62078e-05
-3.29288e-05
-3.01188e-05
-2.78712e-05
-2.61943e-05
-2.50334e-05
-2.43195e-05
-2.39911e-05
-2.39982e-05
-2.43014e-05
-2.48707e-05
-2.56837e-05
-2.67245e-05
-2.79829e-05
-2.94531e-05
-3.1134e-05
-3.30281e-05
-3.51419e-05
-3.74861e-05
-4.00754e-05
-4.2929e-05
-4.60711e-05
-4.95322e-05
-5.33497e-05
-5.75696e-05
-6.22481e-05
-6.74544e-05
-7.32594e-05
-7.97419e-05
-8.70978e-05
-9.48828e-05
-0.000102707
-0.00011038
-0.000117812
-0.000124689
-0.000130629
-0.000134584
-0.000136935
-0.000138391
-0.000138754
-0.000137906
-0.000136039
-0.000133269
-0.000129655
-0.000125252
-0.000120088
-0.000114138
-0.000107378
-9.97053e-05
-9.11494e-05
-8.17616e-05
-7.15383e-05
-6.06875e-05
-4.92934e-05
-3.75796e-05
-2.54777e-05
-1.30877e-05
-3.54104e-07
1.25835e-05
2.58815e-05
3.87922e-05
5.13299e-05
6.258e-05
7.2533e-05
8.10993e-05
8.81534e-05
9.38224e-05
9.82158e-05
0.000101444
0.000103593
0.000104721
0.000104868
0.00010407
0.000102352
9.97425e-05
9.61769e-05
9.16437e-05
8.61329e-05
7.95953e-05
7.19339e-05
6.31632e-05
5.32773e-05
4.22109e-05
3.00729e-05
1.71036e-05
3.71236e-06
-9.61277e-06
-2.23934e-05
-3.4332e-05
-4.52694e-05
-5.52598e-05
-6.43068e-05
-7.24599e-05
-7.97822e-05
-8.61441e-05
-9.14665e-05
-9.57539e-05
-9.89139e-05
-0.000100965
-0.000101861
-0.000101625
-0.000100297
-9.78893e-05
-9.43942e-05
-8.97888e-05
-8.40503e-05
-7.72061e-05
-6.93143e-05
-6.0461e-05
-5.08455e-05
-4.07965e-05
-3.04264e-05
-2.00852e-05
-9.8096e-06
3.41484e-07
1.0401e-05
2.05497e-05
3.0681e-05
4.06909e-05
5.06057e-05
6.01674e-05
6.91282e-05
7.7253e-05
8.44377e-05
9.05991e-05
9.56662e-05
9.96496e-05
0.000102588
0.000104522
0.000105483
0.000105491
0.000104554
0.000102685
9.98704e-05
9.60803e-05
9.1282e-05
8.53917e-05
7.8402e-05
7.03892e-05
6.12679e-05
5.09635e-05
3.96208e-05
2.74016e-05
1.46407e-05
1.80048e-06
-1.06059e-05
-2.22042e-05
-3.27811e-05
-4.22932e-05
-5.07819e-05
-5.82672e-05
-6.47605e-05
-7.01352e-05
-7.42782e-05
-7.71031e-05
-7.8407e-05
-7.81023e-05
-7.61608e-05
-7.26993e-05
-6.78278e-05
-6.1897e-05
-5.56896e-05
-5.03235e-05
-4.50157e-05
-3.95364e-05
-3.42511e-05
-2.93728e-05
-2.501e-05
-2.113e-05
-1.75846e-05
-1.4313e-05
-1.12313e-05
-8.32307e-06
-5.57767e-06
-2.9656e-06
-4.56008e-07
1.98753e-06
4.39737e-06
6.80639e-06
9.25395e-06
1.17672e-05
1.43668e-05
1.70809e-05
1.99343e-05
2.2954e-05
2.61672e-05
2.96043e-05
3.33023e-05
3.7307e-05
4.16743e-05
4.64701e-05
5.17637e-05
5.76046e-05
6.39691e-05
7.06492e-05
7.70914e-05
8.2674e-05
8.76403e-05
-3.62117e-05
-3.48381e-05
-3.29123e-05
-3.07044e-05
-2.86383e-05
-2.68984e-05
-2.55406e-05
-2.45707e-05
-2.39648e-05
-2.369e-05
-2.37142e-05
-2.40096e-05
-2.4553e-05
-2.53267e-05
-2.63173e-05
-2.75159e-05
-2.89175e-05
-3.05208e-05
-3.23279e-05
-3.43444e-05
-3.65795e-05
-3.90459e-05
-4.17602e-05
-4.47435e-05
-4.80218e-05
-5.16272e-05
-5.55983e-05
-5.99817e-05
-6.48337e-05
-7.02106e-05
-7.61692e-05
-8.28357e-05
-8.98252e-05
-9.68404e-05
-0.000103739
-0.000110446
-0.000116636
-0.000121895
-0.000125417
-0.000127558
-0.000128811
-0.000128994
-0.000128007
-0.000126044
-0.000123215
-0.000119566
-0.000115125
-0.000109932
-0.000103982
-9.72532e-05
-8.9717e-05
-8.14562e-05
-7.25465e-05
-6.30675e-05
-5.32313e-05
-4.3167e-05
-3.30176e-05
-2.27714e-05
-1.23994e-05
-1.74317e-06
9.22754e-06
2.06388e-05
3.20305e-05
4.33277e-05
5.38572e-05
6.34673e-05
7.20141e-05
7.9212e-05
8.51217e-05
8.98156e-05
9.33679e-05
9.58577e-05
9.73454e-05
9.78692e-05
9.74428e-05
9.61382e-05
9.39438e-05
9.07942e-05
8.66763e-05
8.15933e-05
7.55239e-05
6.83859e-05
6.01457e-05
5.0811e-05
4.03446e-05
2.88725e-05
1.6582e-05
3.86773e-06
-8.81124e-06
-2.10287e-05
-3.24953e-05
-4.30343e-05
-5.26459e-05
-6.1305e-05
-6.90342e-05
-7.58234e-05
-8.16222e-05
-8.63381e-05
-8.9964e-05
-9.24954e-05
-9.39307e-05
-9.42599e-05
-9.35095e-05
-9.17129e-05
-8.88833e-05
-8.50256e-05
-8.01471e-05
-7.42693e-05
-6.74821e-05
-5.98992e-05
-5.16566e-05
-4.29513e-05
-3.40721e-05
-2.51218e-05
-1.63091e-05
-7.64676e-06
8.95965e-07
9.41168e-06
1.806e-05
2.68109e-05
3.56481e-05
4.44855e-05
5.31432e-05
6.13646e-05
6.90236e-05
7.59499e-05
8.20466e-05
8.71806e-05
9.13136e-05
9.44477e-05
9.66034e-05
9.78031e-05
9.8053e-05
9.73881e-05
9.5816e-05
9.32804e-05
8.97759e-05
8.53117e-05
7.98196e-05
7.32516e-05
6.56577e-05
5.69937e-05
4.7215e-05
3.64843e-05
2.49364e-05
1.28982e-05
8.04704e-07
-1.0898e-05
-2.18662e-05
-3.18772e-05
-4.08473e-05
-4.87592e-05
-5.56241e-05
-6.1357e-05
-6.58876e-05
-6.91099e-05
-7.09268e-05
-7.12755e-05
-7.01142e-05
-6.75237e-05
-6.37656e-05
-5.90714e-05
-5.38044e-05
-4.82924e-05
-4.36214e-05
-3.91256e-05
-3.45439e-05
-3.01693e-05
-2.61235e-05
-2.24449e-05
-1.91019e-05
-1.59687e-05
-1.29981e-05
-1.01652e-05
-7.46689e-06
-4.89243e-06
-2.41917e-06
-2.12228e-08
2.33066e-06
4.66576e-06
7.01362e-06
9.40466e-06
1.18646e-05
1.44147e-05
1.70772e-05
1.98742e-05
2.28278e-05
2.59603e-05
2.92959e-05
3.28632e-05
3.66956e-05
4.08313e-05
4.53102e-05
5.01619e-05
5.53762e-05
6.0842e-05
6.62564e-05
7.10836e-05
7.48448e-05
7.77097e-05
-3.16475e-05
-3.10168e-05
-2.99001e-05
-2.84313e-05
-2.69506e-05
-2.56386e-05
-2.45818e-05
-2.38105e-05
-2.33278e-05
-2.31227e-05
-2.31783e-05
-2.34769e-05
-2.40025e-05
-2.47417e-05
-2.56842e-05
-2.68229e-05
-2.81538e-05
-2.96759e-05
-3.13909e-05
-3.33039e-05
-3.54227e-05
-3.77583e-05
-4.03252e-05
-4.31414e-05
-4.62294e-05
-4.96165e-05
-5.33353e-05
-5.7425e-05
-6.19326e-05
-6.69057e-05
-7.23884e-05
-7.8448e-05
-8.47545e-05
-9.10767e-05
-9.73067e-05
-0.000103369
-0.000108939
-0.000113597
-0.000116711
-0.00011859
-0.000119601
-0.000119575
-0.000118424
-0.000116346
-0.000113451
-0.000109756
-0.000105276
-0.000100101
-9.42086e-05
-8.76055e-05
-8.03214e-05
-7.2471e-05
-6.4153e-05
-5.54902e-05
-4.6678e-05
-3.78453e-05
-2.90843e-05
-2.03864e-05
-1.16808e-05
-2.77979e-06
6.43858e-06
1.6126e-05
2.60458e-05
3.61246e-05
4.58844e-05
5.50472e-05
6.3334e-05
7.05549e-05
7.66287e-05
8.15574e-05
8.53791e-05
8.81592e-05
8.99544e-05
9.08097e-05
9.07573e-05
8.98093e-05
8.79349e-05
8.51621e-05
8.14529e-05
7.68041e-05
7.12057e-05
6.45963e-05
5.69045e-05
4.81582e-05
3.83254e-05
2.7531e-05
1.59307e-05
3.89406e-06
-8.14508e-06
-1.97921e-05
-3.07547e-05
-4.08451e-05
-5.00176e-05
-5.82314e-05
-6.54489e-05
-7.1683e-05
-7.68814e-05
-8.09813e-05
-8.39707e-05
-8.59275e-05
-8.68e-05
-8.66237e-05
-8.54257e-05
-8.32381e-05
-8.00834e-05
-7.59888e-05
-7.09954e-05
-6.51636e-05
-5.86263e-05
-5.15223e-05
-4.40017e-05
-3.62396e-05
-2.84795e-05
-2.07861e-05
-1.32915e-05
-5.97832e-06
1.21636e-06
8.41059e-06
1.57531e-05
2.32724e-05
3.10055e-05
3.88394e-05
4.66643e-05
5.42663e-05
6.14975e-05
6.80959e-05
7.39659e-05
7.90375e-05
8.32213e-05
8.64738e-05
8.87902e-05
9.0184e-05
9.06687e-05
9.02545e-05
8.89033e-05
8.6599e-05
8.33788e-05
7.923e-05
7.41194e-05
6.79791e-05
6.0824e-05
5.26645e-05
4.3456e-05
3.33617e-05
2.25048e-05
1.11894e-05
-1.754e-07
-1.11791e-05
-2.14868e-05
-3.08649e-05
-3.92491e-05
-4.65294e-05
-5.26402e-05
-5.75703e-05
-6.12273e-05
-6.35558e-05
-6.44949e-05
-6.40876e-05
-6.23314e-05
-5.93984e-05
-5.56394e-05
-5.13213e-05
-4.6729e-05
-4.18593e-05
-3.78425e-05
-3.40592e-05
-3.02115e-05
-2.65581e-05
-2.31511e-05
-2.00058e-05
-1.71036e-05
-1.43472e-05
-1.16643e-05
-9.07208e-06
-6.5839e-06
-4.18872e-06
-1.8665e-06
4.04439e-07
2.6483e-06
4.89073e-06
7.15748e-06
9.47367e-06
1.18616e-05
1.43406e-05
1.69289e-05
1.96439e-05
2.25022e-05
2.55196e-05
2.87125e-05
3.20983e-05
3.56956e-05
3.95228e-05
4.35943e-05
4.79093e-05
5.2425e-05
5.70062e-05
6.13612e-05
6.50496e-05
6.77065e-05
6.93773e-05
-2.8102e-05
-2.78218e-05
-2.71707e-05
-2.61997e-05
-2.51557e-05
-2.419e-05
-2.33888e-05
-2.27992e-05
-2.24379e-05
-2.23061e-05
-2.23981e-05
-2.27048e-05
-2.32163e-05
-2.39233e-05
-2.48184e-05
-2.58965e-05
-2.71546e-05
-2.85923e-05
-3.02113e-05
-3.20162e-05
-3.40138e-05
-3.62139e-05
-3.8629e-05
-4.12749e-05
-4.4171e-05
-4.73408e-05
-5.08122e-05
-5.46184e-05
-5.87992e-05
-6.33969e-05
-6.84475e-05
-7.39685e-05
-7.96786e-05
-8.53925e-05
-9.10266e-05
-9.64988e-05
-0.000101492
-0.0001056
-0.000108318
-0.000109913
-0.00011067
-0.000110431
-0.000109112
-0.000106919
-0.000103956
-0.000100218
-9.57511e-05
-9.06396e-05
-8.48716e-05
-7.8486e-05
-7.15499e-05
-6.41973e-05
-5.65402e-05
-4.87154e-05
-4.0893e-05
-3.31834e-05
-2.56431e-05
-1.82556e-05
-1.09344e-05
-3.49558e-06
4.21311e-06
1.23571e-05
2.08472e-05
2.96647e-05
3.84737e-05
4.70126e-05
5.49814e-05
6.21237e-05
6.82939e-05
7.34264e-05
7.7502e-05
8.05594e-05
8.26414e-05
8.37887e-05
8.40327e-05
8.33817e-05
8.18497e-05
7.94489e-05
7.61478e-05
7.19403e-05
6.68102e-05
6.07045e-05
5.35559e-05
4.53991e-05
3.61953e-05
2.60663e-05
1.51493e-05
3.78927e-06
-7.60648e-06
-1.86602e-05
-2.90702e-05
-3.86877e-05
-4.73681e-05
-5.50369e-05
-6.17029e-05
-6.73513e-05
-7.19412e-05
-7.54149e-05
-7.78513e-05
-7.92681e-05
-7.96465e-05
-7.90318e-05
-7.74601e-05
-7.49686e-05
-7.15943e-05
-6.73901e-05
-6.2427e-05
-5.67927e-05
-5.06426e-05
-4.41175e-05
-3.73607e-05
-3.05194e-05
-2.37885e-05
-1.7199e-05
-1.08357e-05
-4.65836e-06
1.40854e-06
7.48832e-06
1.3718e-05
2.01587e-05
2.68587e-05
3.37426e-05
4.073e-05
4.76498e-05
5.43562e-05
6.06088e-05
6.62673e-05
7.12374e-05
7.54191e-05
7.87464e-05
8.11882e-05
8.27392e-05
8.33987e-05
8.31639e-05
8.20324e-05
7.99995e-05
7.70796e-05
7.32543e-05
6.85068e-05
6.27737e-05
5.60641e-05
4.84102e-05
3.97659e-05
3.02937e-05
2.01158e-05
9.5102e-06
-1.13869e-06
-1.1444e-05
-2.1063e-05
-2.97839e-05
-3.74557e-05
-4.39934e-05
-4.93364e-05
-5.34517e-05
-5.62746e-05
-5.78007e-05
-5.80509e-05
-5.70742e-05
-5.49647e-05
-5.19333e-05
-4.83571e-05
-4.44926e-05
-4.05209e-05
-3.62476e-05
-3.28226e-05
-2.96447e-05
-2.64006e-05
-2.33298e-05
-2.04366e-05
-1.77285e-05
-1.52e-05
-1.27751e-05
-1.03622e-05
-8.0016e-06
-5.71849e-06
-3.50236e-06
-1.3351e-06
8.01334e-07
2.92723e-06
5.06472e-06
7.23596e-06
9.46204e-06
1.17618e-05
1.41516e-05
1.66457e-05
1.92568e-05
2.19957e-05
2.48714e-05
2.78916e-05
3.10622e-05
3.43868e-05
3.78659e-05
4.14927e-05
4.52463e-05
4.9073e-05
5.28489e-05
5.63321e-05
5.91715e-05
6.10882e-05
6.21013e-05
-2.51968e-05
-2.50737e-05
-2.46869e-05
-2.40434e-05
-2.3313e-05
-2.26165e-05
-2.2026e-05
-2.15898e-05
-2.13353e-05
-2.12711e-05
-2.13979e-05
-2.17125e-05
-2.22097e-05
-2.28838e-05
-2.37304e-05
-2.47459e-05
-2.59287e-05
-2.72788e-05
-2.87982e-05
-3.04912e-05
-3.2364e-05
-3.44253e-05
-3.66862e-05
-3.91607e-05
-4.18657e-05
-4.48217e-05
-4.80527e-05
-5.15869e-05
-5.54582e-05
-5.97053e-05
-6.43576e-05
-6.93936e-05
-7.45702e-05
-7.97349e-05
-8.4824e-05
-8.97482e-05
-9.42005e-05
-9.78e-05
-0.000100141
-0.000101452
-0.000101962
-0.000101519
-0.000100041
-9.77407e-05
-9.47202e-05
-9.09674e-05
-8.65717e-05
-8.15728e-05
-7.59954e-05
-6.99053e-05
-6.33916e-05
-5.65963e-05
-4.96337e-05
-4.26366e-05
-3.57468e-05
-2.90513e-05
-2.25808e-05
-1.63113e-05
-1.01513e-05
-3.93261e-06
2.49892e-06
9.30516e-06
1.64772e-05
2.40464e-05
3.17983e-05
3.95351e-05
4.70007e-05
5.39073e-05
6.00568e-05
6.53265e-05
6.96278e-05
7.29583e-05
7.53331e-05
7.67822e-05
7.73364e-05
7.70122e-05
7.5825e-05
7.37802e-05
7.08622e-05
6.70622e-05
6.23708e-05
5.67427e-05
5.01245e-05
4.25448e-05
3.3959e-05
2.44829e-05
1.42389e-05
3.55856e-06
-7.19294e-06
-1.76318e-05
-2.74675e-05
-3.65063e-05
-4.46251e-05
-5.17384e-05
-5.78148e-05
-6.28597e-05
-6.68534e-05
-6.97279e-05
-7.16642e-05
-7.25868e-05
-7.25302e-05
-7.15503e-05
-6.96842e-05
-6.69796e-05
-6.34913e-05
-5.92957e-05
-5.44853e-05
-4.91623e-05
-4.34877e-05
-3.75897e-05
-3.15952e-05
-2.56231e-05
-1.98224e-05
-1.4201e-05
-8.8106e-06
-3.59667e-06
1.51934e-06
6.65667e-06
1.19375e-05
1.74434e-05
2.32148e-05
2.922e-05
3.53883e-05
4.16011e-05
4.77174e-05
5.35458e-05
5.89284e-05
6.37391e-05
6.78664e-05
7.12268e-05
7.37665e-05
7.54603e-05
7.62947e-05
7.62614e-05
7.5364e-05
7.35851e-05
7.09393e-05
6.74116e-05
6.30037e-05
5.76684e-05
5.13984e-05
4.42309e-05
3.61388e-05
2.72655e-05
1.77596e-05
7.86155e-06
-2.05652e-06
-1.16643e-05
-2.05892e-05
-2.85583e-05
-3.54723e-05
-4.12271e-05
-4.57781e-05
-4.91052e-05
-5.1174e-05
-5.20097e-05
-5.17416e-05
-5.03903e-05
-4.81342e-05
-4.51713e-05
-4.18687e-05
-3.84644e-05
-3.50384e-05
-3.13177e-05
-2.8413e-05
-2.57439e-05
-2.30053e-05
-2.04185e-05
-1.79572e-05
-1.56209e-05
-1.34153e-05
-1.12808e-05
-9.11945e-06
-6.98055e-06
-4.89489e-06
-2.85371e-06
-8.41229e-07
1.15743e-06
3.15928e-06
5.18324e-06
7.2482e-06
9.37181e-06
1.15697e-05
1.38549e-05
1.62382e-05
1.87276e-05
2.13287e-05
2.40439e-05
2.68726e-05
2.98102e-05
3.28477e-05
3.59704e-05
3.91563e-05
4.23727e-05
4.55656e-05
4.86344e-05
5.13906e-05
5.3551e-05
5.49208e-05
5.55504e-05
-2.26912e-05
-2.2633e-05
-2.23958e-05
-2.19663e-05
-2.14576e-05
-2.096e-05
-2.05373e-05
-2.02292e-05
-2.00624e-05
-2.00536e-05
-2.02078e-05
-2.05271e-05
-2.10076e-05
-2.16465e-05
-2.2442e-05
-2.33924e-05
-2.44968e-05
-2.5756e-05
-2.71723e-05
-2.87498e-05
-3.04944e-05
-3.24141e-05
-3.45188e-05
-3.68211e-05
-3.93358e-05
-4.20808e-05
-4.50771e-05
-4.83485e-05
-5.19234e-05
-5.58376e-05
-6.01145e-05
-6.47056e-05
-6.93938e-05
-7.40521e-05
-7.86362e-05
-8.30505e-05
-8.69987e-05
-9.01321e-05
-9.21206e-05
-9.31605e-05
-9.34404e-05
-9.28109e-05
-9.1191e-05
-8.88055e-05
-8.57611e-05
-8.2038e-05
-7.77455e-05
-7.29066e-05
-6.75819e-05
-6.18513e-05
-5.58143e-05
-4.96119e-05
-4.33517e-05
-3.71536e-05
-3.11311e-05
-2.53484e-05
-1.98179e-05
-1.45107e-05
-9.33536e-06
-4.14353e-06
1.20708e-06
6.86862e-06
1.28722e-05
1.92752e-05
2.59568e-05
3.27838e-05
3.95658e-05
4.60427e-05
5.19966e-05
5.72713e-05
6.17166e-05
6.52808e-05
6.79372e-05
6.96916e-05
7.05658e-05
7.05781e-05
6.97418e-05
6.80575e-05
6.55167e-05
6.21307e-05
5.78768e-05
5.27124e-05
4.66105e-05
3.96006e-05
3.16184e-05
2.27874e-05
1.32105e-05
3.22352e-06
-6.88691e-06
-1.67023e-05
-2.58866e-05
-3.43144e-05
-4.18166e-05
-4.83241e-05
-5.3787e-05
-5.82237e-05
-6.1627e-05
-6.40061e-05
-6.54456e-05
-6.59322e-05
-6.55119e-05
-6.42396e-05
-6.21581e-05
-5.93296e-05
-5.58262e-05
-5.17419e-05
-4.71804e-05
-4.22481e-05
-3.70984e-05
-3.18406e-05
-2.65813e-05
-2.14139e-05
-1.64474e-05
-1.16754e-05
-7.12541e-06
-2.73623e-06
1.56797e-06
5.89913e-06
1.03637e-05
1.50531e-05
1.99995e-05
2.52036e-05
3.0601e-05
3.61205e-05
4.16247e-05
4.69672e-05
5.19959e-05
5.65723e-05
6.05764e-05
6.39093e-05
6.65003e-05
6.83055e-05
6.92988e-05
6.94622e-05
6.87867e-05
6.72687e-05
6.48955e-05
6.16571e-05
5.75748e-05
5.26351e-05
4.68038e-05
4.01025e-05
3.25637e-05
2.42756e-05
1.54142e-05
6.22515e-06
-2.97934e-06
-1.18178e-05
-1.99646e-05
-2.71672e-05
-3.32934e-05
-3.82519e-05
-4.20279e-05
-4.46236e-05
-4.60231e-05
-4.63529e-05
-4.57034e-05
-4.41532e-05
-4.18931e-05
-3.9084e-05
-3.60847e-05
-3.31157e-05
-3.01659e-05
-2.69625e-05
-2.45087e-05
-2.22668e-05
-1.99606e-05
-1.7786e-05
-1.56911e-05
-1.36766e-05
-1.17546e-05
-9.8759e-06
-7.94776e-06
-6.0196e-06
-4.12325e-06
-2.25215e-06
-3.93175e-07
1.46584e-06
3.33908e-06
5.2426e-06
7.19232e-06
9.2029e-06
1.1287e-05
1.34546e-05
1.57131e-05
1.80667e-05
2.0516e-05
2.30579e-05
2.56846e-05
2.83829e-05
3.11339e-05
3.39119e-05
3.66845e-05
3.94122e-05
4.20447e-05
4.45039e-05
4.66529e-05
4.82736e-05
4.92275e-05
4.95563e-05
-2.04375e-05
-2.03998e-05
-2.02465e-05
-1.99563e-05
-1.96033e-05
-1.92523e-05
-1.89548e-05
-1.87467e-05
-1.86527e-05
-1.86867e-05
-1.88595e-05
-1.9177e-05
-1.96366e-05
-2.02366e-05
-2.0978e-05
-2.18604e-05
-2.28835e-05
-2.40486e-05
-2.53585e-05
-2.68173e-05
-2.84306e-05
-3.02059e-05
-3.21523e-05
-3.42809e-05
-3.66048e-05
-3.91397e-05
-4.19038e-05
-4.4917e-05
-4.82038e-05
-5.17949e-05
-5.57078e-05
-5.98864e-05
-6.41191e-05
-6.83045e-05
-7.2419e-05
-7.63619e-05
-7.98452e-05
-8.25539e-05
-8.42189e-05
-8.50088e-05
-8.50819e-05
-8.42895e-05
-8.25536e-05
-8.0117e-05
-7.70759e-05
-7.34181e-05
-6.92616e-05
-6.46379e-05
-5.96222e-05
-5.43015e-05
-4.87782e-05
-4.3186e-05
-3.76196e-05
-3.2182e-05
-2.69603e-05
-2.19992e-05
-1.72983e-05
-1.28256e-05
-8.49454e-06
-4.17662e-06
2.57859e-07
4.94074e-06
9.92678e-06
1.52807e-05
2.09452e-05
2.68388e-05
3.2833e-05
3.87212e-05
4.42994e-05
4.94071e-05
5.38592e-05
5.75622e-05
6.04446e-05
6.2477e-05
6.3662e-05
6.40057e-05
6.35238e-05
6.2203e-05
6.00611e-05
5.70931e-05
5.32668e-05
4.85764e-05
4.30029e-05
3.65746e-05
2.9206e-05
2.09613e-05
1.20308e-05
2.74318e-06
-6.63339e-06
-1.57679e-05
-2.43122e-05
-3.20816e-05
-3.89252e-05
-4.47947e-05
-4.96369e-05
-5.34781e-05
-5.63342e-05
-5.82571e-05
-5.92531e-05
-5.93648e-05
-5.8645e-05
-5.71487e-05
-5.49278e-05
-5.20597e-05
-4.86295e-05
-4.47414e-05
-4.05005e-05
-3.60092e-05
-3.14057e-05
-2.67784e-05
-2.22137e-05
-1.7783e-05
-1.3562e-05
-9.53639e-06
-5.71594e-06
-2.03838e-06
1.56654e-06
5.20157e-06
8.95786e-06
1.29287e-05
1.7141e-05
2.16165e-05
2.62988e-05
3.11524e-05
3.6048e-05
4.08751e-05
4.54958e-05
4.97727e-05
5.35846e-05
5.68229e-05
5.94061e-05
6.12725e-05
6.23869e-05
6.2718e-05
6.2254e-05
6.09965e-05
5.88972e-05
5.59523e-05
5.22198e-05
4.77097e-05
4.23057e-05
3.60535e-05
2.90214e-05
2.12976e-05
1.30787e-05
4.63671e-06
-3.81665e-06
-1.18796e-05
-1.92206e-05
-2.56136e-05
-3.09346e-05
-3.51115e-05
-3.8159e-05
-4.01019e-05
-4.09779e-05
-4.09424e-05
-4.00367e-05
-3.83996e-05
-3.62178e-05
-3.36013e-05
-3.09097e-05
-2.83431e-05
-2.58131e-05
-2.30916e-05
-2.10285e-05
-1.91502e-05
-1.72186e-05
-1.53967e-05
-1.36176e-05
-1.18851e-05
-1.02139e-05
-8.56283e-06
-6.85043e-06
-5.12186e-06
-3.40707e-06
-1.70164e-06
4.93293e-09
1.72252e-06
3.46292e-06
5.2396e-06
7.06587e-06
8.95375e-06
1.09132e-05
1.29516e-05
1.50733e-05
1.72791e-05
1.95656e-05
2.1925e-05
2.43439e-05
2.68029e-05
2.92759e-05
3.17298e-05
3.41253e-05
3.64192e-05
3.85643e-05
4.05023e-05
4.21484e-05
4.33746e-05
4.39423e-05
4.4023e-05
-1.83428e-05
-1.83042e-05
-1.81965e-05
-1.79965e-05
-1.77514e-05
-1.75072e-05
-1.73032e-05
-1.71696e-05
-1.71292e-05
-1.71979e-05
-1.73833e-05
-1.76891e-05
-1.81207e-05
-1.8679e-05
-1.93636e-05
-2.01751e-05
-2.11139e-05
-2.21817e-05
-2.33819e-05
-2.47186e-05
-2.61974e-05
-2.78248e-05
-2.96096e-05
-3.15619e-05
-3.36927e-05
-3.60157e-05
-3.85469e-05
-4.13029e-05
-4.43044e-05
-4.75787e-05
-5.11397e-05
-5.49072e-05
-5.87234e-05
-6.24635e-05
-6.61419e-05
-6.96517e-05
-7.27099e-05
-7.50344e-05
-7.64073e-05
-7.69729e-05
-7.6866e-05
-7.59384e-05
-7.41171e-05
-7.16581e-05
-6.86388e-05
-6.50925e-05
-6.11194e-05
-5.67619e-05
-5.21018e-05
-4.72289e-05
-4.22429e-05
-3.72647e-05
-3.23732e-05
-2.76529e-05
-2.31681e-05
-1.89474e-05
-1.49816e-05
-1.12374e-05
-7.63575e-06
-4.06743e-06
-4.16394e-07
3.4301e-06
7.53557e-06
1.1964e-05
1.66986e-05
2.16941e-05
2.68709e-05
3.20782e-05
3.71436e-05
4.19234e-05
4.62271e-05
4.9937e-05
5.29477e-05
5.51937e-05
5.66508e-05
5.73048e-05
5.71648e-05
5.62068e-05
5.44542e-05
5.18969e-05
4.85045e-05
4.43147e-05
3.93339e-05
3.34294e-05
2.65845e-05
1.889e-05
1.06584e-05
2.14613e-06
-6.47094e-06
-1.48681e-05
-2.27037e-05
-2.97734e-05
-3.59351e-05
-4.11568e-05
-4.53918e-05
-4.86762e-05
-5.10477e-05
-5.25122e-05
-5.31245e-05
-5.29253e-05
-5.19669e-05
-5.0312e-05
-4.80248e-05
-4.51946e-05
-4.19139e-05
-3.82889e-05
-3.44187e-05
-3.03966e-05
-2.63411e-05
-2.2321e-05
-1.84042e-05
-1.4643e-05
-1.10873e-05
-7.71852e-06
-4.53406e-06
-1.47414e-06
1.52436e-06
4.55408e-06
7.69222e-06
1.10282e-05
1.45861e-05
1.83992e-05
2.24213e-05
2.66415e-05
3.09445e-05
3.52472e-05
3.94285e-05
4.33593e-05
4.69235e-05
5.00077e-05
5.25248e-05
5.43999e-05
5.55892e-05
5.60555e-05
5.57606e-05
5.47015e-05
5.28642e-05
5.02518e-05
4.69035e-05
4.27483e-05
3.77796e-05
3.19816e-05
2.53785e-05
1.82492e-05
1.07633e-05
3.08358e-06
-4.5809e-06
-1.18248e-05
-1.83281e-05
-2.38921e-05
-2.84209e-05
-3.18631e-05
-3.42608e-05
-3.56618e-05
-3.61491e-05
-3.58169e-05
-3.47587e-05
-3.31163e-05
-3.10562e-05
-2.8648e-05
-2.62595e-05
-2.40629e-05
-2.1909e-05
-1.96322e-05
-1.79093e-05
-1.63447e-05
-1.47401e-05
-1.32226e-05
-1.17182e-05
-1.02346e-05
-8.78672e-06
-7.34037e-06
-5.82776e-06
-4.28801e-06
-2.74774e-06
-1.2043e-06
3.50507e-07
1.92464e-06
3.52787e-06
5.17144e-06
6.86634e-06
8.62228e-06
1.04469e-05
1.23453e-05
1.4319e-05
1.63662e-05
1.84802e-05
2.06497e-05
2.28573e-05
2.50793e-05
2.72849e-05
2.94362e-05
3.14897e-05
3.33991e-05
3.5119e-05
3.66029e-05
3.78007e-05
3.86559e-05
3.89486e-05
3.88738e-05
-1.63467e-05
-1.62975e-05
-1.62127e-05
-1.60705e-05
-1.58994e-05
-1.57315e-05
-1.55961e-05
-1.5518e-05
-1.55165e-05
-1.56057e-05
-1.57941e-05
-1.60867e-05
-1.6488e-05
-1.70006e-05
-1.76245e-05
-1.83602e-05
-1.92107e-05
-2.01784e-05
-2.12662e-05
-2.24777e-05
-2.38185e-05
-2.52943e-05
-2.69126e-05
-2.86834e-05
-3.06169e-05
-3.27243e-05
-3.50188e-05
-3.75147e-05
-4.02292e-05
-4.31868e-05
-4.63986e-05
-4.97797e-05
-5.31775e-05
-5.65051e-05
-5.97809e-05
-6.28947e-05
-6.55664e-05
-6.75459e-05
-6.86589e-05
-6.90287e-05
-6.87716e-05
-6.77383e-05
-6.58592e-05
-6.33978e-05
-6.04421e-05
-5.70629e-05
-5.33185e-05
-4.92695e-05
-4.50031e-05
-4.06064e-05
-3.6171e-05
-3.18015e-05
-2.75594e-05
-2.35119e-05
-1.97037e-05
-1.61509e-05
-1.28385e-05
-9.73388e-06
-6.76725e-06
-3.84523e-06
-8.66475e-07
2.26216e-06
5.60678e-06
9.22602e-06
1.31274e-05
1.72904e-05
2.16704e-05
2.6164e-05
3.0636e-05
3.49685e-05
3.89874e-05
4.25688e-05
4.559e-05
4.7958e-05
4.96213e-05
5.05421e-05
5.07145e-05
5.01033e-05
4.87292e-05
4.65942e-05
4.36334e-05
3.98664e-05
3.53528e-05
2.99995e-05
2.38494e-05
1.69188e-05
9.41247e-06
1.59006e-06
-6.31888e-06
-1.39454e-05
-2.10233e-05
-2.73662e-05
-3.28393e-05
-3.74219e-05
-4.10762e-05
-4.38413e-05
-4.57569e-05
-4.68181e-05
-4.71009e-05
-4.66431e-05
-4.55023e-05
-4.37522e-05
-4.14679e-05
-3.8745e-05
-3.56777e-05
-3.23666e-05
-2.88998e-05
-2.53584e-05
-2.18399e-05
-1.83968e-05
-1.50784e-05
-1.1923e-05
-8.96061e-06
-6.17048e-06
-3.54211e-06
-1.02043e-06
1.44975e-06
3.95067e-06
6.54683e-06
9.32052e-06
1.22938e-05
1.55054e-05
1.89197e-05
2.25414e-05
2.62734e-05
3.00538e-05
3.37791e-05
3.73334e-05
4.06088e-05