/*--------------------------------*- C++ -*----------------------------------*\
| =========                 |                                                 |
| \\      /  F ield         | OpenFOAM: The Open Source CFD Toolbox           |
|  \\    /   O peration     | Version:  2506                                  |
|   \\  /    A nd           | Website:  www.openfoam.com                      |
|    \\/     M anipulation  |                                                 |
\*---------------------------------------------------------------------------*/
FoamFile
{
    version     2.0;
    format      ascii;
    arch        "LSB;label=32;scalar=64";
    class       surfaceScalarField;
    location    "3";
    object      phi;
}
// * * * * * * * * * * * * * * * * * * * * * * * * * * * * * * * * * * * * * //

dimensions      [0 3 -1 0 0 0 0];

oriented        oriented;

internalField   nonuniform List<scalar> 
7780
(
6.12352e-10
-6.12352e-10
1.04756e-09
-4.35209e-10
1.29382e-09
-2.46264e-10
1.45474e-09
-1.60915e-10
1.56735e-09
-1.12608e-10
1.64988e-09
-8.25301e-11
1.714e-09
-6.41245e-11
1.76633e-09
-5.2331e-11
1.81055e-09
-4.4214e-11
1.84889e-09
-3.83434e-11
1.88284e-09
-3.39481e-11
1.9134e-09
-3.05577e-11
1.94127e-09
-2.78755e-11
1.96698e-09
-2.57117e-11
1.99093e-09
-2.39422e-11
2.01341e-09
-2.24844e-11
2.0347e-09
-2.12859e-11
2.05501e-09
-2.03177e-11
2.07458e-09
-1.95672e-11
2.09361e-09
-1.9033e-11
2.11234e-09
-1.87266e-11
2.13101e-09
-1.8671e-11
2.14992e-09
-1.89039e-11
2.1694e-09
-1.94862e-11
2.18992e-09
-2.05148e-11
2.21205e-09
-2.21329e-11
2.23661e-09
-2.45597e-11
2.26477e-09
-2.81575e-11
2.29831e-09
-3.35404e-11
2.34003e-09
-4.17224e-11
2.38353e-09
-8.8469e-11
2.38317e-09
-3.16829e-10
2.33726e-09
-6.14643e-10
2.26089e-09
-8.93357e-10
2.16306e-09
-1.13463e-09
2.06141e-09
-1.35296e-09
1.96753e-09
-1.55837e-09
1.833e-09
-1.80785e-09
1.67488e-09
-1.96757e-09
1.54031e-09
-2.03549e-09
1.42775e-09
-2.08803e-09
1.33854e-09
-2.13109e-09
1.26755e-09
-2.16103e-09
1.21112e-09
-2.17984e-09
1.16624e-09
-2.18835e-09
1.1292e-09
-2.18573e-09
1.09885e-09
-2.17091e-09
1.07084e-09
-2.14403e-09
1.04147e-09
-2.10304e-09
1.00609e-09
-2.04512e-09
9.62684e-10
-1.96632e-09
9.16703e-10
-1.86219e-09
8.60611e-10
-1.73593e-09
8.10939e-10
-1.57251e-09
7.75221e-10
-1.3724e-09
7.80959e-10
-1.11931e-09
8.38301e-10
-8.22818e-10
9.70911e-10
-4.54623e-10
1.16485e-09
-3.85818e-11
1.37509e-09
3.86564e-10
1.57261e-09
7.80557e-10
1.74854e-09
1.14324e-09
1.88437e-09
1.40303e-09
1.99879e-09
1.62576e-09
2.08947e-09
1.77623e-09
2.16646e-09
1.89643e-09
2.23371e-09
1.98971e-09
2.29302e-09
2.05486e-09
2.34713e-09
2.10414e-09
2.39715e-09
2.14125e-09
2.44461e-09
2.16847e-09
2.4897e-09
2.18504e-09
2.53293e-09
2.19273e-09
2.57486e-09
2.19259e-09
2.61573e-09
2.18481e-09
2.65584e-09
2.16901e-09
2.69525e-09
2.14438e-09
2.73363e-09
2.1046e-09
2.7715e-09
2.05566e-09
2.80854e-09
1.9927e-09
2.84501e-09
1.91029e-09
2.87786e-09
1.78626e-09
2.90892e-09
1.64756e-09
2.93353e-09
1.44137e-09
2.95195e-09
1.1988e-09
2.95627e-09
8.45452e-10
2.94824e-09
4.53456e-10
2.92667e-09
1.32745e-11
2.89614e-09
-4.50463e-10
2.86258e-09
-8.65947e-10
2.83482e-09
-1.1913e-09
2.81245e-09
-1.47293e-09
2.79783e-09
-1.6653e-09
2.7863e-09
-1.831e-09
2.775e-09
-1.93588e-09
2.75866e-09
-2.01457e-09
2.73507e-09
-2.07912e-09
2.70247e-09
-2.11649e-09
2.66157e-09
-2.14325e-09
2.61327e-09
-2.1612e-09
2.55951e-09
-2.17249e-09
2.50288e-09
-2.17864e-09
2.44482e-09
-2.17776e-09
2.38624e-09
-2.17001e-09
2.32655e-09
-2.154e-09
2.26425e-09
-2.12815e-09
2.19714e-09
-2.09074e-09
2.12216e-09
-2.03589e-09
2.03782e-09
-1.96131e-09
1.94149e-09
-1.87139e-09
1.83154e-09
-1.75837e-09
1.71491e-09
-1.594e-09
1.59092e-09
-1.41744e-09
1.47868e-09
-1.16207e-09
1.3873e-09
-8.79394e-10
1.34177e-09
-5.23771e-10
1.35728e-09
-1.16308e-10
1.42105e-09
2.93266e-10
1.51317e-09
6.82111e-10
1.61872e-09
1.04798e-09
1.71203e-09
1.32823e-09
1.79609e-09
1.5565e-09
1.8677e-09
1.72209e-09
1.93246e-09
1.86203e-09
1.98928e-09
1.95616e-09
2.0409e-09
2.02921e-09
2.08967e-09
2.08797e-09
2.13617e-09
2.13056e-09
2.18079e-09
2.15963e-09
2.22445e-09
2.17907e-09
2.26768e-09
2.19008e-09
2.31103e-09
2.19308e-09
2.3548e-09
2.18827e-09
2.39903e-09
2.1741e-09
2.44464e-09
2.15129e-09
2.49145e-09
2.11946e-09
2.54008e-09
2.0764e-09
2.5909e-09
2.02048e-09
2.64235e-09
1.93588e-09
2.69629e-09
1.8381e-09
2.7518e-09
1.7148e-09
2.80487e-09
1.52589e-09
2.85715e-09
1.31746e-09
2.9001e-09
1.00686e-09
2.93377e-09
6.4527e-10
2.95405e-09
2.26789e-10
2.96181e-09
-2.36827e-10
2.96037e-09
-6.84268e-10
2.95877e-09
-1.04811e-09
2.95833e-09
-1.35397e-09
2.96077e-09
-1.58947e-09
2.96454e-09
-1.76454e-09
2.96733e-09
-1.88812e-09
2.96366e-09
-1.99237e-09
2.95103e-09
-2.05419e-09
2.92793e-09
-2.09904e-09
2.89365e-09
-2.1303e-09
2.849e-09
-2.1536e-09
2.79574e-09
-2.16602e-09
2.72694e-09
-2.16266e-09
2.64074e-09
-2.14996e-09
2.53944e-09
-2.13225e-09
2.41978e-09
-2.10392e-09
2.30257e-09
-1.67996e-09
2.18565e-09
-1.45891e-09
2.06922e-09
-1.27374e-09
1.95991e-09
-1.03512e-09
1.87088e-09
-7.8096e-10
1.81493e-09
-4.9352e-10
1.80264e-09
-2.01869e-10
1.8148e-09
-2.11214e-11
1.82049e-09
-5.69102e-12
1.82524e-09
-4.74977e-12
1.83076e-09
-5.51965e-12
1.83731e-09
-6.54772e-12
1.84455e-09
-7.24651e-12
1.85171e-09
-7.1598e-12
1.85829e-09
-6.57736e-12
1.86378e-09
-5.49108e-12
1.86789e-09
-4.11067e-12
1.87044e-09
-2.54721e-12
1.87128e-09
-8.4318e-13
1.87059e-09
6.95745e-13
1.86845e-09
2.13838e-12
1.86481e-09
3.63405e-12
1.85967e-09
5.14519e-12
1.85294e-09
6.72998e-12
1.84447e-09
8.47327e-12
1.83395e-09
1.05179e-11
1.82092e-09
1.30318e-11
1.80467e-09
1.62415e-11
1.78417e-09
2.05069e-11
1.7577e-09
2.64672e-11
1.72233e-09
3.53649e-11
1.67248e-09
4.98511e-11
1.59649e-09
7.59895e-11
1.46891e-09
1.27586e-10
1.22981e-09
2.39102e-10
7.40457e-10
4.89349e-10
7.40457e-10
-5.14089e-11
-5.60943e-10
9.98809e-11
-5.86498e-10
3.00902e-10
-4.47284e-10
4.79628e-10
-3.39642e-10
6.32021e-10
-2.65001e-10
7.6158e-10
-2.12089e-10
8.72121e-10
-1.74666e-10
9.67334e-10
-1.47545e-10
1.05026e-09
-1.2714e-10
1.12324e-09
-1.1132e-10
1.18805e-09
-9.87646e-11
1.24608e-09
-8.85846e-11
1.29837e-09
-8.01675e-11
1.34576e-09
-7.30956e-11
1.38889e-09
-6.70772e-11
1.42831e-09
-6.19038e-11
1.46446e-09
-5.74343e-11
1.49773e-09
-5.3586e-11
1.52848e-09
-5.03207e-11
1.55708e-09
-4.76334e-11
1.5839e-09
-4.55471e-11
1.60934e-09
-4.41121e-11
1.63385e-09
-4.34161e-11
1.65797e-09
-4.36002e-11
1.68235e-09
-4.48936e-11
1.70782e-09
-4.7607e-11
1.73547e-09
-5.22116e-11
1.76672e-09
-5.94026e-11
1.8035e-09
-7.03201e-11
1.84858e-09
-8.67993e-11
1.89681e-09
-1.36703e-10
1.91012e-09
-3.30135e-10
1.87838e-09
-5.82912e-10
1.80953e-09
-8.24499e-10
1.71353e-09
-1.03864e-09
1.60701e-09
-1.24644e-09
1.49825e-09
-1.4496e-09
1.36018e-09
-1.66978e-09
1.20972e-09
-1.81711e-09
1.08086e-09
-1.90663e-09
9.75811e-10
-1.98298e-09
8.92839e-10
-2.04812e-09
8.28033e-10
-2.09623e-09
7.77907e-10
-2.12971e-09
7.38641e-10
-2.14909e-09
7.0612e-10
-2.15321e-09
6.77233e-10
-2.14202e-09
6.46961e-10
-2.11376e-09
6.10553e-10
-2.06663e-09
5.64209e-10
-1.99878e-09
5.05757e-10
-1.90787e-09
4.3774e-10
-1.79417e-09
3.5695e-10
-1.65514e-09
2.75063e-10
-1.49063e-09
2.01275e-10
-1.29861e-09
1.57993e-10
-1.07602e-09
1.60751e-10
-8.25576e-10
2.40959e-10
-5.34831e-10
4.08082e-10
-2.05707e-10
6.4566e-10
1.48984e-10
9.19574e-10
5.06644e-10
1.19832e-09
8.64503e-10
1.44188e-09
1.15948e-09
1.6481e-09
1.41956e-09
1.81255e-09
1.61178e-09
1.94431e-09
1.76467e-09
2.05082e-09
1.88319e-09
2.13754e-09
1.96811e-09
2.21026e-09
2.0314e-09
2.2728e-09
2.07871e-09
2.32851e-09
2.11277e-09
2.3789e-09
2.13467e-09
2.42536e-09
2.14629e-09
2.46908e-09
2.14888e-09
2.51076e-09
2.14312e-09
2.55095e-09
2.12881e-09
2.58984e-09
2.10548e-09
2.62716e-09
2.06727e-09
2.66347e-09
2.01935e-09
2.6986e-09
1.95758e-09
2.73279e-09
1.87611e-09
2.76333e-09
1.75572e-09
2.79215e-09
1.61875e-09
2.81574e-09
1.41778e-09
2.83536e-09
1.17919e-09
2.84691e-09
8.33898e-10
2.85473e-09
4.45639e-10
2.85957e-09
8.43219e-12
2.86534e-09
-4.56232e-10
2.87333e-09
-8.73941e-10
2.88545e-09
-1.20342e-09
2.89726e-09
-1.48473e-09
2.90599e-09
-1.67404e-09
2.90667e-09
-1.83168e-09
2.89682e-09
-1.92603e-09
2.87476e-09
-1.99251e-09
2.84081e-09
-2.04517e-09
2.79568e-09
-2.07135e-09
2.74202e-09
-2.08958e-09
2.68282e-09
-2.10199e-09
2.62093e-09
-2.11059e-09
2.55788e-09
-2.11559e-09
2.49418e-09
-2.11406e-09
2.42904e-09
-2.10488e-09
2.36027e-09
-2.08525e-09
2.28506e-09
-2.05295e-09
2.20042e-09
-2.0061e-09
2.10329e-09
-1.93876e-09
1.99289e-09
-1.8509e-09
1.86791e-09
-1.7464e-09
1.72904e-09
-1.61949e-09
1.58199e-09
-1.44695e-09
1.42874e-09
-1.26418e-09
1.282e-09
-1.01533e-09
1.14971e-09
-7.47108e-10
1.04911e-09
-4.23172e-10
9.99834e-10
-6.70308e-11
1.00884e-09
2.84256e-10
1.07544e-09
6.15519e-10
1.18915e-09
9.34257e-10
1.31953e-09
1.19785e-09
1.44979e-09
1.42624e-09
1.56751e-09
1.60437e-09
1.67287e-09
1.75668e-09
1.7635e-09
1.86553e-09
1.8418e-09
1.95091e-09
1.91104e-09
2.01873e-09
1.97303e-09
2.06857e-09
2.02912e-09
2.10354e-09
2.08107e-09
2.12713e-09
2.13014e-09
2.14101e-09
2.1775e-09
2.14573e-09
2.22387e-09
2.14189e-09
2.26963e-09
2.12834e-09
2.31587e-09
2.10505e-09
2.36266e-09
2.07266e-09
2.4107e-09
2.02836e-09
2.4604e-09
1.97079e-09
2.51036e-09
1.88592e-09
2.56257e-09
1.78589e-09
2.61645e-09
1.66093e-09
2.66899e-09
1.47335e-09
2.72233e-09
1.26411e-09
2.77132e-09
9.57869e-10
2.81866e-09
5.9794e-10
2.86295e-09
1.82491e-10
2.90585e-09
-2.79728e-10
2.94764e-09
-7.26057e-10
2.99011e-09
-1.09058e-09
3.02906e-09
-1.39293e-09
3.06176e-09
-1.62216e-09
3.08335e-09
-1.78613e-09
3.09092e-09
-1.89568e-09
3.08278e-09
-1.98421e-09
3.05917e-09
-2.03056e-09
3.02121e-09
-2.06105e-09
2.97127e-09
-2.08035e-09
2.91231e-09
-2.09464e-09
2.84683e-09
-2.10057e-09
2.76693e-09
-2.08281e-09
2.67016e-09
-2.05322e-09
2.56151e-09
-2.02363e-09
2.44034e-09
-1.98274e-09
2.32095e-09
-1.56055e-09
2.19732e-09
-1.33525e-09
2.06953e-09
-1.14594e-09
1.94234e-09
-9.07918e-10
1.8275e-09
-6.66123e-10
1.73301e-09
-3.99031e-10
1.6688e-09
-1.37667e-10
1.63371e-09
1.39733e-11
1.61114e-09
1.68767e-11
1.59804e-09
8.35261e-12
1.59244e-09
7.31973e-14
1.592e-09
-6.10891e-12
1.59445e-09
-9.69189e-12
1.59784e-09
-1.05458e-11
1.6007e-09
-9.44519e-12
1.60195e-09
-6.74092e-12
1.60081e-09
-2.96298e-12
1.59675e-09
1.51063e-12
1.58965e-09
6.25688e-12
1.57932e-09
1.10188e-11
1.56572e-09
1.57379e-11
1.54891e-09
2.04509e-11
1.52881e-09
2.52463e-11
1.50519e-09
3.03453e-11
1.47758e-09
3.60798e-11
1.44526e-09
4.28445e-11
1.40712e-09
5.11746e-11
1.36152e-09
6.18325e-11
1.30601e-09
7.60205e-11
1.23678e-09
9.56973e-11
1.14786e-09
1.24287e-10
1.02952e-09
1.68195e-10
8.66586e-10
2.38919e-10
6.38048e-10
3.56123e-10
3.30949e-10
5.46202e-10
2.97083e-11
7.9059e-10
7.70165e-10
-1.202e-10
-4.40743e-10
-1.20535e-10
-5.86163e-10
-3.19217e-11
-5.35898e-10
8.88093e-11
-4.60373e-10
2.15327e-10
-3.91518e-10
3.37754e-10
-3.34516e-10
4.51781e-10
-2.88693e-10
5.5612e-10
-2.51883e-10
6.5096e-10
-2.2198e-10
7.37014e-10
-1.97374e-10
8.15111e-10
-1.76862e-10
8.86053e-10
-1.59526e-10
9.50555e-10
-1.4467e-10
1.00924e-09
-1.31782e-10
1.06265e-09
-1.20486e-10
1.11125e-09
-1.10499e-10
1.15544e-09
-1.01626e-10
1.19559e-09
-9.37434e-11
1.23207e-09
-8.67927e-11
1.2652e-09
-8.07661e-11
1.29535e-09
-7.56998e-11
1.32292e-09
-7.16765e-11
1.34834e-09
-6.88381e-11
1.37215e-09
-6.7412e-11
1.39499e-09
-6.77391e-11
1.41768e-09
-7.02922e-11
1.4412e-09
-7.57284e-11
1.46676e-09
-8.49662e-11
1.49582e-09
-9.9375e-11
1.52997e-09
-1.20952e-10
1.56463e-09
-1.71366e-10
1.56891e-09
-3.34418e-10
1.53174e-09
-5.45741e-10
1.45974e-09
-7.52497e-10
1.36436e-09
-9.43254e-10
1.26041e-09
-1.14249e-09
1.15469e-09
-1.34388e-09
1.03229e-09
-1.54738e-09
9.0956e-10
-1.69438e-09
8.08301e-10
-1.80537e-09
7.2827e-10
-1.90295e-09
6.66045e-10
-1.9859e-09
6.18422e-10
-2.0486e-09
5.82168e-10
-2.09346e-09
5.53394e-10
-2.12032e-09
5.27995e-10
-2.12782e-09
5.02285e-10
-2.11631e-09
4.71733e-10
-2.08321e-09
4.32398e-10
-2.02729e-09
3.81781e-10
-1.94816e-09
3.1933e-10
-1.84542e-09
2.4703e-10
-1.72187e-09
1.66193e-10
-1.5743e-09
8.47175e-11
-1.40915e-09
1.19843e-11
-1.22588e-09
-3.69313e-11
-1.02711e-09
-5.03174e-11
-8.1219e-10
-7.71393e-12
-5.77435e-10
1.03317e-10
-3.16738e-10
2.82777e-10
-3.0476e-11
5.18347e-10
2.71077e-10
7.90266e-10
5.9259e-10
1.06197e-09
8.87784e-10
1.31452e-09
1.16701e-09
1.53211e-09
1.39419e-09
1.71363e-09
1.58314e-09
1.86147e-09
1.73533e-09
1.98061e-09
1.84896e-09
2.07727e-09
1.93475e-09
2.15661e-09
1.99938e-09
2.22357e-09
2.04584e-09
2.28121e-09
2.07704e-09
2.33206e-09
2.09545e-09
2.37821e-09
2.10273e-09
2.42117e-09
2.10015e-09
2.46208e-09
2.08789e-09
2.50164e-09
2.0659e-09
2.53993e-09
2.02898e-09
2.57762e-09
1.98165e-09
2.61492e-09
1.92028e-09
2.65237e-09
1.83867e-09
2.68818e-09
1.71991e-09
2.72447e-09
1.58246e-09
2.75981e-09
1.38244e-09
2.79568e-09
1.14331e-09
2.82939e-09
8.00187e-10
2.86342e-09
4.11613e-10
2.89708e-09
-2.52229e-11
2.93064e-09
-4.89796e-10
2.96033e-09
-9.03636e-10
2.98527e-09
-1.22835e-09
3.00099e-09
-1.50046e-09
3.00528e-09
-1.67833e-09
2.99559e-09
-1.822e-09
2.97213e-09
-1.90257e-09
2.93472e-09
-1.95511e-09
2.88608e-09
-1.99653e-09
2.82885e-09
-2.01412e-09
2.76652e-09
-2.02725e-09
2.70181e-09
-2.03727e-09
2.63634e-09
-2.04511e-09
2.57064e-09
-2.04989e-09
2.5038e-09
-2.04722e-09
2.43357e-09
-2.03466e-09
2.35688e-09
-2.00857e-09
2.2709e-09
-1.96698e-09
2.17358e-09
-1.90878e-09
2.06347e-09
-1.82865e-09
1.9416e-09
-1.72903e-09
1.80895e-09
-1.61375e-09
1.66852e-09
-1.47907e-09
1.52611e-09
-1.30453e-09
1.38446e-09
-1.12254e-09
1.25297e-09
-8.83844e-10
1.13598e-09
-6.30118e-10
1.04167e-09
-3.2886e-10
9.79478e-10
-4.84125e-12
9.55403e-10
3.08331e-10
9.72325e-10
5.98597e-10
1.03146e-09
8.75127e-10
1.12608e-09
1.10322e-09
1.24066e-09
1.31166e-09
1.36013e-09
1.4849e-09
1.47666e-09
1.64015e-09
1.58323e-09
1.75895e-09
1.67797e-09
1.85617e-09
1.76174e-09
1.93495e-09
1.8359e-09
1.99441e-09
1.90174e-09
2.03771e-09
1.96107e-09
2.0678e-09
2.01552e-09
2.08656e-09
2.06667e-09
2.09458e-09
2.11573e-09
2.09283e-09
2.16356e-09
2.0805e-09
2.21163e-09
2.05699e-09
2.26041e-09
2.02387e-09
2.31097e-09
1.97781e-09
2.36398e-09
1.91778e-09
2.41875e-09
1.83114e-09
2.47719e-09
1.72745e-09
2.53974e-09
1.59837e-09
2.60566e-09
1.40743e-09
2.67655e-09
1.19323e-09
2.74913e-09
8.85285e-10
2.82466e-09
5.22412e-10
2.90103e-09
1.06125e-10
2.97637e-09
-3.55072e-10
3.04511e-09
-7.94799e-10
3.10473e-09
-1.15019e-09
3.15e-09
-1.43821e-09
3.17893e-09
-1.65109e-09
3.18851e-09
-1.79571e-09
3.17956e-09
-1.88673e-09
3.15201e-09
-1.95666e-09
3.10909e-09
-1.98763e-09
3.05476e-09
-2.00671e-09
2.9922e-09
-2.01777e-09
2.92408e-09
-2.02651e-09
2.85225e-09
-2.02874e-09
2.76807e-09
-1.99865e-09
2.66867e-09
-1.95387e-09
2.56006e-09
-1.91506e-09
2.44307e-09
-1.86577e-09
2.3332e-09
-1.45067e-09
2.221e-09
-1.22303e-09
2.10743e-09
-1.03235e-09
1.99689e-09
-7.97367e-10
1.89995e-09
-5.69181e-10
1.81976e-09
-3.18838e-10
1.7585e-09
-7.64028e-11
1.71515e-09
5.73196e-11
1.68414e-09
4.78817e-11
1.66266e-09
2.98374e-11
1.64894e-09
1.3792e-11
1.64091e-09
1.92357e-12
1.63633e-09
-5.12056e-12
1.63333e-09
-7.53753e-12
1.6301e-09
-6.21753e-12
1.62534e-09
-1.97953e-12
1.61808e-09
4.29908e-12
1.6077e-09
1.18899e-11
1.59367e-09
2.02842e-11
1.5757e-09
2.8991e-11
1.55373e-09
3.77064e-11
1.52765e-09
4.65309e-11
1.49723e-09
5.56615e-11
1.46209e-09
6.549e-11
1.42157e-09
7.66005e-11
1.37465e-09
8.97595e-11
1.3198e-09
1.06024e-10
1.25476e-09
1.26874e-10
1.17629e-09
1.54492e-10
1.07966e-09
1.92331e-10
9.57966e-10
2.45976e-10
8.01953e-10
3.24208e-10
6.01656e-10
4.39216e-10
3.5526e-10
6.02519e-10
9.60732e-11
8.05389e-10
-6.63677e-11
9.53031e-10
7.03797e-10
-9.67921e-11
-3.43951e-10
-1.46677e-10
-5.36278e-10
-1.27555e-10
-5.55019e-10
-6.61244e-11
-5.21804e-10
1.75426e-11
-4.75185e-10
1.10321e-10
-4.27294e-10
2.04659e-10
-3.83031e-10
2.96486e-10
-3.4371e-10
3.83794e-10
-3.09289e-10
4.65702e-10
-2.79282e-10
5.41908e-10
-2.53069e-10
6.12415e-10
-2.30033e-10
6.77375e-10
-2.09629e-10
7.37007e-10
-1.91414e-10
7.91558e-10
-1.75036e-10
8.41281e-10
-1.60222e-10
8.86429e-10
-1.46774e-10
9.27253e-10
-1.34567e-10
9.64003e-10
-1.23543e-10
9.9694e-10
-1.13703e-10
1.02635e-09
-1.05108e-10
1.05255e-09
-9.78812e-11
1.07594e-09
-9.22285e-11
1.09699e-09
-8.84625e-11
1.11629e-09
-8.70321e-11
1.13454e-09
-8.85475e-11
1.15264e-09
-9.38233e-11
1.17162e-09
-1.03947e-10
1.19266e-09
-1.20416e-10
1.21697e-09
-1.45268e-10
1.24048e-09
-1.9487e-10
1.23708e-09
-3.31018e-10
1.19885e-09
-5.07513e-10
1.13379e-09
-6.87434e-10
1.05373e-09
-8.63201e-10
9.69714e-10
-1.05847e-09
8.86344e-10
-1.26052e-09
7.94218e-10
-1.45526e-09
7.06682e-10
-1.60684e-09
6.37047e-10
-1.73574e-09
5.83505e-10
-1.84941e-09
5.42459e-10
-1.94485e-09
5.11428e-10
-2.01757e-09
4.87538e-10
-2.06957e-09
4.67182e-10
-2.09996e-09
4.46567e-10
-2.1072e-09
4.22152e-10
-2.0919e-09
3.9058e-10
-2.05164e-09
3.49447e-10
-1.98616e-09
2.97279e-10
-1.89599e-09
2.35054e-10
-1.78319e-09
1.65189e-10
-1.652e-09
9.09377e-11
-1.50005e-09
1.89463e-11
-1.33716e-09
-4.338e-11
-1.16355e-09
-8.6031e-11
-9.84458e-10
-1.00009e-10
-7.98213e-10
-7.39882e-11
-6.03456e-10
1.16593e-12
-3.91892e-10
1.31067e-10
-1.60376e-10
3.1269e-10
8.94586e-11
5.40821e-10
3.64465e-10
7.92098e-10
6.36512e-10
1.04931e-09
9.09789e-10
1.29047e-09
1.15302e-09
1.50548e-09
1.36812e-09
1.68971e-09
1.55108e-09
1.8424e-09
1.69626e-09
1.9671e-09
1.81006e-09
2.06812e-09
1.89838e-09
2.15066e-09
1.96332e-09
2.21896e-09
2.00876e-09
2.27679e-09
2.03761e-09
2.32728e-09
2.05224e-09
2.37284e-09
2.05458e-09
2.41536e-09
2.04536e-09
2.45658e-09
2.02468e-09
2.4973e-09
1.98827e-09
2.53846e-09
1.94049e-09
2.58061e-09
1.87814e-09
2.62487e-09
1.79441e-09
2.67032e-09
1.67445e-09
2.71838e-09
1.53441e-09
2.76825e-09
1.33257e-09
2.82122e-09
1.09033e-09
2.87543e-09
7.45976e-10
2.9306e-09
3.56446e-10
2.98244e-09
-7.70633e-11
3.02845e-09
-5.35808e-10
3.06302e-09
-9.38208e-10
3.08519e-09
-1.25052e-09
3.09137e-09
-1.50664e-09
3.08153e-09
-1.66849e-09
3.05485e-09
-1.79533e-09
3.01363e-09
-1.86135e-09
2.96056e-09
-1.90204e-09
2.89939e-09
-1.93536e-09
2.8329e-09
-1.94764e-09
2.76469e-09
-1.95903e-09
2.69712e-09
-1.96969e-09
2.62991e-09
-1.97789e-09
2.56213e-09
-1.98209e-09
2.49135e-09
-1.97644e-09
2.41459e-09
-1.9579e-09
2.32888e-09
-1.92287e-09
2.2324e-09
-1.87051e-09
2.12475e-09
-1.80115e-09
2.0066e-09
-1.7105e-09
1.8809e-09
-1.60334e-09
1.75031e-09
-1.48315e-09
1.61886e-09
-1.34761e-09
1.4921e-09
-1.17778e-09
1.3727e-09
-1.00313e-09
1.26689e-09
-7.78037e-10
1.17701e-09
-5.40232e-10
1.10585e-09
-2.57708e-10
1.05554e-09
4.54739e-11
1.02617e-09
3.37702e-10
1.02244e-09
6.02324e-10
1.04748e-09
8.50086e-10
1.10159e-09
1.04912e-09
1.18088e-09
1.23237e-09
1.27741e-09
1.38837e-09
1.38207e-09
1.53548e-09
1.4862e-09
1.65482e-09
1.58448e-09
1.7579e-09
1.67474e-09
1.84469e-09
1.75606e-09
1.91308e-09
1.82859e-09
1.96518e-09
1.89359e-09
2.0028e-09
1.95261e-09
2.02755e-09
2.00739e-09
2.0398e-09
2.05947e-09
2.04074e-09
2.11009e-09
2.02988e-09
2.1612e-09
2.00587e-09
2.21383e-09
1.97124e-09
2.26935e-09
1.92228e-09
2.32886e-09
1.85828e-09
2.39269e-09
1.76731e-09
2.46268e-09
1.65746e-09
2.53904e-09
1.52201e-09
2.62185e-09
1.32461e-09
2.71227e-09
1.1028e-09
2.808e-09
7.89562e-10
2.90767e-09
4.2274e-10
3.00506e-09
8.7311e-12
3.09492e-09
-4.44934e-10
3.16947e-09
-8.69347e-10
3.2257e-09
-1.20643e-09
3.2595e-09
-1.47201e-09
3.27086e-09
-1.66245e-09
3.25928e-09
-1.78413e-09
3.22808e-09
-1.85552e-09
3.18046e-09
-1.90903e-09
3.12151e-09
-1.92867e-09
3.05518e-09
-1.94036e-09
2.98456e-09
-1.94712e-09
2.91253e-09
-1.95446e-09
2.83943e-09
-1.95562e-09
2.75539e-09
-1.91461e-09
2.6571e-09
-1.85562e-09
2.55029e-09
-1.80828e-09
2.43546e-09
-1.75097e-09
2.33271e-09
-1.34793e-09
2.23077e-09
-1.12108e-09
2.1306e-09
-9.32169e-10
2.03712e-09
-7.03873e-10
1.96e-09
-4.92059e-10
1.9005e-09
-2.59331e-10
1.8573e-09
-3.32036e-11
1.82534e-09
8.92778e-11
1.79936e-09
7.38583e-11
1.77806e-09
5.11424e-11
1.76089e-09
3.09546e-11
1.74703e-09
1.57841e-11
1.73536e-09
6.55299e-12
1.72472e-09
3.10436e-12
1.71386e-09
4.63578e-12
1.70171e-09
1.01785e-11
1.6873e-09
1.87061e-11
1.66992e-09
2.92712e-11
1.64906e-09
4.11458e-11
1.62425e-09
5.37952e-11
1.59513e-09
6.68287e-11
1.56148e-09
8.01834e-11
1.52296e-09
9.41746e-11
1.47905e-09
1.09402e-10
1.42895e-09
1.26701e-10
1.37152e-09
1.47193e-10
1.30512e-09
1.72424e-10
1.22743e-09
2.04559e-10
1.13518e-09
2.4675e-10
1.02369e-09
3.03814e-10
8.86685e-10
3.82985e-10
7.16964e-10
4.93928e-10
5.10424e-10
6.45756e-10
2.77198e-10
8.35745e-10
6.20992e-11
1.02049e-09
-4.72386e-11
1.06237e-09
6.56559e-10
-7.03395e-11
-2.73612e-10
-1.29821e-10
-4.76797e-10
-1.46553e-10
-5.38287e-10
-1.2723e-10
-5.41127e-10
-8.31428e-11
-5.19272e-10
-2.38488e-11
-4.86589e-10
4.32123e-11
-4.50092e-10
1.13185e-10
-4.13682e-10
1.83055e-10
-3.79159e-10
2.50995e-10
-3.47222e-10
3.15915e-10
-3.17988e-10
3.77187e-10
-2.91304e-10
4.34473e-10
-2.66915e-10
4.87615e-10
-2.44557e-10
5.36568e-10
-2.23989e-10
5.8136e-10
-2.05014e-10
6.22068e-10
-1.87483e-10
6.58803e-10
-1.71303e-10
6.91704e-10
-1.56444e-10
7.20939e-10
-1.42937e-10
7.46716e-10
-1.30885e-10
7.693e-10
-1.20465e-10
7.89028e-10
-1.11957e-10
8.06332e-10
-1.05766e-10
8.21754e-10
-1.02454e-10
8.35973e-10
-1.02767e-10
8.49825e-10
-1.07675e-10
8.64311e-10
-1.18432e-10
8.80566e-10
-1.36671e-10
8.99796e-10
-1.64499e-10
9.18843e-10
-2.13917e-10
9.16627e-10
-3.28803e-10
8.88526e-10
-4.79412e-10
8.4276e-10
-6.41668e-10
7.89378e-10
-8.0982e-10
7.3471e-10
-1.0038e-09
6.80955e-10
-1.20676e-09
6.21629e-10
-1.39593e-09
5.66805e-10
-1.55202e-09
5.24588e-10
-1.69352e-09
4.93009e-10
-1.81783e-09
4.68968e-10
-1.92081e-09
4.50627e-10
-1.99923e-09
4.35501e-10
-2.05444e-09
4.20386e-10
-2.08485e-09
4.02034e-10
-2.08885e-09
3.77654e-10
-2.06752e-09
3.44913e-10
-2.0189e-09
3.02627e-10
-1.94387e-09
2.50725e-10
-1.84409e-09
1.90907e-10
-1.72337e-09
1.25973e-10
-1.58707e-09
5.9814e-11
-1.43389e-09
-2.03471e-12
-1.27531e-09
-5.38332e-11
-1.11175e-09
-8.89513e-11
-9.4934e-10
-1.01421e-10
-7.85743e-10
-8.38694e-11
-6.21008e-10
-2.9386e-11
-4.46375e-10
6.7611e-11
-2.57371e-10
2.08991e-10
-5.19178e-11
3.95233e-10
1.78227e-10
6.15192e-10
4.1655e-10
8.56948e-10
6.68023e-10
1.10144e-09
9.08513e-10
1.33467e-09
1.13489e-09
1.54702e-09
1.33873e-09
1.73193e-09
1.51135e-09
1.88813e-09
1.65388e-09
2.01685e-09
1.76967e-09
2.12171e-09
1.85847e-09
2.2066e-09
1.92386e-09
2.27594e-09
1.96827e-09
2.33392e-09
1.99425e-09
2.38438e-09
2.00411e-09
2.43021e-09
1.99952e-09
2.47344e-09
1.98145e-09
2.51634e-09
1.94537e-09
2.56042e-09
1.89642e-09
2.60656e-09
1.83201e-09
2.65655e-09
1.74442e-09
2.71023e-09
1.62078e-09
2.76868e-09
1.47596e-09
2.83121e-09
1.27004e-09
2.89752e-09
1.02402e-09
2.96454e-09
6.78948e-10
3.02984e-09
2.91149e-10
3.08706e-09
-1.34286e-10
3.13253e-09
-5.81275e-10
3.16015e-09
-9.65827e-10
3.16984e-09
-1.26021e-09
3.15928e-09
-1.49608e-09
3.13043e-09
-1.63963e-09
3.08458e-09
-1.74948e-09
3.02635e-09
-1.80313e-09
2.95942e-09
-1.83512e-09
2.88765e-09
-1.86359e-09
2.81475e-09
-1.87475e-09
2.74346e-09
-1.88773e-09
2.67408e-09
-1.90031e-09
2.60489e-09
-1.90869e-09
2.53337e-09
-1.91057e-09
2.45632e-09
-1.89937e-09
2.37084e-09
-1.87241e-09
2.27502e-09
-1.82706e-09
2.16874e-09
-1.76424e-09
2.05353e-09
-1.68594e-09
1.93186e-09
-1.58883e-09
1.80794e-09
-1.47943e-09
1.68501e-09
-1.36022e-09
1.56687e-09
-1.22947e-09
1.45826e-09
-1.06916e-09
1.36063e-09
-9.05502e-10
1.27831e-09
-6.95712e-10
1.21219e-09
-4.74113e-10
1.1634e-09
-2.08916e-10
1.13254e-09
7.63291e-11
1.11666e-09
3.53585e-10
1.11664e-09
6.02342e-10
1.13353e-09
8.33194e-10
1.16923e-09
1.01343e-09
1.22468e-09
1.17692e-09
1.29841e-09
1.31463e-09
1.3849e-09
1.44899e-09
1.47845e-09
1.56126e-09
1.57299e-09
1.66335e-09
1.66445e-09
1.75324e-09
1.74973e-09
1.8278e-09
1.82742e-09
1.8875e-09
1.89757e-09
1.93265e-09
1.96102e-09
1.96409e-09
2.01942e-09
1.98139e-09
2.07474e-09
1.98543e-09
2.12875e-09
1.97587e-09
2.18337e-09
1.95125e-09
2.2397e-09
1.91491e-09
2.29988e-09
1.8621e-09
2.36564e-09
1.79252e-09
2.43804e-09
1.69492e-09
2.51865e-09
1.57685e-09
2.60777e-09
1.43289e-09
2.7056e-09
1.22678e-09
2.81125e-09
9.97151e-10
2.92117e-09
6.7965e-10
3.03181e-09
3.12097e-10
3.13448e-09
-9.39407e-11
3.22252e-09
-5.32972e-10
3.28762e-09
-9.34452e-10
3.32775e-09
-1.24656e-09
3.34052e-09
-1.48479e-09
3.32764e-09
-1.64957e-09
3.2921e-09
-1.7486e-09
3.24002e-09
-1.80344e-09
3.17553e-09
-1.84454e-09
3.10414e-09
-1.85728e-09
3.03055e-09
-1.86676e-09
2.95743e-09
-1.87399e-09
2.88541e-09
-1.88242e-09
2.81309e-09
-1.88328e-09
2.72982e-09
-1.83133e-09
2.6319e-09
-1.7577e-09
2.52436e-09
-1.70077e-09
2.40746e-09
-1.6341e-09
2.30669e-09
-1.24719e-09
2.20974e-09
-1.02414e-09
2.11749e-09
-8.39918e-10
2.03521e-09
-6.21586e-10
1.97147e-09
-4.2831e-10
1.92705e-09
-2.14909e-10
1.8999e-09
-6.04466e-12
1.88179e-09
1.07382e-10
1.86428e-09
9.13658e-11
1.84664e-09
6.8784e-11
1.82906e-09
4.85326e-11
1.81175e-09
3.30977e-11
1.79465e-09
2.3652e-11
1.77745e-09
2.0306e-11
1.75958e-09
2.25064e-11
1.74037e-09
2.93891e-11
1.71912e-09
3.99552e-11
1.69518e-09
5.32147e-11
1.66798e-09
6.83419e-11
1.63705e-09
8.47292e-11
1.60191e-09
1.01969e-10
1.5621e-09
1.19984e-10
1.51714e-09
1.39139e-10
1.46638e-09
1.60165e-10
1.40898e-09
1.84097e-10
1.34384e-09
2.12333e-10
1.26946e-09
2.46806e-10
1.18378e-09
2.90241e-10
1.08391e-09
3.46613e-10
9.65883e-10
4.21844e-10
8.24638e-10
5.2423e-10
6.55395e-10
6.63172e-10
4.58203e-10
8.42948e-10
2.47804e-10
1.04614e-09
6.59781e-11
1.20231e-09
-2.31345e-11
1.15148e-09
6.33424e-10
-4.97836e-11
-2.23828e-10
-1.06035e-10
-4.20546e-10
-1.39414e-10
-5.04907e-10
-1.46235e-10
-5.34306e-10
-1.31292e-10
-5.34214e-10
-1.00436e-10
-5.17446e-10
-5.91661e-11
-4.91361e-10
-1.19189e-11
-4.6093e-10
3.81478e-11
-4.29225e-10
8.88595e-11
-3.97934e-10
1.38749e-10
-3.67878e-10
1.86838e-10
-3.39393e-10
2.32483e-10
-3.12561e-10
2.75274e-10
-2.87347e-10
3.14959e-10
-2.63674e-10
3.51401e-10
-2.41457e-10
3.84545e-10
-2.20627e-10
4.14397e-10
-2.01155e-10
4.41014e-10
-1.8306e-10
4.64503e-10
-1.66426e-10
4.85029e-10
-1.5141e-10
5.02825e-10
-1.38262e-10
5.18215e-10
-1.27346e-10
5.31624e-10
-1.19175e-10
5.43605e-10
-1.14435e-10
5.54853e-10
-1.14015e-10
5.66225e-10
-1.19047e-10
5.78751e-10
-1.30958e-10
5.9361e-10
-1.5153e-10
6.12076e-10
-1.82965e-10
6.32078e-10
-2.33918e-10
6.3783e-10
-3.34555e-10
6.2676e-10
-4.68341e-10
6.05509e-10
-6.20417e-10
5.80929e-10
-7.8524e-10
5.55252e-10
-9.78122e-10
5.28901e-10
-1.18041e-09
4.97522e-10
-1.36455e-09
4.68626e-10
-1.52312e-09
4.47347e-10
-1.67224e-09
4.32174e-10
-1.80265e-09
4.20514e-10
-1.90915e-09
4.10966e-10
-1.98968e-09
4.01418e-10
-2.0449e-09
3.89059e-10
-2.07249e-09
3.7129e-10
-2.07108e-09
3.46396e-10
-2.04263e-09
3.12735e-10
-1.98524e-09
2.70193e-10
-1.90133e-09
2.19646e-10
-1.79354e-09
1.63236e-10
-1.66696e-09
1.03879e-10
-1.52771e-09
4.54267e-11
-1.37544e-09
-7.69898e-12
-1.22219e-09
-5.11959e-11
-1.06825e-09
-8.07092e-11
-9.19827e-10
-9.21713e-11
-7.74282e-10
-8.09164e-11
-6.32263e-10
-4.16853e-11
-4.85606e-10
3.1129e-11
-3.30183e-10
1.41577e-10
-1.62364e-10
2.93061e-10
2.67429e-11
4.81517e-10
2.28087e-10
7.00567e-10
4.48962e-10
9.36992e-10
6.72079e-10
1.17787e-09
8.94006e-10
1.4105e-09
1.10611e-09
1.62496e-09
1.29691e-09
1.81526e-09
1.46359e-09
1.97849e-09
1.60646e-09
2.1151e-09
1.72185e-09
2.22705e-09
1.81191e-09
2.31778e-09
1.87752e-09
2.39143e-09
1.92058e-09
2.45203e-09
1.94352e-09
2.50419e-09
1.94736e-09
2.55161e-09
1.93403e-09
2.59754e-09
1.89944e-09
2.64435e-09
1.84962e-09
2.69356e-09
1.78279e-09
2.74728e-09
1.6907e-09
2.80555e-09
1.56251e-09
2.86923e-09
1.41227e-09
2.93742e-09
1.20185e-09
3.00881e-09
9.52637e-10
3.07899e-09
6.08764e-10
3.14396e-09
2.26179e-10
3.1961e-09
-1.86427e-10
3.23129e-09
-6.16465e-10
3.2437e-09
-9.78237e-10
3.2346e-09
-1.25111e-09
3.20275e-09
-1.46423e-09
3.1531e-09
-1.58998e-09
3.08854e-09
-1.68491e-09
3.01488e-09
-1.72947e-09
2.93659e-09
-1.75682e-09
2.85776e-09
-1.78476e-09
2.78097e-09
-1.79796e-09
2.70784e-09
-1.81461e-09
2.63601e-09
-1.82849e-09
2.56293e-09
-1.8356e-09
2.485e-09
-1.83263e-09
2.3991e-09
-1.81346e-09
2.30341e-09
-1.77671e-09
2.19771e-09
-1.72136e-09
2.08375e-09
-1.65028e-09
1.96466e-09
-1.56686e-09
1.84403e-09
-1.46821e-09
1.72631e-09
-1.36172e-09
1.61434e-09
-1.24825e-09
1.51091e-09
-1.12603e-09
1.41948e-09
-9.77732e-10
1.34011e-09
-8.26134e-10
1.27592e-09
-6.31512e-10
1.22696e-09
-4.25151e-10
1.19428e-09
-1.76244e-10
1.17896e-09
9.16568e-11
1.17785e-09
3.54687e-10
1.19005e-09
5.90147e-10
1.2143e-09
8.08943e-10
1.2507e-09
9.77022e-10
1.30034e-09
1.12728e-09
1.36416e-09
1.25082e-09
1.44041e-09
1.37273e-09
1.52681e-09
1.47486e-09
1.61849e-09
1.57167e-09
1.71118e-09
1.66056e-09
1.80123e-09
1.73776e-09
1.88584e-09
1.80289e-09
1.96373e-09
1.85475e-09
2.03461e-09
1.89321e-09
2.09935e-09
1.91665e-09
2.15936e-09
1.92541e-09
2.2168e-09
1.91843e-09
2.27486e-09
1.8932e-09
2.33504e-09
1.85474e-09
2.39961e-09
1.79753e-09
2.47043e-09
1.7217e-09
2.54877e-09
1.61658e-09
2.63612e-09
1.4895e-09
2.73229e-09
1.33672e-09
2.8372e-09
1.12187e-09
2.94861e-09
8.85746e-10
3.06141e-09
5.66849e-10
3.17052e-09
2.02982e-10
3.26581e-09
-1.8923e-10
3.34009e-09
-6.07251e-10
3.38536e-09
-9.7972e-10
3.40122e-09
-1.26242e-09
3.38713e-09
-1.4707e-09
3.34875e-09
-1.61119e-09
3.29117e-09
-1.69102e-09
3.22136e-09
-1.73364e-09
3.14445e-09
-1.76764e-09
3.06643e-09
-1.77927e-09
2.99069e-09
-1.79102e-09
2.91837e-09
-1.80166e-09
2.84724e-09
-1.81127e-09
2.77471e-09
-1.81072e-09
2.68973e-09
-1.74633e-09
2.58873e-09
-1.65668e-09
2.47658e-09
-1.58863e-09
2.3544e-09
-1.51194e-09
2.25218e-09
-1.145e-09
2.15692e-09
-9.28894e-10
2.06908e-09
-7.52084e-10
1.99373e-09
-5.46231e-10
1.93803e-09
-3.72599e-10
1.90272e-09
-1.79595e-10
1.88583e-09
1.08469e-11
1.87763e-09
1.15582e-10
1.86698e-09
1.02012e-10
1.85318e-09
8.25873e-11
1.8366e-09
6.51144e-11
1.81789e-09
5.1809e-11
1.79758e-09
4.39544e-11
1.77595e-09
4.19365e-11
1.75295e-09
4.55061e-11
1.72831e-09
5.40298e-11
1.70161e-09
6.6661e-11
1.67233e-09
8.24918e-11
1.63996e-09
1.00711e-10
1.60399e-09
1.20702e-10
1.56387e-09
1.42088e-10
1.51901e-09
1.64842e-10
1.46879e-09
1.89366e-10
1.41249e-09
2.16461e-10
1.34931e-09
2.4728e-10
1.27824e-09
2.83403e-10
1.19802e-09
3.27023e-10
1.10698e-09
3.81277e-10
1.00283e-09
4.5077e-10
8.8245e-10
5.4222e-10
7.42226e-10