/*--------------------------------*- C++ -*----------------------------------*\
| =========                 |                                                 |
| \\      /  F ield         | OpenFOAM: The Open Source CFD Toolbox           |
|  \\    /   O peration     | Version:  2506                                  |
|   \\  /    A nd           | Website:  www.openfoam.com                      |
|    \\/     M anipulation  |                                                 |
\*---------------------------------------------------------------------------*/
FoamFile
{
    version     2.0;
    format      ascii;
    arch        "LSB;label=32;scalar=64";
    class       volScalarField;
    location    "3";
    object      s;
}
// * * * * * * * * * * * * * * * * * * * * * * * * * * * * * * * * * * * * * //

dimensions      [0 0 0 0 0 0 0];

internalField   nonuniform List<scalar> 
4000
(
6.17225e-15
6.88902e-15
8.37932e-15
1.07323e-14
1.40992e-14
1.88102e-14
2.53553e-14
3.44348e-14
4.69992e-14
6.42788e-14
8.7824e-14
1.19567e-13
1.61935e-13
2.18064e-13
2.92151e-13
3.90001e-13
5.19812e-13
6.93193e-13
9.2651e-13
1.24267e-12
1.6731e-12
2.25983e-12
3.05835e-12
4.1412e-12
5.60238e-12
7.56365e-12
1.01835e-11
1.36647e-11
1.82911e-11
2.43977e-11
3.23545e-11
4.44663e-11
6.31991e-11
9.04217e-11
1.29487e-10
1.8656e-10
2.70184e-10
4.04064e-10
6.31187e-10
1.00908e-09
1.6721e-09
2.847e-09
4.91315e-09
8.41502e-09
1.40565e-08
2.27931e-08
3.62675e-08
5.73854e-08
9.24773e-08
1.5274e-07
2.58588e-07
4.44805e-07
7.84677e-07
1.39472e-06
2.55688e-06
4.61382e-06
8.18305e-06
1.20289e-05
1.98009e-05
1.73365e-05
1.19592e-05
6.07632e-06
2.19374e-06
6.89901e-07
2.50005e-07
9.93901e-08
3.95234e-08
1.53258e-08
5.93019e-09
2.30894e-09
8.95751e-10
3.43455e-10
1.29789e-10
4.8318e-11
1.77233e-11
6.4174e-12
2.30517e-12
8.30086e-13
3.04173e-13
1.15974e-13
4.72723e-14
2.13655e-14
1.10542e-14
7.01528e-15
5.69609e-15
6.19636e-15
8.70563e-15
1.54508e-14
2.93794e-14
6.78542e-14
1.15504e-13
2.77209e-13
8.32136e-13
3.67717e-12
1.18913e-11
7.17651e-12
4.53874e-11
-8.57109e-10
-7.38574e-09
-5.82933e-08
-8.40362e-08
-9.18021e-08
-2.28575e-07
-8.32664e-07
-2.70375e-06
-1.14951e-05
-4.87189e-05
-0.000142775
-0.000394141
-0.000757883
-0.00137083
-0.00955435
-0.0519027
-0.189664
-0.484755
-0.797259
-1.36558
-1.35267
-1.04589
-0.595838
-0.228639
-0.0635741
-0.0192745
-0.00665855
-0.00233148
-0.000778469
-0.000257199
-8.62095e-05
-2.89203e-05
-9.57583e-06
-3.11446e-06
-9.93587e-07
-3.10394e-07
-9.48509e-08
-2.84257e-08
-8.5403e-09
-2.83082e-09
-1.30075e-09
-9.70691e-10
-6.59396e-10
-3.61178e-10
-1.49787e-10
-3.52741e-11
-1.67747e-13
1.03328e-12
-1.19037e-11
-3.60298e-11
-9.50623e-11
-4.02052e-10
5.90465e-10
1.09981e-09
-3.31161e-09
-1.49499e-08
-5.95434e-08
-1.63321e-07
9.91842e-08
1.36101e-06
-1.89697e-06
1.59958e-06
5.37229e-05
0.000282479
0.00422223
0.00449565
-0.00108738
-0.0173303
-0.0509829
-0.0997123
-0.112194
-0.103176
-0.0839357
-0.0517531
0.00092835
0.0749592
0.149515
0.180305
0.19257
0.196811
0.192993
0.18206
0.16699
0.1528
0.145816
0.149904
0.166785
0.226877
0.348673
0.463454
0.542896
0.602127
0.645882
0.674962
0.689845
0.691221
0.67952
0.653906
0.612103
0.546916
0.432367
0.168568
-0.116053
1.40483e-18
1.66006e-18
3.19917e-18
4.12877e-18
4.2328e-18
4.42199e-18
7.59379e-18
1.97729e-17
5.11011e-17
1.16771e-16
2.38167e-16
4.44652e-16
7.77285e-16
1.2956e-15
2.08902e-15
3.28916e-15
5.12288e-15
7.9912e-15
1.24627e-14
1.94861e-14
3.08053e-14
4.94013e-14
7.99307e-14
1.29651e-13
2.09542e-13
3.36067e-13
5.33815e-13
8.3944e-13
1.30343e-12
2.02154e-12
2.98104e-12
3.41718e-12
2.99373e-12
2.15687e-12
1.34885e-12
7.39962e-13
3.57065e-13
1.54909e-13
7.74721e-14
6.59021e-14
9.17991e-14
1.52423e-13
2.61224e-13
4.43032e-13
7.32951e-13
1.18415e-12
1.89227e-12
3.03978e-12
5.01398e-12
8.51212e-12
1.48969e-11
2.68695e-11
5.06117e-11
1.0027e-10
2.15597e-10
4.95855e-10
1.21863e-09
3.16424e-09
1.3633e-07
7.04093e-06
1.38262e-05
1.44441e-05
1.08935e-05
6.05949e-06
2.61498e-06
8.68363e-07
3.31024e-07
1.4618e-07
6.57008e-08
2.84429e-08
1.19497e-08
4.96009e-09
2.02402e-09
8.04906e-10
3.1189e-10
1.18271e-10
4.40472e-11
1.61921e-11
5.91504e-12
2.17351e-12
8.19365e-13
3.30184e-13
1.5321e-13
9.16221e-14
7.20425e-14
7.34592e-14
9.11013e-14
1.28056e-13
2.31726e-13
3.99098e-13
6.65785e-13
1.38248e-12
2.73907e-12
9.83851e-12
2.53486e-11
1.4056e-10
3.30896e-10
-9.9972e-10
-1.13856e-08
-1.55017e-08
2.71077e-08
-4.32495e-08
-3.43709e-07
-1.26233e-06
-5.83719e-06
-2.31704e-05
-5.90584e-05
-0.000107708
-0.000172747
-0.000466334
-0.00519053
-0.0262264
-0.0703578
-0.121695
-0.167569
-0.234269
-0.301503
-0.552946
-0.96318
-1.15326
-0.895829
-0.485208
-0.194101
-0.0564537
-0.0181365
-0.0070395
-0.00280025
-0.00106363
-0.000392744
-0.000143636
-5.15562e-05
-1.79539e-05
-6.03772e-06
-1.9564e-06
-6.06312e-07
-1.76095e-07
-4.5573e-08
-9.03259e-09
-4.89532e-10
2.15947e-09
1.60971e-09
1.15999e-09
8.43585e-10
6.60547e-10
5.78556e-10
5.89566e-10
6.07712e-10
1.33998e-10
2.11417e-09
5.13452e-09
-2.65433e-09
-1.94949e-08
-8.21822e-08
-2.55396e-07
-6.57833e-07
-1.52555e-06
-7.19797e-06
-2.72108e-05
-2.64448e-05
9.05742e-05
0.000212005
1.8762e-05
-0.0113323
-0.030104
-0.0514682
-0.0663602
-0.0694861
-0.0634703
-0.0496217
-0.0287919
-0.00189955
0.0345117
0.080735
0.131851
0.180337
0.219215
0.24406
0.253617
0.249381
0.234912
0.214962
0.195218
0.1824
0.180811
0.187822
0.209065
0.232865
0.245214
0.251396
0.254891
0.256043
0.252949
0.240163
0.21858
0.192327
0.168092
0.155203
0.118764
-0.114497
-0.364808
-1.64072e-18
-4.67011e-19
4.49949e-20
1.00644e-18
1.19762e-18
-1.23651e-18
-9.04628e-18
-2.48338e-17
-4.97255e-17
-8.24556e-17
-1.18901e-16
-1.53835e-16
-1.81976e-16
-1.97988e-16
-1.92177e-16
-1.31254e-16
-5.3361e-17
-1.93233e-17
1.70532e-17
7.42209e-17
1.77407e-16
3.64225e-16
6.92297e-16
1.25187e-15
2.18445e-15
3.70087e-15
6.14904e-15
1.00438e-14
1.60198e-14
2.47864e-14
3.57571e-14
4.06419e-14
3.5661e-14
2.47158e-14
1.35008e-14
5.42053e-15
1.1978e-15
-5.57832e-16
-1.74984e-15
-3.58167e-15
-6.53122e-15
-1.18195e-14
-2.12423e-14
-3.81967e-14
-6.91348e-14
-1.2645e-13
-2.34125e-13
-4.38832e-13
-8.31459e-13
-1.5876e-12
-3.0425e-12
-5.82599e-12
-1.11147e-11
-2.11117e-11
-4.03195e-11
-7.85398e-11
-1.61769e-10
-3.53638e-10
-8.48572e-10
1.9154e-07
3.8936e-06
9.39679e-06
1.25127e-05
1.16733e-05
9.14009e-06
5.63475e-06
2.73735e-06
1.08606e-06
4.60299e-07
2.12792e-07
9.89674e-08
4.36119e-08
1.83864e-08
7.65885e-09
3.15801e-09
1.2768e-09
5.04152e-10
1.9499e-10
7.41276e-11
2.79436e-11
1.07735e-11
4.76263e-12
3.03119e-12
3.00576e-12
3.39251e-12
3.24296e-12
2.55781e-12
1.75585e-12
2.24729e-12
3.6214e-12
5.03156e-12
9.81636e-12
1.48119e-11
3.20744e-11
6.57264e-11
6.33318e-10
5.01851e-10
-4.45886e-09
-2.03104e-08
1.62995e-08
4.05503e-08
-2.386e-07
-1.1625e-06
-4.84355e-06
-2.16432e-05
-5.81992e-05
-0.000118093
-0.000230902
-0.000585152
-0.00558138
-0.0269463
-0.0717812
-0.13765
-0.21625
-0.295561
-0.361761
-0.41671
-0.419097
-0.546343
-0.858484
-1.03562
-0.915187
-0.649292
-0.351543
-0.146486
-0.0494394
-0.0189431
-0.00808335
-0.00342743
-0.00136863
-0.000521673
-0.000194355
-7.04201e-05
-2.44445e-05
-8.00605e-06
-2.41463e-06
-6.21415e-07
-8.98732e-08
4.41829e-08
5.47426e-08
3.62121e-08
2.33768e-08
1.55835e-08
1.13047e-08
9.08965e-09
8.17596e-09
6.75584e-09
5.05748e-09
6.69413e-09
-6.50893e-09
-5.44635e-08
-9.78786e-08
-3.26432e-07
-9.84341e-07
-2.54743e-06
-1.07492e-05
-3.92531e-05
-6.38703e-05
-6.10325e-06
0.000206623
2.07392e-05
-0.00999502
-0.0400805
-0.071334
-0.0957145
-0.107271
-0.102296
-0.0861743
-0.0579763
-0.0229126
0.0173109
0.0658976
0.123565
0.18715
0.24961
0.30251
0.33898
0.35583
0.354099
0.338285
0.314865
0.290757
0.271849
0.261366
0.258741
0.259704
0.259078
0.252796
0.237047
0.215968
0.177107
0.119539
0.0519547
-0.0194385
-0.0910468
-0.154198
-0.190277
-0.196056
-0.35946
-0.538086
-1.69297e-18
-9.15585e-20
-3.05012e-19
2.65766e-19
2.14039e-18
5.89334e-18
1.14367e-17
1.78244e-17
2.37521e-17
2.79848e-17
2.9753e-17
2.90566e-17
2.6258e-17
2.16383e-17
1.50467e-17
5.85495e-18
-5.9402e-18
-2.24975e-17
-4.66864e-17
-7.98979e-17
-1.21472e-16
-1.67137e-16
-2.05378e-16
-2.01866e-16
-1.54834e-16
-7.51037e-17
-2.26497e-17
1.50217e-17
6.39795e-17
1.06006e-16
6.78119e-17
-3.26642e-16
-1.10717e-15
-1.75238e-15
-1.9191e-15
-1.72379e-15
-1.31362e-15
-3.56983e-16
3.77328e-16
5.7012e-16
2.38674e-16
1.03398e-16
4.72382e-17
2.20157e-17
7.88129e-18
-2.2602e-18
-9.62396e-18
-1.90785e-17
-3.7708e-17
-7.55382e-17
-1.52806e-16
-3.11205e-16
-6.32623e-16
-1.4182e-15
-3.836e-15
-1.91859e-14
-2.4602e-13
-3.33771e-12
-1.00367e-10
-4.31005e-10
3.52093e-08
1.73442e-06
5.93906e-06
9.42447e-06
1.13093e-05
1.10931e-05
9.3782e-06
6.2603e-06
3.32525e-06
1.4223e-06
5.88948e-07
2.68904e-07
1.26131e-07
5.74028e-08
2.53532e-08
1.09895e-08
4.67211e-09
1.9393e-09
7.83007e-10
3.08233e-10
1.19459e-10
4.69152e-11
2.03796e-11
1.2154e-11
8.58669e-12
6.86197e-12
5.86835e-12
5.2355e-12
5.71105e-12
1.19092e-11
2.55368e-11
4.56594e-11
5.18911e-11
7.78237e-11
3.62582e-10
1.77839e-09
3.65198e-12
-1.2438e-08
6.24898e-09
1.3187e-07
-1.78714e-08
-9.12762e-07
-3.89529e-06
-1.98228e-05
-5.7371e-05
-0.000122665
-0.000241955
-0.000568116
-0.00683041
-0.0293828
-0.0756455
-0.140688
-0.215804
-0.288604
-0.343908
-0.381868
-0.402107
-0.408625
-0.401509
-0.500979
-0.738249
-0.885654
-0.884655
-0.746624
-0.520864
-0.294511
-0.13513
-0.0525579
-0.0216051
-0.00946935
-0.00411552
-0.00168162
-0.000648106
-0.000241304
-8.62494e-05
-2.85654e-05
-8.15974e-06
-1.59573e-06
1.36695e-07
5.91563e-07
4.66888e-07
3.14544e-07
2.09727e-07
1.47981e-07
1.13717e-07
9.5424e-08
7.75577e-08
3.93018e-08
-3.5097e-08
-1.8204e-07
-3.25871e-07
-3.39703e-07
-1.24372e-06
-3.32387e-06
-1.3836e-05
-4.77668e-05
-0.000113657
-9.097e-05
8.8856e-05
-0.00119685
-0.0155319
-0.0498167
-0.0978671
-0.129921
-0.143018
-0.135597
-0.11039
-0.0698776
-0.0206914
0.0309828
0.0842827
0.144834
0.212602
0.282542
0.346201
0.394959
0.42343
0.431096
0.421746
0.401754
0.376455
0.350912
0.329655
0.313859
0.300486
0.283155
0.255576
0.2144
0.158236
0.0856847
0.00402549
-0.0796968
-0.161357
-0.24073
-0.318607
-0.390061
-0.433853
-0.410882
-0.497631
-0.578619
-1.70213e-19
3.38408e-20
-3.15291e-19
-1.07377e-18
-2.26371e-18
-3.73454e-18
-5.09904e-18
-5.93439e-18
-6.13665e-18
-5.73965e-18
-4.85075e-18
-3.53978e-18
-1.71215e-18
8.63243e-19
4.42433e-18
9.05781e-18
1.45918e-17
2.0557e-17
2.62411e-17
3.10833e-17
3.35956e-17
3.02027e-17
1.80768e-17
-1.38146e-17
-3.23907e-17
-3.40407e-17
-4.62357e-17
-7.92381e-17
-1.2295e-16
-1.37244e-16
-1.62056e-16
-2.49385e-16
-2.71058e-16
-7.24401e-17
2.32356e-16
4.71204e-16
5.0087e-16
2.29694e-16
-5.19239e-17
-9.75005e-17
-4.87467e-17
-2.16384e-17
-1.0675e-17
-5.06203e-18
-1.56794e-18
1.15511e-18
3.03834e-18
5.79884e-18
1.13639e-17
2.29636e-17
4.75761e-17
1.0089e-16
2.19006e-16
4.51804e-16
5.44024e-16
-2.69166e-15
-7.63859e-14
-1.33758e-12
-1.20786e-11
-2.34098e-10
-1.09388e-09
1.91783e-08
6.4124e-07
2.94521e-06
6.54424e-06
9.73759e-06
1.16745e-05
1.28107e-05
1.05775e-05
6.95467e-06
3.67685e-06
1.62266e-06
7.34932e-07
3.58401e-07
1.7545e-07
8.33008e-08
3.82873e-08
1.71281e-08
7.44254e-09
3.11286e-09
1.23536e-09
4.55038e-10
1.47758e-10
2.95996e-11
-2.91844e-11
-3.70615e-11
-3.39583e-11
-2.914e-11
-1.9724e-11
-2.18892e-13
5.57594e-11
1.10026e-10
7.76667e-11
2.08236e-10
1.76363e-09
2.91313e-09
-3.60674e-09
-7.68977e-09
2.16875e-07
3.39942e-07
-4.21256e-07
-3.13815e-06
-1.64629e-05
-5.76643e-05
-0.000121836
-0.000278477
-0.000589768
-0.00858975
-0.0338958
-0.0807537
-0.146588
-0.217978
-0.285911
-0.333128
-0.360057
-0.358308
-0.352716
-0.347962
-0.334288
-0.327848
-0.400056
-0.561824
-0.726273
-0.806684
-0.775051
-0.654507
-0.477676
-0.288997
-0.144012
-0.0604598
-0.0251041
-0.0110455
-0.00487746
-0.00202898
-0.000783585
-0.000285385
-9.53796e-05
-2.47951e-05
-9.74489e-07
3.97366e-06
4.30897e-06
3.23768e-06
2.27108e-06
1.62784e-06
1.22352e-06
9.48104e-07
6.74578e-07
3.66279e-07
-4.2591e-08
-7.03611e-07
-6.29066e-07
-8.98878e-07
-4.78435e-06
-1.39486e-05
-6.59961e-05
-0.000142976
-0.000190702
-4.06145e-05
-0.00315075
-0.0232355
-0.0659195
-0.118485
-0.164366
-0.177461
-0.1654
-0.128262
-0.0716
-0.00317288
0.0680061
0.135008
0.198399
0.26466
0.33191
0.393613
0.441666
0.46815
0.471089
0.46451
0.445806
0.419849
0.392489
0.366535
0.341869
0.315584
0.282148
0.234438
0.166769
0.0782612
-0.0260803
-0.13594
-0.23956
-0.329396
-0.404998
-0.470433
-0.52849
-0.574612
-0.582118
-0.5262
-0.566062
-0.569702
1.47915e-18
1.73038e-19
4.29383e-19
7.49112e-19
1.09661e-18
1.36631e-18
1.46173e-18
1.36049e-18
1.1138e-18
7.43017e-19
2.38497e-19
-4.38275e-19
-1.32319e-18
-2.40192e-18
-3.59307e-18
-4.76272e-18
-5.74105e-18
-6.31653e-18
-6.21084e-18
-5.09791e-18
-2.07241e-18
3.53065e-18
1.09454e-17
1.63445e-17
1.96056e-17
1.7325e-17
4.65808e-18
-1.5795e-17
-2.90465e-17
-1.96962e-17
-6.68543e-18
3.72679e-17
1.32931e-16
1.78497e-16
9.905e-17
-3.62086e-17
-1.16657e-16
-7.79143e-17
-9.44632e-19
2.02091e-17
1.24999e-17
5.69774e-18
2.73162e-18
1.30122e-18
3.57654e-19
-4.47156e-19
-1.08617e-18
-2.03567e-18
-3.92489e-18
-7.83527e-18
-1.60903e-17
-3.33597e-17
-7.41033e-17
-1.3239e-16
-2.34178e-17
3.3809e-17
-8.95965e-15
-3.05292e-13
-3.81858e-12
-3.45434e-11
1.24503e-11
-1.135e-09
1.64264e-08
1.99289e-07
1.46071e-06
4.41617e-06
8.54596e-06
1.24298e-05
1.65581e-05
1.52949e-05
1.20418e-05
7.87878e-06
4.28345e-06
2.07828e-06
1.04135e-06
5.34893e-07
2.68702e-07
1.29788e-07
6.02817e-08
2.70289e-08
1.16459e-08
4.62273e-09
1.40817e-09
3.42473e-11
-3.83536e-10
-5.20768e-10
-4.95535e-10
-4.27581e-10
-3.23501e-10
-1.69773e-10
2.09509e-11
-6.82438e-11
-1.5549e-11
1.43501e-09
5.04776e-09
3.43308e-09
-4.82761e-09
2.8542e-07
7.58044e-07
3.34924e-07
-2.143e-06
-1.26292e-05
-5.4014e-05
-0.000125527
-0.000268053
-0.001158
-0.0108516
-0.039151
-0.0868534
-0.150868
-0.219635
-0.27575
-0.318885
-0.321311
-0.308615
-0.285808
-0.260604
-0.240646
-0.228908
-0.218547
-0.215873
-0.263454
-0.385976
-0.565352
-0.690628
-0.74665
-0.725575
-0.632942
-0.481384
-0.305533
-0.160791
-0.0709599
-0.0294793
-0.012929
-0.00577505
-0.00242987
-0.000924855
-0.000313046
-7.83324e-05
5.6624e-06
2.40069e-05
2.523e-05
1.99421e-05
1.48559e-05
1.11505e-05
8.30929e-06
5.73021e-06
3.22182e-06
8.17478e-07
2.13501e-07
1.6956e-06
-2.90211e-06
-1.87217e-05
-7.61586e-05
-0.000184708
-0.000323417
-0.000201
-0.00592483
-0.0330811
-0.0867651
-0.146534
-0.194572
-0.207117
-0.189993
-0.139429
-0.0614203
0.0278273
0.118556
0.202449
0.274432
0.33688
0.396466
0.449264
0.477832
0.483444
0.481344
0.471132
0.449952
0.420702
0.389885
0.360406
0.331349
0.297867
0.252011
0.187087
0.0989342
-0.0118168
-0.138551
-0.269452
-0.391014
-0.493
-0.571872
-0.629873
-0.670497
-0.691708
-0.677134
-0.6213
-0.558397
-0.570412
-0.509816
-7.59237e-19
-1.9786e-19
-2.52988e-19
-3.1918e-19
-3.66742e-19
-3.68458e-19
-3.16117e-19
-2.20804e-19
-9.25943e-20
7.31549e-20
2.81003e-19
5.29747e-19
8.00768e-19
1.05702e-18
1.24528e-18
1.29406e-18
1.10841e-18
5.81337e-19
-3.64845e-19
-1.76463e-18
-3.49824e-18
-4.72721e-18
-4.0876e-18
-1.36025e-18
2.02698e-18
5.8194e-18
8.35045e-18
1.08455e-17
2.26414e-17
4.31682e-17
6.46594e-17
7.20997e-17
4.2714e-17
-9.74797e-18
-3.10555e-17
-8.81545e-18
1.96256e-17
2.01387e-17
3.51341e-18
-4.2493e-18
-3.5403e-18
-1.72121e-18
-8.00791e-19
-3.8207e-19
-1.15616e-19
1.19956e-19
3.26546e-19
6.20518e-19
1.18405e-18
2.32562e-18
4.69916e-18
9.30913e-18
2.10711e-17
3.46818e-17
-1.54008e-17
9.69769e-17
-5.67802e-16
-2.00063e-14
-5.89036e-13
-7.15712e-12
6.97589e-12
2.43893e-10
7.41315e-10
1.80425e-08
1.66306e-07
1.07367e-06
4.04467e-06
9.2096e-06
1.56074e-05
2.0974e-05
2.30488e-05
2.07834e-05
1.60817e-05
1.04903e-05
5.87164e-06
3.0101e-06
1.55687e-06
8.14957e-07
4.16672e-07
2.03257e-07
9.30474e-08
3.97796e-08
1.53764e-08
4.61582e-09
-9.84001e-10
-3.65058e-09
-4.00312e-09
-3.50941e-09
-2.68309e-09
-2.00118e-09
-2.08039e-09
-2.01646e-09
6.25647e-10
6.60761e-09
1.05743e-08
5.43682e-09
3.69274e-07
1.21916e-06
1.3321e-06
-8.88706e-07
-9.49991e-06
-4.80344e-05
-0.000129715
-0.000260865
-0.00203813
-0.0134538
-0.0438918
-0.0926959
-0.152447
-0.218441
-0.262946
-0.292874
-0.283561
-0.258108
-0.221419
-0.182562
-0.148899
-0.125317
-0.112414
-0.109352
-0.106731
-0.11043
-0.144858
-0.24
-0.37939
-0.543365
-0.660137
-0.719556
-0.730117
-0.651552
-0.505585
-0.332513
-0.184032
-0.0852942
-0.035078
-0.0151871
-0.00683073
-0.0029015
-0.00105454
-0.000260072
4.28062e-05
0.00011995
0.000130283
0.000109869
8.80767e-05
6.57505e-05
4.51851e-05
2.98809e-05
2.39703e-05
2.28595e-05
1.19425e-05
-2.30452e-05
-9.78513e-05
-0.000254481
-0.00037729
-0.000581456
-0.0105897
-0.0457226
-0.110978
-0.180075
-0.227397
-0.235998
-0.209962
-0.141403
-0.0426862
0.0676559
0.172931
0.266823
0.345183
0.408497
0.457136
0.47902
0.484757
0.482783
0.473961
0.455196
0.421538
0.379383
0.337971
0.300144
0.263795
0.223306
0.171315
0.100943
0.00799659
-0.107207
-0.23929
-0.378421
-0.511853
-0.626959
-0.715057
-0.77298
-0.801379
-0.798628
-0.756007
-0.682771
-0.591937
-0.538174
-0.557845
-0.248457
9.87543e-20
1.08867e-19
1.0077e-19
1.01696e-19
9.61701e-20
7.79086e-20
4.73188e-20
7.28083e-21
-4.1434e-20
-9.89467e-20
-1.62257e-19
-2.24011e-19
-2.69724e-19
-2.78645e-19
-2.24683e-19
-8.22482e-20
1.61447e-19
4.93677e-19
8.70206e-19
1.17035e-18
1.10465e-18
4.81908e-19
-4.44177e-19
-1.1416e-18
-1.29567e-18
-4.58797e-19
1.34986e-18
4.06177e-18
7.08161e-18
7.02163e-18
1.36185e-18
-8.90328e-18
-1.38027e-17
-5.08113e-18
5.61626e-18
4.75965e-18
-2.16635e-18
-4.48118e-18
-1.55356e-18
7.78262e-19
9.79909e-19
5.4282e-19
2.53492e-19
1.19819e-19
4.30583e-20
-2.24684e-20
-8.32708e-20
-1.6515e-19
-3.14129e-19
-6.07397e-19
-1.21068e-18
-2.27809e-18
-5.48316e-18
-7.49748e-18
1.27264e-18
6.98386e-18
-8.49917e-17
-1.67435e-14
-3.15108e-13
6.40927e-13
-2.13814e-12
1.55683e-10
9.35518e-10
3.64336e-09
3.25392e-08
2.16296e-07
1.31541e-06
5.08634e-06
1.2021e-05
2.16093e-05
2.99692e-05
3.78981e-05
3.66177e-05
3.09609e-05
2.32714e-05
1.52884e-05
8.76247e-06
4.53271e-06
2.33493e-06
1.21024e-06
6.21837e-07
3.03013e-07
1.28442e-07
3.89155e-08
-5.48167e-10
-1.59953e-08
-2.18067e-08
-2.17144e-08
-2.01158e-08
-1.76856e-08
-1.38775e-08
-6.18497e-09
7.41042e-09
2.05911e-08
2.92469e-08
4.92044e-07
1.73467e-06
2.41003e-06
5.88094e-07
-8.33627e-06
-4.16014e-05
-0.000134007
-0.000266493
-0.00288185
-0.0164117
-0.0478886
-0.097398
-0.153845
-0.208266
-0.251999
-0.257852
-0.240735
-0.206011
-0.163738
-0.121189
-0.0849262
-0.0581315
-0.0408703
-0.0320363
-0.0305053
-0.0326496
-0.0347561
-0.0371632
-0.0553895
-0.113233
-0.224292
-0.377516
-0.532592
-0.665019
-0.742397
-0.771179
-0.686451
-0.532408
-0.362294
-0.210445
-0.103515
-0.0431402
-0.0183915
-0.00816871
-0.00340658
-0.00100137
0.000205762
0.000585926
0.000653904
0.000559524
0.00043881
0.000348949
0.000269416
0.000186681
0.00010483
-2.1284e-06
-0.000151404
-0.00039602
-0.000599664
-0.00173781
-0.0178227
-0.0638207
-0.138053
-0.216425
-0.261856
-0.263212
-0.23022
-0.134698
-0.0171763
0.107828
0.222097
0.316772
0.390814
0.44388
0.476348
0.482028
0.479359
0.470638
0.450266
0.41121
0.357873
0.300466
0.245557
0.195809
0.1498
0.102943
0.049114
-0.0175897
-0.101345
-0.203489
-0.32196
-0.451067
-0.582833
-0.707705
-0.813248
-0.884556
-0.910382
-0.890275
-0.826178
-0.730377
-0.614711
-0.509862
-0.495711
-0.500216
0.43636
3.72324e-20
-3.98651e-20
-3.07304e-20
-2.6054e-20
-2.01334e-20
-1.12893e-20
2.35389e-22
1.3757e-20
2.87911e-20
4.42148e-20
5.73744e-20
6.35318e-20
5.57428e-20
2.70303e-20
-2.64202e-20
-1.01227e-19
-1.8541e-19
-2.59408e-19
-2.89438e-19
-2.19024e-19
-4.16936e-20
9.32842e-20
-1.03315e-20
-4.14558e-19
-9.97189e-19
-1.57117e-18
-2.10604e-18
-2.8304e-18
-3.88865e-18
-4.61452e-18
-3.9506e-18
-1.33032e-18
1.68853e-18
1.70606e-18
-8.15089e-19
-1.50463e-18
-8.06851e-20
8.80918e-19
5.10163e-19
-9.62101e-20
-2.50906e-19
-1.66151e-19
-8.16122e-20
-3.84136e-20
-1.57802e-20
1.64036e-21
1.79938e-20
3.88475e-20
7.46101e-20
1.43243e-19
2.84385e-19
5.15901e-19
1.38806e-18
1.28357e-18
1.24758e-18
-1.11602e-17
4.62832e-17
7.21176e-17
-2.2357e-14
-1.43973e-12
-8.79555e-12
9.64339e-12
4.80755e-10
5.74279e-09
7.55551e-09
3.4541e-08
2.14875e-07
1.5741e-06
6.35841e-06
1.58127e-05
2.86007e-05
4.08998e-05
5.13208e-05
5.4733e-05
5.08394e-05
4.26626e-05
3.24566e-05
2.1923e-05
1.31745e-05
7.04674e-06
3.416e-06
1.62814e-06
7.73298e-07
3.56159e-07
1.27216e-07
-1.23865e-08
-7.45628e-08
-8.54673e-08
-7.73581e-08
-5.89284e-08
-3.37379e-08
-4.4291e-10
3.76408e-08
7.86863e-08
7.02519e-07
2.35173e-06
3.55412e-06
2.08684e-06
-6.61079e-06
-4.05764e-05
-0.000138634
-0.000303169
-0.003816
-0.0192664
-0.0524201
-0.0996469
-0.15455
-0.197
-0.230582
-0.223456
-0.197007
-0.157622
-0.11403
-0.0747595
-0.0443454
-0.0233689
-0.0118491
-0.00663852
-0.00392032
-0.00279831
-0.00263632
-0.0027713
-0.00186926
-0.00240525
-0.00570919
-0.0335833
-0.109779
-0.238019
-0.408561
-0.588202
-0.72737
-0.851738
-0.820675
-0.718292
-0.566259
-0.399302
-0.243093
-0.127993
-0.0559447
-0.0224901
-0.00888865
-0.00309996
-5.23413e-05
0.00167223
0.0020112
0.00183265
0.00139573
0.000934578
0.000533629
0.000163796
-0.00024361
-0.000705233
-0.00113132
-0.00544752
-0.0290018
-0.0882256
-0.170562
-0.253016
-0.294397
-0.287854
-0.238096
-0.13148
0.011184
0.142714
0.25718
0.34389
0.401917
0.442119
0.4553
0.454238
0.446721
0.425022
0.386116
0.33272
0.269834
0.203829
0.140139
0.0815242
0.0276713
-0.024077
-0.0775809
-0.1368
-0.205017
-0.284528
-0.376689
-0.481712
-0.597389
-0.718407
-0.834804
-0.930385
-0.960097
-0.947204
-0.892629
-0.778597
-0.635819
-0.49363
-0.402338
-0.455409
-0.339972
1.65488
-1.81445e-20
1.0253e-20
7.49795e-21
5.30204e-21
2.8415e-21
-2.49275e-22
-3.84044e-21
-7.66088e-21
-1.13404e-20
-1.41032e-20
-1.45334e-20
-1.06927e-20
-9.03205e-22
1.48949e-20
3.43331e-20
5.28776e-20
6.5216e-20
6.59137e-20
4.92905e-20
1.85976e-20
4.73392e-21
2.99908e-20
5.84273e-20
1.87453e-20
-1.26224e-19
-3.49575e-19
-5.74554e-19
-6.99496e-19
-5.78926e-19
-1.50245e-19
2.56008e-19
1.80416e-19
-3.25602e-19
-4.99344e-19
4.55748e-20
3.87531e-19
1.47641e-19
-1.44329e-19
-1.42565e-19
-4.68743e-21
5.78089e-20
4.80119e-20
2.59003e-20
1.24051e-20
5.51763e-21
9.06383e-22
-3.26803e-21
-8.32027e-21
-1.64677e-20
-3.18713e-20
-6.3366e-20
-1.1628e-19
-3.42242e-19
-1.83091e-19
-6.70299e-19
8.21539e-18
-7.3522e-17
7.89974e-17
2.19033e-15
-7.09234e-14
-2.67147e-12
-2.53273e-11
5.43694e-11
1.5158e-09
1.10683e-08
4.78892e-09
-1.21474e-07
-4.33208e-08
1.22706e-06
6.39626e-06
1.7424e-05
3.198e-05
4.90786e-05
6.15972e-05
7.05177e-05
6.89429e-05
6.31304e-05
5.31297e-05
4.08356e-05
2.84185e-05
1.76687e-05
9.81464e-06
4.74929e-06
1.85231e-06
6.45656e-07
1.73462e-07
-6.09459e-08
-1.37881e-07
-1.28514e-07
-9.61376e-08
-2.35738e-08
6.39454e-08
2.38202e-07
1.05074e-06
3.22653e-06
4.76732e-06
3.40916e-06
-5.36507e-06
-4.19961e-05
-0.000144644
-0.000375202
-0.00506889
-0.022122
-0.0567459
-0.101464
-0.151247
-0.18657
-0.205259
-0.189704
-0.155455
-0.113194
-0.0730836
-0.0412833
-0.0205877
-0.00951954
-0.00492566
-0.00257333
-0.0011571
-0.000457705
-0.000173955
5.12728e-05
0.000601897
0.00193046
0.00411596
0.00810427
0.0137697
0.00539591
-0.0466956
-0.160421
-0.334546
-0.535601
-0.744264
-0.914898
-0.951497
-0.896906
-0.77676
-0.611196
-0.435566
-0.27361
-0.150454
-0.0705111
-0.0228373
-0.00524652
0.000606681
0.00278223
0.00301273
0.0025652
0.00172083
0.000755618
-0.000276172
-0.00131676
-0.00251373
-0.0122148
-0.0462921
-0.118513
-0.209246
-0.288991
-0.323671
-0.308574
-0.239784
-0.116137
0.0316404
0.171335
0.274717
0.341741
0.387176
0.396194
0.390296
0.375409
0.353608
0.324772
0.283777
0.231502
0.171721
0.109375
0.048637
-0.00821359
-0.0610193
-0.111177
-0.160596
-0.210874
-0.263323
-0.319778
-0.383399
-0.458668
-0.549992
-0.658579
-0.778546
-0.893267
-0.960057
-0.958073
-0.929842
-0.830505
-0.670975
-0.499629
-0.351222
-0.299394
-0.404537
-0.0546629
3.00133
3.65961e-21
-1.14511e-21
-1.33149e-21
-6.58772e-22
1.21379e-22
1.01756e-21
1.95936e-21
2.82933e-21
3.42426e-21
3.36679e-21
2.14315e-21
-6.37589e-22
-4.84571e-21
-9.6155e-21
-1.36156e-20
-1.56159e-20
-1.49676e-20
-1.16789e-20
-6.69685e-21
-2.82793e-21
-9.3982e-22
8.87998e-21
3.7453e-20
8.01035e-20
1.20163e-19
1.48902e-19
1.7378e-19
1.97632e-19
1.962e-19
1.32864e-19
3.53904e-20
8.67322e-21
9.22669e-20
1.47368e-19
3.10786e-20
-8.58261e-20
-6.05598e-20
1.47162e-20
3.48164e-20
8.13478e-21
-1.17263e-20
-1.30278e-20
-7.9744e-21
-3.99424e-21
-1.86139e-21
-5.99095e-22
4.50231e-22
1.65185e-21
3.47738e-21
6.9308e-21
1.36919e-20
2.77913e-20
7.693e-20
5.84714e-20
-2.57344e-20
-1.35627e-18
1.89614e-17
-1.53376e-16
8.67074e-16
8.16308e-15
-6.98655e-14
-2.66142e-12
-3.77082e-11
8.82138e-11
3.86991e-09
7.53856e-09
-4.92205e-08
-2.28262e-07
-9.93335e-07
-4.01485e-07
3.87525e-06
1.41065e-05
3.02582e-05
4.83661e-05
6.44224e-05
7.39318e-05
7.64243e-05
7.3869e-05
6.7299e-05
5.60259e-05
4.22566e-05
2.91361e-05
1.81179e-05
9.86269e-06
4.53533e-06
1.52804e-06
1.19259e-07
-1.46724e-07
-1.31005e-07
-3.95559e-08
1.13508e-07
5.92524e-07
1.77467e-06
4.25622e-06
6.03659e-06
4.39438e-06
-5.46372e-06
-4.61584e-05
-0.000151325
-0.000563288
-0.00652618
-0.0254508
-0.0605801
-0.103702
-0.143532
-0.176573
-0.173774
-0.151614
-0.114985
-0.0755897
-0.041997
-0.0202249
-0.00909311
-0.00461222
-0.00246126
-0.00115831
-0.000465349
-0.000172889
-3.95071e-05
8.42365e-05
0.000333384
0.0010165
0.00249524
0.00538214
0.0111516
0.0209317
0.031257
0.0246189
-0.028384
-0.14748
-0.331786
-0.558538
-0.802812
-0.972824
-1.06992
-1.04275
-0.955453
-0.798895
-0.606623
-0.416105
-0.254126
-0.132389
-0.0552969
-0.0138894
0.00176213
0.0036385
0.00301946
0.00175122
-0.000262456
-0.00253822
-0.00621873
-0.0238814
-0.0722509
-0.155583
-0.254452
-0.32546
-0.349786
-0.325364
-0.236264
-0.0937906
0.0562808
0.191427
0.27206
0.325832
0.32994
0.317208
0.295628
0.266695
0.233961
0.200972
0.166969
0.126888
0.0816756
0.0343341
-0.0122618
-0.0564404
-0.097781
-0.136692
-0.174091
-0.211082
-0.248516
-0.28711
-0.328669
-0.377757
-0.442058
-0.529815
-0.643935
-0.774805
-0.894436
-0.952202
-0.941192
-0.867877
-0.720295
-0.530435
-0.352484
-0.215447
-0.219071
-0.316808
0.316842
3.31578
-4.15378e-22
-4.86232e-22
2.45178e-23
-9.80821e-23
-2.92251e-22
-5.05465e-22
-7.03347e-22
-8.34164e-22
-8.05358e-22
-4.84098e-22
2.31889e-22
1.2984e-21
2.46703e-21
3.37361e-21
3.73067e-21
3.46825e-21
2.72807e-21
1.7152e-21
6.1243e-22
-4.09765e-22
-1.6413e-21
-2.39617e-21
9.55007e-22
1.16417e-20
2.73375e-20
4.08677e-20
4.48891e-20
3.54165e-20
1.5347e-20
-6.58259e-22
-1.16982e-21
-2.32812e-21
-2.35848e-20
-4.16011e-20
-1.76827e-20
1.62923e-20
1.88826e-20
1.80288e-21
-7.34436e-21
-3.40336e-21
1.99551e-21
3.31905e-21
2.35893e-21
1.26459e-21
6.10874e-22
2.50067e-22
-1.64725e-23
-3.01656e-22
-7.11374e-22
-1.49889e-21
-2.8782e-21
-7.1233e-21
-1.45878e-20
-3.27538e-20
1.42574e-19
-2.74384e-19
-2.26026e-18
-1.20814e-17
-2.3764e-18
2.50714e-15
2.0783e-14
-6.69854e-13
-1.00506e-11
-5.20237e-11
4.08712e-11
4.9859e-09
-2.40766e-10
-9.71398e-08
-6.35944e-07
-2.16032e-06
-4.80902e-06
-2.87389e-06
5.35869e-06
2.04476e-05
3.90628e-05
5.74409e-05
6.93063e-05
7.32467e-05
7.27134e-05
6.8868e-05
5.90272e-05
4.60518e-05
3.25938e-05
2.06699e-05
1.14132e-05
5.18805e-06
1.6982e-06
2.58575e-07
1.18092e-07
5.07274e-07
1.27782e-06
3.14965e-06
5.66882e-06
7.30959e-06
5.13563e-06
-7.37227e-06
-5.55661e-05
-0.000178245
-0.00114203
-0.0083253
-0.0295442
-0.0632469
-0.106595
-0.136526
-0.158396
-0.148484
-0.11949
-0.0820258
-0.0462088
-0.0215991
-0.00898035
-0.00435053
-0.00236175
-0.00124182
-0.000582586
-0.000257497
-9.7361e-05
-8.9557e-06
5.29252e-05
0.000130958
0.000316131
0.000873931
0.00239667
0.00562999
0.0122017
0.0241872
0.0405699
0.0502756
0.029953
-0.0453287
-0.190198
-0.397178
-0.642833
-0.879675
-1.04573
-1.10429
-1.0908
-1.02
-0.860677
-0.656516
-0.448293
-0.268859
-0.135536
-0.0523228
-0.01176
0.001159
0.00193407
-0.000886936
-0.00490838
-0.0154622
-0.0443651
-0.109827
-0.20238
-0.299927
-0.359593
-0.367194
-0.331889
-0.225181
-0.0702201
0.0833101
0.195967
0.270491
0.277071
0.261644
0.230916
0.193641
0.158346
0.12435
0.0941589
0.0680626
0.043236
0.0162771
-0.0112855
-0.0386014
-0.0652539
-0.0896155
-0.112115
-0.133744
-0.155365
-0.177597
-0.200917
-0.226122
-0.255686
-0.295773
-0.35681
-0.449908
-0.578079
-0.726013
-0.855575
-0.916389
-0.884101
-0.764162
-0.582254
-0.382944
-0.217756
-0.103449
-0.156892
-0.174679
0.794665
3.151
2.01229e-23
3.3029e-22
1.19327e-22
1.10484e-22
1.42484e-22
1.80027e-22
2.06213e-22
1.98504e-22
1.23569e-22
-4.82408e-23
-3.10671e-22
-6.01115e-22
-8.23131e-22
-9.02128e-22
-8.27682e-22
-6.48211e-22
-4.25305e-22
-1.84489e-22
5.56955e-23
1.72895e-22
-9.92282e-23
-1.24083e-21
-3.34894e-21
-5.58972e-21
-7.02579e-21
-7.66257e-21
-7.91883e-21
-7.33437e-21
-5.00077e-21
-1.86681e-21
-5.18441e-22
4.93634e-22
5.70307e-21
1.10329e-20
6.4819e-21
-2.44065e-21
-5.12924e-21
-1.73695e-21
1.25424e-21
1.04868e-21
-2.38218e-22
-7.92547e-22
-6.6657e-22
-3.88677e-22
-1.95038e-22
-8.92966e-23
-2.02118e-23
4.73973e-23
1.39488e-22
3.21201e-22
5.85229e-22
1.87184e-21
2.17651e-21
1.38027e-20
-7.28843e-20
4.17358e-19
-3.89104e-18
9.03127e-18
6.46791e-17
1.56534e-16
1.93252e-15
2.79715e-14
-1.10745e-13
-2.41939e-12
-7.09784e-11
-2.97709e-10
8.10363e-10
-1.55626e-08
-1.84041e-07
-1.14207e-06
-4.3833e-06
-1.1054e-05
-1.62131e-05
-1.31171e-05
-4.10758e-07
1.92742e-05
3.96939e-05
5.49423e-05
6.21553e-05
6.29501e-05
5.86204e-05
4.97875e-05
3.84661e-05
2.67788e-05
1.6528e-05
8.89645e-06
4.2139e-06
2.06864e-06
1.99856e-06
3.24674e-06
4.90068e-06
6.81534e-06
8.03136e-06
4.36747e-06
-1.38253e-05
-7.73375e-05
-0.000253504
-0.00212261
-0.0108399
-0.0338246
-0.0672917
-0.103807
-0.134056
-0.138259
-0.122533
-0.0901979
-0.0539238
-0.0257319
-0.00998507
-0.00427257
-0.00217298
-0.00115143
-0.00059926
-0.000314718
-0.000156853
-6.35473e-05
-1.04134e-05
2.09516e-05
5.29148e-05
0.000123054
0.0003212
0.000924933
0.00275896
0.00681131
0.0146381
0.0288013
0.0500106
0.0709691
0.0722802
0.0282094
-0.0812066
-0.258019
-0.483555
-0.72342
-0.930819
-1.05281
-1.07347
-1.03965
-0.924093
-0.73837
-0.527333
-0.330487
-0.175663
-0.0740806
-0.0219455
-0.00581415