/*--------------------------------*- C++ -*----------------------------------*\
| =========                 |                                                 |
| \\      /  F ield         | OpenFOAM: The Open Source CFD Toolbox           |
|  \\    /   O peration     | Version:  2506                                  |
|   \\  /    A nd           | Website:  www.openfoam.com                      |
|    \\/     M anipulation  |                                                 |
\*---------------------------------------------------------------------------*/
FoamFile
{
    version     2.0;
    format      ascii;
    arch        "LSB;label=32;scalar=64";
    class       volVectorField;
    location    "3";
    object      U;
}
// * * * * * * * * * * * * * * * * * * * * * * * * * * * * * * * * * * * * * //

dimensions      [0 1 -1 0 0 0 0];

internalField   nonuniform List<vector> 
4000
(
(0.0025963 -0.00108489 8.19408e-23)
(0.00338754 -0.000802999 0)
(0.0046051 -0.000365893 3.95037e-23)
(0.00545704 -0.000184611 3.28646e-23)
(0.0059517 -0.000112554 2.82418e-23)
(0.00628335 -7.16413e-05 0)
(0.00653051 -4.76027e-05 2.3023e-23)
(0.00672085 -3.36764e-05 2.17369e-23)
(0.00687188 -2.4995e-05 0)
(0.00699545 -1.91393e-05 0)
(0.00709887 -1.49716e-05 3.51205e-22)
(0.00718691 -1.18628e-05 -6.66731e-22)
(0.00726288 -9.43714e-06 3.1475e-22)
(0.00732917 -7.46596e-06 -3.62183e-22)
(0.00738761 -5.80818e-06 3.60854e-22)
(0.00743957 -4.37455e-06 2.42814e-23)
(0.00748617 -3.10791e-06 4.22374e-22)
(0.00752838 -1.97525e-06 -4.20921e-22)
(0.00756707 -9.63076e-07 2.87769e-23)
(0.00760306 -6.99827e-08 0)
(0.0076372 7.07151e-07 0)
(0.00767038 1.36107e-06 -3.4995e-23)
(0.00770356 1.87655e-06 -3.75049e-23)
(0.00773788 2.22399e-06 0)
(0.00777473 2.34748e-06 -4.33124e-23)
(0.0078159 2.15564e-06 -4.66761e-23)
(0.00786379 1.48044e-06 0)
(0.00792172 -1.40536e-08 0)
(0.00799413 -2.88857e-06 2.00517e-21)
(0.00809242 -8.74769e-06 -2.06016e-21)
(0.00823038 -2.89589e-05 0)
(0.00831139 -9.4199e-05 -5.25178e-21)
(0.00828484 -0.000219542 8.30106e-21)
(0.00817818 -0.000404239 -3.32132e-22)
(0.00803136 -0.000634604 -4.08624e-21)
(0.00786644 -0.000910705 6.10542e-20)
(0.00773457 -0.00123457 -8.17408e-22)
(0.0075728 -0.00168204 -1.33572e-20)
(0.00727521 -0.00224518 0)
(0.00691518 -0.00279546 5.0917e-21)
(0.00661784 -0.00326329 -5.15922e-21)
(0.00637861 -0.00365283 4.12232e-20)
(0.00618153 -0.00396844 0)
(0.00602524 -0.00420545 3.5166e-20)
(0.00590529 -0.00436336 -1.47139e-20)
(0.00581059 -0.004448 2.03389e-20)
(0.0057325 -0.00446382 0)
(0.00566684 -0.00442024 -1.93007e-20)
(0.00559593 -0.00433124 -2.0222e-20)
(0.00550202 -0.00420462 -1.49342e-20)
(0.00536256 -0.00404646 0)
(0.00518434 -0.00383839 0)
(0.004967 -0.00359246 -1.78583e-21)
(0.00470592 -0.00325704 1.38321e-20)
(0.00446653 -0.00282014 2.27292e-21)
(0.00433578 -0.00224125 -8.67078e-21)
(0.00440695 -0.00155857 -4.5089e-21)
(0.00479311 -0.000798622 1.06401e-21)
(0.00553515 -0.000117705 0)
(0.00645031 0.000336944 3.89494e-22)
(0.0073028 0.000569206 1.4133e-21)
(0.00804074 0.0006341 -7.99926e-22)
(0.00855782 0.00060373 -7.95831e-21)
(0.00892612 0.00053607 8.3917e-21)
(0.00916741 0.000468968 0)
(0.00932695 0.000412246 0)
(0.00943786 0.000366508 0)
(0.00951335 0.000331522 1.46763e-21)
(0.00956651 0.000305036 2.16117e-20)
(0.00960596 0.000284476 1.19478e-20)
(0.0096368 0.000267758 0)
(0.00966095 0.000253749 -1.05184e-20)
(0.00968016 0.000241575 1.04513e-20)
(0.00969588 0.000230487 1.08841e-21)
(0.00970901 0.000219997 -1.1268e-20)
(0.00972009 0.000209772 9.86233e-21)
(0.00972956 0.000199502 1.09208e-20)
(0.00973621 0.000189582 1.01933e-20)
(0.00974117 0.000179642 0)
(0.00974482 0.000169379 0)
(0.00974716 0.000158442 -2.53312e-22)
(0.00974411 0.000147882 -7.4179e-21)
(0.00973907 0.000136289 0)
(0.00972744 0.000124317 5.46342e-21)
(0.00971081 0.000110482 -4.26992e-21)
(0.00968177 9.46516e-05 0)
(0.00964151 7.35523e-05 0)
(0.00959392 4.26351e-05 3.36902e-23)
(0.00954725 -2.27671e-06 2.85717e-22)
(0.00952035 -5.96872e-05 -1.11481e-21)
(0.00952683 -0.000113824 8.11376e-23)
(0.00956978 -0.000151772 -8.90607e-23)
(0.00964403 -0.000155542 -3.81782e-22)
(0.00974805 -0.000121848 0)
(0.00985882 -5.92582e-05 8.74692e-21)
(0.00996005 2.74618e-05 9.43693e-21)
(0.0100417 0.000116839 1.01688e-20)
(0.0100907 0.000192536 7.04557e-22)
(0.0101084 0.000242594 1.13275e-20)
(0.0100947 0.000261145 1.2464e-20)
(0.0100521 0.000247904 -2.01206e-22)
(0.00999319 0.0002078 1.35839e-20)
(0.00992195 0.000148094 2.66585e-20)
(0.0098456 7.66684e-05 6.47754e-22)
(0.00976451 -1.13552e-06 1.28751e-20)
(0.0096741 -8.39047e-05 0)
(0.00956744 -0.000173623 -1.29233e-20)
(0.00943098 -0.000276459 -1.17522e-20)
(0.00925064 -0.000393716 -8.18973e-22)
(0.00901704 -0.000525569 0)
(0.00871788 -0.000663593 -1.0541e-20)
(0.00834698 -0.000786311 9.43027e-21)
(0.00793331 -0.000866885 0)
(0.00749566 -0.000859543 1.36261e-20)
(0.00711788 -0.000745142 2.34694e-21)
(0.00687571 -0.000504365 3.02245e-21)
(0.00688368 -0.000161894 0)
(0.00715829 0.000170883 -4.38501e-22)
(0.00757303 0.000415165 1.55782e-22)
(0.00804604 0.000550056 6.01468e-23)
(0.00845063 0.000588675 -2.03988e-22)
(0.00876911 0.000571616 8.33137e-21)
(0.0090009 0.000532522 -1.00645e-20)
(0.00917767 0.000485717 -6.93282e-22)
(0.00930364 0.000442042 -1.00086e-20)
(0.00939376 0.000404818 2.23821e-20)
(0.00946253 0.000372934 -1.15439e-20)
(0.00951508 0.000345754 1.28266e-20)
(0.00955477 0.000322918 -5.28013e-22)
(0.00958547 0.000303466 1.15997e-20)
(0.0096098 0.000286415 0)
(0.00962942 0.000270985 -1.28854e-20)
(0.00964549 0.000256527 2.03155e-21)
(0.00965821 0.000242785 -1.40846e-20)
(0.00966831 0.000229412 0)
(0.00967628 0.00021608 0)
(0.00968239 0.000202543 1.12586e-20)
(0.0096873 0.000188089 -1.03034e-20)
(0.00968764 0.000173563 0)
(0.00968594 0.000158168 0)
(0.00968373 0.000140476 -8.16927e-21)
(0.00967355 0.000121772 1.64209e-21)
(0.00966128 9.99892e-05 -7.39454e-21)
(0.00963919 7.461e-05 0)
(0.00960772 4.38141e-05 2.65321e-21)
(0.0095688 6.29944e-06 1.00116e-21)
(0.00952552 -4.30126e-05 -2.03432e-22)
(0.00949132 -0.000101949 -4.99538e-23)
(0.00948507 -0.00016069 0)
(0.009513 -0.000208534 1.03416e-21)
(0.00957445 -0.000228083 2.63447e-22)
(0.00966425 -0.000211504 -8.59143e-21)
(0.0097734 -0.000164202 1.54996e-21)
(0.00988162 -8.72602e-05 1.52751e-22)
(0.00997373 3.90847e-06 6.03663e-21)
(0.0100402 8.94575e-05 2.12079e-21)
(0.0100701 0.000152107 0)
(0.0100675 0.000187457 0)
(0.0100316 0.000189351 0)
(0.00996745 0.000157726 -2.03093e-20)
(0.00987791 9.76975e-05 2.5755e-21)
(0.00975654 2.33913e-05 9.52401e-21)
(0.00962591 -4.61308e-05 7.31861e-21)
(0.00934166 -0.00012374 0)
(0.0090712 -0.000205501 -9.00084e-21)
(0.00880032 -0.000273388 -1.3984e-20)
(0.00850388 -0.000301141 -2.72505e-22)
(0.00822865 -0.000279856 -1.72804e-21)
(0.00801598 -0.000210799 -3.84421e-21)
(0.00792636 -0.000106702 -1.16226e-21)
(0.00795099 -2.67033e-05 0)
(0.00797585 -8.94881e-07 -9.84192e-24)
(0.00797295 5.69551e-06 0)
(0.00796705 7.4512e-06 -6.21015e-24)
(0.00796666 7.30005e-06 -4.64556e-24)
(0.0079705 6.70151e-06 -1.73865e-22)
(0.00797555 6.26528e-06 1.72311e-22)
(0.007979 6.24872e-06 4.95152e-24)
(0.00797872 6.62638e-06 -4.42789e-24)
(0.00797308 7.15234e-06 -6.69356e-23)
(0.00796106 7.80305e-06 1.75938e-22)
(0.00794211 8.39595e-06 -1.00619e-22)
(0.00791635 9.34883e-06 0)
(0.00788443 1.06379e-05 6.2626e-24)
(0.00784662 1.18506e-05 -7.50317e-24)
(0.00780277 1.29876e-05 3.09853e-22)
(0.0077528 1.4127e-05 -2.90665e-22)
(0.00769629 1.53367e-05 3.95203e-22)
(0.0076324 1.67434e-05 -3.81791e-22)
(0.0075597 1.84603e-05 2.67032e-22)
(0.00747582 2.06439e-05 -2.3526e-22)
(0.00737757 2.35624e-05 1.88297e-23)
(0.00725965 2.77214e-05 2.10944e-23)
(0.00711325 3.4279e-05 0)
(0.0069228 4.60101e-05 2.66145e-23)
(0.00665627 6.99478e-05 3.01606e-23)
(0.00624105 0.000123898 3.3845e-22)
(0.00549661 0.000265728 -3.47188e-22)
(0.00410605 0.000695125 0)
(0.00309589 0.00117262 6.88414e-23)
(-2.69844e-05 -0.002171 -2.73595e-23)
(-4.4497e-05 -0.00193774 3.86244e-23)
(0.00078172 -0.00129892 -4.59391e-23)
(0.00157198 -0.000902566 1.80629e-22)
(0.00221447 -0.000649741 -4.26607e-22)
(0.00274607 -0.000483931 2.19101e-23)
(0.00319389 -0.000375667 1.98253e-22)
(0.00357224 -0.000302377 -7.62024e-23)
(0.00389431 -0.000250068 -4.91407e-23)
(0.00417134 -0.00021118 -4.80825e-23)
(0.00441179 -0.000181384 -7.13639e-23)
(0.00462209 -0.000157952 -4.3735e-22)
(0.00480709 -0.000139097 4.10984e-22)
(0.00497062 -0.000123648 -4.1293e-22)
(0.00511572 -0.000110816 7.88358e-22)
(0.00524483 -0.000100058 -9.61097e-22)
(0.00535993 -9.10188e-05 3.91121e-22)
(0.00546274 -8.34936e-05 -5.62991e-22)
(0.00555481 -7.73942e-05 -6.62453e-22)
(0.00563763 -7.27169e-05 9.92594e-22)
(0.00571266 -6.95194e-05 -7.25261e-23)
(0.00578144 -6.79195e-05 -1.33033e-21)
(0.00584562 -6.81208e-05 1.32806e-21)
(0.00590705 -7.04629e-05 1.39555e-21)
(0.00596797 -7.54871e-05 -1.42913e-21)
(0.00603117 -8.39877e-05 -5.02156e-23)
(0.00610016 -9.71435e-05 -1.85408e-21)
(0.00617957 -0.00011684 -4.2804e-23)
(0.00627518 -0.000146311 4.1707e-21)
(0.00639731 -0.000190666 2.77617e-22)
(0.00655982 -0.000262526 -2.34601e-21)
(0.0066962 -0.000401148 -2.80301e-21)
(0.00673489 -0.000618974 -8.822e-21)
(0.00667125 -0.000905725 -1.90986e-20)
(0.00653739 -0.00125625 -1.41479e-20)
(0.00636548 -0.00168213 -1.63029e-20)
(0.00619261 -0.00220068 3.05038e-21)
(0.00598944 -0.00284731 1.36551e-20)
(0.0056722 -0.00357222 -4.56114e-21)
(0.0053089 -0.00426934 -1.33701e-20)
(0.00501239 -0.00488643 -1.84334e-20)
(0.00477213 -0.00541396 -2.01532e-20)
(0.00457172 -0.00584302 0)
(0.00441046 -0.00616549 -4.03122e-20)
(0.00428093 -0.00638134 1.99494e-20)
(0.00416983 -0.00649603 -2.04873e-20)
(0.00406407 -0.00651558 2.00959e-20)
(0.00395324 -0.00645479 0)
(0.00381462 -0.00632718 1.46607e-21)
(0.00362843 -0.00613948 1.75546e-20)
(0.00337682 -0.00589806 -1.72444e-20)
(0.00305544 -0.00559432 1.97232e-21)
(0.00267404 -0.0052338 1.50564e-20)
(0.00221972 -0.00479892 -3.2114e-21)
(0.00176252 -0.00423607 1.36101e-20)
(0.00136411 -0.00350641 0)
(0.00113817 -0.0026354 4.65469e-21)
(0.00119131 -0.00161174 -2.02185e-21)
(0.00167755 -0.000540242 -1.30058e-22)
(0.00256166 0.000401958 -2.98195e-22)
(0.00370495 0.00108767 -1.91088e-21)
(0.00495989 0.0014895 -5.92573e-21)
(0.00605569 0.00162992 -7.65829e-21)
(0.0069641 0.00158783 -9.96252e-21)
(0.0076419 0.00147343 1.33786e-21)
(0.00813222 0.00133943 -1.29901e-21)
(0.00848442 0.0012128 0)
(0.00873018 0.00110685 0)
(0.0089016 0.00102262 -2.47508e-20)
(0.0090231 0.000956372 1.20353e-20)
(0.00911144 0.00090336 1.59297e-21)
(0.0091762 0.000859803 -1.54039e-20)
(0.00922428 0.000822376 -1.06218e-20)
(0.00926078 0.000788415 -1.44571e-20)
(0.00928922 0.000756089 8.005e-22)
(0.00931165 0.000724125 7.73752e-22)
(0.00932968 0.000691438 1.26311e-20)
(0.00934189 0.000658534 -1.13524e-20)
(0.00934995 0.000624362 -6.69044e-22)
(0.00935473 0.000588071 -9.7695e-21)
(0.0093571 0.000548808 8.99613e-21)
(0.00935184 0.000507603 0)
(0.00934455 0.000461097 0)
(0.00933139 0.000408699 0)
(0.00931774 0.000346091 4.62871e-21)
(0.00930239 0.00026949 -1.23483e-22)
(0.00929969 0.000173563 6.68794e-23)
(0.00932307 5.88546e-05 -6.97141e-23)
(0.00938193 -6.86399e-05 -1.19934e-22)
(0.00949037 -0.000185737 2.71228e-21)
(0.0096365 -0.000262448 -2.78586e-22)
(0.00981059 -0.000279296 -6.33273e-24)
(0.00998901 -0.000236819 5.94451e-21)
(0.0101565 -0.000136493 -7.38394e-21)
(0.0102934 2.69663e-06 8.28513e-21)
(0.0103906 0.00015566 -9.04492e-21)
(0.0104455 0.000297513 9.10652e-21)
(0.0104585 0.000407233 1.04265e-20)
(0.010433 0.000471647 -1.14626e-20)
(0.0103777 0.000486519 -1.17022e-20)
(0.0103054 0.000455658 0)
(0.0102234 0.000388767 1.191e-20)
(0.010134 0.000297402 -1.29661e-20)
(0.0100383 0.000191924 3.91142e-22)
(0.00992952 7.83891e-05 -1.44592e-21)
(0.00979678 -4.27832e-05 0)
(0.00962611 -0.000175097 2.4458e-20)
(0.00940152 -0.000323776 2.44957e-20)
(0.00911001 -0.000491543 1.06717e-20)
(0.00874444 -0.00067305 9.3497e-21)
(0.00830044 -0.000850894 1.074e-20)
(0.0077766 -0.000999981 -1.83734e-20)
(0.00720677 -0.00109643 5.25156e-22)
(0.00660012 -0.00107259 -7.16998e-21)
(0.00602545 -0.000931788 5.47943e-22)
(0.00552925 -0.000634222 -1.5704e-21)
(0.00520876 -0.000199515 -9.01432e-23)
(0.00514777 0.000306692 4.39732e-22)
(0.00534992 0.000797275 1.52262e-22)
(0.00581215 0.0011934 -1.46957e-22)
(0.00638845 0.00145012 0)
(0.00696787 0.00154069 -9.43015e-21)
(0.00746423 0.00153748 -3.26809e-22)
(0.00788294 0.0014775 1.02814e-21)
(0.00821007 0.00139228 1.16884e-20)
(0.00845991 0.00130385 -1.29922e-20)
(0.00865318 0.00122042 -1.21479e-20)
(0.00880146 0.00114581 -2.63331e-20)
(0.00891396 0.00108118 -2.68286e-20)
(0.00899975 0.00102525 -1.24218e-20)
(0.00906577 0.000975968 -1.68652e-21)
(0.00911702 0.000931319 -1.29998e-20)
(0.00915738 0.000889456 2.67055e-20)
(0.00918867 0.000849295 -3.23397e-21)
(0.00921277 0.000809749 -9.06491e-21)
(0.00923132 0.000769807 0)
(0.00924502 0.000728788 0)
(0.00925568 0.00068531 7.38627e-22)
(0.00925873 0.000640522 2.44929e-21)
(0.0092577 0.00059206 6.56507e-21)
(0.00925615 0.00053722 1.94656e-21)
(0.00924577 0.000476943 -2.75692e-22)
(0.00923652 0.000406437 -2.52767e-21)
(0.00922431 0.000323573 2.33508e-21)
(0.00921993 0.000223588 -2.74807e-21)
(0.00923721 0.000108162 0)
(0.0092814 -2.46459e-05 8.25845e-23)
(0.00937188 -0.000158978 -8.09117e-23)
(0.00950535 -0.000263023 1.12842e-21)
(0.00967215 -0.000312396 0)
(0.00985485 -0.000295398 0)
(0.0100337 -0.000219843 0)
(0.0101875 -9.36304e-05 0)
(0.0103061 5.76371e-05 1.55683e-20)
(0.0103809 0.000206281 3.61872e-21)
(0.0104099 0.000329253 1.96158e-21)
(0.0103937 0.000408746 -2.2022e-21)
(0.0103403 0.000436337 -1.29268e-20)
(0.010261 0.000412652 4.28032e-21)
(0.0101564 0.000344062 9.82389e-21)
(0.010028 0.000245209 6.71305e-23)
(0.00987644 0.000140551 -7.345e-21)
(0.0097229 6.14855e-05 2.06124e-21)
(0.00944411 -2.34433e-05 -2.06462e-22)
(0.00915853 -0.000124409 -9.2086e-21)
(0.00884717 -0.000200123 7.80829e-21)
(0.00848999 -0.000232206 0)
(0.00812092 -0.000216649 0)
(0.00776548 -0.000155138 1.46844e-21)
(0.00746029 -6.71661e-05 9.07172e-22)
(0.00724683 4.12701e-06 -8.69306e-22)
(0.00710861 2.22483e-05 1.10417e-23)
(0.00701082 1.65044e-05 -5.09536e-22)
(0.00694699 6.75127e-06 4.99726e-22)
(0.00691168 -2.48382e-06 1.50024e-23)
(0.00689428 -8.17841e-06 1.79965e-22)
(0.00688545 -8.12084e-06 -9.28352e-23)
(0.00687786 -4.86412e-06 -8.67639e-23)
(0.0068657 1.75167e-06 -1.66692e-24)
(0.00684491 1.0353e-05 8.08439e-23)
(0.00681267 1.99928e-05 -7.91694e-23)
(0.00676779 2.9608e-05 4.72815e-24)
(0.00670963 3.95717e-05 -2.07035e-22)
(0.00663793 4.9562e-05 2.14262e-22)
(0.00655302 5.92709e-05 8.44092e-24)
(0.00645488 6.89205e-05 3.1533e-22)
(0.0063435 7.90091e-05 -3.80177e-22)
(0.00621731 9.02209e-05 4.52637e-22)
(0.00607407 0.000103407 -4.9805e-22)
(0.00591055 0.000119643 2.37805e-22)
(0.00572117 0.00014045 -3.08172e-22)
(0.00549864 0.000168281 2.17444e-23)
(0.00523055 0.000207295 -7.2285e-23)
(0.00489868 0.000265225 -4.60431e-22)
(0.00447393 0.000357939 4.93216e-22)
(0.00390712 0.000518616 -1.03765e-22)
(0.00312622 0.000815934 -3.9846e-23)
(0.00203055 0.00138078 1.37464e-22)
(0.000563173 0.00233099 0)
(3.77743e-05 0.00277182 -1.89471e-22)
(-0.000215073 -0.00183032 0)
(-0.00057778 -0.00209812 -1.95555e-22)
(-0.000324947 -0.00175758 9.17028e-23)
(0.000128784 -0.00142071 6.67452e-23)
(0.000625847 -0.00115119 -1.42938e-22)
(0.00111281 -0.000944115 2.3554e-22)
(0.00156757 -0.000787487 -2.33386e-22)
(0.00198117 -0.000667445 5.26385e-23)
(0.002353 -0.000573325 5.05565e-23)
(0.00268601 -0.000498037 1.48891e-22)
(0.00298396 -0.000436749 4.91274e-23)
(0.00325055 -0.000385997 1.48714e-22)
(0.0034891 -0.000343284 -4.11343e-22)
(0.00370252 -0.00030684 9.36373e-22)
(0.00389333 -0.000275395 -3.67748e-22)
(0.0040637 -0.000248016 5.16888e-22)
(0.00421552 -0.000224056 -2.82276e-22)
(0.00435048 -0.000203117 1.85087e-22)
(0.00447014 -0.000184999 1.14681e-21)
(0.00457601 -0.000169653 -1.00595e-21)
(0.00466959 -0.000157159 7.41625e-23)
(0.00475245 -0.000147719 2.34801e-22)
(0.00482633 -0.000141695 -1.3933e-21)
(0.00489321 -0.0001397 1.47747e-21)
(0.00495542 -0.000142678 1.60145e-21)
(0.00501586 -0.000151981 -1.28542e-21)
(0.00507805 -0.000169519 -1.85494e-21)
(0.0051464 -0.000198087 1.72404e-21)
(0.00522596 -0.000242069 0)
(0.00532409 -0.000308222 0)
(0.00545035 -0.000407842 0)
(0.00555397 -0.000567816 0)
(0.00556701 -0.000803808 1.1353e-20)
(0.00548065 -0.00111774 1.55297e-20)
(0.00533042 -0.00151565 -1.62103e-20)
(0.00515395 -0.00201399 2.81217e-21)
(0.00497964 -0.00262732 -1.97662e-20)
(0.00479086 -0.0033539 4.21315e-21)
(0.00453081 -0.00412431 1.69003e-20)
(0.00425774 -0.00485406 -3.13538e-21)
(0.0040467 -0.00550489 3.66329e-20)
(0.00388018 -0.00606173 0)
(0.00374099 -0.00651167 -1.78487e-20)
(0.00362857 -0.00684672 -1.77261e-20)
(0.00353436 -0.00706694 2.23949e-21)
(0.00344415 -0.0071773 1.4076e-20)
(0.00334348 -0.00718639 -3.26036e-20)
(0.00321944 -0.00710503 -1.41462e-20)
(0.0030521 -0.0069444 -2.64636e-21)
(0.00282568 -0.00672233 1.19456e-22)
(0.00253068 -0.00642865 5.20394e-21)
(0.00216613 -0.00606611 -3.48895e-21)
(0.00174755 -0.00563499 -1.33092e-21)
(0.00127452 -0.00511483 2.04226e-22)
(0.000806461 -0.00449105 1.09877e-20)
(0.000396325 -0.00374554 -3.9854e-21)
(0.000122929 -0.00289374 -3.77241e-21)
(5.42383e-05 -0.00193514 1.7614e-21)
(0.00030834 -0.000929381 1.32201e-22)
(0.000901483 2.78333e-05 0)
(0.00179642 0.000842815 -4.78993e-22)
(0.00294495 0.0014504 4.51935e-22)
(0.00412832 0.00179465 4.46618e-22)
(0.00524795 0.00195306 8.13984e-21)
(0.00619445 0.00194319 -8.38154e-21)
(0.00694993 0.00185542 9.28011e-21)
(0.00752993 0.00173149 0)
(0.0079569 0.00160713 0)
(0.00826451 0.00149901 2.29765e-20)
(0.00848406 0.00141032 -2.3492e-20)
(0.00864053 0.00133984 0)
(0.00875194 0.00128338 1.09173e-20)
(0.00883171 0.0012355 8.29441e-22)
(0.00888941 0.0011916 -9.9725e-21)
(0.00893249 0.00114842 1.27314e-20)
(0.008966 0.00110382 1.03132e-20)
(0.00899366 0.00105552 -2.26813e-20)
(0.00901566 0.00100297 6.71324e-22)
(0.00903429 0.000945315 6.04673e-22)
(0.00905098 0.000881908 1.77842e-20)
(0.00906774 0.000810623 -1.68737e-20)
(0.0090818 0.000730738 -2.26082e-22)
(0.00909878 0.000639776 3.1368e-23)
(0.00912074 0.000536053 1.93153e-22)
(0.0091545 0.000416859 -4.53484e-21)
(0.00920595 0.000278547 0)
(0.00928415 0.000122282 4.44267e-22)
(0.0093994 -4.05154e-05 1.31772e-24)
(0.0095582 -0.000190879 -1.46696e-22)
(0.00975176 -0.000300269 -2.32791e-21)
(0.00995904 -0.000343653 -1.8857e-22)
(0.0101636 -0.000312227 -9.49545e-21)
(0.0103431 -0.00021115 -5.91523e-21)
(0.0104859 -5.6525e-05 1.34825e-20)
(0.0105823 0.000127312 1.75722e-22)
(0.0106303 0.000314129 -8.78659e-21)
(0.0106324 0.000478388 -1.84454e-20)
(0.0105969 0.000599629 -1.01457e-20)
(0.0105361 0.000667785 0)
(0.0104571 0.000680676 1.06542e-20)
(0.0103702 0.000644904 0)
(0.0102789 0.000572701 -1.19895e-20)
(0.0101818 0.000477031 1.82431e-22)
(0.0100723 0.000368233 1.10895e-20)
(0.00993882 0.000252026 -1.21638e-20)
(0.00976765 0.000128917 0)
(0.00954604 -3.80498e-06 -2.23666e-20)
(0.00926325 -0.000149315 -1.13908e-20)
(0.00891431 -0.000306855 -1.29159e-21)
(0.00850124 -0.000467375 -1.0224e-20)
(0.00803103 -0.00061187 0)
(0.00751367 -0.000719139 8.3174e-21)
(0.00698086 -0.000764277 0)
(0.00644374 -0.000719015 -4.81292e-21)
(0.00594795 -0.000578036 2.72071e-22)
(0.00551209 -0.000332819 0)
(0.00517612 3.62443e-06 0)
(0.00498207 0.000401646 -4.4228e-22)
(0.00497133 0.000830081 0)
(0.00513148 0.00124834 1.78785e-22)
(0.00547889 0.00157134 -3.95571e-22)
(0.0059511 0.0017907 2.15439e-22)
(0.00644467 0.00190864 0)
(0.00692316 0.00193624 0)
(0.00734112 0.00189796 1.06994e-20)
(0.00768798 0.00182954 -1.20883e-20)
(0.00796922 0.00174922 2.43389e-20)
(0.00819218 0.00166795 1.27716e-20)
(0.00836587 0.0015913 1.86083e-21)
(0.00850005 0.00152146 1.13772e-20)
(0.00860354 0.00145781 -1.59258e-21)
(0.00868338 0.00139838 1.31809e-20)
(0.00874583 0.00134069 2.22706e-21)
(0.008795 0.00128268 -2.32174e-23)
(0.00883442 0.00122258 2.25932e-21)
(0.00886746 0.00115888 -2.93482e-21)
(0.00889587 0.00109052 1.06959e-20)
(0.00892228 0.00101448 2.08341e-20)
(0.00894448 0.000930848 0)
(0.00896568 0.000838309 -9.09348e-21)
(0.0089899 0.000735765 -9.40438e-21)
(0.00901721 0.000619549 1.81497e-21)
(0.00905634 0.000488231 4.56778e-21)
(0.00910949 0.00033986 2.17074e-21)
(0.00918498 0.000172617 -1.80229e-21)
(0.00929309 -3.62674e-06 -3.98695e-22)
(0.00944371 -0.000172655 1.57845e-22)
(0.00963276 -0.000306472 -6.18989e-22)
(0.00984315 -0.000376028 -1.1204e-21)
(0.010055 -0.000367484 -4.19259e-21)
(0.0102494 -0.000282594 2.11886e-21)
(0.0104095 -0.000136383 -1.17345e-21)
(0.010523 4.72178e-05 -5.7886e-21)
(0.0105879 0.000241063 -1.31997e-20)
(0.0106017 0.000416511 -7.38488e-21)
(0.0105705 0.000550953 0)
(0.0105091 0.000631368 -7.89553e-21)
(0.0104199 0.000653363 2.35231e-20)
(0.0103144 0.000622637 1.36592e-21)
(0.0101939 0.000552336 0)
(0.010057 0.000461539 7.91935e-21)
(0.00990684 0.00037615 0)
(0.00975755 0.000321767 0)
(0.00952713 0.00027603 4.96631e-21)
(0.00929683 0.000218615 9.0165e-21)
(0.00904562 0.000176269 0)
(0.00876308 0.00016056 0)
(0.00847401 0.000167964 -2.2904e-21)
(0.00818984 0.000188839 2.10167e-21)
(0.00791545 0.000205663 -1.63186e-22)
(0.00766843 0.000199582 -1.90937e-22)
(0.00747449 0.00016186 -6.96728e-22)
(0.00732816 0.000112108 1.66315e-23)
(0.00722095 6.7203e-05 -2.42718e-23)
(0.00714588 3.40664e-05 -2.7805e-23)
(0.00709365 1.50016e-05 -1.60031e-22)
(0.0070545 9.03488e-06 8.1426e-23)
(0.00701975 1.33213e-05 7.27992e-23)
(0.00698213 2.52823e-05 1.51829e-24)
(0.00693607 4.24824e-05 -8.776e-23)
(0.0068781 6.29237e-05 9.48355e-23)
(0.00680689 8.50393e-05 -9.14526e-24)
(0.00671844 0.00010742 0)
(0.00661392 0.000129428 -1.44505e-23)
(0.00649281 0.000151359 -3.49552e-23)
(0.0063547 0.000173769 3.71259e-22)
(0.00619862 0.00019768 -3.27841e-22)
(0.00602272 0.000224629 4.5901e-22)
(0.00582395 0.000256568 -9.48552e-22)
(0.00559761 0.000296165 8.47069e-22)
(0.00533623 0.000347177 -2.93138e-22)
(0.00502942 0.000415293 -1.30115e-22)
(0.00466209 0.000509678 4.87201e-23)
(0.00421195 0.000645842 0)
(0.00364719 0.000850652 -1.83808e-22)
(0.00292765 0.00116778 6.97948e-23)
(0.00201833 0.00165822 0)
(0.000934419 0.00236422 -9.04551e-23)
(-0.000119138 0.00309607 1.84217e-22)
(-0.000223264 0.00267311 3.03687e-22)
(-0.000154043 -0.00136913 -1.61454e-22)
(-0.000546533 -0.00197029 0)
(-0.000557617 -0.00193013 0)
(-0.000372114 -0.00174347 -1.37409e-22)
(-6.70782e-05 -0.00153385 1.2772e-22)
(0.000287688 -0.00134035 2.34976e-22)
(0.000655184 -0.00117284 -2.33347e-22)
(0.00101433 -0.00103061 1.06246e-22)
(0.00135468 -0.000910191 0)
(0.00167173 -0.000807887 -1.01274e-22)
(0.001964 -0.00072039 0)
(0.00223156 -0.000644865 -7.29168e-25)
(0.00247515 -0.000579011 0)
(0.00269591 -0.000521048 -1.0566e-22)
(0.00289507 -0.000469609 0)
(0.00307389 -0.00042365 0)
(0.00323361 -0.000382421 -1.1933e-22)
(0.00337545 -0.000345441 -6.39834e-22)
(0.00350062 -0.000312461 1.59877e-21)
(0.00361032 -0.000283434 -1.08181e-21)
(0.00370582 -0.000258494 0)
(0.0037885 -0.000237962 1.14602e-21)
(0.00385995 -0.000222399 -1.29931e-21)
(0.00392202 -0.000212702 -1.76929e-22)
(0.00397697 -0.000210197 0)
(0.00402756 -0.000216717 -1.71972e-21)
(0.00407714 -0.00023476 1.7058e-21)
(0.00412978 -0.000267741 0)
(0.00419001 -0.000320594 2.14156e-21)
(0.00426402 -0.000400243 -2.12841e-21)
(0.00435941 -0.000516241 2.50201e-21)
(0.00443279 -0.000689292 -4.9754e-21)
(0.00442636 -0.000938874 -8.58779e-21)
(0.00434161 -0.00127567 -3.28992e-21)
(0.00421991 -0.00171058 7.94653e-22)
(0.00409683 -0.00225722 -8.94474e-22)
(0.00398602 -0.00291878 -1.0616e-20)
(0.00387467 -0.0036694 1.49403e-22)
(0.00371842 -0.00443737 3.11599e-21)
(0.00356139 -0.00515875 -7.25311e-21)
(0.00345003 -0.00580399 3.1099e-21)
(0.00336639 -0.00635504 -4.36845e-21)
(0.00329417 -0.00679748 3.49503e-20)
(0.00323287 -0.00712342 1.36813e-20)
(0.00317363 -0.00733216 4.30251e-21)
(0.00310237 -0.0074274 0)
(0.00300513 -0.00741747 1.33217e-21)
(0.00286999 -0.00731127 3.1465e-20)
(0.00268259 -0.00711916 1.39958e-20)
(0.0024338 -0.00684942 1.86407e-21)
(0.00212095 -0.00650538 2.73789e-20)
(0.00174927 -0.00609034 0)
(0.00133872 -0.00560602 -1.37999e-20)
(0.000900136 -0.00504686 1.92915e-22)
(0.000482226 -0.00441139 4.48415e-23)
(0.000121391 -0.00369844 4.82382e-21)
(-0.000121748 -0.0029238 2.25211e-21)
(-0.000202042 -0.00209566 -2.37524e-21)
(-6.35245e-05 -0.00124553 3.86553e-22)
(0.000338215 -0.000418383 -1.28459e-22)
(0.000983421 0.000336837 6.08273e-22)
(0.00188248 0.000985047 3.6847e-22)
(0.00291889 0.00145255 6.96957e-21)
(0.0040136 0.0017428 -8.38098e-21)
(0.00504661 0.00186028 1.51876e-20)
(0.00595211 0.00186485 1.06526e-21)
(0.00670364 0.00181163 -1.03245e-20)
(0.00729632 0.00171903 -1.32392e-21)
(0.00774568 0.00162144 -1.12496e-20)
(0.00807653 0.00153463 1.41693e-20)
(0.00831444 0.00146349 9.33633e-21)
(0.00848215 0.0014074 0)
(0.00859984 0.00136183 1.16642e-20)
(0.00868222 0.00132126 1.01749e-20)
(0.0087412 0.00128046 1.38572e-21)
(0.00878527 0.00123498 -2.16022e-20)
(0.00882142 0.00118226 1.20656e-20)
(0.00885367 0.00112 -1.28113e-21)
(0.00888565 0.00104579 9.2872e-21)
(0.00891967 0.000958797 -9.1599e-21)
(0.00895826 0.00086072 8.42038e-21)
(0.00900227 0.000747787 -7.20658e-21)
(0.00905763 0.000618492 6.30529e-21)
(0.00912457 0.000471854 0)
(0.00921002 0.000309272 1.15235e-22)
(0.00932473 0.000130757 3.53144e-23)
(0.00947413 -5.38425e-05 -5.97475e-22)
(0.00965796 -0.000226375 0)
(0.00987 -0.000363349 3.57856e-22)
(0.0100946 -0.000438551 1.23415e-21)
(0.0103076 -0.000435291 -4.24451e-22)
(0.0104926 -0.000352593 5.16559e-21)
(0.010633 -0.000202674 5.05583e-21)
(0.0107225 -6.6258e-06 -6.5847e-21)
(0.0107593 0.000208514 -3.39825e-22)
(0.0107447 0.000415139 7.77471e-21)
(0.0106996 0.000589207 9.01466e-21)
(0.0106244 0.000712337 5.74486e-22)
(0.0105354 0.000777695 9.5303e-21)
(0.0104417 0.000785059 -2.06372e-20)
(0.0103479 0.00074473 0)
(0.0102509 0.000670518 0)
(0.010143 0.000575753 0)
(0.0100127 0.000470757 -1.10441e-20)
(0.0098463 0.000361016 -6.71537e-22)
(0.00963206 0.000247355 3.35323e-22)
(0.00936261 0.000128252 1.11585e-21)
(0.00903576 2.74718e-06 -9.15954e-21)
(0.00865649 -0.000125877 -9.75941e-21)
(0.00823586 -0.000247597 0)
(0.0077885 -0.000345993 0)
(0.00733018 -0.000405157 0)
(0.0068892 -0.000409449 0)
(0.00647454 -0.000346363 2.71342e-21)
(0.00611365 -0.000219075 1.28215e-21)
(0.00580989 -3.23947e-05 0)
(0.00556957 0.000199647 -2.89995e-24)
(0.00538931 0.000463384 0)
(0.0052958 0.000756005 0)
(0.00530887 0.00106977 0)
(0.00544984 0.00136078 0)
(0.00572059 0.00160062 -2.32125e-22)
(0.00607543 0.00176659 7.36678e-21)
(0.00647936 0.00185169 2.58042e-22)
(0.00687767 0.00187373 -1.01963e-20)
(0.007242 0.00185581 1.1545e-20)
(0.00755872 0.00181616 -1.20735e-20)
(0.0078229 0.00176027 0)
(0.00803615 0.00170137 1.21238e-20)
(0.00820453 0.00164399 -1.08163e-20)
(0.00833614 0.00158828 8.50394e-21)
(0.00843863 0.00153275 -1.15049e-20)
(0.00851952 0.00147509 6.40965e-22)
(0.00858452 0.00141226 1.44171e-21)
(0.00863852 0.00134155 -6.68679e-22)
(0.00868722 0.00126098 -7.90036e-21)
(0.00873394 0.00116931 -3.3475e-21)
(0.00878214 0.00106752 -1.01607e-20)
(0.0088317 0.000953072 -2.18855e-21)
(0.00888806 0.000822155 1.01915e-20)
(0.0089546 0.000676676 1.47503e-20)
(0.00902939 0.000513991 7.5914e-21)
(0.0091236 0.0003371 -1.44611e-21)
(0.00924292 0.00014676 -1.08896e-21)
(0.00939342 -4.89416e-05 6.08125e-22)
(0.00957625 -0.000233093 -2.01515e-22)
(0.00978706 -0.000383238 -2.52366e-23)
(0.0100137 -0.000472696 1.04866e-21)
(0.0102344 -0.000481689 0)
(0.010429 -0.000406582 4.13485e-21)
(0.0105827 -0.000258262 3.11329e-21)
(0.0106851 -5.89295e-05 0)
(0.0107317 0.000163809 4.28616e-21)
(0.0107251 0.000380846 7.98146e-21)
(0.0106824 0.000565692 -4.90975e-21)
(0.0106053 0.000699097 5.30314e-21)
(0.0105078 0.000772981 9.88556e-21)
(0.0103991 0.000787962 -1.01306e-20)
(0.0102861 0.000754779 -8.26648e-21)
(0.0101657 0.00069164 9.22162e-21)
(0.0100342 0.000618328 -9.95265e-21)
(0.00989418 0.000555846 6.67764e-21)
(0.00974925 0.000520361 1.59736e-21)
(0.00955019 0.00049803 -8.41381e-21)
(0.00936143 0.000468828 0)
(0.00916343 0.000450272 5.03053e-21)
(0.00895156 0.000445814 1.13463e-21)
(0.00874541 0.000447353 2.14255e-21)
(0.00854989 0.000443046 -1.91509e-21)
(0.00835869 0.000418012 7.55592e-22)
(0.00816937 0.000366106 -7.54661e-22)
(0.00800035 0.000294402 0)
(0.00785565 0.000217352 -2.80308e-23)
(0.00773348 0.000149397 -2.9761e-22)
(0.00763193 9.87359e-05 3.39971e-22)
(0.00754682 6.80158e-05 1.40708e-22)
(0.00747253 5.62343e-05 -1.28496e-22)
(0.00740285 6.02053e-05 -1.25877e-23)
(0.00733185 7.64743e-05 1.25818e-23)
(0.00725438 0.000101579 0)
(0.00716638 0.000132417 -1.45544e-22)
(0.00706528 0.000166745 1.31754e-22)
(0.00694898 0.000202683 -2.38534e-22)
(0.00681501 0.00023898 2.14279e-22)
(0.00666311 0.000275698 3.48763e-23)
(0.00649244 0.000313741 -4.08304e-23)
(0.0063014 0.000354825 0)
(0.00608768 0.000401408 0)
(0.00584773 0.000456747 -6.06177e-23)
(0.00557641 0.000525346 0)
(0.00526613 0.000613483 0)
(0.0049063 0.000730322 1.72089e-22)
(0.00448186 0.000890106 0)
(0.00397148 0.00111513 0)
(0.00334736 0.00143798 4.93843e-22)
(0.00258147 0.00189724 -2.54825e-22)
(0.00166939 0.00251078 0)
(0.000684301 0.00318798 0)
(-0.000114673 0.0035138 -1.76434e-23)
(-0.000161956 0.00237422 -1.90535e-22)
(-0.000100879 -0.00106541 5.91954e-23)
(-0.00042513 -0.0017751 -1.81908e-22)
(-0.000552468 -0.00193336 -1.37115e-22)
(-0.000525215 -0.00188562 2.73861e-22)
(-0.000382846 -0.00176532 -4.86426e-22)
(-0.000166274 -0.00161872 2.40847e-22)
(8.83615e-05 -0.00147004 0)
(0.000357989 -0.00132975 -1.07414e-22)
(0.000628204 -0.00120158 0)
(0.000890402 -0.00108618 -5.05889e-22)
(0.0011396 -0.000982767 4.03251e-22)
(0.00137303 -0.000890005 -1.0212e-22)
(0.00158931 -0.000806473 -4.1925e-22)
(0.00178787 -0.00073089 3.1224e-22)
(0.00196867 -0.000662176 -1.08044e-22)
(0.002132 -0.000599463 0)
(0.00227834 -0.000542102 -1.17349e-22)
(0.00240835 -0.000489678 3.91224e-22)
(0.00252275 -0.000441994 -1.59834e-21)
(0.0026224 -0.000399074 1.08151e-21)