/*--------------------------------*- C++ -*----------------------------------*\
| =========                 |                                                 |
| \\      /  F ield         | OpenFOAM: The Open Source CFD Toolbox           |
|  \\    /   O peration     | Version:  2506                                  |
|   \\  /    A nd           | Website:  www.openfoam.com                      |
|    \\/     M anipulation  |                                                 |
\*---------------------------------------------------------------------------*/
FoamFile
{
    version     2.0;
    format      ascii;
    arch        "LSB;label=32;scalar=64";
    class       volVectorField;
    location    "3";
    object      vorticityField;
}
// * * * * * * * * * * * * * * * * * * * * * * * * * * * * * * * * * * * * * //

dimensions      [0 0 -1 0 0 0 0];

internalField   nonuniform List<vector> 
4000
(
(3.95525e-19 8.59804e-20 31.6345)
(7.6517e-20 7.23134e-20 34.3256)
(1.33527e-19 4.11967e-19 29.9204)
(5.13358e-19 6.28922e-19 25.9235)
(-7.13366e-19 7.55894e-19 23.3391)
(4.25501e-20 8.93416e-21 21.466)
(4.65788e-19 7.94307e-19 19.9716)
(-7.77036e-20 9.12701e-19 18.7545)
(-9.58335e-20 3.65877e-20 17.7446)
(-5.76916e-20 -5.99853e-19 16.8885)
(5.15189e-19 2.12433e-17 16.1512)
(-2.15488e-18 -3.82662e-17 15.5085)
(1.4139e-18 1.76666e-17 14.9432)
(-1.46126e-18 -1.95279e-17 14.4421)
(2.2117e-18 1.87028e-17 13.995)
(-1.71544e-18 9.23222e-19 13.594)
(1.43999e-18 2.03273e-17 13.2325)
(-1.87901e-18 -1.88101e-17 12.9049)
(-1.08177e-18 3.37492e-19 12.6064)
(1.80175e-18 5.66051e-20 12.3323)
(-1.38182e-19 5.91647e-20 12.0778)
(-2.47607e-18 -1.01696e-18 11.8383)
(2.31922e-18 -1.1232e-18 11.6087)
(2.49351e-18 2.06528e-20 11.3833)
(-2.6375e-18 -1.01054e-18 11.1553)
(-1.68668e-19 -1.1569e-18 10.916)
(-3.26037e-18 -9.32521e-20 10.6542)
(4.25417e-19 -3.42183e-18 10.355)
(1.03133e-17 4.32787e-17 9.99625)
(-3.67707e-18 -3.7257e-17 9.51969)
(-4.94084e-18 5.32841e-18 8.84793)
(-1.22054e-17 -1.04087e-16 8.28273)
(5.34669e-18 1.0503e-16 8.20753)
(-2.29072e-17 -4.09239e-17 8.68679)
(4.37087e-18 -2.17519e-16 9.64267)
(1.28464e-16 7.76278e-16 11.0077)
(1.57556e-17 7.06257e-17 12.5941)
(-4.57109e-17 -1.24138e-16 15.3057)
(-9.28922e-19 -4.5347e-17 19.5551)
(5.22768e-18 4.42017e-17 24.1834)
(-5.09533e-17 -1.72489e-16 28.6659)
(1.7658e-16 5.08072e-16 32.7614)
(-2.56781e-18 1.39723e-17 36.3834)
(2.84242e-16 3.11675e-16 39.4772)
(-1.36357e-16 -7.3997e-17 41.9949)
(4.10493e-18 3.02435e-16 43.9287)
(2.863e-17 1.32576e-16 45.2216)
(-4.52891e-17 -3.41324e-16 45.9868)
(-2.3954e-16 -2.37224e-16 46.3383)
(-1.48097e-16 -1.71361e-16 46.4135)
(-3.43932e-17 -6.68872e-17 46.3362)
(4.06091e-18 7.30232e-18 45.9825)
(2.00002e-17 -2.30359e-17 45.789)
(2.79583e-17 3.31518e-16 45.4675)
(-6.51031e-17 2.95553e-16 44.9402)
(-1.60598e-17 -2.84051e-16 43.7939)
(-3.56104e-17 -7.39144e-17 42.0115)
(7.49202e-18 1.40461e-17 39.1409)
(-5.05967e-19 1.13057e-18 34.9671)
(2.39838e-18 -2.88733e-17 30.1493)
(9.59022e-18 -5.69332e-17 25.3857)
(1.44724e-17 1.44749e-16 20.9097)
(-3.752e-17 3.47313e-16 17.0701)
(3.65499e-17 -3.00097e-16 14.0232)
(5.97423e-19 1.72783e-17 11.5955)
(-3.22608e-18 2.82287e-18 9.80185)
(4.45525e-19 -4.00465e-18 8.43847)
(1.10966e-17 -1.09128e-16 7.40126)
(1.88457e-17 -7.0875e-16 6.62472)
(4.83539e-17 -3.76821e-16 6.02217)
(-1.57819e-18 5.95194e-17 5.53653)
(-5.22852e-17 3.56589e-16 5.12473)
(6.1633e-19 -3.48892e-16 4.76572)
(-1.18828e-17 6.71654e-17 4.44157)
(-3.63021e-17 3.23942e-16 4.13995)
(2.23801e-17 -3.73357e-16 3.85365)
(4.46314e-17 -3.6806e-16 3.57893)
(9.6963e-18 -2.6112e-16 3.31449)
(-1.99579e-18 2.67672e-17 3.06842)
(-1.75019e-17 1.68968e-17 2.8321)
(1.4927e-17 1.15411e-17 2.60558)
(-1.2691e-17 2.49951e-16 2.39382)
(4.49465e-19 -2.69949e-17 2.21047)
(8.97856e-18 -2.09363e-16 2.04206)
(4.79399e-19 2.10407e-16 1.90401)
(-5.9664e-20 -7.77631e-18 1.79248)
(1.10967e-19 -7.46564e-20 1.71269)
(-6.66452e-20 9.10535e-18 1.64578)
(2.24723e-19 3.75643e-17 1.59601)
(1.51442e-18 -7.94871e-17 1.55061)
(-1.96071e-19 -1.95438e-18 1.48286)
(4.50062e-18 -5.82689e-18 1.35609)
(9.11326e-18 -7.68786e-18 1.11499)
(-1.18393e-17 -2.93434e-17 0.697497)
(2.99642e-17 2.63143e-16 0.136196)
(-1.86434e-18 2.74191e-16 -0.527252)
(3.38522e-17 3.32408e-16 -1.23328)
(1.98321e-17 3.6849e-17 -1.84895)
(-1.08577e-17 2.80131e-16 -2.28545)
(-1.11933e-17 3.65763e-16 -2.47343)
(-4.48927e-19 -8.54502e-18 -2.38917)
(5.00129e-17 3.32456e-16 -2.05746)
(2.00176e-17 7.58905e-16 -1.50827)
(2.26267e-18 5.60299e-17 -0.801593)
(2.2882e-17 3.74357e-16 0.0290568)
(1.9675e-18 6.75568e-17 0.987769)
(2.07247e-17 -2.96364e-16 2.10764)
(1.78201e-17 -3.27206e-16 3.47221)
(2.09367e-17 -2.93473e-17 5.15042)
(2.3793e-17 4.22526e-17 7.1909)
(-2.76986e-17 -3.22637e-16 9.60441)
(6.73892e-18 2.37274e-16 12.234)
(7.43235e-19 -6.1901e-18 15.0492)
(4.70084e-17 5.47683e-16 17.5987)
(7.81425e-18 1.63737e-16 19.7876)
(1.37169e-17 2.5908e-16 21.2671)
(1.71046e-19 5.9952e-18 21.6849)
(-1.53407e-20 7.27927e-17 20.9926)
(1.18811e-18 -8.33355e-18 19.5982)
(-1.05114e-19 3.29698e-19 17.6556)
(-1.73102e-18 -7.72416e-18 15.5976)
(3.34319e-17 -2.45192e-16 13.6665)
(-2.45106e-17 3.82647e-16 11.9873)
(-1.22506e-19 2.01822e-17 10.5593)
(-2.96666e-17 2.29687e-16 9.33833)
(5.02094e-17 -6.61003e-16 8.35493)
(-4.94397e-17 4.06227e-16 7.54499)
(-3.17978e-18 -3.3852e-16 6.86301)
(-3.20725e-17 9.13312e-17 6.2902)
(2.0295e-17 -2.99113e-16 5.80418)
(1.10228e-18 6.23572e-17 5.37992)
(-5.00576e-17 3.83736e-16 4.99932)
(3.70281e-17 -1.16701e-16 4.6491)
(-3.22245e-17 3.92397e-16 4.32205)
(-1.94199e-17 -1.4526e-17 4.01523)
(-2.66628e-18 -2.52798e-17 3.72371)
(2.181e-17 -2.78375e-16 3.44481)
(-2.5099e-17 2.94833e-16 3.17443)
(1.62519e-18 -2.52444e-17 2.92059)
(1.28239e-17 7.5093e-18 2.68944)
(-1.03925e-17 2.33977e-16 2.46359)
(2.56096e-18 -5.53291e-17 2.26439)
(-2.11936e-17 2.53736e-16 2.09082)
(1.61187e-18 -1.90294e-17 1.94775)
(7.8087e-19 -1.37824e-16 1.84824)
(2.19038e-18 -8.26654e-17 1.77669)
(4.14438e-19 6.64881e-17 1.74931)
(-6.00407e-19 -4.58246e-17 1.75799)
(1.68406e-18 -1.3937e-18 1.75822)
(2.88837e-18 5.17551e-17 1.7202)
(2.32259e-18 2.18273e-17 1.58413)
(-1.79088e-17 -3.80222e-16 1.27988)
(2.18047e-18 4.55216e-17 0.800358)
(2.71259e-17 1.17278e-17 0.181193)
(1.78456e-17 2.33078e-16 -0.535476)
(9.00923e-18 1.01607e-16 -1.24637)
(-3.68546e-18 1.36456e-18 -1.79286)
(-2.58377e-17 -2.83677e-17 -2.10377)
(1.61315e-17 7.04091e-17 -2.12407)
(-1.39784e-17 -7.60541e-16 -1.81226)
(-7.28735e-18 6.72423e-18 -1.16188)
(-7.74232e-20 3.74477e-16 -0.166439)
(2.66181e-17 3.61621e-16 0.865618)
(7.13102e-18 4.16007e-17 2.3829)
(-3.57754e-17 -3.00882e-16 3.97985)
(-2.26781e-17 -5.19312e-16 5.59962)
(-5.74975e-18 -2.82383e-17 7.253)
(-4.62264e-18 -5.15266e-17 8.7741)
(-6.96126e-18 -1.8384e-16 9.98808)
(-2.92307e-18 -5.71973e-17 10.66)
(-2.29282e-18 -1.98993e-18 10.7982)
(3.59906e-21 -7.29143e-19 10.8696)
(-1.11394e-18 -9.11307e-21 11.0023)
(1.07606e-18 -7.05265e-19 11.1062)
(6.7649e-20 -4.25725e-19 11.1449)
(6.00853e-21 -4.96833e-17 11.1375)
(8.71849e-20 4.89112e-17 11.1089)
(-1.51904e-19 2.4492e-17 11.0806)
(2.284e-20 -2.4689e-17 11.069)
(-3.06487e-20 2.29907e-17 11.0866)
(2.60961e-19 -4.84206e-17 11.1416)
(-1.91156e-19 2.34024e-17 11.2385)
(-4.57325e-19 -1.83167e-19 11.3784)
(4.68284e-19 -6.60397e-19 11.5586)
(-4.86583e-20 1.48501e-19 11.7774)
(1.39425e-18 -2.31401e-17 12.0355)
(-1.44405e-18 2.20955e-17 12.3329)
(1.81939e-18 -2.23267e-17 12.6732)
(-1.84743e-18 2.20014e-17 13.0624)
(1.05972e-18 -1.18177e-17 13.5097)
(-1.11528e-18 1.07436e-17 14.0311)
(6.87694e-20 -1.01907e-18 14.6481)
(-9.23836e-20 -5.31708e-19 15.3971)
(-9.38472e-19 -1.19844e-20 16.336)
(1.07282e-18 -5.59587e-19 17.5634)
(-1.34792e-19 -1.00462e-18 19.2662)
(7.97354e-19 -3.95677e-18 21.8182)
(-6.25718e-19 5.08108e-18 26.0929)
(-7.59532e-21 -7.08551e-19 32.3517)
(-6.66819e-20 -2.1715e-20 30.6349)
(-8.79874e-20 -2.53276e-19 -1.39882)
(-3.99448e-20 -7.4575e-20 9.37225)
(-3.82028e-20 -7.13437e-19 11.4953)
(9.00377e-19 1.65616e-18 11.5585)
(-1.72888e-18 -5.18607e-18 11.1025)
(6.79643e-19 -1.74121e-18 10.4985)
(5.04551e-20 3.40576e-18 9.88748)
(-1.52293e-19 -1.40229e-18 9.31454)
(-4.12417e-20 -1.10821e-18 8.78854)
(1.61346e-19 -1.11854e-18 8.30946)
(-7.37706e-19 -1.54705e-18 7.87525)
(1.11118e-18 -1.47728e-17 7.48303)
(-9.60228e-19 1.35332e-17 7.12959)
(2.17547e-18 -1.40211e-17 6.81176)
(-9.18279e-19 2.64625e-17 6.52666)
(2.6797e-19 -2.94612e-17 6.27166)
(-1.05015e-18 1.16309e-17 6.04433)
(6.86483e-19 -1.41449e-17 5.84247)
(2.08583e-18 -2.0081e-17 5.66408)
(-1.38068e-18 2.62329e-17 5.50728)
(-3.43769e-19 2.31051e-18 5.37027)
(3.95374e-19 -3.27622e-17 5.25116)
(-1.52234e-18 2.60142e-17 5.14782)
(2.38212e-18 3.31493e-17 5.05771)
(2.25105e-18 -2.6405e-17 4.97785)
(-2.33646e-18 6.8744e-20 4.90462)
(-3.80077e-18 -3.07732e-17 4.83341)
(4.44821e-18 -8.96352e-18 4.75796)
(-1.95534e-18 6.17727e-17 4.66989)
(2.20026e-18 1.298e-17 4.55782)
(-1.94818e-18 -2.65472e-17 4.39259)
(4.67038e-18 -2.07463e-17 4.14068)
(-8.15165e-18 -7.203e-17 3.93895)
(1.73187e-18 -1.91373e-16 3.85634)
(-3.88141e-17 -1.63854e-16 3.86772)
(-1.07203e-16 -2.6676e-16 3.92981)
(8.29393e-18 -7.16006e-17 4.06666)
(6.63835e-17 1.70909e-16 4.43878)
(-7.46826e-18 4.53133e-17 5.00579)
(-1.18845e-16 -8.14343e-17 5.64598)
(-8.00329e-17 -4.15668e-17 6.43721)
(-2.04164e-16 -2.91535e-16 7.30188)
(-3.91961e-17 7.77758e-18 8.15658)
(-4.24618e-16 -4.90558e-16 8.97026)
(2.15074e-16 1.58864e-16 9.72268)
(-2.67502e-16 -1.5821e-16 10.3909)
(1.99427e-16 2.59728e-17 10.9475)
(4.97419e-18 5.33529e-17 11.4127)
(-3.01886e-18 4.43493e-17 11.7988)
(2.05116e-16 2.27207e-16 12.1423)
(-2.27168e-16 -6.99934e-17 12.4009)
(2.41587e-17 -5.86109e-17 12.6239)
(2.00471e-16 9.33599e-17 12.855)
(-7.14994e-17 -3.50241e-17 13.18)
(1.50752e-16 1.10238e-16 13.6867)
(9.65847e-18 2.10853e-17 14.3185)
(4.06555e-17 4.95402e-17 15.1037)
(-1.6117e-17 -1.80145e-17 16.0322)
(-5.78948e-19 -4.77786e-18 16.723)
(-4.43288e-18 1.55153e-17 16.8253)
(-1.68756e-17 8.7249e-17 16.1104)
(-2.726e-17 2.02906e-16 14.7821)
(-4.48093e-17 1.94558e-16 12.8823)
(-3.53368e-17 2.62668e-16 11.1)
(-1.19074e-17 -3.98007e-17 9.41365)
(1.60104e-17 2.03628e-17 8.01609)
(4.02721e-19 -3.32896e-18 6.8952)
(-1.03806e-17 7.15249e-17 6.01018)
(-6.59095e-17 6.33253e-16 5.34209)
(-2.86368e-17 -3.14039e-16 4.83739)
(-2.00549e-18 3.45283e-17 4.4533)
(-3.49786e-18 3.9232e-16 4.14359)
(-5.24419e-17 3.01031e-16 3.87935)
(-4.17591e-17 3.63303e-16 3.64059)
(3.42946e-17 -1.07437e-16 3.41268)
(3.82401e-18 -5.10183e-17 3.18619)
(-3.45601e-17 -2.27168e-16 2.95795)
(-3.17891e-17 3.41636e-16 2.71773)
(1.79015e-19 1.14549e-17 2.47736)
(1.15141e-17 2.11124e-16 2.23358)
(-1.0391e-17 -2.48157e-16 1.98685)
(1.20296e-17 1.04922e-17 1.72112)
(5.34105e-20 -3.55629e-20 1.4632)
(-8.71101e-18 -3.985e-18 1.18059)
(7.63901e-18 -1.96659e-16 0.890398)
(-3.41763e-19 1.40855e-17 0.564934)
(8.65754e-19 -1.11619e-17 0.229847)
(-1.98014e-19 1.17912e-17 -0.103676)
(-6.85964e-19 -1.60389e-17 -0.403534)
(1.70832e-18 1.97258e-16 -0.618186)
(-9.7581e-19 -7.67747e-18 -0.739143)
(-1.3015e-17 -1.29118e-18 -0.808318)
(-4.748e-18 2.42452e-16 -0.845174)
(2.06346e-17 -2.55654e-16 -0.854391)
(-1.63815e-17 2.76491e-16 -0.895319)
(-2.9447e-17 -3.07052e-16 -0.975067)
(-6.05293e-17 1.95067e-16 -1.10011)
(-3.59748e-17 3.51584e-16 -1.25978)
(-1.06052e-17 -2.89835e-16 -1.43397)
(8.68674e-18 -3.54744e-16 -1.59145)
(6.3241e-19 -5.99035e-17 -1.71773)
(-6.65934e-17 3.23637e-16 -1.78587)
(-4.56701e-17 -3.78228e-16 -1.79055)
(2.12276e-17 4.47877e-18 -1.72298)
(-5.75338e-17 -6.5435e-17 -1.58415)
(-2.14825e-18 -6.64901e-17 -1.37646)
(-1.39424e-17 6.16471e-16 -1.09706)
(2.25894e-17 7.4208e-16 -0.751088)
(1.54703e-17 3.63413e-16 -0.334719)
(-5.39745e-18 2.69033e-16 0.153666)
(5.64978e-17 3.83133e-16 0.69416)
(-6.33894e-17 -5.31242e-16 1.26179)
(4.31168e-19 -9.57739e-18 1.9293)
(-7.99915e-17 -2.59031e-16 2.67755)
(-2.73088e-18 1.05833e-17 3.54194)
(-1.69261e-17 -9.36546e-17 4.64697)
(-1.00127e-18 -1.33379e-17 5.98796)
(2.56965e-18 -3.75989e-17 7.40051)
(5.89252e-19 -4.07782e-18 8.52525)
(-6.52744e-19 5.52197e-18 9.32266)
(2.70103e-19 1.84303e-17 9.39888)
(-5.43596e-17 2.71398e-16 9.02457)
(2.14323e-17 -3.12344e-17 8.46284)
(5.14257e-18 -5.33607e-17 7.82749)
(7.7383e-17 -2.9778e-16 7.13581)
(-1.03657e-16 4.40651e-16 6.50445)
(2.75091e-17 2.45006e-16 5.95539)
(-7.30819e-17 6.53938e-16 5.475)
(-6.7666e-17 5.82326e-16 5.0555)
(-2.27534e-17 2.21091e-16 4.69115)
(-7.05376e-18 4.32027e-17 4.36833)
(6.17712e-18 1.69238e-16 4.07373)
(5.26635e-17 -6.12418e-16 3.79624)
(2.68557e-17 1.25776e-16 3.52532)
(-2.09337e-17 1.91037e-16 3.25785)
(-7.24323e-18 -1.50126e-17 2.99061)
(-1.02239e-18 -1.52638e-19 2.72085)
(4.14714e-17 -6.52227e-17 2.44832)
(2.46728e-18 -7.07312e-17 2.16238)
(-1.50204e-18 -1.51243e-16 1.88069)
(2.42892e-18 -3.84853e-17 1.60131)
(9.67564e-19 8.33911e-18 1.29973)
(1.05884e-17 7.41009e-17 1.00127)
(6.58517e-18 -9.04678e-17 0.6799)
(-9.19916e-18 1.36831e-16 0.358003)
(-2.80317e-18 -4.67765e-18 0.031041)
(1.03392e-18 4.34316e-17 -0.289152)
(-1.5663e-18 -4.69921e-17 -0.540809)
(1.36269e-18 9.71002e-17 -0.695147)
(-8.62725e-18 -2.2989e-18 -0.775794)
(3.18498e-18 1.98961e-18 -0.829577)
(1.29722e-17 9.57679e-18 -0.871435)
(-1.65164e-17 -4.85595e-17 -0.918427)
(-2.95907e-17 6.12324e-16 -1.02337)
(-2.77505e-17 1.66266e-16 -1.16408)
(-4.48089e-18 9.13215e-17 -1.33884)
(-7.50581e-18 -5.70754e-17 -1.5517)
(7.38095e-17 -4.89051e-16 -1.73782)
(-1.59379e-17 1.14706e-16 -1.8884)
(3.44273e-17 4.19823e-16 -1.97534)
(1.78152e-17 6.5453e-17 -1.98082)
(-2.12504e-17 -3.09473e-16 -1.9023)
(-2.1082e-17 5.30172e-17 -1.91722)
(1.71776e-17 3.30911e-17 -1.81901)
(3.90232e-17 -3.43189e-16 -1.75495)
(3.51803e-17 2.55156e-16 -1.59496)
(3.87041e-18 1.65586e-17 -1.34252)
(-1.8273e-18 -3.02528e-18 -0.993984)
(1.57031e-17 5.19474e-17 -0.525801)
(3.23351e-18 5.09541e-17 0.0787834)
(-3.55314e-19 -4.14716e-17 0.662352)
(-1.62682e-18 1.10711e-19 1.05088)
(-2.03228e-20 -4.55012e-17 1.33912)
(-2.67562e-19 4.29476e-17 1.5697)
(3.83906e-20 2.61496e-18 1.74779)
(1.08494e-19 4.31844e-17 1.88694)
(-1.39073e-19 -3.03305e-19 1.99407)
(8.95586e-20 -2.24856e-17 2.08013)
(-3.34083e-20 -1.91441e-17 2.15952)
(1.7257e-20 -1.98431e-17 2.23975)
(-1.96432e-19 2.01433e-17 2.3274)
(2.26981e-19 -3.64548e-19 2.42686)
(-1.70206e-19 1.96471e-17 2.54818)
(6.42073e-20 -2.0869e-17 2.68914)
(-6.78465e-20 -8.44502e-19 2.85212)
(3.75124e-19 -1.64767e-17 3.0388)
(-3.38033e-19 2.05055e-17 3.25134)
(4.24365e-19 -1.79175e-17 3.49287)
(-1.46356e-18 2.0146e-17 3.7683)
(1.31625e-18 -7.16599e-18 4.085)
(-2.91252e-19 9.46274e-18 4.45538)
(-2.83819e-19 -7.77069e-19 4.89803)
(1.55009e-20 2.29054e-18 5.44122)
(-4.84131e-19 5.80882e-18 6.13145)
(8.77094e-20 -7.58718e-18 7.04405)
(-7.10213e-20 2.00112e-18 8.2849)
(-7.3581e-19 4.19456e-21 9.94567)
(9.25122e-19 -6.67828e-19 11.7211)
(3.74202e-19 5.62048e-19 10.8299)
(-1.88034e-19 -1.99609e-19 -2.1103)
(-2.68871e-19 3.33601e-19 -6.50872)
(-1.46885e-18 1.11366e-19 1.12345)
(7.74584e-19 -6.09469e-19 3.8079)
(-1.40497e-19 3.63962e-19 4.8511)
(1.99121e-19 -5.43315e-19 5.25927)
(1.60641e-18 2.01887e-18 5.37944)
(-2.0398e-18 -1.54269e-18 5.3562)
(5.37999e-19 4.68183e-19 5.25799)
(2.43937e-19 9.0103e-19 5.11981)
(4.63366e-19 2.64605e-18 4.96226)
(2.41669e-19 1.25118e-18 4.79833)
(1.21236e-18 3.97023e-18 4.63618)
(-1.54502e-18 -1.10021e-17 4.48059)
(2.49683e-18 2.1788e-17 4.33444)
(-2.23171e-18 -7.8838e-18 4.19953)
(2.47632e-18 1.23475e-17 4.07683)
(-1.36129e-18 -6.3062e-18 3.96659)
(3.28182e-19 1.66768e-18 3.86876)
(4.88949e-18 2.73095e-17 3.78317)
(-4.84706e-18 -2.00131e-17 3.70957)
(4.00999e-19 -4.54982e-19 3.64767)
(4.33171e-18 7.01109e-18 3.59696)
(-5.17398e-18 -2.70675e-17 3.55652)
(-1.42445e-18 2.13088e-17 3.52494)
(2.67707e-18 3.00639e-17 3.50046)
(-4.34398e-18 -1.46766e-17 3.48093)
(6.08823e-18 -3.08129e-17 3.46351)
(1.39361e-18 2.06353e-17 3.44417)
(-4.00391e-18 2.94538e-18 3.41726)
(-4.18611e-18 -5.15738e-20 3.37654)
(8.39474e-18 2.03757e-19 3.31416)
(-4.96194e-19 -1.97219e-17 3.20797)
(2.04189e-17 8.32357e-17 3.08395)
(4.67994e-17 1.93709e-16 2.93043)
(-1.89835e-17 -9.48304e-17 2.7098)
(4.31387e-17 2.32078e-17 2.40804)
(-8.98227e-17 -1.73504e-16 2.08252)
(1.33297e-17 -6.02087e-17 1.86683)
(1.28575e-16 1.36179e-16 1.78536)
(-2.65393e-17 -3.66374e-17 1.8016)
(3.52979e-16 2.74012e-16 1.97189)
(9.49017e-18 1.484e-16 2.26307)
(-1.47746e-16 -2.37146e-18 2.62455)
(-1.14444e-16 -4.2766e-17 3.03066)
(9.13014e-18 -8.94588e-17 3.46018)
(1.97464e-16 2.1853e-16 3.88861)
(-4.92308e-16 -1.95597e-16 4.30093)
(-1.4115e-16 -8.98031e-17 4.68788)
(-4.21062e-17 -1.16463e-17 5.01094)
(-3.08555e-17 -4.82111e-17 5.29757)
(1.42764e-16 1.38248e-16 5.53674)
(-5.6982e-17 -8.24966e-18 5.70621)
(-5.83879e-17 -7.73212e-17 5.84211)
(1.33238e-17 -1.58158e-17 5.92281)
(1.25244e-16 1.35824e-17 6.06174)
(-4.85429e-17 2.7353e-17 6.2776)
(-5.74563e-17 -1.1847e-17 6.60759)
(2.39716e-17 -7.01845e-18 7.0733)
(2.25917e-18 4.83486e-18 7.68723)
(2.67477e-19 1.04149e-18 8.24474)
(2.21969e-18 6.38504e-18 8.63441)
(2.15758e-17 -1.92775e-17 8.6602)
(3.55232e-17 -7.1889e-17 8.20757)
(7.45476e-17 -1.65773e-16 7.47375)
(-3.33103e-17 1.72087e-16 6.46305)
(7.66697e-17 -2.61094e-16 5.49215)
(-2.7722e-17 4.5552e-17 4.64424)
(3.24053e-18 -5.94958e-17 3.92374)
(1.29554e-16 -5.82408e-16 3.35868)
(-9.89175e-17 6.85724e-16 2.93829)
(2.46386e-17 -1.12295e-16 2.63888)
(6.57437e-17 -3.20849e-16 2.42084)
(3.32837e-17 -3.81036e-18 2.25063)
(1.36055e-17 1.76889e-16 2.10649)
(3.81805e-17 -3.79604e-16 1.97053)
(-1.17922e-17 -1.30399e-16 1.82696)
(-6.64931e-17 6.11082e-16 1.66949)
(2.26634e-17 -9.51326e-17 1.4852)
(2.08515e-17 -7.49259e-17 1.28091)
(4.33534e-17 -4.37861e-16 1.05447)
(-4.08216e-17 5.12803e-16 0.812742)
(-1.22643e-17 -2.13901e-17 0.541238)
(1.08185e-17 -7.85301e-18 0.260395)
(2.56037e-19 2.63529e-18 -0.0363619)
(-1.54055e-17 1.95043e-16 -0.335324)
(4.3261e-19 -9.23871e-18 -0.640436)
(-9.26778e-19 -4.41886e-17 -0.910072)
(8.67936e-20 3.44326e-19 -1.10518)
(-3.78498e-19 -3.01807e-17 -1.19732)
(-8.29933e-18 -1.91147e-16 -1.16394)
(-1.19636e-18 9.13058e-19 -1.03382)
(-5.42497e-18 -4.24747e-16 -0.836447)
(-4.7834e-18 -2.8054e-16 -0.626413)
(4.89208e-18 4.98028e-16 -0.434551)
(-1.94912e-17 5.89104e-17 -0.299527)
(3.84268e-17 -2.36881e-16 -0.238789)
(2.58971e-17 -5.96718e-16 -0.285092)
(-2.04447e-18 -3.72328e-16 -0.400328)
(3.97037e-17 -1.05091e-17 -0.576673)
(-4.02127e-17 3.13791e-16 -0.777953)
(-2.23672e-19 5.7406e-17 -0.961887)
(-7.44366e-18 -3.70756e-16 -1.09741)
(2.54435e-17 -2.51747e-17 -1.16956)
(-3.75442e-17 3.52311e-16 -1.16905)
(7.96542e-18 -3.22144e-16 -1.10272)
(1.77853e-18 2.58984e-17 -0.988381)
(-5.18033e-17 -7.1275e-16 -0.849407)
(-8.73874e-17 -4.65219e-16 -0.707761)
(-5.42615e-17 -5.51502e-17 -0.581762)
(-4.27736e-17 -3.28628e-16 -0.480065)
(-2.88252e-17 -6.27023e-17 -0.412237)
(7.48482e-17 2.90626e-16 -0.366276)
(6.63571e-19 2.6675e-17 -0.353376)
(6.91461e-18 -2.07569e-16 -0.295478)
(2.44892e-18 3.31901e-18 -0.231935)
(4.10282e-18 1.23299e-18 -0.0652017)
(2.72236e-19 7.6729e-19 0.259136)
(-3.74301e-18 3.75042e-17 0.842857)
(-4.44508e-19 -9.85989e-19 1.62083)
(1.76705e-18 -4.53154e-18 2.53418)
(-3.08752e-18 1.08659e-17 3.30312)
(2.39954e-17 -2.10382e-17 3.86909)
(1.83113e-17 -1.27907e-17 4.08622)
(-2.83553e-18 -2.20511e-17 4.04203)
(2.11205e-17 -1.91099e-16 3.84738)
(-1.96454e-17 2.09729e-16 3.60351)
(1.15171e-16 -6.36574e-16 3.35682)
(1.07548e-16 -3.02099e-16 3.11045)
(7.31006e-17 -1.16479e-16 2.88537)
(5.42254e-17 -2.62027e-16 2.68686)
(1.3661e-17 9.69818e-18 2.5062)
(4.03285e-17 -3.03592e-16 2.33352)
(-2.638e-17 2.51696e-17 2.16056)
(8.35324e-18 -9.51221e-18 1.97763)
(1.20422e-17 -5.13552e-17 1.78069)
(-2.46253e-17 5.91767e-17 1.56684)
(1.97501e-17 -2.90812e-16 1.33096)
(3.38831e-17 -4.37578e-16 1.08182)
(-6.24461e-19 6.84669e-17 0.812108)
(-8.74294e-18 2.33705e-16 0.530646)
(-1.44406e-18 2.21262e-16 0.24293)
(1.31965e-17 -8.20031e-17 -0.0579934)
(8.65793e-18 -1.42445e-16 -0.353271)
(-8.96043e-19 -7.56711e-17 -0.651927)
(4.54412e-18 9.0315e-17 -0.923361)
(-1.36806e-18 1.75572e-17 -1.126)
(-3.1177e-19 5.47409e-20 -1.23683)
(-2.84943e-18 -1.38247e-16 -1.22555)
(-4.49556e-18 -9.20378e-17 -1.1131)
(-3.76314e-18 -2.79668e-16 -0.930341)
(7.87393e-18 1.15462e-16 -0.722785)
(3.21204e-19 -4.54418e-17 -0.536622)
(1.29619e-17 -2.41511e-16 -0.397455)
(-7.41341e-19 -5.91931e-16 -0.339338)
(-1.00429e-17 -3.53583e-16 -0.384942)
(6.6176e-18 7.90788e-18 -0.510647)
(3.84463e-17 -3.75418e-16 -0.706954)
(-5.14901e-17 9.24271e-16 -0.942466)
(-2.89565e-17 1.2985e-16 -1.17163)
(-3.68967e-18 -2.10172e-17 -1.36453)
(-4.08627e-17 3.39004e-16 -1.49796)
(3.47762e-17 5.64212e-17 -1.55874)
(-3.37771e-18 -1.4474e-17 -1.62118)
(-3.32364e-17 1.9464e-16 -1.54264)
(1.97054e-17 3.72547e-16 -1.67485)
(-2.5566e-18 1.64645e-17 -1.79772)
(3.50283e-18 5.39488e-18 -1.90177)
(8.36259e-18 -1.19647e-16 -2.02961)
(-9.92949e-18 1.00021e-16 -2.15559)
(4.26961e-19 2.38336e-18 -2.24509)
(6.05684e-19 -3.39789e-18 -2.26175)
(1.04356e-18 -4.77252e-17 -2.22012)
(8.36945e-19 2.44845e-19 -2.09154)
(-1.68542e-18 -2.83812e-18 -1.90466)
(7.70873e-19 -3.97961e-18 -1.69213)
(-4.003e-20 -4.38415e-17 -1.48178)
(-1.28787e-19 -2.96708e-18 -1.28967)
(1.10182e-19 4.4601e-17 -1.11964)
(7.0045e-20 -1.04484e-18 -0.969265)
(-3.53086e-19 2.08634e-17 -0.833864)
(3.11659e-20 -2.24567e-17 -0.708006)
(2.77621e-19 1.44806e-18 -0.587624)
(-6.42862e-20 7.47094e-21 -0.467404)
(-1.22835e-20 1.30536e-18 -0.339021)
(-8.52992e-20 1.79709e-18 -0.199591)
(-1.29368e-19 -1.94226e-17 -0.0462322)
(2.62037e-19 1.73534e-17 0.125706)
(-1.58385e-19 -1.6493e-17 0.319097)
(-6.20428e-19 3.26113e-17 0.538188)
(7.5233e-19 -2.7058e-17 0.789614)
(2.64767e-19 9.70929e-18 1.08227)
(1.47126e-20 2.19417e-18 1.43177)
(2.02835e-19 -1.12468e-18 1.85997)
(9.56368e-19 4.05629e-19 2.40321)
(-5.29028e-19 1.88489e-18 3.10735)
(-1.62547e-19 -9.36166e-19 3.98983)
(8.62793e-20 2.76349e-19 4.91618)
(-6.16955e-19 -5.2909e-20 5.11404)
(1.14119e-18 -6.37681e-19 1.8569)
(1.38498e-18 9.24244e-19 -9.53847)
(-7.50611e-19 3.71989e-19 -6.01537)
(3.00316e-20 -2.80149e-19 -1.27736)
(-4.55975e-19 2.31177e-19 0.842139)
(-8.64889e-19 1.02248e-19 1.96718)
(5.02009e-19 -8.15158e-19 2.65853)
(1.73809e-18 1.28288e-18 3.09419)
(-1.29517e-18 -4.25092e-19 3.37385)
(5.21734e-19 6.49664e-20 3.55029)
(-1.14522e-19 3.5764e-19 3.65677)
(-1.69435e-18 -1.50803e-18 3.71604)
(6.80972e-19 -1.61648e-19 3.74394)
(-3.03836e-19 -6.42035e-19 3.75141)
(-2.53263e-20 1.78109e-19 3.74579)
(-1.45007e-18 -2.15606e-18 3.73214)
(4.99814e-19 -1.7702e-19 3.71407)
(-9.78795e-19 1.94261e-19 3.69407)
(2.39902e-21 -1.35028e-18 3.67374)
(-3.76031e-19 -1.45501e-17 3.65412)
(-2.68732e-18 2.83146e-17 3.63592)
(1.96524e-18 -1.57194e-17 3.61956)
(2.23907e-18 -3.81779e-18 3.60525)
(-1.81912e-18 1.92024e-17 3.59284)
(1.05561e-18 -1.735e-17 3.58164)
(-2.20662e-18 -4.45075e-18 3.57045)
(-3.21084e-18 2.63311e-18 3.55761)
(1.2173e-18 -2.41308e-17 3.54098)
(1.61385e-18 1.7488e-17 3.5177)
(-3.16274e-18 -8.05382e-19 3.48367)
(5.34376e-19 2.48285e-17 3.43299)
(1.49898e-18 -2.16399e-17 3.35903)
(2.18354e-18 2.66578e-17 3.25494)
(-1.15538e-18 -2.0758e-17 3.0929)
(-2.79963e-17 -7.69865e-17 2.86283)
(-2.49089e-17 -5.03398e-17 2.5298)
(5.57273e-17 4.05789e-17 2.07605)
(-2.67438e-17 -1.3904e-17 1.52801)
(2.4475e-18 -3.12257e-17 0.974415)
(8.62006e-18 -2.79968e-17 0.537367)
(-2.21219e-17 -3.60638e-17 0.24855)
(-1.76722e-17 1.69637e-17 0.097234)
(-2.21312e-17 -6.91856e-17 0.116396)
(-2.10017e-17 -7.99347e-17 0.275537)
(4.61744e-16 2.08711e-16 0.53391)
(1.6537e-16 1.64197e-16 0.8653)
(4.20983e-17 4.35427e-17 1.24666)
(8.06576e-19 7.67979e-18 1.64779)
(7.23887e-17 1.22295e-17 2.04376)
(5.22786e-16 1.96526e-16 2.42341)
(2.10831e-16 1.60272e-16 2.75486)
(2.56078e-17 -2.30584e-17 3.00824)
(4.02191e-16 1.17596e-16 3.20047)
(-2.22218e-18 9.03086e-17 3.32078)
(-2.02424e-16 -5.10923e-17 3.37985)
(-3.67468e-19 -2.89247e-17 3.3895)
(-2.90852e-17 -3.60381e-17 3.3892)
(8.24134e-17 4.6474e-18 3.42038)
(3.73511e-17 1.45735e-17 3.49333)
(-4.06349e-17 5.38004e-18 3.6299)
(7.39944e-18 -4.33814e-18 3.86681)
(1.64656e-19 2.09708e-18 4.14107)
(-3.24526e-18 -1.01504e-17 4.44408)
(8.02542e-18 -2.07703e-17 4.66567)
(6.75006e-17 -1.18208e-16 4.65637)
(-8.96279e-17 1.69516e-16 4.31613)
(1.26006e-16 -3.6524e-16 3.77849)
(-4.26518e-17 7.87726e-17 3.15466)
(-6.59336e-17 2.6384e-16 2.46386)
(-1.04398e-17 4.05025e-17 1.79286)
(-1.26758e-16 3.25101e-16 1.24414)
(1.24939e-16 -4.84096e-16 0.823962)
(1.65252e-17 -1.97982e-16 0.528815)
(-2.56675e-17 2.08361e-17 0.337082)
(5.07571e-17 -3.3553e-16 0.217599)
(5.30569e-17 -2.53417e-16 0.139922)
(-4.37952e-17 9.6341e-17 0.0795017)
(-7.38834e-17 5.41173e-16 0.00998268)
(8.42792e-17 -4.0807e-16 -0.0627178)
(-6.99839e-18 4.26567e-17 -0.163667)
(9.71437e-18 -2.20124e-16 -0.294721)
(-5.55745e-17 2.75611e-16 -0.443582)
(6.47741e-17 -2.75101e-16 -0.60823)
(-3.89505e-18 2.19265e-16 -0.80163)
(1.54679e-18 -2.21366e-16 -1.00678)
(-9.00156e-18 1.72277e-17 -1.20189)
(7.68921e-18 -9.31306e-18 -1.38061)
(-1.14521e-19 -4.57361e-18 -1.51184)
(-9.39297e-19 5.58921e-17 -1.57895)
(7.05462e-20 -1.6656e-18 -1.54757)
(2.42377e-18 5.56812e-17 -1.39772)
(7.4161e-18 9.99296e-17 -1.1485)
(-3.02235e-18 -3.47626e-17 -0.835544)
(2.37706e-17 2.49923e-16 -0.493401)
(-3.4266e-18 2.50261e-16 -0.171534)
(-1.44727e-17 -2.56168e-16 0.096933)
(-1.35416e-17 -3.80767e-17 0.277664)
(7.07839e-18 2.6067e-16 0.353866)
(3.51884e-18 3.3443e-16 0.318316)
(1.76789e-17 3.67348e-17 0.197815)
(-6.09176e-17 3.29705e-16 0.0218027)
(4.66233e-17 -6.28319e-16 -0.166398)
(3.6988e-19 -5.19395e-17 -0.336266)
(2.36516e-17 2.55402e-17 -0.440422)
(-3.32687e-20 2.77598e-17 -0.468202)
(-8.83921e-18 -3.60633e-16 -0.421426)
(2.59606e-17 -2.39973e-17 -0.319367)
(-4.73252e-19 6.29033e-18 -0.193131)
(5.67312e-17 8.37564e-17 -0.0761528)
(5.02182e-17 -2.4754e-16 0.00401941)
(-5.81943e-18 -3.33088e-16 0.0286209)
(6.63264e-18 -1.65872e-17 -0.0059796)
(0 -0 -0.0964882)
(-8.57711e-18 -5.8526e-18 -0.22402)
(-1.01591e-17 -1.07058e-17 -0.394317)
(2.65187e-17 1.05825e-16 -0.56745)
(5.56557e-19 1.00438e-16 -0.769838)
(8.1401e-19 2.45308e-18 -0.96668)
(-2.22551e-19 5.31923e-18 -1.14487)
(8.15624e-19 -1.06395e-19 -1.22044)
(3.12217e-19 -8.1532e-20 -1.09631)
(-7.92587e-19 3.1958e-19 -0.882818)
(1.26256e-17 -6.01589e-18 -0.491851)
(-2.86541e-18 -8.68481e-18 -0.0564009)
(3.51432e-17 -1.93863e-16 0.254469)
(3.58368e-18 3.11177e-17 0.44822)
(-9.20913e-17 2.42444e-16 0.565934)
(9.65068e-17 -2.96193e-16 0.578087)
(-1.18825e-16 3.65275e-16 0.508681)
(-2.90039e-17 -3.00484e-17 0.415788)
(7.5695e-17 -2.73337e-16 0.335991)
(-5.07068e-17 2.6085e-16 0.263767)
(1.99628e-17 -1.88272e-16 0.198062)
(-4.85146e-17 2.9736e-16 0.134307)
(-2.64264e-18 -5.44594e-17 0.0642588)
(-1.38731e-17 -1.02598e-17 -0.0270197)
(1.57876e-17 3.30151e-17 -0.13895)
(-7.18607e-18 1.77149e-16 -0.267259)
(-4.09655e-17 9.58235e-17 -0.411584)
(-6.32675e-17 2.63593e-16 -0.568869)
(-2.44117e-17 2.50807e-17 -0.753449)
(3.21961e-17 -3.12418e-16 -0.954378)
(2.16998e-17 -4.01469e-16 -1.15316)
(-1.21185e-18 -2.07256e-16 -1.33639)
(-3.67695e-18 6.41282e-17 -1.49822)
(-2.19703e-18 4.34605e-17 -1.61206)
(2.08431e-18 -4.57292e-17 -1.66504)
(9.19404e-19 2.30282e-17 -1.62864)
(-1.54284e-18 -4.01218e-18 -1.47826)
(8.61557e-18 1.94618e-16 -1.22826)
(1.97703e-18 -5.23008e-18 -0.912356)
(1.67208e-17 2.76328e-16 -0.567141)
(-8.01892e-18 1.87672e-16 -0.239654)
(1.4623e-18 -1.77427e-18 0.0364118)
(1.67277e-17 2.0239e-16 0.220721)
(1.82867e-17 4.13302e-16 0.294411)
(4.53872e-17 -1.95812e-16 0.253753)
(-2.55762e-17 1.95683e-16 0.10979)
(-1.17102e-17 4.6737e-16 -0.0929935)
(-1.09635e-17 -4.23138e-16 -0.326963)
(3.10597e-17 -3.88492e-16 -0.547993)
(-4.53841e-17 4.24599e-16 -0.714314)
(4.85274e-18 -4.55712e-16 -0.811987)
(-4.19887e-17 3.09667e-16 -0.832755)
(1.49997e-17 1.44054e-16 -0.795516)
(-8.36723e-18 -3.8857e-16 -0.686523)
(-2.31355e-17 -4.03095e-17 -0.744297)
(-2.49308e-17 2.59265e-16 -0.836826)
(-4.54255e-18 6.74591e-17 -0.963676)
(2.19556e-18 1.22997e-16 -1.15901)
(2.33473e-18 -1.11855e-16 -1.41147)
(-2.58424e-18 5.0894e-17 -1.70763)
(3.31999e-18 -5.08606e-17 -1.98522)
(2.20285e-18 -1.23595e-18 -2.15804)
(-7.09334e-19 -2.63275e-18 -2.17985)
(7.67909e-19 -4.57135e-17 -2.08487)
(-8.62304e-19 4.99478e-17 -1.91619)
(1.27983e-19 4.74085e-17 -1.71294)
(2.55348e-19 -4.04265e-17 -1.50394)
(-4.88722e-19 2.24538e-17 -1.30593)
(2.03535e-19 -2.26449e-17 -1.12657)
(-2.44195e-20 2.72991e-19 -0.968228)
(-5.80106e-19 2.41526e-17 -0.82767)
(7.77637e-19 -2.14659e-17 -0.698678)
(-1.09808e-18 2.33501e-17 -0.58272)
(2.27859e-19 -2.12581e-17 -0.468712)
(7.38745e-19 -2.02678e-18 -0.350293)
(-1.00666e-18 2.48826e-18 -0.222074)
(4.8591e-19 -6.71899e-20 -0.0793426)
(-1.67423e-18 8.95495e-20 0.0818569)
(2.82783e-18 2.18317e-18 0.265841)
(-2.03876e-18 -1.21913e-19 0.477748)
(2.8154e-19 -2.96635e-19 0.72365)
(6.35951e-19 -3.59745e-18 1.01473)
(-1.27264e-18 2.83931e-19 1.3693)
(1.19326e-18 -8.4236e-19 1.81025)
(1.92223e-18 -4.17188e-18 2.34588)
(-1.33293e-18 3.00474e-18 2.90636)
(5.65307e-19 -4.34268e-19 3.17673)
(-3.91069e-19 2.58413e-20 2.26315)
(-5.61789e-19 3.05654e-19 -1.64026)
(-1.51312e-18 -4.34363e-19 -10.4344)
(1.03993e-18 1.46356e-19 -5.12946)
(-1.16535e-18 6.59782e-19 -1.97584)
(-1.83242e-18 -4.20194e-19 -0.345533)
(2.88688e-18 -8.51721e-20 0.629607)
(-5.273e-18 9.07736e-19 1.32758)
(1.51734e-18 -1.24645e-18 1.85388)
(4.30585e-19 6.12832e-19 2.24674)
(-1.0229e-18 -4.78654e-19 2.54299)
(-4.23097e-20 6.94113e-19 2.76858)
(-3.2268e-18 -3.89273e-18 2.94257)
(3.23666e-18 2.08031e-18 3.07883)
(-1.00723e-18 1.95789e-19 3.18719)
(-2.42652e-18 -5.29806e-18 3.27455)
(3.11056e-18 3.0946e-18 3.34582)
(-7.35611e-19 -5.14572e-19 3.40456)
(-4.4835e-19 7.12809e-21 3.45334)
(9.46016e-19 -1.88299e-18 3.49394)
(1.52837e-18 7.80539e-18 3.52757)
(-3.34537e-18 -2.12126e-17 3.555)
(3.20595e-18 8.83411e-18 3.57663)
(1.87462e-18 1.68552e-17 3.59249)
(-4.06931e-18 -1.2415e-17 3.60215)
(2.62449e-18 -2.38298e-18 3.60465)
(4.76043e-19 2.19665e-18 3.59842)
(5.65247e-19 6.88943e-19 3.58133)
(2.46101e-18 9.84826e-19 3.55063)