/*--------------------------------*- C++ -*----------------------------------*\
| =========                 |                                                 |
| \\      /  F ield         | OpenFOAM: The Open Source CFD Toolbox           |
|  \\    /   O peration     | Version:  2506                                  |
|   \\  /    A nd           | Website:  www.openfoam.com                      |
|    \\/     M anipulation  |                                                 |
\*---------------------------------------------------------------------------*/
FoamFile
{
    version     2.0;
    format      ascii;
    arch        "LSB;label=32;scalar=64";
    class       surfaceScalarField;
    location    "4.4";
    object      phi;
}
// * * * * * * * * * * * * * * * * * * * * * * * * * * * * * * * * * * * * * //

dimensions      [0 3 -1 0 0 0 0];

oriented        oriented;

internalField   nonuniform List<scalar> 
7780
(
2.05869e-09
4.41311e-10
1.55973e-09
4.98956e-10
1.20073e-09
3.59e-10
9.61045e-10
2.39689e-10
8.04211e-10
1.56834e-10
7.00287e-10
1.03924e-10
6.29516e-10
7.07707e-11
5.79563e-10
4.99533e-11
5.4297e-10
3.65935e-11
5.15177e-10
2.77928e-11
4.93392e-10
2.17846e-11
4.75841e-10
1.75511e-11
4.61334e-10
1.4507e-11
4.49055e-10
1.22794e-11
4.38418e-10
1.06371e-11
4.28978e-10
9.43955e-12
4.20386e-10
8.5919e-12
4.12358e-10
8.02847e-12
4.04653e-10
7.70533e-12
3.97062e-10
7.59079e-12
3.89402e-10
7.65951e-12
3.81511e-10
7.8913e-12
3.7324e-10
8.27035e-12
3.64456e-10
8.78475e-12
3.55029e-10
9.42703e-12
3.44833e-10
1.01951e-11
3.3374e-10
1.10934e-11
3.21604e-10
1.21358e-11
3.08253e-10
1.33509e-11
2.93456e-10
1.4797e-11
2.76854e-10
1.66023e-11
2.57801e-10
1.90527e-11
2.35278e-10
2.25236e-11
2.03284e-10
3.19943e-11
1.77753e-10
2.55317e-11
1.73638e-10
4.11481e-12
1.81862e-10
-8.22411e-12
1.95812e-10
-1.39512e-11
2.15849e-10
-2.00373e-11
2.44614e-10
-2.87635e-11
2.92844e-10
-4.82269e-11
3.47767e-10
-5.49179e-11
3.97657e-10
-4.98852e-11
4.43627e-10
-4.59666e-11
4.84035e-10
-4.04077e-11
5.20474e-10
-3.64399e-11
5.55022e-10
-3.4551e-11
5.82947e-10
-2.79289e-11
6.09016e-10
-2.60738e-11
6.31147e-10
-2.21351e-11
6.47933e-10
-1.67885e-11
6.6233e-10
-1.43984e-11
6.68121e-10
-5.79168e-12
6.71351e-10
-3.23042e-12
6.64033e-10
7.31906e-12
6.5106e-10
1.29735e-11
6.30061e-10
2.09991e-11
5.99307e-10
3.07545e-11
5.66801e-10
3.25058e-11
5.21483e-10
4.53175e-11
4.77811e-10
4.36724e-11
4.30647e-10
4.71649e-11
3.83582e-10
4.7066e-11
3.40034e-10
4.35502e-11
2.96951e-10
4.30848e-11
2.60244e-10
3.67079e-11
2.24998e-10
3.52465e-11
1.9559e-10
2.94058e-11
1.68694e-10
2.68909e-11
1.45587e-10
2.30983e-11
1.25733e-10
1.98406e-11
1.07573e-10
1.81417e-11
9.24151e-11
1.51372e-11
7.89239e-11
1.34684e-11
6.70033e-11
1.18981e-11
5.69208e-11
1.00624e-11
4.81806e-11
8.72453e-12
4.06311e-11
7.53988e-12
3.44309e-11
6.19731e-12
2.93414e-11
5.09319e-12
2.51738e-11
4.17713e-12
2.18455e-11
3.34199e-12
1.91272e-11
2.73469e-12
1.68217e-11
2.32282e-12
1.48083e-11
2.03084e-12
1.28062e-11
2.01915e-12
1.07149e-11
2.10739e-12
8.61679e-12
2.11313e-12
6.29614e-12
2.33396e-12
3.77581e-12
2.5314e-12
1.24484e-12
2.53932e-12
-1.43063e-12
2.68094e-12
-4.1376e-12
2.70965e-12
-6.7131e-12
2.57576e-12
-9.25047e-12
2.53581e-12
-1.14897e-11
2.23657e-12
-1.35186e-11
2.02559e-12
-1.51245e-11
1.60279e-12
-1.63362e-11
1.20881e-12
-1.6934e-11
5.9559e-13
-1.69106e-11
-2.51075e-14
-1.6239e-11
-6.72762e-13
-1.47792e-11
-1.46046e-12
-1.24124e-11
-2.36699e-12
-8.91668e-12
-3.49549e-12
-4.34517e-12
-4.57098e-12
1.65702e-12
-6.00141e-12
9.00699e-12
-7.34916e-12
1.79769e-11
-8.96925e-12
2.85956e-11
-1.06185e-11
4.10085e-11
-1.24136e-11
5.51385e-11
-1.41316e-11
7.12764e-11
-1.61405e-11
8.87293e-11
-1.74565e-11
1.08431e-10
-1.97059e-11
1.29234e-10
-2.08088e-11
1.51299e-10
-2.20705e-11
1.74674e-10
-2.33812e-11
1.98424e-10
-2.37566e-11
2.22547e-10
-2.41305e-11
2.47009e-10
-2.44696e-11
2.7098e-10
-2.3979e-11
2.94193e-10
-2.3223e-11
3.16881e-10
-2.26971e-11
3.38418e-10
-2.15468e-11
3.58804e-10
-2.03943e-11
3.77996e-10
-1.91994e-11
3.95814e-10
-1.78213e-11
4.12591e-10
-1.67782e-11
4.28868e-10
-1.6273e-11
4.43445e-10
-1.45692e-11
4.57542e-10
-1.40864e-11
4.72227e-10
-1.4672e-11
4.85115e-10
-1.2875e-11
4.98122e-10
-1.29922e-11
5.13023e-10
-1.48884e-11
5.24444e-10
-1.14106e-11
5.38237e-10
-1.37857e-11
5.49801e-10
-1.15586e-11
5.60781e-10
-1.09786e-11
5.69692e-10
-8.91173e-12
5.75356e-10
-5.66597e-12
5.76374e-10
-1.02083e-12
5.73599e-10
2.77329e-12
5.60648e-10
1.29499e-11
5.45657e-10
1.49915e-11
5.16873e-10
2.87834e-11
4.85229e-10
3.16441e-11
4.46983e-10
3.82461e-11
4.03161e-10
4.38219e-11
3.60048e-10
4.31115e-11
3.11998e-10
4.80489e-11
2.68803e-10
4.3193e-11
2.2448e-10
4.43199e-11
1.858e-10
3.86738e-11
1.48225e-10
3.7567e-11
1.15938e-10
3.2278e-11
8.61075e-11
2.98196e-11
6.09092e-11
2.51892e-11
3.96752e-11
2.12272e-11
3.9415e-11
2.57399e-13
4.17991e-11
-2.38457e-12
4.75313e-11
-5.73157e-12
5.7163e-11
-9.63123e-12
7.37374e-11
-1.65746e-11
9.73216e-11
-2.35854e-11
1.32935e-10
-3.56151e-11
1.70047e-10
-3.71138e-11
2.03091e-10
-3.30453e-11
2.32374e-10
-2.92843e-11
2.57807e-10
-2.54342e-11
2.79314e-10
-2.15086e-11
2.96984e-10
-1.7671e-11
3.11074e-10
-1.40909e-11
3.2197e-10
-1.08968e-11
3.30148e-10
-8.17795e-12
3.36136e-10
-5.98787e-12
3.4048e-10
-4.34333e-12
3.43697e-10
-3.21587e-12
3.46281e-10
-2.58236e-12
3.48632e-10
-2.34905e-12
3.51045e-10
-2.41109e-12
3.5371e-10
-2.66323e-12
3.5671e-10
-2.99793e-12
3.60021e-10
-3.30954e-12
3.63528e-10
-3.50595e-12
3.67051e-10
-3.52149e-12
3.70374e-10
-3.32283e-12
3.73282e-10
-2.90758e-12
3.75583e-10
-2.30108e-12
3.77126e-10
-1.5441e-12
3.77792e-10
-6.66668e-13
3.77589e-10
2.02713e-13
3.76548e-10
1.04018e-12
3.7473e-10
1.81668e-12
3.72232e-10
2.49743e-12
3.6914e-10
3.09156e-12
3.65481e-10
3.65845e-12
3.61014e-10
4.46677e-12
6.80729e-12
2.64884e-09
2.92475e-10
2.59888e-09
5.48908e-10
2.42107e-09
5.36816e-10
2.20586e-09
4.54893e-10
2.00062e-09
3.62083e-10
1.82827e-09
2.76271e-10
1.6901e-09
2.08936e-10
1.58074e-09
1.59314e-10
1.49415e-09
1.23185e-10
1.42498e-09
9.69629e-11
1.36904e-09
7.77297e-11
1.32311e-09
6.34782e-11
1.28477e-09
5.28428e-11
1.25222e-09
4.48281e-11
1.22409e-09
3.87743e-11
1.19927e-09
3.42536e-11
1.1769e-09
3.09613e-11
1.15625e-09
2.86796e-11
1.1367e-09
2.72577e-11
1.11771e-09
2.6584e-11
1.0988e-09
2.65688e-11
1.07955e-09
2.71408e-11
1.05958e-09
2.8244e-11
1.03852e-09
2.98366e-11
1.01606e-09
3.18926e-11
9.91849e-10
3.44043e-11
9.65556e-10
3.7386e-11
9.36813e-10
4.08794e-11
9.05197e-10
4.49664e-11
8.70199e-10
4.97953e-11
8.31158e-10
5.56436e-11
7.87164e-10
6.30466e-11
7.3673e-10
7.29584e-11
6.75031e-10
9.36934e-11
6.24121e-10
7.64423e-11
6.08252e-10
1.99837e-11
6.19531e-10
-1.95038e-11
6.49322e-10
-4.37434e-11
6.96532e-10
-6.72494e-11
7.6382e-10
-9.60534e-11
8.5837e-10
-1.42777e-10
9.62129e-10
-1.58675e-10
1.06191e-09
-1.49663e-10
1.15582e-09
-1.39871e-10
1.2411e-09
-1.2569e-10
1.31929e-09
-1.14619e-10
1.39202e-09
-1.07282e-10
1.45488e-09
-9.07927e-11
1.51247e-09
-8.36585e-11
1.56234e-09
-7.20059e-11
1.60311e-09
-5.75694e-11
1.63662e-09
-4.79025e-11
1.65686e-09
-2.60374e-11
1.6682e-09
-1.45747e-11
1.66372e-09
1.18023e-11
1.64668e-09
3.00083e-11
1.61413e-09
5.35585e-11
1.5644e-09
8.04796e-11
1.5042e-09
9.2709e-11
1.42421e-09
1.25304e-10
1.33819e-09
1.29689e-10
1.24328e-09
1.42074e-10
1.14448e-09
1.45869e-10
1.04664e-09
1.41393e-10
9.48738e-10
1.40983e-10
8.57967e-10
1.27478e-10
7.70887e-10
1.22324e-10
6.9257e-10
1.07719e-10
6.20381e-10
9.9075e-11
5.55623e-10
8.78494e-11
4.9805e-10
7.74068e-11
4.45527e-10
7.06587e-11
3.99407e-10
6.12521e-11
3.58104e-10
5.47687e-11
3.21068e-10
4.8936e-11
2.88497e-10
4.26387e-11
2.59652e-10
3.7578e-11
2.34083e-10
3.31199e-11
2.11825e-10
2.84685e-11
1.92532e-10
2.43975e-11
1.75781e-10
2.09387e-11
1.61305e-10
1.7826e-11
1.48679e-10
1.53659e-11
1.37483e-10
1.35215e-11
1.27389e-10
1.21257e-11
1.17889e-10
1.15189e-11
1.0864e-10
1.13549e-11
9.96578e-11
1.10939e-11
9.05801e-11
1.14094e-11
8.13455e-11
1.17634e-11
7.22915e-11
1.15905e-11
6.32689e-11
1.17007e-11
5.44359e-11
1.15403e-11
4.6249e-11
1.07608e-11
3.8505e-11
1.02787e-11
3.18949e-11
8.84608e-12
2.61704e-11
7.75014e-12
2.20085e-11
5.76498e-12
1.92075e-11
4.01043e-12
1.85227e-11
1.28089e-12
1.97267e-11
-1.22877e-12
2.3632e-11
-4.5779e-12
3.02175e-11
-8.04621e-12
3.97494e-11
-1.18994e-11
5.2838e-11
-1.65847e-11
6.92606e-11
-2.09944e-11
8.984e-11
-2.65815e-11
1.14284e-10
-3.17938e-11
1.43004e-10
-3.76899e-11
1.75932e-10
-4.35459e-11
2.13071e-10
-4.95522e-11
2.54171e-10
-5.52316e-11
2.9924e-10
-6.12086e-11
3.47252e-10
-6.54675e-11
3.98853e-10
-7.13063e-11
4.52357e-10
-7.43115e-11
5.07593e-10
-7.7306e-11
5.64156e-10
-7.99439e-11
6.20699e-10
-8.02993e-11
6.76926e-10
-8.03573e-11
7.32477e-10
-8.00205e-11
7.86224e-10
-7.77264e-11
8.37847e-10
-7.48468e-11
8.87436e-10
-7.22888e-11
9.34335e-10
-6.84492e-11
9.78596e-10
-6.46596e-11
1.02024e-09
-6.08524e-11
1.05927e-09
-5.68511e-11
1.09625e-09
-5.37681e-11
1.1318e-09
-5.18284e-11
1.16487e-09
-4.76404e-11
1.19703e-09
-4.62551e-11
1.22952e-09
-4.71594e-11
1.25989e-09
-4.32429e-11
1.29072e-09
-4.38216e-11
1.32265e-09
-4.68196e-11
1.35143e-09
-4.0176e-11
1.38144e-09
-4.37916e-11
1.40863e-09
-3.87433e-11
1.43341e-09
-3.57605e-11
1.45401e-09
-2.95147e-11
1.46795e-09
-1.96044e-11
1.4735e-09
-6.5662e-12
1.46913e-09
7.13985e-12
1.45042e-09
3.16639e-11
1.42138e-09
4.40292e-11
1.3721e-09
7.80609e-11
1.31149e-09
9.22505e-11
1.23698e-09
1.12762e-10
1.1499e-09
1.30901e-10
1.05754e-09
1.35469e-10
9.55401e-10
1.50185e-10
8.54957e-10
1.43635e-10
7.5162e-10
1.47654e-10
6.54082e-10
1.36209e-10
5.58547e-10
1.331e-10
4.70817e-10
1.20008e-10
3.8909e-10
1.11547e-10
3.18214e-10
9.60675e-11
2.58989e-10
8.04532e-11
2.4101e-10
1.82374e-11
2.4037e-10
-1.74514e-12
2.5307e-10
-1.84319e-11
2.78766e-10
-3.53275e-11
3.21966e-10
-5.97755e-11
3.8185e-10
-8.34698e-11
4.61169e-10
-1.14935e-10
5.42604e-10
-1.18549e-10
6.17155e-10
-1.07596e-10
6.83962e-10
-9.60907e-11
7.4257e-10
-8.40404e-11
7.92828e-10
-7.1765e-11
8.34936e-10
-5.97783e-11
8.69449e-10
-4.86027e-11
8.97202e-10
-3.86503e-11
9.19232e-10
-3.02085e-11
9.36685e-10
-2.34418e-11
9.50732e-10
-1.83911e-11
9.62485e-10
-1.49707e-11
9.72929e-10
-1.30275e-11
9.82852e-10
-1.22734e-11
9.92808e-10
-1.23683e-11
1.0031e-09
-1.2955e-11
1.01378e-09
-1.36793e-11
1.02469e-09
-1.42157e-11
1.03548e-09
-1.42979e-11
1.04571e-09
-1.37464e-11
1.05487e-09
-1.24837e-11
1.06249e-09
-1.05305e-11
1.06819e-09
-7.99292e-12
1.07168e-09
-5.03848e-12
1.07288e-09
-1.86131e-12
1.07181e-09
1.27103e-12
1.06864e-09
4.20895e-12
1.06367e-09
6.78749e-12
1.05725e-09
8.91057e-12
1.04978e-09
1.05611e-11
1.04161e-09
1.18356e-11
1.03304e-09
1.30287e-11
1.56056e-11
2.61925e-09
1.73224e-10
2.75225e-09
4.15913e-10
2.7898e-09
4.9926e-10
2.74826e-09
4.96433e-10
2.66043e-09
4.49912e-10
2.5503e-09
3.86403e-10
2.43687e-09
3.22365e-10
2.33184e-09
2.64352e-10
2.2389e-09
2.1612e-10
2.1584e-09
1.77461e-10
2.08945e-09
1.46686e-10
2.03043e-09
1.22493e-10
1.97965e-09
1.0362e-10
1.93561e-09
8.88681e-11
1.89699e-09
7.73966e-11
1.86263e-09
6.8616e-11
1.83153e-09
6.20561e-11
1.80284e-09
5.73684e-11
1.77579e-09
5.43069e-11
1.74969e-09
5.26842e-11
1.72392e-09
5.23457e-11
1.69789e-09
5.31683e-11
1.67108e-09
5.50548e-11
1.64299e-09
5.79309e-11
1.61313e-09
6.17502e-11
1.58103e-09
6.64993e-11
1.54622e-09
7.22032e-11
1.50816e-09
7.89342e-11
1.4663e-09
8.68272e-11
1.41999e-09
9.61092e-11
1.36847e-09
1.07159e-10
1.31089e-09
1.20627e-10
1.2462e-09
1.37651e-10
1.17102e-09
1.68866e-10
1.10648e-09
1.40985e-10
1.07855e-09
4.79215e-11
1.08458e-09
-2.55363e-11
1.11824e-09
-7.74105e-11
1.17762e-09
-1.26623e-10
1.26237e-09
-1.80808e-10
1.37378e-09
-2.54192e-10
1.49441e-09
-2.79307e-10
1.61402e-09
-2.69272e-10
1.72835e-09
-2.54196e-10
1.83391e-09
-2.31247e-10
1.93139e-09
-2.12097e-10
2.0217e-09
-1.97585e-10
2.10176e-09
-1.70852e-10
2.1749e-09
-1.56802e-10
2.23911e-09
-1.3621e-10
2.29331e-09
-1.11778e-10
2.33813e-09
-9.27208e-11
2.37003e-09
-5.79437e-11
2.39077e-09
-3.53145e-11
2.39579e-09
6.77925e-12
2.38634e-09
3.94607e-11
2.36013e-09
7.97707e-11
2.31537e-09
1.25235e-10
2.25595e-09
1.52134e-10
2.17531e-09
2.05939e-10
2.08257e-09
2.22436e-10
1.97617e-09
2.48471e-10
1.86059e-09
2.61446e-10
1.74026e-09
2.61719e-10
1.61604e-09
2.65205e-10
1.49463e-09
2.48883e-10
1.37502e-09
2.41938e-10
1.26239e-09
2.20343e-10
1.15585e-09
2.05608e-10
1.05715e-09
1.86546e-10
9.66873e-10
1.67684e-10
8.83232e-10
1.54299e-10
8.07768e-10
1.36717e-10
7.39059e-10
1.23482e-10
6.76508e-10
1.11494e-10
6.20308e-10
9.88475e-11
5.69627e-10
8.82699e-11
5.23904e-10
7.88526e-11
4.83087e-10
6.92948e-11
4.46805e-10
6.06857e-11
4.14526e-10
5.32215e-11
3.85949e-10
4.64043e-11
3.60552e-10
4.07621e-11
3.37793e-10
3.62782e-11
3.17243e-10
3.26727e-11
2.98161e-10
3.05966e-11
2.79994e-10
2.95177e-11
2.62722e-10
2.83623e-11
2.4574e-10
2.83874e-11
2.28921e-10
2.8578e-11
2.12703e-10
2.78054e-11
1.96898e-10
2.7503e-11
1.81702e-10
2.67337e-11
1.67885e-10
2.45757e-11
1.55091e-10
2.30716e-11
1.44502e-10
1.94353e-11
1.35647e-10
1.66052e-11
1.29711e-10
1.17017e-11
1.26251e-10
7.47145e-12
1.26674e-10
8.58639e-13
1.30451e-10
-5.00493e-12
1.38809e-10
-1.29354e-11
1.51731e-10
-2.09684e-11
1.69634e-10
-2.98034e-11
1.93393e-10
-4.03445e-11
2.22535e-10
-5.0137e-11
2.58136e-10
-6.21834e-11
2.99604e-10
-7.32622e-11
3.47273e-10
-8.53596e-11
4.00855e-10
-9.71282e-11
4.60038e-10
-1.08735e-10
5.24297e-10
-1.19489e-10
5.93258e-10
-1.30169e-10
6.65585e-10
-1.37794e-10
7.41518e-10
-1.47239e-10
8.19099e-10
-1.5189e-10
8.97855e-10
-1.5606e-10
9.77077e-10
-1.59164e-10
1.05534e-09
-1.58564e-10
1.13218e-09
-1.57187e-10
1.20708e-09
-1.5492e-10
1.279e-09
-1.49643e-10
1.34769e-09
-1.43534e-10
1.41312e-09
-1.37727e-10
1.47487e-09
-1.30196e-10
1.53306e-09
-1.22844e-10
1.58779e-09
-1.15589e-10
1.63926e-09
-1.0833e-10
1.68806e-09
-1.02567e-10
1.73463e-09
-9.84132e-11
1.77867e-09
-9.16889e-11
1.82128e-09
-8.88633e-11
1.86343e-09
-8.93206e-11
1.90358e-09
-8.33903e-11
1.94376e-09
-8.40052e-11
1.98373e-09
-8.67863e-11
2.02119e-09
-7.76371e-11
2.05827e-09
-8.08697e-11
2.09236e-09
-7.28315e-11
2.12284e-09
-6.62384e-11
2.14836e-09
-5.50244e-11
2.16613e-09
-3.73778e-11
2.17484e-09
-1.52696e-11
2.17208e-09
9.8969e-12
2.15474e-09
4.89965e-11
2.12408e-09
7.46949e-11
2.0734e-09
1.28741e-10
2.00742e-09
1.58225e-10
1.92458e-09
1.95606e-10
1.82504e-09
2.30435e-10
1.71474e-09
2.4577e-10
1.59021e-09
2.74714e-10
1.46142e-09
2.72425e-10
1.32531e-09
2.83762e-10
1.19058e-09
2.7094e-10
1.05489e-09
2.68792e-10
9.24906e-10
2.4999e-10
8.01107e-10
2.35348e-10
6.92124e-10
2.05054e-10
5.98686e-10
1.73892e-10
5.58911e-10
5.80121e-11
5.48248e-10
8.91615e-12
5.61101e-10
-3.12863e-11
5.95415e-10
-6.96425e-11
6.55135e-10
-1.19496e-10
7.36731e-10
-1.65066e-10
8.39558e-10
-2.17763e-10
9.43672e-10
-2.22663e-10
1.03987e-09
-2.03793e-10
1.12691e-09
-1.83133e-10
1.20411e-09
-1.61239e-10
1.27127e-09
-1.38918e-10
1.32859e-09
-1.17101e-10
1.3767e-09
-9.67091e-11
1.41654e-09
-7.84943e-11
1.44932e-09
-6.29935e-11
1.4764e-09
-5.05207e-11
1.49917e-09
-4.1162e-11
1.51898e-09
-3.47811e-11
1.537e-09
-3.10524e-11
1.55419e-09
-2.94671e-11
1.57122e-09
-2.93997e-11
1.58844e-09
-3.01736e-11
1.60589e-09
-3.11218e-11
1.62332e-09
-3.16442e-11
1.64028e-09
-3.12569e-11
1.65617e-09
-2.96341e-11
1.67032e-09
-2.66401e-11
1.68212e-09
-2.23258e-11
1.69104e-09
-1.69047e-11
1.69671e-09
-1.07157e-11
1.69902e-09
-4.16716e-12
1.69801e-09
2.28078e-12
1.69396e-09
8.25749e-12
1.68732e-09
1.34312e-11
1.67864e-09
1.75856e-11
1.66857e-09
2.06287e-11
1.65778e-09
2.26238e-11
1.64708e-09
2.37333e-11
2.54438e-11
2.56733e-09
1.05897e-10
2.69659e-09
2.86648e-10
2.80571e-09
3.90143e-10
2.87296e-09
4.2918e-10
2.89442e-09
4.28452e-10
2.87773e-09
4.03092e-10
2.83751e-09
3.62593e-10
2.78413e-09
3.17731e-10
2.7253e-09
2.74947e-10
2.66669e-09
2.3607e-10
2.61132e-09
2.02059e-10
2.56017e-09
1.73646e-10
2.51348e-09
1.50306e-10
2.47114e-09
1.31208e-10
2.43269e-09
1.15846e-10
2.39753e-09
1.03773e-10
2.36506e-09
9.4526e-11
2.33468e-09
8.77555e-11
2.30577e-09
8.32152e-11
2.27775e-09
8.07062e-11
2.25004e-09
8.00548e-11
2.22208e-09
8.11256e-11
2.19333e-09
8.38092e-11
2.16324e-09
8.802e-11
2.13128e-09
9.37063e-11
2.09692e-09
1.00858e-10
2.05961e-09
1.09515e-10
2.01877e-09
1.19778e-10
1.97377e-09
1.31823e-10
1.92395e-09
1.4593e-10
1.86858e-09
1.62525e-10
1.80695e-09
1.82266e-10
1.73836e-09
2.0624e-10
1.66028e-09
2.46942e-10
1.59059e-09
2.10679e-10
1.55319e-09
8.53213e-11
1.54995e-09
-2.22969e-11
1.57813e-09
-1.05596e-10
1.63579e-09
-1.8428e-10
1.72001e-09
-2.65032e-10
1.82834e-09
-3.62524e-10
1.94577e-09
-3.9674e-10
2.06506e-09
-3.88568e-10
2.18059e-09
-3.6972e-10
2.28847e-09
-3.39123e-10
2.38871e-09
-3.12337e-10
2.48178e-09
-2.90649e-10
2.56533e-09
-2.54401e-10
2.64221e-09
-2.33679e-10
2.71056e-09
-2.04557e-10
2.76941e-09
-1.70628e-10
2.81919e-09
-1.42504e-10
2.8581e-09
-9.68523e-11
2.8864e-09
-6.36164e-11
2.90179e-09
-8.61563e-12
2.90399e-09
3.726e-11
2.89166e-09
9.20998e-11
2.86297e-09
1.53925e-10
2.81968e-09
1.95431e-10
2.7572e-09
2.68411e-10
2.68045e-09
2.9919e-10
2.58799e-09
3.40928e-10
2.48275e-09
3.66683e-10
2.36762e-09
3.76847e-10
2.24406e-09
3.88765e-10
2.11741e-09
3.75538e-10
1.98818e-09
3.7116e-10
1.86127e-09
3.47256e-10
1.73729e-09
3.29584e-10
1.61854e-09
3.05296e-10
1.50659e-09
2.79626e-10
1.40049e-09
2.604e-10
1.30226e-09
2.34952e-10
1.21095e-09
2.14799e-10
1.12629e-09
1.96166e-10
1.04866e-09
1.76481e-10
9.77327e-10
1.59611e-10
9.11831e-10
1.44356e-10
8.52112e-10
1.2902e-10
7.97877e-10
1.14924e-10
7.48598e-10
1.02502e-10
7.04056e-10
9.0946e-11
6.63768e-10
8.10481e-11
6.27218e-10
7.28247e-11
5.94008e-10
6.58782e-11
5.63318e-10
6.12826e-11
5.34468e-10
5.83631e-11
5.07422e-10
5.5404e-11
4.81333e-10
5.44722e-11
4.55995e-10
5.39111e-11
4.31845e-10
5.19516e-11
4.08659e-10
5.06858e-11
3.86617e-10
4.8774e-11
3.66804e-10
4.43862e-11
3.48722e-10
4.11525e-11
3.34055e-10
3.41025e-11
3.22139e-10
2.85213e-11
3.14666e-10
1.91753e-11
3.10959e-10
1.11789e-11
3.13041e-10
-1.22234e-12
3.2002e-10
-1.1983e-11
3.33592e-10
-2.65067e-11
3.53574e-10
-4.09504e-11
3.80466e-10
-5.66959e-11
4.15219e-10
-7.50984e-11
4.57043e-10
-9.19615e-11
5.07032e-10
-1.12173e-10
5.64207e-10
-1.30438e-10
6.28623e-10
-1.49776e-10
6.99689e-10
-1.68194e-10
7.76646e-10
-1.85692e-10
8.58672e-10
-2.01515e-10
9.44975e-10
-2.16471e-10
1.03396e-09
-2.26778e-10
1.12553e-09
-2.38802e-10
1.21758e-09
-2.43943e-10
1.30948e-09
-2.47958e-10
1.40042e-09
-2.50103e-10
1.48907e-09
-2.47214e-10
1.57496e-09
-2.43075e-10
1.65768e-09
-2.37634e-10
1.7364e-09
-2.28354e-10
1.81104e-09
-2.18178e-10
1.88166e-09
-2.08339e-10
1.94807e-09
-1.96604e-10
2.01053e-09
-1.85307e-10
2.06928e-09
-1.7434e-10
2.12465e-09
-1.63706e-10
2.17719e-09
-1.55114e-10
2.22732e-09
-1.4855e-10
2.27515e-09
-1.39519e-10
2.32127e-09
-1.34994e-10
2.36661e-09
-1.34666e-10
2.41016e-09
-1.26941e-10
2.45326e-09
-1.2711e-10
2.49528e-09
-1.28805e-10
2.5353e-09
-1.17659e-10
2.57382e-09
-1.19393e-10
2.60951e-09
-1.08516e-10
2.64117e-09
-9.78903e-11
2.66806e-09
-8.19104e-11
2.68763e-09
-5.69473e-11
2.69916e-09
-2.67975e-11
2.70013e-09
8.92704e-12
2.68871e-09
6.04137e-11
2.66435e-09
9.90532e-11
2.62311e-09
1.69978e-10
2.56637e-09
2.14963e-10
2.49312e-09
2.68857e-10
2.40209e-09
3.21468e-10
2.29733e-09
3.50529e-10
2.17541e-09
3.96628e-10
2.0439e-09
4.03934e-10
1.90014e-09
4.27529e-10
1.75176e-09
4.19316e-10
1.59714e-09
4.23411e-10
1.44314e-09
4.03991e-10
1.29244e-09
3.86045e-10
1.15785e-09
3.39644e-10
1.0394e-09
2.92348e-10
9.79533e-10
1.17874e-10
9.55697e-10
3.275e-11
9.63048e-10
-3.86383e-11
9.9844e-10
-1.05035e-10
1.06466e-09
-1.85716e-10
1.15498e-09
-2.55381e-10
1.26601e-09
-3.28797e-10
1.37695e-09
-3.33598e-10
1.47945e-09
-3.06296e-10
1.57266e-09
-2.76343e-10
1.65602e-09
-2.446e-10
1.72942e-09
-2.12313e-10
1.79308e-09
-1.80765e-10
1.84759e-09
-1.51217e-10
1.89382e-09
-1.24724e-10
1.93288e-09
-1.02062e-10
1.96606e-09
-8.37013e-11
1.99469e-09
-6.9795e-11
2.02009e-09
-6.01772e-11
2.04342e-09
-5.43887e-11
2.06566e-09
-5.17129e-11
2.08751e-09
-5.12484e-11
2.10934e-09
-5.20038e-11
2.13121e-09
-5.29954e-11
2.15291e-09
-5.33377e-11
2.17396e-09
-5.23072e-11
2.19373e-09
-4.94028e-11
2.2115e-09
-4.44082e-11
2.22657e-09
-3.7385e-11
2.23831e-09
-2.86423e-11
2.24628e-09
-1.86915e-11
2.25029e-09
-8.17005e-12
2.25034e-09
2.23518e-12
2.2467e-09
1.18911e-11
2.23987e-09
2.02595e-11
2.2305e-09
2.69543e-11
2.21937e-09
3.17642e-11
2.20731e-09
3.46806e-11
2.19529e-09
3.57518e-11
3.63686e-11
2.53833e-09
6.7565e-11
2.63117e-09
1.93811e-10
2.7376e-09
2.83716e-10
2.83188e-09
3.34895e-10
2.90399e-09
3.56345e-10
2.95189e-09
3.55186e-10
2.97586e-09
3.38625e-10
2.97984e-09
3.1375e-10
2.96992e-09
2.84872e-10
2.95124e-09
2.54743e-10
2.92732e-09
2.25987e-10
2.90041e-09
2.00552e-10
2.87248e-09
1.78236e-10
2.84471e-09
1.58981e-10
2.81754e-09
1.43017e-10
2.79114e-09
1.30164e-10
2.76557e-09
1.20099e-10
2.7407e-09
1.12626e-10
2.71631e-09
1.0761e-10
2.69209e-09
1.04925e-10
2.66771e-09
1.04436e-10
2.64277e-09
1.06064e-10
2.61685e-09
1.09731e-10
2.58949e-09
1.15378e-10
2.56022e-09
1.22979e-10
2.52852e-09
1.32549e-10
2.49389e-09
1.44154e-10
2.45574e-09
1.57925e-10
2.41349e-09
1.74072e-10
2.36652e-09
1.92901e-10
2.31419e-09
2.14853e-10
2.25592e-09
2.40539e-10
2.19123e-09
2.70929e-10
2.11824e-09
3.19936e-10
2.05055e-09
2.78364e-10
2.00778e-09
1.28097e-10
1.99493e-09
-9.45106e-12
2.01274e-09
-1.23402e-10
2.05984e-09
-2.31388e-10
2.13212e-09
-3.3731e-10
2.22542e-09
-4.55825e-10
2.32792e-09
-4.99243e-10
2.43488e-09
-4.95527e-10
2.53969e-09
-4.74534e-10
2.63832e-09
-4.37753e-10
2.73034e-09
-4.04354e-10
2.81591e-09
-3.76218e-10
2.89397e-09
-3.32459e-10
2.96551e-09
-3.05222e-10
3.02949e-09
-2.68529e-10
3.08619e-09
-2.27328e-10
3.13499e-09
-1.91307e-10
3.17555e-09
-1.37413e-10
3.20741e-09
-9.54734e-11
3.22996e-09
-3.11656e-11
3.24231e-09
2.49065e-11
3.24391e-09
9.05022e-11
3.23322e-09
1.64612e-10
3.21055e-09
2.181e-10
3.17309e-09
3.05876e-10
3.12247e-09
3.4981e-10
3.05727e-09
4.06129e-10
2.97864e-09
4.45312e-10
2.88753e-09
4.67952e-10
2.78523e-09
4.91065e-10
2.6749e-09
4.85867e-10
2.55772e-09
4.88338e-10
2.43739e-09
4.67591e-10
2.31546e-09
4.51506e-10
2.19429e-09
4.26466e-10
2.07619e-09
3.97724e-10
1.96106e-09
3.75539e-10
1.85137e-09
3.44647e-10
1.74687e-09
3.19305e-10
1.6478e-09
2.95236e-10
1.55494e-09
2.69356e-10
1.46781e-09
2.46744e-10
1.38627e-09
2.25905e-10
1.31035e-09
2.04946e-10
1.23996e-09
1.85314e-10
1.17468e-09
1.67778e-10
1.11449e-09
1.5114e-10
1.05906e-09
1.36477e-10
1.00804e-09
1.23838e-10
9.61223e-10
1.12694e-10
9.17878e-10
1.04621e-10
8.7735e-10
9.88854e-11
8.39672e-10
9.30758e-11
8.03817e-10
9.03218e-11
7.6953e-10
8.8193e-11
7.37149e-10
8.43285e-11
7.06418e-10
8.14135e-11
6.77418e-10
7.77714e-11
6.51531e-10
7.02717e-11
6.2812e-10
6.45631e-11
6.09371e-10
5.28514e-11
5.94475e-10
4.34185e-11
5.8564e-10
2.80114e-11
5.81982e-10
1.48373e-11
5.86068e-10
-5.30661e-12
5.96663e-10
-2.25776e-11
6.1583e-10
-4.56726e-11
6.431e-10
-6.82206e-11
6.78959e-10
-9.25554e-11
7.2422e-10
-1.20359e-10
7.77715e-10
-1.45457e-10
8.4032e-10
-1.74779e-10
9.10632e-10
-2.0075e-10
9.88259e-10
-2.27403e-10
1.07229e-09
-2.52227e-10
1.16146e-09
-2.74864e-10
1.25471e-09
-2.94758e-10
1.35083e-09
-3.12594e-10
1.44812e-09
-3.24061e-10
1.54621e-09
-3.36887e-10
1.64305e-09
-3.40786e-10
1.73798e-09
-3.42887e-10
1.83029e-09
-3.42403e-10
1.91888e-09
-3.35802e-10
2.00344e-09
-3.27637e-10
2.08381e-09
-3.17997e-10
2.15946e-09
-3.03998e-10
2.23058e-09
-2.89302e-10
2.29737e-09
-2.75122e-10
2.35992e-09
-2.59157e-10
2.41865e-09
-2.44031e-10
2.47388e-09
-2.29577e-10
2.52607e-09
-2.15893e-10
2.57571e-09
-2.04758e-10
2.62316e-09
-1.96013e-10
2.66876e-09
-1.85122e-10
2.71259e-09
-1.78836e-10
2.75576e-09
-1.7784e-10
2.79752e-09
-1.68703e-10
2.83837e-09
-1.67964e-10
2.87771e-09
-1.68143e-10
2.91556e-09
-1.55515e-10
2.95131e-09
-1.55139e-10
2.98466e-09
-1.41862e-10
3.01415e-09
-1.27381e-10
3.03968e-09
-1.07439e-10
3.05913e-09
-7.6392e-11
3.0724e-09
-4.00637e-11
3.07717e-09
4.157e-12
3.0729e-09
6.46875e-11
3.05789e-09
1.14064e-10
3.0306e-09
1.97262e-10
2.98998e-09
2.55579e-10
2.93554e-09
3.23296e-10
2.86493e-09
3.92081e-10
2.78036e-09
4.35103e-10
2.67827e-09
4.98715e-10
2.56338e-09
5.18817e-10
2.43294e-09
5.57968e-10
2.29254e-09
5.59719e-10
2.14057e-09
5.75379e-10
1.98299e-09
5.61572e-10
1.82415e-09
5.44893e-10
1.68047e-09
4.83318e-10
1.55092e-09
4.219e-10
1.47779e-09
1.91005e-10
1.44263e-09
6.79014e-11
1.44238e-09
-3.83831e-11
1.47385e-09
-1.36505e-10
1.53884e-09
-2.5071e-10
1.62786e-09
-3.444e-10
1.73549e-09
-4.36419e-10
1.84152e-09
-4.39629e-10
1.93889e-09
-4.03669e-10
2.02737e-09
-3.64821e-10
2.10678e-09
-3.24006e-10
2.17723e-09
-2.82764e-10
2.23907e-09
-2.42604e-10
2.29285e-09
-2.05e-10
2.33934e-09
-1.71213e-10
2.37946e-09
-1.42188e-10
2.41427e-09
-1.18516e-10
2.44489e-09
-1.00411e-10
2.47241e-09
-8.77033e-11
2.49786e-09
-7.98471e-11
2.52211e-09
-7.59659e-11
2.54579e-09
-7.49292e-11
2.56927e-09
-7.54802e-11
2.59263e-09
-7.63589e-11
2.61572e-09
-7.64272e-11
2.63814e-09
-7.47266e-11
2.65931e-09
-7.05665e-11
2.67854e-09
-6.36363e-11
2.69514e-09
-5.39773e-11
2.70846e-09
-4.19604e-11
2.71802e-09
-2.82412e-11
2.72351e-09
-1.36628e-11
2.72489e-09
8.56271e-13
2.72235e-09
1.44295e-11
2.71632e-09
2.62868e-11
2.70743e-09
3.58446e-11
2.69645e-09
4.27414e-11
2.68426e-09
4.68744e-11
2.67179e-09
4.82225e-11
4.78893e-11
2.52326e-09
4.43011e-11
2.58626e-09
1.30815e-10
2.67044e-09
1.99541e-10
2.75961e-09
2.45717e-10
2.84359e-09
2.72372e-10
2.91572e-09
2.83051e-10
2.97306e-09
2.81286e-10
3.01603e-09
2.70779e-10
3.04642e-09
2.54482e-10
3.06518e-09
2.35983e-10
3.07405e-09
2.17117e-10
3.07625e-09
1.98354e-10
3.07381e-09
1.80673e-10
3.06783e-09
1.64965e-10
3.05904e-09
1.51803e-10
3.04826e-09
1.40947e-10
3.03604e-09
1.3232e-10
3.02267e-09
1.25992e-10
3.0083e-09
1.21979e-10
2.99295e-09
1.20274e-10
2.97659e-09
1.20797e-10
2.95906e-09
1.23599e-10
2.94013e-09
1.2866e-10
2.91952e-09
1.35985e-10
2.8969e-09
1.45603e-10
2.87187e-09
1.57581e-10
2.84399e-09
1.72028e-10
2.81281e-09
1.89114e-10
2.7778e-09
2.0908e-10
2.73845e-09
2.32249e-10
2.69425e-09
2.59056e-10
2.64472e-09
2.90061e-10
2.58955e-09
3.26107e-10
2.52743e-09
3.82053e-10
2.46743e-09
3.38366e-10
2.42373e-09
1.71794e-10
2.40336e-09
1.09237e-11
2.40991e-09
-1.29952e-10
2.44288e-09
-2.64362e-10
2.49795e-09
-3.92381e-10
2.57065e-09
-5.28526e-10
2.65261e-09
-5.81202e-10
2.74111e-09
-5.84034e-10
2.82883e-09
-5.62255e-10
2.91167e-09
-5.206e-10
2.98899e-09
-4.81666e-10
3.06084e-09
-4.48067e-10
3.12737e-09
-3.9899e-10
3.18776e-09
-3.6561e-10
3.2417e-09
-3.22465e-10
3.29069e-09
-2.76317e-10
3.33346e-09
-2.34075e-10
3.37071e-09
-1.74664e-10
3.40161e-09
-1.26379e-10
3.42676e-09
-5.63161e-11
3.44516e-09
6.50739e-12
3.45691e-09
7.8757e-11
3.46099e-09
1.60534e-10
3.45684e-09
2.22243e-10
3.44325e-09
3.19472e-10
3.4197e-09
3.73363e-10
3.38497e-09
4.40854e-10
3.33877e-09
4.91517e-10
3.2804e-09
5.26321e-10
3.21074e-09
5.6072e-10
3.13058e-09
5.66029e-10
3.04112e-09
5.77798e-10
2.94426e-09
5.64446e-10
2.84183e-09
5.53937e-10
2.73556e-09
5.32734e-10
2.62795e-09
5.05334e-10
2.51944e-09
4.84056e-10
2.4126e-09
4.51496e-10
2.30781e-09
4.24099e-10
2.20581e-09
3.97237e-10
2.10773e-09
3.67444e-10
2.01352e-09
3.4097e-10
1.92341e-09
3.16015e-10
1.83763e-09
2.90735e-10
1.75637e-09
2.66569e-10
1.67942e-09
2.44731e-10
1.60698e-09
2.23574e-10
1.53899e-09
2.0447e-10
1.47534e-09
1.87479e-10
1.41611e-09
1.71915e-10
1.36086e-09
1.59868e-10
1.30911e-09
1.50626e-10
1.26112e-09
1.41057e-10
1.21583e-09
1.35602e-10
1.17306e-09
1.30957e-10
1.133e-09
1.24384e-10
1.0954e-09
1.19012e-10
1.06015e-09
1.13018e-10
1.02886e-09
1.01564e-10
1.00073e-09
9.26954e-11
9.78387e-10
7.51967e-11
9.60913e-10
6.08934e-11
9.51014e-10
3.79127e-11
9.47645e-10
1.82078e-11
9.53852e-10
-1.15121e-11
9.68064e-10
-3.67886e-11
9.92606e-10
-7.02138e-11
1.02662e-09
-1.02239e-10
1.07051e-09
-1.36439e-10
1.12471e-09
-1.74566e-10
1.18769e-09
-2.08434e-10
1.25987e-09
-2.4696e-10
1.33945e-09
-2.80329e-10
1.42548e-09
-3.13434e-10
1.51678e-09
-3.43526e-10
1.61157e-09
-3.69661e-10
1.70867e-09
-3.91851e-10
1.80654e-09
-4.10463e-10
1.90352e-09
-4.21037e-10
1.99908e-09
-4.32448e-10
2.09143e-09
-4.33132e-10
2.18e-09
-4.31456e-10
2.26433e-09
-4.26724e-10
2.3437e-09
-4.15167e-10
2.41807e-09
-4.02001e-10
2.48757e-09
-3.875e-10
2.55205e-09
-3.68474e-10
2.612e-09
-3.49242e-10
2.66776e-09
-3.30879e-10
2.7197e-09
-3.11099e-10
2.76835e-09
-2.92677e-10
2.81412e-09
-2.75351e-10
2.85751e-09
-2.59287e-10
2.89897e-09
-2.46222e-10
2.93878e-09
-2.35823e-10
2.97734e-09
-2.23689e-10
3.01429e-09
-2.15791e-10
3.05128e-09
-2.14834e-10
3.0866e-09
-2.0403e-10
3.12131e-09
-2.02676e-10
3.15438e-09
-2.01214e-10
3.18651e-09
-1.87653e-10
3.21635e-09
-1.8498e-10
3.24442e-09
-1.69931e-10
3.26922e-09
-1.52177e-10
3.29117e-09
-1.29379e-10
3.30862e-09
-9.38397e-11
3.32202e-09
-5.34625e-11
3.32947e-09
-3.29876e-12
3.3314e-09
6.27619e-11
3.32561e-09
1.19856e-10
3.31253e-09
2.10343e-10
3.28945e-09
2.78653e-10
3.2565e-09
3.56252e-10
3.21082e-09
4.37756e-10
3.15317e-09
4.92758e-10
3.08008e-09
5.71804e-10
2.9936e-09
6.053e-10
2.89083e-09
6.60732e-10
2.77487e-09
6.75679e-10
2.64374e-09
7.0651e-10
2.50157e-09
7.03743e-10
2.35355e-09
6.92909e-10
2.21863e-09
6.18239e-10
2.09425e-09
5.46282e-10
2.01823e-09
2.67029e-10
1.97778e-09
1.08349e-10
1.97169e-09
-3.23e-11
1.99756e-09
-1.62371e-10
2.05658e-09
-3.09727e-10
2.13735e-09
-4.2517e-10
2.23315e-09
-5.32211e-10
2.32595e-09
-5.32429e-10
2.41021e-09
-4.87932e-10
2.48626e-09
-4.40871e-10
2.55434e-09
-3.92078e-10
2.61484e-09
-3.43265e-10
2.66828e-09
-2.96047e-10
2.71526e-09
-2.51984e-10
2.75647e-09
-2.12424e-10
2.79266e-09
-1.78381e-10
2.82463e-09
-1.50492e-10
2.85321e-09
-1.29001e-10
2.87924e-09
-1.13735e-10
2.90349e-09
-1.04096e-10
2.92661e-09
-9.90966e-11
2.94911e-09
-9.74313e-11
2.97128e-09
-9.76482e-11
2.99319e-09
-9.82699e-11
3.01475e-09
-9.79851e-11
3.03567e-09
-9.56481e-11
3.05546e-09
-9.03512e-11
3.07356e-09
-8.17291e-11
3.08936e-09
-6.97718e-11
3.10227e-09
-5.48712e-11
3.11183e-09
-3.7793e-11
3.11771e-09
-1.95438e-11
3.11981e-09
-1.23711e-12
3.11822e-09
1.60235e-11
3.11325e-09
3.12504e-11
3.10543e-09
4.36626e-11
3.09543e-09
5.27392e-11
3.08404e-09
5.82673e-11
3.07207e-09
6.01891e-11
5.91865e-11
2.51532e-09
2.89809e-11