/*--------------------------------*- C++ -*----------------------------------*\
| =========                 |                                                 |
| \\      /  F ield         | OpenFOAM: The Open Source CFD Toolbox           |
|  \\    /   O peration     | Version:  2506                                  |
|   \\  /    A nd           | Website:  www.openfoam.com                      |
|    \\/     M anipulation  |                                                 |
\*---------------------------------------------------------------------------*/
FoamFile
{
    version     2.0;
    format      ascii;
    arch        "LSB;label=32;scalar=64";
    class       volVectorField;
    location    "4.4";
    object      U;
}
// * * * * * * * * * * * * * * * * * * * * * * * * * * * * * * * * * * * * * //

dimensions      [0 1 -1 0 0 0 0];

internalField   nonuniform List<vector> 
4000
(
(0.00816188 0.000799217 0)
(0.00705279 0.000969025 -4.52938e-22)
(0.00555856 0.000585171 4.6989e-22)
(0.00426884 0.00029689 8.99348e-22)
(0.00347018 0.000157828 -1.8184e-21)
(0.00297525 8.77257e-05 9.13365e-22)
(0.00264002 5.08028e-05 0)
(0.00240463 3.15778e-05 0)
(0.00223549 2.13523e-05 0)
(0.00210956 1.56645e-05 1.80005e-21)
(0.00201229 1.22795e-05 -1.80407e-21)
(0.00193486 1.01587e-05 3.58276e-21)
(0.00187161 8.79539e-06 -3.58778e-21)
(0.00181866 7.89118e-06 0)
(0.00177329 7.28806e-06 0)
(0.0017335 6.90449e-06 0)
(0.00169772 6.68542e-06 3.53371e-21)
(0.00166471 6.59569e-06 -3.53604e-21)
(0.00163343 6.61615e-06 0)
(0.00160299 6.73349e-06 0)
(0.00157262 6.93563e-06 0)
(0.00154162 7.21244e-06 0)
(0.00150938 7.55517e-06 0)
(0.00147534 7.95604e-06 6.9544e-21)
(0.00143897 8.40914e-06 -1.39027e-20)
(0.00139979 8.91171e-06 6.94868e-21)
(0.00135727 9.46592e-06 0)
(0.00131088 1.00824e-05 0)
(0.00126 1.07874e-05 0)
(0.00120383 1.16474e-05 0)
(0.00114122 1.28537e-05 -6.92914e-21)
(0.00107067 1.48504e-05 6.93809e-21)
(0.000991364 1.73694e-05 0)
(0.000875627 2.54705e-05 6.09929e-21)
(0.000744406 5.38733e-05 7.01949e-21)
(0.000680691 0.000108712 -3.51957e-20)
(0.000695006 0.00018415 -2.84005e-20)
(0.00074552 0.000272437 7.15196e-21)
(0.000819512 0.000375933 -2.87485e-20)
(0.000922017 0.000501989 -6.48043e-20)
(0.00109402 0.000660042 7.22332e-21)
(0.00134562 0.000838242 5.70087e-20)
(0.00161256 0.00100063 -5.60629e-20)
(0.0018623 0.00113646 0)
(0.00209938 0.00124912 0)
(0.00232188 0.00133966 -3.19746e-21)
(0.00254205 0.00141053 -4.67297e-20)
(0.00275 0.00145451 -4.55181e-20)
(0.00294049 0.00147221 -2.6426e-20)
(0.00312475 0.0014637 -2.22282e-20)
(0.00328668 0.00142399 2.10078e-20)
(0.00343232 0.00135571 0)
(0.0035471 0.00125257 -2.30849e-21)
(0.00363076 0.00112049 3.82029e-20)
(0.00367415 0.000955256 0)
(0.00366453 0.000768156 -8.02063e-21)
(0.00361123 0.00056655 -1.86918e-21)
(0.0034911 0.000357937 -6.33871e-24)
(0.00333716 0.000157884 -8.43871e-23)
(0.0031225 -3.41789e-05 -8.9033e-22)
(0.00286965 -0.000197219 1.59582e-21)
(0.00260527 -0.000330388 0)
(0.0023239 -0.00043039 0)
(0.00205371 -0.000497966 3.11929e-21)
(0.00179029 -0.000536402 2.18738e-20)
(0.00155052 -0.000550503 3.15387e-21)
(0.0013325 -0.00054507 -3.16603e-21)
(0.00113853 -0.00052576 3.2268e-21)
(0.000970655 -0.000496773 9.75121e-21)
(0.00082249 -0.000461584 -2.29862e-20)
(0.000697454 -0.000423764 -3.30641e-21)
(0.000587834 -0.00038425 -6.32525e-23)
(0.000493297 -0.000345112 0)
(0.000414042 -0.000307545 0)
(0.000344744 -0.000271832 0)
(0.000286126 -0.000238819 -1.79837e-21)
(0.000237318 -0.00020896 -2.70951e-20)
(0.000195876 -0.000182133 0)
(0.000161612 -0.000158468 -1.02232e-22)
(0.000134169 -0.000137988 1.87091e-21)
(0.000112043 -0.000120344 -2.99637e-20)
(9.43879e-05 -0.000105167 2.72654e-20)
(8.04033e-05 -9.20616e-05 -9.13449e-24)
(6.8978e-05 -8.05505e-05 3.09356e-20)
(5.93688e-05 -7.02542e-05 3.07045e-22)
(5.07683e-05 -6.07763e-05 -3.03582e-20)
(4.23077e-05 -5.17075e-05 -3.08491e-20)
(3.39872e-05 -4.30012e-05 3.12536e-20)
(2.57014e-05 -3.46359e-05 -4.75815e-22)
(1.68748e-05 -2.65536e-05 -3.04516e-20)
(7.9578e-06 -1.90056e-05 0)
(-7.94128e-07 -1.21116e-05 -3.11521e-20)
(-9.72133e-06 -5.98473e-06 -2.91144e-20)
(-1.8282e-05 -8.4128e-07 2.98564e-20)
(-2.62226e-05 3.33243e-06 -1.66971e-20)
(-3.37031e-05 6.30414e-06 1.84063e-21)
(-4.00383e-05 8.27308e-06 1.46526e-20)
(-4.55465e-05 9.05974e-06 1.82301e-21)
(-4.95631e-05 9.00994e-06 1.26786e-20)
(-5.22135e-05 7.95849e-06 9.01413e-21)
(-5.28489e-05 6.34299e-06 -3.59561e-21)
(-5.17405e-05 4.0723e-06 8.96929e-21)
(-4.84189e-05 1.94775e-06 -8.96376e-22)
(-4.2634e-05 3.77038e-07 -8.98211e-22)
(-3.37228e-05 -3.43637e-07 -3.61299e-21)
(-2.1462e-05 5.42309e-07 0)
(-5.22428e-06 3.28405e-06 0)
(1.55129e-05 8.79796e-06 -2.90993e-20)
(4.11618e-05 1.75503e-05 -9.32491e-22)
(7.24503e-05 3.0344e-05 1.55369e-20)
(0.000109922 4.7775e-05 1.52169e-20)
(0.00015385 7.05501e-05 4.80715e-22)
(0.00020527 9.91494e-05 -1.59992e-20)
(0.000263336 0.000134137 -1.16401e-23)
(0.000329317 0.000175767 0)
(0.000403484 0.000224385 3.17183e-20)
(0.000483816 0.000279433 -9.94522e-22)
(0.000571885 0.000341143 -2.98663e-20)
(0.000666496 0.000408712 -1.00104e-21)
(0.000765745 0.000481176 -3.19095e-20)
(0.00087054 0.000558128 -1.77253e-22)
(0.000979782 0.000638165 3.15331e-20)
(0.00109084 0.00071966 1.93365e-21)
(0.00120414 0.000801848 -3.46149e-20)
(0.0013194 0.000883354 1.90904e-21)
(0.0014348 0.000962504 2.95865e-20)
(0.00155041 0.00103823 3.54515e-21)
(0.00166556 0.00110916 -3.55496e-21)
(0.0017797 0.00117431 2.69995e-20)
(0.00189564 0.00123334 -2.22863e-20)
(0.00201155 0.00128405 -3.17195e-21)
(0.00212447 0.0013254 -4.35861e-20)
(0.00224244 0.00135849 -2.85335e-21)
(0.00236202 0.00137984 -2.0636e-20)
(0.00247682 0.00138886 5.20274e-22)
(0.00260108 0.00138745 0)
(0.00272342 0.00136865 0)
(0.00284008 0.00133477 -2.32519e-22)
(0.00295919 0.00128246 0)
(0.00306729 0.00120991 -1.18874e-21)
(0.00316542 0.00111574 -2.94799e-21)
(0.0032442 0.000998307 -7.45038e-22)
(0.00329272 0.000858543 -1.16468e-21)
(0.003312 0.000699202 -5.39712e-22)
(0.00327778 0.000521198 -6.64631e-22)
(0.00320423 0.000340516 1.70678e-22)
(0.00307216 0.000155805 0)
(0.0028831 -9.96356e-06 0)
(0.00266481 -0.000157551 0)
(0.00240378 -0.000275825 2.83672e-22)
(0.00213439 -0.000362484 -2.84648e-22)
(0.00184949 -0.000416907 -1.15269e-21)
(0.0015731 -0.000439684 -1.0226e-21)
(0.0013103 -0.000436225 0)
(0.00106869 -0.00041203 6.02806e-22)
(0.000850813 -0.000372115 0)
(0.000657273 -0.000322243 -1.77122e-23)
(0.000490448 -0.000266679 2.957e-22)
(0.000344188 -0.000208143 -1.80705e-22)
(0.000218575 -0.000143445 3.63688e-21)
(0.000163678 -0.000104473 -1.19956e-21)
(0.000178906 -8.63326e-05 -1.43425e-21)
(0.000196063 -7.58292e-05 0)
(0.000227906 -6.66004e-05 0)
(0.000284148 -5.74383e-05 0)
(0.000370895 -4.47608e-05 0)
(0.00050488 -3.30591e-05 0)
(0.000674126 -2.56918e-05 6.12094e-22)
(0.000831253 -2.27082e-05 5.54044e-24)
(0.000966395 -2.08636e-05 -2.98123e-24)
(0.00108387 -1.87286e-05 -6.12553e-22)
(0.00118358 -1.62632e-05 0)
(0.00126545 -1.36497e-05 5.5929e-22)
(0.00133037 -1.10426e-05 -5.57946e-22)
(0.00137997 -8.55863e-06 1.60761e-23)
(0.0014163 -6.29492e-06 0)
(0.00144172 -4.32963e-06 0)
(0.00145868 -2.71903e-06 -4.11622e-22)
(0.00146958 -1.48415e-06 4.10999e-22)
(0.00147669 -6.40609e-07 0)
(0.00148196 -1.67856e-07 0)
(0.00148692 -2.13854e-08 -1.44163e-22)
(0.0014926 -1.27598e-07 1.01802e-23)
(0.00149956 -4.02621e-07 1.43448e-22)
(0.00150791 -7.58384e-07 0)
(0.00151732 -1.10865e-06 0)
(0.00152714 -1.37855e-06 0)
(0.00153652 -1.5127e-06 0)
(0.00154453 -1.48037e-06 6.07987e-24)
(0.00155035 -1.28342e-06 0)
(0.00155325 -9.56601e-07 0)
(0.00155271 -5.36093e-07 0)
(0.00154856 3.97064e-08 2.98072e-23)
(0.00154089 7.1851e-07 -2.97673e-23)
(0.00152996 1.40366e-06 0)
(0.00151614 2.09476e-06 2.31768e-24)
(0.00149993 2.80677e-06 5.70783e-24)
(0.00148153 3.5553e-06 -3.9654e-24)
(0.00145888 5.03438e-06 -1.7341e-24)
(0.00142954 1.16249e-05 0)
(0.0101626 0.00148332 0)
(0.0105614 0.00234261 0)
(0.0101513 0.00199826 0)
(0.00927895 0.00150282 8.76481e-22)
(0.00836774 0.00106501 -1.78069e-21)
(0.00761063 0.000737039 9.02027e-22)
(0.00699947 0.000514324 0)
(0.00651107 0.000368422 1.80793e-21)
(0.0061247 0.000272289 -1.82593e-21)
(0.00581826 0.000207723 1.81966e-21)
(0.00557217 0.000163086 -1.8309e-21)
(0.00537156 0.000131442 -3.64583e-21)
(0.00520541 0.000108591 3.66057e-21)
(0.00506546 9.18131e-05 3.64257e-21)
(0.0049455 7.94222e-05 -1.40556e-23)
(0.00484071 7.03731e-05 -7.28177e-21)
(0.00474722 6.39532e-05 3.64185e-21)
(0.00466186 5.96711e-05 0)
(0.00458197 5.71948e-05 0)
(0.00450525 5.62822e-05 0)
(0.00442968 5.67406e-05 0)
(0.00435348 5.84174e-05 0)
(0.00427502 6.11944e-05 0)
(0.00419286 6.49842e-05 0)
(0.00410561 6.97345e-05 0)
(0.00401194 7.54336e-05 0)
(0.00391053 8.21194e-05 0)
(0.00379997 8.98968e-05 0)
(0.00367867 9.89753e-05 0)
(0.00354475 0.000109758 0)
(0.00339584 0.000123057 -7.23325e-21)
(0.00322885 0.000140578 9.26076e-27)
(0.00304324 0.000165448 1.45623e-20)
(0.00280471 0.00020378 -6.39573e-21)
(0.00254767 0.000273122 -7.36942e-21)
(0.00240464 0.000394308 2.2316e-20)
(0.00241154 0.000574598 -3.00526e-20)
(0.00251498 0.000804808 -7.57807e-21)
(0.00269242 0.00108062 7.63754e-20)
(0.00295162 0.00140282 2.32393e-20)
(0.00334205 0.00177188 0)
(0.00385289 0.00216151 7.45948e-21)
(0.00439252 0.00252389 4.39255e-20)
(0.00491863 0.00283894 7.28556e-21)
(0.00543028 0.00310348 5.56528e-20)
(0.00592474 0.00331669 -5.39132e-20)
(0.00641315 0.00347898 7.87762e-22)
(0.00688082 0.00358041 0)
(0.00732335 0.00362 -2.43287e-20)
(0.00774779 0.00359521 0)
(0.00813451 0.00350091 -2.37837e-22)
(0.00848564 0.00333942 0)
(0.00877796 0.0031018 -1.97657e-20)
(0.00900863 0.00279943 -1.88136e-20)
(0.00915855 0.00242869 0)
(0.00921406 0.00200775 -5.65719e-23)
(0.00917485 0.00154999 7.9856e-21)
(0.00901047 0.00106944 1.81658e-21)
(0.00875703 0.000595161 3.61418e-21)
(0.00837745 0.000132632 -9.12926e-22)
(0.00790638 -0.0002848 0)
(0.0073725 -0.000646437 6.91352e-21)
(0.00678452 -0.000941479 -3.47134e-21)
(0.00618428 -0.00116628 -6.78764e-21)
(0.00557486 -0.00132273 -2.04541e-20)
(0.004992 -0.00141773 -3.43024e-21)
(0.00443807 -0.00145832 1.74039e-20)
(0.00392758 -0.00145646 -3.51355e-21)
(0.0034649 -0.00142084 0)
(0.00304683 -0.00136086 3.68277e-21)
(0.00267871 -0.00128537 -3.68267e-21)
(0.00235031 -0.00119845 -1.04222e-22)
(0.00206023 -0.001107 0)
(0.00180809 -0.0010143 -3.10247e-20)
(0.00158539 -0.000922735 -3.14301e-20)
(0.00139112 -0.000835405 2.00841e-21)
(0.00122347 -0.000753699 -1.99989e-21)
(0.00107747 -0.00067825 2.04948e-21)
(0.00095136 -0.000609934 -3.29325e-20)
(0.000843976 -0.000548841 3.09471e-20)
(0.000752282 -0.000494335 -3.32054e-20)
(0.000673956 -0.000445693 -3.45996e-20)
(0.000607056 -0.000401882 2.09674e-21)
(0.000549145 -0.000361748 -3.45995e-20)
(0.000498397 -0.000324381 3.3451e-20)
(0.000452934 -0.000288827 -3.32979e-20)
(0.000410578 -0.000254372 3.35022e-20)
(0.000370798 -0.000221062 -3.3483e-20)
(0.000333109 -0.000188809 -1.04288e-21)
(0.000296067 -0.000157753 1.03263e-21)
(0.000260381 -0.000128699 0)
(0.000226562 -0.000101935 0)
(0.000193894 -7.78685e-05 1.62235e-20)
(0.000163631 -5.72172e-05 -1.81245e-20)
(0.000136115 -3.98566e-05 1.59822e-20)
(0.000111538 -2.64333e-05 3.95966e-21)
(9.10308e-05 -1.64711e-05 -8.17763e-24)
(7.44829e-05 -1.03046e-05 5.13486e-24)
(6.29965e-05 -7.11809e-06 -3.48789e-20)
(5.68534e-05 -7.06571e-06 -5.78257e-21)
(5.73042e-05 -8.90061e-06 7.67102e-21)
(6.45723e-05 -1.2375e-05 -7.65033e-21)
(8.04405e-05 -1.58757e-05 0)
(0.000104815 -1.81143e-05 -9.58046e-22)
(0.000139616 -1.79206e-05 9.58824e-22)
(0.000185296 -1.31764e-05 0)
(0.000243232 -2.74269e-06 0)
(0.000314683 1.57765e-05 1.56784e-20)
(0.000400102 4.39253e-05 -1.58248e-20)
(0.00050082 8.37466e-05 1.64784e-20)
(0.000617365 0.000136952 -3.22767e-20)
(0.000749943 0.000205196 9.1258e-25)
(0.000899567 0.000289745 -5.13509e-22)
(0.0010645 0.00039175 -1.65826e-20)
(0.00124608 0.00051149 0)
(0.00144352 0.000649434 0)
(0.00165355 0.000804518 0)
(0.00187745 0.000976022 3.48727e-20)
(0.00211254 0.00116216 3.24991e-20)
(0.00235602 0.00136047 0)
(0.00260837 0.00156867 -3.77194e-20)
(0.00286725 0.00178351 6.21356e-21)
(0.00312938 0.00200129 -4.08172e-21)
(0.00339516 0.00221899 2.03065e-21)
(0.00366382 0.00243297 -3.89058e-21)
(0.00393336 0.00263952 3.05783e-20)
(0.00420391 0.0028354 -2.57884e-20)
(0.00447484 0.00301737 3.21705e-20)
(0.00474634 0.00318266 -1.5394e-22)
(0.00502179 0.00332915 2.38613e-20)
(0.00529841 0.00345293 0)
(0.00557432 0.00355184 2.46615e-20)
(0.00585899 0.00362523 -2.72562e-21)
(0.00614682 0.00366785 -1.78958e-20)
(0.00643286 0.00367821 1.99702e-20)
(0.00673086 0.00365609 -2.09535e-21)
(0.0070247 0.00359187 2.10377e-21)
(0.00731165 0.00348793 -2.04449e-21)
(0.00759374 0.00333735 1.64663e-21)
(0.00785516 0.00313885 -1.17734e-21)
(0.00809024 0.00288972 5.6127e-21)
(0.00828299 0.00258947 -4.05731e-21)
(0.00841526 0.00224074 3.35239e-21)
(0.00848075 0.00185157 0)
(0.00844701 0.00142668 3.55057e-22)
(0.00832943 0.000991975 -1.91699e-23)
(0.00809258 0.000551963 6.57148e-24)
(0.00774477 0.000140501 0)
(0.00731135 -0.000232521 1.8346e-22)
(0.00678375 -0.00054842 -4.64621e-22)
(0.00620972 -0.000797812 0)
(0.00558295 -0.000975781 1.01581e-21)
(0.00494829 -0.00108232 2.28174e-22)
(0.00431464 -0.00112253 -2.298e-22)
(0.00370904 -0.00110734 0)
(0.00313662 -0.00104505 -2.85809e-22)
(0.00260944 -0.000949408 2.70507e-23)
(0.00213315 -0.000829757 3.18855e-22)
(0.00171071 -0.000698346 0)
(0.00133452 -0.000553665 -1.9234e-21)
(0.00111962 -0.000463641 -1.65961e-21)
(0.00108075 -0.000409277 3.52636e-21)
(0.00109842 -0.000371258 -4.86141e-22)
(0.00116943 -0.000344195 4.80158e-22)
(0.00131115 -0.000323778 5.81989e-22)
(0.00153017 -0.000300796 6.37104e-22)
(0.00184371 -0.000279493 -5.32923e-22)
(0.00221408 -0.00025533 -4.01135e-23)
(0.00256292 -0.000227941 0)
(0.00287076 -0.000199594 4.02461e-23)
(0.00314079 -0.000170682 0)
(0.00337257 -0.000141514 -3.84722e-23)
(0.00356595 -0.000113222 -5.84318e-22)
(0.00372284 -8.70075e-05 6.17074e-22)
(0.00384671 -6.37854e-05 -5.04321e-23)
(0.00394206 -4.41707e-05 4.92055e-22)
(0.004014 -2.85022e-05 -9.20824e-22)
(0.00406788 -1.68434e-05 8.86661e-22)
(0.00410894 -8.93487e-06 -4.52646e-22)
(0.00414191 -4.57138e-06 0)
(0.00417078 -2.99792e-06 1.93657e-22)
(0.00419855 -3.39622e-06 -1.81527e-22)
(0.0042271 -4.98893e-06 -1.90757e-23)
(0.00425721 -7.00702e-06 -1.38686e-22)
(0.00428862 -8.71009e-06 1.21699e-22)
(0.00432022 -9.46962e-06 1.21034e-22)
(0.00435031 -8.86154e-06 -1.35251e-22)
(0.00437684 -6.70261e-06 1.18481e-22)
(0.00439776 -3.02657e-06 -2.07939e-22)
(0.00441126 1.93615e-06 1.29523e-22)
(0.004416 7.8047e-06 -4.43037e-23)
(0.00441127 1.41379e-05 -9.53101e-24)
(0.00439705 2.05783e-05 0)
(0.00437385 2.66889e-05 1.93223e-23)
(0.00434272 3.20989e-05 -2.65732e-23)
(0.00430512 3.66465e-05 1.21534e-24)
(0.00426277 4.03834e-05 -8.53328e-24)
(0.00421717 4.37129e-05 0)
(0.00416813 4.78334e-05 0)
(0.00411147 5.76388e-05 -2.76438e-25)
(0.0101548 0.000930739 0)
(0.010718 0.00187921 -4.3873e-22)
(0.0111801 0.00208054 4.34925e-22)
(0.0111183 0.00193155 8.42162e-22)
(0.0108347 0.00165119 -8.50371e-22)
(0.0104103 0.00133857 0)
(0.00995011 0.00105861 0)
(0.00950976 0.000830476 0)
(0.00911344 0.000654253 -1.70556e-21)
(0.00876846 0.000521286 3.43262e-21)
(0.00847236 0.00042104 1.707e-21)
(0.00821928 0.000345493 -3.45383e-21)
(0.00800229 0.000288405 -3.44086e-21)
(0.00781488 0.00024496 3.45669e-21)
(0.00765142 0.000211921 0)
(0.007507 0.0001871 -3.44062e-21)
(0.00737732 0.000168895 6.88913e-21)
(0.00725871 0.000156159 -3.44735e-21)
(0.00714792 0.000148092 0)
(0.00704206 0.000144094 0)
(0.00693849 0.000143684 0)
(0.00683481 0.000146479 0)
(0.00672883 0.000152181 0)
(0.00661846 0.000160564 -6.83913e-21)
(0.00650176 0.00017149 6.85312e-21)
(0.0063768 0.00018492 0)
(0.00624167 0.00020093 0)
(0.00609433 0.000219738 0)
(0.00593261 0.000241759 0)
(0.00575398 0.000267719 0)
(0.00555553 0.000298889 -6.89632e-21)
(0.00533361 0.000337597 6.92087e-21)
(0.00508909 0.000388026 0)
(0.00479083 0.000455066 4.35663e-22)
(0.00447429 0.000555647 0)
(0.00427956 0.000718039 -1.42781e-20)
(0.00426235 0.000957371 2.88832e-20)
(0.0043827 0.00126788 0)
(0.00461853 0.00164075 -5.8148e-20)
(0.00497309 0.0020676 2.04112e-22)
(0.00548193 0.00253697 -7.12762e-21)
(0.00611498 0.00301558 7.11048e-21)
(0.0067839 0.00346269 -5.54721e-20)
(0.00744957 0.00385912 0)
(0.00810572 0.00419684 -5.8922e-20)
(0.00874812 0.00447163 5.41199e-20)
(0.009383 0.00468025 5.20819e-20)
(0.00999556 0.00481323 0)
(0.0105829 0.00486705 2.23483e-20)
(0.0111467 0.00483795 0)
(0.0116693 0.00472224 -4.09632e-20)
(0.0121484 0.00452018 0)
(0.0125624 0.00422432 1.62845e-20)
(0.0129069 0.0038467 2.00202e-20)
(0.0131599 0.00338646 1.6935e-20)
(0.0133081 0.00285973 7.93272e-21)
(0.0133449 0.00227912 7.70134e-21)
(0.0132414 0.00165928 3.59706e-21)
(0.013023 0.00103117 -1.79154e-21)
(0.0126522 0.000404833 -2.55554e-21)
(0.0121586 -0.000184901 0)
(0.01156 -0.000720472 -6.41072e-21)
(0.0108695 -0.00118513 6.35405e-21)
(0.0101282 -0.00156767 0)
(0.00934405 -0.00186478 2.57444e-20)
(0.00856118 -0.0020786 0)
(0.00778725 -0.00221355 3.29867e-21)
(0.00704847 -0.00228136 -3.32179e-21)
(0.00635421 -0.00229136 0)
(0.00570931 -0.00225582 3.48567e-21)
(0.00512364 -0.00218658 -3.49937e-21)
(0.00458948 -0.00209075 -3.94955e-20)
(0.00410792 -0.00197922 2.56004e-20)
(0.00367887 -0.00185771 9.22121e-23)
(0.00329398 -0.00173124 3.02818e-20)
(0.00295172 -0.00160537 1.93083e-21)
(0.00264971 -0.00148298 -3.29389e-20)
(0.00238189 -0.00136597 0)
(0.00214553 -0.00125639 -3.17267e-20)
(0.00193882 -0.00115485 -6.21982e-20)
(0.00175791 -0.00106094 6.17098e-20)
(0.00159964 -0.000974026 3.35216e-20)
(0.00146139 -0.000892898 -3.37106e-20)
(0.00133985 -0.000816164 3.39538e-20)
(0.00123245 -0.000742789 0)
(0.00113634 -0.000671607 3.30085e-20)
(0.00104809 -0.000601992 1.77994e-22)
(0.000966605 -0.000534424 6.64501e-20)
(0.000890749 -0.000468941 3.06948e-20)
(0.000818093 -0.000406074 3.36343e-20)
(0.000749491 -0.000347239 0)
(0.000685419 -0.000292934 0)
(0.000624795 -0.000243814 -1.60435e-20)
(0.00056962 -0.000201001 0)
(0.000520103 -0.000164191 -1.97918e-21)
(0.000477066 -0.000134265 1.95772e-21)
(0.000441765 -0.000110412 -1.55848e-20)
(0.000414573 -9.29699e-05 1.54602e-20)
(0.000396705 -8.06655e-05 1.34565e-20)
(0.00038923 -7.34903e-05 1.90862e-21)
(0.000393739 -6.94319e-05 -7.61577e-21)
(0.000410619 -6.77355e-05 3.79509e-21)
(0.000442484 -6.63585e-05 -2.84292e-21)
(0.000489184 -6.33104e-05 9.46448e-22)
(0.000553796 -5.66525e-05 0)
(0.000636639 -4.32031e-05 7.62771e-21)
(0.000739462 -2.09545e-05 0)
(0.000863677 1.34747e-05 1.54386e-20)
(0.00100934 6.25173e-05 4.66637e-24)
(0.0011777 0.000128978 -1.5181e-20)
(0.00136874 0.000215263 1.57895e-20)
(0.001582 0.000323501 -4.96183e-22)
(0.00181794 0.00045522 0)
(0.00207371 0.000611658 1.60423e-20)
(0.00235021 0.000792888 -1.61001e-20)
(0.00264542 0.00099892 0)
(0.00295552 0.0012283 1.00713e-21)
(0.00328099 0.00147928 -3.31438e-20)
(0.00361851 0.00174916 -3.02464e-20)
(0.00396507 0.00203453 2.97165e-20)
(0.00432067 0.00233166 -3.13895e-20)
(0.00468272 0.00263607 -1.93192e-21)
(0.00504834 0.00294297 2.85913e-20)
(0.00541788 0.00324778 3.80785e-21)
(0.00579049 0.00354551 3.27655e-20)
(0.00616474 0.00383133 -6.45091e-20)
(0.00654087 0.00410072 3.16894e-20)
(0.00691863 0.00434922 -2.39203e-20)
(0.00729856 0.00457302 1.89516e-20)
(0.00768329 0.00476862 3.03603e-20)
(0.00807068 0.00493118 1.71437e-20)
(0.00845973 0.00505826 2.83779e-21)
(0.00885743 0.00514741 1.77788e-20)
(0.00925852 0.00519242 2.19896e-20)
(0.00965968 0.00519195 -2.09281e-21)
(0.0100695 0.00514342 2.09845e-21)
(0.0104728 0.00503789 5.3781e-21)
(0.0108674 0.00487711 1.47331e-21)
(0.0112497 0.00465427 -1.27081e-21)
(0.0116055 0.00436882 1.27479e-21)
(0.0119253 0.00401922 -3.89046e-21)
(0.0121922 0.00360649 6.5806e-22)
(0.0123876 0.00313529 -1.79516e-22)
(0.0125019 0.00261537 -5.05595e-22)
(0.0125035 0.00205568 -1.08952e-21)
(0.0124026 0.00147868 0)
(0.0121625 0.000893251 -1.02003e-23)
(0.0117908 0.000332057 3.97468e-23)
(0.011302 -0.000188908 -1.71074e-22)
(0.0106884 -0.000648316 6.30979e-22)
(0.00999345 -0.00103104 1.46196e-22)
(0.00920942 -0.00132757 -9.46924e-22)
(0.00838639 -0.00153389 -8.48008e-22)
(0.00753205 -0.00165087 3.17026e-22)
(0.00668536 -0.00168815 -5.29293e-22)
(0.00585426 -0.00165292 2.69203e-22)
(0.00506244 -0.00156121 -4.41448e-23)
(0.0043203 -0.00142459 -3.75036e-22)
(0.0036496 -0.00126379 1.17498e-22)
(0.0030357 -0.00107788 -8.98525e-22)
(0.00264432 -0.000952308 1.25579e-21)
(0.00250405 -0.000865395 -1.11454e-21)
(0.00248126 -0.000798185 -4.05192e-22)
(0.00255315 -0.000747729 -9.71075e-22)
(0.00273697 -0.000710894 0)
(0.00303106 -0.000674389 -1.15951e-21)
(0.00344385 -0.000639676 1.1098e-21)
(0.00391684 -0.00059508 5.34289e-23)
(0.00436335 -0.000538399 5.93316e-24)
(0.00476224 -0.000475573 -4.03352e-23)
(0.00511579 -0.0004099 -6.03561e-22)
(0.00542312 -0.000343439 3.6762e-23)
(0.00568373 -0.000278876 0)
(0.00589958 -0.000218901 -3.37513e-23)
(0.0060746 -0.000165647 3.19646e-23)
(0.00621397 -0.000120585 5.22999e-22)
(0.0063237 -8.4528e-05 -4.90345e-22)
(0.00641022 -5.76284e-05 -4.03236e-22)
(0.00647988 -3.94072e-05 4.26441e-22)
(0.00653851 -2.88572e-05 0)
(0.006591 -2.44771e-05 -2.10146e-23)
(0.00664106 -2.4459e-05 0)
(0.00669102 -2.68644e-05 -1.21418e-22)
(0.00674181 -2.97944e-05 8.88833e-24)
(0.00679301 -3.15553e-05 1.45647e-22)
(0.00684315 -3.07993e-05 2.91675e-23)
(0.00688995 -2.66408e-05 1.38044e-23)
(0.00693072 -1.87304e-05 -1.28732e-23)
(0.00696271 -7.24125e-06 0)
(0.00698349 7.20576e-06 1.10176e-23)
(0.00699128 2.36563e-05 3.83383e-23)
(0.00698514 4.09758e-05 -2.92232e-23)
(0.00696501 5.80095e-05 -3.00911e-23)
(0.00693172 7.36629e-05 3.69651e-23)
(0.0068869 8.71162e-05 0)
(0.00683277 9.78608e-05 5.88193e-24)
(0.00677201 0.00010576 8.34091e-24)
(0.0067073 0.000111178 1.9059e-24)
(0.00664102 0.000115033 -1.90424e-24)
(0.0065644 0.000122907 2.6184e-25)
(0.0100749 0.000516228 0)
(0.0104761 0.00128202 0)
(0.011015 0.00167876 0)
(0.0113789 0.00179374 8.39585e-22)
(0.0115706 0.00172997 -8.38331e-22)
(0.011542 0.00156813 0)
(0.0114236 0.00136494 0)
(0.0112281 0.00115862 0)
(0.0109964 0.000973023 0)
(0.0107594 0.000814482 0)
(0.0105313 0.000682509 0)
(0.0103191 0.000575896 -3.2974e-21)
(0.0101249 0.000490863 3.31466e-21)
(0.00994838 0.000423189 -3.29993e-21)
(0.0097883 0.000369898 6.61287e-21)
(0.00964247 0.000328671 -3.31132e-21)
(0.00950837 0.000297546 -3.29638e-21)
(0.00938353 0.000275059 3.30561e-21)
(0.00926553 0.000260154 0)
(0.00915194 0.00025201 0)
(0.00904042 0.000249941 6.57051e-21)
(0.00892867 0.000253409 -6.5838e-21)
(0.00881446 0.000261978 0)
(0.0086956 0.000275315 -6.55726e-21)
(0.00856993 0.000293211 6.57024e-21)
(0.00843528 0.000315605 0)
(0.00828945 0.000342613 0)
(0.00813014 0.000374558 6.56388e-21)
(0.00795486 0.000412037 -7.89509e-24)
(0.0077609 0.00045602 -6.59042e-21)
(0.00754531 0.000508057 -6.60039e-21)
(0.00730445 0.000570658 1.32419e-20)
(0.00703998 0.000648096 -6.64295e-21)
(0.00672517 0.000743046 6.24706e-21)
(0.00639216 0.000870382 -6.71934e-21)
(0.00617233 0.00105925 -6.83128e-21)
(0.00613037 0.00132664 6.92678e-21)
(0.00624379 0.0016704 2.07452e-20)
(0.00649563 0.00208093 3.47456e-20)
(0.00688433 0.00254377 7.06755e-21)
(0.00743034 0.00304044 -6.83716e-21)
(0.0080937 0.00353776 -5.96247e-20)
(0.00879677 0.00400422 5.83444e-20)
(0.00950533 0.00442317 5.66823e-20)
(0.0102105 0.00478401 -1.23104e-20)
(0.0109074 0.00507944 8.99198e-21)
(0.0115982 0.00530347 -2.587e-20)
(0.0122696 0.00544979 0)
(0.012919 0.0055093 -2.40021e-20)
(0.0135461 0.00547797 2.61142e-21)
(0.0141351 0.00535497 1.95806e-20)
(0.0146807 0.0051391 2.28615e-21)
(0.0151661 0.00482567 -2.24961e-20)
(0.0155861 0.00442377 -1.48285e-20)
(0.0159211 0.0039344 -1.62547e-20)
(0.0161588 0.00337117 -7.92603e-21)
(0.0162895 0.00274608 -1.60803e-21)
(0.0162886 0.00207209 1.82255e-21)
(0.0161702 0.00137685 1.69099e-21)
(0.0159008 0.000670714 2.47704e-21)
(0.0154996 -1.45488e-05 1.65685e-21)
(0.0149735 -0.00066003 0)
(0.0143312 -0.00124609 6.33731e-21)
(0.0136052 -0.0017563 0)
(0.0128023 -0.00218288 -2.16178e-20)
(0.0119657 -0.00252056 -1.25532e-20)
(0.0111053 -0.00276962 -3.12126e-21)
(0.0102533 -0.00293642 0)
(0.00942368 -0.00302834 0)
(0.008629 -0.00305624 -1.31601e-20)
(0.00788498 -0.00303221 0)
(0.00718879 -0.00296481 3.06542e-20)
(0.00654681 -0.00286673 -3.11912e-20)
(0.00596095 -0.00274593 3.00577e-20)
(0.0054254 -0.00260966 2.67612e-23)
(0.00494009 -0.00246563 2.69403e-23)
(0.00450307 -0.00231858 2.60343e-20)
(0.00410856 -0.00217201 3.76322e-21)
(0.00375386 -0.00202934 2.86767e-20)
(0.00343701 -0.00189235 3.09275e-20)
(0.00315399 -0.00176133 -1.34907e-22)
(0.00290155 -0.00163627 -3.0525e-20)
(0.0026769 -0.00151632 3.07519e-20)
(0.00247651 -0.00140028 0)
(0.00229767 -0.00128729 5.01867e-22)
(0.00213707 -0.00117626 3.15172e-20)
(0.00199043 -0.00106672 -6.39313e-20)
(0.00185632 -0.000959608 -9.64945e-20)
(0.0017328 -0.00085529 -3.30421e-20)
(0.00161643 -0.000754779 9.58455e-22)
(0.00150796 -0.000660162 0)
(0.00140755 -0.000572374 9.90706e-22)
(0.00131366 -0.000492381 -9.81658e-22)
(0.00122899 -0.000421759 0)
(0.00115349 -0.000360108 1.55386e-20)
(0.00108884 -0.000308491 -1.93181e-21)
(0.00103628 -0.000265763 1.91482e-21)
(0.000996912 -0.000232176 -9.98904e-24)
(0.000971867 -0.000205978 1.51535e-20)
(0.000963189 -0.000186977 -1.88762e-21)
(0.000972481 -0.000172572 3.75358e-21)
(0.00100043 -0.000161575 -1.86697e-21)
(0.00105019 -0.00015125 1.18265e-24)
(0.00112132 -0.000138881 -9.33676e-22)
(0.00121764 -0.000121878 9.32111e-22)
(0.00133887 -9.62157e-05 -7.4864e-21)
(0.00148676 -5.91559e-05 -7.98203e-21)
(0.0016622 -6.62727e-06 -1.46269e-20)
(0.00186442 6.44675e-05 3.03431e-20)
(0.00209398 0.000157338 -1.47659e-20)
(0.00234988 0.000274735 -4.78591e-22)
(0.00263059 0.000418872 -4.81227e-22)
(0.0029357 0.000591221 4.82778e-22)
(0.00326113 0.000792728 -1.55051e-20)
(0.00360718 0.00102312 1.03414e-21)
(0.00397083 0.00128168 -3.89897e-24)
(0.0043479 0.0015665 1.34645e-20)
(0.00473832 0.00187491 4.71737e-20)
(0.00513868 0.00220344 -3.03927e-20)
(0.00554619 0.00254793 -3.04538e-20)
(0.00596082 0.00290374 3.19772e-20)
(0.00638041 0.00326561 2.73732e-20)
(0.00680284 0.00362812 -2.74204e-20)
(0.00722875 0.00398584 -3.15915e-20)
(0.00765774 0.00433307 -2.61926e-20)
(0.00808916 0.00466444 3.94076e-21)
(0.00852356 0.0049747 -3.30772e-21)
(0.00896116 0.0052588 0)
(0.00940269 0.00551219 -2.72621e-20)
(0.00985021 0.00573055 -2.30667e-20)
(0.0103022 0.00590887 -1.92323e-20)
(0.0107579 0.00604406 0)
(0.011222 0.00613226 -2.17032e-20)
(0.01169 0.00616767 2.30353e-21)
(0.0121589 0.00614892 -6.10768e-21)
(0.0126327 0.00607214 -1.94675e-21)
(0.0130987 0.00593029 -1.3254e-22)
(0.0135541 0.00572446 -7.37976e-21)
(0.0139928 0.00544955 1.39105e-21)
(0.0144023 0.00510572 -5.52729e-21)
(0.0147725 0.00469321 8.57638e-21)
(0.0150878 0.00421449 6.19067e-21)
(0.0153321 0.0036755 2.56984e-21)
(0.0154947 0.00308615 0)
(0.0155494 0.00245608 -4.23656e-22)
(0.0155003 0.00180568 7.32752e-24)
(0.0153161 0.00114504 2.53433e-23)
(0.015 0.00050276 -3.65481e-23)
(0.014558 -0.000103922 -2.2755e-23)
(0.0139801 -0.000654895 1.08798e-22)
(0.0132994 -0.00113207 -3.25978e-22)
(0.0125043 -0.00152409 0)
(0.01164 -0.00182182 7.52794e-22)
(0.0107093 -0.00202281 -2.1849e-22)
(0.00975391 -0.00213121 4.07796e-22)
(0.00878152 -0.0021519 5.46162e-23)
(0.00782311 -0.00209809 1.91325e-22)
(0.00689212 -0.00198118 -5.44009e-23)
(0.00603186 -0.0018264 0)
(0.00522304 -0.00163388 1.10863e-21)
(0.00466982 -0.00148974 7.37901e-23)
(0.00440721 -0.00138205 6.05093e-23)
(0.00431172 -0.00129236 5.68323e-23)
(0.0043472 -0.00121916 9.87095e-22)
(0.00452858 -0.00116253 4.54929e-23)
(0.00484316 -0.00110805 1.52792e-23)
(0.00528915 -0.00105367 -5.70598e-22)
(0.00579286 -0.000984002 4.93129e-22)
(0.00626655 -0.0008953 5.77551e-22)
(0.00669099 -0.000795278 6.94277e-23)
(0.00706965 -0.000689796 -5.67858e-22)
(0.00740219 -0.000582861 6.78848e-23)
(0.00768796 -0.000478742 5.1874e-22)
(0.00792868 -0.00038162 -5.165e-22)
(0.00812793 -0.000294924 -5.91524e-23)
(0.00829052 -0.000221108 -5.6857e-23)
(0.00842207 -0.000161592 0)
(0.00852877 -0.00011674 3.80006e-22)
(0.00861684 -8.58799e-05 -3.78843e-22)
(0.00869216 -6.74181e-05 0)
(0.00875978 -5.89528e-05 -3.88089e-23)
(0.00882362 -5.75296e-05 0)
(0.00888626 -5.9953e-05 3.35354e-23)
(0.00894881 -6.30881e-05 1.22694e-22)
(0.00901105 -6.4137e-05 -1.22289e-22)
(0.00907155 -6.08507e-05 -2.79338e-23)
(0.00912796 -5.17254e-05 2.57578e-23)
(0.00917737 -3.6164e-05 0)
(0.00921672 -1.4444e-05 -8.74387e-23)
(0.00924321 1.23893e-05 8.72605e-23)
(0.00925464 4.26892e-05 1.91591e-23)
(0.00924968 7.44528e-05 3.29565e-23)
(0.00922805 0.000105581 -3.29101e-23)
(0.00919049 0.00013415 2.48586e-23)
(0.00913874 0.000158601 -2.48167e-23)
(0.00907533 0.000177868 -9.14524e-24)
(0.00900344 0.000191453 -5.92376e-24)
(0.00892628 0.000199522 4.05616e-24)
(0.00884837 0.00020252 4.49252e-24)
(0.00875455 0.000205846 0)
(0.0100413 0.000317297 0)
(0.0102866 0.000874031 0)
(0.0107151 0.00124837 0)
(0.0111427 0.00144356 8.48045e-22)
(0.0114795 0.00150472 -8.42322e-22)
(0.0117076 0.00147103 0)
(0.0118555 0.00137225 1.6348e-21)
(0.0119003 0.00124219 -1.63722e-21)
(0.0118818 0.00110427 -1.61884e-21)
(0.0118233 0.000969107 3.23915e-21)
(0.0117349 0.000844301 -1.62076e-21)
(0.0116321 0.000736243 0)
(0.0115225 0.000644655 0)
(0.0114115 0.000567808 3.21048e-21)
(0.0113021 0.00050498 -1.39655e-23)
(0.0111958 0.000454902 -6.41836e-21)
(0.0110924 0.000416051 3.2109e-21)
(0.010992 0.00038731 0)
(0.0108936 0.000367863 0)
(0.0107962 0.000357015 3.18547e-21)
(0.0106985 0.000354124 -3.19123e-21)
(0.0105989 0.000358716 0)
(0.0104958 0.000370392 0)
(0.0103874 0.000388835 -6.3407e-21)
(0.0102716 0.000413862 1.26863e-20)
(0.0101466 0.000445455 -6.34579e-21)
(0.0100102 0.000483795 -6.33064e-21)
(0.00986008 0.000529311 1.05191e-23)
(0.00969387 0.000582733 1.2678e-20)
(0.00950894 0.00064518 -6.34762e-21)
(0.00930261 0.000718311 -6.34932e-21)
(0.00907154 0.000804535 3.62023e-24)
(0.00881762 0.000907769 6.37697e-21)