/*--------------------------------*- C++ -*----------------------------------*\
| =========                 |                                                 |
| \\      /  F ield         | OpenFOAM: The Open Source CFD Toolbox           |
|  \\    /   O peration     | Version:  2506                                  |
|   \\  /    A nd           | Website:  www.openfoam.com                      |
|    \\/     M anipulation  |                                                 |
\*---------------------------------------------------------------------------*/
FoamFile
{
    version     2.0;
    format      ascii;
    arch        "LSB;label=32;scalar=64";
    class       volScalarField;
    location    "2";
    object      p;
}
// * * * * * * * * * * * * * * * * * * * * * * * * * * * * * * * * * * * * * //

dimensions      [0 2 -2 0 0 0 0];

internalField   nonuniform List<scalar> 
4000
(
0.00454351
0.00446815
0.00441836
0.00438814
0.00436318
0.00434006
0.00431826
0.00429723
0.00427658
0.00425614
0.00423584
0.00421566
0.00419559
0.00417561
0.00415572
0.00413591
0.0041162
0.00409659
0.00407707
0.00405766
0.00403837
0.00401921
0.00400019
0.00398135
0.00396268
0.00394424
0.00392604
0.00390813
0.00389057
0.00387341
0.00385673
0.00384066
0.00382536
0.00381089
0.00379833
0.00378744
0.00377642
0.00376457
0.00375167
0.00373714
0.00372026
0.00369935
0.00367463
0.0036472
0.00361704
0.00358434
0.00354921
0.00351153
0.00347207
0.00343065
0.00338759
0.00334353
0.00329819
0.00325284
0.00320688
0.00316162
0.00311684
0.00307301
0.0030311
0.00298981
0.00295126
0.00291406
0.00287872
0.00284533
0.00281314
0.00278288
0.00275354
0.0027257
0.00269868
0.00267278
0.00264777
0.00262348
0.00260013
0.00257751
0.00255567
0.00253466
0.00251442
0.00249496
0.00247631
0.00245843
0.00244131
0.00242493
0.00240925
0.00239426
0.00237991
0.00236616
0.00235298
0.00234037
0.00232828
0.00231667
0.00230557
0.00229491
0.00228469
0.00227492
0.00226552
0.00225653
0.00224787
0.00223956
0.00223151
0.00222374
0.00221615
0.00220875
0.00220144
0.00219419
0.00218697
0.00217967
0.00217228
0.00216472
0.00215694
0.00214887
0.00214047
0.00213166
0.00212239
0.00211257
0.00210215
0.00209099
0.00207905
0.00206621
0.00205237
0.00203745
0.00202134
0.00200392
0.00198517
0.00196503
0.00194341
0.0019203
0.00189569
0.00186956
0.00184193
0.00181279
0.00178208
0.00174998
0.00171644
0.00168132
0.00164496
0.00160731
0.00156809
0.00152812
0.00148682
0.00144475
0.00140189
0.00135851
0.0013149
0.00127151
0.00122827
0.00118651
0.00114507
0.00110609
0.00106855
0.00103292
0.000999667
0.000967753
0.000938379
0.000910199
0.000884156
0.000859158
0.000836
0.000814046
0.000793735
0.000775195
0.000760516
0.000745409
0.000730749
0.000716502
0.000702675
0.000688595
0.000674074
0.000657935
0.000640704
0.000622853
0.000604375
0.000585272
0.000565581
0.000545359
0.000524678
0.000503627
0.000482299
0.00046079
0.000439185
0.000417562
0.000395961
0.00037445
0.000353072
0.000331855
0.00031082
0.000289975
0.00026932
0.000248845
0.000228534
0.00020836
0.000188306
0.000168345
0.000148452
0.000128601
0.000108774
8.89538e-05
6.91314e-05
4.93014e-05
2.94618e-05
9.69568e-06
0.00449486
0.00445174
0.00441452
0.00438784
0.00436435
0.00434156
0.00431966
0.00429851
0.00427778
0.0042573
0.00423698
0.0042168
0.00419673
0.00417677
0.00415691
0.00413714
0.00411746
0.00409789
0.00407841
0.00405905
0.00403981
0.00402069
0.00400172
0.00398291
0.00396429
0.00394588
0.00392771
0.00390983
0.00389227
0.0038751
0.00385839
0.00384223
0.00382676
0.00381198
0.00379852
0.0037861
0.00377332
0.00375971
0.00374495
0.00372848
0.00370965
0.00368715
0.00366138
0.0036332
0.00360255
0.0035696
0.00353447
0.00349712
0.00345827
0.00341779
0.003376
0.00333343
0.00328998
0.00324655
0.00320283
0.00315975
0.00311728
0.00307559
0.00303547
0.0029961
0.00295895
0.00292308
0.00288881
0.00285626
0.00282488
0.00279516
0.00276637
0.0027389
0.00271228
0.00268659
0.00266175
0.0026376
0.00261429
0.00259167
0.00256976
0.00254861
0.00252817
0.00250845
0.00248948
0.00247124
0.00245374
0.00243695
0.00242086
0.00240544
0.00239066
0.00237649
0.00236288
0.00234982
0.00233726
0.00232518
0.00231358
0.0023024
0.00229164
0.00228128
0.0022713
0.00226168
0.00225238
0.00224339
0.00223467
0.00222619
0.00221789
0.00220976
0.00220173
0.00219376
0.0021858
0.00217778
0.00216967
0.00216138
0.00215289
0.00214412
0.002135
0.00212547
0.00211546
0.00210486
0.00209364
0.00208164
0.00206881
0.00205504
0.00204022
0.00202428
0.00200714
0.00198871
0.00196895
0.00194783
0.00192528
0.00190131
0.00187591
0.00184909
0.00182088
0.00179127
0.00176026
0.00172795
0.00169432
0.00165931
0.00162316
0.00158585
0.00154726
0.00150799
0.00146769
0.00142681
0.00138544
0.00134381
0.00130218
0.0012609
0.00121999
0.00118043
0.00114147
0.00110449
0.00106882
0.00103476
0.00100274
0.000972017
0.000943474
0.000916101
0.00089059
0.000866061
0.00084315
0.000821366
0.000800983
0.000781902
0.000765812
0.000749529
0.000733691
0.000718275
0.000703186
0.000688004
0.000672479
0.000655841
0.00063842
0.000620489
0.000601996
0.000582922
0.000563292
0.000543154
0.000522575
0.000501636
0.000480425
0.000459031
0.000437531
0.000415997
0.000394505
0.000373104
0.000351823
0.000330693
0.000309736
0.000288964
0.000268377
0.000247971
0.000227731
0.000207638
0.000187665
0.000167785
0.000147972
0.000128204
0.00010846
8.87234e-05
6.89828e-05
4.92298e-05
2.94556e-05
9.69718e-06
0.00447099
0.00444227
0.00441215
0.00438769
0.00436485
0.0043425
0.00432077
0.00429962
0.00427885
0.00425833
0.00423799
0.0042178
0.00419773
0.00417778
0.00415792
0.00413816
0.00411851
0.00409895
0.0040795
0.00406016
0.00404094
0.00402184
0.00400289
0.0039841
0.00396549
0.00394708
0.00392891
0.003911
0.00389341
0.00387617
0.00385935
0.00384303
0.00382728
0.00381207
0.00379773
0.00378401
0.00376982
0.00375473
0.00373842
0.00372031
0.00369987
0.00367625
0.00364987
0.00362132
0.00359054
0.00355767
0.00352286
0.00348618
0.00344819
0.00340885
0.00336843
0.00332743
0.00328582
0.00324424
0.00320256
0.00316138
0.00312076
0.00308085
0.00304224
0.00300437
0.00296822
0.00293325
0.00289965
0.00286754
0.00283658
0.00280705
0.00277845
0.00275107
0.00272453
0.0026989
0.00267409
0.00264997
0.00262662
0.00260394
0.00258192
0.00256059
0.00253993
0.00251995
0.00250067
0.00248209
0.00246421
0.00244704
0.00243055
0.00241473
0.00239955
0.00238497
0.00237097
0.00235751
0.00234454
0.00233206
0.00232002
0.0023084
0.00229719
0.00228635
0.00227588
0.00226574
0.00225592
0.00224639
0.00223711
0.00222806
0.0022192
0.00221048
0.00220188
0.00219332
0.00218477
0.00217617
0.00216748
0.00215862
0.00214954
0.00214017
0.00213045
0.00212029
0.00210963
0.00209835
0.0020864
0.00207365
0.00206002
0.00204542
0.00202973
0.00201291
0.00199489
0.00197557
0.00195496
0.00193301
0.00190969
0.00188503
0.00185903
0.00183171
0.0018031
0.00177322
0.00174208
0.00170976
0.00167626
0.00164155
0.00160582
0.00156907
0.00153128
0.00149289
0.00145373
0.00141416
0.00137431
0.00133437
0.00129459
0.00125522
0.00121634
0.00117846
0.00114128
0.00110569
0.00107133
0.00103836
0.00100716
0.000977174
0.000949074
0.000922112
0.000896799
0.000872494
0.000849624
0.000827817
0.000807285
0.000787672
0.000770293
0.000752903
0.000736004
0.000719553
0.000703444
0.000687303
0.000670996
0.000653947
0.000636359
0.000618368
0.000599873
0.000580831
0.000561258
0.000541195
0.000520704
0.000499861
0.000478752
0.00045746
0.000436064
0.000414635
0.000393237
0.000371906
0.000350693
0.000329631
0.000308739
0.00028803
0.000267507
0.000247165
0.000226988
0.000206962
0.00018706
0.000167255
0.000147521
0.000127834
0.000108171
8.85131e-05
6.88471e-05
4.91613e-05
2.94392e-05
9.67698e-06
0.00445945
0.00443565
0.00440928
0.00438664
0.00436481
0.00434283
0.0043214
0.0043004
0.00427969
0.0042592
0.00423887
0.00421868
0.00419862
0.00417867
0.00415882
0.00413907
0.00411942
0.00409988
0.00408043
0.0040611
0.00404188
0.00402279
0.00400383
0.00398503
0.00396639
0.00394795
0.00392972
0.00391174
0.00389404
0.00387666
0.00385964
0.00384303
0.00382688
0.00381112
0.00379598
0.00378119
0.00376581
0.00374945
0.00373182
0.00371239
0.0036908
0.00366642
0.00363963
0.00361087
0.00358012
0.00354751
0.00351322
0.00347736
0.00344035
0.00340225
0.00336333
0.00332394
0.00328413
0.00324434
0.00320455
0.00316514
0.00312621
0.00308787
0.00305053
0.00301385
0.00297849
0.00294416
0.002911
0.00287914
0.00284835
0.00281885
0.00279028
0.00276287
0.0027363
0.00271062
0.00268576
0.00266159
0.00263817
0.00261539
0.00259325
0.00257176
0.0025509
0.00253068
0.00251113
0.00249225
0.00247406
0.00245655
0.00243971
0.00242354
0.00240801
0.00239308
0.00237872
0.0023649
0.00235157
0.00233871
0.00232628
0.00231425
0.00230261
0.00229132
0.00228037
0.00226974
0.00225939
0.00224933
0.00223949
0.00222988
0.00222044
0.00221115
0.00220196
0.00219282
0.0021837
0.00217452
0.00216525
0.00215581
0.00214615
0.0021362
0.00212587
0.00211508
0.00210376
0.0020918
0.00207913
0.00206561
0.00205118
0.00203576
0.00201923
0.00200157
0.0019827
0.00196258
0.00194119
0.00191853
0.00189458
0.00186938
0.00184294
0.0018153
0.00178649
0.00175654
0.00172547
0.00169336
0.00166023
0.00162604
0.00159098
0.00155504
0.00151826
0.00148096
0.00144308
0.0014049
0.00136657
0.00132826
0.00129017
0.00125247
0.00121524
0.00117883
0.00114308
0.00110857
0.00107514
0.00104289
0.00101214
0.000982533
0.000954568
0.000927721
0.000902371
0.000878124
0.000855099
0.000833091
0.000812315
0.00079223
0.00077401
0.000755682
0.000737833
0.000720457
0.000703486
0.000686572
0.000669696
0.000652292
0.00063453
0.000616476
0.000597968
0.000578938
0.000559393
0.00053937
0.000518926
0.000498138
0.000477088
0.00045586
0.00043453
0.000413167
0.00039183
0.000370566
0.000349422
0.000328427
0.000307604
0.000286965
0.000266515
0.000246249
0.000226154
0.000206211
0.000186395
0.000166679
0.000147034
0.000127434
0.000107856
8.82793e-05
6.86875e-05
4.90636e-05
2.93924e-05
9.64743e-06
0.0044523
0.00443017
0.0044062
0.00438503
0.00436422
0.00434295
0.00432184
0.00430101
0.00428042
0.00425999
0.00423969
0.00421952
0.00419947
0.00417952
0.00415967
0.00413993
0.00412028
0.00410073
0.00408128
0.00406194
0.00404271
0.00402359
0.00400461
0.00398576
0.00396707
0.00394855
0.00393022
0.00391211
0.00389425
0.00387666
0.00385937
0.0038424
0.00382579
0.00380941
0.00379349
0.00377776
0.0037613
0.00374379
0.00372498
0.00370445
0.00368196
0.00365697
0.00362987
0.00360101
0.00357041
0.00353819
0.00350456
0.00346962
0.00343368
0.00339689
0.00335953
0.00332177
0.00328371
0.00324567
0.00320766
0.00316995
0.00313261
0.00309573
0.00305959
0.003024
0.00298939
0.00295564
0.00292288
0.00289122
0.00286052
0.00283099
0.00280236
0.00277482
0.00274813
0.00272231
0.00269733
0.00267303
0.00264949
0.00262657
0.00260427
0.00258261
0.00256154
0.00254109
0.00252128
0.00250212
0.00248361
0.00246579
0.00244862
0.00243212
0.00241626
0.002401
0.00238631
0.00237216
0.00235849
0.00234527
0.00233248
0.00232006
0.002308
0.00229629
0.00228486
0.00227375
0.00226288
0.00225228
0.00224188
0.0022317
0.00222167
0.00221179
0.002202
0.00219226
0.00218254
0.00217276
0.0021629
0.00215286
0.00214259
0.00213201
0.00212103
0.00210958
0.00209756
0.00208486
0.00207142
0.0020571
0.00204185
0.00202558
0.00200822
0.00198972
0.00197005
0.00194918
0.0019271
0.00190384
0.00187938
0.00185377
0.00182705
0.00179923
0.00177038
0.00174053
0.00170969
0.00167795
0.00164536
0.00161185
0.0015776
0.00154264
0.00150699
0.0014709
0.00143437
0.00139762
0.00136079
0.00132403
0.00128749
0.0012513
0.00121552
0.00118041
0.00114586
0.00111225
0.00107954
0.00104781
0.00101735
0.000987922
0.000959945
0.000933036
0.00090753
0.000883132
0.000859828
0.000837541
0.000816442
0.000795872
0.000777039
0.000757909
0.000739215
0.00072102
0.000703316
0.000685751
0.000668406
0.000650662
0.000632705
0.000614566
0.000596015
0.000576961
0.00055741
0.000537396
0.000516976
0.000496222
0.000475218
0.000454046
0.00043278
0.000411487
0.000390224
0.000369041
0.000347978
0.000327067
0.000306329
0.000285778
0.000265417
0.000245242
0.000225241
0.000205392
0.000185671
0.000166049
0.000146496
0.000126987
0.000107497
8.80023e-05
6.84864e-05
4.8931e-05
2.9321e-05
9.61804e-06
0.00444746
0.00442602
0.00440351
0.00438351
0.00436353
0.00434287
0.00432211
0.00430152
0.00428109
0.00426074
0.00424049
0.00422034
0.0042003
0.00418035
0.0041605
0.00414075
0.00412109
0.00410152
0.00408205
0.00406268
0.00404342
0.00402426
0.00400521
0.0039863
0.00396751
0.00394888
0.00393042
0.00391213
0.00389406
0.0038762
0.00385857
0.00384119
0.00382407
0.00380708
0.0037904
0.00377377
0.00375632
0.00373777
0.00371794
0.00369648
0.00367324
0.0036478
0.00362049
0.00359166
0.00356131
0.0035296
0.00349671
0.00346274
0.00342797
0.00339254
0.00335667
0.0033205
0.00328412
0.00324775
0.00321144
0.00317532
0.00313948
0.00310397
0.00306899
0.00303444
0.00300059
0.00296742
0.00293506
0.00290361
0.002873
0.00284341
0.00281467
0.00278694
0.00276006
0.00273404
0.00270884
0.00268435
0.0026606
0.00263749
0.00261499
0.00259312
0.00257183
0.00255114
0.00253107
0.00251163
0.00249283
0.0024747
0.00245722
0.0024404
0.00242422
0.00240864
0.00239364
0.00237918
0.00236519
0.00235165
0.00233852
0.00232574
0.00231329
0.00230116
0.00228929
0.0022777
0.00226632
0.00225519
0.00224423
0.00223348
0.00222285
0.00221237
0.00220196
0.00219161
0.00218127
0.00217086
0.00216036
0.00214968
0.00213876
0.0021275
0.00211583
0.00210365
0.00209088
0.00207739
0.00206314
0.00204799
0.00203189
0.00201479
0.0019966
0.00197732
0.00195693
0.0019354
0.00191275
0.00188901
0.00186418
0.00183832
0.00181147
0.00178365
0.00175491
0.0017253
0.00169484
0.00166361
0.00163166
0.00159894
0.00156561
0.0015317
0.00149723
0.0014624
0.00142723
0.00139189
0.0013565
0.00132118
0.00128606
0.00125122
0.00121673
0.00118275
0.0011492
0.00111636
0.00108425
0.00105293
0.00102266
0.000993297
0.000965204
0.0009381
0.000912313
0.000887572
0.000863927
0.000841241
0.000819783
0.000798719
0.000779372
0.00075956
0.000740142
0.000721258
0.00070295
0.000684834
0.000667066
0.000648976
0.000630788
0.00061251
0.000593858
0.000574723
0.000555119
0.000535081
0.000514664
0.00049394
0.00047299
0.000451892
0.000430718
0.000409528
0.000388376
0.000367308
0.000346362
0.000325567
0.000304944
0.000284506
0.000264253
0.000244183
0.000224283
0.000204532
0.000184904
0.000165372
0.000145908
0.000126485
0.000107078
8.76663e-05
6.82305e-05
4.87518e-05
2.92188e-05
9.58342e-06
0.00444415
0.00442305
0.00440141
0.00438221
0.00436286
0.00434269
0.00432229
0.00430195
0.00428168
0.00426143
0.00424124
0.00422114
0.0042011
0.00418115
0.0041613
0.00414153
0.00412185
0.00410226
0.00408275
0.00406334
0.00404402
0.00402479
0.00400567
0.00398665
0.00396775
0.00394897
0.00393033
0.00391183
0.00389349
0.00387532
0.00385732
0.00383949
0.00382182
0.00380421
0.00378679
0.00376931
0.00375095
0.00373149
0.00371078
0.00368854
0.00366471
0.00363894
0.00361156
0.00358284
0.00355284
0.00352172
0.00348963
0.00345667
0.00342309
0.003389
0.00335456
0.00331991
0.00328512
0.00325033
0.00321558
0.00318096
0.00314652
0.0031123
0.00307845
0.00304492
0.00301184
0.00297928
0.00294736
0.00291617
0.00288568
0.00285606
0.00282722
0.00279929
0.00277217
0.00274589
0.00272042
0.00269565
0.00267164
0.00264826
0.0026255
0.00260338
0.00258183
0.00256088
0.00254054
0.00252082
0.00250173
0.00248328
0.0024655
0.00244836
0.00243187
0.00241598
0.00240066
0.0023859
0.00237161
0.00235775
0.0023443
0.00233118
0.00231836
0.00230584
0.00229354
0.00228149
0.00226962
0.00225796
0.00224644
0.00223512
0.00222388
0.00221278
0.00220174
0.00219074
0.00217975
0.00216867
0.00215751
0.00214613
0.0021345
0.00212252
0.00211009
0.00209713
0.00208355
0.00206923
0.00205414
0.00203814
0.00202121
0.0020033
0.00198435
0.00196437
0.00194335
0.00192129
0.00189821
0.00187415
0.00184912
0.00182318
0.00179635
0.00176868
0.00174021
0.00171098
0.00168101
0.00165042
0.00161917
0.00158731
0.00155494
0.0015221
0.00148882
0.00145524
0.00142139
0.0013874
0.00135336
0.00131937
0.00128553
0.0012519
0.00121856
0.00118558
0.0011529
0.00112075
0.00108915
0.00105816
0.00102803
0.000998667
0.000970386
0.000942994
0.000916817
0.000891615
0.000867563
0.000844364
0.000822471
0.000800906
0.000781073
0.00076069
0.000740672
0.000721223
0.000702418
0.000683822
0.000665633
0.000647175
0.000628696
0.000610192
0.000591353
0.000572067
0.000552357
0.000532263
0.000511839
0.000491155
0.000470285
0.000449303
0.00042827
0.000407238
0.000386253
0.000365355
0.000344578
0.000323944
0.000303473
0.000283174
0.000263052
0.0002431
0.000223304
0.000203647
0.000184105
0.000164654
0.000145266
0.000125919
0.000106589
8.72573e-05
6.79052e-05
4.85148e-05
2.90789e-05
9.5361e-06
0.00444192
0.00442101
0.00439989
0.00438122
0.00436232
0.00434253
0.00432243
0.00430231
0.00428218
0.00426204
0.00424192
0.00422185
0.00420184
0.00418191
0.00416204
0.00414226
0.00412255
0.00410293
0.00408338
0.00406391
0.00404452
0.00402522
0.004006
0.00398686
0.00396781
0.00394886
0.00393001
0.00391126
0.00389263
0.00387411
0.0038557
0.00383739
0.00381917
0.00380093
0.00378279
0.00376448
0.00374531
0.00372504
0.00370357
0.00368071
0.00365642
0.00363045
0.00360309
0.00357457
0.003545
0.00351451
0.00348324
0.0034513
0.00341889
0.00338609
0.00335304
0.00331982
0.00328651
0.00325319
0.00321989
0.00318665
0.00315352
0.00312052
0.00308775
0.00305524
0.00302296
0.00299103
0.00295962
0.00292876
0.00289847
0.0028689
0.00284
0.0028119
0.00278456
0.002758
0.00273222
0.00270713
0.00268279
0.00265909
0.00263601
0.00261358
0.00259173
0.00257047
0.00254983
0.0025298
0.00251039
0.00249163
0.00247351
0.00245605
0.00243922
0.002423
0.00240736
0.00239228
0.00237767
0.00236349
0.00234971
0.00233625
0.00232307
0.00231017
0.00229744
0.00228495
0.00227258
0.0022604
0.00224832
0.00223641
0.00222456
0.00221283
0.00220113
0.00218946
0.00217778
0.002166
0.00215412
0.002142
0.00212961
0.00211684
0.0021036
0.00208981
0.00207539
0.00206022
0.00204428
0.00202745
0.00200973
0.00199109
0.00197147
0.00195091
0.00192941
0.00190697
0.00188362
0.0018594
0.00183434
0.00180847
0.00178183
0.00175445
0.00172637
0.00169763
0.00166826
0.00163833
0.00160784
0.00157686
0.00154547
0.00151369
0.00148156
0.00144917
0.00141657
0.00138383
0.00135105
0.00131828
0.0012856
0.00125304
0.00122075
0.00118867
0.00115676
0.00112523
0.0010941
0.00106341
0.0010334
0.00100404
0.000975538
0.000947815
0.000921187
0.000895448
0.00087087
0.000847122
0.00082471
0.000802629
0.000782276
0.000761405
0.000740888
0.000720964
0.000701719
0.000682673
0.000664027
0.000645161
0.000626323
0.000607497
0.000588379
0.000568872
0.00054901
0.000528842
0.000508418
0.0004878
0.000467056
0.000446248
0.00042542
0.000404613
0.000383861
0.000363197
0.000342644
0.00032222
0.000301939
0.000281811
0.000261835
0.000242007
0.000222316
0.000202747
0.00018328
0.000163895
0.00014457
0.000125287
0.000106026
8.67721e-05
6.75089e-05
4.82192e-05
2.89011e-05
9.4728e-06
0.00444051
0.00441973
0.00439892
0.00438058
0.00436198
0.00434246
0.00432257
0.00430263
0.00428263
0.00426258
0.00424252
0.00422249
0.00420251
0.00418258
0.00416271
0.00414292
0.00412319
0.00410353
0.00408394
0.00406441
0.00404495
0.00402556
0.00400623
0.00398696
0.00396775
0.00394861
0.00392953
0.00391052
0.00389156
0.00387268
0.00385384
0.00383504
0.00381625
0.0037974
0.00377855
0.00375945
0.00373952
0.00371855
0.00369645
0.00367307
0.00364843
0.00362237
0.00359511
0.00356686
0.00353775
0.00350792
0.00347749
0.00344656
0.00341526
0.0033837
0.00335194
0.00332006
0.00328812
0.00325614
0.00322417
0.00319221
0.00316031
0.00312846
0.00309673
0.00306517
0.00303374
0.00300251
0.00297164
0.0029412
0.0029112
0.00288179
0.00285293
0.00282473
0.00279723
0.00277043
0.00274434
0.00271893
0.00269423
0.00267016
0.00264672
0.00262392
0.00260171
0.0025801
0.00255911
0.00253874
0.00251898
0.00249985
0.00248136
0.00246352
0.00244632
0.00242973
0.00241372
0.00239827
0.00238329
0.00236875
0.00235461
0.00234078
0.00232722
0.00231392
0.00230076
0.00228781
0.00227495
0.00226226
0.00224962
0.00223712
0.00222464
0.00221226
0.00219989
0.00218752
0.00217512
0.0021626
0.00214995
0.00213705
0.00212385
0.00211026
0.00209618
0.00208155
0.00206627
0.00205027
0.00203352
0.00201593
0.0019975
0.00197822
0.00195808
0.00193709
0.00191527
0.00189261
0.00186915
0.00184494
0.00181999
0.00179434
0.001768
0.00174102
0.00171343
0.00168526
0.00165656
0.0016273
0.00159761
0.00156751
0.00153706
0.00150628
0.00147522
0.00144395
0.0014125
0.00138092
0.00134928
0.00131762
0.00128599
0.00125445
0.00122304
0.00119175
0.0011606
0.00112968
0.00109897
0.00106857
0.00103871
0.00100938
0.000980664
0.000952607
0.000925515
0.000899232
0.00087401
0.000849663
0.000826667
0.000804064
0.000783118
0.000761803
0.000740849
0.000720491
0.000700807
0.000681303
0.000662137
0.000642822
0.000623572
0.000604349
0.000584883
0.000565109
0.00054507
0.000524822
0.000504411
0.000483897
0.00046334
0.000442774
0.000422221
0.000401706
0.000381249
0.000360874
0.000340594
0.000320421
0.000300362
0.000280424
0.000260608
0.000240908
0.000221319
0.00020183
0.000182426
0.000163094
0.00014382
0.000124591
0.000105394
8.62188e-05
6.70512e-05
4.78742e-05
2.86923e-05
9.39684e-06
0.0044398
0.00441912
0.00439847
0.00438031
0.00436189
0.00434252
0.00432277
0.00430293
0.00428302
0.00426304
0.00424303
0.00422304
0.00420308
0.00418316
0.0041633
0.00414349
0.00412375
0.00410406
0.00408442
0.00406484
0.00404531
0.00402583
0.0040064
0.00398699
0.00396761
0.00394828
0.00392896
0.00390967
0.00389039
0.00387113
0.00385187
0.00383257
0.00381322
0.00379376
0.00377421
0.00375436
0.00373373
0.00371215
0.0036895
0.00366571
0.00364082
0.00361473
0.00358762
0.00355968
0.00353106
0.00350191
0.0034723
0.00344234
0.00341211
0.0033817
0.00335114
0.0033205
0.0032898
0.00325905
0.00322829
0.0031975
0.00316672
0.00313596
0.0031052
0.00307456
0.00304396
0.00301351
0.00298328
0.00295329
0.00292366
0.00289454
0.00286581
0.00283762
0.00281006
0.0027831
0.00275675
0.00273104
0.002706
0.00268157
0.00265775
0.00263454
0.00261192
0.00258992
0.00256854
0.00254777
0.00252761
0.00250805
0.00248913
0.00247085
0.00245321
0.00243617
0.00241971
0.00240381
0.00238839
0.00237343
0.00235885
0.0023446
0.0023306
0.00231685
0.00230324
0.00228982
0.00227645
0.00226323
0.00225002
0.00223693
0.00222383
0.00221079
0.00219773
0.00218465
0.00217152
0.00215823
0.00214479
0.00213109
0.00211705
0.00210262
0.0020877
0.00207223
0.00205615
0.00203938
0.00202191
0.00200366
0.00198465
0.00196488
0.00194436
0.00192311
0.00190114
0.00187842
0.00185501
0.00183095
0.00180625
0.00178092
0.00175498
0.00172847
0.00170142
0.00167385
0.00164579
0.00161727
0.00158836
0.0015591
0.00152953
0.00149968
0.00146961
0.00143935
0.00140894
0.00137841
0.0013478
0.00131715
0.00128648
0.00125585
0.00122525
0.0011947
0.00116424
0.00113389
0.00110366
0.00107357
0.00104384
0.00101457
0.000985678
0.000957338
0.000929813
0.000902981
0.000877092
0.000852111
0.000828447
0.00080531
0.000783693
0.000761933
0.000740561
0.000719762
0.000699591
0.000679627
0.00065992
0.000640116
0.000620397
0.00060072
0.000580897
0.000560876
0.000540683
0.000520367
0.000499963
0.000479559
0.000459234
0.000438979
0.000418768
0.000398598
0.000378488
0.000358444
0.000338471
0.000318572
0.000298753
0.000279019
0.000259368
0.000239798
0.000220306
0.000200887
0.000181536
0.000162246
0.000143014
0.000123831
0.000104698
8.5609e-05
6.65483e-05
4.74963e-05
2.84633e-05
9.31767e-06
0.00443974
0.00441913
0.00439854
0.00438043
0.00436206
0.00434274
0.00432304
0.00430325
0.00428338
0.00426343
0.00424345
0.00422349
0.00420355
0.00418365
0.00416379
0.00414399
0.00412423
0.00410452
0.00408485
0.00406522
0.00404563
0.00402606
0.00400652
0.00398699
0.00396746
0.00394793
0.00392838
0.00390881
0.0038892
0.00386957
0.00384991
0.00383013
0.00381021
0.00379015
0.00376994
0.00374937
0.0037281
0.00370596
0.00368284
0.0036587
0.00363361
0.00360753
0.0035806
0.003553
0.0035249
0.00349641
0.00346761
0.00343857
0.00340934
0.00337999
0.00335054
0.00332101
0.00329143
0.00326179
0.00323212
0.0032024
0.00317265
0.00314288
0.00311306
0.0030833
0.00305351
0.00302381
0.00299423
0.00296484
0.00293572
0.00290692
0.00287838
0.00285032
0.00282284
0.00279581
0.00276929
0.00274335
0.00271803
0.00269327
0.00266909
0.00264548
0.00262244
0.00259998
0.00257817
0.00255697
0.00253638
0.00251632
0.00249689
0.00247809
0.00245992
0.00244235
0.00242534
0.0024089
0.00239294
0.00237744
0.00236234
0.00234757
0.00233305
0.0023188
0.00230468
0.00229073
0.00227684
0.00226306
0.00224929
0.0022356
0.00222187
0.00220818
0.00219443
0.00218064
0.00216676
0.00215272
0.0021385
0.00212399
0.00210914
0.0020939
0.00207817
0.00206192
0.00204509
0.00202766
0.0020096
0.00199086
0.00197144
0.00195138
0.00193067
0.00190931
0.00188733
0.00186469
0.00184144
0.00181763
0.00179325
0.0017683
0.00174281
0.00171681
0.0016903
0.00166333
0.00163591
0.0016081
0.00157993
0.00155145
0.00152269
0.0014937
0.00146451
0.00143517
0.00140568
0.00137609
0.0013464
0.00131666
0.00128686
0.00125704
0.00122721
0.00119736
0.00116753
0.00113771
0.00110793
0.00107825
0.00104874
0.00101952
0.000990505
0.000961945
0.00093401
0.000906643
0.000880121
0.0008545
0.000830087
0.000806378
0.000784028
0.000761797
0.000739991
0.000718728
0.000698047
0.000677577
0.000657379
0.000637173
0.000616905
0.000596627
0.000576467
0.000556259
0.000535924
0.000515584
0.000495297
0.000475106
0.000455042
0.000435093
0.00041522
0.000395403
0.000375653
0.000355958
0.000336314
0.000316697
0.000297121
0.000277587
0.000258095
0.000238648
0.000219248
0.000199896
0.000180596
0.00016135
0.00014216
0.000123024
0.000103958
8.49597e-05
6.60099e-05
4.70955e-05
2.82205e-05
9.24214e-06
0.00444034
0.00441976
0.00439913
0.00438094
0.0043625
0.00434313
0.00432339
0.00430358
0.0042837
0.00426376
0.0042438
0.00422385
0.00420393
0.00418405
0.0041642
0.00414441
0.00412465
0.00410493
0.00408523
0.00406557
0.00404591
0.00402628
0.00400664
0.003987
0.00396732
0.00394761
0.00392785
0.00390802
0.00388812
0.00386814
0.00384804
0.00382778
0.00380735
0.00378673
0.00376588
0.00374462
0.00372274
0.00370007
0.00367652
0.00365209
0.00362685
0.00360079
0.00357404
0.0035468
0.00351921
0.00349138
0.00346334
0.00343516
0.00340686
0.00337848
0.00335002
0.00332149
0.00329292
0.00326426
0.00323557
0.00320681
0.00317799
0.00314914
0.00312019
0.00309128
0.00306227
0.00303333
0.00300443
0.00297565
0.00294703
0.00291861
0.00289047
0.00286269
0.00283531
0.0028083
0.00278167
0.00275562
0.00273013
0.00270512
0.00268061
0.00265663
0.00263316
0.00261025
0.002588
0.00256637
0.00254525
0.00252469
0.00250471
0.0024853
0.0024665
0.00244829
0.00243065
0.00241355
0.00239694
0.0023808
0.00236506
0.00234967
0.00233456
0.0023197
0.002305
0.00229047
0.00227601
0.00226165
0.0022473
0.002233
0.00221866
0.00220432
0.00218991
0.00217542
0.00216081
0.00214603
0.00213105
0.0021158
0.00210022
0.00208424
0.00206784
0.00205097
0.00203356
0.00201553
0.00199692
0.00197779
0.00195818
0.00193802
0.00191724
0.00189588
0.001874
0.00185161
0.00182867
0.00180517
0.00178112
0.00175654
0.0017315
0.00170599
0.00168001
0.00165361
0.0016268
0.00159963
0.00157213
0.00154437
0.00151635
0.00148813
0.00145974
0.0014312
0.00140254
0.00137378
0.00134491
0.00131598
0.00128696
0.0012579
0.00122877
0.00119958
0.00117035
0.00114107
0.00111175
0.00108247
0.00105317
0.00102406
0.000995056
0.000966363
0.000938055
0.000910212
0.000883009
0.000856687
0.000831492
0.000807194
0.000784069
0.000761343
0.000739115
0.000717412
0.000696116
0.000675028
0.000654335
0.000633752
0.000613121
0.000592527
0.000572025
0.000551552
0.000531124
0.00051082
0.000490663
0.000470683
0.000450882
0.000431236
0.000411703
0.00039225
0.000372853
0.000353485
0.00033416
0.000314804
0.000295454
0.000276109
0.000256767
0.000237435
0.000218122
0.000198838
0.000179592
0.000160396
0.000141258
0.000122189
0.000103198
8.42898e-05
6.54575e-05
4.66922e-05
2.80028e-05
9.20218e-06
0.00444163
0.00442107
0.00440026
0.00438185
0.0043632
0.00434367
0.00432381
0.00430391
0.00428399
0.00426403
0.00424406
0.00422413
0.00420423
0.00418437
0.00416454
0.00414476
0.00412501
0.00410529
0.00408559
0.0040659
0.00404621
0.00402652
0.0040068
0.00398705
0.00396725
0.00394738
0.00392743
0.00390738
0.0038872
0.00386688
0.0038464
0.00382571
0.00380478
0.00378363
0.00376216
0.00374025
0.00371777
0.00369459
0.00367063
0.0036459
0.00362052
0.00359452
0.00356793
0.00354103
0.00351396
0.00348675
0.00345943
0.00343206
0.00340459
0.00337709
0.00334951
0.00332186
0.00329417
0.00326639
0.00323857
0.00321067
0.00318269
0.00315467
0.00312653
0.00309841
0.00307016
0.00304195
0.00301373
0.00298557
0.0029575
0.00292957
0.00290185
0.00287436
0.00284715
0.00282027
0.00279376
0.00276769
0.00274203
0.00271683
0.00269204
0.00266771
0.00264391
0.00262068
0.00259799
0.00257582
0.00255416
0.00253309
0.00251256
0.00249253
0.00247303
0.0024541
0.00243573
0.0024179
0.00240054
0.00238367
0.00236722
0.0023511
0.00233529
0.00231974
0.00230438
0.00228921
0.00227413
0.00225915
0.0022442
0.0022293
0.00221436
0.00219941
0.00218438
0.00216926
0.00215399
0.00213849
0.00212274
0.00210672
0.00209045
0.0020739
0.00205698
0.00203958
0.00202171
0.00200335
0.00198448
0.00196511
0.00194537
0.0019252
0.00190449
0.00188324
0.00186152
0.00183934
0.00181666
0.00179348
0.00176979
0.00174563
0.00172101
0.00169594
0.00167045
0.00164455
0.00161829
0.0015917
0.00156481
0.00153768
0.00151032
0.00148279
0.0014551
0.00142728
0.00139935
0.00137133
0.00134319
0.00131499
0.00128668
0.0012583
0.00122983
0.00120126
0.00117261
0.00114387
0.00111502
0.00108613
0.00105713
0.0010282
0.000999225
0.000970392
0.00094175
0.000913502
0.000885736
0.000858745
0.000832658
0.000807626
0.000783647
0.000760382
0.000737658
0.000715466
0.000693673
0.000672256
0.000651115
0.000630151
0.000609246
0.000588396
0.000567653
0.000547036
0.000526578
0.000506325
0.000486304
0.000466526
0.000446974
0.000427608
0.000408381
0.000389243
0.000370155
0.000351081
0.000332
0.00031288
0.000293731
0.000274552
0.000255346
0.000236123
0.000216898
0.000197687
0.000178505
0.000159371
0.000140301
0.000121309
0.00010241
8.36092e-05
6.49092e-05
4.63025e-05
2.77957e-05
9.17868e-06
0.00444376
0.00442314
0.00440197
0.00438314
0.00436414
0.00434432
0.00432425
0.00430422
0.00428423
0.00426423
0.00424426
0.00422433
0.00420446
0.00418463
0.00416484