/*--------------------------------*- C++ -*----------------------------------*\
| =========                 |                                                 |
| \\      /  F ield         | OpenFOAM: The Open Source CFD Toolbox           |
|  \\    /   O peration     | Version:  2506                                  |
|   \\  /    A nd           | Website:  www.openfoam.com                      |
|    \\/     M anipulation  |                                                 |
\*---------------------------------------------------------------------------*/
FoamFile
{
    version     2.0;
    format      ascii;
    arch        "LSB;label=32;scalar=64";
    class       surfaceScalarField;
    location    "2";
    object      phi;
}
// * * * * * * * * * * * * * * * * * * * * * * * * * * * * * * * * * * * * * //

dimensions      [0 3 -1 0 0 0 0];

oriented        oriented;

internalField   nonuniform List<scalar> 
7780
(
2.08042e-09
4.19577e-10
1.64631e-09
4.34116e-10
1.34821e-09
2.98097e-10
1.16329e-09
1.84917e-10
1.05218e-09
1.11106e-10
9.83118e-10
6.90656e-11
9.37112e-10
4.60062e-11
9.04119e-10
3.29929e-11
8.78831e-10
2.52869e-11
8.58406e-10
2.04251e-11
8.41291e-10
1.71146e-11
8.26587e-10
1.47035e-11
8.13715e-10
1.28718e-11
8.02262e-10
1.14536e-11
7.91908e-10
1.03533e-11
7.82394e-10
9.51394e-12
7.73493e-10
8.90108e-12
7.65e-10
8.49251e-12
7.56723e-10
8.2774e-12
7.48476e-10
8.24679e-12
7.40081e-10
8.39439e-12
7.31362e-10
8.71937e-12
7.22136e-10
9.22561e-12
7.12213e-10
9.92277e-12
7.01385e-10
1.08275e-11
6.89418e-10
1.19676e-11
6.76028e-10
1.33889e-11
6.60874e-10
1.51536e-11
6.4351e-10
1.73643e-11
6.23323e-10
2.01868e-11
5.99414e-10
2.39086e-11
5.70328e-10
2.90863e-11
5.33716e-10
3.66133e-11
4.79621e-10
5.40962e-11
4.30857e-10
4.8766e-11
4.10013e-10
2.08434e-11
4.05073e-10
4.93659e-12
4.06513e-10
-1.4414e-12
4.15818e-10
-9.29854e-12
4.37079e-10
-2.1236e-11
4.82984e-10
-4.58636e-11
5.38288e-10
-5.52643e-11
5.89997e-10
-5.16922e-11
6.39413e-10
-4.943e-11
6.84258e-10
-4.48864e-11
7.25971e-10
-4.17697e-11
7.66413e-10
-4.04978e-11
8.00351e-10
-3.39792e-11
8.32974e-10
-3.26418e-11
8.6191e-10
-2.8933e-11
8.85461e-10
-2.35323e-11
9.07597e-10
-2.21117e-11
9.20662e-10
-1.30456e-11
9.32375e-10
-1.16999e-11
9.33441e-10
-1.06156e-12
9.29823e-10
3.61691e-12
9.17663e-10
1.21572e-11
8.95364e-10
2.22965e-11
8.72058e-10
2.33065e-11
8.33535e-10
3.85244e-11
7.96891e-10
3.66453e-11
7.54928e-10
4.19617e-11
7.11715e-10
4.32039e-11
6.71421e-10
4.02772e-11
6.29354e-10
4.20461e-11
5.93604e-10
3.5737e-11
5.5767e-10
3.59432e-11
5.2757e-10
3.01406e-11
4.98827e-10
2.881e-11
4.73911e-10
2.49944e-11
4.52102e-10
2.18719e-11
4.30942e-10
2.11881e-11
4.12948e-10
1.79763e-11
3.96007e-10
1.68811e-11
3.80052e-10
1.58674e-11
3.65822e-10
1.41377e-11
3.52578e-10
1.31678e-11
3.40128e-10
1.24023e-11
3.29035e-10
1.10814e-11
3.19107e-10
9.94781e-12
3.10193e-10
8.95427e-12
3.0243e-10
7.81449e-12
2.95711e-10
6.76789e-12
2.89918e-10
5.8343e-12
2.85056e-10
4.8916e-12
2.80712e-10
4.36305e-12
2.76694e-10
4.02706e-12
2.73275e-10
3.4225e-12
2.69816e-10
3.45918e-12
2.66126e-10
3.68732e-12
2.62764e-10
3.35812e-12
2.59038e-10
3.72317e-12
2.54979e-10
4.05551e-12
2.51205e-10
3.77208e-12
2.46796e-10
4.40659e-12
2.43023e-10
3.77207e-12
2.38792e-10
4.22981e-12
2.35397e-10
3.39405e-12
2.31794e-10
3.60315e-12
2.29501e-10
2.29321e-12
2.27316e-10
2.18476e-12
2.2641e-10
9.06417e-13
2.2633e-10
7.93617e-14
2.27124e-10
-7.94781e-13
2.29618e-10
-2.49501e-12
2.33004e-10
-3.38811e-12
2.38361e-10
-5.36026e-12
2.45e-10
-6.64297e-12
2.5352e-10
-8.52603e-12
2.63772e-10
-1.02613e-11
2.75968e-10
-1.22085e-11
2.89982e-10
-1.40308e-11
3.0625e-10
-1.629e-11
3.23817e-10
-1.75944e-11
3.44061e-10
-2.02791e-11
3.65367e-10
-2.1349e-11
3.88053e-10
-2.27346e-11
4.12048e-10
-2.40485e-11
4.36401e-10
-2.44044e-11
4.61124e-10
-2.47668e-11
4.86184e-10
-2.50822e-11
5.10304e-10
-2.41095e-11
5.33274e-10
-2.29109e-11
5.5546e-10
-2.20659e-11
5.76083e-10
-2.04357e-11
5.95224e-10
-1.88892e-11
6.12892e-10
-1.73656e-11
6.28922e-10
-1.57053e-11
6.43875e-10
-1.46515e-11
6.58553e-10
-1.44491e-11
6.71366e-10
-1.27119e-11
6.84095e-10
-1.27972e-11
6.9819e-10
-1.43472e-11
7.10701e-10
-1.29303e-11
7.24248e-10
-1.40783e-11
7.40923e-10
-1.72318e-11
7.54571e-10
-1.41299e-11
7.72239e-10
-1.79929e-11
7.88633e-10
-1.65156e-11
8.05892e-10
-1.71819e-11
8.22372e-10
-1.62561e-11
8.36777e-10
-1.41178e-11
8.47553e-10
-1.05051e-11
8.55414e-10
-7.66096e-12
8.53386e-10
2.13797e-12
8.50754e-10
2.6677e-12
8.32188e-10
1.85556e-11
8.11054e-10
2.11082e-11
7.81768e-10
2.92639e-11
7.45412e-10
3.63445e-11
7.09355e-10
3.60538e-11
6.6498e-10
4.43782e-11
6.25198e-10
3.97881e-11
5.80302e-10
4.49011e-11
5.40257e-10
4.00477e-11
4.96218e-10
4.40362e-11
4.55108e-10
4.11032e-11
4.11179e-10
4.39192e-11
3.68061e-10
4.31092e-11
3.25052e-10
4.30066e-11
3.22298e-10
2.75593e-12
3.2007e-10
2.22916e-12
3.18984e-10
1.08772e-12
3.20374e-10
-1.39017e-12
3.31535e-10
-1.11616e-11
3.51336e-10
-1.98004e-11
3.88655e-10
-3.7319e-11
4.28025e-10
-3.93696e-11
4.65071e-10
-3.70474e-11
5.01874e-10
-3.68032e-11
5.38057e-10
-3.61845e-11
5.72513e-10
-3.4456e-11
6.04064e-10
-3.15513e-11
6.31786e-10
-2.77223e-11
6.55117e-10
-2.3331e-11
6.73862e-10
-1.87459e-11
6.88138e-10
-1.42763e-11
6.9833e-10
-1.0192e-11
7.05e-10
-6.67072e-12
7.08905e-10
-3.90526e-12
7.10412e-10
-1.50842e-12
7.103e-10
1.11529e-13
7.0918e-10
1.11894e-12
7.07612e-10
1.56692e-12
7.06063e-10
1.54872e-12
7.04897e-10
1.16568e-12
7.04373e-10
5.23657e-13
7.04653e-10
-2.80146e-13
7.05819e-10
-1.16521e-12
7.07721e-10
-1.9022e-12
7.10299e-10
-2.57779e-12
7.13388e-10
-3.08839e-12
7.16781e-10
-3.3925e-12
7.20257e-10
-3.47533e-12
7.2359e-10
-3.33258e-12
7.26547e-10
-2.95644e-12
7.28875e-10
-2.32845e-12
7.30236e-10
-1.35986e-12
7.30017e-10
2.18908e-13
3.49077e-12
2.6364e-09
2.83172e-10
2.59001e-09
4.80508e-10
2.4448e-09
4.43309e-10
2.27958e-09
3.50136e-10
2.13157e-09
2.59114e-10
2.01303e-09
1.87605e-10
1.92043e-09
1.38611e-10
1.84666e-09
1.06759e-10
1.78632e-09
8.56311e-11
1.7358e-09
7.09392e-11
1.6927e-09
6.02131e-11
1.65537e-09
5.20374e-11
1.62262e-09
4.56204e-11
1.59356e-09
4.0516e-11
1.56746e-09
3.64542e-11
1.54371e-09
3.32646e-11
1.52177e-09
3.0838e-11
1.50116e-09
2.90998e-11
1.48144e-09
2.8002e-11
1.46217e-09
2.75084e-11
1.44298e-09
2.75925e-11
1.42345e-09
2.82401e-11
1.40323e-09
2.94496e-11
1.38192e-09
3.12336e-11
1.35912e-09
3.36222e-11
1.33442e-09
3.66705e-11
1.30734e-09
4.04701e-11
1.27734e-09
4.51529e-11
1.24378e-09
5.09241e-11
1.20587e-09
5.80965e-11
1.16262e-09
6.71596e-11
1.11278e-09
7.89265e-11
1.05453e-09
9.48653e-11
9.83062e-10
1.25561e-10
9.18873e-10
1.12956e-10
8.86401e-10
5.33162e-11
8.79083e-10
1.22496e-11
8.91046e-10
-1.34185e-11
9.22558e-10
-4.08339e-11
9.77627e-10
-7.633e-11
1.06475e-09
-1.32988e-10
1.16579e-09
-1.5629e-10
1.26725e-09
-1.53103e-10
1.36602e-09
-1.4816e-10
1.45815e-09
-1.3698e-10
1.54434e-09
-1.27941e-10
1.62578e-09
-1.21951e-10
1.69773e-09
-1.05948e-10
1.76471e-09
-9.96488e-11
1.8241e-09
-8.835e-11
1.8749e-09
-7.43506e-11
1.91883e-09
-6.60534e-11
1.95058e-09
-4.47856e-11
1.97421e-09
-3.53273e-11
1.9829e-09
-9.75213e-12
1.9798e-09
6.72166e-12
1.96264e-09
2.93192e-11
1.92912e-09
5.58097e-11
1.88567e-09
6.67613e-11
1.82269e-09
1.01502e-10
1.75348e-09
1.0585e-10
1.67441e-09
1.21027e-10
1.59007e-09
1.2754e-10
1.50495e-09
1.25386e-10
1.41743e-09
1.29577e-10
1.33483e-09
1.18353e-10
1.25333e-09
1.17464e-10
1.17824e-09
1.05261e-10
1.10696e-09
1.00105e-10
1.04091e-09
9.1023e-11
9.80025e-10
8.27105e-11
9.22017e-10
7.9132e-11
8.68622e-10
7.13065e-11
8.18175e-10
6.72817e-11
7.7025e-10
6.37767e-11
7.25325e-10
5.90808e-11
6.82802e-10
5.57368e-11
6.42489e-10
5.27759e-11
6.04779e-10
4.88534e-11
5.69679e-10
4.50977e-11
5.37112e-10
4.15525e-11
5.07188e-10
3.7749e-11
4.79817e-10
3.41334e-11
4.54854e-10
3.07799e-11
4.32135e-10
2.75887e-11
4.11195e-10
2.52818e-11
3.91663e-10
2.35421e-11
3.73365e-10
2.1707e-11
3.55755e-10
2.10607e-11
3.38564e-10
2.08733e-11
3.21721e-10
2.01987e-11
3.05011e-10
2.04319e-11
2.88441e-10
2.06257e-11
2.72201e-10
2.00126e-11
2.56401e-10
2.02076e-11
2.41405e-10
1.87692e-11
2.27559e-10
1.80756e-11
2.15285e-10
1.56692e-11
2.0513e-10
1.37576e-11
1.97487e-10
9.93642e-12
1.92975e-10
6.69726e-12
1.92083e-10
1.79764e-12
1.95015e-10
-2.85319e-12
2.0235e-10
-8.12974e-12
2.14437e-10
-1.45822e-11
2.31397e-10
-2.03471e-11
2.53628e-10
-2.75902e-11
2.81027e-10
-3.40399e-11
3.1374e-10
-4.1235e-11
3.51629e-10
-4.81452e-11
3.94592e-10
-5.51643e-11
4.42285e-10
-6.1716e-11
4.94576e-10
-6.85709e-11
5.50312e-10
-7.33199e-11
6.09918e-10
-7.9875e-11
6.7152e-10
-8.29434e-11
7.34702e-10
-8.59169e-11
7.98895e-10
-8.82527e-11
8.62488e-10
-8.80268e-11
9.25011e-10
-8.73438e-11
9.85874e-10
-8.60281e-11
1.044e-09
-8.23446e-11
1.09895e-09
-7.80005e-11
1.15078e-09
-7.40531e-11
1.19891e-09
-6.87157e-11
1.24351e-09
-6.35993e-11
1.28474e-09
-5.86663e-11
1.32286e-09
-5.38042e-11
1.35869e-09
-5.03619e-11
1.39301e-09
-4.85567e-11
1.42518e-09
-4.45784e-11
1.45694e-09
-4.42111e-11
1.48967e-09
-4.67382e-11
1.52124e-09
-4.42338e-11
1.55438e-09
-4.70802e-11
1.58985e-09
-5.27145e-11
1.62368e-09
-4.81124e-11
1.66033e-09
-5.48959e-11
1.69587e-09
-5.23499e-11
1.73081e-09
-5.23783e-11
1.76342e-09
-4.90426e-11
1.79117e-09
-4.1938e-11
1.81234e-09
-3.16554e-11
1.82533e-09
-2.05731e-11
1.82462e-09
2.91981e-12
1.81496e-09
1.23871e-11
1.78588e-09
4.76624e-11
1.74575e-09
6.12488e-11
1.69145e-09
8.35532e-11
1.62353e-09
1.04256e-10
1.54892e-09
1.10658e-10
1.46223e-09
1.31069e-10
1.37468e-09
1.27331e-10
1.28028e-09
1.39302e-10
1.18799e-09
1.32344e-10
1.0908e-09
1.41221e-10
9.95323e-10
1.36579e-10
8.98583e-10
1.40663e-10
8.06232e-10
1.35467e-10
7.20205e-10
1.2904e-10
6.78747e-10
4.42154e-11
6.50773e-10
3.02015e-11
6.33161e-10
1.8698e-11
6.27844e-10
3.92558e-12
6.41358e-10
-2.46759e-11
6.75849e-10
-5.4291e-11
7.35885e-10
-9.73552e-11
8.07605e-10
-1.1109e-10
8.83363e-10
-1.12805e-10
9.61023e-10
-1.14463e-10
1.03773e-09
-1.12894e-10
1.11052e-09
-1.07242e-10
1.1768e-09
-9.78363e-11
1.2347e-09
-8.56239e-11
1.28312e-09
-7.17488e-11
1.3217e-09
-5.73285e-11
1.35075e-09
-4.33234e-11
1.37108e-09
-3.052e-11
1.38383e-09
-1.94244e-11
1.39027e-09
-1.03446e-11
1.39194e-09
-3.18514e-12
1.39044e-09
1.613e-12
1.38699e-09
4.57149e-12
1.38276e-09
5.79177e-12
1.37874e-09
5.57038e-12
1.37566e-09
4.24676e-12
1.37396e-09
2.22187e-12
1.37396e-09
-2.78645e-13
1.37562e-09
-2.81875e-12
1.3788e-09
-5.08687e-12
1.38313e-09
-6.90445e-12
1.38813e-09
-8.09117e-12
1.39332e-09
-8.58108e-12
1.3982e-09
-8.35728e-12
1.40232e-09
-7.4469e-12
1.40527e-09
-5.91091e-12
1.40672e-09
-3.7747e-12
1.40635e-09
-9.87588e-13
1.40388e-09
2.68724e-12
8.05603e-12
2.61182e-09
1.71355e-10
2.71333e-09
3.78993e-10
2.73154e-09
4.25097e-10
2.68684e-09
3.94835e-10
2.61059e-09
3.35364e-10
2.52274e-09
2.7546e-10
2.43743e-09
2.23922e-10
2.36016e-09
1.8402e-10
2.29169e-09
1.541e-10
2.23132e-09
1.31309e-10
2.17801e-09
1.13527e-10
2.13073e-09
9.93123e-11
2.08858e-09
8.77713e-11
2.05074e-09
7.83596e-11
2.01647e-09
7.07213e-11
1.98512e-09
6.46177e-11
1.95607e-09
5.98863e-11
1.92876e-09
5.64107e-11
1.90265e-09
5.41066e-11
1.87725e-09
5.29106e-11
1.85207e-09
5.27761e-11
1.82663e-09
5.36737e-11
1.80049e-09
5.55924e-11
1.77318e-09
5.85427e-11
1.74424e-09
6.25615e-11
1.71319e-09
6.77199e-11
1.67953e-09
7.41344e-11
1.6427e-09
8.19811e-11
1.6021e-09
9.15199e-11
1.55707e-09
1.03129e-10
1.50687e-09
1.17355e-10
1.45078e-09
1.35017e-10
1.38819e-09
1.57458e-10
1.31742e-09
1.96329e-10
1.25465e-09
1.75729e-10
1.22154e-09
8.64279e-11
1.21941e-09
1.43754e-11
1.2454e-09
-3.94153e-11
1.29874e-09
-9.41937e-11
1.37932e-09
-1.5694e-10
1.48759e-09
-2.41277e-10
1.60779e-09
-2.76492e-10
1.7299e-09
-2.7519e-10
1.84851e-09
-2.6673e-10
1.95949e-09
-2.47913e-10
2.06275e-09
-2.31179e-10
2.15874e-09
-2.17924e-10
2.24469e-09
-1.91907e-10
2.32316e-09
-1.78142e-10
2.39256e-09
-1.57766e-10
2.45196e-09
-1.33777e-10
2.50201e-09
-1.16113e-10
2.53995e-09
-8.27268e-11
2.56702e-09
-6.23925e-11
2.57989e-09
-2.26187e-11
2.57929e-09
7.31725e-12
2.56383e-09
4.47784e-11
2.53198e-09
8.76639e-11
2.48702e-09
1.11723e-10
2.42389e-09
1.64628e-10
2.34976e-09
1.7998e-10
2.26354e-09
2.07236e-10
2.16879e-09
2.22291e-10
2.06869e-09
2.2548e-10
1.96431e-09
2.33974e-10
1.86044e-09
2.22236e-10
1.75646e-09
2.21465e-10
1.6562e-09
2.05531e-10
1.55904e-09
1.9726e-10
1.46612e-09
1.83911e-10
1.37803e-09
1.7075e-10
1.29337e-09
1.63738e-10
1.21322e-09
1.51417e-10
1.1366e-09
1.43886e-10
1.0631e-09
1.37287e-10
9.92962e-10
1.29256e-10
9.25818e-10
1.22935e-10
8.61602e-10
1.17047e-10
8.00577e-10
1.09923e-10
7.42934e-10
1.02768e-10
6.88752e-10
9.57434e-11
6.38234e-10
8.82591e-11
5.91394e-10
8.0954e-11
5.48182e-10
7.39688e-11
5.08465e-10
6.72836e-11
4.71843e-10
6.18843e-11
4.37879e-10
5.74928e-11
4.06235e-10
5.33417e-11
3.76357e-10
5.09335e-11
3.47886e-10
4.93418e-11
3.20569e-10
4.75154e-11
2.94239e-10
4.67625e-11
2.68849e-10
4.60176e-11
2.44636e-10
4.42269e-11
2.21768e-10
4.30767e-11
2.00776e-10
3.9762e-11
1.82067e-10
3.67859e-11
1.66383e-10
3.13541e-11
1.54252e-10
2.58881e-11
1.46618e-10
1.75711e-11
1.44031e-10
9.28375e-12
1.47348e-10
-1.5189e-12
1.57291e-10
-1.27965e-11
1.74374e-10
-2.52126e-11
1.99177e-10
-3.93853e-11
2.31755e-10
-5.29248e-11
2.72612e-10
-6.84452e-11
3.21432e-10
-8.28579e-11
3.78139e-10
-9.79377e-11
4.42377e-10
-1.12377e-10
5.13554e-10
-1.26334e-10
5.90884e-10
-1.39036e-10
6.73598e-10
-1.51273e-10
7.60256e-10
-1.59962e-10
8.50413e-10
-1.70014e-10
9.42094e-10
-1.74604e-10
1.03437e-09
-1.7817e-10
1.12625e-09
-1.80121e-10
1.21601e-09
-1.77787e-10
1.30289e-09
-1.74241e-10
1.38622e-09
-1.69397e-10
1.46493e-09
-1.61133e-10
1.53872e-09
-1.51908e-10
1.60755e-09
-1.43032e-10
1.67116e-09
-1.32492e-10
1.72983e-09
-1.22449e-10
1.78394e-09
-1.12925e-10
1.83398e-09
-1.03948e-10
1.8808e-09
-9.72034e-11
1.92514e-09
-9.28011e-11
1.96712e-09
-8.63648e-11
2.00797e-09
-8.47684e-11
2.04882e-09
-8.72437e-11
2.08849e-09
-8.35682e-11
2.12896e-09
-8.72714e-11
2.16996e-09
-9.35603e-11
2.20976e-09
-8.79094e-11
2.24999e-09
-9.52567e-11
2.28852e-09
-9.11072e-11
2.32457e-09
-8.86898e-11
2.35693e-09
-8.16217e-11
2.38291e-09
-6.80512e-11
2.40121e-09
-5.00055e-11
2.40933e-09
-2.86733e-11
2.40486e-09
7.44869e-12
2.38776e-09
2.95463e-11
2.35313e-09
8.23274e-11
2.30424e-09
1.10154e-10
2.24008e-09
1.47718e-10
2.16035e-09
1.83974e-10
2.06987e-09
2.01133e-10
1.96571e-09
2.35235e-10
1.85553e-09
2.37504e-10
1.73678e-09
2.58056e-10
1.61563e-09
2.53486e-10
1.4889e-09
2.67953e-10
1.36173e-09
2.63756e-10
1.23404e-09
2.68356e-10
1.11324e-09
2.56268e-10
1.00007e-09
2.42219e-10
9.23444e-10
1.2084e-10
8.69187e-10
8.44565e-11
8.35117e-10
5.27665e-11
8.23269e-10
1.57731e-11
8.40027e-10
-4.14341e-11
8.86161e-10
-1.00424e-10
9.62489e-10
-1.73684e-10
1.05463e-09
-2.03228e-10
1.15295e-09
-2.11129e-10
1.25292e-09
-2.1443e-10
1.35039e-09
-2.1037e-10
1.44176e-09
-1.98611e-10
1.52414e-09
-1.80219e-10
1.59554e-09
-1.57018e-10
1.65485e-09
-1.31058e-10
1.70182e-09
-1.04302e-10
1.73695e-09
-7.84523e-11
1.76129e-09
-5.48605e-11
1.77632e-09
-3.44608e-11
1.78378e-09
-1.78013e-11
1.78567e-09
-5.07508e-12
1.78361e-09
3.66793e-12
1.77939e-09
8.79805e-12
1.77444e-09
1.07361e-11
1.76997e-09
1.00466e-11
1.76684e-09
7.37869e-12
1.76564e-09
3.4208e-12
1.76653e-09
-1.17258e-12
1.76946e-09
-5.75195e-12
1.77414e-09
-9.76067e-12
1.78002e-09
-1.27838e-11
1.78647e-09
-1.4539e-11
1.79282e-09
-1.49311e-11
1.79842e-09
-1.39603e-11
1.80272e-09
-1.17449e-11
1.80528e-09
-8.46779e-12
1.80581e-09
-4.30481e-12
1.80423e-09
5.88165e-13
1.80071e-09
6.20985e-12
1.30827e-11
2.56378e-09
1.07571e-10
2.67045e-09
2.72325e-10
2.74773e-09
3.47822e-10
2.78135e-09
3.61213e-10
2.77558e-09
3.41131e-10
2.74591e-09
3.05135e-10
2.70216e-09
2.67671e-10
2.65241e-09
2.3377e-10
2.60217e-09
2.04339e-10
2.55391e-09
1.79568e-10
2.50861e-09
1.58824e-10
2.4666e-09
1.41319e-10
2.42783e-09
1.26544e-10
2.39203e-09
1.14158e-10
2.35885e-09
1.03902e-10
2.32788e-09
9.55868e-11
2.29869e-09
8.90746e-11
2.27085e-09
8.42571e-11
2.2439e-09
8.105e-11
2.21743e-09
7.93863e-11
2.19098e-09
7.92171e-11
2.16415e-09
8.05125e-11
2.13647e-09
8.32631e-11
2.10753e-09
8.74845e-11
2.07687e-09
9.32227e-11
2.04403e-09
1.00561e-10
2.00853e-09
1.09634e-10
1.96988e-09
1.20635e-10
1.92755e-09
1.33843e-10
1.88104e-09
1.4964e-10
1.82985e-09
1.68548e-10
1.77358e-09
1.91283e-10
1.71214e-09
2.18895e-10
1.6446e-09
2.63869e-10
1.58504e-09
2.35294e-10
1.55321e-09
1.18262e-10
1.55341e-09
1.41713e-11
1.58494e-09
-7.09438e-11
1.64631e-09
-1.55575e-10
1.73431e-09
-2.44962e-10
1.84516e-09
-3.52158e-10
1.96518e-09
-3.96533e-10
2.08735e-09
-3.97356e-10
2.20556e-09
-3.84921e-10
2.31592e-09
-3.58237e-10
2.4181e-09
-3.33326e-10
2.51234e-09
-3.12136e-10
2.59723e-09
-2.76791e-10
2.67383e-09
-2.54755e-10
2.74144e-09
-2.25384e-10
2.79968e-09
-1.9204e-10
2.84826e-09
-1.64706e-10
2.88614e-09
-1.20609e-10
2.91325e-09
-8.95048e-11
2.92826e-09
-3.76278e-11
2.93085e-09
4.72886e-12
2.92032e-09
5.53061e-11
2.8955e-09
1.1249e-10
2.85776e-09
1.49457e-10
2.80452e-09
2.1787e-10
2.73894e-09
2.45552e-10
2.66064e-09
2.85541e-10
2.57186e-09
3.11063e-10
2.47463e-09
3.22715e-10
2.37052e-09
3.38095e-10
2.26277e-09
3.30004e-10
2.15209e-09
3.32152e-10
2.04168e-09
3.15942e-10
1.93209e-09
3.06833e-10
1.82454e-09
2.9143e-10
1.72022e-09
2.75023e-10
1.61856e-09
2.65366e-10
1.52066e-09
2.493e-10
1.42607e-09
2.38484e-10
1.33463e-09
2.28751e-10
1.24664e-09
2.17287e-10
1.16189e-09
2.07734e-10
1.08044e-09
1.98533e-10
1.00258e-09
1.87811e-10
9.28625e-10
1.76728e-10
8.58765e-10
1.65595e-10
7.93361e-10
1.53645e-10
7.32589e-10
1.41703e-10
6.76549e-10
1.29987e-10
6.25298e-10
1.18516e-10
5.78552e-10
1.08616e-10
5.35927e-10
1.00108e-10
4.97231e-10
9.20332e-11
4.61758e-10
8.64045e-11
4.29071e-10
8.20288e-11
3.98983e-10
7.76056e-11
3.71069e-10
7.46788e-11
3.45123e-10
7.19655e-11
3.2161e-10
6.77418e-11
3.00148e-10
6.45403e-11
2.81852e-10
5.806e-11
2.66433e-10
5.22059e-11
2.55314e-10
4.24737e-11
2.48316e-10
3.28868e-11
2.47339e-10
1.85478e-11
2.52075e-10
4.54833e-12
2.64224e-10
-1.36676e-11
2.84075e-10
-3.26478e-11
3.12264e-10
-5.34012e-11
3.49827e-10
-7.69478e-11
3.96194e-10
-9.92913e-11
4.52402e-10
-1.24652e-10
5.1755e-10
-1.48004e-10
5.91534e-10
-1.71919e-10
6.73625e-10
-1.94464e-10
7.62796e-10
-2.15499e-10
8.57953e-10
-2.34183e-10
9.57897e-10
-2.51204e-10
1.06076e-09
-2.62813e-10
1.16591e-09
-2.75143e-10
1.27106e-09
-2.79725e-10
1.37515e-09
-2.82231e-10
1.47705e-09
-2.81988e-10
1.5752e-09
-2.75908e-10
1.66888e-09
-2.67903e-10
1.75755e-09
-2.58069e-10
1.84043e-09
-2.44031e-10
1.91745e-09
-2.28997e-10
1.98873e-09
-2.14405e-10
2.05429e-09
-1.98196e-10
2.11461e-09
-1.82946e-10
2.17021e-09
-1.6871e-10
2.22174e-09
-1.55649e-10
2.27001e-09
-1.45589e-10
2.31568e-09
-1.38511e-10
2.35921e-09
-1.2984e-10
2.40135e-09
-1.26738e-10
2.44309e-09
-1.28721e-10
2.4836e-09
-1.23766e-10
2.52418e-09
-1.27542e-10
2.56406e-09
-1.33195e-10
2.60273e-09
-1.26442e-10
2.64012e-09
-1.32646e-10
2.67527e-09
-1.26387e-10
2.70682e-09
-1.20429e-10
2.73408e-09
-1.09095e-10
2.75465e-09
-8.87856e-11
2.7678e-09
-6.32508e-11
2.77113e-09
-3.2025e-11
2.76349e-09
1.51188e-11
2.74347e-09
4.96225e-11
2.70892e-09
1.16913e-10
2.66e-09
1.59095e-10
2.59667e-09
2.11055e-10
2.51776e-09
2.62881e-10
2.42632e-09
2.92569e-10
2.32036e-09
3.41188e-10
2.20486e-09
3.53e-10
2.07858e-09
3.84344e-10
1.94577e-09
3.86295e-10
1.80667e-09
4.07054e-10
1.66429e-09
4.06133e-10
1.5212e-09
4.11452e-10
1.38707e-09
3.90409e-10
1.26056e-09
3.68729e-10
1.16764e-09
2.13758e-10
1.10207e-09
1.50024e-10
1.0642e-09
9.06308e-11
1.05628e-09
2.37008e-11
1.08436e-09
-6.95143e-11
1.14655e-09
-1.62619e-10
1.24069e-09
-2.67823e-10
1.3492e-09
-3.11738e-10
1.4613e-09
-3.23233e-10
1.57214e-09
-3.25268e-10
1.67765e-09
-3.15875e-10
1.77457e-09
-2.95535e-10
1.86052e-09
-2.66167e-10
1.93397e-09
-2.30475e-10
1.99427e-09
-1.91356e-10
2.04151e-09
-1.51543e-10
2.07646e-09
-1.134e-10
2.10039e-09
-7.87923e-11
2.11497e-09
-4.90354e-11
2.12207e-09
-2.49049e-11
2.12369e-09
-6.69612e-12
2.12168e-09
5.67771e-12
2.11781e-09
1.26704e-11
2.11357e-09
1.49746e-11
2.11016e-09
1.34574e-11
2.10844e-09
9.10024e-12
2.10891e-09
2.94862e-12
2.11172e-09
-3.98636e-12
2.11673e-09
-1.07587e-11
2.12352e-09
-1.65501e-11
2.13147e-09
-2.07323e-11
2.13986e-09
-2.29334e-11
2.14795e-09
-2.30145e-11
2.155e-09
-2.10162e-11
2.16042e-09
-1.7167e-11
2.16378e-09
-1.18226e-11
2.16487e-09
-5.39257e-12
2.16373e-09
1.72661e-12
2.16074e-09
9.20339e-12
1.75664e-11
2.53698e-09
7.05893e-11
2.61766e-09
1.91647e-10
2.70056e-09
2.64922e-10
2.76513e-09
2.96644e-10
2.80583e-09
3.00431e-10
2.82321e-09
2.8775e-10
2.82304e-09
2.67839e-10
2.81164e-09
2.45176e-10
2.79323e-09
2.22748e-10
2.77082e-09
2.01978e-10
2.74652e-09
1.83121e-10
2.72164e-09
1.66197e-10
2.69687e-09
1.51315e-10
2.67256e-09
1.38465e-10
2.64885e-09
1.2761e-10
2.62572e-09
1.18716e-10
2.60306e-09
1.11741e-10
2.58067e-09
1.06644e-10
2.55833e-09
1.03385e-10
2.53579e-09
1.01927e-10
2.51276e-09
1.02248e-10
2.48893e-09
1.04341e-10
2.46398e-09
1.08219e-10
2.43754e-09
1.13918e-10
2.40926e-09
1.21508e-10
2.37873e-09
1.31091e-10
2.34554e-09
1.42819e-10
2.30928e-09
1.56901e-10
2.26951e-09
1.73615e-10
2.22582e-09
1.93325e-10
2.17787e-09
2.16498e-10
2.12542e-09
2.43727e-10
2.06849e-09
2.75831e-10
2.00622e-09
3.26134e-10
1.95073e-09
2.90787e-10
1.91922e-09
1.49779e-10
1.91703e-09
1.63684e-11
1.94504e-09
-9.89515e-11
2.00159e-09
-2.12136e-10
2.08199e-09
-3.25374e-10
2.18102e-09
-4.51211e-10
2.28741e-09
-5.02953e-10
2.39656e-09
-5.06523e-10
2.50201e-09
-4.90365e-10
2.60008e-09
-4.56291e-10
2.69045e-09
-4.23662e-10
2.77336e-09
-3.95022e-10
2.84829e-09
-3.51697e-10
2.91548e-09
-3.21945e-10
2.97435e-09
-2.84254e-10
3.02561e-09
-2.43319e-10
3.06826e-09
-2.07367e-10
3.10235e-09
-1.54708e-10
3.1272e-09
-1.14358e-10
3.14271e-09
-5.31412e-11
3.1481e-09
-6.5517e-13
3.14321e-09
6.0196e-11
3.1271e-09
1.28601e-10
3.09999e-09
1.76568e-10
3.06072e-09
2.57138e-10
3.00997e-09
2.96302e-10
2.94733e-09
3.48172e-10
2.87399e-09
3.84406e-10
2.79064e-09
4.06072e-10
2.69874e-09
4.30004e-10
2.60005e-09
4.2871e-10
2.49598e-09
4.36224e-10
2.38862e-09
4.23296e-10
2.27939e-09
4.16035e-10
2.16953e-09
4.01263e-10
2.06067e-09
3.83849e-10
1.95286e-09
3.73161e-10
1.84753e-09
3.54637e-10
1.74468e-09
3.4135e-10
1.64453e-09
3.28939e-10
1.54759e-09
3.14262e-10
1.4538e-09
3.01554e-10
1.36338e-09
2.88977e-10
1.27665e-09
2.74547e-10
1.19404e-09
2.59335e-10
1.11574e-09
2.43876e-10
1.04223e-09
2.27126e-10
9.73816e-10
2.10097e-10
9.10728e-10
1.93056e-10
8.53245e-10
1.75984e-10
8.01219e-10
1.60633e-10
7.54398e-10
1.46924e-10
7.12896e-10
1.33534e-10
6.7587e-10
1.23431e-10
6.42906e-10
1.14996e-10
6.13922e-10
1.06592e-10
5.88252e-10
1.00352e-10
5.65458e-10
9.47624e-11
5.46257e-10
8.69459e-11
5.29616e-10
8.1183e-11
5.17232e-10
7.04453e-11
5.08067e-10
6.13714e-11
5.0418e-10
4.63621e-11
5.04673e-10
3.23936e-11
5.12279e-10
1.09418e-11
5.25881e-10
-9.05303e-12
5.4787e-10
-3.56566e-11
5.78015e-10
-6.27929e-11
6.17083e-10
-9.24682e-11
6.66221e-10
-1.26086e-10
7.24383e-10
-1.57453e-10
7.92695e-10
-1.92964e-10
8.69744e-10
-2.25052e-10
9.5517e-10
-2.57344e-10
1.04794e-09
-2.87231e-10
1.14658e-09
-3.14133e-10
1.24974e-09
-3.37342e-10
1.35592e-09
-3.57374e-10
1.46305e-09
-3.69925e-10
1.57041e-09
-3.82493e-10
1.67566e-09
-3.84951e-10
1.77781e-09
-3.84353e-10
1.87588e-09
-3.80013e-10
1.96858e-09
-3.68575e-10
2.0555e-09
-3.54778e-10
2.13642e-09
-3.38957e-10
2.21093e-09
-3.1852e-10
2.27933e-09
-2.97407e-10
2.34195e-09
-2.77068e-10
2.39915e-09
-2.55485e-10
2.4516e-09
-2.35522e-10
2.49992e-09
-2.17206e-10
2.54486e-09
-2.00776e-10
2.58716e-09
-1.88058e-10
2.62737e-09
-1.78859e-10
2.66602e-09
-1.6856e-10
2.70348e-09
-1.64155e-10
2.74073e-09
-1.65836e-10
2.77683e-09
-1.59639e-10
2.81266e-09
-1.63103e-10
2.8472e-09
-1.67457e-10
2.88064e-09
-1.59658e-10
2.9119e-09
-1.63797e-10
2.94085e-09
-1.55338e-10
2.96587e-09
-1.45545e-10
2.98679e-09
-1.30176e-10
3.00161e-09
-1.03765e-10
3.01017e-09
-7.19314e-11
3.01028e-09
-3.21957e-11
3.00184e-09
2.35613e-11
2.9827e-09
6.87851e-11
2.95249e-09
1.47158e-10
2.90955e-09
2.0206e-10
2.85425e-09
2.66364e-10
2.78468e-09
3.32448e-10
2.70252e-09
3.74723e-10
2.60594e-09
4.37765e-10
2.4979e-09
4.61039e-10
2.3773e-09
5.04946e-10
2.24745e-09
5.1615e-10
2.10944e-09
5.4506e-10
1.96527e-09
5.50312e-10
1.81986e-09
5.56861e-10
1.68521e-09
5.25063e-10
1.55908e-09
4.94861e-10
1.46751e-09
3.05324e-10
1.40678e-09
2.10761e-10
1.37868e-09
1.18731e-10
1.38506e-09
1.73167e-11
1.43113e-09
-1.15581e-10
1.5115e-09
-2.42996e-10
1.62136e-09
-3.77683e-10
1.74059e-09
-4.30963e-10
1.85849e-09
-4.41139e-10
1.97101e-09
-4.3778e-10
2.0749e-09
-4.19766e-10
2.16785e-09
-3.88488e-10
2.24837e-09
-3.46685e-10
2.31573e-09
-2.97832e-10
2.3699e-09
-2.45526e-10
2.41146e-09
-1.93107e-10
2.4415e-09
-1.43438e-10
2.46148e-09
-9.87698e-11
2.47312e-09
-6.06747e-11
2.47827e-09
-3.00612e-11
2.47882e-09
-7.24441e-12
2.47653e-09
7.96445e-12
2.47302e-09
1.61806e-11
2.46965e-09
1.83473e-11
2.46748e-09
1.56309e-11
2.46724e-09
9.33878e-12
2.46933e-09
8.51419e-13
2.47385e-09
-8.50139e-12
2.48058e-09
-1.74844e-11
2.48907e-09
-2.50401e-11
2.49869e-09
-3.03572e-11
2.50873e-09
-3.29769e-11
2.51843e-09
-3.27143e-11
2.52707e-09
-2.96539e-11
2.53404e-09
-2.41382e-11
2.53893e-09
-1.67057e-11
2.54153e-09
-7.99918e-12
2.54196e-09
1.30325e-12
2.54059e-09
1.05695e-11
2.05126e-11
2.52315e-09
4.74415e-11
2.58139e-09
1.33402e-10
2.65328e-09
1.93032e-10
2.72327e-09
2.26653e-10
2.7828e-09
2.40903e-10
2.82858e-09
2.41966e-10
2.86142e-09
2.35007e-10
2.88292e-09
2.23671e-10
2.89533e-09
2.10335e-10
2.90109e-09
1.96218e-10
2.90208e-09
1.82133e-10
2.89948e-09
1.68798e-10
2.89416e-09
1.56629e-10
2.88683e-09
1.45793e-10
2.87794e-09
1.36499e-10
2.86778e-09
1.28882e-10
2.8565e-09
1.23021e-10
2.84418e-09
1.18964e-10
2.83082e-09
1.16747e-10
2.81637e-09
1.16375e-10
2.80073e-09
1.17886e-10
2.78376e-09
1.21314e-10
2.76527e-09
1.26708e-10
2.74504e-09
1.34149e-10
2.72281e-09
1.43739e-10
2.69828e-09
1.55615e-10
2.67115e-09
1.69953e-10
2.64107e-09
1.86981e-10
2.6077e-09
2.06982e-10
2.57073e-09
2.30299e-10
2.52988e-09
2.57344e-10
2.48499e-09
2.88611e-10
2.43606e-09
3.24764e-10
2.38232e-09
3.79871e-10
2.333e-09
3.40113e-10
2.30151e-09
1.81273e-10
2.29385e-09
2.40279e-11
2.31266e-09
-1.17756e-10
2.35653e-09
-2.55999e-10
2.4204e-09
-3.89252e-10
2.49908e-09
-5.29911e-10
2.58426e-09
-5.88159e-10
2.67338e-09
-5.95667e-10
2.7596e-09
-5.766e-10
2.8394e-09
-5.36085e-10
2.91247e-09
-4.96717e-10
2.97916e-09
-4.61684e-10
3.03923e-09
-4.11747e-10
3.09303e-09
-3.75729e-10
3.13987e-09
-3.3109e-10
3.18081e-09
-2.84263e-10
3.21492e-09
-2.41481e-10
3.24293e-09
-1.82732e-10
3.26388e-09
-1.35313e-10
3.27851e-09
-6.77711e-11
3.28584e-09
-7.98365e-12
3.28613e-09
5.99068e-11
3.27868e-09
1.36053e-10
3.26303e-09
1.92212e-10
3.239e-09
2.8117e-10
3.20565e-09
3.29649e-10
3.1625e-09
3.91322e-10
3.10987e-09
4.37037e-10
3.0473e-09
4.68653e-10
2.97589e-09
5.01418e-10
2.89603e-09
5.08585e-10
2.8092e-09
5.23047e-10
2.71642e-09
5.16062e-10
2.61942e-09
5.13022e-10
2.51921e-09
5.01443e-10
2.41765e-09
4.85388e-10
2.31515e-09
4.75664e-10
2.2134e-09
4.56398e-10
2.11282e-09
4.41954e-10
2.01396e-09
4.27828e-10
1.91763e-09
4.10623e-10
1.82391e-09
3.95293e-10
1.73319e-09
3.79712e-10
1.64581e-09
3.61919e-10
1.56228e-09
3.42847e-10
1.48276e-09
3.23382e-10
1.40775e-09
3.02111e-10
1.33758e-09
2.80248e-10
1.27256e-09
2.58057e-10
1.21315e-09
2.35386e-10
1.15932e-09
2.14454e-10
1.11099e-09
1.95252e-10
1.06865e-09
1.75878e-10
1.03144e-09
1.60645e-10
9.99122e-10
1.47317e-10
9.71711e-10
1.34007e-10
9.48497e-10
1.23569e-10
9.28812e-10
1.1445e-10
9.13617e-10
1.02144e-10
9.01346e-10
9.34551e-11
8.94127e-10
7.76656e-11
8.90384e-10
6.51147e-11
8.92647e-10
4.40998e-11
8.99514e-10
2.55273e-11
9.14314e-10
-3.8589e-12
9.354e-10
-3.01389e-11
9.6556e-10
-6.58165e-11
1.00416e-09
-1.01392e-10
1.05197e-09
-1.40282e-10
1.10993e-09
-1.84039e-10
1.17662e-09
-2.24145e-10
1.25289e-09
-2.69238e-10
1.33697e-09
-3.09129e-10
1.42802e-09
-3.48394e-10
1.52478e-09
-3.83989e-10
1.62532e-09
-4.14666e-10
1.72819e-09
-4.40212e-10
1.83161e-09
-4.60793e-10
1.93359e-09
-4.71892e-10
2.03335e-09
-4.82239e-10
2.12876e-09
-4.80348e-10
2.21903e-09
-4.74602e-10
2.30348e-09
-4.64431e-10
2.38129e-09
-4.46339e-10
2.45239e-09
-4.25836e-10
2.51703e-09
-4.03542e-10
2.5752e-09
-3.76645e-10
2.62758e-09
-3.49746e-10
2.67472e-09
-3.24201e-10
2.71729e-09
-2.98083e-10
2.75611e-09
-2.74417e-10
2.7919e-09
-2.53115e-10
2.8254e-09
-2.34438e-10
2.85725e-09
-2.2009e-10
2.88787e-09
-2.0965e-10
2.91766e-09
-1.98492e-10
2.94684e-09
-1.93404e-10
2.97623e-09
-1.95211e-10
3.00467e-09
-1.87969e-10
3.0329e-09
-1.91131e-10
3.05967e-09
-1.93988e-10
3.08565e-09
-1.85407e-10
3.1092e-09
-1.87164e-10
3.13076e-09
-1.76797e-10
3.14867e-09
-1.63466e-10
3.16322e-09
-1.44814e-10
3.17282e-09
-1.13487e-10
3.17779e-09
-7.70128e-11
3.17627e-09
-3.07547e-11
3.16897e-09
3.08305e-11
3.15337e-09
8.43853e-11
3.13033e-09
1.70215e-10
3.09721e-09
2.35206e-10
3.05459e-09
3.08995e-10
3.00005e-09
3.86986e-10
2.93426e-09
4.40517e-10
2.85529e-09
5.16726e-10
2.7645e-09
5.51832e-10
2.6605e-09
6.08951e-10
2.54562e-09
6.31024e-10
2.42034e-09
6.70352e-10
2.2869e-09
6.8375e-10
2.15094e-09
6.92831e-10
2.02748e-09
6.48519e-10
1.91378e-09
6.08564e-10
1.83594e-09
3.83165e-10
1.79102e-09
2.55674e-10
1.7811e-09
1.28648e-10
1.80699e-09
-8.56552e-12
1.87218e-09
-1.8077e-10
1.96766e-09
-3.38476e-10
2.08623e-09
-4.96255e-10
2.20763e-09
-5.52368e-10
2.32255e-09
-5.56054e-10
2.42815e-09
-5.43382e-10
2.52235e-09
-5.13968e-10
2.60394e-09
-4.70072e-10
2.6724e-09
-4.1515e-10
2.72786e-09
-3.53286e-10
2.77092e-09
-2.88591e-10
2.80263e-09
-2.2482e-10
2.82436e-09
-1.65164e-10
2.83769e-09
-1.12101e-10
2.84434e-09
-6.73185e-11
2.84601e-09
-3.17396e-11
2.84439e-09
-5.61976e-12
2.84098e-09
1.13709e-11
2.83714e-09
2.00218e-11
2.83397e-09
2.15154e-11
2.83232e-09
1.72893e-11
2.83273e-09
8.92285e-12
2.83548e-09
-1.89264e-12
2.84056e-09
-1.35876e-11
2.84775e-09
-2.4678e-11
2.85663e-09
-3.39116e-11
2.86661e-09
-4.03431e-11
2.87705e-09
-4.34189e-11
2.88726e-09
-4.29236e-11
2.89659e-09
-3.89808e-11
2.90449e-09
-3.20338e-11
2.91056e-09
-2.27782e-11
2.91463e-09
-1.20677e-11
2.91675e-09
-8.14924e-13
2.91725e-09
1.00679e-11
2.15977e-11
2.51583e-09
3.16107e-11
2.55897e-09
9.02604e-11