/*--------------------------------*- C++ -*----------------------------------*\
| =========                 |                                                 |
| \\      /  F ield         | OpenFOAM: The Open Source CFD Toolbox           |
|  \\    /   O peration     | Version:  2506                                  |
|   \\  /    A nd           | Website:  www.openfoam.com                      |
|    \\/     M anipulation  |                                                 |
\*---------------------------------------------------------------------------*/
FoamFile
{
    version     2.0;
    format      ascii;
    arch        "LSB;label=32;scalar=64";
    class       volScalarField;
    location    "2";
    object      s;
}
// * * * * * * * * * * * * * * * * * * * * * * * * * * * * * * * * * * * * * //

dimensions      [0 0 0 0 0 0 0];

internalField   nonuniform List<scalar> 
4000
(
-1.96823e-18
5.64365e-18
7.61674e-17
-2.57979e-14
-2.20243e-12
-7.73037e-11
-9.03853e-10
-8.73464e-09
8.13033e-08
3.14611e-06
4.54303e-05
0.000472576
0.00642148
0.0380521
0.120987
0.217905
0.252165
0.249112
0.220549
0.150502
0.0658363
0.01291
0.00231254
0.00192771
0.0016347
0.00128848
0.00097838
0.000745361
0.000617194
0.000662106
0.00100682
0.00181675
0.00300071
0.00415517
0.00324012
0.00142137
0.000587626
0.000912897
0.0022737
0.00499437
0.0105701
0.0175838
0.0225019
0.0256896
0.0273455
0.0280649
0.0283925
0.0276089
0.0265963
0.0250124
0.0226363
0.0201713
0.0166853
0.0134571
0.00970362
0.00680898
0.00465622
0.00304363
0.00187854
0.00108759
0.000591864
0.000305368
0.000150669
7.22676e-05
3.48332e-05
1.74223e-05
9.11339e-06
4.86273e-06
2.56781e-06
1.30709e-06
6.34101e-07
2.93132e-07
1.29286e-07
5.46845e-08
2.22169e-08
8.66827e-09
3.26028e-09
1.18494e-09
4.16571e-10
1.42051e-10
4.70928e-11
1.52127e-11
4.79443e-12
1.46726e-12
4.28361e-13
1.16049e-13
2.58632e-14
2.39752e-15
-1.11701e-15
-9.83278e-16
-5.88927e-16
-2.62506e-16
-8.366e-17
-4.42602e-17
-2.72385e-17
-1.76863e-17
-1.4065e-17
-1.02143e-17
-9.17966e-19
3.67944e-17
1.74409e-16
6.61861e-16
3.65555e-15
2.70966e-14
9.04566e-14
2.15278e-13
4.26913e-13
7.59542e-13
7.06765e-13
1.2589e-13
6.30894e-13
1.38833e-12
-1.29127e-12
-1.56596e-11
-6.23693e-11
-1.0139e-10
-1.65359e-10
-2.01461e-10
-2.27149e-10
-2.22978e-10
-1.72245e-10
-8.5727e-11
-3.21112e-12
5.49412e-11
8.77732e-11
1.0507e-10
1.04378e-10
9.20705e-11
7.63382e-11
6.19698e-11
4.70002e-11
3.58808e-11
2.89366e-11
2.10952e-11
1.63171e-11
1.41575e-11
9.81565e-12
8.5432e-12
6.2992e-12
4.74682e-12
3.30007e-12
1.96448e-12
1.01517e-12
5.03834e-13
2.00402e-13
7.4536e-14
2.765e-14
1.06248e-14
4.36741e-15
1.92752e-15
8.80757e-16
3.85308e-16
1.37321e-16
1.33746e-17
-2.57055e-17
-1.98792e-17
-1.55282e-17
-1.37637e-17
-5.5794e-18
-5.05767e-18
-5.68496e-18
-6.91868e-18
-7.73172e-18
-7.87178e-18
-9.07242e-18
-3.27334e-17
-4.48992e-16
1.14669e-15
2.7164e-15
3.25211e-15
3.00704e-15
2.28449e-15
1.30032e-15
4.84156e-16
7.54895e-17
-2.95786e-18
-4.7271e-18
-1.57948e-18
-1.59546e-18
-5.96026e-19
-1.11055e-19
6.36012e-21
1.34089e-20
6.03288e-21
3.0554e-21
1.72646e-21
9.26756e-22
-9.48626e-24
-7.27888e-22
-9.02675e-22
-6.91576e-22
-3.52175e-22
-1.18944e-22
-1.15353e-23
1.86326e-23
1.35976e-23
2.61006e-24
-8.91988e-25
-5.90912e-26
9.18148e-26
3.51282e-18
-4.70556e-17
3.58291e-16
-2.02408e-15
-1.2305e-13
-4.75329e-12
-6.21735e-11
-1.253e-09
-1.3247e-09
1.58622e-07
3.5289e-06
3.57864e-05
0.000376793
0.00166456
0.0044577
0.00878527
0.0133282
0.0171427
0.0198727
0.0219048
0.0234615
0.0253293
0.0279437
0.0313436
0.0356883
0.042489
0.0549018
0.0776405
0.115584
0.167024
0.215574
0.237578
0.227809
0.192457
0.128667
0.0748584
0.052559
0.0574115
0.0734101
0.0905427
0.107734
0.12032
0.126715
0.132001
0.136615
0.140546
0.143887
0.146726
0.149171
0.151324
0.153226
0.154921
0.156184
0.15688
0.156477
0.154542
0.150327
0.142591
0.13231
0.118328
0.101887
0.0820711
0.0589785
0.035523
0.0195144
0.0112848
0.00663284
0.00383965
0.00213532
0.00112227
0.000551069
0.000254795
0.000112565
4.78505e-05
1.96475e-05
7.79558e-06
3.0027e-06
1.13002e-06
4.1769e-07
1.52166e-07
5.46066e-08
1.93392e-08
6.73765e-09
2.29655e-09
7.61757e-10
2.45044e-10
7.60086e-11
2.26294e-11
6.46654e-12
1.74579e-12
4.28416e-13
8.85642e-14
9.09004e-15
-6.39446e-15
-9.16179e-15
-1.10295e-14
-1.30049e-14
-1.10273e-14
1.53716e-15
3.68522e-14
1.39742e-13
4.79393e-13
1.59612e-12
4.85396e-12
1.30367e-11
3.01452e-11
3.98369e-11
-4.31772e-11
-4.77241e-10
-1.46017e-09
-2.6311e-09
-5.31802e-09
-1.03252e-08
-1.88995e-08
-3.33246e-08
-4.74427e-08
-6.44765e-08
-7.85101e-08
-9.12751e-08
-9.58613e-08
-9.11424e-08
-7.95993e-08
-6.55027e-08
-5.19722e-08
-3.92894e-08
-2.72036e-08
-1.82021e-08
-1.18793e-08
-7.67146e-09
-4.97519e-09
-3.16203e-09
-2.06512e-09
-1.47053e-09
-1.04987e-09
-8.18963e-10
-7.29734e-10
-5.99288e-10
-5.39496e-10
-4.53536e-10
-3.67358e-10
-2.71962e-10
-1.71615e-10
-8.7039e-11
-3.2414e-11
-2.55639e-12
5.77543e-12
6.70579e-12
5.49362e-12
3.95653e-12
2.64254e-12
1.65486e-12
9.68819e-13
5.21681e-13
2.55113e-13
1.11227e-13
4.29674e-14
1.43205e-14
4.00741e-15
9.80214e-16
2.3721e-16
2.53456e-16
5.05598e-16
9.71872e-16
1.73541e-15
2.78661e-15
5.28346e-15
1.79808e-14
3.51194e-13
6.22095e-13
6.9858e-13
6.25728e-13
4.54324e-13
2.71245e-13
1.27472e-13
4.07445e-14
1.32986e-14
4.77245e-15
1.66037e-15
4.90818e-16
1.28194e-16
3.11407e-17
7.45721e-18
-1.25371e-18
-1.76325e-18
-1.4002e-18
-1.06512e-18
-8.05521e-19
-6.1523e-19
-4.77809e-19
-3.58965e-19
-2.53364e-19
-1.64435e-19
-9.62036e-20
-4.79731e-20
-1.93581e-20
-5.41868e-21
-5.22764e-22
2.36306e-22
7.90958e-23
3.09892e-24
2.17376e-18
-1.90791e-17
7.03799e-17
-1.09774e-16
-1.07301e-14
-1.65248e-13
-6.00356e-12
-2.40639e-11
-9.67875e-10
5.10261e-09
1.01434e-07
2.66053e-07
3.6734e-07
7.22504e-07
1.47901e-06
2.57284e-06
4.27808e-06
6.67209e-06
1.224e-05
4.9501e-05
0.000477454
0.00132468
0.00237834
0.00360644
0.00510046
0.00711937
0.0102081
0.0153655
0.0241084
0.0380789
0.0580635
0.0822319
0.108996
0.135608
0.149571
0.150537
0.150087
0.147068
0.142477
0.137357
0.129047
0.119986
0.11363
0.109678
0.107961
0.108475
0.110702
0.115156
0.120861
0.127644
0.135464
0.143513
0.15243
0.161478
0.171669
0.181438
0.18932
0.195093
0.198694
0.199629
0.198189
0.193336
0.184152
0.170036
0.15203
0.13027
0.101856
0.0732522
0.045997
0.0243485
0.0131266
0.00763907
0.00464178
0.0028535
0.00171548
0.00099005
0.000544292
0.000285336
0.000143176
6.88165e-05
3.16078e-05
1.37997e-05
5.7118e-06
2.2389e-06
8.34597e-07
2.96841e-07
1.00608e-07
3.24543e-08
1.0006e-08
2.94925e-09
8.30513e-10
2.2609e-10
5.87265e-11
1.37032e-11
1.3e-12
-3.61301e-12
-8.77071e-12
-1.36766e-11
-1.7072e-11
-2.01779e-11
-3.03164e-11
-5.77431e-11
-1.3895e-10
-4.06241e-10
-1.32748e-09
-4.32394e-09
-1.25267e-08
-3.99398e-08
-1.19133e-07
-2.64449e-07
-4.69349e-07
-9.05016e-07
-1.51786e-06
-2.34509e-06
-3.40519e-06
-4.4619e-06
-5.60403e-06
-6.61927e-06
-7.58918e-06
-7.95789e-06
-7.75579e-06
-7.19403e-06
-6.4261e-06
-5.58753e-06
-4.70061e-06
-3.73974e-06
-2.95038e-06
-2.29976e-06
-1.77954e-06
-1.37629e-06
-1.05369e-06
-8.10478e-07
-6.35531e-07
-4.92312e-07
-3.8885e-07
-3.16469e-07
-2.49986e-07
-2.03707e-07
-1.61502e-07
-1.25367e-07
-9.26171e-08
-6.29111e-08
-3.86011e-08
-2.15906e-08
-1.16439e-08
-6.33187e-09
-3.43017e-09
-1.85455e-09
-9.88044e-10
-5.13001e-10
-2.58479e-10
-1.24029e-10
-5.66691e-11
-2.41499e-11
-9.51053e-12
-3.33875e-12
-9.8988e-13
-2.10903e-13
-9.14113e-15
2.06868e-14
3.10196e-14
6.71007e-14
1.61319e-13
3.37561e-13
8.44343e-13
2.51833e-12
4.28758e-12
6.8553e-12
8.49216e-12
9.38011e-12
9.05114e-12
7.6542e-12
5.61863e-12
4.00296e-12
2.39973e-12
1.23192e-12
5.75479e-13
2.34013e-13
7.59605e-14
2.25598e-14
6.71952e-15
2.00226e-15
5.87959e-16
1.69934e-16
4.41519e-17
1.35566e-17
1.36025e-18
2.96957e-19
-1.758e-19
-1.19658e-18
-8.29472e-19
-4.11418e-19
-2.27218e-19
-1.87081e-19
-1.62383e-19
-1.05774e-19
-3.74416e-20
5.58031e-21
1.27087e-20
6.30311e-21
-1.32166e-18
3.7995e-18
-2.4018e-17
2.63744e-17
-6.94169e-16
-1.82015e-14
-2.2429e-13
-1.4578e-12
-1.9848e-10
5.33476e-10
3.90481e-10
-9.52936e-09
-4.56367e-08
-6.38339e-08
-6.99972e-08
-1.02337e-07
-1.69684e-07
-2.00425e-07
-1.82112e-07
-9.55925e-08
-1.00271e-07
1.68811e-07
5.68187e-07
1.0829e-06
1.78213e-06
2.79372e-06
4.33015e-06
6.83481e-06
1.2039e-05
2.93023e-05
0.000424046
0.00255942
0.00760524
0.0179745
0.0320091
0.0383669
0.037121
0.0336124
0.0295322
0.025
0.0199602
0.0159382
0.0133426
0.0118102
0.0110897
0.0109375
0.0111757
0.0118647
0.0128746
0.0142574
0.0161078
0.0183844
0.0214495
0.0253017
0.0305803
0.0378524
0.0488546
0.0656064
0.0849745
0.106655
0.127567
0.147065
0.163994
0.172269
0.175121
0.175527
0.171976
0.164453
0.152557
0.134033
0.107086
0.0796996
0.0550912
0.0343482
0.0209211
0.0132384
0.00839049
0.00529608
0.00331048
0.00199567
0.00113185
0.000601176
0.000301911
0.000144732
6.60863e-05
2.86122e-05
1.17866e-05
4.643e-06
1.76352e-06
6.47996e-07
2.30497e-07
7.96477e-08
2.67486e-08
8.69322e-09
2.72016e-09
7.70639e-10
6.4219e-11
-7.65541e-10
-3.5114e-09
-7.61175e-09
-1.21229e-08
-2.30458e-08
-6.02728e-08
-1.58213e-07
-3.75106e-07
-9.1243e-07
-1.74264e-06
-3.85497e-06
-9.03392e-06
-1.73103e-05
-2.7963e-05
-3.95416e-05
-5.1535e-05
-6.27341e-05
-7.2616e-05
-7.95427e-05
-8.38825e-05
-8.54945e-05
-8.34804e-05
-7.93941e-05
-7.44828e-05
-6.86328e-05
-6.20661e-05
-5.53119e-05
-4.89421e-05
-4.34007e-05
-3.74416e-05
-3.21842e-05
-2.75421e-05
-2.35063e-05
-1.99664e-05
-1.69443e-05
-1.44533e-05
-1.22876e-05
-1.0491e-05
-9.00275e-06
-7.63933e-06
-6.49592e-06
-5.45199e-06
-4.51353e-06
-3.6564e-06
-2.86911e-06
-2.15592e-06
-1.52326e-06
-9.95469e-07
-6.30692e-07
-3.86949e-07
-2.30048e-07
-1.31279e-07
-7.1337e-08
-3.71224e-08
-1.80863e-08
-8.2489e-09
-3.47282e-09
-1.35524e-09
-4.79824e-10
-1.52096e-10
-4.16561e-11
-9.50471e-12
-1.61191e-12
-1.38043e-13
2.47852e-13
7.3194e-13
2.57199e-12
6.0174e-12
8.83252e-12
4.33084e-12
-2.68445e-12
-1.82887e-11
-3.50858e-11
-3.63899e-11
-2.22557e-11
-4.56174e-12
1.01759e-11
1.32e-11
1.0461e-11
6.42347e-12
3.47287e-12
1.4364e-12
5.24318e-13
1.89451e-13
6.90907e-14
2.46429e-14
8.57183e-15
2.92136e-15
9.84361e-16
3.63598e-16
1.65686e-16
1.02536e-16
8.33978e-17
6.45751e-17
5.19811e-17
3.83204e-17
2.32222e-17
9.89918e-18
3.57472e-18
2.11128e-19
-1.15926e-18
-1.25359e-18
-6.40758e-19
-7.7732e-19
2.51714e-18
-6.40658e-18
-1.90385e-17
-3.17014e-17
-1.52404e-15
-2.17973e-14
-2.19321e-13
-1.46016e-12
9.49073e-11
-5.07425e-10
-1.53764e-09
-2.44122e-09
-5.02012e-09
-1.19071e-08
-2.47533e-08
-4.35063e-08
-6.0716e-08
-6.71555e-08
-7.47303e-08
-6.24572e-08
-4.04043e-08
-2.43577e-08
-1.55284e-08
-1.56883e-08
-3.22981e-08
-5.76978e-08
7.86814e-09
5.41314e-07
1.81021e-06
3.4352e-06
5.14211e-06
5.55915e-06
-2.68612e-06
4.08681e-05
0.000179825
0.000380874
0.000595485
0.000741422
0.000781297
0.000717434
0.000628717
0.000554255
0.000501113
0.000472199
0.000463179
0.000469696
0.000495766
0.000536667
0.000596341
0.000680089
0.000789649
0.000943207
0.00114594
0.00145596
0.00197086
0.00295756
0.00526275
0.0095114
0.0171048
0.0280393
0.0442759
0.0671295
0.0925075
0.116658
0.137153
0.154405
0.163953
0.168279
0.175218
0.175039
0.170797
0.163082
0.150003
0.129503
0.10647
0.0842089
0.0626363
0.0422981
0.0272124
0.0173614
0.0108241
0.00665144
0.00399801
0.00226759
0.00118272
0.000574863
0.000268331
0.000122185
5.42932e-05
2.35754e-05
1.00872e-05
4.27392e-06
1.79547e-06
7.44885e-07
3.01241e-07
1.1706e-07
4.14513e-08
1.26847e-08
-1.38919e-08
-1.95428e-07
-8.06652e-07
-2.29422e-06
-5.49529e-06
-1.16823e-05
-2.3018e-05
-3.68813e-05
-5.22229e-05
-7.10542e-05
-8.81183e-05
-0.000116376
-0.000150035
-0.000189311
-0.000225262
-0.000239889
-0.000238197
-0.000229215
-0.000213143
-0.000193062
-0.000172847
-0.000154287
-0.000137863
-0.00012409
-0.000112456
-0.000102125
-9.26551e-05
-8.37146e-05
-7.52517e-05
-6.72874e-05
-5.97867e-05
-5.2919e-05
-4.68269e-05
-4.1525e-05
-3.65039e-05
-3.20606e-05
-2.80128e-05
-2.41067e-05
-2.07133e-05
-1.74969e-05
-1.45854e-05
-1.19572e-05
-9.612e-06
-7.62736e-06
-6.02442e-06
-4.47603e-06
-3.26271e-06
-2.29842e-06
-1.55619e-06
-1.00125e-06
-6.03474e-07
-3.31125e-07
-1.61137e-07
-7.83374e-08
-3.74932e-08
-1.74341e-08
-7.65946e-09
-3.15812e-09
-1.2104e-09
-4.33517e-10
-1.44893e-10
-4.90488e-11
-1.69883e-11
-5.71719e-12
1.69624e-13
-1.44577e-11
-7.6678e-11
-5.04123e-10
-1.61077e-09
-2.932e-09
-3.6406e-09
-3.40595e-09
-2.52087e-09
-1.49869e-09
-6.88013e-10
-2.92968e-10
-1.10856e-10
-3.34745e-11
-4.75179e-12
3.04707e-12
3.70592e-12
2.57369e-12
1.43579e-12
6.95286e-13
3.06066e-13
1.23436e-13
5.07447e-14
2.41402e-14
1.01599e-14
5.7463e-15
3.3105e-15
1.73294e-15
7.64557e-16
3.58396e-16
2.00007e-16
1.47531e-16
1.14231e-16
9.46363e-17
7.16309e-17
4.75006e-17
1.8455e-17
5.84631e-20
-1.07607e-20
-4.88929e-19
-6.92122e-19
-5.07656e-17
-6.34098e-17
-2.21471e-15
-4.04287e-13
3.1936e-12
2.23308e-13
-2.52743e-11
-5.1791e-12
4.26946e-11
1.43866e-10
2.59638e-10
3.0783e-10
1.97104e-10
-1.42203e-11
-2.30905e-10
-5.77583e-10
-7.9237e-10
-1.17926e-09
-2.29121e-09
-4.20723e-09
-6.87204e-09
-9.46989e-09
-1.0805e-08
-5.16478e-09
2.3486e-08
1.01033e-07
1.68899e-07
2.98716e-07
2.41451e-07
-8.93747e-07
-3.41208e-06
-1.31247e-06
2.30112e-06
4.56369e-06
5.3663e-06
5.19796e-06
4.51234e-06
3.81791e-06
3.27861e-06
2.90512e-06
2.69265e-06
2.61026e-06
2.63604e-06
2.79018e-06
3.0592e-06
3.47882e-06
4.09961e-06
4.97754e-06
6.28489e-06
8.15836e-06
1.10312e-05
1.54831e-05
2.29272e-05
3.42587e-05
4.9292e-05
6.7693e-05
0.000356746
0.00221062
0.00726423
0.016417
0.0307553
0.0504796
0.0750591
0.100367
0.122451
0.142597
0.160376
0.170998
0.178174
0.186746
0.196399
0.199299
0.198184
0.194364
0.185426
0.169545
0.147333
0.122493
0.0963481
0.0672895
0.0398224
0.0226409
0.0130532
0.00755825
0.00426789
0.00228309
0.00115542
0.000575142
0.000291594
0.000151828
8.05678e-05
4.33384e-05
2.33191e-05
1.2427e-05
6.38986e-06
2.83157e-06
3.10474e-07
-2.29912e-06
-6.15696e-06
-1.29849e-05
-2.68275e-05
-5.25571e-05
-9.64816e-05
-0.000126738
-0.000132996
-0.00010512
-2.32206e-05
0.000121313
0.000329933
0.000653946
0.00149873
0.00260802
0.00373762
0.00471349
0.00535807
0.00563153
0.00556387
0.00518502
0.00459097
0.00388815
0.0031502
0.00244903
0.00183811
0.00133488
0.000939447
0.000647889
0.00043847
0.000292575
0.000195198
0.000129349
8.97363e-05
6.54611e-05
4.86236e-05
3.73344e-05
2.87226e-05
2.15663e-05
1.53386e-05
9.57795e-06
4.62556e-06
8.59737e-07
-1.34308e-06
-2.30436e-06
-2.54752e-06
-2.40637e-06
-2.0831e-06
-1.69956e-06
-1.3226e-06
-9.8361e-07
-7.05782e-07
-4.89878e-07
-3.29975e-07
-2.1552e-07
-1.36701e-07
-8.55086e-08
-5.06634e-08
-2.39267e-08
-9.41319e-09
-2.70436e-09
-3.71371e-10
-9.53728e-11
-1.1007e-09
-3.26063e-09
-8.74801e-09
-1.61666e-08
-2.14314e-08
-2.35862e-08
-2.34022e-08
-2.16139e-08
-1.84273e-08
-1.37982e-08
-8.41559e-09
-4.78639e-09
-2.4917e-09
-1.19964e-09
-5.55798e-10
-2.48193e-10
-1.07187e-10
-4.44181e-11
-1.73673e-11
-6.19438e-12
-1.86018e-12
-3.39501e-13
1.07933e-13
1.89256e-13
1.5063e-13
9.51924e-14
4.98291e-14
3.01854e-14
1.70349e-14
9.01754e-15
4.38283e-15
1.92342e-15
7.32826e-16
2.30922e-16
6.16346e-17
3.85171e-17
5.23943e-20
-4.52383e-20
-1.86664e-19
4.39067e-19
-8.88747e-18
-2.51205e-17
-1.07418e-16
-1.06599e-14
9.84715e-14
-6.30292e-13
-4.13722e-13
3.17873e-13
5.43733e-12
1.60385e-11
2.35352e-11
2.84468e-11
3.03319e-11
2.84016e-11
2.89357e-11
3.82044e-11
5.88559e-11
8.51505e-11
1.05717e-10
1.21593e-10
1.35095e-10
1.63019e-10
2.65708e-10
6.24786e-10
2.00624e-09
5.86938e-09
1.1351e-08
2.63733e-08
3.2316e-08
-6.79316e-08
-3.53123e-07
-2.52116e-07
8.67427e-08
3.49075e-07
4.8324e-07
5.35919e-07
5.14149e-07
4.64068e-07
4.12826e-07
3.71174e-07
3.43964e-07
3.2984e-07
3.26144e-07
3.34614e-07
3.52401e-07
3.80916e-07
4.22075e-07
4.76872e-07
5.54141e-07
6.5741e-07
8.05169e-07
1.02001e-06
1.45017e-06
1.90143e-06
2.24194e-06
1.08978e-05
3.69827e-05
4.49257e-05
3.30224e-05
-8.2715e-06
0.000815769
0.00445047
0.0121415
0.0244357
0.0424708
0.0632936
0.0874928
0.111738
0.132928
0.153108
0.172713
0.18942
0.199988
0.209718
0.22188
0.233154
0.242116
0.247935
0.24892
0.243602
0.229098
0.205963
0.17188
0.131662
0.0873204
0.0458287
0.0237102
0.0137059
0.00831078
0.00511934
0.00316376
0.00199006
0.00130086
0.000889558
0.000621971
0.000434868
0.000301297
0.00020874
0.000148538
0.000118279
0.000126149
0.000189647
0.000941323
0.00427972
0.0104057
0.0191878
0.0301051
0.04242
0.0553679
0.0677577
0.0789706
0.0877752
0.093888
0.0973429
0.0980487
0.0962837
0.0924901
0.0869369
0.0800921
0.0724981
0.0645459
0.0566511
0.049112
0.0421371
0.0358997
0.0304759
0.0257767
0.0218008
0.0185653
0.0158156
0.013531
0.0116527
0.010004
0.00859537
0.00734048
0.00619717
0.00515326
0.00417641
0.00327806
0.00246763
0.00177283
0.00122882
0.000810604
0.000510447
0.000305919
0.000173497
9.39068e-05
4.78033e-05
2.2738e-05
9.83509e-06
3.83939e-06
1.29179e-06
3.39259e-07
3.60656e-08
-3.17337e-08
-3.23963e-08
-1.93475e-08
-9.91119e-09
-5.28457e-09
-4.06784e-09
-7.86761e-09
-1.65896e-08
-2.91082e-08
-4.28992e-08
-4.42963e-08
-4.11777e-08
-3.8291e-08
-3.86615e-08
-4.26882e-08
-4.72444e-08
-4.71749e-08
-4.13633e-08
-3.10351e-08
-2.01219e-08
-1.14397e-08
-6.15193e-09
-3.1784e-09
-1.59513e-09
-7.71185e-10
-3.52279e-10
-1.52405e-10
-6.28112e-11
-2.44442e-11
-8.65476e-12
-2.36294e-12
8.84774e-14
9.64448e-13
8.72269e-13
5.63818e-13
3.45901e-13
2.03431e-13
1.14794e-13
6.21611e-14
3.22145e-14
1.58503e-14
7.05604e-15
-4.99003e-21
4.65977e-20
-4.84492e-21
-6.30343e-19
1.11939e-18
-2.51356e-18
-6.49106e-17
3.17973e-16
-1.16848e-14
-1.01458e-14
-1.77593e-14
1.93818e-13
3.46279e-13
3.94844e-13
5.38008e-13
8.03322e-13
1.31539e-12
2.21116e-12
2.68325e-12
3.12125e-12
4.13854e-12
5.42855e-12
6.17785e-12
6.73719e-12
8.85058e-12
1.3268e-11
3.28637e-11
8.75753e-11
2.04806e-10
4.6615e-10
9.35567e-10
2.17219e-09
3.13224e-09
3.39977e-09
-1.06444e-08
-1.40169e-08
-1.58462e-09
2.08181e-08
3.32327e-08
4.07485e-08
4.26315e-08
4.1694e-08
3.98817e-08
3.82784e-08
3.75626e-08
3.77802e-08
3.87866e-08
4.09391e-08
4.39865e-08
4.81672e-08
5.36925e-08
6.06244e-08
6.98742e-08
8.16826e-08
9.78727e-08
1.20165e-07
1.53853e-07
2.80688e-07
4.92875e-07
1.58685e-06
2.14663e-06
-7.8715e-06
-2.24401e-05
-1.80991e-05
-3.81268e-06
-3.90242e-07
-4.40769e-05
0.000252343
0.00295257
0.0086565
0.0181318
0.0323089
0.0502577
0.0701158
0.0912818
0.114302
0.135911
0.155089
0.173527
0.192203
0.210255
0.22648
0.240374
0.251504
0.261237
0.274968
0.288143
0.286924
0.277885
0.259585
0.234436
0.193147
0.142878
0.0925203
0.0512347
0.0311507
0.022109
0.0172796
0.0143387
0.0128371
0.0122456
0.0134317
0.0172099
0.0245394
0.0366059
0.0538506
0.0772231
0.105762
0.136503
0.167242
0.196069
0.221695
0.243457
0.260594
0.273353
0.281439
0.285121
0.284773
0.280357
0.272187
0.260867
0.246802
0.230609
0.212995
0.194495
0.175762
0.157361
0.139733
0.123246
0.108152
0.0944503
0.0822121
0.0715029
0.0619892
0.0536678
0.0464129
0.03996
0.0342852
0.0292418
0.0247314
0.0207112
0.0171003
0.0138851
0.0110422
0.00854748
0.00642908
0.00464315
0.00320828
0.00210524
0.00129604
0.00074097
0.000375544
0.000177754
8.12714e-05
3.58452e-05
1.48483e-05
5.37148e-06
1.4984e-06
2.20854e-07
-8.86423e-08
-9.18131e-08
-4.85005e-08
-1.6751e-08
-1.14941e-08
-2.83088e-08
-5.4921e-08
-5.93969e-08
-6.9859e-09
1.42575e-07
2.61161e-07
2.83726e-07
2.16965e-07
1.09199e-07
7.1664e-09
-6.46393e-08
-9.46183e-08
-9.36332e-08
-7.66052e-08
-5.49644e-08
-3.54813e-08
-2.08336e-08
-1.10913e-08
-5.28113e-09
-2.33364e-09
-1.02441e-09
-4.3699e-10
-1.73059e-10
-5.5432e-11
-3.45793e-12
1.50156e-11
1.83797e-11
1.52227e-11
1.0743e-11
7.02667e-12
4.33649e-12
2.54099e-12
1.4165e-12
7.4914e-13
3.75546e-13
1.32436e-13
-1.38238e-21
5.60712e-21
3.03864e-21
-6.52331e-20
3.65705e-20
5.21199e-19
-7.7875e-18
1.96872e-17
-2.50592e-16
-2.55862e-16
2.04899e-15
4.32522e-15
5.66058e-15
6.60151e-15
7.83881e-15
8.12844e-15
7.56094e-15
1.64583e-14
2.39365e-14
2.61992e-14
3.20627e-14
4.16946e-14
4.21712e-14
4.65103e-14
2.11044e-13
6.2751e-13
2.54131e-12
7.71043e-12
1.95269e-11
4.31131e-11
8.83909e-11
1.95647e-10
5.60422e-10
7.51632e-10
2.83192e-10
2.62274e-10
3.40981e-10
1.65757e-09
2.521e-09
3.11188e-09
3.32771e-09
3.33903e-09
3.26532e-09
3.211e-09
3.24581e-09
3.34767e-09
3.50559e-09
3.7728e-09
4.17682e-09
4.77315e-09
5.59642e-09
6.63596e-09
7.96927e-09
9.68214e-09
1.20096e-08
1.50597e-08
1.90347e-08
2.92023e-08
7.0333e-08
2.52579e-07
4.8334e-07
2.64973e-07
3.45927e-07
2.49029e-06
-1.2042e-05
-3.10903e-05
-3.60944e-05
-3.27696e-05
-3.15487e-05
-3.4305e-05
-4.29523e-05
0.000948533
0.00412969
0.00975826
0.0180019
0.0290981
0.0431872
0.0585001
0.0741697
0.0899145
0.105937
0.122425
0.139845
0.157297
0.17362
0.192274
0.21288
0.234108
0.258094
0.274905
0.29426
0.306283
0.305224
0.296753
0.280636
0.259775
0.226721
0.18849
0.15609
0.13767
0.132953
0.140355
0.15623
0.179003
0.208448
0.242764
0.279904
0.316302
0.34945
0.378067
0.401719
0.420716
0.43552
0.446261
0.453364
0.456696
0.45659
0.453241
0.446106
0.43504
0.420391
0.402311
0.381113
0.35732
0.331426
0.304258
0.276661
0.249359
0.223002
0.198088
0.174864
0.153538
0.134276
0.116844
0.101266
0.087415
0.0750523
0.0641091
0.0544288
0.0458759
0.0383681
0.0317849
0.0260605
0.0211168
0.0168632
0.0132518
0.0101854
0.0076353
0.00555822
0.00390058
0.00263108
0.00167385
0.00099902
0.000550905
0.000277547
0.00011927
4.65395e-05
1.77508e-05
6.72628e-06
2.46897e-06
1.02496e-06
5.71806e-07
4.52616e-07
3.57115e-07
3.1952e-07
6.53033e-07
1.46677e-06
2.2867e-06
2.64282e-06
2.41979e-06
1.84537e-06
1.18825e-06
6.25224e-07
2.2669e-07
-1.11771e-08
-1.27677e-07
-1.58355e-07
-1.48235e-07
-1.18872e-07
-8.58924e-08
-5.71888e-08
-3.54715e-08
-2.05928e-08
-1.11993e-08
-5.68272e-09
-2.65387e-09
-1.10134e-09
-3.65745e-10
-5.13284e-11
6.14697e-11
8.51058e-11
7.14774e-11
5.40283e-11
3.6916e-11
2.33101e-11
1.37417e-11
7.57043e-12
3.87424e-12
1.83221e-12
5.387e-13
2.86389e-22
-1.73297e-21
-2.43602e-22
1.64264e-20
-4.54758e-20
3.34332e-21
2.63122e-19
-2.60682e-18
1.27838e-18
1.24842e-17
4.14472e-17
7.35776e-17
8.50658e-17
1.0326e-16
1.35544e-16
1.21764e-16
-2.32811e-17
-2.09078e-16
-4.98399e-16
-8.67032e-16
-1.17101e-15
-1.5902e-15
-2.26281e-15
-1.51522e-15
6.67407e-15
4.19443e-14
2.07641e-13
6.49597e-13
1.47032e-12
3.59282e-12
8.35798e-12
1.98132e-11
4.96849e-11
8.1827e-11
7.91802e-11
1.17942e-10
1.19715e-10
1.75747e-10
2.32696e-10
2.79227e-10
3.03383e-10
3.43818e-10
4.41911e-10
6.04611e-10
7.30309e-10
7.83775e-10
7.96584e-10
8.61645e-10
1.05762e-09
1.33103e-09
1.78092e-09
2.52495e-09
3.53124e-09
5.05041e-09
7.17804e-09
1.00346e-08
1.31996e-08
1.70853e-08
2.18185e-08
3.09904e-08
7.89595e-08
1.87108e-07
4.2186e-07
9.98963e-07
4.74821e-07
-3.1885e-07
-3.93273e-08
-1.0214e-05
-2.94004e-05
-4.36069e-05
-4.77329e-05
-5.77563e-05
-4.5554e-05
-2.87746e-05
1.81814e-05
0.0001511
0.00148764
0.00408152
0.00782841
0.0125379
0.0181234
0.0245207
0.0318503
0.0402958
0.0497818
0.0606937
0.0736015
0.089296
0.110597
0.135108
0.163788
0.195108
0.22877
0.265421
0.290064
0.31249
0.335999
0.353648
0.358608
0.359909
0.360998
0.364328
0.371683
0.384191
0.401409
0.420495
0.438247
0.45307
0.465308
0.475757
0.485115
0.493761
0.501609
0.508613
0.514551
0.519222
0.522182
0.522548
0.519937
0.514401
0.505114
0.491125
0.472135
0.448265
0.421758
0.39184
0.359314
0.326191
0.293417
0.261725
0.231626
0.203502
0.177622
0.153997
0.132675
0.113599
0.0966319
0.0816706
0.0685727
0.05719
0.0473797
0.0389954
0.0318899
0.0259244
0.0209344
0.0167753
0.013311
0.0104398
0.00807284
0.00612673
0.00455014
0.00327922
0.00228445
0.00152247
0.000967562
0.000573586
0.000314079
0.000157863
7.4038e-05
3.10331e-05
1.5164e-05
9.18657e-06
6.81407e-06
6.62588e-06
7.96811e-06
9.68445e-06
1.06526e-05
1.00124e-05
8.13719e-06
5.83964e-06
3.73299e-06
2.10806e-06
1.00719e-06
3.4356e-07
-9.61137e-09
-1.68512e-07
-2.13315e-07
-2.01951e-07
-1.6915e-07
-1.27666e-07
-8.96881e-08
-5.92371e-08
-3.69574e-08
-2.18126e-08
-1.21535e-08
-6.3452e-09
-3.04872e-09
-1.28982e-09
-4.20272e-10
-3.40204e-11
1.04549e-10
1.28196e-10
1.09857e-10
8.04713e-11
5.33976e-11
3.28626e-11
1.89333e-11
1.02157e-11
5.19036e-12
1.76704e-12
1.39989e-22
-5.83587e-22
2.52855e-22
8.31708e-22
1.61464e-20
-1.49794e-19
5.50145e-19
-8.50469e-19
-5.96648e-18
-1.75651e-18
1.31723e-18
6.74299e-18
4.28928e-18
-6.5809e-19
-4.54563e-20
3.28467e-18
3.71771e-18
-7.2903e-18
-3.3412e-17
-7.69476e-17
-9.53367e-17
-1.29112e-16
-1.06217e-16
1.76538e-16
2.88322e-15
1.03911e-14
1.94491e-14
2.90221e-14
5.35502e-14
1.2048e-13
2.97498e-13
9.28231e-13
3.98296e-12
7.65909e-12
1.09781e-11
1.66709e-11
1.65912e-11
1.83812e-11
2.38949e-11
3.13377e-11
8.31345e-11
3.36681e-10
1.0343e-09
2.07151e-09
2.75715e-09
2.86188e-09
3.77384e-09
4.21736e-09
3.18996e-09
1.88023e-09
1.73552e-09
3.03458e-09
6.206e-09
1.18692e-08
2.00523e-08
3.09644e-08
4.45561e-08
6.04157e-08
7.77006e-08
9.61437e-08
1.2084e-07
1.58245e-07
2.17173e-07
3.32635e-07
4.37031e-07
6.95842e-07
1.20878e-06
9.3499e-07
-7.74929e-07
-3.86948e-06
-8.82983e-06
-2.51116e-05
-3.68381e-05
-4.41373e-05
-4.77294e-05
-5.4524e-05
-5.11603e-05
-3.20297e-05
1.12577e-05
8.93804e-05
0.000210227
0.000384022
0.000627758
0.000969852
0.00175005
0.00315607
0.0054856
0.00912986
0.01475
0.022924
0.0341678
0.0489982
0.0699214
0.0986922
0.132331
0.168907
0.207917
0.247342
0.288018
0.324416
0.34843
0.367619
0.38821
0.409515
0.4285
0.44218
0.451438
0.458083
0.463462
0.468446
0.473835
0.480223
0.488899
0.50022
0.513518
0.525672
0.533729
0.536121
0.535347
0.533352
0.527596
0.51559
0.497547
0.473699
0.444827
0.412389
0.3778
0.342276
0.306837
0.272318
0.239372
0.208488
0.179948
0.154
0.130661
0.109943
0.0917722
0.0760064
0.0624821
0.05103
0.0414223
0.0334809
0.0269701
0.0216997
0.0174632
0.0140624
0.0113456
0.00916267
0.00739276
0.00594498
0.00474076
0.00373153
0.00288232
0.00217025
0.00158568
0.00111516
0.000750748
0.000481879
0.000301003
0.000182108
0.000114527
7.66849e-05
5.62151e-05
4.54192e-05
3.89124e-05
3.26998e-05
2.56945e-05
1.84103e-05
1.19829e-05
7.08359e-06
3.77171e-06
1.74944e-06
6.29207e-07
7.0942e-08
-1.71202e-07
-2.42882e-07
-2.35739e-07
-2.07464e-07
-1.64922e-07
-1.22291e-07
-8.57081e-08
-5.70347e-08
-3.60648e-08
-2.16239e-08
-1.22239e-08
-6.43926e-09
-3.08428e-09
-1.26534e-09
-3.61658e-10
3.03146e-11
1.54502e-10
1.64539e-10
1.2706e-10
9.28275e-11
6.06073e-11
3.66914e-11
2.07716e-11
1.09858e-11
5.43695e-12
1.73588e-12
2.36728e-21
-1.43817e-20
7.31518e-20
-2.76078e-19
6.26429e-19
-7.99072e-19
-1.23158e-18
1.65226e-17
-1.4788e-16
-7.01364e-17
-6.19313e-17
-4.33076e-17
-5.9409e-17
-1.20029e-16
-1.96334e-16
-1.76599e-16
-1.19763e-16
-7.86099e-17
-1.32676e-16
-3.80057e-16
-9.38163e-16
-1.90599e-15
-2.39507e-15
-2.38744e-15
-1.7725e-15
-5.82286e-16
8.77926e-16
2.73497e-15
5.04993e-15
1.00346e-14
2.23977e-14
6.18597e-14
2.35588e-13
3.63064e-13
4.91639e-13
7.07623e-13
1.02402e-12
1.27465e-12
8.93833e-12
5.81193e-11
4.62538e-10
2.08338e-09
8.40387e-09
1.69561e-08
2.31398e-08
2.54871e-08
2.48785e-08
1.49094e-08
2.86657e-09
-6.51949e-09
-1.63709e-08
-2.09401e-08
-1.67986e-08
-5.95197e-09
9.40502e-09
3.03331e-08
6.14631e-08
1.192e-07
2.02647e-07
3.06386e-07
4.20618e-07
5.36629e-07
6.48732e-07
7.48535e-07
8.801e-07
1.04897e-06
1.25656e-06
1.43352e-06
1.7109e-06
1.80973e-06
1.19553e-06
-1.44303e-06
-6.17698e-06
-1.25726e-05
-2.0667e-05
-2.85358e-05
-3.44423e-05
-3.60652e-05
-3.26525e-05
-2.4835e-05
-8.89103e-06
1.99198e-05
6.92287e-05
0.00014925
0.000281842
0.000494088
0.000821484
0.00132722
0.00210661
0.00329718
0.00510877
0.0079136
0.012595
0.0200837
0.0310713
0.0457039
0.0648103
0.0891225
0.119014
0.150709
0.182903
0.213512
0.241594
0.26618
0.286783
0.30426
0.319599
0.33411
0.349497
0.36737
0.388683
0.412867
0.438569
0.46441
0.488559
0.510165
0.526021
0.531648
0.530108
0.523227
0.510404
0.491383
0.466609
0.436448
0.401992
0.366021
0.329724
0.293823
0.258925
0.225598
0.194345
0.165566
0.139404
0.116153
0.0956878
0.0779914
0.0629302
0.050294
0.0398421
0.0313528
0.0245243
0.0191411
0.014926
0.011677
0.00920732
0.00734573
0.00596093
0.00492045
0.00411994
0.00349791
0.00298207
0.00254862
0.00215903
0.00180573
0.00147875
0.00118026
0.000912983
0.000681264
0.000494188
0.000350018
0.000248881
0.000179314
0.000131605
9.68121e-05
6.94115e-05
4.70545e-05
2.94735e-05
1.68903e-05
8.75595e-06
4.00644e-06
1.52778e-06
3.67187e-07
-1.03436e-07
-2.44567e-07
-2.61513e-07
-2.16592e-07
-1.73097e-07
-1.28769e-07
-9.20724e-08
-6.35302e-08
-4.22763e-08
-2.69933e-08
-1.63879e-08
-9.32949e-09
-4.86798e-09
-2.23453e-09
-8.22082e-10
-1.62683e-10
7.73134e-11
1.40327e-10
1.41809e-10
1.12e-10
8.27403e-11
5.34231e-11
3.17507e-11
1.74915e-11
8.87367e-12
4.05297e-12
1.58316e-12
2.72052e-13
-1.0685e-20
3.51104e-20
-9.6138e-21
1.6524e-19
-4.21656e-18
3.0037e-17
-1.02009e-16
7.62926e-17
2.854e-15
-7.49757e-15
-7.18098e-15
-2.10825e-15
6.47741e-15
4.99271e-15
6.08739e-15
8.72759e-15
1.42324e-14
1.94838e-14
1.65544e-14
1.06427e-14
3.09492e-15
-2.10667e-14
-6.09435e-14
-1.00333e-13
-1.33209e-13
-1.51407e-13
-1.52766e-13
-1.40309e-13
-1.02299e-13
-2.27952e-14
3.63199e-14
8.19749e-14
1.22186e-13
1.53548e-13
1.87727e-13
2.44394e-13
3.14058e-13
3.36163e-12
1.01057e-13
7.14948e-10
5.56164e-09
1.45267e-08
4.05932e-08
7.59675e-08
9.86201e-08
9.95166e-08
5.60923e-08
-2.39119e-08
-1.61542e-07
-3.26488e-07
-4.60324e-07
-5.47637e-07
-5.76208e-07
-5.58486e-07
-5.0236e-07
-3.96276e-07
-2.18931e-07
1.57658e-07
5.89343e-07
1.02546e-06
1.52249e-06
2.05071e-06
2.58524e-06
3.09638e-06
3.57692e-06
4.05057e-06
4.5114e-06
5.00303e-06
5.62285e-06
6.27682e-06
6.83917e-06
7.10573e-06
6.79424e-06
5.59939e-06
3.70014e-06
2.13115e-06
1.27049e-06
1.46049e-06
5.11356e-06
1.44762e-05
3.21473e-05
5.84995e-05
9.58193e-05
0.000146973
0.000216461
0.000309454
0.000455838
0.000673702
0.00099279
0.00146231
0.00215652
0.00311587
0.00460444
0.00702092
0.0106477
0.0159085
0.0232431
0.032525
0.0443328
0.0585599
0.0752578
0.094037
0.114826
0.137305
0.162214
0.187252
0.211834
0.240323
0.274515
0.311959
0.350543
0.388688
0.42279
0.450747
0.473082
0.486817
0.490486
0.484742
0.470821
0.450181
0.424256
0.394588
0.362429
0.328885
0.294893
0.261176
0.228394
0.197123
0.167832
0.140913
0.116652
0.0952363
0.0765837
0.0607529
0.0474059
0.0364536
0.0276681
0.020762
0.0154209