/*--------------------------------*- C++ -*----------------------------------*\
| =========                 |                                                 |
| \\      /  F ield         | OpenFOAM: The Open Source CFD Toolbox           |
|  \\    /   O peration     | Version:  2506                                  |
|   \\  /    A nd           | Website:  www.openfoam.com                      |
|    \\/     M anipulation  |                                                 |
\*---------------------------------------------------------------------------*/
FoamFile
{
    version     2.0;
    format      ascii;
    arch        "LSB;label=32;scalar=64";
    class       volVectorField;
    location    "2";
    object      U;
}
// * * * * * * * * * * * * * * * * * * * * * * * * * * * * * * * * * * * * * //

dimensions      [0 1 -1 0 0 0 0];

internalField   nonuniform List<vector> 
4000
(
(0.00798525 0.000743041 0)
(0.00720995 0.000872597 -4.77016e-21)
(0.00604292 0.000504833 4.94853e-21)
(0.00498413 0.000237672 1.00034e-20)
(0.00437901 0.00011924 -2.02833e-20)
(0.00404463 6.73584e-05 1.02156e-20)
(0.00382821 4.32804e-05 0)
(0.00367453 3.21895e-05 0)
(0.00356018 2.72997e-05 0)
(0.00347029 2.53068e-05 2.02524e-20)
(0.00339611 2.46639e-05 -2.029e-20)
(0.00333299 2.46876e-05 4.02567e-20)
(0.00327816 2.50851e-05 -4.03101e-20)
(0.00322972 2.57186e-05 0)
(0.00318625 2.65184e-05 0)
(0.00314661 2.745e-05 0)
(0.00310984 2.84945e-05 3.95139e-20)
(0.00307509 2.96511e-05 -3.95446e-20)
(0.00304155 3.09267e-05 0)
(0.00300848 3.23296e-05 0)
(0.00297516 3.38693e-05 0)
(0.00294087 3.55559e-05 0)
(0.0029049 3.73967e-05 0)
(0.0028665 3.94037e-05 7.68401e-20)
(0.00282489 4.15938e-05 -1.53453e-19)
(0.00277918 4.39911e-05 7.66185e-20)
(0.00272834 4.66369e-05 0)
(0.00267114 4.96018e-05 0)
(0.002606 5.30035e-05 0)
(0.00253084 5.70449e-05 0)
(0.00244263 6.21239e-05 -7.51055e-20)
(0.00233702 6.91081e-05 7.52682e-20)
(0.00221012 7.83802e-05 0)
(0.00201952 9.5905e-05 6.54887e-20)
(0.00179474 0.000154837 7.48204e-20)
(0.00165094 0.000266243 -3.7709e-19)
(0.00160825 0.000404262 -3.02165e-19)
(0.00161405 0.000546795 7.57972e-20)
(0.00165 0.000694486 -3.02009e-19)
(0.00172664 0.000854505 -6.75996e-19)
(0.00188678 0.00103733 7.46925e-20)
(0.00215392 0.00123167 5.90169e-19)
(0.00244964 0.00140167 -5.85011e-19)
(0.00273025 0.00154214 0)
(0.00300487 0.00166046 0)
(0.00326988 0.00175724 -3.54118e-20)
(0.00353621 0.00183367 -5.27099e-19)
(0.00379557 0.0018807 -5.23394e-19)
(0.00403798 0.00189802 -3.1134e-19)
(0.00427798 0.00188473 -2.73094e-19)
(0.00449766 0.00183398 2.69636e-19)
(0.00470235 0.00175006 0)
(0.00487994 0.00162324 -3.27729e-20)
(0.00502584 0.00146384 5.54364e-19)
(0.00513542 0.00126415 0)
(0.00519224 0.00103593 -1.27358e-19)
(0.00520529 0.000782037 -3.12384e-20)
(0.00514615 0.000512889 -1.64336e-23)
(0.00505188 0.000248492 -4.43713e-22)
(0.00488663 -2.02449e-05 -1.55517e-20)
(0.00467463 -0.000261324 2.97502e-20)
(0.00444021 -0.000476864 0)
(0.00417493 -0.000659416 0)
(0.00391282 -0.000806484 5.73504e-20)
(0.00364071 -0.000921246 3.98602e-19)
(0.00338756 -0.00100357 5.59123e-20)
(0.003142 -0.00106023 -5.62656e-20)
(0.00291896 -0.00109291 5.44852e-20)
(0.00271244 -0.00110765 1.61853e-19)
(0.00252349 -0.00110539 -3.73812e-19)
(0.00235736 -0.00109232 -5.29602e-20)
(0.0021998 -0.00106965 1.11977e-21)
(0.00205921 -0.0010394 0)
(0.00193134 -0.00100448 0)
(0.00181112 -0.000964982 0)
(0.00170271 -0.000922811 -2.48241e-20)
(0.00160382 -0.000879627 -3.70094e-19)
(0.00151164 -0.000835719 0)
(0.00142854 -0.000792208 1.02954e-21)
(0.00135398 -0.000750124 2.39308e-20)
(0.00128657 -0.000709692 -3.81101e-19)
(0.0012266 -0.000671254 3.43229e-19)
(0.00117336 -0.000634893 7.45024e-23)
(0.00112604 -0.000600285 3.77416e-19)
(0.00108479 -0.000567396 2.07288e-21)
(0.00104761 -0.000535821 -3.62615e-19)
(0.00101322 -0.000504759 -3.65282e-19)
(0.000983148 -0.000474236 3.68565e-19)
(0.00095475 -0.000444035 -5.58288e-21)
(0.000926673 -0.00041343 -3.53325e-19)
(0.000901561 -0.000382684 0)
(0.000876578 -0.000351893 -3.57942e-19)
(0.000851512 -0.000320645 -3.33244e-19)
(0.000828987 -0.00028947 3.41065e-19)
(0.00080514 -0.000258347 -1.90186e-19)
(0.000784671 -0.000227273 2.09554e-20)
(0.000763683 -0.000196826 1.66015e-19)
(0.000746209 -0.000166604 2.05069e-20)
(0.000729226 -0.000137261 1.4272e-19)
(0.000716569 -0.000107928 1.01077e-19)
(0.000706054 -7.96433e-05 -4.01553e-20)
(0.000699301 -5.12383e-05 9.98127e-20)
(0.000696685 -2.31856e-05 -9.94572e-21)
(0.000697549 4.75653e-06 -9.90738e-21)
(0.000703358 3.3407e-05 -3.94646e-20)
(0.000714541 6.24114e-05 0)
(0.000730543 9.30421e-05 0)
(0.000753564 0.00012505 -3.0991e-19)
(0.000782147 0.000159432 -9.84435e-21)
(0.000818208 0.000196942 1.62496e-19)
(0.000861513 0.000238264 1.57385e-19)
(0.000912843 0.000284034 4.91226e-21)
(0.000972488 0.000335146 -1.62361e-19)
(0.00104132 0.000391913 -2.8638e-22)
(0.00111769 0.000454999 0)
(0.00120572 0.00052479 3.12676e-19)
(0.00130001 0.000600486 -9.70255e-21)
(0.00140284 0.000682739 -2.89741e-19)
(0.00151396 0.000770354 -9.66207e-21)
(0.00163003 0.000861842 -3.06112e-19)
(0.00175228 0.000956653 -1.06611e-21)
(0.00187969 0.00105255 3.0124e-19)
(0.00200802 0.00114766 1.85589e-20)
(0.00213754 0.00124128 -3.32376e-19)
(0.00226894 0.00133179 1.83662e-20)
(0.00239942 0.00141725 2.88844e-19)
(0.0025293 0.00149659 3.54118e-20)
(0.00265821 0.0015684 -3.54361e-20)
(0.00278559 0.00163188 2.77608e-19)
(0.00291493 0.00168704 -2.38001e-19)
(0.0030459 0.00173135 -3.39603e-20)
(0.00317354 0.00176469 -4.95544e-19)
(0.00330822 0.00178892 -3.28774e-20)
(0.00344915 0.00179966 -2.55911e-19)
(0.00358674 0.00179698 1.66218e-21)
(0.00373768 0.00178322 0)
(0.00389502 0.00174939 0)
(0.0040476 0.00169939 -7.76945e-22)
(0.0042121 0.001628 0)
(0.0043704 0.00153322 -2.77567e-20)
(0.00452572 0.00141235 -8.13708e-20)
(0.00466751 0.00126267 -2.63492e-20)
(0.00478373 0.00108399 -5.16122e-20)
(0.0048731 0.000879264 -2.5776e-20)
(0.00491137 0.000647877 -7.34482e-20)
(0.00490879 0.000406047 2.42018e-20)
(0.004844 0.000145499 0)
(0.0047097 -0.000100276 0)
(0.00453825 -0.000331772 0)
(0.0043101 -0.000534884 -2.082e-20)
(0.00406436 -0.000703465 2.08913e-20)
(0.00378507 -0.000841192 7.97773e-20)
(0.00350377 -0.000938093 7.7567e-20)
(0.00321656 -0.00100292 0)
(0.00294097 -0.00103368 -7.3324e-20)
(0.00266705 -0.00103522 0)
(0.00240335 -0.00100847 -1.6838e-20)
(0.00214306 -0.000957699 8.48084e-20)
(0.00188058 -0.00087785 -1.63183e-20)
(0.00160138 -0.000745894 2.75691e-19)
(0.00149072 -0.000610586 -6.38414e-20)
(0.00147199 -0.000504718 -6.27685e-20)
(0.00144848 -0.00040974 0)
(0.00143344 -0.000320161 0)
(0.00145121 -0.000235104 0)
(0.00151087 -0.000160847 0)
(0.00163508 -0.000102147 0)
(0.00181057 -7.54207e-05 1.32171e-20)
(0.00197862 -6.91602e-05 -3.5829e-22)
(0.00213546 -6.80607e-05 -3.69412e-22)
(0.00229001 -6.72878e-05 -1.24255e-20)
(0.00243891 -6.56917e-05 0)
(0.00257654 -6.29988e-05 1.11586e-20)
(0.00269824 -5.93009e-05 -1.11199e-20)
(0.00280091 -5.48496e-05 3.26571e-22)
(0.00288308 -4.99475e-05 0)
(0.00294485 -4.48129e-05 0)
(0.00298754 -3.96017e-05 -8.92144e-21)
(0.00301346 -3.47767e-05 8.90823e-21)
(0.00302564 -3.0241e-05 0)
(0.00302662 -2.67053e-05 0)
(0.00301904 -2.3899e-05 -3.35893e-21)
(0.0030059 -2.15127e-05 2.09968e-22)
(0.00298986 -1.9583e-05 3.37367e-21)
(0.00297308 -1.80024e-05 0)
(0.00295734 -1.67195e-05 0)
(0.00294392 -1.56857e-05 0)
(0.00293369 -1.49019e-05 0)
(0.00292709 -1.43378e-05 1.39853e-22)
(0.00292396 -1.40402e-05 0)
(0.00292382 -1.36663e-05 0)
(0.00292613 -1.308e-05 0)
(0.0029301 -1.22669e-05 6.76065e-22)
(0.00293484 -1.12318e-05 -6.75172e-22)
(0.00293941 -9.97128e-06 0)
(0.0029429 -8.41289e-06 5.39815e-23)
(0.00294442 -6.54385e-06 1.43763e-22)
(0.00294275 -4.25732e-06 -9.58454e-23)
(0.00293452 -8.2917e-07 -4.77019e-23)
(0.00291644 7.68384e-06 0)
(0.00987758 0.00142206 0)
(0.0104347 0.00199207 0)
(0.0101849 0.00163269 0)
(0.00947739 0.00114024 9.835e-21)
(0.00878014 0.000748366 -2.00341e-20)
(0.00824993 0.000489556 1.01618e-20)
(0.00784213 0.000334527 0)
(0.00751568 0.00024394 2.04775e-20)
(0.00725081 0.000188825 -2.06323e-20)
(0.00703195 0.000152977 2.05591e-20)
(0.00684688 0.000128033 -2.06626e-20)
(0.00668751 0.000109624 -4.11071e-20)
(0.00654846 9.5479e-05 4.12583e-20)
(0.00642575 8.43883e-05 4.0998e-20)
(0.00631617 7.56513e-05 -1.95532e-22)
(0.0062171 6.88489e-05 -8.18493e-20)
(0.00612625 6.37313e-05 4.09205e-20)
(0.0060416 6.0137e-05 0)
(0.00596128 5.79908e-05 0)
(0.00588356 5.72271e-05 0)
(0.00580679 5.7794e-05 0)
(0.00572941 5.96774e-05 0)
(0.00564987 6.28972e-05 0)
(0.00556663 6.75088e-05 0)
(0.00547812 7.36134e-05 0)
(0.0053827 8.13899e-05 0)
(0.00527854 9.11355e-05 0)
(0.00516359 0.000103231 0)
(0.00503545 0.000118306 0)
(0.00489116 0.000137348 0)
(0.00472701 0.000161985 -7.87039e-20)
(0.00453817 0.000195118 3.24491e-22)
(0.00432178 0.000242195 1.57668e-19)
(0.00404631 0.000311683 -6.91491e-20)
(0.00374347 0.00044234 -7.90577e-20)
(0.00353603 0.000659647 2.39608e-19)
(0.00346873 0.000940367 -3.21851e-19)
(0.0035019 0.00125467 -8.07144e-20)
(0.00361881 0.00159545 8.09361e-19)
(0.00383355 0.00196297 2.43006e-19)
(0.00419259 0.00235489 0)
(0.00470312 0.00274772 7.88186e-20)
(0.00526776 0.00310568 4.68089e-19)
(0.00583094 0.00341902 7.75562e-20)
(0.00639177 0.00368765 6.0981e-19)
(0.00694375 0.00390872 -6.02478e-19)
(0.00749387 0.00407832 2.22173e-21)
(0.00803045 0.00418334 0)
(0.00854304 0.00422154 -2.91221e-19)
(0.00904057 0.00418737 0)
(0.0095045 0.00407393 -8.04094e-22)
(0.00993429 0.00388415 0)
(0.0103126 0.00360661 -2.76443e-19)
(0.0106317 0.0032564 -2.73544e-19)
(0.0108766 0.0028258 0)
(0.0110301 0.00233474 4.95603e-24)
(0.0110929 0.00179243 1.31952e-19)
(0.0110362 0.00121399 3.23011e-20)
(0.0108895 0.000633882 6.41396e-20)
(0.010616 4.77086e-05 -1.61468e-20)
(0.0102461 -0.000498507 0)
(0.00980291 -0.000997377 1.25893e-19)
(0.00929237 -0.00143424 -6.29806e-20)
(0.00875495 -0.00180157 -1.23986e-19)
(0.00818633 -0.00209469 -3.69285e-19)
(0.00762872 -0.00231796 -6.14927e-20)
(0.00707563 -0.00247879 3.02715e-19)
(0.00655161 -0.0025802 -6.05953e-20)
(0.00605456 -0.00263288 0)
(0.00558864 -0.00264201 5.90613e-20)
(0.00516078 -0.00261647 -5.91115e-20)
(0.00475742 -0.00256234 2.34231e-21)
(0.00438634 -0.00248539 0)
(0.00404348 -0.00239078 -4.59234e-19)
(0.00372291 -0.00228246 -4.55008e-19)
(0.00342747 -0.00216485 2.80007e-20)
(0.00315493 -0.0020417 -2.79678e-20)
(0.00290187 -0.00191608 2.74952e-20)
(0.00266988 -0.00179115 -4.36602e-19)
(0.00245843 -0.00166932 4.07297e-19)
(0.00226589 -0.001552 -4.30438e-19)
(0.00209203 -0.00144043 -4.37692e-19)
(0.00193566 -0.00133524 2.63416e-20)
(0.00179525 -0.00123581 -4.31224e-19)
(0.00167006 -0.00114168 4.09021e-19)
(0.00155729 -0.00105223 -4.06483e-19)
(0.00145458 -0.000966527 4.05411e-19)
(0.00136194 -0.000883688 -3.99573e-19)
(0.00127583 -0.000802931 -1.23446e-20)
(0.00119483 -0.00072447 1.22734e-20)
(0.0011195 -0.00064789 0)
(0.00104717 -0.000573434 0)
(0.000977868 -0.000501733 1.89545e-19)
(0.000913141 -0.000433098 -2.10186e-19)
(0.00085028 -0.000368473 1.84926e-19)
(0.000793412 -0.000308264 4.57307e-20)
(0.000739821 -0.000253388 2.31467e-22)
(0.000693645 -0.000203875 -8.8426e-23)
(0.000653362 -0.000160163 -3.98909e-19)
(0.00062271 -0.000121253 -6.57674e-20)
(0.000600899 -8.71765e-05 8.71435e-20)
(0.000590907 -5.63599e-05 -8.64935e-20)
(0.000592954 -2.77587e-05 0)
(0.000608595 5.13518e-07 -1.06759e-20)
(0.000638915 3.0782e-05 1.06768e-20)
(0.000685537 6.48571e-05 0)
(0.000748556 0.000105383 0)
(0.000830131 0.000154272 1.69785e-19)
(0.000929792 0.000214066 -1.6943e-19)
(0.00104885 0.00028689 1.74586e-19)
(0.00118758 0.000374657 -3.38704e-19)
(0.0013463 0.000479047 -2.43035e-23)
(0.00152492 0.000601518 -5.28708e-21)
(0.00172346 0.000743344 -1.686e-19)
(0.00193953 0.000904741 0)
(0.0021754 0.00108591 0)
(0.0024249 0.0012859 0)
(0.0026888 0.00150386 3.41499e-19)
(0.002965 0.00173502 3.16926e-19)
(0.00324872 0.00197823 0)
(0.00353974 0.00223016 -3.64265e-19)
(0.00383615 0.00248548 6.01007e-20)
(0.00413363 0.00274008 -3.96253e-20)
(0.00443174 0.00299019 1.97227e-20)
(0.0047305 0.0032315 -3.85717e-20)
(0.00502732 0.00345979 3.06195e-19)
(0.00532266 0.00367153 -2.63812e-19)
(0.00561674 0.00386342 3.35285e-19)
(0.00591014 0.00403289 -5.86368e-22)
(0.00620667 0.00417793 2.56379e-19)
(0.00650633 0.00429515 0)
(0.00680642 0.00438366 2.8428e-19)
(0.007117 0.00444293 -3.43491e-20)
(0.00743674 0.00446777 -2.3683e-19)
(0.0077585 0.00445774 2.69321e-19)
(0.00809615 0.00441195 -3.2357e-20)
(0.00844064 0.00431994 3.24654e-20)
(0.00878175 0.00418538 -3.23763e-20)
(0.0091288 0.00399888 3.10079e-20)
(0.00946306 0.00375889 -2.9392e-20)
(0.00977987 0.00346072 1.46365e-19)
(0.0100631 0.00310232 -1.40537e-19)
(0.0102941 0.00268495 1.38507e-19)
(0.0104636 0.00221592 0)
(0.0105407 0.00169759 2.6349e-20)
(0.0105305 0.00115946 -2.49635e-20)
(0.0104056 0.000595403 -1.22384e-20)
(0.0101641 5.17787e-05 0)
(0.00983046 -0.000462617 -2.31607e-20)
(0.00939314 -0.000925838 4.51067e-20)
(0.00889439 -0.00132017 0)
(0.00832447 -0.00164909 -8.58678e-20)
(0.00772904 -0.00189131 -2.0636e-20)
(0.00710782 -0.00205947 2.07633e-20)
(0.00649461 -0.00215028 0)
(0.00587932 -0.00216845 7.86798e-20)
(0.00527965 -0.00211896 -7.64936e-20)
(0.00469228 -0.00200867 7.55561e-20)
(0.00412507 -0.00183959 0)
(0.00355726 -0.0015989 -1.44383e-19)
(0.00321266 -0.00132456 -8.93172e-20)
(0.00302871 -0.00106664 1.57343e-19)
(0.0028977 -0.000840268 -1.68618e-20)
(0.0028166 -0.000649008 1.67886e-20)
(0.00281332 -0.000489134 1.59569e-20)
(0.00290281 -0.00036514 1.52804e-20)
(0.00310759 -0.000281964 -1.34066e-20)
(0.00340556 -0.000248848 -9.11442e-22)
(0.00373075 -0.000243051 0)
(0.00406118 -0.00024262 8.46148e-22)
(0.00439169 -0.000237403 0)
(0.00471011 -0.000223561 -7.8073e-22)
(0.00500356 -0.000201194 -1.17843e-20)
(0.00526207 -0.000172332 1.24212e-20)
(0.00547925 -0.000139632 -1.02999e-21)
(0.00565221 -0.000105712 1.02804e-20)
(0.00578121 -7.27627e-05 -1.94142e-20)
(0.00586915 -4.27119e-05 1.90921e-20)
(0.00592076 -1.64852e-05 -9.86897e-21)
(0.00594169 5.00152e-06 0)
(0.00593833 2.09945e-05 4.48016e-21)
(0.00591774 3.21837e-05 -4.20758e-21)
(0.00588627 3.88508e-05 -4.53151e-22)
(0.00584926 4.14915e-05 -3.30152e-21)
(0.00581134 4.08136e-05 2.90036e-21)
(0.00577619 3.75658e-05 2.86802e-21)
(0.00574635 3.25374e-05 -3.2096e-21)
(0.00572336 2.65942e-05 2.76052e-21)
(0.0057077 2.03565e-05 -4.81699e-21)
(0.00569894 1.43153e-05 2.97442e-21)
(0.00569594 9.2157e-06 -1.00965e-21)
(0.00569683 5.60043e-06 -2.13515e-22)
(0.00569953 3.60196e-06 0)
(0.00570198 3.25258e-06 4.38479e-22)
(0.00570218 4.52324e-06 -5.99958e-22)
(0.00569843 7.36774e-06 3.12289e-23)
(0.00568933 1.18709e-05 -1.99276e-22)
(0.00567354 1.8448e-05 0)
(0.00564842 2.8258e-05 0)
(0.00560874 4.4556e-05 -1.34137e-23)
(0.00987731 0.000895557 0)
(0.0105628 0.00168232 -4.78834e-21)
(0.0110096 0.00172622 4.76269e-21)
(0.0108836 0.00150456 9.4748e-21)
(0.0105982 0.00119398 -9.5836e-21)
(0.0102521 0.000919022 0)
(0.00990117 0.000708841 0)
(0.00957547 0.000559757 0)
(0.00928438 0.000455404 -1.95213e-20)
(0.00902808 0.00038033 3.92368e-20)
(0.00880233 0.000324213 1.95077e-20)
(0.00860256 0.00028075 -3.94193e-20)
(0.00842493 0.000246274 -3.92336e-20)
(0.00826605 0.000218633 3.94008e-20)
(0.00812279 0.000196489 0)
(0.00799239 0.000178981 -3.91209e-20)
(0.00787227 0.000165543 7.82946e-20)
(0.0077601 0.00015578 -3.9163e-20)
(0.00765365 0.000149416 0)
(0.00755085 0.000146255 0)
(0.00744969 0.000146152 0)
(0.00734828 0.00014902 0)
(0.00724472 0.000154831 0)
(0.00713717 0.000163628 -7.6831e-20)
(0.00702374 0.000175539 7.70047e-20)
(0.00690253 0.000190802 0)
(0.00677151 0.000209812 0)
(0.0066285 0.000233174 0)
(0.0064711 0.000261795 0)
(0.00629658 0.000297021 0)
(0.00610191 0.000340875 -7.58695e-20)
(0.00588356 0.000396535 7.61409e-20)
(0.00564146 0.000469543 0)
(0.00535558 0.000567271 4.74216e-21)
(0.0050548 0.000716068 0)
(0.00484996 0.000942015 -1.54109e-19)
(0.00480111 0.00123821 3.11462e-19)
(0.00488973 0.00158857 0)
(0.00510264 0.00198563 -6.21429e-19)
(0.00544589 0.00242314 6.66766e-22)
(0.00594585 0.00288581 -7.57749e-20)
(0.00658513 0.00334265 7.51397e-20)
(0.00727623 0.00376639 -5.91813e-19)
(0.00797138 0.00414745 0)
(0.00866359 0.00447946 -6.48058e-19)
(0.009346 0.00475535 6.04976e-19)
(0.0100207 0.00496681 5.96576e-19)
(0.0106769 0.00510135 0)
(0.011306 0.00515479 2.72834e-19)
(0.011911 0.0051194 0)
(0.0124763 0.00499057 -5.33001e-19)
(0.0129971 0.00476886 0)
(0.0134574 0.0044471 2.28176e-19)
(0.0138492 0.00403708 2.89801e-19)
(0.014156 0.00353682 2.5512e-19)
(0.0143639 0.00296421 1.26137e-19)
(0.014467 0.00233201 1.24551e-19)
(0.0144425 0.00165279 6.13482e-20)
(0.0143085 0.000959093 -3.05697e-20)
(0.0140366 0.000256268 -4.51669e-20)
(0.0136488 -0.000414607 0)
(0.0131599 -0.00103905 -1.17828e-19)
(0.0125807 -0.00159975 1.17017e-19)
(0.0119449 -0.00208148 0)
(0.0112567 -0.00248225 4.63763e-19)
(0.0105564 -0.00279501 0)
(0.00984554 -0.00302907 5.71694e-20)
(0.00915085 -0.00317935 -5.75114e-20)
(0.00847727 -0.0032646 0)
(0.00783208 -0.00328914 5.64247e-20)
(0.00722503 -0.00326131 -5.66648e-20)
(0.00664848 -0.00318994 -6.16578e-19)
(0.00610907 -0.00308306 3.91154e-19)
(0.00560491 -0.00294797 -2.02031e-21)
(0.00513154 -0.00279161 4.39718e-19)
(0.00469057 -0.00262043 2.72669e-20)
(0.00428047 -0.00244032 -4.63481e-19)
(0.00389841 -0.00225669 0)
(0.0035451 -0.0020742 -4.30449e-19)
(0.00322026 -0.00189655 -8.26721e-19)
(0.00292259 -0.00172649 8.07623e-19)
(0.00265173 -0.00156586 4.34712e-19)
(0.00240654 -0.00141559 -4.31371e-19)
(0.00218539 -0.00127549 4.26534e-19)
(0.00198712 -0.00114477 0)
(0.00180897 -0.00102244 4.06707e-19)
(0.00164801 -0.000907482 4.49458e-21)
(0.00150302 -0.000798704 8.10545e-19)
(0.00137048 -0.000695354 3.71928e-19)
(0.00124802 -0.000597475 4.05007e-19)
(0.00113522 -0.000504924 0)
(0.00102952 -0.000418205 0)
(0.000930304 -0.000338435 -1.89732e-19)
(0.00083854 -0.000266334 0)
(0.000752554 -0.000202956 -2.31874e-20)
(0.000675173 -0.000149328 2.30324e-20)
(0.000605445 -0.00010588 -1.81845e-19)
(0.000546476 -7.33292e-05 1.80196e-19)
(0.000498448 -5.10751e-05 1.56049e-19)
(0.000464555 -3.86715e-05 2.21379e-20)
(0.000445883 -3.40796e-05 -8.76526e-20)
(0.000444817 -3.5973e-05 4.35095e-20)
(0.000463839 -4.12779e-05 -3.23819e-20)
(0.00050461 -4.66841e-05 1.07505e-20)
(0.000569164 -4.87399e-05 0)
(0.000659071 -4.30576e-05 8.49195e-20)
(0.000775141 -2.61904e-05 0)
(0.000919326 6.14483e-06 1.68461e-19)
(0.00109114 5.74369e-05 2.63202e-22)
(0.00129106 0.000131007 -1.62236e-19)
(0.00151968 0.000229697 1.66737e-19)
(0.001775 0.000355706 -5.19237e-21)
(0.00205675 0.000510503 0)
(0.00236267 0.000695459 1.63546e-19)
(0.00269031 0.00091034 -1.62418e-19)
(0.00303915 0.00115445 0)
(0.0034032 0.00142609 9.97014e-21)
(0.00378176 0.00172222 -3.26549e-19)
(0.00417153 0.00203888 -2.95581e-19)
(0.00456756 0.0023717 2.90807e-19)
(0.00496881 0.00271549 -3.07036e-19)
(0.00537282 0.00306455 -1.89409e-20)
(0.00577594 0.00341302 2.81663e-19)
(0.00617769 0.00375499 3.74252e-20)
(0.00657785 0.00408436 3.29479e-19)
(0.0069748 0.00439563 -6.5346e-19)
(0.00736925 0.00468377 3.23974e-19)
(0.00776194 0.00494419 -2.4895e-19)
(0.00815407 0.00517311 2.07659e-19)
(0.00854877 0.00536715 3.41596e-19)
(0.00894644 0.00552246 2.01204e-19)
(0.00934617 0.00563739 3.34885e-20)
(0.00975491 0.00570938 2.27099e-19)
(0.0101712 0.00573349 2.8943e-19)
(0.0105901 0.00570906 -3.0966e-20)
(0.0110194 0.00563296 3.10132e-20)
(0.0114499 0.00549691 8.98372e-20)
(0.0118736 0.0053035 2.86038e-20)
(0.0122916 0.00504458 -2.82019e-20)
(0.0126884 0.00471966 2.82719e-20)
(0.0130547 0.00432621 -1.08385e-19)
(0.0133744 0.00386457 2.67052e-20)
(0.0136291 0.00333886 -7.88908e-22)
(0.0138069 0.00275803 -2.55369e-20)
(0.0138821 0.00212933 -9.8055e-20)
(0.0138552 0.00147977 0)
(0.0136999 0.000812965 4.57956e-20)
(0.0134166 0.000165645 -2.84204e-20)
(0.0130193 -0.000448376 2.17951e-20)
(0.0125021 -0.00100827 -6.33452e-20)
(0.0118986 -0.00149237 -2.05279e-20)
(0.0112043 -0.00189598 8.07731e-20)
(0.0104606 -0.00220198 9.91543e-20)
(0.00967231 -0.00241422 -3.88631e-20)
(0.00887497 -0.00253424 9.58853e-20)
(0.00806619 -0.00254802 -7.45657e-20)
(0.00726922 -0.00248336 -1.81599e-20)
(0.00648589 -0.00234073 -7.1592e-20)
(0.00573551 -0.00212444 1.80395e-20)
(0.00499822 -0.00184141 -7.04021e-20)
(0.00445933 -0.00151852 6.93368e-20)
(0.00410617 -0.00121124 -5.12309e-20)
(0.00385907 -0.000954913 -1.68847e-20)
(0.00370912 -0.000762188 -3.26205e-20)
(0.00368226 -0.000631242 0)
(0.00379223 -0.000553223 -3.03052e-20)
(0.00405314 -0.000525719 2.74645e-20)
(0.00442878 -0.000534703 5.09237e-22)
(0.00484641 -0.000552539 -3.79121e-22)
(0.00527398 -0.000560274 -1.19983e-21)
(0.0056978 -0.00054864 -1.26921e-20)
(0.00610157 -0.00051513 7.50379e-22)
(0.00647017 -0.000462314 0)
(0.00679248 -0.000395411 -6.88426e-22)
(0.00706167 -0.000320447 6.58612e-22)
(0.00727491 -0.00024322 1.1096e-20)
(0.00743302 -0.000168732 -1.04103e-20)
(0.0075398 -0.000100911 -8.93553e-21)
(0.00760126 -4.24762e-05 9.46627e-21)
(0.00762488 5.00378e-06 0)
(0.00761918 4.11707e-05 -4.90659e-22)
(0.00759261 6.64453e-05 0)
(0.00755274 8.1323e-05 -2.94527e-21)
(0.00750667 8.69797e-05 2.08339e-22)
(0.0074603 8.50762e-05 3.55125e-21)
(0.00741815 7.74574e-05 7.12758e-22)
(0.00738333 6.60627e-05 3.31873e-22)
(0.00735747 5.29137e-05 -3.06304e-22)
(0.00734073 3.97346e-05 0)
(0.00733224 2.80333e-05 2.55508e-22)
(0.00733017 1.89526e-05 8.71658e-22)
(0.00733197 1.3336e-05 -6.64241e-22)
(0.00733483 1.14527e-05 -6.74688e-22)
(0.00733597 1.33281e-05 8.29987e-22)
(0.00733284 1.87039e-05 0)
(0.00732341 2.71769e-05 1.31703e-22)
(0.00730632 3.84087e-05 1.91609e-22)
(0.00728078 5.23929e-05 4.78089e-23)
(0.0072461 6.95403e-05 -4.77386e-23)
(0.00719445 9.21412e-05 1.28834e-23)
(0.00979411 0.00051883 0)
(0.010354 0.00120188 0)
(0.0108898 0.00146867 0)
(0.0111177 0.0014608 9.43665e-21)
(0.0111151 0.00132845 -9.45693e-21)
(0.0110422 0.00114673 0)
(0.0108885 0.000970776 0)
(0.010694 0.000822005 0)
(0.0104907 0.000701802 0)
(0.0102926 0.000605651 0)
(0.0101056 0.000528147 0)
(0.00993143 0.000464746 -3.79936e-20)
(0.00977056 0.000412463 3.81708e-20)
(0.00962221 0.000369355 -3.79679e-20)
(0.00948505 0.000334085 7.60433e-20)
(0.00935747 0.000305725 -3.80617e-20)
(0.00923775 0.000283617 -3.78193e-20)
(0.00912411 0.000267277 3.79277e-20)
(0.00901476 0.000256341 0)
(0.00890791 0.000250528 0)
(0.00880181 0.000249631 7.4984e-20)
(0.00869467 0.000253517 -7.5152e-20)
(0.00858474 0.000262128 0)
(0.00847022 0.000275501 -7.44196e-20)
(0.0083493 0.000293779 7.45826e-20)
(0.00822009 0.000317247 0)
(0.00808064 0.000346377 0)
(0.00792889 0.000381875 7.37317e-20)
(0.00776267 0.000424764 -3.32234e-22)
(0.00757972 0.0004765 -7.3791e-20)
(0.00737771 0.00053913 -7.33559e-20)
(0.00715421 0.000615558 1.4684e-19)
(0.00691091 0.000710277 -7.3484e-20)
(0.00663102 0.000827891 6.84629e-20)
(0.00634279 0.000983471 -7.36482e-20)
(0.00615262 0.00119929 -7.42788e-20)
(0.00612445 0.00148177 7.55268e-20)
(0.00624982 0.00182518 2.25698e-19)
(0.00651748 0.00222293 3.73938e-19)
(0.0069264 0.00266461 7.42737e-20)
(0.00748743 0.00313058 -7.28955e-20)
(0.00816717 0.00359241 -6.42973e-19)
(0.00888929 0.00402776 6.3437e-19)
(0.00961505 0.0044251 6.25558e-19)
(0.0103362 0.0047743 -1.37569e-19)
(0.0110469 0.00506531 1.021e-19)
(0.0117474 0.00528806 -3.01926e-19)
(0.0124287 0.00543337 0)
(0.0130838 0.0054891 -2.95265e-19)
(0.0137112 0.00545289 3.26061e-20)
(0.0142999 0.00532769 2.56789e-19)
(0.014843 0.00510064 3.15338e-20)
(0.0153267 0.00477384 -3.14264e-19)
(0.0157429 0.00435601 -2.1762e-19)
(0.0160769 0.00384909 -2.46924e-19)
(0.0163172 0.00326676 -1.22474e-19)
(0.0164562 0.00262187 -2.97276e-20)
(0.0164755 0.00192749 2.98838e-20)
(0.0163845 0.00121071 2.92986e-20)
(0.0161613 0.000481028 4.32384e-20)
(0.0158199 -0.000228522 2.85781e-20)
(0.0153669 -0.000900742 0)
(0.0148114 -0.00151786 1.12718e-19)
(0.014179 -0.0020625 0)
(0.013476 -0.00252767 -3.89043e-19)
(0.0127367 -0.00290419 -2.223e-19)
(0.0119671 -0.00319427 -5.53419e-20)
(0.0111942 -0.00339766 0)
(0.010428 -0.0035217 0)
(0.00967903 -0.00357382 -2.18619e-19)
(0.00895998 -0.00356198 0)
(0.00826881 -0.00349537 4.8722e-19)
(0.00761356 -0.00338344 -4.85109e-19)
(0.00699501 -0.00323486 4.55955e-19)
(0.00641085 -0.00305844 -2.25074e-22)
(0.00586303 -0.00286256 -2.19456e-22)
(0.00535088 -0.00265476 3.70644e-19)
(0.00487223 -0.00244218 5.28388e-20)
(0.00442756 -0.00223097 3.93411e-19)
(0.00401695 -0.0020259 4.17776e-19)
(0.0036393 -0.00183049 1.63315e-21)
(0.00329435 -0.0016472 -4.00503e-19)
(0.00298135 -0.00147715 3.98111e-19)
(0.00269888 -0.00132029 0)
(0.00244601 -0.00117577 6.33116e-21)
(0.00222033 -0.00104217 3.97801e-19)
(0.00201873 -0.000918065 -7.97407e-19)
(0.00183989 -0.000802172 -1.19296e-18)
(0.00168026 -0.000693308 -4.04886e-19)
(0.00153644 -0.000591162 1.33059e-20)
(0.00140767 -0.000495977 0)
(0.00129123 -0.000408039 1.18937e-20)
(0.00118508 -0.000328283 -1.18275e-20)
(0.00109042 -0.000258093 0)
(0.00100494 -0.000197886 1.84882e-19)
(0.000931237 -0.000149346 -2.27768e-20)
(0.000868411 -0.000112394 2.26449e-20)
(0.00081926 -8.79748e-05 2.34069e-22)
(0.000783985 -7.46984e-05 1.77196e-19)
(0.000766261 -7.27192e-05 -2.1881e-20)
(0.000767441 -7.92291e-05 4.34967e-20)
(0.00078983 -9.29327e-05 -2.15984e-20)
(0.000836887 -0.000109785 -6.00559e-25)
(0.000909407 -0.000126025 -1.05652e-20)
(0.00101116 -0.000137869 1.05281e-20)
(0.00114311 -0.000139753 -8.34823e-20)
(0.00130648 -0.000127851 -8.80347e-20)
(0.00150314 -9.65941e-05 -1.59699e-19)
(0.00173171 -4.19126e-05 3.27423e-19)
(0.00199284 4.01396e-05 -1.5741e-19)
(0.00228499 0.000152847 -5.05981e-21)
(0.00260606 0.000298927 -4.99678e-21)
(0.00295439 0.000479859 4.98489e-21)
(0.00332601 0.000696713 -1.57983e-19)
(0.00371836 0.000948713 1.03049e-20)
(0.00412919 0.00123465 -6.55121e-23)
(0.0045523 0.0015519 1.33899e-19)
(0.00498634 0.00189651 4.65558e-19)
(0.00542768 0.00226371 -2.99851e-19)
(0.00587192 0.00264809 -2.98361e-19)
(0.00631807 0.00304343 3.1351e-19)
(0.00676412 0.00344307 2.71792e-19)
(0.00720745 0.00384026 -2.70919e-19)
(0.00764817 0.00422816 -3.18867e-19)
(0.00808649 0.00459997 -2.64429e-19)
(0.00852188 0.00494958 3.67553e-20)
(0.00895548 0.00527127 -3.44727e-20)
(0.00938852 0.00555987 0)
(0.00982244 0.00581097 -3.00386e-19)
(0.0102598 0.00602062 -2.62759e-19)
(0.0107012 0.00618493 -2.26626e-19)
(0.011146 0.00630143 0)
(0.0115989 0.00636672 -2.80892e-19)
(0.0120579 0.00637681 3.08569e-20)
(0.012519 0.0063305 -8.95932e-20)
(0.0129848 0.00622426 -2.96257e-20)
(0.0134472 0.0060523 -9.17466e-22)
(0.0138987 0.00581621 -1.40125e-19)
(0.014336 0.00551078 2.77225e-20)
(0.014746 0.00513652 -1.32923e-19)
(0.0151184 0.00469358 2.35085e-19)
(0.0154387 0.00418445 2.03684e-19)
(0.0156911 0.00361513 9.92872e-20)
(0.015864 0.00299534 0)
(0.0159371 0.0023348 -2.33083e-20)
(0.0159079 0.00165369 3.41843e-22)
(0.0157552 0.000961908 1.08193e-20)
(0.015478 0.000288632 -3.79411e-20)
(0.0150828 -0.00035033 2.13851e-20)
(0.0145648 -0.000936157 -4.10626e-20)
(0.0139485 -0.00144831 3.9875e-20)
(0.0132303 -0.00187866 0)
(0.0124443 -0.00221119 -9.49637e-20)
(0.0115962 -0.00244469 3.73819e-20)
(0.0107182 -0.00257669 -7.36999e-20)
(0.00981633 -0.00259588 -1.8263e-20)
(0.00891717 -0.00253426 8.8609e-20)
(0.00802476 -0.00237959 -1.76791e-20)
(0.00717074 -0.0021514 0)
(0.00633697 -0.00186171 8.46013e-20)
(0.00568377 -0.00154681 -4.00587e-22)
(0.00523339 -0.0012542 -3.9829e-22)
(0.00492664 -0.00102417 -3.89308e-22)
(0.00475359 -0.000874981 3.14672e-20)
(0.00474067 -0.000806456 -3.71162e-22)
(0.00489513 -0.000799662 -1.90993e-22)
(0.00522361 -0.000840042 -1.39343e-20)
(0.00567018 -0.000894243 1.20289e-20)
(0.00615023 -0.000932501 1.28126e-20)
(0.00662877 -0.000940911 1.18674e-21)
(0.00709183 -0.000913554 -1.21501e-20)
(0.00752409 -0.000850751 1.43207e-21)
(0.00791194 -0.000758272 1.08078e-20)
(0.0082461 -0.00064482 -1.07439e-20)
(0.0085215 -0.00051987 -1.26058e-21)
(0.00873682 -0.000392407 -1.2107e-21)
(0.008894 -0.000270177 0)
(0.00899779 -0.000159282 8.61341e-21)
(0.00905501 -6.39582e-05 -8.60785e-21)
(0.00907383 1.33486e-05 0)
(0.00906319 7.18229e-05 -9.446e-22)
(0.00903194 0.000111635 0)
(0.00898827 0.000134285 8.40164e-22)
(0.00893952 0.000142018 3.06177e-21)
(0.00889178 0.0001376 -3.05938e-21)
(0.00884962 0.00012415 -6.90964e-22)
(0.00881605 0.000104942 6.38751e-22)
(0.00879254 8.31372e-05 0)
(0.00877902 6.17378e-05 -2.06953e-21)
(0.00877427 4.33313e-05 2.06484e-21)
(0.00877601 2.98362e-05 4.4319e-22)
(0.00878134 2.24814e-05 7.45733e-22)
(0.00878709 2.16238e-05 -7.44193e-22)
(0.00879012 2.71686e-05 5.57133e-22)
(0.00878761 3.84479e-05 -5.56246e-22)
(0.0087774 5.4432e-05 -2.08692e-22)
(0.00875826 7.40131e-05 -1.38867e-22)
(0.0087298 9.62788e-05 9.2512e-23)
(0.00869262 0.000120532 1.15188e-22)
(0.0086368 0.000148551 0)
(0.00976234 0.000328378 0)
(0.0101853 0.000851801 0)
(0.010665 0.00114681 0)
(0.0109627 0.00125486 9.50951e-21)
(0.0111418 0.00123909 -9.47397e-21)
(0.0112595 0.00115585 0)
(0.0112852 0.00104953 1.86977e-20)
(0.0112583 0.000941054 -1.87509e-20)
(0.0111942 0.000839407 -1.86353e-20)
(0.0111097 0.000749008 3.73168e-20)
(0.011015 0.000670099 -1.86816e-20)
(0.0109161 0.000601434 0)
(0.0108167 0.000542257 0)
(0.0107187 0.0004919 3.70274e-20)
(0.010623 0.000449778 -1.76313e-22)
(0.0105296 0.000415409 -7.3945e-20)
(0.0104382 0.000388399 3.69775e-20)
(0.0103482 0.000368414 0)
(0.0102586 0.000355181 0)
(0.0101685 0.000348468 3.65193e-20)
(0.0100766 0.000348118 -3.65896e-20)
(0.0099818 0.000354033 0)
(0.0098827 0.000366196 0)
(0.0097779 0.000384688 -7.21954e-20)
(0.00966587 0.000409707 1.44305e-19)
(0.00954501 0.000441594 -7.2111e-20)
(0.00941361 0.000480875 -7.15734e-20)
(0.00926984 0.00052831 3.28922e-22)
(0.00911186 0.000584945 1.42714e-19)
(0.00893776 0.000652192 -7.134e-20)
(0.00874575 0.000731927 -7.08549e-20)
(0.00853396 0.00082661 3.09596e-22)
(0.00830493 0.000939728 7.08467e-20)
(0.00804234 0.00107348 7.03202e-20)
(0.00777312 0.00123745 -7.09049e-20)
(0.00759911 0.00145033 0)
(0.00758248 0.00172225 -2.91129e-19)
(0.007719 0.002052 -5.80093e-19)
(0.00799867 0.00243424 0)