/*--------------------------------*- C++ -*----------------------------------*\
| =========                 |                                                 |
| \\      /  F ield         | OpenFOAM: The Open Source CFD Toolbox           |
|  \\    /   O peration     | Version:  2506                                  |
|   \\  /    A nd           | Website:  www.openfoam.com                      |
|    \\/     M anipulation  |                                                 |
\*---------------------------------------------------------------------------*/
FoamFile
{
    version     2.0;
    format      ascii;
    arch        "LSB;label=32;scalar=64";
    class       volVectorField;
    location    "2";
    object      vorticityField;
}
// * * * * * * * * * * * * * * * * * * * * * * * * * * * * * * * * * * * * * //

dimensions      [0 0 -1 0 0 0 0];

internalField   nonuniform List<vector> 
4000
(
(-2.63023e-20 8.9153e-18 -32.7423)
(-9.6276e-18 -7.96814e-18 -35.7512)
(1.02573e-17 -2.88919e-17 -33.6376)
(3.92168e-17 4.53483e-17 -29.6321)
(-8.06792e-17 3.04051e-18 -26.6301)
(4.13503e-17 -3.95368e-17 -24.7293)
(-3.3797e-19 1.90928e-17 -23.407)
(4.09173e-17 -0 -22.4125)
(-4.02216e-17 -3.78512e-17 -21.6382)
(8.05231e-17 3.52677e-17 -21.0134)
(-8.0599e-17 -3.47336e-17 -20.4916)
(-2.94948e-18 3.23066e-17 -20.045)
(-9.55568e-19 8.0349e-17 -19.6563)
(8.481e-17 -7.53385e-17 -19.3134)
(-3.90705e-19 -0 -19.0068)
(-1.60062e-16 -7.38505e-17 -18.7289)
(1.57204e-16 6.9127e-17 -18.4732)
(-8.29108e-17 7.86314e-17 -18.2337)
(3.92484e-18 -7.39079e-17 -18.0053)
(0 -0 -17.7827)
(0 -0 -17.5614)
(0 -0 -17.3367)
(9.74489e-18 -1.43612e-16 -17.1041)
(1.3364e-16 2.78e-16 -16.8589)
(-3.07051e-16 1.78767e-17 -16.5963)
(1.74663e-16 -2.95463e-16 -16.3113)
(-1.09842e-17 1.43198e-16 -15.9978)
(0 -0 -15.6491)
(0 -0 -15.2568)
(-1.24238e-17 1.4037e-16 -14.81)
(-2.94949e-16 -1.33285e-16 -14.2934)
(1.64364e-16 -1.4776e-16 -13.6884)
(3.13686e-16 1.82347e-17 -12.9649)
(7.26114e-18 -1.44631e-16 -11.9198)
(-9.2164e-17 8.20361e-16 -10.7048)
(-3.49253e-16 6.67853e-16 -10.0563)
(-1.14156e-15 -1.19888e-15 -10.2258)
(-1.02425e-17 4.18732e-18 -10.9495)
(8.38307e-16 1.97269e-15 -12.1362)
(-8.251e-16 -1.25605e-15 -13.8698)
(4.37811e-16 -2.55051e-15 -16.4396)
(1.25496e-15 2.41104e-15 -19.5716)
(-3.72556e-16 1.0695e-15 -22.7129)
(2.91426e-16 -1.13959e-15 -25.7288)
(1.36623e-15 9.55765e-16 -28.6185)
(-1.56742e-15 1.88431e-16 -31.4175)
(-1.41374e-15 4.29328e-16 -34.1699)
(-1.21328e-15 -1.19288e-15 -36.7065)
(-1.38786e-15 -1.42033e-15 -39.08)
(-5.907e-16 -1.5119e-15 -41.2593)
(7.8404e-16 -3.54262e-16 -43.1453)
(-4.8144e-17 5.97859e-16 -44.8229)
(-7.37428e-16 -1.34852e-15 -46.1078)
(8.09541e-16 3.41771e-17 -47.1291)
(-1.10942e-16 1.29631e-15 -47.7461)
(-3.74129e-16 5.41584e-17 -47.9892)
(2.91589e-16 -1.11847e-16 -47.8913)
(9.53493e-17 -3.55488e-17 -47.3169)
(1.76855e-16 5.45707e-17 -46.5275)
(-8.5213e-17 -5.46042e-17 -45.3152)
(8.88321e-17 -2.49057e-17 -43.7621)
(3.5429e-16 7.899e-18 -42.0855)
(-1.66775e-16 -7.8801e-17 -40.1828)
(-1.00318e-16 -7.7324e-16 -38.2219)
(5.8626e-17 -1.16204e-16 -36.1902)
(-1.26703e-16 9.18747e-16 -34.1229)
(7.15445e-16 -1.59483e-16 -32.1219)
(2.89712e-17 -4.79145e-16 -30.0999)
(3.3868e-16 7.536e-16 -28.184)
(-8.75868e-16 8.97145e-16 -26.287)
(-2.01788e-16 -6.65015e-16 -24.4863)
(-4.613e-17 -2.50898e-16 -22.7535)
(-2.18914e-19 2.5634e-18 -21.0574)
(-1.10851e-15 7.03121e-16 -19.4637)
(-1.07799e-15 7.64985e-16 -17.928)
(-4.30895e-17 8.86458e-16 -16.4644)
(-8.9323e-16 5.76063e-16 -15.0972)
(1.0676e-16 -9.20441e-16 -13.8143)
(-9.78464e-16 5.44269e-16 -12.6182)
(8.76033e-16 2.58721e-16 -11.5231)
(-1.64765e-15 4.69039e-16 -10.5225)
(-1.995e-16 -8.28892e-16 -9.61212)
(4.87566e-17 -1.24914e-16 -8.78894)
(-1.06994e-16 4.41049e-17 -8.04368)
(7.89304e-16 1.2042e-15 -7.36898)
(-1.42297e-15 1.86327e-15 -6.75743)
(7.15343e-17 -1.68687e-15 -6.19629)
(-7.99044e-17 -8.29594e-16 -5.67986)
(-1.42765e-17 1.62471e-15 -5.2056)
(-5.86548e-16 3.78752e-16 -4.76394)
(2.26922e-18 6.91814e-18 -4.35286)
(-5.8232e-16 1.07174e-15 -3.97525)
(-2.68144e-16 -1.32082e-15 -3.62425)
(2.01824e-16 -4.36594e-16 -3.30385)
(1.15832e-17 6.8107e-16 -3.01349)
(8.8022e-17 -7.61171e-16 -2.75401)
(2.60193e-16 -1.12497e-16 -2.52737)
(3.32114e-17 3.57433e-17 -2.33356)
(-4.03751e-16 -5.85471e-17 -2.17271)
(6.21465e-17 3.29837e-16 -2.04698)
(7.30496e-17 -5.67816e-18 -1.957)
(1.93616e-17 -6.29883e-17 -1.90201)
(-1.17334e-17 2.05731e-16 -1.8863)
(-3.09844e-17 5.53094e-17 -1.90719)
(-4.46904e-17 -2.23899e-17 -1.97083)
(-8.19026e-19 -7.43504e-17 -2.07949)
(4.41783e-18 5.93232e-16 -2.2375)
(-2.20364e-16 -3.80314e-17 -2.45198)
(-2.87146e-16 -1.00479e-15 -2.7261)
(5.32163e-16 -1.42005e-16 -3.06897)
(-2.84922e-16 2.01181e-16 -3.48916)
(1.18129e-17 6.58746e-16 -3.99346)
(-2.73804e-16 -1.2982e-16 -4.59514)
(-2.75609e-16 -5.01446e-16 -5.29452)
(-7.99265e-18 -6.76432e-16 -6.11258)
(5.3203e-16 3.51483e-16 -7.04462)
(4.56449e-18 1.3281e-15 -8.09626)
(6.52629e-17 8.75229e-17 -9.27731)
(5.53808e-16 3.99167e-16 -10.5737)
(-5.57671e-16 -4.18629e-16 -11.988)
(-6.8243e-16 -1.96553e-15 -13.5197)
(6.8231e-16 4.56783e-16 -15.1443)
(2.83021e-17 1.48069e-15 -16.846)
(-6.2179e-16 -4.59437e-16 -18.6231)
(-1.23032e-16 -1.53871e-15 -20.4476)
(1.22613e-15 8.69307e-16 -22.3067)
(-4.24022e-16 4.39816e-16 -24.1834)
(5.95354e-16 -1.1472e-16 -26.0567)
(6.55628e-16 9.43132e-16 -27.9206)
(1.79239e-17 9.30597e-16 -29.7822)
(-1.90042e-17 5.69284e-16 -31.5758)
(-5.99231e-16 -1.99323e-16 -33.3349)
(-2.32746e-16 -6.9488e-16 -35.0879)
(-1.23181e-15 -8.53537e-16 -36.7316)
(4.95999e-16 2.10182e-18 -38.3182)
(-8.3315e-17 -4.3643e-17 -39.9154)
(8.59655e-17 4.73001e-17 -41.2978)
(-3.42561e-17 -1.6409e-16 -42.6758)
(9.39589e-17 9.76252e-17 -43.8721)
(-1.37192e-16 1.2864e-16 -44.944)
(1.43807e-16 1.74536e-16 -45.8256)
(-4.89489e-16 -1.97531e-16 -46.4803)
(2.23414e-16 1.59262e-16 -46.8412)
(-7.18848e-17 4.55668e-17 -46.9609)
(-1.54481e-16 -9.6794e-17 -46.6178)
(-1.65266e-17 -2.34239e-16 -46.0825)
(-2.75856e-17 4.44715e-17 -45.0234)
(0 -0 -43.6158)
(-5.98767e-17 4.30004e-17 -41.9542)
(6.51875e-17 -2.87512e-17 -39.9486)
(2.82665e-17 -2.15548e-16 -37.8305)
(-3.1307e-17 -1.03162e-16 -35.4874)
(1.75027e-16 1.03283e-16 -33.061)
(9.40515e-17 2.66106e-16 -30.5804)
(-1.91401e-16 7.46833e-17 -28.0738)
(1.86989e-16 -1.94329e-16 -25.5537)
(-2.78641e-16 -1.12969e-16 -22.9902)
(3.88874e-16 -2.13411e-16 -20.414)
(-8.71591e-17 -3.58835e-16 -17.6664)
(2.72486e-16 -1.95211e-16 -14.6854)
(-2.64713e-16 8.20785e-16 -12.419)
(2.12108e-16 -1.62737e-16 -11.2625)
(-5.36601e-17 -1.06734e-16 -10.3713)
(3.76822e-17 -8.78445e-18 -9.74358)
(3.56718e-17 -5.4862e-18 -9.48999)
(3.40902e-17 -2.83237e-18 -9.67587)
(-3.2734e-17 -2.43006e-17 -10.4034)
(2.73114e-17 -5.86907e-18 -11.5144)
(1.97074e-18 2.48128e-17 -12.6244)
(3.34029e-18 2.20591e-17 -13.6749)
(-2.72951e-17 6.89062e-18 -14.7008)
(-5.93636e-18 -4.40889e-17 -15.6793)
(3.3984e-19 1.17697e-17 -16.5728)
(4.8301e-18 2.92371e-17 -17.3503)
(-3.33472e-18 -2.12053e-17 -17.9923)
(2.23352e-17 6.76224e-19 -18.4901)
(-4.06746e-17 1.65707e-17 -18.8452)
(2.07821e-17 -6.53348e-18 -19.0683)
(-3.35323e-18 -2.67011e-17 -19.1753)
(1.142e-18 1.66328e-17 -19.1865)
(9.93407e-18 6.31423e-18 -19.1218)
(-1.60658e-17 4.07831e-18 -19.0008)
(-1.22892e-18 -1.26119e-17 -18.8444)
(1.52935e-19 -4.52839e-18 -18.6705)
(6.42097e-18 6.31722e-18 -18.4936)
(6.00883e-18 1.79236e-20 -18.3254)
(-6.70202e-18 -1.99913e-20 -18.1741)
(5.73516e-18 -2.44562e-19 -18.0446)
(-9.70084e-18 -4.63241e-19 -17.9389)
(6.15846e-18 2.79463e-19 -17.8549)
(-2.08049e-18 -6.20586e-21 -17.7887)
(-4.70209e-19 -1.26635e-18 -17.7358)
(1.40485e-18 -1.0605e-18 -17.6906)
(-4.48682e-19 3.58122e-18 -17.6468)
(-1.2453e-18 -1.36525e-18 -17.5983)
(1.6957e-19 -6.92564e-19 -17.5398)
(-1.10836e-19 -8.71955e-19 -17.4666)
(-1.88777e-19 9.32272e-19 -17.3725)
(-9.65579e-20 3.91787e-19 -17.2381)
(-2.71173e-20 -8.91432e-20 -17.0736)
(0 -0 2.60786)
(-1.87522e-20 -0 -6.317)
(-2.2644e-19 -1.84322e-17 -11.5215)
(-1.18827e-18 3.40087e-17 -13.4348)
(2.09489e-17 6.2256e-18 -13.6326)
(-1.96751e-17 -4.08468e-17 -13.1664)
(4.55446e-19 -1.9333e-17 -12.5837)
(-7.82652e-19 3.29448e-17 -12.0539)
(-3.90191e-17 5.56991e-18 -11.5993)
(3.78145e-17 -5.32197e-18 -11.2113)
(7.58891e-17 1.2095e-16 -10.8765)
(-1.55443e-16 -1.05789e-16 -10.5839)
(8.05684e-18 -1.64136e-16 -10.3254)
(7.57967e-17 6.78138e-17 -10.095)
(-9.97366e-18 2.30395e-16 -9.88795)
(-7.45973e-17 -5.77747e-17 -9.70002)
(8.46125e-17 -1.62965e-16 -9.52754)
(-2.93793e-18 7.66907e-17 -9.36713)
(0 -0 -9.21575)
(0 -0 -9.07066)
(0 -0 -8.92919)
(0 -0 -8.78874)
(0 -0 -8.64682)
(-3.07342e-16 -0 -8.50099)
(4.61055e-16 -0 -8.3488)
(-1.53378e-16 -0 -8.18771)
(0 -0 -8.01523)
(0 -0 -7.82871)
(0 -0 -7.6251)
(-1.3055e-17 1.47502e-16 -7.40102)
(-1.60255e-18 1.37552e-17 -7.15236)
(4.27283e-17 -4.43622e-16 -6.87367)
(-1.14423e-17 1.03637e-16 -6.55707)
(-1.65973e-16 4.5645e-16 -6.188)
(-9.16008e-17 -5.71675e-16 -5.79394)
(3.99375e-16 4.9003e-16 -5.54951)
(1.13774e-15 9.59804e-16 -5.61652)
(8.5256e-17 -2.23191e-15 -6.02927)
(-5.25434e-16 -9.84443e-16 -6.77909)
(1.188e-15 2.42419e-15 -7.88026)
(-3.46257e-16 1.4086e-16 -9.35653)
(-9.66432e-16 -1.75328e-15 -10.9587)
(6.51913e-17 -1.34807e-16 -12.6043)
(3.5907e-17 -3.00515e-16 -14.2926)
(-1.45274e-15 2.59476e-16 -15.9542)
(1.21507e-15 2.44373e-15 -17.6061)
(2.7031e-15 3.93511e-16 -19.2294)
(1.20982e-15 1.30084e-15 -20.7587)
(1.38398e-15 8.6109e-16 -22.2384)
(7.33576e-16 -2.52599e-16 -23.5915)
(-2.03049e-15 -9.81185e-16 -24.8178)
(-4.33659e-17 5.34271e-16 -25.9228)
(5.80045e-16 9.82006e-16 -26.8382)
(-7.12665e-16 -6.26334e-16 -27.6171)
(7.44047e-16 -3.43498e-16 -28.1867)
(7.18468e-16 -5.97743e-17 -28.5864)
(4.54225e-16 -6.58437e-17 -28.7878)
(1.61534e-16 1.39815e-16 -28.7854)
(-9.37551e-17 4.22395e-17 -28.5843)
(-9.7688e-17 1.31518e-16 -28.1975)
(-5.53229e-17 -2.64503e-16 -27.5835)
(-3.60775e-16 6.54698e-17 -26.7913)
(2.84616e-16 4.82559e-16 -25.8409)
(-2.17872e-16 7.35259e-16 -24.7173)
(2.47525e-16 3.86514e-17 -23.5098)
(1.23325e-17 -1.29652e-15 -22.1795)
(2.67444e-16 -2.34568e-16 -20.8322)
(-3.61886e-16 7.9803e-16 -19.3938)
(-4.03557e-16 -5.49747e-17 -17.9818)
(1.09964e-15 -4.67126e-16 -16.5557)
(-1.01564e-17 1.51384e-16 -15.144)
(-1.57982e-15 6.60441e-16 -13.7926)
(8.7791e-16 5.11508e-16 -12.4551)
(9.51099e-18 1.24099e-15 -11.1838)
(1.20406e-15 -1.63418e-15 -9.97702)
(1.81473e-16 -1.08066e-15 -8.82784)
(-2.09329e-16 1.29237e-16 -7.75741)
(-4.81577e-17 9.70697e-16 -6.77072)
(-8.53099e-16 -1.94756e-16 -5.86124)
(-1.83411e-15 1.1514e-15 -5.03499)
(2.43205e-15 3.56387e-16 -4.29189)
(2.46822e-16 -1.11974e-15 -3.62686)
(-8.46433e-16 5.81587e-16 -3.03509)
(1.42158e-16 -8.69741e-16 -2.50983)
(-2.10737e-17 -1.00286e-16 -2.04389)
(1.44602e-15 -9.10572e-16 -1.63376)
(6.49845e-16 -5.27216e-16 -1.2722)
(8.12923e-16 4.85916e-16 -0.949275)
(6.54934e-16 -1.322e-15 -0.666457)
(1.30603e-15 -8.26932e-16 -0.420573)
(4.17508e-19 2.64983e-17 -0.203184)
(5.89476e-16 -7.39537e-16 -0.0176157)
(2.41152e-16 2.8984e-16 0.138281)
(-5.50956e-16 3.04764e-16 0.268129)
(2.52581e-16 -6.61811e-16 0.369952)
(1.17654e-17 3.67335e-16 0.447773)
(-5.46948e-16 2.91279e-16 0.501942)
(2.69405e-16 7.00115e-16 0.535369)
(2.70328e-17 1.47892e-16 0.550475)
(-1.43357e-16 -8.99461e-16 0.549597)
(-7.31088e-17 4.57257e-17 0.534192)
(-8.32979e-17 1.76965e-16 0.505808)
(-3.70267e-17 -1.40901e-16 0.464328)
(3.15319e-17 -1.93046e-17 0.409016)
(6.06145e-17 -1.58084e-17 0.338874)
(1.31369e-16 3.65271e-17 0.249439)
(-2.42458e-18 -3.25575e-16 0.137606)
(7.49945e-16 5.02852e-16 -0.00332585)
(1.47454e-17 -2.87967e-18 -0.178472)
(-5.10275e-16 1.6069e-16 -0.393923)
(1.02259e-17 3.65478e-16 -0.658643)
(-1.99527e-17 -6.86471e-16 -0.976223)
(2.67515e-16 4.78477e-16 -1.35399)
(2.64268e-16 1.32034e-16 -1.79466)
(-2.75977e-16 -5.05854e-16 -2.30978)
(-5.3142e-16 -3.07607e-16 -2.89179)
(2.03356e-17 -7.36462e-16 -3.55282)
(-5.11122e-17 -7.83265e-16 -4.29707)
(-4.45213e-16 3.7131e-16 -5.11488)
(1.1318e-15 2.2868e-15 -6.00748)
(-6.28492e-16 -4.44966e-16 -6.976)
(-6.18635e-16 -1.20723e-15 -8.00891)
(5.02875e-16 4.59876e-16 -9.10444)
(7.3458e-16 5.12138e-16 -10.2571)
(5.74444e-16 -2.29283e-16 -11.4465)
(-1.7827e-15 -1.01499e-15 -12.6717)
(4.78287e-16 5.40864e-16 -13.9185)
(-3.45618e-16 -1.20065e-15 -15.174)
(-1.40084e-16 8.25768e-17 -16.4347)
(1.39386e-15 7.66133e-16 -17.6898)
(5.33939e-16 3.05759e-16 -18.9034)
(1.36875e-15 7.36934e-16 -20.1097)
(7.51602e-16 1.67975e-15 -21.2868)
(1.09545e-15 3.94347e-16 -22.3779)
(-2.81933e-17 -7.47982e-16 -23.4496)
(1.33589e-16 6.4434e-16 -24.4715)
(2.56815e-16 7.98207e-17 -25.345)
(9.36302e-17 1.32086e-17 -26.2216)
(-5.88943e-17 -8.53367e-17 -26.9336)
(9.87503e-17 -1.34762e-16 -27.5717)
(2.38852e-17 2.40408e-17 -28.075)
(7.68371e-17 3.41941e-16 -28.4405)
(1.43993e-16 -4.40601e-16 -28.6528)
(3.91526e-17 2.29109e-16 -28.7185)
(-5.16998e-17 -2.47921e-17 -28.5698)
(-5.79781e-17 8.94389e-17 -28.2991)
(1.22211e-16 -1.49082e-17 -27.77)
(-7.82223e-17 2.1017e-17 -27.0866)
(5.1159e-17 -3.72381e-17 -26.185)
(-1.34824e-16 -1.24618e-16 -25.0975)
(-7.97058e-17 2.63964e-16 -23.8523)
(3.91619e-17 2.09768e-16 -22.4405)
(3.89192e-17 -1.8195e-16 -20.8911)
(-1.17295e-16 -3.64229e-17 -19.2496)
(4.27209e-16 -2.79937e-16 -17.5221)
(-2.12114e-16 1.09915e-16 -15.7414)
(2.39126e-17 6.9222e-17 -13.9348)
(-4.40679e-16 -5.05352e-17 -12.1316)
(1.40373e-16 3.95147e-16 -10.3177)
(-7.43565e-16 7.13666e-16 -8.55253)
(2.57504e-16 -6.40247e-16 -6.87736)
(-2.68435e-17 -2.55563e-16 -5.77008)
(-5.18498e-19 2.87145e-16 -5.09286)
(-8.38801e-17 -5.59574e-17 -4.70762)
(-1.11911e-18 -7.60971e-18 -4.58086)
(-6.24412e-17 4.77564e-17 -4.71707)
(6.58759e-17 3.84395e-17 -5.09696)
(-3.11321e-17 -2.43472e-17 -5.63829)
(-3.97165e-19 -3.29858e-18 -6.23178)
(-1.92581e-18 -1.0179e-18 -6.8139)
(-2.3539e-19 2.96502e-18 -7.36596)
(3.80563e-18 2.32883e-17 -7.87983)
(-2.60679e-17 -7.37578e-18 -8.34512)
(2.02744e-17 -3.87699e-17 -8.75151)
(1.19517e-18 5.7342e-18 -9.09117)
(2.6463e-17 1.5402e-17 -9.35982)
(-2.31666e-17 2.06391e-17 -9.55765)
(-1.74828e-18 -5.7098e-17 -9.68777)
(3.87103e-18 5.68808e-17 -9.75682)
(-1.81708e-18 -2.68927e-17 -9.77459)
(-5.18322e-19 -3.32247e-18 -9.75145)
(7.6799e-18 1.95015e-17 -9.69846)
(-6.81015e-18 -3.4095e-19 -9.6264)
(-7.07719e-18 3.23969e-18 -9.54444)
(6.93751e-18 -1.96857e-17 -9.46039)
(2.07454e-18 2.09097e-18 -9.3802)
(6.59005e-19 1.08668e-17 -9.30768)
(-5.02093e-19 -7.53116e-18 -9.2449)
(-3.43775e-19 1.8412e-17 -9.19203)
(3.01036e-19 -1.95427e-17 -9.14737)
(1.97585e-18 1.05389e-17 -9.10803)
(-1.41924e-18 -6.00435e-19 -9.0709)
(-2.79595e-18 -1.23509e-18 -9.03271)
(3.09554e-18 -2.08479e-18 -8.98983)
(1.25514e-20 5.26336e-18 -8.93914)
(1.44941e-19 -1.2823e-18 -8.87812)
(9.34782e-20 2.29239e-18 -8.80494)
(2.8627e-19 -3.71984e-19 -8.71858)
(1.8549e-22 2.48828e-20 -8.61914)
(1.25393e-20 1.2681e-18 -8.54236)
(-2.6549e-20 8.99891e-18 5.00768)
(-2.69509e-19 -6.85474e-18 1.71312)
(5.33067e-19 -2.89012e-17 -1.74853)
(-6.17225e-19 2.27872e-17 -4.27454)
(2.0492e-17 2.19807e-17 -5.75683)
(-2.00767e-17 -1.80108e-17 -6.47733)
(0 -0 -6.74559)
(-4.18587e-17 3.66871e-17 -6.80911)
(4.29719e-17 -6.66223e-17 -6.79276)
(-3.85745e-17 -8.73951e-17 -6.74396)
(3.69442e-17 1.41223e-16 -6.68102)
(2.17567e-18 1.23923e-16 -6.6114)
(-1.14804e-18 -1.35156e-16 -6.53864)
(-1.54821e-16 -8.67067e-17 -6.46481)
(1.46026e-16 1.47569e-16 -6.39113)
(9.4547e-17 -1.34811e-16 -6.31816)
(-1.57333e-16 -2.44028e-17 -6.24608)
(6.8228e-17 1.59293e-16 -6.17479)
(3.9085e-18 -7.36004e-17 -6.10403)
(0 -0 -6.03338)
(1.49829e-16 -0 -5.96234)
(-1.50165e-16 -0 -5.89027)
(-9.79776e-18 1.44391e-16 -5.81641)
(-1.3884e-16 -1.22704e-16 -5.7399)
(1.59636e-16 -1.66405e-16 -5.65979)
(-1.06738e-17 1.44718e-16 -5.57506)
(0 -0 -5.48462)
(1.47327e-16 -0 -5.38736)
(-6.63853e-19 -0 -5.28222)
(-1.60065e-16 1.42584e-16 -5.16827)
(2.30579e-17 -1.24462e-16 -5.04465)
(3.06804e-16 -1.61216e-16 -4.90993)
(-4.75101e-16 1.34179e-16 -4.76215)
(2.75475e-16 -2.96003e-18 -4.59285)
(-1.96974e-17 2.98484e-16 -4.42137)
(-5.64786e-16 -6.49061e-16 -4.30662)
(8.31042e-16 -1.3745e-16 -4.30993)
(4.12316e-16 2.00866e-15 -4.48406)
(-9.19939e-16 -3.06344e-16 -4.84359)
(-2.25221e-16 -1.26258e-15 -5.39251)
(-1.45694e-16 -2.27623e-16 -6.11286)
(-1.61668e-15 8.44207e-17 -6.87681)
(2.3611e-16 5.64196e-16 -7.6765)
(1.20665e-15 8.43347e-16 -8.52377)
(-1.72628e-15 -2.00973e-15 -9.38953)
(2.00819e-15 -1.91699e-15 -10.2789)
(-6.63633e-16 5.44047e-16 -11.1747)
(-5.88005e-17 6.83345e-16 -12.0603)
(8.07357e-17 -2.06708e-16 -12.939)
(-4.79711e-17 1.64938e-15 -13.7719)
(4.91919e-16 7.1278e-16 -14.5709)
(2.03436e-16 -1.4676e-15 -15.3133)
(6.69295e-18 -7.65005e-16 -15.9854)
(2.3926e-16 -2.85496e-16 -16.5905)
(-6.38923e-16 -1.21054e-16 -17.1112)
(-3.38272e-16 6.90203e-17 -17.5508)
(-4.43667e-16 -8.30309e-17 -17.8967)
(-2.88878e-17 2.33413e-16 -18.1512)
(-1.2263e-16 2.25778e-16 -18.2804)
(1.7459e-16 -1.55387e-17 -18.3163)
(6.59298e-17 1.34787e-16 -18.2025)
(-3.25288e-16 -8.01291e-17 -17.9461)
(5.12735e-16 -4.12849e-16 -17.5501)
(4.32982e-16 -7.86376e-16 -16.9925)
(-1.42984e-16 -3.85747e-16 -16.3302)
(-5.41021e-16 9.622e-16 -15.5233)
(-1.01007e-15 4.52614e-16 -14.6347)
(1.64609e-16 9.33692e-17 -13.6471)
(2.58329e-17 -2.47703e-16 -12.6389)
(-7.5196e-16 4.4417e-16 -11.5856)
(2.5656e-17 1.47801e-15 -10.5163)
(1.45253e-15 -1.38413e-15 -9.47725)
(-1.17273e-15 -9.26386e-16 -8.44991)
(2.21722e-15 -1.40517e-15 -7.46959)
(9.8575e-16 -8.97851e-16 -6.54549)
(-2.01967e-16 2.14478e-15 -5.67694)
(9.80753e-16 -3.40871e-16 -4.87763)
(6.58814e-17 -9.54141e-17 -4.15244)
(1.77052e-15 8.86776e-16 -3.49706)
(2.39001e-16 -2.69664e-15 -2.9127)
(8.7891e-16 -3.75535e-15 -2.39751)
(-4.87034e-17 2.71357e-15 -1.94609)
(7.68666e-16 -3.88246e-16 -1.55332)
(8.07484e-16 -1.63603e-15 -1.2136)
(-7.63194e-16 5.58923e-16 -0.921371)
(1.46044e-15 -1.05302e-15 -0.673421)
(-2.19264e-15 4.89615e-16 -0.464796)
(-1.46703e-15 -7.08073e-17 -0.291496)
(-7.00374e-16 1.25654e-15 -0.152988)
(-2.69272e-18 7.58543e-16 -0.044663)
(1.37249e-17 8.71089e-16 0.0346377)
(2.83172e-17 3.91083e-16 0.0859696)
(-3.27297e-16 1.88686e-16 0.113371)
(3.34578e-16 -5.0795e-16 0.117242)
(-6.65602e-19 -4.05116e-17 0.101729)
(-1.01516e-16 3.58014e-16 0.0679949)
(2.97212e-17 -3.09008e-16 0.0203956)
(-1.68882e-17 -6.72909e-16 -0.0389887)
(9.04322e-16 6.50372e-17 -0.104948)
(7.86215e-17 4.51194e-16 -0.176124)
(-6.78496e-17 -2.55544e-17 -0.250077)
(9.77431e-17 -1.16132e-16 -0.323996)
(1.29888e-18 6.28527e-17 -0.398169)
(-7.80093e-19 -6.1147e-17 -0.47092)
(-1.76024e-18 -1.40348e-16 -0.54414)
(-1.29457e-16 -1.86583e-17 -0.620876)
(-1.37478e-16 -1.85731e-16 -0.701763)
(-5.14705e-16 -1.26312e-16 -0.793522)
(7.85497e-16 8.69412e-16 -0.897406)
(-5.29517e-16 -4.97973e-16 -1.01946)
(5.348e-16 -1.21738e-16 -1.16306)
(-6.29295e-18 3.36703e-16 -1.33218)
(1.41318e-17 -3.43965e-16 -1.52986)
(2.86608e-17 3.30216e-16 -1.75776)
(9.23731e-18 3.893e-16 -2.02244)
(-4.59039e-18 -3.73762e-16 -2.32239)
(2.45897e-16 8.49464e-16 -2.6645)
(1.85971e-16 9.03348e-16 -3.05028)
(-1.18276e-15 -2.00465e-15 -3.48047)
(-4.74488e-16 -4.39876e-16 -3.95797)
(1.19772e-15 1.6884e-15 -4.48214)
(3.42829e-16 -1.1034e-15 -5.05018)
(-3.53315e-16 -5.9743e-16 -5.66485)
(-6.64674e-16 -5.79123e-16 -6.3245)
(-2.07721e-16 1.09398e-15 -7.01914)
(-8.64501e-16 1.03298e-16 -7.74907)
(5.73961e-16 -8.74795e-16 -8.50651)
(-8.27384e-16 -2.69507e-17 -9.28364)
(-6.40685e-16 -2.08838e-15 -10.0763)
(-9.3134e-16 -1.13749e-15 -10.8754)
(-2.97659e-16 1.5788e-16 -11.6612)
(-6.54449e-16 -5.21143e-16 -12.4478)
(-4.77333e-16 -1.29176e-15 -13.2183)
(9.42089e-16 6.46394e-16 -13.9407)
(-8.53721e-16 1.49405e-16 -14.6495)
(-5.10505e-18 -3.21728e-16 -15.3171)
(-5.52117e-18 -2.1407e-16 -15.9011)
(-2.08931e-16 3.38445e-17 -16.4709)
(-3.13587e-17 5.61752e-17 -16.9444)
(-2.3565e-16 1.16776e-18 -17.3652)
(1.6529e-16 3.4808e-16 -17.709)
(9.41794e-16 5.34217e-17 -17.9755)
(-9.69752e-17 7.29025e-17 -18.1648)
(1.82927e-17 2.54123e-16 -18.2754)
(-1.88407e-16 1.7619e-16 -18.2889)
(2.68215e-17 -2.70099e-16 -18.2288)
(8.04365e-17 -6.52799e-17 -18.0491)
(-1.03275e-16 1.24001e-16 -17.7788)
(1.34276e-16 5.26002e-18 -17.3701)
(-2.16542e-16 2.59687e-16 -16.8318)
(7.90949e-17 -2.27643e-16 -16.1566)
(1.72996e-16 -4.50725e-16 -15.3404)
(-2.18599e-16 3.54357e-17 -14.3903)
(6.60504e-17 7.33284e-17 -13.3292)
(-2.38772e-16 -6.8986e-17 -12.1316)
(-1.78684e-16 4.43085e-16 -10.8688)
(4.25065e-16 -1.60388e-16 -9.62128)
(-2.02303e-16 1.33321e-16 -8.33698)
(-9.1535e-18 -2.50415e-17 -7.10229)
(5.53039e-16 -2.8538e-16 -5.96913)
(1.77972e-16 -1.88317e-16 -4.95125)
(-3.26014e-16 3.32968e-16 -4.27739)
(3.6689e-17 -3.06186e-17 -3.9703)
(3.50098e-17 -6.96036e-18 -3.90517)
(-3.73627e-17 1.28816e-18 -4.00958)
(-3.70685e-17 -2.36169e-17 -4.24575)
(-1.14541e-17 -8.46487e-17 -4.57456)
(3.46219e-17 5.03374e-17 -4.93038)
(2.87801e-17 2.01194e-18 -5.24947)
(3.19169e-18 2.27458e-17 -5.50797)
(-2.52468e-17 1.49638e-17 -5.71395)
(2.46436e-18 -2.49674e-17 -5.88267)
(4.98102e-17 3.07435e-18 -6.02588)
(-5.06866e-17 -3.32049e-19 -6.15)
(-2.39152e-18 -2.3529e-17 -6.25768)
(-2.41616e-17 -7.54052e-18 -6.3493)
(4.57051e-17 6.40711e-17 -6.42429)
(-2.51495e-17 -1.20663e-17 -6.48197)
(1.26617e-18 -4.35466e-17 -6.52235)
(1.2812e-18 1.87071e-17 -6.54653)
(-1.15863e-17 1.33132e-18 -6.55663)
(9.22092e-18 4.67705e-18 -6.55539)
(2.59874e-18 1.0657e-17 -6.54578)
(1.27881e-17 -1.21946e-17 -6.53044)
(-1.24419e-17 -1.46554e-17 -6.51167)
(-7.13756e-18 2.67875e-18 -6.49122)
(8.14337e-18 6.33014e-19 -6.47017)
(-5.73882e-18 1.914e-18 -6.44897)
(5.68033e-18 -1.03501e-18 -6.42768)
(-1.9404e-18 -2.95036e-18 -6.40577)
(3.05976e-18 -4.12987e-18 -6.38227)
(2.03973e-18 7.48249e-18 -6.35657)
(-1.59751e-18 3.0217e-18 -6.32793)
(2.22562e-19 -8.38258e-18 -6.29505)
(1.16469e-19 1.30797e-18 -6.25698)
(-4.84683e-19 -1.93944e-18 -6.2129)
(1.37578e-19 -2.71897e-18 -6.16232)
(2.02071e-19 -9.71943e-19 -6.10579)
(2.19934e-19 1.4863e-18 -6.04552)
(3.99052e-20 -1.36007e-18 -6.02559)
(0 -0 3.46971)
(9.58555e-18 -0 2.53596)
(-9.37682e-18 -1.77839e-17 1.16722)
(3.49933e-19 1.34899e-17 -0.42692)
(-4.81277e-19 2.21162e-17 -1.67781)
(2.62899e-19 -1.78222e-17 -2.68269)
(3.73608e-17 -0 -3.36832)
(-3.74671e-17 -0 -3.85702)
(1.84282e-18 -0 -4.20935)
(-3.98203e-18 -0 -4.47102)
(-7.87036e-17 7.16014e-17 -4.67064)
(8.08451e-17 -5.65787e-17 -4.82434)
(7.89435e-17 -1.5405e-17 -4.94232)
(-2.20625e-18 -5.64802e-17 -5.03207)
(3.34823e-19 -2.94026e-17 -5.09935)
(-7.95732e-17 2.29268e-16 -5.14861)
(-7.62362e-17 -1.28895e-16 -5.18331)
(8.23322e-17 -8.55846e-17 -5.20623)
(-3.79574e-18 7.1477e-17 -5.21955)
(8.1309e-17 -1.41312e-16 -5.22503)
(-8.12407e-17 1.14354e-16 -5.22405)
(-9.40006e-18 1.68587e-16 -5.21765)
(-3.24193e-19 -1.38007e-18 -5.20651)
(1.875e-17 -1.14336e-16 -5.19108)
(1.4487e-16 -1.66468e-16 -5.17151)
(-1.54455e-16 1.40555e-16 -5.1477)
(-1.31946e-16 -1.38952e-16 -5.11941)
(1.72631e-18 -2.3835e-17 -5.08623)
(2.61935e-16 2.7856e-16 -5.04772)
(-1.55998e-16 1.61534e-16 -5.00349)
(4.62542e-17 -3.93139e-16 -4.95324)
(-1.4864e-16 -4.43378e-17 -4.89626)
(1.26075e-16 1.69552e-16 -4.83183)
(1.33217e-16 -1.97026e-17 -4.74863)
(-1.71369e-16 2.84531e-16 -4.66533)
(3.31606e-16 -2.21708e-16 -4.60629)
(-1.13035e-15 -8.65907e-16 -4.57427)
(-1.07592e-15 -1.00819e-15 -4.59682)
(1.24866e-15 7.51242e-16 -4.69094)
(4.84875e-16 1.18762e-15 -4.86335)
(-1.54794e-16 1.52607e-15 -5.10469)
(1.16979e-15 -4.85817e-16 -5.3665)
(5.10251e-16 -2.91973e-15 -5.65822)
(-1.17828e-15 5.44663e-16 -5.99006)
(5.68947e-16 1.63808e-15 -6.35743)
(-1.23938e-15 -4.59599e-16 -6.76313)
(-9.11716e-16 -4.10505e-18 -7.19478)
(-5.41208e-16 -3.04258e-16 -7.66281)
(-8.49917e-16 -1.96727e-16 -8.16046)
(-5.34466e-16 -1.42285e-15 -8.6292)
(1.45838e-15 3.49642e-16 -9.1185)
(-7.28614e-16 8.42247e-16 -9.61878)
(-1.60432e-17 8.67667e-16 -10.0986)
(-9.20934e-16 -1.69014e-16 -10.5581)
(-8.48737e-17 7.01775e-17 -10.9998)
(-9.82595e-18 -2.67925e-16 -11.4145)
(-5.7644e-16 -3.53211e-16 -11.7973)
(-1.59208e-16 -1.63736e-16 -12.1483)
(1.00766e-17 -5.91232e-17 -12.4378)
(8.99425e-17 -5.4801e-17 -12.6842)
(-1.69501e-16 5.41097e-17 -12.8451)
(3.56265e-16 -2.06301e-16 -12.9134)
(-5.02853e-16 -5.37467e-17 -12.8791)
(1.89696e-16 9.37734e-16 -12.7197)
(-8.24805e-16 1.11243e-15 -12.4559)
(8.68135e-16 -6.54866e-16 -12.0614)
(-2.37142e-16 -2.9469e-16 -11.5734)
(1.67888e-16 -1.79003e-16 -10.9876)
(-6.1039e-16 7.20943e-16 -10.3372)
(4.65824e-16 4.57993e-18 -9.63274)
(2.91872e-16 -1.6548e-15 -8.89371)
(6.56599e-16 2.89464e-16 -8.1562)
(-6.48613e-16 7.55396e-16 -7.42069)
(-8.32994e-17 -1.29876e-15 -6.71476)
(-1.10513e-15 1.67375e-15 -6.05005)
(4.86278e-17 -8.64825e-16 -5.43136)
(8.56373e-16 -8.6007e-16 -4.86897)
(4.42482e-17 -1.23946e-16 -4.36568)
(1.77087e-15 -2.15783e-15 -3.91789)
(1.63373e-15 -3.72368e-16 -3.52428)
(-3.38094e-15 4.07103e-15 -3.18063)
(-8.05958e-16 -2.40425e-16 -2.88059)
(8.49994e-16 -1.5899e-15 -2.61903)
(-8.56881e-16 1.45707e-15 -2.39065)
(3.72919e-18 -9.08486e-16 -2.19132)
(-1.51086e-15 2.67992e-15 -2.01931)
(1.46839e-15 2.83512e-15 -1.87177)
(-3.39196e-16 -4.1012e-16 -1.74794)
(-6.46173e-16 -2.20347e-15 -1.64946)
(-2.02998e-15 2.5049e-16 -1.57346)
(-3.21686e-16 1.74868e-16 -1.51984)
(1.9793e-17 1.3718e-17 -1.48978)
(3.32689e-16 -1.3842e-16 -1.47857)
(-4.71262e-17 -3.87548e-16 -1.48561)
(-5.48509e-16 2.49345e-16 -1.50962)
(-2.84123e-17 3.4262e-16 -1.54647)
(2.8621e-16 -1.46729e-16 -1.59652)
(-8.7458e-16 -5.58524e-17 -1.65361)
(-4.80229e-16 1.45396e-16 -1.71834)
(-2.81157e-17 2.65447e-16 -1.78689)
(1.3514e-16 -2.35155e-17 -1.86065)
(-1.30004e-16 9.56676e-17 -1.93406)
(8.15216e-17 -2.33358e-17 -2.00818)
(-9.57959e-19 -1.93493e-17 -2.0805)
(1.31762e-18 1.37786e-16 -2.15218)
(-2.69234e-16 1.58592e-16 -2.2238)
(1.90156e-18 1.55254e-16 -2.29402)
(-2.59989e-16 -8.56894e-16 -2.36519)
(-2.48521e-16 -9.62264e-17 -2.4369)
(4.99565e-16 8.3619e-16 -2.51193)
(-2.12445e-17 -3.15311e-16 -2.58894)
(8.12437e-18 -1.63516e-17 -2.67106)
(2.56233e-18 3.17461e-16 -2.75966)
(-2.70828e-16 -1.10634e-16 -2.85447)
(4.95765e-16 -7.19244e-17 -2.96196)
(1.19919e-17 -2.60026e-16 -3.07967)
(-7.75177e-16 -1.50088e-15 -3.21417)
(4.1208e-16 9.85202e-16 -3.36815)
(1.05007e-15 2.51152e-15 -3.54193)
(-6.69021e-16 -1.61534e-15 -3.74165)
(1.13136e-15 -7.76212e-16 -3.96954)
(-8.68334e-16 5.19803e-16 -4.22515)
(-5.46941e-16 1.20731e-15 -4.51302)
(-2.82339e-16 1.57499e-16 -4.83467)
(-7.30105e-16 -1.02294e-15 -5.18607)
(1.79497e-15 6.78665e-16 -5.56902)
(-1.42445e-16 2.28355e-17 -5.98006)
(5.15732e-16 9.41967e-16 -6.41496)
(-5.37175e-16 7.02777e-16 -6.87074)
(-9.02315e-16 -3.26048e-16 -7.34167)
(-4.8429e-16 -5.06773e-16 -7.81599)
(-6.1788e-17 6.77039e-17 -8.29875)
(-7.95958e-16 2.82694e-17 -8.78005)
(-6.63248e-16 -8.82631e-16 -9.24049)
(-6.39755e-17 3.26778e-16 -9.69654)
(-1.35339e-16 -1.90147e-16 -10.131)
(-5.54821e-16 -7.43235e-17 -10.5253)
(-2.12172e-16 2.07203e-16 -10.9071)
(1.72947e-16 -2.92672e-17 -11.2412)
(1.93254e-17 -4.4137e-18 -11.545)
(3.78589e-16 -1.23204e-15 -11.8114)
(-2.25652e-16 -3.96718e-16 -12.0411)
(-6.73152e-17 6.82678e-17 -12.2381)
(2.50433e-16 2.86866e-16 -12.4015)
(3.3909e-16 1.38469e-16 -12.528)
(1.20817e-16 -5.10543e-17 -12.6211)
(-1.19234e-16 2.992e-17 -12.6634)
(7.61559e-17 1.01577e-16 -12.6586)
(-6.16979e-17 -5.83293e-17 -12.5763)
(2.93663e-16 6.54989e-17 -12.4078)
(3.27805e-17 -2.00389e-16 -12.1424)
(-2.90551e-16 3.27367e-16 -11.7603)
(-2.84515e-17 2.01861e-16 -11.2669)
(7.68209e-17 -1.72445e-16 -10.6529)
(-1.92682e-16 3.71492e-16 -9.90127)
(1.16925e-16 -3.3079e-16 -9.10696)
(-3.09203e-16 -9.40905e-17 -8.27567)
(3.34901e-16 6.60731e-17 -7.38991)
(-2.98426e-17 -2.02225e-16 -6.58601)
(-2.75374e-17 -1.3015e-16 -5.88101)
(-1.75104e-16 2.46713e-16 -5.3972)
(1.56036e-16 -5.00293e-17 -5.16474)
(3.13088e-17 -7.01129e-17 -5.20883)
(1.37598e-16 -5.96521e-17 -5.41643)
(-2.61306e-17 6.31826e-17 -5.70484)
(3.78499e-17 1.99298e-17 -6.01067)
(-9.15835e-17 -3.58913e-18 -6.29128)
(-5.70186e-18 -6.65856e-17 -6.49663)
(6.64731e-18 -1.68183e-18 -6.59589)
(2.96492e-17 4.25347e-17 -6.59849)
(-5.45246e-19 2.30691e-17 -6.53601)
(-9.25297e-18 -4.69718e-17 -6.44119)
(-6.09165e-18 -4.74058e-18 -6.33972)
(5.96731e-18 5.03356e-17 -6.24837)
(5.1597e-18 -1.39108e-17 -6.17648)
(-4.8902e-17 5.00814e-19 -6.12768)
(4.07627e-17 -1.81122e-17 -6.10145)
(2.00619e-17 -1.39366e-17 -6.09458)
(-1.44583e-17 4.63641e-17 -6.10254)
(-5.1071e-18 -1.44859e-17 -6.12044)
(1.05413e-17 4.21215e-18 -6.14367)
(-7.74651e-18 -3.45731e-18 -6.16827)
(8.41356e-19 -9.81422e-18 -6.19118)
(6.4008e-18 -7.25835e-18 -6.20994)
(-1.35539e-17 2.1571e-17 -6.22272)
(9.1621e-19 -3.62211e-18 -6.22822)
(-1.99583e-18 -5.22481e-18 -6.22568)
(-1.5294e-18 5.08799e-18 -6.21495)
(3.92484e-18 1.03683e-17 -6.19646)
(-4.81793e-18 -1.896e-17 -6.17132)
(-4.44617e-18 -1.40174e-18 -6.14103)
(4.48518e-18 -4.75466e-18 -6.10772)
(-1.37423e-18 7.35231e-18 -6.07303)
(-1.50074e-18 -7.36508e-18 -6.03792)
(9.34696e-20 8.4217e-18 -6.00339)
(8.80032e-19 2.41134e-18 -5.96984)
(-7.88699e-19 2.87248e-18 -5.93725)
(-8.82589e-20 -2.20469e-18 -5.90567)
(3.09688e-19 -5.23369e-18 -5.87415)
(-1.20379e-19 2.15547e-19 -5.89426)
(0 -0 2.33292)
(0 -0 2.06216)
(1.59058e-19 -1.79712e-17 1.55501)
(5.67328e-19 1.35848e-17 0.865129)
(-8.30348e-19 2.22905e-17 0.0233393)
(8.89592e-19 -5.32393e-17 -0.710185)
(3.74021e-17 2.66257e-17 -1.37483)
(-7.68425e-17 7.93625e-17 -1.96584)
(3.93052e-17 -9.72411e-17 -2.46101)
(9.9952e-19 -1.72754e-17 -2.8778)
(-2.60044e-18 7.91682e-17 -3.23384)
(7.72036e-17 -3.53047e-17 -3.53442)
(-1.46671e-16 -6.99749e-17 -3.78723)
(1.49711e-16 -1.63476e-17 -3.9994)
(-1.61362e-16 2.09865e-16 -4.17733)
(7.83405e-17 -3.72922e-17 -4.32652)
(1.08772e-17 -1.56131e-16 -4.45167)
(-7.34641e-18 6.98807e-17 -4.55679)
(3.8686e-18 -6.90147e-17 -4.64534)
(6.76357e-17 5.33239e-17 -4.72028)
(-8.40112e-17 8.48385e-17 -4.7841)
(1.26064e-17 -6.91477e-17 -4.83889)
(-1.50186e-16 1.36436e-16 -4.8863)
(1.67845e-16 -2.42315e-16 -4.92767)
(-6.84034e-18 -6.05851e-17 -4.96395)
(-3.16861e-17 4.38001e-16 -4.99578)
(9.05823e-18 -1.07692e-16 -5.02352)
(2.36564e-17 -4.05435e-16 -5.0473)
(-1.46026e-16 7.84908e-17 -5.06705)
(1.10992e-16 4.31821e-16 -5.08261)