/*--------------------------------*- C++ -*----------------------------------*\
| =========                 |                                                 |
| \\      /  F ield         | OpenFOAM: The Open Source CFD Toolbox           |
|  \\    /   O peration     | Version:  2506                                  |
|   \\  /    A nd           | Website:  www.openfoam.com                      |
|    \\/     M anipulation  |                                                 |
\*---------------------------------------------------------------------------*/
FoamFile
{
    version     2.0;
    format      ascii;
    arch        "LSB;label=32;scalar=64";
    class       surfaceScalarField;
    location    "2.25";
    object      phi;
}
// * * * * * * * * * * * * * * * * * * * * * * * * * * * * * * * * * * * * * //

dimensions      [0 3 -1 0 0 0 0];

oriented        oriented;

internalField   nonuniform List<scalar> 
7780
(
7.19956e-10
-7.19956e-10
1.30167e-09
-5.81717e-10
1.67168e-09
-3.70012e-10
1.93156e-09
-2.59875e-10
2.12005e-09
-1.88487e-10
2.257e-09
-1.36957e-10
2.3588e-09
-1.01795e-10
2.43742e-09
-7.86248e-11
2.5004e-09
-6.29763e-11
2.55236e-09
-5.19567e-11
2.59624e-09
-4.3884e-11
2.63397e-09
-3.7728e-11
2.66686e-09
-3.28922e-11
2.69584e-09
-2.89764e-11
2.7215e-09
-2.56656e-11
2.74429e-09
-2.27885e-11
2.76454e-09
-2.02464e-11
2.78251e-09
-1.79694e-11
2.79841e-09
-1.59036e-11
2.81239e-09
-1.39768e-11
2.8246e-09
-1.22092e-11
2.83525e-09
-1.06506e-11
2.84447e-09
-9.21875e-12
2.8524e-09
-7.9319e-12
2.85924e-09
-6.83715e-12
2.86521e-09
-5.97788e-12
2.87063e-09
-5.41311e-12
2.87589e-09
-5.2667e-12
2.88139e-09
-5.49987e-12
2.88766e-09
-6.26279e-12
2.88929e-09
-4.66021e-11
2.85551e-09
-2.83406e-10
2.77429e-09
-5.79343e-10
2.64542e-09
-8.40858e-10
2.47225e-09
-1.05929e-09
2.27775e-09
-1.26011e-09
2.08748e-09
-1.46197e-09
1.86913e-09
-1.72405e-09
1.64166e-09
-1.8982e-09
1.45786e-09
-1.98627e-09
1.31714e-09
-2.05987e-09
1.2164e-09
-2.11955e-09
1.14688e-09
-2.16251e-09
1.10225e-09
-2.19165e-09
1.07719e-09
-2.20817e-09
1.06558e-09
-2.21116e-09
1.06503e-09
-2.20071e-09
1.07035e-09
-2.17737e-09
1.07718e-09
-2.13923e-09
1.08068e-09
-2.08401e-09
1.07967e-09
-2.00872e-09
1.08212e-09
-1.91061e-09
1.08357e-09
-1.79347e-09
1.10312e-09
-1.64174e-09
1.15351e-09
-1.4585e-09
1.26184e-09
-1.2219e-09
1.43206e-09
-9.35695e-10
1.66521e-09
-5.55167e-10
1.91376e-09
-9.31943e-11
2.12216e-09
3.88418e-10
2.26836e-09
8.31872e-10
2.34858e-09
1.23896e-09
2.3836e-09
1.50384e-09
2.39958e-09
1.72418e-09
2.41845e-09
1.84802e-09
2.44124e-09
1.95063e-09
2.46993e-09
2.02827e-09
2.50295e-09
2.08115e-09
2.53853e-09
2.12269e-09
2.5747e-09
2.15511e-09
2.61134e-09
2.1793e-09
2.64803e-09
2.19344e-09
2.68466e-09
2.19933e-09
2.72127e-09
2.19791e-09
2.75781e-09
2.18914e-09
2.79442e-09
2.1725e-09
2.83111e-09
2.1471e-09
2.8681e-09
2.10599e-09
2.90524e-09
2.05639e-09
2.94227e-09
1.99271e-09
2.97984e-09
1.9092e-09
3.01694e-09
1.782e-09
3.05344e-09
1.64212e-09
3.08849e-09
1.43093e-09
3.12137e-09
1.18434e-09
3.1508e-09
8.2034e-10
3.17673e-09
4.19499e-10
3.19783e-09
-2.93965e-11
3.21542e-09
-4.98575e-10
3.22468e-09
-9.08771e-10
3.22028e-09
-1.21467e-09
3.19765e-09
-1.47267e-09
3.15512e-09
-1.63739e-09
3.09668e-09
-1.78409e-09
3.02797e-09
-1.87847e-09
2.95712e-09
-1.96005e-09
2.89268e-09
-2.03827e-09
2.84041e-09
-2.09682e-09
2.80292e-09
-2.14667e-09
2.77867e-09
-2.18525e-09
2.76264e-09
-2.21025e-09
2.74878e-09
-2.22141e-09
2.73007e-09
-2.2171e-09
2.70156e-09
-2.20006e-09
2.66269e-09
-2.1748e-09
2.61162e-09
-2.13936e-09
2.5499e-09
-2.09611e-09
2.47921e-09
-2.04018e-09
2.40244e-09
-1.96888e-09
2.32182e-09
-1.88712e-09
2.23978e-09
-1.78631e-09
2.16284e-09
-1.6337e-09
2.09467e-09
-1.47327e-09
2.04838e-09
-1.22802e-09
2.03192e-09
-9.54314e-10
2.05452e-09
-5.91889e-10
2.11271e-09
-1.58994e-10
2.18239e-09
2.87356e-10
2.2387e-09
7.17914e-10
2.26484e-09
1.12739e-09
2.26876e-09
1.41762e-09
2.2621e-09
1.64721e-09
2.26062e-09
1.79518e-09
2.26409e-09
1.92332e-09
2.27681e-09
2.00025e-09
2.29662e-09
2.06101e-09
2.32111e-09
2.11226e-09
2.34956e-09
2.14862e-09
2.38088e-09
2.17294e-09
2.41445e-09
2.18916e-09
2.44987e-09
2.19789e-09
2.48713e-09
2.19917e-09
2.5262e-09
2.19296e-09
2.56709e-09
2.17744e-09
2.61043e-09
2.15356e-09
2.65586e-09
2.12084e-09
2.70397e-09
2.07692e-09
2.75508e-09
2.02019e-09
2.80916e-09
1.93326e-09
2.8665e-09
1.83469e-09
2.92645e-09
1.71036e-09
2.98889e-09
1.51652e-09
3.0522e-09
1.30643e-09
3.11443e-09
9.87574e-10
3.17467e-09
6.18698e-10
3.23022e-09
1.91522e-10
3.28114e-09
-2.79991e-10
3.32322e-09
-7.27786e-10
3.35118e-09
-1.07767e-09
3.35782e-09
-1.36105e-09
3.34235e-09
-1.57155e-09
3.30526e-09
-1.72367e-09
3.25238e-09
-1.83244e-09
3.19267e-09
-1.93631e-09
3.13274e-09
-2.00688e-09
3.08144e-09
-2.07085e-09
3.04207e-09
-2.12523e-09
3.01503e-09
-2.17124e-09
2.99737e-09
-2.20167e-09
2.97508e-09
-2.2092e-09
2.94273e-09
-2.20381e-09
2.91228e-09
-2.20309e-09
2.88988e-09
-2.20115e-09
2.83656e-09
-1.74382e-09
2.76936e-09
-1.5086e-09
2.69615e-09
-1.31697e-09
2.62413e-09
-1.07241e-09
2.57128e-09
-8.17145e-10
2.54207e-09
-5.20268e-10
2.5351e-09
-2.0718e-10
2.54361e-09
-1.74806e-11
2.55882e-09
-1.52096e-11
2.57423e-09
-1.54122e-11
2.58723e-09
-1.29935e-11
2.59696e-09
-9.7334e-12
2.60364e-09
-6.67646e-12
2.60799e-09
-4.35394e-12
2.61089e-09
-2.90289e-12
2.61305e-09
-2.15544e-12
2.61495e-09
-1.90469e-12
2.6169e-09
-1.94617e-12
2.61895e-09
-2.0545e-12
2.621e-09
-2.04414e-12
2.62279e-09
-1.7949e-12
2.62399e-09
-1.20013e-12
2.62409e-09
-9.93119e-14
2.62284e-09
1.25227e-12
2.61978e-09
3.06103e-12
2.6143e-09
5.48034e-12
2.60562e-09
8.67908e-12
2.59258e-09
1.30391e-11
2.57335e-09
1.92316e-11
2.54515e-09
2.82044e-11
2.50299e-09
4.21516e-11
2.43746e-09
6.55308e-11
2.32964e-09
1.0782e-10
2.13804e-09
1.91607e-10
1.77297e-09
3.65062e-10
1.05096e-09
7.22017e-10
1.05096e-09
-2.91143e-11
-6.90842e-10
1.99927e-10
-8.10758e-10
5.09283e-10
-6.79368e-10
7.91732e-10
-5.42325e-10
1.03239e-09
-4.29144e-10
1.23399e-09
-3.38562e-10
1.40182e-09
-2.69625e-10
1.54171e-09
-2.18509e-10
1.65905e-09
-1.80321e-10
1.7583e-09
-1.51202e-10
1.84291e-09
-1.28495e-10
1.91554e-09
-1.10361e-10
1.97819e-09
-9.55397e-11
2.03237e-09
-8.31537e-11
2.07927e-09
-7.25701e-11
2.11984e-09
-6.33537e-11
2.1548e-09
-5.52095e-11
2.18476e-09
-4.79298e-11
2.21022e-09
-4.1367e-11
2.23162e-09
-3.53771e-11
2.24935e-09
-2.99395e-11
2.2638e-09
-2.51017e-11
2.27538e-09
-2.07963e-11
2.28451e-09
-1.70577e-11
2.29166e-09
-1.3989e-11
2.29741e-09
-1.17259e-11
2.30245e-09
-1.04513e-11
2.30765e-09
-1.04672e-11
2.31413e-09
-1.19817e-11
2.32331e-09
-1.54424e-11
2.32663e-09
-4.99256e-11
2.27755e-09
-2.34329e-10
2.16692e-09
-4.68711e-10
2.01025e-09
-6.8419e-10
1.82747e-09
-8.76499e-10
1.64399e-09
-1.07662e-09
1.47321e-09
-1.2912e-09
1.2881e-09
-1.53893e-09
1.10769e-09
-1.7178e-09
9.64093e-10
-1.84267e-09
8.55492e-10
-1.95127e-09
7.77923e-10
-2.04198e-09
7.25795e-10
-2.11038e-09
6.93377e-10
-2.15923e-09
6.7563e-10
-2.19042e-09
6.68009e-10
-2.20354e-09
6.66913e-10
-2.19961e-09
6.67833e-10
-2.17829e-09
6.65562e-10
-2.13696e-09
6.56458e-10
-2.0749e-09
6.40311e-10
-1.99257e-09
6.21856e-10
-1.89216e-09
6.0144e-10
-1.77306e-09
5.9354e-10
-1.63384e-09
6.11244e-10
-1.4762e-09
6.79662e-10
-1.29032e-09
8.18272e-10
-1.07431e-09
1.05522e-09
-7.92112e-10
1.39097e-09
-4.28941e-10
1.77209e-09
7.2899e-12
2.11898e-09
4.84983e-10
2.38929e-09
9.68651e-10
2.56537e-09
1.32775e-09
2.65451e-09
1.63505e-09
2.68434e-09
1.81819e-09
2.68935e-09
1.94563e-09
2.68916e-09
2.02846e-09
2.69317e-09
2.07713e-09
2.70486e-09
2.11098e-09
2.72255e-09
2.13742e-09
2.74547e-09
2.15639e-09
2.77196e-09
2.16695e-09
2.80114e-09
2.17017e-09
2.83237e-09
2.16668e-09
2.86513e-09
2.15639e-09
2.89922e-09
2.13841e-09
2.9345e-09
2.11181e-09
2.97124e-09
2.06925e-09
3.00923e-09
2.0184e-09
3.04811e-09
1.95382e-09
3.08871e-09
1.8686e-09
3.13026e-09
1.74046e-09
3.17285e-09
1.59953e-09
3.21562e-09
1.38817e-09
3.25785e-09
1.14211e-09
3.29704e-09
7.81155e-10
3.33086e-09
3.85676e-10
3.35329e-09
-5.18277e-11
3.35994e-09
-5.05222e-10
3.34318e-09
-8.92017e-10
3.30383e-09
-1.17531e-09
3.24321e-09
-1.41206e-09
3.16752e-09
-1.5617e-09
3.085e-09
-1.70158e-09
3.00722e-09
-1.80069e-09
2.94194e-09
-1.89476e-09
2.89387e-09
-1.99019e-09
2.86308e-09
-2.06601e-09
2.8458e-09
-2.12938e-09
2.83481e-09
-2.17425e-09
2.82139e-09
-2.19683e-09
2.79941e-09
-2.19945e-09
2.76425e-09
-2.18197e-09
2.71519e-09
-2.15104e-09
2.65096e-09
-2.11059e-09
2.57321e-09
-2.06161e-09
2.48577e-09
-2.00865e-09
2.39125e-09
-1.94564e-09
2.29327e-09
-1.87087e-09
2.19366e-09
-1.78749e-09
2.09498e-09
-1.68763e-09
2.0041e-09
-1.54282e-09
1.92361e-09
-1.39279e-09
1.86755e-09
-1.17196e-09
1.8455e-09
-9.32261e-10
1.87542e-09
-6.21808e-10
1.9704e-09
-2.5398e-10
2.11571e-09
1.42046e-10
2.27989e-09
5.53741e-10
2.4265e-09
9.80777e-10
2.52716e-09
1.31696e-09
2.57112e-09
1.60326e-09
2.57013e-09
1.79617e-09
2.55172e-09
1.94173e-09
2.53226e-09
2.01971e-09
2.52073e-09
2.07255e-09
2.51832e-09
2.11467e-09
2.52536e-09
2.14158e-09
2.54028e-09
2.15801e-09
2.56158e-09
2.16786e-09
2.58786e-09
2.17161e-09
2.61832e-09
2.1687e-09
2.65238e-09
2.1589e-09
2.68976e-09
2.14006e-09
2.73097e-09
2.11235e-09
2.77542e-09
2.07639e-09
2.82366e-09
2.02868e-09
2.87608e-09
1.96777e-09
2.93284e-09
1.8765e-09
2.99439e-09
1.77314e-09
3.06013e-09
1.64463e-09
3.13021e-09
1.44644e-09
3.20323e-09
1.23342e-09
3.27637e-09
9.14431e-10
3.34725e-09
5.47821e-10
3.40854e-09
1.30231e-10
3.45392e-09
-3.2537e-10
3.47346e-09
-7.47333e-10
3.46491e-09
-1.06912e-09
3.42932e-09
-1.32547e-09
3.3727e-09
-1.51494e-09
3.30302e-09
-1.65399e-09
3.2336e-09
-1.763e-09
3.17297e-09
-1.87566e-09
3.12845e-09
-1.96231e-09
3.10115e-09
-2.0435e-09
3.08715e-09
-2.1112e-09
3.08057e-09
-2.16464e-09
3.0747e-09
-2.19583e-09
3.05373e-09
-2.1883e-09
3.01357e-09
-2.16374e-09
2.95975e-09
-2.14932e-09
2.88479e-09
-2.12619e-09
2.79982e-09
-1.65882e-09
2.70799e-09
-1.41673e-09
2.61651e-09
-1.22546e-09
2.53631e-09
-9.922e-10
2.4811e-09
-7.61937e-10
2.4559e-09
-4.95065e-10
2.46263e-09
-2.13918e-10
2.48871e-09
-4.3557e-11
2.51474e-09
-4.12407e-11
2.53703e-09
-3.77071e-11
2.55329e-09
-2.92505e-11
2.56281e-09
-1.92565e-11
2.5661e-09
-9.96865e-12
2.56438e-09
-2.63066e-12
2.5591e-09
2.3772e-12
2.55167e-09
5.27136e-12
2.54319e-09
6.58154e-12
2.53429e-09
6.94935e-12
2.52521e-09
7.03189e-12
2.51577e-09
7.38941e-12
2.50554e-09
8.43526e-12
2.4939e-09
1.04408e-11
2.48019e-09
1.3611e-11
2.4634e-09
1.80425e-11
2.4425e-09
2.39657e-11
2.41627e-09
3.171e-11
2.38317e-09
4.17804e-11
2.34115e-09
5.50511e-11
2.2873e-09
7.30857e-11
2.21672e-09
9.87842e-11
2.12077e-09
1.38104e-10
1.98311e-09
2.03191e-10
1.77283e-09
3.18093e-10
1.43814e-09
5.26304e-10
9.18066e-10
8.85132e-10
2.68556e-10
1.37153e-09
1.31951e-09
-1.4902e-10
-5.41821e-10
-1.4528e-10
-8.14499e-10
-2.84214e-11
-7.96226e-10
1.32392e-10
-7.03138e-10
3.00868e-10
-5.9762e-10
4.62838e-10
-5.00532e-10
6.12376e-10
-4.19162e-10
7.47212e-10
-3.53345e-10
8.67324e-10
-3.00433e-10
9.73709e-10
-2.57586e-10
1.06767e-09
-2.2246e-10
1.15055e-09
-1.93235e-10
1.22355e-09
-1.68541e-10
1.28775e-09
-1.47352e-10
1.34408e-09
-1.289e-10
1.39334e-09
-1.12619e-10
1.43623e-09
-9.80988e-11
1.47334e-09
-8.5039e-11
1.5052e-09
-7.32247e-11
1.53232e-09
-6.25015e-11
1.55519e-09
-5.28033e-11
1.57422e-09
-4.41357e-11
1.58994e-09
-3.65175e-11
1.60292e-09
-3.00397e-11
1.61381e-09
-2.48756e-11
1.62337e-09
-2.12823e-11
1.63253e-09
-1.9613e-11
1.64241e-09
-2.03531e-11
1.65456e-09
-2.41291e-11
1.67091e-09
-3.17953e-11
1.68458e-09
-6.35941e-11
1.6547e-09
-2.0445e-10
1.57597e-09
-3.89974e-10
1.46571e-09
-5.73933e-10
1.34239e-09
-7.53178e-10
1.22157e-09
-9.55802e-10
1.10774e-09
-1.17737e-09
9.82743e-10
-1.41394e-09
8.62897e-10
-1.59795e-09
7.6729e-10
-1.74707e-09
6.94459e-10
-1.87844e-09
6.4116e-10
-1.98869e-09
6.04715e-10
-2.07394e-09
5.82682e-10
-2.1372e-09
5.71286e-10
-2.17903e-09
5.66258e-10
-2.19851e-09
5.63409e-10
-2.19676e-09
5.58555e-10
-2.17343e-09
5.47783e-10
-2.12619e-09
5.28893e-10
-2.05601e-09
5.01965e-10
-1.96565e-09
4.69296e-10
-1.85949e-09
4.32984e-10
-1.73675e-09
4.02482e-10
-1.60333e-09
3.87504e-10
-1.46122e-09
4.05153e-10
-1.30796e-09
4.72415e-10
-1.14157e-09
6.18113e-10
-9.37809e-10
8.65823e-10
-6.76651e-10
1.21677e-09
-3.43655e-10
1.63645e-09
6.52946e-11
2.05624e-09
5.48861e-10
2.40278e-09
9.81211e-10
2.65452e-09
1.38331e-09
2.80728e-09
1.66544e-09
2.88179e-09
1.87114e-09
2.90575e-09
2.0045e-09
2.90776e-09
2.07511e-09
2.90497e-09
2.11376e-09
2.90462e-09
2.13776e-09
2.91094e-09
2.15008e-09
2.92353e-09
2.15438e-09
2.94172e-09
2.15199e-09
2.96462e-09
2.14378e-09
2.9911e-09
2.1299e-09
3.02057e-09
2.10893e-09
3.05251e-09
2.07985e-09
3.08697e-09
2.03479e-09
3.12368e-09
1.98168e-09
3.16216e-09
1.91535e-09
3.20312e-09
1.82765e-09
3.24546e-09
1.69812e-09
3.28929e-09
1.55569e-09
3.33294e-09
1.34453e-09
3.37488e-09
1.10017e-09
3.41011e-09
7.45919e-10
3.43438e-09
3.61412e-10
3.43936e-09
-5.681e-11
3.42065e-09
-4.86516e-10
3.37492e-09
-8.46282e-10
3.308e-09
-1.10839e-09
3.22529e-09
-1.32935e-09
3.13971e-09
-1.47612e-09
3.06085e-09
-1.62272e-09
2.99709e-09
-1.73693e-09
2.95136e-09
-1.84903e-09
2.9238e-09
-1.96263e-09
2.90817e-09
-2.05037e-09
2.89681e-09
-2.118e-09
2.88024e-09
-2.15766e-09
2.85266e-09
-2.16923e-09
2.81008e-09
-2.15686e-09
2.75069e-09
-2.1226e-09
2.6756e-09
-2.07597e-09
2.58719e-09
-2.02221e-09
2.49089e-09
-1.96533e-09
2.38934e-09
-1.9071e-09
2.28422e-09
-1.84051e-09
2.1784e-09
-1.76503e-09
2.07272e-09
-1.68178e-09
1.96881e-09
-1.58371e-09
1.87199e-09
-1.44601e-09
1.78306e-09
-1.30387e-09
1.71278e-09
-1.10169e-09
1.66786e-09
-8.87347e-10
1.66474e-09
-6.18681e-10
1.72295e-09
-3.12195e-10
1.85239e-09
1.26106e-11
2.04642e-09
3.59714e-10
2.27175e-09
7.55437e-10
2.47563e-09
1.11308e-09
2.63312e-09
1.44576e-09
2.72937e-09
1.69992e-09
2.76721e-09
1.90388e-09
2.76562e-09
2.0213e-09
2.75033e-09
2.08785e-09
2.73325e-09
2.13175e-09
2.72276e-09
2.15208e-09
2.72105e-09
2.15972e-09
2.72842e-09
2.16048e-09
2.74373e-09
2.1563e-09
2.76579e-09
2.14664e-09
2.79349e-09
2.13119e-09
2.82613e-09
2.10742e-09
2.864e-09
2.07448e-09
2.90624e-09
2.03416e-09
2.95331e-09
1.98161e-09
3.00543e-09
1.91565e-09
3.06254e-09
1.81939e-09
3.12521e-09
1.71047e-09
3.19248e-09
1.57735e-09
3.26369e-09
1.37523e-09
3.33692e-09
1.16019e-09
3.4068e-09
8.44551e-10
3.46856e-09
4.86052e-10
3.51155e-09
8.72506e-11
3.52843e-09
-3.42258e-10
3.51356e-09
-7.32459e-10
3.47099e-09
-1.02656e-09
3.40662e-09
-1.2611e-09
3.33374e-09
-1.44207e-09
3.26556e-09
-1.58582e-09
3.2118e-09
-1.70924e-09
3.17556e-09
-1.8394e-09
3.15774e-09
-1.94447e-09
3.15228e-09
-2.038e-09
3.15121e-09
-2.11009e-09
3.14602e-09
-2.15942e-09
3.1311e-09
-2.1809e-09
3.09284e-09
-2.15007e-09
3.02664e-09
-2.09759e-09
2.93439e-09
-2.05715e-09
2.81151e-09
-2.00336e-09
2.69873e-09
-1.54604e-09
2.58963e-09
-1.3076e-09
2.48715e-09
-1.12295e-09
2.39821e-09
-9.03238e-10
2.33214e-09
-6.95862e-10
2.29303e-09
-4.55956e-10
2.28419e-09
-2.05073e-10
2.29474e-09
-5.41091e-11
2.30447e-09
-5.09795e-11
2.31171e-09
-4.4946e-11
2.31474e-09
-3.22833e-11
2.31273e-09
-1.72441e-11
2.30574e-09
-2.974e-12
2.29451e-09
8.59888e-12
2.28016e-09
1.67241e-11
2.26383e-09
2.15977e-11
2.24643e-09
2.39904e-11
2.22844e-09
2.49303e-11
2.21e-09
2.54757e-11
2.19085e-09
2.65435e-11
2.17044e-09
2.88384e-11
2.14801e-09
3.28723e-11
2.12259e-09
3.90383e-11
2.09295e-09
4.7682e-11
2.05769e-09
5.92236e-11
2.01515e-09
7.42489e-11
1.96329e-09
9.364e-11
1.89951e-09
1.18833e-10
1.82023e-09
1.52365e-10
1.71999e-09
1.99021e-10
1.58981e-09
2.68289e-10
1.41426e-09
3.7874e-10
1.16847e-09
5.63883e-10
8.23356e-10
8.71414e-10
3.86557e-10
1.32193e-09
1.33732e-11
1.74471e-09
1.33289e-09
-1.33649e-10
-4.08173e-10
-2.16871e-10
-7.31276e-10
-2.14734e-10
-7.98364e-10
-1.58924e-10
-7.58947e-10
-7.28393e-11
-6.83705e-10
2.78627e-11
-6.01234e-10
1.32677e-10
-5.23977e-10
2.35651e-10
-4.56318e-10
3.3357e-10
-3.98352e-10
4.24828e-10
-3.48845e-10
5.08756e-10
-3.06388e-10
5.85225e-10
-2.69705e-10
6.54408e-10
-2.37723e-10
7.16626e-10
-2.0957e-10
7.72279e-10
-1.84552e-10
8.21786e-10
-1.62126e-10
8.65569e-10
-1.41882e-10
9.04038e-10
-1.23508e-10
9.37599e-10
-1.06786e-10
9.66673e-10
-9.15748e-11
9.91685e-10
-7.78159e-11
1.01308e-09
-6.55321e-11
1.03138e-09
-5.48133e-11
1.04717e-09
-4.58349e-11
1.06117e-09
-3.88756e-11
1.07422e-09
-3.43335e-11
1.08736e-09
-3.27483e-11
1.10185e-09
-3.4841e-11
1.1193e-09
-4.15866e-11
1.14174e-09
-5.42304e-11
1.16495e-09
-8.68032e-11
1.15878e-09
-1.98283e-10
1.11937e-09
-3.50559e-10
1.05967e-09
-5.14237e-10
9.92493e-10
-6.85999e-10
9.25686e-10
-8.88995e-10
8.60213e-10
-1.1119e-09
7.84645e-10
-1.33837e-09
7.12214e-10
-1.52552e-09
6.54857e-10
-1.68971e-09
6.11395e-10
-1.83497e-09
5.79918e-10
-1.95721e-09
5.59338e-10
-2.05336e-09
5.47922e-10
-2.12578e-09
5.42761e-10
-2.17387e-09
5.40149e-10
-2.1959e-09
5.36501e-10
-2.19311e-09
5.2765e-10
-2.16458e-09
5.11064e-10
-2.1096e-09
4.85359e-10
-2.03031e-09
4.50978e-10
-1.93126e-09
4.09868e-10
-1.81838e-09
3.64895e-10
-1.69177e-09
3.2236e-10
-1.5608e-09
2.88704e-10
-1.42757e-09
2.74175e-10
-1.29344e-09
2.89767e-10
-1.15716e-09
3.56079e-10
-1.00412e-09
4.97729e-10
-8.18301e-10
7.37025e-10
-5.82952e-10
1.0836e-09
-2.81284e-10
1.51446e-09
1.18005e-10
1.95812e-09
5.37548e-10
2.3585e-09
9.82936e-10
2.66721e-09
1.35673e-09
2.87676e-09
1.66158e-09
2.9993e-09
1.88195e-09
3.06023e-09
2.01417e-09
3.0848e-09
2.08919e-09
3.0906e-09
2.13198e-09
3.09088e-09
2.14982e-09
3.09301e-09
2.15226e-09
3.10006e-09
2.14493e-09
3.11303e-09
2.13081e-09
3.13114e-09
2.11178e-09
3.15387e-09
2.08619e-09
3.18042e-09
2.0533e-09
3.21045e-09
2.00476e-09
3.24351e-09
1.94862e-09
3.27886e-09
1.88e-09
3.31696e-09
1.78955e-09
3.35606e-09
1.65903e-09
3.39606e-09
1.5157e-09
3.43414e-09
1.30644e-09
3.46796e-09
1.06635e-09
3.49043e-09
7.23453e-10
3.49671e-09
3.55129e-10
3.47883e-09
-3.89278e-11
3.43453e-09
-4.4221e-10
3.36459e-09
-7.7635e-10
3.28017e-09
-1.02397e-09
3.19083e-09
-1.24002e-09
3.11046e-09
-1.39575e-09
3.04611e-09
-1.55837e-09
3.00125e-09
-1.69208e-09
2.97459e-09
-1.82237e-09
2.96018e-09
-1.94822e-09
2.9479e-09
-2.0381e-09
2.92881e-09
-2.0989e-09
2.89548e-09
-2.12431e-09
2.84467e-09
-2.1184e-09
2.77474e-09
-2.08693e-09
2.68912e-09
-2.03698e-09
2.59231e-09
-1.97918e-09
2.48865e-09
-1.91857e-09
2.38185e-09
-1.85856e-09
2.274e-09
-1.79927e-09
2.16609e-09
-1.7326e-09
2.05977e-09
-1.6587e-09
1.95478e-09
-1.57677e-09
1.85176e-09
-1.48067e-09
1.75436e-09
-1.3486e-09
1.662e-09
-1.21151e-09
1.58238e-09
-1.02207e-09
1.51943e-09
-8.24402e-10
1.48564e-09
-5.84884e-10
1.49861e-09
-3.25174e-10
1.57452e-09
-6.32962e-11
1.72726e-09
2.0698e-10
1.95306e-09
5.29629e-10
2.21298e-09
8.53164e-10
2.46285e-09
1.19589e-09
2.66475e-09
1.49802e-09
2.8036e-09
1.76503e-09
2.88148e-09
1.94343e-09
2.91299e-09
2.05634e-09
2.91829e-09
2.12645e-09
2.9118e-09
2.15857e-09
2.9041e-09
2.16741e-09
2.90204e-09
2.16253e-09
2.90776e-09
2.15058e-09
2.92133e-09
2.13308e-09
2.94195e-09
2.11057e-09
2.96884e-09
2.08053e-09
3.00213e-09
2.0412e-09
3.04063e-09
1.99565e-09
3.08464e-09
1.9376e-09
3.13411e-09
1.86618e-09
3.18842e-09
1.76508e-09
3.248e-09
1.65089e-09
3.31128e-09
1.51407e-09
3.37624e-09
1.31027e-09
3.4403e-09
1.09613e-09
3.49571e-09
7.89145e-10
3.53668e-09
4.45084e-10
3.55311e-09
7.08202e-11
3.53969e-09
-3.28844e-10
3.4951e-09
-6.87865e-10
3.43041e-09
-9.61872e-10
3.35735e-09
-1.18805e-09
3.29145e-09
-1.37617e-09
3.2423e-09
-1.53669e-09
3.21344e-09
-1.6804e-09
3.2027e-09
-1.82867e-09
3.2038e-09
-1.94556e-09
3.20687e-09
-2.04103e-09
3.20138e-09
-2.10456e-09
3.18149e-09
-2.13947e-09
3.14221e-09
-2.14159e-09
3.07218e-09
-2.08002e-09
2.97011e-09
-1.99556e-09
2.84251e-09
-1.9296e-09
2.69184e-09
-1.85276e-09
2.56659e-09
-1.42083e-09
2.45229e-09
-1.19331e-09
2.34793e-09
-1.01856e-09
2.25741e-09
-8.12696e-10
2.18702e-09
-6.25459e-10
2.13935e-09
-4.08282e-10
2.11659e-09
-1.82312e-10
2.10892e-09
-4.64407e-11
2.09935e-09
-4.14063e-11
2.08747e-09
-3.30621e-11
2.07318e-09
-1.8001e-11
2.05632e-09
-3.84999e-13
2.03696e-09
1.63931e-11
2.01542e-09
3.01369e-11
1.99223e-09
3.99162e-11
1.96793e-09
4.58949e-11
1.94294e-09
4.89827e-11
1.91741e-09
5.04589e-11
1.89122e-09
5.16601e-11
1.864e-09
5.37722e-11
1.83508e-09
5.77522e-11
1.8036e-09
6.43552e-11
1.76842e-09
7.42168e-11
1.72815e-09
8.79506e-11
1.68111e-09
1.06261e-10
1.6253e-09
1.30066e-10
1.55827e-09
1.60662e-10
1.47706e-09
2.00053e-10
1.37778e-09
2.51642e-10
1.25512e-09
3.21678e-10
1.10134e-09
4.22066e-10
9.05283e-10
5.74802e-10
6.53984e-10
8.15182e-10
3.46454e-10
1.17894e-09
3.75109e-11
1.63087e-09
-1.15024e-10
1.89725e-09
1.21786e-09
-1.01683e-10
-3.0649e-10
-2.02588e-10
-6.30371e-10
-2.51045e-10
-7.49906e-10
-2.53354e-10
-7.56638e-10
-2.24119e-10
-7.12941e-10
-1.73802e-10
-6.51551e-10
-1.10852e-10
-5.86927e-10
-4.18262e-11
-5.25344e-10
2.88951e-11
-4.69073e-10
9.85049e-11
-4.18455e-10
1.65263e-10
-3.73145e-10
2.28138e-10
-3.3258e-10
2.86566e-10
-2.96151e-10
3.40287e-10
-2.63291e-10
3.89241e-10
-2.33506e-10
4.33492e-10
-2.06378e-10
4.7319e-10
-1.81579e-10
5.08538e-10
-1.58856e-10
5.39787e-10
-1.38036e-10
5.67236e-10
-1.19024e-10
5.91231e-10
-1.01811e-10
6.12174e-10
-8.64753e-11
6.30551e-10
-7.31898e-11
6.46949e-10
-6.22328e-11
6.62083e-10
-5.40096e-11
6.76823e-10
-4.90739e-11
6.92232e-10
-4.81575e-11
7.09606e-10
-5.22144e-11
7.3052e-10
-6.25005e-11
7.5686e-10
-8.05703e-11
7.86332e-10
-1.16275e-10
7.98182e-10
-2.10134e-10
7.89249e-10
-3.41626e-10
7.67927e-10
-4.92915e-10
7.4212e-10
-6.60192e-10
7.14903e-10
-8.61777e-10
6.85726e-10
-1.08272e-09
6.47187e-10
-1.29983e-09
6.09289e-10
-1.48762e-09
5.79854e-10
-1.66027e-09
5.58362e-10
-1.81348e-09
5.43883e-10
-1.94273e-09
5.36121e-10
-2.0456e-09
5.3363e-10
-2.12329e-09
5.33633e-10
-2.17387e-09
5.32857e-10
-2.19513e-09
5.28184e-10
-2.18844e-09
5.16065e-10
-2.15246e-09
4.94835e-10
-2.08837e-09
4.64136e-10
-1.99961e-09
4.24996e-10
-1.89212e-09
3.79393e-10
-1.77278e-09
3.30313e-10
-1.6427e-09
2.82092e-10
-1.51258e-09
2.3898e-10
-1.38446e-09
2.0694e-10
-1.26139e-09
1.92496e-10
-1.14272e-09
2.08413e-10
-1.02004e-09
2.72467e-10
-8.82355e-10
4.06739e-10
-7.17226e-10
6.34063e-10
-5.08609e-10
9.70401e-10
-2.18333e-10
1.38601e-09
1.2194e-10
1.83766e-09
5.31298e-10
2.26114e-09
9.33249e-10
2.61567e-09
1.30704e-09
2.87653e-09
1.62108e-09
3.04378e-09
1.84691e-09
3.14149e-09
1.99149e-09
3.19621e-09
2.07728e-09
3.22477e-09
2.12127e-09
3.23827e-09
2.13876e-09
3.24557e-09
2.13763e-09
3.25435e-09
2.12202e-09
3.26629e-09
2.09983e-09
3.28269e-09
2.06977e-09
3.30331e-09
2.03268e-09
3.32776e-09
1.98031e-09
3.35559e-09
1.92079e-09
3.3858e-09
1.84979e-09
3.41853e-09
1.75683e-09
3.45121e-09
1.62635e-09
3.48353e-09
1.48338e-09
3.51155e-09
1.27843e-09
3.53244e-09
1.04546e-09
3.53784e-09
7.18049e-10
3.52359e-09
3.69381e-10
3.4834e-09
1.26226e-12
3.41835e-09
-3.77161e-10
3.33376e-09
-6.91765e-10
3.24418e-09
-9.34381e-10
3.16014e-09
-1.15598e-09
3.09408e-09
-1.32969e-09
3.04748e-09
-1.51177e-09
3.02053e-09
-1.66514e-09
3.00631e-09
-1.80816e-09
2.99379e-09
-1.9357e-09
2.97277e-09
-2.01709e-09
2.93486e-09
-2.06098e-09
2.87639e-09
-2.06583e-09
2.79739e-09
-2.03939e-09
2.70179e-09
-1.99131e-09
2.59599e-09
-1.93117e-09
2.48519e-09
-1.86839e-09
2.37334e-09
-1.80673e-09
2.26293e-09
-1.74818e-09
2.15492e-09
-1.69128e-09
2.04922e-09
-1.62692e-09
1.94626e-09
-1.55574e-09
1.84493e-09
-1.47542e-09
1.74505e-09
-1.38077e-09
1.64903e-09
-1.25257e-09
1.5555e-09
-1.11798e-09
1.47013e-09
-9.36708e-10
1.39535e-09
-7.49625e-10
1.34055e-09
-5.30079e-10
1.31928e-09
-3.03906e-10
1.34499e-09
-8.90057e-11
1.43578e-09
1.16185e-10
1.6074e-09
3.5801e-10
1.84743e-09
6.13128e-10
2.12711e-09
9.16211e-10
2.40406e-09
1.22108e-09
2.64241e-09
1.52669e-09
2.81848e-09
1.76736e-09
2.92764e-09
1.94719e-09
2.99042e-09
2.06366e-09
3.02363e-09
2.12537e-09
3.03826e-09
2.15277e-09
3.04381e-09
2.15698e-09
3.04959e-09
2.1448e-09
3.05979e-09
2.12288e-09
3.07568e-09
2.09468e-09
3.09772e-09
2.05849e-09
3.12631e-09
2.0126e-09
3.16026e-09
1.96171e-09
3.19974e-09
1.89811e-09
3.24446e-09
1.82147e-09
3.29312e-09
1.71642e-09
3.34593e-09
1.59808e-09
3.40068e-09
1.45932e-09
3.45395e-09
1.25701e-09
3.50286e-09
1.04721e-09
3.53843e-09
7.53576e-10
3.5555e-09
4.28013e-10
3.54568e-09
8.06479e-11
3.50785e-09
-2.91018e-10
3.44655e-09
-6.2656e-10
3.37735e-09
-8.92679e-10
3.31384e-09
-1.12454e-09
3.26901e-09
-1.33135e-09
3.24456e-09
-1.51225e-09
3.24037e-09
-1.67622e-09
3.24727e-09
-1.83557e-09
3.25342e-09
-1.95173e-09
3.24811e-09
-2.03571e-09
3.22295e-09
-2.07937e-09
3.17416e-09
-2.09064e-09
3.0998e-09
-2.06718e-09
2.9955e-09
-1.97569e-09
2.86425e-09
-1.8643e-09
2.7153e-09
-1.78067e-09
2.55424e-09
-1.69176e-09
2.42759e-09
-1.29423e-09
2.31592e-09
-1.08167e-09
2.21523e-09
-9.17873e-10
2.12775e-09
-7.25202e-10
2.05816e-09
-5.55852e-10
2.00812e-09
-3.58233e-10
1.97857e-09
-1.52762e-10
1.96012e-09
-2.79965e-11
1.93831e-09
-1.95889e-11
1.9136e-09
-8.35433e-12
1.88702e-09
8.57868e-12
1.85908e-09
2.75536e-11
1.83008e-09
4.53907e-11
1.80025e-09
5.99698e-11
1.76977e-09
7.03906e-11
1.7388e-09
7.68662e-11
1.70737e-09
8.04097e-11
1.67539e-09
8.24484e-11
1.64255e-09
8.44921e-11
1.60841e-09
8.79205e-11
1.57225e-09
9.39105e-11
1.53313e-09
1.03467e-10
1.48984e-09
1.17508e-10
1.44083e-09
1.36965e-10
1.3842e-09
1.62894e-10
1.31766e-09
1.96598e-10
1.23851e-09
2.39819e-10
1.14346e-09
2.95096e-10
1.02859e-09
3.66514e-10
8.89066e-10
4.61203e-10
7.19147e-10
5.91986e-10
5.13311e-10
7.80637e-10
2.71861e-10
1.05663e-09
1.75406e-11
1.43326e-09
-1.69865e-10
1.81828e-09
-1.60642e-10
1.88802e-09
1.05722e-09
-7.27048e-11
-2.33785e-10
-1.65719e-10
-5.37356e-10
-2.31999e-10
-6.83627e-10
-2.64001e-10
-7.24635e-10
-2.67116e-10
-7.09826e-10
-2.49321e-10
-6.69347e-10
-2.17096e-10
-6.19151e-10
-1.75514e-10
-5.66926e-10
-1.28738e-10
-5.15848e-10
-7.97574e-11
-4.67435e-10
-3.06524e-11
-4.2225e-10
1.71594e-11
-3.80392e-10
6.27453e-11
-3.41737e-10
1.05519e-10
-3.06065e-10
1.45143e-10
-2.73129e-10
1.81439e-10
-2.42674e-10
2.14375e-10
-2.14515e-10
2.44002e-10
-1.88483e-10
2.70454e-10
-1.64487e-10
2.93937e-10
-1.42506e-10
3.14731e-10
-1.22605e-10
3.33198e-10
-1.04942e-10
3.49796e-10
-8.97882e-11
3.65101e-10
-7.75373e-11
3.79824e-10
-6.8733e-11
3.94841e-10
-6.40904e-11
4.11212e-10
-6.45284e-11
4.30209e-10
-7.12116e-11
4.53323e-10
-8.5614e-11
4.82249e-10
-1.09497e-10
5.15857e-10
-1.49883e-10
5.40296e-10
-2.34573e-10
5.53023e-10
-3.54354e-10
5.58925e-10
-4.98817e-10
5.62196e-10
-6.63463e-10
5.62928e-10
-8.62509e-10
5.59745e-10
-1.07954e-09
5.47673e-10
-1.28776e-09
5.34135e-10
-1.47408e-09
5.24647e-10
-1.65079e-09
5.19418e-10
-1.80825e-09
5.17991e-10
-1.9413e-09
5.20319e-10
-2.04792e-09
5.24889e-10
-2.12786e-09
5.28827e-10
-2.17781e-09
5.29125e-10
-2.19543e-09
5.2303e-10
-2.18235e-09
5.07931e-10
-2.13736e-09
4.83012e-10
-2.06345e-09
4.48743e-10
-1.96534e-09
4.06601e-10
-1.84998e-09
3.58664e-10
-1.72484e-09
3.07801e-10
-1.59183e-09
2.57146e-10
-1.46192e-09
2.09629e-10
-1.33694e-09
1.68804e-10
-1.22057e-09
1.3851e-10
-1.11242e-09
1.26224e-10
-1.00775e-09
1.4303e-10
-8.99161e-10
2.04584e-10
-7.78781e-10
3.31078e-10
-6.35103e-10
5.48707e-10
-4.3596e-10
8.6074e-10
-1.9009e-10
1.25838e-09
1.33663e-10
1.69636e-09
4.9526e-10
2.12814e-09
8.75251e-10
2.51147e-09
1.23775e-09
2.81492e-09
1.54348e-09
3.02906e-09
1.77736e-09
3.16564e-09
1.94071e-09
3.24912e-09
2.03779e-09
3.30141e-09
2.08646e-09
3.33421e-09
2.10481e-09
3.35586e-09
2.10037e-09
3.37192e-09
2.08375e-09
3.38799e-09
2.05371e-09
3.4057e-09
2.01498e-09
3.42562e-09
1.96039e-09
3.44804e-09
1.89838e-09
3.47213e-09
1.82571e-09
3.49785e-09
1.73112e-09
3.52198e-09
1.60222e-09
3.54412e-09
1.46124e-09
3.55947e-09
1.26307e-09
3.56524e-09
1.03969e-09
3.55273e-09
7.30556e-10
3.51941e-09
4.027e-10
3.46163e-09
5.90439e-11
3.3839e-09
-2.99433e-10
3.29498e-09
-6.02849e-10
3.21075e-09
-8.50143e-10
3.14069e-09
-1.08592e-09
3.09234e-09
-1.28134e-09
3.0625e-09
-1.48193e-09
3.04734e-09
-1.64998e-09
3.03434e-09
-1.79516e-09
3.01222e-09
-1.91359e-09
2.97077e-09
-1.97565e-09
2.90585e-09
-1.99605e-09
2.81906e-09
-1.97904e-09
2.71458e-09
-1.93489e-09
2.5998e-09
-1.87652e-09
2.4813e-09
-1.81266e-09
2.36401e-09
-1.75108e-09
2.25066e-09
-1.69339e-09
2.14219e-09
-1.63973e-09
2.0382e-09
-1.58732e-09
1.93757e-09
-1.5263e-09
1.83978e-09
-1.45796e-09
1.74315e-09
-1.37879e-09
1.64695e-09
-1.28455e-09
1.55273e-09
-1.15834e-09
1.45888e-09
-1.02413e-09
1.37012e-09
-8.47939e-10
1.28831e-09
-6.67814e-10
1.22093e-09
-4.62706e-10
1.17794e-09
-2.60918e-10
1.16842e-09
-7.94857e-11
1.20663e-09
7.79772e-11
1.31214e-09
2.52502e-10
1.49063e-09
4.34637e-10
1.7369e-09
6.69941e-10
2.02318e-09
9.348e-10
2.31538e-09
1.23449e-09
2.57773e-09
1.50501e-09
2.78429e-09
1.74064e-09
2.92788e-09
1.92007e-09
3.01814e-09
2.0351e-09
3.07468e-09
2.09624e-09
3.11105e-09
2.12061e-09
3.13525e-09
2.1206e-09
3.1543e-09
2.10384e-09
3.17283e-09
2.07615e-09
3.19437e-09
2.03696e-09
3.22041e-09
1.98656e-09
3.25042e-09
1.9317e-09
3.28497e-09
1.86356e-09
3.32364e-09
1.78279e-09
3.36463e-09
1.67543e-09
3.408e-09
1.55471e-09
3.45118e-09
1.41614e-09
3.48977e-09
1.21842e-09
3.52122e-09
1.01576e-09
3.53619e-09
7.38606e-10
3.5316e-09
4.32605e-10
3.50245e-09
1.09794e-10
3.45197e-09
-2.40537e-10
3.38905e-09
-5.63638e-10
3.33119e-09
-8.34811e-10
3.29017e-09
-1.08353e-09
3.27074e-09
-1.31191e-09
3.27038e-09
-1.51191e-09
3.28289e-09
-1.68874e-09
3.29203e-09
-1.84473e-09
3.28667e-09
-1.94639e-09
3.25724e-09
-2.00628e-09
3.19976e-09
-2.02188e-09
3.11481e-09
-2.00565e-09
3.00716e-09
-1.95948e-09
2.87659e-09
-1.84508e-09
2.72816e-09
-1.71584e-09
2.57121e-09
-1.62372e-09
2.41164e-09
-1.53221e-09
2.29061e-09
-1.17324e-09
2.18571e-09
-9.76806e-10
2.09136e-09
-8.23538e-10
2.00917e-09
-6.43004e-10
1.94309e-09
-4.89766e-10
1.89444e-09
-3.09577e-10
1.86347e-09
-1.21789e-10
1.84112e-09
-5.64616e-12
1.81439e-09
7.13978e-12
1.78414e-09
2.18972e-11
1.75167e-09
4.10445e-11
1.71786e-09
6.13702e-11
1.68319e-09
8.00549e-11
1.64794e-09
9.52228e-11
1.6122e-09
1.0613e-10
1.57597e-09
1.13093e-10
1.53917e-09
1.17208e-10
1.50163e-09
1.19993e-10
1.46305e-09
1.23076e-10
1.42297e-09
1.28e-10
1.38071e-09
1.36164e-10
1.33533e-09
1.48849e-10
1.28554e-09
1.67297e-10
1.2297e-09
1.92807e-10
1.16577e-09
2.26824e-10
1.0913e-09
2.71072e-10
1.00338e-09
3.27732e-10
8.98674e-10
3.99804e-10
7.73389e-10
4.91799e-10
6.23569e-10
6.11024e-10