/*--------------------------------*- C++ -*----------------------------------*\
| =========                 |                                                 |
| \\      /  F ield         | OpenFOAM: The Open Source CFD Toolbox           |
|  \\    /   O peration     | Version:  2506                                  |
|   \\  /    A nd           | Website:  www.openfoam.com                      |
|    \\/     M anipulation  |                                                 |
\*---------------------------------------------------------------------------*/
FoamFile
{
    version     2.0;
    format      ascii;
    arch        "LSB;label=32;scalar=64";
    class       volScalarField;
    location    "1.7";
    object      p;
}
// * * * * * * * * * * * * * * * * * * * * * * * * * * * * * * * * * * * * * //

dimensions      [0 2 -2 0 0 0 0];

internalField   nonuniform List<scalar> 
4000
(
-0.00310943
-0.00317021
-0.00319518
-0.00319838
-0.00319427
-0.00318593
-0.0031745
-0.00316124
-0.003147
-0.00313217
-0.00311698
-0.00310154
-0.00308593
-0.00307021
-0.00305441
-0.00303855
-0.00302265
-0.00300672
-0.00299076
-0.00297477
-0.00295875
-0.00294269
-0.00292659
-0.00291045
-0.00289428
-0.00287807
-0.00286185
-0.00284561
-0.00282939
-0.00281321
-0.00279713
-0.00278119
-0.0027655
-0.00275036
-0.00273566
-0.0027215
-0.00270811
-0.00269539
-0.00268326
-0.00267193
-0.00266159
-0.0026537
-0.0026483
-0.00264432
-0.00264154
-0.00263957
-0.00263816
-0.00263738
-0.00263632
-0.00263511
-0.00263338
-0.00263046
-0.00262658
-0.00262052
-0.00261276
-0.00260211
-0.00258881
-0.00257272
-0.00255306
-0.00253123
-0.00250572
-0.00247806
-0.00244819
-0.00241641
-0.00238352
-0.00234938
-0.00231489
-0.00227988
-0.00224499
-0.00221022
-0.00217589
-0.00214219
-0.00210913
-0.00207693
-0.00204562
-0.0020153
-0.00198609
-0.00195801
-0.00193114
-0.00190551
-0.00188112
-0.00185797
-0.00183603
-0.00181527
-0.00179563
-0.00177705
-0.00175945
-0.00174278
-0.00172698
-0.00171197
-0.00169772
-0.00168416
-0.00167125
-0.00165895
-0.00164721
-0.001636
-0.00162525
-0.00161493
-0.00160499
-0.0015954
-0.00158606
-0.00157694
-0.00156794
-0.001559
-0.00155011
-0.00154118
-0.00153218
-0.00152305
-0.00151376
-0.00150427
-0.00149458
-0.00148469
-0.00147459
-0.00146434
-0.00145393
-0.00144346
-0.00143296
-0.00142249
-0.00141215
-0.00140199
-0.00139208
-0.00138253
-0.00137338
-0.00136465
-0.00135643
-0.00134872
-0.00134153
-0.00133485
-0.00132864
-0.00132285
-0.00131751
-0.0013124
-0.00130746
-0.00130277
-0.00129794
-0.00129286
-0.00128781
-0.00128188
-0.00127551
-0.00126809
-0.00125951
-0.00124941
-0.00123741
-0.00122311
-0.00120667
-0.00118699
-0.00116524
-0.00114003
-0.00111246
-0.00108266
-0.00105067
-0.00101759
-0.000983098
-0.000948349
-0.000913251
-0.000878579
-0.000844353
-0.000811072
-0.000778908
-0.000748493
-0.000720852
-0.000695259
-0.000670924
-0.000647689
-0.000625491
-0.000604186
-0.000583526
-0.000563821
-0.00054517
-0.000527431
-0.000510437
-0.000493957
-0.000477751
-0.000461612
-0.000445378
-0.000428927
-0.000412182
-0.000395118
-0.000377751
-0.000360121
-0.000342287
-0.000324318
-0.000306285
-0.000288253
-0.00027028
-0.000252406
-0.000234658
-0.000217051
-0.00019956
-0.000182177
-0.000164873
-0.000147636
-0.000130436
-0.000113242
-9.60271e-05
-7.87668e-05
-6.14428e-05
-4.40439e-05
-2.65666e-05
-8.95557e-06
-0.00318374
-0.00319522
-0.00320078
-0.00319825
-0.00319173
-0.00318301
-0.00317208
-0.00315951
-0.00314586
-0.00313149
-0.00311664
-0.00310146
-0.00308605
-0.00307048
-0.00305481
-0.00303905
-0.00302323
-0.00300737
-0.00299147
-0.00297554
-0.00295956
-0.00294354
-0.00292748
-0.00291138
-0.00289523
-0.00287904
-0.00286282
-0.00284657
-0.00283033
-0.00281411
-0.00279795
-0.0027819
-0.00276602
-0.00275067
-0.00273545
-0.00272041
-0.00270626
-0.00269306
-0.00268077
-0.0026697
-0.00266009
-0.00265312
-0.00264837
-0.00264476
-0.00264217
-0.00264026
-0.0026388
-0.00263777
-0.00263637
-0.0026347
-0.00263242
-0.00262894
-0.00262448
-0.00261786
-0.00260966
-0.0025989
-0.00258575
-0.00257016
-0.00255133
-0.00253069
-0.00250671
-0.00248078
-0.00245279
-0.00242292
-0.00239194
-0.00235961
-0.00232683
-0.00229339
-0.00225989
-0.00222635
-0.00219297
-0.00216
-0.00212747
-0.00209563
-0.00206453
-0.00203425
-0.00200494
-0.00197665
-0.00194944
-0.00192337
-0.00189848
-0.00187473
-0.00185214
-0.00183068
-0.00181033
-0.00179104
-0.00177273
-0.00175535
-0.00173883
-0.00172312
-0.00170811
-0.00169381
-0.00168013
-0.00166705
-0.00165452
-0.00164248
-0.00163092
-0.00161976
-0.00160897
-0.00159848
-0.00158827
-0.00157828
-0.00156845
-0.00155874
-0.00154905
-0.00153936
-0.0015296
-0.00151976
-0.0015098
-0.0014997
-0.00148946
-0.00147909
-0.00146859
-0.00145802
-0.00144738
-0.00143677
-0.00142622
-0.0014158
-0.00140559
-0.00139565
-0.00138603
-0.00137683
-0.00136806
-0.00135976
-0.00135198
-0.0013447
-0.00133792
-0.00133161
-0.00132573
-0.00132021
-0.00131504
-0.00131004
-0.00130513
-0.00130038
-0.00129539
-0.00129012
-0.00128473
-0.00127842
-0.00127158
-0.00126362
-0.0012544
-0.00124368
-0.00123125
-0.00121663
-0.00120003
-0.0011805
-0.00115916
-0.0011347
-0.00110817
-0.00107966
-0.00104904
-0.00101752
-0.000984511
-0.000951316
-0.000917583
-0.000884228
-0.000851113
-0.000818845
-0.000787502
-0.000757639
-0.00072861
-0.000701724
-0.000675825
-0.000651061
-0.000627387
-0.000604901
-0.000583341
-0.000563244
-0.000544395
-0.000526493
-0.000509388
-0.000492839
-0.00047659
-0.000460426
-0.000444183
-0.000427745
-0.000411043
-0.000394038
-0.000376727
-0.000359143
-0.000341342
-0.000323393
-0.000305371
-0.000287346
-0.000269376
-0.000251506
-0.000233763
-0.000216155
-0.000198695
-0.000181362
-0.000164132
-0.000146969
-0.000129845
-0.000112729
-9.55947e-05
-7.8416e-05
-6.11738e-05
-4.38555e-05
-2.64549e-05
-8.92248e-06
-0.00321669
-0.00320621
-0.003202
-0.00319726
-0.00318975
-0.00318048
-0.00316952
-0.00315741
-0.00314427
-0.00313033
-0.00311587
-0.00310102
-0.00308587
-0.00307051
-0.003055
-0.00303938
-0.00302367
-0.0030079
-0.00299208
-0.00297621
-0.00296029
-0.00294432
-0.0029283
-0.00291224
-0.00289612
-0.00287995
-0.00286373
-0.00284748
-0.00283121
-0.00281495
-0.00279871
-0.00278254
-0.00276648
-0.00275089
-0.00273526
-0.00271962
-0.00270515
-0.00269184
-0.00267966
-0.002669
-0.00266007
-0.00265376
-0.00264927
-0.00264564
-0.00264285
-0.00264061
-0.00263868
-0.00263698
-0.00263483
-0.0026323
-0.00262909
-0.00262471
-0.00261923
-0.00261184
-0.00260303
-0.00259195
-0.00257882
-0.00256364
-0.00254569
-0.00252624
-0.00250387
-0.00247976
-0.00245374
-0.00242583
-0.00239681
-0.00236623
-0.00233509
-0.00230304
-0.00227076
-0.00223824
-0.00220569
-0.00217345
-0.00214144
-0.00210997
-0.00207909
-0.00204887
-0.00201948
-0.00199097
-0.00196342
-0.0019369
-0.00191148
-0.00188718
-0.00186402
-0.00184197
-0.00182102
-0.00180112
-0.00178222
-0.00176425
-0.00174716
-0.00173088
-0.00171536
-0.00170054
-0.00168634
-0.00167272
-0.00165964
-0.00164704
-0.00163491
-0.00162317
-0.0016118
-0.00160072
-0.00158992
-0.00157931
-0.00156886
-0.00155852
-0.00154822
-0.00153795
-0.00152763
-0.00151726
-0.00150681
-0.00149626
-0.00148562
-0.0014749
-0.00146412
-0.00145334
-0.00144255
-0.00143188
-0.00142133
-0.00141098
-0.00140091
-0.00139116
-0.00138179
-0.00137286
-0.00136438
-0.00135637
-0.00134887
-0.00134183
-0.00133526
-0.0013291
-0.0013233
-0.00131779
-0.00131255
-0.00130739
-0.00130225
-0.00129714
-0.00129172
-0.00128595
-0.00127994
-0.00127298
-0.00126537
-0.00125665
-0.00124669
-0.00123532
-0.00122228
-0.00120727
-0.00119053
-0.00117125
-0.00115044
-0.00112695
-0.00110165
-0.00107466
-0.00104564
-0.00101584
-0.000984398
-0.000952758
-0.000920296
-0.000888141
-0.00085593
-0.000824436
-0.000793525
-0.000764089
-0.000734138
-0.000706504
-0.000679707
-0.000653851
-0.000629033
-0.000605637
-0.000583399
-0.000563023
-0.000543996
-0.000525929
-0.00050872
-0.000492127
-0.000475868
-0.000459714
-0.000443493
-0.00042708
-0.000410393
-0.000393393
-0.000376079
-0.000358484
-0.000340665
-0.000322696
-0.000304654
-0.000286612
-0.000268631
-0.000250758
-0.000233023
-0.000215439
-0.000198003
-0.000180699
-0.000163504
-0.000146389
-0.000129321
-0.00011227
-9.5205e-05
-7.80991e-05
-6.09315e-05
-4.36884e-05
-2.63615e-05
-8.92356e-06
-0.00323168
-0.00321519
-0.00320423
-0.00319714
-0.00318896
-0.00317874
-0.00316733
-0.00315542
-0.00314249
-0.0031288
-0.00311471
-0.00310022
-0.00308538
-0.00307029
-0.00305502
-0.0030396
-0.00302405
-0.00300842
-0.00299271
-0.00297694
-0.0029611
-0.00294521
-0.00292927
-0.00291326
-0.00289719
-0.00288106
-0.00286488
-0.00284866
-0.00283239
-0.00281611
-0.00279984
-0.0027836
-0.00276743
-0.00275166
-0.00273579
-0.00271993
-0.00270531
-0.00269205
-0.00268009
-0.00266978
-0.00266127
-0.00265516
-0.00265052
-0.00264653
-0.0026432
-0.00264029
-0.00263752
-0.00263482
-0.00263159
-0.00262787
-0.00262337
-0.00261766
-0.00261086
-0.00260244
-0.00259273
-0.00258105
-0.00256768
-0.00255267
-0.00253545
-0.002517
-0.00249619
-0.00247392
-0.00244997
-0.00242426
-0.00239743
-0.00236897
-0.00233981
-0.00230953
-0.00227882
-0.00224764
-0.00221622
-0.00218492
-0.00215364
-0.00212272
-0.00209225
-0.00206227
-0.00203297
-0.00200444
-0.00197674
-0.00194997
-0.00192422
-0.00189949
-0.00187585
-0.00185328
-0.00183178
-0.00181134
-0.00179189
-0.00177338
-0.00175576
-0.00173895
-0.00172287
-0.00170749
-0.00169275
-0.00167856
-0.00166493
-0.00165174
-0.00163902
-0.00162667
-0.0016147
-0.001603
-0.00159158
-0.00158036
-0.0015693
-0.00155836
-0.00154748
-0.00153665
-0.0015258
-0.00151494
-0.00150403
-0.00149308
-0.00148209
-0.00147109
-0.00146009
-0.00144917
-0.00143831
-0.00142764
-0.00141716
-0.00140693
-0.00139705
-0.00138751
-0.00137838
-0.00136969
-0.00136144
-0.00135364
-0.0013463
-0.00133937
-0.00133282
-0.00132662
-0.00132067
-0.00131493
-0.00130934
-0.00130374
-0.00129806
-0.00129226
-0.00128609
-0.00127952
-0.00127259
-0.00126466
-0.00125601
-0.00124629
-0.00123539
-0.00122319
-0.00120953
-0.00119412
-0.00117726
-0.00115834
-0.00113814
-0.00111579
-0.00109191
-0.00106661
-0.00103946
-0.00101159
-0.000981986
-0.000952101
-0.000921141
-0.000890323
-0.000859145
-0.000828489
-0.000797982
-0.000768966
-0.000738396
-0.000710226
-0.000682806
-0.000656142
-0.000630489
-0.000606498
-0.000583866
-0.000563333
-0.000544169
-0.000525947
-0.000508619
-0.000491951
-0.000475638
-0.000459441
-0.000443183
-0.000426735
-0.000410012
-0.000392973
-0.000375618
-0.000357982
-0.000340124
-0.000322117
-0.000304043
-0.000285976
-0.000267979
-0.000250099
-0.000232367
-0.000214794
-0.000197376
-0.000180099
-0.000162939
-0.000145866
-0.000128848
-0.000111852
-9.48465e-05
-7.78049e-05
-6.07049e-05
-4.35329e-05
-2.62734e-05
-8.94718e-06
-0.00324115
-0.00322277
-0.00320827
-0.00319857
-0.00318871
-0.0031775
-0.00316574
-0.0031537
-0.00314081
-0.00312729
-0.00311354
-0.00309933
-0.00308473
-0.00306992
-0.00305493
-0.00303974
-0.0030244
-0.00300894
-0.00299339
-0.00297776
-0.00296204
-0.00294626
-0.00293041
-0.0029145
-0.00289852
-0.00288247
-0.00286636
-0.0028502
-0.00283399
-0.00281775
-0.0028015
-0.00278528
-0.0027691
-0.00275324
-0.0027373
-0.00272142
-0.00270682
-0.00269367
-0.0026819
-0.00267182
-0.00266347
-0.00265724
-0.00265219
-0.00264764
-0.00264356
-0.00263974
-0.00263589
-0.00263197
-0.00262747
-0.00262232
-0.00261626
-0.00260899
-0.00260071
-0.00259103
-0.00258004
-0.00256768
-0.00255382
-0.00253865
-0.00252184
-0.002504
-0.00248446
-0.00246376
-0.00244172
-0.00241818
-0.00239358
-0.00236746
-0.00234054
-0.0023124
-0.00228363
-0.00225419
-0.00222426
-0.00219424
-0.00216399
-0.00213389
-0.00210404
-0.0020745
-0.00204547
-0.00201706
-0.00198934
-0.00196243
-0.00193642
-0.00191136
-0.0018873
-0.00186427
-0.00184227
-0.00182131
-0.00180135
-0.00178231
-0.00176418
-0.00174688
-0.0017303
-0.00171442
-0.00169916
-0.00168445
-0.00167028
-0.00165654
-0.00164325
-0.0016303
-0.00161773
-0.00160542
-0.00159339
-0.00158155
-0.0015699
-0.00155837
-0.00154692
-0.00153555
-0.0015242
-0.00151288
-0.00150157
-0.00149027
-0.001479
-0.00146779
-0.00145665
-0.00144566
-0.00143481
-0.00142421
-0.00141385
-0.0014038
-0.00139411
-0.00138479
-0.00137586
-0.00136736
-0.00135926
-0.00135156
-0.00134424
-0.00133725
-0.00133054
-0.00132408
-0.00131777
-0.00131154
-0.00130535
-0.00129906
-0.00129256
-0.00128582
-0.0012787
-0.00127105
-0.00126287
-0.0012538
-0.00124395
-0.0012331
-0.00122114
-0.00120801
-0.00119354
-0.00117785
-0.00116084
-0.00114223
-0.00112258
-0.00110133
-0.00107884
-0.00105523
-0.00103006
-0.0010042
-0.000976706
-0.000948801
-0.000919684
-0.000890467
-0.000860606
-0.00083099
-0.000801034
-0.000772471
-0.000741577
-0.00071311
-0.000685381
-0.000658264
-0.000632124
-0.00060783
-0.000585032
-0.000564428
-0.000545154
-0.000526766
-0.000509271
-0.000492452
-0.000476001
-0.00045967
-0.000443288
-0.000426726
-0.0004099
-0.000392768
-0.000375332
-0.000357627
-0.000339713
-0.000321661
-0.000303555
-0.000285468
-0.000267461
-0.000249578
-0.000231848
-0.000214282
-0.000196877
-0.000179616
-0.000162475
-0.000145426
-0.000128437
-0.000111475
-9.45116e-05
-7.75195e-05
-6.04761e-05
-4.33685e-05
-2.61708e-05
-8.9697e-06
-0.00324753
-0.00322812
-0.00321195
-0.00320038
-0.00318921
-0.00317721
-0.00316486
-0.00315234
-0.00313942
-0.00312613
-0.00311256
-0.00309854
-0.00308415
-0.00306961
-0.00305488
-0.0030399
-0.00302476
-0.00300951
-0.00299414
-0.00297866
-0.00296309
-0.00294744
-0.00293172
-0.00291592
-0.00290006
-0.00288413
-0.00286813
-0.00285207
-0.00283597
-0.00281983
-0.00280367
-0.00278753
-0.00277143
-0.00275559
-0.0027397
-0.00272396
-0.00270945
-0.00269641
-0.00268478
-0.00267478
-0.00266639
-0.00265983
-0.00265423
-0.00264898
-0.00264403
-0.00263916
-0.00263413
-0.00262883
-0.0026229
-0.0026162
-0.00260852
-0.00259975
-0.00258996
-0.00257894
-0.00256678
-0.00255346
-0.00253893
-0.0025234
-0.0025067
-0.00248911
-0.00247038
-0.00245086
-0.00243031
-0.0024086
-0.00238595
-0.00236203
-0.00233726
-0.00231135
-0.00228469
-0.00225724
-0.0022291
-0.00220065
-0.00217177
-0.00214281
-0.00211389
-0.00208507
-0.00205657
-0.00202851
-0.00200098
-0.0019741
-0.001948
-0.00192274
-0.00189838
-0.00187499
-0.00185257
-0.00183115
-0.00181071
-0.00179119
-0.00177258
-0.0017548
-0.00173775
-0.0017214
-0.00170567
-0.00169046
-0.00167578
-0.0016615
-0.00164766
-0.00163414
-0.00162098
-0.00160806
-0.00159544
-0.001583
-0.00157077
-0.00155868
-0.00154669
-0.00153484
-0.00152303
-0.00151132
-0.00149967
-0.00148811
-0.00147664
-0.00146531
-0.00145412
-0.00144314
-0.00143236
-0.00142188
-0.00141168
-0.0014018
-0.0013923
-0.00138314
-0.00137436
-0.00136595
-0.00135788
-0.00135013
-0.00134266
-0.00133544
-0.00132839
-0.00132146
-0.00131457
-0.00130767
-0.00130067
-0.00129349
-0.00128596
-0.00127819
-0.00126992
-0.00126104
-0.0012515
-0.00124123
-0.00123017
-0.00121818
-0.00120518
-0.00119116
-0.00117606
-0.00115993
-0.00114276
-0.00112437
-0.00110516
-0.00108487
-0.00106361
-0.00104149
-0.00101818
-0.000994209
-0.000968831
-0.000942941
-0.000915846
-0.000888403
-0.000860108
-0.000831743
-0.000802573
-0.000774582
-0.000743835
-0.000715326
-0.000687591
-0.000660395
-0.00063412
-0.000609785
-0.000587001
-0.000566393
-0.000547024
-0.000528452
-0.000510735
-0.000493684
-0.000476997
-0.000460436
-0.000443834
-0.000427073
-0.000410069
-0.000392786
-0.000375226
-0.000357428
-0.000339443
-0.000321343
-0.000303213
-0.000285116
-0.000267107
-0.000249227
-0.000231503
-0.000213943
-0.000196541
-0.00017928
-0.000162139
-0.000145089
-0.000128103
-0.000111152
-9.42078e-05
-7.72461e-05
-6.02448e-05
-4.31924e-05
-2.6052e-05
-8.97699e-06
-0.00325176
-0.00323198
-0.00321478
-0.00320202
-0.00318995
-0.00317732
-0.0031645
-0.00315167
-0.00313866
-0.00312537
-0.0031118
-0.00309793
-0.0030838
-0.00306947
-0.00305495
-0.00304014
-0.00302517
-0.00301014
-0.00299496
-0.00297964
-0.00296422
-0.00294873
-0.00293315
-0.0029175
-0.00290178
-0.00288599
-0.00287014
-0.00285423
-0.00283827
-0.00282228
-0.00280627
-0.00279027
-0.00277432
-0.00275858
-0.00274284
-0.00272731
-0.00271293
-0.00269998
-0.0026884
-0.00267835
-0.00266978
-0.00266277
-0.0026565
-0.00265047
-0.00264457
-0.00263858
-0.0026323
-0.00262559
-0.00261817
-0.00260992
-0.00260071
-0.00259047
-0.00257922
-0.0025669
-0.00255358
-0.00253928
-0.00252411
-0.00250813
-0.00249141
-0.0024738
-0.0024555
-0.0024368
-0.00241732
-0.00239703
-0.00237593
-0.00235382
-0.00233093
-0.00230706
-0.00228243
-0.00225699
-0.00223077
-0.00220407
-0.0021768
-0.00214925
-0.00212154
-0.00209373
-0.00206605
-0.00203862
-0.00201153
-0.00198492
-0.00195894
-0.00193367
-0.00190918
-0.00188555
-0.00186282
-0.00184103
-0.00182019
-0.00180023
-0.00178117
-0.00176294
-0.00174544
-0.00172863
-0.00171245
-0.00169676
-0.0016816
-0.00166681
-0.00165244
-0.00163836
-0.00162464
-0.00161113
-0.00159793
-0.00158492
-0.00157213
-0.00155951
-0.00154704
-0.00153475
-0.00152256
-0.00151053
-0.00149864
-0.00148689
-0.00147532
-0.00146394
-0.00145277
-0.00144186
-0.00143119
-0.00142085
-0.0014108
-0.00140106
-0.00139168
-0.00138261
-0.00137385
-0.0013654
-0.00135721
-0.00134924
-0.00134146
-0.00133381
-0.00132623
-0.00131866
-0.00131103
-0.00130328
-0.00129533
-0.0012871
-0.00127851
-0.00126959
-0.00126006
-0.00124993
-0.00123918
-0.00122773
-0.00121551
-0.00120244
-0.00118851
-0.00117371
-0.00115805
-0.00114155
-0.00112427
-0.00110603
-0.00108718
-0.0010677
-0.00104747
-0.00102664
-0.00100498
-0.000982662
-0.0009592
-0.000935209
-0.000910129
-0.000884501
-0.000857908
-0.00083095
-0.000802806
-0.000775558
-0.000745482
-0.000717187
-0.000689699
-0.000662737
-0.000636638
-0.000612464
-0.00058983
-0.000569246
-0.000549775
-0.000530995
-0.000512996
-0.000495628
-0.000478608
-0.000461713
-0.000444796
-0.000427747
-0.000410493
-0.000393003
-0.000375279
-0.000357371
-0.000339304
-0.00032115
-0.000303008
-0.000284918
-0.000266921
-0.000249053
-0.000231339
-0.000213784
-0.000196376
-0.000179099
-0.000161935
-0.000144861
-0.000127852
-0.000110885
-9.39355e-05
-7.69834e-05
-6.00081e-05
-4.30008e-05
-2.59151e-05
-8.96138e-06
-0.00325456
-0.00323465
-0.00321687
-0.00320337
-0.00319072
-0.00317764
-0.00316448
-0.00315142
-0.0031383
-0.00312499
-0.00311145
-0.00309769
-0.00308371
-0.00306951
-0.00305512
-0.00304052
-0.00302576
-0.00301087
-0.00299585
-0.00298069
-0.00296544
-0.00295011
-0.00293469
-0.0029192
-0.00290364
-0.00288801
-0.00287233
-0.0028566
-0.00284082
-0.00282501
-0.0028092
-0.0027934
-0.00277764
-0.00276207
-0.00274653
-0.00273125
-0.00271702
-0.00270411
-0.00269252
-0.00268233
-0.00267346
-0.0026659
-0.00265891
-0.00265204
-0.00264513
-0.00263798
-0.00263042
-0.00262232
-0.00261344
-0.0026037
-0.00259302
-0.00258137
-0.00256878
-0.00255527
-0.0025409
-0.00252576
-0.00250993
-0.00249349
-0.0024765
-0.00245896
-0.00244108
-0.0024227
-0.00240391
-0.00238475
-0.00236487
-0.00234418
-0.00232276
-0.00230059
-0.00227778
-0.00225421
-0.00222986
-0.00220494
-0.00217938
-0.00215339
-0.00212708
-0.00210051
-0.0020739
-0.00204735
-0.00202099
-0.0019949
-0.00196927
-0.0019442
-0.00191978
-0.00189609
-0.0018732
-0.00185115
-0.00182999
-0.00180966
-0.0017902
-0.00177155
-0.00175362
-0.00173638
-0.00171975
-0.0017036
-0.00168797
-0.00167268
-0.00165781
-0.0016432
-0.00162893
-0.00161487
-0.00160112
-0.00158756
-0.00157426
-0.00156117
-0.00154827
-0.00153561
-0.00152312
-0.00151086
-0.0014988
-0.00148695
-0.00147534
-0.00146397
-0.00145286
-0.00144204
-0.00143147
-0.00142123
-0.00141127
-0.00140159
-0.00139222
-0.0013831
-0.00137423
-0.00136557
-0.00135708
-0.00134872
-0.00134044
-0.00133219
-0.00132392
-0.00131556
-0.00130705
-0.00129833
-0.00128935
-0.00128001
-0.00127035
-0.00126021
-0.00124949
-0.0012382
-0.00122632
-0.00121377
-0.00120051
-0.00118653
-0.00117181
-0.00115637
-0.00114025
-0.00112347
-0.00110609
-0.00108808
-0.00106966
-0.00105074
-0.0010313
-0.00101161
-0.000991403
-0.000970485
-0.000948657
-0.000926399
-0.000903227
-0.000879378
-0.000854527
-0.000829079
-0.000802226
-0.00077584
-0.000746838
-0.000719086
-0.000692029
-0.000665515
-0.000639823
-0.000615947
-0.000593534
-0.000572962
-0.000553353
-0.000534325
-0.000515981
-0.000498207
-0.000480755
-0.00046343
-0.000446103
-0.000428685
-0.000411112
-0.000393359
-0.000375434
-0.00035739
-0.000339248
-0.000321061
-0.000302923
-0.000284857
-0.000266885
-0.00024904
-0.000231345
-0.000213795
-0.000196373
-0.000179064
-0.000161855
-0.000144732
-0.000127674
-0.000110664
-9.36857e-05
-7.6723e-05
-5.97586e-05
-4.27873e-05
-2.57556e-05
-8.91907e-06
-0.00325629
-0.00323639
-0.0032183
-0.00320435
-0.00319137
-0.00317803
-0.00316465
-0.00315144
-0.00313825
-0.00312493
-0.00311143
-0.00309775
-0.00308387
-0.00306979
-0.00305552
-0.00304108
-0.00302647
-0.00301172
-0.00299684
-0.00298184
-0.00296675
-0.00295157
-0.00293631
-0.00292099
-0.0029056
-0.00289015
-0.00287466
-0.00285912
-0.00284355
-0.00282796
-0.00281237
-0.0027968
-0.00278127
-0.00276591
-0.00275062
-0.00273559
-0.00272151
-0.00270862
-0.00269695
-0.00268656
-0.00267731
-0.00266914
-0.00266138
-0.00265363
-0.00264569
-0.00263736
-0.00262852
-0.00261904
-0.00260875
-0.00259759
-0.00258554
-0.00257259
-0.00255879
-0.00254422
-0.00252892
-0.00251303
-0.00249662
-0.00247978
-0.00246259
-0.00244504
-0.00242733
-0.00240928
-0.00239099
-0.00237247
-0.00235356
-0.00233401
-0.00231382
-0.00229311
-0.00227177
-0.00224981
-0.00222715
-0.00220388
-0.00217999
-0.0021556
-0.00213079
-0.00210563
-0.00208026
-0.00205476
-0.00202938
-0.00200404
-0.00197899
-0.00195436
-0.00193022
-0.00190667
-0.00188377
-0.00186162
-0.00184026
-0.00181966
-0.00179987
-0.00178085
-0.00176252
-0.00174486
-0.00172781
-0.00171122
-0.00169514
-0.00167938
-0.00166402
-0.0016489
-0.00163413
-0.00161956
-0.00160531
-0.00159126
-0.00157751
-0.00156401
-0.00155076
-0.0015378
-0.00152508
-0.00151265
-0.00150048
-0.00148858
-0.00147697
-0.00146563
-0.00145456
-0.00144379
-0.00143326
-0.00142303
-0.00141304
-0.00140329
-0.00139377
-0.00138444
-0.00137526
-0.00136621
-0.00135724
-0.00134831
-0.00133938
-0.00133038
-0.00132128
-0.00131201
-0.00130254
-0.0012928
-0.00128275
-0.00127234
-0.00126154
-0.00125026
-0.00123846
-0.00122612
-0.00121322
-0.00119972
-0.0011856
-0.00117085
-0.00115551
-0.00113958
-0.00112311
-0.00110615
-0.00108876
-0.00107098
-0.00105289
-0.00103452
-0.00101581
-0.00099698
-0.000977954
-0.000958313
-0.000938023
-0.00091732
-0.000895815
-0.000873629
-0.000850485
-0.000826576
-0.000801238
-0.000775699
-0.000748103
-0.000721204
-0.000694773
-0.000668864
-0.000643732
-0.000620229
-0.000598055
-0.000577445
-0.000557639
-0.00053831
-0.000519553
-0.000501289
-0.000483317
-0.000465475
-0.000447659
-0.0004298
-0.00041185
-0.00039379
-0.000375644
-0.000357438
-0.000339232
-0.000321057
-0.000302945
-0.000284911
-0.000266959
-0.000249139
-0.000231477
-0.00021394
-0.000196496
-0.000179138
-0.000161866
-0.000144672
-0.000127542
-0.000110469
-9.34411e-05
-7.64515e-05
-5.94868e-05
-4.25453e-05
-2.55707e-05
-8.84836e-06
-0.00325712
-0.00323731
-0.00321912
-0.00320496
-0.00319183
-0.00317838
-0.00316493
-0.00315167
-0.00313846
-0.00312516
-0.00311171
-0.00309809
-0.0030843
-0.00307031
-0.00305615
-0.00304182
-0.00302733
-0.0030127
-0.00299796
-0.0029831
-0.00296815
-0.00295312
-0.00293801
-0.00292285
-0.00290763
-0.00289237
-0.00287708
-0.00286175
-0.00284639
-0.00283103
-0.00281569
-0.00280038
-0.00278511
-0.00276998
-0.00275495
-0.0027402
-0.00272626
-0.00271337
-0.00270158
-0.00269092
-0.00268125
-0.00267243
-0.00266387
-0.00265521
-0.00264622
-0.00263672
-0.00262661
-0.00261578
-0.00260414
-0.00259165
-0.00257832
-0.00256419
-0.00254931
-0.00253381
-0.00251772
-0.0025012
-0.00248431
-0.00246713
-0.00244977
-0.00243219
-0.00241458
-0.00239681
-0.00237893
-0.00236089
-0.00234258
-0.00232388
-0.00230479
-0.00228525
-0.00226513
-0.00224452
-0.00222333
-0.00220156
-0.00217921
-0.00215635
-0.00213303
-0.00210932
-0.00208526
-0.002061
-0.00203667
-0.00201234
-0.0019881
-0.0019641
-0.00194044
-0.00191723
-0.00189453
-0.00187245
-0.00185104
-0.00183029
-0.00181028
-0.00179096
-0.0017723
-0.00175426
-0.00173682
-0.00171982
-0.00170331
-0.00168711
-0.00167131
-0.00165574
-0.00164052
-0.00162549
-0.00161081
-0.00159635
-0.00158222
-0.00156839
-0.00155485
-0.00154166
-0.00152876
-0.0015162
-0.00150396
-0.00149201
-0.00148036
-0.001469
-0.00145791
-0.00144709
-0.00143647
-0.0014261
-0.00141591
-0.00140591
-0.00139607
-0.00138635
-0.00137667
-0.00136705
-0.00135743
-0.00134777
-0.00133804
-0.00132818
-0.00131816
-0.00130793
-0.00129745
-0.00128668
-0.00127559
-0.00126413
-0.00125227
-0.00123997
-0.00122719
-0.00121393
-0.00120014
-0.00118585
-0.00117103
-0.00115569
-0.00113987
-0.00112358
-0.00110689
-0.00108985
-0.00107251
-0.00105495
-0.00103719
-0.00101934
-0.00100134
-0.000983246
-0.00096506
-0.000946481
-0.000927643
-0.000908337
-0.000888311
-0.000867685
-0.000846176
-0.000823792
-0.000800051
-0.000775554
-0.000749496
-0.000723595
-0.00069797
-0.000672796
-0.000648315
-0.00062521
-0.000603249
-0.000582537
-0.000562465
-0.00054277
-0.000523535
-0.000504705
-0.000486135
-0.000467705
-0.000449348
-0.000431009
-0.000412633
-0.000394228
-0.000375849
-0.000357501
-0.000339205
-0.000321014
-0.00030299
-0.000285063
-0.000267125
-0.000249295
-0.000231666
-0.000214151
-0.000196675
-0.000179253
-0.000161907
-0.00014463
-0.000127416
-0.000110266
-9.31772e-05
-7.6153e-05
-5.91837e-05
-4.22723e-05
-2.53665e-05
-8.75248e-06
-0.0032572
-0.00323745
-0.00321931
-0.00320517
-0.00319208
-0.00317867
-0.00316526
-0.00315205
-0.0031389
-0.00312565
-0.00311226
-0.00309871
-0.00308499
-0.00307108
-0.003057
-0.00304276
-0.00302837
-0.00301384
-0.0029992
-0.00298447
-0.00296964
-0.00295474
-0.00293979
-0.00292478
-0.00290973
-0.00289466
-0.00287955
-0.00286444
-0.0028493
-0.00283418
-0.0028191
-0.00280405
-0.00278906
-0.00277418
-0.00275942
-0.00274494
-0.00273115
-0.00271825
-0.00270632
-0.00269536
-0.00268523
-0.00267573
-0.00266637
-0.00265678
-0.00264672
-0.00263605
-0.00262469
-0.00261256
-0.00259963
-0.00258589
-0.00257139
-0.0025562
-0.00254039
-0.00252408
-0.00250734
-0.0024903
-0.00247303
-0.00245559
-0.00243811
-0.0024205
-0.00240298
-0.0023854
-0.00236781
-0.00235016
-0.00233237
-0.00231438
-0.00229608
-0.00227744
-0.00225838
-0.00223893
-0.00221898
-0.0021985
-0.00217754
-0.00215608
-0.00213416
-0.00211183
-0.00208913
-0.00206616
-0.00204294
-0.00201973
-0.00199649
-0.00197331
-0.00195033
-0.00192765
-0.00190534
-0.0018835
-0.00186221
-0.00184147
-0.00182136
-0.00180187
-0.00178296
-0.00176463
-0.00174686
-0.0017295
-0.00171262
-0.00169605
-0.00167986
-0.0016639
-0.0016483
-0.0016329
-0.00161786
-0.00160307
-0.00158864
-0.00157454
-0.00156079
-0.00154741
-0.00153437
-0.00152167
-0.00150931
-0.00149724
-0.00148548
-0.001474
-0.00146276
-0.00145174
-0.00144088
-0.00143018
-0.00141959
-0.00140913
-0.00139878
-0.00138847
-0.0013781
-0.00136774
-0.00135736
-0.00134686
-0.00133623
-0.00132544
-0.00131446
-0.00130325
-0.00129178
-0.00128002
-0.00126793
-0.0012555
-0.00124271
-0.00122949
-0.00121587
-0.00120182
-0.00118732
-0.00117239
-0.00115702
-0.00114123
-0.00112507
-0.00110854
-0.00109173
-0.00107467
-0.00105744
-0.00104011
-0.00102268
-0.00100527
-0.000987866
-0.000970428
-0.000953044
-0.00093546
-0.000917736
-0.000899573
-0.000881013
-0.000861868
-0.000841888
-0.000821012
-0.000798891
-0.000775702
-0.000751153
-0.000726334
-0.000701618
-0.000677245
-0.000653449
-0.000630729
-0.000608931
-0.000588046
-0.000567631
-0.000547505
-0.000527727
-0.000508267
-0.000489031
-0.000469942
-0.000451011
-0.000432216
-0.000413418
-0.000394628
-0.000375989
-0.000357536
-0.000339204
-0.000320991
-0.000302952
-0.000285036
-0.000267187
-0.000249441
-0.000231858
-0.000214357
-0.000196834
-0.000179332
-0.000161901
-0.000144537
-0.000127238
-0.000110011
-9.28613e-05
-7.5808e-05
-5.88385e-05
-4.19642e-05
-2.5158e-05
-8.65454e-06
-0.00325651
-0.0032368
-0.00321885
-0.00320499
-0.00319211
-0.00317889
-0.00316564
-0.00315258
-0.00313955
-0.0031264
-0.00311309
-0.00309961
-0.00308595
-0.0030721
-0.00305808
-0.00304391
-0.00302958
-0.00301513
-0.00300058
-0.00298594
-0.00297123
-0.00295645
-0.00294162
-0.00292676
-0.00291187
-0.00289697
-0.00288206
-0.00286715
-0.00285224
-0.00283736
-0.00282253
-0.00280774
-0.00279302
-0.00277841
-0.00276393
-0.00274972
-0.00273608
-0.00272318
-0.0027111
-0.00269983
-0.00268922
-0.00267905
-0.00266887
-0.00265834
-0.00264721
-0.00263537
-0.00262278
-0.0026094
-0.00259525
-0.00258035
-0.00256479
-0.00254867
-0.00253205
-0.00251509
-0.00249782
-0.00248037
-0.00246282
-0.0024452
-0.00242764
-0.00241003
-0.00239261
-0.00237519
-0.00235784
-0.00234051
-0.00232313
-0.00230567
-0.002288
-0.00227012
-0.00225193
-0.00223341
-0.0022145
-0.00219516
-0.0021754
-0.0021552
-0.00213456
-0.00211353
-0.00209212
-0.00207041
-0.0020484
-0.00202628
-0.00200409
-0.00198187
-0.00195973
-0.00193774
-0.00191597
-0.00189455
-0.00187356
-0.001853
-0.00183294
-0.0018134
-0.00179438
-0.00177587
-0.00175785
-0.00174024
-0.00172307
-0.0017062
-0.0016897
-0.00167345
-0.00165754
-0.00164187
-0.00162655
-0.00161152
-0.00159686
-0.00158255
-0.0015686
-0.00155504
-0.00154183
-0.00152898
-0.00151642
-0.00150412
-0.00149207
-0.00148026
-0.00146866
-0.00145721
-0.00144586
-0.00143465
-0.00142353
-0.00141246
-0.00140143
-0.00139037
-0.00137922
-0.00136801
-0.00135674
-0.00134534
-0.00133379
-0.00132206
-0.00131013
-0.00129798
-0.00128557
-0.00127289
-0.00125991
-0.00124662
-0.001233
-0.00121902
-0.00120469
-0.00118999
-0.00117492
-0.00115949
-0.00114372
-0.0011276
-0.00111121
-0.00109454
-0.0010777
-0.0010607
-0.00104361
-0.00102651
-0.00100941
-0.000992412
-0.00097552
-0.00095867
-0.000941992
-0.00092522
-0.000908462
-0.000891427
-0.000874146
-0.000856312
-0.000837765
-0.000818468
-0.000797955
-0.000776067
-0.000753044
-0.000729389
-0.000705647
-0.000682102
-0.000658979
-0.000636605
-0.000614897
-0.000593765
-0.000572936
-0.000552311
-0.000531932
-0.000511795
-0.00049189
-0.000472154
-0.000452579
-0.000433202
-0.000413976
-0.000394909
-0.000376059
-0.000357497
-0.000339107
-0.000320846
-0.000302817
-0.00028495
-0.000267181
-0.000249501
-0.000231908
-0.000214358
-0.00019681
-0.000179279
-0.000161792
-0.000144355
-0.000126982
-0.000109691
-9.24825e-05
-7.54122e-05
-5.8449e-05