/*--------------------------------*- C++ -*----------------------------------*\
| =========                 |                                                 |
| \\      /  F ield         | OpenFOAM: The Open Source CFD Toolbox           |
|  \\    /   O peration     | Version:  2506                                  |
|   \\  /    A nd           | Website:  www.openfoam.com                      |
|    \\/     M anipulation  |                                                 |
\*---------------------------------------------------------------------------*/
FoamFile
{
    version     2.0;
    format      ascii;
    arch        "LSB;label=32;scalar=64";
    class       volScalarField;
    location    "1.7";
    object      s;
}
// * * * * * * * * * * * * * * * * * * * * * * * * * * * * * * * * * * * * * //

dimensions      [0 0 0 0 0 0 0];

internalField   nonuniform List<scalar> 
4000
(
3.30429e-18
-2.60068e-17
2.93752e-16
-3.28275e-15
-5.7087e-13
-6.37312e-10
-6.92558e-10
5.28101e-08
1.37716e-06
2.54001e-05
0.000275904
0.00204683
0.0121259
0.0590564
0.159709
0.254359
0.266042
0.252227
0.210149
0.123453
0.0422866
0.00430697
0.00230719
0.00203126
0.00162642
0.0012246
0.000896009
0.000653505
0.000481551
0.000356004
0.000256697
0.000175753
0.000111789
6.3722e-05
3.30348e-05
1.88181e-05
8.76081e-06
1.00636e-05
1.27813e-05
2.11983e-05
0.000928736
0.00345932
0.00589032
0.00809484
0.00979222
0.0111531
0.012395
0.0126957
0.012817
0.0124073
0.0112557
0.00992391
0.00757319
0.00554297
0.00380976
0.0024238
0.00142238
0.000771011
0.000388992
0.000184345
8.31643e-05
3.66682e-05
1.65413e-05
8.11111e-06
4.41208e-06
2.57898e-06
1.54154e-06
9.03229e-07
5.07575e-07
2.71108e-07
1.37603e-07
6.64808e-08
3.05425e-08
1.33778e-08
5.569e-09
2.19838e-09
8.22059e-10
2.90361e-10
9.64497e-11
3.00579e-11
8.73726e-12
2.3643e-12
5.96963e-13
1.37622e-13
3.44681e-15
-1.54127e-14
-1.3733e-14
-1.65532e-14
-7.19207e-15
-2.59206e-15
-1.38859e-15
-4.39969e-16
-1.37733e-16
-5.87518e-17
-1.61744e-17
-8.27611e-18
-3.80162e-18
-5.47398e-18
-4.38931e-18
-1.52703e-18
4.52172e-18
2.119e-17
2.88179e-17
1.18011e-16
1.4838e-16
1.89153e-16
1.71753e-15
4.5458e-15
1.00888e-14
2.11365e-14
3.72244e-14
5.8343e-14
9.06224e-14
1.65791e-13
3.33061e-13
4.32349e-13
4.21724e-13
3.43973e-13
2.50099e-13
2.35075e-13
4.29207e-13
1.20308e-12
4.12533e-12
7.49008e-12
8.08626e-12
6.63283e-12
5.15209e-12
3.9523e-12
3.12289e-12
2.52616e-12
1.89831e-12
1.45248e-12
1.18246e-12
8.59841e-13
6.67025e-13
5.85597e-13
3.98216e-13
3.38668e-13
2.38887e-13
1.67439e-13
1.00461e-13
4.65538e-14
1.98721e-14
7.69534e-15
2.77341e-15
9.72184e-16
3.44519e-16
1.23304e-16
3.99877e-17
6.53706e-18
-1.02426e-17
-2.36828e-17
-3.4694e-17
-4.93995e-17
-1.37143e-17
-2.30721e-18
6.88749e-19
1.05486e-18
7.31273e-19
-5.28383e-20
-2.49856e-18
-3.0463e-18
-1.81355e-18
1.13128e-18
9.3277e-19
7.47181e-19
3.05856e-18
5.32141e-18
4.57916e-18
2.77584e-18
1.33153e-18
5.59215e-19
2.32622e-19
1.16375e-19
7.3757e-20
5.21623e-20
3.73254e-20
2.61666e-20
1.80565e-20
1.26578e-20
9.29915e-21
7.07784e-21
5.2961e-21
3.66447e-21
2.21501e-21
1.0976e-21
3.91047e-22
6.81921e-23
-4.94692e-24
-2.25673e-24
-2.1129e-25
5.50947e-27
1.03683e-26
5.98859e-27
1.41924e-27
-5.7588e-28
-9.66618e-28
-1.01557e-27
-9.6588e-28
-4.44454e-28
1.08616e-17
-4.32028e-17
1.12181e-16
-2.08477e-16
-3.94717e-14
-4.22964e-11
-3.79559e-10
1.54298e-09
4.04923e-08
7.02597e-07
7.24417e-06
5.27261e-05
0.000286092
0.00112081
0.0030038
0.0062526
0.0102378
0.0147227
0.0192085
0.0229831
0.0273724
0.0309126
0.0343496
0.0388862
0.046171
0.0590122
0.0812601
0.116497
0.165893
0.223591
0.259749
0.25693
0.238791
0.186897
0.106567
0.0412078
0.0225146
0.0288207
0.0409373
0.0555806
0.0761376
0.0958371
0.110405
0.121067
0.128957
0.135342
0.141314
0.14633
0.150938
0.154905
0.157796
0.15988
0.160252
0.159249
0.155448
0.14913
0.139969
0.127229
0.112196
0.0932497
0.0718263
0.0486371
0.0308279
0.0201615
0.013324
0.00874502
0.00554317
0.00339615
0.00198674
0.00110718
0.00058624
0.000295397
0.000142842
6.61211e-05
2.92421e-05
1.23414e-05
4.95673e-06
1.89165e-06
6.85694e-07
2.3595e-07
7.70332e-08
2.38791e-08
7.05163e-09
1.99696e-09
5.46042e-10
1.46393e-10
3.89235e-11
1.00383e-11
2.57355e-12
6.56058e-13
1.1306e-13
-5.55195e-15
-1.78113e-14
-1.71184e-14
-6.37751e-15
-3.6299e-15
-1.25631e-15
-6.87564e-16
-2.79289e-15
-3.62376e-15
-1.22801e-15
1.10703e-18
6.62086e-15
1.9448e-14
6.53901e-14
1.47688e-13
3.78523e-13
9.32583e-13
2.0854e-12
4.43325e-12
8.28353e-12
1.31608e-11
2.00452e-11
3.29366e-11
5.68872e-11
9.00838e-11
1.30205e-10
1.76554e-10
2.26196e-10
2.56334e-10
2.78303e-10
2.96032e-10
2.95054e-10
2.67631e-10
2.07859e-10
1.6671e-10
1.43173e-10
1.24971e-10
1.08262e-10
9.27254e-11
7.64496e-11
6.24011e-11
5.16558e-11
4.12737e-11
3.35246e-11
2.80932e-11
2.20388e-11
1.7976e-11
1.40186e-11
1.07172e-11
7.86652e-12
5.536e-12
3.87673e-12
2.71171e-12
1.88851e-12
1.28802e-12
8.35731e-13
4.99517e-13
2.55245e-13
9.69663e-14
4.04907e-14
2.075e-14
9.36307e-15
3.739e-15
1.3188e-15
3.95127e-16
7.22493e-17
-3.40598e-17
-7.40778e-17
-6.65589e-17
-9.31202e-18
5.07657e-18
5.79213e-17
4.86157e-17
-7.1013e-17
-1.07372e-16
-1.6365e-16
-1.30019e-16
-6.64842e-17
-2.70493e-17
-9.39059e-18
-2.7056e-18
-7.61533e-19
-6.99028e-19
-1.14527e-18
-1.59268e-18
-1.91414e-18
-2.0735e-18
-2.07127e-18
-1.90375e-18
-1.6076e-18
-1.24678e-18
-8.82868e-19
-5.62494e-19
-3.14539e-19
-1.48322e-19
-5.45555e-20
-1.24729e-20
6.19678e-22
1.82127e-21
7.47767e-22
1.3064e-22
-2.63711e-23
-2.85435e-23
-1.13521e-23
-2.62075e-24
-1.84236e-25
9.96595e-26
-5.47045e-27
-6.94639e-26
5.83663e-18
-1.58233e-17
1.12762e-17
1.67678e-17
-2.88851e-14
1.7014e-14
-2.12259e-11
-4.138e-11
8.34324e-11
1.68713e-09
1.13889e-08
4.87518e-08
1.5301e-07
3.72889e-07
7.72648e-07
1.44517e-06
2.84197e-06
7.02752e-06
2.34454e-05
9.75725e-05
0.000550348
0.00129639
0.00226892
0.00358438
0.00547402
0.00837918
0.0130812
0.0207708
0.0329869
0.0507681
0.0735073
0.100314
0.130109
0.158902
0.165532
0.167251
0.176388
0.194147
0.210495
0.220054
0.223704
0.224555
0.224418
0.223674
0.222274
0.220356
0.21804
0.216058
0.21425
0.213036
0.212744
0.213235
0.21516
0.218079
0.222066
0.22622
0.230087
0.23258
0.235937
0.236371
0.233909
0.226632
0.214557
0.200071
0.182646
0.158384
0.128004
0.0973347
0.0669152
0.0405596
0.0253358
0.016906
0.0115612
0.00782145
0.00511924
0.00317559
0.00184042
0.0010045
0.000522785
0.000259957
0.000122864
5.49434e-05
2.32241e-05
9.29752e-06
3.53317e-06
1.27502e-06
4.37076e-07
1.42515e-07
4.42308e-08
1.30737e-08
3.67831e-09
9.84996e-10
2.51038e-10
6.08303e-11
1.40055e-11
2.89544e-12
5.26895e-13
1.27543e-14
-4.1442e-14
-6.08725e-13
-9.85827e-13
-1.06221e-12
-1.08032e-13
-7.23161e-13
-2.76618e-13
2.61391e-13
-9.96171e-13
-3.08517e-12
-6.45812e-12
-1.1477e-11
-1.07837e-11
5.76955e-12
3.48912e-11
8.1011e-11
1.50418e-10
2.69775e-10
4.51822e-10
6.9843e-10
9.98846e-10
1.32678e-09
1.51251e-09
1.46258e-09
1.22388e-09
8.48226e-10
4.24473e-10
-1.11492e-11
-4.3191e-10
-7.62896e-10
-9.85426e-10
-1.10737e-09
-1.12551e-09
-1.09555e-09
-1.02842e-09
-9.19273e-10
-8.13014e-10
-7.20067e-10
-6.12139e-10
-5.20987e-10
-4.30349e-10
-3.46466e-10
-2.68539e-10
-1.97417e-10
-1.38334e-10
-9.23007e-11
-5.77552e-11
-3.36406e-11
-1.75187e-11
-7.71079e-12
-2.20053e-12
5.54576e-13
1.61956e-12
1.78083e-12
1.53349e-12
1.12911e-12
7.21037e-13
3.91525e-13
1.69296e-13
4.48434e-14
3.47916e-15
2.121e-15
1.09273e-15
6.86814e-15
5.14505e-15
4.03625e-16
-3.79849e-16
-3.65484e-16
-1.05638e-15
-1.41051e-15
-1.16912e-15
-7.93956e-16
-4.89498e-16
-2.79147e-16
-1.44447e-16
-6.89054e-17
-3.38771e-17
-2.10198e-17
-1.53532e-17
-1.15861e-17
-8.63155e-18
-6.60472e-18
-5.48113e-18
-4.88416e-18
-4.41749e-18
-3.85438e-18
-3.13249e-18
-2.31043e-18
-1.49586e-18
-8.16489e-19
-3.51566e-19
-1.02396e-19
-8.40081e-21
1.34049e-20
1.15878e-20
6.09881e-21
2.38901e-21
6.76103e-22
9.16879e-23
-3.48799e-23
-2.9461e-23
-4.87078e-24
1.50047e-19
3.96147e-18
-2.02908e-17
4.14406e-17
-5.29314e-15
-7.93762e-15
5.18198e-14
-3.81926e-12
-1.16189e-13
7.78186e-11
6.98257e-10
3.21052e-09
8.98331e-09
2.09902e-08
4.38366e-08
7.76188e-08
1.30584e-07
2.04377e-07
2.81776e-07
3.1809e-07
2.33465e-07
2.52949e-07
4.41392e-07
9.53369e-07
2.11624e-06
4.64486e-06
1.08591e-05
3.05223e-05
0.000104673
0.000413042
0.00198018
0.0063976
0.0148942
0.0318708
0.0537933
0.0732877
0.0900169
0.104109
0.11499
0.122215
0.122138
0.117406
0.111224
0.104519
0.0981788
0.0922993
0.0865773
0.0817633
0.0772936
0.0733579
0.0702503
0.0677974
0.0667948
0.0667464
0.0691391
0.0742568
0.0827479
0.0952098
0.110615
0.130179
0.151042
0.172812
0.196453
0.210646
0.221701
0.2339
0.243222
0.241523
0.234251
0.219887
0.197175
0.165856
0.132728
0.0994821
0.0667443
0.0398301
0.0243289
0.0153485
0.00960935
0.00574492
0.00316627
0.00161338
0.000782246
0.000365878
0.000164098
7.0056e-05
2.85695e-05
1.12291e-05
4.26792e-06
1.56867e-06
5.57197e-07
1.9078e-07
6.27726e-08
1.98099e-08
5.97325e-09
1.71709e-09
4.70008e-10
1.16264e-10
2.2521e-11
-6.26129e-12
-5.98456e-11
-3.40009e-10
-1.10217e-10
-2.71923e-10
-2.93748e-10
-3.13074e-10
-6.33865e-10
-1.29696e-09
-2.39324e-09
-4.02363e-09
-6.13016e-09
-8.55056e-09
-1.1277e-08
-1.35954e-08
-1.63545e-08
-1.90744e-08
-2.34452e-08
-2.9698e-08
-3.7471e-08
-6.30244e-08
-1.86424e-07
-3.35437e-07
-4.84574e-07
-6.12129e-07
-7.06582e-07
-7.70625e-07
-7.89932e-07
-7.65165e-07
-7.10022e-07
-6.38951e-07
-5.58596e-07
-4.80082e-07
-4.08057e-07
-3.41409e-07
-2.84413e-07
-2.37433e-07
-1.94765e-07
-1.59484e-07
-1.29717e-07
-1.04907e-07
-8.33551e-08
-6.33737e-08
-4.50036e-08
-3.04628e-08
-1.96931e-08
-1.23205e-08
-7.37852e-09
-4.27062e-09
-2.37612e-09
-1.25849e-09
-6.24174e-10
-2.86924e-10
-1.25764e-10
-5.22036e-11
-2.03892e-11
-7.22207e-12
-2.14443e-12
-3.22928e-13
2.35934e-13
3.1579e-13
2.28979e-13
1.01316e-13
2.5473e-14
9.52244e-15
1.26795e-14
5.84739e-15
-1.96461e-15
-7.32796e-15
-7.16053e-15
-5.0524e-15
-3.04982e-15
-1.71522e-15
-9.19022e-16
-4.5748e-16
-1.93742e-16
-7.91548e-17
-1.93765e-17
1.57379e-17
4.65774e-17
7.47594e-17
8.39073e-17
7.91123e-17
6.84958e-17
5.58112e-17
4.23822e-17
2.94104e-17
1.81148e-17
9.57716e-18
4.16528e-18
1.34876e-18
1.97965e-19
-1.32247e-19
-1.50996e-19
-9.39661e-20
-4.37144e-20
-1.55495e-20
-3.6206e-21
9.64076e-23
7.11304e-22
4.75539e-22
-1.96115e-18
1.08103e-17
-3.13786e-17
3.41897e-17
-2.5619e-17
-3.1968e-15
1.09193e-15
5.71013e-14
-4.23526e-13
4.31452e-12
3.78503e-11
1.45996e-10
5.82052e-10
1.68163e-09
3.22335e-09
4.33162e-09
4.78319e-09
4.61715e-09
3.81134e-09
1.89887e-09
-1.08109e-08
-3.87801e-08
-7.45604e-08
-9.33656e-08
-4.22298e-08
1.43728e-07
7.16818e-07
2.34704e-06
5.79056e-06
1.02942e-05
1.30664e-05
1.53168e-05
3.84001e-05
0.000356729
0.00301506
0.00708771
0.0110466
0.0145932
0.0169685
0.0176323
0.0161547
0.013938
0.0118694
0.0101172
0.00872839
0.00761155
0.0066888
0.00598821
0.00541652
0.00498305
0.00468401
0.00449559
0.00446309
0.0045561
0.00485792
0.00549743
0.00678919
0.00937326
0.0135531
0.0209896
0.0316856
0.0466178
0.0711181
0.0995175
0.12863
0.159316
0.188713
0.217102
0.235238
0.249691
0.268209
0.279943
0.277454
0.268456
0.250289
0.217118
0.176074
0.132556
0.0900356
0.0521243
0.0284346
0.0162892
0.0093982
0.00512836
0.00256115
0.00121072
0.000563912
0.000260088
0.000117618
5.21686e-05
2.28048e-05
9.80089e-06
4.11329e-06
1.67674e-06
6.58788e-07
2.49146e-07
9.02481e-08
3.11201e-08
9.95548e-09
2.11056e-09
-7.37374e-10
-4.10866e-09
-1.68911e-08
-4.56752e-08
-4.04818e-08
-3.7249e-08
-6.39408e-08
-1.15163e-07
-1.86994e-07
-2.80882e-07
-4.13324e-07
-6.13087e-07
-9.31935e-07
-1.38847e-06
-2.03362e-06
-2.79288e-06
-3.71175e-06
-4.70603e-06
-5.66035e-06
-6.6286e-06
-7.37384e-06
-7.70193e-06
-7.74768e-06
-7.56901e-06
-7.1384e-06
-6.53318e-06
-5.77701e-06
-4.96619e-06
-4.19301e-06
-3.49757e-06
-2.88718e-06
-2.34808e-06
-1.93009e-06
-1.56374e-06
-1.26404e-06
-1.01814e-06
-8.16527e-07
-6.56693e-07
-5.27266e-07
-4.21419e-07
-3.34592e-07
-2.63022e-07
-2.09956e-07
-1.64173e-07
-1.26253e-07
-9.46625e-08
-6.76474e-08
-4.52431e-08
-2.7321e-08
-1.39769e-08
-6.28601e-09
-3.22762e-09
-1.69657e-09
-8.45735e-10
-3.93412e-10
-1.73913e-10
-7.49458e-11
-3.14403e-11
-1.29233e-11
-5.14858e-12
-2.14894e-12
-8.63437e-13
-2.23154e-13
2.50517e-13
4.11879e-13
3.49495e-13
3.40092e-13
2.47647e-13
1.51072e-13
7.80943e-14
3.42031e-14
1.23352e-14
3.34384e-15
4.16774e-16
-2.39154e-16
-2.08698e-16
-5.15228e-17
7.17518e-17
1.26266e-16
1.5293e-16
1.88813e-16
2.10119e-16
2.25412e-16
2.29676e-16
2.18415e-16
1.97685e-16
1.6475e-16
1.18551e-16
7.53635e-17
4.28161e-17
2.18078e-17
9.78152e-18
3.62849e-18
8.87936e-19
-9.76867e-20
-3.11539e-19
-2.59629e-19
-1.59549e-19
-8.35115e-20
-2.79323e-20
-1.90234e-18
1.14187e-17
-3.66543e-17
2.31303e-17
3.55934e-16
-1.78129e-15
-6.32956e-16
3.24026e-14
1.55301e-14
2.49228e-13
2.61986e-12
9.53223e-12
2.20374e-11
3.81621e-11
5.03308e-11
4.72629e-11
2.84963e-11
3.86181e-11
-1.14005e-10
-1.31026e-09
-2.88601e-09
-4.63626e-09
-5.52066e-09
-5.9599e-09
-6.95934e-09
5.17444e-10
3.87946e-08
1.14027e-07
2.78251e-07
6.49516e-07
1.30872e-06
1.85377e-06
5.61158e-06
1.85687e-05
2.13408e-05
2.42634e-05
3.15477e-05
4.3676e-05
5.93026e-05
7.40011e-05
8.20298e-05
8.59091e-05
8.7995e-05
8.92428e-05
9.08237e-05
9.27345e-05
9.48442e-05
9.83241e-05
0.000102462
0.000108206
0.000116326
0.000127277
0.00014373
0.000166606
0.000201659
0.000252683
0.000327485
0.000441513
0.000613703
0.000889252
0.00129104
0.00227762
0.0061691
0.0141308
0.0269838
0.0453096
0.0698767
0.101627
0.135375
0.168473
0.20313
0.236994
0.264477
0.282908
0.305881
0.316082
0.311324
0.29891
0.273686
0.229798
0.17687
0.123158
0.0742578
0.0378996
0.0200473
0.0112307
0.00619331
0.00323137
0.00164864
0.000856372
0.000455166
0.000243867
0.000130009
6.85158e-05
3.53067e-05
1.77491e-05
8.64003e-06
4.06621e-06
1.83693e-06
7.69833e-07
2.64441e-07
-4.12098e-09
-1.70863e-07
-3.62112e-07
-8.41919e-07
-1.60784e-06
-2.66471e-06
-4.01618e-06
-5.73095e-06
-7.81106e-06
-1.01982e-05
-1.2812e-05
-1.55971e-05
-1.82875e-05
-2.08991e-05
-2.2911e-05
-2.44868e-05
-2.54179e-05
-2.56158e-05
-2.49889e-05
-2.34421e-05
-2.19458e-05
-1.97994e-05
-1.75267e-05
-1.51012e-05
-1.23418e-05
-1.01531e-05
-8.38885e-06
-6.87176e-06
-5.56357e-06
-4.44952e-06
-3.52159e-06
-2.75707e-06
-2.13625e-06
-1.64018e-06
-1.24513e-06
-9.42198e-07
-7.09559e-07
-3.71996e-07
-4.83884e-08
1.57118e-07
2.14816e-07
1.68373e-07
8.79037e-08
2.49139e-08
-1.77661e-08
-4.30523e-08
-5.46229e-08
-5.69172e-08
-5.31382e-08
-4.61464e-08
-3.48548e-08
-1.93336e-08
-8.66417e-09
-3.83296e-09
-1.87131e-09
-9.27831e-10
-4.51022e-10
-2.16308e-10
-1.01058e-10
-4.95425e-11
-2.41573e-11
-9.90544e-12
-1.51807e-12
4.77858e-12
8.12276e-12
9.54482e-12
8.159e-12
5.80369e-12
3.51463e-12
1.85862e-12
8.7943e-13
3.96232e-13
1.76787e-13
7.86076e-14
3.44101e-14
1.43669e-14
5.36892e-15
1.39889e-15
-4.66661e-16
-1.24371e-15
-1.09634e-15
-6.50424e-16
-2.88049e-16
-8.33696e-17
9.23016e-18
5.45966e-17
8.9065e-17
9.67877e-17
8.60636e-17
6.69479e-17
4.63629e-17
2.8614e-17
1.56253e-17
7.40088e-18
2.8793e-18
7.51183e-19
-5.91843e-20
-2.64836e-19
-2.109e-19
-2.28139e-18
1.23409e-17
-3.51179e-17
1.54614e-17
3.07442e-16
-1.00466e-15
-6.13259e-16
8.80962e-15
1.46001e-14
2.07357e-14
1.97803e-13
5.62426e-13
7.71295e-13
-3.29579e-13
-3.35236e-12
-6.22001e-12
-9.24449e-12
-1.99649e-11
-3.54319e-11
-2.61943e-11
9.19978e-11
2.47935e-10
4.10272e-10
6.30816e-10
1.2719e-09
1.32686e-09
3.18657e-09
6.60389e-09
1.41398e-08
3.25123e-08
8.58542e-08
2.46361e-07
8.31355e-07
2.29101e-06
4.43105e-06
6.02738e-06
7.10985e-06
8.30271e-06
9.60586e-06
1.06028e-05
1.06182e-05
9.89861e-06
8.86536e-06
7.82347e-06
6.96417e-06
6.3114e-06
5.84605e-06
5.61154e-06
5.56431e-06
5.74842e-06
6.21887e-06
7.04283e-06
8.44086e-06
1.06144e-05
1.4137e-05
1.98003e-05
2.87648e-05
4.34334e-05
6.72286e-05
0.000107977
0.000174761
0.000289804
0.000491015
0.000806832
0.00127822
0.0028998
0.00784139
0.017447
0.0325023
0.054537
0.0826682
0.116954
0.155305
0.193527
0.233132
0.270181
0.298973
0.323366
0.339255
0.337029
0.325719
0.301196
0.254644
0.195518
0.1355
0.082119
0.0426648
0.0232941
0.0139479
0.00865875
0.00539465
0.00339185
0.00217356
0.0014165
0.000922337
0.000596055
0.00037754
0.000234138
0.000140662
8.18151e-05
4.56139e-05
2.33495e-05
9.3594e-06
7.9065e-08
-6.67795e-06
-1.17498e-05
-1.6364e-05
-2.08085e-05
-2.58262e-05
-3.17379e-05
-3.81126e-05
-4.44158e-05
-5.02306e-05
-5.49321e-05
-5.88552e-05
-5.98116e-05
-5.73989e-05
-5.35456e-05
-4.86571e-05
-4.28663e-05
-3.62966e-05
-2.91906e-05
-2.16892e-05
-1.41525e-05
-7.02608e-06
2.26619e-05
6.79623e-05
0.000112336
0.000147871
0.000171865
0.000183476
0.000184905
0.000179567
0.00016758
0.000152393
0.00013559
0.000117162
9.92729e-05
8.14268e-05
6.44813e-05
4.9454e-05
3.65644e-05
2.60067e-05
1.76941e-05
1.14326e-05
6.99811e-06
3.97299e-06
2.06097e-06
9.41964e-07
3.45856e-07
6.11313e-08
-4.04291e-08
-5.40112e-08
-4.56922e-08
-2.97545e-08
-1.71321e-08
-9.29823e-09
-4.80517e-09
-2.37178e-09
-1.09649e-09
-5.07281e-10
-2.29872e-10
-9.74676e-11
-3.2533e-11
6.36694e-12
3.34124e-11
4.34639e-11
4.18172e-11
3.50064e-11
2.51793e-11
1.57116e-11
8.66265e-12
4.15023e-12
1.82845e-12
7.96251e-13
3.39853e-13
1.41791e-13
5.57221e-14
1.7985e-14
1.34622e-15
-6.43321e-15
-1.04828e-14
-1.13673e-14
-9.80139e-15
-7.19942e-15
-4.99359e-15
-3.36628e-15
-2.20505e-15
-1.40865e-15
-8.87797e-16
-5.67203e-16
-3.41072e-16
-1.59481e-16
-6.2777e-17
-1.89089e-17
-2.25638e-18
2.47715e-18
2.84596e-18
2.09357e-18
1.04997e-18
-1.02829e-18
3.55161e-18
-3.88594e-18
-2.09315e-17
1.34202e-16
-3.18635e-16
3.41469e-17
8.38715e-16
-1.89356e-15
8.44255e-16
2.26941e-14
3.22791e-14
-1.67281e-13
-6.72313e-13
-1.24756e-12
-1.61876e-12
-1.41111e-12
-8.7602e-13
2.58203e-12
1.30229e-11
3.3271e-11
6.23661e-11
1.00316e-10
1.76358e-10
3.22208e-10
4.41026e-10
4.98559e-10
6.19963e-10
9.97217e-10
2.02983e-09
5.60708e-09
2.2046e-08
7.05933e-08
1.87134e-07
6.84417e-07
1.2614e-06
1.81668e-06
2.41373e-06
2.87801e-06
3.0111e-06
2.70227e-06
2.17384e-06
1.65746e-06
1.25573e-06
9.75991e-07
7.88099e-07
6.65802e-07
5.98346e-07
5.73785e-07
5.95077e-07
6.72535e-07
8.24448e-07
1.09364e-06
1.53681e-06
2.27647e-06
3.51557e-06
5.59148e-06
9.16917e-06
1.525e-05
2.59176e-05
4.40143e-05
7.52426e-05
0.000128901
0.000218599
0.000357745
0.000614272
0.00105673
0.00170609
0.00277741
0.00632897
0.0138166
0.0264692
0.0456787
0.0732147
0.107104
0.146683
0.189459
0.233717
0.275689
0.311601
0.341225
0.35813
0.356492
0.344899
0.318836
0.269918
0.209845
0.150837
0.0999434
0.0606375
0.0381462
0.0265563
0.0196885
0.0151184
0.0117529
0.00919036
0.00712018
0.00545786
0.00406377
0.00294722
0.00208664
0.00145481
0.00100426
0.000690322
0.000475381
0.000327118
0.000225585
0.000155839
0.000109494
8.13363e-05
6.71131e-05
6.36217e-05
6.85836e-05
7.90329e-05
9.53137e-05
0.000159438
0.000460233
0.00094411
0.00153114
0.00214578
0.00272397
0.00320181
0.00354767
0.00375062
0.00381351
0.00372804
0.00350334
0.00318226
0.00281055
0.00242521
0.00204894
0.00169966
0.00138996
0.00111839
0.00088782
0.000695829
0.000536907
0.000408359
0.000305588
0.000224563
0.000161843
0.000114026
7.83675e-05
5.23703e-05
3.38482e-05
2.10746e-05
1.24959e-05
6.98212e-06
3.60269e-06
1.64649e-06
5.97997e-07
9.65922e-08
-9.83715e-08
-1.41387e-07
-1.20285e-07
-8.23018e-08
-4.84106e-08
-2.51971e-08
-1.25375e-08
-6.10047e-09
-3.09368e-09
-1.58103e-09
-7.43285e-10
-2.82045e-10
-6.17228e-11
2.815e-11
5.93921e-11
6.65245e-11
6.3846e-11
5.59054e-11
4.18574e-11
2.80888e-11
1.71166e-11
9.35339e-12
4.67256e-12
2.34554e-12
1.17437e-12
5.73111e-13
2.65532e-13
1.10003e-13
3.25161e-14
-5.57057e-15
-2.37681e-14
-3.3001e-14
-3.47868e-14
-3.12374e-14
-2.49362e-14
-1.82819e-14
-1.25046e-14
-8.04252e-15
-4.89058e-15
-2.81925e-15
-1.5372e-15
-7.87953e-16
-3.74943e-16
-1.61237e-16
-5.85737e-17
-1.39202e-17
2.75853e-18
7.34652e-18
1.43612e-19
-2.42234e-19
-4.87875e-19
3.83152e-18
-1.00974e-17
-9.99663e-18
1.38961e-16
-1.12379e-16
-9.23062e-16
1.21834e-16
1.68316e-15
-8.43653e-15
-3.17118e-14
-3.59048e-14
-1.7843e-14
7.64389e-15
7.40167e-14
3.07916e-13
7.63114e-13
1.10635e-12
9.74273e-13
6.82724e-13
8.72119e-13
2.03303e-12
3.19178e-12
6.63194e-12
8.58409e-12
1.66083e-11
4.06016e-11
1.12747e-10
3.98542e-10
1.73603e-09
5.81381e-09
1.71367e-08
5.54104e-08
1.15275e-07
2.06728e-07
3.06858e-07
3.66932e-07
3.64364e-07
3.11077e-07
2.45871e-07
1.87738e-07
1.42955e-07
1.11296e-07
9.17811e-08
8.20502e-08
7.98269e-08
8.68609e-08
1.0795e-07
1.47592e-07
2.10024e-07
3.12291e-07
4.79099e-07
7.55656e-07
1.21821e-06
1.99277e-06
3.37618e-06
5.99134e-06
1.06602e-05
1.86686e-05
3.22902e-05
5.50003e-05
9.24835e-05
0.000152558
0.000249729
0.000410552
0.00065913
0.00103827
0.00172529
0.00279602
0.0043666
0.00749487
0.0144611
0.0262647
0.0443549
0.0716939
0.106974
0.148516
0.194796
0.243753
0.289852
0.327789
0.360078
0.382789
0.38158
0.370755
0.349126
0.308769
0.258672
0.209305
0.166844
0.133274
0.108716
0.090657
0.0772448
0.0665794
0.057608
0.0500006
0.0443907
0.0397772
0.0362157
0.0330477
0.030097
0.0274661
0.0250791
0.0233054
0.0221502
0.0216344
0.0217163
0.0222076
0.0230088
0.0240244
0.0250741
0.0261929
0.027151
0.027711
0.0278008
0.0273303
0.0263112
0.0248188
0.0229161
0.0207261
0.0183828
0.0159975
0.0136751
0.0114958
0.00951356
0.00776031
0.0062463
0.00496244
0.00389383
0.00302133
0.00231543
0.0017536
0.00131213
0.000968427
0.000704746
0.000505044
0.000355861
0.000246194
0.00016693
0.00011072
7.17092e-05
4.51503e-05
2.74846e-05
1.60353e-05
8.83948e-06
4.48044e-06
1.96157e-06
5.96429e-07
-6.72272e-08
-3.30662e-07
-3.79306e-07
-3.30445e-07
-2.48044e-07
-1.66898e-07
-1.01533e-07
-5.73333e-08
-3.00627e-08
-1.53182e-08
-7.33672e-09
-3.62089e-09
-1.93335e-09
-1.10575e-09
-6.25232e-10
-3.25986e-10
-1.27546e-10
-9.6994e-12
4.54029e-11
6.5433e-11
6.15073e-11
4.78234e-11
3.32306e-11
2.14066e-11
1.30441e-11
7.61588e-12
4.29582e-12
2.34483e-12
1.22919e-12
6.00282e-13
2.53909e-13
7.08035e-14
-2.08134e-14
-6.07388e-14
-6.67065e-14
-6.01777e-14
-4.78955e-14
-3.49905e-14
-2.39095e-14
-1.54415e-14
-9.47489e-15
-5.53265e-15
-3.07096e-15
-1.61266e-15
-7.92797e-16
-3.56815e-16
-1.39443e-16
-4.03184e-17
8.09325e-18
2.02678e-20
-6.92921e-20
3.29289e-21
7.18135e-19
-3.00123e-18
4.30236e-18
6.76216e-18
-2.2321e-17
6.18976e-18
9.07671e-17
-2.09714e-16
-7.38815e-16
-6.08469e-16
-4.51302e-16
2.65734e-16
6.36822e-15
1.89283e-14
2.58535e-14
2.00546e-14
1.80767e-14
1.8972e-14
1.99986e-14
2.77364e-14
5.38297e-14
9.00148e-14
1.53567e-13
2.40205e-13
5.90012e-13
1.90531e-12
6.7638e-12
2.97561e-11
1.43029e-10
5.06973e-10
1.68246e-09
5.53752e-09
1.07556e-08
1.66799e-08
2.20409e-08
2.48926e-08
2.47843e-08
2.22057e-08
1.89216e-08
1.59481e-08
1.40532e-08
1.45073e-08
1.7683e-08
2.20976e-08
2.82279e-08
4.51747e-08
7.30855e-08
1.18323e-07
1.90186e-07
3.0381e-07
4.83889e-07
7.69267e-07
1.22393e-06
2.0288e-06
3.47553e-06
5.84424e-06
9.69747e-06
1.6033e-05
2.63535e-05
4.27902e-05
6.84874e-05
0.000108651
0.00016947
0.000261739
0.000403128
0.00061377
0.000928699
0.00140623
0.00207239
0.00316714
0.00497267
0.00752727
0.0115255
0.0192067
0.0319054
0.0513042
0.0805301
0.118287
0.162717
0.211387
0.262383
0.311675
0.352258
0.380157
0.407772
0.421772
0.418675
0.409569
0.394325
0.371702
0.347146
0.32465
0.306312
0.290779
0.278212
0.266559
0.25623
0.245145
0.233852
0.221788
0.209494
0.197603
0.18606
0.175623
0.16618
0.157573
0.149627
0.141868
0.134263
0.126759
0.119097
0.111361
0.103297
0.0949046
0.086273
0.0774442
0.0685846
0.0599059
0.0515624
0.0437317
0.0365583
0.0301275
0.0244861
0.0196364
0.0155447
0.0121531
0.00938707
0.00716342
0.00540115
0.00402374
0.00296011
0.00214889
0.00153833
0.00108472
0.000752445
0.000512803
0.000342802
0.000224275
0.000143414
8.93491e-05
5.4042e-05
3.15441e-05
1.75505e-05
9.12981e-06
4.21357e-06
1.46026e-06
1.73317e-08
-6.66639e-07
-9.09839e-07
-9.22294e-07
-8.14746e-07
-6.59711e-07
-4.97819e-07
-3.53477e-07
-2.36365e-07
-1.50892e-07
-9.1661e-08
-5.49681e-08
-3.24624e-08
-1.9018e-08
-1.10848e-08
-6.43705e-09
-3.62237e-09
-1.9059e-09
-8.66942e-10
-2.82193e-10
3.36446e-12
1.13344e-10
1.33212e-10
1.15242e-10
8.68286e-11
6.0161e-11
3.92897e-11
2.44882e-11
1.46438e-11
8.39663e-12
4.58344e-12
2.34172e-12
1.07942e-12
4.06848e-13
7.73941e-14
-6.20327e-14
-9.82474e-14
-9.57144e-14
-7.82327e-14
-5.79607e-14
-4.0039e-14
-2.61658e-14
-1.62875e-14
-9.68217e-15
-5.4938e-15
-2.96385e-15
-1.50684e-15
-7.08946e-16
-2.96462e-16
-9.97818e-17
4.26516e-18
3.01305e-21
-5.3754e-21
-2.2488e-20
1.20659e-19
-2.83525e-19
3.15047e-19
3.30151e-19
-2.7183e-18
1.91528e-18
2.06055e-17
1.59567e-17
-3.61438e-17
-6.35923e-17
-3.21182e-17
2.03769e-17
1.19839e-16
1.97032e-16
2.34488e-16
2.4981e-16
2.50061e-16
2.62119e-16
2.70955e-16
4.20016e-16
9.40088e-16
1.95565e-15
3.67915e-15
7.76924e-15
2.48772e-14
9.97441e-14
4.31847e-13
2.24621e-12
1.16487e-11
4.43377e-11
1.66758e-10
5.60495e-10
1.12387e-09
1.77069e-09
2.37585e-09
2.72436e-09
2.75736e-09
2.6254e-09
2.01769e-09
2.33599e-09
4.47052e-09
1.11337e-08
3.11728e-08
6.42278e-08
1.13269e-07
2.1e-07
3.96167e-07
6.68282e-07
1.01217e-06
1.43257e-06
1.95463e-06
2.60909e-06
3.50814e-06
4.86322e-06
6.87308e-06
9.91808e-06
1.43505e-05
2.05675e-05
2.93541e-05
4.29435e-05
6.66394e-05
0.000103126
0.000157784
0.000237822
0.000355881
0.000528704
0.000771881
0.00111624
0.00158608
0.00222844
0.00316496
0.0045036
0.00629975
0.00904432
0.0132593
0.0194452
0.0293055
0.0444287
0.0673927
0.0995575
0.139371
0.185518
0.235346
0.28499
0.333272
0.37729
0.40911
0.431161
0.452668
0.474023
0.490603
0.496921
0.500703
0.502595
0.504
0.503614
0.501437
0.496251
0.487993
0.475952
0.460109
0.442085
0.422313
0.401443
0.379563
0.356813
0.333359
0.309396
0.285442
0.261661
0.23795
0.214526
0.191398
0.168798
0.147039
0.126388
0.107147
0.0895749
0.0738231
0.0599813
0.048057
0.0379771
0.0296098
0.0227831
0.0173033
0.0129722
0.00959917
0.00700985
0.00505003
0.00358493
0.00250681
0.00172303
0.00116291
0.000769717
0.000498409
0.000314457
0.000192369
0.000113722
6.47887e-05
3.50983e-05
1.73915e-05
6.96932e-06
1.97699e-06
-5.8379e-08
-9.92951e-07
-1.40865e-06
-1.54278e-06
-1.53546e-06
-1.43639e-06
-1.25338e-06
-1.04448e-06
-8.37225e-07
-6.4643e-07
-4.80725e-07
-3.43419e-07
-2.36614e-07
-1.56844e-07
-1.01599e-07
-6.4183e-08
-3.95791e-08
-2.3684e-08
-1.36267e-08
-7.38279e-09
-3.64565e-09
-1.53319e-09
-4.39543e-10
5.69265e-11
2.3091e-10
2.5103e-10
2.12434e-10
1.59076e-10
1.10164e-10
7.19665e-11
4.47593e-11
2.65815e-11
1.50419e-11
8.04832e-12
4.00581e-12
1.79034e-12
6.53996e-13
1.25522e-13
-8.05024e-14
-1.28021e-13
-1.18863e-13
-9.55855e-14
-6.73784e-14
-4.44429e-14
-2.77776e-14
-1.65602e-14
-9.4318e-15
-5.11689e-15
-2.62185e-15
-1.24621e-15
-5.28131e-16
-1.78962e-16
-2.57318e-17
3.86232e-17
2.11186e-20
4.54406e-20
-4.19753e-19
1.20988e-18
-1.35695e-18
-2.03479e-18
4.51219e-18
1.16825e-17
-3.14628e-17
9.21545e-18
5.34722e-16
6.30234e-16
-2.17309e-15
-6.00016e-15
-4.96138e-15
-2.2721e-15
9.67291e-16
4.4529e-15
7.44899e-15
9.78905e-15
1.11307e-14
1.13671e-14
1.09018e-14
9.93934e-15
8.59605e-15
6.94723e-15
5.2202e-15
4.28146e-15
7.91065e-15
3.05528e-14
1.42131e-13
9.08054e-13
3.89103e-12
1.66688e-11
5.70119e-11
1.15276e-10
1.82439e-10
2.48955e-10
2.94125e-10
3.88315e-10
6.72873e-10
2.20786e-10
3.0747e-09
1.3197e-08
5.0728e-08
1.2498e-07
2.86446e-07
5.78702e-07
1.17539e-06
2.11827e-06
3.23685e-06
4.56964e-06
6.2989e-06
8.5051e-06
1.11327e-05
1.42913e-05
1.83755e-05
2.35271e-05
3.0463e-05
3.95614e-05
5.21414e-05
6.93788e-05
9.36906e-05
0.000127912
0.000175799
0.00024334
0.000337588
0.000460881
0.000614088
0.000818143
0.00112658
0.00156249
0.00215113
0.00293421
0.00398779
0.00533589
0.00706241
0.00943442
0.0127258
0.0170755
0.0230035
0.0323474
0.0465869
0.0654
0.0914269
0.125227
0.165027
0.209053
0.256202
0.302779
0.346112
0.386102
0.422666
0.456641
0.48286
0.498555
0.514946
0.532195
0.547723
0.559142
0.562569
0.562299
0.560447
0.556449
0.549539
0.538675
0.523074
0.502787
0.477923
0.450815
0.421895
0.389381
0.35308
0.315351
0.277569
0.240699
0.205575
0.172891
0.143158
0.116694
0.0936361
0.0739734
0.0575441
0.0440891
0.0332803
0.0247489
0.0181302
0.0130822
0.00929569
0.00650194
0.00447443
0.00302554
0.0020008
0.00129315
0.000815005
0.000500663
0.000299135
0.000172669
9.36559e-05
4.62497e-05
2.29763e-05
1.13881e-05
5.31227e-06
2.06275e-06
2.73032e-07
-7.49818e-07
-1.32941e-06
-1.49445e-06
-1.47739e-06
-1.38227e-06
-1.26495e-06
-1.10617e-06
-9.41103e-07
-7.87351e-07
-6.46533e-07
-5.21271e-07
-4.10575e-07
-3.14138e-07
-2.3115e-07
-1.63689e-07
-1.11011e-07
-7.20736e-08
-4.4743e-08
-2.63268e-08
-1.44397e-08
-7.21449e-09
-3.11837e-09
-1.00418e-09
-4.36901e-11
3.18237e-10
3.71702e-10
3.25166e-10
2.61152e-10
1.87556e-10
1.25581e-10
7.94798e-11
4.77491e-11
2.72029e-11
1.46055e-11
7.2905e-12
3.2851e-12
1.24145e-12
2.97049e-13
-8.74918e-14
-1.56744e-13
-1.40956e-13
-1.12534e-13
-7.88776e-14
-5.08521e-14
-3.05771e-14
-1.72941e-14
-9.21108e-15
-4.58615e-15
-2.09025e-15
-8.26166e-16
-2.35557e-16
8.11417e-18
8.51604e-17
9.32253e-17
6.46446e-17
-2.80363e-19
6.97687e-19
1.83823e-19
-4.57196e-18
1.63243e-17
-3.48082e-17
8.46709e-18
1.74809e-16
-1.97111e-16
-1.97182e-15
3.98659e-17
8.18099e-15
-1.52474e-15
-8.5925e-14
-2.42973e-13
-3.7573e-13
-3.54504e-13
-2.49079e-13
-1.09651e-13
1.25119e-13
4.63159e-13
6.63279e-13
8.06473e-13
9.07879e-13
9.72106e-13
9.99672e-13
9.8995e-13
9.4448e-13
8.71176e-13
7.89638e-13
7.33226e-13
8.57098e-13
1.24364e-12
2.45336e-12
7.39176e-12
1.54551e-11
2.44576e-11
3.49326e-11
6.90175e-11
5.77103e-10
3.04668e-09
4.86867e-09
1.32252e-08
3.95966e-08
1.07225e-07
2.43572e-07
6.54064e-07
1.51578e-06
3.1203e-06
4.93381e-06
7.53749e-06
1.16962e-05
1.75122e-05
2.50754e-05
3.47544e-05
4.75851e-05
6.53222e-05
8.92329e-05
0.000121526
0.000161682
0.000211926
0.000271738
0.000342939
0.000427287
0.000527821
0.000650634
0.000801484
0.000987827
0.00121921
0.00151445
0.00190517
0.00242371
0.00310812
0.00400308
0.00516843
0.0065909
0.00830421
0.0103453
0.0130251
0.0163668
0.020456
0.0257823
0.0330294
0.0425056
0.0552962
0.0726008
0.0950495
0.122611
0.15522
0.191433
0.230429
0.270272
0.309772
0.348147
0.384381
0.416882
0.446495
0.473219
0.49731
0.518578
0.537095
0.552363
0.563544
0.567034
0.565728
0.560632
0.547712
0.528334
0.502917
0.47171