/*--------------------------------*- C++ -*----------------------------------*\
| =========                 |                                                 |
| \\      /  F ield         | OpenFOAM: The Open Source CFD Toolbox           |
|  \\    /   O peration     | Version:  2506                                  |
|   \\  /    A nd           | Website:  www.openfoam.com                      |
|    \\/     M anipulation  |                                                 |
\*---------------------------------------------------------------------------*/
FoamFile
{
    version     2.0;
    format      ascii;
    arch        "LSB;label=32;scalar=64";
    class       volScalarField;
    location    "4.2";
    object      p;
}
// * * * * * * * * * * * * * * * * * * * * * * * * * * * * * * * * * * * * * //

dimensions      [0 2 -2 0 0 0 0];

internalField   nonuniform List<scalar> 
4000
(
0.000572078
0.00051416
0.000482802
0.000469248
0.000461042
0.000455334
0.000451366
0.000448409
0.000445986
0.000443871
0.00044195
0.000440158
0.00043845
0.000436801
0.000435197
0.00043363
0.0004321
0.000430611
0.000429168
0.000427778
0.000426447
0.000425184
0.000423995
0.000422887
0.000421869
0.000420947
0.000420131
0.000419427
0.000418846
0.000418396
0.000418089
0.000417944
0.000417979
0.000418071
0.000418723
0.00041981
0.000420508
0.000420632
0.000420155
0.00041881
0.000416305
0.000411452
0.000404333
0.000395752
0.00038575
0.000374522
0.000362182
0.000348617
0.000334448
0.000319537
0.000304126
0.000288713
0.0002731
0.000258222
0.000243633
0.000230325
0.000218184
0.000207408
0.000198701
0.000191007
0.000185782
0.000181879
0.000179568
0.000178755
0.000178869
0.000180231
0.000182097
0.000184768
0.000187721
0.000191035
0.000194515
0.000198004
0.000201551
0.000204966
0.000208235
0.00021133
0.000214181
0.000216779
0.000219133
0.000221234
0.0002231
0.000224763
0.000226249
0.00022759
0.000228818
0.000229954
0.000231023
0.000232044
0.000233022
0.000233967
0.000234887
0.000235775
0.000236637
0.000237475
0.000238281
0.000239066
0.00023982
0.000240554
0.000241259
0.000241945
0.000242609
0.000243262
0.000243904
0.000244538
0.000245169
0.00024579
0.000246409
0.000247013
0.000247602
0.000248163
0.000248682
0.000249135
0.000249504
0.000249739
0.00024983
0.000249693
0.000249303
0.000248599
0.000247499
0.000245961
0.000243917
0.000241284
0.000238022
0.000234089
0.000229413
0.000223983
0.000217776
0.000210782
0.000203017
0.000194495
0.000185196
0.000175248
0.000164665
0.000153386
0.000141674
0.000129553
0.000116802
0.000104077
9.0968e-05
7.79257e-05
6.49716e-05
5.23333e-05
4.02303e-05
2.90218e-05
1.85718e-05
9.89778e-06
2.0787e-06
-3.48763e-06
-7.63351e-06
-1.01851e-05
-1.09256e-05
-1.0682e-05
-8.79719e-06
-6.29196e-06
-2.72092e-06
1.16851e-06
5.62369e-06
1.01369e-05
1.47279e-05
1.91179e-05
2.40008e-05
2.76131e-05
3.06932e-05
3.32465e-05
3.53444e-05
3.6824e-05
3.77768e-05
3.76675e-05
3.6875e-05
3.57912e-05
3.45369e-05
3.3224e-05
3.19428e-05
3.07451e-05
2.96479e-05
2.86413e-05
2.76964e-05
2.67737e-05
2.58314e-05
2.48324e-05
2.37492e-05
2.25662e-05
2.12804e-05
1.98993e-05
1.8439e-05
1.69208e-05
1.53747e-05
1.38229e-05
1.22913e-05
1.08027e-05
9.37634e-06
8.02711e-06
6.76503e-06
5.59512e-06
4.51747e-06
3.5277e-06
2.61756e-06
1.77461e-06
9.84275e-07
2.7596e-07
0.000520417
0.000497288
0.000479378
0.000469583
0.000462713
0.000457152
0.000452879
0.000449587
0.000446899
0.00044458
0.000442511
0.000440614
0.000438834
0.000437136
0.000435498
0.00043391
0.000432366
0.000430867
0.000429418
0.000428023
0.000426691
0.000425426
0.000424238
0.000423134
0.00042212
0.000421205
0.000420396
0.000419704
0.000419136
0.000418703
0.000418416
0.000418291
0.000418347
0.000418435
0.000418954
0.000419789
0.000420113
0.000419763
0.000418663
0.000416497
0.000412975
0.000407181
0.00039943
0.000390422
0.000380145
0.000368768
0.000356412
0.00034302
0.000329164
0.000314723
0.000299935
0.000285246
0.000270493
0.000256525
0.000242978
0.000230624
0.000219294
0.000209152
0.000200825
0.000193435
0.000188188
0.000184174
0.000181589
0.000180413
0.000180135
0.000181058
0.000182521
0.000184793
0.000187411
0.000190421
0.000193666
0.000196971
0.000200383
0.000203725
0.000206965
0.000210077
0.000212987
0.000215672
0.00021813
0.000220343
0.000222319
0.00022408
0.000225646
0.000227047
0.000228317
0.000229479
0.00023056
0.000231587
0.000232567
0.000233513
0.000234438
0.000235336
0.000236212
0.000237071
0.000237902
0.000238716
0.000239502
0.000240271
0.000241015
0.000241748
0.000242457
0.000243154
0.000243834
0.0002445
0.000245158
0.000245797
0.000246427
0.000247029
0.000247602
0.000248129
0.000248591
0.000248963
0.000249218
0.000249304
0.000249207
0.000248837
0.000248169
0.000247138
0.000245664
0.000243709
0.000241204
0.00023808
0.000234302
0.000229835
0.000224625
0.000218672
0.000211966
0.000204508
0.000196328
0.000187454
0.000177876
0.000167741
0.000157066
0.000145809
0.000134203
0.000122255
0.000109856
9.75276e-05
8.49708e-05
7.25694e-05
6.03818e-05
4.85994e-05
3.74333e-05
2.71582e-05
1.77638e-05
9.88448e-06
2.85146e-06
-2.25521e-06
-6.07116e-06
-8.48407e-06
-9.25295e-06
-9.12308e-06
-7.48158e-06
-5.24593e-06
-1.98821e-06
1.60136e-06
5.76564e-06
1.00327e-05
1.4451e-05
1.86237e-05
2.34879e-05
2.71689e-05
3.03278e-05
3.29622e-05
3.50891e-05
3.65164e-05
3.7358e-05
3.71773e-05
3.63795e-05
3.53099e-05
3.40643e-05
3.27515e-05
3.14689e-05
3.02733e-05
2.91851e-05
2.81964e-05
2.72794e-05
2.63943e-05
2.54978e-05
2.45505e-05
2.35224e-05
2.23951e-05
2.11628e-05
1.9831e-05
1.84142e-05
1.69337e-05
1.54148e-05
1.38826e-05
1.2363e-05
1.08795e-05
9.45255e-06
8.09822e-06
6.82804e-06
5.64855e-06
4.56126e-06
3.56299e-06
2.64629e-06
1.79918e-06
1.00539e-06
2.90236e-07
0.000496094
0.000488521
0.000477951
0.000469982
0.000463708
0.000458589
0.0004543
0.000450808
0.0004479
0.000445386
0.00044316
0.000441139
0.000439266
0.000437499
0.000435812
0.000434186
0.000432614
0.000431094
0.000429627
0.000428219
0.000426874
0.0004256
0.000424403
0.000423291
0.000422271
0.000421351
0.000420539
0.000419843
0.000419272
0.000418836
0.000418545
0.000418407
0.000418442
0.000418472
0.000418823
0.000419369
0.000419282
0.000418406
0.000416664
0.000413719
0.000409349
0.000402888
0.000394789
0.000385614
0.000375314
0.000364032
0.000351908
0.000338937
0.000325632
0.000311887
0.000297922
0.000284136
0.000270437
0.000257431
0.000244858
0.000233327
0.000222723
0.00021314
0.000205108
0.000197895
0.000192488
0.000188192
0.00018517
0.000183464
0.000182626
0.00018297
0.00018389
0.000185657
0.000187836
0.000190466
0.000193409
0.000196467
0.000199703
0.000202925
0.000206098
0.000209192
0.000212123
0.00021486
0.000217392
0.000219691
0.000221753
0.000223595
0.000225228
0.00022668
0.000227983
0.000229162
0.000230248
0.000231273
0.000232245
0.000233185
0.000234108
0.000235007
0.000235892
0.000236767
0.000237616
0.000238458
0.00023927
0.000240072
0.000240845
0.000241608
0.000242343
0.000243069
0.000243774
0.000244463
0.00024514
0.000245787
0.000246419
0.000247007
0.000247553
0.00024803
0.00024842
0.000248689
0.000248812
0.000248727
0.000248421
0.0002478
0.000246839
0.000245476
0.000243634
0.000241278
0.000238349
0.000234786
0.000230567
0.000225666
0.000220045
0.000213714
0.000206677
0.000198943
0.000190551
0.000181533
0.000171905
0.000161781
0.000151194
0.000140129
0.000128789
0.000117194
0.000105294
9.35105e-05
8.16318e-05
6.99734e-05
5.86158e-05
4.7707e-05
3.74321e-05
2.79864e-05
1.93628e-05
1.20671e-05
5.57021e-06
7.16282e-07
-2.97974e-06
-5.46542e-06
-6.45556e-06
-6.63569e-06
-5.38432e-06
-3.56237e-06
-7.06651e-07
2.49487e-06
6.3222e-06
1.0293e-05
1.45288e-05
1.84323e-05
2.33159e-05
2.69502e-05
3.01166e-05
3.27839e-05
3.491e-05
3.62469e-05
3.69686e-05
3.66886e-05
3.58524e-05
3.4771e-05
3.35092e-05
3.21769e-05
3.08819e-05
2.96869e-05
2.86139e-05
2.76554e-05
2.6782e-05
2.59513e-05
2.51164e-05
2.42342e-05
2.32712e-05
2.22061e-05
2.1031e-05
1.97495e-05
1.83753e-05
1.69293e-05
1.54341e-05
1.39183e-05
1.24078e-05
1.0927e-05
9.49769e-06
8.13751e-06
6.85948e-06
5.67159e-06
4.57661e-06
3.57225e-06
2.65152e-06
1.80239e-06
1.0065e-06
2.87237e-07
0.000485107
0.000482321
0.000475868
0.000469375
0.000464066
0.000459515
0.000455385
0.000451922
0.000448908
0.000446246
0.000443879
0.000441724
0.000439737
0.00043788
0.00043612
0.000434436
0.000432817
0.000431259
0.000429759
0.000428321
0.00042695
0.00042565
0.000424428
0.00042329
0.000422244
0.000421296
0.000420454
0.000419725
0.000419117
0.000418637
0.000418291
0.000418081
0.000418017
0.000417917
0.000418065
0.00041832
0.000417844
0.000416484
0.000414178
0.000410622
0.000405671
0.000398832
0.000390594
0.00038142
0.000371261
0.000360256
0.000348555
0.000336192
0.000323651
0.000310752
0.000297738
0.000284995
0.000272436
0.000260478
0.000248988
0.000238272
0.000228398
0.000219362
0.000211568
0.000204459
0.000198802
0.000194113
0.000190531
0.000188146
0.000186605
0.000186212
0.000186438
0.000187551
0.000189157
0.000191284
0.000193813
0.000196529
0.000199504
0.000202533
0.000205572
0.000208593
0.000211496
0.000214243
0.000216815
0.000219174
0.000221302
0.000223209
0.0002249
0.000226394
0.000227724
0.000228912
0.000229994
0.000231008
0.000231963
0.000232885
0.000233797
0.000234692
0.000235578
0.000236465
0.00023733
0.000238198
0.000239037
0.000239872
0.000240674
0.000241472
0.000242236
0.000242992
0.000243721
0.000244428
0.000245119
0.000245768
0.000246392
0.000246956
0.000247459
0.000247871
0.000248168
0.000248315
0.00024828
0.000247999
0.00024746
0.000246566
0.000245294
0.000243587
0.000241372
0.000238622
0.00023529
0.000231324
0.000226713
0.000221445
0.000215496
0.000208885
0.000201628
0.000193744
0.000185277
0.000176268
0.000166742
0.000156794
0.000146483
0.000135803
0.000124914
0.000113868
0.000102648
9.15788e-05
8.05259e-05
6.97314e-05
5.9284e-05
4.92869e-05
3.98936e-05
3.12494e-05
2.32804e-05
1.64454e-05
1.03211e-05
5.52821e-06
1.73603e-06
-1.03411e-06
-2.46842e-06
-3.15716e-06
-2.49142e-06
-1.24396e-06
1.06776e-06
3.7756e-06
7.18396e-06
1.0797e-05
1.48217e-05
1.84571e-05
2.33398e-05
2.68945e-05
3.00078e-05
3.2658e-05
3.47555e-05
3.59873e-05
3.65867e-05
3.61854e-05
3.52717e-05
3.41469e-05
3.28496e-05
3.14886e-05
3.01811e-05
2.89935e-05
2.79466e-05
2.70302e-05
2.6211e-05
2.5442e-05
2.46721e-05
2.38544e-05
2.29527e-05
2.19441e-05
2.08194e-05
1.95819e-05
1.82451e-05
1.68298e-05
1.53601e-05
1.38638e-05
1.23676e-05
1.08965e-05
9.47312e-06
8.11605e-06
6.83931e-06
5.6518e-06
4.55701e-06
3.55309e-06
2.63308e-06
1.78497e-06
9.9021e-07
2.70272e-07
0.000478384
0.000477057
0.000473083
0.000468389
0.000464063
0.000459996
0.000456256
0.000452935
0.000449862
0.000447129
0.00044467
0.000442375
0.000440262
0.0004383
0.000436446
0.000434681
0.000432995
0.00043138
0.00042983
0.000428345
0.000426929
0.000425586
0.000424319
0.000423135
0.000422039
0.000421037
0.000420135
0.00041934
0.000418656
0.000418088
0.000417636
0.000417295
0.000417067
0.000416781
0.00041668
0.000416608
0.000415746
0.000413938
0.000411142
0.000407106
0.000401751
0.000394707
0.000386463
0.000377408
0.00036752
0.000356938
0.000345812
0.000334221
0.000322485
0.00031054
0.000298672
0.000287074
0.000275708
0.000264859
0.000254449
0.000244681
0.000235592
0.000227168
0.000219677
0.000212735
0.000206892
0.000201852
0.000197719
0.00019462
0.000192318
0.000191076
0.000190481
0.000190782
0.000191655
0.00019312
0.000195079
0.000197313
0.000199896
0.000202617
0.000205424
0.000208284
0.000211087
0.000213784
0.000216349
0.000218729
0.000220897
0.000222851
0.000224587
0.000226116
0.000227467
0.000228661
0.000229733
0.00023073
0.00023166
0.000232558
0.000233452
0.000234335
0.000235218
0.000236118
0.000237
0.000237899
0.000238768
0.000239642
0.000240478
0.000241318
0.000242112
0.000242899
0.000243649
0.000244369
0.000245065
0.0002457
0.000246299
0.000246813
0.000247244
0.000247557
0.000247722
0.000247703
0.000247465
0.000246941
0.000246125
0.000244915
0.000243298
0.000241221
0.00023862
0.000235476
0.000231756
0.000227419
0.000222468
0.000216901
0.000210709
0.000203921
0.000196561
0.000188658
0.000180259
0.000171409
0.00016214
0.000152534
0.000142689
0.000132559
0.000122261
0.000111922
0.000101524
9.12928e-05
8.11618e-05
7.13051e-05
6.18069e-05
5.27322e-05
4.41961e-05
3.62836e-05
2.89576e-05
2.25228e-05
1.66926e-05
1.18878e-05
7.90849e-06
4.76554e-06
2.76917e-06
1.45634e-06
1.38007e-06
1.9077e-06
3.50668e-06
5.57789e-06
8.42686e-06
1.15712e-05
1.52986e-05
1.86331e-05
2.34272e-05
2.68664e-05
2.98512e-05
3.24195e-05
3.44447e-05
3.55445e-05
3.60037e-05
3.54675e-05
3.44657e-05
3.32982e-05
3.19766e-05
3.0603e-05
2.93003e-05
2.81362e-05
2.71283e-05
2.6262e-05
2.54999e-05
2.47911e-05
2.4081e-05
2.33209e-05
2.24737e-05
2.15165e-05
2.04401e-05
1.92482e-05
1.79549e-05
1.65811e-05
1.51502e-05
1.36901e-05
1.22266e-05
1.07843e-05
9.38568e-06
8.04912e-06
6.78887e-06
5.61421e-06
4.52897e-06
3.53154e-06
2.61525e-06
1.76853e-06
9.74985e-07
2.48813e-07
0.000473899
0.000473143
0.000470579
0.000467174
0.000463684
0.000460231
0.000456884
0.000453692
0.000450652
0.000447938
0.000445435
0.000443009
0.000440786
0.000438725
0.000436764
0.000434909
0.000433146
0.000431459
0.000429843
0.000428297
0.00042682
0.000425415
0.000424084
0.000422832
0.000421663
0.00042058
0.000419589
0.000418693
0.000417895
0.000417196
0.000416592
0.000416072
0.000415631
0.000415115
0.000414725
0.000414291
0.000413048
0.000410834
0.000407624
0.00040322
0.000397593
0.000390473
0.000382329
0.000373494
0.000363982
0.000353932
0.000343488
0.000332747
0.000321838
0.000310972
0.000300309
0.000289869
0.000279691
0.000269965
0.000260643
0.000251835
0.000243545
0.000235791
0.000228702
0.000222017
0.000216125
0.000210869
0.000206299
0.000202579
0.000199584
0.000197507
0.000196059
0.000195469
0.000195503
0.000196173
0.000197414
0.00019902
0.000201059
0.000203333
0.000205778
0.00020836
0.000210959
0.000213517
0.000215997
0.000218339
0.000220499
0.000222467
0.000224225
0.000225775
0.000227141
0.000228337
0.000229397
0.000230374
0.000231274
0.000232142
0.000233013
0.00023388
0.000234758
0.000235671
0.000236572
0.000237508
0.000238414
0.000239336
0.000240215
0.0002411
0.000241926
0.000242742
0.000243507
0.000244227
0.000244908
0.000245504
0.000246044
0.00024647
0.000246782
0.000246945
0.000246923
0.000246681
0.000246184
0.000245366
0.000244226
0.000242663
0.000240675
0.000238217
0.000235233
0.000231718
0.000227649
0.000223
0.000217786
0.000212014
0.000205689
0.000198845
0.000191514
0.000183732
0.000175545
0.000167001
0.000158133
0.000149013
0.000139775
0.000130266
0.000120728
0.0001112
0.000101684
9.2344e-05
8.31599e-05
7.42474e-05
6.56767e-05
5.74847e-05
4.97501e-05
4.25174e-05
3.57726e-05
2.96896e-05
2.41107e-05
1.92842e-05
1.50987e-05
1.15792e-05
9.00352e-06
7.03963e-06
6.15176e-06
5.87899e-06
6.64105e-06
7.95257e-06
1.01001e-05
1.26524e-05
1.59539e-05
1.89278e-05
2.34825e-05
2.67294e-05
2.95251e-05
3.19379e-05
3.3834e-05
3.47711e-05
3.5072e-05
3.4405e-05
3.33307e-05
3.21444e-05
3.08303e-05
2.94777e-05
2.82096e-05
2.70918e-05
2.61371e-05
2.53263e-05
2.46183e-05
2.39602e-05
2.32969e-05
2.25807e-05
2.17769e-05
2.08646e-05
1.98356e-05
1.86945e-05
1.74565e-05
1.61418e-05
1.4773e-05
1.3375e-05
1.19718e-05
1.05862e-05
9.23859e-06
7.94613e-06
6.7223e-06
5.57614e-06
4.51147e-06
3.52686e-06
2.61631e-06
1.76932e-06
9.73566e-07
2.29033e-07
0.000470891
0.000470402
0.000468623
0.000466048
0.000463184
0.000460205
0.000457184
0.000454199
0.000451313
0.000448591
0.000446007
0.000443535
0.000441266
0.000439121
0.000437043
0.000435098
0.000433255
0.00043149
0.000429799
0.000428181
0.000426631
0.000425149
0.000423738
0.000422399
0.000421135
0.000419947
0.000418838
0.000417811
0.000416865
0.000415997
0.000415202
0.000414462
0.00041377
0.000412991
0.000412282
0.000411468
0.000409858
0.000407289
0.000403742
0.000399068
0.00039328
0.000386188
0.000378232
0.0003697
0.000360643
0.000351196
0.000341491
0.000331611
0.000321679
0.000311911
0.000302349
0.000293035
0.000284008
0.000275369
0.000267088
0.0002592
0.000251686
0.000244619
0.000238012
0.000231646
0.000225851
0.000220533
0.000215659
0.000211472
0.000207945
0.000205156
0.000202923
0.000201464
0.000200641
0.000200458
0.000200887
0.000201753
0.000203116
0.000204804
0.00020675
0.000208916
0.000211184
0.000213489
0.000215782
0.000217999
0.00022008
0.000222005
0.000223745
0.00022529
0.000226655
0.000227845
0.00022889
0.000229846
0.000230718
0.000231555
0.000232399
0.000233249
0.000234119
0.000235045
0.000235966
0.000236942
0.00023789
0.000238866
0.00023979
0.000240724
0.000241581
0.00024242
0.000243184
0.000243882
0.000244519
0.000245036
0.000245471
0.000245756
0.000245893
0.000245846
0.000245577
0.000245055
0.000244247
0.000243092
0.000241594
0.000239661
0.000237299
0.000234474
0.000231141
0.000227307
0.00022296
0.000218087
0.000212711
0.000206851
0.000200516
0.000193748
0.000186583
0.000179057
0.000171217
0.000163108
0.000154766
0.00014626
0.000137622
0.000128863
0.000120172
0.00011149
0.000102858
9.44077e-05
8.61411e-05
7.81272e-05
7.04184e-05
6.3034e-05
5.60212e-05
4.93987e-05
4.31595e-05
3.73841e-05
3.20375e-05
2.72082e-05
2.28172e-05
1.89562e-05
1.58473e-05
1.32638e-05
1.15693e-05
1.04808e-05
1.03467e-05
1.08214e-05
1.21593e-05
1.40179e-05
1.67374e-05
1.92829e-05
2.34215e-05
2.63957e-05
2.89304e-05
3.11124e-05
3.28178e-05
3.35669e-05
3.37009e-05
3.29279e-05
3.18175e-05
3.06515e-05
2.93891e-05
2.81018e-05
2.69056e-05
2.58604e-05
2.49731e-05
2.42202e-05
2.35583e-05
2.29352e-05
2.22993e-05
2.16075e-05
2.08314e-05
1.99554e-05
1.89728e-05
1.78895e-05
1.67224e-05
1.549e-05
1.42115e-05
1.29075e-05
1.1598e-05
1.0302e-05
9.03652e-06
7.81563e-06
6.65115e-06
5.5513e-06
4.51945e-06
3.55423e-06
2.65069e-06
1.80002e-06
9.95564e-07
2.15772e-07
0.000468893
0.000468534
0.000467188
0.000465132
0.000462706
0.000460069
0.000457306
0.000454503
0.000451729
0.000449036
0.000446446
0.000443966
0.000441619
0.000439388
0.000437255
0.000435233
0.000433309
0.000431466
0.000429698
0.000428
0.000426369
0.000424802
0.000423299
0.000421858
0.000420481
0.000419168
0.00041792
0.000416736
0.000415614
0.000414549
0.000413531
0.000412541
0.000411567
0.000410502
0.000409454
0.000408252
0.000406295
0.000403422
0.000399609
0.000394753
0.000388894
0.000381916
0.000374218
0.000366053
0.000357505
0.000348708
0.000339771
0.00033077
0.000321846
0.000313112
0.000304609
0.000296372
0.000288424
0.000280796
0.000273472
0.000266443
0.0002597
0.00025325
0.000247092
0.000241124
0.000235583
0.000230337
0.00022526
0.000220756
0.000216897
0.000213572
0.000210679
0.000208453
0.000206828
0.000205811
0.000205408
0.000205483
0.000206083
0.000207079
0.000208407
0.000210029
0.000211837
0.000213759
0.000215745
0.000217729
0.000219638
0.000221441
0.0002231
0.000224594
0.000225926
0.000227093
0.000228114
0.000229047
0.000229889
0.000230696
0.000231513
0.000232344
0.000233203
0.000234138
0.000235075
0.000236088
0.000237073
0.000238098
0.000239063
0.000240039
0.000240913
0.000241756
0.000242494
0.000243137
0.000243687
0.00024408
0.000244355
0.000244443
0.000244346
0.000244033
0.000243465
0.00024262
0.000241467
0.000239954
0.000238093
0.000235802
0.000233097
0.000229955
0.000226342
0.000222271
0.000217745
0.00021276
0.000207346
0.000201524
0.000195312
0.000188752
0.00018188
0.000174733
0.000167351
0.000159775
0.000152042
0.00014421
0.000136233
0.000128301
0.000120414
0.000112556
0.000104783
9.71831e-05
8.97668e-05
8.25726e-05
7.56352e-05
6.89651e-05
6.25823e-05
5.64915e-05
5.06826e-05
4.51685e-05
4.00435e-05
3.52455e-05
3.06538e-05
2.64969e-05
2.29294e-05
1.97896e-05
1.73418e-05
1.54683e-05
1.44328e-05
1.40374e-05
1.44957e-05
1.55981e-05
1.75783e-05
1.96142e-05
2.31628e-05
2.5778e-05
2.79875e-05
2.98723e-05
3.13299e-05
3.1877e-05
3.18496e-05
3.1015e-05
2.99203e-05
2.88221e-05
2.76608e-05
2.64872e-05
2.54028e-05
2.44565e-05
2.36489e-05
2.29536e-05
2.23252e-05
2.17169e-05
2.10865e-05
2.03994e-05
1.96369e-05
1.8789e-05
1.78506e-05
1.68321e-05
1.57534e-05
1.46289e-05
1.34712e-05
1.22947e-05
1.11137e-05
9.94162e-06
8.79047e-06
7.66903e-06
6.58694e-06
5.55123e-06
4.56427e-06
3.62428e-06
2.72781e-06
1.86866e-06
1.04678e-06
2.13045e-07
0.00046765
0.000467355
0.000466242
0.000464489
0.000462337
0.000459923
0.000457337
0.00045466
0.000451965
0.000449307
0.000446722
0.000444226
0.000441835
0.000439551
0.000437367
0.000435281
0.000433287
0.000431374
0.000429533
0.000427756
0.000426042
0.000424385
0.000422783
0.000421232
0.000419732
0.000418281
0.000416877
0.000415518
0.0004142
0.000412918
0.000411656
0.000410392
0.000409118
0.00040775
0.000406354
0.000404763
0.000402481
0.000399349
0.000395332
0.000390365
0.000384507
0.000377709
0.000370324
0.000362574
0.000354577
0.000346456
0.000338303
0.000330189
0.000322228
0.000314484
0.000306988
0.000299753
0.000292787
0.000286077
0.000279615
0.000273363
0.000267311
0.000261447
0.000255744
0.000250211
0.0002449
0.000239806
0.000234753
0.000230073
0.000225946
0.000222199
0.000218838
0.00021603
0.000213724
0.000211954
0.000210769
0.000210065
0.000209877
0.000210129
0.000210759
0.000211735
0.000212976
0.000214398
0.000215948
0.000217585
0.000219217
0.000220798
0.00022229
0.000223665
0.000224913
0.00022602
0.000226996
0.000227891
0.000228696
0.000229469
0.000230254
0.000231059
0.000231897
0.000232828
0.000233766
0.000234798
0.000235804
0.000236861
0.00023784
0.00023883
0.000239693
0.000240505
0.000241178
0.000241724
0.000242138
0.000242358
0.000242421
0.000242263
0.000241887
0.000241271
0.000240377
0.000239194
0.000237694
0.000235843
0.000233652
0.000231058
0.000228081
0.000224704
0.000220908
0.000216711
0.000212127
0.000207163
0.000201843
0.000196188
0.000190225
0.000183995
0.000177528
0.000170856
0.000164013
0.000157034
0.000149948
0.000142792
0.000135585
0.000128414
0.000121287
0.000114214
0.000107241
0.000100418
9.37604e-05
8.72892e-05
8.10224e-05
7.49674e-05
6.9122e-05
6.34857e-05
5.80458e-05
5.28066e-05
4.77907e-05
4.29904e-05
3.83356e-05
3.39236e-05
2.99421e-05
2.63171e-05
2.32024e-05
2.06073e-05
1.87016e-05
1.7439e-05
1.69774e-05
1.72094e-05
1.84893e-05
1.98775e-05
2.26628e-05
2.48269e-05
2.66539e-05
2.81885e-05
2.93521e-05
2.96965e-05
2.95295e-05
2.86921e-05
2.76742e-05
2.66932e-05
2.56797e-05
2.46631e-05
2.37268e-05
2.29055e-05
2.21917e-05
2.15543e-05
2.09475e-05
2.03328e-05
1.96799e-05
1.89754e-05
1.82225e-05
1.74072e-05
1.65124e-05
1.55626e-05
1.45892e-05
1.35962e-05
1.25864e-05
1.15671e-05
1.05449e-05
9.52659e-06
8.51789e-06
7.5189e-06
6.53873e-06
5.58241e-06
4.65076e-06
3.73986e-06
2.84816e-06
1.97461e-06
1.12377e-06
2.22062e-07
0.000467031
0.000466764
0.000465757
0.000464145
0.000462127
0.000459826
0.000457327
0.000454715
0.000452061
0.000449421
0.000446835
0.000444325
0.000441906
0.000439586
0.00043736
0.000435226
0.000433176
0.000431202
0.000429296
0.000427448
0.000425654
0.000423908
0.000422206
0.000420542
0.000418915
0.000417319
0.000415751
0.000414206
0.000412682
0.000411178
0.000409662
0.000408106
0.000406519
0.000404841
0.000403093
0.000401119
0.000398531
0.000395174
0.000391004
0.000385981
0.000380181
0.000373612
0.000366575
0.000359277
0.000351857
0.000344428
0.000337059
0.000329816
0.00032277
0.000315963
0.000309404
0.000303083
0.000296997
0.000291104
0.000285403
0.000279838
0.000274397
0.000269068
0.000263803
0.000258657
0.000253566
0.000248637
0.000243776
0.00023913
0.000234814
0.00023074
0.00022705
0.000223825
0.000220971
0.000218563
0.000216701
0.00021528
0.000214333
0.000213845
0.000213752
0.000214024
0.000214605
0.000215458
0.000216461
0.000217638
0.000218894
0.000220154
0.000221382
0.000222549
0.000223638
0.000224629
0.000225516
0.00022634
0.000227084
0.000227804
0.000228538
0.000229299
0.000230094
0.00023099
0.000231899
0.00023291
0.000233896
0.000234934
0.00023589
0.000236845
0.000237651
0.000238381
0.000238941
0.000239342
0.000239573
0.000239581
0.000239396
0.000238968
0.000238296
0.000237372
0.000236162
0.000234666
0.000232863
0.000230733
0.00022829
0.00022549
0.000222349
0.000218855
0.000214995
0.000210797
0.000206288
0.000201486
0.000196387
0.000191017
0.000185416
0.000179615
0.000173636
0.000167504
0.000161247
0.000154894
0.000148467
0.000141998
0.000135514
0.000129056
0.000122641
0.000116289
0.000110031
0.000103894
9.78954e-05
9.20465e-05
8.63496e-05
8.08139e-05
7.5418e-05
7.01634e-05
6.50304e-05
6.00062e-05
5.51049e-05
5.03021e-05
4.55906e-05
4.10396e-05
3.67043e-05
3.26231e-05
2.89421e-05
2.57011e-05
2.29785e-05
2.0886e-05
1.95139e-05
1.88109e-05
1.93278e-05
2.00249e-05
2.19174e-05
2.35377e-05
2.49276e-05
2.60731e-05
2.69119e-05
2.70645e-05
2.6792e-05
2.60184e-05
2.5144e-05
2.43312e-05
2.35073e-05
2.26826e-05
2.19146e-05
2.12274e-05
2.06293e-05
2.00668e-05
1.94895e-05
1.88752e-05
1.81673e-05
1.73874e-05
1.66264e-05
1.58676e-05
1.50319e-05
1.416e-05
1.33098e-05
1.24657e-05
1.16207e-05
1.07775e-05
9.93312e-06
9.08763e-06
8.24182e-06
7.3754e-06
6.50919e-06
5.64229e-06
4.77452e-06
3.89592e-06
3.00429e-06
2.10971e-06
1.20959e-06
2.33011e-07
0.000466983
0.000466717
0.000465717
0.000464113
0.000462102
0.000459805
0.000457308
0.000454695
0.000452037
0.00044939
0.000446792
0.000444267
0.000441828
0.000439483
0.000437228
0.00043506
0.000432969
0.000430948
0.000428987
0.000427077
0.000425211
0.000423382
0.000421584
0.000419811
0.000418058
0.000416319
0.000414587
0.000412852
0.000411113
0.000409395
0.000407635
0.000405777
0.000403866
0.000401875
0.000399777
0.00039743
0.00039455
0.000390993
0.000386703
0.000381666
0.000375962
0.000369652
0.000362987
0.000356164
0.000349339
0.000342605
0.000336008
0.000329608
0.000323427
0.000317494
0.000311789
0.000306288
0.000300979
0.000295802
0.00029076
0.00028579
0.00028088
0.000276026
0.00027116
0.000266375
0.000261549
0.000256825
0.000252136
0.000247547
0.00024316
0.000238979
0.000235093
0.000231522
0.000228223
0.000225327
0.00022292
0.000220875
0.000219237
0.000218067
0.000217274
0.000216837
0.000216725
0.000216946
0.000217375
0.000217967
0.000218728
0.000219583
0.000220466
0.000221337
0.000222182
0.000222983
0.000223722
0.000224417
0.000225054
0.000225681
0.000226324
0.000227001
0.000227712
0.000228524
0.000229352
0.000230279
0.000231184
0.000232135
0.000233003
0.000233853
0.00023454
0.000235128
0.000235522
0.000235733
0.000235747
0.000235522
0.000235085
0.0002344
0.000233466
0.000232277
0.000230806
0.000229066
0.00022704
0.000224724
0.000222132
0.00021924
0.000216066
0.000212601
0.000208825
0.000204768
0.000200474
0.00019596
0.000191188
0.000186187
0.000181034
0.000175731
0.000170286
0.000164723
0.000159064
0.00015333
0.000147544
0.000141727
0.000135899
0.000130096
0.000124322
0.000118607
0.000112971
0.000107425
0.000101986
9.66619e-05
9.14402e-05
8.63362e-05
8.1311e-05
7.63724e-05
7.14898e-05
6.66457e-05
6.18528e-05
5.70705e-05
5.23061e-05
4.76192e-05
4.30195e-05
3.8626e-05
3.44553e-05
3.05755e-05
2.71146e-05
2.42587e-05
2.19997e-05
2.04045e-05
1.99457e-05
1.99555e-05
2.09274e-05
2.19315e-05
2.28357e-05
2.35692e-05
2.40727e-05
2.4061e-05
2.37266e-05
2.30669e-05
2.23913e-05
2.18078e-05
2.12277e-05
2.06467e-05
2.00532e-05
1.94437e-05
1.89586e-05
1.85078e-05
1.79401e-05
1.73001e-05
1.65931e-05
1.58392e-05
1.50902e-05
1.43122e-05
1.34853e-05
1.27141e-05
1.20167e-05
1.13329e-05
1.06578e-05
9.99419e-06
9.32981e-06
8.65853e-06
7.99071e-06
7.24639e-06
6.49489e-06
5.71632e-06
4.90315e-06
4.05455e-06
3.17744e-06
2.27206e-06
1.32949e-06
2.63529e-07
0.000467505
0.000467216
0.000466125
0.000464397
0.000462266
0.000459865
0.000457283
0.000454602
0.000451895
0.000449213
0.000446592
0.00044405
0.000441598
0.000439241
0.000436972
0.000434784
0.000432668
0.000430615
0.000428613
0.000426652
0.000424724
0.000422821
0.000420937
0.000419063
0.000417193
0.000415319
0.000413433
0.000411528
0.000409595
0.000407627
0.000405592
0.000403472
0.000401268
0.000398961
0.00039651
0.000393801
0.000390637
0.000386888
0.000382496
0.000377467
0.000371881
0.000365845
0.00035956
0.000353229
0.000347009
0.000340967
0.000335123
0.000329527
0.000324155
0.000319023
0.000314086
0.000309308
0.000304671
0.000300108
0.000295625
0.000291162
0.000286705
0.000282262
0.000277752
0.000273292
0.000268732
0.000264225
0.00025971
0.000255238
0.000250884
0.000246662
0.000242637
0.000238827
0.000235266
0.000232035
0.000229157
0.000226567
0.000224352
0.000222596
0.000221169
0.000220059
0.00021927
0.000218838
0.000218709
0.000218703
0.000218862
0.000219207
0.00021966
0.000220151
0.000220659
0.000221192
0.000221717
0.000222213
0.000222673
0.000223144
0.000223636
0.000224167
0.000224732
0.00022539
0.000226067
0.000226831
0.000227577
0.000228356
0.000229057
0.000229723
0.000230228
0.000230616
0.000230804
0.000230801
0.000230584
0.000230129
0.000229458
0.00022856
0.00022744
0.000226087
0.000224476
0.000222621
0.000220527
0.000218198
0.000215622
0.000212764
0.000209631
0.000206264
0.000202695
0.000198919
0.000194941
0.000190777
0.000186418
0.00018188
0.000177212
0.000172421
0.000167516
0.000162513
0.000157429
0.000152281
0.000147084
0.000141857
0.000136612
0.000131387
0.000126173
0.000121006
0.000115896
0.00011085
0.000105876
0.000100988
9.6157e-05
9.14075e-05
8.66841e-05
8.20061e-05
7.73308e-05
7.26385e-05
6.79415e-05
6.31958e-05
5.84011e-05
5.36278e-05
4.88238e-05
4.41489e-05
3.95231e-05
3.51487e-05
3.10714e-05
2.74698e-05
2.42949e-05
2.1834e-05
2.03945e-05
1.96411e-05
1.96897e-05
2.00401e-05
2.04219e-05
2.07351e-05
2.09202e-05
2.08151e-05
2.04921e-05
1.99412e-05
1.94535e-05
1.91528e-05
1.88423e-05
1.84878e-05
1.81343e-05
1.77508e-05
1.73692e-05
1.69336e-05
1.63898e-05
1.57672e-05
1.50714e-05
1.43265e-05
1.35715e-05
1.28197e-05
1.20872e-05
1.14193e-05
1.08227e-05
1.02723e-05
9.75603e-06
9.26187e-06
8.76751e-06
8.27194e-06
7.73948e-06
7.13215e-06
6.4901e-06
5.79421e-06
5.03913e-06
4.22709e-06
3.36319e-06
2.4469e-06
1.50093e-06
3.36791e-07
0.000468653
0.000468308
0.000467005
0.000464998
0.000462607
0.00045999
0.000457232
0.000454418
0.00045162
0.000448882
0.000446231
0.000443675
0.000441218
0.000438867
0.000436603
0.000434409
0.000432285
0.000430217
0.00042819
0.000426192
0.000424215
0.000422252
0.000420293
0.00041833
0.000416355
0.000414359
0.000412332
0.000410264
0.000408142
0.000405953
0.000403678
0.000401305
0.00039881
0.000396188
0.000393391
0.000390328
0.00038688
0.000382933
0.000378437
0.000373423
0.000367962
0.000362198
0.00035629
0.000350459