/*--------------------------------*- C++ -*----------------------------------*\
| =========                 |                                                 |
| \\      /  F ield         | OpenFOAM: The Open Source CFD Toolbox           |
|  \\    /   O peration     | Version:  2506                                  |
|   \\  /    A nd           | Website:  www.openfoam.com                      |
|    \\/     M anipulation  |                                                 |
\*---------------------------------------------------------------------------*/
FoamFile
{
    version     2.0;
    format      ascii;
    arch        "LSB;label=32;scalar=64";
    class       volScalarField;
    location    "4.7";
    object      p;
}
// * * * * * * * * * * * * * * * * * * * * * * * * * * * * * * * * * * * * * //

dimensions      [0 2 -2 0 0 0 0];

internalField   nonuniform List<scalar> 
4000
(
0.000555023
0.0004971
0.000465745
0.000452192
0.000443982
0.00043826
0.000434262
0.000431256
0.000428766
0.000426567
0.000424556
0.000422676
0.000420892
0.000419187
0.000417549
0.000415973
0.000414457
0.000413002
0.000411607
0.000410277
0.000409015
0.000407825
0.000406711
0.00040568
0.000404737
0.000403889
0.000403143
0.000402507
0.000401987
0.000401594
0.000401337
0.000401232
0.000401296
0.000401417
0.000402058
0.000403116
0.000403857
0.000404115
0.000403859
0.000402828
0.000400727
0.000396371
0.000389739
0.000381538
0.000371792
0.000360695
0.000348379
0.000334755
0.000320464
0.000305402
0.000289839
0.000274287
0.000258562
0.000243617
0.000229
0.000215726
0.00020366
0.000192992
0.000184411
0.000176867
0.000171777
0.000167996
0.000165772
0.000164993
0.000165094
0.000166365
0.000168085
0.000170531
0.000173208
0.000176192
0.000179309
0.000182431
0.000185616
0.000188715
0.000191738
0.000194675
0.000197485
0.00020017
0.000202739
0.000205181
0.000207503
0.000209715
0.00021182
0.000213824
0.000215734
0.00021755
0.000219274
0.000220908
0.000222446
0.000223888
0.000225235
0.000226487
0.00022765
0.000228725
0.000229719
0.000230637
0.000231483
0.000232266
0.000232994
0.000233675
0.000234315
0.000234922
0.0002355
0.000236055
0.000236591
0.000237106
0.000237609
0.000238089
0.000238549
0.000238978
0.000239366
0.000239694
0.000239948
0.000240086
0.000240101
0.000239919
0.000239519
0.000238845
0.000237822
0.000236407
0.000234533
0.000232115
0.000229108
0.000225459
0.000221092
0.00021598
0.000210093
0.000203408
0.000195932
0.000187672
0.000178601
0.000168845
0.000158413
0.000147248
0.000135592
0.000123488
0.000110733
9.79784e-05
8.48291e-05
7.17465e-05
5.87632e-05
4.61154e-05
3.40296e-05
2.28704e-05
1.24961e-05
3.93643e-06
-3.73438e-06
-9.1667e-06
-1.31829e-05
-1.56365e-05
-1.6345e-05
-1.61328e-05
-1.44014e-05
-1.21457e-05
-8.97237e-06
-5.59284e-06
-1.78893e-06
1.99115e-06
5.7998e-06
9.45351e-06
1.35174e-05
1.66254e-05
1.94476e-05
2.20244e-05
2.44181e-05
2.65282e-05
2.84162e-05
2.96405e-05
3.03286e-05
3.06567e-05
3.06413e-05
3.03203e-05
2.97419e-05
2.89515e-05
2.79897e-05
2.68927e-05
2.56926e-05
2.44166e-05
2.30882e-05
2.17265e-05
2.03477e-05
1.8965e-05
1.75894e-05
1.62302e-05
1.48954e-05
1.35918e-05
1.23258e-05
1.11027e-05
9.92752e-06
8.80414e-06
7.73543e-06
6.72277e-06
5.76583e-06
4.86222e-06
4.00716e-06
3.19834e-06
2.42509e-06
1.67824e-06
9.47411e-07
2.70733e-07
0.000503357
0.000480228
0.000462321
0.000452534
0.000445667
0.000440103
0.000435813
0.000432486
0.000429741
0.000427349
0.000425193
0.000423207
0.000421345
0.000419581
0.0004179
0.000416292
0.000414752
0.000413279
0.000411872
0.000410533
0.000409266
0.000408073
0.000406959
0.00040593
0.000404991
0.000404149
0.00040341
0.000402784
0.000402277
0.000401898
0.000401658
0.00040157
0.000401651
0.00040176
0.000402274
0.000403102
0.000403502
0.000403325
0.000402492
0.000400682
0.000397596
0.000392286
0.000384972
0.000376286
0.000366212
0.000354926
0.000342566
0.000329102
0.000315119
0.000300533
0.000285602
0.00027079
0.00025595
0.00024193
0.000228384
0.000216041
0.000204773
0.00019473
0.000186521
0.000179272
0.000174157
0.000170267
0.000167778
0.000166655
0.000166386
0.000167251
0.000168605
0.000170694
0.000173073
0.00017579
0.000178698
0.000181646
0.000184694
0.000187695
0.000190643
0.000193531
0.000196312
0.000198982
0.000201547
0.000203993
0.000206324
0.000208547
0.000210667
0.000212688
0.000214619
0.000216459
0.000218213
0.000219884
0.000221468
0.000222969
0.000224385
0.000225709
0.000226947
0.0002281
0.000229167
0.000230166
0.000231087
0.000231945
0.000232737
0.000233479
0.000234168
0.00023482
0.000235434
0.000236016
0.000236573
0.000237098
0.000237603
0.000238073
0.00023851
0.000238899
0.000239229
0.000239477
0.000239624
0.000239624
0.000239467
0.000239075
0.000238423
0.000237452
0.000236088
0.000234288
0.000231986
0.000229104
0.000225603
0.000221439
0.000216545
0.00021091
0.000204514
0.000197348
0.000189434
0.000180792
0.000171412
0.000161431
0.000150869
0.000139675
0.000128105
0.000116169
0.000103755
9.13943e-05
7.88016e-05
6.63688e-05
5.41639e-05
4.23855e-05
3.12505e-05
2.10438e-05
1.17371e-05
3.96726e-06
-2.93284e-06
-7.90668e-06
-1.15988e-05
-1.39147e-05
-1.46453e-05
-1.45375e-05
-1.30272e-05
-1.10142e-05
-8.11605e-06
-4.99599e-06
-1.43802e-06
2.1293e-06
5.76985e-06
9.18141e-06
1.31743e-05
1.62743e-05
1.91225e-05
2.1727e-05
2.41289e-05
2.61942e-05
2.80075e-05
2.91492e-05
2.98042e-05
3.01324e-05
3.01277e-05
2.98229e-05
2.92679e-05
2.85075e-05
2.75807e-05
2.65222e-05
2.53627e-05
2.41284e-05
2.28416e-05
2.15207e-05
2.01807e-05
1.88343e-05
1.74919e-05
1.61621e-05
1.48526e-05
1.357e-05
1.23208e-05
1.11104e-05
9.9439e-06
8.82565e-06
7.75914e-06
6.74653e-06
5.7884e-06
4.88349e-06
4.02916e-06
3.21764e-06
2.44467e-06
1.70013e-06
9.71519e-07
2.89867e-07
0.000479026
0.000471457
0.000460887
0.000452924
0.000446657
0.000441541
0.000437243
0.000433727
0.000430776
0.0004282
0.000425895
0.000423789
0.000421832
0.000419995
0.000418257
0.000416603
0.000415028
0.000413526
0.000412097
0.000410741
0.000409459
0.000408255
0.000407132
0.000406095
0.000405151
0.000404304
0.000403563
0.000402933
0.000402425
0.000402045
0.000401801
0.000401704
0.000401768
0.00040182
0.000402183
0.00040276
0.000402782
0.000402112
0.000400667
0.000398097
0.000394158
0.00038813
0.000380394
0.000371479
0.000361333
0.000350113
0.000337973
0.000324933
0.0003115
0.000297633
0.00028354
0.000269643
0.000255862
0.000242805
0.000230229
0.000218695
0.00020814
0.000198637
0.000190708
0.000183617
0.000178336
0.000174161
0.000171241
0.000169604
0.000168798
0.000169119
0.000169964
0.000171591
0.000173571
0.000175944
0.000178578
0.000181297
0.000184173
0.00018704
0.000189887
0.000192709
0.000195444
0.000198086
0.000200638
0.000203081
0.000205415
0.000207647
0.000209778
0.000211814
0.000213763
0.000215625
0.000217407
0.000219116
0.000220741
0.000222287
0.000223759
0.000225143
0.000226444
0.000227667
0.000228797
0.000229854
0.000230827
0.000231738
0.000232574
0.000233362
0.000234085
0.000234769
0.000235405
0.000236003
0.000236571
0.000237093
0.000237589
0.000238034
0.000238433
0.000238767
0.000239021
0.000239169
0.00023919
0.000239032
0.000238685
0.000238065
0.000237148
0.000235875
0.000234171
0.000231998
0.000229295
0.000225994
0.000222063
0.000217468
0.000212157
0.000206132
0.000199382
0.000191913
0.000183752
0.000174932
0.000165463
0.000155463
0.000144963
0.000133949
0.000122638
0.000111049
9.91326e-05
8.73203e-05
7.54106e-05
6.37274e-05
5.23591e-05
4.146e-05
3.12205e-05
2.1844e-05
1.32951e-05
6.10274e-06
-2.72995e-07
-5.00275e-06
-8.58399e-06
-1.09773e-05
-1.19225e-05
-1.21145e-05
-1.09651e-05
-9.33303e-06
-6.7904e-06
-4.01254e-06
-7.42482e-07
2.56498e-06
6.03386e-06
9.16003e-06
1.31608e-05
1.61548e-05
1.8933e-05
2.15069e-05
2.38852e-05
2.58694e-05
2.76029e-05
2.86446e-05
2.92531e-05
2.95801e-05
2.9583e-05
2.92888e-05
2.87521e-05
2.8018e-05
2.71236e-05
2.61019e-05
2.49825e-05
2.37904e-05
2.25465e-05
2.12681e-05
1.99694e-05
1.8662e-05
1.73554e-05
1.60579e-05
1.47765e-05
1.35177e-05
1.22872e-05
1.10909e-05
9.93463e-06
8.82303e-06
7.76026e-06
6.74932e-06
5.79169e-06
4.88679e-06
4.03229e-06
3.22302e-06
2.45263e-06
1.7109e-06
9.81898e-07
2.97144e-07
0.000468033
0.000465248
0.000458795
0.000452301
0.000446995
0.000442445
0.000438307
0.000434826
0.000431778
0.000429063
0.000426629
0.000424399
0.000422335
0.00042041
0.000418599
0.000416883
0.000415256
0.000413712
0.000412245
0.000410856
0.000409545
0.000408313
0.000407164
0.000406103
0.000405133
0.00040426
0.000403492
0.000402833
0.000402292
0.000401874
0.000401584
0.000401424
0.000401404
0.000401337
0.000401527
0.000401857
0.000401521
0.000400384
0.000398382
0.000395188
0.000390631
0.000384154
0.000376206
0.000367236
0.000357195
0.000346232
0.00033451
0.000322084
0.000309407
0.000296427
0.000283292
0.000270445
0.000257806
0.000245789
0.000234249
0.00022356
0.000213715
0.000204728
0.00019701
0.000189995
0.000184449
0.000179864
0.000176377
0.000174066
0.000172566
0.000172173
0.000172353
0.000173366
0.000174811
0.000176721
0.000178977
0.000181379
0.000184011
0.000186686
0.000189384
0.000192099
0.000194759
0.000197348
0.000199869
0.000202295
0.000204621
0.000206853
0.000208988
0.00021103
0.000212992
0.000214869
0.00021667
0.000218408
0.000220068
0.000221657
0.000223181
0.000224622
0.000225984
0.000227273
0.000228466
0.00022959
0.000230622
0.000231591
0.000232472
0.000233303
0.000234056
0.000234766
0.000235417
0.000236021
0.000236588
0.000237095
0.000237567
0.000237971
0.000238316
0.000238576
0.000238733
0.000238761
0.000238635
0.000238296
0.00023774
0.000236872
0.000235675
0.000234089
0.000232042
0.000229502
0.000226415
0.000222724
0.000218407
0.000213441
0.000207791
0.000201467
0.000194473
0.000186823
0.000178555
0.000169708
0.000160307
0.000150454
0.000140201
0.000129552
0.000118686
0.000107641
9.64041e-05
8.53105e-05
7.4232e-05
6.34176e-05
5.29623e-05
4.29739e-05
3.36069e-05
2.49968e-05
1.71188e-05
1.03715e-05
4.34106e-06
-3.51837e-07
-4.05106e-06
-6.74471e-06
-8.13665e-06
-8.83749e-06
-8.24821e-06
-7.16203e-06
-5.11622e-06
-2.78739e-06
1.17394e-07
3.11035e-06
6.4007e-06
9.25363e-06
1.3279e-05
1.61472e-05
1.88168e-05
2.13314e-05
2.36741e-05
2.55677e-05
2.72214e-05
2.81513e-05
2.8693e-05
2.90038e-05
2.90012e-05
2.8704e-05
2.81734e-05
2.74558e-05
2.65859e-05
2.55951e-05
2.45115e-05
2.33589e-05
2.21568e-05
2.09212e-05
1.9665e-05
1.83989e-05
1.71316e-05
1.58706e-05
1.46221e-05
1.33921e-05
1.21865e-05
1.10111e-05
9.87181e-06
8.77363e-06
7.72126e-06
6.71834e-06
5.76694e-06
4.8674e-06
4.01748e-06
3.21263e-06
2.44574e-06
1.7062e-06
9.7676e-07
2.92426e-07
0.000461302
0.000459975
0.000456001
0.000451306
0.000446977
0.000442906
0.000439153
0.000435816
0.00043272
0.00042994
0.000427424
0.000425069
0.000422887
0.000420864
0.000418962
0.000417166
0.000415468
0.000413861
0.000412338
0.000410897
0.000409537
0.000408258
0.000407062
0.000405953
0.000404933
0.000404008
0.000403183
0.000402462
0.000401851
0.000401352
0.000400967
0.000400689
0.000400524
0.00040029
0.000400262
0.000400307
0.000399607
0.000398023
0.000395518
0.000391811
0.000386794
0.000380039
0.000372022
0.000363128
0.000353333
0.000342783
0.00033164
0.00031999
0.000308144
0.000296135
0.000284167
0.000272478
0.000261035
0.00025013
0.000239684
0.000229911
0.000220831
0.000212423
0.000204977
0.000198102
0.000192346
0.000187381
0.00018332
0.000180281
0.000178007
0.000176768
0.000176137
0.000176363
0.000177104
0.000178383
0.000180105
0.000182053
0.000184318
0.000186698
0.000189163
0.000191704
0.000194232
0.000196727
0.000199183
0.00020157
0.000203871
0.000206092
0.000208225
0.000210271
0.000212241
0.000214131
0.00021595
0.000217715
0.000219408
0.000221037
0.000222614
0.000224114
0.000225538
0.0002269
0.000228159
0.000229357
0.000230446
0.000231475
0.0002324
0.000233273
0.00023405
0.000234779
0.000235435
0.00023603
0.000236579
0.000237049
0.000237474
0.000237812
0.00023807
0.000238224
0.00023825
0.00023812
0.000237806
0.000237249
0.000236443
0.000235292
0.000233783
0.00023186
0.000229456
0.000226545
0.000223086
0.000219029
0.000214368
0.00020909
0.000203177
0.000196649
0.000189522
0.00018182
0.000173585
0.000164864
0.000155689
0.000146152
0.000136325
0.00012621
0.000115942
0.000105602
9.5185e-05
8.49379e-05
7.4791e-05
6.49226e-05
5.54214e-05
4.63552e-05
3.78399e-05
2.99544e-05
2.27014e-05
1.6334e-05
1.05681e-05
5.82845e-06
1.91048e-06
-1.1834e-06
-3.1573e-06
-4.50167e-06
-4.64655e-06
-4.26756e-06
-2.90055e-06
-1.17497e-06
1.22054e-06
3.78948e-06
6.83642e-06
9.39839e-06
1.34041e-05
1.61373e-05
1.86646e-05
2.10881e-05
2.33726e-05
2.5152e-05
2.66976e-05
2.74915e-05
2.79447e-05
2.82251e-05
2.82084e-05
2.79028e-05
2.73758e-05
2.66754e-05
2.58336e-05
2.48792e-05
2.38385e-05
2.27339e-05
2.15832e-05
2.04008e-05
1.91985e-05
1.79858e-05
1.67706e-05
1.55593e-05
1.43574e-05
1.31702e-05
1.20033e-05
1.08623e-05
9.75277e-06
8.68025e-06
7.64938e-06
6.66426e-06
5.72733e-06
4.83913e-06
3.99784e-06
3.19909e-06
2.43576e-06
1.69723e-06
9.67412e-07
2.7916e-07
0.00045681
0.000456053
0.000453489
0.000450083
0.000446589
0.00044313
0.000439772
0.000436564
0.000433501
0.000430745
0.000428201
0.000425729
0.000423443
0.00042133
0.000419329
0.000417439
0.00041566
0.000413977
0.000412381
0.00041087
0.000409443
0.000408097
0.000406832
0.000405651
0.000404556
0.000403549
0.000402635
0.000401816
0.000401095
0.000400472
0.000399944
0.0003995
0.000399138
0.000398695
0.000398403
0.000398116
0.000397047
0.00039505
0.000392105
0.000387986
0.000382642
0.000375752
0.000367788
0.000359086
0.000349654
0.000339634
0.000329181
0.000318384
0.000307446
0.000296489
0.000285757
0.000275247
0.000265003
0.000255228
0.000245873
0.000237051
0.00022877
0.000221001
0.000213925
0.000207294
0.00020147
0.000196259
0.00019173
0.000188044
0.000185048
0.00018295
0.000181459
0.000180797
0.000180708
0.000181209
0.000182236
0.000183579
0.000185323
0.000187273
0.000189385
0.000191646
0.000193955
0.000196283
0.000198618
0.00020092
0.000203163
0.000205349
0.000207464
0.000209503
0.000211477
0.000213377
0.00021521
0.000217001
0.000218723
0.000220391
0.000222018
0.000223574
0.00022506
0.000226493
0.000227819
0.000229089
0.000230235
0.000231327
0.000232296
0.000233208
0.000234001
0.000234737
0.00023538
0.000235948
0.000236453
0.000236859
0.000237203
0.000237436
0.000237569
0.000237573
0.000237422
0.000237087
0.00023654
0.000235719
0.000234624
0.000233158
0.000231311
0.000229038
0.000226274
0.000223007
0.000219205
0.000214831
0.00020989
0.000204384
0.000198306
0.000191688
0.000184554
0.000176937
0.000168882
0.000160437
0.00015164
0.000142571
0.000133315
0.000123838
0.000114312
0.000104779
9.52547e-05
8.59145e-05
7.67301e-05
6.78196e-05
5.92563e-05
5.10788e-05
4.33694e-05
3.61827e-05
2.94609e-05
2.34338e-05
1.78963e-05
1.30944e-05
8.94017e-06
5.44031e-06
2.85177e-06
8.21618e-07
-1.45959e-07
-5.715e-07
-2.95127e-08
9.50271e-07
2.67897e-06
4.69006e-06
7.37944e-06
9.6018e-06
1.34709e-05
1.60443e-05
1.83938e-05
2.06833e-05
2.28709e-05
2.45032e-05
2.58993e-05
2.65362e-05
2.68859e-05
2.71234e-05
2.70877e-05
2.67745e-05
2.62564e-05
2.55823e-05
2.47803e-05
2.38754e-05
2.28923e-05
2.18517e-05
2.0769e-05
1.96569e-05
1.85257e-05
1.73845e-05
1.62401e-05
1.50976e-05
1.39613e-05
1.28357e-05
1.17259e-05
1.06372e-05
9.57475e-06
8.54397e-06
7.54861e-06
6.59339e-06
5.68065e-06
4.81098e-06
3.98284e-06
3.19219e-06
2.4324e-06
1.69334e-06
9.62442e-07
2.58704e-07
0.000453795
0.000453306
0.000451525
0.000448948
0.000446081
0.000443096
0.000440065
0.000437066
0.000434158
0.000431407
0.00042879
0.000426276
0.000423949
0.000421767
0.00041966
0.000417674
0.000415811
0.000414046
0.000412369
0.000410775
0.000409268
0.000407838
0.000406485
0.000405212
0.000404017
0.000402903
0.00040187
0.000400919
0.000400052
0.000399264
0.000398551
0.000397897
0.000397295
0.000396607
0.000396015
0.00039536
0.000393927
0.000391564
0.000388253
0.000383826
0.000378274
0.000371372
0.000363569
0.000355154
0.000346172
0.000336763
0.000327061
0.000317149
0.000307228
0.000297379
0.000287765
0.000278405
0.000269332
0.000260658
0.000252354
0.000244461
0.000236974
0.000229869
0.000223235
0.000216931
0.000211199
0.000205907
0.00020105
0.000196877
0.000193312
0.000190457
0.000188163
0.000186622
0.000185669
0.000185318
0.000185541
0.000186155
0.000187238
0.000188617
0.00019024
0.000192091
0.000194064
0.000196124
0.000198248
0.000200392
0.000202517
0.000204621
0.000206682
0.000208688
0.000210647
0.000212545
0.000214384
0.000216194
0.00021794
0.00021964
0.000221309
0.000222916
0.000224456
0.000225957
0.000227345
0.000228687
0.000229897
0.000231036
0.000232039
0.000232981
0.000233779
0.000234507
0.000235118
0.000235632
0.000236065
0.00023637
0.000236594
0.000236681
0.000236642
0.000236449
0.000236073
0.000235489
0.000234666
0.000233546
0.000232133
0.000230331
0.000228141
0.000225523
0.000222424
0.000218841
0.000214752
0.000210134
0.000205004
0.000199373
0.000193248
0.000186666
0.000179659
0.000172263
0.000164525
0.00015649
0.000148197
0.000139715
0.00013111
0.000122369
0.000113664
0.000104984
9.63644e-05
8.79328e-05
7.96848e-05
7.16912e-05
6.40056e-05
5.66468e-05
4.96639e-05
4.30762e-05
3.68534e-05
3.11453e-05
2.58194e-05
2.09618e-05
1.65913e-05
1.2731e-05
9.56164e-06
6.87158e-06
5.07849e-06
3.82802e-06
3.46651e-06
3.60587e-06
4.54121e-06
5.87199e-06
8.06436e-06
9.88175e-06
1.344e-05
1.5806e-05
1.79384e-05
2.0041e-05
2.20766e-05
2.35252e-05
2.47296e-05
2.52009e-05
2.54426e-05
2.5627e-05
2.55698e-05
2.52551e-05
2.47571e-05
2.41243e-05
2.33793e-05
2.25425e-05
2.16367e-05
2.06805e-05
1.96869e-05
1.86657e-05
1.76268e-05
1.65785e-05
1.55268e-05
1.44752e-05
1.34263e-05
1.23836e-05
1.13516e-05
1.03349e-05
9.33825e-06
8.3657e-06
7.42207e-06
6.51001e-06
5.63199e-06
4.78868e-06
3.97873e-06
3.19859e-06
2.44264e-06
1.70142e-06
9.68121e-07
2.33304e-07
0.000451791
0.000451432
0.000450084
0.000448026
0.000445595
0.000442952
0.000440181
0.000437365
0.000434573
0.000431857
0.000429237
0.000426722
0.000424335
0.000422068
0.0004199
0.000417846
0.000415901
0.000414053
0.000412292
0.000410615
0.000409015
0.000407491
0.00040604
0.000404659
0.000403347
0.000402103
0.000400928
0.000399819
0.000398775
0.000397791
0.000396859
0.00039596
0.000395085
0.000394122
0.000393201
0.000392158
0.000390376
0.000387696
0.000384095
0.000379454
0.000373798
0.000366988
0.000359429
0.000351374
0.000342906
0.000334157
0.000325242
0.000316242
0.000307323
0.000298551
0.000290018
0.000281757
0.000273785
0.000266141
0.000258813
0.000251791
0.000245067
0.000238614
0.000232456
0.000226519
0.000221018
0.000215801
0.000210742
0.000206255
0.000202312
0.000198868
0.0001959
0.000193582
0.000191817
0.000190626
0.000190018
0.000189844
0.000190169
0.000190865
0.000191881
0.000193193
0.000194701
0.000196374
0.000198176
0.000200058
0.000201978
0.000203926
0.000205871
0.000207794
0.000209697
0.000211561
0.000213383
0.000215193
0.000216946
0.000218666
0.000220363
0.000222007
0.000223588
0.000225142
0.000226579
0.000227977
0.00022923
0.000230416
0.000231444
0.000232401
0.000233188
0.000233888
0.000234443
0.000234877
0.000235203
0.000235375
0.000235438
0.000235338
0.000235084
0.000234654
0.000234015
0.000233147
0.00023202
0.000230584
0.000228842
0.000226711
0.000224197
0.00022127
0.000217889
0.000214057
0.000209766
0.000205001
0.000199793
0.000194159
0.000188115
0.000181699
0.000174947
0.000167897
0.000160593
0.000153075
0.000145381
0.000137569
0.000129663
0.000121728
0.000113839
0.000106004
9.82625e-05
9.06985e-05
8.33207e-05
7.61671e-05
6.92714e-05
6.26413e-05
5.62968e-05
5.02398e-05
4.44409e-05
3.90271e-05
3.39116e-05
2.90085e-05
2.4459e-05
2.0305e-05
1.66172e-05
1.33295e-05
1.0773e-05
8.74184e-06
7.46056e-06
6.71739e-06
6.78278e-06
7.3431e-06
8.8991e-06
1.02358e-05
1.329e-05
1.53766e-05
1.72438e-05
1.90983e-05
2.09131e-05
2.21418e-05
2.31189e-05
2.34316e-05
2.35726e-05
2.36988e-05
2.36221e-05
2.33183e-05
2.28577e-05
2.22862e-05
2.16199e-05
2.08733e-05
2.00677e-05
1.92198e-05
1.83382e-05
1.74307e-05
1.65068e-05
1.55751e-05
1.464e-05
1.37022e-05
1.27625e-05
1.18236e-05
1.08894e-05
9.96408e-06
9.0512e-06
8.15409e-06
7.27566e-06
6.41883e-06
5.58544e-06
4.77591e-06
3.98905e-06
3.222e-06
2.4705e-06
1.72568e-06
9.88349e-07
2.07036e-07
0.000450542
0.000450246
0.000449133
0.000447376
0.00044522
0.0004428
0.000440204
0.000437516
0.000434805
0.000432127
0.000429516
0.000426991
0.000424566
0.000422247
0.000420031
0.000417917
0.000415902
0.000413979
0.000412141
0.000410381
0.00040869
0.00040707
0.000405514
0.000404017
0.000402577
0.000401191
0.000399857
0.000398572
0.00039733
0.000396129
0.000394955
0.000393786
0.000392612
0.000391354
0.000390088
0.00038865
0.000386536
0.000383585
0.000379762
0.000374988
0.000369311
0.000362669
0.000355417
0.000347778
0.000339866
0.000331806
0.000323693
0.000315602
0.000307656
0.000299906
0.000292403
0.000285166
0.0002782
0.000271496
0.000265051
0.000258826
0.000252807
0.00024697
0.000241297
0.000235792
0.000230514
0.000225448
0.000220408
0.000215722
0.000211514
0.000207663
0.000204211
0.000201288
0.00019883
0.000196882
0.000195495
0.000194545
0.000194083
0.000194041
0.000194371
0.000195047
0.000195977
0.000197146
0.000198512
0.000200014
0.000201618
0.000203312
0.000205053
0.000206814
0.000208591
0.000210363
0.00021212
0.000213887
0.000215615
0.000217324
0.000219021
0.000220677
0.000222273
0.000223854
0.000225316
0.000226745
0.000228022
0.000229231
0.000230261
0.000231213
0.000231967
0.000232616
0.00023309
0.000233418
0.000233609
0.000233617
0.000233488
0.000233171
0.000232674
0.000231981
0.00023106
0.000229898
0.000228466
0.000226723
0.000224676
0.000222255
0.00021947
0.000216303
0.000212721
0.000208735
0.000204346
0.000199552
0.000194391
0.000188884
0.000183049
0.000176924
0.000170544
0.000163944
0.000157163
0.000150235
0.000143195
0.000136085
0.000128924
0.000121774
0.000114676
0.000107648
0.000100725
9.39566e-05
8.73574e-05
8.0947e-05
7.47402e-05
6.8741e-05
6.29459e-05
5.73531e-05
5.19481e-05
4.67648e-05
4.17636e-05
3.68699e-05
3.2244e-05
2.78562e-05
2.37113e-05
1.98951e-05
1.6687e-05
1.39593e-05
1.1783e-05
1.01553e-05
9.32124e-06
9.05535e-06
9.86128e-06
1.0626e-05
1.30079e-05
1.47259e-05
1.62679e-05
1.78087e-05
1.93292e-05
2.03074e-05
2.10372e-05
2.12128e-05
2.12701e-05
2.13383e-05
2.12509e-05
2.09802e-05
2.05838e-05
2.00995e-05
1.95345e-05
1.89005e-05
1.82215e-05
1.75073e-05
1.67586e-05
1.59835e-05
1.51944e-05
1.44031e-05
1.36105e-05
1.28094e-05
1.19985e-05
1.11809e-05
1.03611e-05
9.54281e-06
8.72816e-06
7.91876e-06
7.11714e-06
6.32508e-06
5.54401e-06
4.77406e-06
4.01425e-06
3.26273e-06
2.51664e-06
1.76721e-06
1.02364e-06
1.85326e-07
0.000449919
0.000449651
0.000448643
0.000447028
0.000445005
0.000442696
0.000440189
0.000437565
0.000434896
0.000432237
0.000429627
0.00042709
0.00042464
0.000422286
0.00042003
0.000417867
0.000415796
0.000413811
0.000411905
0.000410069
0.000408296
0.000406582
0.000404921
0.000403308
0.000401737
0.000400204
0.000398704
0.000397231
0.00039578
0.000394353
0.00039293
0.000391473
0.000389985
0.000388419
0.000386799
0.000384972
0.000382543
0.000379357
0.000375365
0.000370521
0.000364889
0.00035847
0.000351565
0.00034438
0.000337053
0.000329697
0.000322382
0.00031518
0.000308165
0.000301376
0.000294833
0.00028853
0.000282468
0.000276606
0.000270945
0.000265428
0.000260042
0.000254768
0.000249553
0.000244455
0.000239408
0.000234514
0.000229658
0.000225001
0.000220616
0.000216454
0.000212682
0.000209334
0.000206318
0.000203737
0.000201686
0.000200031
0.000198814
0.000198035
0.00019766
0.00019764
0.000197928
0.000198502
0.000199343
0.000200355
0.000201518
0.000202846
0.000204283
0.000205782
0.000207335
0.000208927
0.00021054
0.000212194
0.000213836
0.000215482
0.000217128
0.000218749
0.000220318
0.000221881
0.000223329
0.00022475
0.000226015
0.000227211
0.000228216
0.000229131
0.000229827
0.000230399
0.000230771
0.000230972
0.000231008
0.000230836
0.000230501
0.000229959
0.000229216
0.000228266
0.000227076
0.000225641
0.000223935
0.000221929
0.000219631
0.00021699
0.000214021
0.000210715
0.000207045
0.000203019
0.00019865
0.000193954
0.000188973
0.000183719
0.00017821
0.000172482
0.000166566
0.000160493
0.000154292
0.000147993
0.000141622
0.000135211
0.000128784
0.000122379
0.000116021
0.000109735
0.000103547
9.74833e-05
9.1561e-05
8.579e-05
8.01685e-05
7.47032e-05
6.93698e-05
6.41694e-05
5.90814e-05
5.40967e-05
4.92114e-05
4.43705e-05
3.96572e-05
3.50972e-05
3.06422e-05
2.63757e-05
2.2562e-05
1.91764e-05
1.61918e-05
1.3742e-05
1.2031e-05
1.09092e-05
1.08791e-05
1.10066e-05
1.25659e-05
1.38186e-05
1.49752e-05
1.61432e-05
1.73045e-05
1.80176e-05
1.85067e-05
1.85809e-05
1.85821e-05
1.86025e-05
1.85106e-05
1.8288e-05
1.79948e-05
1.76413e-05
1.7201e-05
1.66976e-05
1.61799e-05
1.56342e-05
1.50358e-05
1.43996e-05
1.37466e-05
1.31059e-05
1.24767e-05
1.18346e-05
1.11708e-05
1.04879e-05
9.79434e-06
9.09474e-06
8.38861e-06
7.67535e-06
6.95638e-06
6.23402e-06
5.50925e-06
4.78177e-06
4.05073e-06
3.31644e-06
2.57768e-06
1.82378e-06
1.06891e-06
1.72309e-07
0.000449868
0.000449601
0.000448599
0.000446992
0.000444975
0.000442671
0.000440165
0.00043754
0.000434866
0.0004322
0.000429578
0.000427025
0.000424555
0.000422176
0.00041989
0.000417692
0.000415579
0.000413545
0.000411581
0.000409681
0.000407834
0.000406034
0.000404276
0.00040255
0.000400852
0.000399174
0.000397509
0.000395849
0.000394179
0.000392529
0.000390868
0.000389119
0.000387306
0.000385423
0.00038345
0.000381243
0.000378515
0.000375119
0.000370996
0.000366128
0.000360584
0.000354422
0.000347889
0.000341182
0.000334457
0.000327807
0.000321278
0.000314933
0.000308797
0.000302902
0.000297233
0.00029177
0.000286505
0.000281381
0.000276402
0.000271503
0.000266669
0.000261894
0.0002571
0.000252383
0.000247614
0.000242933
0.000238255
0.000233656
0.000229238
0.000225003
0.000221037
0.000217342
0.000213873
0.000210821
0.000208255
0.000206001
0.0002041
0.000202638
0.0002016
0.000200887
0.000200499
0.000200415
0.00020063
0.000201128
0.000201743
0.000202591
0.000203624
0.000204764
0.000205986
0.000207287
0.000208652
0.000210091
0.000211559
0.000213064
0.000214585
0.000216099
0.000217574
0.000219052
0.00022043
0.000221783
0.000222988
0.000224122
0.000225063
0.000225902
0.000226515
0.000226986
0.00022724
0.000227305
0.00022718
0.000226835
0.000226303
0.000225554
0.000224594
0.000223426
0.00022202
0.000220375
0.000218463
0.00021627
0.000213805
0.000211038
0.00020799
0.000204662
0.000201037
0.000197102
0.000192879
0.000188413
0.000183739
0.000178849
0.000173753
0.000168499
0.000163109
0.000157603
0.000152003
0.000146334
0.000140618
0.000134876
0.000129126
0.000123403
0.000117712
0.000112084
0.000106537
0.000101081
9.57328e-05
9.04999e-05
8.53647e-05
8.03417e-05
7.5388e-05
7.05117e-05
6.56807e-05
6.08744e-05
5.61019e-05
5.1307e-05
4.65213e-05
4.18034e-05
3.71215e-05
3.25914e-05
2.82762e-05
2.42539e-05
2.05141e-05
1.73209e-05
1.47724e-05
1.27805e-05
1.18112e-05
1.13964e-05
1.19877e-05
1.26502e-05
1.33551e-05
1.41068e-05
1.48612e-05
1.53006e-05
1.5583e-05
1.56173e-05
1.56214e-05
1.56476e-05
1.55505e-05
1.53277e-05
1.51534e-05
1.50015e-05
1.47203e-05
1.43569e-05
1.40077e-05
1.36412e-05
1.32201e-05
1.27659e-05
1.22989e-05
1.18284e-05
1.13513e-05
1.08603e-05
1.03417e-05
9.78961e-06
9.21904e-06
8.63765e-06
8.04192e-06
7.42806e-06
6.7951e-06
6.14582e-06
5.47946e-06
4.79528e-06
4.09238e-06
3.37433e-06
2.64242e-06
1.88548e-06
1.10989e-06
1.60832e-07
0.000450387
0.000450098
0.000449005
0.000447274
0.000445137
0.000442729
0.000440137
0.000437443
0.000434719
0.000432016
0.000429368
0.000426796
0.000424309
0.000421915
0.000419612
0.000417391
0.000415249
0.000413182
0.000411176
0.000409223
0.000407314
0.000405441
0.000403595
0.000401768
0.000399951
0.000398138
0.000396318
0.000394483
0.000392624
0.000390736
0.000388795
0.000386773
0.00038467
0.000382475
0.000380147
0.000377572
0.000374554
0.00037096
0.000366727
0.00036186
0.000356431
0.000350542
0.000344399
0.000338182
0.000332064
0.000326115
0.00032035
0.000314821
0.000309506
0.000304425
0.000299538
0.000294814
0.000290239
0.000285747
0.000281347
0.000276974
0.000272612
0.000268269
0.000263849
0.000259477
0.000254988
0.000250539
0.000246055
0.000241592
0.000237225
0.000232959
0.000228858
0.000224944
0.000221264
0.000217902
0.000214864
0.000212109
0.000209613
0.000207579
0.000205964
0.00020462
0.000203564
0.000202805
0.000202381
0.000202303
0.000202369
0.000202639
0.000203146
0.000203834
0.000204631
0.00020554
0.000206541
0.000207643
0.000208828
0.000210098
0.000211403
0.000212717
0.000214008
0.00021531
0.00021654
0.000217749
0.000218832
0.000219841
0.000220675
0.000221397
0.000221901
0.000222251
0.000222382
0.000222318
0.000222051
0.000221562
0.000220869
0.000219956
0.000218831
0.000217503
0.000215957
0.000214197
0.000212193
0.000209943
0.000207459
0.000204734
0.000201759
0.000198519
0.000195019
0.000191273
0.000187307
0.000183176
0.000178889
0.000174431
0.000169814
0.000165073
0.000160226
0.000155289
0.000150278
0.000145209
0.000140099
0.000134967
0.000129821
0.000124698
0.000119587
0.000114525
0.000109519
0.000104575
9.97026e-05
9.49133e-05
9.01742e-05
8.55116e-05
8.08645e-05
7.62536e-05
7.16323e-05
6.69833e-05
6.2313e-05
5.75693e-05
5.27599e-05
4.79609e-05
4.3091e-05
3.83062e-05
3.35361e-05
2.90181e-05
2.47121e-05
2.08332e-05
1.73961e-05
1.45379e-05
1.26019e-05
1.15933e-05
1.12303e-05
1.12264e-05
1.14355e-05
1.17693e-05
1.20873e-05
1.22055e-05
1.23061e-05
1.23826e-05
1.24122e-05
1.24363e-05
1.24454e-05
1.24061e-05
1.23749e-05
1.23436e-05
1.22017e-05
1.2005e-05
1.18673e-05
1.17026e-05
1.14599e-05
1.11833e-05
1.08926e-05
1.05865e-05
1.02609e-05
9.91165e-06
9.53257e-06
9.12077e-06
8.68213e-06
8.21898e-06
7.72759e-06
7.20554e-06
6.6502e-06
6.06788e-06
5.4557e-06
4.81285e-06
4.14076e-06
3.44171e-06
2.71781e-06
1.96236e-06
1.20161e-06
1.98195e-07
0.000451534
0.000451188
0.000449884
0.000447873
0.000445477
0.000442853
0.000440084
0.000437255
0.000434438
0.000431675
0.000428992
0.0004264
0.0004239
0.000421508
0.000419206
0.000416972
0.000414818
0.000412735
0.000410704
0.000408715
0.000406758
0.000404824
0.000402905
0.00040099
0.00039907
0.000397134
0.000395173
0.000393176
0.000391131
0.000389024
0.000386839
0.000384561
0.000382172
0.000379667
0.000376989
0.000374055
0.00037075
0.000366954
0.000362615
0.000357759
0.00035245
0.000346827