/*--------------------------------*- C++ -*----------------------------------*\
| =========                 |                                                 |
| \\      /  F ield         | OpenFOAM: The Open Source CFD Toolbox           |
|  \\    /   O peration     | Version:  2506                                  |
|   \\  /    A nd           | Website:  www.openfoam.com                      |
|    \\/     M anipulation  |                                                 |
\*---------------------------------------------------------------------------*/
FoamFile
{
    version     2.0;
    format      ascii;
    arch        "LSB;label=32;scalar=64";
    class       volVectorField;
    location    "3.15";
    object      U;
}
// * * * * * * * * * * * * * * * * * * * * * * * * * * * * * * * * * * * * * //

dimensions      [0 1 -1 0 0 0 0];

internalField   nonuniform List<vector> 
4000
(
(0.00435271 -0.0019655 7.00055e-23)
(0.00593296 -0.00164973 0)
(0.0081988 -0.000859346 7.68889e-24)
(0.00992561 -0.000448678 2.77738e-24)
(0.0109661 -0.00027181 -1.09243e-24)
(0.0116358 -0.000170215 0)
(0.0121099 -0.00010729 -6.76913e-24)
(0.0124555 -7.07133e-05 -8.80809e-24)
(0.0127132 -4.92479e-05 0)
(0.0129121 -3.58711e-05 0)
(0.0130706 -2.71613e-05 -2.63583e-22)
(0.0131997 -2.13045e-05 5.25342e-22)
(0.0133066 -1.72191e-05 -2.58168e-22)
(0.0133962 -1.42714e-05 3.36057e-22)
(0.0134723 -1.20991e-05 -3.34709e-22)
(0.0135374 -1.04884e-05 -2.36165e-23)
(0.0135936 -9.30763e-06 -4.372e-22)
(0.0136425 -8.47508e-06 4.35609e-22)
(0.0136855 -7.94079e-06 -3.05348e-23)
(0.0137239 -7.6762e-06 0)
(0.0137588 -7.66834e-06 0)
(0.0137913 -7.91706e-06 3.89395e-23)
(0.0138227 -8.43454e-06 4.2118e-23)
(0.0138542 -9.24696e-06 0)
(0.0138873 -1.03973e-05 4.90674e-23)
(0.013924 -1.19512e-05 5.2834e-23)
(0.0139663 -1.40092e-05 0)
(0.0140174 -1.67458e-05 0)
(0.01408 -2.01899e-05 -2.18144e-21)
(0.0141642 -2.41564e-05 2.24137e-21)
(0.0142901 -4.03711e-05 0)
(0.0142569 -0.000108978 5.09342e-21)
(0.0139402 -0.000282617 -7.8735e-21)
(0.0133689 -0.000616198 1.09514e-22)
(0.0126391 -0.00114637 3.12573e-21)
(0.0118085 -0.00193184 -4.98597e-20)
(0.0111032 -0.0029156 4.1327e-23)
(0.010337 -0.00435984 9.76937e-21)
(0.00937531 -0.0061645 0)
(0.00840686 -0.00784546 -3.42787e-21)
(0.00763825 -0.00923452 3.50451e-21)
(0.00704754 -0.0103469 -2.81412e-20)
(0.00658827 -0.0112093 0)
(0.00623816 -0.0118322 -2.41543e-20)
(0.00596906 -0.0122358 1.0025e-20)
(0.00574349 -0.0124495 -1.36468e-20)
(0.00553998 -0.0124853 0)
(0.00534888 -0.0123756 1.24401e-20)
(0.00513578 -0.0121662 1.22504e-20)
(0.00487429 -0.011844 8.41248e-21)
(0.00454604 -0.0114017 0)
(0.00422565 -0.0107661 0)
(0.00394727 -0.00997362 6.99729e-22)
(0.00379791 -0.00888695 -5.01891e-21)
(0.00395749 -0.00748651 -9.06909e-22)
(0.00469116 -0.00572579 1.42337e-21)
(0.00608034 -0.0038558 -1.14494e-22)
(0.00819284 -0.00202083 4.57383e-22)
(0.0108371 -0.00057268 0)
(0.0132909 0.000208442 -6.49259e-22)
(0.0150188 0.000457996 -2.21627e-21)
(0.0159601 0.000348136 1.53785e-22)
(0.016397 0.000186218 7.72605e-21)
(0.0165718 5.69147e-05 -8.00972e-21)
(0.016628 -2.0309e-05 0)
(0.0166322 -6.10347e-05 0)
(0.0166238 -8.16034e-05 0)
(0.0166146 -9.12932e-05 -1.23659e-21)
(0.0166044 -9.08133e-05 -1.8139e-20)
(0.0165962 -8.72712e-05 -9.94537e-21)
(0.0165892 -8.56081e-05 0)
(0.016583 -8.43007e-05 8.70623e-21)
(0.0165769 -8.26528e-05 -8.65355e-21)
(0.0165712 -8.05958e-05 -8.86754e-22)
(0.0165659 -7.81745e-05 9.34399e-21)
(0.0165609 -7.54427e-05 -8.23452e-21)
(0.0165561 -7.24046e-05 -9.16116e-21)
(0.0165521 -6.91917e-05 -8.58118e-21)
(0.0165482 -6.5681e-05 0)
(0.0165446 -6.18584e-05 0)
(0.0165412 -5.76295e-05 2.22197e-22)
(0.0165394 -5.30888e-05 6.5792e-21)
(0.0165367 -4.78989e-05 0)
(0.0165354 -4.30285e-05 -5.13314e-21)
(0.016533 -3.63222e-05 4.23538e-21)
(0.0165308 -2.8204e-05 0)
(0.0165245 -1.86923e-05 0)
(0.0165099 -8.34411e-06 2.82867e-23)
(0.0164616 1.07335e-06 -3.68716e-23)
(0.016356 -6.3461e-07 4.43918e-22)
(0.0161826 -3.80297e-05 -6.40317e-23)
(0.0159352 -0.000141263 8.43463e-24)
(0.015643 -0.000329758 2.3807e-22)
(0.0153574 -0.000606239 0)
(0.0151433 -0.000937988 -6.15351e-21)
(0.01502 -0.00122387 -6.96581e-21)
(0.0149802 -0.00143833 -7.67641e-21)
(0.0150052 -0.0015724 -5.3903e-22)
(0.0150691 -0.00163298 -8.62847e-21)
(0.0151373 -0.00164412 -9.33453e-21)
(0.0151915 -0.00164421 1.50631e-22)
(0.0151901 -0.00166192 -9.73305e-21)
(0.0151168 -0.00172483 -1.8268e-20)
(0.01496 -0.00185261 -4.27542e-22)
(0.0147173 -0.00205257 -8.12162e-21)
(0.0143929 -0.00231927 0)
(0.0139898 -0.00263702 7.65869e-21)
(0.013508 -0.00298171 6.79531e-21)
(0.0129567 -0.00332096 4.72455e-22)
(0.0123447 -0.00362554 0)
(0.0116549 -0.00386058 5.86032e-21)
(0.0109666 -0.00393799 -5.35191e-21)
(0.0103512 -0.00381942 0)
(0.00998145 -0.00339285 -8.29033e-21)
(0.0100525 -0.00269643 -1.49831e-21)
(0.0107069 -0.00178626 -1.9801e-21)
(0.0120378 -0.000823806 0)
(0.0136868 -0.000119677 3.44575e-22)
(0.0151166 0.00021734 -1.31015e-22)
(0.0160263 0.000198088 -5.6481e-23)
(0.0164852 0.00010218 1.73201e-22)
(0.0166686 2.06227e-06 -7.45667e-21)
(0.0167149 -6.22842e-05 8.84654e-21)
(0.0167071 -9.41956e-05 5.98895e-22)
(0.0166895 -0.000111253 8.64995e-21)
(0.0166686 -0.000115812 -1.91139e-20)
(0.0166502 -0.000109655 9.75308e-21)
(0.0166364 -0.000102857 -1.079e-20)
(0.0166251 -9.89514e-05 4.36123e-22)
(0.0166152 -9.56519e-05 -9.68337e-21)
(0.0166067 -9.21388e-05 0)
(0.0165992 -8.83155e-05 1.0749e-20)
(0.0165926 -8.42153e-05 -1.70892e-21)
(0.0165868 -7.99104e-05 1.17881e-20)
(0.0165816 -7.53734e-05 0)
(0.0165768 -7.05649e-05 0)
(0.0165723 -6.53959e-05 -9.55191e-21)
(0.0165678 -5.9672e-05 8.79147e-21)
(0.0165646 -5.35175e-05 0)
(0.0165607 -4.6765e-05 0)
(0.0165566 -3.92347e-05 7.25624e-21)
(0.0165541 -3.08442e-05 -1.51252e-21)
(0.0165493 -2.16397e-05 6.92305e-21)
(0.0165448 -1.19441e-05 0)
(0.0165369 -1.72721e-06 -2.82419e-21)
(0.0165241 8.49843e-06 -1.30896e-21)
(0.0164893 1.58452e-05 5.60586e-22)
(0.0164084 1.68441e-05 -2.30235e-22)
(0.016259 -4.79438e-06 0)
(0.0160414 -7.84578e-05 -5.26625e-22)
(0.0157528 -0.0002319 -2.14248e-22)
(0.0154389 -0.000478108 5.14262e-21)
(0.0151665 -0.000806738 -9.65673e-22)
(0.0149755 -0.00114077 -1.21552e-23)
(0.0148707 -0.00141769 -4.28411e-21)
(0.014842 -0.0016212 -1.54261e-21)
(0.0148633 -0.00175462 0)
(0.0149144 -0.00183698 0)
(0.0149453 -0.00189992 0)
(0.0149218 -0.00197773 1.42528e-20)
(0.0147996 -0.00209518 -1.73311e-21)
(0.0145398 -0.00226616 -6.43024e-21)
(0.0138681 -0.00250812 -5.00047e-21)
(0.0129335 -0.00266817 0)
(0.0123935 -0.00261561 7.56334e-21)
(0.0120035 -0.0024701 1.18649e-20)
(0.0117252 -0.0021963 1.03437e-22)
(0.0116993 -0.0017863 1.64227e-21)
(0.0120085 -0.00127487 4.26664e-21)
(0.0126798 -0.000749108 1.38237e-21)
(0.0134942 -0.000349479 0)
(0.0140534 -0.000155712 1.45151e-23)
(0.0143431 -6.99212e-05 0)
(0.0144805 -3.23798e-05 1.18885e-23)
(0.0145429 -1.35125e-05 1.11012e-23)
(0.0145642 -3.84199e-06 6.79026e-22)
(0.0145624 1.15936e-06 -6.77739e-22)
(0.0145488 4.10812e-06 -3.19544e-22)
(0.0145296 5.63871e-06 3.29079e-22)
(0.0145072 6.55861e-06 -3.12422e-22)
(0.0144819 7.30532e-06 6.61487e-22)
(0.0144533 8.05376e-06 -3.18484e-22)
(0.0144208 8.83313e-06 0)
(0.0143834 9.57554e-06 1.1327e-23)
(0.0143401 1.02965e-05 -1.19399e-23)
(0.0142903 1.14815e-05 4.29757e-22)
(0.014234 1.29094e-05 -4.03223e-22)
(0.0141703 1.4375e-05 4.79324e-22)
(0.0140983 1.59206e-05 -4.63415e-22)
(0.0140168 1.77111e-05 2.9684e-22)
(0.0139237 2.00212e-05 -2.6155e-22)
(0.0138153 2.337e-05 1.99452e-23)
(0.0136845 2.88315e-05 2.18306e-23)
(0.0135183 3.87656e-05 0)
(0.0132891 5.86141e-05 2.6911e-23)
(0.012937 0.0001012 3.07858e-23)
(0.0123205 0.000198927 3.77307e-22)
(0.0110946 0.000454104 -3.91574e-22)
(0.00855677 0.00126069 0)
(0.00644159 0.0023436 1.03292e-22)
(-5.35527e-05 -0.00378137 -4.01567e-23)
(-0.000101793 -0.00352366 1.28424e-24)
(0.00131677 -0.00248389 -9.26105e-24)
(0.0027048 -0.00179569 1.2449e-23)
(0.00381497 -0.0013013 1.31486e-23)
(0.00469997 -0.000938137 2.76578e-23)
(0.00542254 -0.000690792 -3.76508e-23)
(0.00601348 -0.000526978 2.92481e-23)
(0.00649945 -0.000415345 2.33507e-23)
(0.00690462 -0.000336262 2.77678e-23)
(0.00724713 -0.000278487 4.89874e-23)
(0.00754002 -0.000235059 3.50657e-22)
(0.00779301 -0.000201491 -3.33194e-22)
(0.00801355 -0.000174919 3.83528e-22)
(0.00820744 -0.000153505 -7.52032e-22)
(0.00837924 -0.00013604 9.57876e-22)
(0.00853266 -0.000121713 -3.97281e-22)
(0.00867082 -0.000109986 6.06938e-22)
(0.00879641 -0.000100513 7.43501e-22)
(0.00891186 -9.31004e-05 -1.09663e-21)
(0.00901949 -8.76756e-05 8.16709e-23)
(0.00912157 -8.42808e-05 1.53602e-21)
(0.00922048 -8.30741e-05 -1.53401e-21)
(0.00931883 -8.43447e-05 -1.63307e-21)
(0.00941956 -8.85453e-05 1.67009e-21)
(0.00952615 -9.63473e-05 5.81824e-23)
(0.00964286 -0.000108736 2.14829e-21)
(0.00977506 -0.000127135 2.38243e-23)
(0.00992894 -0.000153696 -4.72582e-21)
(0.0101179 -0.000190453 -2.47861e-22)
(0.0103704 -0.000243832 2.56702e-21)
(0.0105172 -0.000379457 2.78458e-21)
(0.0104434 -0.000653124 8.42672e-21)
(0.0101937 -0.00108872 1.73031e-20)
(0.00987301 -0.00169196 1.19576e-20)
(0.00954618 -0.00247968 1.2383e-20)
(0.00926813 -0.00345291 -2.83725e-21)
(0.00894434 -0.00467933 -9.0707e-21)
(0.00847963 -0.00603332 3.00814e-21)
(0.00796085 -0.00731036 9.00221e-21)
(0.00751271 -0.00845345 1.201e-20)
(0.00712326 -0.00944441 1.22547e-20)
(0.00677276 -0.0102634 0)
(0.00645251 -0.010905 2.41633e-20)
(0.0061477 -0.011375 -1.18632e-20)
(0.00584169 -0.0116834 1.20675e-20)
(0.00552084 -0.0118476 -1.15363e-20)
(0.00517229 -0.0118839 0)
(0.00477292 -0.0117791 -1.00838e-21)
(0.00430205 -0.0115805 -8.82972e-21)
(0.00375279 -0.0112729 7.69179e-21)
(0.00314202 -0.010836 -8.48546e-22)
(0.00249549 -0.0102885 -5.18623e-21)
(0.00182689 -0.00955566 9.12917e-22)
(0.00125865 -0.00861508 -3.03972e-21)
(0.000917842 -0.00737633 0)
(0.000997016 -0.00587725 4.18622e-22)
(0.00177067 -0.00411762 -7.36249e-22)
(0.00356675 -0.00228844 -2.74605e-22)
(0.00627639 -0.000692054 8.8533e-22)
(0.00943132 0.000343825 2.74247e-21)
(0.0122546 0.000833387 6.82718e-21)
(0.0141952 0.000751782 8.9447e-21)
(0.0153727 0.000512491 9.19807e-21)
(0.0160098 0.000279239 -1.18141e-21)
(0.0163061 0.000103959 1.14786e-21)
(0.0164422 -7.92998e-06 0)
(0.0165076 -7.43266e-05 0)
(0.0165383 -0.000120396 2.03144e-20)
(0.0165534 -0.000150245 -9.82015e-21)
(0.0165614 -0.000166093 -1.28542e-21)
(0.0165653 -0.00017458 1.2433e-20)
(0.0165662 -0.000178166 8.56566e-21)
(0.0165652 -0.000178425 1.16836e-20)
(0.016563 -0.000176398 -6.67509e-22)
(0.0165602 -0.000171836 -6.24451e-22)
(0.0165569 -0.000164514 -1.03033e-20)
(0.0165533 -0.000155239 9.35382e-21)
(0.0165489 -0.000144247 5.52198e-22)
(0.0165436 -0.000131594 8.17112e-21)
(0.0165373 -0.000117158 -7.62148e-21)
(0.0165299 -0.000100293 0)
(0.0165194 -8.04836e-05 0)
(0.0165048 -5.62119e-05 0)
(0.0164821 -2.90661e-05 -4.46247e-21)
(0.0164453 3.12044e-06 1.2498e-22)
(0.0163795 3.87566e-05 -1.12599e-22)
(0.0162707 8.09361e-05 1.21535e-22)
(0.0161079 0.000117608 3.23212e-23)
(0.0158884 0.000120612 -1.08847e-21)
(0.0156367 5.76884e-05 1.57455e-22)
(0.0153889 -9.29342e-05 -6.02103e-23)
(0.0151911 -0.00033094 -3.80565e-21)
(0.0150699 -0.000628544 4.93272e-21)
(0.0150242 -0.000929202 -5.68699e-21)
(0.0150359 -0.00118226 6.29603e-21)
(0.0150841 -0.00135961 -6.4409e-21)
(0.0151359 -0.00145619 -7.35854e-21)
(0.0151674 -0.00149173 8.12933e-21)
(0.0151592 -0.00150414 8.15296e-21)
(0.015078 -0.00151881 0)
(0.0149073 -0.00157502 -7.63429e-21)
(0.0146571 -0.0017004 8.23437e-21)
(0.0143303 -0.00190181 -2.3157e-22)
(0.0139323 -0.00217498 9.46165e-22)
(0.0134662 -0.00250437 0)
(0.0129288 -0.00286691 -1.36236e-20)
(0.0123159 -0.00323506 -1.33492e-20)
(0.0116279 -0.00358121 -5.76241e-21)
(0.0108654 -0.00387993 -5.02622e-21)
(0.010029 -0.00409456 -5.63412e-21)
(0.0091631 -0.00416587 9.9606e-21)
(0.00832628 -0.00410022 -2.83086e-22)
(0.00759352 -0.00382089 4.12946e-21)
(0.00710788 -0.00332339 -3.0157e-22)
(0.0070099 -0.00259778 9.57733e-22)
(0.00754319 -0.00169218 2.90301e-23)
(0.00882273 -0.000763767 -6.08351e-22)
(0.0107644 -5.82787e-06 -1.56647e-22)
(0.0128661 0.000427556 1.44553e-22)
(0.0145112 0.000455727 0)
(0.0155664 0.000326948 8.1841e-21)
(0.0161381 0.000157956 2.80534e-22)
(0.0164043 2.01129e-05 -8.70899e-22)
(0.0165227 -6.21781e-05 -9.73564e-21)
(0.0165701 -0.000114657 1.07403e-20)
(0.016587 -0.000154146 1.00424e-20)
(0.016593 -0.000177485 2.15419e-20)
(0.0165938 -0.000188329 2.18543e-20)
(0.0165915 -0.000192865 1.00831e-20)
(0.0165876 -0.000193513 1.36861e-21)
(0.0165829 -0.000191467 1.05624e-20)
(0.0165777 -0.000187036 -2.17263e-20)
(0.0165723 -0.000180306 2.63914e-21)
(0.0165666 -0.000171428 7.42698e-21)
(0.0165605 -0.000160346 0)
(0.0165541 -0.000147762 0)
(0.0165468 -0.000133475 -6.29615e-22)
(0.0165392 -0.000116952 -2.0763e-21)
(0.0165293 -9.83236e-05 -5.62748e-21)
(0.0165168 -7.78595e-05 -1.70932e-21)
(0.016501 -5.41999e-05 2.08228e-22)
(0.0164772 -2.74867e-05 2.34056e-21)
(0.0164417 2.97577e-06 -2.287e-21)
(0.0163815 3.71747e-05 2.90083e-21)
(0.0162844 7.31062e-05 0)
(0.0161336 0.00011129 2.01261e-22)
(0.01592 0.0001272 -1.961e-22)
(0.0156576 8.26022e-05 -3.87192e-22)
(0.0153807 -5.14308e-05 0)
(0.0151341 -0.000284793 0)
(0.0149564 -0.000598557 0)
(0.0148589 -0.00094296 0)
(0.0148296 -0.00125923 -1.03797e-20)
(0.0148383 -0.00150463 -2.50279e-21)
(0.0148631 -0.0016697 -1.35774e-21)
(0.0148745 -0.00177045 1.51614e-21)
(0.0148272 -0.00183983 8.74185e-21)
(0.0146849 -0.00191566 -2.83096e-21)
(0.014423 -0.00203111 -6.47374e-21)
(0.0140139 -0.00219849 -5.39159e-23)
(0.0134227 -0.00238943 4.68605e-21)
(0.0125892 -0.0025383 -1.49345e-21)
(0.0117295 -0.00250041 2.9695e-23)
(0.0111145 -0.0024385 7.60667e-21)
(0.010567 -0.00237204 -6.47767e-21)
(0.0100383 -0.00222631 0)
(0.00963554 -0.00196743 0)
(0.00944762 -0.00159856 -1.64635e-21)
(0.00955328 -0.00115966 -1.22296e-21)
(0.00993 -0.000754531 1.17148e-21)
(0.010317 -0.000470178 -1.67826e-23)
(0.0105751 -0.000276616 9.30421e-22)
(0.0107215 -0.000147634 -9.14202e-22)
(0.0107948 -6.83048e-05 -3.79196e-23)
(0.0108189 -2.36181e-05 -7.76634e-22)
(0.0108114 1.45793e-07 2.89018e-23)
(0.0107855 1.25485e-05 3.99057e-22)
(0.0107489 1.94597e-05 3.34556e-22)
(0.0107047 2.44075e-05 3.63475e-22)
(0.0106533 2.93904e-05 -3.62969e-22)
(0.0105934 3.5193e-05 1.21723e-23)
(0.0105232 4.21754e-05 -4.13996e-22)
(0.010441 5.03192e-05 4.27066e-22)
(0.010345 5.95349e-05 1.39028e-23)
(0.0102338 7.01586e-05 4.46569e-22)
(0.0101057 8.19044e-05 -5.38671e-22)
(0.00995923 9.46863e-05 5.66081e-22)
(0.00979256 0.000109001 -6.21574e-22)
(0.0096028 0.000125881 2.71993e-22)
(0.00938534 0.000147127 -3.53624e-22)
(0.00913257 0.000176039 2.38638e-23)
(0.00883157 0.000219095 -7.75506e-23)
(0.00845929 0.000289908 -4.83071e-22)
(0.00797246 0.000418726 5.17e-22)
(0.00728746 0.000674711 -1.08886e-22)
(0.00624612 0.00121565 -4.36576e-23)
(0.00458721 0.00237659 1.57796e-22)
(0.00193532 0.00458369 0)
(0.000243851 0.00609769 -2.63081e-22)
(-0.000386488 -0.00313783 0)
(-0.00107612 -0.00372425 -6.48338e-23)
(-0.000765844 -0.00316097 2.58083e-23)
(-0.000152317 -0.0025582 9.05422e-25)
(0.000528722 -0.00203704 -9.7208e-24)
(0.00119674 -0.00161483 -3.98143e-23)
(0.00181803 -0.00129486 3.94607e-23)
(0.00238049 -0.00105792 -1.98882e-23)
(0.0028816 -0.000880381 -2.49469e-23)
(0.00332603 -0.000744775 -8.56513e-23)
(0.00372046 -0.000639323 -3.41936e-23)
(0.00407136 -0.00055583 -1.1247e-22)
(0.00438464 -0.00048856 3.57101e-22)
(0.00466551 -0.000433544 -8.40262e-22)
(0.00491848 -0.000388033 3.38949e-22)
(0.00514742 -0.000350105 -5.30359e-22)
(0.00535569 -0.000318416 2.86464e-22)
(0.00554628 -0.000292045 -1.9968e-22)
(0.00572192 -0.000270394 -1.29064e-21)
(0.00588515 -0.000253128 1.12939e-21)
(0.0060385 -0.000240145 -8.654e-23)
(0.00618451 -0.000231557 -2.75342e-22)
(0.0063259 -0.000227704 1.66164e-21)
(0.00646563 -0.000229179 -1.7603e-21)
(0.00660714 -0.000236889 -1.9233e-21)
(0.0067544 -0.00025215 1.54082e-21)
(0.00691222 -0.000276851 2.20798e-21)
(0.00708649 -0.000313699 -2.04789e-21)
(0.00728393 -0.000366761 0)
(0.00751602 -0.000441425 0)
(0.00780698 -0.000547473 0)
(0.00805084 -0.000745446 0)
(0.00815823 -0.0010785 -1.14549e-20)
(0.00814381 -0.00155812 -1.47965e-20)
(0.00807269 -0.00218672 1.49733e-20)
(0.00798102 -0.00297803 -2.80945e-21)
(0.00789498 -0.00393837 1.56241e-20)
(0.00774753 -0.00507891 -3.07937e-21)
(0.007491 -0.00629103 -1.21386e-20)
(0.00719734 -0.00745069 2.79598e-21)
(0.00693205 -0.00851026 -2.41893e-20)
(0.00667826 -0.00944046 0)
(0.00642412 -0.0102195 1.13781e-20)
(0.00616749 -0.0108385 1.10243e-20)
(0.00589967 -0.0112967 -1.33327e-21)
(0.00560911 -0.0115988 -8.2368e-21)
(0.00528419 -0.0117545 1.84943e-20)
(0.00491008 -0.0117782 7.69095e-21)
(0.00447113 -0.0116797 1.27351e-21)
(0.00395505 -0.0114699 -1.32607e-22)
(0.00335655 -0.0111498 -2.3647e-21)
(0.00268401 -0.0107205 1.39566e-21)
(0.00195054 -0.0101886 3.47699e-22)
(0.00116954 -0.0095181 -1.66834e-22)
(0.000410497 -0.00869003 -2.19126e-21)
(-0.000248114 -0.00765354 2.75556e-22)
(-0.000646465 -0.00641151 -6.53087e-22)
(-0.000654885 -0.00494963 8.32146e-22)
(2.74926e-05 -0.00333879 2.79421e-22)
(0.00158921 -0.00171821 0)
(0.00399979 -0.000285967 1.0911e-21)
(0.00704761 0.000745403 -9.66812e-22)
(0.00992875 0.00127076 5.29848e-22)
(0.0122534 0.00125442 -9.35166e-21)
(0.0139045 0.00106198 8.48079e-21)
(0.0149576 0.00078813 -8.63146e-21)
(0.0155838 0.000528243 0)
(0.0159447 0.000332411 0)
(0.0161505 0.000193702 -1.89488e-20)
(0.0162704 9.7672e-05 1.91356e-20)
(0.0163439 3.34467e-05 0)
(0.0163911 -9.19482e-06 -8.77194e-21)
(0.0164217 -3.7169e-05 -6.62519e-22)
(0.0164412 -5.43532e-05 8.00446e-21)
(0.0164529 -6.34015e-05 -1.02557e-20)
(0.0164588 -6.64749e-05 -8.31639e-21)
(0.0164601 -6.4386e-05 1.84021e-20)
(0.0164577 -5.70831e-05 -5.47065e-22)
(0.0164511 -4.53692e-05 -5.00227e-22)
(0.0164406 -2.97889e-05 -1.47909e-20)
(0.0164259 -1.04018e-05 1.42223e-20)
(0.0164045 1.44768e-05 1.95919e-22)
(0.0163736 4.32647e-05 -2.34481e-23)
(0.0163302 7.86271e-05 -1.73164e-22)
(0.0162695 0.000118941 4.36658e-21)
(0.0161813 0.000167372 0)
(0.0160553 0.000220673 -5.62207e-22)
(0.0158845 0.000267378 -4.8244e-24)
(0.0156702 0.000287511 -4.19583e-23)
(0.0154317 0.000250845 9.63731e-22)
(0.0152098 0.000130456 9.56384e-23)
(0.0150426 -8.1621e-05 5.87552e-21)
(0.0149559 -0.000366831 3.84465e-21)
(0.0149492 -0.000685287 -9.15602e-21)
(0.0149971 -0.00098608 -1.53546e-22)
(0.0150707 -0.00122628 6.16449e-21)
(0.0151348 -0.00138558 1.30095e-20)
(0.0151651 -0.00146934 7.1706e-21)
(0.0151299 -0.00150456 0)
(0.0150153 -0.0015258 -7.12007e-21)
(0.0148113 -0.00156756 0)
(0.0145302 -0.00165902 7.74911e-21)
(0.0141807 -0.00181788 -1.11936e-22)
(0.0137684 -0.00204627 -6.73428e-21)
(0.0132977 -0.00233381 7.20513e-21)
(0.012768 -0.00266137 0)
(0.0121737 -0.00300459 1.27446e-20)
(0.0115109 -0.00333767 6.31813e-21)
(0.0107808 -0.0036364 5.2745e-22)
(0.00998779 -0.00387733 5.56194e-21)
(0.00914026 -0.00403496 0)
(0.0082784 -0.00406655 -4.61648e-21)
(0.00743865 -0.0039765 0)
(0.00666234 -0.00372622 2.78312e-21)
(0.00602316 -0.00331939 -1.53727e-22)
(0.0056004 -0.00273977 0)
(0.00554772 -0.00199424 0)
(0.00604189 -0.00115414 6.42654e-22)
(0.00720438 -0.000306232 0)
(0.00905652 0.000409487 -1.98655e-22)
(0.0111219 0.000820093 4.1024e-22)
(0.0129423 0.000917563 -2.11762e-22)
(0.0142897 0.000814386 0)
(0.0151819 0.000613119 0)
(0.0157187 0.000420669 -9.2104e-21)
(0.0160229 0.000272572 1.01728e-20)
(0.016195 0.000161334 -2.00755e-20)
(0.0162961 8.21405e-05 -1.04038e-20)
(0.0163574 2.90077e-05 -1.45941e-21)
(0.0163953 -6.04908e-06 -9.22944e-21)
(0.0164187 -2.83345e-05 1.28836e-21)
(0.0164327 -4.10892e-05 -1.06506e-20)
(0.01644 -4.6681e-05 -1.81239e-21)
(0.0164422 -4.63748e-05 1.61206e-23)
(0.0164399 -4.09119e-05 -1.8503e-21)
(0.0164338 -3.12544e-05 2.40067e-21)
(0.0164242 -1.76866e-05 -8.80943e-21)
(0.0164106 -6.49899e-07 -1.73153e-20)
(0.0163922 2.10625e-05 0)
(0.0163665 4.68805e-05 7.76001e-21)
(0.0163332 7.57137e-05 8.18268e-21)
(0.0162877 0.000111034 -1.60431e-21)
(0.0162249 0.000150293 -4.20486e-21)
(0.0161376 0.000195916 -2.13558e-21)
(0.0160145 0.000245514 1.85303e-21)
(0.0158467 0.00029126 4.41728e-22)
(0.0156303 0.000314313 -1.12461e-22)
(0.0153786 0.000283077 -1.93048e-22)
(0.0151291 0.000164943 3.93005e-22)
(0.0149244 -5.45494e-05 2.28763e-21)
(0.0147947 -0.000361439 -1.26178e-21)
(0.0147461 -0.000715993 7.24769e-22)
(0.0147613 -0.00106575 3.87582e-21)
(0.0148012 -0.00136233 8.98147e-21)
(0.0148395 -0.00157821 5.10669e-21)
(0.0148294 -0.00171823 0)
(0.0147516 -0.00180656 5.39059e-21)
(0.0145732 -0.0018775 -1.59999e-20)
(0.0142748 -0.00196311 -9.36675e-22)
(0.0138461 -0.00208297 0)
(0.0132834 -0.00222832 -5.47984e-21)
(0.0125964 -0.00236329 0)
(0.0117887 -0.00237878 0)
(0.0110494 -0.00231834 -4.24423e-21)
(0.0104625 -0.00226557 -7.65587e-21)
(0.0099025 -0.00220323 0)
(0.00935012 -0.00206958 0)
(0.00887407 -0.00184653 2.5115e-21)
(0.00852355 -0.00154476 -2.5327e-21)
(0.00834467 -0.00118869 1.05671e-22)
(0.00835526 -0.000836876 1.78532e-22)
(0.00844715 -0.00055832 1.05311e-21)
(0.0085234 -0.000346764 -2.95533e-23)
(0.00856644 -0.000192244 5.29544e-23)
(0.00858074 -8.88309e-05 7.65845e-23)
(0.00857022 -2.54221e-05 7.81614e-22)
(0.00854021 1.14154e-05 3.43127e-23)
(0.00849671 3.2853e-05 -7.91514e-22)
(0.00844355 4.68073e-05 2.39647e-23)
(0.00838166 5.85889e-05 -3.9017e-22)
(0.00831005 7.14254e-05 4.14298e-22)
(0.00822658 8.68566e-05 -2.54288e-23)
(0.00812865 0.000105426 0)
(0.00801371 0.00012711 -2.77251e-23)
(0.00787947 0.000151638 -5.86418e-23)
(0.00772374 0.000178579 5.48251e-22)
(0.00754434 0.000207971 -4.84147e-22)
(0.007339 0.000240358 5.97911e-22)
(0.00710472 0.000277016 -1.20707e-21)
(0.00683708 0.000320319 1.04141e-21)
(0.00652932 0.000374391 -3.52122e-22)
(0.00617098 0.000446512 -1.49891e-22)
(0.00574549 0.00055022 5.47133e-23)
(0.00522602 0.000712251 0)
(0.00456862 0.000987578 -2.01009e-22)
(0.00370436 0.0014888 7.63674e-23)
(0.00254623 0.00242633 0)
(0.00106074 0.00408005 -1.05726e-22)
(-0.000662824 0.00630809 2.11515e-22)
(-0.000543893 0.00598428 3.79383e-22)
(-0.000280301 -0.00229865 -4.12137e-23)
(-0.00103534 -0.00340699 0)
(-0.00117147 -0.00332512 0)
(-0.00101392 -0.00293464 -8.72568e-24)
(-0.000687361 -0.00250654 -3.15256e-24)
(-0.000279958 -0.00211802 -3.93955e-23)
(0.000162637 -0.00179351 3.96715e-23)
(0.000605339 -0.00153162 -3.63897e-23)
(0.00103036 -0.00132118 0)
(0.00142936 -0.00115104 5.79507e-23)
(0.00179948 -0.00101221 0)
(0.0021406 -0.00089775 3.16134e-24)
(0.00245404 -0.000802384 0)
(0.00274178 -0.000722192 9.52025e-23)
(0.00300607 -0.000654281 0)
(0.0032492 -0.000596536 0)
(0.00347342 -0.000547427 1.25559e-22)
(0.00368092 -0.000505888 6.9987e-22)
(0.00387386 -0.000471234 -1.78229e-21)
(0.0040544 -0.00044311 1.215e-21)
(0.00422478 -0.00042147 0)
(0.00438735 -0.000406565 -1.36022e-21)
(0.00454472 -0.000398968 1.53895e-21)
(0.00469981 -0.000399618 2.11919e-22)
(0.004856 -0.000409892 0)
(0.00501726 -0.000431728 2.08012e-21)
(0.00518832 -0.00046781 -2.0564e-21)
(0.00537484 -0.000521845 0)
(0.00558312 -0.000599085 -2.51142e-21)
(0.00582282 -0.00070644 2.48667e-21)
(0.00611242 -0.000854468 -2.78849e-21)
(0.00638234 -0.00109137 5.4789e-21)
(0.00656552 -0.00145365 8.80252e-21)
(0.00666359 -0.00195394 3.11705e-21)
(0.00672098 -0.00259718 -4.11215e-22)
(0.00675985 -0.00339559 4.18127e-22)
(0.00679484 -0.00434836 9.09754e-21)
(0.00677102 -0.00543677 3.53509e-23)
(0.00665961 -0.00656406 -2.59249e-21)
(0.00651473 -0.00764351 5.66838e-21)
(0.00637132 -0.00863621 -2.42208e-21)
(0.00621165 -0.0095124 2.94342e-21)
(0.00602876 -0.0102481 -2.24629e-20)
(0.0058235 -0.0108314 -8.53448e-21)
(0.00558973 -0.0112585 -2.65941e-21)
(0.00531799 -0.0115307 0)
(0.00499867 -0.0116555 -8.09305e-22)
(0.00461934 -0.011643 -1.6999e-20)
(0.00416827 -0.0115015 -7.22342e-21)
(0.00364067 -0.0112419 -9.24956e-22)
(0.00303666 -0.0108725 -1.20995e-20)
(0.00236468 -0.0104019 0)
(0.00163749 -0.00983619 4.7639e-21)
(0.000872921 -0.00916278 -1.49872e-22)
(0.000118597 -0.00837819 -1.60589e-22)
(-0.000577429 -0.00746441 -2.62273e-22)
(-0.00113175 -0.0064197 4.21554e-22)
(-0.00143341 -0.00522623 -1.4861e-21)
(-0.00138118 -0.0039057 3.8806e-22)
(-0.000752062 -0.00248865 8.33958e-22)
(0.000596035 -0.00105287 -3.43868e-21)
(0.00278645 0.000276489 -1.00793e-21)
(0.00547622 0.00122681 -1.04332e-20)
(0.00820393 0.00173483 1.02679e-20)
(0.0105667 0.00182124 -1.65379e-20)
(0.0123965 0.00167665 -1.52702e-21)
(0.0137051 0.00141056 9.57222e-21)
(0.0145855 0.00112863 1.12934e-21)
(0.0151559 0.000882403 9.3517e-21)
(0.0155208 0.000686408 -1.16318e-20)
(0.0157566 0.000538354 -7.60483e-21)
(0.0159123 0.000429818 0)
(0.0160172 0.00035143 -9.38314e-21)
(0.0160886 0.000295615 -8.18144e-21)
(0.0161373 0.000256865 -1.11288e-21)
(0.0161695 0.000231289 1.73982e-20)
(0.0161888 0.000216184 -9.78417e-21)
(0.0161972 0.000210903 1.03972e-21)
(0.0161952 0.000213704 -7.58891e-21)
(0.016184 0.000223254 7.61261e-21)
(0.0161638 0.000239035 -7.09256e-21)
(0.016131 0.000263074 6.13502e-21)
(0.0160837 0.000292959 -5.49117e-21)
(0.0160176 0.000330696 0)
(0.0159285 0.00037329 -1.13172e-22)
(0.0158067 0.000421315 -5.25552e-23)
(0.0156464 0.000465769 7.37369e-22)
(0.0154519 0.000490047 0)
(0.0152374 0.000468729 -2.12068e-23)
(0.0150353 0.000371183 -5.78983e-22)
(0.0148872 0.000179282 2.48125e-22)
(0.0148197 -0.000100187 -3.28818e-21)
(0.0148362 -0.000433849 -3.42693e-21)
(0.0149122 -0.000774055 4.52763e-21)
(0.0150121 -0.00107166 2.40693e-22)
(0.0150958 -0.00129361 -5.4646e-21)
(0.0151269 -0.00143057 -6.32853e-21)
(0.0150785 -0.001498 -3.97623e-22)
(0.0149417 -0.0015274 -6.4214e-21)
(0.0147158 -0.00155516 1.37634e-20)
(0.0144094 -0.00161309 0)
(0.0140373 -0.00172442 0)
(0.0136115 -0.00189973 0)
(0.0131385 -0.002135 6.79237e-21)
(0.0126196 -0.0024153 4.06194e-22)
(0.0120514 -0.00271905 -2.01717e-22)
(0.0114271 -0.00302178 -5.45069e-22)
(0.0107459 -0.00329988 5.40338e-21)
(0.010013 -0.00353232 5.59078e-21)
(0.00923837 -0.00369924 0)
(0.00843684 -0.00377946 0)
(0.0076425 -0.00375772 0)
(0.0068807 -0.00362952 0)
(0.00617561 -0.00338497 -1.5934e-21)
(0.00555896 -0.00302892 -6.50262e-22)
(0.00506382 -0.00255722 0)
(0.00476224 -0.00196974 3.21317e-23)
(0.00476651 -0.00128236 0)
(0.00521058 -0.000513421 0)
(0.00630025 0.000288614 0)
(0.0079616 0.000951962 0)
(0.00986788 0.00135531 2.43461e-22)
(0.0116335 0.00148207 -7.42521e-21)
(0.0130664 0.0013985 -2.44587e-22)
(0.0141096 0.00121498 8.9477e-21)
(0.0148137 0.00101098 -9.82634e-21)
(0.0152743 0.000823821 1.00788e-20)
(0.0155741 0.000669467 0)
(0.0157706 0.000550475 -9.90261e-21)
(0.0159015 0.000461732 8.79167e-21)
(0.0159904 0.000396752 -6.89424e-21)
(0.0160511 0.00035029 9.31008e-21)
(0.0160916 0.000318269 -5.01782e-22)
(0.016117 0.00029816 -1.17208e-21)
(0.0161301 0.000288246 5.15589e-22)
(0.0161326 0.000286576 6.44599e-21)
(0.0161258 0.000292092 2.78402e-21)
(0.0161101 0.000303653 8.45964e-21)
(0.0160838 0.000322667 1.85079e-21)
(0.0160443 0.000347911 -8.67614e-21)
(0.015992 0.000377198 -1.28358e-20)
(0.0159204 0.000413872 -6.79215e-21)
(0.0158254 0.000453377 1.32184e-21)
(0.0157001 0.000495603 1.03466e-21)
(0.0155373 0.000532974 -7.15067e-22)
(0.0153388 0.000549564 2.76592e-22)
(0.015116 0.000520364 4.81328e-23)
(0.0148974 0.000412498 -5.40791e-24)
(0.0147249 0.000203131 0)
(0.0146293 -0.000103546 -2.31778e-21)
(0.0146161 -0.000474028 -2.00889e-21)
(0.0146644 -0.000856867 0)
(0.0147354 -0.00120002 -2.8602e-21)
(0.0147879 -0.00146652 -5.45815e-21)
(0.0147768 -0.00164529 3.38559e-21)
(0.0146816 -0.00175236 -3.64828e-21)
(0.0144817 -0.00181758 -6.7725e-21)
(0.0141652 -0.00187211 6.90405e-21)
(0.0137265 -0.00193838 5.60704e-21)
(0.013177 -0.0020231 -6.52989e-21)
(0.0125393 -0.0021089 7.02424e-21)
(0.0118439 -0.00215516 -5.2206e-21)
(0.0111061 -0.00211872 -1.34236e-21)
(0.0104678 -0.0020455 7.26319e-21)
(0.00993204 -0.00198298 0)
(0.00941646 -0.001902 -4.93008e-21)
(0.00892004 -0.00176384 -1.22116e-21)
(0.00848351 -0.00156401 -2.47306e-21)
(0.0081312 -0.00131603 2.30922e-21)
(0.00788136 -0.00103742 -1.05649e-21)
(0.00774366 -0.000758463 1.0752e-21)
(0.00767797 -0.000518909 0)
(0.00763467 -0.000323708 5.4513e-23)
(0.00759589 -0.000172962 7.75581e-22)
(0.00755566 -6.64451e-05 -8.82715e-22)
(0.00750911 2.70654e-06 -7.80606e-22)
(0.00745413 4.55817e-05 6.8434e-22)
(0.00739089 7.29685e-05 -3.8453e-22)
(0.00731936 9.34561e-05 3.8428e-22)
(0.00723837 0.000113183 0)
(0.00714584 0.000135977 -4.56953e-22)
(0.00703913 0.000163703 4.0656e-22)
(0.00691535 0.00019693 -4.96023e-22)
(0.00677166 0.000235476 4.42393e-22)
(0.00660536 0.000278869 6.00942e-23)
(0.00641388 0.000326707 -6.38088e-23)
(0.00619455 0.000379228 0)
(0.00594433 0.000437528 0)
(0.0056592 0.000503942 -7.96327e-23)
(0.00533354 0.000582634 0)
(0.00495911 0.000680572 0)
(0.00452381 0.000809486 2.0519e-22)
(0.00400989 0.000989866 0)
(0.0033917 0.00125893 0)
(0.0026346 0.00168512 5.58361e-22)
(0.00170192 0.00238795 -2.86857e-22)
(0.000588812 0.00353591 0)
(-0.000572012 0.00518351 0)
(-0.00134513 0.00649141 -2.80144e-23)
(-0.000514577 0.00493539 -2.30968e-22)
(-0.000183221 -0.00174464 2.7756e-23)
(-0.000787685 -0.00300112 -2.3934e-23)
(-0.00108115 -0.00322007 -1.03204e-23)
(-0.00114593 -0.0030406 1.90252e-23)
(-0.00103309 -0.00274339 3.06966e-23)
(-0.000814157 -0.00243172 -2.0662e-23)
(-0.000529014 -0.0021459 0)
(-0.000211759 -0.00189613 3.64047e-23)
(0.000115793 -0.00168216 0)
(0.000440078 -0.00149984 2.94413e-22)
(0.000753307 -0.0013444 -2.38622e-22)
(0.00105128 -0.00121145 7.49115e-23)
(0.00133205 -0.00109721 3.49322e-22)
(0.00159509 -0.000998638 -2.57385e-22)
(0.0018407 -0.000913311 9.89705e-23)
(0.00206969 -0.000839375 0)
(0.0022832 -0.000775451 1.18921e-22)
(0.00248256 -0.00072057 -4.25641e-22)
(0.00266927 -0.000674138 1.75862e-21)
(0.00284498 -0.000635908 -1.19932e-21)
(0.00301152 -0.000605982 -1.25039e-21)
(0.00317096 -0.000584817 1.4076e-21)
(0.00332565 -0.000573266 0)
(0.00347832 -0.00057263 -2.17368e-22)
(0.0036322 -0.000584749 0)
(0.0037911 -0.000612129 2.50879e-22)
(0.00395956 -0.000658124 2.18908e-21)
(0.00414291 -0.000727188 1.62542e-22)