/*--------------------------------*- C++ -*----------------------------------*\
| =========                 |                                                 |
| \\      /  F ield         | OpenFOAM: The Open Source CFD Toolbox           |
|  \\    /   O peration     | Version:  2506                                  |
|   \\  /    A nd           | Website:  www.openfoam.com                      |
|    \\/     M anipulation  |                                                 |
\*---------------------------------------------------------------------------*/
FoamFile
{
    version     2.0;
    format      ascii;
    arch        "LSB;label=32;scalar=64";
    class       volScalarField;
    location    "4.15";
    object      p;
}
// * * * * * * * * * * * * * * * * * * * * * * * * * * * * * * * * * * * * * //

dimensions      [0 2 -2 0 0 0 0];

internalField   nonuniform List<scalar> 
4000
(
-7.66101e-05
-2.9896e-05
-1.39342e-05
-9.14337e-06
-5.92181e-06
-3.74861e-06
-2.487e-06
-1.69227e-06
-1.13225e-06
-7.27823e-07
-4.31858e-07
-2.05829e-07
-2.14706e-08
1.41951e-07
3.00791e-07
4.68354e-07
6.55408e-07
8.70528e-07
1.12027e-06
1.40919e-06
1.73969e-06
2.11173e-06
2.52237e-06
2.96512e-06
3.42893e-06
3.8967e-06
4.34275e-06
4.72844e-06
4.99623e-06
5.08868e-06
4.84054e-06
3.55473e-06
1.88319e-06
1.19042e-07
-1.84174e-06
-4.10557e-06
-6.49729e-06
-1.00841e-05
-1.24541e-05
-1.26223e-05
-1.26696e-05
-1.24421e-05
-1.18502e-05
-1.11224e-05
-1.04233e-05
-9.85914e-06
-9.45181e-06
-9.4624e-06
-9.81545e-06
-1.04367e-05
-1.10935e-05
-1.14196e-05
-1.19594e-05
-1.14956e-05
-1.06408e-05
-8.66293e-06
-6.47686e-06
-3.12116e-06
4.06139e-07
3.03901e-06
4.75393e-06
5.67308e-06
5.54518e-06
5.43272e-06
5.09366e-06
4.90041e-06
4.7933e-06
4.7134e-06
4.63688e-06
4.52705e-06
4.38109e-06
4.21275e-06
4.03264e-06
3.84844e-06
3.66613e-06
3.48953e-06
3.32282e-06
3.16784e-06
3.02497e-06
2.89463e-06
2.77604e-06
2.66606e-06
2.56071e-06
2.45294e-06
2.34118e-06
2.21469e-06
2.07578e-06
1.92368e-06
1.76714e-06
1.64469e-06
1.66436e-06
1.88981e-06
2.52903e-06
3.62149e-06
5.1029e-06
6.56082e-06
7.81934e-06
8.58238e-06
8.55799e-06
7.67514e-06
5.99072e-06
3.75007e-06
1.19238e-06
-1.44893e-06
-4.02491e-06
-6.22509e-06
-7.97299e-06
-9.24545e-06
-1.00668e-05
-1.03963e-05
-1.025e-05
-9.34881e-06
-7.98693e-06
-5.91861e-06
-3.76389e-06
-1.32416e-06
8.06767e-07
2.24274e-06
3.03474e-06
3.41367e-06
3.19926e-06
2.89759e-06
2.60553e-06
2.46085e-06
2.3811e-06
2.38209e-06
2.41811e-06
2.45265e-06
2.48071e-06
2.50011e-06
2.50759e-06
2.50388e-06
2.49171e-06
2.47346e-06
2.45151e-06
2.42707e-06
2.40058e-06
2.37198e-06
2.33962e-06
2.3047e-06
2.26249e-06
2.20618e-06
2.13932e-06
2.046e-06
1.9305e-06
1.79245e-06
1.63224e-06
1.48377e-06
1.43893e-06
1.56929e-06
2.05928e-06
3.0422e-06
4.56112e-06
6.33827e-06
8.01564e-06
9.36325e-06
1.00959e-05
9.97001e-06
8.94377e-06
7.12909e-06
4.80922e-06
2.10829e-06
-1.17783e-06
-4.98407e-06
-5.3452e-06
-4.42933e-06
-3.49078e-06
-2.38282e-06
-9.69007e-07
5.34735e-07
1.83669e-06
2.79711e-06
3.82853e-06
4.93965e-06
6.09891e-06
7.32227e-06
8.62365e-06
1.00036e-05
1.14639e-05
1.30024e-05
1.46209e-05
1.63274e-05
1.81348e-05
2.00513e-05
2.20891e-05
2.4263e-05
2.65874e-05
2.90769e-05
3.17482e-05
3.46236e-05
3.77353e-05
4.11339e-05
4.4904e-05
4.91953e-05
5.42936e-05
6.07795e-05
6.98807e-05
8.4493e-05
0.00011332
0.000174441
-4.27299e-05
-2.34144e-05
-1.45674e-05
-1.02034e-05
-7.22485e-06
-5.12459e-06
-3.70409e-06
-2.71328e-06
-1.99235e-06
-1.45917e-06
-1.05877e-06
-7.48251e-07
-4.95224e-07
-2.75314e-07
-6.94869e-08
1.37452e-07
3.5766e-07
6.00762e-07
8.74135e-07
1.18299e-06
1.53033e-06
1.91666e-06
2.33968e-06
2.79368e-06
3.26869e-06
3.74931e-06
4.21267e-06
4.62533e-06
4.93926e-06
5.10988e-06
5.03326e-06
4.15952e-06
2.92855e-06
1.57054e-06
1.08628e-08
-1.84134e-06
-3.87836e-06
-6.61741e-06
-8.39371e-06
-8.86037e-06
-9.26984e-06
-9.47653e-06
-9.38416e-06
-9.18857e-06
-9.02458e-06
-8.97741e-06
-9.11023e-06
-9.53825e-06
-1.01785e-05
-1.09195e-05
-1.16105e-05
-1.20362e-05
-1.23714e-05
-1.19654e-05
-1.11539e-05
-9.59046e-06
-7.79013e-06
-5.34217e-06
-2.83778e-06
-6.43886e-07
1.17629e-06
2.98912e-06
3.78584e-06
4.55894e-06
4.76421e-06
4.81856e-06
4.79728e-06
4.74023e-06
4.68672e-06
4.60956e-06
4.49544e-06
4.35077e-06
4.18648e-06
4.01049e-06
3.82827e-06
3.64629e-06
3.47045e-06
3.30427e-06
3.15045e-06
3.00883e-06
2.87812e-06
2.7578e-06
2.6494e-06
2.54498e-06
2.44525e-06
2.33852e-06
2.23088e-06
2.11908e-06
2.01721e-06
1.9743e-06
2.12176e-06
2.56929e-06
3.36726e-06
4.44637e-06
5.66908e-06
6.79614e-06
7.50364e-06
7.60451e-06
6.97472e-06
5.6629e-06
3.78125e-06
1.49976e-06
-9.06181e-07
-3.16505e-06
-5.17965e-06
-6.83235e-06
-8.07561e-06
-8.88462e-06
-9.25436e-06
-9.24463e-06
-8.79631e-06
-7.78004e-06
-6.478e-06
-4.72441e-06
-3.01071e-06
-1.25944e-06
2.49328e-07
1.27736e-06
1.87271e-06
2.30993e-06
2.41882e-06
2.45241e-06
2.38005e-06
2.35687e-06
2.31903e-06
2.33276e-06
2.37536e-06
2.41633e-06
2.45279e-06
2.48208e-06
2.49927e-06
2.50389e-06
2.4984e-06
2.48499e-06
2.46642e-06
2.44459e-06
2.42028e-06
2.39444e-06
2.36521e-06
2.33602e-06
2.30363e-06
2.25994e-06
2.21623e-06
2.15432e-06
2.08373e-06
2.00213e-06
1.91186e-06
1.86839e-06
1.96469e-06
2.33525e-06
3.16319e-06
4.35702e-06
5.75992e-06
7.25876e-06
8.48109e-06
9.10455e-06
9.0537e-06
8.20617e-06
6.66577e-06
4.586e-06
2.16461e-06
-3.68281e-07
-2.8558e-06
-4.23123e-06
-3.81658e-06
-2.99484e-06
-2.18745e-06
-1.2299e-06
-5.68091e-08
1.19774e-06
2.32104e-06
3.26331e-06
4.26811e-06
5.35994e-06
6.50978e-06
7.72403e-06
9.01459e-06
1.03848e-05
1.18321e-05
1.33593e-05
1.49727e-05
1.66798e-05
1.84885e-05
2.04122e-05
2.2464e-05
2.46559e-05
2.70005e-05
2.95113e-05
3.22053e-05
3.51052e-05
3.82441e-05
4.16737e-05
4.5477e-05
4.97952e-05
5.48805e-05
6.12034e-05
6.96226e-05
8.1529e-05
9.90262e-05
0.000126121
-2.47808e-05
-1.84888e-05
-1.38847e-05
-1.0529e-05
-7.97052e-06
-6.01852e-06
-4.56795e-06
-3.49242e-06
-2.68673e-06
-2.07706e-06
-1.6089e-06
-1.23975e-06
-9.36643e-07
-6.73974e-07
-4.31559e-07
-1.93253e-07
5.39033e-08
3.20229e-07
6.13722e-07
9.40187e-07
1.3032e-06
1.70393e-06
2.14085e-06
2.6092e-06
3.10039e-06
3.60098e-06
4.09125e-06
4.5428e-06
4.91609e-06
5.17935e-06
5.27656e-06
4.79804e-06
4.02438e-06
3.086e-06
1.91549e-06
4.11519e-07
-1.31063e-06
-3.4405e-06
-4.92273e-06
-5.71962e-06
-6.48585e-06
-7.06804e-06
-7.39108e-06
-7.61122e-06
-7.83804e-06
-8.15032e-06
-8.6003e-06
-9.18748e-06
-9.86491e-06
-1.05454e-05
-1.11068e-05
-1.14261e-05
-1.15372e-05
-1.11516e-05
-1.04696e-05
-9.36868e-06
-8.14219e-06
-6.5804e-06
-4.88405e-06
-3.14627e-06
-1.47301e-06
6.46806e-07
1.99725e-06
3.27676e-06
4.01589e-06
4.45639e-06
4.64275e-06
4.68572e-06
4.69668e-06
4.66383e-06
4.58096e-06
4.46093e-06
4.31503e-06
4.15008e-06
3.97286e-06
3.79041e-06
3.60958e-06
3.4353e-06
3.2722e-06
3.11988e-06
2.97894e-06
2.84901e-06
2.73534e-06
2.62854e-06
2.53394e-06
2.43813e-06
2.3532e-06
2.28207e-06
2.24036e-06
2.29967e-06
2.57408e-06
3.07939e-06
3.77348e-06
4.65999e-06
5.52193e-06
6.15484e-06
6.34382e-06
5.94819e-06
4.98812e-06
3.53624e-06
1.69622e-06
-3.14655e-07
-2.30912e-06
-4.1347e-06
-5.58165e-06
-6.72747e-06
-7.53525e-06
-7.96565e-06
-8.02808e-06
-7.75833e-06
-7.13535e-06
-6.11456e-06
-4.9639e-06
-3.57355e-06
-2.3252e-06
-1.1891e-06
-2.03888e-07
5.18239e-07
9.9907e-07
1.48455e-06
1.76364e-06
1.98595e-06
2.06309e-06
2.16075e-06
2.18803e-06
2.24074e-06
2.30894e-06
2.36634e-06
2.41603e-06
2.45803e-06
2.48681e-06
2.50095e-06
2.50304e-06
2.49513e-06
2.48035e-06
2.46161e-06
2.43973e-06
2.41693e-06
2.39057e-06
2.3672e-06
2.34497e-06
2.31257e-06
2.28978e-06
2.25349e-06
2.2199e-06
2.19263e-06
2.17643e-06
2.2619e-06
2.54211e-06
3.09325e-06
3.92934e-06
5.0003e-06
6.13555e-06
7.16447e-06
7.73323e-06
7.73291e-06
7.14846e-06
5.96257e-06
4.25626e-06
2.27681e-06
2.82436e-07
-1.55264e-06
-2.95393e-06
-2.93437e-06
-2.40436e-06
-1.83112e-06
-1.13579e-06
-2.80933e-07
7.12894e-07
1.74714e-06
2.72008e-06
3.6279e-06
4.62265e-06
5.70088e-06
6.83634e-06
8.03469e-06
9.30682e-06
1.06574e-05
1.20887e-05
1.36052e-05
1.52131e-05
1.69203e-05
1.8736e-05
2.06712e-05
2.27367e-05
2.49433e-05
2.7302e-05
2.98259e-05
3.25307e-05
3.54379e-05
3.85785e-05
4.19984e-05
4.57673e-05
4.99936e-05
5.48506e-05
6.06206e-05
6.77148e-05
7.63825e-05
8.58539e-05
9.67474e-05
-1.68357e-05
-1.4486e-05
-1.20669e-05
-9.73166e-06
-7.77624e-06
-6.16527e-06
-4.87399e-06
-3.86354e-06
-3.07744e-06
-2.46431e-06
-1.98115e-06
-1.5922e-06
-1.26819e-06
-9.85343e-07
-7.24323e-07
-4.69349e-07
-2.07529e-07
7.15724e-08
3.76202e-07
7.12527e-07
1.08461e-06
1.49427e-06
1.94077e-06
2.42047e-06
2.92622e-06
3.44663e-06
3.96493e-06
4.45704e-06
4.88999e-06
5.2388e-06
5.46467e-06
5.2595e-06
4.79316e-06
4.12483e-06
3.19862e-06
1.91684e-06
3.97547e-07
-1.41328e-06
-2.82067e-06
-3.84127e-06
-4.80538e-06
-5.59042e-06
-6.1545e-06
-6.62261e-06
-7.08002e-06
-7.58835e-06
-8.14603e-06
-8.73815e-06
-9.35299e-06
-9.91744e-06
-1.03004e-05
-1.0447e-05
-1.03624e-05
-9.92935e-06
-9.28908e-06
-8.41943e-06
-7.49684e-06
-6.42704e-06
-5.27682e-06
-4.01693e-06
-2.72275e-06
-9.78045e-07
4.95047e-07
1.96204e-06
2.97495e-06
3.81241e-06
4.30432e-06
4.52748e-06
4.64674e-06
4.68171e-06
4.63889e-06
4.54532e-06
4.41812e-06
4.26567e-06
4.09572e-06
3.91556e-06
3.73239e-06
3.55123e-06
3.37931e-06
3.21742e-06
3.06678e-06
2.92701e-06
2.80697e-06
2.69471e-06
2.59948e-06
2.50887e-06
2.43706e-06
2.39427e-06
2.39035e-06
2.53458e-06
2.82967e-06
3.27222e-06
3.85771e-06
4.51169e-06
5.02582e-06
5.25316e-06
5.06051e-06
4.36623e-06
3.22724e-06
1.7675e-06
1.21373e-07
-1.59569e-06
-3.18806e-06
-4.55903e-06
-5.61007e-06
-6.39215e-06
-6.87793e-06
-7.03706e-06
-6.89167e-06
-6.47487e-06
-5.80323e-06
-4.87199e-06
-3.91571e-06
-2.86594e-06
-1.93224e-06
-1.10387e-06
-3.92002e-07
1.62967e-07
5.65198e-07
9.82445e-07
1.26849e-06
1.54454e-06
1.70464e-06
1.89574e-06
1.99863e-06
2.10663e-06
2.21577e-06
2.30089e-06
2.37001e-06
2.42792e-06
2.47023e-06
2.49492e-06
2.50528e-06
2.50329e-06
2.49226e-06
2.47662e-06
2.45685e-06
2.43659e-06
2.41211e-06
2.39256e-06
2.37799e-06
2.35407e-06
2.34661e-06
2.32999e-06
2.32583e-06
2.34223e-06
2.38608e-06
2.59328e-06
2.99175e-06
3.54324e-06
4.32254e-06
5.20307e-06
6.01163e-06
6.57065e-06
6.64079e-06
6.22216e-06
5.32909e-06
3.98125e-06
2.37238e-06
7.59337e-07
-7.10927e-07
-1.83623e-06
-2.4606e-06
-1.91651e-06
-1.4882e-06
-1.05846e-06
-4.05417e-07
3.75169e-07
1.24262e-06
2.146e-06
3.03511e-06
3.92062e-06
4.8996e-06
5.95585e-06
7.07037e-06
8.24993e-06
9.5044e-06
1.08389e-05
1.22573e-05
1.37642e-05
1.5366e-05
1.70704e-05
1.88862e-05
2.08229e-05
2.289e-05
2.50968e-05
2.74532e-05
2.99704e-05
3.26617e-05
3.55453e-05
3.8646e-05
4.19985e-05
4.56497e-05
4.9662e-05
5.41137e-05
5.90967e-05
6.46841e-05
7.06989e-05
7.61929e-05
8.1197e-05
-1.22527e-05
-1.13634e-05
-1.01313e-05
-8.60451e-06
-7.16669e-06
-5.91622e-06
-4.848e-06
-3.96706e-06
-3.25364e-06
-2.67896e-06
-2.21363e-06
-1.83042e-06
-1.50542e-06
-1.21815e-06
-9.51282e-07
-6.9023e-07
-4.22794e-07
-1.38882e-07
1.69657e-07
5.09102e-07
8.83815e-07
1.29609e-06
1.7459e-06
2.23054e-06
2.7441e-06
3.27685e-06
3.81431e-06
4.3355e-06
4.81201e-06
5.22213e-06
5.53293e-06
5.50734e-06
5.23928e-06
4.74231e-06
3.97203e-06
2.84241e-06
1.468e-06
-1.42024e-07
-1.50753e-06
-2.63372e-06
-3.68488e-06
-4.57652e-06
-5.28359e-06
-5.90148e-06
-6.49494e-06
-7.09816e-06
-7.66331e-06
-8.23465e-06
-8.75986e-06
-9.1648e-06
-9.37251e-06
-9.36045e-06
-9.13422e-06
-8.66067e-06
-8.0451e-06
-7.30772e-06
-6.54827e-06
-5.734e-06
-4.90773e-06
-4.00372e-06
-3.0534e-06
-1.75418e-06
-5.13453e-07
9.4127e-07
2.03395e-06
3.05222e-06
3.82196e-06
4.253e-06
4.51575e-06
4.65333e-06
4.67619e-06
4.62422e-06
4.5231e-06
4.38676e-06
4.22597e-06
4.04909e-06
3.86436e-06
3.67628e-06
3.49489e-06
3.32207e-06
3.1586e-06
3.00398e-06
2.8715e-06
2.74922e-06
2.6437e-06
2.55053e-06
2.47799e-06
2.44264e-06
2.49276e-06
2.64469e-06
2.88973e-06
3.27197e-06
3.70387e-06
4.09912e-06
4.30235e-06
4.20072e-06
3.73022e-06
2.82636e-06
1.64724e-06
3.13626e-07
-1.11535e-06
-2.49916e-06
-3.72681e-06
-4.7174e-06
-5.45095e-06
-5.94265e-06
-6.1786e-06
-6.14186e-06
-5.86574e-06
-5.38723e-06
-4.74069e-06
-3.93599e-06
-3.16142e-06
-2.34702e-06
-1.63825e-06
-9.99947e-07
-4.46931e-07
7.9137e-09
3.55531e-07
6.95254e-07
9.48134e-07
1.21163e-06
1.40075e-06
1.63327e-06
1.7926e-06
1.94849e-06
2.10035e-06
2.22033e-06
2.3145e-06
2.39235e-06
2.45149e-06
2.48895e-06
2.50905e-06
2.51395e-06
2.50661e-06
2.4935e-06
2.47484e-06
2.45577e-06
2.43127e-06
2.41145e-06
2.40011e-06
2.37987e-06
2.37929e-06
2.37246e-06
2.38119e-06
2.4267e-06
2.57804e-06
2.83405e-06
3.21577e-06
3.76398e-06
4.4219e-06
5.04109e-06
5.52439e-06
5.67499e-06
5.37834e-06
4.65614e-06
3.60898e-06
2.35296e-06
9.92194e-07
-2.12341e-07
-1.14539e-06
-1.69836e-06
-1.88273e-06
-1.20359e-06
-8.5285e-07
-4.76254e-07
1.4714e-07
8.57004e-07
1.63037e-06
2.45045e-06
3.2834e-06
4.14164e-06
5.09638e-06
6.12695e-06
7.21863e-06
8.37848e-06
9.61519e-06
1.09337e-05
1.23382e-05
1.38335e-05
1.54256e-05
1.71217e-05
1.89296e-05
2.08576e-05
2.29137e-05
2.51059e-05
2.74421e-05
2.99307e-05
3.25817e-05
3.54077e-05
3.84253e-05
4.16547e-05
4.5118e-05
4.88317e-05
5.27916e-05
5.69471e-05
6.11644e-05
6.51493e-05
6.84775e-05
7.09349e-05
-9.28324e-06
-9.04231e-06
-8.44016e-06
-7.48037e-06
-6.45343e-06
-5.49346e-06
-4.6372e-06
-3.89776e-06
-3.27591e-06
-2.75899e-06
-2.329e-06
-1.96666e-06
-1.6534e-06
-1.37232e-06
-1.10856e-06
-8.49173e-07
-5.83012e-07
-3.00666e-07
5.62789e-09
3.42e-07
7.12871e-07
1.12079e-06
1.56617e-06
2.04697e-06
2.55816e-06
3.0912e-06
3.63315e-06
4.16519e-06
4.66197e-06
5.10317e-06
5.45796e-06
5.54115e-06
5.39391e-06
5.00295e-06
4.33565e-06
3.32278e-06
2.07164e-06
6.21208e-07
-6.86891e-07
-1.83877e-06
-2.91224e-06
-3.85219e-06
-4.63708e-06
-5.33652e-06
-5.9952e-06
-6.61164e-06
-7.15707e-06
-7.67622e-06
-8.08636e-06
-8.34179e-06
-8.40475e-06
-8.27187e-06
-7.95792e-06
-7.47099e-06
-6.89086e-06
-6.25165e-06
-5.61803e-06
-4.96055e-06
-4.30845e-06
-3.62956e-06
-2.92097e-06
-1.9536e-06
-9.70059e-07
2.66198e-07
1.36638e-06
2.37876e-06
3.3077e-06
3.92961e-06
4.33738e-06
4.58906e-06
4.69269e-06
4.69645e-06
4.63087e-06
4.5159e-06
4.36698e-06
4.19464e-06
4.00914e-06
3.81404e-06
3.62163e-06
3.43642e-06
3.25893e-06
3.08369e-06
2.92906e-06
2.79066e-06
2.66835e-06
2.55177e-06
2.48776e-06
2.46832e-06
2.49475e-06
2.6191e-06
2.82046e-06
3.09769e-06
3.34791e-06
3.49658e-06
3.4246e-06
3.07012e-06
2.38266e-06
1.44081e-06
3.26838e-07
-8.51467e-07
-2.02136e-06
-3.0898e-06
-3.98705e-06
-4.67744e-06
-5.1544e-06
-5.42057e-06
-5.47466e-06
-5.30892e-06
-4.96508e-06
-4.48078e-06
-3.89466e-06
-3.21877e-06
-2.59486e-06
-1.95686e-06
-1.40595e-06
-9.01e-07
-4.54427e-07
-6.90636e-08
2.44595e-07
5.38763e-07
7.72183e-07
1.00716e-06
1.19864e-06
1.43987e-06
1.61811e-06
1.79868e-06
1.97902e-06
2.13316e-06
2.2535e-06
2.3535e-06
2.43273e-06
2.4856e-06
2.51726e-06
2.53039e-06
2.52691e-06
2.51505e-06
2.49564e-06
2.47592e-06
2.45035e-06
2.42237e-06
2.40566e-06
2.38201e-06
2.38063e-06
2.3556e-06
2.40162e-06
2.52128e-06
2.6678e-06
2.91767e-06
3.2965e-06
3.77021e-06
4.25133e-06
4.60223e-06
4.75028e-06
4.58309e-06
3.99848e-06
3.16212e-06
2.18275e-06
1.10588e-06
6.67084e-08
-7.16511e-07
-1.20095e-06
-1.39364e-06
-1.36568e-06
-6.96395e-07
-3.81456e-07
-2.32935e-08
5.66849e-07
1.21274e-06
1.91525e-06
2.67502e-06
3.4628e-06
4.2882e-06
5.21368e-06
6.21648e-06
7.28323e-06
8.42075e-06
9.63682e-06
1.0936e-05
1.23223e-05
1.38005e-05
1.53761e-05
1.70553e-05
1.8845e-05
2.07522e-05
2.27833e-05
2.49443e-05
2.72403e-05
2.96761e-05
3.22571e-05
3.49891e-05
3.78786e-05
4.09311e-05
4.4145e-05
4.74992e-05
5.09306e-05
5.43046e-05
5.74022e-05
5.99504e-05
6.17335e-05
6.27842e-05
-7.28491e-06
-7.31656e-06
-7.04721e-06
-6.44932e-06
-5.72544e-06
-4.99912e-06
-4.32068e-06
-3.71263e-06
-3.18329e-06
-2.73013e-06
-2.34339e-06
-2.00992e-06
-1.71587e-06
-1.44781e-06
-1.19338e-06
-9.41367e-07
-6.81898e-07
-4.06455e-07
-1.07898e-07
2.19505e-07
5.79978e-07
9.76051e-07
1.4083e-06
1.87501e-06
2.37169e-06
2.89056e-06
3.41976e-06
3.94203e-06
4.4344e-06
4.87704e-06
5.24029e-06
5.37953e-06
5.29975e-06
4.97448e-06
4.38281e-06
3.47308e-06
2.34049e-06
1.03478e-06
-1.95913e-07
-1.32318e-06
-2.37884e-06
-3.32656e-06
-4.14101e-06
-4.86982e-06
-5.54019e-06
-6.13093e-06
-6.63928e-06
-7.07196e-06
-7.36431e-06
-7.49373e-06
-7.44544e-06
-7.23033e-06
-6.87154e-06
-6.39536e-06
-5.86203e-06
-5.30689e-06
-4.7656e-06
-4.233e-06
-3.70473e-06
-3.16389e-06
-2.60257e-06
-1.86452e-06
-1.07604e-06
-7.38076e-08
9.22792e-07
1.8907e-06
2.82213e-06
3.57776e-06
4.12956e-06
4.50457e-06
4.69905e-06
4.7681e-06
4.74542e-06
4.65664e-06
4.52228e-06
4.35547e-06
4.16965e-06
3.96823e-06
3.76236e-06
3.56063e-06
3.36823e-06
3.18787e-06
3.02011e-06
2.83951e-06
2.6803e-06
2.56423e-06
2.4771e-06
2.40936e-06
2.42146e-06
2.50327e-06
2.62171e-06
2.77001e-06
2.83891e-06
2.77543e-06
2.44712e-06
1.90859e-06
1.16774e-06
2.54232e-07
-7.34046e-07
-1.71303e-06
-2.62302e-06
-3.4126e-06
-4.04205e-06
-4.49753e-06
-4.7742e-06
-4.87368e-06
-4.80325e-06
-4.56085e-06
-4.1936e-06
-3.73537e-06
-3.22171e-06
-2.66198e-06
-2.15868e-06
-1.65395e-06
-1.21658e-06
-8.09687e-07
-4.41918e-07
-1.1096e-07
1.75639e-07
4.47102e-07
6.73509e-07
8.89051e-07
1.07898e-06
1.31099e-06
1.49824e-06
1.69784e-06
1.88367e-06
2.06104e-06
2.19996e-06
2.31776e-06
2.41726e-06
2.48756e-06
2.53265e-06
2.55575e-06
2.55772e-06
2.5458e-06
2.52178e-06
2.49791e-06
2.47104e-06
2.45427e-06
2.40488e-06
2.34309e-06
2.34345e-06
2.38769e-06
2.42583e-06
2.48638e-06
2.64824e-06
2.90581e-06
3.22197e-06
3.57555e-06
3.86055e-06
3.97254e-06
3.79276e-06
3.36075e-06
2.71794e-06
1.91544e-06
1.06444e-06
2.387e-07
-4.67344e-07
-8.97608e-07
-1.07393e-06
-1.0693e-06
-9.4898e-07
-3.27697e-07
-2.43873e-08
3.26247e-07
8.82191e-07
1.47296e-06
2.11953e-06
2.82982e-06
3.57679e-06
4.36616e-06
5.25804e-06
6.22912e-06
7.26646e-06
8.37658e-06
9.56652e-06
1.08402e-05
1.22014e-05
1.36543e-05
1.52039e-05
1.68557e-05
1.86153e-05
2.04881e-05
2.24788e-05
2.45906e-05
2.68254e-05
2.91838e-05
3.16651e-05
3.42675e-05
3.69872e-05
3.98154e-05
4.2731e-05
4.56868e-05
4.85863e-05
5.12616e-05
5.34869e-05
5.50726e-05
5.59924e-05
5.6366e-05
-5.87484e-06
-6.00448e-06
-5.90405e-06
-5.52822e-06
-5.02545e-06
-4.48051e-06
-3.94701e-06
-3.45224e-06
-3.00765e-06
-2.61629e-06
-2.27444e-06
-1.97313e-06
-1.70208e-06
-1.45095e-06
-1.20982e-06
-9.69221e-07
-7.20621e-07
-4.56531e-07
-1.70605e-07
1.42298e-07
4.85976e-07
8.62691e-07
1.27291e-06
1.71501e-06
2.18478e-06
2.67493e-06
3.17448e-06
3.66763e-06
4.13367e-06
4.55323e-06
4.89828e-06
5.05705e-06
5.01133e-06
4.73038e-06
4.20329e-06
3.39309e-06
2.37893e-06
1.21091e-06
7.24886e-08
-9.99495e-07
-2.01151e-06
-2.93734e-06
-3.74441e-06
-4.46288e-06
-5.10944e-06
-5.65381e-06
-6.10125e-06
-6.43803e-06
-6.62403e-06
-6.65274e-06
-6.52469e-06
-6.26073e-06
-5.88831e-06
-5.43958e-06
-4.95971e-06
-4.47965e-06
-4.01741e-06
-3.57697e-06
-3.14666e-06
-2.70952e-06
-2.25062e-06
-1.67246e-06
-1.02853e-06
-2.14186e-07
6.55528e-07
1.5516e-06
2.43013e-06
3.22547e-06
3.87064e-06
4.37543e-06
4.68313e-06
4.83757e-06
4.87108e-06
4.81643e-06
4.70092e-06
4.54092e-06
4.35409e-06
4.14649e-06
3.93617e-06
3.71627e-06
3.48774e-06
3.2687e-06
3.06317e-06
2.87512e-06
2.69208e-06
2.52769e-06
2.40491e-06
2.32005e-06
2.29733e-06
2.30559e-06
2.31386e-06
2.32361e-06
2.23379e-06
1.91054e-06
1.43988e-06
8.58507e-07
1.10586e-07
-7.12293e-07
-1.53491e-06
-2.30118e-06
-2.97575e-06
-3.53396e-06
-3.95298e-06
-4.22791e-06
-4.35414e-06
-4.33543e-06
-4.18449e-06
-3.90314e-06
-3.54043e-06
-3.1235e-06
-2.68162e-06
-2.22072e-06
-1.8121e-06
-1.40846e-06
-1.05535e-06
-7.23208e-07
-4.17879e-07
-1.3543e-07
1.24373e-07
3.77789e-07
6.0053e-07
8.10742e-07
1.00112e-06
1.21426e-06
1.41099e-06
1.62225e-06
1.83099e-06
2.02845e-06
2.18453e-06
2.30839e-06
2.41685e-06
2.5004e-06
2.55854e-06
2.59209e-06
2.60327e-06
2.60103e-06
2.57356e-06
2.53644e-06
2.48505e-06
2.43813e-06
2.38829e-06
2.37834e-06
2.34549e-06
2.32624e-06
2.34437e-06
2.41765e-06
2.57388e-06
2.77899e-06
2.99089e-06
3.21079e-06
3.28635e-06
3.10054e-06
2.74469e-06
2.2619e-06
1.62968e-06
9.32135e-07
2.70631e-07
-2.93307e-07
-7.18363e-07
-8.95701e-07
-8.84899e-07
-7.82301e-07
-6.23759e-07
-5.3701e-08
2.51677e-07
5.95813e-07
1.1175e-06
1.66014e-06
2.25914e-06
2.92441e-06
3.63129e-06
4.38227e-06
5.23566e-06
6.1692e-06
7.17071e-06
8.24645e-06
9.40274e-06
1.06429e-05
1.19702e-05
1.33882e-05
1.49014e-05
1.65143e-05
1.82312e-05
2.0056e-05
2.19908e-05
2.40363e-05
2.61903e-05
2.84486e-05
3.08044e-05
3.32478e-05
3.57651e-05
3.83356e-05
4.09243e-05
4.34701e-05
4.58667e-05
4.79524e-05
4.95417e-05
5.05268e-05
5.10356e-05
5.11669e-05
-4.82536e-06
-4.97795e-06
-4.96112e-06
-4.7249e-06
-4.37135e-06
-3.96504e-06
-3.54788e-06
-3.14722e-06
-2.77648e-06
-2.44096e-06
-2.14171e-06
-1.87283e-06
-1.6262e-06
-1.39388e-06
-1.1685e-06
-9.42292e-07
-7.07922e-07
-4.58938e-07
-1.89933e-07
1.03475e-07
4.24487e-07
7.74918e-07
1.15494e-06
1.56292e-06
1.99484e-06
2.44381e-06
2.89974e-06
3.34837e-06
3.77193e-06
4.15131e-06
4.46147e-06
4.61705e-06
4.58683e-06
4.34081e-06
3.8751e-06
3.16325e-06
2.26659e-06
1.23061e-06
1.93084e-07
-8.05591e-07
-1.7572e-06
-2.63942e-06
-3.41217e-06
-4.09533e-06
-4.70093e-06
-5.17577e-06
-5.55039e-06
-5.79368e-06
-5.88894e-06
-5.84121e-06
-5.66084e-06
-5.37427e-06
-5.00948e-06
-4.59824e-06
-4.17424e-06
-3.76206e-06
-3.3699e-06
-3.00383e-06
-2.65169e-06
-2.29682e-06
-1.91896e-06
-1.46083e-06
-9.35015e-07
-2.73102e-07
4.72752e-07
1.28258e-06
2.11804e-06
2.90609e-06
3.59936e-06
4.18664e-06
4.60776e-06
4.86847e-06
4.98372e-06
4.9829e-06
4.89944e-06
4.75386e-06
4.56841e-06
4.35079e-06
4.12547e-06
3.88275e-06
3.62772e-06
3.37066e-06
3.11838e-06
2.89847e-06
2.69039e-06
2.50146e-06
2.3407e-06
2.21183e-06
2.13111e-06
2.04343e-06
1.95574e-06
1.81527e-06
1.48133e-06
1.02117e-06
5.38532e-07
-6.64288e-08
-7.64408e-07
-1.44769e-06
-2.08888e-06
-2.65753e-06
-3.13464e-06
-3.50982e-06
-3.76799e-06
-3.9074e-06
-3.92381e-06
-3.82415e-06
-3.62469e-06
-3.32998e-06
-2.98769e-06
-2.61711e-06
-2.24063e-06
-1.86155e-06
-1.52718e-06
-1.20174e-06
-9.12933e-07
-6.40041e-07
-3.85969e-07
-1.44912e-07
8.57625e-08
3.13756e-07
5.27313e-07
7.33592e-07
9.28952e-07
1.13361e-06
1.33232e-06
1.53493e-06
1.74676e-06
1.94346e-06
2.1457e-06
2.30225e-06
2.42775e-06
2.52366e-06
2.59449e-06
2.63739e-06
2.65238e-06
2.6523e-06
2.62597e-06
2.57529e-06
2.51538e-06
2.44624e-06
2.38599e-06
2.34599e-06
2.28041e-06
2.25196e-06
2.26541e-06
2.31904e-06
2.43228e-06
2.5485e-06
2.65733e-06
2.69496e-06
2.49018e-06
2.16552e-06
1.80434e-06
1.3029e-06
7.46567e-07
2.10301e-07
-2.40871e-07
-5.788e-07
-7.99043e-07
-8.07482e-07
-6.917e-07
-5.4477e-07
-3.67517e-07
1.56904e-07
4.65166e-07
8.01745e-07
1.28978e-06
1.789e-06
2.34441e-06
2.96555e-06
3.63094e-06
4.34118e-06
5.15091e-06
6.04035e-06
6.99882e-06
8.03229e-06
9.14644e-06
1.03441e-05
1.16278e-05
1.30009e-05
1.44669e-05
1.60294e-05
1.76914e-05
1.94548e-05
2.13196e-05
2.32831e-05
2.53395e-05
2.74794e-05
2.969e-05
3.1954e-05
3.42493e-05
3.65461e-05
3.88017e-05
4.09514e-05
4.28974e-05
4.45077e-05
4.5657e-05
4.63138e-05
4.66013e-05
4.66546e-05
-4.00624e-06
-4.15136e-06
-4.17358e-06
-4.02496e-06
-3.7744e-06
-3.46983e-06
-3.14385e-06
-2.81945e-06
-2.51222e-06
-2.22701e-06
-1.96485e-06
-1.72632e-06
-1.50444e-06
-1.29189e-06
-1.08385e-06
-8.74285e-07
-6.56932e-07
-4.26246e-07
-1.77869e-07
9.17259e-08
3.85052e-07
7.03393e-07
1.04647e-06
1.41283e-06
1.79873e-06
2.19764e-06
2.60058e-06
2.99522e-06
3.3659e-06
3.69615e-06
3.96367e-06
4.10404e-06
4.08055e-06
3.86629e-06
3.46132e-06
2.84564e-06
2.06319e-06
1.15282e-06
2.19406e-07
-6.96322e-07
-1.57714e-06
-2.40085e-06
-3.12248e-06
-3.75814e-06
-4.3053e-06
-4.70237e-06
-4.99509e-06
-5.15359e-06
-5.17644e-06
-5.07456e-06
-4.86435e-06
-4.57439e-06
-4.23072e-06
-3.86206e-06
-3.49271e-06
-3.1418e-06
-2.8117e-06
-2.50845e-06
-2.21968e-06
-1.93072e-06
-1.6227e-06
-1.25995e-06
-8.33857e-07
-3.01235e-07
3.21258e-07
1.02647e-06
1.7936e-06
2.56277e-06
3.2872e-06
3.92597e-06
4.43351e-06
4.80227e-06
5.02138e-06
5.10319e-06
5.07815e-06
4.96786e-06
4.79875e-06
4.57923e-06
4.33616e-06
4.07824e-06
3.81141e-06
3.54108e-06
3.26319e-06
2.98858e-06
2.72224e-06
2.48488e-06
2.27053e-06
2.07904e-06
1.91525e-06
1.7086e-06
1.49965e-06
1.18569e-06
7.27718e-07
2.59222e-07
-2.65164e-07
-8.38314e-07
-1.42776e-06
-1.95403e-06
-2.4269e-06
-2.82921e-06
-3.15016e-06
-3.38566e-06
-3.52324e-06
-3.56226e-06
-3.49999e-06
-3.34696e-06
-3.12157e-06
-2.83024e-06
-2.51646e-06
-2.19207e-06
-1.87316e-06
-1.56139e-06
-1.28607e-06
-1.02322e-06
-7.84715e-07
-5.60544e-07
-3.49894e-07
-1.46473e-07
5.24903e-08
2.52631e-07
4.4995e-07
6.4609e-07
8.40641e-07
1.04116e-06
1.24373e-06
1.44656e-06
1.64939e-06
1.84189e-06
2.06076e-06
2.25679e-06
2.41322e-06
2.53625e-06
2.62631e-06
2.68377e-06
2.70576e-06
2.70155e-06
2.67592e-06
2.62329e-06
2.5599e-06
2.47946e-06
2.38903e-06
2.31319e-06
2.23e-06
2.18004e-06
2.16369e-06
2.17317e-06
2.20924e-06
2.21455e-06
2.17141e-06
1.97622e-06
1.68818e-06
1.36376e-06
9.69191e-07
5.15438e-07
9.61783e-08
-2.62881e-07
-5.3011e-07
-6.98796e-07
-7.81244e-07
-6.89798e-07
-5.19678e-07
-3.52819e-07
-1.61555e-07
3.22684e-07
6.28162e-07
9.55473e-07
1.4102e-06
1.8685e-06
2.38139e-06
2.95742e-06
3.57891e-06
4.24587e-06
5.00706e-06
5.84616e-06
6.75453e-06
7.73787e-06
8.80126e-06
9.94707e-06
1.11775e-05
1.24953e-05
1.39033e-05
1.5404e-05
1.69991e-05
1.86887e-05
2.04703e-05
2.23384e-05
2.42833e-05
2.62913e-05
2.83438e-05
3.04176e-05
3.24838e-05
3.45067e-05
3.64407e-05
3.82255e-05
3.9781e-05
4.10135e-05
4.18584e-05
4.23487e-05
4.24838e-05
4.24983e-05
-3.3402e-06
-3.46689e-06
-3.50501e-06
-3.41136e-06
-3.23238e-06
-3.00274e-06
-2.74747e-06
-2.48559e-06
-2.23069e-06
-1.98987e-06
-1.76378e-06
-1.55108e-06
-1.35123e-06
-1.1601e-06
-9.71292e-07
-7.80286e-07
-5.82224e-07
-3.72516e-07
-1.47859e-07
9.44507e-08
3.56251e-07
6.38431e-07
9.39945e-07
1.25974e-06
1.59485e-06
1.93892e-06
2.28433e-06
2.62078e-06
2.9353e-06
3.21389e-06
3.43734e-06
3.55809e-06
3.53848e-06
3.35544e-06
3.0105e-06
2.48693e-06
1.81309e-06
1.02054e-06
1.90219e-07
-6.3862e-07
-1.44283e-06
-2.19853e-06
-2.85882e-06
-3.43527e-06
-3.89833e-06
-4.22278e-06
-4.44161e-06
-4.53165e-06
-4.50022e-06
-4.36303e-06
-4.14024e-06
-3.86006e-06
-3.54525e-06
-3.22046e-06
-2.90259e-06
-2.60635e-06
-2.33064e-06
-2.08089e-06
-1.84488e-06
-1.61187e-06
-1.36238e-06
-1.07495e-06
-7.34368e-07
-3.12004e-07
1.93251e-07
7.82672e-07
1.4501e-06
2.15693e-06
2.86541e-06
3.54066e-06
4.11145e-06
4.57543e-06
4.90402e-06
5.09175e-06
5.15607e-06
5.11251e-06
4.9881e-06
4.79204e-06
4.55792e-06
4.2981e-06
4.00749e-06
3.70346e-06
3.39228e-06
3.07498e-06
2.7598e-06
2.46061e-06
2.17753e-06
1.90961e-06
1.601e-06
1.31371e-06
9.95836e-07
5.4117e-07
5.35203e-08
-4.42854e-07
-9.3746e-07
-1.41551e-06
-1.87474e-06
-2.25664e-06
-2.58958e-06
-2.86138e-06
-3.06406e-06
-3.19506e-06
-3.24261e-06
-3.2075e-06
-3.0899e-06
-2.90389e-06
-2.66866e-06
-2.39158e-06
-2.10999e-06
-1.82951e-06
-1.56089e-06
-1.3049e-06
-1.07738e-06
-8.65523e-07
-6.70609e-07
-4.86191e-07
-3.12366e-07
-1.42943e-07
2.5113e-08
1.97232e-07
3.72221e-07
5.51264e-07
7.35014e-07
9.26273e-07
1.12673e-06
1.33399e-06
1.5505e-06
1.76213e-06
1.96862e-06
2.17397e-06
2.35469e-06
2.50728e-06
2.624e-06
2.70461e-06
2.74634e-06
2.75467e-06
2.73293e-06
2.68394e-06
2.6064e-06
2.50854e-06
2.39302e-06
2.28586e-06
2.1713e-06
2.0783e-06
2.0061e-06
1.95583e-06
1.85262e-06
1.74219e-06
1.54921e-06
1.27273e-06
9.70233e-07
6.32476e-07
2.78953e-07
-5.96318e-08
-3.27833e-07
-5.34897e-07
-6.64867e-07
-7.19969e-07
-7.1765e-07
-5.71584e-07
-3.74095e-07
-1.96844e-07
6.83879e-09
4.51494e-07
7.51478e-07
1.06644e-06
1.48572e-06
1.9035e-06
2.37327e-06
2.90239e-06
3.47734e-06
4.09836e-06
4.80678e-06
5.59007e-06
6.44197e-06
7.36783e-06
8.37216e-06
9.45707e-06
1.06244e-05
1.18765e-05
1.32155e-05
1.4643e-05
1.61594e-05
1.77632e-05
1.94497e-05
2.12106e-05
2.30332e-05
2.48996e-05
2.6787e-05
2.86671e-05
3.05066e-05
3.22664e-05
3.39013e-05
3.53589e-05
3.6579e-05
3.75025e-05
3.81033e-05
3.84379e-05
3.85144e-05
3.85058e-05
-2.77892e-06
-2.88479e-06
-2.92712e-06
-2.8682e-06
-2.73945e-06
-2.56561e-06
-2.36552e-06
-2.15449e-06
-1.94382e-06
-1.7403e-06
-1.54624e-06
-1.36143e-06
-1.18512e-06
-1.0148e-06
-8.46183e-07
-6.74435e-07
-4.96458e-07
-3.09996e-07
-1.11884e-07
1.0036e-07
3.27956e-07
5.7188e-07
8.30768e-07
1.10229e-06
1.38442e-06
1.67255e-06
1.96025e-06
2.23915e-06
2.49892e-06
2.728e-06
2.91059e-06
3.01172e-06
2.9962e-06
2.84441e-06
2.55781e-06
2.12044e-06
1.54768e-06
8.6388e-07
1.32601e-07
-6.09177e-07
-1.33405e-06
-2.01574e-06
-2.60726e-06
-3.11205e-06
-3.48422e-06
-3.74949e-06
-3.90599e-06
-3.94068e-06
-3.86978e-06
-3.71228e-06
-3.48954e-06
-3.22753e-06
-2.94527e-06
-2.66314e-06
-2.39243e-06
-2.14436e-06
-1.91586e-06
-1.71165e-06
-1.5201e-06
-1.33382e-06
-1.13401e-06
-9.08415e-07
-6.39649e-07
-3.09329e-07
9.10071e-08
5.66933e-07
1.12125e-06
1.73261e-06
2.37547e-06
3.02971e-06
3.62831e-06
4.15509e-06
4.57586e-06
4.87084e-06
5.04197e-06
5.09266e-06
5.04403e-06
4.90041e-06
4.69754e-06
4.45033e-06
4.15303e-06
3.83082e-06
3.49339e-06
3.13592e-06
2.77305e-06
2.40314e-06
2.02665e-06
1.71087e-06
1.34289e-06
8.77922e-07
4.27514e-07
-6.47855e-08
-5.35316e-07
-9.98787e-07
-1.4166e-06
-1.78615e-06
-2.12687e-06
-2.39207e-06
-2.61785e-06
-2.79238e-06
-2.90736e-06
-2.95989e-06
-2.93958e-06
-2.84989e-06
-2.69496e-06
-2.49157e-06
-2.25834e-06
-2.00277e-06
-1.75477e-06
-1.51533e-06
-1.29091e-06
-1.08228e-06
-8.95937e-07
-7.24634e-07
-5.67856e-07
-4.17301e-07
-2.75248e-07
-1.36174e-07
3.16729e-09
1.47901e-07
2.9786e-07
4.55281e-07
6.2052e-07
7.957e-07
9.82827e-07
1.1812e-06
1.39268e-06
1.60977e-06
1.82385e-06
2.03656e-06
2.23705e-06
2.41223e-06
2.55655e-06
2.66468e-06
2.73125e-06
2.75928e-06
2.74752e-06
2.69936e-06
2.61621e-06
2.50526e-06
2.36901e-06
2.22607e-06
2.07101e-06
1.91878e-06
1.74488e-06
1.64343e-06
1.48847e-06
1.20523e-06
9.0978e-07
6.14119e-07
3.16196e-07
3.98905e-08
-2.10556e-07
-4.22427e-07
-5.66382e-07
-6.63779e-07
-7.03592e-07
-6.89597e-07
-6.37894e-07
-4.62702e-07
-2.51156e-07
-6.69107e-08
1.46979e-07
5.5108e-07
8.40827e-07
1.13869e-06
1.51933e-06
1.89608e-06
2.32144e-06
2.80178e-06
3.32771e-06
3.90002e-06
4.552e-06
5.27485e-06
6.06461e-06
6.9262e-06
7.8636e-06