/*--------------------------------*- C++ -*----------------------------------*\
| =========                 |                                                 |
| \\      /  F ield         | OpenFOAM: The Open Source CFD Toolbox           |
|  \\    /   O peration     | Version:  2506                                  |
|   \\  /    A nd           | Website:  www.openfoam.com                      |
|    \\/     M anipulation  |                                                 |
\*---------------------------------------------------------------------------*/
FoamFile
{
    version     2.0;
    format      ascii;
    arch        "LSB;label=32;scalar=64";
    class       surfaceScalarField;
    location    "4.15";
    object      phi;
}
// * * * * * * * * * * * * * * * * * * * * * * * * * * * * * * * * * * * * * //

dimensions      [0 3 -1 0 0 0 0];

oriented        oriented;

internalField   nonuniform List<scalar> 
7780
(
6.71388e-10
-6.71388e-10
1.18709e-09
-5.15701e-10
1.49679e-09
-3.09702e-10
1.70335e-09
-2.06562e-10
1.84682e-09
-1.43467e-10
1.94852e-09
-1.01696e-10
2.02411e-09
-7.55977e-11
2.08343e-09
-5.93113e-11
2.13202e-09
-4.85974e-11
2.17317e-09
-4.11428e-11
2.20887e-09
-3.57006e-11
2.24041e-09
-3.15439e-11
2.26865e-09
-2.82391e-11
2.29417e-09
-2.5525e-11
2.31741e-09
-2.32398e-11
2.33869e-09
-2.12789e-11
2.35827e-09
-1.95739e-11
2.37635e-09
-1.80808e-11
2.39312e-09
-1.67732e-11
2.40876e-09
-1.56395e-11
2.42344e-09
-1.46808e-11
2.43735e-09
-1.39105e-11
2.45071e-09
-1.33559e-11
2.46377e-09
-1.30612e-11
2.47686e-09
-1.3094e-11
2.49042e-09
-1.35576e-11
2.50503e-09
-1.4612e-11
2.52155e-09
-1.65189e-11
2.54126e-09
-1.97092e-11
2.56618e-09
-2.49195e-11
2.59017e-09
-6.89564e-11
2.57189e-09
-2.98908e-10
2.506e-09
-5.94667e-10
2.40349e-09
-8.67223e-10
2.27397e-09
-1.10294e-09
2.13822e-09
-1.31886e-09
2.01202e-09
-1.52605e-09
1.84932e-09
-1.77968e-09
1.66708e-09
-1.94343e-09
1.51536e-09
-2.01835e-09
1.39377e-09
-2.07899e-09
1.3027e-09
-2.12923e-09
1.23545e-09
-2.16477e-09
1.18667e-09
-2.18749e-09
1.15175e-09
-2.19832e-09
1.12566e-09
-2.19668e-09
1.10668e-09
-2.18228e-09
1.09015e-09
-2.15552e-09
1.07287e-09
-2.11513e-09
1.05116e-09
-2.05878e-09
1.02429e-09
-1.98287e-09
9.99916e-10
-1.88379e-09
9.7252e-10
-1.76462e-09
9.59672e-10
-1.60934e-09
9.70801e-10
-1.41924e-09
1.03152e-09
-1.17429e-09
1.14502e-09
-8.78975e-10
1.32107e-09
-4.9806e-10
1.53086e-09
-5.44328e-11
1.72635e-09
4.01315e-10
1.8851e-09
8.19336e-10
2.00749e-09
1.19678e-09
2.0975e-09
1.44885e-09
2.17248e-09
1.66519e-09
2.23507e-09
1.80431e-09
2.29166e-09
1.91682e-09
2.34418e-09
2.00443e-09
2.39341e-09
2.06495e-09
2.44041e-09
2.11126e-09
2.48518e-09
2.14651e-09
2.52857e-09
2.17257e-09
2.57053e-09
2.18818e-09
2.61133e-09
2.19516e-09
2.65132e-09
2.19451e-09
2.69064e-09
2.18635e-09
2.7295e-09
2.17023e-09
2.76797e-09
2.14532e-09
2.806e-09
2.10496e-09
2.8438e-09
2.05575e-09
2.88106e-09
1.99249e-09
2.91822e-09
1.9096e-09
2.95324e-09
1.78409e-09
2.98692e-09
1.64494e-09
3.01629e-09
1.43661e-09
3.04076e-09
1.19276e-09
3.05452e-09
8.36005e-10
3.05658e-09
4.43378e-10
3.04237e-09
5.90597e-12
3.01086e-09
-4.4948e-10
2.96215e-09
-8.50799e-10
2.90511e-09
-1.16202e-09
2.84585e-09
-1.43604e-09
2.79479e-09
-1.62885e-09
2.75432e-09
-1.80207e-09
2.72803e-09
-1.9209e-09
2.71431e-09
-2.01719e-09
2.71102e-09
-2.09944e-09
2.71167e-09
-2.14973e-09
2.71085e-09
-2.18333e-09
2.7044e-09
-2.20303e-09
2.6879e-09
-2.20975e-09
2.65879e-09
-2.20614e-09
2.61913e-09
-2.19613e-09
2.57187e-09
-2.18131e-09
2.51685e-09
-2.15868e-09
2.45607e-09
-2.12969e-09
2.39069e-09
-2.09248e-09
2.31986e-09
-2.04006e-09
2.24356e-09
-1.96936e-09
2.16172e-09
-1.88588e-09
2.0735e-09
-1.78011e-09
1.98388e-09
-1.621e-09
1.89282e-09
-1.45036e-09
1.81488e-09
-1.19636e-09
1.75693e-09
-9.1283e-10
1.73575e-09
-5.48108e-10
1.75647e-09
-1.21528e-10
1.80366e-09
3.09853e-10
1.86084e-09
7.17044e-10
1.91787e-09
1.09649e-09
1.96654e-09
1.37287e-09
2.01016e-09
1.59694e-09
2.05026e-09
1.7536e-09
2.08944e-09
1.88761e-09
2.12787e-09
1.97455e-09
2.16592e-09
2.04277e-09
2.20433e-09
2.09834e-09
2.24307e-09
2.13832e-09
2.28198e-09
2.16534e-09
2.32139e-09
2.18332e-09
2.36141e-09
2.19328e-09
2.40234e-09
2.1955e-09
2.4443e-09
2.19007e-09
2.48733e-09
2.1753e-09
2.53221e-09
2.15202e-09
2.5787e-09
2.11978e-09
2.62739e-09
2.07634e-09
2.67863e-09
2.02006e-09
2.7316e-09
1.93437e-09
2.78736e-09
1.83628e-09
2.84507e-09
1.7126e-09
2.90245e-09
1.52158e-09
2.95934e-09
1.31285e-09
3.00956e-09
9.99587e-10
3.05119e-09
6.373e-10
3.07803e-09
2.20236e-10
3.08623e-09
-2.37272e-10
3.07275e-09
-6.72223e-10
3.04389e-09
-1.02085e-09
3.00548e-09
-1.31601e-09
2.96806e-09
-1.54961e-09
2.93714e-09
-1.72985e-09
2.91732e-09
-1.86551e-09
2.90673e-09
-1.98545e-09
2.90526e-09
-2.06535e-09
2.90964e-09
-2.12651e-09
2.9132e-09
-2.1681e-09
2.9112e-09
-2.19621e-09
2.90029e-09
-2.20833e-09
2.86854e-09
-2.1997e-09
2.81357e-09
-2.1812e-09
2.74799e-09
-2.16801e-09
2.67762e-09
-2.15324e-09
2.59402e-09
-1.71361e-09
2.50618e-09
-1.48799e-09
2.41567e-09
-1.29967e-09
2.32841e-09
-1.05715e-09
2.25832e-09
-7.999e-10
2.21173e-09
-5.02881e-10
2.19295e-09
-1.95368e-10
2.1928e-09
-8.81084e-12
2.1923e-09
5.00548e-13
2.19103e-09
1.26396e-12
2.18913e-09
1.90445e-12
2.18697e-09
2.15764e-12
2.18498e-09
1.9953e-12
2.18342e-09
1.552e-12
2.1824e-09
1.02912e-12
2.18188e-09
5.20527e-13
2.18165e-09
2.23258e-13
2.18143e-09
2.25876e-13
2.18086e-09
5.62558e-13
2.17971e-09
1.1496e-12
2.17773e-09
1.97951e-12
2.17472e-09
3.01931e-12
2.17051e-09
4.20506e-12
2.165e-09
5.51447e-12
2.15803e-09
6.96639e-12
2.1494e-09
8.63327e-12
2.13873e-09
1.06613e-11
2.12543e-09
1.33091e-11
2.10839e-09
1.70346e-11
2.08569e-09
2.26994e-11
2.05364e-09
3.20532e-11
2.00477e-09
4.88662e-11
1.92333e-09
8.14394e-11
1.7753e-09
1.48034e-10
1.48421e-09
2.91091e-10
8.86418e-10
5.97789e-10
8.86418e-10
-3.4345e-11
-6.37043e-10
1.60298e-10
-7.10343e-10
4.16882e-10
-5.66287e-10
6.43137e-10
-4.32816e-10
8.30675e-10
-3.31006e-10
9.84906e-10
-2.55928e-10
1.11217e-09
-2.02857e-10
1.21844e-09
-1.65588e-10
1.30852e-09
-1.38676e-10
1.38592e-09
-1.18537e-10
1.45317e-09
-1.02954e-10
1.51213e-09
-9.05094e-11
1.56418e-09
-8.02854e-11
1.61034e-09
-7.16817e-11
1.6514e-09
-6.42988e-11
1.68798e-09
-5.78642e-11
1.7206e-09
-5.2192e-11
1.74968e-09
-4.7158e-11
1.77559e-09
-4.26858e-11
1.79869e-09
-3.87391e-11
1.81933e-09
-3.53172e-11
1.83787e-09
-3.2455e-11
1.85474e-09
-3.02254e-11
1.87043e-09
-2.87466e-11
1.88553e-09
-2.81961e-11
1.9008e-09
-2.88336e-11
1.91723e-09
-3.10416e-11
1.93611e-09
-3.53938e-11
1.9592e-09
-4.27993e-11
1.98895e-09
-5.46732e-11
2.0187e-09
-9.8705e-11
2.00612e-09
-2.86332e-10
1.94273e-09
-5.31276e-10
1.84126e-09
-7.65749e-10
1.71564e-09
-9.77323e-10
1.58443e-09
-1.18764e-09
1.45658e-09
-1.3982e-09
1.30357e-09
-1.62668e-09
1.14399e-09
-1.78386e-09
1.01275e-09
-1.8871e-09
9.10405e-10
-1.97665e-09
8.3334e-10
-2.05216e-09
7.76444e-10
-2.10787e-09
7.35102e-10
-2.14615e-09
7.04556e-10
-2.16778e-09
6.80183e-10
-2.1723e-09
6.59008e-10
-2.16111e-09
6.36732e-10
-2.13325e-09
6.09678e-10
-2.08807e-09
5.75234e-10
-2.02434e-09
5.32952e-10
-1.94058e-09
4.87402e-10
-1.83824e-09
4.37262e-10
-1.71448e-09
3.95492e-10
-1.56757e-09
3.72577e-10
-1.39633e-09
3.91069e-10
-1.19278e-09
4.66007e-10
-9.53913e-10
6.24255e-10
-6.56308e-10
8.66296e-10
-2.96474e-10
1.15917e-09
1.08436e-10
1.45477e-09
5.2374e-10
1.71551e-09
9.36046e-10
1.91303e-09
1.25133e-09
2.06247e-09
1.51575e-09
2.1715e-09
1.69528e-09
2.25525e-09
1.83306e-09
2.32311e-09
1.93657e-09
2.38078e-09
2.00728e-09
2.43254e-09
2.05951e-09
2.48016e-09
2.09889e-09
2.52535e-09
2.12738e-09
2.56846e-09
2.14506e-09
2.60999e-09
2.15363e-09
2.6504e-09
2.1541e-09
2.68995e-09
2.14681e-09
2.72889e-09
2.1313e-09
2.7673e-09
2.10691e-09
2.80512e-09
2.06713e-09
2.84255e-09
2.01832e-09
2.87926e-09
1.95577e-09
2.91563e-09
1.87323e-09
2.94943e-09
1.75029e-09
2.98129e-09
1.61307e-09
3.0079e-09
1.41e-09
3.0282e-09
1.17246e-09
3.03554e-09
8.28659e-10
3.0284e-09
4.50517e-10
3.00283e-09
3.14745e-11
2.96084e-09
-4.0749e-10
2.90844e-09
-7.98391e-10
2.85867e-09
-1.11226e-09
2.81684e-09
-1.39421e-09
2.78982e-09
-1.60183e-09
2.77834e-09
-1.79058e-09
2.78072e-09
-1.92328e-09
2.79071e-09
-2.02717e-09
2.8008e-09
-2.10953e-09
2.80528e-09
-2.15421e-09
2.79999e-09
-2.17805e-09
2.78101e-09
-2.18406e-09
2.74747e-09
-2.17621e-09
2.70315e-09
-2.16182e-09
2.65016e-09
-2.14314e-09
2.58839e-09
-2.11955e-09
2.51844e-09
-2.08873e-09
2.44205e-09
-2.0533e-09
2.35954e-09
-2.00997e-09
2.2701e-09
-1.95061e-09
2.17428e-09
-1.87353e-09
2.07059e-09
-1.7822e-09
1.95964e-09
-1.66916e-09
1.84685e-09
-1.50821e-09
1.73435e-09
-1.33786e-09
1.63531e-09
-1.09732e-09
1.55714e-09
-8.34662e-10
1.51518e-09
-5.06143e-10
1.52232e-09
-1.28678e-10
1.57558e-09
2.56601e-10
1.66296e-09
6.29664e-10
1.76535e-09
9.94103e-10
1.85961e-09
1.27861e-09
1.93948e-09
1.51706e-09
2.00449e-09
1.6886e-09
2.05961e-09
1.83249e-09
2.10768e-09
1.92647e-09
2.15154e-09
1.99891e-09
2.19358e-09
2.0563e-09
2.2347e-09
2.0972e-09
2.27523e-09
2.12482e-09
2.31573e-09
2.14282e-09
2.35651e-09
2.15251e-09
2.39794e-09
2.15407e-09
2.44019e-09
2.14782e-09
2.4833e-09
2.13219e-09
2.52807e-09
2.10724e-09
2.57426e-09
2.0736e-09
2.62246e-09
2.02815e-09
2.67295e-09
1.96956e-09
2.72482e-09
1.8825e-09
2.77903e-09
1.78207e-09
2.83459e-09
1.65704e-09
2.88876e-09
1.46742e-09
2.94099e-09
1.26061e-09
2.98414e-09
9.56435e-10
3.01554e-09
6.05903e-10
3.02892e-09
2.06857e-10
3.0228e-09
-2.31151e-10
3.0004e-09
-6.49832e-10
2.97451e-09
-9.94961e-10
2.95279e-09
-1.29429e-09
2.94148e-09
-1.53829e-09
2.94271e-09
-1.73109e-09
2.95626e-09
-1.87906e-09
2.97626e-09
-2.00545e-09
2.9968e-09
-2.08589e-09
3.01064e-09
-2.14035e-09
3.0138e-09
-2.17127e-09
3.00276e-09
-2.18517e-09
2.97614e-09
-2.18171e-09
2.92641e-09
-2.14997e-09
2.8566e-09
-2.11138e-09
2.77523e-09
-2.08666e-09
2.67843e-09
-2.05645e-09
2.58124e-09
-1.6164e-09
2.48033e-09
-1.38708e-09
2.37884e-09
-1.19818e-09
2.28193e-09
-9.60252e-10
2.19997e-09
-7.17938e-10
2.13765e-09
-4.40563e-10
2.09979e-09
-1.57501e-10
2.0792e-09
1.1779e-11
2.0604e-09
1.92942e-11
2.04169e-09
1.99758e-11
2.02311e-09
2.04877e-11
2.00508e-09
2.01898e-11
1.98812e-09
1.89549e-11
1.97258e-09
1.70855e-11
1.95854e-09
1.50729e-11
1.94566e-09
1.34039e-11
1.93338e-09
1.24969e-11
1.92102e-09
1.25856e-11
1.90786e-09
1.37249e-11
1.89319e-09
1.58223e-11
1.87643e-09
1.87394e-11
1.85713e-09
2.23128e-11
1.83494e-09
2.63954e-11
1.80953e-09
3.09243e-11
1.78054e-09
3.59626e-11
1.74743e-09
4.17427e-11
1.70936e-09
4.87271e-11
1.66495e-09
5.77171e-11
1.61191e-09
7.00828e-11
1.54634e-09
8.82703e-11
1.46148e-09
1.16908e-10
1.34524e-09
1.65104e-10
1.17605e-09
2.50629e-10
9.1894e-10
4.05146e-10
5.39181e-10
6.70851e-10
1.09401e-10
1.02757e-09
9.95819e-10
-1.34007e-10
-5.03036e-10
-1.30949e-10
-7.13401e-10
-2.92902e-11
-6.67946e-10
1.07829e-10
-5.69935e-10
2.49665e-10
-4.72842e-10
3.84565e-10
-3.90828e-10
5.08112e-10
-3.26404e-10
6.19216e-10
-2.76691e-10
7.18473e-10
-2.37933e-10
8.07035e-10
-2.071e-10
8.86112e-10
-1.82031e-10
9.5681e-10
-1.61207e-10
1.02008e-09
-1.43558e-10
1.07673e-09
-1.28333e-10
1.12743e-09
-1.15e-10
1.17275e-09
-1.03178e-10
1.21315e-09
-9.2599e-11
1.24908e-09
-8.30816e-11
1.28091e-09
-7.45134e-11
1.30901e-09
-6.68444e-11
1.33378e-09
-6.00825e-11
1.35562e-09
-5.42946e-11
1.375e-09
-4.96113e-11
1.39249e-09
-4.62384e-11
1.40877e-09
-4.44757e-11
1.42469e-09
-4.47473e-11
1.44129e-09
-4.7649e-11
1.45993e-09
-5.40246e-11
1.48224e-09
-6.51159e-11
1.51026e-09
-8.26868e-11
1.53883e-09
-1.27277e-10
1.53335e-09
-2.8085e-10
1.48523e-09
-4.83161e-10
1.40488e-09
-6.854e-10
1.30524e-09
-8.77685e-10
1.20024e-09
-1.08264e-09
1.09582e-09
-1.29378e-09
9.76323e-10
-1.50719e-09
8.59006e-10
-1.66654e-09
7.64942e-10
-1.79304e-09
6.92678e-10
-1.90439e-09
6.37786e-10
-1.99727e-09
5.9656e-10
-2.06665e-09
5.65425e-10
-2.11501e-09
5.40439e-10
-2.14279e-09
5.17825e-10
-2.14969e-09
4.94381e-10
-2.13766e-09
4.66943e-10
-2.10581e-09
4.32411e-10
-2.05354e-09
3.89233e-10
-1.98116e-09
3.37896e-10
-1.88925e-09
2.81187e-10
-1.78153e-09
2.20458e-10
-1.65375e-09
1.64683e-10
-1.51179e-09
1.22349e-10
-1.354e-09
1.09005e-10
-1.17943e-09
1.38295e-10
-9.83203e-10
2.33896e-10
-7.51909e-10
4.10516e-10
-4.73094e-10
6.64815e-10
-1.45864e-10
9.70804e-10
2.17751e-10
1.29422e-09
6.12629e-10
1.58257e-09
9.62979e-10
1.82207e-09
1.27625e-09
2.00721e-09
1.51014e-09
2.14762e-09
1.69265e-09
2.25439e-09
1.82981e-09
2.33723e-09
1.92444e-09
2.40464e-09
1.9921e-09
2.46192e-09
2.04162e-09
2.51312e-09
2.07618e-09
2.56002e-09
2.09816e-09
2.60394e-09
2.10971e-09
2.64582e-09
2.11222e-09
2.68618e-09
2.10645e-09
2.72544e-09
2.09203e-09
2.76378e-09
2.06858e-09
2.80115e-09
2.02976e-09
2.83777e-09
1.9817e-09
2.87327e-09
1.92027e-09
2.90795e-09
1.83855e-09
2.93942e-09
1.71883e-09
2.96818e-09
1.58431e-09
2.99062e-09
1.38757e-09
3.00558e-09
1.1575e-09
3.00651e-09
8.27733e-10
2.99308e-09
4.63951e-10
2.96401e-09
6.05392e-11
2.92532e-09
-3.68798e-10
2.88552e-09
-7.58597e-10
2.85493e-09
-1.08166e-09
2.83736e-09
-1.37664e-09
2.83584e-09
-1.60031e-09
2.84501e-09
-1.79976e-09
2.85932e-09
-1.93759e-09
2.87146e-09
-2.03932e-09
2.87538e-09
-2.11344e-09
2.86656e-09
-2.14539e-09
2.84308e-09
-2.15457e-09
2.80542e-09
-2.14641e-09
2.75651e-09
-2.12731e-09
2.69787e-09
-2.10319e-09
2.62977e-09
-2.07504e-09
2.55402e-09
-2.04381e-09
2.47295e-09
-2.00765e-09
2.38613e-09
-1.96647e-09
2.29308e-09
-1.91692e-09
2.1929e-09
-1.85043e-09
2.0863e-09
-1.76694e-09
1.97285e-09
-1.66875e-09
1.85444e-09
-1.55074e-09
1.73695e-09
-1.39073e-09
1.62292e-09
-1.22383e-09
1.52283e-09
-9.97226e-10
1.44165e-09
-7.53488e-10
1.38894e-09
-4.53433e-10
1.37604e-09
-1.15777e-10
1.40633e-09
2.26308e-10
1.47904e-09
5.56957e-10
1.58499e-09
8.88151e-10
1.70142e-09
1.16218e-09
1.81272e-09
1.40576e-09
1.90896e-09
1.59236e-09
1.99009e-09
1.75136e-09
2.05744e-09
1.85913e-09
2.11469e-09
1.94166e-09
2.16579e-09
2.00521e-09
2.21301e-09
2.04997e-09
2.25767e-09
2.08016e-09
2.30101e-09
2.09948e-09
2.34371e-09
2.10981e-09
2.3864e-09
2.11138e-09
2.4294e-09
2.10483e-09
2.47281e-09
2.08877e-09
2.51747e-09
2.06259e-09
2.56312e-09
2.02794e-09
2.61034e-09
1.98093e-09
2.65937e-09
1.92054e-09
2.70911e-09
1.83276e-09
2.76042e-09
1.73076e-09
2.81213e-09
1.60533e-09
2.86112e-09
1.41842e-09
2.9068e-09
1.21493e-09
2.94199e-09
9.21239e-10
2.96512e-09
5.82771e-10
2.97273e-09
1.99255e-10
2.96798e-09
-2.26409e-10
2.95827e-09
-6.40122e-10
2.95461e-09
-9.91294e-10
2.96115e-09
-1.30083e-09
2.98075e-09
-1.5579e-09
3.00962e-09
-1.75996e-09
3.04149e-09
-1.91093e-09
3.06912e-09
-2.03308e-09
3.08615e-09
-2.10292e-09
3.08859e-09
-2.1428e-09
3.07382e-09
-2.1565e-09
3.04222e-09
-2.15357e-09
2.99733e-09
-2.13683e-09
2.93318e-09
-2.08582e-09
2.84898e-09
-2.02718e-09
2.74877e-09
-1.98645e-09
2.63218e-09
-1.93986e-09
2.52791e-09
-1.51214e-09
2.42494e-09
-1.2841e-09
2.32387e-09
-1.0971e-09
2.22853e-09
-8.64912e-10
2.14749e-09
-6.36893e-10
2.08367e-09
-3.76752e-10
2.03948e-09
-1.13307e-10
2.00826e-09
4.29998e-11
1.97804e-09
4.95097e-11
1.94825e-09
4.9765e-11
1.91924e-09
4.95065e-11
1.89143e-09
4.79942e-11
1.86525e-09
4.51375e-11
1.84088e-09
4.14534e-11
1.81817e-09
3.77841e-11
1.79659e-09
3.49795e-11
1.7754e-09
3.36952e-11
1.75369e-09
3.42926e-11
1.73057e-09
3.68464e-11
1.70518e-09
4.12124e-11
1.67679e-09
4.71268e-11
1.64481e-09
5.42941e-11
1.60873e-09
6.24744e-11
1.56808e-09
7.15758e-11
1.5223e-09
8.17395e-11
1.47062e-09
9.3426e-11
1.41182e-09
1.07523e-10
1.34401e-09
1.25529e-10
1.26418e-09
1.49915e-10
1.16759e-09
1.84853e-10
1.04688e-09
2.3762e-10
8.90968e-10
3.21019e-10
6.85356e-10
4.56242e-10
4.19757e-10
6.70746e-10
1.20427e-10
9.7018e-10
-7.88555e-11
1.22685e-09
9.16963e-10
-1.16103e-10
-3.86933e-10
-1.83832e-10
-6.45672e-10
-1.74467e-10
-6.77312e-10
-1.17114e-10
-6.27288e-10
-3.38049e-11
-5.56151e-10
6.06754e-11
-4.85308e-10
1.5735e-10
-4.23078e-10
2.51272e-10
-3.70613e-10
3.4002e-10
-3.26681e-10
4.22572e-10
-2.89652e-10
4.98638e-10
-2.58098e-10
5.68299e-10
-2.30868e-10
6.31807e-10
-2.07066e-10
6.8948e-10
-1.86006e-10
7.4165e-10
-1.67169e-10
7.88639e-10
-1.50167e-10
8.30757e-10
-1.34716e-10
8.68299e-10
-1.20624e-10
9.0156e-10
-1.07774e-10
9.30844e-10
-9.61288e-11
9.56483e-10
-8.57219e-11
9.78856e-10
-7.66668e-11
9.98409e-10
-6.91643e-11
1.01569e-09
-6.35173e-11
1.03137e-09
-6.01537e-11
1.04628e-09
-5.96591e-11
1.06145e-09
-6.28254e-11
1.07815e-09
-7.07235e-11
1.09787e-09
-8.4832e-11
1.1223e-09
-1.07116e-10
1.14771e-09
-1.52692e-10
1.14725e-09
-2.80386e-10
1.11404e-09
-4.49954e-10
1.05675e-09
-6.2811e-10
9.8657e-10
-8.07503e-10
9.13081e-10
-1.00915e-09
8.40111e-10
-1.22081e-09
7.58495e-10
-1.42557e-09
6.81675e-10
-1.58972e-09
6.21633e-10
-1.733e-09
5.75784e-10
-1.85854e-09
5.40154e-10
-1.96164e-09
5.12216e-10
-2.03871e-09
4.89336e-10
-2.09214e-09
4.68443e-10
-2.1219e-09
4.46493e-10
-2.12774e-09
4.20939e-10
-2.11211e-09
3.89582e-10
-2.07445e-09
3.50475e-10
-2.01443e-09
3.02741e-10
-1.93343e-09
2.47635e-10
-1.83414e-09
1.8741e-10
-1.72131e-09
1.24639e-10
-1.59098e-09
6.57316e-11
-1.45288e-09
1.68678e-11
-1.30513e-09
-1.21965e-11
-1.15037e-09
-1.20216e-11
-9.83377e-10
3.37102e-11
-7.97641e-10
1.40633e-10
-5.80018e-10
3.18832e-10
-3.24063e-10
5.66398e-10
-2.98155e-11
8.69267e-10
3.0976e-10
1.18514e-09
6.47104e-10
1.48296e-09
9.7844e-10
1.73792e-09
1.25518e-09
1.94634e-09
1.48424e-09
2.11014e-09
1.666e-09
2.2366e-09
1.79798e-09
2.33533e-09
1.89337e-09
2.41416e-09
1.96279e-09
2.47976e-09
2.01057e-09
2.53616e-09
2.04176e-09
2.58627e-09
2.05959e-09
2.63211e-09
2.06638e-09
2.67489e-09
2.06366e-09
2.71547e-09
2.05146e-09
2.75427e-09
2.02977e-09
2.7914e-09
1.99263e-09
2.82716e-09
1.94594e-09
2.86122e-09
1.8862e-09
2.89384e-09
1.80593e-09
2.92256e-09
1.69011e-09
2.94791e-09
1.55896e-09
2.96633e-09
1.36915e-09
2.97712e-09
1.14671e-09
2.97487e-09
8.29983e-10
2.96138e-09
4.77445e-10
2.93839e-09
8.35302e-11
2.91391e-09
-3.44323e-10
2.89425e-09
-7.38939e-10
2.88766e-09
-1.07507e-09
2.89404e-09
-1.38302e-09
2.90986e-09
-1.61613e-09
2.92736e-09
-1.81726e-09
2.94038e-09
-1.95061e-09
2.94241e-09
-2.04134e-09
2.92916e-09
-2.10019e-09
2.8992e-09
-2.11542e-09
2.85506e-09
-2.11044e-09
2.79872e-09
-2.09006e-09
2.73213e-09
-2.06073e-09
2.65758e-09
-2.02864e-09
2.57708e-09
-1.99454e-09
2.49178e-09
-1.95851e-09
2.40236e-09
-1.91823e-09
2.3079e-09
-1.872e-09
2.20759e-09
-1.81661e-09
2.10089e-09
-1.74372e-09
1.98911e-09
-1.65516e-09
1.87306e-09
-1.5527e-09
1.75558e-09
-1.43326e-09
1.64257e-09
-1.27772e-09
1.53619e-09
-1.11745e-09
1.44388e-09
-9.04915e-10
1.36851e-09
-6.78119e-10
1.31521e-09
-4.00138e-10
1.29093e-09
-9.14944e-11
1.299e-09
2.18237e-10
1.3442e-09
5.11755e-10
1.42773e-09
8.04622e-10
1.53704e-09
1.05288e-09
1.65763e-09
1.28517e-09
1.77423e-09
1.47577e-09
1.87971e-09
1.64587e-09
1.97008e-09
1.76877e-09
2.04646e-09
1.86527e-09
2.1123e-09
1.93937e-09
2.17037e-09
1.9919e-09
2.22283e-09
2.02769e-09
2.2717e-09
2.05062e-09
2.31827e-09
2.06323e-09
2.3636e-09
2.06605e-09
2.40826e-09
2.06017e-09
2.45253e-09
2.0445e-09
2.49732e-09
2.0178e-09
2.54243e-09
1.98283e-09
2.58842e-09
1.93493e-09
2.63551e-09
1.87345e-09
2.68252e-09
1.78576e-09
2.73026e-09
1.68301e-09
2.7776e-09
1.55799e-09
2.82147e-09
1.37456e-09
2.86187e-09
1.17452e-09
2.89294e-09
8.9017e-10
2.91555e-09
5.60163e-10
2.92971e-09
1.85097e-10
2.94188e-09
-2.38576e-10
2.95726e-09
-6.55502e-10
2.98345e-09
-1.01749e-09
3.02029e-09
-1.33767e-09
3.06376e-09
-1.60136e-09
3.1055e-09
-1.8017e-09
3.13913e-09
-1.94456e-09
3.15763e-09
-2.05157e-09
3.15712e-09
-2.10241e-09
3.1367e-09
-2.12237e-09
3.09841e-09
-2.11822e-09
3.04646e-09
-2.10163e-09
2.98338e-09
-2.07376e-09
2.90239e-09
-2.00484e-09
2.80287e-09
-1.92765e-09
2.69019e-09
-1.87378e-09
2.56562e-09
-1.81529e-09
2.46113e-09
-1.40765e-09
2.3613e-09
-1.18427e-09
2.26471e-09
-1.00051e-09
2.17458e-09
-7.74777e-10
2.09868e-09
-5.61e-10
2.03921e-09
-3.17275e-10
1.99698e-09
-7.10787e-11
1.96483e-09
7.51444e-11
1.93235e-09
8.1994e-11
1.89972e-09
8.23954e-11
1.86759e-09
8.16393e-11
1.83642e-09
7.91608e-11
1.80646e-09
7.50921e-11
1.77771e-09
7.02042e-11
1.74988e-09
6.56206e-11
1.7224e-09
6.24574e-11
1.69453e-09
6.15623e-11
1.66542e-09
6.34004e-11
1.6342e-09
6.80659e-11
1.60005e-09
7.53682e-11
1.56222e-09
8.49523e-11
1.52009e-09
9.64255e-11
1.47308e-09
1.09483e-10
1.42062e-09
1.24036e-10
1.36202e-09
1.40343e-10
1.29631e-09
1.59136e-10
1.22206e-09
1.81778e-10
1.13708e-09
2.10508e-10
1.03812e-09
2.48874e-10
9.20452e-10
3.02519e-10
7.77671e-10
3.80402e-10
6.02488e-10
4.96202e-10
3.90962e-10
6.67767e-10
1.55203e-10
9.06505e-10
-5.04331e-11
1.17582e-09
-1.12277e-10
1.2887e-09
8.04686e-10
-8.70197e-11
-2.99913e-10
-1.68095e-10
-5.64597e-10
-2.00841e-10
-6.44565e-10
-1.91506e-10
-6.36623e-10
-1.53495e-10
-5.94162e-10
-9.70745e-11
-5.41729e-10
-3.0969e-11
-4.89184e-10
3.89775e-11
-4.4056e-10
1.09085e-10
-3.96788e-10
1.77152e-10
-3.57719e-10
2.41909e-10
-3.22855e-10
3.02667e-10
-2.91625e-10
3.59086e-10
-2.63484e-10
4.11037e-10
-2.37957e-10
4.58513e-10
-2.14646e-10
5.0158e-10
-1.93234e-10
5.40351e-10
-1.73487e-10
5.74971e-10
-1.55244e-10
6.05618e-10
-1.38421e-10
6.32505e-10
-1.23016e-10
6.55893e-10
-1.0911e-10
6.76105e-10
-9.68782e-11
6.93547e-10
-8.66065e-11
7.08735e-10
-7.87057e-11
7.22321e-10
-7.37393e-11
7.35118e-10
-7.24561e-11
7.4813e-10
-7.58375e-11
7.62568e-10
-8.51612e-11
7.79836e-10
-1.02101e-10
8.01483e-10
-1.28762e-10
8.24932e-10
-1.76142e-10
8.3002e-10
-2.85474e-10
8.12166e-10
-4.321e-10
7.78717e-10
-5.94661e-10
7.38472e-10
-7.67257e-10
6.96768e-10
-9.67447e-10
6.5524e-10
-1.17928e-09
6.07688e-10
-1.37802e-09
5.6359e-10
-1.54562e-09
5.29646e-10
-1.69905e-09
5.03416e-10
-1.83231e-09
4.81795e-10
-1.94002e-09
4.63254e-10
-2.02017e-09
4.45965e-10
-2.07485e-09
4.27609e-10
-2.10354e-09
4.05685e-10
-2.10582e-09
3.78819e-10
-2.08524e-09
3.45058e-10
-2.04069e-09
3.03582e-10
-1.97296e-09
2.54463e-10
-1.88431e-09
1.99196e-10
-1.77888e-09
1.39947e-10
-1.66206e-09
7.96986e-11
-1.53074e-09
2.3112e-11
-1.3963e-09
-2.53671e-11
-1.25665e-09
-5.96923e-11
-1.11604e-09
-7.39609e-11
-9.69109e-10
-5.81298e-11
-8.13472e-10
-3.81662e-13
-6.37766e-10
1.11273e-10
-4.35718e-10
2.84903e-10
-2.03446e-10
5.23991e-10
7.06713e-11
8.07274e-10
3.63821e-10
1.11071e-09
6.75009e-10
1.4009e-09
9.64987e-10
1.66139e-09
1.22375e-09
1.88258e-09
1.44481e-09
2.06218e-09
1.61838e-09
2.20536e-09
1.7502e-09
2.31889e-09
1.84925e-09
2.41021e-09
1.91926e-09
2.485e-09
1.96697e-09
2.54793e-09
1.99666e-09
2.6025e-09
2.0118e-09
2.65106e-09
2.01511e-09
2.69526e-09
2.00725e-09
2.7361e-09
1.98893e-09
2.77403e-09
1.95471e-09
2.8096e-09
1.91037e-09
2.8427e-09
1.8531e-09
2.87372e-09
1.77491e-09
2.90037e-09
1.66346e-09
2.92346e-09
1.53587e-09
2.93999e-09
1.35261e-09
2.9502e-09
1.1365e-09
2.95058e-09
8.29605e-10
2.94498e-09
4.83038e-10
2.93641e-09
9.21054e-11
2.93154e-09
-3.39454e-10
2.93503e-09
-7.42429e-10
2.95061e-09
-1.09065e-09
2.97222e-09
-1.40463e-09
2.99425e-09
-1.63816e-09
3.00811e-09
-1.83112e-09
3.00884e-09
-1.95134e-09
2.99119e-09
-2.02369e-09
2.95516e-09
-2.06416e-09
2.90345e-09
-2.06371e-09
2.8386e-09
-2.04559e-09
2.76309e-09
-2.01455e-09
2.68079e-09
-1.97843e-09
2.59437e-09
-1.94223e-09
2.50493e-09
-1.90511e-09
2.41283e-09
-1.86641e-09
2.31737e-09
-1.82277e-09
2.21743e-09
-1.77206e-09
2.11243e-09
-1.7116e-09
2.00253e-09
-1.63382e-09
1.88989e-09
-1.54252e-09
1.77627e-09
-1.43907e-09
1.66489e-09
-1.32188e-09
1.56107e-09
-1.17391e-09
1.46608e-09
-1.02247e-09
1.38524e-09
-8.24074e-10
1.31941e-09
-6.12292e-10
1.27134e-09
-3.5206e-10
1.24462e-09
-6.47751e-11
1.24021e-09
2.22641e-10
1.26269e-09
4.89279e-10
1.31741e-09
7.49903e-10
1.40183e-09
9.6846e-10
1.50908e-09
1.17791e-09
1.6263e-09
1.35855e-09
1.74321e-09
1.52897e-09
1.85092e-09
1.66105e-09
1.94597e-09
1.77022e-09
2.02895e-09
1.85639e-09
2.1014e-09
1.91945e-09
2.16522e-09
1.96387e-09
2.22274e-09
1.9931e-09
2.27573e-09
2.01024e-09
2.32567e-09
2.01611e-09
2.3735e-09
2.01234e-09
2.41975e-09
1.99825e-09
2.46546e-09
1.97209e-09
2.5106e-09
1.93769e-09
2.55577e-09
1.88976e-09
2.60127e-09
1.82795e-09
2.64602e-09
1.74101e-09
2.69103e-09
1.638e-09
2.73554e-09
1.51349e-09
2.7772e-09
1.3329e-09
2.81722e-09
1.1345e-09
2.85174e-09
8.55649e-10
2.88489e-09
5.27017e-10
2.91816e-09
1.51821e-10
2.95573e-09
-2.76139e-10
3.00082e-09
-7.00592e-10
3.05579e-09
-1.07246e-09
3.11315e-09
-1.39503e-09
3.1658e-09
-1.65401e-09
3.20464e-09
-1.84054e-09
3.22524e-09
-1.96516e-09
3.22189e-09
-2.04822e-09
3.19533e-09
-2.07583e-09
3.15002e-09
-2.07706e-09
3.0897e-09
-2.05789e-09
3.01774e-09
-2.02967e-09
2.93742e-09
-1.99344e-09
2.84376e-09
-1.91118e-09
2.73555e-09
-1.81945e-09
2.61835e-09
-1.75658e-09
2.49355e-09
-1.69049e-09
2.39229e-09
-1.3064e-09
2.29696e-09
-1.08894e-09
2.20526e-09
-9.08807e-10
2.12053e-09
-6.90045e-10
2.05041e-09
-4.90882e-10
1.99699e-09
-2.63852e-10
1.96048e-09
-3.45724e-11
1.93311e-09
1.02515e-10
1.90462e-09
1.10483e-10
1.87522e-09
1.11792e-10
1.84546e-09
1.114e-10
1.81564e-09
1.08984e-10
1.78581e-09
1.04923e-10
1.75582e-09
1.0019e-10
1.72537e-09
9.6076e-11
1.69399e-09
9.38405e-11
1.6611e-09
9.44447e-11
1.62607e-09
9.843e-11
1.58822e-09
1.05924e-10
1.54685e-09
1.1673e-10
1.50135e-09
1.30456e-10
1.45111e-09
1.46667e-10
1.39555e-09
1.6504e-10
1.33406e-09
1.85532e-10
1.26586e-09
2.08542e-10
1.18991e-09
2.35083e-10
1.10471e-09
2.66983e-10
1.00805e-09
3.07158e-10
8.96861e-10
3.60069e-10
7.67018e-10
4.32361e-10
6.13904e-10
5.33515e-10
4.34604e-10
6.75502e-10
2.34071e-10
8.683e-10
3.74595e-11
1.10312e-09
-9.60927e-11
1.30937e-09
-9.59342e-11
1.28854e-09
7.08753e-10
-6.1685e-11
-2.38228e-10
-1.36235e-10
-4.90047e-10
-1.84983e-10
-5.95817e-10
-2.02211e-10
-6.19395e-10
-1.93544e-10
-6.0283e-10
-1.66302e-10
-5.68971e-10
-1.26727e-10
-5.28758e-10
-8.00051e-11
-4.87282e-10
-2.98552e-11
-4.46938e-10
2.11594e-11
-4.08733e-10
7.13243e-11
-3.7302e-10
1.19529e-10
-3.3983e-10
1.65073e-10
-3.09029e-10
2.07529e-10
-2.80412e-10
2.46646e-10
-2.53763e-10
2.823e-10
-2.28888e-10
3.14454e-10
-2.05641e-10
3.43137e-10
-1.83927e-10
3.68439e-10
-1.63723e-10
3.90506e-10
-1.45083e-10
4.0955e-10
-1.28154e-10
4.25864e-10
-1.13192e-10
4.39839e-10
-1.00581e-10
4.51986e-10
-9.08533e-11
4.62964e-10
-8.47172e-11
4.73599e-10
-8.3091e-11
4.84906e-10
-8.71441e-11
4.98095e-10
-9.83505e-11
5.14549e-10
-1.18554e-10
5.35749e-10
-1.49963e-10
5.601e-10
-2.00492e-10
5.73065e-10
-2.98439e-10
5.7187e-10
-4.30905e-10
5.62094e-10
-5.84885e-10
5.49506e-10
-7.54669e-10
5.35758e-10
-9.53699e-10
5.20703e-10
-1.16422e-09
4.9987e-10
-1.35719e-09
4.79798e-10
-1.52555e-09
4.64397e-10
-1.68365e-09
4.51924e-10
-1.81984e-09
4.40027e-10
-1.92812e-09
4.27916e-10
-2.00806e-09
4.14383e-10
-2.06131e-09
3.97652e-10
-2.08681e-09
3.75963e-10
-2.08413e-09
3.48479e-10
-2.05776e-09
3.13731e-10
-2.00594e-09
2.71745e-10
-1.93097e-09
2.23238e-10
-1.8358e-09
1.69903e-10
-1.72554e-09
1.13877e-10
-1.60603e-09
5.81306e-11
-1.47499e-09
6.10651e-12
-1.34427e-09
-3.89661e-11
-1.21158e-09
-7.3325e-11
-1.08169e-09
-9.29516e-11
-9.49482e-10
-9.23947e-11
-8.14029e-10
-6.42149e-11
-6.65946e-10
1.64023e-12
-5.01573e-10
1.14564e-10
-3.16371e-10
2.84521e-10
-9.92864e-11
5.07304e-10
1.41039e-10
7.72606e-10
4.09707e-10
1.05559e-09
6.82003e-10
1.33434e-09
9.45004e-10
1.5927e-09
1.18645e-09
1.81846e-09
1.39262e-09
2.00843e-09
1.56023e-09
2.16442e-09
1.69326e-09
2.29128e-09
1.7924e-09
2.39425e-09
1.864e-09
2.47862e-09
1.9123e-09
2.54897e-09
1.94145e-09
2.60884e-09
1.95524e-09
2.66091e-09
1.95518e-09
2.70701e-09
1.94283e-09
2.74822e-09
1.91349e-09
2.78562e-09
1.87298e-09
2.81951e-09
1.81921e-09
2.8507e-09
1.74372e-09
2.87743e-09
1.63672e-09
2.9011e-09
1.5122e-09
2.91975e-09
1.33396e-09
2.93465e-09
1.1216e-09
2.94418e-09
8.20076e-10
2.95253e-09
4.7469e-10
2.96242e-09
8.22107e-11
2.97958e-09
-3.56614e-10
3.00345e-09
-7.66297e-10
3.03264e-09
-1.11984e-09
3.0588e-09
-1.43079e-09
3.07541e-09
-1.65477e-09
3.07471e-09
-1.83042e-09
3.0535e-09
-1.93013e-09
3.01185e-09
-1.98204e-09
2.95271e-09
-2.00502e-09
2.87861e-09
-1.9896e-09
2.79366e-09
-1.96064e-09
2.70277e-09
-1.92366e-09
2.60922e-09
-1.88488e-09
2.51474e-09
-1.84775e-09
2.41944e-09
-1.80981e-09
2.3226e-09
-1.76958e-09
2.22292e-09
-1.7231e-09
2.11945e-09
-1.66859e-09
2.01224e-09
-1.60439e-09
1.90235e-09
-1.52393e-09
1.7926e-09
-1.43277e-09
1.68519e-09
-1.33166e-09
1.58313e-09
-1.21981e-09
1.49075e-09
-1.08153e-09
1.40832e-09
-9.4004e-10
1.33959e-09
-7.55336e-10
1.2843e-09
-5.57005e-10
1.24398e-09
-3.11739e-10
1.22052e-09
-4.13132e-11
1.21273e-09
2.3043e-10
1.22284e-09
4.7917e-10
1.25531e-09
7.17427e-10
1.31237e-09
9.11402e-10
1.39438e-09
1.0959e-09
1.49509e-09
1.25784e-09
1.6066e-09
1.41745e-09
1.71872e-09
1.54893e-09
1.82462e-09
1.66432e-09
1.92136e-09
1.75965e-09
2.00787e-09
1.83294e-09
2.08449e-09
1.88725e-09
2.15283e-09
1.92476e-09
2.21458e-09
1.94849e-09
2.27135e-09
1.95934e-09
2.32433e-09
1.95936e-09
2.37431e-09
1.94826e-09
2.42252e-09
1.92388e-09
2.46916e-09
1.89105e-09
2.51501e-09
1.84391e-09
2.56059e-09
1.78236e-09
2.60521e-09
1.69639e-09
2.65031e-09
1.5929e-09
2.69593e-09
1.46787e-09
2.74082e-09
1.288e-09
2.78818e-09
1.08714e-09
2.83647e-09
8.07359e-10
2.88884e-09
4.74649e-10
2.94637e-09
9.42915e-11
3.01251e-09
-3.42281e-10
3.08413e-09
-7.72211e-10
3.1567e-09
-1.14503e-09
3.22002e-09
-1.45836e-09
3.26626e-09
-1.70025e-09
3.28827e-09
-1.86256e-09
3.28328e-09
-1.96017e-09
3.25155e-09
-2.01649e-09
3.19892e-09
-2.0232e-09
3.12999e-09
-2.00813e-09
3.04888e-09
-1.97678e-09
2.96092e-09
-1.94171e-09
2.8697e-09
-1.90222e-09
2.76965e-09
-1.81114e-09
2.65913e-09
-1.70893e-09
2.54268e-09
-1.64013e-09
2.42119e-09
-1.569e-09
2.32377e-09
-1.20898e-09
2.23235e-09
-9.97511e-10
2.14466e-09
-8.21119e-10
2.06454e-09
-6.09918e-10
1.9996e-09
-4.25946e-10
1.95207e-09
-2.16323e-10
1.92204e-09
-4.5375e-12
1.90134e-09
1.23211e-10
1.87935e-09
1.32478e-10
1.85587e-09
1.35268e-10
1.83106e-09
1.36208e-10
1.80489e-09
1.35153e-10
1.7772e-09
1.32621e-10
1.74772e-09
1.29664e-10
1.7162e-09
1.27601e-10
1.68232e-09
1.27713e-10
1.64577e-09
1.30999e-10
1.60615e-09
1.38049e-10
1.56303e-09
1.49041e-10
1.51595e-09
1.63817e-10
1.4644e-09
1.82007e-10
1.40787e-09
2.03192e-10
1.34583e-09
2.27079e-10
1.27767e-09
2.53698e-10
1.20261e-09
2.83596e-10
1.11965e-09
3.18042e-10
1.02738e-09
3.59256e-10
9.23832e-10
4.10707e-10
8.0639e-10
4.77511e-10
6.71934e-10
5.66817e-10
5.17827e-10
6.87623e-10
3.44833e-10
8.48496e-10