/*--------------------------------*- C++ -*----------------------------------*\
| =========                 |                                                 |
| \\      /  F ield         | OpenFOAM: The Open Source CFD Toolbox           |
|  \\    /   O peration     | Version:  2506                                  |
|   \\  /    A nd           | Website:  www.openfoam.com                      |
|    \\/     M anipulation  |                                                 |
\*---------------------------------------------------------------------------*/
FoamFile
{
    version     2.0;
    format      ascii;
    arch        "LSB;label=32;scalar=64";
    class       volVectorField;
    location    "4.6";
    object      vorticityField;
}
// * * * * * * * * * * * * * * * * * * * * * * * * * * * * * * * * * * * * * //

dimensions      [0 0 -1 0 0 0 0];

internalField   nonuniform List<vector> 
4000
(
(-2.48365e-21 8.41846e-19 -33.3793)
(-1.04671e-18 3.45188e-19 -35.638)
(1.10537e-18 -3.73127e-18 -32.6597)
(3.57092e-18 2.75612e-18 -27.8686)
(-7.28529e-18 2.71497e-18 -24.0438)
(3.70628e-18 -4.62363e-18 -21.3521)
(-3.00354e-20 1.69677e-18 -19.3662)
(3.59037e-18 -0 -17.8698)
(-3.5374e-18 -3.34323e-18 -16.7336)
(7.10638e-18 1.75894e-18 -15.8547)
(-7.11837e-18 -1.71873e-18 -15.1584)
(-2.2523e-19 3.74885e-19 -14.5938)
(-1.18009e-19 9.59133e-18 -14.1259)
(7.48862e-18 -6.66319e-18 -13.7294)
(-2.84336e-20 -0 -13.3861)
(-1.41505e-17 -6.56122e-18 -13.0821)
(1.39418e-17 3.9855e-18 -12.8069)
(-7.37257e-18 9.1416e-18 -12.5522)
(3.48677e-19 -6.56587e-18 -12.3113)
(0 -0 -12.0787)
(0 -0 -11.8497)
(0 -0 -11.6199)
(8.76174e-19 -1.29123e-17 -11.3855)
(1.20282e-17 2.13908e-17 -11.1426)
(-2.76644e-17 8.73746e-18 -10.8875)
(1.57503e-17 -3.01182e-17 -10.6164)
(-9.89684e-19 1.29022e-17 -10.3251)
(0 -0 -10.0093)
(0 -0 -9.664)
(-1.13884e-18 1.28672e-17 -9.28321)
(-2.702e-17 -9.54289e-18 -8.8588)
(1.50182e-17 -1.62079e-17 -8.3825)
(2.88247e-17 1.55424e-18 -7.83851)
(8.04637e-19 -1.47858e-17 -7.08219)
(-8.18214e-18 7.4639e-17 -6.24381)
(-3.31991e-17 6.72653e-17 -5.86342)
(-1.0651e-16 -1.11336e-16 -6.10036)
(-3.92743e-19 -6.8399e-19 -6.76582)
(6.9732e-17 2.06959e-16 -7.81413)
(-1.03486e-16 -6.92914e-17 -9.32814)
(4.37726e-17 -2.46961e-16 -11.6165)
(1.20301e-16 2.30429e-16 -14.4698)
(-3.7549e-17 1.0153e-16 -17.3748)
(2.74556e-17 -1.08809e-16 -20.1702)
(1.24029e-16 8.66897e-17 -22.8139)
(-1.42017e-16 2.02767e-17 -25.3287)
(-1.94458e-16 1.67688e-16 -27.7715)
(-1.01863e-16 -1.11698e-16 -29.9818)
(-7.90939e-17 -1.97613e-16 -32.018)
(-4.77364e-17 -1.22599e-16 -33.8503)
(9.93779e-17 -1.19895e-16 -35.3856)
(-3.68537e-18 4.57693e-17 -36.7002)
(-5.47682e-17 -8.5685e-17 -37.6097)
(8.9454e-17 -1.06699e-16 -38.2366)
(-7.45007e-18 8.70923e-17 -38.4258)
(-3.47608e-17 5.53753e-17 -38.207)
(7.96986e-18 5.18336e-17 -37.6201)
(3.80738e-18 9.39812e-18 -36.5429)
(8.4884e-18 1.57984e-17 -35.2149)
(-5.1577e-18 -2.49475e-18 -33.4546)
(4.95392e-18 4.6563e-18 -31.3766)
(1.92227e-17 3.5556e-19 -29.1872)
(-9.08918e-18 -4.20549e-18 -26.8295)
(-7.58267e-18 -4.95707e-17 -24.468)
(-1.049e-17 -5.92782e-17 -22.1236)
(-9.02067e-18 4.42268e-17 -19.8429)
(5.93605e-17 4.31906e-17 -17.7163)
(-1.21797e-19 -3.21153e-17 -15.6905)
(2.20626e-17 4.97188e-17 -13.865)
(-5.46771e-17 5.13496e-17 -12.169)
(-1.08662e-17 -3.72353e-17 -10.6504)
(-2.75777e-17 -5.90522e-17 -9.28206)
(1.13936e-20 -1.33415e-19 -8.03346)
(-7.39378e-17 4.68982e-17 -6.93671)
(-7.34937e-17 5.23295e-17 -5.94824)
(-2.84187e-18 6.41141e-17 -5.06549)
(-6.45173e-17 4.11941e-17 -4.28974)
(7.75112e-18 -6.59356e-17 -3.60137)
(-8.05867e-17 2.93943e-17 -2.9936)
(6.54488e-17 2.1113e-17 -2.46693)
(-1.25936e-16 3.47181e-17 -2.01215)
(-1.87678e-17 -6.89432e-17 -1.62355)
(3.8124e-18 -1.20342e-17 -1.29787)
(-7.31212e-18 2.27129e-18 -1.02896)
(6.49546e-17 9.95156e-17 -0.81149)
(-1.16047e-16 1.53752e-16 -0.640055)
(4.75501e-18 -1.39267e-16 -0.505806)
(-6.19798e-18 -6.8788e-17 -0.402092)
(-1.20357e-18 1.37158e-16 -0.323978)
(-5.00848e-17 3.23546e-17 -0.263099)
(2.09134e-19 1.42684e-18 -0.215641)
(-5.03369e-17 9.28401e-17 -0.179693)
(-2.37682e-17 -1.14218e-16 -0.149915)
(1.81152e-17 -3.73825e-17 -0.125869)
(4.6708e-19 5.88308e-17 -0.107452)
(7.66211e-18 -6.66074e-17 -0.09237)
(2.29664e-17 -9.4726e-18 -0.0829843)
(2.99053e-18 3.08777e-18 -0.0774125)
(-3.49169e-17 -5.2372e-18 -0.0780876)
(5.69216e-18 2.95925e-17 -0.084294)
(6.29194e-18 -8.39727e-19 -0.0982174)
(1.93912e-18 -5.47928e-18 -0.119713)
(-1.05668e-18 1.85348e-17 -0.152166)
(-2.78653e-18 5.02688e-18 -0.196595)
(-4.11343e-18 -2.0325e-18 -0.257451)
(-7.48288e-20 -6.79289e-18 -0.337735)
(4.12774e-19 5.54278e-17 -0.44259)
(-2.10732e-17 -2.47768e-18 -0.577952)
(-2.6696e-17 -9.4357e-17 -0.749717)
(5.02293e-17 -1.39065e-17 -0.966013)
(-2.58749e-17 1.63645e-17 -1.23526)
(1.17075e-18 6.38122e-17 -1.56511)
(-2.67788e-17 -1.26915e-17 -1.96853)
(-2.44975e-17 -5.49352e-17 -2.44627)
(-8.03452e-19 -6.79908e-17 -3.02036)
(5.35025e-17 3.53683e-17 -3.68809)
(2.7415e-19 1.34897e-16 -4.4578)
(-7.11002e-18 3.33459e-17 -5.3415)
(5.61455e-17 4.18666e-17 -6.33177)
(-5.76687e-17 -4.31396e-17 -7.43212)
(-4.57935e-17 -2.4361e-16 -8.64673)
(7.0795e-17 4.72691e-17 -9.96043)
(4.18291e-18 1.52012e-16 -11.3626)
(-6.69447e-17 -4.39512e-17 -12.8535)
(-1.10839e-17 -1.60041e-16 -14.4089)
(1.23448e-16 8.77452e-17 -16.0164)
(-3.71545e-17 4.09754e-17 -17.6596)
(5.2709e-17 -6.12673e-18 -19.3158)
(6.30882e-17 8.88362e-17 -20.9749)
(-6.262e-17 1.85996e-16 -22.6396)
(-7.25109e-18 5.35197e-17 -24.2459)
(-1.2489e-16 9.39151e-17 -25.8168)
(-2.54093e-17 -5.62551e-17 -27.3756)
(-9.58645e-17 -6.79337e-17 -28.8205)
(-4.72836e-17 1.44451e-16 -30.1957)
(-5.21701e-18 -1.81521e-18 -31.5689)
(5.58108e-18 3.45137e-18 -32.7212)
(3.87431e-17 -9.73588e-17 -33.8483)
(4.77153e-18 4.07169e-18 -34.7821)
(-1.08701e-17 1.79827e-17 -35.5693)
(-2.44616e-17 9.15633e-17 -36.1474)
(-1.82661e-17 6.94875e-18 -36.4756)
(-1.45186e-17 7.84697e-17 -36.4864)
(-5.24174e-18 1.36425e-17 -36.2297)
(-2.99536e-18 1.31847e-17 -35.4845)
(8.16138e-18 -6.75553e-17 -34.5062)
(8.81607e-20 3.0167e-19 -32.9978)
(0 -0 -31.1477)
(4.75373e-19 -5.87319e-19 -29.0463)
(9.27957e-19 1.05402e-17 -26.631)
(-1.8115e-18 -6.94965e-18 -24.1311)
(-1.6767e-19 1.56748e-18 -21.4799)
(-2.57878e-18 -1.58337e-18 -18.8406)
(-1.10356e-18 -3.07611e-18 -16.2656)
(1.75005e-18 -6.82859e-19 -13.8067)
(-7.67403e-19 1.67036e-18 -11.5163)
(-9.15386e-18 -2.55783e-17 -9.39562)
(-2.46839e-19 -2.5768e-18 -7.49225)
(-4.0821e-19 -4.47303e-18 -5.75797)
(-8.24262e-18 -2.64113e-17 -4.21845)
(-4.61768e-18 1.104e-17 -3.28481)
(7.42101e-18 5.54903e-18 -3.04559)
(-1.28616e-18 -2.07815e-18 -2.94885)
(9.56004e-19 -2.22863e-19 -2.99835)
(1.16076e-18 -1.78521e-19 -3.24678)
(1.27509e-18 -1.05941e-19 -3.73543)
(-1.18366e-18 -1.02008e-18 -4.55923)
(1.08485e-18 -2.25598e-18 -5.62614)
(1.39084e-19 5.69657e-19 -6.65375)
(2.01344e-19 6.63702e-19 -7.57407)
(-1.18848e-18 3.08592e-18 -8.41018)
(-2.76565e-19 -2.06109e-18 -9.16446)
(-4.67434e-21 -3.06242e-18 -9.83304)
(2.53722e-19 5.02598e-18 -10.4146)
(-1.65695e-19 -1.26554e-18 -10.9102)
(1.07405e-18 3.26955e-20 -11.3222)
(-1.95071e-18 7.89285e-19 -11.6544)
(1.00026e-18 4.10827e-18 -11.9115)
(-1.65604e-19 -5.67592e-18 -12.0995)
(5.4379e-20 7.92007e-19 -12.2252)
(4.47894e-19 2.79566e-19 -12.2959)
(-7.18267e-19 2.18423e-18 -12.3196)
(-4.72368e-20 -5.516e-19 -12.3047)
(1.62085e-20 -2.46629e-18 -12.2595)
(2.70774e-19 2.73091e-19 -12.1921)
(2.39794e-19 7.15278e-22 -12.1103)
(-2.66852e-19 -7.95987e-22 -12.0213)
(2.17635e-19 -9.16948e-21 -11.9312)
(-3.62499e-19 -2.87217e-19 -11.845)
(2.26839e-19 1.04737e-20 -11.7664)
(-7.55404e-20 -2.25328e-22 -11.6974)
(-1.66433e-20 -4.43366e-20 -11.6389)
(4.98752e-20 -1.11526e-18 -11.5902)
(-1.65603e-20 1.2e-18 -11.5492)
(-4.33803e-20 -4.77713e-20 -11.5131)
(6.2785e-21 -2.86476e-19 -11.478)
(-3.8441e-21 -5.62525e-19 -11.4396)
(-6.50232e-21 2.97982e-19 -11.3911)
(-3.44199e-21 2.77433e-19 -11.3156)
(-7.75345e-22 -2.96095e-21 -11.2213)
(0 -0 3.17887)
(3.00543e-20 -0 -6.36904)
(-5.69105e-20 -1.63292e-18 -12.8043)
(3.40072e-19 -1.02049e-19 -15.4189)
(1.09104e-18 6.46795e-18 -16.127)
(-1.42081e-18 -6.41338e-18 -15.863)
(3.97997e-20 -1.68713e-18 -15.2721)
(1.65185e-19 -1.4941e-18 -14.6262)
(-3.6219e-18 4.87352e-18 -14.0208)
(3.36666e-18 -4.40162e-18 -13.4868)
(6.51693e-18 1.45903e-17 -13.027)
(-1.38159e-17 -2.04399e-18 -12.6331)
(9.87463e-19 -2.17587e-17 -12.2948)
(6.73281e-18 -8.89839e-19 -12.002)
(-8.96058e-19 2.05284e-17 -11.7457)
(-6.73033e-18 8.13358e-18 -11.5184)
(7.39751e-18 -2.09536e-17 -11.3137)
(-1.54096e-19 6.78364e-18 -11.1262)
(0 -0 -10.9512)
(0 -0 -10.7848)
(0 -0 -10.6234)
(0 -0 -10.4637)
(0 -0 -10.3028)
(-2.74203e-17 -0 -10.1378)
(4.12686e-17 -0 -9.96561)
(-1.38195e-17 -0 -9.78337)
(0 -0 -9.58782)
(0 -0 -9.37546)
(0 -0 -9.14225)
(-1.19327e-18 1.34822e-17 -8.8833)
(-3.18542e-19 1.00591e-17 -8.59226)
(3.69068e-18 -4.11654e-17 -8.26077)
(-1.57155e-19 -6.45206e-18 -7.87822)
(-1.57992e-17 4.91423e-17 -7.4153)
(-9.43359e-18 -4.64197e-17 -6.92658)
(4.09787e-17 2.11216e-17 -6.60886)
(9.73342e-17 1.25769e-16 -6.60021)
(5.35668e-18 -2.01546e-16 -6.9251)
(-1.73102e-17 -1.71987e-16 -7.58244)
(1.11424e-16 2.4025e-16 -8.59343)
(-3.28635e-17 1.35975e-17 -10.0172)
(-8.53753e-17 -1.80151e-16 -11.6432)
(7.58199e-17 -1.39338e-16 -13.355)
(1.26314e-17 -4.15199e-17 -15.1173)
(-2.35024e-17 -1.78711e-16 -16.8463)
(-8.8996e-18 4.39835e-16 -18.5503)
(1.85898e-16 1.38957e-16 -20.2178)
(1.04676e-16 1.11679e-16 -21.7833)
(7.52822e-17 1.51055e-16 -23.2952)
(5.93942e-17 -2.13493e-17 -24.681)
(-1.28917e-16 -1.43099e-16 -25.9361)
(-3.04455e-18 3.75058e-17 -27.0705)
(-1.83619e-17 2.40947e-16 -28.0059)
(-8.01543e-17 5.78618e-17 -28.7975)
(4.8991e-17 -2.37309e-17 -29.3583)
(3.59491e-17 3.68894e-17 -29.7206)
(3.62407e-17 -5.58381e-17 -29.846)
(8.28067e-18 1.09908e-17 -29.7193)
(-3.70715e-18 -3.18798e-17 -29.3595)
(-5.90354e-18 1.40923e-17 -28.7358)
(-2.88495e-18 -1.44026e-17 -27.8542)
(-2.49327e-17 -7.54347e-17 -26.7456)
(1.96542e-17 7.31834e-17 -25.4437)
(-2.34673e-18 9.14535e-17 -23.9809)
(4.518e-17 1.41501e-16 -22.4252)
(6.29715e-18 -5.03194e-17 -20.7827)
(-7.14667e-18 -7.69819e-17 -19.1508)
(-1.49421e-17 6.25775e-17 -17.5115)
(-2.40096e-17 -3.26401e-18 -15.9448)
(6.16377e-17 -3.95755e-17 -14.4395)
(4.53373e-18 2.10461e-17 -13.0217)
(-1.27289e-16 -2.37867e-17 -11.712)
(5.66755e-17 3.46798e-17 -10.4833)
(4.35308e-17 1.66663e-16 -9.36447)
(1.1991e-16 -3.83033e-17 -8.3413)
(1.13695e-17 -7.58672e-17 -7.40588)
(-1.18685e-17 9.93569e-18 -6.56358)
(-4.47802e-18 7.0782e-17 -5.80578)
(-5.37532e-17 -5.03596e-18 -5.12417)
(-1.54439e-16 5.48896e-17 -4.51889)
(2.00587e-16 5.63227e-17 -3.98427)
(2.09756e-17 -7.88967e-17 -3.51375)
(-6.54214e-17 4.5402e-17 -3.10347)
(1.93918e-17 -5.17241e-17 -2.74765)
(-2.99887e-18 -7.2429e-18 -2.44026)
(1.24223e-16 -6.25452e-17 -2.17678)
(4.79043e-17 -5.20894e-17 -1.95004)
(6.43387e-17 4.06631e-17 -1.75395)
(5.36036e-17 -1.09216e-16 -1.58617)
(1.09396e-16 -6.93467e-17 -1.44002)
(3.48446e-20 2.21151e-18 -1.31177)
(5.09434e-17 -6.34324e-17 -1.20154)
(2.04443e-17 2.17435e-17 -1.10479)
(-4.81466e-17 2.56481e-17 -1.02044)
(2.23284e-17 -5.66939e-17 -0.950008)
(8.98305e-19 3.1724e-17 -0.889688)
(-4.83367e-17 2.26114e-17 -0.843104)
(2.30141e-17 6.12118e-17 -0.806773)
(2.34117e-18 1.49168e-17 -0.78377)
(-1.28617e-17 -7.87516e-17 -0.771992)
(-6.41257e-18 2.95142e-18 -0.774334)
(-7.54213e-18 1.6119e-17 -0.789004)
(-3.20418e-18 -1.24115e-17 -0.818862)
(2.82007e-18 -1.66273e-18 -0.86397)
(5.52749e-18 -1.4706e-18 -0.9271)
(1.17515e-17 3.2685e-18 -1.01057)
(-2.22757e-19 -2.99121e-17 -1.1172)
(6.95473e-17 4.54945e-17 -1.2509)
(7.5106e-19 5.49485e-18 -1.41538)
(-4.68507e-17 8.10628e-18 -1.61528)
(-2.0034e-18 4.61552e-17 -1.85566)
(-1.88931e-18 -6.50102e-17 -2.14104)
(2.60846e-17 4.69667e-17 -2.47842)
(2.33284e-17 1.87881e-17 -2.86849)
(-2.71483e-17 -4.94876e-17 -3.32489)
(-5.34408e-17 -3.09337e-17 -3.84107)
(2.04734e-18 -7.46358e-17 -4.42896)
(9.92121e-18 -1.05856e-16 -5.09027)
(-1.34926e-17 -2.56858e-17 -5.8207)
(1.16008e-16 2.3421e-16 -6.62793)
(-9.3111e-17 2.7663e-18 -7.50992)
(-5.63658e-17 -1.37462e-16 -8.45743)
(4.44979e-17 5.63769e-17 -9.4716)
(7.92424e-17 4.75031e-17 -10.5499)
(4.83145e-17 -1.02977e-17 -11.675)
(-8.92722e-17 -2.40999e-16 -12.8459)
(-4.17072e-17 1.93864e-16 -14.0498)
(8.49798e-17 -2.9791e-16 -15.2737)
(-1.55792e-17 6.60998e-18 -16.5127)
(1.82341e-16 -1.61938e-17 -17.7581)
(4.62684e-17 3.02756e-17 -18.9731)
(1.95646e-16 -5.62573e-17 -20.1845)
(4.49081e-17 1.59637e-16 -21.3768)
(-4.50347e-17 2.61081e-16 -22.4909)
(8.09335e-17 -2.03491e-16 -23.5854)
(-5.72378e-18 7.65422e-17 -24.6406)
(3.06883e-17 -2.47635e-17 -25.555)
(2.16557e-17 -3.64117e-17 -26.471)
(1.2076e-17 -3.8072e-17 -27.2312)
(-8.55923e-18 3.14968e-17 -27.9146)
(4.92534e-17 -1.36016e-16 -28.4629)
(-6.33687e-17 2.33424e-16 -28.8662)
(4.07776e-17 -1.53125e-16 -29.1028)
(1.10161e-18 5.99016e-18 -29.1766)
(9.08263e-18 -5.70228e-17 -29.0043)
(-9.00534e-19 1.47469e-17 -28.6786)
(-1.72319e-18 2.25985e-17 -28.0399)
(1.05796e-19 -3.43457e-19 -27.208)
(5.17511e-19 4.20431e-17 -26.1153)
(-4.07802e-18 -7.65297e-17 -24.7885)
(8.47575e-19 -3.13517e-18 -23.28)
(2.03801e-17 1.28238e-16 -21.5719)
(5.52559e-18 2.23368e-17 -19.7512)
(-3.74486e-18 -1.98269e-17 -17.8342)
(-3.31647e-18 1.51188e-18 -15.8947)
(-2.19589e-17 -7.71627e-17 -13.9674)
(1.04556e-17 2.64222e-17 -12.095)
(-1.97325e-17 -5.30941e-17 -10.3147)
(1.06339e-18 3.38227e-18 -8.65453)
(2.52255e-18 3.27317e-17 -7.17518)
(1.57749e-17 2.11779e-17 -6.07606)
(-1.35804e-17 -4.11017e-17 -5.48642)
(1.02314e-18 9.13983e-18 -5.18815)
(-3.31979e-18 -5.11017e-18 -5.08832)
(-9.80251e-19 -4.76761e-18 -5.17909)
(-3.52304e-18 -6.01012e-18 -5.46887)
(3.06145e-18 5.28939e-18 -5.95746)
(-1.13913e-18 -2.93026e-19 -6.57116)
(-1.56024e-20 -1.37166e-19 -7.1948)
(-1.48767e-19 -7.55629e-19 -7.77732)
(3.49529e-20 1.33372e-19 -8.30995)
(2.3275e-19 1.934e-18 -8.79373)
(-8.46596e-19 1.05216e-17 -9.22847)
(5.32215e-19 -1.35975e-17 -9.61335)
(9.60235e-20 1.46461e-18 -9.94825)
(1.01559e-18 -1.15285e-17 -10.2339)
(-6.99306e-19 2.47938e-17 -10.4716)
(-3.77557e-19 -2.80919e-17 -10.6635)
(3.05365e-19 1.65264e-17 -10.8121)
(-8.47107e-20 -1.25307e-18 -10.921)
(-3.57666e-20 -7.82124e-18 -10.9941)
(3.48788e-19 7.73652e-18 -11.0357)
(-3.00318e-19 1.03747e-18 -11.0508)
(-3.25168e-19 6.73694e-18 -11.0443)
(3.07207e-19 -6.32807e-18 -11.0214)
(1.17611e-19 -6.45038e-18 -10.9867)
(-1.5622e-20 8.02674e-18 -10.9448)
(2.15283e-20 -7.83168e-18 -10.8992)
(-7.8882e-20 1.38617e-17 -10.8531)
(4.92049e-20 -9.30646e-18 -10.8084)
(5.62722e-20 3.57986e-18 -10.7663)
(-5.45639e-20 1.01415e-18 -10.7272)
(-9.72921e-20 -4.32469e-20 -10.6905)
(1.10943e-19 -2.20177e-18 -10.6551)
(-5.97663e-21 3.33272e-18 -10.6191)
(4.9526e-21 -3.27191e-19 -10.5805)
(1.3734e-22 1.64482e-18 -10.537)
(9.95073e-21 -1.29482e-20 -10.486)
(-1.38317e-22 7.08081e-22 -10.4256)
(-8.55238e-21 1.04923e-18 -10.3887)
(-2.41863e-21 8.19808e-19 5.45341)
(-3.7917e-19 1.3149e-18 2.32287)
(4.02734e-19 -4.52074e-18 -1.63502)
(5.92372e-19 -1.86436e-18 -5.00231)
(1.16486e-18 5.83907e-18 -7.5051)
(-1.77146e-18 -1.58867e-18 -8.95228)
(0 -0 -9.77339)
(-3.67218e-18 3.18558e-18 -10.1609)
(3.34771e-18 5.35083e-19 -10.2903)
(-2.62083e-18 -2.00159e-17 -10.2865)
(3.47435e-18 6.59655e-18 -10.2152)
(-2.20656e-19 2.25757e-17 -10.1121)
(-6.4357e-19 -6.35462e-19 -9.99702)
(-1.31332e-17 -1.86977e-17 -9.88054)
(1.26065e-17 1.28819e-17 -9.76761)
(8.23298e-18 -1.34657e-18 -9.66031)
(-1.32582e-17 -2.28236e-17 -9.55909)
(5.6533e-18 2.41837e-17 -9.46345)
(3.4196e-19 -6.43939e-18 -9.37238)
(0 -0 -9.28461)
(1.30464e-17 -0 -9.19874)
(-1.3075e-17 -0 -9.1133)
(-8.67324e-19 1.27819e-17 -9.02676)
(-1.2636e-17 7.32382e-18 -8.93756)
(1.44757e-17 -3.29153e-17 -8.84403)
(-9.44784e-19 1.28096e-17 -8.74437)
(0 -0 -8.63659)
(1.30446e-17 -0 -8.51838)
(-1.53191e-20 -0 -8.38699)
(-1.42402e-17 1.28949e-17 -8.23901)
(1.49726e-18 3.71035e-18 -8.06998)
(2.8469e-17 -2.95461e-17 -7.87384)
(-4.3339e-17 1.21259e-17 -7.64497)
(2.52773e-17 -1.26734e-18 -7.37702)
(-1.52684e-18 2.75129e-17 -7.08652)
(-5.51016e-17 -4.18687e-17 -6.8331)
(8.51597e-17 -4.94077e-17 -6.69937)
(3.7734e-17 1.86233e-16 -6.76606)
(-1.25674e-16 8.19864e-17 -7.06247)
(-2.93951e-17 -9.16427e-17 -7.58634)
(-2.28838e-17 -1.47657e-18 -8.32415)
(-1.3987e-16 -1.16959e-17 -9.14712)
(-6.50906e-17 2.10236e-16 -10.0557)
(1.08435e-16 7.20635e-17 -11.0485)
(-2.79767e-16 5.18194e-17 -12.0743)
(3.02605e-16 -4.0544e-16 -13.1291)
(7.501e-17 -2.09126e-16 -14.192)
(-5.35016e-18 6.22973e-17 -15.2414)
(9.00619e-17 -2.01682e-16 -16.2943)
(-3.62104e-18 1.28716e-16 -17.3021)
(-1.09288e-16 4.20488e-16 -18.2734)
(1.49535e-17 -1.09613e-16 -19.2026)
(5.15577e-17 -2.00033e-16 -20.066)
(9.27748e-17 -2.76716e-16 -20.8742)
(1.86824e-17 -2.4482e-16 -21.599)
(-1.56697e-18 -8.64419e-17 -22.2458)
(-5.05091e-18 -1.27057e-16 -22.7872)
(4.38239e-18 -3.16983e-17 -23.2215)
(-9.49066e-18 3.92302e-17 -23.5113)
(8.00918e-18 3.67443e-17 -23.6647)
(3.85218e-18 7.03746e-18 -23.6352)
(-1.21134e-17 7.49126e-17 -23.4087)
(1.95177e-17 -9.62696e-17 -22.9902)
(2.35079e-17 -4.3348e-17 -22.3662)
(-6.824e-17 -3.34169e-16 -21.5874)
(-3.01873e-17 5.26868e-17 -20.6331)
(-6.65321e-17 -5.36834e-18 -19.5868)
(1.87228e-17 3.63081e-17 -18.4346)
(1.5257e-18 -1.46399e-17 -17.2512)
(-5.40817e-17 4.66184e-18 -16.045)
(1.02517e-17 1.15326e-16 -14.8438)
(1.74548e-16 9.84091e-17 -13.6884)
(-1.42832e-16 -2.11548e-16 -12.5632)
(1.75003e-16 -2.76227e-17 -11.5014)
(2.94146e-17 -1.31964e-16 -10.5041)
(-1.66778e-17 1.43152e-16 -9.56818)
(1.24811e-16 8.57286e-17 -8.70376)
(4.32276e-18 -4.01091e-18 -7.90966)
(1.72665e-16 1.47798e-16 -7.18029)
(7.19932e-17 -9.76663e-17 -6.51725)
(1.82274e-17 -3.68107e-16 -5.91784)
(-3.21268e-17 1.47458e-16 -5.37623)
(8.54166e-17 1.78856e-17 -4.88938)
(5.3702e-17 -1.45187e-16 -4.45232)
(-6.15548e-17 4.33852e-17 -4.05915)
(1.09256e-16 -9.56037e-17 -3.70707)
(-1.85965e-16 1.76444e-17 -3.39082)
(-1.44543e-16 -6.34833e-17 -3.10456)
(-6.91316e-17 7.7074e-17 -2.8493)
(-1.243e-17 3.95109e-17 -2.62037)
(1.13141e-18 7.1808e-17 -2.41408)
(2.36214e-18 3.29933e-17 -2.23314)
(-2.65559e-17 1.87331e-17 -2.07383)
(2.8797e-17 -4.30685e-17 -1.93377)
(-5.30524e-19 -2.578e-18 -1.81701)
(-8.9406e-18 3.01353e-17 -1.7166)
(3.32576e-18 -2.43609e-17 -1.63846)
(-3.67352e-18 -6.46889e-17 -1.57615)
(7.7927e-17 3.71725e-18 -1.53424)
(6.81162e-18 3.84108e-17 -1.50792)
(-5.82809e-18 -1.13201e-18 -1.50102)
(8.58028e-18 -1.06191e-17 -1.50978)
(2.82226e-19 6.66305e-18 -1.53651)
(-8.34886e-20 -5.64338e-18 -1.58006)
(-1.78557e-19 -1.25905e-17 -1.64147)
(-1.17471e-17 -6.35005e-18 -1.7217)
(-1.24115e-17 -1.71899e-17 -1.82152)
(-4.66962e-17 -2.33503e-17 -1.94244)
(7.22037e-17 8.7175e-17 -2.08597)
(-5.05657e-17 -3.94919e-17 -2.25379)
(5.24011e-17 -2.02166e-17 -2.44809)
(-6.98247e-19 3.21221e-17 -2.67059)
(1.35873e-18 -3.34702e-17 -2.92492)
(1.01531e-17 5.72345e-18 -3.21003)
(-8.61505e-18 6.86394e-17 -3.53525)
(-4.47657e-19 -3.681e-17 -3.89375)
(2.54725e-17 8.33895e-17 -4.2956)
(-1.99055e-17 1.82913e-16 -4.74099)
(-1.49399e-16 -1.43967e-16 -5.22771)
(2.72603e-18 -1.51351e-16 -5.76331)
(5.94608e-17 2.96949e-16 -6.34706)
(2.96962e-17 -1.04743e-16 -6.97478)
(4.277e-17 -2.03553e-16 -7.65095)
(-5.55631e-17 -7.31202e-17 -8.37504)
(9.81204e-17 -9.50923e-17 -9.13758)
(-3.16921e-16 3.91069e-16 -9.94066)
(1.66883e-16 -2.61374e-16 -10.7772)
(-1.68419e-16 1.39791e-16 -11.6399)
(5.89269e-17 -3.85936e-16 -12.525)
(1.12655e-16 -4.25496e-16 -13.4251)
(1.06122e-16 -2.07361e-16 -14.3183)
(-3.63822e-17 -7.37098e-17 -15.2191)
(1.25961e-16 -3.86703e-16 -16.1125)
(2.3654e-16 -2.39061e-16 -16.9613)
(-8.27002e-17 5.43652e-17 -17.8038)
(2.1594e-17 -6.1629e-17 -18.6138)
(7.20564e-17 -1.68336e-16 -19.3436)
(3.14788e-17 -9.81344e-17 -20.0726)
(-2.13998e-17 5.28759e-17 -20.7088)
(9.8419e-18 -5.18682e-17 -21.3015)
(-7.18114e-17 2.50258e-16 -21.8234)
(2.77375e-17 6.98638e-18 -22.2722)
(-4.05792e-18 9.25753e-19 -22.6468)
(-1.27981e-17 5.83996e-17 -22.9445)
(-3.84608e-17 2.20719e-16 -23.1361)
(-2.8808e-19 -1.94013e-18 -23.2508)
(6.6767e-18 -1.07109e-16 -23.2128)
(-3.2275e-18 6.85265e-17 -23.0699)
(-1.73654e-18 -4.23028e-17 -22.7494)
(1.04976e-17 1.21668e-16 -22.2553)
(5.18166e-18 6.01434e-17 -21.5836)
(-2.25856e-17 -1.26462e-16 -20.7088)
(-3.44452e-17 -2.11717e-16 -19.6668)
(1.3884e-17 6.45836e-17 -18.4481)
(-3.83459e-17 -1.72383e-16 -17.103)
(2.38005e-17 7.50228e-17 -15.655)
(6.31807e-18 2.10012e-17 -14.1509)
(1.73896e-17 5.09198e-17 -12.6272)
(-5.33978e-18 -1.53894e-17 -11.1401)
(2.7157e-17 6.12332e-17 -9.76965)
(-6.88346e-18 -2.94367e-17 -8.62154)
(-5.646e-19 2.21607e-17 -7.82765)
(3.87142e-18 8.19921e-18 -7.34205)
(7.31055e-18 2.26261e-17 -7.07744)
(-1.03902e-18 4.90187e-19 -6.99308)
(2.05814e-18 1.59095e-17 -7.06943)
(-4.10893e-18 -2.32071e-17 -7.27181)
(1.30793e-18 -2.44192e-19 -7.54466)
(1.31403e-18 -1.25205e-18 -7.83488)
(3.83704e-19 5.18255e-19 -8.11128)
(3.81516e-19 1.57233e-17 -8.36345)
(5.84579e-20 -1.92615e-18 -8.5927)
(2.326e-18 1.43265e-19 -8.80109)
(-2.32875e-18 9.05338e-19 -8.98936)
(-1.41666e-19 -2.06819e-18 -9.15791)
(-1.8746e-18 -2.30495e-17 -9.30715)
(2.81072e-18 2.37758e-17 -9.43749)
(-8.7862e-19 2.00226e-17 -9.54933)
(-2.69721e-19 -2.36002e-17 -9.64313)
(5.93471e-20 8.66474e-19 -9.71947)
(-5.14965e-19 1.13127e-18 -9.7791)
(4.14278e-19 1.96228e-19 -9.823)
(7.9075e-20 9.97732e-18 -9.85238)
(5.07767e-19 -5.03037e-19 -9.86862)
(-4.54341e-19 -1.22279e-17 -9.87328)
(-2.59133e-19 -2.95586e-18 -9.86797)
(3.28872e-19 -1.03893e-18 -9.85434)
(-2.24914e-19 1.13205e-18 -9.83396)
(2.19497e-19 -3.8304e-20 -9.80825)
(-6.90097e-20 -1.15423e-18 -9.77841)
(1.36752e-19 -5.29605e-18 -9.74544)
(4.79876e-20 4.35651e-18 -9.71009)
(-7.41686e-20 5.22068e-18 -9.67287)
(2.92762e-20 -6.42404e-18 -9.63401)
(4.85386e-21 4.52062e-20 -9.5935)
(-1.07352e-20 -1.52338e-18 -9.55107)
(1.3994e-20 -2.62036e-18 -9.50622)
(1.44738e-20 -1.29087e-18 -9.45835)
(2.79018e-22 1.30483e-18 -9.40709)
(1.00633e-20 -1.05531e-18 -9.39699)
(0 -0 3.6142)
(8.73252e-19 -0 3.04614)
(-8.51757e-19 -1.57286e-18 1.88257)
(6.75369e-19 -2.90131e-18 0.0369267)
(-6.84751e-19 6.04469e-18 -1.71936)
(2.3167e-20 -1.57051e-18 -3.27944)
(3.24658e-18 -0 -4.57376)
(-3.25138e-18 -0 -5.50438)
(1.78698e-19 -0 -6.16607)
(-3.97451e-19 -0 -6.63626)
(-6.81435e-18 6.175e-18 -6.95367)
(6.25323e-18 9.71428e-18 -7.16721)
(7.66464e-18 -1.59174e-17 -7.312)
(-8.62268e-19 9.18503e-18 -7.41004)
(1.14577e-18 -3.04543e-17 -7.47574)
(-7.29499e-18 3.367e-17 -7.51918)
(-7.1992e-18 2.28799e-18 -7.54723)
(7.63764e-18 -2.08505e-17 -7.56441)
(-3.2871e-19 6.18988e-18 -7.5736)
(7.04706e-18 -1.23048e-17 -7.57665)
(-6.27271e-18 -1.55034e-17 -7.57468)
(-1.5867e-18 4.01398e-17 -7.56825)
(-3.31843e-20 -4.71187e-20 -7.55763)
(9.99397e-19 1.43758e-17 -7.54281)
(1.33119e-17 -3.89711e-17 -7.52357)
(-1.35075e-17 1.23107e-17 -7.49951)
(-1.15912e-17 -1.2303e-17 -7.47)
(1.23231e-18 -2.48016e-17 -7.43412)
(2.32306e-17 2.52346e-17 -7.39059)
(-1.50384e-17 3.65981e-17 -7.33765)
(2.82814e-18 -1.42914e-17 -7.27282)
(-1.02909e-17 -4.49101e-17 -7.19236)
(9.59424e-18 3.52078e-17 -7.09358)
(1.41348e-17 -1.90382e-17 -6.97535)
(-1.77252e-17 4.42667e-17 -6.83672)
(2.72364e-17 -2.87523e-18 -6.67692)
(-1.00042e-16 -9.67977e-17 -6.5245)
(-8.17913e-17 -1.58752e-16 -6.45267)
(1.44373e-16 -1.84578e-17 -6.50258)
(4.77173e-17 1.11207e-16 -6.6752)
(-2.34318e-17 1.6564e-16 -6.94915)
(-9.79846e-18 2.39734e-16 -7.26515)
(1.82253e-16 -5.7484e-16 -7.65092)
(4.48822e-17 -2.91549e-16 -8.11234)
(1.80951e-17 2.25819e-16 -8.62909)
(-8.184e-17 -1.04852e-16 -9.19597)
(-1.74065e-16 2.12786e-16 -9.79214)
(-4.43474e-17 -2.77639e-17 -10.4266)
(-1.61741e-16 1.95806e-16 -11.0864)
(-3.06879e-17 -1.37874e-16 -11.7461)
(1.92262e-16 -1.80525e-16 -12.4317)
(-4.35113e-17 3.10497e-17 -13.1156)
(-1.02074e-16 3.84511e-16 -13.806)
(-1.21466e-16 1.87646e-16 -14.4945)
(-6.48764e-17 2.43575e-16 -15.1829)
(-2.9232e-17 1.23705e-16 -15.8672)
(-3.72998e-17 -9.172e-18 -16.5372)
(-4.28963e-18 -4.3275e-17 -17.1957)
(2.94294e-18 -3.36926e-17 -17.7994)
(6.58631e-18 -5.40837e-17 -18.3707)
(-9.83399e-18 -3.44485e-17 -18.8485)
(1.9164e-17 -1.12864e-17 -19.2133)
(-3.71921e-17 -1.36629e-16 -19.4432)
(1.0867e-17 5.15163e-17 -19.4999)
(1.64731e-17 4.40697e-16 -19.4054)
(9.13097e-17 1.97838e-16 -19.1167)
(-2.32408e-18 3.27081e-17 -18.6898)
(9.56929e-18 -1.00635e-17 -18.1)
(-3.55312e-17 4.25718e-17 -17.4063)
(8.30819e-17 1.69828e-16 -16.618)
(1.78677e-17 -1.01582e-16 -15.7607)
(-6.33085e-17 -2.44973e-16 -14.8817)
(4.49198e-17 2.41686e-16 -13.9739)
(-8.1589e-17 -2.43608e-16 -13.0756)
(-7.46277e-17 1.11791e-16 -12.1974)
(3.50047e-18 -5.8834e-17 -11.3428)
(1.50829e-17 -1.47292e-16 -10.5277)
(-4.51438e-18 -2.5721e-17 -9.75729)
(8.66305e-17 -2.29296e-16 -9.03078)
(8.28298e-17 -9.99597e-17 -8.35278)
(-2.71317e-16 2.53901e-16 -7.7243)
(-3.24515e-17 3.38875e-17 -7.14173)
(4.01306e-17 -1.66838e-16 -6.60402)
(-6.70835e-17 1.12038e-16 -6.10788)
(-1.25284e-19 -7.17447e-17 -5.64822)
(-1.51756e-16 1.48176e-16 -5.22407)
(1.60907e-16 3.14823e-16 -4.83222)
(2.61216e-17 7.84488e-17 -4.46737)
(-3.93908e-17 -1.49895e-16 -4.13362)
(-1.75699e-16 -2.89965e-18 -3.82854)
(-2.6079e-17 1.37493e-17 -3.54937)
(1.24091e-18 3.09263e-19 -3.30124)
(2.84276e-17 -1.08977e-17 -3.08202)
(-3.90948e-18 -3.25026e-17 -2.88847)
(-5.21127e-17 4.88887e-18 -2.72695)
(-1.94495e-18 3.00616e-17 -2.58796)
(2.40363e-17 -1.37683e-17 -2.47912)
(-7.66417e-17 -1.20208e-17 -2.39138)
(-4.48531e-17 -1.40771e-18 -2.33038)
(-2.15488e-18 2.38366e-17 -2.28884)
(1.12148e-17 -4.4658e-18 -2.27106)
(-1.10685e-17 9.46166e-18 -2.27151)
(7.24672e-18 -1.1145e-18 -2.29171)
(-8.35283e-21 -1.00512e-18 -2.32938)
(6.37913e-20 1.16263e-17 -2.38381)
(-2.39673e-17 1.89835e-17 -2.45455)
(2.74112e-19 2.41575e-17 -2.54055)
(-2.41025e-17 -6.72283e-17 -2.64119)
(-2.08308e-17 -4.43119e-17 -2.75612)
(4.45281e-17 1.01843e-16 -2.88483)
(-1.84358e-18 -2.86337e-17 -3.02733)
(6.03912e-19 -7.1447e-19 -3.18354)
(4.21343e-19 3.01021e-17 -3.35492)
(-3.3665e-17 1.58947e-17 -3.53939)
(4.71939e-17 4.83658e-18 -3.74374)
(1.364e-18 -2.62061e-17 -3.96187)
(-6.09484e-17 -2.00223e-16 -4.20176)
(1.02634e-16 -5.47462e-17 -4.46397)
(5.16706e-17 3.89759e-16 -4.74765)
(-1.21148e-16 -5.17015e-17 -5.05964)
(1.81209e-16 -2.12004e-16 -5.40121)
(-4.14068e-18 -1.16773e-16 -5.77122)
(-1.32357e-16 2.59563e-16 -6.1752)
(-1.5191e-16 2.5155e-16 -6.61464)
(-1.70883e-16 6.66899e-17 -7.0854)
(1.71277e-16 8.77562e-17 -7.5907)
(-3.398e-17 3.04609e-17 -8.12744)
(4.95259e-17 8.66551e-17 -8.69194)
(-2.19359e-16 3.45323e-16 -9.28189)
(-2.4032e-16 2.34963e-16 -9.89225)
(-1.8736e-16 2e-16 -10.5096)
(-5.76274e-18 6.64425e-19 -11.1405)
(-2.68217e-16 3.71409e-16 -11.7754)
(-2.57113e-17 -1.16206e-16 -12.3886)
(-8.59881e-17 1.89468e-16 -13.0026)
(-3.48341e-17 3.94822e-17 -13.5971)
(-2.02224e-17 -4.62896e-17 -14.1519)
(-1.26475e-16 2.81804e-16 -14.7047)
(3.20124e-17 -6.48486e-17 -15.2111)
(-1.13595e-16 3.38814e-16 -15.6963)
(1.98811e-16 -6.23721e-16 -16.1523)
(1.41109e-16 -5.37436e-16 -16.5807)
(6.7137e-17 -2.88369e-16 -16.9889)
(5.64127e-18 6.78047e-18 -17.3765)
(-8.40413e-18 9.46597e-17 -17.7401)
(2.55263e-18 4.26057e-18 -18.0859)
(1.54886e-18 -3.71382e-17 -18.3874)
(-4.33459e-18 1.18836e-16 -18.6544)
(1.42642e-18 -6.60037e-17 -18.8374)
(3.32505e-18 1.36144e-16 -18.9226)
(-9.75937e-18 -1.02218e-16 -18.8853)
(2.59624e-18 -2.85848e-18 -18.6917)
(3.92583e-17 2.2323e-16 -18.3395)
(-1.79442e-17 -9.19896e-17 -17.8013)
(3.37686e-17 1.44647e-16 -17.0936)
(8.25959e-18 4.08034e-17 -16.22)
(-4.76743e-17 -1.87716e-16 -15.2113)
(9.67153e-18 3.05115e-17 -14.0928)
(-2.42067e-19 -1.98698e-18 -12.9213)
(-2.7377e-17 -8.64251e-17 -11.7777)
(-2.43065e-18 4.67452e-18 -10.7282)
(3.32089e-18 -1.90327e-19 -9.87477)
(9.52659e-19 -1.60936e-18 -9.26894)
(-2.41758e-18 -2.45997e-17 -8.86727)
(-5.10637e-19 9.56472e-19 -8.62497)
(8.43209e-19 -3.2401e-18 -8.50968)
(-7.69491e-20 1.75468e-17 -8.47698)
(-2.98543e-18 -1.7407e-17 -8.48692)
(-2.55564e-18 -2.0729e-17 -8.51228)
(1.02988e-18 -2.65381e-18 -8.53536)
(2.53013e-18 2.27173e-17 -8.54979)
(-7.323e-19 -5.42828e-18 -8.55824)
(-2.02852e-18 -2.50495e-17 -8.5644)
(2.03105e-18 2.70412e-17 -8.57048)
(4.35897e-19 3.02109e-18 -8.57793)
(-2.13258e-18 2.91204e-18 -8.58781)
(1.87841e-18 -8.25028e-19 -8.60072)
(2.92341e-19 -2.8354e-17 -8.61681)
(-4.89534e-20 2.97292e-17 -8.63573)
(-2.21045e-19 -6.59819e-19 -8.65671)
(4.82898e-19 4.11008e-18 -8.67863)
(-3.28194e-19 -1.47266e-19 -8.70013)
(4.91439e-20 -4.34454e-18 -8.71966)
(3.31988e-19 -1.44844e-17 -8.73565)
(-6.3508e-19 1.50185e-17 -8.74663)
(7.45511e-21 2.93591e-18 -8.75129)
(-3.66412e-20 -4.10452e-18 -8.74862)
(-5.47483e-20 1.85334e-19 -8.73798)
(1.88161e-20 1.43169e-17 -8.71917)
(-5.15665e-20 -1.45785e-17 -8.6924)
(-1.24033e-19 -3.88644e-18 -8.65833)
(1.94685e-19 -7.05775e-18 -8.61803)
(-8.59468e-20 7.12483e-18 -8.57285)
(-2.02071e-20 -7.1012e-18 -8.52431)
(-2.86076e-20 7.11461e-18 -8.474)
(1.78949e-20 3.05581e-18 -8.42337)
(-4.79891e-20 3.48836e-18 -8.37359)
(4.66394e-21 -1.76668e-18 -8.32524)
(5.86247e-20 -5.59429e-18 -8.27568)
(-3.43266e-21 7.53278e-21 -8.27963)
(0 -0 2.35048)
(0 -0 2.3491)
(1.41003e-20 -1.59312e-18 2.12586)
(5.89145e-19 -2.83804e-18 1.53292)
(-6.15362e-19 6.01352e-18 0.779183)
(7.76953e-20 -4.65292e-18 -0.201487)
(4.22725e-18 -6.20842e-18 -1.1332)
(-7.6573e-18 1.53944e-17 -1.98481)
(2.65916e-18 1.04816e-19 -2.73765)
(1.51176e-18 -1.84647e-17 -3.39169)
(-8.89631e-19 1.52882e-17 -3.88811)
(6.65811e-18 -3.04366e-18 -4.2908)
(-1.26655e-17 -6.02741e-18 -4.62331)
(1.37313e-17 -1.77164e-17 -4.89177)
(-1.40193e-17 1.82472e-17 -5.10915)
(5.39249e-18 2.89218e-17 -5.2878)
(1.60569e-18 -2.94522e-17 -5.43657)
(-6.42714e-19 6.02712e-18 -5.56185)
(3.35113e-19 -5.97832e-18 -5.66846)
(6.41408e-18 -1.07724e-17 -5.76011)
(-7.86548e-18 2.27404e-17 -5.83959)
(1.12464e-18 -5.98973e-18 -5.90898)
(-1.30903e-17 1.19037e-17 -5.9699)
(1.34861e-17 8.34393e-18 -6.02362)
(1.80554e-18 -6.39274e-17 -6.07112)
(-4.03023e-18 6.74859e-17 -6.11318)
(-6.66895e-19 1.89669e-17 -6.15036)
(1.9e-18 -3.62057e-17 -6.18301)
(-9.58671e-18 -4.83073e-17 -6.21121)
(8.12439e-18 6.55946e-17 -6.23467)