/*--------------------------------*- C++ -*----------------------------------*\
| =========                 |                                                 |
| \\      /  F ield         | OpenFOAM: The Open Source CFD Toolbox           |
|  \\    /   O peration     | Version:  2506                                  |
|   \\  /    A nd           | Website:  www.openfoam.com                      |
|    \\/     M anipulation  |                                                 |
\*---------------------------------------------------------------------------*/
FoamFile
{
    version     2.0;
    format      ascii;
    arch        "LSB;label=32;scalar=64";
    class       volScalarField;
    location    "4.05";
    object      p;
}
// * * * * * * * * * * * * * * * * * * * * * * * * * * * * * * * * * * * * * //

dimensions      [0 2 -2 0 0 0 0];

internalField   nonuniform List<scalar> 
4000
(
0.000653435
0.0005958
0.000564471
0.000551094
0.000543167
0.000537709
0.000533904
0.000530985
0.000528456
0.000526097
0.000523828
0.000521616
0.000519454
0.000517339
0.000515274
0.000513261
0.000511304
0.000509405
0.000507568
0.000505795
0.00050409
0.000502456
0.000500899
0.000499423
0.000498035
0.000496742
0.000495553
0.000494478
0.000493526
0.000492712
0.000492049
0.000491566
0.000491294
0.000491102
0.000491588
0.000492591
0.000493097
0.000492943
0.000492166
0.000490519
0.000487716
0.000482538
0.000475157
0.000466415
0.000456279
0.000444885
0.000432302
0.000418399
0.000403818
0.000388411
0.000372453
0.00035646
0.000340244
0.000324788
0.000309616
0.000295767
0.000283101
0.000271836
0.000262718
0.000254595
0.000249052
0.000244828
0.000242215
0.000241113
0.000240866
0.000241845
0.000243179
0.000245231
0.000247383
0.000249743
0.000252108
0.000254305
0.000256456
0.000258379
0.000260117
0.00026171
0.000263135
0.000264428
0.000265645
0.000266797
0.000267908
0.000269001
0.000270081
0.00027115
0.000272208
0.00027324
0.00027424
0.00027521
0.000276127
0.00027699
0.000277812
0.000278572
0.000279283
0.000279959
0.000280581
0.000281182
0.000281745
0.000282296
0.000282821
0.000283345
0.000283853
0.000284366
0.000284875
0.000285387
0.000285906
0.00028642
0.000286943
0.000287453
0.000287957
0.000288434
0.000288874
0.000289249
0.000289539
0.000289689
0.000289691
0.000289443
0.000288924
0.000288064
0.000286771
0.000285004
0.000282688
0.000279737
0.000276116
0.000271789
0.000266689
0.000260817
0.000254163
0.00024673
0.000238543
0.000229623
0.000219952
0.000209669
0.00019879
0.000187228
0.000175251
0.000162858
0.000149805
0.000136755
0.000123274
0.000109793
9.63509e-05
8.31712e-05
7.04682e-05
5.86431e-05
4.75736e-05
3.82642e-05
2.97806e-05
2.36864e-05
1.90275e-05
1.60147e-05
1.4899e-05
1.47359e-05
1.6297e-05
1.83678e-05
2.14811e-05
2.46902e-05
2.8301e-05
3.16901e-05
3.49393e-05
3.77763e-05
4.15116e-05
4.358e-05
4.5069e-05
4.61857e-05
4.7148e-05
4.78306e-05
4.84073e-05
4.83578e-05
4.80931e-05
4.78685e-05
4.75914e-05
4.71704e-05
4.65337e-05
4.56266e-05
4.44204e-05
4.29153e-05
4.11367e-05
3.91278e-05
3.69417e-05
3.46353e-05
3.22637e-05
2.98773e-05
2.75179e-05
2.52229e-05
2.30199e-05
2.0929e-05
1.89624e-05
1.71247e-05
1.54136e-05
1.382e-05
1.23299e-05
1.09241e-05
9.58199e-06
8.2821e-06
7.00405e-06
5.73016e-06
4.44684e-06
3.14322e-06
1.81116e-06
5.2011e-07
0.000602031
0.000578884
0.000560952
0.000551194
0.000544544
0.000539236
0.000535161
0.000531962
0.000529232
0.000526734
0.000524366
0.000522085
0.000519871
0.000517717
0.000515622
0.000513586
0.00051161
0.000509698
0.000507851
0.000506072
0.000504364
0.00050273
0.000501175
0.000499704
0.000498324
0.000497041
0.000495865
0.000494805
0.000493873
0.000493081
0.000492445
0.000491986
0.000491733
0.000491549
0.000491868
0.000492531
0.000492607
0.000491932
0.00049049
0.000487997
0.000484169
0.000478083
0.000470116
0.000460971
0.000450566
0.000439016
0.000426407
0.000412687
0.000398427
0.000383515
0.000368217
0.000352978
0.000337657
0.000323149
0.000309041
0.000296209
0.000284411
0.000273816
0.000265085
0.000257295
0.000251717
0.000247384
0.000244495
0.000243028
0.000242412
0.000242974
0.000243972
0.000245692
0.000247611
0.000249776
0.000252023
0.000254158
0.000256274
0.000258206
0.000259962
0.000261575
0.000263016
0.000264315
0.000265519
0.000266645
0.000267718
0.000268767
0.000269802
0.000270832
0.000271859
0.000272874
0.000273869
0.000274843
0.000275779
0.000276671
0.00027752
0.000278318
0.000279065
0.00027977
0.000280426
0.000281052
0.000281638
0.000282204
0.000282744
0.000283278
0.000283796
0.000284311
0.000284823
0.000285334
0.00028585
0.000286358
0.000286867
0.00028736
0.000287833
0.000288267
0.000288643
0.000288931
0.000289102
0.000289099
0.000288901
0.000288411
0.0002876
0.000286394
0.000284708
0.000282499
0.000279697
0.00027623
0.000272072
0.000267194
0.00026155
0.000255153
0.000248008
0.000240125
0.000231545
0.000222306
0.000212398
0.00020197
0.000191019
0.000179496
0.000167633
0.000155418
0.00014272
0.000130075
0.000117133
0.000104312
9.1643e-05
7.93271e-05
6.76026e-05
5.67473e-05
4.67174e-05
3.82936e-05
3.0704e-05
2.50901e-05
2.07898e-05
1.79338e-05
1.67862e-05
1.6528e-05
1.78369e-05
1.96753e-05
2.25094e-05
2.55136e-05
2.89276e-05
3.22101e-05
3.5433e-05
3.8164e-05
4.17338e-05
4.37755e-05
4.51944e-05
4.62199e-05
4.70234e-05
4.75061e-05
4.78535e-05
4.76796e-05
4.73754e-05
4.71454e-05
4.68792e-05
4.6481e-05
4.5881e-05
4.50235e-05
4.3877e-05
4.24385e-05
4.07301e-05
3.87918e-05
3.66736e-05
3.44295e-05
3.21124e-05
2.97709e-05
2.74486e-05
2.51795e-05
2.29929e-05
2.09113e-05
1.89485e-05
1.71109e-05
1.53975e-05
1.38002e-05
1.23097e-05
1.09052e-05
9.5669e-06
8.27404e-06
7.006e-06
5.74447e-06
4.47465e-06
3.18444e-06
1.86288e-06
5.4408e-07
0.00057784
0.000570047
0.00055945
0.000551532
0.000545425
0.000540501
0.000536405
0.000533013
0.00053009
0.000527436
0.000524951
0.000522581
0.0005203
0.000518093
0.000515955
0.000513885
0.000511881
0.000509946
0.00050808
0.000506286
0.000504565
0.000502921
0.000501359
0.000499882
0.000498497
0.000497212
0.000496033
0.000494972
0.000494038
0.000493243
0.0004926
0.000492122
0.000491833
0.000491583
0.000491671
0.000491935
0.000491535
0.000490314
0.00048823
0.000484977
0.000480334
0.000473653
0.000465396
0.000456101
0.000445671
0.000434211
0.000421837
0.000408581
0.000394886
0.000380723
0.000366313
0.000352011
0.000337833
0.000324364
0.000311366
0.000299345
0.000288318
0.00027834
0.00026993
0.000262369
0.000256633
0.000252032
0.000248711
0.000246706
0.000245544
0.000245521
0.000246009
0.000247247
0.000248782
0.000250625
0.000252634
0.0002546
0.000256597
0.000258459
0.000260172
0.000261756
0.000263175
0.000264449
0.000265617
0.000266697
0.000267716
0.000268705
0.000269681
0.000270657
0.00027164
0.000272624
0.000273604
0.000274575
0.00027552
0.000276431
0.000277305
0.000278129
0.000278904
0.000279633
0.000280311
0.000280955
0.000281555
0.000282131
0.000282677
0.000283213
0.000283729
0.000284248
0.000284757
0.000285263
0.000285771
0.000286267
0.000286761
0.000287228
0.000287665
0.000288045
0.000288346
0.000288532
0.000288569
0.000288394
0.000287981
0.000287234
0.000286118
0.000284564
0.000282491
0.000279859
0.000276612
0.000272691
0.000268081
0.000262763
0.000256712
0.000249951
0.000242494
0.000234363
0.000225601
0.000216247
0.000206315
0.000195917
0.000185075
0.000173766
0.000162185
0.000150334
0.000138156
0.000126062
0.000113829
0.000101778
8.99845e-05
7.86054e-05
6.78402e-05
5.78945e-05
4.87369e-05
4.09385e-05
3.39478e-05
2.86151e-05
2.447e-05
2.15699e-05
2.01925e-05
1.96444e-05
2.05336e-05
2.19751e-05
2.44012e-05
2.70778e-05
3.01798e-05
3.32518e-05
3.63655e-05
3.88951e-05
4.22389e-05
4.4105e-05
4.53489e-05
4.61867e-05
4.67649e-05
4.69926e-05
4.71137e-05
4.68268e-05
4.65055e-05
4.63036e-05
4.60818e-05
4.57366e-05
4.51978e-05
4.44074e-05
4.33302e-05
4.19609e-05
4.03201e-05
3.84463e-05
3.6388e-05
3.41979e-05
3.19277e-05
2.9625e-05
2.73317e-05
2.5085e-05
2.29151e-05
2.08444e-05
1.88884e-05
1.70554e-05
1.53466e-05
1.37574e-05
1.22699e-05
1.08737e-05
9.5471e-06
8.2681e-06
7.01542e-06
5.76945e-06
4.5135e-06
3.23252e-06
1.91047e-06
5.51877e-07
0.000566787
0.000563841
0.000557294
0.000550933
0.000545736
0.000541264
0.00053728
0.000533898
0.000530878
0.000528104
0.000525509
0.000523049
0.000520697
0.000518431
0.000516243
0.00051413
0.00051209
0.000510122
0.000508228
0.000506407
0.000504662
0.000502995
0.00050141
0.00049991
0.000498501
0.000497189
0.000495982
0.000494887
0.000493914
0.00049307
0.000492364
0.000491799
0.000491386
0.000490974
0.000490797
0.000490692
0.000489864
0.000488159
0.00048553
0.0004817
0.000476521
0.000469518
0.000461152
0.000451855
0.000441555
0.000430366
0.000418434
0.000405802
0.000392841
0.000379585
0.000366205
0.00035304
0.000340065
0.000327681
0.000315775
0.000304679
0.000294436
0.000285064
0.000276933
0.000269543
0.000263587
0.000258629
0.000254783
0.000252118
0.000250278
0.000249519
0.000249338
0.000249936
0.000250927
0.000252301
0.000253931
0.000255602
0.00025737
0.000259064
0.000260654
0.000262146
0.000263492
0.000264702
0.000265808
0.000266822
0.000267771
0.00026869
0.000269597
0.000270511
0.000271445
0.000272393
0.000273353
0.000274323
0.000275278
0.000276212
0.000277117
0.000277974
0.000278781
0.000279543
0.000280243
0.000280907
0.000281516
0.0002821
0.000282642
0.000283176
0.000283682
0.000284188
0.000284683
0.000285173
0.000285666
0.000286139
0.000286608
0.000287038
0.000287425
0.000287738
0.000287947
0.000288011
0.000287893
0.000287521
0.000286872
0.000285844
0.000284405
0.00028249
0.000280024
0.000276979
0.000273308
0.000268967
0.000263955
0.000258267
0.000251893
0.000244867
0.000237211
0.000228957
0.000220151
0.000210836
0.000201035
0.00019084
0.0001803
0.000169394
0.000158287
0.000147
0.000135521
0.000124158
0.000112783
0.000101632
9.0796e-05
8.03877e-05
7.05639e-05
6.1466e-05
5.30803e-05
4.57965e-05
3.92576e-05
3.40395e-05
2.98517e-05
2.67174e-05
2.49082e-05
2.3884e-05
2.41677e-05
2.50444e-05
2.6898e-05
2.91184e-05
3.17527e-05
3.44912e-05
3.73833e-05
3.96654e-05
4.27588e-05
4.43904e-05
4.53921e-05
4.599e-05
4.6326e-05
4.63126e-05
4.62595e-05
4.58828e-05
4.55541e-05
4.54005e-05
4.52459e-05
4.49706e-05
4.45014e-05
4.37775e-05
4.27614e-05
4.14473e-05
3.98567e-05
3.80291e-05
3.6014e-05
3.38636e-05
3.16295e-05
2.93589e-05
2.70948e-05
2.48747e-05
2.27282e-05
2.06779e-05
1.874e-05
1.69239e-05
1.52315e-05
1.36574e-05
1.21913e-05
1.08152e-05
9.5092e-06
8.2508e-06
7.01754e-06
5.78826e-06
4.54423e-06
3.26746e-06
1.93986e-06
5.51085e-07
0.000560029
0.00055858
0.00055447
0.000549816
0.000545593
0.000541601
0.000537925
0.000534608
0.000531539
0.000528718
0.000526039
0.0005235
0.000521079
0.000518751
0.000516507
0.000514344
0.000512258
0.000510248
0.000508313
0.000506454
0.000504671
0.000502966
0.00050134
0.000499798
0.000498343
0.000496981
0.000495717
0.000494558
0.000493508
0.000492574
0.000491756
0.000491049
0.000490456
0.000489821
0.000489355
0.000488888
0.000487657
0.000485506
0.000482404
0.000478113
0.000472551
0.000465351
0.000456968
0.000447766
0.000437714
0.000426935
0.000415577
0.000403687
0.000391588
0.000379324
0.000367097
0.000355148
0.00034339
0.000332134
0.000321343
0.000311216
0.000301778
0.000293044
0.000285244
0.000278061
0.000271954
0.000266678
0.000262331
0.000259001
0.000256443
0.000254868
0.000253915
0.000253743
0.000254049
0.000254808
0.000255912
0.000257153
0.000258569
0.000259986
0.000261361
0.000262687
0.0002639
0.000264999
0.000266008
0.000266932
0.000267793
0.000268627
0.000269455
0.000270298
0.000271176
0.000272084
0.000273023
0.000273995
0.000274967
0.000275931
0.000276879
0.000277782
0.000278635
0.000279443
0.000280176
0.00028087
0.000281491
0.000282085
0.00028262
0.000283144
0.000283634
0.000284122
0.00028459
0.00028505
0.000285512
0.000285941
0.000286364
0.000286731
0.00028704
0.000287252
0.000287333
0.000287237
0.000286921
0.00028631
0.000285383
0.000284033
0.000282238
0.000279937
0.000277067
0.000273608
0.000269532
0.000264807
0.000259446
0.00025346
0.000246853
0.000239664
0.000231927
0.000223677
0.000214964
0.000205833
0.000196309
0.000186476
0.000176406
0.000166043
0.000155545
0.000144968
0.000134307
0.000123782
0.000113339
0.000103142
9.32798e-05
8.38258e-05
7.4897e-05
6.65834e-05
5.88829e-05
5.20493e-05
4.58643e-05
4.06816e-05
3.63575e-05
3.29067e-05
3.05721e-05
2.89665e-05
2.8525e-05
2.87053e-05
2.98339e-05
3.14301e-05
3.3501e-05
3.57606e-05
3.83188e-05
4.02895e-05
4.31037e-05
4.44725e-05
4.5206e-05
4.55487e-05
4.56588e-05
4.54297e-05
4.52383e-05
4.47802e-05
4.44458e-05
4.43472e-05
4.42631e-05
4.4054e-05
4.36457e-05
4.29774e-05
4.20113e-05
4.0743e-05
3.91963e-05
3.7413e-05
3.54433e-05
3.33396e-05
3.11525e-05
2.89288e-05
2.6711e-05
2.45352e-05
2.24304e-05
2.04189e-05
1.8517e-05
1.67344e-05
1.50735e-05
1.35294e-05
1.20912e-05
1.07417e-05
9.46039e-06
8.22443e-06
7.01057e-06
5.79666e-06
4.5627e-06
3.28898e-06
1.9585e-06
5.51218e-07
0.000555522
0.000554654
0.000551937
0.000548524
0.000545115
0.000541698
0.000538324
0.000535091
0.000532101
0.000529278
0.000526523
0.00052392
0.000521441
0.000519053
0.00051675
0.00051453
0.000512391
0.000510328
0.000508342
0.000506431
0.000504595
0.000502835
0.000501151
0.000499546
0.000498022
0.000496584
0.000495234
0.000493978
0.000492816
0.000491751
0.000490779
0.000489888
0.000489073
0.000488182
0.000487405
0.000486574
0.000484954
0.000482396
0.000478882
0.000474221
0.00046838
0.00046108
0.000452765
0.000443753
0.000434049
0.00042378
0.000413083
0.000402028
0.000390877
0.000379673
0.000368615
0.000357814
0.000347254
0.000337127
0.000327422
0.000318242
0.000309594
0.000301523
0.000294115
0.00028719
0.000281041
0.000275541
0.000270794
0.00026689
0.000263667
0.000261293
0.000259544
0.000258547
0.000258079
0.000258117
0.000258575
0.00025926
0.000260203
0.00026123
0.000262289
0.00026336
0.000264369
0.000265303
0.000266171
0.000266973
0.000267722
0.000268455
0.000269192
0.000269956
0.000270772
0.000271636
0.000272553
0.000273529
0.000274522
0.000275526
0.000276532
0.000277497
0.000278411
0.000279283
0.000280063
0.000280802
0.000281446
0.000282057
0.000282588
0.000283113
0.000283564
0.000284019
0.000284442
0.000284849
0.000285252
0.000285608
0.000285948
0.000286212
0.000286398
0.000286463
0.000286364
0.000286055
0.000285489
0.000284588
0.000283338
0.00028163
0.000279452
0.000276755
0.000273484
0.000269637
0.000265199
0.000260153
0.000254527
0.000248342
0.000241612
0.000234384
0.000226696
0.000218587
0.000210104
0.00020129
0.00019217
0.000182832
0.000173338
0.00016361
0.000153832
0.000144042
0.000134243
0.000124594
0.000115084
0.000105824
9.68882e-05
8.83221e-05
8.02061e-05
7.25931e-05
6.5482e-05
5.9038e-05
5.31264e-05
4.79389e-05
4.34432e-05
3.96567e-05
3.67778e-05
3.45521e-05
3.33368e-05
3.27445e-05
3.30562e-05
3.38711e-05
3.53599e-05
3.69634e-05
3.90741e-05
4.06602e-05
4.31502e-05
4.42386e-05
4.47045e-05
4.48113e-05
4.47358e-05
4.43334e-05
4.40352e-05
4.35098e-05
4.3171e-05
4.31171e-05
4.30822e-05
4.2911e-05
4.25336e-05
4.1894e-05
4.09574e-05
3.9723e-05
3.82185e-05
3.64876e-05
3.45802e-05
3.25468e-05
3.04356e-05
2.82913e-05
2.61533e-05
2.40555e-05
2.20244e-05
2.00809e-05
1.82403e-05
1.65122e-05
1.48991e-05
1.33962e-05
1.19927e-05
1.06722e-05
9.41461e-06
8.19742e-06
6.9979e-06
5.79418e-06
4.56642e-06
3.29476e-06
1.96514e-06
5.49556e-07
0.000552492
0.000551896
0.000549956
0.000547354
0.000544552
0.000541576
0.000538497
0.000535454
0.000532525
0.000529693
0.000526942
0.000524303
0.000521769
0.000519324
0.000516963
0.000514684
0.000512486
0.000510364
0.000508316
0.000506343
0.000504441
0.00050261
0.00050085
0.000499162
0.000497547
0.000496007
0.000494543
0.000493157
0.000491849
0.000490617
0.000489452
0.000488339
0.000487268
0.0004861
0.000484997
0.000483791
0.000481802
0.000478884
0.000475024
0.000470078
0.000464053
0.000456749
0.000448588
0.00043985
0.000430575
0.000420891
0.00041092
0.000400742
0.00039056
0.000380432
0.000370484
0.000360794
0.000351372
0.000342315
0.000333623
0.000325332
0.000317436
0.000310023
0.00030306
0.00029644
0.000290354
0.000284716
0.000279692
0.00027536
0.000271585
0.000268497
0.000266
0.000264194
0.000262932
0.000262196
0.000261929
0.000261963
0.000262326
0.000262856
0.000263495
0.000264218
0.000264941
0.00026564
0.000266313
0.000266951
0.000267557
0.000268166
0.000268796
0.000269469
0.000270212
0.000271025
0.000271913
0.000272888
0.000273902
0.000274949
0.000276015
0.000277052
0.000278038
0.000278987
0.000279826
0.000280622
0.000281297
0.000281928
0.00028245
0.000282959
0.000283372
0.000283777
0.000284131
0.000284455
0.000284763
0.000285003
0.000285213
0.000285324
0.000285333
0.000285194
0.000284858
0.00028428
0.000283411
0.000282176
0.000280566
0.00027848
0.000275915
0.000272836
0.0002692
0.00026502
0.000260295
0.000255023
0.000249241
0.000242978
0.000236256
0.000229123
0.000221618
0.000213779
0.00020565
0.000197266
0.00018865
0.000179929
0.000171034
0.000162025
0.000153026
0.000144041
0.000135097
0.000126311
0.00011769
0.000109306
0.000101216
9.34452e-05
8.60436e-05
7.90379e-05
7.24201e-05
6.632e-05
6.06273e-05
5.54058e-05
5.07325e-05
4.66274e-05
4.32269e-05
4.03874e-05
3.83998e-05
3.70068e-05
3.64607e-05
3.64373e-05
3.72019e-05
3.80737e-05
3.96343e-05
4.076e-05
4.28578e-05
4.36537e-05
4.38671e-05
4.37737e-05
4.35629e-05
4.30402e-05
4.26625e-05
4.20889e-05
4.1741e-05
4.16977e-05
4.16634e-05
4.14777e-05
4.10819e-05
4.04301e-05
3.94946e-05
3.82805e-05
3.68199e-05
3.51585e-05
3.33433e-05
3.14192e-05
2.94291e-05
2.74125e-05
2.54039e-05
2.34315e-05
2.15178e-05
1.96804e-05
1.79324e-05
1.62831e-05
1.47348e-05
1.32833e-05
1.19182e-05
1.06249e-05
9.3848e-06
8.17764e-06
6.98281e-06
5.78046e-06
4.55281e-06
3.2815e-06
1.95731e-06
5.39736e-07
0.000550477
0.000550012
0.000548503
0.00054641
0.000544032
0.000541382
0.000538543
0.00053566
0.000532809
0.000530007
0.000527265
0.000524603
0.000522027
0.000519535
0.000517122
0.000514788
0.000512531
0.000510347
0.000508234
0.00050619
0.000504213
0.000502301
0.000500452
0.000498665
0.000496939
0.000495276
0.000493674
0.000492132
0.000490647
0.000489216
0.000487828
0.000486463
0.000485108
0.000483648
0.000482205
0.000480615
0.000478278
0.000475047
0.000470909
0.000465761
0.00045964
0.00045242
0.000444491
0.000436096
0.000427313
0.000418265
0.000409057
0.000399767
0.000390549
0.000381457
0.000372567
0.000363929
0.000355558
0.000347486
0.000339719
0.000332255
0.000325094
0.000318252
0.000311692
0.000305502
0.000299593
0.00029387
0.000288673
0.000284078
0.000279894
0.000276217
0.000273073
0.000270529
0.000268509
0.000267006
0.000265985
0.000265316
0.000265025
0.000264971
0.000265097
0.000265378
0.000265728
0.000266114
0.000266524
0.000266942
0.00026736
0.000267809
0.000268303
0.00026886
0.000269511
0.000270254
0.000271093
0.000272049
0.000273066
0.000274139
0.000275253
0.000276353
0.000277405
0.000278428
0.000279327
0.000280178
0.000280883
0.000281534
0.000282047
0.000282523
0.000282879
0.00028321
0.000283466
0.000283672
0.000283842
0.000283922
0.000283951
0.000283856
0.000283632
0.000283234
0.000282609
0.000281716
0.000280505
0.00027891
0.000276929
0.000274472
0.000271548
0.000268134
0.000264202
0.000259777
0.000254872
0.000249496
0.00024369
0.000237483
0.000230903
0.000223998
0.000216803
0.000209352
0.000201682
0.000193826
0.000185817
0.000177701
0.000169462
0.000161212
0.000152982
0.000144785
0.000136661
0.000128689
0.000120885
0.000113294
0.000105953
9.88777e-05
9.20908e-05
8.56013e-05
7.93872e-05
7.35943e-05
6.80992e-05
6.282e-05
5.79767e-05
5.35918e-05
4.97183e-05
4.63053e-05
4.35829e-05
4.14001e-05
3.99851e-05
3.91111e-05
3.89954e-05
3.91408e-05
4.00217e-05
4.06356e-05
4.22647e-05
4.27584e-05
4.27388e-05
4.24797e-05
4.21714e-05
4.15732e-05
4.11287e-05
4.05192e-05
4.01479e-05
4.00649e-05
3.99659e-05
3.97005e-05
3.9228e-05
3.85186e-05
3.75579e-05
3.63572e-05
3.49523e-05
3.33881e-05
3.1705e-05
2.9939e-05
2.8125e-05
2.62936e-05
2.4472e-05
2.26791e-05
2.09313e-05
1.92403e-05
1.76168e-05
1.60698e-05
1.46019e-05
1.3209e-05
1.18827e-05
1.06112e-05
9.37921e-06
8.17047e-06
6.96835e-06
5.75698e-06
4.52252e-06
3.24977e-06
1.93589e-06
5.18567e-07
0.000549221
0.000548821
0.000547545
0.00054575
0.000543638
0.000541204
0.00053853
0.00053576
0.000532976
0.000530205
0.00052747
0.000524794
0.000522191
0.000519661
0.000517205
0.000514822
0.00051251
0.000510267
0.000508089
0.000505973
0.000503916
0.000501919
0.000499974
0.000498076
0.000496228
0.000494427
0.000492669
0.000490951
0.000489269
0.000487619
0.000485986
0.000484346
0.000482687
0.000480922
0.000479131
0.000477152
0.000474487
0.00047099
0.000466635
0.000461358
0.000455217
0.000448157
0.000440521
0.000432525
0.000424278
0.000415898
0.000407467
0.000399059
0.000390776
0.000382665
0.000374767
0.000367103
0.000359683
0.000352501
0.000345566
0.00033885
0.00033235
0.000326063
0.000319951
0.000314091
0.000308411
0.000302825
0.00029755
0.000292755
0.000288265
0.000284168
0.000280531
0.000277364
0.000274673
0.000272464
0.000270714
0.00026934
0.000268365
0.000267677
0.000267222
0.000266981
0.000266878
0.000266872
0.000266946
0.000267076
0.000267243
0.000267478
0.000267789
0.00026819
0.000268708
0.000269342
0.000270095
0.00027099
0.000271967
0.000273027
0.000274148
0.000275273
0.000276359
0.000277428
0.000278365
0.000279252
0.000279972
0.000280623
0.000281108
0.000281541
0.00028182
0.000282053
0.000282181
0.000282237
0.000282231
0.00028211
0.000281913
0.000281569
0.000281067
0.000280371
0.000279423
0.000278191
0.000276628
0.000274682
0.000272353
0.000269572
0.000266352
0.000262685
0.000258559
0.000254008
0.000249058
0.000243721
0.000238028
0.000232011
0.000225705
0.000219149
0.000212372
0.0002054
0.000198264
0.000190994
0.000183623
0.000176114
0.000168584
0.000161062
0.000153564
0.000146113
0.000138747
0.000131516
0.000124441
0.000117548
0.000110857
0.000104379
9.8114e-05
9.20661e-05
8.62253e-05
8.06269e-05
7.52551e-05
7.00217e-05
6.50367e-05
6.03842e-05
5.60949e-05
5.21765e-05
4.87855e-05
4.5853e-05
4.35881e-05
4.18537e-05
4.08186e-05
4.02339e-05
4.03483e-05
4.03883e-05
4.14577e-05
4.16342e-05
4.13942e-05
4.09885e-05
4.05932e-05
3.99451e-05
3.94324e-05
3.87834e-05
3.83644e-05
3.8191e-05
3.7973e-05
3.75763e-05
3.69804e-05
3.61749e-05
3.51632e-05
3.39698e-05
3.26423e-05
3.12179e-05
2.97162e-05
2.8158e-05
2.65733e-05
2.49804e-05
2.33994e-05
2.18355e-05
2.02976e-05
1.87869e-05
1.7312e-05
1.58857e-05
1.45095e-05
1.3179e-05
1.1889e-05
1.06321e-05
9.39821e-06
8.17652e-06
6.9561e-06
5.72661e-06
4.47986e-06
3.20499e-06
1.90474e-06
4.88781e-07
0.000548598
0.000548226
0.000547056
0.000545401
0.000543419
0.000541093
0.000538504
0.000535793
0.000533044
0.000530289
0.000527555
0.000524868
0.000522243
0.000519684
0.000517193
0.000514769
0.000512411
0.000510114
0.000507876
0.000505691
0.000503555
0.000501476
0.000499436
0.000497422
0.000495446
0.000493501
0.000491578
0.000489672
0.000487781
0.000485902
0.000484017
0.00048209
0.000480109
0.00047803
0.000475886
0.000473522
0.000470548
0.00046682
0.000462301
0.000456956
0.000450856
0.00044401
0.00043671
0.000429154
0.000421476
0.000413779
0.000406124
0.000398574
0.000391185
0.000383992
0.000377005
0.000370223
0.000363653
0.000357261
0.000351062
0.000345009
0.0003391
0.000333328
0.000327638
0.000322103
0.000316639
0.000311291
0.000306113
0.000301204
0.000296494
0.000292117
0.000288135
0.000284479
0.000281235
0.000278425
0.000276015
0.000273977
0.000272342
0.000271012
0.000269944
0.000269132
0.000268519
0.000268052
0.000267721
0.000267501
0.000267341
0.000267291
0.000267354
0.000267536
0.000267861
0.000268326
0.000268929
0.000269694
0.000270564
0.000271539
0.000272594
0.000273677
0.000274734
0.000275787
0.000276713
0.000277589
0.00027829
0.000278911
0.000279345
0.000279708
0.00027989
0.000280003
0.000279982
0.000279864
0.000279656
0.00027931
0.00027886
0.000278244
0.000277446
0.000276437
0.000275161
0.000273599
0.000271709
0.000269458
0.000266851
0.000263836
0.000260425
0.000256619
0.000252426
0.000247887
0.00024304
0.00023789
0.000232442
0.000226737
0.000220817
0.000214709
0.000208428
0.000201993
0.000195429
0.000188757
0.000181994
0.000175152
0.000168298
0.000161452
0.000154628
0.000147857
0.00014117
0.000134596
0.000128156
0.000121864
0.000115726
0.000109753
0.000103927
9.82503e-05
9.2708e-05
8.72943e-05
8.20163e-05
7.68165e-05
7.17642e-05
6.6901e-05
6.22299e-05
5.78868e-05
5.39091e-05
5.02864e-05
4.72269e-05
4.46573e-05
4.27005e-05
4.13448e-05
4.06756e-05
4.01003e-05
4.05234e-05
4.03579e-05
3.98962e-05
3.93437e-05
3.88392e-05
3.81467e-05
3.75708e-05
3.69024e-05
3.64083e-05
3.60794e-05
3.56893e-05
3.51541e-05
3.44572e-05
3.35639e-05
3.24712e-05
3.12396e-05
2.99833e-05
2.87419e-05
2.74802e-05
2.61805e-05
2.48601e-05
2.35551e-05
2.22533e-05
2.09529e-05
1.96574e-05
1.83472e-05
1.70306e-05
1.57313e-05
1.44517e-05
1.31846e-05
1.19282e-05
1.06795e-05
9.43491e-06
8.19094e-06
6.94374e-06
5.68971e-06
4.42837e-06
3.15401e-06
1.86578e-06
4.55051e-07
0.000548552
0.000548183
0.000547022
0.000545374
0.000543399
0.000541077
0.00053849
0.000535779
0.000533026
0.000530264
0.000527521
0.000524821
0.000522178
0.000519598
0.00051708
0.000514624
0.000512228
0.000509886
0.000507596
0.000505351
0.000503146
0.000500979
0.000498844
0.000496729
0.00049463
0.00049254
0.00049045
0.000488352
0.000486243
0.000484138
0.000482012
0.000479797
0.000477487
0.000475084
0.000472586
0.000469845
0.000466576
0.000462643
0.000457996
0.000452627
0.000446612
0.000440018
0.000433079
0.000425991
0.000418902
0.000411893
0.000404999
0.000398273
0.000391724
0.000385376
0.000379211
0.000373216
0.00036739
0.000361688
0.000356126
0.000350653
0.000345264
0.000339956
0.000334659
0.000329465
0.000324254
0.000319129
0.000314067
0.000309154
0.000304411
0.000299897
0.000295634
0.000291609
0.000287958
0.000284681
0.000281708
0.00027908
0.000276859
0.000274924
0.00027325
0.00027185
0.000270693
0.00026973
0.000268943
0.000268331
0.000267773
0.000267361
0.000267097
0.000266975
0.000267029
0.000267248
0.00026762
0.000268165
0.000268831
0.000269623
0.000270512
0.000271454
0.00027239
0.000273337
0.000274174
0.000274968
0.000275595
0.000276137
0.000276488
0.00027675
0.000276818
0.000276792
0.00027661
0.00027631
0.000275892
0.000275323
0.000274624
0.000273749
0.000272674
0.000271376
0.000269808
0.000267962
0.000265804
0.000263321
0.000260526
0.000257392
0.000253929
0.000250141
0.000246049
0.000241685
0.000237085
0.000232248
0.000227146
0.000221836
0.000216387
0.000210789
0.000205042
0.000199163
0.000193171
0.000187085
0.000180921
0.000174703
0.000168463
0.000162231
0.000156013
0.000149846
0.000143752
0.000137747
0.000131847
0.000126066
0.000120391
0.00011484
0.000109376
0.000104009
9.87115e-05
9.34667e-05
8.82854e-05
8.31153e-05
7.79937e-05
7.29831e-05
6.80635e-05
6.33728e-05
5.88288e-05
5.46019e-05
5.08348e-05
4.74775e-05
4.46396e-05
4.24256e-05
4.10006e-05
3.97885e-05
3.9511e-05
3.89696e-05
3.82685e-05
3.75622e-05
3.69367e-05
3.6187e-05
3.55241e-05
3.48837e-05
3.43928e-05
3.38486e-05
3.3153e-05
3.24761e-05
3.17015e-05
3.07113e-05
2.96015e-05
2.84587e-05
2.73476e-05
2.62646e-05
2.51887e-05
2.41407e-05
2.31212e-05
2.21182e-05
2.11076e-05
2.00771e-05
1.90247e-05
1.79148e-05
1.67776e-05
1.56138e-05
1.44239e-05
1.32113e-05
1.19805e-05
1.07344e-05
9.47584e-06
8.20797e-06
6.93312e-06
5.65283e-06
4.37792e-06
3.10657e-06
1.83279e-06
4.32049e-07
0.000549083
0.000548693
0.000547444
0.000545675
0.000543582
0.000541161
0.000538495
0.000535723
0.000532925
0.000530133
0.000527369
0.000524653
0.000521996
0.000519401
0.000516866
0.000514389
0.000511965
0.00050959
0.000507257
0.000504962
0.000502695
0.00050045
0.000498231
0.000496027
0.000493815
0.00049159
0.000489343
0.000487067
0.000484763
0.000482423
0.000480016
0.000477512
0.00047491
0.000472201
0.000469346
0.000466235
0.000462679
0.00045855
0.000453795
0.000448429
0.000442528
0.000436211
0.000429639
0.000423033
0.000416544
0.00041022
0.000404064
0.000398118
0.000392345
0.000386761
0.000381325
0.000376015
0.00037083
0.000365719
0.0003607
0.000355724
0.000350784
0.000345885
0.000340946
0.000336075
0.000331127
0.000326228
0.000321332
0.000316508
0.00031179
0.000307194
0.000302783
0.000298571
0.000294636
0.000290982
0.000287528
0.00028443
0.000281728
0.000279264
0.000277028
0.000275057
0.000273362
0.000271892
0.000270619
0.000269533
0.000268583
0.00026777
0.000267106
0.00026658
0.000266269
0.000266156
0.000266215
0.000266444
0.000266798
0.00026729
0.000267895
0.000268579
0.000269283
0.000270012
0.000270666
0.000271288
0.000271772
0.000272173
0.000272403
0.000272532
0.000272474
0.000272303
0.000271964
0.000271489
0.000270875
0.0002701
0.000269178
0.000268082
0.000266794
0.000265286
0.000263528
0.000261517
0.000259248
0.000256701
0.000253853
0.000250669
0.00024721
0.000243558
0.000239724
0.000235685
0.000231425
0.000226972
0.00022233
0.000217505
0.000212545
0.000207458
0.000202239
0.000196898
0.00019145
0.000185912
0.000180299
0.000174636
0.00016894
0.00016325
0.000157562
0.000151917
0.000146328
0.000140804
0.000135357
0.000130001
0.000124709
0.000119507
0.000114342
0.000109234
0.000104141
9.90486e-05
9.39622e-05
8.88363e-05
8.36845e-05
7.85764e-05
7.34448e-05
6.84314e-05
6.34764e-05
5.87789e-05
5.43374e-05
5.02099e-05
4.65473e-05
4.35025e-05
4.12398e-05
3.9401e-05
3.84266e-05
3.74661e-05
3.64995e-05
3.56196e-05
3.49025e-05
3.41239e-05
3.32765e-05
3.25989e-05
3.21237e-05
3.14989e-05
3.07306e-05
2.99067e-05
2.89786e-05
2.79301e-05
2.68433e-05
2.5784e-05
2.47928e-05
2.38788e-05
2.30343e-05
2.22536e-05
2.1514e-05
2.07882e-05
2.00459e-05
1.92653e-05
1.84371e-05
1.75232e-05
1.65428e-05
1.54975e-05
1.4389e-05
1.32259e-05
1.20175e-05
1.07735e-05
9.50336e-06
8.21676e-06
6.92282e-06
5.63008e-06
4.34899e-06
3.08108e-06
1.84598e-06
4.53666e-07
0.000550247
0.000549802
0.000548347
0.000546303
0.000543956
0.000541328
0.000538499
0.000535608
0.000532731
0.000529891
0.0005271
0.000524369
0.000521705
0.000519105
0.000516564
0.000514077
0.000511638
0.000509241
0.00050688
0.000504546
0.000502232
0.00049993
0.000497635
0.000495336
0.00049302
0.000490676
0.000488293
0.000485861
0.000483371
0.000480808
0.000478153
0.000475385
0.000472499
0.000469483
0.000466269
0.000462798
0.000458954
0.000454624
0.000449761
0.000444403
0.000438612
0.000432583
0.000426408
0.000420279
0.000414394
0.000408742
0.000403293
0.000398074
0.000393006