/*--------------------------------*- C++ -*----------------------------------*\
| =========                 |                                                 |
| \\      /  F ield         | OpenFOAM: The Open Source CFD Toolbox           |
|  \\    /   O peration     | Version:  2506                                  |
|   \\  /    A nd           | Website:  www.openfoam.com                      |
|    \\/     M anipulation  |                                                 |
\*---------------------------------------------------------------------------*/
FoamFile
{
    version     2.0;
    format      ascii;
    arch        "LSB;label=32;scalar=64";
    class       surfaceScalarField;
    location    "2.3";
    object      phi;
}
// * * * * * * * * * * * * * * * * * * * * * * * * * * * * * * * * * * * * * //

dimensions      [0 3 -1 0 0 0 0];

oriented        oriented;

internalField   nonuniform List<scalar> 
7780
(
5.29953e-10
-5.29953e-10
9.7418e-10
-4.44227e-10
1.26253e-09
-2.88347e-10
1.46738e-09
-2.0485e-10
1.61664e-09
-1.49259e-10
1.72519e-09
-1.08554e-10
1.80644e-09
-8.12525e-11
1.8699e-09
-6.34597e-11
1.92115e-09
-5.12458e-11
1.96374e-09
-4.25888e-11
1.99978e-09
-3.6048e-11
2.03063e-09
-3.08412e-11
2.0571e-09
-2.64708e-11
2.07979e-09
-2.26909e-11
2.09931e-09
-1.95254e-11
2.11605e-09
-1.67366e-11
2.13032e-09
-1.42688e-11
2.14226e-09
-1.19459e-11
2.15197e-09
-9.70125e-12
2.15966e-09
-7.69031e-12
2.16536e-09
-5.70448e-12
2.16916e-09
-3.79617e-12
2.1711e-09
-1.94557e-12
2.17134e-09
-2.35556e-13
2.16994e-09
1.40001e-12
2.16695e-09
2.98552e-12
2.16233e-09
4.62408e-12
2.15632e-09
6.00848e-12
2.14904e-09
7.28421e-12
2.14079e-09
8.2408e-12
2.12938e-09
-1.91686e-11
2.10316e-09
-1.89459e-10
2.05189e-09
-3.97911e-10
1.96998e-09
-5.77505e-10
1.85809e-09
-7.26187e-10
1.73086e-09
-8.61901e-10
1.60449e-09
-9.97154e-10
1.4601e-09
-1.17643e-09
1.3079e-09
-1.29327e-09
1.18312e-09
-1.35087e-09
1.08717e-09
-1.40045e-09
1.0195e-09
-1.44213e-09
9.74306e-10
-1.47259e-09
9.47403e-10
-1.49376e-09
9.35785e-10
-1.50699e-09
9.35966e-10
-1.51167e-09
9.46253e-10
-1.50716e-09
9.62778e-10
-1.49353e-09
9.82294e-10
-1.46956e-09
1.00147e-09
-1.43391e-09
1.01877e-09
-1.38391e-09
1.03769e-09
-1.31646e-09
1.0558e-09
-1.23668e-09
1.08242e-09
-1.1297e-09
1.12431e-09
-9.99405e-10
1.19449e-09
-8.27411e-10
1.29607e-09
-6.22106e-10
1.42617e-09
-3.49062e-10
1.56143e-09
-2.9623e-11
1.67034e-09
2.96914e-10
1.73592e-09
5.99504e-10
1.75834e-09
8.74592e-10
1.76057e-09
1.04415e-09
1.75469e-09
1.18915e-09
1.75077e-09
1.27339e-09
1.75185e-09
1.34085e-09
1.75795e-09
1.39267e-09
1.77022e-09
1.42544e-09
1.78648e-09
1.45144e-09
1.80491e-09
1.47169e-09
1.8249e-09
1.48691e-09
1.84597e-09
1.49543e-09
1.8678e-09
1.49864e-09
1.89016e-09
1.4971e-09
1.91289e-09
1.49072e-09
1.93599e-09
1.47908e-09
1.95942e-09
1.46152e-09
1.98348e-09
1.43315e-09
2.00781e-09
1.39926e-09
2.03222e-09
1.3558e-09
2.05721e-09
1.29879e-09
2.08259e-09
1.2116e-09
2.10765e-09
1.1164e-09
2.13265e-09
9.71857e-10
2.15673e-09
8.0363e-10
2.18053e-09
5.5405e-10
2.2037e-09
2.79715e-10
2.22646e-09
-2.84051e-11
2.25097e-09
-3.51585e-10
2.27491e-09
-6.35604e-10
2.29398e-09
-8.4803e-10
2.30519e-09
-1.02802e-09
2.30156e-09
-1.13871e-09
2.28425e-09
-1.23561e-09
2.25254e-09
-1.29236e-09
2.21227e-09
-1.34074e-09
2.17094e-09
-1.3885e-09
2.13224e-09
-1.42268e-09
2.10098e-09
-1.45398e-09
2.07919e-09
-1.4807e-09
2.06641e-09
-1.50111e-09
2.05994e-09
-1.51353e-09
2.05586e-09
-1.51628e-09
2.04986e-09
-1.50944e-09
2.03844e-09
-1.49386e-09
2.02034e-09
-1.47138e-09
1.99618e-09
-1.44316e-09
1.96627e-09
-1.40547e-09
1.93156e-09
-1.35632e-09
1.89557e-09
-1.30207e-09
1.86282e-09
-1.23774e-09
1.83132e-09
-1.13175e-09
1.80818e-09
-1.02504e-09
1.78889e-09
-8.47241e-10
1.77933e-09
-6.50559e-10
1.77369e-09
-3.81478e-10
1.76977e-09
-6.46231e-11
1.76241e-09
2.50146e-10
1.74882e-09
5.40062e-10
1.72407e-09
8.0914e-10
1.69938e-09
9.9133e-10
1.67391e-09
1.14103e-09
1.65586e-09
1.23777e-09
1.64204e-09
1.32402e-09
1.6381e-09
1.37277e-09
1.64067e-09
1.41242e-09
1.64848e-09
1.4452e-09
1.66075e-09
1.46815e-09
1.67659e-09
1.48307e-09
1.69518e-09
1.49288e-09
1.71589e-09
1.49794e-09
1.73849e-09
1.49817e-09
1.76282e-09
1.49346e-09
1.78884e-09
1.48244e-09
1.81687e-09
1.46586e-09
1.84657e-09
1.44336e-09
1.87831e-09
1.41328e-09
1.91227e-09
1.37452e-09
1.94877e-09
1.31487e-09
1.98756e-09
1.24779e-09
2.02818e-09
1.1632e-09
2.07141e-09
1.03045e-09
2.11522e-09
8.87614e-10
2.15975e-09
6.69337e-10
2.20423e-09
4.1719e-10
2.24774e-09
1.24507e-10
2.29165e-09
-1.99678e-10
2.33463e-09
-5.09261e-10
2.37283e-09
-7.52004e-10
2.40201e-09
-9.50186e-10
2.41795e-09
-1.09511e-09
2.41666e-09
-1.19603e-09
2.39793e-09
-1.26328e-09
2.36881e-09
-1.32817e-09
2.33302e-09
-1.36963e-09
2.29702e-09
-1.40703e-09
2.26546e-09
-1.44033e-09
2.24237e-09
-1.47172e-09
2.22877e-09
-1.49554e-09
2.21759e-09
-1.50626e-09
2.21085e-09
-1.51391e-09
2.23186e-09
-1.53991e-09
2.3136e-09
-1.59384e-09
2.32847e-09
-1.23694e-09
2.31417e-09
-1.05723e-09
2.28792e-09
-9.19041e-10
2.24723e-09
-7.37504e-10
2.20413e-09
-5.48479e-10
2.15531e-09
-3.24813e-10
2.10072e-09
-9.10227e-11
2.05745e-09
3.71712e-11
2.04196e-09
1.54964e-11
2.03948e-09
2.47998e-12
2.04224e-09
-2.75976e-12
2.04655e-09
-4.31348e-12
2.05041e-09
-3.85481e-12
2.0531e-09
-2.69918e-12
2.05468e-09
-1.57754e-12
2.05542e-09
-7.40077e-13
2.05566e-09
-2.42344e-13
2.05572e-09
-5.0888e-14
2.05576e-09
-4.92422e-14
2.05579e-09
-2.8058e-14
2.05564e-09
1.54074e-13
2.05505e-09
5.88349e-13
2.05375e-09
1.2998e-12
2.05126e-09
2.49156e-12
2.04706e-09
4.20031e-12
2.04057e-09
6.49148e-12
2.03101e-09
9.55198e-12
2.01733e-09
1.36829e-11
1.99792e-09
1.94141e-11
1.9702e-09
2.7718e-11
1.92954e-09
4.06637e-11
1.86708e-09
6.24515e-11
1.7663e-09
1.00782e-10
1.59709e-09
1.6921e-10
1.2974e-09
2.99692e-10
7.43967e-10
5.53433e-10
7.43967e-10
-4.78256e-12
-5.2517e-10
1.93294e-10
-6.42304e-10
4.56171e-10
-5.51224e-10
6.98289e-10
-4.46968e-10
9.06865e-10
-3.57835e-10
1.08301e-09
-2.847e-10
1.23021e-09
-2.28451e-10
1.35312e-09
-1.86373e-10
1.45638e-09
-1.54501e-10
1.54362e-09
-1.29826e-10
1.61775e-09
-1.10182e-10
1.68101e-09
-9.40982e-11
1.73509e-09
-8.05578e-11
1.78129e-09
-6.88823e-11
1.82044e-09
-5.86782e-11
1.8533e-09
-4.95966e-11
1.88043e-09
-4.14006e-11
1.90232e-09
-3.3835e-11
1.91934e-09
-2.67218e-11
1.93181e-09
-2.01645e-11
1.94003e-09
-1.3918e-11
1.94424e-09
-8.01281e-12
1.94474e-09
-2.43847e-12
1.94164e-09
2.85735e-12
1.9353e-09
7.74444e-12
1.92613e-09
1.21594e-11
1.91461e-09
1.61443e-11
1.90123e-09
1.93878e-11
1.88666e-09
2.18468e-11
1.87148e-09
2.34223e-11
1.85084e-09
1.47416e-12
1.79444e-09
-1.33062e-10
1.69456e-09
-2.9803e-10
1.55938e-09
-4.4232e-10
1.40169e-09
-5.68504e-10
1.24136e-09
-7.01565e-10
1.09221e-09
-8.48009e-10
9.3747e-10
-1.02168e-09
7.9173e-10
-1.14752e-09
6.79846e-10
-1.23898e-09
6.00431e-10
-1.32103e-09
5.48873e-10
-1.39057e-09
5.20877e-10
-1.44459e-09
5.13103e-10
-1.48599e-09
5.21302e-10
-1.51518e-09
5.40985e-10
-1.53135e-09
5.68503e-10
-1.53468e-09
5.99418e-10
-1.52445e-09
6.30362e-10
-1.50051e-09
6.58128e-10
-1.46168e-09
6.8187e-10
-1.40766e-09
7.04034e-10
-1.33862e-09
7.24481e-10
-1.25713e-09
7.52519e-10
-1.15774e-09
7.9711e-10
-1.04399e-09
8.74147e-10
-9.04447e-10
9.94942e-10
-7.429e-10
1.17287e-09
-5.26994e-10
1.40001e-09
-2.5676e-10
1.6404e-09
5.65166e-11
1.85564e-09
3.84249e-10
2.01461e-09
7.156e-10
2.10169e-09
9.57059e-10
2.12506e-09
1.16578e-09
2.11361e-09
1.28488e-09
2.08639e-09
1.36813e-09
2.05517e-09
1.42395e-09
2.03045e-09
1.45021e-09
2.01473e-09
1.46716e-09
2.00742e-09
1.47899e-09
2.00731e-09
1.48698e-09
2.01292e-09
1.48979e-09
2.02303e-09
1.48851e-09
2.03665e-09
1.48347e-09
2.05291e-09
1.47444e-09
2.07132e-09
1.46065e-09
2.09158e-09
1.44124e-09
2.11397e-09
1.41076e-09
2.13803e-09
1.37519e-09
2.16341e-09
1.33042e-09
2.19081e-09
1.2714e-09
2.22033e-09
1.18208e-09
2.25157e-09
1.08517e-09
2.28502e-09
9.38423e-10
2.32017e-09
7.68485e-10
2.35747e-09
5.16752e-10
2.39581e-09
2.4138e-10
2.43213e-09
-6.47252e-11
2.46485e-09
-3.84312e-10
2.48708e-09
-6.57831e-10
2.49433e-09
-8.55289e-10
2.48363e-09
-1.01732e-09
2.45522e-09
-1.11031e-09
2.41396e-09
-1.19435e-09
2.3663e-09
-1.24471e-09
2.31931e-09
-1.29374e-09
2.28052e-09
-1.3497e-09
2.25372e-09
-1.39586e-09
2.24045e-09
-1.44069e-09
2.23825e-09
-1.47848e-09
2.24217e-09
-1.50503e-09
2.24636e-09
-1.51774e-09
2.24514e-09
-1.5151e-09
2.23377e-09
-1.4981e-09
2.21102e-09
-1.47113e-09
2.17924e-09
-1.4396e-09
2.14091e-09
-1.4048e-09
2.09794e-09
-1.36247e-09
2.05348e-09
-1.31184e-09
2.01087e-09
-1.25944e-09
1.97266e-09
-1.19953e-09
1.93998e-09
-1.09908e-09
1.91572e-09
-1.0008e-09
1.90211e-09
-8.33648e-10
1.90397e-09
-6.52424e-10
1.92523e-09
-4.02743e-10
1.9679e-09
-1.07288e-10
2.0256e-09
1.92448e-10
2.08454e-09
4.81109e-10
2.12128e-09
7.724e-10
2.12795e-09
9.84654e-10
2.10556e-09
1.16343e-09
2.0676e-09
1.27572e-09
2.01917e-09
1.37247e-09
1.97523e-09
1.41673e-09
1.93868e-09
1.44899e-09
1.91225e-09
1.47164e-09
1.89594e-09
1.48446e-09
1.88891e-09
1.49009e-09
1.88976e-09
1.49202e-09
1.89685e-09
1.49084e-09
1.90907e-09
1.48595e-09
1.9255e-09
1.47702e-09
1.94567e-09
1.46226e-09
1.96968e-09
1.44184e-09
1.99684e-09
1.41619e-09
2.02744e-09
1.38268e-09
2.06169e-09
1.34027e-09
2.10018e-09
1.27638e-09
2.14282e-09
1.20515e-09
2.18923e-09
1.11679e-09
2.2408e-09
9.78882e-10
2.29598e-09
8.32444e-10
2.35497e-09
6.10348e-10
2.41681e-09
3.5535e-10
2.47768e-09
6.36332e-11
2.53492e-09
-2.56913e-10
2.58127e-09
-5.55615e-10
2.6106e-09
-7.81341e-10
2.61817e-09
-9.57763e-10
2.60463e-09
-1.08157e-09
2.57355e-09
-1.16495e-09
2.5331e-09
-1.22283e-09
2.49162e-09
-1.28669e-09
2.45574e-09
-1.33374e-09
2.43144e-09
-1.38271e-09
2.42136e-09
-1.43022e-09
2.42595e-09
-1.47628e-09
2.44384e-09
-1.51339e-09
2.46538e-09
-1.52777e-09
2.49047e-09
-1.539e-09
2.52898e-09
-1.57844e-09
2.5695e-09
-1.63439e-09
2.56222e-09
-1.22971e-09
2.53505e-09
-1.03008e-09
2.5022e-09
-8.86195e-10
2.46402e-09
-6.99323e-10
2.43074e-09
-5.15202e-10
2.40154e-09
-2.9561e-10
2.37502e-09
-6.45024e-11
2.35441e-09
5.77826e-11
2.34486e-09
2.50474e-11
2.34291e-09
4.43522e-12
2.34403e-09
-3.88054e-12
2.34502e-09
-5.30645e-12
2.34416e-09
-2.99585e-12
2.34062e-09
8.43918e-13
2.33444e-09
4.60118e-12
2.32612e-09
7.58152e-12
2.31636e-09
9.51538e-12
2.30575e-09
1.05554e-11
2.2947e-09
1.10015e-11
2.28338e-09
1.12973e-11
2.27159e-09
1.19405e-11
2.2588e-09
1.3375e-11
2.24424e-09
1.5866e-11
2.22713e-09
1.96047e-11
2.20646e-09
2.48669e-11
2.18095e-09
3.20007e-11
2.14901e-09
4.14867e-11
2.10852e-09
5.41745e-11
2.05635e-09
7.15847e-11
1.98743e-09
9.66412e-11
1.89312e-09
1.34973e-10
1.75841e-09
1.97157e-10
1.55775e-09
3.01451e-10
1.2501e-09
4.76854e-10
7.92018e-10
7.57776e-10
2.42446e-10
1.103e-09
9.86413e-10
-1.07183e-10
-4.17987e-10
-9.09247e-11
-6.58562e-10
1.98769e-11
-6.62026e-10
1.69269e-10
-5.9636e-10
3.2462e-10
-5.13185e-10
4.73871e-10
-4.33952e-10
6.11364e-10
-3.65944e-10
7.34973e-10
-3.09982e-10
8.44722e-10
-2.64251e-10
9.4149e-10
-2.26594e-10
1.02644e-09
-1.95133e-10
1.10075e-09
-1.68406e-10
1.16549e-09
-1.45299e-10
1.22159e-09
-1.24986e-10
1.2698e-09
-1.06884e-10
1.31074e-09
-9.05383e-11
1.34494e-09
-7.56049e-11
1.3729e-09
-6.17885e-11
1.39505e-09
-4.88748e-11
1.41168e-09
-3.67952e-11
1.42318e-09
-2.542e-11
1.42989e-09
-1.47154e-11
1.43214e-09
-4.68727e-12
1.43037e-09
4.6257e-12
1.42502e-09
1.3095e-11
1.41662e-09
2.05553e-11
1.40596e-09
2.68038e-11
1.39382e-09
3.15267e-11
1.38147e-09
3.41951e-11
1.37042e-09
3.44797e-11
1.35522e-09
1.66714e-11
1.30373e-09
-8.15683e-11
1.21225e-09
-2.06552e-10
1.09563e-09
-3.25705e-10
9.69533e-10
-4.42408e-10
8.48337e-10
-5.80371e-10
7.38981e-10
-7.38655e-10
6.28022e-10
-9.10722e-10
5.28472e-10
-1.04797e-09
4.55352e-10
-1.16586e-09
4.06658e-10
-1.27233e-09
3.78667e-10
-1.36258e-09
3.69471e-10
-1.43539e-09
3.76121e-10
-1.49264e-09
3.94427e-10
-1.53348e-09
4.20429e-10
-1.55734e-09
4.50923e-10
-1.56516e-09
4.82081e-10
-1.55561e-09
5.09878e-10
-1.52832e-09
5.3159e-10
-1.48341e-09
5.47076e-10
-1.42315e-09
5.57966e-10
-1.34952e-09
5.65477e-10
-1.26464e-09
5.76758e-10
-1.16901e-09
5.99196e-10
-1.06643e-09
6.45389e-10
-9.50639e-10
7.26815e-10
-8.24325e-10
8.61977e-10
-6.62158e-10
1.06207e-09
-4.56855e-10
1.32259e-09
-2.04015e-10
1.61541e-09
9.14181e-11
1.89498e-09
4.36022e-10
2.12315e-09
7.28902e-10
2.28108e-09
1.00787e-09
2.36282e-09
1.2032e-09
2.38314e-09
1.34786e-09
2.36535e-09
1.44177e-09
2.33006e-09
1.48549e-09
2.29202e-09
1.50516e-09
2.25936e-09
1.51159e-09
2.23543e-09
1.51087e-09
2.22059e-09
1.5046e-09
2.21398e-09
1.4951e-09
2.21441e-09
1.48302e-09
2.22048e-09
1.46835e-09
2.23114e-09
1.44997e-09
2.24558e-09
1.4268e-09
2.26378e-09
1.39257e-09
2.28516e-09
1.35381e-09
2.30919e-09
1.30639e-09
2.3365e-09
1.2441e-09
2.36698e-09
1.15162e-09
2.40042e-09
1.05174e-09
2.43687e-09
9.01984e-10
2.4755e-09
7.29863e-10
2.51505e-09
4.77208e-10
2.55286e-09
2.03571e-10
2.58335e-09
-9.52169e-11
2.60259e-09
-4.03551e-10
2.60393e-09
-6.59174e-10
2.5867e-09
-8.38069e-10
2.55167e-09
-9.82291e-10
2.50484e-09
-1.06348e-09
2.45299e-09
-1.14252e-09
2.40461e-09
-1.19634e-09
2.36595e-09
-1.25509e-09
2.34166e-09
-1.3254e-09
2.33148e-09
-1.38567e-09
2.33233e-09
-1.44151e-09
2.33802e-09
-1.48413e-09
2.3418e-09
-1.50879e-09
2.33743e-09
-1.51337e-09
2.32151e-09
-1.4992e-09
2.29355e-09
-1.47017e-09
2.25559e-09
-1.43319e-09
2.20963e-09
-1.39366e-09
2.1581e-09
-1.35327e-09
2.1036e-09
-1.30796e-09
2.05057e-09
-1.25879e-09
2.00026e-09
-1.2091e-09
1.95277e-09
-1.15202e-09
1.91092e-09
-1.05723e-09
1.87478e-09
-9.64678e-10
1.84935e-09
-8.08232e-10
1.83762e-09
-6.40702e-10
1.84776e-09
-4.12887e-10
1.88947e-09
-1.49e-10
1.9634e-09
1.18514e-10
2.06309e-09
3.81425e-10
2.17307e-09
6.62414e-10
2.27067e-09
8.87056e-10
2.33502e-09
1.09907e-09
2.35711e-09
1.25363e-09
2.33954e-09
1.39007e-09
2.30096e-09
1.45533e-09
2.25154e-09
1.49841e-09
2.2042e-09
1.51897e-09
2.16393e-09
1.52471e-09
2.13389e-09
1.52011e-09
2.11473e-09
1.51118e-09
2.10545e-09
1.50011e-09
2.10475e-09
1.48663e-09
2.11117e-09
1.4706e-09
2.1237e-09
1.44974e-09
2.14215e-09
1.42339e-09
2.16545e-09
1.3929e-09
2.1937e-09
1.35442e-09
2.22696e-09
1.30701e-09
2.26566e-09
1.23769e-09
2.30994e-09
1.16087e-09
2.35924e-09
1.06749e-09
2.41455e-09
9.23575e-10
2.47422e-09
7.7278e-10
2.53675e-09
5.47818e-10
2.59941e-09
2.92695e-10
2.65508e-09
7.95861e-12
2.69837e-09
-3.00197e-10
2.7214e-09
-5.78647e-10
2.72181e-09
-7.8176e-10
2.70003e-09
-9.35986e-10
2.66283e-09
-1.04438e-09
2.61824e-09
-1.12036e-09
2.57624e-09
-1.18085e-09
2.54409e-09
-1.25454e-09
2.52716e-09
-1.31683e-09
2.52716e-09
-1.38271e-09
2.54216e-09
-1.4452e-09
2.56878e-09
-1.50286e-09
2.60338e-09
-1.54794e-09
2.63338e-09
-1.55774e-09
2.65269e-09
-1.55826e-09
2.65974e-09
-1.58547e-09
2.6362e-09
-1.61087e-09
2.59612e-09
-1.18967e-09
2.54781e-09
-9.81818e-10
2.49454e-09
-8.32949e-10
2.44079e-09
-6.45572e-10
2.39679e-09
-4.71208e-10
2.36508e-09
-2.63904e-10
2.34727e-09
-4.66933e-11
2.33814e-09
6.69123e-11
2.32993e-09
3.32647e-11
2.32334e-09
1.10193e-11
2.31723e-09
2.23275e-12
2.30987e-09
2.05186e-12
2.30008e-09
6.7999e-12
2.2874e-09
1.35193e-11
2.27189e-09
2.01107e-11
2.2541e-09
2.53758e-11
2.23475e-09
2.88661e-11
2.21448e-09
3.08184e-11
2.19364e-09
3.1844e-11
2.17223e-09
3.27055e-11
2.14996e-09
3.421e-11
2.12626e-09
3.70786e-11
2.10026e-09
4.1868e-11
2.07083e-09
4.90315e-11
2.03664e-09
5.90625e-11
1.99605e-09
7.25884e-11
1.94703e-09
9.05051e-11
1.88692e-09
1.14284e-10
1.81198e-09
1.46524e-10
1.71656e-09
1.92063e-10
1.5916e-09
2.59931e-10
1.42237e-09
3.66384e-10
1.18616e-09
5.37668e-10
8.57194e-10
8.05817e-10
4.4248e-10
1.17249e-09
7.15591e-11
1.47393e-09
1.05797e-09
-1.02739e-10
-3.15249e-10
-1.65788e-10
-5.95513e-10
-1.57006e-10
-6.70807e-10
-1.0043e-10
-6.52936e-10
-1.69237e-11
-5.96692e-10
7.85882e-11
-5.29464e-10
1.76887e-10
-4.64243e-10
2.72669e-10
-4.05764e-10
3.63056e-10
-3.54637e-10
4.46626e-10
-3.10164e-10
5.22793e-10
-2.713e-10
5.9144e-10
-2.37053e-10
6.52704e-10
-2.06563e-10
7.06846e-10
-1.79128e-10
7.5416e-10
-1.54198e-10
7.94955e-10
-1.31333e-10
8.29531e-10
-1.10181e-10
8.58202e-10
-9.0459e-11
8.81283e-10
-7.19565e-11
8.99046e-10
-5.45582e-11
9.1181e-10
-3.8184e-11
9.19914e-10
-2.28191e-11
9.23744e-10
-8.51762e-12
9.23772e-10
4.59842e-12
9.20545e-10
1.63214e-11
9.14746e-10
2.63545e-11
9.07255e-10
3.42954e-11
8.99155e-10
3.96263e-11
8.91913e-10
4.14366e-11
8.8736e-10
3.90332e-11
8.81814e-10
2.2217e-11
8.49454e-10
-4.92083e-11
7.88983e-10
-1.46081e-10
7.13841e-10
-2.50564e-10
6.37136e-10
-3.65703e-10
5.6624e-10
-5.09477e-10
5.03258e-10
-6.75675e-10
4.38805e-10
-8.46272e-10
3.83409e-10
-9.92575e-10
3.45967e-10
-1.12841e-09
3.24864e-10
-1.25123e-09
3.17808e-10
-1.35552e-09
3.23758e-10
-1.44134e-09
3.40499e-10
-1.50938e-09
3.65148e-10
-1.55813e-09
3.94362e-10
-1.58655e-09
4.24448e-10
-1.59524e-09
4.51384e-10
-1.58254e-09
4.72195e-10
-1.54913e-09
4.85467e-10
-1.49669e-09
4.90994e-10
-1.42869e-09
4.90314e-10
-1.34884e-09
4.85423e-10
-1.25975e-09
4.81537e-10
-1.16513e-09
4.83959e-10
-1.06885e-09
5.01255e-10
-9.67933e-10
5.41931e-10
-8.65001e-10
6.21756e-10
-7.41984e-10
7.56944e-10
-5.92047e-10
9.59607e-10
-4.06684e-10
1.23025e-09
-1.79225e-10
1.54939e-09
1.16886e-10
1.86828e-09
4.10033e-10
2.14894e-09
7.27256e-10
2.36251e-09
9.89681e-10
2.50268e-09
1.20772e-09
2.57215e-09
1.3723e-09
2.58595e-09
1.47164e-09
2.56673e-09
1.52434e-09
2.53149e-09
1.54678e-09
2.494e-09
1.54833e-09
2.46148e-09
1.5371e-09
2.43696e-09
1.51961e-09
2.42138e-09
1.49859e-09
2.41402e-09
1.4757e-09
2.41382e-09
1.45017e-09
2.41965e-09
1.42098e-09
2.43107e-09
1.38116e-09
2.44724e-09
1.33765e-09
2.46734e-09
1.2863e-09
2.4918e-09
1.21966e-09
2.51996e-09
1.12347e-09
2.55153e-09
1.02018e-09
2.58577e-09
8.6775e-10
2.6212e-09
6.94429e-10
2.65465e-09
4.43758e-10
2.68218e-09
1.76043e-10
2.69682e-09
-1.09858e-10
2.6946e-09
-4.01335e-10
2.67129e-09
-6.35864e-10
2.63054e-09
-7.97318e-10
2.57685e-09
-9.286e-10
2.51961e-09
-1.00624e-09
2.46675e-09
-1.08966e-09
2.42651e-09
-1.1561e-09
2.40192e-09
-1.23052e-09
2.39252e-09
-1.31601e-09
2.39365e-09
-1.38679e-09
2.39859e-09
-1.44644e-09
2.39963e-09
-1.48514e-09
2.39073e-09
-1.49986e-09
2.36876e-09
-1.4914e-09
2.33304e-09
-1.46348e-09
2.28527e-09
-1.42243e-09
2.22874e-09
-1.37669e-09
2.16695e-09
-1.3319e-09
2.10409e-09
-1.29042e-09
2.04238e-09
-1.24625e-09
1.98429e-09
-1.20069e-09
1.92941e-09
-1.15419e-09
1.87711e-09
-1.09969e-09
1.82951e-09
-1.00961e-09
1.78427e-09
-9.19437e-10
1.74667e-09
-7.70637e-10
1.71862e-09
-6.12658e-10
1.70906e-09
-4.03336e-10
1.72982e-09
-1.69761e-10
1.78812e-09
6.02179e-11
1.88965e-09
2.79884e-10
2.02869e-09
5.23374e-10
2.18049e-09
7.35258e-10
2.32291e-09
9.56654e-10
2.43582e-09
1.14074e-09
2.50608e-09
1.31982e-09
2.52974e-09
1.43168e-09
2.51507e-09
1.51307e-09
2.48009e-09
1.55394e-09
2.43644e-09
1.56834e-09
2.39436e-09
1.56219e-09
2.35962e-09
1.54591e-09
2.33476e-09
1.52497e-09
2.32031e-09
1.50108e-09
2.31525e-09
1.47565e-09
2.31853e-09
1.44645e-09
2.32986e-09
1.41206e-09
2.34772e-09
1.37504e-09
2.37203e-09
1.33011e-09
2.40253e-09
1.27652e-09
2.43918e-09
1.20105e-09
2.48212e-09
1.11793e-09
2.53034e-09
1.01928e-09
2.58388e-09
8.70042e-10
2.6405e-09
7.16161e-10
2.69657e-09
4.91741e-10
2.74786e-09
2.41409e-10
2.78576e-09
-2.99424e-11
2.80444e-09
-3.1888e-10
2.79845e-09
-5.72654e-10
2.77076e-09
-7.54076e-10
2.72682e-09
-8.9205e-10
2.67756e-09
-9.95124e-10
2.63295e-09
-1.07577e-09
2.60264e-09
-1.15053e-09
2.59041e-09
-1.24232e-09
2.59664e-09
-1.32307e-09
2.61773e-09
-1.40382e-09
2.64757e-09
-1.47506e-09
2.68011e-09
-1.53539e-09
2.7101e-09
-1.5779e-09
2.72303e-09
-1.57064e-09
2.71226e-09
-1.54745e-09
2.67294e-09
-1.5461e-09
2.59559e-09
-1.5335e-09
2.52389e-09
-1.118e-09
2.45496e-09
-9.12907e-10
2.38645e-09
-7.64462e-10
2.32384e-09
-5.82969e-10
2.27464e-09
-4.22011e-10
2.24121e-09
-2.30477e-10
2.22492e-09
-3.04068e-11
2.21692e-09
7.49195e-11
2.2045e-09
4.56794e-11
2.18962e-09
2.58988e-11
2.17304e-09
1.88182e-11
2.15455e-09
2.05369e-11
2.13391e-09
2.74452e-11
2.11104e-09
3.63913e-11
2.08614e-09
4.50015e-11
2.05966e-09
5.18566e-11
2.03205e-09
5.64823e-11
2.00366e-09
5.92075e-11
1.97464e-09
6.08631e-11
1.94484e-09
6.25013e-11
1.91384e-09
6.52097e-11
1.88095e-09
6.9976e-11
1.84518e-09
7.76381e-11
1.80527e-09
8.89405e-11
1.75967e-09
1.0466e-10
1.70651e-09
1.25744e-10
1.64351e-09
1.53506e-10
1.5678e-09
1.89998e-10
1.47559e-09
2.3873e-10
1.36159e-09
3.06061e-10
1.21794e-09
4.03584e-10
1.03305e-09
5.51272e-10
7.92852e-10
7.7787e-10
4.92983e-10
1.10569e-09
1.76013e-10
1.48946e-09
-2.78398e-11
1.67778e-09
1.03013e-09
-8.15827e-11
-2.33666e-10
-1.65329e-10
-5.11766e-10
-2.04829e-10
-6.31308e-10
-2.04729e-10
-6.53037e-10
-1.76099e-10
-6.25322e-10
-1.28261e-10
-5.77301e-10
-6.95657e-11
-5.22938e-10
-6.16911e-12
-4.6916e-10
5.80688e-11
-4.18875e-10
1.20662e-10
-3.72757e-10
1.80038e-10
-3.30676e-10
2.35243e-10
-2.92258e-10
2.8573e-10
-2.5705e-10
3.31218e-10
-2.24616e-10
3.71592e-10
-1.94572e-10
4.06843e-10
-1.66584e-10
4.37033e-10
-1.40372e-10
4.62284e-10
-1.1571e-10
4.82763e-10
-9.2436e-11
4.98667e-10
-7.04619e-11
5.10243e-10
-4.97599e-11
5.17799e-10
-3.03754e-11
5.2172e-10
-1.24381e-11
5.22489e-10
3.82918e-12
5.20714e-10
1.80965e-11
5.1716e-10
2.99082e-11
5.12798e-10
3.86579e-11
5.08865e-10
4.35591e-11
5.06846e-10
4.34557e-11
5.08686e-10
3.71931e-11
5.12489e-10
1.84138e-11
5.00301e-10
-3.70201e-11
4.71656e-10
-1.17437e-10
4.36346e-10
-2.15253e-10
4.03113e-10
-3.32471e-10
3.742e-10
-4.80565e-10
3.49191e-10
-6.50668e-10
3.21912e-10
-8.18997e-10
3.00256e-10
-9.70921e-10
2.8966e-10
-1.11782e-09
2.89378e-10
-1.25095e-09
2.98242e-10
-1.36439e-09
3.15875e-10
-1.45897e-09
3.40566e-10
-1.53407e-09
3.69445e-10
-1.58701e-09
3.99204e-10
-1.61631e-09
4.26303e-10
-1.62233e-09
4.47517e-10
-1.60374e-09
4.60906e-10
-1.56251e-09
4.65709e-10
-1.50149e-09
4.62328e-10
-1.42531e-09
4.52408e-10
-1.33893e-09
4.3815e-10
-1.2455e-09
4.23371e-10
-1.15035e-09
4.11778e-10
-1.05726e-09
4.08962e-10
-9.65115e-10
4.2055e-10
-8.76588e-10
4.57731e-10
-7.79168e-10
5.34125e-10
-6.68444e-10
6.64447e-10
-5.3701e-10
8.61922e-10
-3.76695e-10
1.13357e-09
-1.54741e-10
1.45453e-09
8.91075e-11
1.79509e-09
3.86733e-10
2.1106e-09
6.74193e-10
2.37079e-09
9.47522e-10
2.56013e-09
1.18292e-09
2.67737e-09
1.35435e-09
2.73361e-09
1.46805e-09
2.74492e-09
1.53545e-09
2.72895e-09
1.56429e-09
2.69919e-09
1.56685e-09
2.66757e-09
1.55121e-09
2.64056e-09
1.5256e-09
2.6207e-09
1.49557e-09
2.60876e-09
1.46212e-09
2.60436e-09
1.4254e-09
2.60708e-09
1.37846e-09
2.616e-09
1.32875e-09
2.62998e-09
1.27233e-09
2.64917e-09
1.20048e-09
2.67213e-09
1.10052e-09
2.69834e-09
9.93975e-10
2.72598e-09
8.40106e-10
2.75291e-09
6.67495e-10
2.7742e-09
4.2247e-10
2.78537e-09
1.64867e-10
2.77943e-09
-1.03921e-10
2.75394e-09
-3.75845e-10
2.70808e-09
-5.90003e-10
2.64959e-09
-7.38821e-10
2.58575e-09
-8.64768e-10
2.52729e-09
-9.47781e-10
2.48199e-09
-1.04437e-09
2.45462e-09
-1.12874e-09
2.44334e-09
-1.21924e-09
2.44322e-09
-1.3159e-09
2.44634e-09
-1.38992e-09
2.44416e-09
-1.44426e-09
2.43055e-09
-1.47152e-09
2.40118e-09
-1.47046e-09
2.35575e-09
-1.44594e-09
2.29665e-09
-1.40438e-09
2.22942e-09
-1.3552e-09
2.15866e-09
-1.30596e-09
2.08826e-09
-1.26153e-09
2.02091e-09
-1.22309e-09
1.95748e-09
-1.18282e-09
1.89872e-09
-1.14193e-09
1.84281e-09
-1.09826e-09
1.78812e-09
-1.04499e-09
1.736e-09
-9.5747e-10
1.68351e-09
-8.66935e-10
1.63565e-09
-7.22778e-10
1.59376e-09
-5.70775e-10
1.56619e-09
-3.75772e-10
1.56388e-09
-1.67452e-10
1.59479e-09
2.93101e-11
1.66914e-09
2.05536e-10
1.79356e-09
3.98946e-10
1.95624e-09
5.72582e-10
2.14044e-09
7.72467e-10
2.31821e-09
9.6298e-10
2.46995e-09
1.1681e-09
2.57883e-09
1.32279e-09
2.64175e-09
1.45014e-09
2.6618e-09
1.53387e-09
2.65249e-09
1.57765e-09
2.62459e-09
1.59008e-09
2.59094e-09
1.57955e-09
2.55979e-09
1.55612e-09
2.53609e-09
1.52478e-09
2.5212e-09
1.49055e-09
2.51539e-09
1.45225e-09
2.51894e-09
1.40852e-09
2.5303e-09
1.36369e-09
2.54927e-09
1.31115e-09
2.57529e-09
1.2505e-09
2.60768e-09
1.16866e-09
2.64639e-09
1.07922e-09
2.68978e-09
9.75893e-10
2.73662e-09
8.23198e-10
2.7841e-09
6.68681e-10
2.82658e-09
4.49258e-10
2.85919e-09
2.08801e-10
2.87337e-09
-4.41178e-11
2.865e-09
-3.10515e-10
2.83276e-09
-5.40415e-10
2.78497e-09
-7.0628e-10
2.73094e-09
-8.38026e-10
2.68359e-09
-9.4778e-10
2.65214e-09
-1.04433e-09
2.64231e-09
-1.1407e-09
2.65185e-09
-1.25187e-09
2.67579e-09
-1.34701e-09
2.7063e-09
-1.43435e-09
2.735e-09
-1.50378e-09
2.7549e-09
-1.5553e-09
2.76197e-09
-1.58497e-09
2.74232e-09
-1.55096e-09
2.68983e-09
-1.49494e-09
2.60668e-09
-1.46293e-09
2.49581e-09
-1.4226e-09
2.40784e-09
-1.03002e-09
2.32868e-09
-8.33763e-10
2.25502e-09
-6.90806e-10
2.19022e-09
-5.18179e-10
2.13974e-09
-3.7153e-10
2.10543e-09
-1.9617e-10
2.088e-09
-1.29803e-11
2.07762e-09
8.53081e-11
2.06045e-09
6.28402e-11
2.03845e-09
4.78989e-11
2.01312e-09
4.41555e-11
1.98525e-09
4.84052e-11
1.95536e-09
5.73315e-11
1.92385e-09
6.79077e-11
1.89106e-09
7.77898e-11
1.85733e-09
8.55878e-11
1.8229e-09
9.09146e-11
1.78787e-09
9.42328e-11
1.75217e-09
9.65621e-11
1.71549e-09
9.91827e-11
1.67728e-09
1.03419e-10
1.63675e-09
1.10507e-10
1.59282e-09
1.21563e-10
1.54413e-09
1.37639e-10
1.48895e-09
1.59835e-10
1.42524e-09
1.89454e-10
1.35053e-09
2.28217e-10
1.26185e-09
2.78682e-10
1.15553e-09
3.45047e-10
1.02693e-09
4.34663e-10
8.70041e-10
5.60472e-10
6.77993e-10
7.4332e-10
4.47508e-10
1.00835e-09
1.94083e-10
1.35911e-09
-1.87025e-11
1.70224e-09
-8.23646e-11
1.74144e-09
9.47769e-10
-6.01245e-11
-1.73541e-10
-1.40529e-10
-4.31362e-10
-1.9908e-10
-5.72756e-10
-2.27866e-10
-6.24251e-10
-2.31256e-10
-6.21932e-10
-2.16218e-10
-5.92339e-10
-1.88206e-10
-5.50949e-10
-1.51921e-10
-5.05445e-10
-1.1129e-10
-4.59506e-10
-6.90957e-11
-4.14952e-10
-2.72435e-11
-3.72528e-10
1.29458e-11
-3.32447e-10
5.05793e-11
-2.94683e-10
8.50719e-11
-2.59109e-10
1.16054e-10
-2.25553e-10
1.4331e-10
-1.93839e-10
1.66737e-10
-1.63799e-10
1.86323e-10
-1.35296e-10
2.02132e-10
-1.08245e-10
2.14292e-10
-8.26221e-11
2.23006e-10
-5.84736e-11
2.28557e-10
-3.59271e-11
2.31329e-10
-1.52092e-11
2.31819e-10
3.33889e-12
2.30673e-10
1.92421e-11
2.28707e-10
3.18747e-11
2.26946e-10
4.04183e-11
2.26668e-10
4.38379e-11
2.29336e-10
4.07871e-11
2.36816e-10
2.97137e-11
2.4841e-10
6.81911e-12
2.52798e-10
-4.14082e-11
2.49745e-10
-1.14383e-10
2.45326e-10
-2.10834e-10
2.44305e-10
-3.3145e-10
2.45781e-10
-4.82043e-10
2.48185e-10
-6.53073e-10
2.47551e-10
-8.18365e-10
2.49634e-10
-9.73006e-10
2.58071e-10
-1.12626e-09
2.72958e-10
-1.26583e-09
2.93705e-10
-1.38513e-09
3.20056e-10
-1.48532e-09
3.50205e-10
-1.56421e-09
3.81206e-10
-1.61801e-09
4.09847e-10
-1.64495e-09
4.33028e-10
-1.64551e-09
4.48435e-10
-1.61915e-09
4.5485e-10
-1.56892e-09
4.5224e-10
-1.49888e-09
4.41621e-10
-1.41469e-09
4.24728e-10
-1.32204e-09
4.03738e-10
-1.22451e-09
3.81559e-10
-1.12817e-09
3.60862e-10
-1.03656e-09
3.45354e-10
-9.49607e-10
3.3863e-10
-8.69864e-10
3.48066e-10
-7.88605e-10
3.83108e-10
-7.03488e-10
4.55411e-10
-6.09311e-10
5.789e-10
-5.00175e-10
7.70576e-10
-3.46396e-10
1.02854e-09
-1.68827e-10
1.34571e-09
6.95864e-11
1.68912e-09
3.30782e-10
2.02516e-09
6.11442e-10
2.3219e-09
8.86133e-10
2.55451e-09
1.1217e-09
2.71443e-09
1.30811e-09
2.80971e-09
1.44016e-09
2.85751e-09
1.51649e-09
2.87076e-09
1.5536e-09
2.86143e-09
1.56053e-09
2.8412e-09
1.54583e-09
2.81954e-09
1.51725e-09
2.80114e-09
1.48054e-09
2.78854e-09
1.43802e-09
2.78263e-09
1.38439e-09
2.78324e-09
1.32815e-09
2.78939e-09
1.26619e-09
2.80108e-09
1.18881e-09
2.81607e-09
1.08553e-09
2.83365e-09
9.76397e-10
2.85085e-09
8.22899e-10
2.86503e-09
6.53306e-10
2.86997e-09
4.17524e-10
2.86159e-09
1.73249e-10
2.83402e-09
-7.63541e-11
2.78735e-09
-3.29171e-10
2.72436e-09
-5.27019e-10
2.65588e-09
-6.70336e-10
2.59033e-09
-7.99216e-10
2.53916e-09
-8.96612e-10
2.50602e-09
-1.01123e-09
2.49067e-09
-1.11339e-09
2.48742e-09
-1.216e-09
2.48813e-09
-1.31662e-09
2.48287e-09
-1.38467e-09
2.46453e-09
-1.42593e-09
2.42838e-09
-1.43536e-09
2.37359e-09
-1.41565e-09
2.30448e-09
-1.37681e-09
2.22671e-09
-1.32658e-09
2.14668e-09
-1.27517e-09
2.06878e-09
-1.22806e-09
1.99579e-09
-1.18856e-09
1.92877e-09
-1.1561e-09
1.86708e-09
-1.12115e-09
1.80987e-09
-1.08472e-09
1.75428e-09
-1.04266e-09
1.69818e-09
-9.88872e-10
1.64244e-09
-9.01711e-10
1.5842e-09
-8.08685e-10
1.52821e-09
-6.66789e-10
1.47575e-09
-5.18312e-10
1.43438e-09
-3.34404e-10
1.41337e-09
-1.46451e-10
1.4191e-09
2.35816e-11
1.46092e-09
1.63719e-10
1.55031e-09
3.09557e-10
1.68662e-09
4.36282e-10
1.86575e-09
5.93343e-10
2.0685e-09
7.60242e-10
2.27498e-09
9.6161e-10
2.45706e-09
1.14069e-09
2.59979e-09
1.3074e-09
2.69305e-09
1.4406e-09
2.74578e-09
1.52493e-09
2.76575e-09
1.5701e-09
2.7628e-09
1.5825e-09
2.74607e-09
1.57285e-09
2.72656e-09
1.54429e-09
2.70968e-09
1.50743e-09
2.69901e-09
1.46292e-09
2.69657e-09
1.41097e-09
2.70169e-09
1.35857e-09
2.71459e-09
1.29825e-09
2.73468e-09
1.23041e-09
2.76065e-09
1.14269e-09
2.79223e-09
1.04764e-09
2.82716e-09
9.40959e-10
2.86292e-09
7.87446e-10
2.89639e-09
6.35204e-10
2.92054e-09
4.25113e-10
2.93093e-09
1.98406e-10
2.92059e-09
-3.37808e-11
2.8887e-09
-2.78625e-10
2.83862e-09
-4.90332e-10
2.7828e-09
-6.50462e-10
2.73208e-09
-7.87312e-10
2.69921e-09
-9.14908e-10
2.68869e-09
-1.03381e-09
2.69969e-09
-1.15171e-09
2.72441e-09
-1.27659e-09
2.75393e-09
-1.37654e-09
2.77836e-09
-1.45878e-09
2.78975e-09
-1.51517e-09
2.78307e-09
-1.54863e-09
2.75445e-09
-1.55636e-09
2.69518e-09
-1.49169e-09
2.60664e-09
-1.40639e-09
2.49693e-09
-1.35321e-09
2.37071e-09
-1.29638e-09
2.27732e-09
-9.36623e-10
2.19669e-09
-7.53129e-10
2.12378e-09
-6.17892e-10
2.06069e-09
-4.551e-10
2.01156e-09
-3.22392e-10
1.97784e-09
-1.62454e-10
1.95977e-09
5.0854e-12
1.94754e-09
9.75357e-11
1.92761e-09
8.27745e-11
1.90156e-09
7.39513e-11
1.8711e-09
7.46171e-11
1.83749e-09
8.20124e-11
1.80168e-09
9.31433e-11
1.76435e-09
1.05236e-10
1.72599e-09
1.16151e-10
1.6869e-09
1.24677e-10
1.64722e-09
1.30597e-10
1.60691e-09
1.34535e-10
1.56579e-09
1.37682e-10
1.52347e-09
1.4151e-10
1.47933e-09
1.47554e-10
1.43254e-09
1.57299e-10
1.38195e-09
1.7215e-10
1.3261e-09
1.93491e-10
1.26316e-09
2.2278e-10
1.19091e-09
2.61697e-10
1.10677e-09
3.12362e-10
1.00769e-09
3.77755e-10
8.90233e-10
4.62506e-10
7.50568e-10
5.74328e-10
5.85033e-10
7.26007e-10
3.9233e-10
9.36023e-10
1.80323e-10
1.22036e-09