/*--------------------------------*- C++ -*----------------------------------*\
| =========                 |                                                 |
| \\      /  F ield         | OpenFOAM: The Open Source CFD Toolbox           |
|  \\    /   O peration     | Version:  2506                                  |
|   \\  /    A nd           | Website:  www.openfoam.com                      |
|    \\/     M anipulation  |                                                 |
\*---------------------------------------------------------------------------*/
FoamFile
{
    version     2.0;
    format      ascii;
    arch        "LSB;label=32;scalar=64";
    class       volVectorField;
    location    "0.45";
    object      vorticityField;
}
// * * * * * * * * * * * * * * * * * * * * * * * * * * * * * * * * * * * * * //

dimensions      [0 0 -1 0 0 0 0];

internalField   nonuniform List<vector> 
4000
(
(-2.26031e-20 7.66142e-18 -21.4885)
(-8.24515e-18 -6.97518e-18 -24.0955)
(8.66113e-18 -2.42119e-17 -22.4355)
(3.35696e-17 3.81857e-17 -19.5393)
(-6.85583e-17 2.19675e-18 -17.475)
(3.49661e-17 -3.27028e-17 -16.0859)
(-2.80497e-19 1.5846e-17 -15.0071)
(3.50542e-17 -0 -14.1331)
(-3.44389e-17 -3.12783e-17 -13.4192)
(6.77045e-17 2.96092e-17 -12.827)
(-6.77401e-17 -2.9139e-17 -12.3291)
(-4.69363e-18 2.76296e-17 -11.908)
(1.45301e-18 6.53837e-17 -11.5508)
(7.22136e-17 -6.22051e-17 -11.2478)
(-3.35664e-19 -0 -10.9908)
(-1.36352e-16 -6.09034e-17 -10.7727)
(1.31773e-16 5.79591e-17 -10.5872)
(-6.83571e-17 6.38765e-17 -10.4279)
(3.23576e-18 -6.09321e-17 -10.289)
(0 -0 -10.1646)
(0 -0 -10.0491)
(0 -0 -9.93718)
(8.0115e-18 -1.18067e-16 -9.82373)
(1.09876e-16 2.30132e-16 -9.7038)
(-2.52305e-16 1.14466e-17 -9.57256)
(1.43444e-16 -2.41107e-16 -9.42521)
(-9.02025e-18 1.17595e-16 -9.25684)
(0 -0 -9.06232)
(0 -0 -8.83587)
(-1.01589e-17 1.14781e-16 -8.57068)
(-2.44074e-16 -1.10242e-16 -8.25843)
(1.34316e-16 -1.19454e-16 -7.88976)
(2.61162e-16 1.52278e-17 -7.45043)
(3.53479e-18 -1.16584e-16 -6.83771)
(-7.73429e-17 6.65852e-16 -6.15323)
(-2.76448e-16 5.40298e-16 -5.8151)
(-9.33435e-16 -9.74291e-16 -5.97878)
(-1.0655e-17 8.43053e-18 -6.51712)
(7.04833e-16 1.624e-15 -7.39167)
(-6.67395e-16 -1.04841e-15 -8.66313)
(3.63665e-16 -2.12034e-15 -10.5081)
(1.05437e-15 2.0271e-15 -12.7728)
(-2.98741e-16 9.06238e-16 -15.0655)
(2.48682e-16 -9.57617e-16 -17.2518)
(1.18392e-15 8.27084e-16 -19.3085)
(-1.36199e-15 1.45824e-16 -21.2398)
(-1.19152e-15 3.3712e-16 -23.0736)
(-1.04117e-15 -1.01681e-15 -24.7077)
(-1.22128e-15 -1.20717e-15 -26.1803)
(-5.09735e-16 -1.30411e-15 -27.4921)
(6.68019e-16 -2.8033e-16 -28.5877)
(-4.1692e-17 5.17735e-16 -29.5298)
(-6.6281e-16 -1.18491e-15 -30.2171)
(6.72443e-16 5.48236e-17 -30.7219)
(-9.67409e-17 1.13036e-15 -30.9764)
(-3.23453e-16 3.11484e-17 -30.9906)
(2.70282e-16 -1.14675e-16 -30.7923)
(8.71723e-17 -3.46317e-17 -30.2989)
(1.61537e-16 4.38113e-17 -29.6722)
(-7.6088e-17 -4.78286e-17 -28.7912)
(7.76637e-17 -2.3942e-17 -27.6877)
(3.2168e-16 5.37074e-18 -26.5068)
(-1.51415e-16 -6.76275e-17 -25.1725)
(-9.73157e-17 -6.68209e-16 -23.7883)
(2.79332e-17 -6.83183e-17 -22.3568)
(-1.13902e-16 8.05356e-16 -20.8831)
(6.31745e-16 -1.73648e-16 -19.432)
(2.25689e-17 -4.11249e-16 -17.9739)
(2.92091e-16 6.49219e-16 -16.5829)
(-7.53172e-16 7.76995e-16 -15.2178)
(-1.78265e-16 -5.76249e-16 -13.926)
(-1.76216e-17 -1.79822e-16 -12.6975)
(-2.00591e-19 2.34883e-18 -11.53)
(-9.6611e-16 6.12796e-16 -10.4549)
(-9.36138e-16 6.6354e-16 -9.45594)
(-3.66961e-17 7.54771e-16 -8.54202)
(-7.61764e-16 4.92392e-16 -7.72025)
(9.13928e-17 -7.85262e-16 -6.98337)
(-8.20569e-16 4.88813e-16 -6.3286)
(7.46368e-16 2.14396e-16 -5.7556)
(-1.39425e-15 4.00435e-16 -5.25733)
(-1.58823e-16 -6.82152e-16 -4.82726)
(4.09233e-17 -1.00543e-16 -4.45891)
(-8.94857e-17 3.70703e-17 -4.14479)
(6.49314e-16 9.92875e-16 -3.87883)
(-1.18105e-15 1.54524e-15 -3.6549)
(5.68457e-17 -1.39545e-15 -3.46459)
(-5.80905e-17 -6.81495e-16 -3.30243)
(-1.16701e-17 1.33593e-15 -3.16514)
(-4.80685e-16 3.10353e-16 -3.04536)
(1.7666e-18 6.81371e-19 -2.94156)
(-4.734e-16 8.6883e-16 -2.85442)
(-2.20286e-16 -1.0676e-15 -2.77832)
(1.66327e-16 -3.57392e-16 -2.71559)
(6.08889e-18 5.51502e-16 -2.66655)
(6.93776e-17 -6.08705e-16 -2.62956)
(2.06458e-16 -9.09531e-17 -2.61029)
(2.63788e-17 2.99674e-17 -2.60439)
(-3.09441e-16 -5.11725e-17 -2.61763)
(5.04471e-17 2.58554e-16 -2.65326)
(5.48245e-17 -2.92386e-18 -2.72125)
(1.78097e-17 -5.11099e-17 -2.81369)
(-9.19584e-18 1.61285e-16 -2.9396)
(-2.38769e-17 4.33937e-17 -3.09006)
(-3.53386e-17 -1.75532e-17 -3.27822)
(-6.40784e-19 -5.81698e-17 -3.50478)
(3.46374e-18 4.65115e-16 -3.77362)
(-1.79984e-16 -2.44819e-17 -4.08727)
(-2.19716e-16 -7.8696e-16 -4.44343)
(4.13089e-16 -1.14461e-16 -4.84372)
(-2.11414e-16 1.54651e-16 -5.28782)
(9.39656e-18 5.2132e-16 -5.7712)
(-2.17338e-16 -1.02811e-16 -6.29744)
(-2.1188e-16 -4.03905e-16 -6.84524)
(-6.41775e-18 -5.43164e-16 -7.43624)
(4.2714e-16 2.8225e-16 -8.04834)
(3.57129e-18 1.07066e-15 -8.68433)
(4.42285e-17 7.77512e-17 -9.35027)
(4.49622e-16 3.29339e-16 -10.0326)
(-4.55475e-16 -3.41773e-16 -10.7358)
(-5.60862e-16 -1.61474e-15 -11.4655)
(5.63176e-16 3.76838e-16 -12.2123)
(2.26528e-17 1.22622e-15 -12.9758)
(-5.16569e-16 -3.82791e-16 -13.7664)
(-1.04125e-16 -1.2862e-15 -14.5763)
(1.03913e-15 7.36347e-16 -15.4082)
(-3.6833e-16 3.63298e-16 -16.2624)
(5.18664e-16 -9.21516e-17 -17.1356)
(5.58448e-16 8.0582e-16 -18.0322)
(4.69666e-17 7.6882e-16 -18.9614)
(-1.39473e-17 4.9304e-16 -19.8895)
(-4.78049e-16 -2.00949e-16 -20.8371)
(-2.00925e-16 -5.99777e-16 -21.8206)
(-1.0858e-15 -7.50644e-16 -22.7814)
(4.79422e-16 -3.87833e-17 -23.7425)
(-7.54255e-17 -3.99897e-17 -24.7385)
(7.78153e-17 4.26355e-17 -25.6409)
(-4.71577e-17 -1.15008e-16 -26.5506)
(8.57206e-17 8.81254e-17 -27.3731)
(-1.22888e-16 1.09386e-16 -28.1223)
(1.5114e-16 1.30393e-16 -28.7576)
(-4.49626e-16 -1.85562e-16 -29.2484)
(2.19985e-16 1.19822e-16 -29.5484)
(-6.33077e-17 3.63855e-17 -29.677)
(-1.36574e-16 -9.19948e-17 -29.5066)
(-2.02488e-17 -1.87946e-16 -29.1744)
(-2.60829e-17 4.00607e-17 -28.5083)
(0 -0 -27.5734)
(-5.61719e-17 3.89255e-17 -26.4426)
(6.21256e-17 -3.04882e-17 -25.0548)
(2.61279e-17 -1.89549e-16 -23.5571)
(-3.48902e-17 -9.02076e-17 -21.8921)
(1.54874e-16 9.32609e-17 -20.1311)
(8.5223e-17 2.36031e-16 -18.2986)
(-1.6934e-16 6.60753e-17 -16.4031)
(1.69337e-16 -1.73991e-16 -14.4744)
(-2.39447e-16 -7.75863e-17 -12.507)
(3.44005e-16 -1.85858e-16 -10.534)
(-7.62984e-17 -3.09671e-16 -8.54859)
(2.48428e-16 -1.31021e-16 -6.62074)
(-2.27485e-16 7.05372e-16 -5.24504)
(1.7811e-16 -1.55198e-16 -4.42975)
(-4.58127e-17 -9.03627e-17 -3.90922)
(3.21453e-17 -7.49371e-18 -3.67218)
(3.03498e-17 -4.6677e-18 -3.74397)
(2.89892e-17 -2.40855e-18 -4.14765)
(-2.78092e-17 -2.04755e-17 -4.9355)
(2.2967e-17 -3.4667e-18 -6.07233)
(1.66271e-18 2.07576e-17 -7.3084)
(2.83308e-18 1.84492e-17 -8.51995)
(-2.29582e-17 4.63343e-18 -9.65819)
(-5.01573e-18 -3.71259e-17 -10.6718)
(-6.32717e-21 1.08504e-17 -11.5245)
(4.39768e-18 2.36643e-17 -12.1991)
(-2.83332e-18 -1.77908e-17 -12.6938)
(1.90782e-17 5.69673e-19 -13.0202)
(-3.48019e-17 1.39329e-17 -13.1975)
(1.80863e-17 -6.65428e-18 -13.2507)
(-3.14227e-18 -2.12998e-17 -13.2024)
(9.60549e-19 1.399e-17 -13.0754)
(8.50973e-18 5.31568e-18 -12.8911)
(-1.36594e-17 2.81427e-18 -12.6688)
(-1.05326e-18 -1.06437e-17 -12.4273)
(2.70868e-21 -3.09327e-18 -12.18)
(5.51606e-18 5.32021e-18 -11.9367)
(5.17366e-18 1.54324e-20 -11.7048)
(-5.77288e-18 -1.72198e-20 -11.4887)
(4.94339e-18 -2.0588e-19 -11.2912)
(-8.37138e-18 -2.94268e-19 -11.1132)
(5.31434e-18 2.35992e-19 -10.9543)
(-1.79633e-18 -5.35824e-21 -10.8132)
(-4.05276e-19 -1.06524e-18 -10.6882)
(1.18306e-18 -4.3953e-19 -10.5772)
(-3.59937e-19 2.56144e-18 -10.4775)
(-1.07372e-18 -1.14833e-18 -10.3863)
(1.44197e-19 -4.74271e-19 -10.301)
(-1.01722e-19 -4.97976e-19 -10.2185)
(-1.58537e-19 6.66109e-19 -10.1332)
(-8.09775e-20 2.12122e-19 -10.032)
(-2.31566e-20 -7.47044e-20 -9.92974)
(0 -0 1.84892)
(-2.03479e-19 -0 -4.7575)
(1.54575e-19 -1.6097e-17 -7.76235)
(-2.33125e-19 3.02602e-17 -8.59684)
(1.66263e-17 4.08213e-18 -8.41781)
(-1.63369e-17 -3.46609e-17 -7.99778)
(3.88417e-19 -1.64629e-17 -7.55996)
(-6.57346e-19 2.96081e-17 -7.14561)
(-3.40635e-17 3.42219e-18 -6.76849)
(3.48135e-17 -3.15854e-18 -6.43321)
(6.43211e-17 1.01825e-16 -6.13878)
(-1.31774e-16 -9.31901e-17 -5.8821)
(3.38101e-18 -1.37075e-16 -5.65944)
(6.59133e-17 6.07696e-17 -5.46701)
(-8.50052e-18 1.9621e-16 -5.30118)
(-6.47645e-17 -5.49313e-17 -5.15855)
(7.65681e-17 -1.35842e-16 -5.03559)
(-5.78828e-18 6.52399e-17 -4.92905)
(0 -0 -4.83609)
(0 -0 -4.7537)
(0 -0 -4.67894)
(0 -0 -4.60892)
(0 -0 -4.54076)
(-2.58484e-16 -0 -4.47178)
(3.84552e-16 -0 -4.39951)
(-1.25954e-16 -0 -4.32173)
(0 -0 -4.23626)
(0 -0 -4.14094)
(0 -0 -4.034)
(-1.09143e-17 1.23315e-16 -3.91422)
(-6.09757e-18 7.35562e-18 -3.78111)
(4.04506e-17 -3.6971e-16 -3.63402)
(-9.86515e-18 9.37439e-17 -3.47033)
(-1.35378e-16 3.75775e-16 -3.27911)
(-7.30881e-17 -4.74727e-16 -3.08621)
(3.1281e-16 4.10262e-16 -3.0006)
(9.40735e-16 7.77204e-16 -3.10025)
(7.36077e-17 -1.84807e-15 -3.39291)
(-4.70155e-16 -8.01377e-16 -3.88986)
(9.80597e-16 2.00606e-15 -4.62768)
(-2.92532e-16 1.12589e-16 -5.639)
(-8.06454e-16 -1.4815e-15 -6.76293)
(-2.8455e-18 -1.13011e-16 -7.9169)
(2.91976e-17 -2.65516e-16 -9.08846)
(-1.31514e-15 2.62583e-16 -10.2248)
(1.11543e-15 2.08288e-15 -11.328)
(2.38261e-15 3.2616e-16 -12.3795)
(1.03578e-15 1.13129e-15 -13.3304)
(1.23221e-15 7.36311e-16 -14.2149)
(6.34055e-16 -2.31198e-16 -14.987)
(-1.8328e-15 -8.62865e-16 -15.6478)
(-3.90372e-17 4.80942e-16 -16.2072)
(5.5132e-16 8.35286e-16 -16.6205)
(-5.67839e-16 -5.78045e-16 -16.9295)
(6.88891e-16 -3.05944e-16 -17.0872)
(6.499e-16 -6.80315e-17 -17.1245)
(4.14459e-16 -4.00512e-17 -17.0253)
(1.51373e-16 1.27335e-16 -16.7877)
(-8.79232e-17 5.14471e-17 -16.4289)
(-9.37198e-17 1.16955e-16 -15.9511)
(-4.74734e-17 -2.40301e-16 -15.3395)
(-3.34054e-16 9.23111e-17 -14.6344)
(2.6528e-16 4.16422e-16 -13.8435)
(-1.96568e-16 6.36518e-16 -12.9829)
(2.76624e-16 -5.10146e-17 -12.072)
(1.2207e-17 -1.17616e-15 -11.1016)
(2.53828e-16 -1.74215e-16 -10.1642)
(-3.27162e-16 7.03406e-16 -9.19598)
(-3.48974e-16 -5.31432e-17 -8.26263)
(9.61258e-16 -3.97256e-16 -7.34994)
(-1.89725e-17 1.28608e-16 -6.47746)
(-1.40482e-15 6.3546e-16 -5.66892)
(7.8865e-16 4.3218e-16 -4.90351)
(-2.9571e-17 1.01349e-15 -4.20923)
(1.02917e-15 -1.49472e-15 -3.58403)
(1.59515e-16 -9.36219e-16 -3.02334)
(-2.06599e-16 1.25605e-16 -2.53517)
(-3.96226e-17 8.31854e-16 -2.11705)
(-7.58143e-16 -1.77128e-16 -1.76189)
(-1.55972e-15 1.02273e-15 -1.46945)
(2.05568e-15 2.58374e-16 -1.23462)
(2.0566e-16 -9.73156e-16 -1.05019)
(-7.16692e-16 4.87012e-16 -0.911154)
(1.10352e-16 -7.50269e-16 -0.811332)
(-9.52012e-18 -7.92334e-17 -0.744491)
(1.19421e-15 -7.65947e-16 -0.70752)
(5.4454e-16 -4.30873e-16 -0.694454)
(6.59951e-16 3.96944e-16 -0.698921)
(5.33785e-16 -1.08301e-15 -0.720785)
(1.06327e-15 -6.73036e-16 -0.75444)
(3.3926e-19 2.15321e-17 -0.793896)
(4.79252e-16 -5.95683e-16 -0.842657)
(1.98607e-16 2.2422e-16 -0.896009)
(-4.43768e-16 2.4886e-16 -0.950845)
(2.03377e-16 -5.26976e-16 -1.01215)
(8.05329e-18 2.90301e-16 -1.06935)
(-4.30492e-16 2.2425e-16 -1.13231)
(2.04991e-16 5.4252e-16 -1.18988)
(1.82434e-17 1.27209e-16 -1.25175)
(-1.13623e-16 -6.92971e-16 -1.30868)
(-5.39771e-17 2.89892e-17 -1.37142)
(-6.72413e-17 1.39638e-16 -1.43296)
(-2.70318e-17 -1.07714e-16 -1.50019)
(2.40695e-17 -1.41484e-17 -1.57355)
(4.74097e-17 -1.2431e-17 -1.65668)
(9.78605e-17 2.75062e-17 -1.75335)
(-1.84648e-18 -2.47948e-16 -1.86764)
(5.80175e-16 3.78383e-16 -2.0002)
(7.86738e-18 1.06807e-17 -2.15604)
(-3.89378e-16 1.10391e-16 -2.33471)
(-7.23447e-18 2.99579e-16 -2.53914)
(-1.55122e-17 -5.28172e-16 -2.76794)
(2.12236e-16 3.76313e-16 -3.02474)
(2.03155e-16 1.10983e-16 -3.30012)
(-2.18348e-16 -3.97219e-16 -3.60954)
(-4.2665e-16 -2.46962e-16 -3.93076)
(1.64091e-17 -5.93531e-16 -4.27973)
(-3.8104e-17 -6.46747e-16 -4.65087)
(-3.57331e-16 2.867e-16 -5.03626)
(9.32673e-16 1.87618e-15 -5.44568)
(-5.2905e-16 -3.74607e-16 -5.8756)
(-5.10739e-16 -9.93632e-16 -6.31934)
(4.31671e-16 3.8912e-16 -6.78321)
(6.13061e-16 4.29719e-16 -7.26908)
(5.03154e-16 -1.92957e-16 -7.76813)
(-1.56203e-15 -8.37998e-16 -8.28657)
(4.49334e-16 4.26096e-16 -8.82127)
(-3.46215e-16 -9.86486e-16 -9.37003)
(-1.00733e-16 8.12723e-17 -9.93612)
(1.20711e-15 7.06076e-16 -10.5168)
(4.78399e-16 2.69011e-16 -11.0929)
(1.15838e-15 6.81956e-16 -11.6885)
(6.85042e-16 1.49067e-15 -12.2903)
(1.0278e-15 2.67381e-16 -12.8637)
(-5.89422e-17 -6.12892e-16 -13.4479)
(1.27885e-16 5.67978e-16 -14.0213)
(2.32748e-16 8.71472e-17 -14.521)
(8.16264e-17 2.44161e-17 -15.0339)
(-6.16611e-17 -6.55677e-17 -15.4544)
(9.54974e-17 -1.39166e-16 -15.8314)
(-1.09799e-17 7.10757e-17 -16.1214)
(9.59076e-17 2.3157e-16 -16.3176)
(1.14632e-16 -3.54267e-16 -16.4051)
(3.21884e-17 2.11982e-16 -16.3841)
(-6.52898e-17 -4.16499e-18 -16.2099)
(-5.16993e-17 7.78809e-17 -15.9403)
(1.18377e-16 -2.28314e-17 -15.4854)
(-7.53392e-17 1.96433e-17 -14.9137)
(4.88088e-17 -5.1908e-17 -14.1908)
(-1.29492e-16 -8.24241e-17 -13.3372)
(-7.38792e-17 2.45094e-16 -12.3799)
(3.71699e-17 1.30936e-16 -11.3224)
(4.59042e-17 -1.83251e-16 -10.1732)
(-1.07315e-16 -2.15837e-17 -8.96649)
(3.91048e-16 -2.54313e-16 -7.73209)
(-1.79131e-16 1.47014e-16 -6.49763)
(8.9948e-18 4.24237e-17 -5.26583)
(-3.74562e-16 -5.88983e-18 -4.10081)
(1.24487e-16 3.48687e-16 -3.04254)
(-6.65451e-16 5.85679e-16 -2.12877)
(2.07613e-16 -5.92542e-16 -1.43629)
(-7.72388e-18 -1.69642e-16 -1.08222)
(-2.43008e-18 2.41612e-16 -0.976911)
(-7.10899e-17 -4.21019e-17 -1.04184)
(-4.31679e-19 -1.41519e-18 -1.25974)
(-5.39603e-17 4.58183e-17 -1.62887)
(5.64614e-17 2.86514e-17 -2.13215)
(-2.61875e-17 -2.09836e-17 -2.74299)
(-3.53886e-19 -2.80738e-18 -3.37087)
(-1.69622e-18 -6.31468e-19 -3.97218)
(-7.29669e-19 2.52229e-18 -4.53134)
(3.27014e-18 1.96365e-17 -5.03446)
(-2.19479e-17 -9.28271e-18 -5.46909)
(1.70028e-17 -2.98718e-17 -5.82675)
(1.03694e-18 4.60523e-18 -6.10321)
(2.30248e-17 1.64378e-17 -6.29889)
(-2.03286e-17 1.11721e-17 -6.41833)
(-1.78663e-18 -4.18491e-17 -6.46914)
(3.737e-18 4.48767e-17 -6.46171)
(-1.55687e-18 -2.30419e-17 -6.40717)
(-3.99341e-19 -5.61254e-19 -6.31589)
(6.42632e-18 1.46222e-17 -6.19849)
(-5.92005e-18 -5.67023e-19 -6.06502)
(-5.98977e-18 5.75928e-19 -5.92389)
(6.08254e-18 -1.5035e-17 -5.78168)
(1.83597e-18 4.11773e-18 -5.6433)
(5.37431e-19 6.71582e-18 -5.51212)
(-4.00137e-19 -3.72495e-18 -5.39017)
(-3.58236e-19 1.08652e-17 -5.27839)
(3.10046e-19 -1.34645e-17 -5.17686)
(1.71394e-18 7.83314e-18 -5.08501)
(-1.25333e-18 -8.80014e-19 -5.00183)
(-2.40295e-18 -1.06544e-18 -4.92605)
(2.67376e-18 -8.28296e-19 -4.8562)
(-1.417e-21 3.20363e-18 -4.79067)
(1.30922e-19 -9.2138e-19 -4.72784)
(8.95145e-20 1.30049e-18 -4.66618)
(2.43346e-19 -3.20349e-19 -4.60449)
(-3.25483e-21 2.12367e-20 -4.54306)
(1.42592e-20 7.21491e-19 -4.5011)
(-2.33349e-20 7.90949e-18 3.88429)
(-1.92666e-19 -6.49026e-18 0.793906)
(4.25248e-19 -2.50587e-17 -1.81163)
(-4.66219e-19 2.10448e-17 -3.30161)
(1.75612e-17 1.84677e-17 -4.21877)
(-1.73e-17 -1.5873e-17 -4.69684)
(0 -0 -4.94047)
(-3.58745e-17 3.20146e-17 -5.05434)
(3.67676e-17 -5.99598e-17 -5.09233)
(-3.28803e-17 -7.23982e-17 -5.08689)
(3.14853e-17 1.24907e-16 -5.0571)
(1.30728e-19 1.04021e-16 -5.01373)
(7.36299e-19 -1.21329e-16 -4.96294)
(-1.33533e-16 -7.16025e-17 -4.90818)
(1.27542e-16 1.28136e-16 -4.85148)
(7.90027e-17 -1.20586e-16 -4.79415)
(-1.35537e-16 -1.38662e-17 -4.73709)
(5.95399e-17 1.34412e-16 -4.68097)
(3.38538e-18 -6.37496e-17 -4.62634)
(0 -0 -4.57353)
(1.30194e-16 -0 -4.52261)
(-1.30347e-16 -0 -4.47339)
(-8.42583e-18 1.24173e-16 -4.42539)
(-1.20084e-16 -1.11794e-16 -4.37792)
(1.37792e-16 -1.36664e-16 -4.33009)
(-9.16679e-18 1.24285e-16 -4.28088)
(0 -0 -4.2292)
(1.2681e-16 -0 -4.174)
(-5.87474e-19 -0 -4.11444)
(-1.37244e-16 1.21207e-16 -4.05014)
(1.67156e-17 -1.10782e-16 -3.9812)
(2.61996e-16 -1.31852e-16 -3.90762)
(-3.98907e-16 1.13888e-16 -3.82737)
(2.3191e-16 -2.21586e-18 -3.72436)
(-2.00497e-17 2.50013e-16 -3.61096)
(-4.66186e-16 -5.48313e-16 -3.53085)
(6.82695e-16 -1.03651e-16 -3.50574)
(3.4527e-16 1.68575e-15 -3.54944)
(-7.32418e-16 -2.75552e-16 -3.68321)
(-1.83033e-16 -1.05916e-15 -3.93971)
(-1.23813e-16 -2.03107e-16 -4.34081)
(-1.42059e-15 7.91237e-17 -4.80917)
(2.66357e-16 4.71541e-16 -5.3255)
(1.08151e-15 7.70614e-16 -5.89296)
(-1.47171e-15 -1.83623e-15 -6.48351)
(1.73071e-15 -1.65767e-15 -7.09287)
(-6.40726e-16 5.50543e-16 -7.70277)
(-5.22855e-17 6.07403e-16 -8.28592)
(2.69261e-17 -1.48055e-16 -8.85207)
(-4.29822e-17 1.50677e-15 -9.37041)
(5.01119e-16 5.43074e-16 -9.83919)
(1.87975e-16 -1.34748e-15 -10.2558)
(-3.65737e-17 -6.66595e-16 -10.5998)
(1.75481e-16 -1.89621e-16 -10.885)
(-6.1703e-16 -3.65676e-17 -11.0898)
(-3.2316e-16 9.63225e-17 -11.2262)
(-4.11618e-16 -3.51231e-17 -11.2814)
(-2.59834e-17 2.3535e-16 -11.2549)
(-1.08427e-16 2.01828e-16 -11.1438)
(1.64001e-16 -2.94373e-17 -10.9505)
(6.26248e-17 1.26156e-16 -10.6648)
(-2.97566e-16 -1.1102e-16 -10.2931)
(4.83437e-16 -3.52291e-16 -9.84589)
(3.93034e-16 -7.27675e-16 -9.32396)
(-1.47241e-16 -2.02713e-16 -8.75157)
(-5.16345e-16 8.99805e-16 -8.13243)
(-9.04905e-16 4.25244e-16 -7.50422)
(1.4096e-16 7.20033e-17 -6.85331)
(2.3605e-17 -2.26315e-16 -6.21889)
(-6.82747e-16 4.19223e-16 -5.60118)
(1.39344e-17 1.32086e-15 -5.01565)
(1.26445e-15 -1.37216e-15 -4.48085)
(-1.02376e-15 -7.43018e-16 -3.98716)
(1.96129e-15 -1.25935e-15 -3.55244)
(8.92199e-16 -7.21066e-16 -3.17474)
(-1.74713e-16 1.89629e-15 -2.851)
(8.29479e-16 -3.72913e-16 -2.58471)
(6.00069e-17 -9.47175e-17 -2.37055)
(1.50377e-15 7.13373e-16 -2.20275)
(1.75438e-16 -2.41535e-15 -2.08014)
(7.84888e-16 -3.15309e-15 -1.99626)
(-3.61952e-17 2.36136e-15 -1.9442)
(6.41531e-16 -3.48601e-16 -1.91969)
(6.89363e-16 -1.35724e-15 -1.91721)
(-6.35699e-16 4.75753e-16 -1.93216)
(1.22115e-15 -8.58435e-16 -1.9616)
(-1.81567e-15 4.13256e-16 -1.99957)
(-1.20322e-15 -4.966e-17 -2.04219)
(-5.72984e-16 1.03763e-15 -2.09015)
(-1.03754e-17 6.15692e-16 -2.13743)
(1.11098e-17 7.05115e-16 -2.18001)
(2.23825e-17 3.09806e-16 -2.22122)
(-2.5928e-16 1.5189e-16 -2.25529)
(2.65919e-16 -4.03338e-16 -2.28008)
(-5.86234e-18 -2.79029e-17 -2.30204)
(-7.97356e-17 2.74487e-16 -2.30891)
(2.59631e-17 -2.29713e-16 -2.31318)
(-1.99196e-17 -5.2762e-16 -2.30202)
(6.89603e-16 4.34884e-17 -2.28847)
(6.07112e-17 3.39285e-16 -2.26154)
(-5.24853e-17 -1.35545e-17 -2.23499)
(7.50049e-17 -9.02318e-17 -2.20197)
(1.46705e-18 5.01694e-17 -2.1721)
(-2.98857e-19 -4.64817e-17 -2.14671)
(-1.67546e-18 -1.04587e-16 -2.12933)
(-9.52312e-17 -2.37171e-17 -2.12468)
(-1.02191e-16 -1.39822e-16 -2.13531)
(-3.84397e-16 -1.15737e-16 -2.16272)
(5.92576e-16 6.61963e-16 -2.21001)
(-4.08719e-16 -3.66224e-16 -2.27664)
(4.17321e-16 -1.04246e-16 -2.36398)
(-5.13847e-18 2.57607e-16 -2.47058)
(1.10357e-17 -2.69353e-16 -2.59839)
(3.10533e-17 2.44615e-16 -2.7407)
(-4.03051e-18 3.189e-16 -2.90696)
(-3.65092e-18 -2.96107e-16 -3.08297)
(2.02327e-16 6.93254e-16 -3.27816)
(1.49834e-16 7.63643e-16 -3.48898)
(-9.85481e-16 -1.64673e-15 -3.71043)
(-3.91621e-16 -3.5627e-16 -3.94823)
(9.9772e-16 1.40056e-15 -4.20032)
(3.01092e-16 -9.29258e-16 -4.46279)
(-3.15569e-16 -4.90985e-16 -4.73962)
(-5.84223e-16 -5.11878e-16 -5.03166)
(-2.10774e-16 1.0047e-15 -5.3338)
(-6.88635e-16 -1.90201e-17 -5.64993)
(4.61737e-16 -7.10432e-16 -5.97821)
(-6.90071e-16 -6.94846e-17 -6.31725)
(-6.16197e-16 -1.80746e-15 -6.66849)
(-8.95928e-16 -9.10742e-16 -7.0301)
(-3.19617e-16 2.10394e-16 -7.3915)
(-5.85861e-16 -4.55624e-16 -7.7654)
(-5.04676e-16 -1.08591e-15 -8.14339)
(7.86256e-16 6.97487e-16 -8.50501)
(-7.65778e-16 1.25872e-16 -8.87371)
(-1.62062e-17 -2.84182e-16 -9.23287)
(-2.99558e-17 -1.41779e-16 -9.55054)
(-2.16906e-16 6.14574e-17 -9.87402)
(-1.87254e-17 3.41185e-17 -10.1443)
(-2.36759e-16 1.94559e-17 -10.3883)
(2.03894e-16 2.46694e-16 -10.5845)
(8.91351e-16 5.4628e-17 -10.7284)
(-7.88609e-17 7.35221e-17 -10.8154)
(2.25496e-17 2.2142e-16 -10.8429)
(-1.65722e-16 8.25457e-17 -10.7904)
(2.42061e-17 -2.59385e-16 -10.683)
(7.496e-17 -1.88099e-17 -10.4711)
(-9.98314e-17 9.11135e-17 -10.1904)
(1.28948e-16 2.36908e-17 -9.80797)
(-2.11808e-16 1.92573e-16 -9.33232)
(7.37677e-17 -2.41482e-16 -8.7741)
(1.71702e-16 -3.6263e-16 -8.1221)
(-1.90168e-16 1.32137e-16 -7.4017)
(5.57986e-17 3.61821e-17 -6.61581)
(-2.00112e-16 2.04822e-17 -5.81387)
(-1.80948e-16 3.61957e-16 -5.00412)
(3.84968e-16 -1.62947e-16 -4.21668)
(-2.01246e-16 7.85845e-17 -3.51761)
(-3.08947e-18 -1.29858e-17 -2.95725)
(4.73732e-16 -2.96971e-16 -2.53697)
(1.66754e-16 -1.36739e-16 -2.36722)
(-2.87939e-16 2.69941e-16 -2.45883)
(2.86571e-17 -3.55337e-17 -2.69201)
(2.89348e-17 -2.12263e-17 -2.9735)
(-3.18296e-17 6.49183e-19 -3.27016)
(-3.15123e-17 -3.17747e-17 -3.56995)
(-1.08916e-17 -6.22133e-17 -3.8575)
(2.96977e-17 4.30939e-17 -4.12186)
(2.49098e-17 1.32592e-18 -4.32124)
(2.92105e-18 1.90348e-17 -4.46787)
(-2.14898e-17 8.81621e-18 -4.59065)
(2.12224e-18 -2.12966e-17 -4.70642)
(4.28897e-17 2.65536e-18 -4.82144)
(-4.37183e-17 -5.06694e-19 -4.93529)
(-2.11323e-18 -2.01704e-17 -5.04409)
(-2.03804e-17 -1.85894e-18 -5.14212)
(3.886e-17 5.11935e-17 -5.22416)
(-2.14681e-17 -1.50404e-17 -5.2863)
(1.00049e-18 -3.3025e-17 -5.3267)
(1.11391e-18 1.62645e-17 -5.34541)
(-9.97557e-18 8.6993e-19 -5.34388)
(7.91022e-18 4.0735e-18 -5.32474)
(2.16648e-18 6.87386e-18 -5.29127)
(1.1099e-17 -1.07075e-17 -5.24683)
(-1.07045e-17 -9.66934e-18 -5.19467)
(-6.13369e-18 3.0512e-18 -5.13767)
(7.04727e-18 8.9399e-19 -5.07831)
(-4.95395e-18 1.32478e-18 -5.01852)
(4.81651e-18 -9.074e-19 -4.95974)
(-1.58083e-18 -2.22052e-18 -4.90293)
(2.70496e-18 -1.95591e-18 -4.84865)
(1.75811e-18 5.28527e-18 -4.79711)
(-1.44754e-18 9.30593e-19 -4.74821)
(2.55686e-19 -5.25177e-18 -4.70166)
(7.65182e-20 1.14882e-18 -4.65694)
(-4.18668e-19 -1.30266e-18 -4.61349)
(1.1918e-19 -1.51128e-18 -4.57104)
(1.76719e-19 -4.16821e-19 -4.53029)
(1.94397e-19 8.68421e-19 -4.49392)
(3.09377e-20 -8.01146e-19 -4.4788)
(0 -0 2.88735)
(8.42512e-18 -0 1.75712)
(-8.28071e-18 -1.5671e-17 0.382429)
(1.30269e-19 1.27957e-17 -0.845916)
(-3.09153e-19 1.85812e-17 -1.87772)
(2.31682e-19 -1.57059e-17 -2.71543)
(3.27691e-17 -0 -3.35033)
(-3.28437e-17 -0 -3.83895)
(1.47937e-18 -0 -4.20737)
(-3.17194e-18 -0 -4.48569)
(-6.87142e-17 6.26399e-17 -4.69592)
(7.03444e-17 -5.32399e-17 -4.85305)
(6.86694e-17 -9.77488e-18 -4.96833)
(-1.48615e-18 -5.29858e-17 -5.05)
(2.20985e-19 -1.82832e-17 -5.10413)
(-6.99559e-17 1.96396e-16 -5.13557)
(-6.54863e-17 -1.1606e-16 -5.14855)
(7.12488e-17 -7.09791e-17 -5.1469)
(-3.30769e-18 6.22866e-17 -5.1341)
(7.08875e-17 -1.22793e-16 -5.11333)
(-7.10718e-17 1.06086e-16 -5.08732)
(-7.87793e-18 1.39644e-16 -5.05834)
(-2.60361e-19 -1.50813e-18 -5.02813)
(1.51512e-17 -1.05217e-16 -4.99788)
(1.26939e-16 -1.37751e-16 -4.96829)
(-1.33963e-16 1.21539e-16 -4.93956)
(-1.14379e-16 -1.19602e-16 -4.91152)
(1.12319e-18 -1.48464e-17 -4.88374)
(2.26453e-16 2.39233e-16 -4.85565)
(-1.34157e-16 1.32944e-16 -4.82677)
(3.83383e-17 -3.41621e-16 -4.79674)
(-1.27045e-16 -2.84045e-17 -4.76496)
(1.08988e-16 1.40414e-16 -4.72968)
(1.13926e-16 -1.31803e-17 -4.67926)
(-1.45872e-16 2.37293e-16 -4.61219)
(2.79238e-16 -1.9166e-16 -4.53134)
(-9.50718e-16 -7.25599e-16 -4.42977)
(-9.18701e-16 -8.46215e-16 -4.32372)
(1.04129e-15 6.50537e-16 -4.2382)
(4.19225e-16 1.02144e-15 -4.20151)
(-1.35926e-16 1.33184e-15 -4.23902)
(1.07255e-15 -4.86354e-16 -4.32894)
(3.94031e-16 -2.5362e-15 -4.48283)
(-1.09698e-15 5.50866e-16 -4.70721)
(4.95231e-16 1.42927e-15 -4.98766)
(-1.10904e-15 -3.83656e-16 -5.31742)
(-7.84921e-16 -4.68324e-17 -5.68149)
(-4.99482e-16 -2.74374e-16 -6.06261)
(-7.48563e-16 -2.39423e-16 -6.45964)
(-5.00467e-16 -1.30813e-15 -6.85186)
(1.31396e-15 3.81702e-16 -7.23493)
(-6.84222e-16 7.92527e-16 -7.60253)
(2.09845e-17 7.18023e-16 -7.94391)
(-8.3688e-16 -2.2181e-16 -8.2611)
(-5.32201e-17 -1.39672e-17 -8.54312)
(7.54986e-19 -2.94224e-16 -8.79179)
(-5.3694e-16 -3.39851e-16 -8.99826)
(-1.49895e-16 -1.42869e-16 -9.15884)
(8.0399e-18 -4.49232e-17 -9.26747)
(8.38838e-17 -3.37945e-17 -9.31854)
(-1.60518e-16 6.3588e-17 -9.30639)
(3.33902e-16 -1.95218e-16 -9.22382)
(-4.67595e-16 -3.2505e-18 -9.0745)
(1.8116e-16 8.87095e-16 -8.85661)
(-7.88551e-16 8.90152e-16 -8.5847)
(8.02907e-16 -7.10993e-16 -8.25807)
(-2.26944e-16 -2.9976e-16 -7.90353)
(1.54464e-16 -1.66874e-16 -7.51989)
(-5.72559e-16 6.70537e-16 -7.13503)
(4.11572e-16 -6.87777e-17 -6.75366)
(2.66214e-16 -1.51918e-15 -6.38974)
(6.32198e-16 4.01166e-16 -6.05839)
(-6.33395e-16 5.7858e-16 -5.75435)
(-2.42956e-17 -1.0851e-15 -5.49226)
(-9.82136e-16 1.50315e-15 -5.26864)
(4.4116e-17 -7.69395e-16 -5.08045)
(7.82169e-16 -6.98536e-16 -4.92959)
(4.28973e-17 -9.14518e-17 -4.80939)
(1.57667e-15 -1.83463e-15 -4.71284)
(1.43459e-15 -2.65349e-16 -4.63832)
(-2.9279e-15 3.51271e-15 -4.58043)
(-7.03597e-16 -2.3464e-16 -4.53272)
(7.33259e-16 -1.33136e-15 -4.49185)
(-7.22405e-16 1.23581e-15 -4.45349)
(3.08816e-18 -7.55431e-16 -4.41351)
(-1.26628e-15 2.22046e-15 -4.37118)
(1.22238e-15 2.31932e-15 -4.32283)
(-2.63288e-16 -3.51879e-16 -4.26457)
(-5.20801e-16 -1.80182e-15 -4.20115)
(-1.64222e-15 1.83419e-16 -4.12836)
(-2.54865e-16 1.3885e-16 -4.04214)
(1.49877e-17 1.01544e-17 -3.94913)
(2.63814e-16 -1.09044e-16 -3.84547)
(-3.6377e-17 -2.98874e-16 -3.72691)
(-4.3163e-16 1.75164e-16 -3.60677)
(-2.08312e-17 2.66423e-16 -3.46929)
(2.19033e-16 -1.14429e-16 -3.33363)
(-6.62822e-16 -4.55333e-17 -3.18427)
(-3.70767e-16 8.89944e-17 -3.03981)
(-2.03686e-17 2.01666e-16 -2.88731)
(9.98171e-17 -2.27852e-17 -2.74484)
(-9.57251e-17 7.32071e-17 -2.60526)
(6.06313e-17 -1.65979e-17 -2.47928)
(-7.01959e-19 -1.28832e-17 -2.36916)
(8.87011e-19 1.00638e-16 -2.27749)
(-2.01413e-16 1.27598e-16 -2.20917)
(-4.14568e-19 1.30024e-16 -2.16536)
(-1.98929e-16 -6.24166e-16 -2.14659)
(-1.77224e-16 -1.12832e-16 -2.15446)
(3.73635e-16 6.53731e-16 -2.18699)
(-1.1692e-17 -2.37145e-16 -2.24364)
(5.88754e-18 -1.2127e-17 -2.32183)
(2.40738e-18 2.51457e-16 -2.42133)
(-2.23283e-16 -7.17158e-17 -2.53555)
(3.97136e-16 -5.55733e-17 -2.67031)
(9.96399e-18 -2.13522e-16 -2.81345)
(-6.39559e-16 -1.25461e-15 -2.97133)
(3.60183e-16 8.02561e-16 -3.14021)
(8.63309e-16 2.10108e-15 -3.31564)
(-5.70462e-16 -1.37063e-15 -3.5012)
(9.74901e-16 -6.48213e-16 -3.69499)
(-7.65096e-16 4.65275e-16 -3.89386)
(-4.61271e-16 1.0296e-15 -4.10058)
(-2.35035e-16 9.16148e-17 -4.31545)
(-6.14477e-16 -9.38462e-16 -4.53508)
(1.579e-15 5.97356e-16 -4.76233)
(-1.06107e-16 2.22276e-17 -4.99617)
(4.56112e-16 8.4724e-16 -5.23582)
(-4.25254e-16 5.47386e-16 -5.48237)
(-7.56283e-16 -3.79126e-16 -5.73539)
(-3.83455e-16 -5.46194e-16 -5.98867)
(-5.51259e-17 6.91359e-17 -6.24961)
(-6.53558e-16 -1.07538e-16 -6.5145)
(-6.15416e-16 -7.94552e-16 -6.77029)
(-3.32604e-17 2.47725e-16 -7.03231)
(-1.16429e-16 -1.96522e-16 -7.29057)
(-5.23881e-16 -6.05069e-17 -7.52819)
(-1.55912e-16 9.31112e-17 -7.77232)
(1.55478e-16 -3.55907e-18 -7.99124)
(6.14492e-17 -1.25654e-16 -8.19981)
(2.91314e-16 -9.6967e-16 -8.38877)
(-2.72125e-16 -1.87648e-16 -8.55541)
(-8.93533e-17 1.68637e-16 -8.6992)
(2.41295e-16 2.76625e-16 -8.8183)
(3.28797e-16 1.03941e-16 -8.90104)
(1.16623e-16 -4.95846e-17 -8.96065)
(-1.14724e-16 4.29322e-17 -8.96347)
(7.33972e-17 5.31684e-17 -8.93059)
(-5.89905e-17 -3.12698e-17 -8.83507)
(2.79931e-16 1.35254e-17 -8.67309)
(3.71517e-17 -1.4946e-16 -8.45124)
(-2.79002e-16 3.16184e-16 -8.14576)
(-4.66583e-17 9.06251e-17 -7.78493)
(8.28168e-17 -1.25349e-16 -7.3517)
(-2.02184e-16 2.80326e-16 -6.89089)
(1.01766e-16 -3.30105e-16 -6.39872)
(-2.63484e-16 -4.4993e-18 -5.93199)
(3.04378e-16 4.79761e-17 -5.52775)
(-2.6514e-17 -1.86049e-16 -5.25383)
(-3.21929e-18 -5.91233e-17 -5.11219)
(-1.55819e-16 2.22916e-16 -5.21615)
(1.36651e-16 -4.47567e-17 -5.51188)
(2.63831e-17 -6.17109e-17 -5.86493)
(1.20799e-16 -3.75431e-17 -6.16849)
(-2.31918e-17 5.43225e-17 -6.36862)
(3.18716e-17 1.644e-17 -6.46198)
(-7.79359e-17 -8.03824e-18 -6.44875)
(-5.75766e-18 -5.30853e-17 -6.34926)
(4.90525e-18 2.58131e-18 -6.1719)
(2.59301e-17 3.7045e-17 -5.95374)
(-2.75687e-19 1.61396e-17 -5.73906)
(-8.08722e-18 -4.03781e-17 -5.55761)
(-5.26547e-18 -3.16164e-19 -5.42405)
(5.10129e-18 4.00824e-17 -5.34192)
(4.54017e-18 -1.264e-17 -5.30774)
(-4.28317e-17 -8.75859e-20 -5.31347)
(3.5681e-17 -1.58642e-17 -5.34887)
(1.79023e-17 -7.56846e-18 -5.40323)
(-1.2963e-17 3.59953e-17 -5.46613)
(-4.49323e-18 -1.26971e-17 -5.52908)
(9.19248e-18 3.06672e-18 -5.58629)
(-6.80409e-18 -3.02307e-18 -5.63357)
(7.36725e-19 -7.94434e-18 -5.66834)
(5.81662e-18 -3.57591e-18 -5.68947)
(-1.20512e-17 1.61332e-17 -5.69705)
(7.92791e-19 -3.91236e-18 -5.69211)
(-1.70352e-18 -3.85284e-18 -5.67625)
(-1.36204e-18 4.48274e-18 -5.65141)
(3.31062e-18 5.88958e-18 -5.61961)
(-4.10566e-18 -1.34835e-17 -5.58278)
(-3.88371e-18 -4.03789e-19 -5.54264)
(4.04714e-18 -2.45237e-18 -5.50062)
(-1.31181e-18 4.75653e-18 -5.45785)
(-1.26667e-18 -4.71329e-18 -5.4151)
(3.61316e-20 5.65125e-18 -5.37288)
(7.73887e-19 1.22833e-18 -5.33152)
(-6.97063e-19 1.63069e-18 -5.29145)
(-7.25203e-20 -1.49316e-18 -5.25389)
(2.60257e-19 -3.27499e-18 -5.22098)
(-1.05873e-19 1.89383e-19 -5.20712)
(0 -0 2.01983)
(0 -0 1.59182)
(1.39418e-19 -1.57521e-17 1.03953)
(3.3205e-19 1.27451e-17 0.290285)
(-5.79018e-19 1.87169e-17 -0.445715)
(7.80352e-19 -4.67023e-17 -1.17104)
(3.27459e-17 2.50495e-17 -1.8497)
(-6.72427e-17 6.78596e-17 -2.45324)
(3.43384e-17 -8.68995e-17 -2.95129)
(9.45612e-19 -1.17216e-17 -3.37586)
(-2.30859e-18 6.76074e-17 -3.72887)
(6.75416e-17 -3.0903e-17 -4.01651)
(-1.28238e-16 -6.11834e-17 -4.24946)
(1.3082e-16 -1.08854e-17 -4.43574)
(-1.40943e-16 1.83408e-16 -4.58154)
(6.85199e-17 -3.9323e-17 -4.6922)
(9.24293e-18 -1.33055e-16 -4.77275)
(-6.19502e-18 6.10396e-17 -4.82797)
(3.37403e-18 -6.01918e-17 -4.86249)
(5.89589e-17 4.97014e-17 -4.88071)
(-7.24757e-17 7.0761e-17 -4.88678)
(1.01239e-17 -6.02707e-17 -4.88446)
(-1.31155e-16 1.18609e-16 -4.87704)
(1.45849e-16 -2.1639e-16 -4.86728)
(-5.71069e-18 -4.10896e-17 -4.8573)
(-2.70136e-17 3.7428e-16 -4.84866)
(8.37621e-18 -9.89621e-17 -4.84229)
(2.19065e-17 -3.50525e-16 -4.83867)
(-1.28082e-16 7.81105e-17 -4.83786)