/*--------------------------------*- C++ -*----------------------------------*\
| =========                 |                                                 |
| \\      /  F ield         | OpenFOAM: The Open Source CFD Toolbox           |
|  \\    /   O peration     | Version:  2506                                  |
|   \\  /    A nd           | Website:  www.openfoam.com                      |
|    \\/     M anipulation  |                                                 |
\*---------------------------------------------------------------------------*/
FoamFile
{
    version     2.0;
    format      ascii;
    arch        "LSB;label=32;scalar=64";
    class       surfaceScalarField;
    location    "3.4";
    object      phi;
}
// * * * * * * * * * * * * * * * * * * * * * * * * * * * * * * * * * * * * * //

dimensions      [0 3 -1 0 0 0 0];

oriented        oriented;

internalField   nonuniform List<scalar> 
7780
(
7.08965e-10
1.91035e-10
5.18012e-10
1.90953e-10
3.85284e-10
1.32729e-10
2.91357e-10
9.39269e-11
2.22318e-10
6.90401e-11
1.70155e-10
5.21636e-11
1.2957e-10
4.05852e-11
9.70701e-11
3.25007e-11
7.04453e-11
2.66252e-11
4.82737e-11
2.21719e-11
2.95988e-11
1.86752e-11
1.37483e-11
1.58507e-11
1.97754e-13
1.35509e-11
-1.1475e-11
1.1673e-11
-2.16088e-11
1.01342e-11
-3.04864e-11
8.87795e-12
-3.83553e-11
7.86921e-12
-4.54297e-11
7.07479e-12
-5.18942e-11
6.46484e-12
-5.79051e-11
6.01121e-12
-6.35933e-11
5.68853e-12
-6.90686e-11
5.47557e-12
-7.44139e-11
5.34551e-12
-7.96868e-11
5.27308e-12
-8.49593e-11
5.2727e-12
-9.02702e-11
5.31117e-12
-9.56339e-11
5.36388e-12
-1.01048e-10
5.41475e-12
-1.06465e-10
5.41726e-12
-1.11736e-10
5.27226e-12
-1.16546e-10
4.81125e-12
-1.19957e-10
3.41212e-12
-1.20332e-10
3.75901e-13
-1.12769e-10
-7.56302e-12
-1.00448e-10
-1.23225e-11
-8.93998e-11
-1.1049e-11
-7.66822e-11
-1.27121e-11
-6.04453e-11
-1.62188e-11
-4.13302e-11
-1.90827e-11
-2.00968e-11
-2.11971e-11
2.91636e-12
-2.29953e-11
2.92546e-11
-2.63599e-11
5.67912e-11
-2.75994e-11
8.36359e-11
-2.69341e-11
1.08337e-10
-2.47947e-11
1.30302e-10
-2.20413e-11
1.4965e-10
-1.93956e-11
1.65266e-10
-1.56301e-11
1.78304e-10
-1.30243e-11
1.88036e-10
-9.69998e-12
1.94291e-10
-6.2146e-12
1.98033e-10
-3.7035e-12
1.97716e-10
3.48583e-13
1.94747e-10
2.99123e-12
1.87724e-10
7.03592e-12
1.78102e-10
9.62867e-12
1.65578e-10
1.25246e-11
1.50032e-10
1.55418e-11
1.33336e-10
1.66871e-11
1.13884e-10
1.94417e-11
9.45384e-11
1.93393e-11
7.47309e-11
1.98151e-11
5.53071e-11
1.94565e-11
3.65927e-11
1.87781e-11
1.86381e-11
1.80452e-11
1.52735e-12
1.72105e-11
-1.46928e-11
1.63034e-11
-3.03936e-11
1.57393e-11
-4.53633e-11
1.49456e-11
-6.00333e-11
1.45815e-11
-7.46874e-11
1.45184e-11
-8.87394e-11
1.39001e-11
-1.0299e-10
1.41223e-11
-1.16935e-10
1.3875e-11
-1.30426e-10
1.35075e-11
-1.43806e-10
1.34869e-11
-1.56584e-10
1.29604e-11
-1.68427e-10
1.2065e-11
-1.79709e-10
1.14997e-11
-1.90323e-10
1.07866e-11
-2.00162e-10
9.94015e-12
-2.09466e-10
9.33002e-12
-2.18297e-10
8.79085e-12
-2.26808e-10
8.42689e-12
-2.3548e-10
8.56703e-12
-2.44089e-10
8.50067e-12
-2.52638e-10
8.44819e-12
-2.62133e-10
9.40826e-12
-2.71727e-10
9.52337e-12
-2.81071e-10
9.29005e-12
-2.91577e-10
1.04675e-11
-3.01677e-10
1.00751e-11
-3.11228e-10
9.53636e-12
-3.21718e-10
1.04838e-11
-3.30121e-10
8.40261e-12
-3.39703e-10
9.58495e-12
-3.46494e-10
6.79463e-12
-3.53839e-10
7.34874e-12
-3.57565e-10
3.72996e-12
-3.62234e-10
4.67149e-12
-3.6317e-10
9.38537e-13
-3.6372e-10
5.49942e-13
-3.62068e-10
-1.65228e-12
-3.57681e-10
-4.38916e-12
-3.52938e-10
-4.74707e-12
-3.44286e-10
-8.65817e-12
-3.35587e-10
-8.70864e-12
-3.2363e-10
-1.19708e-11
-3.10521e-10
-1.3127e-11
-2.95442e-10
-1.50989e-11
-2.78766e-10
-1.66959e-11
-2.60097e-10
-1.86853e-11
-2.40446e-10
-1.96543e-11
-2.18306e-10
-2.21223e-11
-1.96119e-10
-2.21379e-11
-1.72129e-10
-2.38988e-11
-1.47384e-10
-2.46066e-11
-1.22313e-10
-2.48873e-11
-9.66613e-11
-2.54346e-11
-7.11778e-11
-2.52551e-11
-4.62778e-11
-2.46928e-11
-2.20591e-11
-2.40698e-11
1.08581e-12
-2.30897e-11
2.28621e-11
-2.18423e-11
4.31216e-11
-2.04577e-11
6.17048e-11
-1.8902e-11
7.8539e-11
-1.72367e-11
9.36052e-11
-1.54946e-11
1.0702e-10
-1.38006e-11
1.19098e-10
-1.23568e-11
1.29474e-10
-1.04982e-11
1.3849e-10
-8.95921e-12
1.46515e-10
-7.79436e-12
1.53171e-10
-6.28471e-12
1.58836e-10
-5.20193e-12
1.63988e-10
-4.65543e-12
1.67614e-10
-3.16203e-12
1.70741e-10
-2.75018e-12
1.72355e-10
-1.37162e-12
1.72696e-10
-2.55366e-13
1.71404e-10
1.22412e-12
1.68156e-10
3.05774e-12
1.62432e-10
5.46534e-12
1.54178e-10
7.98563e-12
1.42399e-10
1.15525e-11
1.28639e-10
1.35999e-11
1.11181e-10
1.73675e-11
9.20725e-11
1.9072e-11
7.11444e-11
2.09223e-11
4.90294e-11
2.21205e-11
2.65422e-11
2.24925e-11
3.92237e-12
2.26205e-11
-1.86845e-11
2.26058e-11
-4.08304e-11
2.21486e-11
-6.39217e-11
2.31045e-11
-8.70652e-11
2.31709e-11
-1.11664e-10
2.46365e-11
-1.34542e-10
2.29145e-11
-1.52513e-10
1.79901e-11
-1.57953e-10
5.43597e-12
-1.81366e-10
2.3396e-11
-2.00734e-10
1.93526e-11
-2.14532e-10
1.37882e-11
-2.21351e-10
6.81615e-12
-2.26349e-10
4.99912e-12
-2.27871e-10
1.52307e-12
-2.31562e-10
3.68976e-12
-2.24489e-10
-7.07629e-12
-2.06724e-10
-1.77671e-11
-1.8373e-10
-2.2995e-11
-1.59484e-10
-2.4245e-11
-1.36682e-10
-2.28008e-11
-1.16989e-10
-1.96894e-11
-1.01229e-10
-1.57568e-11
-8.9637e-11
-1.15885e-11
-8.21079e-11
-7.52583e-12
-7.80887e-11
-4.01653e-12
-7.68355e-11
-1.25115e-12
-7.79731e-11
1.13893e-12
-8.05788e-11
2.60642e-12
-8.40177e-11
3.43904e-12
-8.77228e-11
3.70478e-12
-9.12201e-11
3.49674e-12
-9.41647e-11
2.94388e-12
-9.63347e-11
2.16928e-12
-9.76352e-11
1.29975e-12
-9.81269e-11
4.91094e-13
-9.79386e-11
-1.88764e-13
-9.73402e-11
-5.98689e-13
-9.65875e-11
-7.52897e-13
-9.59532e-11
-6.34345e-13
-9.57482e-11
-2.04881e-13
-9.61535e-11
4.05438e-13
-9.73206e-11
1.16731e-12
-9.93869e-11
2.06656e-12
-1.02465e-10
3.07834e-12
-1.06687e-10
4.22241e-12
-1.1239e-10
5.70264e-12
-1.20492e-10
8.10344e-12
1.09121e-11
9.27019e-10
1.64016e-10
8.51265e-10
2.66706e-10
7.29568e-10
2.54426e-10
6.02611e-10
2.20884e-10
4.86495e-10
1.85157e-10
3.85364e-10
1.53296e-10
2.98951e-10
1.26998e-10
2.25511e-10
1.05941e-10
1.6301e-10
8.91272e-11
1.09642e-10
7.55409e-11
6.38886e-11
6.44289e-11
2.44878e-11
5.52522e-11
-9.5588e-12
4.75981e-11
-3.90949e-11
4.12097e-11
-6.48799e-11
3.59196e-11
-8.75977e-11
3.15962e-11
-1.07843e-10
2.81148e-11
-1.26131e-10
2.53635e-11
-1.42907e-10
2.3241e-11
-1.5855e-10
2.16538e-11
-1.73372e-10
2.05118e-11
-1.87624e-10
1.97273e-11
-2.01506e-10
1.92276e-11
-2.15169e-10
1.89369e-11
-2.28681e-10
1.87846e-11
-2.42079e-10
1.87096e-11
-2.55353e-10
1.8639e-11
-2.68399e-10
1.84609e-11
-2.81006e-10
1.80249e-11
-2.92863e-10
1.71307e-11
-3.03262e-10
1.52111e-11
-3.11092e-10
1.12439e-11
-3.14395e-10
3.68001e-12
-3.10071e-10
-1.18877e-11
-2.96026e-10
-2.63697e-11
-2.72642e-10
-3.44407e-11
-2.39483e-10
-4.58835e-11
-1.97227e-10
-5.84831e-11
-1.47811e-10
-6.8491e-11
-9.30975e-11
-7.58755e-11
-3.3931e-11
-8.21025e-11
2.7348e-11
-8.75805e-11
8.71489e-11
-8.73673e-11
1.43196e-10
-8.2984e-11
1.9364e-10
-7.52721e-11
2.37977e-10
-6.64304e-11
2.76295e-10
-5.77678e-11
3.07409e-10
-4.67865e-11
3.32263e-10
-3.79041e-11
3.50585e-10
-2.80285e-11
3.6211e-10
-1.7732e-11
3.67486e-10
-9.06327e-12
3.6503e-10
2.82353e-12
3.56499e-10
1.15374e-11
3.40107e-10
2.34373e-11
3.17026e-10
3.27131e-11
2.87089e-10
4.24599e-11
2.50469e-10
5.21566e-11
2.09405e-10
5.77461e-11
1.62572e-10
6.6272e-11
1.13465e-10
6.84513e-11
6.226e-11
7.10389e-11
1.04115e-11
7.13375e-11
-4.09301e-11
7.016e-11
-9.12067e-11
6.83565e-11
-1.39911e-10
6.59268e-11
-1.86676e-10
6.30453e-11
-2.31832e-10
6.08335e-11
-2.75153e-10
5.81767e-11
-3.17004e-10
5.63366e-11
-3.57801e-10
5.52383e-11
-3.96899e-10
5.29637e-11
-4.35297e-10
5.25436e-11
-4.72344e-10
5.10057e-11
-5.07813e-10
4.91086e-11
-5.42089e-10
4.79183e-11
-5.74527e-10
4.55437e-11
-6.04646e-10
4.22858e-11
-6.32651e-10
3.95442e-11
-6.58448e-10
3.65598e-11
-6.81885e-10
3.33045e-11
-7.03224e-10
3.05725e-11
-7.22618e-10
2.80896e-11
-7.40359e-10
2.60922e-11
-7.57116e-10
2.52759e-11
-7.72967e-10
2.433e-11
-7.88097e-10
2.3577e-11
-8.03548e-10
2.48713e-11
-8.18843e-10
2.48385e-11
-8.33803e-10
2.42742e-11
-8.49284e-10
2.59733e-11
-8.64339e-10
2.51528e-11
-8.78574e-10
2.37909e-11
-8.92836e-10
2.47606e-11
-9.05091e-10
2.06685e-11
-9.16971e-10
2.14709e-11
-9.26012e-10
1.58378e-11
-9.33709e-10
1.50466e-11
-9.37665e-10
7.68561e-12
-9.39959e-10
6.96323e-12
-9.3783e-10
-1.19214e-12
-9.32964e-10
-4.31721e-12
-9.23852e-10
-1.07647e-11
-9.10589e-10
-1.76515e-11
-8.93824e-10
-2.15105e-11
-8.72128e-10
-3.03515e-11
-8.46536e-10
-3.4297e-11
-8.16361e-10
-4.21435e-11
-7.81951e-10
-4.75384e-11
-7.43404e-10
-5.36532e-11
-7.00848e-10
-5.92689e-11
-6.54726e-10
-6.48372e-11
-6.05366e-10
-6.90602e-11
-5.52956e-10
-7.45928e-11
-4.98384e-10
-7.67794e-11
-4.41899e-10
-8.04522e-11
-3.84413e-10
-8.21438e-11
-3.26834e-10
-8.24807e-11
-2.69788e-10
-8.24407e-11
-2.13941e-10
-8.09957e-11
-1.59921e-10
-7.85396e-11
-1.08354e-10
-7.54116e-11
-5.97332e-11
-7.146e-11
-1.43973e-11
-6.69419e-11
2.73817e-11
-6.20595e-11
6.5477e-11
-5.69203e-11
9.98715e-11
-5.16813e-11
1.30627e-10
-4.64318e-11
1.57958e-10
-4.14222e-11
1.82087e-10
-3.68452e-11
2.03204e-10
-3.19884e-11
2.21685e-10
-2.7771e-11
2.37944e-10
-2.42995e-11
2.51582e-10
-2.00581e-11
2.63268e-10
-1.69072e-11
2.73182e-10
-1.44783e-11
2.80404e-10
-1.02044e-11
2.85726e-10
-7.83642e-12
2.87832e-10
-3.22335e-12
2.86753e-10
1.05303e-12
2.81815e-10
6.331e-12
2.72113e-10
1.28425e-11
2.57077e-10
2.04985e-11
2.36325e-10
2.86662e-11
2.08676e-10
3.90956e-11
1.75172e-10
4.69969e-11
1.34295e-10
5.81609e-11
8.82816e-11
6.50341e-11
3.74838e-11
7.16981e-11
-1.6973e-11
7.65744e-11
-7.34054e-11
7.89312e-11
-1.30969e-10
8.0194e-11
-1.8853e-10
8.01781e-11
-2.45492e-10
7.91258e-11
-3.0207e-10
7.97023e-11
-3.57518e-10
7.86374e-11
-4.12384e-10
7.95135e-11
-4.6402e-10
7.45454e-11
-5.09846e-10
6.37948e-11
-5.45374e-10
4.0941e-11
-5.92021e-10
7.00328e-11
-6.32118e-10
5.94515e-11
-6.59572e-10
4.12488e-11
-6.71629e-10
1.88795e-11
-6.71158e-10
4.53164e-12
-6.5734e-10
-1.22932e-11
-6.33564e-10
-2.00849e-11
-5.93364e-10
-4.72764e-11
-5.40557e-10
-7.05752e-11
-4.83253e-10
-8.02988e-11
-4.27512e-10
-7.99859e-11
-3.77564e-10
-7.27477e-11
-3.35746e-10
-6.15051e-11
-3.02972e-10
-4.85293e-11
-2.792e-10
-3.53571e-11
-2.63642e-10
-2.30817e-11
-2.55159e-10
-1.24972e-11
-2.52242e-10
-4.16653e-12
-2.53273e-10
2.17222e-12
-2.56847e-10
6.18061e-12
-2.61577e-10
8.16953e-12
-2.66313e-10
8.44065e-12
-2.70181e-10
7.36484e-12
-2.72616e-10
5.37768e-12
-2.73354e-10
2.9069e-12
-2.7229e-10
2.35421e-13
-2.69976e-10
-1.82339e-12
-2.66786e-10
-3.37982e-12
-2.63301e-10
-4.08368e-12
-2.60181e-10
-3.87322e-12
-2.58042e-10
-2.77377e-12
-2.5737e-10
-8.76458e-13
-2.58629e-10
1.66404e-12
-2.6207e-10
4.60866e-12
-2.67813e-10
7.80983e-12
-2.75895e-10
1.11604e-11
-2.86329e-10
1.46567e-11
-2.99046e-10
1.84198e-11
-3.13636e-10
2.26941e-11
2.69502e-11
9.47384e-10
1.16632e-10
9.65864e-10
2.48225e-10
9.31327e-10
2.88963e-10
8.63327e-10
2.88883e-10
7.79745e-10
2.68739e-10
6.92141e-10
2.40901e-10
6.07624e-10
2.11516e-10
5.29539e-10
1.84027e-10
4.59111e-10
1.59556e-10
3.96433e-10
1.3822e-10
3.41064e-10
1.19798e-10
2.92313e-10
1.04005e-10
2.49355e-10
9.05561e-11
2.11373e-10
7.91927e-11
1.77602e-10
6.96909e-11
1.47341e-10
6.18572e-11
1.19948e-10
5.5508e-11
9.4845e-11
5.04668e-11
7.15201e-11
4.65662e-11
4.95262e-11
4.36479e-11
2.84791e-11
4.15592e-11
8.05555e-12
4.01512e-11
-1.20025e-11
3.9286e-11
-3.18932e-11
3.8828e-11
-5.17506e-11
3.86423e-11
-7.16422e-11
3.86017e-11
-9.15685e-11
3.85657e-11
-1.11453e-10
3.83465e-11
-1.31125e-10
3.76971e-11
-1.50252e-10
3.62591e-11
-1.68423e-10
3.33835e-11
-1.85155e-10
2.79768e-11
-1.9973e-10
1.82564e-11
-2.12841e-10
1.22397e-12
-2.15082e-10
-2.41301e-11
-1.9697e-10
-5.25621e-11
-1.61347e-10
-8.15234e-11
-1.1215e-10
-1.07702e-10
-5.18105e-11
-1.28844e-10
1.7447e-11
-1.45118e-10
9.4893e-11
-1.59494e-10
1.73416e-10
-1.66024e-10
2.47882e-10
-1.61758e-10
3.16398e-10
-1.51452e-10
3.77274e-10
-1.36139e-10
4.30473e-10
-1.19654e-10
4.76262e-10
-1.03603e-10
5.13508e-10
-8.4083e-11
5.4335e-10
-6.77883e-11
5.6521e-10
-4.99152e-11
5.79015e-10
-3.1547e-11
5.85134e-10
-1.51784e-11
5.8249e-10
5.47841e-12
5.7206e-10
2.1979e-11
5.52301e-10
4.32051e-11
5.24119e-10
6.08991e-11
4.87164e-10
7.94133e-11
4.41307e-10
9.80095e-11
3.88646e-10
1.10402e-10
3.27343e-10
1.27574e-10
2.61286e-10
1.34516e-10
1.90501e-10
1.41842e-10
1.16885e-10
1.44977e-10
4.23637e-11
1.44701e-10
-3.26352e-11
1.43357e-10
-1.06185e-10
1.39448e-10
-1.78416e-10
1.35213e-10
-2.48247e-10
1.30576e-10
-3.15972e-10
1.2581e-10
-3.81257e-10
1.21549e-10
-4.44089e-10
1.18043e-10
-5.04481e-10
1.13386e-10
-5.62417e-10
1.10569e-10
-6.17842e-10
1.06566e-10
-6.70541e-10
1.01964e-10
-7.20366e-10
9.78843e-11
-7.66941e-10
9.22116e-11
-8.09993e-10
8.53593e-11
-8.49372e-10
7.88726e-11
-8.85008e-10
7.20895e-11
-9.16799e-10
6.49637e-11
-9.44867e-10
5.85155e-11
-9.694e-10
5.25282e-11
-9.90735e-10
4.73736e-11
-1.00942e-09
4.39435e-11
-1.0259e-09
4.08296e-11
-1.04061e-09
3.83235e-11
-1.05424e-09
3.85469e-11
-1.06692e-09
3.75621e-11
-1.07886e-09
3.62533e-11
-1.09019e-09
3.73457e-11
-1.10071e-09
3.56957e-11
-1.11008e-09
3.31885e-11
-1.11841e-09
3.31067e-11
-1.12495e-09
2.72073e-11
-1.12985e-09
2.63776e-11
-1.13228e-09
1.82733e-11
-1.13246e-09
1.52187e-11
-1.12945e-09
4.67405e-12
-1.12365e-09
1.16356e-12
-1.11424e-09
-1.06018e-11
-1.10089e-09
-1.76719e-11
-1.08313e-09
-2.85207e-11
-1.06087e-09
-3.99099e-11
-1.03358e-09
-4.87959e-11
-1.0012e-09
-6.27254e-11
-9.63257e-10
-7.22361e-11
-9.19925e-10
-8.54671e-11
-8.70871e-10
-9.65852e-11
-8.16439e-10
-1.08082e-10
-7.56841e-10
-1.18873e-10
-6.92836e-10
-1.28864e-10
-6.24803e-10
-1.37137e-10
-5.53959e-10
-1.45508e-10
-4.80697e-10
-1.50143e-10
-4.06459e-10
-1.54816e-10
-3.32116e-10
-1.56625e-10
-2.58397e-10
-1.56327e-10
-1.86402e-10
-1.54524e-10
-1.1692e-10
-1.50496e-10
-5.06331e-11
-1.4475e-10
1.17574e-11
-1.37621e-10
6.98827e-11
-1.2931e-10
1.23595e-10
-1.20315e-10
1.72638e-10
-1.1075e-10
2.17036e-10
-1.01012e-10
2.56887e-10
-9.1332e-11
2.92346e-10
-8.18392e-11
3.2374e-10
-7.29328e-11
3.51376e-10
-6.47514e-11
3.75313e-10
-5.63093e-11
3.96153e-10
-4.90498e-11
4.14409e-10
-4.29849e-11
4.29583e-10
-3.55999e-11
4.42452e-10
-3.00447e-11
4.53172e-10
-2.53455e-11
4.60398e-10
-1.74515e-11
4.65142e-10
-1.24859e-11
4.66359e-10
-4.25515e-12
4.63545e-10
4.10114e-12
4.55963e-10
1.41491e-11
4.42517e-10
2.64811e-11
4.22571e-10
4.05632e-11
3.95425e-10
5.58476e-11
3.59793e-10
7.46966e-11
3.16539e-10
9.01836e-11
2.63538e-10
1.1109e-10
2.03087e-10
1.2543e-10
1.35265e-10
1.3949e-10
6.10656e-11
1.50766e-10
-1.69644e-11
1.56967e-10
-9.88655e-11
1.62108e-10
-1.81395e-10
1.62724e-10
-2.64578e-10
1.62327e-10
-3.46357e-10
1.61498e-10
-4.26645e-10
1.58935e-10
-5.03742e-10
1.56607e-10
-5.76658e-10
1.47442e-10
-6.44387e-10
1.31496e-10
-7.04911e-10
1.01447e-10
-7.56686e-10
1.21808e-10
-7.95382e-10
9.81566e-11
-8.1607e-10
6.19453e-11
-8.15573e-10
1.83872e-11
-7.926e-10
-1.84397e-11
-7.47759e-10
-5.71344e-11
-6.81604e-10
-8.62391e-11
-6.02391e-10
-1.26491e-10
-5.19173e-10
-1.53794e-10
-4.38091e-10
-1.61381e-10
-3.6364e-10
-1.54438e-10
-2.98601e-10
-1.37786e-10
-2.4463e-10
-1.15475e-10
-2.0239e-10
-9.0767e-11
-1.71438e-10
-6.6307e-11
-1.50523e-10
-4.39934e-11
-1.37946e-10
-2.50714e-11
-1.31887e-10
-1.02237e-11
-1.30146e-10
4.3339e-13
-1.3094e-10
6.97645e-12
-1.32616e-10
9.84603e-12
-1.33832e-10
9.65724e-12
-1.33624e-10
7.15665e-12
-1.31415e-10
3.16787e-12
-1.27061e-10
-1.44732e-12
-1.20884e-10
-5.94257e-12
-1.13197e-10
-9.51112e-12
-1.04856e-10
-1.1722e-11
-9.66861e-11
-1.22538e-11
-8.95449e-11
-1.10149e-11
-8.42402e-11
-8.07879e-12
-8.14445e-11
-3.67232e-12
-8.15898e-11
1.80926e-12
-8.49608e-11
7.97973e-12
-9.15911e-11
1.44402e-11
-1.0132e-10
2.08893e-11
-1.13819e-10
2.71556e-11
-1.28518e-10
3.31197e-11
-1.44589e-10
3.87659e-11
4.41401e-11
9.39216e-10
7.74148e-11
9.94493e-10
1.92948e-10
1.02534e-09
2.58114e-10
1.0264e-09
2.87823e-10
1.00349e-09
2.91648e-10
9.64792e-10
2.79604e-10
9.16981e-10
2.59328e-10
8.65764e-10
2.35245e-10
8.146e-10
2.10722e-10
7.65467e-10
1.87353e-10
7.19362e-10
1.65904e-10
6.76706e-10
1.46662e-10
6.37534e-10
1.29728e-10
6.0164e-10
1.15087e-10
5.68706e-10
1.02625e-10
5.38357e-10
9.22056e-11
5.10196e-10
8.36693e-11
4.83824e-10
7.6839e-11
4.58859e-10
7.15313e-11
4.34944e-10
6.75637e-11
4.11748e-10
6.4755e-11
3.88975e-10
6.2924e-11
3.66368e-10
6.18937e-11
3.43713e-10
6.14838e-11
3.20837e-10
6.15185e-11
2.97612e-10
6.18272e-11
2.73961e-10
6.22167e-11
2.49862e-10
6.24463e-11
2.25352e-10
6.22086e-11
2.00526e-10
6.10859e-11
1.75455e-10
5.8456e-11
1.50071e-10
5.33623e-11
1.23928e-10
4.44012e-11
9.38922e-11
3.12609e-11
7.3335e-11
-3.57333e-12
7.76729e-11
-5.69063e-11
1.03362e-10
-1.07229e-10
1.45367e-10
-1.49734e-10
2.01298e-10
-1.84806e-10
2.68888e-10
-2.12723e-10
3.47447e-10
-2.3803e-10
4.26976e-10
-2.45486e-10
5.02283e-10
-2.36978e-10
5.71373e-10
-2.20463e-10
6.32607e-10
-1.97325e-10
6.86269e-10
-1.73307e-10
7.32803e-10
-1.50161e-10
7.71147e-10
-1.2247e-10
8.02475e-10
-9.91621e-11
8.26118e-10
-7.35962e-11
8.42075e-10
-4.7527e-11
8.50646e-10
-2.37584e-11
8.50782e-10
5.34419e-12
8.43269e-10
2.94989e-11
8.26685e-10
5.97968e-11
8.01603e-10
8.59848e-11
7.67433e-10
1.13583e-10
7.23608e-10
1.41831e-10
6.71791e-10
1.62216e-10
6.09514e-10
1.89851e-10
5.40456e-10
2.03582e-10
4.64013e-10
2.18298e-10
3.82039e-10
2.26964e-10
2.96461e-10
2.30283e-10
2.07776e-10
2.32023e-10
1.19042e-10
2.28135e-10
2.98038e-11
2.2438e-10
-5.74834e-11
2.17782e-10
-1.43051e-10
2.11308e-10
-2.25839e-10
2.04304e-10
-3.05383e-10
1.97603e-10
-3.82126e-10
1.90201e-10
-4.55044e-10
1.83606e-10
-5.24379e-10
1.76045e-10
-5.89834e-10
1.67558e-10
-6.50977e-10
1.59126e-10
-7.07895e-10
1.49162e-10
-7.60454e-10
1.37876e-10
-8.08237e-10
1.26549e-10
-8.51178e-10
1.14887e-10
-8.89234e-10
1.02873e-10
-9.22391e-10
9.15529e-11
-9.50845e-10
8.09094e-11
-9.74919e-10
7.14224e-11
-9.94973e-10
6.40119e-11
-1.0117e-09
5.75963e-11
-1.02572e-09
5.2395e-11
-1.03736e-09
5.02441e-11
-1.04733e-09
4.75807e-11
-1.05616e-09
4.51239e-11
-1.06355e-09
4.47666e-11
-1.07001e-09
4.21729e-11
-1.07531e-09
3.85019e-11
-1.07888e-09
3.6684e-11
-1.08108e-09
2.94153e-11
-1.08066e-09
2.59564e-11
-1.07828e-09
1.58898e-11
-1.07248e-09
9.41863e-12
-1.06418e-09
-3.62829e-12
-1.05128e-09
-1.17437e-11
-1.03475e-09
-2.71308e-11
-1.01326e-09
-3.91585e-11
-9.86811e-10
-5.49728e-11
-9.55083e-10
-7.16354e-11
-9.16941e-10
-8.69341e-11
-8.73283e-10
-1.06378e-10
-8.22788e-10
-1.22723e-10
-7.66469e-10
-1.41775e-10
-7.03929e-10
-1.59111e-10
-6.35892e-10
-1.76105e-10
-5.62938e-10
-1.91818e-10
-4.8597e-10
-2.05832e-10
-4.05643e-10
-2.17482e-10
-3.23817e-10
-2.27379e-10
-2.40615e-10
-2.33425e-10
-1.58087e-10
-2.37466e-10
-7.69368e-11
-2.37937e-10
2.02611e-12
-2.35478e-10
7.74351e-11
-2.3012e-10
1.4882e-10
-2.22032e-10
2.15848e-10
-2.11852e-10
2.7788e-10
-1.99615e-10
3.3481e-10
-1.86073e-10
3.86762e-10
-1.71977e-10
4.3364e-10
-1.57245e-10
4.75681e-10
-1.42636e-10
5.13132e-10
-1.28399e-10
5.4626e-10
-1.14687e-10
5.75502e-10
-1.02051e-10
6.0125e-10
-9.05577e-11
6.23551e-10
-7.88403e-11
6.43013e-10
-6.88734e-11
6.60215e-10
-6.06194e-11
6.74556e-10
-5.03825e-11
6.86926e-10
-4.28071e-11
6.97161e-10
-3.58838e-11
7.04327e-10
-2.48025e-11
7.09082e-10
-1.72994e-11
7.10436e-10
-5.54657e-12
7.07927e-10
6.7705e-12
7.00942e-10
2.13487e-11
6.88251e-10
3.93925e-11
6.69275e-10
5.97184e-11
6.43042e-10
8.21886e-11
6.0824e-10
1.09531e-10
5.65416e-10
1.32983e-10
5.11977e-10
1.64476e-10
4.49822e-10
1.87532e-10
3.7857e-10
2.10706e-10
2.98436e-10
2.30886e-10
2.12286e-10
2.4312e-10
1.19035e-10
2.55372e-10
2.33457e-11
2.58431e-10
-7.56048e-11
2.61295e-10
-1.73451e-10
2.59358e-10
-2.70568e-10
2.56056e-10
-3.63355e-10
2.49385e-10
-4.51631e-10
2.35696e-10
-5.3381e-10
2.13655e-10
-6.08503e-10
1.76131e-10
-6.54692e-10
1.68003e-10
-6.80521e-10
1.23995e-10
-6.83123e-10
6.45535e-11
-6.60796e-10
-3.93827e-12
-6.09895e-10
-6.93425e-11
-5.33329e-10
-1.33702e-10
-4.32476e-10
-1.87093e-10
-3.26055e-10
-2.32911e-10
-2.24747e-10
-2.55104e-10
-1.3172e-10
-2.5441e-10
-4.93265e-11
-2.36833e-10
2.08839e-11
-2.07998e-10
7.83119e-11
-1.72903e-10
1.23262e-10
-1.35716e-10
1.56707e-10
-9.97497e-11
1.80134e-10
-6.74182e-11
1.95373e-10
-4.03069e-11
2.04412e-10
-1.92601e-11
2.09338e-10
-4.48966e-12
2.12056e-10
4.2604e-12
2.14245e-10
7.65859e-12
2.17212e-10
6.69113e-12
2.21891e-10
2.47731e-12
2.2874e-10
-3.68131e-12
2.37856e-10
-1.05639e-11
2.48907e-10
-1.69944e-11
2.61356e-10
-2.1961e-11
2.74344e-10
-2.471e-11
2.86914e-10
-2.48251e-11
2.9812e-10
-2.22222e-11
3.07045e-10
-1.70042e-11
3.12936e-10
-9.56298e-12
3.15239e-10
-4.94583e-13
3.13706e-10
9.51255e-12
3.0833e-10
1.98165e-11
2.99392e-10
2.9827e-11
2.87448e-10
3.90997e-11
2.73296e-10
4.72728e-11
2.57901e-10
5.41617e-11
5.99919e-11
9.28474e-10
4.89403e-11
9.85125e-10
1.36297e-10
1.04144e-09
2.01793e-10
1.08554e-09
2.43727e-10
1.11288e-09
2.64305e-10
1.1241e-09
2.68383e-10
1.12197e-09
2.61467e-10
1.11062e-09
2.46598e-10
1.09304e-09
2.28297e-10
1.07166e-09
2.08738e-10
1.04823e-09
1.89331e-10
1.024e-09
1.70899e-10
9.99694e-10
1.54031e-10
9.75741e-10
1.39041e-10
9.52377e-10
1.2599e-10
9.29696e-10
1.14887e-10
9.07683e-10
1.05682e-10
8.86263e-10
9.82596e-11
8.65312e-10
9.24826e-11
8.44678e-10
8.81973e-11
8.24191e-10
8.52421e-11
8.0367e-10
8.34459e-11
7.82926e-10
8.26376e-11
7.61792e-10
8.26185e-11
7.40101e-10
8.32095e-11
7.17689e-10
8.42398e-11
6.94408e-10
8.5498e-11
6.70127e-10
8.67275e-11
6.44724e-10
8.76122e-11
6.1806e-10
8.77509e-11
5.89901e-10
8.66166e-11
5.59771e-10
8.34936e-11
5.26781e-10
7.73929e-11
4.87401e-10
7.06432e-11
4.54137e-10
2.96922e-11
4.43768e-10
-4.65403e-11
4.54351e-10
-1.17824e-10
4.82075e-10
-1.77483e-10
5.24929e-10
-2.27698e-10
5.80652e-10
-2.68484e-10
6.48218e-10
-3.05609e-10
7.17767e-10
-3.15006e-10
7.84778e-10
-3.03921e-10
8.46801e-10
-2.82404e-10
9.02105e-10
-2.52558e-10
9.51033e-10
-2.22195e-10
9.94053e-10
-1.93176e-10
1.03025e-09
-1.58687e-10
1.06063e-09
-1.29577e-10
1.08453e-09
-9.75418e-11
1.10214e-09
-6.51657e-11
1.11353e-09
-3.51663e-11
1.11795e-09
9.15734e-13
1.11593e-09
3.15285e-11
1.10637e-09
6.93584e-11
1.08952e-09
1.02841e-10
1.06473e-09
1.38364e-10
1.03118e-09
1.75384e-10
9.89882e-10
2.03513e-10
9.38187e-10
2.41548e-10
8.78873e-10
2.62901e-10
8.1072e-10
2.8646e-10
7.35127e-10
3.02562e-10
6.53482e-10
3.1192e-10
5.66058e-10
3.1942e-10
4.75971e-10
3.18175e-10
3.82958e-10
3.17332e-10
2.90055e-10
3.10626e-10
1.97302e-10
3.04024e-10
1.0632e-10
2.95289e-10
1.81781e-11
2.85793e-10
-6.76565e-11
2.76127e-10
-1.4936e-10
2.65429e-10
-2.27457e-10
2.54268e-10
-3.01671e-10
2.41872e-10
-3.71134e-10
2.28638e-10
-4.3606e-10
2.14066e-10
-4.96363e-10
1.98092e-10
-5.51469e-10
1.81521e-10
-6.01259e-10
1.64528e-10
-6.45761e-10
1.47243e-10
-6.84834e-10
1.30536e-10
-7.18647e-10
1.14682e-10
-7.47443e-10
1.00223e-10
-7.7141e-10
8.80164e-11
-7.91319e-10
7.75572e-11
-8.07848e-10
6.89785e-11
-8.21078e-10
6.35243e-11
-8.32105e-10
5.86475e-11
-8.41562e-10
5.461e-11
-8.49047e-10
5.22718e-11
-8.55508e-10
4.86444e-11
-8.60852e-10
4.38511e-11
-8.64045e-10
3.98772e-11
-8.66057e-10
3.14244e-11
-8.64803e-10
2.46991e-11
-8.61416e-10
1.24996e-11
-8.53783e-10
1.78258e-12
-8.429e-10
-1.45136e-11
-8.26109e-10
-2.85365e-11
-8.04818e-10
-4.84228e-11
-7.76942e-10
-6.70341e-11
-7.42867e-10
-8.90477e-11
-7.02261e-10
-1.1224e-10
-6.53912e-10
-1.3528e-10
-5.99314e-10
-1.60971e-10
-5.37074e-10
-1.84955e-10
-4.68865e-10
-2.09972e-10
-3.94641e-10
-2.33319e-10
-3.15519e-10
-2.55207e-10
-2.32535e-10
-2.7478e-10
-1.46871e-10
-2.91474e-10
-5.957e-11
-3.04769e-10
2.73412e-11
-3.14293e-10
1.13804e-10
-3.19921e-10
1.97496e-10
-3.21233e-10
2.77873e-10
-3.18439e-10
3.54259e-10
-3.12041e-10
4.25523e-10
-3.01603e-10
4.91515e-10
-2.88257e-10
5.52179e-10
-2.72722e-10
6.07141e-10
-2.5471e-10
6.56653e-10
-2.35601e-10
7.01096e-10
-2.16293e-10
7.40629e-10
-1.96509e-10
7.75701e-10
-1.77324e-10
8.06691e-10
-1.5895e-10
8.33987e-10
-1.41562e-10
8.58082e-10
-1.25816e-10
8.79367e-10
-1.1166e-10
8.97927e-10
-9.73931e-11
9.14252e-10
-8.53597e-11
9.28928e-10
-7.55876e-11
9.41336e-10
-6.31615e-11
9.52351e-10
-5.42117e-11
9.61642e-10
-4.55313e-11
9.68588e-10
-3.2031e-11
9.73582e-10
-2.24745e-11
9.75911e-10
-7.94109e-12
9.75058e-10
7.66733e-12
9.70668e-10
2.58702e-11
9.61512e-10
4.87267e-11
9.47228e-10
7.41798e-11
9.267e-10
1.02854e-10
8.98861e-10
1.37443e-10
8.63735e-10
1.68121e-10
8.18864e-10
2.09318e-10
7.65296e-10
2.41055e-10
7.02345e-10
2.73619e-10
6.29382e-10
3.03829e-10
5.48875e-10
3.23624e-10
4.58805e-10
3.45454e-10
3.6409e-10
3.53164e-10
2.6318e-10
3.62224e-10
1.61452e-10
3.611e-10
5.808e-11
3.59432e-10
-4.20626e-11
3.49519e-10
-1.38563e-10
3.32181e-10
-2.26134e-10
3.01213e-10
-3.05549e-10
2.55546e-10
-3.41192e-10
2.03654e-10
-3.50485e-10
1.33297e-10
-3.33514e-10
4.75858e-11
-2.90203e-10
-4.72518e-11
-2.16424e-10
-1.43126e-10
-1.18393e-10
-2.31736e-10
1.14825e-12
-3.06636e-10
1.18427e-10
-3.50191e-10
2.23606e-10
-3.60285e-10
3.16039e-10
-3.46846e-10
3.95294e-10
-3.16091e-10
4.61339e-10
-2.74044e-10
5.1467e-10
-2.26236e-10
5.56262e-10
-1.77308e-10
5.87435e-10
-1.30921e-10
6.09773e-10
-8.97534e-11
6.25036e-10
-5.55671e-11
6.35068e-10
-2.92886e-11
6.41696e-10
-1.11143e-11
6.4661e-10
-6.50263e-13
6.51286e-10
2.98457e-12
6.56888e-10
1.09051e-12
6.642e-10
-4.83388e-12
6.73667e-10
-1.31485e-11
6.85342e-10
-2.22394e-11
6.98949e-10
-3.06021e-11
7.13935e-10
-3.69477e-11
7.29484e-10
-4.02597e-11
7.44642e-10
-3.99845e-11
7.58525e-10
-3.61058e-11
7.70173e-10
-2.86539e-11
7.78779e-10
-1.81694e-11
7.83728e-10
-5.44433e-12
7.84688e-10
8.55221e-12
7.8161e-10
2.28944e-11
7.74752e-10
3.66857e-11
7.64667e-10
4.91843e-11
7.52147e-10
5.97934e-11
7.38125e-10
6.81842e-11
7.51239e-11
9.18787e-10
3.01524e-11
9.6415e-10
9.09333e-11
1.02124e-09
1.447e-10
1.07947e-09
1.85503e-10
1.13178e-09
2.11996e-10
1.17492e-09
2.25235e-10
1.2085e-09
2.27888e-10
1.23226e-09
2.22845e-10
1.24749e-09
2.13065e-10
1.25616e-09
2.00069e-10
1.25966e-09
1.8583e-10
1.25915e-09
1.7141e-10
1.25553e-09
1.57658e-10
1.24948e-09
1.45089e-10
1.24162e-09
1.33848e-10
1.23237e-09
1.24133e-10
1.22204e-09
1.1602e-10
1.21082e-09
1.09478e-10
1.19885e-09
1.04446e-10
1.18622e-09
1.00834e-10
1.17292e-09
9.85379e-11
1.15894e-09
9.74263e-11
1.1442e-09
9.73786e-11
1.12863e-09
9.81942e-11
1.1121e-09
9.97319e-11
1.09447e-09
1.0187e-10
1.07557e-09
1.04407e-10
1.05518e-09
1.07112e-10
1.03309e-09
1.09703e-10
1.009e-09
1.11838e-10
9.82497e-10
1.13125e-10
9.52929e-10
1.13064e-10
9.19258e-10
1.11066e-10
8.78274e-10
1.11629e-10
8.40065e-10
6.79035e-11
8.18603e-10
-2.50768e-11
8.14482e-10
-1.13707e-10
8.26303e-10
-1.8932e-10
8.52873e-10
-2.54301e-10
8.92073e-10
-3.07729e-10
9.42702e-10
-3.56278e-10
9.96518e-10
-3.68831e-10
1.05033e-09
-3.57699e-10
1.10102e-09
-3.33036e-10
1.14673e-09
-2.98189e-10
1.18767e-09
-2.63081e-10
1.22425e-09
-2.29719e-10
1.25574e-09
-1.90176e-10
1.2829e-09
-1.56755e-10
1.30514e-09
-1.19814e-10
1.32289e-09
-8.29453e-11
1.33596e-09
-4.82567e-11
1.3441e-09
-7.2332e-12
1.34754e-09
2.80819e-11
1.34574e-09
7.11612e-11
1.33865e-09
1.09928e-10
1.32582e-09
1.51192e-10
1.30638e-09
1.9483e-10
1.28073e-09
2.2916e-10
1.24658e-09
2.75698e-10
1.20551e-09
3.0398e-10
1.15593e-09
3.36045e-10
1.09853e-09
3.59959e-10
1.03384e-09
3.766e-10
9.61868e-10
3.91359e-10
8.8492e-10
3.95081e-10
8.02848e-10
3.99359e-10
7.18391e-10
3.9505e-10
6.31906e-10
3.90504e-10
5.45121e-10
3.82103e-10
4.5955e-10
3.71428e-10
3.74813e-10
3.60958e-10
2.93186e-10
3.47164e-10
2.14348e-10
3.33204e-10
1.38588e-10
3.17693e-10
6.69257e-11
3.00304e-10
-8.6652e-13
2.81799e-10
-6.472e-11
2.61833e-10
-1.24051e-10
2.40713e-10
-1.78661e-10
2.19002e-10
-2.28658e-10
1.97137e-10
-2.73784e-10
1.75607e-10
-3.14091e-10
1.54983e-10
-3.49652e-10
1.35814e-10
-3.80381e-10
1.18796e-10
-4.06898e-10
1.0413e-10
-4.29746e-10
9.18773e-11
-4.48693e-10
8.25123e-11
-4.65e-10
7.49833e-11
-4.79257e-10
6.88843e-11
-4.91079e-10
6.41026e-11
-5.01488e-10
5.90562e-11
-5.10676e-10
5.30364e-11
-5.173e-10
4.64973e-11
-5.2267e-10
3.67895e-11
-5.24144e-10
2.61682e-11
-5.23082e-10
1.14328e-11
-5.16612e-10
-4.69011e-12
-5.06054e-10
-2.5074e-11
-4.88017e-10
-4.65751e-11
-4.64257e-10
-7.21835e-11
-4.32216e-10
-9.90751e-11
-3.92626e-10
-1.28637e-10
-3.45202e-10
-1.59663e-10
-2.88993e-10
-1.91487e-10
-2.25954e-10
-2.24007e-10
-1.55053e-10
-2.55848e-10
-7.85021e-11
-2.86513e-10
3.22269e-12
-3.15028e-10
8.86399e-11
-3.40603e-10
1.76233e-10
-3.62345e-10
2.64539e-10
-3.79746e-10
3.52297e-10
-3.92491e-10
4.37488e-10
-3.99452e-10
5.20005e-10
-4.0242e-10
5.97725e-10
-3.98964e-10
6.70298e-10
-3.91067e-10
7.37324e-10
-3.79182e-10
7.98071e-10
-3.62528e-10
8.52717e-10
-3.43138e-10
9.01549e-10
-3.21819e-10
9.44554e-10
-2.97966e-10
9.82319e-10
-2.73552e-10
1.01544e-09
-2.49488e-10
1.04433e-09
-2.25324e-10
1.06959e-09
-2.02353e-10
1.0917e-09
-1.80701e-10
1.11112e-09
-1.60561e-10
1.12834e-09
-1.42611e-10
1.14367e-09
-1.26639e-10
1.15722e-09
-1.10725e-10
1.16931e-09
-9.73856e-11
1.18048e-09
-8.68478e-11
1.19014e-09
-7.30333e-11
1.19905e-09
-6.34135e-11
1.20673e-09
-5.35252e-11
1.21298e-09
-3.85742e-11
1.21783e-09
-2.7569e-11
1.221e-09
-1.12737e-11
1.22193e-09
6.6786e-12
1.22056e-09
2.72695e-11
1.2158e-09
5.35817e-11
1.2076e-09
8.25148e-11
1.19485e-09
1.15734e-10
1.17695e-09
1.55432e-10
1.1534e-09
1.91715e-10
1.12237e-09
2.40336e-10
1.08395e-09
2.79445e-10
1.03742e-09
3.20114e-10
9.81418e-10
3.59808e-10
9.17694e-10
3.87341e-10
8.43637e-10
4.19519e-10
7.63333e-10
4.33484e-10
6.74642e-10
4.50934e-10
5.82582e-10
4.53174e-10
4.85929e-10
4.5609e-10
3.89687e-10
4.45757e-10
2.95187e-10
4.26672e-10
2.11858e-10
3.84538e-10
1.37991e-10
3.29417e-10
1.14195e-10
2.27459e-10
1.20115e-10
1.27385e-10
1.53033e-10
1.46688e-11
2.11411e-10
-1.05634e-10
2.98286e-10
-2.30007e-10
4.04607e-10
-3.38062e-10
5.2589e-10
-4.27922e-10
6.38637e-10
-4.62939e-10
7.35244e-10
-4.56893e-10
8.16707e-10
-4.28312e-10
8.8404e-10
-3.83426e-10
9.38438e-10
-3.28446e-10
9.81258e-10
-2.69059e-10
1.01399e-09
-2.10041e-10
1.03819e-09
-1.55126e-10
1.05547e-09
-1.07027e-10
1.06741e-09
-6.7503e-11
1.07557e-09
-3.74431e-11
1.08142e-09
-1.69601e-11
1.08628e-09
-5.51371e-12
1.09129e-09
-2.0205e-12