/*--------------------------------*- C++ -*----------------------------------*\
| =========                 |                                                 |
| \\      /  F ield         | OpenFOAM: The Open Source CFD Toolbox           |
|  \\    /   O peration     | Version:  2506                                  |
|   \\  /    A nd           | Website:  www.openfoam.com                      |
|    \\/     M anipulation  |                                                 |
\*---------------------------------------------------------------------------*/
FoamFile
{
    version     2.0;
    format      ascii;
    arch        "LSB;label=32;scalar=64";
    class       volScalarField;
    location    "4.4";
    object      p;
}
// * * * * * * * * * * * * * * * * * * * * * * * * * * * * * * * * * * * * * //

dimensions      [0 2 -2 0 0 0 0];

internalField   nonuniform List<scalar> 
4000
(
0.000558217
0.000500295
0.000468938
0.000455385
0.000447175
0.000441451
0.000437453
0.000434448
0.000431959
0.000429764
0.000427759
0.000425888
0.000424117
0.000422429
0.000420813
0.000419262
0.000417773
0.000416346
0.00041498
0.000413676
0.000412436
0.000411264
0.000410163
0.00040914
0.000408199
0.00040735
0.000406599
0.000405956
0.00040543
0.000405031
0.00040477
0.000404665
0.000404734
0.000404863
0.000405525
0.000406611
0.000407362
0.000407605
0.000407307
0.000406199
0.000403981
0.000399453
0.000392623
0.000384236
0.000374328
0.000363106
0.000350704
0.000337034
0.000322738
0.000307704
0.000292192
0.000276706
0.000261056
0.000246184
0.000231635
0.000218409
0.000206373
0.000195717
0.000187129
0.000179564
0.000174441
0.000170623
0.000168362
0.000167553
0.000167632
0.000168897
0.000170624
0.000173099
0.000175823
0.000178878
0.000182093
0.000185339
0.000188682
0.000191972
0.000195219
0.000198413
0.000201505
0.000204485
0.000207347
0.000210061
0.000212612
0.000214989
0.000217178
0.000219174
0.000220978
0.000222592
0.000224032
0.000225318
0.00022646
0.000227482
0.000228405
0.000229241
0.00023001
0.000230726
0.000231396
0.000232037
0.000232651
0.00023325
0.000233836
0.000234418
0.000234996
0.000235573
0.000236158
0.000236753
0.000237361
0.00023798
0.000238614
0.000239254
0.000239897
0.00024053
0.000241137
0.000241692
0.000242173
0.000242529
0.000242742
0.000242726
0.00024245
0.000241849
0.000240839
0.000239376
0.000237391
0.000234807
0.000231586
0.000227691
0.00022306
0.000217686
0.000211554
0.000204655
0.000197007
0.000188624
0.000179479
0.000169693
0.00015927
0.000148142
0.000136547
0.000124509
0.000111816
9.91069e-05
8.59828e-05
7.29046e-05
5.99068e-05
4.72309e-05
3.51092e-05
2.39122e-05
1.34998e-05
4.906e-06
-2.7974e-06
-8.25928e-06
-1.23028e-05
-1.47785e-05
-1.54986e-05
-1.5284e-05
-1.3525e-05
-1.12159e-05
-7.95177e-06
-4.44598e-06
-4.71035e-07
3.52192e-06
7.58869e-06
1.15385e-05
1.59522e-05
1.93946e-05
2.25631e-05
2.54781e-05
2.81862e-05
3.05539e-05
3.26201e-05
3.38627e-05
3.44147e-05
3.44781e-05
3.40819e-05
3.32846e-05
3.21634e-05
3.07951e-05
2.92524e-05
2.76026e-05
2.59063e-05
2.42162e-05
2.25751e-05
2.10177e-05
1.95655e-05
1.82289e-05
1.70088e-05
1.58972e-05
1.48781e-05
1.39296e-05
1.30269e-05
1.21456e-05
1.12635e-05
1.03628e-05
9.4308e-06
8.46061e-06
7.45143e-06
6.41124e-06
5.34653e-06
4.26982e-06
3.1962e-06
2.13927e-06
1.10966e-06
2.09778e-07
0.000506552
0.000483422
0.000465515
0.000455726
0.000448859
0.000443294
0.000439003
0.000435675
0.000432931
0.00043054
0.000428389
0.000426409
0.000424557
0.000422808
0.000421146
0.000419561
0.000418047
0.000416602
0.000415224
0.000413913
0.00041267
0.000411498
0.0004104
0.00040938
0.000408446
0.000407605
0.000406864
0.000406232
0.000405719
0.000405335
0.000405092
0.000405005
0.000405091
0.000405209
0.000405742
0.000406592
0.000406993
0.000406789
0.000405898
0.000403993
0.000400772
0.000395285
0.000387784
0.000378928
0.000368713
0.000357321
0.000344893
0.000331394
0.000317416
0.000302861
0.00028798
0.00027323
0.000258458
0.000244501
0.000231008
0.000218709
0.000207469
0.000197436
0.00018922
0.000181953
0.000176809
0.000172885
0.000170362
0.000169209
0.000168918
0.000169774
0.00017113
0.000173239
0.000175657
0.000178431
0.000181419
0.000184472
0.000187654
0.000190817
0.000193959
0.000197074
0.00020011
0.000203057
0.000205908
0.000208636
0.000211224
0.000213663
0.000215934
0.00021803
0.000219947
0.00022168
0.000223237
0.000224631
0.00022587
0.000226974
0.000227967
0.000228858
0.00022967
0.000230422
0.000231119
0.000231786
0.00023242
0.000233041
0.000233646
0.000234251
0.000234851
0.000235462
0.000236076
0.000236698
0.000237333
0.000237973
0.000238625
0.000239271
0.00023991
0.000240521
0.000241085
0.000241571
0.000241952
0.000242168
0.000242199
0.000241954
0.000241399
0.000240468
0.000239079
0.00023719
0.000234739
0.000231657
0.000227916
0.000223489
0.000218327
0.000212436
0.000205813
0.000198461
0.000190408
0.000181678
0.000172255
0.000162273
0.000151743
0.000140605
0.000129097
0.000117223
0.000104859
9.25364e-05
7.99623e-05
6.75295e-05
5.53081e-05
4.35013e-05
3.23308e-05
2.20873e-05
1.27422e-05
4.9349e-06
-2.00069e-06
-7.00802e-06
-1.07309e-05
-1.30721e-05
-1.38173e-05
-1.37094e-05
-1.21749e-05
-1.01124e-05
-7.12926e-06
-3.89074e-06
-1.72636e-07
3.59328e-06
7.47587e-06
1.11635e-05
1.54942e-05
1.89343e-05
2.21292e-05
2.50793e-05
2.78065e-05
3.01374e-05
3.21303e-05
3.32993e-05
3.38389e-05
3.39288e-05
3.35707e-05
3.28159e-05
3.17407e-05
3.04195e-05
2.89215e-05
2.73114e-05
2.56485e-05
2.39852e-05
2.2365e-05
2.08224e-05
1.93816e-05
1.80556e-05
1.6847e-05
1.57486e-05
1.47456e-05
1.38169e-05
1.29377e-05
1.20828e-05
1.12292e-05
1.03576e-05
9.45432e-06
8.51163e-06
7.52856e-06
6.50636e-06
5.45527e-06
4.38685e-06
3.31512e-06
2.25209e-06
1.20441e-06
2.35996e-07
0.000482222
0.000474652
0.000464082
0.000456118
0.00044985
0.000444732
0.000440432
0.000436915
0.000433964
0.000431388
0.000429086
0.000426984
0.000425036
0.00042321
0.000421488
0.000419855
0.000418304
0.00041683
0.00041543
0.000414102
0.000412847
0.000411665
0.00041056
0.000409536
0.000408598
0.000407754
0.000407011
0.000406377
0.000405863
0.000405477
0.00040523
0.000405132
0.0004052
0.000405258
0.000405635
0.000406225
0.000406237
0.000405528
0.000404012
0.000401335
0.000397254
0.000391058
0.000383156
0.000374095
0.000363832
0.000352525
0.00034033
0.000327262
0.000313844
0.0003
0.000285948
0.000272104
0.000258378
0.000245374
0.000232843
0.000221347
0.000210816
0.000201325
0.000193393
0.00018629
0.000180987
0.000176784
0.000173834
0.00017217
0.000171342
0.000171651
0.000172494
0.000174134
0.000176141
0.00017856
0.00018126
0.000184066
0.000187054
0.000190061
0.000193078
0.000196101
0.00019907
0.000201972
0.000204806
0.000207541
0.000210158
0.000212648
0.00021499
0.000217169
0.000219178
0.000221007
0.000222657
0.00022414
0.000225457
0.000226626
0.000227674
0.000228606
0.000229447
0.000230223
0.000230933
0.000231613
0.000232253
0.000232884
0.000233496
0.000234115
0.000234725
0.00023535
0.00023598
0.00023662
0.000237275
0.000237928
0.000238592
0.000239238
0.000239864
0.000240444
0.000240953
0.000241355
0.000241616
0.000241672
0.000241503
0.000241009
0.00024016
0.000238892
0.000237126
0.000234827
0.000231943
0.000228415
0.000224229
0.000219365
0.000213793
0.000207528
0.000200577
0.000192951
0.000184684
0.000175806
0.000166323
0.000156341
0.000145884
0.000134927
0.000123673
0.000112136
0.000100263
8.84798e-05
7.65833e-05
6.48972e-05
5.35119e-05
4.25851e-05
3.23111e-05
2.2897e-05
1.43079e-05
7.07654e-06
6.63277e-07
-4.10292e-06
-7.71751e-06
-1.01383e-05
-1.1101e-05
-1.12957e-05
-1.01273e-05
-8.45156e-06
-5.83271e-06
-2.94648e-06
4.70913e-07
3.96196e-06
7.65732e-06
1.10409e-05
1.53707e-05
1.86952e-05
2.18201e-05
2.47477e-05
2.74633e-05
2.97243e-05
3.16445e-05
3.27316e-05
3.3254e-05
3.33742e-05
3.30532e-05
3.2334e-05
3.12961e-05
3.00122e-05
2.85485e-05
2.69682e-05
2.533e-05
2.36864e-05
2.20822e-05
2.05524e-05
1.91237e-05
1.78115e-05
1.662e-05
1.55428e-05
1.45654e-05
1.36667e-05
1.28214e-05
1.20027e-05
1.1186e-05
1.03504e-05
9.48037e-06
8.56679e-06
7.60654e-06
6.60256e-06
5.56284e-06
4.49846e-06
3.42296e-06
2.34728e-06
1.27588e-06
2.247e-07
0.000471229
0.000468444
0.000461991
0.000455496
0.000450189
0.000445638
0.000441499
0.000438016
0.000434969
0.000432253
0.00042982
0.000427593
0.000425536
0.000423621
0.000421824
0.000420127
0.000418523
0.000417004
0.000415566
0.000414205
0.00041292
0.000411712
0.000410582
0.000409534
0.000408572
0.000407702
0.000406932
0.000406269
0.00040572
0.000405294
0.000404998
0.000404833
0.000404812
0.000404748
0.000404942
0.000405272
0.000404916
0.000403731
0.00040165
0.000398346
0.000393651
0.000387025
0.000378937
0.000369846
0.000359708
0.000348675
0.000336908
0.000324459
0.000311808
0.000298832
0.00028573
0.000272926
0.000260331
0.000248356
0.000236856
0.000226196
0.000216375
0.000207402
0.000199688
0.00019267
0.000187112
0.000182509
0.000179001
0.000176668
0.000175149
0.000174743
0.000174917
0.000175936
0.000177399
0.000179342
0.00018165
0.000184122
0.000186846
0.000189639
0.000192483
0.000195377
0.000198247
0.000201079
0.000203872
0.000206592
0.000209219
0.000211743
0.000214141
0.000216393
0.00021849
0.000220411
0.000222153
0.000223727
0.000225121
0.000226356
0.000227456
0.000228424
0.000229289
0.00023008
0.000230792
0.000231474
0.000232109
0.000232739
0.000233346
0.000233969
0.000234582
0.000235218
0.00023586
0.000236513
0.000237185
0.000237847
0.000238519
0.000239159
0.000239766
0.000240305
0.000240745
0.000241046
0.000241169
0.000241043
0.000240649
0.000239883
0.000238721
0.0002371
0.000234951
0.000232247
0.000228947
0.000225006
0.000220422
0.000215187
0.000209286
0.000202743
0.000195574
0.000187799
0.000179455
0.00017058
0.00016119
0.000151374
0.000141176
0.000130588
0.000119773
0.000108772
9.75677e-05
8.64941e-05
7.54218e-05
6.46008e-05
5.41275e-05
4.41121e-05
3.47121e-05
2.60661e-05
1.81465e-05
1.1361e-05
5.29394e-06
5.65028e-07
-3.16689e-06
-5.88749e-06
-7.29784e-06
-8.00292e-06
-7.40067e-06
-6.27831e-06
-4.16803e-06
-1.74364e-06
1.29244e-06
4.45179e-06
7.95108e-06
1.1044e-05
1.53826e-05
1.85734e-05
2.15868e-05
2.44608e-05
2.71508e-05
2.93332e-05
3.11838e-05
3.21816e-05
3.26669e-05
3.27991e-05
3.24976e-05
3.17956e-05
3.07774e-05
2.95161e-05
2.80755e-05
2.6517e-05
2.48993e-05
2.3275e-05
2.16897e-05
2.01798e-05
1.87726e-05
1.74844e-05
1.63199e-05
1.52733e-05
1.433e-05
1.34685e-05
1.26618e-05
1.18821e-05
1.11033e-05
1.0303e-05
9.46475e-06
8.57834e-06
7.6401e-06
6.65254e-06
5.62275e-06
4.56139e-06
3.48147e-06
2.39274e-06
1.30405e-06
1.88459e-07
0.0004645
0.000463173
0.000459198
0.000454503
0.000450174
0.000446103
0.000442347
0.00043901
0.000435915
0.000433134
0.00043062
0.000428268
0.000426092
0.000424078
0.000422188
0.000420408
0.000418731
0.000417148
0.000415651
0.000414236
0.000412902
0.000411646
0.000410469
0.000409374
0.000408362
0.00040744
0.000406612
0.000405885
0.000405265
0.000404755
0.00040436
0.000404073
0.0004039
0.000403662
0.000403628
0.000403658
0.000402929
0.000401292
0.000398706
0.000394893
0.000389752
0.000382873
0.000374742
0.00036575
0.000355877
0.000345271
0.000334092
0.000322433
0.000310594
0.00029858
0.000286639
0.000274982
0.000263571
0.000252696
0.000242279
0.000232533
0.000223474
0.000215083
0.000207647
0.000200779
0.000195021
0.000190051
0.000185979
0.000182927
0.000180643
0.000179395
0.00017876
0.000178987
0.00017974
0.000181044
0.000182804
0.000184808
0.000187147
0.000189626
0.000192215
0.00019491
0.000197627
0.000200345
0.000203061
0.000205737
0.000208348
0.000210886
0.000213322
0.000215636
0.000217813
0.000219824
0.00022166
0.000223328
0.000224805
0.000226109
0.000227265
0.000228271
0.000229156
0.000229958
0.000230665
0.000231341
0.000231959
0.000232579
0.000233171
0.00023379
0.000234396
0.000235035
0.000235681
0.000236342
0.000237023
0.000237686
0.000238354
0.000238973
0.00023954
0.000240012
0.000240352
0.000240515
0.000240457
0.000240103
0.000239439
0.000238357
0.000236842
0.000234839
0.000232288
0.000229176
0.000225474
0.000221152
0.00021622
0.000210685
0.000204542
0.000197824
0.000190554
0.000182759
0.00017448
0.000165758
0.000156613
0.000147126
0.00013737
0.000127314
0.000117086
0.000106779
9.63851e-05
8.61464e-05
7.59969e-05
6.61168e-05
5.65962e-05
4.75044e-05
3.89596e-05
3.10468e-05
2.37502e-05
1.73469e-05
1.15471e-05
6.77482e-06
2.82749e-06
-2.90251e-07
-2.28071e-06
-3.62824e-06
-3.76398e-06
-3.35487e-06
-1.93477e-06
-1.26488e-07
2.38291e-06
5.09995e-06
8.3355e-06
1.1121e-05
1.54154e-05
1.84616e-05
2.13266e-05
2.4108e-05
2.67412e-05
2.88155e-05
3.0564e-05
3.14461e-05
3.18691e-05
3.19953e-05
3.17032e-05
3.1014e-05
3.00165e-05
2.87843e-05
2.73779e-05
2.58565e-05
2.42774e-05
2.26926e-05
2.11473e-05
1.96778e-05
1.8311e-05
1.70627e-05
1.59378e-05
1.49304e-05
1.40261e-05
1.32035e-05
1.24341e-05
1.169e-05
1.0945e-05
1.01764e-05
9.36752e-06
8.50789e-06
7.59352e-06
6.62622e-06
5.61255e-06
4.56247e-06
3.48833e-06
2.39856e-06
1.30976e-06
1.5008e-07
0.000460009
0.000459252
0.000456688
0.000453282
0.000449787
0.000446329
0.00044297
0.000439762
0.0004367
0.000433944
0.000431402
0.000428935
0.000426654
0.000424549
0.000422559
0.000420684
0.000418923
0.000417262
0.00041569
0.000414203
0.0004128
0.000411475
0.000410228
0.000409061
0.000407974
0.00040697
0.000406053
0.000405227
0.000404496
0.000403859
0.000403317
0.000402858
0.000402482
0.000402028
0.000401721
0.000401405
0.000400299
0.000398248
0.000395226
0.000391013
0.000385562
0.000378572
0.000370519
0.000361739
0.000352244
0.00034218
0.000331698
0.000320896
0.000309929
0.000298986
0.00028827
0.000277776
0.000267552
0.000257797
0.000248463
0.000239661
0.000231397
0.000223644
0.000216582
0.000209965
0.000204148
0.000198942
0.000194414
0.000190727
0.000187733
0.000185636
0.000184146
0.000183489
0.000183412
0.000183934
0.000184992
0.000186381
0.000188187
0.00019022
0.000192438
0.000194834
0.000197312
0.000199844
0.000202421
0.000205002
0.000207555
0.00021007
0.000212515
0.000214865
0.000217102
0.00021919
0.000221112
0.000222872
0.000224435
0.000225813
0.000227031
0.000228079
0.000228986
0.000229799
0.000230496
0.00023116
0.000231754
0.000232354
0.000232919
0.000233524
0.000234113
0.000234745
0.000235385
0.00023604
0.000236716
0.000237362
0.000238004
0.000238574
0.000239065
0.000239429
0.000239621
0.000239593
0.000239299
0.000238663
0.000237677
0.000236237
0.000234338
0.000231937
0.000228985
0.000225484
0.000221421
0.000216778
0.000211578
0.000205839
0.000199565
0.000192794
0.000185555
0.00017788
0.00016981
0.000161383
0.000152627
0.000143611
0.000134435
0.000124999
0.000115508
0.000106001
9.64858e-05
8.71415e-05
7.7945e-05
6.90174e-05
6.04332e-05
5.22317e-05
4.4494e-05
3.72674e-05
3.05305e-05
2.44723e-05
1.89045e-05
1.40758e-05
9.897e-06
6.37786e-06
3.77724e-06
1.74767e-06
7.88799e-07
3.90327e-07
9.77759e-07
2.03083e-06
3.85864e-06
6.00192e-06
8.85913e-06
1.12905e-05
1.54171e-05
1.82915e-05
2.09685e-05
2.36054e-05
2.61315e-05
2.80548e-05
2.96523e-05
3.03908e-05
3.07293e-05
3.08318e-05
3.05429e-05
2.98708e-05
2.89068e-05
2.77239e-05
2.63782e-05
2.49243e-05
2.34165e-05
2.19048e-05
2.04322e-05
1.90331e-05
1.77321e-05
1.65436e-05
1.54721e-05
1.45112e-05
1.36478e-05
1.28626e-05
1.21245e-05
1.14077e-05
1.06882e-05
9.94413e-06
9.16001e-06
8.32625e-06
7.43876e-06
6.49888e-06
5.5124e-06
4.48806e-06
3.43709e-06
2.36607e-06
1.29896e-06
1.20446e-07
0.000456995
0.000456506
0.000454726
0.000452149
0.000449281
0.000446296
0.000443266
0.000440267
0.000437361
0.000434611
0.000431996
0.000429487
0.000427166
0.000424992
0.000422896
0.000420922
0.000419076
0.000417331
0.000415675
0.000414105
0.000412618
0.000411208
0.000409873
0.000408612
0.000407426
0.000406314
0.000405279
0.000404322
0.000403443
0.000402641
0.000401911
0.000401238
0.000400616
0.000399911
0.000399295
0.000398602
0.000397128
0.000394711
0.00039133
0.000386822
0.000381182
0.000374203
0.000366328
0.000357851
0.000348817
0.000339369
0.00032964
0.000319713
0.000309761
0.000299927
0.000290316
0.00028096
0.000271895
0.000263231
0.000254939
0.000247059
0.000239585
0.000232493
0.000225873
0.000219587
0.000213869
0.000208589
0.000203741
0.000199576
0.000196026
0.000193185
0.000190902
0.000189373
0.000188438
0.00018811
0.000188365
0.000189023
0.000190161
0.000191613
0.000193332
0.000195303
0.000197429
0.000199677
0.000202026
0.000204435
0.000206861
0.000209293
0.000211695
0.000214035
0.000216295
0.000218431
0.000220417
0.000222257
0.000223898
0.000225351
0.000226634
0.000227731
0.000228665
0.000229493
0.000230182
0.000230833
0.000231396
0.000231969
0.000232499
0.000233078
0.000233637
0.000234249
0.000234866
0.000235498
0.000236145
0.000236746
0.000237326
0.000237805
0.000238173
0.000238376
0.000238362
0.000238085
0.0002375
0.000236533
0.000235185
0.000233362
0.000231069
0.000228282
0.000224962
0.000221126
0.000216774
0.000211901
0.000206541
0.000200716
0.000194439
0.000187749
0.000180677
0.000173255
0.000165523
0.000157518
0.000149271
0.000140845
0.000132278
0.000123573
0.000114901
0.000106235
9.76118e-05
8.91654e-05
8.08976e-05
7.28824e-05
6.5175e-05
5.77948e-05
5.07898e-05
4.41806e-05
3.79389e-05
3.22031e-05
2.68537e-05
2.19779e-05
1.75871e-05
1.37124e-05
1.05377e-05
7.85362e-06
6.07133e-06
4.84677e-06
4.52787e-06
4.73596e-06
5.7606e-06
7.21265e-06
9.55514e-06
1.15675e-05
1.53513e-05
1.80036e-05
2.04491e-05
2.28804e-05
2.5233e-05
2.69583e-05
2.8354e-05
2.89308e-05
2.91713e-05
2.92349e-05
2.89463e-05
2.83022e-05
2.73926e-05
2.62884e-05
2.50392e-05
2.36924e-05
2.2297e-05
2.08994e-05
1.95387e-05
1.8245e-05
1.70389e-05
1.59323e-05
1.49291e-05
1.40224e-05
1.31999e-05
1.24436e-05
1.17282e-05
1.10291e-05
1.03239e-05
9.59466e-06
8.82924e-06
8.01975e-06
7.16245e-06
6.25828e-06
5.31202e-06
4.33059e-06
3.32329e-06
2.29399e-06
1.27151e-06
1.04816e-07
0.000454992
0.000454633
0.000453286
0.000451227
0.000448797
0.000446154
0.000443384
0.000440568
0.000437778
0.000435064
0.000432447
0.000429936
0.000427555
0.000425296
0.000423139
0.000421097
0.000419169
0.000417339
0.000415597
0.00041394
0.000412361
0.000410856
0.000409421
0.000408053
0.00040675
0.00040551
0.000404333
0.000403218
0.000402163
0.000401164
0.000400214
0.000399294
0.000398396
0.000397411
0.000396461
0.000395376
0.00039355
0.000390819
0.000387156
0.000382447
0.000376719
0.000369845
0.000362228
0.000354121
0.000345607
0.000336821
0.000327877
0.000318855
0.000309913
0.000301137
0.000292598
0.000284332
0.000276358
0.000268717
0.000261392
0.000254377
0.000247661
0.000241218
0.000235073
0.000229152
0.00022367
0.000218469
0.000213418
0.000208944
0.000205029
0.000201611
0.000198665
0.000196367
0.000194628
0.000193467
0.000192896
0.00019277
0.000193151
0.000193918
0.000195023
0.000196447
0.0001981
0.000199946
0.000201957
0.000204089
0.000206298
0.000208563
0.000210843
0.000213106
0.000215327
0.000217459
0.000219469
0.000221355
0.000223053
0.000224569
0.000225912
0.00022706
0.000228027
0.000228877
0.000229565
0.000230205
0.000230739
0.000231282
0.000231769
0.000232312
0.000232827
0.0002334
0.000233972
0.000234553
0.000235138
0.000235656
0.000236128
0.000236466
0.000236653
0.000236637
0.00023636
0.000235783
0.000234861
0.000233533
0.000231807
0.000229605
0.000226947
0.000223821
0.000220203
0.000216122
0.000211586
0.000206604
0.000201212
0.000195434
0.000189287
0.000182809
0.00017603
0.000168981
0.000161695
0.000154208
0.000146551
0.000138778
0.000130876
0.000122972
0.0001151
0.000107262
9.95055e-05
9.19201e-05
8.45181e-05
7.73408e-05
7.04238e-05
6.37757e-05
5.74153e-05
5.13442e-05
4.55322e-05
4.00957e-05
3.49648e-05
3.00551e-05
2.54872e-05
2.13232e-05
1.76388e-05
1.43636e-05
1.18203e-05
9.81273e-06
8.57531e-06
7.90041e-06
8.04938e-06
8.72516e-06
1.0422e-05
1.19325e-05
1.51868e-05
1.75428e-05
1.97038e-05
2.18615e-05
2.39628e-05
2.54448e-05
2.65966e-05
2.70099e-05
2.71525e-05
2.71697e-05
2.68857e-05
2.6289e-05
2.54632e-05
2.44743e-05
2.33632e-05
2.21675e-05
2.09288e-05
1.96885e-05
1.84805e-05
1.73279e-05
1.62452e-05
1.5241e-05
1.4318e-05
1.34712e-05
1.26892e-05
1.19557e-05
1.12538e-05
1.05608e-05
9.85754e-06
9.13269e-06
8.37987e-06
7.59333e-06
6.76953e-06
5.90925e-06
5.01604e-06
4.0944e-06
3.15072e-06
2.18548e-06
1.22875e-06
1.05843e-07
0.000453745
0.000453449
0.000452336
0.000450579
0.000448423
0.000446004
0.000443409
0.000440721
0.000438012
0.000435337
0.000432729
0.000430208
0.000427789
0.000425479
0.000423273
0.000421171
0.000419171
0.000417265
0.000415446
0.000413705
0.000412034
0.000410433
0.000408893
0.000407409
0.000405978
0.000404597
0.000403262
0.000401972
0.000400721
0.000399506
0.000398313
0.000397122
0.000395925
0.000394643
0.000393344
0.000391864
0.000389706
0.000386707
0.000382829
0.000377996
0.00037226
0.000365565
0.000358261
0.000350575
0.00034262
0.000334524
0.000326379
0.000318261
0.00031029
0.000302525
0.000295008
0.000287759
0.000280784
0.000274076
0.000267628
0.000261403
0.000255387
0.000249556
0.000243892
0.000238397
0.000233142
0.000228094
0.000223057
0.000218389
0.000214213
0.00021039
0.000206967
0.000204074
0.000201649
0.000199739
0.000198395
0.000197499
0.000197099
0.00019713
0.000197548
0.00019833
0.000199404
0.000200736
0.000202296
0.000204029
0.00020591
0.000207907
0.000209965
0.000212055
0.000214151
0.000216203
0.00021817
0.000220046
0.000221758
0.000223306
0.000224687
0.000225876
0.000226875
0.00022775
0.000228442
0.000229078
0.000229588
0.0002301
0.000230542
0.000231038
0.000231493
0.000232006
0.000232505
0.000233001
0.000233481
0.000233869
0.000234179
0.000234321
0.000234272
0.000233985
0.000233401
0.00023249
0.000231213
0.000229527
0.000227447
0.000224916
0.000221962
0.000218586
0.000214778
0.00021057
0.000205981
0.000201029
0.000195745
0.000190148
0.000184258
0.000178112
0.000171735
0.00016515
0.00015839
0.000151482
0.000144457
0.000137351
0.000130191
0.000123043
0.000115936
0.00010889
0.000101944
9.51507e-05
8.85265e-05
8.20932e-05
7.58676e-05
6.98546e-05
6.40493e-05
5.84485e-05
5.30359e-05
4.78424e-05
4.28337e-05
3.79375e-05
3.3297e-05
2.89012e-05
2.47669e-05
2.09719e-05
1.77773e-05
1.50678e-05
1.29393e-05
1.13822e-05
1.06268e-05
1.04708e-05
1.14258e-05
1.23297e-05
1.48943e-05
1.68617e-05
1.86741e-05
2.04872e-05
2.22581e-05
2.346e-05
2.43441e-05
2.46094e-05
2.46691e-05
2.46438e-05
2.43778e-05
2.38571e-05
2.3154e-05
2.23241e-05
2.13951e-05
2.03925e-05
1.93513e-05
1.83086e-05
1.72912e-05
1.6312e-05
1.53762e-05
1.44893e-05
1.3653e-05
1.28647e-05
1.21221e-05
1.14134e-05
1.07193e-05
1.00232e-05
9.31043e-06
8.579e-06
7.83403e-06
7.07028e-06
6.28335e-06
5.47421e-06
4.64494e-06
3.79713e-06
2.9334e-06
2.05037e-06
1.17612e-06
1.24924e-07
0.000453123
0.000452855
0.000451847
0.000450232
0.00044821
0.000445902
0.000443395
0.000440772
0.000438105
0.000435449
0.000432843
0.00043031
0.000427866
0.000425521
0.000423275
0.000421125
0.000419068
0.0004171
0.000415212
0.000413395
0.000411641
0.000409946
0.000408302
0.000406702
0.000405141
0.000403613
0.000402114
0.000400638
0.000399179
0.000397742
0.000396299
0.000394819
0.000393309
0.000391718
0.000390065
0.000388197
0.000385726
0.000382495
0.000378454
0.000373558
0.000367874
0.000361406
0.000354455
0.000347224
0.000339855
0.00033246
0.000325111
0.000317878
0.000310834
0.000304023
0.00029746
0.00029114
0.000285063
0.000279191
0.000273522
0.000268001
0.000262613
0.00025734
0.000252131
0.000247039
0.000242006
0.000237127
0.00023228
0.000227639
0.00022328
0.000219147
0.000215405
0.000212091
0.000209114
0.000206574
0.000204571
0.000202975
0.000201825
0.000201123
0.000200837
0.000200926
0.000201344
0.000202076
0.000203101
0.000204312
0.000205748
0.000207369
0.000209099
0.000210905
0.000212766
0.000214636
0.000216468
0.000218251
0.000219909
0.000221434
0.000222809
0.000224009
0.00022502
0.00022591
0.000226607
0.000227238
0.000227729
0.000228209
0.000228603
0.000229041
0.000229422
0.000229849
0.000230242
0.000230613
0.000230942
0.000231152
0.000231248
0.000231148
0.000230821
0.000230231
0.000229321
0.000228075
0.000226463
0.000224463
0.000222097
0.000219332
0.000216201
0.000212704
0.00020884
0.000204645
0.000200144
0.000195371
0.000190331
0.000185033
0.000179512
0.000173794
0.000167896
0.000161839
0.000155648
0.000149348
0.000142966
0.000136534
0.000130082
0.000123649
0.000117261
0.000110944
0.000104727
9.86373e-05
9.26917e-05
8.69016e-05
8.12662e-05
7.57923e-05
7.04547e-05
6.52528e-05
6.01641e-05
5.51781e-05
5.02913e-05
4.54498e-05
4.07312e-05
3.6169e-05
3.17194e-05
2.74782e-05
2.36876e-05
2.03184e-05
1.7379e-05
1.49992e-05
1.33576e-05
1.23325e-05
1.24214e-05
1.2727e-05
1.44392e-05
1.5911e-05
1.7312e-05
1.87165e-05
2.00903e-05
2.09939e-05
2.16135e-05
2.17618e-05
2.17678e-05
2.17213e-05
2.1494e-05
2.10727e-05
2.05324e-05
1.99176e-05
1.9219e-05
1.84426e-05
1.76283e-05
1.68152e-05
1.60218e-05
1.52454e-05
1.44765e-05
1.37168e-05
1.29701e-05
1.22274e-05
1.15086e-05
1.08186e-05
1.0128e-05
9.43168e-06
8.70932e-06
7.96643e-06
7.22975e-06
6.4906e-06
5.74355e-06
4.99085e-06
4.23303e-06
3.46828e-06
2.69464e-06
1.90431e-06
1.12338e-06
1.61971e-07
0.000453073
0.000452807
0.000451804
0.000450197
0.000448181
0.000445878
0.000443373
0.000440749
0.000438077
0.000435413
0.000432795
0.000430247
0.000427784
0.000425414
0.000423138
0.000420953
0.000418855
0.000416838
0.000414893
0.000413012
0.000411185
0.000409404
0.000407663
0.000405952
0.000404265
0.000402593
0.000400931
0.000399268
0.000397591
0.000395936
0.000394255
0.000392477
0.000390645
0.000388739
0.000386734
0.000384489
0.000381721
0.000378282
0.000374114
0.000369198
0.000363606
0.000357397
0.000350819
0.000344068
0.000337299
0.000330609
0.000324043
0.000317663
0.000311496
0.000305573
0.00029988
0.000294397
0.000289114
0.000283976
0.000278985
0.000274078
0.00026924
0.000264461
0.000259669
0.000254953
0.000250191
0.000245519
0.000240852
0.000236266
0.000231863
0.00022765
0.00022371
0.000220052
0.000216625
0.000213611
0.000211091
0.000208899
0.00020707
0.000205683
0.000204733
0.000204131
0.000203862
0.000203931
0.000204332
0.00020498
0.00020585
0.000206963
0.000208271
0.0002097
0.000211216
0.00021279
0.000214378
0.000215964
0.00021748
0.000218904
0.000220203
0.000221357
0.000222342
0.000223214
0.000223899
0.000224511
0.000224977
0.000225418
0.00022576
0.000226125
0.000226416
0.000226729
0.000226984
0.000227193
0.000227327
0.000227318
0.000227159
0.000226784
0.000226166
0.000225284
0.000224078
0.000222539
0.000220653
0.00021842
0.000215868
0.000212993
0.000209823
0.000206364
0.000202611
0.000198583
0.000194316
0.00018986
0.000185179
0.000180264
0.000175191
0.000169965
0.000164591
0.000159087
0.000153475
0.00014778
0.000142023
0.000136233
0.000130432
0.000124657
0.00011892
0.000113251
0.00010767
0.000102189
9.68214e-05
9.15752e-05
8.64328e-05
8.14078e-05
7.64565e-05
7.15854e-05
6.67604e-05
6.19595e-05
5.71911e-05
5.23998e-05
4.76164e-05
4.29009e-05
3.82259e-05
3.37147e-05
2.94205e-05
2.54128e-05
2.17206e-05
1.85952e-05
1.61055e-05
1.42051e-05
1.33344e-05
1.31113e-05
1.38225e-05
1.46779e-05
1.5602e-05
1.65431e-05
1.74718e-05
1.80785e-05
1.84698e-05
1.85499e-05
1.85481e-05
1.85395e-05
1.83915e-05
1.8059e-05
1.76849e-05
1.73422e-05
1.69344e-05
1.64123e-05
1.58368e-05
1.52707e-05
1.4717e-05
1.41455e-05
1.35423e-05
1.29139e-05
1.22687e-05
1.16068e-05
1.09382e-05
1.02593e-05
9.54724e-06
8.80847e-06
8.05464e-06
7.31595e-06
6.60699e-06
5.90233e-06
5.19993e-06
4.50702e-06
3.82404e-06
3.14578e-06
2.46473e-06
1.76643e-06
1.08496e-06
2.1299e-07
0.000453594
0.000453304
0.000452211
0.00045048
0.000448344
0.000445937
0.000443346
0.000440654
0.000437932
0.000435232
0.000432588
0.000430021
0.000427541
0.000425156
0.000422864
0.000420656
0.000418531
0.000416481
0.000414495
0.000412563
0.000410674
0.000408821
0.000406993
0.000405182
0.000403378
0.000401572
0.000399755
0.000397919
0.000396054
0.000394155
0.000392197
0.000390157
0.000388034
0.00038581
0.000383451
0.000380842
0.000377786
0.000374151
0.000369875
0.000364962
0.000359486
0.00035355
0.000347353
0.000341097
0.000334939
0.000328948
0.000323142
0.000317577
0.000312229
0.000307119
0.000302206
0.00029746
0.000292865
0.000288357
0.000283944
0.00027956
0.000275192
0.000270841
0.000266419
0.000262044
0.000257556
0.00025311
0.000248631
0.000244174
0.000239817
0.000235567
0.000231489
0.000227604
0.000223954
0.000220628
0.000217633
0.000214941
0.000212519
0.000210552
0.000209015
0.000207774
0.000206838
0.00020622
0.000205968
0.000206085
0.000206337
0.000206817
0.00020758
0.000208528
0.000209595
0.000210767
0.000211994
0.000213262
0.00021454
0.000215778
0.000216912
0.000217938
0.000218834
0.000219633
0.000220267
0.000220825
0.000221247
0.000221628
0.000221905
0.000222173
0.000222356
0.00022253
0.000222621
0.00022264
0.000222552
0.000222302
0.000221871
0.000221212
0.000220312
0.000219171
0.000217755
0.000216041
0.000214019
0.000211725
0.000209177
0.000206358
0.000203261
0.000199922
0.0001964
0.000192685
0.000188777
0.000184702
0.000180449
0.000176007
0.00017142
0.0001667
0.000161852
0.000156892
0.00015184
0.000146715
0.000141538
0.000136333
0.000131115
0.000125925
0.000120755
0.000115647
0.000110606
0.00010564
0.000100753
9.59576e-05
9.12189e-05
8.65617e-05
8.19243e-05
7.73249e-05
7.27157e-05
6.80779e-05
6.34164e-05
5.86799e-05
5.38759e-05
4.90808e-05
4.42184e-05
3.94468e-05
3.46966e-05
3.01956e-05
2.59276e-05
2.21012e-05
1.87147e-05
1.59545e-05
1.41381e-05
1.32421e-05
1.29864e-05
1.31781e-05
1.35755e-05
1.40181e-05
1.44649e-05
1.47693e-05
1.49906e-05
1.50748e-05
1.51047e-05
1.51372e-05
1.5118e-05
1.50234e-05
1.49081e-05
1.47943e-05
1.46415e-05
1.43864e-05
1.40561e-05
1.3748e-05
1.34477e-05
1.30857e-05
1.26433e-05
1.21372e-05
1.15845e-05
1.09873e-05
1.03486e-05
9.67158e-06
8.95751e-06
8.21917e-06
7.47384e-06
6.74102e-06
6.03237e-06
5.34577e-06
4.68462e-06
4.05187e-06
3.44393e-06
2.85167e-06
2.26436e-06
1.66629e-06
1.06612e-06
2.88737e-07
0.000454741
0.000454395
0.000453091
0.000451081
0.000448685
0.000446062
0.000443294
0.000440467
0.000437652
0.000434892
0.000432214
0.000429627
0.000427134
0.000424753
0.000422463
0.000420242
0.000418105
0.000416041
0.000414032
0.000412066
0.000410131
0.000408219
0.00040632
0.000404422
0.000402515
0.000400588
0.000398631
0.000396633
0.000394581
0.000392463
0.000390261
0.000387971
0.00038556
0.000383018
0.000380311
0.000377348
0.000374006
0.00037017
0.000365788
0.000360887
0.000355534
0.00034987
0.000344053
0.000338301