/*--------------------------------*- C++ -*----------------------------------*\
| =========                 |                                                 |
| \\      /  F ield         | OpenFOAM: The Open Source CFD Toolbox           |
|  \\    /   O peration     | Version:  2506                                  |
|   \\  /    A nd           | Website:  www.openfoam.com                      |
|    \\/     M anipulation  |                                                 |
\*---------------------------------------------------------------------------*/
FoamFile
{
    version     2.0;
    format      ascii;
    arch        "LSB;label=32;scalar=64";
    class       volScalarField;
    location    "2.5";
    object      p;
}
// * * * * * * * * * * * * * * * * * * * * * * * * * * * * * * * * * * * * * //

dimensions      [0 2 -2 0 0 0 0];

internalField   nonuniform List<scalar> 
4000
(
0.00454797
0.00447222
0.00442245
0.00439227
0.00436731
0.0043442
0.00432239
0.00430136
0.00428069
0.00426022
0.00423991
0.00421971
0.00419961
0.00417961
0.00415969
0.00413987
0.00412014
0.0041005
0.00408096
0.00406152
0.00404221
0.00402303
0.00400399
0.00398511
0.00396643
0.00394796
0.00392974
0.00391181
0.00389422
0.00387704
0.00386034
0.00384425
0.00382894
0.00381445
0.0038019
0.00379101
0.00377999
0.00376815
0.00375524
0.00374067
0.00372374
0.00370278
0.00367803
0.00365056
0.00362038
0.00358768
0.00355253
0.00351483
0.00347535
0.00343391
0.00339083
0.00334673
0.00330135
0.00325596
0.00320995
0.00316464
0.00311981
0.00307594
0.00303399
0.00299266
0.00295407
0.00291681
0.00288144
0.002848
0.00281578
0.00278547
0.0027561
0.00272824
0.00270123
0.00267528
0.00265027
0.00262597
0.00260262
0.00257998
0.0025581
0.00253706
0.00251677
0.00249726
0.00247857
0.00246066
0.0024435
0.00242709
0.0024114
0.00239638
0.00238201
0.00236823
0.00235504
0.0023424
0.00233028
0.00231866
0.00230753
0.00229686
0.00228663
0.00227684
0.00226743
0.00225843
0.00224976
0.00224143
0.00223336
0.00222558
0.00221797
0.00221054
0.00220321
0.00219592
0.00218865
0.0021813
0.00217386
0.00216622
0.00215836
0.0021502
0.00214169
0.00213278
0.00212339
0.00211344
0.0021029
0.00209162
0.00207957
0.00206664
0.00205273
0.00203775
0.00202161
0.00200419
0.00198546
0.00196537
0.00194383
0.00192082
0.00189634
0.00187034
0.00184287
0.00181391
0.0017834
0.00175152
0.0017182
0.00168333
0.00164721
0.00160977
0.00157071
0.00153083
0.00148953
0.0014474
0.00140442
0.00136088
0.00131709
0.00127353
0.00123013
0.00118822
0.00114662
0.00110752
0.00106987
0.00103416
0.00100084
0.000968864
0.000939461
0.000911264
0.000885226
0.000860241
0.000837113
0.000815194
0.000794919
0.000776409
0.000761775
0.000746688
0.000732034
0.000717781
0.000703944
0.000689827
0.000675256
0.00065904
0.000641725
0.000623793
0.000605234
0.000586055
0.000566293
0.000546006
0.000525269
0.000504171
0.000482804
0.000461263
0.000439634
0.000417988
0.000396383
0.00037486
0.000353471
0.000332244
0.000311198
0.000290339
0.000269666
0.00024917
0.000228836
0.000208633
0.000188548
0.000168555
0.000148629
0.000128747
0.000108889
8.90413e-05
6.91942e-05
4.93421e-05
2.9485e-05
9.70292e-06
0.00449878
0.00445576
0.00441861
0.00439194
0.00436845
0.00434567
0.00432378
0.00430263
0.00428189
0.00426138
0.00424105
0.00422085
0.00420076
0.00418078
0.00416089
0.0041411
0.00412141
0.00410181
0.00408232
0.00406293
0.00404366
0.00402453
0.00400553
0.0039867
0.00396806
0.00394962
0.00393143
0.00391352
0.00389594
0.00387875
0.00386202
0.00384584
0.00383035
0.00381556
0.00380209
0.00378967
0.00377686
0.0037632
0.00374841
0.00373189
0.00371301
0.00369044
0.0036646
0.00363638
0.00360569
0.00357271
0.00353756
0.00350019
0.00346133
0.00342083
0.00337901
0.00333642
0.00329295
0.00324952
0.00320578
0.00316269
0.00312024
0.00307852
0.00303838
0.00299898
0.00296181
0.00292591
0.00289162
0.00285903
0.00282762
0.00279788
0.00276906
0.00274158
0.00271496
0.00268931
0.00266448
0.00264033
0.00261701
0.00259437
0.00257243
0.00255123
0.00253075
0.00251098
0.00249197
0.00247371
0.00245617
0.00243936
0.00242324
0.0024078
0.00239299
0.00237879
0.00236515
0.00235206
0.00233947
0.00232735
0.00231571
0.00230451
0.00229372
0.00228334
0.00227333
0.00226368
0.00225436
0.00224534
0.00223659
0.00222808
0.00221975
0.00221158
0.0022035
0.00219547
0.00218745
0.00217936
0.00217117
0.0021628
0.0021542
0.00214531
0.00213607
0.00212641
0.00211626
0.00210553
0.00209417
0.00208204
0.0020691
0.00205524
0.00204035
0.00202437
0.00200721
0.0019888
0.00196909
0.00194804
0.00192558
0.00190172
0.00187644
0.00184975
0.00182166
0.00179219
0.00176132
0.00172918
0.00169573
0.00166091
0.00162497
0.00158784
0.00154941
0.00151025
0.00147
0.0014291
0.00138764
0.00134587
0.0013041
0.00126267
0.00122161
0.00118194
0.00114292
0.00110587
0.00107013
0.001036
0.00100392
0.000973159
0.000944596
0.000917215
0.000891721
0.000867206
0.000844327
0.000822584
0.00080224
0.000783193
0.000767166
0.000750889
0.000735033
0.000719589
0.000704457
0.000689226
0.00067364
0.000656923
0.000639418
0.000621406
0.000602834
0.000583685
0.000563985
0.000543783
0.000523148
0.000502162
0.000480912
0.000459486
0.000437962
0.000416413
0.000394901
0.000373486
0.000352198
0.00033106
0.000310094
0.00028931
0.000268708
0.000248281
0.000228021
0.000207905
0.000187904
0.000167993
0.000148149
0.00012835
0.000108576
8.88112e-05
6.90457e-05
4.9271e-05
2.94786e-05
9.70378e-06
0.0044751
0.00444636
0.00441625
0.00439178
0.00436894
0.0043466
0.00432488
0.00430372
0.00428294
0.00426241
0.00424205
0.00422184
0.00420176
0.00418178
0.0041619
0.00414212
0.00412245
0.00410287
0.00408339
0.00406403
0.00404479
0.00402567
0.00400669
0.00398788
0.00396924
0.00395081
0.00393261
0.00391469
0.00389707
0.00387981
0.00386297
0.00384663
0.00383086
0.00381564
0.00380129
0.00378755
0.00377334
0.00375823
0.00374189
0.00372374
0.00370325
0.00367957
0.00365314
0.00362455
0.00359374
0.00356084
0.00352602
0.00348933
0.00345134
0.00341199
0.00337155
0.00333053
0.00328891
0.0032473
0.00320561
0.00316442
0.00312377
0.00308383
0.00304519
0.00300729
0.00297111
0.00293611
0.00290247
0.00287032
0.00283932
0.00280976
0.00278114
0.00275375
0.00272721
0.00270158
0.00267678
0.00265264
0.00262927
0.00260656
0.0025845
0.00256313
0.00254242
0.0025224
0.00250309
0.00248448
0.00246658
0.00244939
0.00243288
0.00241703
0.00240182
0.00238721
0.00237317
0.00235967
0.00234668
0.00233415
0.00232208
0.00231044
0.0022992
0.00228834
0.00227784
0.00226769
0.00225784
0.00224829
0.00223899
0.00222992
0.00222103
0.00221228
0.00220364
0.00219504
0.00218643
0.00217776
0.00216899
0.00216004
0.00215086
0.00214137
0.00213152
0.00212123
0.00211043
0.00209902
0.00208695
0.00207408
0.00206036
0.00204569
0.00202996
0.00201313
0.00199513
0.00197588
0.00195534
0.0019335
0.0019103
0.00188577
0.0018599
0.0018327
0.00180421
0.00177444
0.0017434
0.00171119
0.0016778
0.00164323
0.00160765
0.00157106
0.00153343
0.00149516
0.00145607
0.00141651
0.00137659
0.00133654
0.00129662
0.0012571
0.00121808
0.00118008
0.00114278
0.0011071
0.00107266
0.00103964
0.00100838
0.000978354
0.000950227
0.00092325
0.000897941
0.000873651
0.000850803
0.000829027
0.000808534
0.000788953
0.000771614
0.000754233
0.000737322
0.000720846
0.000704701
0.000688512
0.000672143
0.000655021
0.000637356
0.000619287
0.000600715
0.000581598
0.000561956
0.00054183
0.000521282
0.000500392
0.000479244
0.000457921
0.000436502
0.000415056
0.00039364
0.000372302
0.00035108
0.000330009
0.000309108
0.000288388
0.000267852
0.000247492
0.000227291
0.000207239
0.000187307
0.00016747
0.000147704
0.000127984
0.000108289
8.86026e-05
6.89106e-05
4.92017e-05
2.94607e-05
9.68222e-06
0.00446356
0.00443974
0.00441336
0.00439073
0.0043689
0.00434693
0.00432549
0.00430449
0.00428378
0.00426327
0.00424292
0.00422272
0.00420264
0.00418267
0.0041628
0.00414303
0.00412336
0.00410379
0.00408433
0.00406497
0.00404573
0.00402662
0.00400764
0.00398881
0.00397015
0.00395168
0.00393343
0.00391542
0.0038977
0.00388029
0.00386325
0.00384662
0.00383046
0.00381468
0.00379952
0.00378472
0.00376931
0.00375293
0.00373527
0.00371581
0.00369418
0.00366975
0.00364291
0.00361412
0.00358333
0.00355069
0.00351638
0.00348052
0.00344351
0.0034054
0.00336647
0.00332707
0.00328724
0.00324743
0.00320762
0.00316819
0.00312923
0.00309087
0.00305351
0.0030168
0.00298141
0.00294705
0.00291386
0.00288197
0.00285114
0.00282161
0.00279302
0.00276561
0.00273903
0.00271335
0.00268848
0.00266429
0.00264084
0.00261802
0.00259583
0.0025743
0.0025534
0.00253315
0.00251358
0.00249468
0.00247646
0.00245893
0.00244208
0.00242588
0.00241031
0.00239535
0.00238095
0.0023671
0.00235373
0.00234083
0.00232836
0.0023163
0.00230463
0.00229332
0.00228234
0.00227169
0.00226133
0.00225124
0.00224139
0.00223176
0.00222229
0.00221297
0.00220374
0.00219455
0.00218537
0.00217612
0.00216676
0.00215723
0.00214746
0.00213737
0.00212691
0.00211599
0.00210453
0.00209243
0.00207964
0.00206602
0.00205152
0.00203604
0.0020195
0.00200185
0.00198304
0.001963
0.00194171
0.00191918
0.00189537
0.00187031
0.00184401
0.00181649
0.00178778
0.00175792
0.00172692
0.00169486
0.00166178
0.00162767
0.0015927
0.00155688
0.00152021
0.00148303
0.00144524
0.0014071
0.00136876
0.00133038
0.00129217
0.00125434
0.00121697
0.00118043
0.00114458
0.00110999
0.00107649
0.00104419
0.0010134
0.000983759
0.000955766
0.000928903
0.000903548
0.000879318
0.000856313
0.000834319
0.000813576
0.000793522
0.000775325
0.000757004
0.000739142
0.000721739
0.000704732
0.000687769
0.000670831
0.000653358
0.000635522
0.000617393
0.000598809
0.000579704
0.000560089
0.000540003
0.000519504
0.000498667
0.000477578
0.000456319
0.000434965
0.000413584
0.000392233
0.00037096
0.000349808
0.000328806
0.000307974
0.000287326
0.000266864
0.000246579
0.000226461
0.000206493
0.000186647
0.000166898
0.00014722
0.000127587
0.000107976
8.83681e-05
6.87482e-05
4.91016e-05
2.94116e-05
9.65102e-06
0.00445639
0.00443426
0.00441028
0.00438911
0.0043683
0.00434704
0.00432593
0.00430508
0.00428449
0.00426405
0.00424374
0.00422355
0.00420348
0.00418351
0.00416365
0.00414388
0.00412422
0.00410465
0.00408518
0.00406581
0.00404656
0.00402742
0.00400841
0.00398954
0.00397082
0.00395228
0.00393393
0.0039158
0.00389791
0.0038803
0.00386298
0.00384599
0.00382936
0.00381297
0.00379703
0.00378127
0.00376478
0.00374724
0.00372841
0.00370785
0.00368532
0.0036603
0.00363315
0.00360426
0.00357361
0.00354137
0.00350772
0.00347277
0.00343682
0.00340003
0.00336267
0.00332489
0.00328682
0.00324876
0.00321074
0.003173
0.00313565
0.00309874
0.00306258
0.00302697
0.00299233
0.00295856
0.00292577
0.00289408
0.00286335
0.0028338
0.00280516
0.00277761
0.00275091
0.00272509
0.00270009
0.00267576
0.00265218
0.00262922
0.00260688
0.00258517
0.00256407
0.00254359
0.00252376
0.00250458
0.00248606
0.00246822
0.00245103
0.0024345
0.00241861
0.00240331
0.00238858
0.00237438
0.00236067
0.00234741
0.00233458
0.00232213
0.00231004
0.00229829
0.00228684
0.00227571
0.00226482
0.0022542
0.00224378
0.00223359
0.00222353
0.00221362
0.00220379
0.00219401
0.00218423
0.00217437
0.00216442
0.00215427
0.00214389
0.00213318
0.00212207
0.00211047
0.00209832
0.00208549
0.00207194
0.00205753
0.00204221
0.00202592
0.00200855
0.00199009
0.0019705
0.00194972
0.00192777
0.00190464
0.00188033
0.00185487
0.00182827
0.00180058
0.00177182
0.00174203
0.00171123
0.00167951
0.00164692
0.00161343
0.00157921
0.0015443
0.00150872
0.00147273
0.00143629
0.0013996
0.0013628
0.001326
0.00128938
0.00125309
0.00121719
0.00118197
0.00114732
0.00111365
0.00108089
0.00104912
0.00101863
0.000989179
0.000961179
0.000934258
0.000908745
0.000884356
0.000861087
0.000838795
0.000817718
0.000797176
0.000778355
0.000759227
0.000740518
0.000722294
0.000704549
0.000686935
0.00066953
0.00065172
0.000633693
0.00061548
0.000596855
0.000577727
0.000558107
0.00053803
0.000517553
0.000496752
0.000475709
0.000454505
0.000433215
0.000411904
0.000390628
0.000369435
0.000348365
0.000327447
0.000306701
0.00028614
0.000265764
0.000245575
0.000225551
0.000205677
0.000185926
0.000166271
0.000146685
0.000127141
0.000107617
8.80911e-05
6.85466e-05
4.89678e-05
2.93387e-05
9.62024e-06
0.00445154
0.0044301
0.00440759
0.00438759
0.00436761
0.00434695
0.00432618
0.00430558
0.00428514
0.00426479
0.00424452
0.00422436
0.00420431
0.00418434
0.00416448
0.0041447
0.00412502
0.00410544
0.00408595
0.00406656
0.00404727
0.00402809
0.00400902
0.00399008
0.00397127
0.00395262
0.00393413
0.00391582
0.00389772
0.00387984
0.00386219
0.00384479
0.00382764
0.00381063
0.00379392
0.00377727
0.00375979
0.00374122
0.00372136
0.00369987
0.00367659
0.00365112
0.00362378
0.00359491
0.00356453
0.00353279
0.00349987
0.00346588
0.00343111
0.00339567
0.00335979
0.00332361
0.00328722
0.00325084
0.0032145
0.00317836
0.00314251
0.00310697
0.00307198
0.0030374
0.00300353
0.00297034
0.00293795
0.00290647
0.00287584
0.00284624
0.0028175
0.00278976
0.00276287
0.00273684
0.00271162
0.0026871
0.00266331
0.00264015
0.00261762
0.00259571
0.00257439
0.00255367
0.00253359
0.00251413
0.00249532
0.00247716
0.00245966
0.00244281
0.0024266
0.00241098
0.00239594
0.00238143
0.0023674
0.00235381
0.00234064
0.00232782
0.00231534
0.00230318
0.00229128
0.00227967
0.00226827
0.00225712
0.00224614
0.00223538
0.00222472
0.00221422
0.00220377
0.00219337
0.00218297
0.00217248
0.0021619
0.00215111
0.00214007
0.00212869
0.00211689
0.00210458
0.00209167
0.00207807
0.00206372
0.00204849
0.00203235
0.00201524
0.00199707
0.00197783
0.00195752
0.00193609
0.00191357
0.00188996
0.00186528
0.00183956
0.00181283
0.00178511
0.00175645
0.00172689
0.00169644
0.00166521
0.00163324
0.00160048
0.00156712
0.00153321
0.00149877
0.00146399
0.0014289
0.00139362
0.00135828
0.00132296
0.0012878
0.0012529
0.00121832
0.00118424
0.00115062
0.00111773
0.00108558
0.00105423
0.00102394
0.000994563
0.000966455
0.000939343
0.000913549
0.0008888
0.000865197
0.000842526
0.000821072
0.000800027
0.000780682
0.000760868
0.000741432
0.000722516
0.000704167
0.000686003
0.000668177
0.000650026
0.000631771
0.000613422
0.000594698
0.000575492
0.000555819
0.000535719
0.000515247
0.000494476
0.000473487
0.000452359
0.00043116
0.000409951
0.000388786
0.000367707
0.000346753
0.00032595
0.000305319
0.000284869
0.000264603
0.000244517
0.000224595
0.000204817
0.00018516
0.000165596
0.000146098
0.000126641
0.0001072
8.77568e-05
6.8293e-05
4.87894e-05
2.92366e-05
9.58499e-06
0.00444823
0.00442712
0.00440548
0.00438629
0.00436694
0.00434676
0.00432635
0.00430601
0.00428572
0.00426547
0.00424527
0.00422515
0.0042051
0.00418514
0.00416527
0.00414548
0.00412578
0.00410617
0.00408664
0.00406721
0.00404787
0.00402862
0.00400948
0.00399044
0.00397151
0.00395271
0.00393404
0.00391552
0.00389716
0.00387896
0.00386094
0.00384308
0.00382539
0.00380775
0.00379031
0.0037728
0.00375442
0.00373492
0.00371418
0.00369191
0.00366805
0.00364226
0.00361485
0.0035861
0.00355607
0.00352491
0.00349279
0.00345981
0.00342621
0.00339212
0.00335767
0.00332301
0.00328821
0.0032534
0.00321863
0.003184
0.00314953
0.00311529
0.00308142
0.00304786
0.00301476
0.00298218
0.00295024
0.00291902
0.00288851
0.00285889
0.00283004
0.00280211
0.00277499
0.00274869
0.0027232
0.0026984
0.00267435
0.00265093
0.00262814
0.00260598
0.00258441
0.00256344
0.00254308
0.00252335
0.00250424
0.00248578
0.00246796
0.0024508
0.00243427
0.00241834
0.00240299
0.00238818
0.00237384
0.00235994
0.00234644
0.00233328
0.00232043
0.00230788
0.00229554
0.00228347
0.00227157
0.0022599
0.00224837
0.00223703
0.00222577
0.00221465
0.00220357
0.00219252
0.00218148
0.00217033
0.00215908
0.0021476
0.00213586
0.00212376
0.00211121
0.00209813
0.00208443
0.00207001
0.00205484
0.00203878
0.00202183
0.00200391
0.00198499
0.00196506
0.00194412
0.00192216
0.00189919
0.00187525
0.00185035
0.00182452
0.0017978
0.00177022
0.00174181
0.00171261
0.00168264
0.00165204
0.00162074
0.00158881
0.00155638
0.0015235
0.0014902
0.00145663
0.00142283
0.00138889
0.0013549
0.00132095
0.0012871
0.00125344
0.00122004
0.00118699
0.00115426
0.00112206
0.00109043
0.00105942
0.00102928
0.000999918
0.000971631
0.000944238
0.000918063
0.000892858
0.000868808
0.000845654
0.000823765
0.000802208
0.000782369
0.00076198
0.000741942
0.000722461
0.000703615
0.000684973
0.000666731
0.000648214
0.000629672
0.000611101
0.000592193
0.000572838
0.000553062
0.000532908
0.000512432
0.000491702
0.000470795
0.000449783
0.000428725
0.000407673
0.000386672
0.000365763
0.000344975
0.000324331
0.00030385
0.00028354
0.000263402
0.000243431
0.000223614
0.000203931
0.00018436
0.000164877
0.000145457
0.000126077
0.000106714
8.73509e-05
6.79706e-05
4.85554e-05
2.90988e-05
9.53839e-06
0.00444599
0.00442508
0.00440396
0.00438529
0.00436639
0.0043466
0.00432649
0.00430636
0.00428623
0.00426608
0.00424594
0.00422586
0.00420584
0.00418589
0.00416601
0.00414621
0.00412648
0.00410684
0.00408727
0.00406778
0.00404838
0.00402905
0.00400981
0.00399065
0.00397158
0.0039526
0.00393373
0.00391496
0.0038963
0.00387775
0.00385932
0.00384098
0.00382274
0.00380448
0.00378631
0.00376797
0.00374876
0.00372846
0.00370697
0.00368407
0.00365975
0.00363377
0.00360638
0.00357784
0.00354823
0.00351771
0.00348642
0.00345445
0.00342201
0.0033892
0.00335613
0.00332291
0.00328958
0.00325624
0.00322291
0.00318966
0.00315651
0.00312347
0.0030907
0.00305816
0.00302584
0.00299389
0.00296246
0.00293158
0.00290128
0.00287171
0.00284281
0.00281471
0.00278736
0.00276079
0.00273498
0.00270986
0.00268549
0.00266175
0.00263865
0.00261618
0.00259431
0.00257305
0.00255239
0.00253235
0.00251292
0.00249414
0.002476
0.0024585
0.00244164
0.00242539
0.00240971
0.00239458
0.00237992
0.0023657
0.00235188
0.00233838
0.00232516
0.00231223
0.00229947
0.00228695
0.00227456
0.00226237
0.00225027
0.00223835
0.00222648
0.00221473
0.002203
0.00219128
0.00217955
0.00216771
0.00215574
0.00214353
0.00213104
0.00211816
0.00210482
0.00209093
0.00207641
0.00206116
0.00204516
0.0020283
0.00201056
0.00199192
0.00197233
0.00195182
0.00193038
0.00190802
0.00188477
0.00186065
0.00183567
0.00180989
0.00178333
0.00175601
0.00172798
0.00169926
0.00166989
0.00163992
0.00160937
0.00157832
0.00154685
0.001515
0.00148281
0.0014504
0.00141781
0.00138511
0.00135238
0.00131965
0.00128699
0.00125445
0.00122211
0.00118998
0.00115804
0.00112648
0.00109532
0.00106462
0.00103462
0.00100526
0.000976758
0.000949042
0.000922423
0.000896703
0.000872103
0.000848387
0.000825989
0.000803915
0.000783552
0.000762672
0.000742134
0.000722179
0.000702895
0.000683805
0.000665108
0.000646188
0.00062729
0.000608399
0.000589214
0.000569642
0.000549719
0.000529496
0.000509022
0.000488362
0.000467584
0.000446747
0.000425895
0.000405067
0.000384297
0.000363617
0.00034305
0.000322612
0.000302318
0.000282174
0.000262181
0.000242334
0.00022262
0.000203025
0.000183531
0.000164116
0.000144761
0.000125446
0.000106154
8.68701e-05
6.75791e-05
4.82651e-05
2.89255e-05
9.47758e-06
0.00444458
0.00442381
0.00440299
0.00438465
0.00436605
0.00434652
0.00432663
0.00430667
0.00428667
0.00426661
0.00424654
0.0042265
0.0042065
0.00418656
0.00416668
0.00414687
0.00412712
0.00410744
0.00408783
0.00406828
0.0040488
0.00402939
0.00401004
0.00399075
0.00397152
0.00395235
0.00393325
0.00391421
0.00389524
0.00387632
0.00385746
0.00383863
0.00381982
0.00380094
0.00378206
0.00376293
0.00374297
0.00372197
0.00369983
0.00367643
0.00365177
0.00362568
0.0035984
0.00357013
0.00354099
0.00351113
0.00348067
0.00344971
0.00341839
0.0033868
0.00335502
0.00332313
0.00329117
0.00325917
0.00322718
0.0031952
0.00316326
0.00313139
0.00309964
0.00306805
0.00303659
0.00300534
0.00297445
0.00294399
0.00291398
0.00288457
0.0028557
0.00282751
0.0028
0.00277318
0.00274707
0.00272163
0.0026969
0.00267281
0.00264935
0.00262652
0.0026043
0.00258268
0.00256168
0.00254129
0.00252151
0.00250236
0.00248386
0.00246599
0.00244876
0.00243213
0.00241608
0.00240059
0.00238558
0.002371
0.00235681
0.00234295
0.00232935
0.00231601
0.00230283
0.00228986
0.00227698
0.00226427
0.00225162
0.0022391
0.00222661
0.00221421
0.00220181
0.0021894
0.00217696
0.00216438
0.00215166
0.00213868
0.00212539
0.00211171
0.00209754
0.00208282
0.00206747
0.00205141
0.00203462
0.00201701
0.00199857
0.0019793
0.00195918
0.00193821
0.00191644
0.00189384
0.00187045
0.0018463
0.00182141
0.00179581
0.00176953
0.00174259
0.00171502
0.00168685
0.00165813
0.00162883
0.00159908
0.00156892
0.00153838
0.00150752
0.00147639
0.00144507
0.00141361
0.00138204
0.00135044
0.00131882
0.00128724
0.00125571
0.00122429
0.00119297
0.00116182
0.00113088
0.00110014
0.00106972
0.00103987
0.00101056
0.000981846
0.000953802
0.000926724
0.00090046
0.000875234
0.000850907
0.000827922
0.000805327
0.000784369
0.000763043
0.000742069
0.000721683
0.00070196
0.000682415
0.000663198
0.000643833
0.000624527
0.000605241
0.000585712
0.000565876
0.000545782
0.000525485
0.00050503
0.00048448
0.000463892
0.000443298
0.00042272
0.000402184
0.000381704
0.000361309
0.000341011
0.000320819
0.000300742
0.000280786
0.000260948
0.000241227
0.000221615
0.0002021
0.00018267
0.000163311
0.000144009
0.000124751
0.000105526
8.63212e-05
6.71269e-05
4.79275e-05
2.8723e-05
9.40572e-06
0.00444388
0.00442319
0.00440255
0.00438438
0.00436596
0.00434658
0.00432682
0.00430698
0.00428706
0.00426706
0.00424705
0.00422704
0.00420707
0.00418714
0.00416726
0.00414744
0.00412768
0.00410797
0.00408832
0.00406872
0.00404916
0.00402967
0.00401021
0.00399078
0.00397138
0.00395202
0.00393269
0.00391337
0.00389407
0.00387478
0.0038555
0.00383617
0.00381679
0.0037973
0.00377773
0.00375784
0.00373719
0.00371557
0.00369289
0.00366907
0.00364415
0.00361804
0.00359091
0.00356294
0.00353431
0.00350512
0.00347549
0.00344549
0.00341524
0.0033848
0.00335422
0.00332355
0.00329283
0.00326206
0.00323127
0.00320047
0.00316966
0.00313887
0.00310809
0.00307741
0.00304679
0.00301631
0.00298606
0.00295605
0.00292641
0.00289729
0.00286855
0.00284035
0.00281279
0.00278581
0.00275944
0.00273371
0.00270865
0.0026842
0.00266036
0.00263713
0.00261451
0.00259249
0.0025711
0.00255032
0.00253014
0.00251056
0.00249162
0.00247332
0.00245565
0.00243859
0.00242209
0.00240616
0.00239071
0.00237571
0.0023611
0.00234681
0.00233277
0.002319
0.00230536
0.00229191
0.00227853
0.00226529
0.00225208
0.00223897
0.00222585
0.0022128
0.00219972
0.00218661
0.00217343
0.00216009
0.0021466
0.00213282
0.00211872
0.00210422
0.00208923
0.0020737
0.00205755
0.00204074
0.00202325
0.00200499
0.00198598
0.00196621
0.00194569
0.00192444
0.00190249
0.00187982
0.00185644
0.0018324
0.00180771
0.00178241
0.0017565
0.00173
0.00170295
0.00167537
0.00164729
0.00161873
0.00158977
0.00156045
0.00153079
0.00150087
0.00147072
0.00144041
0.00140996
0.00137943
0.00134884
0.00131822
0.0012876
0.00125698
0.0012264
0.00119585
0.00116538
0.00113502
0.00110477
0.00107467
0.00104496
0.00101569
0.000986816
0.000958492
0.000930984
0.000904173
0.000878292
0.000853325
0.000829674
0.000806544
0.000784916
0.000763145
0.000741753
0.000720928
0.000700719
0.000680717
0.000660961
0.000641106
0.000621333
0.000601601
0.00058172
0.000561644
0.000541403
0.000521039
0.000500593
0.000480162
0.000459816
0.000439534
0.000419294
0.000399097
0.000378965
0.000358896
0.000338899
0.000318976
0.000299134
0.000279376
0.000259701
0.000240107
0.00022059
0.000201146
0.000181771
0.000162458
0.000143201
0.000123994
0.000104834
8.57146e-05
6.66272e-05
4.75571e-05
2.85011e-05
9.33093e-06
0.00444382
0.00442321
0.00440262
0.0043845
0.00436613
0.00434681
0.00432709
0.00430729
0.00428741
0.00426746
0.00424747
0.00422749
0.00420754
0.00418763
0.00416776
0.00414794
0.00412816
0.00410844
0.00408875
0.0040691
0.00404949
0.0040299
0.00401034
0.00399078
0.00397123
0.00395168
0.00393211
0.00391251
0.00389288
0.00387322
0.00385354
0.00383373
0.00381378
0.0037937
0.00377346
0.00375286
0.00373155
0.00370937
0.00368622
0.00366206
0.00363694
0.00361084
0.00358389
0.00355627
0.00352815
0.00349963
0.00347079
0.00344172
0.00341247
0.00338309
0.00335361
0.00332405
0.00329445
0.00326478
0.00323509
0.00320535
0.00317556
0.00314577
0.00311592
0.00308614
0.00305631
0.00302659
0.00299699
0.00296758
0.00293844
0.00290963
0.00288109
0.00285302
0.00282553
0.00279848
0.00277194
0.00274599
0.00272065
0.00269588
0.00267168
0.00264805
0.002625
0.00260255
0.00258073
0.00255952
0.0025389
0.00251883
0.00249938
0.00248056
0.00246236
0.00244476
0.00242773
0.00241126
0.00239527
0.00237975
0.00236462
0.00234982
0.00233528
0.002321
0.00230685
0.00229289
0.00227898
0.00226519
0.0022514
0.0022377
0.00222396
0.00221026
0.00219649
0.00218267
0.00216876
0.00215468
0.0021404
0.00212585
0.00211096
0.00209566
0.00207988
0.00206358
0.00204671
0.00202924
0.00201115
0.0019924
0.00197297
0.00195289
0.00193216
0.0019108
0.00188883
0.00186622
0.00184296
0.00181912
0.00179473
0.00176979
0.0017443
0.00171828
0.00169177
0.00166478
0.00163733
0.00160948
0.00158127
0.00155273
0.0015239
0.00149484
0.00146559
0.00143618
0.00140666
0.00137705
0.00134737
0.00131765
0.00128788
0.00125809
0.00122827
0.00119843
0.0011686
0.00113877
0.00110899
0.0010793
0.0010498
0.00102059
0.000991593
0.000963054
0.000935142
0.000907796
0.000881285
0.000855679
0.000831281
0.000807581
0.000785219
0.000762978
0.000741156
0.000719869
0.000699151
0.000678647
0.00065841
0.00063815
0.000617811
0.000597487
0.000577288
0.000557026
0.000536651
0.000516273
0.000495953
0.000475738
0.000455652
0.000435676
0.000415773
0.00039593
0.000376153
0.000356428
0.000336752
0.000317106
0.000297501
0.000277939
0.00025842
0.000238946
0.00021952
0.000200145
0.000180822
0.000161555
0.000142344
0.000123191
0.000104098
8.50706e-05
6.6099e-05
4.71641e-05
2.82612e-05
9.25845e-06
0.00444441
0.00442384
0.0044032
0.00438502
0.00436657
0.0043472
0.00432745
0.00430763
0.00428774
0.00426779
0.00424782
0.00422786
0.00420793
0.00418803
0.00416817
0.00414836
0.00412858
0.00410884
0.00408913
0.00406945
0.00404978
0.00403012
0.00401046
0.00399079
0.0039711
0.00395137
0.00393158
0.00391173
0.0038918
0.00387179
0.00385167
0.00383138
0.00381092
0.00379028
0.0037694
0.00374811
0.0037262
0.0037035
0.00367991
0.00365545
0.00363018
0.0036041
0.00357733
0.00355006
0.00352246
0.0034946
0.00346652
0.00343832
0.00340999
0.00338158
0.00335309
0.00332453
0.00329592
0.00326724
0.00323853
0.00320974
0.00318089
0.00315201
0.00312303
0.00309409
0.00306506
0.00303609
0.00300717
0.00297837
0.00294973
0.0029213
0.00289316
0.00286536
0.00283796
0.00281093
0.00278429
0.00275822
0.00273273
0.0027077
0.00268317
0.00265918
0.00263571
0.00261281
0.00259056
0.0025689
0.00254776
0.00252718
0.00250719
0.00248776
0.00246894
0.00245071
0.00243304
0.00241593
0.00239929
0.00238313
0.00236737
0.00235195
0.00233681
0.00232194
0.00230722
0.00229268
0.0022782
0.00226383
0.00224947
0.00223516
0.00222081
0.00220646
0.00219203
0.00217752
0.00216288
0.00214807
0.00213305
0.00211776
0.00210214
0.00208613
0.00206967
0.00205275
0.00203534
0.00201736
0.00199877
0.00197957
0.00195985
0.00193962
0.00191887
0.00189754
0.00187564
0.00185319
0.00183019
0.00180665
0.00178259
0.00175802
0.00173295
0.00170741
0.00168141
0.00165498
0.00162814
0.00160094
0.00157341
0.0015456
0.00151752
0.00148924
0.00146079
0.0014322
0.00140349
0.00137471
0.00134583
0.00131692
0.00128792
0.00125888
0.00122977
0.00120059
0.00117137
0.00114209
0.00111277
0.00108348
0.00105419
0.00102509
0.000996101
0.000967426
0.000939141
0.000911321
0.000884136
0.00085783
0.000832651
0.000808361
0.000785226
0.000762498
0.000740257
0.000718527
0.000697187
0.000676073
0.000655355
0.000634714
0.000614025
0.000593387
0.000572836
0.000552322
0.000531869
0.000511529
0.000491344
0.000471342
0.00045152
0.000431848
0.000412286
0.000392803
0.000373374
0.000353972
0.000334605
0.000315215
0.000295832
0.000276455
0.000257082
0.000237721
0.000218383
0.000199075
0.000179809
0.000160594
0.000141439
0.000122352
0.000103342
8.44114e-05
6.5558e-05
4.67695e-05
2.80519e-05
9.2241e-06
0.00444571
0.00442514
0.00440433
0.00438592
0.00436728
0.00434774
0.00432787
0.00430796
0.00428803
0.00426806
0.00424809
0.00422814
0.00420823
0.00418835
0.00416852
0.00414872
0.00412895
0.00410922
0.0040895
0.00406979
0.00405008
0.00403036
0.00401063
0.00399085
0.00397103
0.00395114
0.00393117
0.00391109
0.00389089
0.00387054
0.00385003
0.00382931
0.00380836
0.00378718
0.00376568
0.00374374
0.00372123
0.00369802
0.00367402
0.00364926
0.00362386
0.00359783
0.00357121
0.00354429
0.0035172
0.00348997
0.00346262
0.00343521
0.00340772
0.00338018
0.00335257
0.00332489
0.00329717
0.00326936
0.00324151
0.00321358
0.00318557
0.00315752
0.00312935
0.0031012
0.00307293
0.00304469
0.00301645
0.00298827
0.00296019
0.00293225
0.00290451
0.002877
0.00284978
0.00282288
0.00279635
0.00277027
0.0027446
0.00271939
0.00269459
0.00267025
0.00264645
0.00262322
0.00260052
0.00257834
0.00255666
0.00253557
0.00251502
0.00249497
0.00247545
0.0024565
0.00243812
0.00242027
0.00240291
0.00238602
0.00236954
0.0023534
0.00233757
0.002322
0.00230663
0.00229144
0.00227635
0.00226137
0.0022464
0.00223148
0.00221653
0.00220157
0.00218653
0.00217138
0.00215611
0.00214063
0.00212488
0.00210882
0.00209247
0.00207584
0.00205888
0.00204149
0.00202362
0.00200527
0.00198641
0.00196702
0.00194716
0.0019269
0.00190621
0.00188498
0.00186321
0.00184096
0.00181821
0.00179498
0.00177126
0.00174707
0.0017224
0.0016973
0.00167178
0.00164586
0.00161957
0.00159295
0.00156603
0.00153887
0.00151146
0.00148388
0.00145614
0.00142827
0.00140029
0.00137224
0.0013441
0.0013159
0.0012876
0.00125924
0.00123078
0.00120223
0.00117359
0.00114484
0.00111599
0.00108711
0.00105811
0.00102919
0.00100023
0.000971414
0.000942793
0.000914567
0.000886821
0.000859849
0.000833782
0.000808762
0.000784778
0.000761508
0.000738773
0.000716557
0.000694734
0.000673288
0.000652115
0.000631103
0.000610151
0.000589258
0.000568472
0.00054782
0.000527335
0.000507055
0.000487011
0.000467212
0.000447638
0.000428247
0.000408989
0.000389817
0.000370691
0.000351579
0.000332455
0.000313294
0.000294108
0.000274893
0.000255653
0.000236401
0.00021715
0.000197916
0.000178715
0.000159564
0.000140478
0.000121472
0.000102556
8.37374e-05
6.50169e-05
4.63863e-05
2.78505e-05
9.20327e-06
0.00444784
0.00442722
0.00440604
0.00438721
0.00436822
0.0043484
0.00432832
0.00430828
0.00428828
0.00426827
0.00424829
0.00422836
0.00420847