/*--------------------------------*- C++ -*----------------------------------*\
| =========                 |                                                 |
| \\      /  F ield         | OpenFOAM: The Open Source CFD Toolbox           |
|  \\    /   O peration     | Version:  2506                                  |
|   \\  /    A nd           | Website:  www.openfoam.com                      |
|    \\/     M anipulation  |                                                 |
\*---------------------------------------------------------------------------*/
FoamFile
{
    version     2.0;
    format      ascii;
    arch        "LSB;label=32;scalar=64";
    class       volVectorField;
    location    "1.8";
    object      vorticityField;
}
// * * * * * * * * * * * * * * * * * * * * * * * * * * * * * * * * * * * * * //

dimensions      [0 0 -1 0 0 0 0];

internalField   nonuniform List<vector> 
4000
(
(2.32789e-19 1.76239e-19 19.9758)
(-5.71805e-20 5.00863e-20 21.4659)
(1.80983e-19 5.34054e-19 16.6384)
(-1.83424e-19 6.71666e-19 11.952)
(7.2777e-19 7.61539e-19 8.63211)
(-2.51392e-21 -1.36398e-21 6.2122)
(-3.54813e-19 1.00997e-18 4.3359)
(1.36663e-19 9.89653e-19 2.86301)
(9.42022e-20 -3.90404e-20 1.70677)
(5.38136e-20 6.53391e-19 0.789365)
(-4.7521e-19 2.02273e-17 0.0453888)
(2.16229e-18 -4.07372e-17 -0.548313)
(-1.45034e-18 1.97488e-17 -1.03321)
(1.46735e-18 -2.04687e-17 -1.41312)
(-2.21488e-18 2.11302e-17 -1.71581)
(1.70967e-18 1.30112e-18 -1.94391)
(-1.44385e-18 1.96744e-17 -2.11009)
(1.88367e-18 -2.10498e-17 -2.22054)
(1.08453e-18 1.93949e-18 -2.27975)
(-1.79864e-18 -5.76981e-20 -2.29324)
(1.39088e-19 -6.17585e-20 -2.26542)
(2.53244e-18 -1.23656e-18 -2.19906)
(-2.3802e-18 -1.11859e-18 -2.09731)
(-2.60881e-18 -2.31736e-20 -1.9638)
(2.76475e-18 -1.22305e-18 -1.80242)
(1.7936e-19 -1.05579e-18 -1.61688)
(3.50244e-18 1.00841e-19 -1.40961)
(-4.59559e-19 3.75151e-18 -1.18429)
(-1.1149e-17 3.32203e-17 -0.945417)
(3.99258e-18 -4.17819e-17 -0.702676)
(5.35114e-18 -5.52629e-18 -0.462303)
(1.2231e-17 -5.20669e-17 -0.120489)
(-1.03905e-18 1.09568e-16 0.415793)
(3.69637e-17 -1.74222e-17 1.1825)
(1.28864e-17 7.06273e-17 2.21103)
(-6.15523e-17 5.0115e-16 3.54566)
(3.10029e-17 -1.65658e-16 5.08832)
(-2.48818e-17 -8.60902e-17 7.39787)
(1.3652e-18 4.32557e-17 10.8263)
(3.03959e-17 4.20308e-17 14.6302)
(1.59519e-17 8.06117e-17 18.3316)
(5.98889e-17 2.97464e-16 21.5815)
(2.11867e-18 -1.11727e-17 24.2007)
(2.24073e-16 1.88564e-16 26.11)
(-1.02743e-16 -1.31892e-16 27.2677)
(-1.44472e-18 2.62596e-16 27.6825)
(-3.0576e-17 -1.33549e-16 27.3436)
(4.51309e-17 -2.3344e-16 26.3815)
(-7.57087e-17 -1.16232e-16 24.9197)
(-9.74848e-17 -9.25099e-17 23.1216)
(3.44416e-17 6.63688e-17 21.1402)
(-4.02836e-18 -7.09792e-18 18.9689)
(-3.80381e-17 -2.07567e-17 16.8995)
(-2.40002e-17 2.10654e-16 14.752)
(-6.79525e-17 1.62666e-17 12.4911)
(2.49235e-17 -1.86293e-16 9.73481)
(-1.47701e-17 -9.35383e-17 6.33972)
(5.12878e-18 5.61147e-17 1.97897)
(1.0217e-18 -2.40719e-18 -3.13327)
(-1.3981e-18 -3.15709e-17 -8.30586)
(-9.12822e-18 -1.07114e-16 -12.5894)
(-1.94682e-17 -9.67281e-17 -15.4792)
(2.47005e-17 2.36021e-16 -16.9656)
(-4.65517e-17 -3.17245e-16 -16.865)
(-6.12983e-19 -1.41931e-17 -15.9081)
(2.82604e-18 -2.47283e-18 -14.4905)
(-4.55753e-19 4.09659e-18 -12.9043)
(-1.21546e-17 2.99267e-17 -11.3471)
(-3.32286e-17 -5.00301e-16 -9.98758)
(-4.93343e-17 -2.57967e-16 -8.8272)
(1.6882e-18 -6.16974e-17 -7.84301)
(5.33827e-17 1.82096e-16 -6.9991)
(-5.10763e-19 -1.77807e-16 -6.27742)
(6.98992e-18 -1.48275e-16 -5.65273)
(4.10511e-17 2.51822e-16 -5.10312)
(-2.24543e-17 -1.10046e-16 -4.61289)
(-4.45768e-17 -1.66511e-16 -4.17221)
(-1.18271e-17 -2.52065e-16 -3.77419)
(1.95617e-18 -2.64361e-17 -3.42464)
(1.65725e-17 -1.59751e-17 -3.10796)
(-1.3744e-17 3.16199e-18 -2.82235)
(1.12067e-17 1.5346e-16 -2.57201)
(-3.76559e-19 2.25709e-17 -2.37448)
(-6.88525e-18 -1.44528e-16 -2.21284)
(-3.26462e-19 1.27237e-16 -2.11202)
(2.04133e-20 5.04988e-18 -2.07929)
(1.06101e-19 2.6561e-19 -2.15499)
(-4.22059e-19 8.71596e-18 -2.33706)
(-6.47008e-19 1.88593e-17 -2.65921)
(-4.11419e-18 -6.93605e-17 -3.16834)
(2.7915e-19 4.22052e-18 -3.85548)
(-1.15572e-17 2.72703e-17 -4.74236)
(-1.33228e-17 -2.03032e-17 -5.73976)
(1.70726e-17 4.08308e-17 -6.80782)
(-4.11673e-17 1.66525e-16 -7.81044)
(-3.41155e-17 2.23819e-16 -8.67237)
(-4.25469e-17 1.14618e-16 -9.41559)
(-2.75364e-17 -1.01227e-17 -10.0617)
(-4.2032e-17 2.80622e-16 -10.7521)
(-4.85594e-17 2.32165e-16 -11.6069)
(1.29275e-18 -1.69505e-18 -12.7163)
(-5.75872e-17 2.44456e-16 -14.0976)
(-9.37471e-17 4.58245e-16 -15.6796)
(-5.18606e-18 -3.18593e-17 -17.298)
(-9.97122e-17 2.82816e-16 -18.7594)
(-1.98023e-18 -6.82655e-17 -19.8759)
(5.29574e-17 -3.89566e-16 -20.555)
(4.73748e-17 -3.12683e-16 -20.7451)
(-1.66471e-17 -1.24127e-17 -20.4212)
(-2.18937e-17 -3.76721e-17 -19.6407)
(6.06516e-17 -3.04145e-16 -18.4881)
(-2.79309e-17 3.44509e-16 -16.8731)
(-6.17384e-19 6.2724e-18 -15.1764)
(-4.27592e-17 4.97243e-16 -13.3525)
(-7.8043e-18 6.89871e-17 -11.889)
(-1.00063e-17 2.42711e-16 -11.1801)
(-4.08154e-21 -6.40043e-18 -11.5153)
(2.65046e-19 4.98332e-17 -12.8796)
(-9.29763e-19 -7.93146e-18 -14.8036)
(-1.40251e-19 -3.90351e-19 -16.4765)
(1.66784e-18 2.33263e-17 -17.4083)
(-4.61764e-17 -3.3852e-16 -17.221)
(2.45082e-17 2.02622e-16 -16.3606)
(6.84243e-19 1.54212e-17 -15.0022)
(4.51368e-17 3.40164e-16 -13.4182)
(-6.56697e-17 -4.97753e-16 -11.9023)
(5.11902e-17 1.46077e-16 -10.5369)
(-6.79216e-18 -2.99014e-16 -9.33521)
(2.58298e-17 -1.02406e-16 -8.3117)
(-2.73929e-17 -2.48954e-16 -7.44945)
(-1.17988e-18 -6.52349e-17 -6.71174)
(5.17972e-17 1.70338e-16 -6.0689)
(-3.46121e-17 5.40808e-17 -5.4995)
(3.29349e-17 1.98815e-16 -4.99085)
(1.94729e-17 1.5183e-17 -4.53594)
(2.60279e-18 2.46779e-17 -4.12433)
(-2.12447e-17 -1.91611e-16 -3.74888)
(2.54775e-17 1.57476e-16 -3.40351)
(-1.35487e-18 2.3999e-17 -3.09542)
(-1.1321e-17 -6.30812e-18 -2.83181)
(9.07454e-18 1.50667e-16 -2.5913)
(-1.68726e-18 -3.39497e-17 -2.39855)
(1.74231e-17 1.78207e-16 -2.25841)
(-7.86494e-19 1.25223e-17 -2.18197)
(-1.59842e-18 -9.96444e-17 -2.2104)
(2.39337e-19 -6.68102e-17 -2.34902)
(-3.12271e-18 5.05636e-17 -2.63436)
(2.72036e-18 -3.59163e-17 -3.11845)
(-3.76614e-18 3.30478e-18 -3.79531)
(-5.58017e-18 4.06482e-17 -4.68073)
(-4.44399e-18 -3.35337e-17 -5.75437)
(3.32194e-17 -2.40584e-16 -6.94632)
(-6.54274e-18 8.11105e-17 -8.11299)
(-4.02173e-18 -6.38249e-17 -9.26111)
(-1.61759e-17 1.22355e-16 -10.2321)
(-2.12825e-17 2.8005e-17 -11.1072)
(4.72208e-18 -2.12086e-18 -11.9849)
(3.23725e-17 3.55424e-17 -13.0359)
(-1.92298e-17 -8.32046e-17 -14.3721)
(9.4225e-17 -5.19551e-16 -16.1392)
(-7.4032e-18 1.76813e-16 -18.4792)
(-8.88856e-17 3.71203e-16 -21.2476)
(-9.29993e-18 1.31833e-16 -24.932)
(-6.12634e-18 -3.75462e-17 -23.6955)
(2.98367e-17 -2.12609e-16 -23.0328)
(5.54947e-17 -4.1484e-16 -21.8622)
(6.68757e-18 2.07394e-17 -20.4712)
(8.6671e-18 -7.09085e-17 -18.8781)
(1.12862e-17 -1.57933e-16 -16.9594)
(3.65047e-18 -5.48316e-17 -14.8007)
(1.94273e-18 1.4935e-18 -12.8423)
(6.30806e-21 -9.08466e-19 -11.6198)
(1.46283e-18 6.12994e-21 -11.018)
(-1.41395e-18 -9.06288e-19 -10.7168)
(-1.69532e-19 -1.70559e-18 -10.516)
(2.61704e-20 -5.31729e-17 -10.3562)
(-7.5909e-19 5.50255e-17 -10.2138)
(-1.41156e-20 2.51473e-17 -10.0785)
(8.64232e-19 -2.71797e-17 -9.94881)
(1.23897e-20 2.50554e-17 -9.82833)
(3.07881e-19 -5.29206e-17 -9.71675)
(-2.36597e-19 2.56449e-17 -9.61119)
(-3.19604e-19 -2.64907e-19 -9.50448)
(3.06969e-19 -8.31503e-19 -9.39004)
(-1.54729e-20 6.70656e-19 -9.2584)
(4.27282e-19 -2.60834e-17 -9.09902)
(-4.34132e-19 2.45225e-17 -8.89994)
(4.05438e-19 -2.50679e-17 -8.6495)
(-4.09744e-19 2.42312e-17 -8.33477)
(2.23094e-19 -1.31455e-17 -7.93826)
(-2.2467e-19 1.15467e-17 -7.43699)
(2.09142e-20 -8.51637e-19 -6.79994)
(-1.01848e-20 -7.38561e-19 -5.97584)
(-2.53074e-19 -6.12284e-21 -4.8833)
(3.09363e-19 -7.0303e-19 -3.38532)
(-1.92182e-20 -8.89877e-19 -1.21506)
(5.21389e-19 -4.83409e-18 2.1402)
(-4.65653e-19 5.27076e-18 7.67972)
(-3.68743e-21 -3.53098e-19 15.8439)
(4.37972e-20 -6.28343e-20 17.8515)
(8.97938e-20 -8.89786e-20 -2.37361)
(5.92061e-19 -1.49433e-19 7.70758)
(-2.22179e-19 -3.18125e-19 10.532)
(1.10683e-18 1.16042e-18 11.0419)
(-1.64762e-18 -7.87169e-18 10.8078)
(-1.49321e-19 -4.32608e-21 10.2354)
(1.19262e-18 4.69453e-18 9.55089)
(-2.81284e-19 -2.73833e-18 8.8853)
(-2.66723e-19 -1.39701e-18 8.27613)
(-4.10877e-19 -1.59899e-18 7.73148)
(5.46357e-19 -3.46166e-18 7.26108)
(-2.16613e-18 -1.79067e-17 6.84503)
(1.78295e-18 1.81643e-17 6.49019)
(-2.71766e-18 -1.70507e-17 6.17481)
(1.81625e-18 3.26686e-17 5.90672)
(-1.18899e-18 -3.96147e-17 5.67575)
(1.35938e-18 1.66902e-17 5.48161)
(-1.02356e-18 -2.18927e-17 5.32125)
(-2.29866e-18 -1.87243e-17 5.18796)
(1.7382e-18 3.51758e-17 5.08114)
(3.11695e-19 -5.9754e-18 4.99941)
(-6.04825e-19 -3.40159e-17 4.93785)
(1.78636e-18 4.1589e-17 4.89495)
(-2.43744e-18 2.82052e-17 4.86645)
(-2.52106e-18 -3.63329e-17 4.84932)
(2.50784e-18 -1.55105e-18 4.84124)
(4.00497e-18 -3.36085e-17 4.8376)
(-4.93353e-18 1.3297e-17 4.83427)
(2.81681e-18 6.61761e-17 4.82453)
(-2.14245e-18 -1.14044e-17 4.79675)
(1.40796e-18 -3.75262e-17 4.75559)
(-7.01879e-18 -4.2886e-17 4.75985)
(-4.23836e-19 -1.16618e-16 4.84016)
(-2.65811e-17 -1.95276e-16 4.88218)
(2.05928e-17 -1.09121e-16 4.79471)
(8.7422e-17 -7.23075e-17 4.59423)
(3.99114e-17 6.60131e-17 4.34705)
(-5.65211e-18 5.75259e-17 4.30378)
(-3.65084e-17 -1.08266e-16 4.59579)
(-4.8199e-17 -7.3791e-17 5.09329)
(-1.78373e-16 -1.74321e-16 5.80193)
(-3.10799e-17 -8.65805e-19 6.63044)
(4.0819e-17 -7.83961e-18 7.44306)
(-1.35122e-16 -8.70252e-17 8.16392)
(7.91657e-17 1.32818e-16 8.77993)
(-1.64035e-16 -9.54188e-17 9.27005)
(2.33912e-16 2.35175e-16 9.60286)
(-3.76006e-18 -5.3964e-17 9.78564)
(-7.69797e-17 3.40848e-17 9.83414)
(6.67205e-17 8.00104e-17 9.79083)
(-1.34173e-16 -1.81049e-16 9.65559)
(1.19898e-17 8.7026e-17 9.46317)
(9.67524e-17 1.28314e-16 9.30473)
(1.51027e-17 -1.742e-17 9.14534)
(2.58844e-17 1.72633e-16 9.01902)
(-9.81149e-18 -1.95119e-17 8.85589)
(1.26974e-17 1.02923e-16 8.54949)
(-7.67332e-18 -7.70474e-17 7.82116)
(-3.35715e-18 -6.71024e-18 6.31211)
(3.59042e-18 3.16648e-17 3.75474)
(9.37579e-18 9.91187e-17 0.231984)
(2.40938e-17 2.55189e-16 -3.88355)
(5.4872e-17 3.85172e-16 -7.22852)
(4.93224e-17 3.3585e-16 -9.7792)
(3.95096e-18 -4.03029e-17 -11.2816)
(-8.62546e-18 5.74854e-17 -11.5616)
(-3.52784e-19 2.91617e-18 -11.2689)
(1.04454e-17 -7.14631e-17 -10.4942)
(1.13949e-16 6.74419e-16 -9.55717)
(7.44844e-19 -3.42359e-16 -8.5995)
(3.56329e-19 -1.14997e-16 -7.70774)
(2.58309e-17 3.94539e-16 -6.90237)
(6.82066e-17 2.37233e-16 -6.19341)
(4.7917e-17 2.99017e-16 -5.57348)
(-2.79386e-17 1.16466e-16 -5.02902)
(-3.91341e-18 1.59005e-17 -4.54638)
(2.58974e-17 -3.76125e-16 -4.11742)
(3.35877e-17 1.68396e-16 -3.72443)
(3.02933e-20 1.97965e-17 -3.37702)
(-5.06731e-18 2.68605e-16 -3.06367)
(3.96242e-18 -2.0976e-16 -2.78395)
(-1.06411e-17 -9.99562e-18 -2.52021)
(-6.32945e-20 4.2144e-20 -2.30475)
(6.692e-18 2.00692e-18 -2.10295)
(-1.13935e-17 -1.66868e-16 -1.94145)
(3.31548e-19 -1.01328e-18 -1.78701)
(-2.04122e-19 -8.95721e-18 -1.6518)
(5.6391e-19 9.2967e-18 -1.50245)
(1.88896e-18 2.94815e-19 -1.32001)
(1.10301e-18 1.68161e-16 -1.11417)
(1.81653e-18 -2.03595e-17 -0.922414)
(1.85932e-17 5.31211e-17 -0.800101)
(-9.22479e-18 1.82609e-16 -0.797032)
(9.2165e-19 -2.38273e-16 -0.962404)
(-2.02991e-17 2.43408e-16 -1.25049)
(7.61456e-17 -1.80099e-16 -1.62147)
(1.71309e-17 3.55484e-16 -2.01317)
(-2.7563e-17 2.20323e-16 -2.38461)
(7.09789e-17 -2.95925e-16 -2.73552)
(5.00026e-17 -2.17399e-16 -3.05981)
(-7.4992e-19 7.1088e-17 -3.36425)
(-1.85851e-17 3.3295e-16 -3.65779)
(1.23695e-16 -2.66893e-16 -3.94154)
(-2.56297e-17 1.90496e-17 -4.19169)
(3.72704e-17 6.79891e-17 -4.41774)
(2.18201e-18 6.77152e-17 -4.55455)
(-1.56992e-16 7.5787e-16 -4.56847)
(-1.82936e-16 6.59511e-16 -4.38445)
(-9.12547e-17 3.02285e-16 -4.08122)
(-5.43785e-17 3.30063e-16 -3.74254)
(-8.61951e-17 2.45051e-16 -3.24884)
(1.1204e-16 -6.57197e-16 -2.54601)
(-1.77283e-18 4.12719e-17 -1.78232)
(7.54829e-17 -2.78727e-16 -0.998375)
(2.99397e-18 4.52016e-17 -0.341074)
(1.45373e-17 -1.30082e-16 0.0408936)
(4.39868e-19 -1.32136e-17 -0.139056)
(-4.89987e-18 -6.58218e-17 -1.11794)
(-8.18463e-19 -9.51819e-18 -2.99405)
(9.99485e-19 9.62779e-18 -5.57987)
(-3.86242e-19 -1.59181e-17 -8.03895)
(6.39152e-17 2.96877e-16 -10.1413)
(-2.06598e-17 4.69303e-17 -11.488)
(-7.27204e-18 -3.63795e-18 -11.8166)
(-8.9762e-17 -2.68307e-16 -11.4978)
(1.1854e-16 1.61474e-16 -10.7585)
(-1.23912e-18 3.7561e-16 -9.85091)
(1.08414e-16 5.55846e-16 -8.89991)
(9.6381e-17 6.1475e-16 -7.99741)
(2.96761e-17 2.88277e-16 -7.18857)
(8.29376e-18 2.86773e-17 -6.47825)
(4.88716e-18 3.98776e-16 -5.85543)
(-6.62382e-17 -4.77889e-16 -5.30603)
(-2.64365e-17 5.18561e-18 -4.81491)
(2.69725e-17 1.94362e-16 -4.3751)
(7.12123e-18 1.5126e-17 -3.97834)
(1.39364e-18 -3.55688e-19 -3.6169)
(-3.51866e-17 6.57855e-17 -3.28973)
(-2.92275e-18 -3.74299e-17 -2.9837)
(-3.60795e-18 -1.55033e-16 -2.71606)
(-3.28609e-18 -5.59961e-17 -2.47878)
(-7.67506e-19 -6.35142e-18 -2.2568)
(-1.89251e-18 9.95678e-17 -2.07921)
(-5.58036e-18 -7.30807e-17 -1.91686)
(6.17236e-18 1.03303e-16 -1.7837)
(3.15109e-19 3.25046e-18 -1.64204)
(7.13814e-19 3.64967e-17 -1.46488)
(3.27438e-18 -3.49838e-17 -1.26539)
(3.04896e-19 8.95478e-17 -1.07929)
(1.55573e-17 3.20624e-18 -0.962678)
(-5.66866e-18 -3.54361e-18 -0.97198)
(-2.04973e-17 -1.51336e-17 -1.14087)
(2.45601e-17 7.12495e-17 -1.4646)
(-6.03125e-17 5.68523e-16 -1.91385)
(1.28261e-18 1.08427e-16 -2.375)
(-1.03628e-17 4.92676e-17 -2.83799)
(2.93594e-17 -1.01898e-16 -3.29774)
(5.35461e-17 -4.89356e-16 -3.77452)
(-3.51084e-17 2.42562e-16 -4.28044)
(-1.16912e-16 2.34347e-16 -4.86111)
(-1.85979e-17 -7.62453e-17 -5.58789)
(8.17338e-17 -2.28725e-16 -6.35487)
(-5.17969e-18 1.48241e-16 -6.37269)
(-1.27405e-17 -2.83209e-17 -4.84584)
(5.72776e-17 -4.21408e-16 -4.56067)
(-7.27459e-17 3.10344e-16 -4.30798)
(-3.1975e-18 -1.33616e-17 -3.98757)
(1.98989e-18 2.31348e-18 -3.70645)
(-1.37077e-17 6.34538e-17 -3.41436)
(-5.08555e-18 6.20119e-17 -3.12253)
(2.50745e-18 -6.15905e-17 -2.78572)
(1.64907e-18 1.06332e-18 -2.3509)
(4.97826e-19 -6.14957e-17 -1.91487)
(-6.39676e-20 6.26097e-17 -1.55625)
(4.82912e-20 2.49551e-18 -1.27309)
(-6.22699e-20 5.99411e-17 -1.04666)
(8.40898e-19 -2.4885e-18 -0.861546)
(-6.03693e-19 -3.14275e-17 -0.706305)
(-3.55634e-19 -2.62822e-17 -0.57255)
(8.64465e-20 -2.72549e-17 -0.454596)
(-2.94542e-19 2.80995e-17 -0.348427)
(2.95225e-19 -9.3273e-19 -0.250432)
(-7.92788e-20 2.79915e-17 -0.156407)
(1.01268e-20 -2.92192e-17 -0.0613854)
(-1.33964e-20 -7.57272e-19 0.0400507)
(1.48049e-19 -2.48851e-17 0.1538)
(-1.44116e-19 2.99442e-17 0.286824)
(2.18849e-19 -2.69603e-17 0.447446)
(-4.42784e-19 2.93475e-17 0.645316)
(3.53948e-19 -1.07426e-17 0.892329)
(-1.89817e-19 1.38325e-17 1.20378)
(-2.10481e-20 -7.76713e-19 1.60199)
(-5.85257e-20 2.38123e-18 2.12135)
(-5.61081e-19 1.0958e-17 2.82199)
(5.33792e-19 -1.18763e-17 3.79723)
(-1.96333e-19 1.99271e-18 5.18226)
(-3.75732e-19 3.96997e-19 7.13842)
(8.03749e-19 -1.11039e-18 9.47762)
(1.82385e-19 3.10991e-19 9.01616)
(-5.404e-19 -4.09519e-20 -4.59468)
(2.00361e-19 -1.44071e-19 -6.69291)
(-1.53208e-18 2.53732e-19 0.813505)
(7.42614e-19 1.10454e-19 4.59896)
(1.10451e-18 -2.29779e-19 6.61902)
(-2.07197e-18 -2.29614e-19 7.66844)
(1.21162e-18 2.42276e-18 8.17881)
(-8.34607e-19 -2.84392e-18 8.38601)
(-1.3542e-19 1.74442e-18 8.42476)
(6.80105e-20 1.6108e-18 8.36966)
(7.4082e-19 3.27512e-18 8.26278)
(-2.48318e-20 1.65804e-18 8.12996)
(-3.20453e-19 3.02614e-18 7.98511)
(-1.35489e-19 -1.04068e-17 7.83839)
(1.16204e-18 2.62904e-17 7.69387)
(8.96776e-19 -1.09267e-17 7.55547)
(-1.31344e-18 1.48379e-17 7.42434)
(7.26009e-19 -8.75515e-18 7.30179)
(3.2562e-20 7.05791e-18 7.18843)
(-3.65656e-18 2.62731e-17 7.08333)
(3.71912e-18 -2.61358e-17 6.98576)
(-3.68576e-19 4.10284e-18 6.89537)
(-4.33017e-18 1.94422e-18 6.81086)
(4.91624e-18 -2.37646e-17 6.7307)
(1.96194e-18 3.33682e-17 6.65268)
(-2.51812e-18 2.04057e-17 6.57429)
(4.5306e-18 -2.73053e-17 6.49306)
(-6.9764e-18 -1.9146e-17 6.40573)
(-1.19899e-18 2.62612e-17 6.30771)
(4.17467e-18 -3.23143e-18 6.19349)
(4.70364e-18 5.8109e-20 6.05375)
(-9.36352e-18 -2.27607e-19 5.87983)
(1.08248e-18 2.18427e-17 5.61319)
(-5.64763e-18 1.16437e-16 5.24375)
(-1.61619e-17 4.12838e-17 4.7246)
(-3.09856e-17 -1.19718e-16 4.02326)
(-1.3817e-17 -2.84226e-17 3.18836)
(-3.20511e-18 -8.74291e-17 2.33593)
(2.27022e-17 1.10678e-16 1.65816)
(6.63783e-17 3.33013e-17 1.21922)
(-4.72314e-17 3.15466e-17 1.00904)
(1.79415e-16 1.1487e-16 1.07261)
(-8.42208e-18 -1.5229e-16 1.35148)
(-2.10916e-16 -1.82624e-16 1.74606)
(-2.71569e-16 -1.42353e-16 2.21771)
(4.07039e-17 1.17742e-16 2.73117)
(8.3263e-17 -5.25846e-17 3.24338)
(-2.52994e-16 -2.02091e-16 3.71163)
(-2.1936e-16 -8.32191e-17 4.12351)
(-8.35275e-17 -9.63174e-18 4.47168)
(3.4442e-17 4.9792e-17 4.75621)
(-8.11024e-17 -5.35389e-17 4.9741)
(-2.17314e-17 -3.71984e-17 5.14098)
(7.98506e-17 3.7424e-17 5.30419)
(-9.16088e-18 1.67172e-17 5.46493)
(1.19701e-16 1.23339e-16 5.68806)
(-4.22762e-17 -8.10175e-17 6.0007)
(-3.07537e-17 -5.53198e-17 6.44226)
(1.9891e-17 5.14203e-17 6.96309)
(4.92488e-19 7.6213e-18 7.40617)
(-1.39888e-19 -5.62725e-19 7.43434)
(6.56722e-18 3.26078e-17 6.42227)
(-1.47444e-17 -2.8743e-17 4.27761)
(-4.03551e-18 3.78424e-17 1.5676)
(-1.00928e-16 -4.15063e-16 -1.78069)
(7.51226e-17 4.11916e-16 -4.47868)
(-1.13262e-16 -3.85933e-16 -6.51282)
(2.1897e-17 -3.6075e-17 -7.96467)
(-3.31305e-18 5.65502e-17 -8.42623)
(-2.11762e-16 -7.54125e-16 -8.39242)
(1.75038e-16 6.39405e-16 -7.97519)
(-2.31639e-17 1.08875e-16 -7.39346)
(-8.30096e-17 -2.2359e-16 -6.74939)
(-1.70963e-17 2.30448e-17 -6.11712)
(1.18602e-17 3.56821e-16 -5.52885)
(-5.00962e-17 -2.2982e-16 -4.99551)
(-8.73563e-18 -3.99586e-16 -4.51623)
(9.26278e-17 5.00632e-16 -4.08893)
(-2.29304e-17 6.15899e-17 -3.69434)
(-2.03433e-17 4.05783e-17 -3.34099)
(-5.92341e-17 -4.5592e-16 -3.01947)
(5.53975e-17 3.70991e-16 -2.72881)
(1.09436e-17 3.23044e-17 -2.44492)
(-8.97991e-18 6.54187e-18 -2.19743)
(-4.77279e-19 -1.12375e-17 -1.94768)
(1.63241e-17 1.5966e-16 -1.71697)
(-1.70209e-19 5.35128e-18 -1.46191)
(-2.76151e-18 -4.01981e-17 -1.18641)
(1.36634e-19 -1.48583e-18 -0.865097)
(-2.50177e-18 -3.94615e-17 -0.493938)
(7.92553e-18 -1.64896e-16 -0.109248)
(1.63248e-18 -3.03874e-17 0.227809)
(2.17581e-17 -3.96987e-16 0.44543)
(2.39022e-17 -1.23659e-16 0.495127)
(-6.93239e-17 4.30942e-16 0.354366)
(1.77019e-17 -3.38998e-17 0.071827)
(1.12244e-17 -3.33309e-16 -0.294202)
(9.95436e-17 -4.81744e-16 -0.648893)
(7.32673e-17 -1.69031e-16 -0.907093)
(-4.85412e-17 1.27825e-17 -1.02917)
(-4.58159e-17 3.04472e-16 -1.00654)
(2.6307e-19 -6.65961e-17 -0.87188)
(1.02365e-16 -2.73317e-16 -0.669235)
(-3.0715e-17 3.79232e-17 -0.475399)
(-6.79795e-17 3.20748e-16 -0.312774)
(9.38381e-17 -3.68393e-16 -0.226938)
(-1.72955e-18 -2.35959e-17 -0.174041)
(2.50006e-16 -6.57432e-16 -0.103236)
(1.72789e-16 -2.16306e-16 0.00370958)
(4.78882e-17 3.84228e-17 0.199814)
(1.0236e-16 -3.1189e-16 0.453546)
(2.57524e-17 5.69539e-17 0.753046)
(-9.94065e-17 2.8107e-16 1.0854)
(-7.68173e-19 -2.6291e-17 1.47035)
(5.07108e-18 -2.84099e-16 1.88486)
(-4.07046e-18 2.52522e-17 2.33733)
(-4.95347e-18 -1.44397e-18 2.79737)
(-5.80083e-19 1.21418e-19 3.20212)
(4.48906e-18 6.66393e-17 3.37276)
(2.19655e-19 4.6776e-21 3.0032)
(-2.10398e-18 -1.03859e-17 1.80768)
(4.28572e-18 2.11961e-17 -0.0475594)
(-2.17118e-17 1.84767e-18 -2.58612)
(-1.43173e-17 1.00244e-17 -4.85408)
(2.7653e-18 2.01824e-17 -6.7694)
(-7.26071e-17 -4.83571e-16 -8.08578)
(7.31084e-17 5.13716e-16 -8.52492)
(-1.92135e-16 -6.65139e-16 -8.48392)
(-1.32947e-16 -3.06307e-16 -8.08617)
(-5.7846e-17 1.03261e-16 -7.51004)
(-8.80764e-17 -3.09421e-16 -6.8746)
(-1.11857e-17 6.28327e-17 -6.25242)
(-5.37452e-17 -2.57115e-16 -5.67482)
(1.14219e-17 -1.78434e-16 -5.1516)
(-8.12677e-18 9.31894e-18 -4.67762)
(-2.92324e-18 -1.06944e-18 -4.24867)
(2.62773e-17 6.41913e-17 -3.85974)
(-3.38335e-17 -1.92587e-16 -3.50306)
(-5.16139e-17 -4.70348e-16 -3.1786)
(4.23592e-19 -6.25886e-17 -2.8672)
(1.35454e-17 1.76507e-16 -2.58312)
(1.69779e-17 2.68216e-16 -2.3224)
(-1.24774e-17 -1.73129e-17 -2.05868)
(-1.01981e-17 -1.20019e-16 -1.81612)
(-4.15387e-18 -8.91039e-17 -1.55574)
(4.4188e-18 7.87148e-17 -1.27801)
(1.23032e-18 2.06461e-17 -0.959699)
(8.31712e-20 -4.75983e-18 -0.59231)
(-6.03568e-18 -1.34182e-16 -0.20248)
(7.3385e-18 -9.57613e-17 0.150288)
(1.25637e-17 -2.3266e-16 0.388552)
(-2.06758e-17 1.07376e-16 0.453505)
(5.52772e-18 -8.14358e-17 0.324305)
(2.98298e-17 -2.7714e-16 0.0388607)
(1.20061e-16 -4.63754e-16 -0.342423)
(7.93989e-17 -1.80472e-16 -0.727667)
(-7.6393e-18 -7.00496e-18 -1.04423)
(4.76331e-17 -2.38109e-16 -1.2445)
(-2.01487e-16 8.44968e-16 -1.32559)
(-4.55684e-18 4.41171e-17 -1.31061)
(6.89698e-18 2.56001e-17 -1.26709)
(-7.57252e-17 3.9218e-16 -1.26648)
(-3.59691e-17 -5.88869e-17 -1.29487)
(3.16161e-18 1.29222e-17 -0.888191)
(-3.80148e-17 2.8804e-16 -0.255755)
(-1.07067e-16 3.9208e-16 -0.0372652)
(8.5016e-19 -1.45374e-17 0.16353)
(-3.12254e-18 -4.7166e-18 0.334605)
(1.37432e-17 -1.37826e-16 0.515243)
(-4.30534e-18 1.41174e-16 0.708107)
(1.12437e-18 -4.90894e-18 0.915674)
(1.32125e-18 -6.41148e-18 1.18537)
(2.05208e-18 -6.10565e-17 1.56774)
(-1.17951e-18 3.10348e-18 2.01078)
(2.72341e-18 -3.59673e-18 2.4361)
(-1.42494e-18 -6.09857e-18 2.79759)
(4.08904e-19 -5.62503e-17 3.08708)
(1.17887e-18 -1.00879e-18 3.31248)
(-1.45085e-18 5.71973e-17 3.4873)
(-1.70052e-20 -2.30011e-18 3.62552)
(-5.61007e-19 2.66209e-17 3.74126)
(8.84809e-20 -2.85466e-17 3.84319)
(3.87785e-19 2.06572e-18 3.93695)
(-4.1416e-20 -4.32262e-21 4.02508)
(-9.97725e-21 1.72245e-18 4.11232)
(-2.90473e-20 2.78717e-18 4.20199)
(8.42895e-20 -2.69066e-17 4.29759)
(-3.06987e-20 2.36774e-17 4.40405)
(2.89243e-19 -2.44239e-17 4.52794)
(-8.84617e-19 4.6855e-17 4.67759)
(9.36629e-19 -3.74959e-17 4.86358)
(-2.56926e-19 1.1996e-17 5.10042)
(-1.9496e-19 3.87267e-18 5.41037)
(9.82913e-20 -1.46248e-18 5.8266)
(2.57637e-19 1.05872e-19 6.40257)
(-6.07047e-19 3.14932e-18 7.2174)
(1.17948e-19 -1.18879e-18 8.33013)
(3.4989e-20 1.12914e-19 9.60626)
(-5.98877e-19 4.74619e-19 9.82865)
(1.7719e-18 -5.3785e-19 4.48467)
(1.95068e-18 4.91777e-19 -13.1384)
(-8.33559e-19 -4.81211e-20 -6.23136)
(5.04713e-20 1.4281e-19 -1.85107)
(2.67731e-19 -1.55654e-19 1.10579)
(-1.86003e-18 6.11225e-19 3.00873)
(1.94905e-18 1.88347e-19 4.26217)
(2.26128e-18 -6.57141e-21 5.06106)
(-2.57865e-18 -6.71833e-19 5.57691)
(1.23056e-18 6.25323e-19 5.91787)
(1.12916e-19 -3.32367e-19 6.14178)
(6.67072e-19 -1.70091e-18 6.28536)
(-6.31698e-19 1.5238e-19 6.37242)
(6.32136e-19 -1.08309e-18 6.41915)
(8.10671e-21 -1.71232e-19 6.43706)
(9.06311e-19 -2.34821e-18 6.43407)
(-4.93583e-19 1.75e-19 6.41595)
(9.64379e-19 -1.93834e-19 6.38672)
(-3.34419e-19 -3.71856e-18 6.34929)
(-1.26097e-18 -7.89565e-18 6.3057)
(6.29992e-18 2.41876e-17 6.25708)
(-4.22548e-18 -1.94721e-17 6.20397)
(-2.3326e-18 3.93967e-18 6.14659)
(2.968e-18 1.18699e-17 6.0846)
(-2.3093e-18 -1.92602e-17 6.01718)
(2.17746e-18 7.59303e-19 5.94303)
(3.45789e-18 -2.9165e-18 5.86031)
(-1.80967e-18 -1.39585e-17 5.76669)
(-1.10649e-18 1.93981e-17 5.65908)
(3.48906e-18 9.80367e-19 5.53272)
(6.37997e-19 1.12758e-17 5.3835)
(-2.9584e-18 -1.46882e-17 5.20355)
(3.46009e-19 9.47429e-18 4.97556)
(-5.56343e-18 -4.94103e-17 4.61494)
(1.48155e-17 -4.29473e-17 4.09763)
(1.91663e-17 4.91306e-18 3.41111)
(-7.12042e-17 9.15464e-19 2.57897)
(4.09146e-17 -2.62556e-17 1.67478)
(-8.22521e-17 -6.38845e-17 0.801092)
(-7.31779e-19 2.99068e-17 0.090883)
(1.01055e-16 4.38701e-17 -0.41898)
(-1.08902e-16 -7.52165e-17 -0.708821)
(1.10872e-16 9.11412e-17 -0.75658)
(-5.80215e-17 3.9703e-17 -0.601122)
(2.56627e-16 1.35413e-16 -0.30819)
(1.17599e-16 -2.7824e-17 0.096754)
(5.9418e-17 9.89939e-19 0.57029)
(-6.64644e-19 -7.82512e-18 1.0645)
(-8.66861e-17 -3.9176e-18 1.54544)
(3.00409e-16 1.91489e-16 2.00457)
(1.33742e-16 1.38372e-17 2.41505)
(2.34181e-17 4.48707e-17 2.74467)
(3.02907e-16 2.35223e-16 3.00101)
(2.13438e-18 -8.75056e-17 3.19186)
(-1.20897e-16 -1.21068e-16 3.34375)
(3.88183e-18 2.94973e-17 3.47517)
(6.1347e-17 2.98433e-17 3.64634)
(3.01391e-17 6.12812e-17 3.90794)
(1.46413e-17 2.49211e-17 4.335)
(-3.2907e-17 -6.70929e-17 4.97903)
(5.94371e-18 1.89882e-17 5.86183)
(9.48823e-18 1.72805e-17 6.87963)
(-3.49872e-17 -7.13853e-17 7.68794)
(-9.91454e-18 -1.74603e-17 7.7219)
(-8.22847e-17 -3.6008e-16 6.68254)
(1.06557e-16 4.03902e-16 4.69697)
(-1.89483e-16 -6.7419e-16 2.29856)
(9.0122e-18 -1.64713e-16 -0.485039)
(1.29704e-16 4.63688e-16 -2.74321)
(1.75339e-17 4.28857e-17 -4.43679)
(1.69874e-16 3.5267e-16 -5.63616)
(-1.83772e-16 -3.59163e-16 -6.15135)
(-7.7497e-17 -3.97305e-16 -6.2566)
(2.53585e-17 -1.98525e-17 -6.03478)
(-8.29096e-17 -2.8705e-16 -5.66475)
(-7.67383e-17 -2.71959e-16 -5.22704)
(3.86087e-17 -1.6794e-16 -4.77483)
(1.3307e-16 6.03174e-16 -4.33786)
(-1.03708e-16 -2.03168e-16 -3.93223)
(9.66666e-18 2.29203e-17 -3.54795)
(-3.77896e-17 -2.88907e-16 -3.19538)
(6.54486e-17 1.98221e-16 -2.86798)
(-7.16525e-17 -1.77689e-16 -2.56436)
(2.68006e-17 2.17816e-16 -2.26104)
(-2.36494e-17 -1.96327e-16 -1.98083)
(6.96162e-18 -1.40843e-17 -1.68655)
(-5.44639e-18 -3.53932e-18 -1.39344)
(-3.50348e-19 -5.50894e-18 -1.06204)
(3.48585e-18 5.07595e-17 -0.698071)
(-2.89586e-19 1.82776e-18 -0.294835)
(-1.36205e-18 5.55427e-17 0.126386)
(-9.77404e-18 7.99665e-17 0.509105)
(4.66669e-18 -1.0155e-17 0.787806)
(-4.56705e-17 2.14872e-16 0.901666)
(-1.713e-17 1.55917e-16 0.83203)
(5.49494e-17 -2.09441e-16 0.58668)
(1.38972e-17 5.76885e-17 0.233668)
(-6.45161e-17 2.23298e-16 -0.128372)
(-7.48895e-17 1.94661e-16 -0.400045)
(-2.71163e-17 -7.84264e-18 -0.508611)
(-1.44061e-17 2.53267e-16 -0.425786)
(1.2894e-16 -5.94904e-16 -0.170572)
(-4.30539e-19 6.04573e-17 0.190875)
(-2.69792e-17 -2.91335e-17 0.59151)
(4.47544e-20 -2.95788e-17 0.966796)
(1.14835e-16 -2.94698e-16 1.24933)
(-2.05612e-17 -1.80807e-17 1.44362)
(-2.92092e-18 1.50324e-17 1.54871)
(-5.90089e-17 -6.28338e-17 1.62684)
(3.97608e-17 -3.89184e-16 1.67884)
(8.50187e-17 -3.0874e-16 1.74146)
(-4.73276e-18 1.69638e-17 1.82836)
(0 -0 1.94734)
(5.79627e-18 4.05471e-18 2.08093)
(1.20282e-17 1.19338e-17 2.24785)
(-2.96946e-17 1.37825e-16 2.43352)
(-4.58832e-18 1.03475e-16 2.68848)
(-2.04305e-18 -3.67643e-18 3.05381)
(8.18391e-19 6.25266e-18 3.58451)
(1.53831e-19 -1.24021e-19 4.26603)
(4.28968e-20 -1.1202e-20 4.91398)
(4.62479e-19 -1.86605e-19 5.12126)
(-7.31365e-18 3.398e-18 4.52732)
(3.78719e-18 2.25994e-17 3.17572)
(-8.61309e-17 -3.67141e-16 1.3372)
(-4.78503e-18 -4.42254e-17 -1.05107)
(1.36476e-16 3.9402e-16 -3.04654)
(-1.45694e-16 -3.89195e-16 -4.65129)
(1.66822e-16 3.19879e-16 -5.73268)
(2.88753e-17 2.75906e-17 -6.22475)
(-1.12668e-16 -3.48503e-16 -6.28637)
(8.03538e-17 2.68248e-16 -6.05103)
(-6.24089e-17 -2.78443e-16 -5.67482)
(9.53211e-17 3.0058e-16 -5.24081)
(-2.06994e-17 -3.97717e-17 -4.80068)
(9.99084e-18 -5.7226e-17 -4.37596)
(4.73721e-18 5.19612e-17 -3.97542)
(3.31035e-17 2.12347e-16 -3.60279)
(2.97826e-17 1.16806e-17 -3.25362)
(7.30373e-17 1.96131e-16 -2.92926)
(2.65984e-17 8.22392e-17 -2.61143)
(-5.80714e-17 -2.29621e-16 -2.30894)
(-5.59282e-17 -4.05111e-16 -2.01835)
(-2.66759e-17 -2.71318e-16 -1.71333)
(7.05676e-18 3.16281e-17 -1.40982)
(7.22055e-18 4.65498e-17 -1.07404)
(-3.03472e-18 -3.8247e-17 -0.706681)
(7.09314e-19 2.02341e-17 -0.303242)
(2.12515e-19 4.49872e-18 0.11885)
(-3.46715e-18 1.74538e-16 0.508378)
(-5.06594e-18 6.2553e-18 0.797959)
(-3.70532e-17 2.4378e-16 0.920479)
(-6.18907e-18 1.4984e-16 0.848192)
(-2.72259e-18 1.6661e-18 0.601221)
(-5.86551e-17 1.74298e-16 0.243126)
(-1.05194e-16 2.35023e-16 -0.135076)
(-4.91927e-19 -2.45707e-16 -0.428722)
(-3.67676e-17 2.65471e-16 -0.570357)
(-1.0564e-16 2.93987e-16 -0.532004)
(1.43226e-16 -3.85009e-16 -0.334221)
(7.41984e-17 -2.79413e-16 -0.0204613)
(-9.33024e-17 4.5498e-16 0.313519)
(1.40186e-16 -4.39874e-16 0.594015)
(-7.19787e-17 4.29523e-16 0.877923)
(-4.05938e-17 5.08145e-17 1.30898)
(1.17183e-16 -4.16067e-16 1.49663)
(1.95524e-17 3.51763e-17 1.62443)
(-4.15862e-17 2.98191e-16 1.72484)
(-8.51777e-18 6.60424e-17 1.7664)
(-2.12784e-17 1.31776e-16 1.82849)
(1.7766e-17 -1.28077e-16 1.92266)
(-3.87828e-18 6.17541e-17 2.09268)
(3.29414e-18 -6.03759e-17 2.35783)
(-2.73138e-18 1.2942e-18 2.70391)
(1.26383e-18 -4.24584e-18 3.0981)
(1.10635e-18 -4.81337e-17 3.48579)
(-1.08211e-18 5.79925e-17 3.82736)
(-2.49792e-18 4.85077e-17 4.10643)
(-1.28551e-19 -4.45861e-17 4.3243)
(1.8462e-18 2.47371e-17 4.49269)
(2.74248e-19 -2.4611e-17 4.62678)
(-1.9377e-20 7.26452e-19 4.74049)
(-4.2454e-19 2.61205e-17 4.84333)
(5.08614e-19 -2.32573e-17 4.94075)
(-5.94334e-19 2.53776e-17 5.03554)
(6.28417e-20 -2.29229e-17 5.12952)
(3.51598e-19 -2.74229e-18 5.22459)
(-3.27176e-19 2.5256e-18 5.32399)
(1.53807e-19 -2.17061e-20 5.43227)
(-3.46191e-19 1.68111e-20 5.55559)
(4.67401e-19 2.32291e-18 5.70222)
(-3.84341e-19 -2.31665e-20 5.88337)
(5.86685e-20 -5.61041e-20 6.11506)
(5.20665e-19 -4.5112e-18 6.42187)
(-2.56001e-19 5.36055e-20 6.84251)
(2.43145e-19 -2.29596e-19 7.4363)
(2.54586e-18 -6.24112e-18 8.26976)
(-1.47839e-18 3.24112e-18 9.31325)
(1.94212e-19 -1.21586e-19 10.0729)
(-1.08126e-19 3.03443e-20 8.6795)
(-6.45459e-20 4.08871e-19 0.801898)
(-1.6631e-18 -2.74369e-19 -15.8185)
(1.33608e-19 -2.5457e-19 -5.20229)
(-1.71787e-18 1.95004e-19 -2.76968)
(-1.31447e-18 1.05876e-18 -0.633168)
(3.07134e-18 -1.47714e-18 0.874585)
(-5.57131e-18 1.77882e-18 1.92235)
(3.58577e-18 -2.4087e-19 2.66312)
(-3.60323e-19 -4.9041e-19 3.19681)
(-7.8368e-19 -2.82622e-19 3.58842)
(4.43655e-20 -6.55427e-19 3.88336)
(-4.34558e-18 -7.67432e-19 4.11024)
(2.66419e-18 2.01644e-18 4.28469)
(-7.99061e-20 -2.35684e-18 4.41833)
(-1.64155e-18 -2.26492e-18 4.51967)
(-7.22127e-20 2.94661e-18 4.59517)
(-2.09045e-19 -1.09824e-18 4.64966)
(4.40615e-19 -1.00231e-20 4.68681)
(-1.63271e-18 -5.57042e-20 4.70937)
(-1.53346e-19 1.06462e-18 4.71931)
(-1.95818e-18 -1.23803e-17 4.71793)
(9.07507e-20 1.38729e-17 4.70598)
(-8.23921e-22 4.49343e-18 4.68369)
(1.94732e-18 -1.13248e-17 4.65084)
(-2.76048e-18 2.49753e-18 4.6067)