/*--------------------------------*- C++ -*----------------------------------*\
| =========                 |                                                 |
| \\      /  F ield         | OpenFOAM: The Open Source CFD Toolbox           |
|  \\    /   O peration     | Version:  2506                                  |
|   \\  /    A nd           | Website:  www.openfoam.com                      |
|    \\/     M anipulation  |                                                 |
\*---------------------------------------------------------------------------*/
FoamFile
{
    version     2.0;
    format      ascii;
    arch        "LSB;label=32;scalar=64";
    class       surfaceScalarField;
    location    "3.3";
    object      phi;
}
// * * * * * * * * * * * * * * * * * * * * * * * * * * * * * * * * * * * * * //

dimensions      [0 3 -1 0 0 0 0];

oriented        oriented;

internalField   nonuniform List<scalar> 
7780
(
1.32955e-09
3.70569e-10
9.09455e-10
4.20085e-10
6.06882e-10
3.02645e-10
3.97765e-10
2.09169e-10
2.51983e-10
1.45782e-10
1.47958e-10
1.04022e-10
7.13238e-11
7.66314e-11
1.30241e-11
5.82969e-11
-3.2406e-11
4.54278e-11
-6.84262e-11
3.60185e-11
-9.73575e-11
2.89297e-11
-1.208e-10
2.34408e-11
-1.39954e-10
1.91527e-11
-1.55765e-10
1.58097e-11
-1.68989e-10
1.32229e-11
-1.80223e-10
1.12324e-11
-1.89951e-10
9.7263e-12
-1.98571e-10
8.6179e-12
-2.06402e-10
7.83037e-12
-2.13706e-10
7.30208e-12
-2.20673e-10
6.96523e-12
-2.27438e-10
6.76388e-12
-2.34093e-10
6.65364e-12
-2.40691e-10
6.59581e-12
-2.47245e-10
6.55144e-12
-2.53727e-10
6.48011e-12
-2.6007e-10
6.34003e-12
-2.66158e-10
6.08375e-12
-2.71803e-10
5.6405e-12
-2.76698e-10
4.88816e-12
-2.80301e-10
3.5947e-12
-2.81456e-10
1.14358e-12
-2.7879e-10
-2.67889e-12
-2.68798e-10
-1.00087e-11
-2.53041e-10
-1.57705e-11
-2.36036e-10
-1.70036e-11
-2.15813e-10
-2.02052e-11
-1.91178e-10
-2.46054e-11
-1.6271e-10
-2.8437e-11
-1.31385e-10
-3.13116e-11
-9.46398e-11
-3.67722e-11
-5.34045e-11
-4.13082e-11
-1.32563e-11
-4.02577e-11
2.39901e-11
-3.73801e-11
5.65125e-11
-3.26698e-11
8.43397e-11
-2.79814e-11
1.08572e-10
-2.4387e-11
1.26757e-10
-1.83295e-11
1.41299e-10
-1.46718e-11
1.51064e-10
-9.87294e-12
1.5551e-10
-4.52414e-12
1.56429e-10
-9.69405e-13
1.50328e-10
6.07447e-12
1.40549e-10
9.77318e-12
1.23892e-10
1.66628e-11
1.02364e-10
2.15383e-11
7.53573e-11
2.70163e-11
4.25301e-11
3.28352e-11
7.55552e-12
3.49861e-11
-3.2567e-11
4.01457e-11
-7.20701e-11
3.95428e-11
-1.11579e-10
3.95665e-11
-1.49311e-10
3.77982e-11
-1.84158e-10
3.49111e-11
-2.16216e-10
3.21102e-11
-2.44932e-10
2.87465e-11
-2.70667e-10
2.57333e-11
-2.93955e-10
2.32501e-11
-3.1473e-10
2.06998e-11
-3.33949e-10
1.91058e-11
-3.52043e-10
1.79452e-11
-3.68221e-10
1.60053e-11
-3.83775e-10
1.5361e-11
-3.97986e-10
1.40011e-11
-4.10664e-10
1.24635e-11
-4.2238e-10
1.15043e-11
-4.32674e-10
1.00862e-11
-4.41205e-10
8.33228e-12
-4.48537e-10
7.14925e-12
-4.54611e-10
5.90834e-12
-4.59373e-10
4.61726e-12
-4.63219e-10
3.72393e-12
-4.66324e-10
3.00619e-12
-4.68927e-10
2.52508e-12
-4.71577e-10
2.59174e-12
-4.74074e-10
2.45312e-12
-4.76374e-10
2.26609e-12
-4.79502e-10
3.10133e-12
-4.82576e-10
3.05241e-12
-4.85237e-10
2.64131e-12
-4.88886e-10
3.63212e-12
-4.9207e-10
3.16967e-12
-4.94622e-10
2.53799e-12
-4.98021e-10
3.38707e-12
-4.99446e-10
1.41482e-12
-5.02124e-10
2.66781e-12
-5.02352e-10
2.1863e-13
-5.03503e-10
1.14327e-12
-5.01749e-10
-1.76306e-12
-5.01351e-10
-4.05961e-13
-4.98004e-10
-3.35576e-12
-4.95113e-10
-2.8995e-12
-4.91099e-10
-4.02165e-12
-4.84974e-10
-6.13246e-12
-4.78782e-10
-6.19751e-12
-4.69638e-10
-9.14743e-12
-4.60822e-10
-8.81626e-12
-4.49463e-10
-1.13569e-11
-4.3701e-10
-1.24483e-11
-4.22789e-10
-1.42133e-11
-4.07082e-10
-1.56971e-11
-3.89475e-10
-1.75965e-11
-3.70553e-10
-1.89121e-11
-3.49276e-10
-2.12698e-11
-3.27404e-10
-2.18673e-11
-3.03729e-10
-2.36746e-11
-2.79077e-10
-2.46561e-11
-2.53676e-10
-2.54121e-11
-2.27554e-10
-2.61428e-11
-2.0122e-10
-2.63672e-11
-1.74933e-10
-2.63344e-11
-1.49016e-10
-2.5984e-11
-1.23866e-10
-2.52415e-11
-9.96005e-11
-2.43833e-11
-7.65611e-11
-2.31835e-11
-5.48826e-11
-2.18469e-11
-3.46764e-11
-2.03962e-11
-1.61986e-11
-1.86853e-11
6.4713e-13
-1.70676e-11
1.62155e-11
-1.58031e-11
2.98489e-11
-1.38801e-11
4.19941e-11
-1.24037e-11
5.32554e-11
-1.15313e-11
6.24304e-11
-9.45319e-12
7.02637e-11
-8.11534e-12
7.77145e-11
-7.73411e-12
8.20854e-11
-4.648e-12
8.59499e-11
-4.12654e-12
8.71326e-11
-1.41707e-12
8.62333e-11
7.07518e-13
8.22104e-11
3.88861e-12
7.44282e-11
7.71331e-12
6.19973e-11
1.24299e-11
4.52939e-11
1.67622e-11
2.25477e-11
2.28448e-11
-3.76514e-12
2.64295e-11
-3.67282e-11
3.307e-11
-7.25517e-11
3.59062e-11
-1.11096e-10
3.85953e-11
-1.51008e-10
3.99367e-11
-1.90228e-10
3.9228e-11
-2.28256e-10
3.8024e-11
-2.63791e-10
3.55274e-11
-2.95711e-10
3.19028e-11
-3.2488e-10
2.91408e-11
-3.49625e-10
2.46995e-11
-3.71868e-10
2.2182e-11
-3.88805e-10
1.6855e-11
-3.98541e-10
9.64076e-12
-3.94911e-10
-3.72123e-12
-4.18075e-10
2.31046e-11
-4.36234e-10
1.81169e-11
-4.46547e-10
1.02854e-11
-4.48304e-10
1.7395e-12
-4.47437e-10
-8.78754e-13
-4.41738e-10
-5.70933e-12
-4.34895e-10
-6.85449e-12
-4.14386e-10
-2.05214e-11
-3.84042e-10
-3.03554e-11
-3.51577e-10
-3.24756e-11
-3.21416e-10
-3.01712e-11
-2.96041e-10
-2.53845e-11
-2.76379e-10
-1.9669e-11
-2.62402e-10
-1.39838e-11
-2.53583e-10
-8.82438e-12
-2.49277e-10
-4.30984e-12
-2.48385e-10
-8.95268e-13
-2.49705e-10
1.3181e-12
-2.52363e-10
2.65644e-12
-2.55482e-10
3.11732e-12
-2.5846e-10
2.97733e-12
-2.60963e-10
2.50335e-12
-2.62548e-10
1.58461e-12
-2.63125e-10
5.76856e-13
-2.62771e-10
-3.53332e-13
-2.61705e-10
-1.06662e-12
-2.60157e-10
-1.54738e-12
-2.58524e-10
-1.63334e-12
-2.57237e-10
-1.28665e-12
-2.56564e-10
-6.72469e-13
-2.56771e-10
2.06897e-13
-2.5801e-10
1.23876e-12
-2.60287e-10
2.27649e-12
-2.6368e-10
3.39272e-12
-2.68148e-10
4.46788e-12
-2.73596e-10
5.44889e-12
-2.7993e-10
6.33379e-12
-2.87112e-10
7.18308e-12
-2.95492e-10
8.3804e-12
1.07965e-11
1.80496e-09
2.65616e-10
1.72738e-09
4.9767e-10
1.54052e-09
4.89495e-10
1.32455e-09
4.25137e-10
1.11902e-09
3.51286e-10
9.40242e-10
2.82784e-10
7.90242e-10
2.26624e-10
6.66199e-10
1.82336e-10
5.64144e-10
1.4748e-10
4.80058e-10
1.20103e-10
4.10559e-10
9.84273e-11
3.52919e-10
8.10793e-11
3.04849e-10
6.72212e-11
2.64416e-10
5.6242e-11
2.30014e-10
4.7623e-11
2.00305e-10
4.09401e-11
1.74159e-10
3.58706e-11
1.50634e-10
3.21413e-11
1.28951e-10
2.95116e-11
1.08474e-10
2.77771e-11
8.86879e-11
2.675e-11
6.91863e-11
2.62638e-11
4.96604e-11
2.61776e-11
2.98833e-11
2.63709e-11
9.69809e-12
2.67345e-11
-1.09905e-11
2.71662e-11
-3.22184e-11
2.75649e-11
-5.39567e-11
2.78183e-11
-7.60994e-11
2.77785e-11
-9.84424e-11
2.7225e-11
-1.20667e-10
2.58112e-11
-1.4252e-10
2.29871e-11
-1.63168e-10
1.79577e-11
-1.82865e-10
9.67699e-12
-1.88948e-10
-9.69974e-12
-1.69977e-10
-3.59852e-11
-1.30374e-10
-5.98109e-11
-7.56135e-11
-7.93589e-11
-8.57267e-12
-9.54587e-11
6.98217e-11
-1.09678e-10
1.61958e-10
-1.2888e-10
2.56888e-10
-1.36214e-10
3.45511e-10
-1.28867e-10
4.25965e-10
-1.17828e-10
4.96309e-10
-1.03012e-10
5.57422e-10
-8.9094e-11
6.10419e-10
-7.73853e-11
6.52906e-10
-6.08195e-11
6.87566e-10
-4.93378e-11
7.13325e-10
-3.5643e-11
7.29509e-10
-2.07167e-11
7.37095e-10
-8.56281e-12
7.32546e-10
1.06158e-11
7.18506e-10
2.38114e-11
6.90628e-10
4.45442e-11
6.51625e-10
6.05511e-11
6.00108e-10
7.85468e-11
5.35664e-10
9.7291e-11
4.63393e-10
1.07264e-10
3.78359e-10
1.25182e-10
2.89831e-10
1.28074e-10
1.97003e-10
1.32406e-10
1.03456e-10
1.31368e-10
1.26688e-11
1.25736e-10
-7.52523e-11
1.20083e-10
-1.5685e-10
1.10398e-10
-2.33559e-10
1.0249e-10
-3.03716e-10
9.34451e-11
-3.68566e-10
8.55754e-11
-4.27596e-10
7.81432e-11
-4.81248e-10
7.15887e-11
-5.3007e-10
6.4807e-11
-5.74285e-10
5.95397e-11
-6.14064e-10
5.37348e-11
-6.494e-10
4.77536e-11
-6.80535e-10
4.25891e-11
-7.07501e-10
3.7e-11
-7.30309e-10
3.1093e-11
-7.49234e-10
2.60327e-11
-7.6454e-10
2.11777e-11
-7.76464e-10
1.65126e-11
-7.85496e-10
1.27329e-11
-7.92135e-10
9.62923e-12
-7.9696e-10
7.33872e-12
-8.00545e-10
6.16748e-12
-8.03296e-10
5.19588e-12
-8.05411e-10
4.37258e-12
-8.07565e-10
5.24401e-12
-8.09558e-10
5.03323e-12
-8.11342e-10
4.41264e-12
-8.1304e-10
5.31859e-12
-8.14417e-10
4.53466e-12
-8.15038e-10
3.14802e-12
-8.15228e-10
3.56721e-12
-8.14047e-10
2.24449e-13
-8.12237e-10
8.49791e-13
-8.08145e-10
-3.88021e-12
-8.02954e-10
-4.05468e-12
-7.95454e-10
-9.26959e-12
-7.86583e-10
-9.28362e-12
-7.75289e-10
-1.46577e-11
-7.61864e-10
-1.63318e-11
-7.45589e-10
-2.03053e-11
-7.26977e-10
-2.47532e-11
-7.05788e-10
-2.73952e-11
-6.81421e-10
-3.35236e-11
-6.53598e-10
-3.66491e-11
-6.22372e-10
-4.25931e-11
-5.87439e-10
-4.73909e-11
-5.48927e-10
-5.27346e-11
-5.06764e-10
-5.787e-11
-4.61239e-10
-6.31296e-11
-4.124e-10
-6.77576e-11
-3.61013e-10
-7.26634e-11
-3.06885e-10
-7.60005e-11
-2.51083e-10
-7.94809e-11
-1.93936e-10
-8.1802e-11
-1.36003e-10
-8.33379e-11
-7.82919e-11
-8.38411e-11
-2.12494e-11
-8.33931e-11
3.46846e-11
-8.22467e-11
8.86994e-11
-7.99733e-11
1.40403e-10
-7.69199e-11
1.89626e-10
-7.35831e-11
2.3586e-10
-6.94002e-11
2.78977e-10
-6.49527e-11
3.18868e-10
-6.0281e-11
3.55486e-10
-5.53001e-11
3.89046e-10
-5.0625e-11
4.1978e-10
-4.65337e-11
4.47092e-10
-4.11863e-11
4.71867e-10
-3.71724e-11
4.94749e-10
-3.4409e-11
5.1418e-10
-2.88841e-11
5.3165e-10
-2.55892e-11
5.47528e-10
-2.36276e-11
5.58883e-10
-1.60329e-11
5.68315e-10
-1.3607e-11
5.73042e-10
-6.21176e-12
5.73542e-10
1.19746e-13
5.67788e-10
9.5418e-12
5.5408e-10
2.1318e-11
5.315e-10
3.49174e-11
4.99195e-10
4.89993e-11
4.53771e-10
6.82348e-11
3.99037e-10
8.11638e-11
3.29194e-10
1.02939e-10
2.50758e-10
1.14381e-10
1.63151e-10
1.2624e-10
6.84178e-11
1.34698e-10
-2.81904e-11
1.35852e-10
-1.27172e-10
1.37014e-10
-2.22521e-10
1.30879e-10
-3.15263e-10
1.24642e-10
-4.01545e-10
1.15418e-10
-4.81404e-10
1.04549e-10
-5.5276e-10
9.35228e-11
-6.14977e-10
7.90449e-11
-6.67713e-10
6.23485e-11
-7.08175e-10
3.67292e-11
-7.43675e-10
5.86046e-11
-7.66632e-10
4.10773e-11
-7.72006e-10
1.56656e-11
-7.57067e-10
-1.3194e-11
-7.22137e-10
-3.58046e-11
-6.67183e-10
-6.06627e-11
-5.94784e-10
-7.92578e-11
-5.10217e-10
-1.05095e-10
-4.23455e-10
-1.17125e-10
-3.41962e-10
-1.13977e-10
-2.7032e-10
-1.01823e-10
-2.10755e-10
-8.49589e-11
-1.63979e-10
-6.64536e-11
-1.29435e-10
-4.85345e-11
-1.05598e-10
-3.26669e-11
-9.02985e-11
-1.96131e-11
-8.13491e-11
-9.8474e-12
-7.67729e-11
-3.25999e-12
-7.43364e-11
2.18949e-13
-7.26234e-11
1.40394e-12
-7.03167e-11
6.7059e-13
-6.66954e-11
-1.11746e-12
-6.1334e-11
-3.77616e-12
-5.42589e-11
-6.49753e-12
-4.5836e-11
-8.77554e-12
-3.66698e-11
-1.02325e-11
-2.75584e-11
-1.0659e-11
-1.92545e-11
-9.93753e-12
-1.24343e-11
-8.10731e-12
-7.74278e-12
-5.36467e-12
-5.55399e-12
-1.98271e-12
-6.14075e-12
1.8246e-12
-9.53212e-12
5.66696e-12
-1.55056e-11
9.36543e-12
-2.37487e-11
1.27104e-11
-3.38648e-11
1.55647e-11
-4.54318e-11
1.79012e-11
-5.80684e-11
1.9821e-11
-7.14193e-11
2.17323e-11
2.46334e-11
1.80379e-09
1.61797e-10
1.91487e-09
3.86663e-10
1.93185e-09
4.72481e-10
1.87517e-09
4.8173e-10
1.77665e-09
4.49746e-10
1.65831e-09
4.01089e-10
1.53657e-09
3.48353e-10
1.42126e-09
2.97654e-10
1.31657e-09
2.52165e-10
1.22356e-09
2.13111e-10
1.14206e-09
1.79924e-10
1.07125e-09
1.51886e-10
1.00985e-09
1.28617e-10
9.56472e-10
1.09621e-10
9.09787e-10
9.43063e-11
8.68572e-10
8.21542e-11
8.3168e-10
7.27613e-11
7.98085e-10
6.57354e-11
7.66895e-10
6.07e-11
7.37332e-10
5.7339e-11
7.0872e-10
5.53601e-11
6.80488e-10
5.44949e-11
6.52154e-10
5.45103e-11
6.23321e-10
5.52029e-11
5.93662e-10
5.63922e-11
5.62909e-10
5.79175e-11
5.30843e-10
5.96283e-11
4.97289e-10
6.13695e-11
4.62107e-10
6.2957e-11
4.25183e-10
6.41441e-11
3.86402e-10
6.45858e-11
3.4557e-10
6.38113e-11
3.02433e-10
6.10853e-11
2.53522e-10
5.8579e-11
2.19106e-10
2.47047e-11
2.21606e-10
-3.84977e-11
2.55151e-10
-9.33658e-11
3.11301e-10
-1.35506e-10
3.86701e-10
-1.70838e-10
4.79591e-10
-2.02524e-10
5.90578e-10
-2.39805e-10
7.04377e-10
-2.49946e-10
8.1205e-10
-2.36479e-10
9.1116e-10
-2.16886e-10
9.99415e-10
-1.91221e-10
1.07769e-09
-1.67325e-10
1.14697e-09
-1.46628e-10
1.20512e-09
-1.18933e-10
1.25444e-09
-9.86358e-11
1.29392e-09
-7.51289e-11
1.32307e-09
-4.98668e-11
1.34214e-09
-2.76502e-11
1.34814e-09
4.58523e-12
1.34298e-09
2.89502e-11
1.32265e-09
6.48505e-11
1.2886e-09
9.4581e-11
1.23915e-09
1.27993e-10
1.1731e-09
1.63334e-10
1.09432e-09
1.86044e-10
9.97312e-10
2.22177e-10
8.90651e-10
2.34715e-10
7.73241e-10
2.49787e-10
6.49254e-10
2.55327e-10
5.22882e-10
2.52094e-10
3.94634e-10
2.48335e-10
2.70548e-10
2.34501e-10
1.4973e-10
2.2334e-10
3.66933e-11
2.06522e-10
-6.96387e-11
1.91945e-10
-1.67914e-10
1.76448e-10
-2.57895e-10
1.61592e-10
-3.40842e-10
1.47766e-10
-4.15508e-10
1.34209e-10
-4.82893e-10
1.21123e-10
-5.43159e-10
1.08018e-10
-5.96084e-10
9.55059e-11
-6.4215e-10
8.30591e-11
-6.81684e-10
7.06229e-11
-7.14693e-10
5.90421e-11
-7.41631e-10
4.81202e-11
-7.62971e-10
3.78602e-11
-7.79176e-10
2.89478e-11
-7.90894e-10
2.13603e-11
-7.98799e-10
1.52579e-11
-8.03642e-10
1.10223e-11
-8.06207e-10
7.76967e-12
-8.07233e-10
5.40359e-12
-8.0698e-10
4.99087e-12
-8.0597e-10
4.02141e-12
-8.04337e-10
2.77532e-12
-8.01854e-10
2.83094e-12
-7.98439e-10
1.11391e-12
-7.94212e-10
-1.08312e-12
-7.8839e-10
-2.25911e-12
-7.81369e-10
-6.80057e-12
-7.72009e-10
-8.51292e-12
-7.6155e-10
-1.43431e-11
-7.48487e-10
-1.71208e-11
-7.33895e-10
-2.3866e-11
-7.16329e-10
-2.68551e-11
-6.9677e-10
-3.42226e-11
-6.74076e-10
-3.90327e-11
-6.48335e-10
-4.60539e-11
-6.19469e-10
-5.36288e-11
-5.86471e-10
-6.04023e-11
-5.49983e-10
-7.00216e-11
-5.08567e-10
-7.80763e-11
-4.62938e-10
-8.8234e-11
-4.12455e-10
-9.78871e-11
-3.57329e-10
-1.07873e-10
-2.97597e-10
-1.17616e-10
-2.33779e-10
-1.26962e-10
-1.65997e-10
-1.35552e-10
-9.56241e-11
-1.43046e-10
-2.21221e-11
-1.49511e-10
5.25796e-11
-1.54189e-10
1.28096e-10
-1.57319e-10
2.03829e-10
-1.59064e-10
2.78454e-10
-1.5845e-10
3.51531e-10
-1.56444e-10
4.2258e-10
-1.53258e-10
4.90616e-10
-1.47964e-10
5.55315e-10
-1.41565e-10
6.16603e-10
-1.34812e-10
6.73987e-10
-1.26723e-10
7.27454e-10
-1.18358e-10
7.77e-10
-1.09766e-10
8.22682e-10
-1.0092e-10
8.6487e-10
-9.27473e-11
9.03863e-10
-8.54556e-11
9.39229e-10
-7.64746e-11
9.71835e-10
-6.96935e-11
1.00236e-09
-6.48479e-11
1.02935e-09
-5.57857e-11
1.05445e-09
-5.06023e-11
1.07757e-09
-4.66717e-11
1.09633e-09
-3.47362e-11
1.11276e-09
-3.00074e-11
1.12436e-09
-1.78204e-11
1.13035e-09
-5.91521e-12
1.13009e-09
9.71716e-12
1.12112e-09
3.01649e-11
1.10215e-09
5.37463e-11
1.07152e-09
7.94863e-11
1.02608e-09
1.13547e-10
9.67862e-10
1.39302e-10
8.90893e-10
1.79869e-10
8.00322e-10
2.0495e-10
6.9513e-10
2.3145e-10
5.76502e-10
2.53347e-10
4.5017e-10
2.622e-10
3.14145e-10
2.73045e-10
1.77808e-10
2.67214e-10
3.96248e-11
2.62816e-10
-9.29017e-11
2.47933e-10
-2.21085e-10
2.32721e-10
-3.391e-10
2.11529e-10
-4.46596e-10
1.86536e-10
-5.398e-10
1.55558e-10
-6.18414e-10
1.15361e-10
-6.57551e-10
9.77677e-11
-6.71794e-10
5.53455e-11
-6.58999e-10
2.89237e-12
-6.17986e-10
-5.41879e-11
-5.46055e-10
-1.07719e-10
-4.47202e-10
-1.59502e-10
-3.23344e-10
-2.03108e-10
-1.95119e-10
-2.3332e-10
-7.46048e-11
-2.37643e-10
3.43552e-11
-2.22943e-10
1.29039e-10
-1.96514e-10
2.08061e-10
-1.6399e-10
2.71445e-10
-1.29847e-10
3.20324e-10
-9.74227e-11
3.56617e-10
-6.8967e-11
3.82776e-10
-4.57771e-11
4.01339e-10
-2.84153e-11
4.149e-10
-1.68242e-11
4.25637e-10
-1.05201e-11
4.35632e-10
-8.5923e-12
4.4627e-10
-9.96771e-12
4.58618e-10
-1.34641e-11
4.72884e-10
-1.80413e-11
4.88963e-10
-2.2575e-11
5.06332e-10
-2.61428e-11
5.24158e-10
-2.80569e-11
5.41435e-10
-2.79345e-11
5.57144e-10
-2.56471e-11
5.7035e-10
-2.13128e-11
5.80267e-10
-1.52819e-11
5.86342e-10
-8.0584e-12
5.8836e-10
-1.94231e-13
5.86366e-10
7.65971e-12
5.80662e-10
1.50686e-11
5.71769e-10
2.16028e-11
5.60336e-10
2.69967e-11
5.47085e-10
3.11524e-11
5.32757e-10
3.41501e-11
5.18199e-10
3.6292e-11
3.91522e-11
1.76539e-09
9.64814e-11
1.88742e-09
2.64632e-10
1.98798e-09
3.71935e-10
2.04916e-09
4.20487e-10
2.0679e-09
4.30918e-10
2.05018e-09
4.18769e-10
2.0095e-09
3.89014e-10
1.95553e-09
3.51632e-10
1.89517e-09
3.12527e-10
1.83297e-09
2.75306e-10
1.77234e-09
2.40555e-10
1.71508e-09
2.09146e-10
1.66179e-09
1.81903e-10
1.61262e-09
1.58787e-10
1.56748e-09
1.39448e-10
1.52603e-09
1.23606e-10
1.48773e-09
1.11059e-10
1.452e-09
1.0146e-10
1.41829e-09
9.44145e-11
1.386e-09
8.96251e-11
1.35458e-09
8.67798e-11
1.32349e-09
8.5581e-11
1.29224e-09
8.57636e-11
1.26035e-09
8.70869e-11
1.22741e-09
8.93312e-11
1.19303e-09
9.23025e-11
1.15683e-09
9.58265e-11
1.11846e-09
9.97356e-11
1.07757e-09
1.0385e-10
1.03376e-09
1.07952e-10
9.86573e-10
1.11765e-10
9.35432e-10
1.14948e-10
8.79439e-10
1.17074e-10
8.14427e-10
1.23585e-10
7.60561e-10
7.8563e-11
7.42727e-10
-2.06768e-11
7.57743e-10
-1.08395e-10
7.99237e-10
-1.77005e-10
8.64038e-10
-2.35628e-10
9.4932e-10
-2.87769e-10
1.05388e-09
-3.44304e-10
1.16269e-09
-3.58668e-10
1.26865e-09
-3.42368e-10
1.36835e-09
-3.16511e-10
1.45905e-09
-2.81861e-10
1.54124e-09
-2.49455e-10
1.61559e-09
-2.20921e-10
1.68033e-09
-1.83627e-10
1.7369e-09
-1.55182e-10
1.78491e-09
-1.23127e-10
1.82362e-09
-8.85885e-11
1.85293e-09
-5.69809e-11
1.87099e-09
-1.35082e-11
1.8787e-09
2.11969e-11
1.87326e-09
7.02451e-11
1.85507e-09
1.12728e-10
1.82254e-09
1.60491e-10
1.77395e-09
2.11906e-10
1.71147e-09
2.4851e-10
1.62979e-09
3.03828e-10
1.53491e-09
3.29564e-10
1.42489e-09
3.59762e-10
1.30302e-09
3.7714e-10
1.17269e-09
3.82363e-10
1.03489e-09
3.86094e-10
8.95715e-10
3.73649e-10
7.54956e-10
3.64099e-10
6.18302e-10
3.43196e-10
4.85892e-10
3.24386e-10
3.60381e-10
3.01998e-10
2.43186e-10
2.78827e-10
1.3321e-10
2.5778e-10
3.2862e-11
2.34591e-10
-5.90548e-11
2.13069e-10
-1.42673e-10
1.91656e-10
-2.17201e-10
1.70048e-10
-2.83251e-10
1.49123e-10
-3.41236e-10
1.2862e-10
-3.90968e-10
1.08788e-10
-4.32896e-10
9.00632e-11
-4.67674e-10
7.26538e-11
-4.95695e-10
5.69868e-11
-5.17708e-10
4.33932e-11
-5.34526e-10
3.20951e-11
-5.46831e-10
2.3344e-11
-5.55801e-10
1.6751e-11
-5.62388e-10
1.19971e-11
-5.66696e-10
9.30178e-12
-5.69858e-10
7.18327e-12
-5.72367e-10
5.28197e-12
-5.73501e-10
3.96278e-12
-5.74007e-10
1.61714e-12
-5.73332e-10
-1.7597e-12
-5.70573e-10
-5.02069e-12
-5.66581e-10
-1.07946e-11
-5.5945e-10
-1.56466e-11
-5.50511e-10
-2.32845e-11
-5.37829e-10
-2.98059e-11
-5.22654e-10
-3.90453e-11
-5.02797e-10
-4.67168e-11
-4.79733e-10
-5.72928e-11
-4.51667e-10
-6.71046e-11
-4.19002e-10
-7.87269e-11
-3.81443e-10
-9.11952e-11
-3.37788e-10
-1.04067e-10
-2.89191e-10
-1.18629e-10
-2.34086e-10
-1.33193e-10
-1.7368e-10
-1.48652e-10
-1.07555e-10
-1.64026e-10
-3.62758e-11
-1.79166e-10
3.96834e-11
-1.9359e-10
1.19527e-10
-2.0682e-10
2.02782e-10
-2.1882e-10
2.87783e-10
-2.2806e-10
3.74898e-10
-2.36636e-10
4.61936e-10
-2.41233e-10
5.4848e-10
-2.43866e-10
6.33896e-10
-2.44479e-10
7.16877e-10
-2.41419e-10
7.97063e-10
-2.36609e-10
8.74104e-10
-2.30266e-10
9.47156e-10
-2.20971e-10
1.0161e-09
-2.10451e-10
1.08097e-09
-1.99621e-10
1.14148e-09
-1.8717e-10
1.19779e-09
-1.74598e-10
1.25002e-09
-1.61922e-10
1.29835e-09
-1.49179e-10
1.34322e-09
-1.3754e-10
1.38496e-09
-1.27117e-10
1.42343e-09
-1.14852e-10
1.45928e-09
-1.05442e-10
1.49319e-09
-9.86534e-11
1.52402e-09
-8.65142e-11
1.55328e-09
-7.97541e-11
1.58049e-09
-7.3766e-11
1.60419e-09
-5.83513e-11
1.62546e-09
-5.11943e-11
1.64259e-09
-3.49076e-11
1.65471e-09
-1.80414e-11
1.66108e-09
3.29514e-12
1.6596e-09
3.15456e-11
1.64928e-09
6.39186e-11
1.62812e-09
1.00482e-10
1.59369e-09
1.47811e-10
1.54646e-09
1.86387e-10
1.48133e-09
2.44904e-10
1.40106e-09
2.85158e-10
1.30417e-09
3.28326e-10
1.1902e-09
3.6732e-10
1.06392e-09
3.88486e-10
9.22147e-10
4.14814e-10
7.73896e-10
4.15456e-10
6.16819e-10
4.19876e-10
4.60037e-10
4.04697e-10
3.02185e-10
3.90559e-10
1.51323e-10
3.62386e-10
8.71228e-12
3.29152e-10
-1.17005e-10
2.81292e-10
-2.23682e-10
2.22064e-10
-2.67592e-10
1.41713e-10
-2.74704e-10
6.24935e-11
-2.48258e-10
-2.3524e-11
-1.89493e-10
-1.12927e-10
-9.46952e-11
-2.02493e-10
2.81281e-11
-2.82302e-10
1.75543e-10
-3.50504e-10
3.19786e-10
-3.77551e-10
4.49905e-10
-3.67759e-10
5.65141e-10
-3.3818e-10
6.64845e-10
-2.9622e-10
7.48909e-10
-2.4806e-10
8.17917e-10
-1.98863e-10
8.73113e-10
-1.52627e-10
9.16277e-10
-1.1214e-10
9.49584e-10
-7.90917e-11
9.75405e-10
-5.42425e-11
9.96129e-10
-3.75532e-11
1.01395e-09
-2.83419e-11
1.03078e-09
-2.54236e-11
1.04809e-09
-2.7282e-11
1.06688e-09
-3.22525e-11
1.08752e-09
-3.86796e-11
1.10992e-09
-4.49803e-11
1.13358e-09
-4.97991e-11
1.15762e-09
-5.20931e-11
1.18099e-09
-5.12979e-11
1.20256e-09
-4.72196e-11
1.22126e-09
-4.00073e-11
1.23615e-09
-3.01733e-11
1.24657e-09
-1.84716e-11
1.25215e-09
-5.7813e-12
1.25286e-09
6.95646e-12
1.24899e-09
1.89324e-11
1.24112e-09
2.94685e-11
1.23002e-09
3.81022e-11
1.21656e-09
4.46055e-11
1.20172e-09
4.89947e-11
1.18657e-09
5.14447e-11
5.38748e-11
1.73753e-09
5.90229e-11
1.8263e-09
1.75904e-10
1.93146e-09
2.66792e-10
2.02666e-09
3.25231e-10
2.10181e-09
3.55698e-10
2.15592e-09
3.64633e-10
2.18843e-09
3.5648e-10
2.20121e-09
3.38829e-10
2.1981e-09
3.15662e-10
2.18436e-09
2.89047e-10
2.16379e-09
2.61115e-10
2.13888e-09
2.34063e-10
2.1111e-09
2.09683e-10
2.0819e-09
1.8798e-10
2.05238e-09
1.68965e-10
2.02314e-09
1.5285e-10
1.99433e-09
1.39865e-10
1.96606e-09
1.29738e-10
1.93832e-09
1.22154e-10
1.91095e-09
1.16996e-10
1.88371e-09
1.14011e-10
1.85634e-09
1.12959e-10
1.82847e-09
1.13632e-10
1.79973e-09
1.15823e-10
1.76974e-09
1.19326e-10
1.73808e-09
1.23959e-10
1.70434e-09
1.29562e-10
1.66809e-09
1.35988e-10
1.62885e-09
1.43092e-10
1.58608e-09
1.50719e-10
1.53915e-09
1.58692e-10
1.48729e-09
1.6681e-10
1.42941e-09
1.74949e-10
1.36173e-09
1.91264e-10
1.30031e-09
1.39976e-10
1.26688e-09
1.2743e-11
1.26201e-09
-1.03547e-10
1.28327e-09
-1.98273e-10
1.32868e-09
-2.81045e-10
1.39504e-09
-3.54111e-10
1.48008e-09
-4.29293e-10
1.57131e-09
-4.49827e-10
1.6638e-09
-4.34775e-10
1.75301e-09
-4.05653e-10
1.83588e-09
-3.64667e-10
1.91243e-09
-3.25944e-10
1.98299e-09
-2.91432e-10
2.04622e-09
-2.46811e-10
2.10261e-09
-2.11536e-10
2.1528e-09
-1.73307e-10
2.19538e-09
-1.31185e-10
2.23026e-09
-9.18824e-11
2.25695e-09
-4.02381e-11
2.27556e-09
2.54109e-12
2.28458e-09
6.11756e-11
2.28383e-09
1.13431e-10
2.27221e-09
1.72064e-10
2.24803e-09
2.36059e-10
2.21206e-09
2.84454e-10
2.16005e-09
3.55818e-10
2.095e-09
3.94591e-10
2.01439e-09
4.40323e-10
1.91986e-09
4.71604e-10
1.81302e-09
4.89131e-10
1.69446e-09
5.04577e-10
1.56875e-09
4.993e-10
1.43613e-09
4.96674e-10
1.30181e-09
4.77493e-10
1.1668e-09
4.5939e-10
1.03431e-09
4.34507e-10
9.06795e-10
4.06376e-10
7.83894e-10
3.8072e-10
6.68857e-10
3.49673e-10
5.6111e-10
3.20861e-10
4.60867e-10
2.91941e-10
3.69255e-10
2.61695e-10
2.85772e-10
2.32636e-10
2.10157e-10
2.04262e-10
1.4271e-10
1.76261e-10
8.31937e-11
1.49604e-10
3.10071e-11
1.24864e-10
-1.40129e-11
1.0203e-10
-5.24618e-11
8.18649e-11
-8.50016e-11
6.46558e-11
-1.12098e-10
5.04575e-11
-1.34951e-10
3.96155e-11
-1.54576e-10
3.16298e-11
-1.71001e-10
2.57292e-11
-1.85721e-10
2.19036e-11
-1.99338e-10
1.8898e-11
-2.11233e-10
1.58562e-11
-2.22127e-10
1.25087e-11
-2.31909e-10
8.01996e-12
-2.39015e-10
2.08323e-12
-2.44454e-10
-5.35844e-12
-2.45641e-10
-1.44637e-11
-2.43873e-10
-2.50563e-11
-2.36596e-10
-3.70863e-11
-2.25213e-10
-5.04334e-11
-2.06825e-10
-6.51093e-11
-1.83179e-10
-8.09453e-11
-1.52089e-10
-9.82002e-11
-1.14239e-10
-1.16584e-10
-6.93198e-11
-1.36122e-10
-1.63378e-11
-1.57057e-10
4.3144e-11
-1.7812e-10
1.10384e-10
-2.00443e-10
1.83703e-10
-2.21982e-10
2.63008e-10
-2.43343e-10
3.47344e-10
-2.63515e-10
4.3569e-10
-2.8195e-10
5.26991e-10
-2.98135e-10
6.20351e-10
-3.12194e-10
7.1401e-10
-3.21732e-10
8.08042e-10
-3.3068e-10
9.00328e-10
-3.33529e-10
9.90444e-10
-3.33989e-10
1.07783e-09
-3.31865e-10
1.1614e-09
-3.24989e-10
1.24097e-09
-3.16165e-10
1.31641e-09
-3.05674e-10
1.38714e-09
-2.91671e-10
1.45332e-09
-2.76585e-10
1.51513e-09
-2.61373e-10
1.57254e-09
-2.44522e-10
1.62586e-09
-2.27855e-10
1.67533e-09
-2.1133e-10
1.72126e-09
-1.95049e-10
1.7641e-09
-1.80323e-10
1.80419e-09
-1.67137e-10
1.84162e-09
-1.5221e-10
1.87675e-09
-1.40499e-10
1.91024e-09
-1.32059e-10
1.94138e-09
-1.17565e-10
1.97129e-09
-1.09573e-10
1.99918e-09
-1.0155e-10
2.02461e-09
-8.36923e-11
2.04772e-09
-7.42225e-11
2.0678e-09
-5.49229e-11
2.08386e-09
-3.40779e-11
2.09568e-09
-8.53431e-12
2.1013e-09
2.58591e-11
2.10044e-09
6.46709e-11
2.09108e-09
1.09696e-10
2.07186e-09
1.66872e-10
2.04207e-09
2.16016e-10
1.99825e-09
2.88588e-10
1.94086e-09
3.42448e-10
1.86842e-09
4.00717e-10
1.77895e-09
4.5677e-10
1.67548e-09
4.91941e-10
1.55386e-09
5.3643e-10
1.42101e-09
5.48292e-10
1.27368e-09
5.67183e-10
1.11998e-09
5.58364e-10
9.58172e-10
5.52342e-10
7.96511e-10
5.2403e-10
6.38152e-10
4.87508e-10
4.98104e-10
4.21356e-10
3.74426e-10
3.45772e-10
3.25462e-10
1.90721e-10
3.18706e-10
6.92933e-11
3.49131e-10
-5.39117e-11
4.13058e-10
-1.76823e-10
5.13538e-10
-3.02942e-10
6.3928e-10
-4.08014e-10
7.84761e-10
-4.95954e-10
9.21758e-10
-5.14522e-10
1.04169e-09
-4.87674e-10
1.14593e-09
-4.42405e-10
1.23547e-09
-3.85757e-10
1.31133e-09
-3.23929e-10
1.37464e-09
-2.62177e-10
1.42669e-09
-2.04678e-10
1.46897e-09
-1.5443e-10
1.50319e-09
-1.13322e-10
1.53119e-09
-8.22461e-11
1.55483e-09
-6.12003e-11
1.5759e-09
-4.94184e-11
1.59599e-09
-4.55171e-11
1.61638e-09
-4.76763e-11
1.63796e-09
-5.38365e-11
1.66117e-09
-6.18854e-11
1.68599e-09
-6.98067e-11
1.71204e-09
-7.58409e-11
1.7385e-09
-7.85441e-11
1.76443e-09
-7.72235e-11
1.78877e-09
-7.15582e-11
1.81041e-09
-6.16457e-11
1.82837e-09
-4.81271e-11
1.84186e-09
-3.19641e-11
1.85039e-09
-1.43133e-11
1.85377e-09
3.58072e-12
1.85215e-09
2.05472e-11
1.84601e-09
3.56046e-11
1.83607e-09
4.80428e-11
1.82322e-09
5.7453e-11
1.80847e-09
6.37477e-11
1.79292e-09
6.69913e-11
6.91094e-11
1.72185e-09
3.72225e-11
1.78181e-09
1.15994e-10
1.86438e-09
1.84238e-10
1.95512e-09
2.34462e-10
2.04328e-09
2.67482e-10
2.12237e-09
2.85505e-10
2.18818e-09
2.90653e-10
2.24076e-09
2.86265e-10
2.28121e-09
2.75213e-10
2.31069e-09
2.59566e-10
2.32959e-09
2.42217e-10
2.33914e-09
2.24515e-10
2.34209e-09
2.06724e-10
2.33997e-09
1.90104e-10
2.33404e-09
1.74893e-10
2.32512e-09
1.61774e-10
2.31369e-09
1.51291e-10
2.30046e-09
1.42963e-10
2.28588e-09
1.36735e-10
2.27014e-09
1.32737e-10
2.25334e-09
1.30818e-10
2.23549e-09
1.308e-10
2.21651e-09
1.3262e-10
2.19618e-09
1.3615e-10
2.17426e-09
1.41245e-10
2.15044e-09
1.47781e-10
2.12435e-09
1.55649e-10
2.09558e-09
1.64755e-10
2.06366e-09
1.75013e-10
2.02803e-09
1.86348e-10
1.98804e-09
1.98683e-10
1.9429e-09
2.11953e-10
1.89159e-09
2.26254e-10
1.83116e-09
2.51701e-10
1.77225e-09
1.98885e-10
1.73088e-09
5.41007e-11
1.71096e-09
-8.36493e-11
1.71381e-09
-2.01139e-10
1.73896e-09
-3.06219e-10
1.78352e-09
-3.98664e-10
1.84496e-09
-4.90709e-10
1.9142e-09
-5.19023e-10
1.98821e-09
-5.0871e-10
2.0615e-09
-4.78877e-10
2.13078e-09
-4.33892e-10
2.19572e-09
-3.90834e-10
2.25642e-09
-3.52092e-10
2.31194e-09
-3.02303e-10
2.36246e-09
-2.62037e-10
2.40842e-09
-2.1924e-10
2.44882e-09
-1.71588e-10
2.48388e-09
-1.26982e-10
2.51371e-09
-7.00951e-11
2.53806e-09
-2.18578e-11
2.5567e-09
4.24847e-11
2.56918e-09
1.00911e-10
2.57508e-09
1.6612e-10
2.57314e-09
2.37973e-10
2.56326e-09
2.94321e-10
2.54279e-09
3.76282e-10
2.51229e-09
4.25082e-10
2.46925e-09
4.83332e-10
2.41382e-09
5.26989e-10
2.34581e-09
5.57072e-10
2.26518e-09
5.85126e-10
2.17401e-09
5.90391e-10
2.07253e-09
5.98071e-10
1.96417e-09
5.85788e-10
1.8502e-09
5.73319e-10
1.73329e-09
5.51392e-10
1.61626e-09
5.23395e-10
1.49936e-09
4.97629e-10
1.38615e-09
4.62911e-10
1.2767e-09
4.30344e-10
1.17175e-09
3.96928e-10
1.07279e-09
3.60691e-10
9.79671e-10
3.25794e-10
8.92516e-10
2.91456e-10
8.11725e-10
2.57093e-10
7.37365e-10
2.24002e-10
6.6904e-10
1.93228e-10
6.06898e-10
1.6421e-10
5.50669e-10
1.3813e-10
5.0002e-10
1.15338e-10
4.54831e-10
9.56731e-11
4.14217e-10
8.02487e-11
3.77376e-10
6.84849e-11
3.44514e-10
5.85991e-11
3.1409e-10
5.23322e-11
2.85563e-10
4.74276e-11
2.59345e-10
4.20754e-11
2.34726e-10
3.71268e-11
2.11629e-10
3.11164e-11
1.91995e-10
2.17151e-11
1.74698e-10
1.19359e-11
1.62795e-10
-2.56326e-12
1.55253e-10
-1.75186e-11
1.55187e-10
-3.70232e-11
1.61172e-10
-5.64232e-11
1.76642e-10
-8.05829e-11
1.99581e-10
-1.03889e-10
2.32437e-10
-1.31061e-10
2.74125e-10
-1.58277e-10
3.24777e-10
-1.86779e-10
3.84976e-10
-2.17263e-10
4.52719e-10
-2.4587e-10
5.28709e-10
-2.7644e-10
6.1082e-10
-3.04103e-10
6.98333e-10
-3.30867e-10
7.89977e-10
-3.5517e-10
8.84195e-10
-3.7618e-10
9.7978e-10
-3.93733e-10
1.0755e-09
-4.07923e-10
1.16964e-09
-4.15895e-10
1.26211e-09
-4.23162e-10
1.35104e-09
-4.22465e-10
1.43609e-09
-4.19053e-10
1.51692e-09
-4.127e-10
1.5928e-09
-4.00871e-10
1.66378e-09
-3.87137e-10
1.73001e-09
-3.71885e-10
1.79125e-09
-3.52891e-10
1.84793e-09
-3.33228e-10
1.90038e-09
-3.13776e-10
1.94882e-09
-2.92912e-10
1.99368e-09
-2.72659e-10
2.03529e-09
-2.52885e-10
2.07404e-09
-2.33759e-10
2.11038e-09
-2.16619e-10
2.14459e-09
-2.01301e-10
2.17692e-09
-1.84491e-10
2.20743e-09
-1.70962e-10
2.23677e-09
-1.61346e-10
2.26471e-09
-1.45441e-10
2.29174e-09
-1.36548e-10
2.31681e-09
-1.26563e-10
2.34054e-09
-1.0736e-10
2.36234e-09
-9.59614e-11
2.38231e-09
-7.48389e-11
2.39941e-09
-5.11388e-11
2.41392e-09
-2.3031e-11
2.42437e-09
1.53864e-11
2.43095e-09
5.80217e-11
2.43199e-09
1.08549e-10
2.42724e-09
1.71495e-10
2.41523e-09
2.27877e-10
2.39445e-09
3.09237e-10
2.36359e-09
3.73207e-10
2.32166e-09
4.42581e-10
2.26582e-09
5.12577e-10
2.19744e-09
5.60294e-10
2.11198e-09
6.21886e-10
2.01349e-09
6.46758e-10
1.89811e-09
6.82537e-10
1.77137e-09
6.85066e-10
1.63076e-09
6.92914e-10
1.48288e-09
6.7187e-10
1.33206e-09
6.38307e-10
1.19729e-09
5.56127e-10
1.0765e-09
4.66585e-10
1.02558e-09
2.41677e-10
1.01649e-09
7.8433e-11
1.04404e-09
-8.14118e-11
1.10322e-09
-2.35967e-10
1.19577e-09
-3.95451e-10
1.30829e-09
-5.205e-10
1.43412e-09
-6.21742e-10
1.54834e-09
-6.28706e-10
1.64512e-09
-5.84419e-10
1.72712e-09
-5.2439e-10
1.79639e-09
-4.55011e-10
1.8547e-09
-3.82241e-10
1.90361e-09
-3.11087e-10
1.94449e-09
-2.4556e-10
1.97864e-09
-1.88585e-10
2.00734e-09
-1.42033e-10
2.03188e-09
-1.06796e-10
2.05354e-09
-8.28659e-11
2.07353e-09
-6.94227e-11
2.09298e-09
-6.49682e-11
2.11279e-09
-6.7493e-11
2.13362e-09
-7.46773e-11
2.15583e-09
-8.40959e-11
2.17943e-09
-9.34051e-11
2.20413e-09
-1.00538e-10
2.22916e-09