/*--------------------------------*- C++ -*----------------------------------*\
| =========                 |                                                 |
| \\      /  F ield         | OpenFOAM: The Open Source CFD Toolbox           |
|  \\    /   O peration     | Version:  2506                                  |
|   \\  /    A nd           | Website:  www.openfoam.com                      |
|    \\/     M anipulation  |                                                 |
\*---------------------------------------------------------------------------*/
FoamFile
{
    version     2.0;
    format      ascii;
    arch        "LSB;label=32;scalar=64";
    class       surfaceScalarField;
    location    "5";
    object      phi;
}
// * * * * * * * * * * * * * * * * * * * * * * * * * * * * * * * * * * * * * //

dimensions      [0 3 -1 0 0 0 0];

oriented        oriented;

internalField   nonuniform List<scalar> 
7780
(
2.05869e-09
4.41314e-10
1.55971e-09
4.98978e-10
1.20068e-09
3.59027e-10
9.60957e-10
2.39724e-10
8.04083e-10
1.56874e-10
7.00111e-10
1.03972e-10
6.29282e-10
7.08291e-11
5.79256e-10
5.00254e-11
5.42568e-10
3.66885e-11
5.14646e-10
2.79217e-11
4.92686e-10
2.19606e-11
4.74895e-10
1.77905e-11
4.60069e-10
1.48259e-11
4.47379e-10
1.26904e-11
4.36233e-10
1.1146e-11
4.2619e-10
1.00429e-11
4.16914e-10
9.27627e-12
4.08142e-10
8.77166e-12
3.99662e-10
8.47969e-12
3.91296e-10
8.36571e-12
3.82891e-10
8.40512e-12
3.74309e-10
8.58208e-12
3.65422e-10
8.88703e-12
3.56107e-10
9.31475e-12
3.46243e-10
9.86387e-12
3.35706e-10
1.0537e-11
3.24365e-10
1.13413e-11
3.12074e-10
1.22913e-11
2.9866e-10
1.34139e-11
2.83896e-10
1.47634e-11
2.67436e-10
1.64608e-11
2.48656e-10
1.87795e-11
2.26575e-10
2.20817e-11
1.95395e-10
3.11793e-11
1.70503e-10
2.48926e-11
1.6631e-10
4.19315e-12
1.74082e-10
-7.77178e-12
1.87538e-10
-1.34562e-11
2.07099e-10
-1.95612e-11
2.35411e-10
-2.83119e-11
2.83098e-10
-4.76866e-11
3.37939e-10
-5.48408e-11
3.88433e-10
-5.04932e-11
4.35502e-10
-4.70683e-11
4.77352e-10
-4.18483e-11
5.15388e-10
-3.80349e-11
5.51549e-10
-3.61604e-11
5.81058e-10
-2.95079e-11
6.08527e-10
-2.7468e-11
6.31821e-10
-2.32945e-11
6.49511e-10
-1.7689e-11
6.64542e-10
-1.50316e-11
6.70704e-10
-6.16197e-12
6.7403e-10
-3.32671e-12
6.66509e-10
7.52027e-12
6.5312e-10
1.33889e-11
6.31512e-10
2.16075e-11
5.99999e-10
3.15136e-11
5.66653e-10
3.33461e-11
5.20456e-10
4.61967e-11
4.7593e-10
4.45264e-11
4.27986e-10
4.79441e-11
3.80249e-10
4.77371e-11
3.3614e-10
4.41083e-11
2.92642e-10
4.3498e-11
2.55607e-10
3.70348e-11
2.20167e-10
3.54394e-11
1.90622e-10
2.95446e-11
1.63679e-10
2.69436e-11
1.40563e-10
2.31162e-11
1.20712e-10
1.98504e-11
1.02582e-10
1.81305e-11
8.73814e-11
1.52012e-11
7.37632e-11
1.36186e-11
6.15711e-11
1.21925e-11
5.09699e-11
1.06017e-11
4.14133e-11
9.55732e-12
3.26998e-11
8.71415e-12
2.49113e-11
7.78937e-12
1.78097e-11
7.10236e-12
1.1251e-11
6.55948e-12
5.20389e-12
6.04792e-12
-4.4153e-13
5.64611e-12
-5.73444e-12
5.29348e-12
-1.06907e-11
4.95668e-12
-1.53956e-11
4.70532e-12
-1.98278e-11
4.4325e-12
-2.39333e-11
4.10583e-12
-2.77536e-11
3.82071e-12
-3.12108e-11
3.45773e-12
-3.42775e-11
3.06749e-12
-3.69242e-11
2.64768e-12
-3.90635e-11
2.14055e-12
-4.07326e-11
1.67058e-12
-4.17507e-11
1.01999e-12
-4.23215e-11
5.72602e-13
-4.22392e-11
-8.05778e-14
-4.15612e-11
-6.76445e-13
-4.0244e-11
-1.31568e-12
-3.834e-11
-1.90267e-12
-3.56355e-11
-2.70315e-12
-3.21566e-11
-3.47748e-12
-2.77952e-11
-4.3598e-12
-2.24996e-11
-5.29343e-12
-1.61305e-11
-6.36639e-12
-8.72551e-12
-7.4016e-12
-2.02989e-15
-8.71938e-12
9.91184e-12
-9.90925e-12
2.12303e-11
-1.13135e-11
3.39168e-11
-1.26814e-11
4.8062e-11
-1.41405e-11
6.35305e-11
-1.54644e-11
8.05891e-11
-1.70553e-11
9.84755e-11
-1.78843e-11
1.18169e-10
-1.96929e-11
1.3848e-10
-2.03115e-11
1.59619e-10
-2.11423e-11
1.81688e-10
-2.20745e-11
2.0381e-10
-2.21311e-11
2.26074e-10
-2.22773e-11
2.4853e-10
-2.24761e-11
2.70444e-10
-2.19422e-11
2.91648e-10
-2.12398e-11
3.12444e-10
-2.08385e-11
3.32287e-10
-1.98889e-11
3.51225e-10
-1.89841e-11
3.69256e-10
-1.80693e-11
3.86226e-10
-1.69931e-11
4.02469e-10
-1.62477e-11
4.18515e-10
-1.60274e-11
4.3317e-10
-1.46176e-11
4.47599e-10
-1.43791e-11
4.6281e-10
-1.51588e-11
4.76578e-10
-1.37255e-11
4.90637e-10
-1.4035e-11
5.06523e-10
-1.58801e-11
5.19268e-10
-1.27544e-11
5.34202e-10
-1.49505e-11
5.47048e-10
-1.28595e-11
5.59204e-10
-1.21612e-11
5.69166e-10
-9.95727e-12
5.75696e-10
-6.51905e-12
5.77336e-10
-1.62935e-12
5.74885e-10
2.45834e-12
5.61938e-10
1.29491e-11
5.46648e-10
1.52881e-11
5.17303e-10
2.93421e-11
4.84901e-10
3.23975e-11
4.45801e-10
3.9097e-11
4.01126e-10
4.46738e-11
3.57235e-10
4.38894e-11
3.08596e-10
4.86396e-11
2.64984e-10
4.36116e-11
2.20517e-10
4.44671e-11
1.81893e-10
3.86247e-11
1.44643e-10
3.72498e-11
1.12842e-10
3.18014e-11
8.36766e-11
2.91665e-11
5.91766e-11
2.45008e-11
3.8594e-11
2.05834e-11
3.78656e-11
7.28816e-13
3.93144e-11
-1.44849e-12
4.33717e-11
-4.05718e-12
5.05329e-11
-7.1611e-12
6.35355e-11
-1.30025e-11
8.24642e-11
-1.89285e-11
1.11944e-10
-2.94798e-11
1.43067e-10
-3.11225e-11
1.71317e-10
-2.82496e-11
1.97229e-10
-2.59117e-11
2.20883e-10
-2.3654e-11
2.42248e-10
-2.13652e-11
2.61326e-10
-1.90784e-11
2.78179e-10
-1.68522e-11
2.92906e-10
-1.47273e-11
3.05637e-10
-1.27313e-11
3.16521e-10
-1.08841e-11
3.25719e-10
-9.19791e-12
3.33397e-10
-7.67756e-12
3.39719e-10
-6.32168e-12
3.44843e-10
-5.12431e-12
3.4892e-10
-4.07658e-12
3.52089e-10
-3.16796e-12
3.54476e-10
-2.38651e-12
3.56195e-10
-1.71873e-12
3.57349e-10
-1.1534e-12
3.58028e-10
-6.78924e-13
3.58309e-10
-2.80412e-13
3.58241e-10
6.92891e-14
3.57903e-10
3.37959e-13
3.57335e-10
5.68479e-13
3.56575e-10
7.59993e-13
3.55656e-10
9.18629e-13
3.54604e-10
1.05187e-12
3.53434e-10
1.17012e-12
3.52142e-10
1.29144e-12
3.50693e-10
1.44795e-12
3.48992e-10
1.70022e-12
3.46724e-10
2.26664e-12
3.93019e-12
2.64883e-09
2.92486e-10
2.59885e-09
5.48957e-10
2.42098e-09
5.36894e-10
2.2057e-09
4.55003e-10
2.00035e-09
3.62227e-10
1.82787e-09
2.76456e-10
1.68952e-09
2.0917e-10
1.57994e-09
1.59614e-10
1.49304e-09
1.23582e-10
1.42347e-09
9.74937e-11
1.36699e-09
7.84376e-11
1.32037e-09
6.44139e-11
1.28114e-09
5.40554e-11
1.24748e-09
4.63545e-11
1.21799e-09
4.06295e-11
1.19161e-09
3.64236e-11
1.16749e-09
3.34011e-11
1.14494e-09
3.13161e-11
1.12342e-09
3.00005e-11
1.10245e-09
2.93329e-11
1.08163e-09
2.92262e-11
1.06059e-09
2.96227e-11
1.03899e-09
3.0487e-11
1.01651e-09
3.17997e-11
9.92817e-10
3.35552e-11
9.67592e-10
3.57619e-11
9.40489e-10
3.84437e-11
9.11136e-10
4.16445e-11
8.79109e-10
4.5441e-11
8.43903e-10
4.99693e-11
8.04877e-10
5.54868e-11
7.61158e-10
6.24988e-11
7.11324e-10
7.19159e-11
6.50701e-10
9.18019e-11
6.00786e-10
7.4808e-11
5.85168e-10
1.98114e-11
5.96277e-10
-1.88809e-11
6.2586e-10
-4.3039e-11
6.73047e-10
-6.6748e-11
7.40613e-10
-9.58772e-11
8.35787e-10
-1.42861e-10
9.40937e-10
-1.59991e-10
1.04293e-09
-1.52491e-10
1.13968e-09
-1.43809e-10
1.22819e-09
-1.3036e-10
1.30973e-09
-1.1958e-10
1.38576e-09
-1.12185e-10
1.4518e-09
-9.5548e-11
1.51213e-09
-8.78032e-11
1.56432e-09
-7.54792e-11
1.60695e-09
-6.03213e-11
1.6418e-09
-4.98787e-11
1.66283e-09
-2.71928e-11
1.67445e-09
-1.4947e-11
1.66975e-09
1.22218e-11
1.65201e-09
3.11229e-11
1.61833e-09
5.52947e-11
1.5671e-09
8.27351e-11
1.50513e-09
9.53216e-11
1.42316e-09
1.28164e-10
1.33507e-09
1.32619e-10
1.23808e-09
1.4493e-10
1.13729e-09
1.48534e-10
1.0376e-09
1.43798e-10
9.38056e-10
1.43037e-10
8.45837e-10
1.29254e-10
7.57532e-10
1.23744e-10
6.78148e-10
1.08929e-10
6.05048e-10
1.00043e-10
5.39468e-10
8.86954e-11
4.81099e-10
7.82189e-11
4.27781e-10
7.14482e-11
3.80743e-10
6.22391e-11
3.38333e-10
5.60283e-11
2.999e-10
5.06253e-11
2.65497e-10
4.50042e-11
2.34276e-10
4.07782e-11
2.05689e-10
3.73012e-11
1.79674e-10
3.38046e-11
1.55857e-10
3.09194e-11
1.33868e-10
2.85493e-11
1.13561e-10
2.63549e-11
9.47102e-11
2.44961e-11
7.71474e-11
2.28556e-11
6.08223e-11
2.12809e-11
4.55364e-11
1.99901e-11
3.12365e-11
1.87311e-11
1.80992e-11
1.7242e-11
5.99331e-12
1.59257e-11
-5.01822e-12
1.44688e-11
-1.46567e-11
1.2706e-11
-2.29951e-11
1.09867e-11
-2.99164e-11
9.06316e-12
-3.51584e-11
6.91446e-12
-3.89102e-11
4.7741e-12
-4.07115e-11
2.37616e-12
-4.0906e-11
1.16382e-13
-3.88625e-11
-2.71718e-12
-3.48245e-11
-5.35091e-12
-2.83307e-11
-8.394e-12
-1.96407e-11
-1.13908e-11
-8.26069e-12
-1.48553e-11
5.77249e-12
-1.83911e-11
2.25921e-11
-2.21113e-11
4.26724e-11
-2.64453e-11
6.56459e-11
-3.03739e-11
9.22071e-11
-3.52797e-11
1.21917e-10
-3.96185e-11
1.55075e-10
-4.44724e-11
1.91503e-10
-4.911e-11
2.31125e-10
-5.37652e-11
2.73637e-10
-5.79792e-11
3.19042e-10
-6.2464e-11
3.66325e-10
-6.51709e-11
4.16232e-10
-6.96042e-11
4.67155e-10
-7.12386e-11
5.19082e-10
-7.30708e-11
5.71774e-10
-7.47669e-11
6.24068e-10
-7.44213e-11
6.75861e-10
-7.40646e-11
7.26979e-10
-7.35867e-11
7.76473e-10
-7.14289e-11
8.24174e-10
-6.89355e-11
8.70291e-10
-6.69567e-11
9.14266e-10
-6.38732e-11
9.56212e-10
-6.09489e-11
9.96189e-10
-5.80734e-11
1.0342e-09
-5.50342e-11
1.07081e-09
-5.28849e-11
1.10658e-09
-5.18244e-11
1.14046e-09
-4.85046e-11
1.17396e-09
-4.78643e-11
1.20825e-09
-4.94244e-11
1.24075e-09
-4.61834e-11
1.27398e-09
-4.72248e-11
1.30864e-09
-5.05235e-11
1.34012e-09
-4.42206e-11
1.37298e-09
-4.7818e-11
1.40283e-09
-4.27279e-11
1.43011e-09
-3.94647e-11
1.45292e-09
-3.27781e-11
1.46866e-09
-2.2261e-11
1.4755e-09
-8.47414e-12
1.47183e-09
6.13711e-12
1.45319e-09
3.15948e-11
1.4236e-09
4.488e-11
1.37316e-09
7.97833e-11
1.3109e-09
9.46557e-11
1.23437e-09
1.15627e-10
1.14509e-09
1.33954e-10
1.0505e-09
1.3847e-10
9.46312e-10
1.5283e-10
8.44084e-10
1.45839e-10
7.39393e-10
1.49157e-10
6.40925e-10
1.37093e-10
5.44977e-10
1.33198e-10
4.57247e-10
1.19531e-10
3.75918e-10
1.10496e-10
3.05574e-10
9.48456e-11
2.46747e-10
7.94108e-11
2.27264e-10
2.02116e-11
2.2345e-10
2.36634e-12
2.31275e-10
-1.18822e-11
2.50247e-10
-2.61336e-11
2.84646e-10
-4.74011e-11
3.34052e-10
-6.83348e-11
4.01648e-10
-9.70757e-11
4.72354e-10
-1.01828e-10
5.38613e-10
-9.45081e-11
6.00165e-10
-8.74642e-11
6.56878e-10
-8.03666e-11
7.08637e-10
-7.31241e-11
7.55411e-10
-6.58525e-11
7.97282e-10
-5.87226e-11
8.34419e-10
-5.18646e-11
8.67058e-10
-4.53698e-11
8.95477e-10
-3.93033e-11
9.19987e-10
-3.37073e-11
9.40913e-10
-2.86031e-11
9.58585e-10
-2.39934e-11
9.73328e-10
-1.98667e-11
9.85454e-10
-1.62022e-11
9.9526e-10
-1.29731e-11
1.00302e-09
-1.01482e-11
1.009e-09
-7.69246e-12
1.01341e-09
-5.57018e-12
1.01648e-09
-3.74525e-12
1.01838e-09
-2.18215e-12
1.0193e-09
-8.44816e-13
1.01935e-09
2.84482e-13
1.01869e-09
1.22699e-12
1.01743e-09
2.01962e-12
1.01568e-09
2.67406e-12
1.01352e-09
3.21049e-12
1.01103e-09
3.65325e-12
1.00829e-09
4.03848e-12
1.00531e-09
4.42511e-12
1.00209e-09
4.9222e-12
9.98577e-10
5.77495e-12
7.80101e-12
2.61924e-09
1.73243e-10
2.75222e-09
4.15981e-10
2.78973e-09
4.99382e-10
2.74812e-09
4.96612e-10
2.66018e-09
4.50167e-10
2.54989e-09
3.86751e-10
2.43624e-09
3.22815e-10
2.33092e-09
2.64938e-10
2.2376e-09
2.16901e-10
2.1566e-09
1.78496e-10
2.08699e-09
1.4805e-10
2.02713e-09
1.24275e-10
1.97528e-09
1.05905e-10
1.92991e-09
9.17234e-11
1.88968e-09
8.08555e-11
1.85344e-09
7.26631e-11
1.82022e-09
6.66228e-11
1.7892e-09
6.23338e-11
1.75969e-09
5.95185e-11
1.73105e-09
5.79637e-11
1.70277e-09
5.75137e-11
1.67432e-09
5.80658e-11
1.64525e-09
5.95563e-11
1.6151e-09
6.19506e-11
1.58342e-09
6.52408e-11
1.54973e-09
6.94455e-11
1.51357e-09
7.46108e-11
1.47439e-09
8.08167e-11
1.43164e-09
8.81922e-11
1.38467e-09
9.69448e-11
1.33273e-09
1.07421e-10
1.27501e-09
1.20227e-10
1.21049e-09
1.36436e-10
1.13588e-09
1.6641e-10
1.0721e-09
1.38589e-10
1.0448e-09
4.71042e-11
1.05144e-09
-2.55124e-11
1.08586e-09
-7.74594e-11
1.14634e-09
-1.27229e-10
1.23271e-09
-1.82246e-10
1.34634e-09
-2.56495e-10
1.46985e-09
-2.83501e-10
1.59286e-09
-2.75501e-10
1.71096e-09
-2.61903e-10
1.82046e-09
-2.39865e-10
1.92187e-09
-2.20993e-10
2.01594e-09
-2.06254e-10
2.09963e-09
-1.79233e-10
2.17578e-09
-1.63958e-10
2.24262e-09
-1.42319e-10
2.29895e-09
-1.1665e-10
2.34535e-09
-9.62725e-11
2.37826e-09
-6.01107e-11
2.39947e-09
-3.61516e-11
2.40442e-09
7.27204e-12
2.39436e-09
4.11843e-11
2.36703e-09
8.2621e-11
2.32069e-09
1.2908e-10
2.25926e-09
1.56748e-10
2.17624e-09
2.11181e-10
2.08084e-09
2.28024e-10
1.97159e-09
2.54181e-10
1.85307e-09
2.67054e-10
1.72981e-09
2.67055e-10
1.60275e-09
2.70099e-10
1.47865e-09
2.53351e-10
1.35654e-09
2.45858e-10
1.2416e-09
2.23867e-10
1.13293e-09
2.08714e-10
1.03222e-09
1.89399e-10
9.40002e-10
1.70439e-10
8.54437e-10
1.57013e-10
7.76949e-10
1.39727e-10
7.06031e-10
1.26945e-10
6.4098e-10
1.15676e-10
5.81841e-10
1.04143e-10
5.27655e-10
9.49647e-11
4.77742e-10
8.72139e-11
4.31932e-10
7.96144e-11
3.89788e-10
7.30637e-11
3.50792e-10
6.75449e-11
3.14739e-10
6.24075e-11
2.81313e-10
5.7921e-11
2.50274e-10
5.38941e-11
2.21552e-10
5.0001e-11
1.94838e-10
4.67026e-11
1.69998e-10
4.35683e-11
1.47326e-10
3.99123e-11
1.26536e-10
3.67141e-11
1.07696e-10
3.33069e-11
9.13007e-11
2.9101e-11
7.71825e-11
2.51053e-11
6.54859e-11
2.07611e-11
5.67997e-11
1.56026e-11
5.06539e-11
1.09225e-11
4.79879e-11
5.0451e-12
4.82626e-11
-1.54747e-13
5.21725e-11
-6.62349e-12
5.92285e-11
-1.24035e-11
7.0584e-11
-1.97465e-11
8.54317e-11
-2.62357e-11
1.0477e-10
-3.41908e-11
1.28339e-10
-4.19587e-11
1.56335e-10
-5.0105e-11
1.89443e-10
-5.95519e-11
2.26945e-10
-6.78744e-11
2.69778e-10
-7.81116e-11
3.1716e-10
-8.70009e-11
3.69327e-10
-9.66396e-11
4.25911e-10
-1.05695e-10
4.86572e-10
-1.14429e-10
5.50814e-10
-1.22224e-10
6.18344e-10
-1.29999e-10
6.87952e-10
-1.34785e-10
7.6006e-10
-1.41719e-10
8.32913e-10
-1.44098e-10
9.06279e-10
-1.46441e-10
9.79692e-10
-1.48182e-10
1.05198e-09
-1.4671e-10
1.12291e-09
-1.4498e-10
1.19218e-09
-1.42842e-10
1.25893e-09
-1.38161e-10
1.32306e-09
-1.33044e-10
1.38465e-09
-1.2853e-10
1.44334e-09
-1.22548e-10
1.49928e-09
-1.16895e-10
1.55261e-09
-1.11415e-10
1.60349e-09
-1.05945e-10
1.65246e-09
-1.01899e-10
1.69994e-09
-9.93491e-11
1.74555e-09
-9.41562e-11
1.79033e-09
-9.26638e-11
1.83519e-09
-9.42745e-11
1.87842e-09
-8.93813e-11
1.92198e-09
-9.07451e-11
1.96557e-09
-9.40659e-11
2.0067e-09
-8.53207e-11
2.04744e-09
-8.85451e-11
2.08499e-09
-8.0294e-11
2.11866e-09
-7.31538e-11
2.14696e-09
-6.11026e-11
2.16702e-09
-4.23396e-11
2.17741e-09
-1.88702e-11
2.17564e-09
7.90101e-12
2.15858e-09
4.8661e-11
2.12743e-09
7.60377e-11
2.0755e-09
1.31717e-10
2.00759e-09
1.62568e-10
1.92221e-09
2.01001e-10
1.81969e-09
2.36467e-10
1.70614e-09
2.52023e-10
1.57827e-09
2.80696e-10
1.44624e-09
2.77871e-10
1.30718e-09
2.88219e-10
1.16989e-09
2.74382e-10
1.03217e-09
2.70921e-10
9.00666e-10
2.51031e-10
7.7585e-10
2.35312e-10
6.66064e-10
2.04632e-10
5.71769e-10
1.73706e-10
5.29192e-10
6.27888e-11
5.13896e-10
1.76622e-11
5.2007e-10
-1.80559e-11
5.4569e-10
-5.17536e-11
5.9478e-10
-9.649e-11
6.64615e-10
-1.3817e-10
7.55605e-10
-1.88066e-10
8.49558e-10
-1.95781e-10
9.3832e-10
-1.8327e-10
1.02128e-09
-1.70421e-10
1.09809e-09
-1.57183e-10
1.16861e-09
-1.43644e-10
1.2328e-09
-1.30042e-10
1.29075e-09
-1.16671e-10
1.34265e-09
-1.03765e-10
1.38877e-09
-9.14867e-11
1.42942e-09
-7.99536e-11
1.46496e-09
-6.92445e-11
1.49576e-09
-5.94028e-11
1.5222e-09
-5.04393e-11
1.54468e-09
-4.23403e-11
1.56355e-09
-3.50759e-11
1.57919e-09
-2.86055e-11
1.59192e-09
-2.28804e-11
1.60207e-09
-1.78441e-11
1.60994e-09
-1.34361e-11
1.61579e-09
-9.59609e-12
1.61987e-09
-6.2664e-12
1.62242e-09
-3.39362e-12
1.62364e-09
-9.31177e-13
1.62371e-09
1.1577e-12
1.62281e-09
2.91628e-12
1.62111e-09
4.37389e-12
1.61876e-09
5.56132e-12
1.6159e-09
6.51351e-12
1.61266e-09
7.27604e-12
1.60917e-09
7.91363e-12
1.60556e-09
8.53159e-12
1.60206e-09
9.27671e-12
1.09695e-11
2.56732e-09
1.05919e-10
2.69658e-09
2.86726e-10
2.80567e-09
3.90287e-10
2.87288e-09
4.29406e-10
2.89426e-09
4.28781e-10
2.87746e-09
4.03554e-10
2.83707e-09
3.63209e-10
2.78345e-09
3.1855e-10
2.72431e-09
2.76046e-10
2.66529e-09
2.37516e-10
2.60939e-09
2.03951e-10
2.55756e-09
1.76102e-10
2.51003e-09
1.53439e-10
2.46664e-09
1.35113e-10
2.42691e-09
1.20581e-10
2.39024e-09
1.09338e-10
2.35601e-09
1.00853e-10
2.32364e-09
9.47016e-11
2.29255e-09
9.06052e-11
2.26221e-09
8.83025e-11
2.23211e-09
8.76126e-11
2.20176e-09
8.8417e-11
2.17068e-09
9.06441e-11
2.13837e-09
9.42579e-11
2.10435e-09
9.92594e-11
2.06811e-09
1.05686e-10
2.02911e-09
1.13613e-10
1.98677e-09
1.23158e-10
1.94046e-09
1.34498e-10
1.88951e-09
1.4789e-10
1.83321e-09
1.63723e-10
1.77084e-09
1.82601e-10
1.70174e-09
2.05537e-10
1.62337e-09
2.44774e-10
1.55383e-09
2.0813e-10
1.51718e-09
8.37587e-11
1.51518e-09
-2.35121e-11
1.54506e-09
-1.0734e-10
1.60493e-09
-1.87101e-10
1.69196e-09
-2.69274e-10
1.80372e-09
-3.6826e-10
1.92495e-09
-4.04725e-10
2.04815e-09
-3.98707e-10
2.1676e-09
-3.8135e-10
2.27929e-09
-3.51557e-10
2.38315e-09
-3.24853e-10
2.47957e-09
-3.02675e-10
2.56639e-09
-2.66051e-10
2.6457e-09
-2.43271e-10
2.71642e-09
-2.13033e-10
2.7771e-09
-1.77334e-10
2.82828e-09
-1.47452e-10
2.86814e-09
-9.99701e-11
2.89696e-09
-6.49672e-11
2.9124e-09
-8.17168e-12
2.91422e-09
3.93628e-11
2.90106e-09
9.57845e-11
2.87108e-09
1.59056e-10
2.82606e-09
2.0177e-10
2.7614e-09
2.75839e-10
2.68206e-09
3.0737e-10
2.58663e-09
3.49608e-10
2.47812e-09
3.7556e-10
2.35952e-09
3.8566e-10
2.23235e-09
3.97266e-10
2.10206e-09
3.8364e-10
1.96923e-09
3.78687e-10
1.83881e-09
3.54292e-10
1.71143e-09
3.36089e-10
1.58939e-09
3.11435e-10
1.47424e-09
2.8559e-10
1.36497e-09
2.66289e-10
1.26351e-09
2.4118e-10
1.16886e-09
2.21597e-10
1.08064e-09
2.03891e-10
9.99145e-10
1.85642e-10
9.23505e-10
1.70604e-10
8.53159e-10
1.5756e-10
7.87943e-10
1.4483e-10
7.2748e-10
1.33527e-10
6.7121e-10
1.23814e-10
6.18955e-10
1.14661e-10
5.7038e-10
1.06495e-10
5.25227e-10
9.9046e-11
4.83454e-10
9.17721e-11
4.44686e-10
8.54686e-11
4.08732e-10
7.95196e-11
3.76007e-10
7.26359e-11
3.46058e-10
6.66609e-11
3.18951e-10
6.04122e-11
2.95301e-10
5.27497e-11
2.74892e-10
4.55146e-11
2.57843e-10
3.7811e-11
2.45088e-10
2.83599e-11
2.35875e-10
2.01379e-11
2.31671e-10
9.25293e-12
2.31449e-10
7.15447e-14
2.36647e-10
-1.18169e-11
2.46188e-10
-2.19405e-11
2.61846e-10
-3.54013e-11
2.82303e-10
-4.66891e-11
3.08977e-10
-6.08614e-11
3.41309e-10
-7.42885e-11
3.79497e-10
-8.82905e-11
4.24258e-10
-1.04311e-10
4.74513e-10
-1.18128e-10
5.31232e-10
-1.34829e-10
5.93282e-10
-1.49049e-10
6.60678e-10
-1.64035e-10
7.32845e-10
-1.77862e-10
8.09104e-10
-1.90689e-10
8.8878e-10
-2.01903e-10
9.71276e-10
-2.125e-10
1.05525e-09
-2.18764e-10
1.14086e-09
-2.27339e-10
1.22632e-09
-2.2957e-10
1.31128e-09
-2.31411e-10
1.39522e-09
-2.32124e-10
1.47706e-09
-2.28555e-10
1.55655e-09
-2.24471e-10
1.63347e-09
-2.19748e-10
1.70712e-09
-2.11798e-10
1.77754e-09
-2.03441e-10
1.84483e-09
-1.95781e-10
1.90882e-09
-1.86509e-10
1.96977e-09
-1.77824e-10
2.02788e-09
-1.69521e-10
2.08344e-09
-1.6152e-10
2.13693e-09
-1.55426e-10
2.1887e-09
-1.51175e-10
2.23878e-09
-1.44295e-10
2.28772e-09
-1.41652e-10
2.33632e-09
-1.42905e-10
2.38344e-09
-1.36494e-10
2.43038e-09
-1.37654e-10
2.47638e-09
-1.40023e-10
2.5204e-09
-1.29288e-10
2.56282e-09
-1.30932e-10
2.60218e-09
-1.19641e-10
2.63718e-09
-1.08164e-10
2.66699e-09
-9.09389e-11
2.68899e-09
-6.43579e-11
2.70236e-09
-3.22586e-11
2.7045e-09
5.74786e-12
2.69361e-09
5.95591e-11
2.66902e-09
1.00624e-10
2.6268e-09
1.73948e-10
2.56832e-09
2.21046e-10
2.49261e-09
2.76711e-10
2.39846e-09
3.30611e-10
2.29006e-09
3.60427e-10
2.16408e-09
4.06671e-10
2.02829e-09
4.13665e-10
1.88018e-09
4.36321e-10
1.72761e-09
4.26959e-10
1.56908e-09
4.29449e-10
1.41157e-09
4.08542e-10
1.2578e-09
3.89083e-10
1.12035e-09
3.42074e-10
9.99116e-10
2.94944e-10
9.35218e-10
1.26687e-10
9.06024e-10
4.68565e-11
9.06496e-10
-1.85272e-11
9.33595e-10
-7.88525e-11
9.90485e-10
-1.5338e-10
1.0714e-09
-2.19086e-10
1.17417e-09
-2.90836e-10
1.27887e-09
-3.00475e-10
1.37759e-09
-2.81992e-10
1.46988e-09
-2.62713e-10
1.55543e-09
-2.42728e-10
1.63413e-09
-2.22346e-10
1.70601e-09
-2.01929e-10
1.77122e-09
-1.81879e-10
1.82997e-09
-1.62517e-10
1.88255e-09
-1.44066e-10
1.92929e-09
-1.26686e-10
1.97053e-09
-1.10485e-10
2.00665e-09
-9.55255e-11
2.03803e-09
-8.18233e-11
2.06506e-09
-6.93615e-11
2.08808e-09
-5.81023e-11
2.10747e-09
-4.79956e-11
2.12357e-09
-3.89792e-11
2.13671e-09
-3.09783e-11
2.14719e-09
-2.39113e-11
2.15529e-09
-1.76973e-11
2.16128e-09
-1.22591e-11
2.16541e-09
-7.52468e-12
2.16791e-09
-3.43037e-12
2.16899e-09
7.79448e-14
2.16886e-09
3.04807e-12
2.16771e-09
5.52205e-12
2.16574e-09
7.5376e-12
2.16311e-09
9.13514e-12
2.16003e-09
1.03623e-11
2.15666e-09
1.12771e-11
2.15323e-09
1.19646e-11
2.15002e-09
1.24804e-11
1.36711e-11
2.53833e-09
6.75887e-11
2.63116e-09
1.93892e-10
2.73758e-09
2.83868e-10
2.83185e-09
3.35138e-10
2.90393e-09
3.56702e-10
2.9518e-09
3.55684e-10
2.97568e-09
3.39326e-10
2.97953e-09
3.14703e-10
2.96945e-09
2.86131e-10
2.95057e-09
2.56393e-10
2.92638e-09
2.28138e-10
2.89915e-09
2.03335e-10
2.87082e-09
1.81769e-10
2.84255e-09
1.63381e-10
2.81477e-09
1.48363e-10
2.78763e-09
1.3648e-10
2.76114e-09
1.27343e-10
2.73519e-09
1.20653e-10
2.7095e-09
1.16291e-10
2.68382e-09
1.13987e-10
2.65782e-09
1.13613e-10
2.63114e-09
1.15089e-10
2.60342e-09
1.18368e-10
2.57424e-09
1.23441e-10
2.54316e-09
1.30336e-10
2.50972e-09
1.39123e-10
2.47342e-09
1.49917e-10
2.4337e-09
1.62876e-10
2.38998e-09
1.78218e-10
2.34163e-09
1.96237e-10
2.28802e-09
2.17335e-10
2.22856e-09
2.42067e-10
2.16276e-09
2.71331e-10
2.08869e-09
3.1884e-10
2.02048e-09
2.7635e-10
1.97823e-09
1.25999e-10
1.96683e-09
-1.211e-11
1.9868e-09
-1.27307e-10
2.03671e-09
-2.37007e-10
2.11235e-09
-3.4492e-10
2.20953e-09
-4.65438e-10
2.31596e-09
-5.11156e-10
2.42663e-09
-5.09376e-10
2.53487e-09
-4.8959e-10
2.63659e-09
-4.53275e-10
2.73137e-09
-4.19636e-10
2.81942e-09
-3.90719e-10
2.89966e-09
-3.46298e-10
2.9729e-09
-3.16511e-10
3.03846e-09
-2.78594e-10
3.09638e-09
-2.35256e-10
3.14612e-09
-1.97185e-10
3.18732e-09
-1.41176e-10
3.21955e-09
-9.71898e-11
3.24219e-09
-3.08096e-11
3.25434e-09
2.72079e-11
3.25543e-09
9.46953e-11
3.2439e-09
1.70584e-10
3.22003e-09
2.25642e-10
3.18094e-09
3.14931e-10
3.12826e-09
3.60043e-10
3.06055e-09
4.17322e-10
2.97897e-09
4.57138e-10
2.88453e-09
4.80104e-10
2.77854e-09
5.03259e-10
2.66426e-09
4.97919e-10
2.54293e-09
5.00018e-10
2.41835e-09
4.78869e-10
2.29214e-09
4.62302e-10
2.16668e-09
4.36886e-10
2.04433e-09
4.07943e-10
1.92495e-09
3.85672e-10
1.811e-09
3.5512e-10
1.70221e-09
3.30394e-10
1.59875e-09
3.07344e-10
1.50134e-09
2.8305e-10
1.40945e-09
2.62497e-10
1.32284e-09
2.44167e-10
1.2415e-09
2.2617e-10
1.16526e-09
2.09761e-10
1.09366e-09
1.9542e-10
1.02663e-09
1.81683e-10
9.63935e-10
1.69192e-10
9.05365e-10
1.57615e-10
8.50972e-10
1.46164e-10
8.00397e-10
1.36041e-10
7.53438e-10
1.26476e-10
7.10647e-10
1.15425e-10
6.71441e-10
1.05865e-10
6.35927e-10
9.59252e-11
6.04754e-10
8.39211e-11
5.77709e-10
7.25597e-11
5.54827e-10
6.06933e-11
5.37376e-10
4.58128e-11
5.24346e-10
3.31714e-11
5.17725e-10
1.58775e-11
5.16105e-10
1.69649e-12
5.2155e-10
-1.72573e-11
5.3254e-10
-3.29257e-11
5.51387e-10
-5.42448e-11
5.76283e-10
-7.15803e-11
6.08985e-10
-9.35594e-11
6.48565e-10
-1.13865e-10
6.95173e-10
-1.34895e-10
7.49373e-10
-1.58508e-10
8.0973e-10
-1.78483e-10
8.77042e-10
-2.02138e-10
9.49837e-10
-2.21843e-10
1.02779e-09
-2.41987e-10
1.11013e-09
-2.60204e-10
1.1958e-09
-2.76362e-10
1.28402e-09
-2.90119e-10
1.37389e-09
-3.02377e-10
1.46406e-09
-3.08937e-10
1.55449e-09
-3.1778e-10
1.64351e-09
-3.18593e-10
1.73073e-09
-3.18644e-10
1.81571e-09
-3.17115e-10
1.89758e-09
-3.10444e-10
1.97621e-09
-3.03102e-10
2.05151e-09
-2.95057e-10
2.12306e-09
-2.83335e-10
2.19106e-09
-2.7142e-10
2.25567e-09
-2.60366e-10
2.31697e-09
-2.47777e-10
2.37531e-09
-2.36125e-10
2.43096e-09
-2.25139e-10
2.48428e-09
-2.14823e-10
2.5357e-09
-2.0685e-10
2.58549e-09
-2.01001e-10
2.63388e-09
-1.92752e-10
2.68098e-09
-1.88806e-10
2.72767e-09
-1.8966e-10
2.77309e-09
-1.81957e-10
2.81784e-09
-1.82409e-10
2.86112e-09
-1.83271e-10
2.90285e-09
-1.70963e-10
2.94231e-09
-1.70346e-10
2.97912e-09
-1.56413e-10
3.01174e-09
-1.40773e-10
3.04e-09
-1.19206e-10
3.06173e-09
-8.61012e-11
3.0768e-09
-4.73522e-11
3.08274e-09
-2.13949e-13
3.07916e-09
6.31369e-11
3.06421e-09
1.1558e-10
3.03633e-09
2.01827e-10
2.99444e-09
2.62939e-10
2.93801e-09
3.33139e-10
2.86469e-09
4.03936e-10
2.77671e-09
4.48397e-10
2.67055e-09
5.12828e-10
2.55106e-09
5.33153e-10
2.41558e-09
5.71803e-10
2.2699e-09
5.7264e-10
2.11255e-09
5.86801e-10
1.94968e-09
5.71415e-10
1.78572e-09
5.53039e-10
1.63707e-09
4.90724e-10
1.50269e-09
4.29326e-10
1.42447e-09
2.049e-10
1.38382e-09
8.75131e-11
1.37757e-09
-1.22794e-11
1.40276e-09
-1.04042e-10
1.46174e-09
-2.12357e-10
1.54585e-09
-3.03199e-10
1.65068e-09
-3.95669e-10
1.75602e-09
-4.05813e-10
1.85467e-09
-3.80637e-10
1.94648e-09
-3.54526e-10
2.03131e-09
-3.27557e-10
2.1092e-09
-3.00238e-10
2.1803e-09
-2.73033e-10
2.24484e-09
-2.46416e-10
2.30309e-09
-2.20766e-10
2.35537e-09
-1.96343e-10
2.40201e-09
-1.73327e-10
2.44337e-09
-1.51843e-10
2.4798e-09
-1.31961e-10
2.51167e-09
-1.13691e-10
2.53932e-09
-9.70067e-11
2.56307e-09
-8.18591e-11
2.58327e-09
-6.81914e-11
2.60022e-09
-5.59315e-11
2.61423e-09
-4.49877e-11
2.62558e-09
-3.52596e-11
2.63454e-09
-2.66495e-11
2.64134e-09
-1.90641e-11
2.64623e-09
-1.24154e-11
2.64943e-09
-6.62682e-12
2.65114e-09
-1.63462e-12
2.65158e-09
2.61486e-12
2.65093e-09
6.16826e-12
2.6494e-09
9.0671e-12
2.64718e-09
1.13531e-11
2.64447e-09
1.30723e-11
2.64147e-09
1.42738e-11
2.63841e-09
1.50285e-11
2.63555e-09
1.53335e-11
1.6022e-11
2.52326e-09
4.43248e-11
2.58626e-09
1.30895e-10
2.67044e-09
1.99692e-10
2.75962e-09
2.45958e-10
2.84359e-09
2.72729e-10
2.91572e-09
2.83555e-10
2.97306e-09
2.81984e-10
3.01604e-09
2.71725e-10
3.04643e-09
2.55734e-10
3.06519e-09
2.37634e-10
3.07407e-09
2.19265e-10
3.0763e-09
2.01098e-10
3.07393e-09
1.84141e-10
3.06803e-09
1.69281e-10
3.05934e-09
1.57051e-10
3.04865e-09
1.47174e-10
3.03647e-09
1.39521e-10
3.02307e-09
1.34056e-10
3.00854e-09
1.30816e-10
2.99288e-09
1.29648e-10
2.97604e-09
1.30458e-10
2.95784e-09
1.33282e-10
2.93809e-09
1.38123e-10
2.91651e-09
1.45017e-10
2.8928e-09
1.54043e-10
2.86661e-09
1.65321e-10
2.83751e-09
1.79009e-10
2.80508e-09
1.95314e-10
2.7688e-09
2.14493e-10
2.72817e-09
2.36864e-10
2.68268e-09
2.62832e-10
2.63184e-09
2.92907e-10
2.5753e-09
3.27867e-10
2.51169e-09
3.82446e-10
2.45068e-09
3.37364e-10
2.40716e-09
1.6952e-10
2.38802e-09
7.02864e-12
2.39662e-09
-1.35903e-10
2.43229e-09
-2.72675e-10
2.49053e-09
-4.0316e-10
2.56674e-09
-5.41651e-10
2.65203e-09
-5.9645e-10
2.74347e-09
-6.00814e-10
2.83367e-09
-5.79792e-10
2.91855e-09
-5.3815e-10
2.99752e-09
-4.9861e-10
3.07076e-09
-4.63953e-10
3.13811e-09
-4.13657e-10
3.1995e-09
-3.77897e-10
3.254e-09
-3.33095e-10
3.30347e-09
-2.84727e-10
3.34658e-09
-2.40294e-10
3.38405e-09
-1.78646e-10
3.41507e-09
-1.28206e-10
3.44023e-09
-5.59677e-11
3.45852e-09
8.91165e-12
3.47002e-09
8.31952e-11
3.47369e-09
1.66921e-10
3.46891e-09
2.30422e-10
3.45437e-09
3.29465e-10
3.42954e-09
3.84878e-10
3.39311e-09
4.53751e-10
3.34474e-09
5.05502e-10
3.28375e-09
5.41098e-10
3.21098e-09
5.76025e-10
3.12728e-09
5.81624e-10
3.03387e-09
5.93427e-10
2.93277e-09
5.79967e-10
2.82585e-09
5.69221e-10
2.71494e-09
5.47797e-10
2.6026e-09
5.20284e-10
2.48928e-09
4.9899e-10
2.37762e-09
4.66781e-10
2.268e-09
4.4001e-10
2.16118e-09
4.14162e-10
2.05829e-09
3.85939e-10
1.95924e-09
3.61544e-10
1.86428e-09
3.3913e-10
1.7736e-09
3.16841e-10
1.68741e-09
2.95952e-10
1.60542e-09
2.77413e-10
1.5278e-09
2.59296e-10
1.45448e-09
2.42512e-10
1.3854e-09
2.26694e-10
1.32075e-09
2.10807e-10
1.26031e-09
1.96488e-10
1.20391e-09
1.82868e-10
1.1523e-09
1.67039e-10
1.10482e-09
1.5334e-10
1.06171e-09
1.39033e-10
1.02358e-09
1.22046e-10
9.90307e-10
1.05834e-10
9.61785e-10
8.92158e-11
9.39573e-10
6.80262e-11
9.22422e-10
5.03252e-11
9.12756e-10
2.55469e-11
9.09027e-10
5.4299e-12
9.1357e-10
-2.17953e-11
9.24682e-10
-4.40336e-11
9.45122e-10
-7.46789e-11
9.72646e-10
-9.90991e-11
1.00928e-09
-1.30187e-10
1.05368e-09
-1.58266e-10
1.10595e-09
-1.87154e-10
1.16631e-09
-2.1887e-10
1.23305e-09
-2.45213e-10
1.30659e-09
-2.75676e-10
1.38519e-09
-3.0045e-10
1.46811e-09
-3.24905e-10
1.55444e-09
-3.4653e-10
1.64274e-09
-3.64664e-10
1.73221e-09
-3.79584e-10
1.82171e-09
-3.91887e-10
1.91001e-09
-3.97242e-10
1.99695e-09
-4.04719e-10
2.08107e-09
-4.0272e-10
2.16207e-09
-3.9966e-10
2.23969e-09
-3.94746e-10
2.31336e-09
-3.84121e-10
2.38309e-09
-3.72847e-10
2.44905e-09
-3.61033e-10
2.51106e-09
-3.45347e-10
2.56952e-09
-3.2988e-10
2.62471e-09
-3.15537e-10
2.67689e-09
-2.9993e-10
2.7265e-09
-2.8569e-10
2.77385e-09
-2.72451e-10
2.81936e-09
-2.6029e-10
2.86339e-09
-2.50847e-10
2.90611e-09
-2.4373e-10
2.94788e-09
-2.34544e-10
2.98833e-09
-2.29314e-10
3.02883e-09
-2.30233e-10
3.06777e-09
-2.20969e-10
3.10612e-09
-2.20805e-10
3.14277e-09
-2.19925e-10
3.17833e-09
-2.06498e-10
3.2114e-09
-2.03372e-10
3.24242e-09
-1.87391e-10
3.26986e-09
-1.68168e-10
3.29407e-09
-1.43406e-10
3.3134e-09
-1.05436e-10
3.32825e-09
-6.22143e-11
3.33689e-09
-8.87358e-12
3.33944e-09
6.05699e-11
3.33389e-09
1.21129e-10
3.32057e-09
2.15146e-10
3.29674e-09
2.86776e-10
3.26244e-09
3.67441e-10
3.21477e-09
4.51605e-10
3.15443e-09
5.08733e-10
3.07789e-09
5.8937e-10
2.98723e-09
6.23809e-10
2.87958e-09
6.79455e-10
2.75815e-09
6.94065e-10
2.62104e-09
7.23915e-10
2.47258e-09
7.19872e-10
2.3181e-09
7.07514e-10
2.17668e-09
6.32152e-10
2.04593e-09
5.60074e-10
1.96425e-09
2.86581e-10
1.91865e-09
1.33116e-10
1.90807e-09
-1.69989e-12
1.93041e-09
-1.2638e-10
1.98749e-09
-2.6944e-10
2.06847e-09
-3.84182e-10
2.16724e-09
-4.94432e-10
2.26499e-09
-5.03565e-10
2.35563e-09
-4.71275e-10
2.4393e-09
-4.38198e-10
2.51605e-09
-4.04304e-10
2.58607e-09
-3.70266e-10
2.64966e-09
-3.36621e-10
2.70713e-09
-3.03885e-10
2.75883e-09
-2.72464e-10
2.80511e-09
-2.42623e-10
2.84632e-09
-2.14542e-10
2.88283e-09
-1.88352e-10
2.91498e-09
-1.64116e-10
2.94312e-09
-1.41822e-10
2.96753e-09
-1.2142e-10
2.98852e-09
-1.02846e-10
3.00637e-09
-8.60426e-11
3.02137e-09
-7.09292e-11
3.03378e-09
-5.73943e-11
3.04383e-09
-4.53171e-11
3.05177e-09
-3.45857e-11
3.0578e-09
-2.5092e-11
3.06212e-09
-1.67328e-11
3.06491e-09
-9.42195e-12
3.06637e-09
-3.09238e-12
3.06668e-09
2.31222e-12
3.066e-09
6.83869e-12
3.06454e-09
1.05291e-11
3.06247e-09
1.34244e-11
3.05997e-09
1.55685e-11
3.05724e-09
1.70048e-11
3.05447e-09
1.7798e-11
3.05188e-09
1.7917e-11
1.81332e-11