/*--------------------------------*- C++ -*----------------------------------*\
| =========                 |                                                 |
| \\      /  F ield         | OpenFOAM: The Open Source CFD Toolbox           |
|  \\    /   O peration     | Version:  2506                                  |
|   \\  /    A nd           | Website:  www.openfoam.com                      |
|    \\/     M anipulation  |                                                 |
\*---------------------------------------------------------------------------*/
FoamFile
{
    version     2.0;
    format      ascii;
    arch        "LSB;label=32;scalar=64";
    class       volScalarField;
    location    "1.12704";
    object      s;
}
// * * * * * * * * * * * * * * * * * * * * * * * * * * * * * * * * * * * * * //

dimensions      [0 0 0 0 0 0 0];

internalField   nonuniform List<scalar> 
4000
(
-2.46941e-17
-7.11565e-18
2.27441e-13
1.16442e-10
3.33957e-08
2.39717e-06
7.87029e-05
0.00109363
0.00841068
0.0498576
0.180762
0.324185
0.340644
0.308582
0.213314
0.0903126
0.016565
0.00513744
0.00383206
0.00262143
0.00165972
0.000998757
0.000581952
0.000331908
0.000185185
9.99886e-05
5.18957e-05
2.63588e-05
1.36859e-05
7.32268e-06
3.9488e-06
2.09275e-06
1.06904e-06
5.18047e-07
2.25155e-07
4.84591e-08
-1.3939e-07
-4.81218e-07
-1.18128e-06
-2.68e-06
-7.23951e-06
-1.2855e-05
-1.72906e-05
-2.0648e-05
-2.19305e-05
-2.21667e-05
-2.20902e-05
-2.0622e-05
-1.90666e-05
-1.69314e-05
-1.41296e-05
-1.14841e-05
-8.2536e-06
-5.70629e-06
-3.75673e-06
-2.24372e-06
-1.13933e-06
-4.84719e-07
-2.69847e-07
-1.39582e-07
-6.55489e-08
-2.84208e-08
-1.15576e-08
-4.51858e-09
-1.76137e-09
-7.07581e-10
-2.99198e-10
-1.30384e-10
-5.6803e-11
-2.38626e-11
-9.43305e-12
-3.46658e-12
-1.1647e-12
-3.57396e-13
-1.00136e-13
-2.60888e-14
-6.51757e-15
-1.51058e-15
-3.04144e-16
-4.71405e-17
-3.84055e-18
4.28959e-19
2.16711e-19
-1.65056e-19
-1.58634e-18
-6.98287e-19
-1.48931e-19
-1.33406e-20
6.49292e-22
2.2511e-20
1.99857e-20
1.85467e-21
-1.02727e-21
-3.83439e-21
-1.67325e-21
-4.18253e-21
-3.21595e-21
-1.06095e-20
-1.3914e-20
-3.3797e-20
-4.91598e-20
-6.66601e-20
-6.53168e-20
-3.63705e-20
3.43011e-20
8.30108e-20
1.53373e-19
2.17578e-19
3.78967e-19
4.76929e-19
4.96142e-19
5.32412e-19
5.36417e-19
4.55782e-19
4.14656e-19
2.67901e-19
1.15978e-19
2.64017e-20
-4.92632e-20
-9.97252e-20
-1.26061e-19
-1.27155e-19
-1.13541e-19
-9.21023e-20
-5.81859e-20
-3.19644e-20
-1.65706e-20
-8.03473e-21
-3.87043e-21
-1.96692e-21
-8.00455e-22
-2.95851e-22
-7.04564e-23
5.55862e-23
1.10837e-22
1.4464e-22
1.11682e-22
9.08463e-23
5.07134e-23
2.15374e-23
3.14544e-24
-4.2251e-24
-4.76859e-24
-2.69684e-24
-9.10843e-25
-1.57128e-25
-5.63941e-26
-3.18695e-26
-9.27393e-27
5.87519e-27
8.26693e-27
6.08299e-27
2.71655e-27
9.13627e-28
1.78511e-28
-1.48358e-29
-2.98346e-29
-1.69033e-29
-6.12933e-30
-1.88623e-30
6.93742e-30
1.09211e-29
9.9903e-30
6.75285e-30
4.7854e-30
2.67688e-30
3.68259e-31
-6.99488e-31
-4.73388e-31
-1.85603e-31
-5.78687e-32
-1.62278e-32
-6.39454e-33
-6.80025e-33
-9.25723e-33
-1.05233e-32
-9.79665e-33
-7.63046e-33
-5.03655e-33
-2.83668e-33
-1.36858e-33
-5.54577e-34
-1.81804e-34
-4.49833e-35
-6.74747e-36
1.61385e-37
3.52275e-37
5.51684e-38
-6.74584e-39
-4.30247e-39
-8.52925e-40
-7.90444e-41
6.62204e-41
2.13351e-41
-3.53262e-41
-4.76623e-41
-4.10566e-41
-2.9719e-41
-1.81534e-41
-4.90082e-42
9.31652e-19
-9.30984e-17
3.91947e-14
1.24023e-11
2.27289e-09
1.08958e-07
3.32823e-06
4.85313e-05
0.000398002
0.00213892
0.00688572
0.0152231
0.0259266
0.0379211
0.0500465
0.064728
0.0802849
0.103494
0.145123
0.211181
0.293581
0.363096
0.373146
0.359529
0.321546
0.243626
0.145166
0.065311
0.0323627
0.019985
0.0126486
0.00775242
0.00451313
0.00243335
0.00123525
0.000609112
0.000292698
0.000136107
6.02288e-05
2.32806e-05
1.09912e-05
7.99141e-06
8.41638e-07
-6.94392e-06
-1.23055e-05
-1.14122e-05
-1.38917e-06
1.249e-05
3.07463e-05
4.852e-05
6.00944e-05
6.57681e-05
5.95484e-05
4.74799e-05
3.01586e-05
1.49195e-05
3.17777e-06
-4.77652e-06
-9.29088e-06
-1.10351e-05
-1.09446e-05
-9.70999e-06
-7.90559e-06
-5.96772e-06
-4.19061e-06
-2.73586e-06
-1.66011e-06
-9.31615e-07
-4.83067e-07
-2.30668e-07
-1.01148e-07
-4.07403e-08
-1.49512e-08
-4.98476e-09
-1.50192e-09
-4.02071e-10
-1.08096e-10
-2.86505e-11
-7.00905e-12
-1.48681e-12
-2.54639e-13
-2.70746e-14
2.95884e-15
2.97708e-15
1.17789e-15
3.57067e-16
8.9553e-17
1.84922e-17
3.48362e-18
1.11697e-18
3.25793e-19
-2.08975e-19
-2.8311e-19
-2.57867e-19
-2.35797e-19
-2.16863e-19
-2.77121e-19
-2.09967e-19
3.19376e-21
1.6128e-18
4.25313e-18
9.70261e-18
1.69675e-17
1.85936e-17
1.90397e-17
1.80518e-17
1.49273e-17
1.24617e-17
1.53776e-17
1.72004e-17
1.64265e-17
1.85322e-17
1.87211e-17
2.02602e-17
2.39439e-17
2.79336e-17
2.40696e-17
2.37456e-17
1.70544e-17
1.14477e-17
7.58059e-18
4.88585e-18
3.06852e-18
1.88791e-18
1.00492e-18
3.77529e-19
3.14959e-20
-1.06062e-19
-1.37478e-19
-1.32366e-19
-1.10606e-19
-8.97988e-20
-7.63971e-20
-6.04802e-20
-4.79296e-20
-3.94907e-20
-2.87373e-20
-2.13281e-20
-1.44308e-20
-8.99094e-21
-4.90671e-21
-2.15791e-21
-6.28445e-22
3.00056e-24
1.32263e-22
9.42508e-23
4.15725e-23
1.15446e-23
-1.49648e-25
-2.75474e-24
-2.16568e-24
-1.14667e-24
-4.48333e-25
-1.17467e-25
-5.57128e-27
1.6257e-26
1.17632e-26
5.43371e-27
1.85536e-27
4.83215e-28
2.36017e-28
2.17033e-29
-1.6558e-28
-2.13381e-28
-2.3854e-28
-2.33145e-28
-2.31847e-28
-1.54137e-28
-7.34776e-29
-2.92075e-29
-1.08472e-29
-4.3095e-30
-2.1485e-30
-1.4192e-30
-1.09915e-30
-8.65395e-31
-6.42536e-31
-4.37271e-31
-2.70527e-31
-1.52094e-31
-7.78283e-32
-3.61061e-32
-1.49611e-32
-5.34419e-33
-1.50455e-33
-2.3372e-34
5.85722e-35
6.22456e-35
2.81876e-35
8.7777e-36
1.87242e-36
1.56295e-37
-8.03272e-38
-3.18922e-38
1.76817e-38
2.46275e-38
1.54935e-38
7.16327e-39
2.77412e-39
6.32965e-40
2.95832e-17
-2.24698e-16
8.09449e-15
1.77088e-12
1.97342e-10
5.87934e-09
7.43827e-08
4.78683e-07
1.72247e-06
3.9671e-06
7.96269e-06
2.08388e-05
7.943e-05
0.000307693
0.00105893
0.00293736
0.00611159
0.0112529
0.0198312
0.0335153
0.0528895
0.0766261
0.106197
0.145698
0.193841
0.250041
0.313
0.376946
0.409573
0.404537
0.383751
0.345379
0.267851
0.155797
0.0651924
0.030821
0.0194703
0.0152698
0.0125909
0.0113617
0.0155243
0.0249128
0.0370528
0.0507968
0.06428
0.0768188
0.0885186
0.0967968
0.102779
0.105365
0.103837
0.099301
0.0903473
0.0791807
0.0652072
0.0507753
0.0377967
0.0269498
0.018637
0.0123271
0.00792469
0.00492101
0.0029492
0.0017052
0.000947216
0.000509883
0.000264461
0.00013277
6.39878e-05
2.94153e-05
1.27439e-05
5.08801e-06
1.80319e-06
5.13796e-07
7.49727e-08
-3.71814e-08
-4.38301e-08
-2.70126e-08
-1.14884e-08
-3.01568e-09
-1.19224e-10
-2.95372e-11
-1.1593e-11
-4.40768e-12
-1.53058e-12
-4.81583e-13
-1.37442e-13
-3.56386e-14
-8.38541e-15
-1.77078e-15
-3.19787e-16
-3.79789e-17
7.724e-18
1.11335e-17
8.38763e-18
5.7384e-18
5.33798e-18
7.17218e-18
1.07768e-17
1.00259e-17
1.33033e-17
2.01827e-17
1.99141e-17
1.97806e-17
1.25214e-17
-4.64488e-19
-1.7326e-17
-5.79707e-17
-1.29333e-16
-1.91596e-16
-1.94107e-16
-1.74214e-16
-1.3909e-16
-1.19625e-16
-9.93624e-17
-7.84265e-17
-3.77636e-17
-1.26578e-17
8.71208e-18
1.98333e-17
2.84182e-17
3.5127e-17
3.97051e-17
4.28944e-17
4.15148e-17
2.77064e-17
1.62351e-17
8.71626e-18
4.32172e-18
1.96178e-18
7.34639e-19
1.35259e-19
-1.26812e-19
-2.22441e-19
-2.42396e-19
-2.31527e-19
-1.98154e-19
-1.58841e-19
-1.1323e-19
-7.24042e-20
-4.06688e-20
-1.93356e-20
-7.03494e-21
-1.12292e-21
9.52409e-22
1.18924e-21
8.93493e-22
5.4805e-22
2.9447e-22
1.39477e-22
5.61189e-23
1.67424e-23
1.4702e-24
-2.67315e-24
-2.57714e-24
-1.55498e-24
-7.18839e-25
-2.629e-25
-7.25474e-26
-1.21106e-26
-1.04123e-28
-5.93809e-27
-6.86451e-27
-5.18126e-27
-3.77698e-27
-2.60381e-27
-1.66862e-27
-8.23331e-28
-3.16043e-28
-9.84947e-29
-2.49549e-29
-5.53943e-30
-2.04019e-30
-1.69958e-30
-1.2219e-30
-3.1243e-31
6.03611e-31
1.16736e-30
1.29045e-30
1.09436e-30
7.67602e-31
4.56893e-31
2.3135e-31
9.77357e-32
3.23312e-32
6.54348e-33
-8.42476e-34
-1.67461e-33
-1.03361e-33
-4.57344e-34
-1.60087e-34
-4.35742e-35
-7.63141e-36
4.00804e-37
1.11176e-36
6.93662e-37
3.70093e-37
1.97652e-37
1.07141e-37
4.40229e-38
7.81734e-17
-3.64572e-16
1.32744e-15
2.70083e-13
1.9581e-11
5.57039e-10
6.65879e-09
4.21814e-08
9.55007e-08
2.57609e-07
5.58069e-07
1.4153e-06
2.72393e-06
4.32233e-06
7.14659e-06
1.53528e-05
3.79397e-05
9.33502e-05
0.000224438
0.000533711
0.00125194
0.00286304
0.00642362
0.0134375
0.0254979
0.0445806
0.0732571
0.117776
0.176416
0.243205
0.318486
0.406027
0.445781
0.433491
0.396406
0.356906
0.304636
0.251588
0.215514
0.205815
0.228378
0.26604
0.304671
0.339895
0.369344
0.393126
0.412414
0.425259
0.433381
0.43591
0.432158
0.422997
0.406697
0.384999
0.356317
0.321711
0.281748
0.237093
0.192124
0.146997
0.106388
0.0709935
0.0430413
0.0255701
0.0151219
0.00892918
0.00518988
0.00293307
0.00158455
0.000821373
0.000411731
0.000199281
9.2702e-05
4.08594e-05
1.68612e-05
6.44032e-06
2.22608e-06
6.67174e-07
1.55613e-07
1.21336e-08
-1.68837e-08
-1.38605e-08
-6.84909e-09
-2.91758e-09
-1.11912e-09
-3.93439e-10
-1.28066e-10
-3.88672e-11
-1.10462e-11
-2.95159e-12
-7.44305e-13
-1.7777e-13
-4.03387e-14
-8.69455e-15
-1.73303e-15
-2.75864e-16
2.59348e-18
-1.74271e-17
-1.18723e-16
-4.10562e-16
-9.67295e-16
-1.90656e-15
-3.15911e-15
-4.47705e-15
-6.0531e-15
-7.52604e-15
-9.13975e-15
-1.07863e-14
-1.22359e-14
-1.38061e-14
-1.5038e-14
-1.54948e-14
-1.53518e-14
-1.36274e-14
-1.11519e-14
-8.17678e-15
-5.28237e-15
-3.33806e-15
-2.09753e-15
-1.32935e-15
-8.1503e-16
-4.74652e-16
-2.58304e-16
-1.38432e-16
-7.17966e-17
-1.27073e-17
1.93872e-17
3.31723e-17
3.30504e-17
2.86045e-17
2.30531e-17
1.79359e-17
1.38314e-17
1.02914e-17
7.54213e-18
5.48067e-18
3.75159e-18
2.52723e-18
1.64874e-18
1.02757e-18
5.96588e-19
3.09385e-19
1.35742e-19
4.44058e-20
5.84499e-21
-5.77674e-21
-6.42475e-21
-4.22427e-21
-2.06217e-21
-6.90866e-22
-5.23212e-23
1.54117e-22
1.58999e-22
1.05879e-22
5.52902e-23
2.32508e-23
7.51488e-24
1.40913e-24
-2.35413e-25
-3.81503e-25
-1.80633e-25
-5.67722e-26
-1.33226e-26
3.75259e-27
1.25288e-26
1.57182e-26
1.64204e-26
1.2469e-26
7.38121e-27
3.75121e-27
1.74911e-27
7.89946e-28
3.67082e-28
1.89154e-28
1.14866e-28
8.1109e-29
6.14896e-29
4.63509e-29
3.32628e-29
2.23078e-29
1.38906e-29
8.00897e-30
4.26013e-30
2.07306e-30
9.06252e-31
3.41864e-31
1.0014e-31
1.40054e-32
-8.43528e-33
-9.73168e-33
-6.3473e-33
-3.31447e-33
-1.49322e-33
-5.92007e-34
-2.05704e-34
-6.27409e-35
-1.69232e-35
-4.09213e-36
-9.36977e-37
1.46015e-37
3.85143e-17
-8.6714e-17
1.12918e-16
3.82949e-14
2.24924e-12
1.01405e-10
7.77919e-10
3.38476e-09
6.70848e-09
3.04206e-08
8.35248e-08
1.24212e-07
1.47346e-07
1.81731e-07
3.02879e-07
6.76879e-07
1.66327e-06
3.99216e-06
9.2593e-06
2.11915e-05
4.86103e-05
0.000111174
0.000249737
0.000548943
0.0011817
0.00251289
0.00537772
0.0120329
0.0254994
0.0482227
0.0856049
0.152968
0.238458
0.326964
0.404385
0.464416
0.505364
0.521467
0.52514
0.529832
0.537436
0.547087
0.557416
0.567588
0.577105
0.58562
0.593033
0.599251
0.604202
0.607944
0.610114
0.610478
0.607834
0.601379
0.589348
0.57044
0.541537
0.500338
0.451395
0.39346
0.331599
0.267642
0.204961
0.148844
0.101893
0.0657197
0.0387986
0.0211958
0.0116007
0.00640003
0.00349308
0.00181307
0.000883663
0.000406098
0.0001767
7.1647e-05
2.60258e-05
7.92276e-06
1.61956e-06
-1.57072e-07
-4.61822e-07
-3.46919e-07
-1.97011e-07
-9.32347e-08
-3.908e-08
-1.49808e-08
-5.35102e-09
-1.79102e-09
-5.64817e-10
-1.69014e-10
-4.82131e-11
-1.31325e-11
-3.41663e-12
-8.50904e-13
-2.03079e-13
-4.67272e-14
-1.15382e-14
-5.76771e-15
-4.51477e-15
9.0486e-16
1.06749e-14
4.31784e-15
-1.30348e-14
-3.05018e-14
-4.25488e-14
-4.90582e-14
-4.30673e-14
-3.75187e-14
-3.32415e-14
-3.78557e-14
-5.6271e-14
-7.4506e-14
-9.2136e-14
-9.32486e-14
-9.23166e-14
-8.93987e-14
-8.30833e-14
-7.15243e-14
-5.79299e-14
-4.38395e-14
-3.05434e-14
-1.96982e-14
-1.18233e-14
-6.72494e-15
-3.77334e-15
-2.10741e-15
-1.16019e-15
-5.90669e-16
-2.1006e-16
-3.55746e-17
3.75066e-17
6.18522e-17
7.13751e-17
6.43147e-17
5.2906e-17
4.16581e-17
3.18114e-17
2.36434e-17
1.6347e-17
1.04408e-17
6.1109e-18
3.21784e-18
1.47871e-18
5.47302e-19
1.20519e-19
-3.52397e-20
-7.00277e-20
-6.05844e-20
-4.08333e-20
-2.35374e-20
-1.19021e-20
-5.17572e-21
-1.83379e-21
-4.07675e-22
6.75857e-23
1.52839e-22
1.16271e-22
6.52288e-23
3.0258e-23
1.19312e-23
4.35811e-24
1.48824e-24
7.09284e-25
4.77245e-25
3.78874e-25
2.91261e-25
2.14664e-25
1.33004e-25
7.00477e-26
3.27752e-26
1.41266e-26
5.79982e-27
2.36831e-27
1.02894e-27
5.142e-28
3.01164e-28
1.92574e-28
1.22829e-28
7.37694e-29
4.05916e-29
2.02502e-29
9.16836e-30
3.83251e-30
1.54984e-30
6.55372e-31
3.04492e-31
1.48285e-31
7.07613e-32
2.98241e-32
9.34613e-33
4.75107e-34
-2.3144e-33
-2.43597e-33
-1.73502e-33
-1.01684e-33
-5.23063e-34
-2.50068e-34
-1.16953e-34
-5.65084e-35
-2.06877e-35
2.47536e-18
2.69682e-17
-3.06743e-16
4.82958e-15
6.59858e-13
2.77184e-11
1.42439e-10
3.70623e-10
5.19116e-10
-5.31381e-10
-1.12756e-09
-2.04755e-09
-2.88072e-09
-5.00437e-09
-2.19335e-08
-2.95789e-08
-5.125e-09
9.73466e-08
3.78619e-07
1.08773e-06
2.84058e-06
7.10589e-06
1.72197e-05
4.06544e-05
9.43969e-05
0.000217355
0.000494847
0.00109824
0.00233881
0.00481816
0.0104014
0.0247257
0.0523241
0.103861
0.185085
0.271322
0.346942
0.41195
0.464702
0.498191
0.515701
0.526681
0.535139
0.542758
0.551011
0.560225
0.570167
0.581275
0.592778
0.603802
0.614281
0.623756
0.633146
0.640925
0.643375
0.641328
0.635563
0.623102
0.602045
0.567565
0.520627
0.463863
0.399722
0.332169
0.264681
0.202212
0.146537
0.100239
0.0645228
0.0388442
0.0212581
0.0108735
0.00560379
0.00286935
0.00139096
0.000614939
0.000246145
8.77559e-05
2.54097e-05
3.70713e-06
-2.1798e-06
-2.88536e-06
-2.09232e-06
-1.20574e-06
-5.46735e-07
-2.38555e-07
-9.56038e-08
-3.57881e-08
-1.29308e-08
-4.52941e-09
-1.53222e-09
-4.99707e-10
-1.56194e-10
-4.61772e-11
-1.25382e-11
-2.93694e-12
-5.50314e-13
4.94791e-13
1.52081e-12
3.11649e-12
3.7468e-12
2.83544e-12
2.18727e-12
2.21762e-12
2.85124e-12
3.72775e-12
4.92655e-12
5.67955e-12
5.98181e-12
5.62035e-12
4.48259e-12
3.11361e-12
1.7109e-12
8.83845e-13
2.58805e-13
-8.10733e-14
-2.09137e-13
-2.28433e-13
-1.99983e-13
-1.56621e-13
-1.13598e-13
-7.72459e-14
-4.92499e-14
-3.04964e-14
-1.87254e-14
-1.1209e-14
-6.39636e-15
-3.41874e-15
-1.68869e-15
-8.71359e-16
-5.38288e-16
-3.2641e-16
-2.12009e-16
-1.10605e-16
-5.31782e-17
-2.055e-17
4.55734e-18
2.65025e-17
2.60098e-17
1.89993e-17
1.20123e-17
6.92311e-18
3.72383e-18
1.87489e-18
8.75876e-19
3.63111e-19
1.0511e-19
-8.71776e-21
-4.70132e-20
-4.96209e-20
-3.83798e-20
-2.50385e-20
-1.42896e-20
-7.17845e-21
-3.13659e-21
-1.12875e-21
-2.80268e-22
5.9311e-24
6.22796e-23
4.9643e-23
2.74312e-23
1.23381e-23
5.10563e-24
2.3986e-24
1.45118e-24
9.62867e-25
6.22548e-25
3.40948e-25
1.60861e-25
6.5762e-26
2.27641e-26
5.91306e-27
2.88034e-28
-1.14648e-27
-1.26252e-27
-1.0725e-27
-8.6357e-28
-6.84443e-28
-5.29272e-28
-3.92467e-28
-2.75553e-28
-1.819e-28
-1.12466e-28
-6.49287e-29
-3.48514e-29
-1.726e-29
-7.77703e-30
-3.10811e-30
-1.02469e-30
-2.04076e-31
5.72097e-32
1.02146e-31
8.1049e-32
5.08133e-32
2.79129e-32
1.39481e-32
6.46676e-33
2.78711e-33
1.1137e-33
2.45714e-34
-1.27458e-17
6.56852e-17
-1.3118e-16
3.07511e-16
3.01883e-13
5.80789e-12
1.85591e-11
1.62738e-11
-4.24042e-11
-2.30266e-10
-4.21282e-10
-6.15026e-10
-7.83515e-10
-1.89111e-09
-4.04138e-09
-6.40177e-09
-8.06824e-09
-1.96859e-09
2.19137e-08
8.86891e-08
2.61713e-07
7.09205e-07
1.84415e-06
4.66942e-06
1.16278e-05
2.86469e-05
6.95757e-05
0.00016491
0.000377342
0.000841225
0.00188323
0.00415363
0.00835719
0.0188538
0.0434877
0.0798148
0.125483
0.173447
0.216645
0.251721
0.275269
0.292654
0.308812
0.326549
0.347623
0.372068
0.399105
0.428794
0.459894
0.491724
0.523401
0.553708
0.58181
0.606496
0.626971
0.642144
0.650258
0.650513
0.645672
0.633527
0.611366
0.57686
0.531883
0.477986
0.4168
0.352134
0.286756
0.224665
0.168608
0.120766
0.081866
0.0520281
0.0309053
0.0167157
0.0080646
0.00386103
0.0018254
0.000799422
0.000306066
9.80464e-05
2.16729e-05
-2.11204e-06
-7.02214e-06
-6.52509e-06
-4.60736e-06
-2.38845e-06
-1.00163e-06
-4.57276e-07
-2.05751e-07
-8.68505e-08
-3.59585e-08
-1.4872e-08
-6.05881e-09
-2.37499e-09
-8.61969e-10
-2.69187e-10
-5.43827e-11
1.89134e-11
4.51093e-11
6.55439e-11
9.13174e-11
1.35837e-10
1.76966e-10
2.04827e-10
2.23891e-10
2.32393e-10
2.34375e-10
2.24158e-10
2.03958e-10
1.75356e-10
1.41099e-10
1.05844e-10
7.14823e-11
4.09583e-11
1.86431e-11
8.0752e-12
3.52649e-12
1.53017e-12
6.42119e-13
2.48377e-13
7.68408e-14
4.46893e-15
-2.33297e-14
-3.02845e-14
-2.65016e-14
-1.81925e-14
-1.17914e-14
-8.25513e-15
-6.64749e-15
-6.66365e-15
-5.43608e-15
-4.11823e-15
-3.01081e-15
-2.14777e-15
-1.49841e-15
-1.02738e-15
-7.05578e-16
-4.91196e-16
-2.86875e-16
-1.54412e-16
-7.5408e-17
-3.10911e-17
-8.47305e-18
1.38674e-18
4.42949e-18
4.36933e-18
3.23058e-18
2.03742e-18
1.13099e-18
5.50203e-19
2.29902e-19
7.38229e-20
1.04555e-20
-9.11125e-21
-1.1061e-20
-7.93546e-21
-4.57402e-21
-2.26914e-21
-1.00684e-21
-4.02805e-22
-1.62534e-22
-6.97365e-23
-3.34724e-23
-1.73588e-23
-9.4015e-24
-5.15106e-24
-2.91443e-24
-1.64016e-24
-8.64619e-25
-4.33055e-25
-2.08959e-25
-9.83786e-26
-4.62359e-26
-2.25689e-26
-1.20814e-26
-7.36434e-27
-5.02508e-27
-3.62427e-27
-2.61911e-27
-1.8384e-27
-1.23672e-27
-7.94187e-28
-4.86805e-28
-2.85024e-28
-1.5936e-28
-8.48688e-29
-4.28347e-29
-2.03263e-29
-8.89456e-30
-3.44068e-30
-1.04544e-30
-1.17067e-31
1.64985e-31
1.96266e-31
1.51517e-31
9.85587e-32
5.79268e-32
3.16141e-32
1.64592e-32
6.1043e-33
-1.07962e-17
5.36253e-17
-1.0438e-16
1.30852e-16
1.15186e-13
8.97507e-13
-2.08104e-14
-7.53104e-12
-1.44431e-11
-1.11299e-11
-2.20461e-12
8.98444e-12
6.5731e-11
1.18581e-10
2.65906e-10
7.10476e-10
9.59016e-10
1.30759e-09
4.3528e-09
1.53427e-08
4.66728e-08
1.31788e-07
3.58816e-07
9.53488e-07
2.49359e-06
6.43206e-06
1.63628e-05
4.08587e-05
9.91315e-05
0.000233458
0.000539472
0.00122048
0.00257124
0.00548847
0.0113681
0.0212846
0.036658
0.0564436
0.0788647
0.102434
0.125101
0.148
0.172466
0.19911
0.228829
0.261665
0.297113
0.334982
0.374373
0.414585
0.45479
0.493928
0.531129
0.565209
0.595176
0.620074
0.639207
0.651283
0.654887
0.651648
0.641557
0.622466
0.594494
0.557835
0.512711
0.460641
0.403078
0.342849
0.282511
0.224901
0.172476
0.126725
0.0889069
0.0590045
0.0365939
0.0210507
0.0108868
0.00494939
0.00222473
0.000976238
0.000383315
0.000123999
2.70896e-05
-3.23517e-06
-1.00627e-05
-9.71816e-06
-7.59178e-06
-4.66785e-06
-2.17094e-06
-1.01886e-06
-5.47472e-07
-3.00577e-07
-1.62078e-07
-8.6637e-08
-4.62852e-08
-2.46923e-08
-1.29016e-08
-6.38759e-09
-2.82249e-09
-8.67757e-10
1.60852e-10
7.17443e-10
9.95539e-10
1.11688e-09
1.14507e-09
1.09635e-09
1.00624e-09
8.87818e-10
7.4888e-10
6.0729e-10
4.79357e-10
3.76994e-10
3.03346e-10
2.5258e-10
1.8093e-10
1.22384e-10
8.82744e-11
6.44429e-11
4.58976e-11
3.14662e-11
2.0671e-11
1.29518e-11
7.72478e-12
4.37253e-12
2.28967e-12
1.02771e-12
3.6061e-13
6.19812e-14
-4.73481e-14
-7.08437e-14
-6.0711e-14
-4.78444e-14
-3.55042e-14
-2.49314e-14
-1.6744e-14
-1.07912e-14
-6.5915e-15
-3.81405e-15
-2.0924e-15
-1.07185e-15
-4.99275e-16
-1.97449e-16
-5.20744e-17
8.26493e-18
2.62335e-17
2.59549e-17
1.96563e-17
1.29435e-17
7.69777e-18
4.17752e-18
2.0794e-18
9.32458e-19
3.66921e-19
1.14561e-19
1.75619e-20
-1.14086e-20
-1.46657e-20
-1.07103e-20
-6.40459e-21
-3.40245e-21
-1.74296e-21
-8.75911e-22
-4.36584e-22
-2.21283e-22
-1.15791e-22
-6.13086e-23
-3.26289e-23
-1.67487e-23
-8.0443e-24
-3.61985e-24
-1.52233e-24
-5.90336e-25
-2.04477e-25
-5.83274e-26
-9.99059e-27
2.1813e-27
3.02313e-27
1.49148e-27
2.13402e-28
-4.07078e-28
-5.66166e-28
-5.05976e-28
-3.80313e-28
-2.60154e-28
-1.67745e-28
-1.03712e-28
-6.18658e-29
-3.55201e-29
-1.95455e-29
-1.02381e-29
-5.03971e-30
-2.27746e-30
-8.97864e-31
-2.63853e-31
-7.51907e-33
7.24706e-32
7.94383e-32
6.24215e-32
4.3095e-32
2.22568e-32
-9.24227e-18
4.8228e-17
-9.88614e-17
2.24081e-16
2.68317e-14
1.71888e-14
-3.2734e-13
-6.78405e-13
-4.77596e-13
-3.21031e-13
5.2625e-13
5.06229e-12
1.8857e-11
4.57824e-11
1.14951e-10
2.69635e-10
7.13851e-10
1.88779e-09
4.84649e-09
1.28481e-08
3.48247e-08
9.44403e-08
2.54036e-07
6.72944e-07
1.75136e-06
4.4978e-06
1.13376e-05
2.79129e-05
6.65517e-05
0.000154452
0.000341791
0.000727059
0.00149215
0.00292549
0.00558688
0.0101065
0.0172165
0.0276161
0.0414135
0.0583484
0.0775684
0.0992049
0.123658
0.151243
0.182172
0.216307
0.253217
0.292623
0.333853
0.376281
0.419156
0.461511
0.50241
0.540659
0.575159
0.604869
0.628644
0.645782
0.655515
0.656992
0.651887
0.639435
0.619769
0.59311
0.559596
0.519756
0.474071
0.423784
0.370275
0.315427
0.261421
0.210032
0.163213
0.12216
0.0876297
0.0599334
0.0386704
0.0232474
0.0128658
0.00628078
0.00274781
0.00120514
0.000515745
0.000195634
5.91769e-05
8.56481e-06
-7.374e-06
-1.11013e-05
-1.08735e-05
-9.37285e-06
-6.56493e-06
-3.81892e-06
-2.05457e-06
-1.2984e-06
-8.73803e-07
-5.9668e-07
-4.01668e-07
-2.62258e-07
-1.66908e-07
-1.04869e-07
-6.51789e-08
-4.0084e-08
-2.42707e-08
-1.44276e-08
-8.4704e-09
-4.93255e-09
-2.88798e-09
-1.6833e-09
-1.61208e-09
-1.71141e-09
-1.46174e-09
-9.22159e-10
-3.27963e-10
1.39216e-10
4.96816e-10
6.75501e-10
6.43566e-10
5.13636e-10
3.65221e-10
2.37978e-10
1.44113e-10
8.1441e-11
4.28692e-11
2.08143e-11
9.07257e-12
3.29501e-12
7.22594e-13
-2.49293e-13
-5.07191e-13
-4.85521e-13
-3.79236e-13
-2.6764e-13
-1.77543e-13
-1.12277e-13
-6.83485e-14
-4.01728e-14
-2.27105e-14
-1.22958e-14
-6.30525e-15
-2.9956e-15
-1.26187e-15
-4.15392e-16
-4.45689e-17
8.74544e-17
1.1112e-16
9.38802e-17
6.69891e-17
4.31511e-17
2.5699e-17
1.42601e-17
7.40858e-18
3.57153e-18
1.58174e-18
6.20362e-19
1.97781e-19
3.36261e-20
-1.69528e-20
-2.41148e-20
-1.8591e-20
-1.16906e-20
-6.76e-21
-3.71092e-21
-1.96517e-21
-1.02447e-21
-5.34716e-22
-2.76935e-22
-1.41472e-22
-6.92823e-23
-3.17944e-23
-1.35482e-23
-5.24239e-24
-1.72979e-24
-3.82254e-25
5.66639e-26
1.49911e-25
1.32095e-25
9.17462e-26
5.68933e-26
3.29237e-26
1.81671e-26
9.67615e-27
5.00712e-27
2.52158e-27
1.23152e-27
5.77293e-28
2.54209e-28
1.00801e-28
3.2139e-29
4.18413e-30
-5.15163e-30
-6.69648e-30
-5.52435e-30
-3.81511e-30
-2.3598e-30
-1.33777e-30
-6.98195e-31
-3.32362e-31
-1.39958e-31
-4.78726e-32
-9.9108e-34
-8.3839e-18
3.49246e-17
-1.18189e-16
3.58738e-16
-1.10615e-16
-6.05449e-15
-7.88754e-15
-5.73075e-15
-1.61506e-15
1.04651e-13
5.59243e-13
2.08644e-12
6.94967e-12
2.23732e-11
6.94252e-11
2.09894e-10
6.29471e-10
1.85797e-09
5.30102e-09
1.47446e-08
4.03267e-08
1.08552e-07
2.87081e-07
7.4601e-07
1.90461e-06
4.7835e-06
1.17994e-05
2.84012e-05
6.63273e-05
0.000149761
0.000324526
0.000672013
0.00133655
0.00253286
0.00458983
0.00796243
0.0132469
0.0211415
0.0319775
0.0458863
0.0626208
0.0822326
0.104931
0.130945
0.160455
0.193412
0.229547
0.26868
0.310329
0.353952
0.398792
0.443797
0.487775
0.529303
0.566943
0.599342
0.625511
0.644557
0.655875
0.659143
0.655995
0.646324
0.629463
0.606587
0.578274
0.54504
0.507305
0.465657
0.420736
0.373435
0.324972
0.276532
0.22966
0.18565
0.14565
0.110592
0.0809294
0.0568073
0.0380205
0.0240126
0.014175
0.00772974
0.0037048
0.0016355
0.000739078
0.000335248
0.000143386
5.22207e-05
1.15591e-05
-5.29951e-06
-1.182e-05
-1.41109e-05
-1.41852e-05
-1.3061e-05
-1.10602e-05
-8.10718e-06
-5.48752e-06
-3.80801e-06
-2.91114e-06
-2.31853e-06
-1.82401e-06
-1.41206e-06
-1.07132e-06
-8.01769e-07
-5.9555e-07
-4.36627e-07
-3.14909e-07
-2.21034e-07
-1.46708e-07
-9.08238e-08
-5.15191e-08
-2.59065e-08
-1.06761e-08
-2.59449e-09
9.87117e-10
2.0798e-09
2.02586e-09
1.57621e-09
1.08381e-09
6.82688e-10
3.99866e-10
2.18609e-10
1.11122e-10
5.17772e-11
2.1299e-11
6.91681e-12
8.71255e-13
-1.20231e-12
-1.58765e-12
-1.36538e-12
-1.00409e-12
-6.76951e-13
-4.30491e-13
-2.61141e-13
-1.52043e-13
-8.50489e-14
-4.55032e-14
-2.3098e-14
-1.09393e-14
-4.66159e-15
-1.62628e-15
-2.93043e-16
2.01743e-16
3.17264e-16
2.85049e-16
2.12449e-16
1.42482e-16
8.88634e-17
5.225e-17
2.91075e-17
1.54064e-17
7.70409e-18
3.61443e-18
1.55709e-18
5.90882e-19
1.73904e-19
1.66677e-20
-2.85849e-20
-3.20789e-20
-2.39074e-20
-1.53883e-20
-9.12469e-21
-5.12067e-21
-2.76624e-21
-1.45927e-21
-7.4931e-22
-3.72778e-22
-1.76391e-22
-7.78744e-23
-3.14404e-23
-1.10341e-23
-2.82666e-24
4.28335e-26
7.73717e-25
7.59706e-25
5.57196e-25
3.59257e-25
2.14438e-25
1.21287e-25
6.583e-26
3.45473e-26
1.76122e-26
8.74355e-27
4.22708e-27
1.98313e-27
8.94445e-28
3.79609e-28
1.44353e-28
4.26016e-29
2.83454e-30
-9.61601e-30
-1.10919e-29
-8.93815e-30
-6.18821e-30
-3.89765e-30
-2.28236e-30
-1.25195e-30
-6.42157e-31
-3.09316e-31
-9.44987e-32
2.38571e-19
-4.17237e-18
1.69175e-17
-3.42653e-17
1.12689e-16
-1.44562e-16
-8.00168e-16
5.09701e-16
8.68427e-15
9.96846e-14
5.10372e-13
1.87193e-12
6.38926e-12
2.07451e-11
6.47197e-11
1.96724e-10
5.88665e-10
1.72404e-09
4.92845e-09
1.37876e-08
3.78781e-08
1.02233e-07
2.70603e-07
7.02459e-07
1.79039e-06
4.48199e-06
1.1002e-05
2.63533e-05
6.12576e-05
0.000137359
0.00029602
0.000611875
0.00120979
0.00229267
0.00415738
0.00719355
0.0118744
0.0187155
0.0280627
0.0401486
0.0549786
0.0727707
0.0938002
0.118284
0.146437
0.178399
0.214226
0.254002
0.297449
0.34397
0.392527
0.441621
0.489449
0.534153
0.573818
0.606955
0.632648
0.650484
0.659573
0.66098
0.657017
0.645954
0.628685
0.60609
0.579019
0.548142
0.51406
0.477282
0.438281
0.39755
0.355675
0.313288
0.271227
0.230331
0.191473
0.155516
0.123124
0.0947912
0.0707764
0.0511001
0.0355492
0.0237334
0.0150805
0.00908183
0.00518345
0.00273884
0.00128892
0.000614171
0.000300755
0.000145809
6.58663e-05
2.37296e-05
1.18317e-06
-1.06173e-05
-1.65492e-05
-1.91147e-05
-1.94207e-05
-1.84286e-05
-1.65193e-05
-1.40305e-05
-1.0924e-05
-8.25997e-06
-6.10974e-06
-4.42439e-06
-3.12669e-06
-2.13976e-06
-1.4094e-06
-8.86295e-07
-5.27153e-07
-2.92979e-07
-1.49046e-07
-6.67186e-08
-2.36515e-08
-3.7624e-09
3.39149e-09
4.85334e-09
4.21799e-09
3.07155e-09
2.01023e-09
1.21338e-09
6.82175e-10
3.57368e-10
1.72942e-10
7.5499e-11
2.78582e-11
6.79739e-12
-1.13691e-12
-3.17586e-12
-3.09094e-12
-2.38079e-12
-1.63492e-12
-1.04351e-12
-6.30235e-13
-3.63026e-13
-1.99867e-13
-1.04963e-13
-5.21461e-14
-2.41011e-14
-9.99519e-15
-3.36854e-15
-5.47782e-16
4.56806e-16
6.71402e-16
5.91348e-16
4.37173e-16
2.94105e-16
1.85442e-16
1.11321e-16
6.41061e-17
3.55387e-17
1.8969e-17
9.71434e-18
4.73594e-18
2.16383e-18
8.98689e-19
3.14695e-19
6.97855e-20
-1.6943e-20
-3.66812e-20
-3.25758e-20
-2.31344e-20
-1.46858e-20
-8.66636e-21
-4.83783e-21
-2.5838e-21
-1.31946e-21
-6.41308e-22
-2.92847e-22
-1.23076e-22
-4.57887e-23
-1.33955e-23
-1.36951e-24
2.13878e-24
2.49115e-24
1.92537e-24
1.26915e-24
7.62815e-25
4.29574e-25
2.29672e-25
1.17376e-25
5.75193e-26
2.70371e-26
1.21548e-26
5.18314e-27
2.0564e-27
7.22469e-28
1.90014e-28
8.92274e-32
-5.20632e-29
-5.43006e-29
-4.22181e-29
-2.89206e-29
-1.83416e-29
-1.09786e-29
-6.24788e-30
-3.38455e-30
-1.73892e-30
-8.38718e-31
-3.78186e-31
-9.78931e-32
-1.87092e-18
-1.02868e-18
4.06677e-17
-2.43174e-16
1.47962e-15
1.97498e-14
-5.62883e-14
-9.50846e-14
-9.35399e-14
-1.78344e-14
1.78407e-13
1.41439e-12
5.49844e-12
1.74834e-11
5.16598e-11
1.51229e-10
4.46338e-10
1.30786e-09
3.76211e-09
1.06214e-08
2.95328e-08
8.0861e-08
2.17393e-07
5.72952e-07
1.48067e-06
3.75325e-06
9.31166e-06
2.25168e-05
5.27396e-05
0.000119041
0.00025768
0.000534424
0.00105917
0.00201015
0.00365365
0.00633854
0.0104761
0.0165041
0.0247926
0.0356663
0.0493317
0.0660676
0.0860382
0.10954
0.137325
0.170188
0.208737
0.253088
0.302634
0.355899
0.41093
0.46524
0.516115
0.561429
0.599147
0.628227
0.648381
0.658718
0.659401
0.655347
0.646118
0.631304
0.611522
0.585985
0.557448
0.52664
0.494084
0.460112
0.425065
0.389279
0.353035
0.31673
0.28073
0.245474
0.211451
0.179162
0.149083
0.121646
0.0971785
0.0758978
0.0578603
0.0429971
0.0310991
0.0218656
0.0149416
0.00990405
0.00634316
0.00394098
0.00238012
0.00139869
0.000798641
0.000431611
0.000206862
9.19972e-05
3.43435e-05
5.1867e-06
-9.31229e-06
-1.60343e-05
-1.86088e-05
-1.90361e-05
-1.80116e-05
-1.54276e-05
-1.22569e-05
-9.13639e-06
-6.42536e-06
-4.27019e-06
-2.68151e-06
-1.58584e-06
-8.76994e-07
-4.47413e-07
-2.05141e-07
-7.93283e-08
-2.02193e-08
2.81021e-09
7.52667e-09
6.93366e-09
5.43879e-09
3.72559e-09
2.31905e-09
1.33101e-09
7.0891e-10
3.49164e-10
1.56321e-10
6.07145e-11
1.72082e-11
7.32036e-14
-4.28123e-12
-4.39e-12
-3.34648e-12
-2.38816e-12
-1.54761e-12
-9.33741e-13
-5.31977e-13
-2.87682e-13
-1.47272e-13
-7.07655e-14
-3.12507e-14
-1.21477e-14
-3.62035e-15
-2.3405e-16
8.36214e-16
9.73081e-16
7.9344e-16
5.60331e-16
3.64682e-16
2.24882e-16
1.33415e-16
7.68295e-17
4.31594e-17
2.37515e-17
1.27628e-17
6.68783e-18
3.37738e-18
1.6214e-18
7.1714e-19
2.73687e-19
7.17202e-20
-8.89542e-21
-3.23703e-20
-3.2159e-20
-2.44489e-20
-1.62894e-20
-9.94081e-21
-5.65714e-21
-3.02494e-21
-1.51986e-21
-7.12781e-22
-3.07676e-22
-1.18146e-22
-3.66206e-23
-5.40482e-24
4.22948e-24
5.61607e-24
4.46627e-24
2.96022e-24
1.7667e-24
9.77512e-25
5.07675e-25
2.48494e-25
1.14379e-25
4.90192e-26
1.90834e-26
6.32339e-27
1.38561e-27
-2.38329e-28
-5.87735e-28
-5.2067e-28
-3.6603e-28
-2.30353e-28
-1.35368e-28
-7.56815e-29
-4.0586e-29
-2.09176e-29
-1.03285e-29
-4.84315e-30
-2.1189e-30
-8.33834e-31
-2.686e-31
-4.56298e-32
4.32887e-32
-1.15738e-18
1.59531e-19
1.31122e-17
-2.34643e-16
4.67895e-15
1.00321e-13
4.0713e-13
-4.58967e-13
-4.3788e-12
-6.3547e-12
-3.94525e-12
2.47862e-13
9.98763e-12
3.4812e-11
8.1468e-11
1.89041e-10
4.38099e-10
1.09182e-09
2.77328e-09
7.291e-09
1.97988e-08
5.46762e-08
1.50868e-07
4.11168e-07
1.10069e-06
2.88888e-06
7.40877e-06
1.84769e-05
4.45045e-05
0.000102899
0.000226822
0.000475503
0.000948547
0.00180471
0.00327921
0.0056895
0.00942318
0.0149212
0.0226144
0.0329264
0.0461063
0.062297
0.0818689
0.106553
0.138594
0.179088
0.228012
0.283921
0.344562
0.406411
0.466158
0.520914
0.567814
0.604162
0.630904
0.647538
0.650941
0.647262
0.638214
0.623692
0.603351
0.577809
0.549544
0.520255
0.490616
0.460764
0.430888
0.400945
0.370965
0.34108
0.311286
0.281887
0.25297
0.224785
0.19759
0.171606
0.1471
0.124313
0.103457
0.084697
0.0681397
0.0538241
0.0417123
0.0316947
0.023605
0.0172284
0.0123192
0.00863408
0.00593108
0.00399558
0.00263899
0.00170569
0.00107317