/*--------------------------------*- C++ -*----------------------------------*\
| =========                 |                                                 |
| \\      /  F ield         | OpenFOAM: The Open Source CFD Toolbox           |
|  \\    /   O peration     | Version:  2506                                  |
|   \\  /    A nd           | Website:  www.openfoam.com                      |
|    \\/     M anipulation  |                                                 |
\*---------------------------------------------------------------------------*/
FoamFile
{
    version     2.0;
    format      ascii;
    arch        "LSB;label=32;scalar=64";
    class       volVectorField;
    location    "3.9";
    object      U;
}
// * * * * * * * * * * * * * * * * * * * * * * * * * * * * * * * * * * * * * //

dimensions      [0 1 -1 0 0 0 0];

internalField   nonuniform List<vector> 
4000
(
(0.000954699 -0.000389679 2.8846e-23)
(0.00136295 -0.000314259 0)
(0.00201586 -0.000164085 1.18891e-23)
(0.00252247 -9.52484e-05 9.81091e-24)
(0.00287526 -6.12167e-05 9.1668e-24)
(0.00313713 -3.95607e-05 0)
(0.00333651 -2.55962e-05 1.02359e-23)
(0.00349204 -1.68021e-05 1.14265e-23)
(0.00361367 -1.12484e-05 0)
(0.00371151 -7.69043e-06 0)
(0.00379205 -5.28575e-06 2.89187e-22)
(0.00385789 -3.43593e-06 -5.76398e-22)
(0.00391166 -1.87852e-06 2.83325e-22)
(0.00395511 -5.42171e-07 -3.72159e-22)
(0.00398944 6.4228e-07 3.70992e-22)
(0.00401555 1.72834e-06 2.65695e-23)
(0.0040342 2.7155e-06 4.86477e-22)
(0.00404612 3.57838e-06 -4.85135e-22)
(0.00405164 4.42373e-06 3.41176e-23)
(0.00405122 5.23322e-06 0)
(0.00404464 5.79755e-06 0)
(0.00403249 6.51417e-06 -4.30091e-23)
(0.00401552 7.21544e-06 -4.63355e-23)
(0.00399393 7.91336e-06 0)
(0.0039679 8.5537e-06 -5.37163e-23)
(0.00393789 9.1449e-06 -5.7838e-23)
(0.00390441 9.72849e-06 0)
(0.00386802 1.0373e-05 0)
(0.00382939 1.11494e-05 2.44786e-21)
(0.00378837 1.23169e-05 -2.52179e-21)
(0.00374423 1.62465e-05 0)
(0.003707 2.88438e-05 -6.14785e-21)
(0.00366412 4.2786e-05 9.58738e-21)
(0.0035972 4.63409e-05 -3.20135e-22)
(0.00349703 2.60796e-05 -4.40546e-21)
(0.00336834 -2.73456e-05 6.62726e-20)
(0.00323128 -0.000118308 -7.12419e-22)
(0.00309415 -0.000251054 -1.39082e-20)
(0.00292838 -0.000430274 0)
(0.00275569 -0.000623628 5.0879e-21)
(0.0026195 -0.000793635 -5.1344e-21)
(0.00251865 -0.000929494 4.01937e-20)
(0.00244865 -0.00102703 0)
(0.00240792 -0.00108417 3.3126e-20)
(0.00239417 -0.00110184 -1.35117e-20)
(0.00240351 -0.00108343 1.8413e-20)
(0.00243267 -0.00103232 0)
(0.00248008 -0.000953929 -1.65868e-20)
(0.00253959 -0.000855796 -1.66485e-20)
(0.0026056 -0.000745372 -1.17738e-20)
(0.0026725 -0.000629082 0)
(0.00273892 -0.000510448 0)
(0.0028073 -0.000396843 -1.17477e-21)
(0.00287486 -0.000289957 8.78573e-21)
(0.00295642 -0.00019273 1.4749e-21)
(0.00306479 -0.000108931 -4.09841e-21)
(0.00321565 -5.03289e-05 -1.44549e-21)
(0.00341105 -3.32853e-05 -2.63479e-23)
(0.00362245 -7.28952e-05 0)
(0.00381238 -0.000159498 6.71315e-22)
(0.00394031 -0.000263182 2.15684e-21)
(0.00398802 -0.000350251 -5.55601e-22)
(0.003984 -0.000405605 -8.53547e-21)
(0.00394238 -0.000424965 8.77674e-21)
(0.00387873 -0.000413982 0)
(0.00381371 -0.000382624 0)
(0.00374574 -0.000337836 0)
(0.00368418 -0.00028764 1.52143e-21)
(0.00363371 -0.000239124 2.2619e-20)
(0.00359241 -0.000195238 1.28094e-20)
(0.00356049 -0.000157539 0)
(0.00353747 -0.000126765 -1.17993e-20)
(0.00352276 -0.000102756 1.20361e-20)
(0.00351439 -8.45653e-05 1.21448e-21)
(0.00351073 -7.10988e-05 -1.34346e-20)
(0.0035106 -6.13455e-05 1.21286e-20)
(0.00351329 -5.44817e-05 1.3694e-20)
(0.00351819 -5.01256e-05 1.30039e-20)
(0.00352583 -4.76267e-05 0)
(0.00353467 -4.61544e-05 0)
(0.00354499 -4.5204e-05 -3.52503e-22)
(0.00355723 -4.51425e-05 -1.04681e-20)
(0.00357292 -4.48039e-05 0)
(0.00358994 -4.39391e-05 8.37195e-21)
(0.00361125 -4.07666e-05 -7.06686e-21)
(0.00363785 -3.48521e-05 0)
(0.0036747 -2.31042e-05 0)
(0.00372218 -2.48623e-06 -1.09076e-22)
(0.00378739 3.4462e-05 -2.02657e-22)
(0.0038714 9.29845e-05 5.73591e-24)
(0.00396459 0.000175258 8.76824e-23)
(0.00406376 0.000279514 -2.70397e-23)
(0.00415652 0.00039779 -2.31212e-22)
(0.00423671 0.000521192 0)
(0.00429941 0.000638505 6.75585e-21)
(0.00433528 0.000738701 7.66809e-21)
(0.00435109 0.000819903 8.5565e-21)
(0.00435372 0.000881397 6.07082e-22)
(0.00434671 0.000925021 9.91343e-21)
(0.00433909 0.000958043 1.10101e-20)
(0.00433942 0.000988539 -1.78178e-22)
(0.0043541 0.00102328 1.21183e-20)
(0.00438559 0.00106561 2.38904e-20)
(0.00443222 0.00111481 5.83904e-22)
(0.00448962 0.00116689 1.17153e-20)
(0.00455168 0.00121579 0)
(0.00461547 0.00125539 -1.20042e-20)
(0.00467927 0.00127951 -1.10613e-20)
(0.00473758 0.00128162 -7.6886e-22)
(0.00479165 0.00126157 0)
(0.00486334 0.00122355 -1.05112e-20)
(0.0049361 0.00115145 9.7908e-21)
(0.00502294 0.00104935 0)
(0.00510559 0.000896651 1.60082e-20)
(0.00515413 0.000690636 3.05296e-21)
(0.0051393 0.000427046 5.37092e-21)
(0.00499614 0.000130898 0)
(0.0047495 -0.000124149 3.1391e-22)
(0.00447724 -0.000297865 5.78617e-23)
(0.00421082 -0.000382434 6.20942e-23)
(0.00399993 -0.000399892 -1.18187e-22)
(0.00385494 -0.000381811 6.08169e-21)
(0.0037565 -0.000350767 -8.27895e-21)
(0.00368721 -0.000312216 -6.30181e-22)
(0.00363186 -0.00027194 -9.27787e-21)
(0.00359201 -0.000234113 2.18758e-20)
(0.00355852 -0.000197922 -1.18286e-20)
(0.00352964 -0.000164192 1.35191e-20)
(0.00350768 -0.000135057 -6.47191e-22)
(0.00349247 -0.000111242 1.30186e-20)
(0.00348256 -9.25027e-05 0)
(0.00347716 -7.83541e-05 -1.53226e-20)
(0.00347554 -6.82202e-05 2.54395e-21)
(0.00347696 -6.16074e-05 -1.75144e-20)
(0.00348122 -5.79017e-05 0)
(0.00348766 -5.63655e-05 0)
(0.00349588 -5.63783e-05 1.49262e-20)
(0.00350596 -5.73726e-05 -1.39713e-20)
(0.00351784 -5.96235e-05 0)
(0.00353309 -6.23641e-05 0)
(0.00354934 -6.40566e-05 -1.19392e-20)
(0.00356827 -6.53662e-05 2.55804e-21)
(0.003592 -6.40087e-05 -1.18066e-20)
(0.00361901 -5.93802e-05 0)
(0.00365455 -4.96166e-05 5.13881e-21)
(0.00369806 -3.22677e-05 2.62558e-21)
(0.00375655 -1.8034e-06 -1.4132e-21)
(0.00383588 4.7315e-05 7.60853e-22)
(0.00392937 0.00011864 0)
(0.00402987 0.000212888 2.58707e-22)
(0.0041313 0.000326542 2.9929e-22)
(0.00422536 0.000451077 -4.21794e-21)
(0.00429883 0.00057456 8.43948e-22)
(0.00435141 0.00068936 8.29354e-23)
(0.00438527 0.000788508 4.26129e-21)
(0.00439771 0.000867078 1.55755e-21)
(0.0043948 0.000927358 0)
(0.00438709 0.000977191 0)
(0.00438717 0.00102727 0)
(0.00440473 0.00108594 -1.67749e-20)
(0.00445618 0.00116069 2.17592e-21)
(0.0045637 0.00126699 8.37977e-21)
(0.00497166 0.00144844 6.48992e-21)
(0.00546574 0.00153233 0)
(0.00561549 0.00141776 -9.89371e-21)
(0.00568106 0.00124985 -1.59723e-20)
(0.00574464 0.00105071 -1.6267e-22)
(0.00572952 0.000811633 -2.15951e-21)
(0.00558177 0.000538945 -5.47883e-21)
(0.00526846 0.000274265 -1.74829e-21)
(0.00489877 0.00010612 0)
(0.00467191 4.01277e-05 -1.64122e-23)
(0.0045887 1.75485e-05 0)
(0.00456443 7.7197e-06 -1.09021e-23)
(0.00455944 3.97783e-06 -8.69735e-24)
(0.00456172 3.10034e-06 -3.98141e-22)
(0.00456466 3.14161e-06 3.9597e-22)
(0.00456384 3.49592e-06 9.60488e-23)
(0.00455716 4.00598e-06 -9.81071e-23)
(0.00454423 4.83295e-06 1.13988e-23)
(0.00452575 5.83496e-06 1.46349e-23)
(0.00450257 6.57735e-06 -2.49688e-23)
(0.00447548 7.06625e-06 0)
(0.00444539 7.39333e-06 3.83338e-24)
(0.0044129 7.64433e-06 -4.97259e-24)
(0.00437827 7.88334e-06 2.17594e-22)
(0.00434131 8.19065e-06 -2.04038e-22)
(0.00430145 8.67494e-06 2.88031e-22)
(0.00425751 9.44804e-06 -2.78147e-22)
(0.00420768 1.0752e-05 1.95816e-22)
(0.00414913 1.28011e-05 -1.7244e-22)
(0.00407789 1.58399e-05 1.37473e-23)
(0.00398802 2.03755e-05 1.53063e-23)
(0.00386941 2.75124e-05 0)
(0.00370944 3.80506e-05 1.90343e-23)
(0.00348183 5.568e-05 2.14011e-23)
(0.00313962 8.8849e-05 2.29564e-22)
(0.00259424 0.000160212 -2.34399e-22)
(0.00174394 0.000323578 0)
(0.00107807 0.000433765 3.83901e-23)
(1.84439e-05 -0.00089696 -1.048e-23)
(0.000203513 -0.00101703 1.17253e-23)
(0.000832986 -0.000824545 -1.32436e-23)
(0.00147873 -0.000648163 5.74034e-23)
(0.00204692 -0.000506055 -1.41208e-22)
(0.00253357 -0.00039467 -4.74963e-24)
(0.00294574 -0.000309971 7.86677e-23)
(0.00329228 -0.000246355 -3.885e-23)
(0.00358319 -0.000198311 -2.90759e-23)
(0.00382754 -0.000161623 -3.21954e-23)
(0.00403282 -0.000132599 -5.31834e-23)
(0.00420454 -0.000108587 -3.70265e-22)
(0.00434742 -8.81085e-05 3.5065e-22)
(0.00446483 -7.0197e-05 -3.99514e-22)
(0.0045593 -5.41532e-05 7.82231e-22)
(0.00463278 -3.94681e-05 -9.95052e-22)
(0.00468687 -2.59769e-05 4.12074e-22)
(0.0047233 -1.32872e-05 -6.25772e-22)
(0.004741 -1.25988e-06 -7.60335e-22)
(0.00474296 1.00255e-05 1.12785e-21)
(0.00473069 2.07265e-05 -8.38097e-23)
(0.00470364 3.13076e-05 -1.56076e-21)
(0.00466065 4.14771e-05 1.56205e-21)
(0.00460431 5.10346e-05 1.65173e-21)
(0.00453526 5.99084e-05 -1.69518e-21)
(0.00445428 6.80545e-05 -5.90331e-23)
(0.00436247 7.54139e-05 -2.1929e-21)
(0.00426111 8.19537e-05 -3.55578e-23)
(0.0041517 8.7574e-05 4.91894e-21)
(0.0040363 9.1604e-05 2.96673e-22)
(0.00391728 9.58799e-05 -2.76479e-21)
(0.00378467 0.000112921 -3.23352e-21)
(0.00360776 0.000129645 -1.01851e-20)
(0.00337634 0.000116106 -2.20035e-20)
(0.0031033 4.07578e-05 -1.61964e-20)
(0.00281255 -0.000116977 -1.84675e-20)
(0.00254689 -0.000367752 3.52874e-21)
(0.00230878 -0.000701649 1.52533e-20)
(0.00206246 -0.00109296 -5.06866e-21)
(0.00183945 -0.00147838 -1.47765e-20)
(0.00168733 -0.00180326 -2.0112e-20)
(0.00159452 -0.00205178 -2.16288e-20)
(0.00155161 -0.00221892 0)
(0.00155681 -0.00230301 -4.18106e-20)
(0.00160532 -0.00230799 2.02608e-20)
(0.00169009 -0.00224165 -2.00824e-20)
(0.00180445 -0.00211324 1.91581e-20)
(0.00194308 -0.00193524 0)
(0.00209594 -0.00172249 1.58024e-21)
(0.00225514 -0.00148977 1.50496e-20)
(0.00241464 -0.00125044 -1.36967e-20)
(0.00257354 -0.00101476 1.52463e-21)
(0.00273667 -0.000795393 1.03213e-20)
(0.00290713 -0.000597339 -2.01424e-21)
(0.00310555 -0.000427187 7.63667e-21)
(0.00335192 -0.000295306 0)
(0.00366945 -0.000212393 1.24994e-21)
(0.00406806 -0.000199618 -9.10555e-23)
(0.00452496 -0.000279483 1.26716e-22)
(0.00497868 -0.000458103 -6.34466e-22)
(0.00536959 -0.000707339 -2.56246e-21)
(0.00560207 -0.000978489 -6.81759e-21)
(0.00570766 -0.00121529 -8.72783e-21)
(0.00567657 -0.00137712 -9.94964e-21)
(0.00555296 -0.00144929 1.32037e-21)
(0.00537816 -0.00144148 -1.30244e-21)
(0.00516754 -0.00136905 0)
(0.00495224 -0.00125449 0)
(0.00475041 -0.0011217 -2.55175e-20)
(0.00457163 -0.000986256 1.26126e-20)
(0.00441746 -0.000858855 1.74061e-21)
(0.0042898 -0.000746667 -1.69872e-20)
(0.00418897 -0.000652538 -1.20037e-20)
(0.00411185 -0.0005759 -1.6978e-20)
(0.00405419 -0.000514728 1.09535e-21)
(0.00401235 -0.000466495 9.15634e-22)
(0.00398333 -0.000428556 1.57057e-20)
(0.00396538 -0.000399615 -1.45246e-20)
(0.00395801 -0.000377073 -8.62325e-22)
(0.00395773 -0.00035839 -1.30063e-20)
(0.00396396 -0.000341914 1.2273e-20)
(0.00397996 -0.000328376 0)
(0.00400693 -0.000313717 0)
(0.00404459 -0.000297448 0)
(0.00409677 -0.000274735 7.62798e-21)
(0.00417024 -0.000243729 -2.12355e-22)
(0.00427162 -0.000195551 2.37911e-22)
(0.0043983 -0.000120008 -2.49265e-22)
(0.0045507 -5.11828e-06 4.35628e-23)
(0.0047269 0.000159377 6.54592e-24)
(0.00490666 0.000374572 -1.35167e-22)
(0.00507714 0.000631875 -5.70879e-23)
(0.00522216 0.000912403 4.0623e-21)
(0.00533432 0.00119471 -5.67141e-21)
(0.00541228 0.00145569 6.83793e-21)
(0.00545483 0.00167823 -7.90212e-21)
(0.00547725 0.00185689 8.2312e-21)
(0.00549463 0.00199329 9.66532e-21)
(0.00551741 0.00209694 -1.0844e-20)
(0.00555843 0.00218363 -1.11758e-20)
(0.00562634 0.00226895 0)
(0.00572403 0.00236396 1.1499e-20)
(0.00584794 0.00247205 -1.25424e-20)
(0.00598991 0.00258864 3.83811e-22)
(0.00614028 0.00270323 -1.30898e-21)
(0.0062909 0.00280172 0)
(0.00644117 0.00286908 2.44468e-20)
(0.00659039 0.00289273 2.47519e-20)
(0.00673845 0.00286547 1.10348e-20)
(0.00689547 0.00278544 9.81963e-21)
(0.00708218 0.00265149 1.11712e-20)
(0.00728477 0.00244772 -2.00011e-20)
(0.00750818 0.00218139 5.772e-22)
(0.00772909 0.0018334 -8.59343e-21)
(0.00790855 0.00140489 7.71126e-22)
(0.00800688 0.000897468 -2.67097e-21)
(0.00795206 0.000336399 -2.48305e-22)
(0.00771731 -0.000210189 -3.14999e-22)
(0.00735346 -0.000682665 4.23662e-23)
(0.00688059 -0.00103776 -4.21833e-23)
(0.00639699 -0.00125659 0)
(0.00596037 -0.0013565 -6.48763e-21)
(0.00559934 -0.00137339 -2.57767e-22)
(0.00529699 -0.00132873 8.62418e-22)
(0.00504287 -0.00124805 1.05778e-20)
(0.00483722 -0.00115007 -1.24061e-20)
(0.00466138 -0.0010416 -1.18959e-20)
(0.00450718 -0.000930664 -2.72167e-20)
(0.00437635 -0.000826359 -2.88e-20)
(0.00426929 -0.000733648 -1.38747e-20)
(0.00418344 -0.000654355 -1.9061e-21)
(0.00411635 -0.000588589 -1.52416e-20)
(0.00406569 -0.000535354 3.23038e-20)
(0.00402927 -0.000493468 -4.05428e-21)
(0.00400537 -0.00046109 -1.15148e-20)
(0.00399146 -0.000435802 0)
(0.00398554 -0.000415582 0)
(0.00398656 -0.000398386 9.65291e-22)
(0.00399584 -0.00038466 3.44844e-21)
(0.0040153 -0.000371831 9.44989e-21)
(0.00404026 -0.000356162 2.9217e-21)
(0.00407671 -0.000339155 -2.71461e-22)
(0.00412731 -0.000314996 -4.26847e-21)
(0.00419393 -0.000282101 4.09962e-21)
(0.00428644 -0.000234669 -5.33467e-21)
(0.00440459 -0.00016366 0)
(0.00455036 -5.60365e-05 -7.52304e-22)
(0.00472441 9.98199e-05 7.49096e-22)
(0.00491185 0.000309226 -4.3443e-22)
(0.0050947 0.000566898 0)
(0.00525998 0.000857512 0)
(0.0053959 0.00115894 0)
(0.00549316 0.00144709 0)
(0.00555783 0.00170425 1.11205e-20)
(0.00560105 0.00191937 2.79247e-21)
(0.00563071 0.00209141 1.55343e-21)
(0.00566435 0.00223083 -1.87814e-21)
(0.00572398 0.00235638 -1.11762e-20)
(0.00583555 0.00248887 3.79957e-21)
(0.00601942 0.0026402 8.64993e-21)
(0.00629944 0.00280907 -2.54766e-23)
(0.00673858 0.00297042 -6.75396e-21)
(0.00747191 0.00309009 2.18821e-21)
(0.00818763 0.00301337 1.59115e-23)
(0.00851708 0.00275098 -1.07689e-20)
(0.00872607 0.00243044 9.10807e-21)
(0.00888696 0.00206578 0)
(0.0089167 0.00164816 0)
(0.00876382 0.00119702 2.05717e-21)
(0.00841175 0.000756213 1.39029e-21)
(0.00794246 0.000413614 -1.31298e-21)
(0.00756842 0.000207604 1.7247e-23)
(0.00735128 9.63512e-05 -8.1822e-22)
(0.0072312 4.01685e-05 8.04952e-22)
(0.00715852 1.59814e-05 2.63426e-23)
(0.00710917 9.58242e-06 3.94855e-22)
(0.00706937 1.12092e-05 -1.12029e-22)
(0.00702939 1.69742e-05 -1.95568e-22)
(0.00698336 2.48176e-05 -8.52998e-23)
(0.00692841 3.33557e-05 -3.3611e-24)
(0.00686366 4.13724e-05 5.16863e-24)
(0.00678985 4.80031e-05 2.11294e-24)
(0.00670832 5.31933e-05 -1.1434e-22)
(0.00662064 5.72643e-05 1.1881e-22)
(0.00652761 6.0776e-05 5.27404e-24)
(0.00642958 6.42943e-05 2.11249e-22)
(0.0063259 6.84765e-05 -2.54749e-22)
(0.00621524 7.41333e-05 3.12735e-22)
(0.00609504 8.21275e-05 -3.44161e-22)
(0.00596147 9.39733e-05 1.64778e-22)
(0.00580883 0.000111412 -2.13477e-22)
(0.0056288 0.000136908 1.50032e-23)
(0.0054085 0.000175035 -4.94114e-23)
(0.00512593 0.0002334 -3.11654e-22)
(0.00475713 0.000324456 3.33569e-22)
(0.00423191 0.000468728 -6.95693e-23)
(0.00349337 0.000697706 -2.61775e-23)
(0.00244649 0.00104372 8.99797e-23)
(0.00111801 0.0014355 0)
(0.000148906 0.00126381 -1.14216e-22)
(-7.20372e-05 -0.00084173 0)
(-0.000138615 -0.00125286 -6.42272e-23)
(0.000156737 -0.00125591 2.98409e-23)
(0.000587925 -0.00113194 2.47885e-23)
(0.00105638 -0.000977292 -4.8301e-23)
(0.00151343 -0.000826896 9.9352e-23)
(0.00193698 -0.000694772 -9.84535e-23)
(0.00231837 -0.00058363 2.67943e-23)
(0.00265632 -0.000491343 2.95549e-23)
(0.00295238 -0.000414521 9.92844e-23)
(0.00320948 -0.000349622 3.61969e-23)
(0.00343062 -0.000293682 1.2006e-22)
(0.00361886 -0.000244553 -3.69353e-22)
(0.00377673 -0.000200589 8.66364e-22)
(0.00390639 -0.000160557 -3.48644e-22)
(0.00400964 -0.00012357 5.34288e-22)
(0.00408797 -8.90038e-05 -2.89937e-22)
(0.00414276 -5.62131e-05 2.00277e-22)
(0.00417486 -2.50516e-05 1.27942e-21)
(0.00418543 4.51167e-06 -1.12417e-21)
(0.00417518 3.30331e-05 8.50323e-23)
(0.0041448 6.07727e-05 2.70603e-22)
(0.00409524 8.75027e-05 -1.61915e-21)
(0.00402757 0.000112776 1.72105e-21)
(0.00394283 0.000136459 1.86974e-21)
(0.0038424 0.000158324 -1.50574e-21)
(0.00372808 0.000177991 -2.16332e-21)
(0.00360207 0.000194984 2.01894e-21)
(0.003467 0.000208554 0)
(0.003328 0.000217141 0)
(0.00319116 0.000221148 0)
(0.00302223 0.000227795 0)
(0.00278251 0.000219755 1.31585e-20)
(0.00248411 0.000161092 1.79191e-20)
(0.00216675 1.77891e-05 -1.87212e-20)
(0.00186783 -0.000235653 3.23165e-21)
(0.00162007 -0.000600976 -2.24829e-20)
(0.00141623 -0.00105405 4.71382e-21)
(0.0012191 -0.00154359 1.88038e-20)
(0.00106216 -0.0020011 -3.50046e-21)
(0.000981024 -0.00238031 3.97227e-20)
(0.000958505 -0.00266594 0)
(0.000984525 -0.00285184 -1.85909e-20)
(0.00105843 -0.00293679 -1.80342e-20)
(0.00117428 -0.0029263 2.20183e-21)
(0.001324 -0.00283011 1.37038e-20)
(0.00149882 -0.00266067 -3.04584e-20)
(0.00169076 -0.00243382 -1.26616e-20)
(0.00188906 -0.00216762 -2.07282e-21)
(0.00208625 -0.0018804 1.63816e-22)
(0.00227762 -0.00158925 4.20611e-21)
(0.00246374 -0.00130839 -2.52382e-21)
(0.00265074 -0.00105289 -9.47217e-22)
(0.00284531 -0.000832233 2.11503e-22)
(0.00306729 -0.000656444 5.687e-21)
(0.00333691 -0.000536393 -1.62839e-21)
(0.0036757 -0.000482977 -8.95546e-22)
(0.0041031 -0.000510557 8.56273e-23)
(0.00462371 -0.000630591 -1.25902e-22)
(0.00521228 -0.000843525 0)
(0.00581804 -0.00114149 -7.06988e-22)
(0.0063501 -0.00150206 6.86103e-22)
(0.00676169 -0.00187123 2.13072e-23)
(0.00700346 -0.00219323 8.5008e-21)
(0.0070664 -0.00242319 -8.27655e-21)
(0.0070009 -0.00254834 8.92768e-21)
(0.00681716 -0.00256148 0)
(0.00656694 -0.00248198 0)
(0.00627908 -0.00233896 2.24773e-20)
(0.00598472 -0.00215843 -2.35294e-20)
(0.00570285 -0.00196333 0)
(0.00544798 -0.00177285 1.16398e-20)
(0.00522904 -0.00159862 1.08441e-21)
(0.00504825 -0.00144548 -1.10752e-20)
(0.00490316 -0.00131414 1.47474e-20)
(0.00478956 -0.00120313 1.20884e-20)
(0.0047029 -0.00110934 -2.74425e-20)
(0.00464022 -0.00103094 8.22447e-22)
(0.00459918 -0.000963651 7.77797e-22)
(0.00457448 -0.000903502 2.31481e-20)
(0.00456362 -0.000847726 -2.25581e-20)
(0.00457032 -0.000796341 -3.1793e-22)
(0.00459454 -0.000743311 3.00557e-23)
(0.00463678 -0.000687294 2.81399e-22)
(0.00469984 -0.000621595 -7.35072e-21)
(0.00479046 -0.000542422 0)
(0.00491396 -0.000438077 1.09075e-21)
(0.0050649 -0.000295561 1.15731e-23)
(0.00524066 -0.00010204 3.19568e-22)
(0.00543117 0.000151498 1.23627e-22)
(0.00561363 0.000463691 -4.09045e-23)
(0.00577395 0.000821292 -5.301e-21)
(0.00590033 0.00120012 -4.00888e-21)
(0.00599071 0.00157338 1.02387e-20)
(0.00605031 0.00191434 1.40721e-22)
(0.00608714 0.00220558 -7.55222e-21)
(0.00611995 0.00244116 -1.64682e-20)
(0.00616507 0.00262557 -9.28836e-21)
(0.00623335 0.00277318 0)
(0.00633321 0.00290312 9.97212e-21)
(0.00646648 0.00303263 0)
(0.00662851 0.00317221 -1.13437e-20)
(0.0068094 0.00332284 1.7499e-22)
(0.00699746 0.00347638 1.06892e-20)
(0.00718287 0.00361957 -1.17236e-20)
(0.00736065 0.00373257 0)
(0.00753536 0.00379323 -2.20511e-20)
(0.00770721 0.0037877 -1.12775e-20)
(0.0078835 0.00371336 -1.13179e-21)
(0.00807543 0.00356903 -1.03718e-20)
(0.0082976 0.00336328 0)
(0.00853839 0.00306379 8.88005e-21)
(0.00879302 0.00268694 0)
(0.00904247 0.00222363 -6.03917e-21)
(0.00926046 0.00168189 3.54617e-22)
(0.00942153 0.00106467 0)
(0.00948327 0.00039048 0)
(0.00941828 -0.000294366 3.06321e-22)
(0.00923142 -0.00094044 0)
(0.00890871 -0.00150774 7.43597e-23)
(0.00849789 -0.00195183 -1.93635e-22)
(0.00804614 -0.00225928 1.19187e-22)
(0.00761141 -0.00243853 0)
(0.00720139 -0.00250298 0)
(0.00682528 -0.00247896 8.62286e-21)
(0.00648974 -0.00239321 -1.04146e-20)
(0.00618453 -0.00226254 2.24606e-20)
(0.00590377 -0.00210435 1.25245e-20)
(0.00564993 -0.00193738 2.15789e-21)
(0.00542689 -0.00177469 1.18934e-20)
(0.00523576 -0.00162435 -1.76725e-21)
(0.00507641 -0.00149041 1.4943e-20)
(0.00494719 -0.0013739 2.43675e-21)
(0.00484563 -0.00127456 1.83435e-23)
(0.00476936 -0.00119045 2.94757e-21)
(0.00471464 -0.00111807 -3.66112e-21)
(0.00467763 -0.00105431 1.38163e-20)
(0.0046555 -0.000995873 2.76357e-20)
(0.00464942 -0.000942529 0)
(0.00466071 -0.000890173 -1.27248e-20)
(0.00468374 -0.0008338 -1.37647e-20)
(0.0047253 -0.000774161 2.68214e-21)
(0.00478758 -0.000703414 7.18388e-21)
(0.00487301 -0.000617843 3.84605e-21)
(0.00499016 -0.000508327 -3.41883e-21)
(0.00513616 -0.000361909 -8.06996e-22)
(0.00530966 -0.00016493 1.4711e-22)
(0.00550507 9.38506e-05 1.7198e-21)
(0.00570224 0.000416647 4.27089e-22)
(0.00588174 0.000792651 -7.07138e-22)
(0.00603252 0.00119892 7.97817e-22)
(0.00614865 0.00160668 -5.44109e-22)
(0.00623043 0.00198828 -3.68698e-21)
(0.00629109 0.00232382 -9.34367e-21)
(0.00634803 0.00260393 -5.62101e-21)
(0.00641748 0.00283338 0)
(0.00652156 0.0030276 -6.55431e-21)
(0.00668476 0.00320726 1.99351e-20)
(0.0069343 0.00338914 1.28404e-21)
(0.00728523 0.00357327 0)
(0.00774776 0.0037332 7.44433e-21)
(0.0083391 0.0038041 0)
(0.00906086 0.00374956 0)
(0.00966927 0.0035568 5.56703e-21)
(0.00998469 0.00323063 1.02468e-20)
(0.0101903 0.00286985 0)
(0.0103348 0.00246649 0)
(0.0103541 0.00201746 -2.95691e-21)
(0.0102392 0.00154274 2.92697e-21)
(0.00998836 0.00107793 -1.73021e-22)
(0.00963551 0.000685713 -2.49025e-22)
(0.00929373 0.000419842 -1.01744e-21)
(0.00903343 0.000253483 2.53732e-23)
(0.0088442 0.000154475 -3.80636e-23)
(0.00870185 0.000100876 -4.73696e-23)
(0.00858916 7.73648e-05 -3.4865e-22)
(0.00849256 7.29444e-05 8.13789e-23)
(0.00840054 8.00783e-05 2.56274e-22)
(0.00830576 9.34774e-05 -3.87511e-24)
(0.00820355 0.000109198 -4.06783e-24)
(0.00809189 0.000124564 6.30531e-24)
(0.00797047 0.000138173 -3.66807e-24)
(0.00783975 0.000149547 0)
(0.00770131 0.000159026 -8.40856e-24)
(0.00755508 0.000167585 -2.22813e-23)
(0.00740228 0.000176546 2.46221e-22)
(0.00724016 0.000187368 -2.17638e-22)
(0.00706768 0.000201667 3.13231e-22)
(0.0068812 0.000221349 -6.48308e-22)
(0.00667537 0.000249032 5.79055e-22)
(0.00644692 0.00028869 -2.00015e-22)
(0.00618444 0.000346673 -8.79984e-23)
(0.00587253 0.000433416 3.26906e-23)
(0.00548587 0.00056588 0)
(0.00498953 0.000772274 -1.21468e-22)
(0.00432215 0.00108834 4.59806e-23)
(0.00341958 0.00154578 0)
(0.00223675 0.00211306 -5.8874e-23)
(0.000896487 0.00248498 1.25282e-22)
(3.23586e-05 0.0016866 2.0141e-22)
(-6.38455e-05 -0.000668724 -5.47498e-23)
(-0.000242142 -0.00125766 0)
(-0.000205899 -0.00144604 0)
(-2.04604e-05 -0.00143785 -5.03992e-23)
(0.000254334 -0.00133057 5.01477e-23)
(0.000570087 -0.00119 1.05126e-22)
(0.000894447 -0.0010464 -1.04434e-22)
(0.00120888 -0.000912737 5.79669e-23)
(0.00150346 -0.000792859 0)
(0.00177303 -0.000686604 -6.80833e-23)
(0.00201533 -0.000592224 0)
(0.00222965 -0.000507644 -5.49799e-25)
(0.00241618 -0.000431004 0)
(0.00257553 -0.000360705 -9.81825e-23)
(0.00270847 -0.000295457 0)
(0.00281582 -0.00023426 0)
(0.00289838 -0.000176345 -1.26051e-22)
(0.00295695 -0.000121048 -6.98907e-22)
(0.00299224 -6.80298e-05 1.77405e-21)
(0.00300487 -1.7056e-05 -1.21019e-21)
(0.00299554 3.22246e-05 0)
(0.00296513 7.99326e-05 1.32547e-21)
(0.00291463 0.000125819 -1.50455e-21)
(0.00284515 0.000169425 -2.0564e-22)
(0.00275805 0.000210276 0)
(0.00265518 0.000247714 -2.00768e-21)
(0.00253899 0.000280833 1.99634e-21)
(0.00241259 0.000308427 0)
(0.00227973 0.000328697 2.48208e-21)
(0.00214764 0.00033883 -2.48068e-21)
(0.00202522 0.000336506 2.87767e-21)
(0.00187235 0.000319508 -5.80763e-21)
(0.00165215 0.000269136 -9.9772e-21)
(0.0013916 0.00015386 -3.79287e-21)
(0.00114161 -5.74096e-05 8.99345e-22)
(0.000935927 -0.00038343 -1.00722e-21)
(0.000789021 -0.000819449 -1.21214e-20)
(0.000687419 -0.00132984 9.28346e-23)
(0.000597559 -0.00185205 3.36617e-21)
(0.000547732 -0.00232771 -7.99782e-21)
(0.00055945 -0.00272224 3.25448e-21)
(0.000617672 -0.00301958 -4.65378e-21)
(0.000713909 -0.00321225 3.60827e-20)
(0.000848494 -0.00329913 1.38931e-20)
(0.00101509 -0.00328562 4.2606e-21)
(0.00120485 -0.00318167 0)
(0.0014079 -0.00300084 1.3922e-21)
(0.00161547 -0.00276009 2.76722e-20)
(0.00181797 -0.00247875 1.18792e-20)
(0.00200978 -0.00217674 1.51913e-21)
(0.0021881 -0.0018731 2.06564e-20)
(0.00235507 -0.00158399 0)
(0.00251755 -0.00132543 -8.96065e-21)
(0.00268286 -0.00110921 1.907e-22)
(0.00286776 -0.000945845 1.95896e-23)
(0.00308927 -0.00084456 1.91673e-21)
(0.00336564 -0.000812978 5.13816e-22)
(0.00371914 -0.000857101 1.241e-22)
(0.00417179 -0.00098007 -1.00336e-22)
(0.00472762 -0.00118297 -4.6385e-22)
(0.00537179 -0.00146382 1.84758e-21)
(0.00605973 -0.00182003 6.07838e-22)
(0.00671615 -0.0022216 7.70828e-21)
(0.00726531 -0.00262732 -8.47094e-21)
(0.00767727 -0.0029881 1.46541e-20)
(0.00793888 -0.00326594 1.17691e-21)
(0.00798906 -0.00342534 -9.52762e-21)
(0.00791192 -0.00347112 -1.21383e-21)
(0.00771319 -0.00341193 -1.05113e-20)
(0.00743795 -0.00327183 1.35302e-20)
(0.0071195 -0.00307703 9.0162e-21)
(0.00679036 -0.0028559 0)
(0.00647611 -0.00263057 1.2191e-20)
(0.00619321 -0.00241511 1.09644e-20)
(0.00594934 -0.00221694 1.50745e-21)
(0.00574604 -0.00203951 -2.44965e-20)
(0.00558172 -0.00188221 1.41839e-20)
(0.0054543 -0.00174433 -1.5167e-21)
(0.0053607 -0.00162144 1.13756e-20)
(0.00529443 -0.00150897 -1.16582e-20)
(0.0052513 -0.00140342 1.10287e-20)
(0.00523396 -0.00130367 -9.69113e-21)
(0.00524071 -0.00120278 8.83226e-21)
(0.00527158 -0.0010982 0)
(0.00532786 -0.000982102 1.95974e-22)
(0.00541451 -0.000849025 1.15254e-22)
(0.00553385 -0.000686077 -1.39121e-21)
(0.00567704 -0.000479374 0)
(0.0058367 -0.000216506 -4.09092e-22)
(0.0059985 0.000109159 4.87483e-23)
(0.00614118 0.000492364 -1.51666e-22)
(0.00625418 0.000915533 2.86312e-21)
(0.00633321 0.00135138 3.42807e-21)
(0.00638398 0.00177118 -4.97544e-21)
(0.00641852 0.00214846 -2.78766e-22)
(0.00645108 0.00246783 6.63811e-21)
(0.00650036 0.00272529 7.94945e-21)
(0.00657906 0.00292869 5.11856e-22)
(0.00669281 0.00309538 8.71552e-21)
(0.00684134 0.00324541 -1.90581e-20)
(0.00701751 0.0033952 0)
(0.00720959 0.00355296 0)
(0.0074041 0.00371674 0)
(0.00758998 0.00387542 -1.04633e-20)
(0.00776153 0.00401147 -6.45347e-22)
(0.00791946 0.0041003 3.22546e-22)
(0.00807078 0.00412264 9.70298e-22)
(0.00822306 0.00408518 -9.13282e-21)
(0.00838629 0.00397049 -9.73073e-21)
(0.00856633 0.00376864 0)
(0.00877025 0.0034882 0)
(0.00898964 0.00312643 0)
(0.00921469 0.00269246 0)
(0.00943225 0.00218703 3.31753e-21)
(0.00962914 0.00161945 1.86117e-21)
(0.00979176 0.000994527 0)
(0.00990693 0.000324337 5.40406e-23)
(0.00995371 -0.000368674 0)
(0.00992261 -0.00105591 0)
(0.00981079 -0.0017112 0)
(0.00961422 -0.00228945 0)
(0.00933965 -0.00276452 -1.37925e-22)
(0.00902589 -0.00311849 4.64574e-21)
(0.00869145 -0.00334645 1.74093e-22)
(0.00835229 -0.00345435 -7.8387e-21)
(0.00801856 -0.00346126 9.50894e-21)
(0.00768857 -0.00338439 -1.052e-20)
(0.00736119 -0.00324338 0)
(0.00704071 -0.00306327 1.16982e-20)
(0.00673603 -0.00286458 -1.08908e-20)
(0.00645494 -0.00266382 8.72207e-21)
(0.00620467 -0.00247174 -1.23547e-20)
(0.00598928 -0.0022941 5.02726e-22)
(0.0058098 -0.00213399 1.68632e-21)
(0.00566615 -0.00199155 -6.37541e-22)
(0.00555535 -0.0018637 -9.57888e-21)
(0.00547304 -0.00174714 -4.24303e-21)
(0.00541522 -0.00163802 -1.31913e-20)
(0.00538199 -0.00153502 -2.97489e-21)
(0.00537336 -0.00143326 1.40282e-20)
(0.00538293 -0.00132691 2.11668e-20)
(0.00541656 -0.00121511 1.15402e-20)
(0.00547498 -0.00108926 -2.23538e-21)
(0.00555939 -0.000943505 -1.84273e-21)
(0.00567522 -0.000767111 1.42281e-21)
(0.00581637 -0.00054608 -5.92054e-22)
(0.00597703 -0.000266856 -5.51027e-23)
(0.00614677 7.89848e-05 -1.93791e-21)
(0.00630566 0.000488319 0)
(0.00643854 0.00094444 7.06912e-22)
(0.00654131 0.00141934 1.33611e-21)
(0.0066174 0.00188156 0)
(0.00667694 0.00230395 2.65437e-21)
(0.00673942 0.00266855 5.5769e-21)
(0.00682535 0.00297017 -3.69371e-21)
(0.00695351 0.0032177 4.25958e-21)
(0.00714328 0.00342725 8.10621e-21)
(0.00741252 0.00361477 -8.45569e-21)
(0.00777672 0.003786 -7.06841e-21)
(0.00823102 0.00392785 8.40731e-21)
(0.00875709 0.00400796 -9.06811e-21)
(0.00932683 0.00397009 6.65104e-21)
(0.00987936 0.00380241 1.71055e-21)
(0.0102784 0.00351749 -9.20653e-21)
(0.0104931 0.00318772 0)
(0.0106318 0.00284918 5.78914e-21)
(0.0107198 0.0024792 1.4089e-21)
(0.0107035 0.00207279 2.82316e-21)
(0.0106175 0.0016494 -2.47825e-21)
(0.0104367 0.00123606 1.02792e-21)
(0.0101886 0.000875295 -1.02222e-21)
(0.00992195 0.00060859 0)
(0.00967729 0.000422571 -4.08462e-23)
(0.00946503 0.00029833 -4.79649e-22)
(0.00928189 0.00022311 5.49159e-22)
(0.00912141 0.000185333 3.12414e-22)
(0.00897548 0.000174106 -2.79652e-22)
(0.00883573 0.000180469 6.74222e-23)
(0.00869548 0.000197344 -6.74448e-23)
(0.00855006 0.000219172 0)
(0.0083968 0.000241874 -5.39367e-23)
(0.00823454 0.000262997 5.04991e-23)
(0.00806296 0.000281535 -1.38568e-22)
(0.00788241 0.000297836 1.25026e-22)
(0.00769271 0.000313239 2.22377e-23)
(0.00749361 0.0003298 -2.75161e-23)
(0.00728367 0.000349807 0)
(0.00706085 0.000375681 0)
(0.00682187 0.000410379 -4.20849e-23)
(0.00656217 0.000457611 0)
(0.00627559 0.000523694 0)
(0.00595257 0.000619239 1.16939e-22)
(0.00557837 0.000761212 0)
(0.00512902 0.000976912 0)
(0.00456865 0.00130763 3.26617e-22)
(0.00384754 0.00179906 -1.68229e-22)
(0.00291911 0.00246392 0)
(0.00178951 0.00316731 0)
(0.000637752 0.00337822 -9.89709e-24)
(-2.10622e-06 0.00196581 -1.28918e-22)
(-4.87561e-05 -0.00051626 1.95213e-23)
(-0.000251912 -0.00114343 -6.38279e-23)
(-0.000349747 -0.00146079 -5.0433e-23)
(-0.000339668 -0.00155598 1.00338e-22)
(-0.000233551 -0.00152553 -2.02112e-22)
(-6.64234e-05 -0.0014255 1.02507e-22)
(0.000134269 -0.00129905 0)
(0.000347938 -0.0011671 -5.89256e-23)
(0.000561562 -0.00103922 0)
(0.00076649 -0.000918963 -3.61216e-22)
(0.00095725 -0.000807014 2.90752e-22)
(0.00113043 -0.000702842 -8.34186e-23)
(0.001284 -0.000605515 -3.78159e-22)
(0.00141681 -0.000514011 2.79761e-22)
(0.00152826 -0.000427387 -1.05123e-22)
(0.00161815 -0.000344834 0)
(0.00168644 -0.000265683 -1.23095e-22)
(0.00173332 -0.000189383 4.30106e-22)
(0.00175903 -0.00011559 -1.77506e-21)