/*--------------------------------*- C++ -*----------------------------------*\
| =========                 |                                                 |
| \\      /  F ield         | OpenFOAM: The Open Source CFD Toolbox           |
|  \\    /   O peration     | Version:  2506                                  |
|   \\  /    A nd           | Website:  www.openfoam.com                      |
|    \\/     M anipulation  |                                                 |
\*---------------------------------------------------------------------------*/
FoamFile
{
    version     2.0;
    format      ascii;
    arch        "LSB;label=32;scalar=64";
    class       volVectorField;
    location    "4.25";
    object      vorticityField;
}
// * * * * * * * * * * * * * * * * * * * * * * * * * * * * * * * * * * * * * //

dimensions      [0 0 -1 0 0 0 0];

internalField   nonuniform List<vector> 
4000
(
(-2.53789e-21 8.6023e-19 -33.3794)
(-1.06627e-18 3.26186e-19 -35.639)
(1.12623e-18 -3.78888e-18 -32.6625)
(3.6524e-18 2.85442e-18 -27.8746)
(-7.45364e-18 2.71515e-18 -24.0547)
(3.79297e-18 -4.70424e-18 -21.3703)
(-3.07497e-20 1.73713e-18 -19.3952)
(3.67728e-18 -0 -17.9147)
(-3.62254e-18 -3.42606e-18 -16.801)
(7.28001e-18 1.82904e-18 -15.9524)
(-7.29101e-18 -1.79007e-18 -15.2944)
(-2.27905e-19 4.12502e-19 -14.7754)
(-1.25433e-19 9.80377e-18 -14.3584)
(7.6694e-18 -6.82918e-18 -14.0155)
(-2.74734e-20 -0 -13.7255)
(-1.44841e-17 -6.72709e-18 -13.4717)
(1.42784e-17 4.04805e-18 -13.2414)
(-7.55635e-18 9.41003e-18 -13.0251)
(3.57445e-19 -6.73099e-18 -12.8156)
(0 -0 -12.6076)
(0 -0 -12.397)
(0 -0 -12.1804)
(8.97851e-19 -1.32318e-17 -11.955)
(1.23256e-17 2.17688e-17 -11.718)
(-2.83472e-17 9.2582e-18 -11.4664)
(1.61385e-17 -3.10155e-17 -11.197)
(-1.01407e-18 1.32202e-17 -10.9062)
(0 -0 -10.5898)
(0 -0 -10.2428)
(-1.16647e-18 1.31793e-17 -9.85869)
(-2.76355e-17 -9.60853e-18 -9.4286)
(1.53846e-17 -1.67673e-17 -8.94312)
(2.94408e-17 1.59186e-18 -8.38462)
(8.66504e-19 -1.52632e-17 -7.59817)
(-8.31695e-18 7.63367e-17 -6.71823)
(-3.41915e-17 6.93096e-17 -6.3167)
(-1.08968e-16 -1.14017e-16 -6.56331)
(-3.13211e-19 -8.68642e-19 -7.25288)
(7.05918e-17 2.12612e-16 -8.32812)
(-1.07143e-16 -6.91319e-17 -9.86611)
(4.4861e-17 -2.52751e-16 -12.1738)
(1.22972e-16 2.35536e-16 -15.0167)
(-3.84289e-17 1.03772e-16 -17.8659)
(2.80578e-17 -1.11205e-16 -20.5718)
(1.26834e-16 8.86542e-17 -23.1095)
(-1.4531e-16 2.07035e-17 -25.5185)
(-1.97712e-16 1.68485e-16 -27.8673)
(-1.0448e-16 -1.14166e-16 -30.0009)
(-8.22923e-17 -2.00287e-16 -31.983)
(-4.90794e-17 -1.26026e-16 -33.7866)
(1.01008e-16 -1.20207e-16 -35.3175)
(-3.79925e-18 4.71833e-17 -36.6483)
(-5.65763e-17 -8.90979e-17 -37.5931)
(9.13614e-17 -1.06369e-16 -38.27)
(-7.73182e-18 9.03838e-17 -38.5218)
(-3.57071e-17 5.55899e-17 -38.373)
(8.7483e-18 5.17557e-17 -37.8594)
(4.07027e-18 9.36165e-18 -36.8567)
(8.95957e-18 1.60273e-17 -35.6039)
(-5.38599e-18 -2.6541e-18 -33.9148)
(5.19811e-18 4.67211e-18 -31.9019)
(2.015e-17 3.79374e-19 -29.7708)
(-9.52438e-18 -4.42309e-18 -27.4626)
(-7.88927e-18 -5.19207e-17 -25.1445)
(-1.07347e-17 -6.11731e-17 -22.8383)
(-9.44253e-18 4.64846e-17 -20.5934)
(6.22325e-17 4.49374e-17 -18.5044)
(-1.3346e-19 -3.38009e-17 -16.5176)
(2.32141e-17 5.23128e-17 -14.7381)
(-5.7591e-17 5.38473e-17 -13.0941)
(-1.13089e-17 -3.89865e-17 -11.6373)
(-3.10903e-17 -6.47457e-17 -10.341)
(1.45997e-20 -1.70957e-19 -9.17214)
(-7.75964e-17 4.92188e-17 -8.16575)
(-7.71702e-17 5.49691e-17 -7.27241)
(-2.86838e-18 6.78846e-17 -6.48536)
(-6.82135e-17 4.32509e-17 -5.80238)
(8.15684e-18 -6.95828e-17 -5.19504)
(-9.00962e-17 2.35996e-17 -4.64838)
(6.84012e-17 2.19648e-17 -4.15804)
(-1.31988e-16 3.63842e-17 -3.70845)
(-2.47894e-17 -8.01437e-17 -3.29026)
(3.96006e-18 -1.20734e-17 -2.90073)
(-7.51407e-18 2.29923e-18 -2.53642)
(7.17709e-17 1.10678e-16 -2.1975)
(-1.19968e-16 1.58695e-16 -1.88618)
(4.75588e-18 -1.43717e-16 -1.60103)
(-9.0627e-18 -7.65736e-17 -1.34454)
(-1.20136e-18 1.41069e-16 -1.12011)
(-5.13621e-17 3.31761e-17 -0.923166)
(2.10832e-19 1.26819e-18 -0.754102)
(-5.14487e-17 9.49126e-17 -0.613796)
(-2.43954e-17 -1.16695e-16 -0.49611)
(1.83094e-17 -3.91436e-17 -0.400595)
(6.25199e-19 6.08414e-17 -0.32565)
(7.77839e-18 -6.79666e-17 -0.266779)
(2.32996e-17 -1.01089e-17 -0.224925)
(3.0427e-18 3.12162e-18 -0.196084)
(-3.55532e-17 -5.67803e-18 -0.181227)
(5.79348e-18 3.00105e-17 -0.177809)
(6.40359e-18 -8.34669e-19 -0.186828)
(1.98959e-18 -5.67523e-18 -0.206682)
(-1.07918e-18 1.89141e-17 -0.240787)
(-2.84545e-18 5.14974e-18 -0.289611)
(-4.20833e-18 -2.07714e-18 -0.35772)
(-7.65061e-20 -6.94515e-18 -0.447878)
(4.22556e-19 5.67414e-17 -0.56535)
(-2.1679e-17 -2.1537e-18 -0.716096)
(-2.73161e-17 -9.66006e-17 -0.906036)
(5.14333e-17 -1.42789e-17 -1.14329)
(-2.62646e-17 1.62706e-17 -1.43617)
(1.20486e-18 6.54069e-17 -1.79181)
(-2.74589e-17 -1.3002e-17 -2.22306)
(-2.47622e-17 -5.69356e-17 -2.72908)
(-8.23498e-19 -6.9687e-17 -3.33227)
(5.48378e-17 3.62498e-17 -4.02766)
(2.65404e-19 1.38228e-16 -4.82284)
(-8.2336e-18 3.53678e-17 -5.72895)
(5.73331e-17 4.27366e-17 -6.73696)
(-5.89959e-17 -4.41202e-17 -7.84995)
(-4.58531e-17 -2.50083e-16 -9.07195)
(7.23217e-17 4.82763e-17 -10.3874)
(4.30721e-18 1.55223e-16 -11.7862)
(-6.83911e-17 -4.48038e-17 -13.2699)
(-1.128e-17 -1.63361e-16 -14.8152)
(1.25902e-16 8.94898e-17 -16.4112)
(-3.78654e-17 4.18322e-17 -18.0427)
(5.37528e-17 -6.29754e-18 -19.6881)
(6.4419e-17 9.07516e-17 -21.3378)
(-6.36338e-17 1.89175e-16 -22.9947)
(-7.36058e-18 5.48136e-17 -24.5934)
(-1.27066e-16 9.4714e-17 -26.1566)
(-2.5951e-17 -5.75738e-17 -27.7064)
(-9.84403e-17 -6.9711e-17 -29.1374)
(-4.6979e-17 1.45524e-16 -30.494)
(-5.39696e-18 -1.91613e-18 -31.8444)
(5.76601e-18 3.54913e-18 -32.9677)
(3.88755e-17 -9.79974e-17 -34.0624)
(4.98395e-18 4.30025e-18 -34.9618)
(-1.11968e-17 1.8299e-17 -35.7166)
(-2.41544e-17 9.19884e-17 -36.2686)
(-1.94727e-17 6.4722e-18 -36.5812)
(-1.39407e-17 7.88536e-17 -36.5916)
(-5.42133e-18 1.37726e-17 -36.3519)
(-3.40968e-18 1.29626e-17 -35.6448)
(8.08795e-18 -6.8368e-17 -34.7257)
(1.12241e-20 4.2027e-19 -33.2925)
(0 -0 -31.5293)
(3.04834e-19 -4.60774e-19 -29.5217)
(1.15287e-18 1.06598e-17 -27.2001)
(-1.76845e-18 -7.81455e-18 -24.7894)
(-2.7055e-19 1.20983e-18 -22.2147)
(-2.00767e-18 -1.26811e-18 -19.6386)
(-7.7176e-19 -2.1004e-18 -17.1113)
(9.85631e-19 -3.84587e-19 -14.6864)
(5.58849e-20 9.30315e-19 -12.42)
(-1.15907e-17 -2.8225e-17 -10.318)
(1.85007e-18 -3.97817e-18 -8.43514)
(-9.4884e-19 -7.28024e-18 -6.71669)
(-9.02744e-18 -3.24126e-17 -5.17419)
(-6.89158e-18 1.76087e-17 -4.26825)
(1.07331e-17 6.95918e-18 -4.15732)
(-1.80728e-18 -3.06212e-18 -4.20253)
(1.32411e-18 -3.08676e-19 -4.39092)
(1.52104e-18 -2.33931e-19 -4.77702)
(1.60429e-18 -1.33291e-19 -5.40218)
(-1.49791e-18 -1.21635e-18 -6.36356)
(1.29414e-18 -3.13208e-18 -7.50597)
(1.31151e-19 8.57056e-19 -8.47126)
(1.82007e-19 8.44912e-19 -9.20443)
(-1.34307e-18 3.80404e-18 -9.7731)
(-2.95191e-19 -2.20152e-18 -10.2208)
(1.98562e-20 -3.35519e-18 -10.5805)
(2.3492e-19 5.36141e-18 -10.8832)
(-1.6451e-19 -1.2933e-18 -11.1546)
(1.06487e-18 3.25987e-20 -11.4137)
(-1.9377e-18 8.00303e-19 -11.6719)
(9.87123e-19 4.08282e-18 -11.9331)
(-1.58315e-19 -5.67227e-18 -12.1948)
(5.5117e-20 8.02756e-19 -12.4498)
(4.85054e-19 3.14809e-19 -12.688)
(-7.87151e-19 2.3034e-18 -12.898)
(-6.38979e-20 -5.86834e-19 -13.0693)
(3.9526e-21 -2.64179e-18 -13.1939)
(3.19112e-19 3.16311e-19 -13.2665)
(2.97355e-19 8.86973e-22 -13.2857)
(-3.31341e-19 -9.88352e-22 -13.2533)
(2.7692e-19 -1.17289e-20 -13.1743)
(-4.61304e-19 -3.16852e-19 -13.0561)
(2.88408e-19 1.33876e-20 -12.9075)
(-9.56954e-20 -2.85448e-22 -12.7376)
(-2.05782e-20 -5.16261e-20 -12.5556)
(6.03527e-20 -1.19294e-18 -12.3702)
(-2.30503e-20 1.29196e-18 -12.1886)
(-4.90318e-20 -5.51971e-20 -12.0169)
(7.80202e-21 -2.95224e-19 -11.8592)
(-3.44036e-21 -5.77201e-19 -11.718)
(-7.07719e-21 3.06528e-19 -11.5928)
(-3.52856e-21 2.8294e-19 -11.4745)
(-5.93038e-22 -2.68526e-21 -11.3723)
(0 -0 3.17766)
(3.00715e-20 -0 -6.37043)
(-5.74862e-20 -1.67109e-18 -12.8057)
(3.35716e-19 -2.51285e-20 -15.4215)
(1.13858e-18 6.46942e-18 -16.1318)
(-1.46373e-18 -6.49332e-18 -15.8726)
(4.078e-20 -1.72892e-18 -15.2884)
(1.58216e-19 -1.42767e-18 -14.6515)
(-3.69932e-18 4.88796e-18 -14.0572)
(3.43573e-18 -4.4334e-18 -13.5367)
(6.69042e-18 1.48702e-17 -13.0926)
(-1.4131e-17 -2.17634e-18 -12.7167)
(9.87123e-19 -2.22011e-17 -12.3987)
(6.86967e-18 -8.98348e-19 -12.1283)
(-9.1552e-19 2.0984e-17 -11.8958)
(-6.84603e-18 8.40127e-18 -11.6927)
(7.53854e-18 -2.14994e-17 -11.5117)
(-1.44192e-19 6.94184e-18 -11.3462)
(0 -0 -11.191)
(0 -0 -11.0414)
(0 -0 -10.894)
(0 -0 -10.7456)
(0 -0 -10.5936)
(-2.80579e-17 -0 -10.4355)
(4.22459e-17 -0 -10.2689)
(-1.41601e-17 -0 -10.0912)
(0 -0 -9.89945)
(0 -0 -9.69035)
(0 -0 -9.45993)
(-1.21882e-18 1.37708e-17 -9.20315)
(-2.7838e-19 1.06887e-17 -8.91332)
(3.71562e-18 -4.20442e-17 -8.58143)
(-1.42815e-19 -7.41941e-18 -8.19593)
(-1.61843e-17 5.05734e-17 -7.72647)
(-9.7221e-18 -4.7042e-17 -7.22331)
(4.22764e-17 2.04448e-17 -6.88462)
(9.9116e-17 1.30047e-16 -6.85737)
(5.2796e-18 -2.05585e-16 -7.17209)
(-1.58766e-17 -1.78529e-16 -7.82701)
(1.14098e-16 2.45077e-16 -8.83904)
(-3.35938e-17 1.38938e-17 -10.2624)
(-8.71561e-17 -1.84138e-16 -11.8757)
(7.81523e-17 -1.41327e-16 -13.5639)
(1.29896e-17 -4.24618e-17 -15.2938)
(-2.49053e-17 -1.78959e-16 -16.9832)
(-7.34343e-18 4.45024e-16 -18.645)
(1.91454e-16 1.39456e-16 -20.2714)
(1.07271e-16 1.14493e-16 -21.801)
(7.85126e-17 1.52592e-16 -23.2845)
(6.10597e-17 -2.19064e-17 -24.6508)
(-1.33874e-16 -1.4514e-16 -25.897)
(-3.15227e-18 3.88331e-17 -27.0325)
(-1.65605e-17 2.42833e-16 -27.9791)
(-8.18434e-17 5.60907e-17 -28.791)
(5.09065e-17 -2.45788e-17 -29.3804)
(3.79142e-17 3.67291e-17 -29.7793)
(3.74093e-17 -5.61896e-17 -29.9472)
(8.733e-18 1.12872e-17 -29.8688)
(-3.99564e-18 -3.20543e-17 -29.5615)
(-6.15637e-18 1.4504e-17 -28.995)
(-3.03459e-18 -1.50944e-17 -28.1719)
(-2.61166e-17 -7.63794e-17 -27.1224)
(2.05654e-17 7.5136e-17 -25.8786)
(-2.60149e-18 9.46167e-17 -24.4718)
(4.68567e-17 1.45202e-16 -22.9714)
(6.54105e-18 -5.31095e-17 -21.3821)
(-7.57843e-18 -8.03002e-17 -19.8051)
(-1.56218e-17 6.55025e-17 -18.2208)
(-2.52332e-17 -3.38413e-18 -16.7123)
(6.45187e-17 -4.18885e-17 -15.2675)
(5.04081e-18 2.24131e-17 -13.9127)
(-1.34731e-16 -2.62211e-17 -12.6692)
(5.93169e-17 3.64354e-17 -11.5059)
(5.11265e-17 1.81295e-16 -10.4516)
(1.32142e-16 -3.25986e-17 -9.48879)
(1.15444e-17 -8.01865e-17 -8.60458)
(-1.16117e-17 1.06394e-17 -7.80171)
(-5.18873e-18 7.36275e-17 -7.06775)
(-5.08066e-17 1.84143e-18 -6.38953)
(-1.70906e-16 4.57018e-17 -5.76545)
(2.19721e-16 7.12933e-17 -5.1891)
(2.76773e-17 -7.40875e-17 -4.65402)
(-6.85557e-17 4.62627e-17 -4.15915)
(2.84976e-17 -4.04135e-17 -3.70284)
(-7.73294e-18 -1.50545e-17 -3.2838)
(1.34645e-16 -5.35606e-17 -2.90389)
(4.41637e-17 -6.42009e-17 -2.56158)
(6.87004e-17 4.73977e-17 -2.25499)
(5.49398e-17 -1.11628e-16 -1.98658)
(1.11821e-16 -7.11259e-17 -1.75234)
(3.56333e-20 2.26157e-18 -1.5491)
(5.20921e-17 -6.47051e-17 -1.37753)
(2.06315e-17 2.03136e-17 -1.23247)
(-4.88069e-17 2.72191e-17 -1.11116)
(2.25676e-17 -5.84055e-17 -1.01342)
(8.54532e-19 3.20586e-17 -0.933859)
(-4.91159e-17 2.28902e-17 -0.874056)
(2.3398e-17 6.23117e-17 -0.829463)
(2.44023e-18 1.60244e-17 -0.801661)
(-1.31052e-17 -8.00648e-17 -0.787762)
(-6.54005e-18 2.86954e-18 -0.789995)
(-7.69234e-18 1.65616e-17 -0.806351)
(-3.26653e-18 -1.26473e-17 -0.839537)
(2.87922e-18 -1.66835e-18 -0.889713)
(5.65134e-18 -1.529e-18 -0.959443)
(1.20055e-17 3.33726e-18 -1.05128)
(-2.27739e-19 -3.05811e-17 -1.16778)
(7.12438e-17 4.61472e-17 -1.31283)
(6.59523e-19 6.21932e-18 -1.49002)
(-4.77961e-17 7.58257e-18 -1.70374)
(-2.49998e-18 4.85126e-17 -1.9589)
(-1.93298e-18 -6.65359e-17 -2.25971)
(2.67329e-17 4.81206e-17 -2.61295)
(2.35528e-17 1.98713e-17 -3.01879)
(-2.77654e-17 -5.06406e-17 -3.49095)
(-5.47746e-17 -3.17057e-17 -4.02171)
(2.09539e-18 -7.63037e-17 -4.62333)
(1.12338e-17 -1.09516e-16 -5.29685)
(-1.23863e-17 -2.77739e-17 -6.03741)
(1.18526e-16 2.39209e-16 -6.85293)
(-9.60442e-17 4.186e-18 -7.74105)
(-5.73717e-17 -1.40607e-16 -8.69244)
(4.52149e-17 5.76079e-17 -9.70871)
(8.09406e-17 4.8431e-17 -10.7876)
(4.91579e-17 -1.0468e-17 -11.9121)
(-9.06239e-17 -2.4555e-16 -13.0815)
(-4.26044e-17 1.97067e-16 -14.2837)
(8.64733e-17 -3.02862e-16 -15.5059)
(-1.5927e-17 6.72155e-18 -16.7432)
(1.85976e-16 -1.58323e-17 -17.9867)
(4.73316e-17 3.08582e-17 -19.1989)
(1.99412e-16 -5.60623e-17 -20.4065)
(4.63019e-17 1.63282e-16 -21.593)
(-4.39574e-17 2.63554e-16 -22.6978)
(8.15947e-17 -2.06117e-16 -23.7795)
(-5.54388e-18 7.80344e-17 -24.8184)
(3.1361e-17 -2.47355e-17 -25.7125)
(2.19612e-17 -3.64089e-17 -26.6059)
(1.2e-17 -3.83296e-17 -27.3417)
(-8.35326e-18 3.11856e-17 -28.0016)
(4.93544e-17 -1.35963e-16 -28.5294)
(-6.31635e-17 2.34094e-16 -28.9178)
(4.11216e-17 -1.54177e-16 -29.1479)
(1.19602e-18 6.55627e-18 -29.2255)
(8.87867e-18 -5.7068e-17 -29.0703)
(-1.05425e-18 1.50627e-17 -28.7758)
(-1.34756e-18 2.26525e-17 -28.1843)
(-1.10961e-19 -2.81301e-19 -27.4136)
(7.89014e-19 4.23468e-17 -26.3948)
(-4.79837e-18 -7.79721e-17 -25.1527)
(6.07338e-19 -2.33008e-18 -23.7352)
(2.15615e-17 1.32037e-16 -22.1216)
(5.9266e-18 2.25346e-17 -20.3936)
(-4.42481e-18 -2.07184e-17 -18.5655)
(-1.66849e-18 3.39193e-19 -16.7077)
(-2.48857e-17 -8.09697e-17 -14.8554)
(1.16889e-17 2.87649e-17 -13.0494)
(-2.4795e-17 -5.79381e-17 -11.327)
(1.99698e-18 6.11396e-18 -9.70822)
(-2.56853e-19 4.26485e-17 -8.24954)
(2.15049e-17 2.18697e-17 -7.13231)
(-1.87884e-17 -5.2609e-17 -6.53369)
(1.56164e-18 1.30817e-17 -6.22314)
(-4.66232e-18 -7.01349e-18 -6.10008)
(-1.34885e-18 -6.55932e-18 -6.15468)
(-4.34766e-18 -7.73125e-18 -6.40202)
(3.86783e-18 7.23823e-18 -6.84226)
(-1.43399e-18 -3.99623e-19 -7.39693)
(-1.69842e-20 -1.61068e-19 -7.94503)
(-1.39536e-19 -8.68708e-19 -8.43135)
(2.91007e-20 1.46434e-19 -8.84965)
(2.14259e-19 2.02741e-18 -9.21163)
(-1.10299e-18 1.10977e-17 -9.52944)
(8.03273e-19 -1.42542e-17 -9.8142)
(8.07485e-20 1.51768e-18 -10.0755)
(1.07046e-18 -1.15985e-17 -10.3207)
(-7.60722e-19 2.48804e-17 -10.5537)
(-4.08858e-19 -2.82116e-17 -10.7759)
(3.53624e-19 1.66387e-17 -10.9859)
(-8.72201e-20 -1.29119e-18 -11.1801)
(-1.24956e-19 -8.12314e-18 -11.3539)
(4.65861e-19 8.08047e-18 -11.5023)
(-3.15569e-19 1.1216e-18 -11.6203)
(-3.25101e-19 7.26654e-18 -11.7042)
(3.10968e-19 -6.91107e-18 -11.7514)
(1.09803e-19 -7.02804e-18 -11.7616)
(2.0088e-20 8.7995e-18 -11.7362)
(2.5836e-20 -8.57701e-18 -11.6783)
(-1.15074e-19 1.5214e-17 -11.593)
(8.67832e-20 -1.02346e-17 -11.4862)
(5.61043e-20 3.93634e-18 -11.3644)
(-7.95086e-20 1.06522e-18 -11.2339)
(-1.14459e-19 -5.01007e-20 -11.1008)
(1.4481e-19 -2.30276e-18 -10.9702)
(-3.31071e-20 3.48789e-18 -10.8459)
(4.51018e-21 -3.41408e-19 -10.7307)
(-9.81543e-21 1.68769e-18 -10.626)
(9.41411e-21 -1.31844e-20 -10.5318)
(-5.36349e-23 5.39336e-22 -10.4457)
(-8.02468e-21 1.05449e-18 -10.3761)
(-2.47322e-21 8.38312e-19 5.45139)
(-3.78801e-19 1.29662e-18 2.32051)
(4.02909e-19 -4.57611e-18 -1.63692)
(5.88838e-19 -1.8097e-18 -5.00346)
(1.20992e-18 5.8767e-18 -7.50624)
(-1.81334e-18 -1.62582e-18 -8.95281)
(0 -0 -9.77295)
(-3.76109e-18 3.26339e-18 -10.1586)
(3.45467e-18 4.00379e-19 -10.2827)
(-2.73925e-18 -2.02262e-17 -10.2698)
(3.52584e-18 6.85558e-18 -10.1852)
(-1.72956e-19 2.28992e-17 -10.0655)
(-5.85377e-19 -8.04291e-19 -9.93268)
(-1.35245e-17 -1.90004e-17 -9.79945)
(1.29267e-17 1.31922e-17 -9.67296)
(8.47035e-18 -1.40928e-18 -9.55673)
(-1.36796e-17 -2.3338e-17 -9.45168)
(5.8412e-18 2.47564e-17 -9.35685)
(3.49903e-19 -6.58896e-18 -9.27023)
(0 -0 -9.18934)
(1.33591e-17 -0 -9.1116)
(-1.33848e-17 -0 -9.03462)
(-8.86175e-19 1.30597e-17 -8.95625)
(-1.2909e-17 7.77727e-18 -8.87459)
(1.47869e-17 -3.39236e-17 -8.78784)
(-9.65221e-19 1.30867e-17 -8.69426)
(0 -0 -8.59195)
(1.33367e-17 -0 -8.47876)
(-1.67827e-20 -0 -8.35209)
(-1.45538e-17 1.31622e-17 -8.20864)
(1.52805e-18 4.19989e-18 -8.04404)
(2.90796e-17 -3.05704e-17 -7.85221)
(-4.42671e-17 1.23768e-17 -7.62751)
(2.58169e-17 -1.31335e-18 -7.36497)
(-1.55176e-18 2.80821e-17 -7.07434)
(-5.6433e-17 -4.19572e-17 -6.80737)
(8.7468e-17 -5.19692e-17 -6.65219)
(3.85782e-17 1.90208e-16 -6.70079)
(-1.29973e-16 8.56071e-17 -6.98911)
(-3.00566e-17 -9.43881e-17 -7.51525)
(-2.36232e-17 -1.52763e-18 -8.26203)
(-1.42903e-16 -1.20127e-17 -9.09677)
(-6.71115e-17 2.13911e-16 -10.0198)
(1.11136e-16 7.39932e-17 -11.0267)
(-2.85213e-16 4.83432e-17 -12.0624)
(3.08041e-16 -4.09669e-16 -13.1212)
(7.4066e-17 -2.07428e-16 -14.1806)
(-5.47268e-18 6.37186e-17 -15.2247)
(8.99314e-17 -2.01195e-16 -16.2663)
(-3.73507e-18 1.32579e-16 -17.2605)
(-1.07216e-16 4.20384e-16 -18.2188)
(1.54443e-17 -1.13123e-16 -19.1366)
(5.12657e-17 -2.01443e-16 -19.9916)
(9.27334e-17 -2.76749e-16 -20.7953)
(1.64831e-17 -2.44733e-16 -21.5204)
(-2.57568e-18 -8.63475e-17 -22.1733)
(-6.4621e-18 -1.27359e-16 -22.7268)
(4.2538e-18 -3.12893e-17 -23.1805)
(-9.767e-18 3.9906e-17 -23.4955)
(8.53585e-18 3.69756e-17 -23.6827)
(4.02954e-18 7.38433e-18 -23.6925)
(-1.27164e-17 7.58279e-17 -23.5115)
(2.05392e-17 -9.86169e-17 -23.1432)
(2.46406e-17 -4.53934e-17 -22.5715)
(-7.09485e-17 -3.41754e-16 -21.8481)
(-3.15997e-17 5.51794e-17 -20.9489)
(-6.97479e-17 -5.21759e-18 -19.9593)
(1.96587e-17 3.76154e-17 -18.8627)
(1.59622e-18 -1.53166e-17 -17.7353)
(-5.69371e-17 4.62501e-18 -16.5842)
(1.10786e-17 1.20943e-16 -15.4356)
(1.87857e-16 1.07973e-16 -14.331)
(-1.54237e-16 -2.25331e-16 -13.2502)
(1.84455e-16 -2.9683e-17 -12.2256)
(2.45698e-17 -1.45976e-16 -11.2556)
(-1.80574e-17 1.49422e-16 -10.3333)
(1.41145e-16 1.00576e-16 -9.46704)
(4.52599e-18 -4.2513e-18 -8.65448)
(1.92137e-16 1.66843e-16 -7.88851)
(9.57333e-17 -7.75372e-17 -7.1716)
(-9.67935e-19 -4.09743e-16 -6.50352)
(-4.48727e-17 1.39214e-16 -5.88158)
(9.93833e-17 3.3851e-17 -5.30714)
(4.70561e-17 -1.63538e-16 -4.78002)
(-6.35713e-17 4.52903e-17 -4.29843)
(1.06321e-16 -1.09607e-16 -3.86382)
(-1.91009e-16 1.70233e-17 -3.47403)
(-1.55761e-16 -8.48075e-17 -3.12447)
(-7.29326e-17 7.13583e-17 -2.8169)
(-1.41492e-17 3.3165e-17 -2.54695)
(1.15505e-18 7.33084e-17 -2.30985)
(2.40118e-18 3.35366e-17 -2.1067)
(-2.66462e-17 2.07318e-17 -1.93297)
(2.92817e-17 -4.37851e-17 -1.78497)
(-5.5599e-19 -2.5067e-18 -1.66453)
(-9.08444e-18 3.05373e-17 -1.56482)
(3.4097e-18 -2.41799e-17 -1.48933)
(-3.46952e-18 -6.57755e-17 -1.43197)
(7.93137e-17 3.40191e-18 -1.39574)
(6.93819e-18 3.90913e-17 -1.376)
(-5.9148e-18 -1.01534e-18 -1.37595)
(8.73426e-18 -1.08897e-17 -1.39199)
(2.99565e-19 6.78664e-18 -1.42633)
(-9.00648e-20 -5.76926e-18 -1.47803)
(-1.8111e-19 -1.28651e-17 -1.54786)
(-1.20782e-17 -6.53167e-18 -1.63726)
(-1.26957e-17 -1.75919e-17 -1.74647)
(-4.78543e-17 -2.41691e-17 -1.87738)
(7.40362e-17 8.89446e-17 -2.03115)
(-5.19063e-17 -3.97347e-17 -2.20946)
(5.38555e-17 -2.14473e-17 -2.41433)
(-7.22374e-19 3.28867e-17 -2.64741)
(1.39065e-18 -3.42408e-17 -2.91212)
(1.07844e-17 5.05083e-18 -3.20742)
(-9.29498e-18 7.10238e-17 -3.54246)
(-4.58684e-19 -3.76447e-17 -3.91017)
(2.60723e-17 8.51221e-17 -4.32076)
(-2.18074e-17 1.88196e-16 -4.77417)
(-1.53897e-16 -1.45381e-16 -5.26807)
(4.06562e-18 -1.55337e-16 -5.81012)
(5.94131e-17 3.03552e-16 -6.39942)
(3.0198e-17 -1.06762e-16 -7.03171)
(4.44835e-17 -2.07429e-16 -7.71166)
(-5.65203e-17 -7.45779e-17 -8.43874)
(1.00418e-16 -9.60405e-17 -9.2035)
(-3.23567e-16 3.97066e-16 -10.0083)
(1.70283e-16 -2.65818e-16 -10.8461)
(-1.71667e-16 1.41772e-16 -11.7099)
(5.91672e-17 -3.91773e-16 -12.596)
(1.13229e-16 -4.3079e-16 -13.4968)
(1.0689e-16 -2.08796e-16 -14.3903)
(-3.74612e-17 -7.50915e-17 -15.2909)
(1.2643e-16 -3.91178e-16 -16.1832)
(2.40051e-16 -2.39846e-16 -17.0292)
(-8.46699e-17 5.48526e-17 -17.8667)
(2.1741e-17 -6.2543e-17 -18.6692)
(7.24616e-17 -1.69123e-16 -19.3891)
(3.11575e-17 -9.80264e-17 -20.1056)
(-2.152e-17 5.30383e-17 -20.7272)
(9.3198e-18 -5.18766e-17 -21.3037)
(-7.13879e-17 2.5079e-16 -21.8088)
(3.01389e-17 6.8868e-18 -22.2414)
(-4.30013e-18 1.09525e-18 -22.6021)
(-1.27038e-17 5.90311e-17 -22.8893)
(-3.86627e-17 2.21162e-16 -23.0766)
(-2.15168e-19 -2.66623e-18 -23.194)
(6.66026e-18 -1.0769e-16 -23.1704)
(-3.34716e-18 6.91745e-17 -23.0534)
(-1.48089e-18 -4.26941e-17 -22.7728)
(1.04384e-17 1.24187e-16 -22.3335)
(5.82418e-18 6.01899e-17 -21.7294)
(-2.31159e-17 -1.31043e-16 -20.9362)
(-3.74614e-17 -2.16836e-16 -19.9836)
(1.50647e-17 6.70576e-17 -18.8624)
(-4.2264e-17 -1.79028e-16 -17.6152)
(2.50641e-17 8.12626e-17 -16.2652)
(9.18005e-18 2.18636e-17 -14.8514)
(1.89232e-17 5.64131e-17 -13.4069)
(-6.2047e-18 -1.68306e-17 -11.9743)
(3.55087e-17 6.57634e-17 -10.6301)
(-8.34969e-18 -3.5762e-17 -9.42615)
(-1.37062e-18 2.87605e-17 -8.52591)
(5.20653e-18 9.72118e-18 -7.89827)
(9.48369e-18 2.67949e-17 -7.47365)
(-1.41178e-18 5.00695e-19 -7.22149)
(2.35873e-18 2.01064e-17 -7.14229)
(-4.50002e-18 -2.83765e-17 -7.21344)
(1.8653e-18 2.62063e-19 -7.39999)
(1.69856e-18 -9.78367e-19 -7.65515)
(4.63431e-19 1.04595e-18 -7.93677)
(-2.68741e-19 1.73962e-17 -8.21691)
(8.72717e-20 -2.12175e-18 -8.48359)
(2.38492e-18 1.48807e-19 -8.73023)
(-2.41072e-18 9.33349e-19 -8.95284)
(-1.25223e-19 -2.07074e-18 -9.14997)
(-1.72742e-18 -2.30776e-17 -9.3223)
(2.6854e-18 2.37902e-17 -9.47177)
(-7.23315e-19 2.0163e-17 -9.60092)
(-4.27211e-19 -2.37431e-17 -9.71244)
(5.96175e-20 8.70544e-19 -9.80869)
(-5.39357e-19 1.16742e-18 -9.89138)
(4.49592e-19 2.28405e-19 -9.96131)
(2.41292e-19 1.05897e-17 -10.0183)
(5.75158e-19 -4.77313e-19 -10.0614)
(-6.9118e-19 -1.31139e-17 -10.0891)
(-3.51663e-19 -3.13967e-18 -10.0999)
(4.04722e-19 -1.12084e-18 -10.0929)
(-2.85203e-19 1.23813e-18 -10.0677)
(2.76374e-19 -4.87966e-20 -10.0252)
(-7.83438e-20 -1.25894e-18 -9.96712)
(2.29372e-19 -5.61438e-18 -9.89622)
(1.37887e-20 4.64428e-18 -9.81565)
(-1.58264e-19 5.42446e-18 -9.72879)
(1.14052e-19 -6.70323e-18 -9.63883)
(4.96153e-21 5.44053e-20 -9.54853)
(1.28792e-20 -1.54479e-18 -9.46004)
(4.04309e-20 -2.65831e-18 -9.37487)
(2.01507e-20 -1.29613e-18 -9.29396)
(-6.95173e-21 1.30975e-18 -9.21684)
(9.18145e-21 -1.06024e-18 -9.13777)
(0 -0 3.6119)
(8.92962e-19 -0 3.04322)
(-8.70975e-19 -1.60974e-18 1.87951)
(6.73612e-19 -2.86474e-18 0.0338094)
(-6.8329e-19 6.08186e-18 -1.72212)
(2.37107e-20 -1.60737e-18 -3.27993)
(3.3256e-18 -0 -4.56975)
(-3.33092e-18 -0 -5.49263)
(1.81139e-19 -0 -6.14097)
(-4.01525e-19 -0 -6.59089)
(-6.98623e-18 6.33221e-18 -6.8787)
(6.50246e-18 9.61781e-18 -7.05494)
(7.75629e-18 -1.5977e-17 -7.15699)
(-7.66547e-19 9.13056e-18 -7.2099)
(9.80737e-19 -3.06879e-17 -7.23221)
(-7.41466e-18 3.42689e-17 -7.23765)
(-7.26967e-18 2.15456e-18 -7.23538)
(7.7383e-18 -2.11825e-17 -7.23076)
(-3.3686e-19 6.34335e-18 -7.22632)
(7.2319e-18 -1.25997e-17 -7.2227)
(-6.51094e-18 -1.57085e-17 -7.21936)
(-1.55078e-18 4.09321e-17 -7.2152)
(-3.35273e-20 -5.47694e-20 -7.20898)
(1.01545e-18 1.4644e-17 -7.19955)
(1.36528e-17 -3.98073e-17 -7.1859)
(-1.38448e-17 1.25942e-17 -7.16711)
(-1.18814e-17 -1.25785e-17 -7.1423)
(1.2293e-18 -2.53904e-17 -7.11048)
(2.38051e-17 2.57759e-17 -7.07043)
(-1.53683e-17 3.74655e-17 -7.02053)
(2.87086e-18 -1.44924e-17 -6.95853)
(-1.05391e-17 -4.61419e-17 -6.88105)
(9.8432e-18 3.61156e-17 -6.7858)
(1.44788e-17 -1.96223e-17 -6.6729)
(-1.81417e-17 4.5396e-17 -6.53666)
(2.77083e-17 -2.76712e-18 -6.37014)
(-1.02204e-16 -9.91019e-17 -6.20557)
(-8.34701e-17 -1.61853e-16 -6.12492)
(1.48497e-16 -1.95076e-17 -6.17698)
(4.93283e-17 1.12505e-16 -6.36586)
(-2.4236e-17 1.69257e-16 -6.66799)
(-1.0509e-17 2.39139e-16 -7.02158)
(1.86189e-16 -5.81083e-16 -7.45041)
(4.4619e-17 -2.89266e-16 -7.95516)
(1.86571e-17 2.29098e-16 -8.5106)
(-8.42301e-17 -1.05533e-16 -9.10794)
(-1.76175e-16 2.11583e-16 -9.72047)
(-4.56259e-17 -2.84559e-17 -10.3726)
(-1.63382e-16 1.94217e-16 -11.028)
(-3.20164e-17 -1.41062e-16 -11.683)
(1.95182e-16 -1.78668e-16 -12.3523)
(-4.53708e-17 3.32138e-17 -13.0181)
(-1.01067e-16 3.8515e-16 -13.6885)
(-1.23251e-16 1.86729e-16 -14.3562)
(-6.45635e-17 2.43346e-16 -15.0254)
(-2.88165e-17 1.22667e-16 -15.6922)
(-3.88953e-17 -9.76231e-18 -16.3486)
(-4.78606e-18 -4.37147e-17 -17.0004)
(2.89997e-18 -3.39661e-17 -17.602)
(6.67351e-18 -5.44326e-17 -18.1788)
(-1.04195e-17 -3.43947e-17 -18.6684)
(2.00869e-17 -1.1826e-17 -19.0535)
(-3.90447e-17 -1.37762e-16 -19.3111)
(1.1391e-17 5.39597e-17 -19.4014)
(1.67738e-17 4.49101e-16 -19.3464)
(9.52889e-17 1.99395e-16 -19.0992)
(-2.48055e-18 3.29587e-17 -18.7161)
(1.00116e-17 -1.0532e-17 -18.169)
(-3.72159e-17 4.45533e-17 -17.517)
(8.76681e-17 1.74881e-16 -16.7676)
(1.86917e-17 -1.06284e-16 -15.9444)
(-7.07082e-17 -2.5731e-16 -15.0944)
(5.291e-17 2.5765e-16 -14.2071)
(-9.23812e-17 -2.6137e-16 -13.3192)
(-7.83079e-17 1.17014e-16 -12.4392)
(3.59919e-18 -6.17833e-17 -11.5681)
(7.36254e-18 -1.6324e-16 -10.7205)
(-6.06229e-18 -2.82342e-17 -9.90192)
(8.05764e-17 -2.51778e-16 -9.11238)
(7.52714e-17 -1.1765e-16 -8.35916)
(-2.8308e-16 2.68026e-16 -7.64779)
(-2.32613e-17 4.9247e-17 -6.97997)
(3.18983e-17 -1.87381e-16 -6.36058)
(-6.94638e-17 1.16311e-16 -5.79189)
(-2.36882e-19 -7.42883e-17 -5.27302)
(-1.61025e-16 1.41556e-16 -4.80574)
(1.73728e-16 3.4427e-16 -4.38774)
(3.59117e-17 1.08246e-16 -4.01268)
(-3.7771e-17 -1.4515e-16 -3.68166)
(-1.77121e-16 -2.02454e-18 -3.38958)
(-2.66204e-17 1.41543e-17 -3.13083)
(1.2978e-18 2.10751e-19 -2.9067)
(2.88587e-17 -1.0972e-17 -2.71345)
(-3.98047e-18 -3.30356e-17 -2.54712)
(-5.17804e-17 5.18612e-18 -2.41141)
(-2.05976e-18 3.05359e-17 -2.29869)
(2.45204e-17 -1.39619e-17 -2.21415)
(-7.75855e-17 -1.13151e-17 -2.15046)
(-4.51879e-17 -3.83648e-19 -2.11164)
(-2.21707e-18 2.41945e-17 -2.09124)
(1.14598e-17 -4.40532e-18 -2.0928)
(-1.13021e-17 9.57895e-18 -2.11076)
(7.40624e-18 -1.22172e-18 -2.14658)
(5.98961e-21 -1.04804e-18 -2.19789)
(5.57052e-20 1.19093e-17 -2.26385)
(-2.44308e-17 1.94546e-17 -2.34466)
(4.72242e-19 2.45849e-17 -2.43878)
(-2.45503e-17 -6.84919e-17 -2.5465)
(-2.16743e-17 -4.57792e-17 -2.66723)
(4.57874e-17 1.04395e-16 -2.80093)
(-1.86365e-18 -2.92907e-17 -2.94771)
(6.13517e-19 -7.13396e-19 -3.10767)
(4.3547e-19 3.07767e-17 -3.28231)
(-3.48238e-17 1.70603e-17 -3.46975)
(4.84222e-17 4.54031e-18 -3.67668)
(1.39972e-18 -2.67705e-17 -3.89711)
(-6.1829e-17 -2.04809e-16 -4.13897)
(1.06823e-16 -5.74851e-17 -4.40284)
(5.16127e-17 3.98019e-16 -4.68781)
(-1.25017e-16 -5.18997e-17 -5.00073)
(1.86221e-16 -2.16847e-16 -5.34275)
(-3.59766e-18 -1.17952e-16 -5.71269)
(-1.35818e-16 2.646e-16 -6.11609)
(-1.5504e-16 2.54302e-16 -6.55442)
(-1.74503e-16 6.72215e-17 -7.02368)
(1.75248e-16 8.81664e-17 -7.52726)
(-3.44871e-17 3.08387e-17 -8.06229)
(5.05007e-17 8.84655e-17 -8.62535)
(-2.22598e-16 3.4942e-16 -9.21431)
(-2.43951e-16 2.3674e-16 -9.82422)
(-1.89884e-16 2.01056e-16 -10.4419)
(-5.88013e-18 8.5179e-19 -11.0736)
(-2.71705e-16 3.73731e-16 -11.7102)
(-2.68685e-17 -1.18225e-16 -12.3247)
(-8.66214e-17 1.90431e-16 -12.9395)
(-3.52954e-17 3.92012e-17 -13.5338)
(-2.15189e-17 -4.6036e-17 -14.0869)
(-1.2745e-16 2.82478e-16 -14.6357)
(3.25087e-17 -6.48617e-17 -15.1355)
(-1.13629e-16 3.38006e-16 -15.6111)
(1.99693e-16 -6.25473e-16 -16.0545)
(1.40199e-16 -5.37094e-16 -16.4674)
(6.65653e-17 -2.87208e-16 -16.858)
(6.30049e-18 7.5319e-18 -17.2261)
(-7.22278e-18 9.46224e-17 -17.5702)
(2.93277e-18 4.04014e-18 -17.8972)
(1.0807e-18 -3.71038e-17 -18.1852)
(-3.69848e-18 1.19406e-16 -18.4444)
(9.9924e-19 -6.63944e-17 -18.6294)
(4.92013e-18 1.36977e-16 -18.7295)
(-1.03113e-17 -1.04222e-16 -18.7195)
(1.682e-18 -1.82087e-18 -18.5709)
(4.1628e-17 2.29129e-16 -18.2759)
(-1.89063e-17 -9.49402e-17 -17.8106)
(3.5465e-17 1.51139e-16 -17.1837)
(9.52254e-18 4.08323e-17 -16.399)
(-5.39351e-17 -1.96172e-16 -15.4774)
(1.24504e-17 3.24168e-17 -14.439)
(-4.50272e-19 -3.31423e-18 -13.3229)
(-3.31246e-17 -9.6146e-17 -12.2031)
(-3.93758e-18 6.30242e-18 -11.0809)
(4.65393e-18 -7.71936e-19 -10.0775)
(1.31265e-18 -2.42125e-18 -9.25975)
(-2.75825e-18 -2.95155e-17 -8.61844)
(-4.90084e-19 1.49644e-18 -8.13563)
(1.41207e-18 -2.80575e-18 -7.81229)
(-1.03498e-18 1.96214e-17 -7.62746)
(-2.94569e-18 -1.98484e-17 -7.5667)
(-1.77585e-18 -2.22624e-17 -7.60663)
(1.53374e-18 -2.16761e-18 -7.71607)
(1.67323e-18 2.40903e-17 -7.86394)
(-6.31829e-19 -5.64839e-18 -8.02693)
(-1.27594e-18 -2.53474e-17 -8.18647)
(1.27546e-18 2.73991e-17 -8.32795)
(3.6655e-19 2.96473e-18 -8.44181)
(-2.12946e-18 2.90615e-18 -8.52376)
(1.84995e-18 -8.22531e-19 -8.57398)
(-1.75676e-20 -2.83682e-17 -8.59614)
(2.61122e-19 2.97388e-17 -8.59631)
(-2.25195e-19 -6.52491e-19 -8.58176)
(6.08452e-19 4.17824e-18 -8.55976)
(-3.51176e-19 -1.60078e-19 -8.53659)
(-3.15889e-20 -4.53081e-18 -8.51676)
(1.62178e-19 -1.52426e-17 -8.50263)
(-5.09894e-19 1.58781e-17 -8.49443)
(3.97905e-20 3.1097e-18 -8.49055)
(-6.78878e-20 -4.34417e-18 -8.4882)
(-7.05564e-20 2.38278e-19 -8.48407)
(-7.84703e-20 1.51431e-17 -8.47504)
(3.59627e-20 -1.54924e-17 -8.45858)
(-1.0017e-19 -4.02358e-18 -8.43316)
(3.59326e-19 -7.30377e-18 -8.39825)
(-2.22501e-19 7.39648e-18 -8.35417)
(9.42034e-20 -7.24181e-18 -8.3019)
(-1.48488e-19 7.25408e-18 -8.24276)
(-2.14374e-20 3.08578e-18 -8.17824)
(-8.27991e-20 3.47695e-18 -8.10985)
(2.85344e-20 -1.76723e-18 -8.03922)
(8.83173e-20 -5.52428e-18 -7.96807)
(-1.9008e-21 6.20306e-21 -7.87056)
(0 -0 2.34811)
(0 -0 2.34602)
(1.44317e-20 -1.63057e-18 2.12205)
(5.87908e-19 -2.80068e-18 1.52825)
(-6.14773e-19 6.05086e-18 0.773835)
(7.95679e-20 -4.76492e-18 -0.206904)
(4.29306e-18 -6.13169e-18 -1.13683)
(-7.80828e-18 1.55437e-17 -1.98261)
(2.76904e-18 -1.27139e-19 -2.72454)
(1.4577e-18 -1.84569e-17 -3.36085)
(-8.63866e-19 1.54389e-17 -3.82731)
(6.82764e-18 -3.12157e-18 -4.19371)
(-1.29972e-17 -6.18932e-18 -4.48117)
(1.39726e-17 -1.77208e-17 -4.69665)
(-1.43747e-17 1.87261e-17 -4.85985)
(5.75915e-18 2.87946e-17 -4.98718)
(1.51541e-18 -2.97998e-17 -5.0906)
(-6.37089e-19 6.18917e-18 -5.1786)
(3.43989e-19 -6.13668e-18 -5.25693)
(6.52986e-18 -1.06865e-17 -5.32897)
(-7.96414e-18 2.29698e-17 -5.39631)
(1.09865e-18 -6.14666e-18 -5.45944)
(-1.34529e-17 1.22067e-17 -5.51823)
(1.38669e-17 7.95602e-18 -5.57235)
(1.7806e-18 -6.43715e-17 -5.62152)
(-4.07073e-18 6.86094e-17 -5.66555)
(-6.26548e-19 1.89144e-17 -5.70434)
(2.00461e-18 -3.70745e-17 -5.73786)
(-9.96334e-18 -4.85425e-17 -5.76598)