/*--------------------------------*- C++ -*----------------------------------*\
| =========                 |                                                 |
| \\      /  F ield         | OpenFOAM: The Open Source CFD Toolbox           |
|  \\    /   O peration     | Version:  2506                                  |
|   \\  /    A nd           | Website:  www.openfoam.com                      |
|    \\/     M anipulation  |                                                 |
\*---------------------------------------------------------------------------*/
FoamFile
{
    version     2.0;
    format      ascii;
    arch        "LSB;label=32;scalar=64";
    class       volScalarField;
    location    "8.93055e-05";
    object      s;
}
// * * * * * * * * * * * * * * * * * * * * * * * * * * * * * * * * * * * * * //

dimensions      [0 0 0 0 0 0 0];

internalField   nonuniform List<scalar> 
4000
(
0.00333959
5.59843e-09
-1.77431e-09
-2.99585e-12
-2.49542e-15
-2.33993e-18
4.42355e-19
1.10813e-21
-1.2581e-22
-4.3176e-25
1.7169e-26
7.87307e-29
-2.40858e-30
-1.21906e-32
1.64433e-34
1.04284e-36
-1.24348e-38
-8.08156e-41
1.24463e-43
1.74174e-45
1.10987e-49
4.30605e-51
-1.6956e-51
-1.12036e-53
-4.04728e-56
-1.06089e-58
-2.25369e-61
-4.10892e-64
-6.65041e-67
-9.75901e-70
-1.31549e-72
-1.64076e-75
-1.89763e-78
-2.02837e-81
-1.95718e-84
-1.72961e-87
-1.47138e-90
-1.25065e-93
-1.08542e-96
-9.84699e-100
-9.58834e-103
-1.00652e-105
-1.12681e-108
-1.33207e-111
-1.64908e-114
-2.12962e-117
-2.86109e-120
-3.98305e-123
-5.72819e-126
-8.49259e-129
-1.29433e-131
-2.02341e-134
-3.23763e-137
-5.28795e-140
-8.79792e-143
-1.48606e-145
-2.54383e-148
-4.40044e-151
-7.66492e-154
-1.34664e-156
-2.36208e-159
-4.14622e-162
-7.24701e-165
-1.25615e-167
-2.16097e-170
-3.6589e-173
-6.12107e-176
-1.00311e-178
-1.6148e-181
-2.54053e-184
-3.90019e-187
-5.845e-190
-8.50363e-193
-1.20193e-195
-1.64734e-198
-2.18252e-201
-2.79401e-204
-3.45219e-207
-4.10575e-210
-4.69596e-213
-5.15999e-216
-5.43795e-219
-5.49065e-222
-5.30513e-225
-4.89753e-228
-4.31935e-231
-3.63573e-234
-2.91403e-237
-2.2268e-240
-1.62161e-243
-1.12211e-246
-7.39926e-250
-4.64583e-253
-2.7729e-256
-1.58048e-259
-8.58597e-263
-4.47541e-266
-2.23511e-269
-1.07866e-272
-5.02723e-276
-2.28838e-279
-1.01987e-282
-4.49502e-286
-1.97225e-289
-8.67902e-293
-3.86676e-296
-1.75449e-299
-8.1733e-303
-3.92791e-306
-1.95751e-309
-1.01552e-312
-5.4988e-316
0
0
0
0
0
0
0
0
0
0
0
0
0
0
0
0
0
0
0
0
0
0
0
0
0
0
0
0
0
0
0
0
0
0
0
0
0
0
0
0
0
0
0
0
0
0
0
0
0
0
0
0
0
0
0
0
0
0
0
0
0
0
0
0
0
0
0
0
0
0
0
0
0
0
0
0
0
0
0
0
0
0
0
0
0
0
0
0
0.00334883
5.65301e-09
-1.79207e-09
-3.03712e-12
-2.54133e-15
-2.3931e-18
4.50624e-19
1.13305e-21
-1.28688e-22
-4.43138e-25
1.76009e-26
8.1e-29
-2.47724e-30
-1.25809e-32
1.69454e-34
1.07874e-36
-1.28539e-38
-8.38512e-41
1.28183e-43
1.81052e-45
1.24377e-49
4.45711e-51
-1.76969e-51
-1.17339e-53
-4.25439e-56
-1.11955e-58
-2.38874e-61
-4.37748e-64
-7.12812e-67
-1.05378e-69
-1.43402e-72
-1.81178e-75
-2.13442e-78
-2.34788e-81
-2.3979e-84
-2.30633e-87
-2.16368e-90
-2.00235e-93
-1.856e-96
-1.75768e-99
-1.74128e-102
-1.80167e-105
-1.93877e-108
-2.17037e-111
-2.52361e-114
-3.04639e-117
-3.81633e-120
-4.95106e-123
-6.64959e-126
-9.22974e-129
-1.32112e-131
-1.94726e-134
-2.94677e-137
-4.5666e-140
-7.2287e-143
-1.16438e-145
-1.90275e-148
-3.14389e-151
-5.21463e-154
-8.66593e-157
-1.43473e-159
-2.35856e-162
-3.83126e-165
-6.11731e-168
-9.58421e-171
-1.46295e-173
-2.17794e-176
-3.1414e-179
-4.39507e-182
-5.94407e-185
-7.761e-188
-9.79309e-191
-1.19071e-193
-1.39699e-196
-1.58163e-199
-1.72641e-202
-1.81862e-205
-1.85003e-208
-1.81649e-211
-1.72242e-214
-1.57809e-217
-1.39697e-220
-1.19522e-223
-9.88491e-227
-7.89987e-230
-6.10505e-233
-4.56298e-236
-3.29425e-239
-2.3004e-242
-1.5547e-245
-1.0148e-248
-6.41292e-252
-3.92304e-255
-2.31969e-258
-1.33226e-261
-7.39884e-265
-4.00159e-268
-2.10186e-271
-1.07955e-274
-5.41595e-278
-2.67572e-281
-1.30335e-284
-6.30276e-288
-3.0392e-291
-1.47077e-294
-7.16984e-298
-3.54184e-301
-1.77828e-304
-9.11888e-308
-4.7868e-311
-2.5799e-314
-1.45838e-317
0
0
0
0
0
0
0
0
0
0
0
0
0
0
0
0
0
0
0
0
0
0
0
0
0
0
0
0
0
0
0
0
0
0
0
0
0
0
0
0
0
0
0
0
0
0
0
0
0
0
0
0
0
0
0
0
0
0
0
0
0
0
0
0
0
0
0
0
0
0
0
0
0
0
0
0
0
0
0
0
0
0
0
0
0
0
0
0
0.00335811
5.70297e-09
-1.80807e-09
-3.07426e-12
-2.58156e-15
-2.43946e-18
4.58675e-19
1.15715e-21
-1.31452e-22
-4.54159e-25
1.80292e-26
8.32704e-29
-2.54648e-30
-1.29808e-32
1.74689e-34
1.11673e-36
-1.33013e-38
-8.7148e-41
1.32226e-43
1.88777e-45
1.39683e-49
4.6369e-51
-1.85661e-51
-1.23685e-53
-4.50792e-56
-1.19312e-58
-2.56217e-61
-4.72956e-64
-7.76667e-67
-1.1597e-69
-1.59737e-72
-2.04882e-75
-2.46169e-78
-2.7817e-81
-2.95528e-84
-2.98951e-87
-2.94586e-90
-2.87554e-93
-2.85877e-96
-2.94264e-99
-3.18683e-102
-3.59697e-105
-4.21034e-108
-5.117e-111
-6.43789e-114
-8.3762e-117
-1.12482e-119
-1.55207e-122
-2.20112e-125
-3.19636e-128
-4.74113e-131
-7.17381e-134
-1.10255e-136
-1.72047e-139
-2.71522e-142
-4.33035e-145
-6.96103e-148
-1.12591e-150
-1.83186e-153
-2.99289e-156
-4.8945e-159
-8.00298e-162
-1.3061e-164
-2.12182e-167
-3.42583e-170
-5.47515e-173
-8.65049e-176
-1.34497e-178
-2.05508e-181
-3.07532e-184
-4.49604e-187
-6.41921e-190
-8.91439e-193
-1.20369e-195
-1.57824e-198
-2.00494e-201
-2.46643e-204
-2.93624e-207
-3.37745e-210
-3.75123e-213
-4.02091e-216
-4.15572e-219
-4.13914e-222
-3.97073e-225
-3.66545e-228
-3.25609e-231
-2.78268e-234
-2.2845e-237
-1.80295e-240
-1.36764e-243
-9.95974e-247
-6.9722e-250
-4.69541e-253
-3.04109e-256
-1.8993e-259
-1.14346e-262
-6.66058e-266
-3.75888e-269
-2.06416e-272
-1.10626e-275
-5.81615e-279
-3.01443e-282
-1.54889e-285
-7.93413e-289
-4.07834e-292
-2.11332e-295
-1.11233e-298
-5.9637e-302
-3.27592e-305
-1.84941e-308
-1.0768e-311
-6.47978e-315
-3.32451e-318
0
0
0
0
0
0
0
0
0
0
0
0
0
0
0
0
0
0
0
0
0
0
0
0
0
0
0
0
0
0
0
0
0
0
0
0
0
0
0
0
0
0
0
0
0
0
0
0
0
0
0
0
0
0
0
0
0
0
0
0
0
0
0
0
0
0
0
0
0
0
0
0
0
0
0
0
0
0
0
0
0
0
0
0
0
0
0
0.00336745
5.75002e-09
-1.82296e-09
-3.10816e-12
-2.61705e-15
-2.4798e-18
4.66461e-19
1.18015e-21
-1.34055e-22
-4.64519e-25
1.84403e-26
8.54304e-29
-2.61222e-30
-1.33587e-32
1.79707e-34
1.15298e-36
-1.3728e-38
-9.02988e-41
1.36156e-43
1.96204e-45
1.66093e-49
4.91757e-51
-1.94258e-51
-1.30041e-53
-4.7646e-56
-1.2685e-58
-2.74228e-61
-5.10111e-64
-8.4526e-67
-1.27576e-69
-1.78037e-72
-2.32102e-75
-2.84705e-78
-3.30455e-81
-3.63692e-84
-3.84229e-87
-3.97425e-90
-4.08921e-93
-4.26032e-96
-4.57998e-99
-5.15279e-102
-5.99938e-105
-7.18851e-108
-8.87699e-111
-1.12756e-113
-1.47307e-116
-1.97716e-119
-2.7171e-122
-3.82385e-125
-5.49484e-128
-8.04478e-131
-1.19851e-133
-1.81029e-136
-2.77065e-139
-4.28206e-142
-6.67685e-145
-1.04792e-147
-1.65301e-150
-2.61718e-153
-4.15392e-156
-6.59578e-159
-1.04642e-161
-1.65511e-164
-2.60311e-167
-4.06662e-170
-6.28186e-173
-9.59169e-176
-1.44034e-178
-2.12593e-181
-3.07365e-184
-4.34347e-187
-5.99851e-190
-8.06466e-193
-1.05558e-195
-1.34356e-198
-1.65964e-201
-1.98926e-204
-2.31253e-207
-2.60393e-210
-2.83886e-213
-2.99589e-216
-3.05813e-219
-3.01856e-222
-2.87999e-225
-2.654e-228
-2.36279e-231
-2.03182e-234
-1.68539e-237
-1.34985e-240
-1.04391e-243
-7.78531e-247
-5.60816e-250
-3.90365e-253
-2.62351e-256
-1.70775e-259
-1.07523e-262
-6.57619e-266
-3.90723e-269
-2.26618e-272
-1.28499e-275
-7.16459e-279
-3.94186e-282
-2.15229e-285
-1.17206e-288
-6.4024e-292
-3.52477e-295
-1.96738e-298
-1.11724e-301
-6.48459e-305
-3.85823e-308
-2.36004e-311
-1.48706e-314
-9.95601e-318
0
0
0
0
0
0
0
0
0
0
0
0
0
0
0
0
0
0
0
0
0
0
0
0
0
0
0
0
0
0
0
0
0
0
0
0
0
0
0
0
0
0
0
0
0
0
0
0
0
0
0
0
0
0
0
0
0
0
0
0
0
0
0
0
0
0
0
0
0
0
0
0
0
0
0
0
0
0
0
0
0
0
0
0
0
0
0
0.00337684
5.79818e-09
-1.83823e-09
-3.14312e-12
-2.65397e-15
-2.52203e-18
4.74477e-19
1.20399e-21
-1.3676e-22
-4.75344e-25
1.88692e-26
8.76992e-29
-2.68137e-30
-1.3759e-32
1.85026e-34
1.19169e-36
-1.41845e-38
-9.36944e-41
1.40369e-43
2.04297e-45
1.95174e-49
5.21823e-51
-2.03776e-51
-1.37146e-53
-5.05452e-56
-1.35456e-58
-2.95026e-61
-5.53526e-64
-9.264e-67
-1.4148e-69
-2.00246e-72
-2.65565e-75
-3.32672e-78
-3.96278e-81
-4.50389e-84
-4.94341e-87
-5.33317e-90
-5.73379e-93
-6.24634e-96
-7.00151e-99
-8.17608e-102
-9.83476e-105
-1.21213e-107
-1.53281e-110
-1.98521e-113
-2.6335e-116
-3.57477e-119
-4.94932e-122
-6.99027e-125
-1.00428e-127
-1.46462e-130
-2.16561e-133
-3.23561e-136
-4.88277e-139
-7.41946e-142
-1.13457e-144
-1.74279e-147
-2.68666e-150
-4.15299e-153
-6.43333e-156
-9.97441e-159
-1.5467e-161
-2.39519e-164
-3.69644e-167
-5.68067e-170
-8.65901e-173
-1.30875e-175
-1.95231e-178
-2.87232e-181
-4.154e-184
-5.89165e-187
-8.19162e-190
-1.11231e-192
-1.47459e-195
-1.906e-198
-2.39708e-201
-2.93194e-204
-3.48536e-207
-4.02128e-210
-4.50038e-213
-4.88356e-216
-5.13424e-219
-5.22752e-222
-5.15235e-225
-4.91223e-228
-4.53074e-231
-4.0421e-234
-3.48382e-237
-2.90328e-240
-2.33953e-243
-1.8209e-246
-1.37081e-249
-9.98639e-253
-7.03533e-256
-4.80753e-259
-3.18287e-262
-2.04995e-265
-1.28454e-268
-7.86746e-272
-4.71663e-275
-2.7831e-278
-1.62172e-281
-9.38267e-285
-5.41525e-288
-3.13521e-291
-1.82884e-294
-1.08091e-297
-6.49479e-301
-3.98454e-304
-2.50301e-307
-1.61437e-310
-1.071e-313
-7.28822e-317
0
0
0
0
0
0
0
0
0
0
0
0
0
0
0
0
0
0
0
0
0
0
0
0
0
0
0
0
0
0
0
0
0
0
0
0
0
0
0
0
0
0
0
0
0
0
0
0
0
0
0
0
0
0
0
0
0
0
0
0
0
0
0
0
0
0
0
0
0
0
0
0
0
0
0
0
0
0
0
0
0
0
0
0
0
0
0
0.00338628
5.84708e-09
-1.85375e-09
-3.17873e-12
-2.69175e-15
-2.56538e-18
4.82684e-19
1.2285e-21
-1.39544e-22
-4.86525e-25
1.93123e-26
9.00539e-29
-2.7532e-30
-1.41769e-32
1.90581e-34
1.23236e-36
-1.46644e-38
-9.72875e-41
1.44801e-43
2.12932e-45
2.27811e-49
5.54815e-51
-2.14073e-51
-1.44898e-53
-5.37365e-56
-1.4502e-58
-3.18374e-61
-6.02795e-64
-1.01955e-66
-1.5764e-69
-2.2639e-72
-3.05482e-75
-3.90679e-78
-4.77015e-81
-5.58381e-84
-6.34119e-87
-7.099e-90
-7.93004e-93
-8.97012e-96
-1.04152e-98
-1.25475e-101
-1.55105e-104
-1.95744e-107
-2.5248e-110
-3.32273e-113
-4.46197e-116
-6.10864e-119
-8.5e-122
-1.2023e-124
-1.72406e-127
-2.50145e-130
-3.66821e-133
-5.41997e-136
-8.06674e-139
-1.20606e-141
-1.81088e-144
-2.72666e-147
-4.11504e-150
-6.22184e-153
-9.42331e-156
-1.42856e-158
-2.16721e-161
-3.28669e-164
-4.97471e-167
-7.51092e-170
-1.12726e-172
-1.68132e-175
-2.48158e-178
-3.62175e-181
-5.21012e-184
-7.37026e-187
-1.02467e-189
-1.39495e-192
-1.8586e-195
-2.4202e-198
-3.07358e-201
-3.80461e-204
-4.58675e-207
-5.37821e-210
-6.1292e-213
-6.78601e-216
-7.29299e-219
-7.60476e-222
-7.69049e-225
-7.5368e-228
-7.15833e-231
-6.5881e-234
-5.86841e-237
-5.06337e-240
-4.23181e-243
-3.4225e-246
-2.68191e-249
-2.03725e-252
-1.49921e-255
-1.0719e-258
-7.4381e-262
-5.02877e-265
-3.31294e-268
-2.13607e-271
-1.3498e-274
-8.40299e-278
-5.16996e-281
-3.15976e-284
-1.92692e-287
-1.17872e-290
-7.26247e-294
-4.53098e-297
-2.87156e-300
-1.85618e-303
-1.22709e-306
-8.31758e-310
-5.79078e-313
-4.15029e-316
0
0
0
0
0
0
0
0
0
0
0
0
0
0
0
0
0
0
0
0
0
0
0
0
0
0
0
0
0
0
0
0
0
0
0
0
0
0
0
0
0
0
0
0
0
0
0
0
0
0
0
0
0
0
0
0
0
0
0
0
0
0
0
0
0
0
0
0
0
0
0
0
0
0
0
0
0
0
0
0
0
0
0
0
0
0
0
0.00339577
5.89666e-09
-1.86948e-09
-3.21496e-12
-2.73033e-15
-2.60983e-18
4.91087e-19
1.2537e-21
-1.42405e-22
-4.98069e-25
1.97699e-26
9.2496e-29
-2.82773e-30
-1.46126e-32
1.96376e-34
1.27501e-36
-1.5168e-38
-1.01081e-40
1.49442e-43
2.22109e-45
2.6405e-49
5.9073e-51
-2.25152e-51
-1.53302e-53
-5.72243e-56
-1.55563e-58
-3.4435e-61
-6.58152e-64
-1.12533e-66
-1.76195e-69
-2.56772e-72
-3.52463e-75
-4.59883e-78
-5.74758e-81
-6.9131e-84
-8.09542e-87
-9.36472e-90
-1.08162e-92
-1.26409e-95
-1.51267e-98
-1.87114e-101
-2.36698e-104
-3.04763e-107
-3.99713e-110
-5.33088e-113
-7.22998e-116
-9.96329e-119
-1.39101e-121
-1.96782e-124
-2.81356e-127
-4.05856e-130
-5.90074e-133
-8.62269e-136
-1.26626e-138
-1.86425e-141
-2.75147e-144
-4.06655e-147
-6.01736e-150
-8.91361e-153
-1.32206e-155
-1.96263e-158
-2.91656e-161
-4.33569e-164
-6.43978e-167
-9.55341e-170
-1.41126e-172
-2.07558e-175
-3.02749e-178
-4.3761e-181
-6.24994e-184
-8.79877e-187
-1.22026e-189
-1.6612e-192
-2.2185e-195
-2.90218e-198
-3.71117e-201
-4.63577e-204
-5.65152e-207
-6.71518e-210
-7.77062e-213
-8.75282e-216
-9.58864e-219
-1.02111e-221
-1.05654e-224
-1.06139e-227
-1.03523e-230
-9.80181e-234
-8.99892e-237
-8.01703e-240
-6.93049e-243
-5.80844e-246
-4.72484e-249
-3.7323e-252
-2.86128e-255
-2.13463e-258
-1.54829e-261
-1.09579e-264
-7.56877e-268
-5.12308e-271
-3.40273e-274
-2.22863e-277
-1.44369e-280
-9.29461e-284
-5.97215e-287
-3.84891e-290
-2.49768e-293
-1.64021e-296
-1.09328e-299
-7.42482e-303
-5.15083e-306
-3.65885e-309
-2.66572e-312
-1.99558e-315
-1.68955e-318
0
0
0
0
0
0
0
0
0
0
0
0
0
0
0
0
0
0
0
0
0
0
0
0
0
0
0
0
0
0
0
0
0
0
0
0
0
0
0
0
0
0
0
0
0
0
0
0
0
0
0
0
0
0
0
0
0
0
0
0
0
0
0
0
0
0
0
0
0
0
0
0
0
0
0
0
0
0
0
0
0
0
0
0
0
0
0.00340532
5.94687e-09
-1.88543e-09
-3.2518e-12
-2.7697e-15
-2.65534e-18
4.99683e-19
1.27956e-21
-1.45345e-22
-5.09971e-25
2.02417e-26
9.5025e-29
-2.90494e-30
-1.5066e-32
2.02406e-34
1.31962e-36
-1.56949e-38
-1.05072e-40
1.54282e-43
2.31822e-45
3.03977e-49
6.29593e-51
-2.37004e-51
-1.62354e-53
-6.10089e-56
-1.67093e-58
-3.72999e-61
-7.19762e-64
-1.24421e-66
-1.97271e-69
-2.91677e-72
-4.07108e-75
-5.41471e-78
-6.9172e-81
-8.53082e-84
-1.02717e-86
-1.22352e-89
-1.45546e-92
-1.75011e-95
-2.14953e-98
-2.71967e-101
-3.5087e-104
-4.59544e-107
-6.11277e-110
-8.24333e-113
-1.12697e-115
-1.56066e-118
-2.18319e-121
-3.08551e-124
-4.39519e-127
-6.30015e-130
-9.07978e-133
-1.31239e-135
-1.90245e-138
-2.76009e-141
-4.00826e-144
-5.82181e-147
-8.45784e-150
-1.2292e-152
-1.7879e-155
-2.60251e-158
-3.7927e-161
-5.53152e-164
-8.06683e-167
-1.1761e-169
-1.7098e-172
-2.47824e-175
-3.56904e-178
-5.10293e-181
-7.224e-184
-1.01025e-186
-1.39471e-189
-1.89437e-192
-2.5297e-195
-3.31623e-198
-4.25889e-201
-5.35427e-204
-6.58308e-207
-7.90512e-210
-9.26326e-213
-1.05868e-215
-1.17903e-218
-1.27885e-221
-1.35027e-224
-1.3868e-227
-1.38541e-230
-1.34597e-233
-1.27032e-236
-1.16552e-239
-1.03947e-242
-9.00464e-246
-7.58415e-249
-6.21398e-252
-4.94998e-255
-3.84347e-258
-2.90643e-261
-2.14779e-264
-1.55135e-267
-1.09948e-270
-7.65587e-274
-5.26156e-277
-3.57925e-280
-2.421e-283
-1.63469e-286
-1.10702e-289
-7.54611e-293
-5.20215e-296
-3.63718e-299
-2.58828e-302
-1.87923e-305
-1.3952e-308
-1.0609e-311
-8.27814e-315
-6.74228e-318
0
0
0
0
0
0
0
0
0
0
0
0
0
0
0
0
0
0
0
0
0
0
0
0
0
0
0
0
0
0
0
0
0
0
0
0
0
0
0
0
0
0
0
0
0
0
0
0
0
0
0
0
0
0
0
0
0
0
0
0
0
0
0
0
0
0
0
0
0
0
0
0
0
0
0
0
0
0
0
0
0
0
0
0
0
0
0.00341492
5.99771e-09
-1.90157e-09
-3.28922e-12
-2.80984e-15
-2.7019e-18
5.08472e-19
1.30611e-21
-1.48362e-22
-5.22231e-25
2.07277e-26
9.76399e-29
-2.98479e-30
-1.55368e-32
2.08667e-34
1.36616e-36
-1.62445e-38
-1.09257e-40
1.5931e-43
2.42056e-45
3.47636e-49
6.71391e-51
-2.49609e-51
-1.72043e-53
-6.50862e-56
-1.79603e-58
-4.04326e-61
-7.87699e-64
-1.3765e-66
-2.20963e-69
-3.31346e-72
-4.69969e-75
-6.3659e-78
-8.30116e-81
-1.04774e-83
-1.29399e-86
-1.58256e-89
-1.93271e-92
-2.38299e-95
-2.9942e-98
-3.86306e-101
-5.06884e-104
-6.73677e-107
-9.06919e-110
-1.23437e-112
-1.69836e-115
-2.36029e-118
-3.30452e-121
-4.66159e-124
-6.61124e-127
-9.41339e-130
-1.34466e-132
-1.92273e-135
-2.7525e-138
-3.93785e-141
-5.63185e-144
-8.04738e-147
-1.14918e-149
-1.6406e-152
-2.34302e-155
-3.34803e-158
-4.78968e-161
-6.85898e-164
-9.82662e-167
-1.40837e-169
-2.01485e-172
-2.87704e-175
-4.08803e-178
-5.77572e-181
-8.09409e-184
-1.12265e-186
-1.54012e-189
-2.08302e-192
-2.7755e-195
-3.6379e-198
-4.68113e-201
-5.90879e-204
-7.30872e-207
-8.84754e-210
-1.04723e-212
-1.21131e-215
-1.36794e-218
-1.50744e-221
-1.62011e-224
-1.6969e-227
-1.73197e-230
-1.72231e-233
-1.66693e-236
-1.57123e-239
-1.44217e-242
-1.28817e-245
-1.12065e-248
-9.50077e-252
-7.84501e-255
-6.32447e-258
-4.97413e-261
-3.82876e-264
-2.88498e-267
-2.13571e-270
-1.55525e-273
-1.11885e-276
-7.97313e-280
-5.65215e-283
-4.00064e-286
-2.83977e-289
-2.02837e-292
-1.46429e-295
-1.07121e-298
-7.96765e-302
-6.03934e-305
-4.6746e-308
-3.70051e-311
-3.00086e-314
-2.52242e-317
0
0
0
0
0
0
0
0
0
0
0
0
0
0
0
0
0
0
0
0
0
0
0
0
0
0
0
0
0
0
0
0
0
0
0
0
0
0
0
0
0
0
0
0
0
0
0
0
0
0
0
0
0
0
0
0
0
0
0
0
0
0
0
0
0
0
0
0
0
0
0
0
0
0
0
0
0
0
0
0
0
0
0
0
0
0
0.00342457
6.04915e-09
-1.91791e-09
-3.32722e-12
-2.85073e-15
-2.7495e-18
5.17452e-19
1.33332e-21
-1.51455e-22
-5.34842e-25
2.12276e-26
1.00339e-28
-3.06723e-30
-1.60247e-32
2.15153e-34
1.41459e-36
-1.68162e-38
-1.13631e-40
1.64511e-43
2.52793e-45
3.95019e-49
7.1606e-51
-2.62938e-51
-1.82344e-53
-6.94475e-56
-1.93072e-58
-4.3829e-61
-8.6193e-64
-1.5223e-66
-2.47321e-69
-3.7595e-72
-5.4149e-75
-7.46251e-78
-9.92028e-81
-1.27927e-83
-1.61721e-86
-2.02585e-89
-2.53336e-92
-3.19424e-95
-4.0951e-98
-5.37439e-101
-7.15653e-104
-9.63312e-107
-1.31023e-109
-1.79716e-112
-2.48527e-115
-3.4622e-118
-4.84669e-121
-6.81923e-124
-9.62388e-127
-1.36073e-129
-1.92642e-132
-2.72555e-135
-3.85472e-138
-5.44141e-141
-7.67014e-144
-1.07922e-146
-1.51642e-149
-2.1289e-152
-2.98845e-155
-4.19623e-158
-5.89831e-161
-8.29959e-164
-1.16873e-166
-1.64711e-169
-2.31894e-172
-3.26128e-175
-4.56967e-178
-6.37457e-181
-8.83391e-184
-1.21364e-186
-1.65193e-189
-2.221e-192
-2.94733e-195
-3.85484e-198
-4.95952e-201
-6.27164e-204
-7.78684e-207
-9.48081e-210
-1.13087e-212
-1.32075e-215
-1.50889e-218
-1.68533e-221
-1.83934e-224
-1.96007e-227
-2.03918e-230
-2.07074e-233
-2.05044e-236
-1.98098e-239
-1.86698e-242
-1.71555e-245
-1.53805e-248
-1.34615e-251
-1.14959e-254
-9.60067e-258
-7.83557e-261
-6.26814e-264
-4.916e-267
-3.79271e-270
-2.88188e-273
-2.16527e-276
-1.61274e-279
-1.19548e-282
-8.8499e-286
-6.56948e-289
-4.90559e-292
-3.69986e-295
-2.8255e-298
-2.19152e-301
-1.73013e-304
-1.39287e-307
-1.1452e-310
-9.62991e-314
-8.38841e-317
0
0
0
0
0
0
0
0
0
0
0
0
0
0
0
0
0
0
0
0
0
0
0
0
0
0
0
0
0
0
0
0
0
0
0
0
0
0
0
0
0
0
0
0
0
0
0
0
0
0
0
0
0
0
0
0
0
0
0
0
0
0
0
0
0
0
0
0
0
0
0
0
0
0
0
0
0
0
0
0
0
0
0
0
0
0
0.00343428
6.10121e-09
-1.93445e-09
-3.3658e-12
-2.89238e-15
-2.79812e-18
5.2662e-19
1.36119e-21
-1.54623e-22
-5.478e-25
2.1741e-26
1.03122e-28
-3.15217e-30
-1.65293e-32
2.21855e-34
1.46484e-36
-1.7409e-38
-1.18187e-40
1.69873e-43
2.64009e-45
4.46059e-49
7.63489e-51
-2.76949e-51
-1.93227e-53
-7.40789e-56
-2.07457e-58
-4.74796e-61
-9.42283e-64
-1.68138e-66
-2.76339e-69
-4.25556e-72
-6.21946e-75
-8.71212e-78
-1.17922e-80
-1.55135e-83
-2.0039e-86
-2.56608e-89
-3.27888e-92
-4.21873e-95
-5.5071e-98
-7.33804e-101
-9.89948e-104
-1.34755e-106
-1.84928e-109
-2.55316e-112
-3.54484e-115
-4.94547e-118
-6.91671e-121
-9.70011e-124
-1.36164e-126
-1.91132e-129
-2.68167e-132
-3.7547e-135
-5.24809e-138
-7.31374e-141
-1.01679e-143
-1.40992e-146
-1.95104e-149
-2.69604e-152
-3.7234e-155
-5.14206e-158
-7.10722e-161
-9.83309e-164
-1.36169e-166
-1.88758e-169
-2.61543e-172
-3.62217e-175
-5.00288e-178
-6.88623e-181
-9.42852e-184
-1.28163e-186
-1.72861e-189
-2.3069e-192
-3.04393e-195
-3.96563e-198
-5.0917e-201
-6.43786e-204
-8.00699e-207
-9.78459e-210
-1.17363e-212
-1.38096e-215
-1.59254e-218
-1.79892e-221
-1.98929e-224
-2.15201e-227
-2.27704e-230
-2.35604e-233
-2.38162e-236
-2.35326e-239
-2.27234e-242
-2.14341e-245
-1.97609e-248
-1.78172e-251
-1.5703e-254
-1.35566e-257
-1.14573e-260
-9.50523e-264
-7.74305e-267
-6.21264e-270
-4.91542e-273
-3.84903e-276
-2.99007e-279
-2.31278e-282
-1.78687e-285
-1.38422e-288
-1.07828e-291
-8.4783e-295
-6.74439e-298
-5.44308e-301
-4.46585e-304
-3.7313e-307
-3.17922e-310
-2.76602e-313
-2.4437e-316
0
0
0
0
0
0
0
0
0
0
0
0
0
0
0
0
0
0
0
0
0
0
0
0
0
0
0
0
0
0
0
0
0
0
0
0
0
0
0
0
0
0
0
0
0
0
0
0
0
0
0
0
0
0
0
0
0
0
0
0
0
0
0
0
0
0
0
0
0
0
0
0
0
0
0
0
0
0
0
0
0
0
0
0
0
0
0.00344405
6.15389e-09
-1.95118e-09
-3.40495e-12
-2.93478e-15
-2.84776e-18
5.35977e-19
1.38971e-21
-1.57864e-22
-5.61099e-25
2.22678e-26
1.05985e-28
-3.23955e-30
-1.70499e-32
2.28766e-34
1.51683e-36
-1.80218e-38
-1.22914e-40
1.75379e-43
2.75673e-45
5.00622e-49
8.13514e-51
-2.9159e-51
-2.04647e-53
-7.89608e-56
-2.22695e-58
-5.13685e-61
-1.02843e-63
-1.85315e-66
-3.07934e-69
-4.80083e-72
-7.11358e-75
-1.01184e-77
-1.39287e-80
-1.86695e-83
-2.46047e-86
-3.21567e-89
-4.19154e-92
-5.49424e-95
-7.29165e-98
-9.85073e-101
-1.34468e-103
-1.84897e-106
-2.55754e-109
-3.55071e-112
-4.94517e-115
-6.90352e-118
-9.63951e-121
-1.3467e-123
-1.87953e-126
-2.61861e-129
-3.64098e-132
-5.04564e-135
-6.9721e-138
-9.59674e-141
-1.31666e-143
-1.80053e-146
-2.45566e-149
-3.34276e-152
-4.5456e-155
-6.17883e-158
-8.4036e-161
-1.14386e-163
-1.55841e-166
-2.12546e-169
-2.89873e-172
-3.95291e-175
-5.38008e-178
-7.30333e-181
-9.87255e-184
-1.32658e-186
-1.771e-189
-2.34299e-192
-3.06961e-195
-3.97726e-198
-5.08773e-201
-6.42051e-204
-7.98438e-207
-9.77395e-210
-1.17658e-212
-1.39201e-215
-1.61712e-218
-1.84359e-221
-2.06142e-224
-2.25917e-227
-2.42615e-230
-2.55257e-233
-2.62869e-236
-2.65103e-239
-2.61744e-242
-2.52931e-245
-2.39314e-248
-2.21843e-251
-2.01383e-254
-1.79368e-257
-1.56669e-260
-1.34534e-263
-1.13609e-266
-9.46155e-270
-7.7797e-273
-6.33675e-276
-5.1243e-279
-4.12781e-282
-3.32196e-285
-2.68023e-288
-2.17377e-291
-1.77832e-294
-1.47062e-297
-1.23248e-300
-1.04878e-303
-9.07558e-307
-7.99699e-310
-7.18368e-313
-6.57933e-316
0
0
0
0
0
0
0
0
0
0
0
0
0
0
0
0
0
0
0
0
0
0
0
0
0
0
0
0
0
0
0
0
0
0
0
0
0
0
0
0
0
0
0
0
0
0
0
0
0
0
0
0
0
0
0
0
0
0
0
0
0
0
0
0
0
0
0
0
0
0
0
0
0
0
0
0
0
0
0
0
0
0
0
0
0
0
0.00345387
6.20719e-09
-1.96812e-09
-3.44468e-12
-2.97792e-15
-2.89843e-18
5.45519e-19
1.41888e-21
-1.61179e-22
-5.74732e-25
2.28075e-26
1.08926e-28
-3.32927e-30
-1.75861e-32
2.35874e-34
1.57048e-36
-1.86536e-38
-1.27804e-40
1.81012e-43
2.8775e-45
5.585e-49
8.65919e-51
-3.068e-51
-2.1655e-53
-8.40683e-56
-2.38704e-58
-5.54732e-61
-1.11984e-63
-2.0366e-66
-3.41927e-69
-5.39266e-72
-8.09407e-75
-1.16791e-77
-1.63332e-80
-2.22785e-83
-2.99193e-86
-3.98583e-89
-5.2934e-92
-7.06062e-95
-9.51665e-98
-1.3023e-100
-1.79732e-103
-2.49451e-106
-3.47525e-109
-4.84812e-112
-6.76797e-115
-9.44741e-118
-1.31615e-120
-1.83076e-123
-2.5394e-126
-3.51077e-129
-4.83725e-132
-6.63543e-135
-9.06674e-138
-1.23312e-140
-1.67047e-143
-2.25417e-146
-3.0321e-149
-4.06871e-152
-5.45152e-155
-7.29861e-158
-9.77368e-161
-1.3095e-163
-1.75595e-166
-2.35692e-169
-3.16417e-172
-4.24842e-175
-5.69661e-178
-7.6232e-181
-1.01679e-183
-1.34953e-186
-1.78158e-189
-2.334e-192
-3.03234e-195
-3.90214e-198
-4.96576e-201
-6.24464e-204
-7.75167e-207
-9.48906e-210
-1.14434e-212
-1.35878e-215
-1.58716e-218
-1.8227e-221
-2.05683e-224
-2.27919e-227
-2.47945e-230
-2.64743e-233
-2.77219e-236
-2.84803e-239
-2.86974e-242
-2.83556e-245
-2.74826e-248
-2.6144e-251
-2.43997e-254
-2.23805e-257
-2.01665e-260
-1.78923e-263
-1.56351e-266
-1.34916e-269
-1.15082e-272
-9.73319e-276
-8.17883e-279
-6.84916e-282
-5.73131e-285
-4.80749e-288
-4.05219e-291
-3.44286e-294
-2.95438e-297
-2.56637e-300
-2.26075e-303
-2.02232e-306
-1.83933e-309
-1.70262e-312
-1.60437e-315
-1.70158e-318
0
0
0
0
0
0
0
0
0
0
0
0
0
0
0
0
0
0
0
0
0
0
0
0
0
0
0
0
0
0
0
0
0
0
0
0
0
0
0
0
0
0
0
0
0
0
0
0
0
0
0
0
0
0
0
0
0
0
0
0
0
0
0
0
0
0
0
0
0
0
0
0
0
0
0
0
0
0
0
0
0
0
0
0
0
0.00346375
6.26113e-09
-1.98526e-09
-3.485e-12
-3.02184e-15
-2.95013e-18
5.55249e-19
1.4487e-21
-1.64566e-22
-5.88695e-25
2.33599e-26
1.11944e-28
-3.42126e-30
-1.81371e-32
2.43169e-34
1.62569e-36
-1.93029e-38
-1.32843e-40
1.86755e-43
3.00201e-45
6.19405e-49
9.20436e-51
-3.22506e-51
-2.28874e-53
-8.9371e-56
-2.55377e-58
-5.9764e-61
-1.21582e-63
-2.23021e-66
-3.7803e-69
-6.02606e-72
-9.15332e-75
-1.33844e-77
-1.89958e-80
-2.63392e-83
-3.60082e-86
-4.8851e-89
-6.60458e-92
-8.95838e-95
-1.22561e-97
-1.69813e-100
-2.36851e-103
-3.31669e-106
-4.6516e-109
-6.51664e-112
-9.11246e-115
-1.27103e-117
-1.76555e-120
-2.44385e-123
-3.36762e-126
-4.61889e-129
-6.30586e-132
-8.5628e-135
-1.15723e-137
-1.55566e-140
-2.0817e-143
-2.77339e-146
-3.68129e-149
-4.87248e-152
-6.43641e-155
-8.49222e-158
-1.12028e-160
-1.47812e-163
-1.95148e-166
-2.57846e-169
-3.40788e-172
-4.50498e-175
-5.95e-178
-7.8465e-181
-1.03213e-183
-1.3522e-186
-1.76381e-189
-2.28598e-192
-2.94196e-195
-3.75542e-198
-4.74795e-201
-5.94136e-204
-7.3508e-207
-8.98408e-210
-1.08361e-212
-1.28915e-215
-1.51145e-218
-1.74542e-221
-1.98423e-224
-2.21918e-227
-2.44113e-230
-2.64052e-233
-2.80638e-236
-2.93184e-239
-3.00956e-242
-3.03536e-245
-3.00834e-248
-2.93178e-251
-2.80828e-254
-2.64823e-257
-2.45764e-260
-2.24918e-263
-2.03051e-266
-1.81249e-269
-1.60128e-272
-1.40397e-275
-1.22395e-278
-1.06383e-281
-9.24127e-285
-8.04599e-288
-7.03672e-291
-6.19887e-294
-5.51049e-297
-4.9531e-300
-4.5091e-303
-4.16232e-306
-3.90059e-309
-3.71402e-312
-3.59359e-315
-3.39284e-318
0
0
0
0
0
0
0
0
0
0
0
0
0
0
0
0
0
0
0
0
0
0
0
0
0
0
0
0
0
0
0
0
0
0
0
0
0
0
0
0
0
0
0
0
0
0
0
0
0
0
0
0
0
0
0
0
0
0
0
0
0
0
0
0
0
0
0
0
0
0
0
0
0
0
0
0
0
0
0
0
0
0
0
0
0
0.00347368
6.31575e-09
-2.00262e-09
-3.52594e-12
-3.06655e-15
-3.00289e-18
5.65168e-19
1.47916e-21
-1.68024e-22
-6.02984e-25
2.39246e-26
1.15036e-28
-3.51542e-30
-1.87023e-32
2.5064e-34
1.68237e-36
-1.99683e-38
-1.3802e-40
1.92587e-43
3.12982e-45
6.82956e-49
9.76748e-51
-3.3863e-51
-2.41546e-53
-9.48335e-56
-2.72589e-58
-6.42043e-61
-1.31544e-63
-2.43193e-66
-4.15831e-69
-6.69339e-72
-1.02782e-74
-1.52139e-77
-2.18889e-80
-3.08217e-83
-4.28563e-86
-5.91709e-89
-8.1406e-92
-1.12262e-94
-1.55892e-97
-2.18705e-100
-3.08302e-103
-4.35554e-106
-6.14769e-109
-8.64467e-112
-1.21004e-114
-1.68526e-117
-2.33253e-120
-3.21103e-123
-4.39393e-126
-5.97709e-129
-8.08449e-132
-1.08676e-134
-1.45288e-137
-1.93097e-140
-2.55332e-143
-3.35994e-146
-4.40312e-149
-5.75127e-152
-7.49397e-155
-9.74885e-158
-1.26746e-160
-1.64748e-163
-2.1422e-166
-2.78682e-169
-3.62644e-172
-4.71974e-175
-6.13913e-178
-7.9758e-181
-1.03421e-183
-1.33666e-186
-1.72151e-189
-2.20541e-192
-2.80881e-195
-3.5528e-198
-4.45727e-201
-5.54307e-204
-6.82602e-207
-8.31753e-210
-1.00186e-212
-1.19235e-215
-1.40095e-218
-1.62418e-221
-1.85702e-224
-2.09274e-227
-2.32386e-230
-2.54221e-233
-2.7378e-236
-2.90366e-239
-3.03151e-242
-3.11578e-245
-3.15269e-248
-3.14259e-251
-3.0847e-254
-2.98602e-257
-2.84969e-260
-2.68612e-263
-2.50157e-266
-2.30652e-269
-2.10749e-272
-1.91284e-275
-1.72756e-278
-1.55626e-281
-1.40138e-284
-1.26461e-287
-1.14586e-290
-1.04506e-293
-9.6093e-297
-8.92368e-300
-8.38213e-303
-7.97173e-306
-7.6846e-309
-7.51391e-312
-7.45256e-315
-6.76518e-318
0
0
0
0
0
0
0
0
0
0
0
0
0
0
0
0
0
0
0
0
0
0
0
0
0
0
0
0
0
0
0
0
0
0
0
0
0
0
0
0
0
0
0
0
0
0
0
0
0
0
0
0
0
0
0
0
0
0
0
0
0
0
0
0
0
0
0
0
0
0
0
0
0
0
0
0
0
0
0
0
0
0
0
0
0
0.00348367
6.37113e-09
-2.02023e-09
-3.56756e-12
-3.1121e-15
-3.05676e-18
5.75283e-19
1.51028e-21
-1.71555e-22
-6.17597e-25
2.45015e-26
1.182e-28
-3.61168e-30
-1.92811e-32
2.58274e-34
1.7404e-36
-2.06485e-38
-1.43322e-40
1.98485e-43
3.26044e-45
7.48663e-49
1.0345e-50
-3.55086e-51
-2.54489e-53
-1.00417e-55
-2.90195e-58
-6.87511e-61
-1.4176e-63
-2.63923e-66
-4.54789e-69
-7.38406e-72
-1.14495e-74
-1.71348e-77
-2.49611e-80
-3.56554e-83
-5.03853e-86
-7.07708e-89
-9.90807e-92
-1.38968e-94
-1.95985e-97
-2.78581e-100
-3.97112e-103
-5.66145e-106
-8.04109e-109
-1.13434e-111
-1.5882e-114
-2.20681e-117
-3.04106e-120
-4.16089e-123
-5.65127e-126
-7.62198e-129
-1.02121e-131
-1.35893e-134
-1.79731e-137
-2.36216e-140
-3.08741e-143
-4.0143e-146
-5.19578e-149
-6.70019e-152
-8.61543e-155
-1.10549e-157
-1.41701e-160
-1.81511e-163
-2.32507e-166
-2.97859e-169
-3.81648e-172
-4.89007e-175
-6.26333e-178
-8.01432e-181
-1.02401e-183
-1.30499e-186
-1.65843e-189
-2.09851e-192
-2.64266e-195
-3.309e-198
-4.11513e-201
-5.08001e-204
-6.21892e-207
-7.54503e-210
-9.06352e-213
-1.07755e-215
-1.26692e-218
-1.47236e-221
-1.69053e-224
-1.91667e-227
-2.14518e-230
-2.36968e-233
-2.5819e-236
-2.77564e-239
-2.94282e-242
-3.07762e-245
-3.17454e-248
-3.23188e-251
-3.24619e-254
-3.22114e-257
-3.15691e-260
-3.06078e-263
-2.93666e-266
-2.79328e-269
-2.63625e-272
-2.47385e-275
-2.31167e-278
-2.15559e-281
-2.00958e-284
-1.87723e-287
-1.76002e-290
-1.65967e-293
-1.57639e-296
-1.51036e-299
-1.46175e-302
-1.43019e-305
-1.41608e-308
-1.4197e-311
-1.44176e-314
-1.51758e-317
0
0
0
0
0
0
0
0
0
0
0
0
0
0
0
0
0
0
0
0
0
0
0
0
0
0
0
0
0
0
0
0
0
0
0
0
0
0
0
0
0
0
0
0
0
0
0
0
0
0
0
0
0
0
0
0
0
0
0
0
0
0
0
0
0
0
0
0
0
0
0
0
0
0
0
0
0
0
0
0
0
0
0
0
0
0.00349372
6.42745e-09
-2.03816e-09
-3.6101e-12
-3.15875e-15
-3.11196e-18
5.85606e-19
1.54207e-21
-1.7516e-22
-6.32535e-25
2.50902e-26
1.21434e-28
-3.7099e-30
-1.98724e-32
2.66051e-34
1.79962e-36
-2.13413e-38
-1.48727e-40
2.04417e-43
3.39321e-45
8.15988e-49
1.09347e-50
-3.71777e-51
-2.67612e-53
-1.06075e-55
-3.0803e-58
-7.33551e-61
-1.52101e-63
-2.84903e-66
-4.94237e-69
-8.08444e-72
-1.26408e-74
-1.90991e-77
-2.81309e-80
-4.07126e-83
-5.84213e-86
-8.34657e-89
-1.18976e-91
-1.69901e-94
-2.43656e-97
-3.51376e-100
-5.07059e-103
-7.29951e-106
-1.04321e-108
-1.47538e-111
-2.06419e-114
-2.85866e-117
-3.91863e-120
-5.32507e-123
-7.17471e-126
-9.59079e-129
-1.27262e-131
-1.67629e-134
-2.19344e-137
-2.85115e-140
-3.68431e-143
-4.7347e-146
-6.05457e-149
-7.71064e-152
-9.78746e-155
-1.23902e-157
-1.56614e-160
-1.97736e-163
-2.49555e-166
-3.14835e-169
-3.97182e-172
-5.00941e-175
-6.31617e-178
-7.95675e-181
-1.00127e-183
-1.25732e-186
-1.57542e-189
-1.96714e-192
-2.44679e-195
-3.0293e-198
-3.72946e-201
-4.56362e-204
-5.54537e-207
-6.68803e-210
-7.99883e-213
-9.48328e-216
-1.11376e-218
-1.29516e-221
-1.49064e-224
-1.69722e-227
-1.91117e-230
-2.12808e-233
-2.34182e-236
-2.54763e-239
-2.73856e-242
-2.90967e-245
-3.055e-248
-3.17197e-251
-3.2557e-254
-3.30723e-257
-3.32442e-260
-3.31136e-263
-3.26931e-266
-3.20437e-269
-3.12031e-272
-3.02404e-275
-2.92059e-278
-2.81602e-281
-2.71492e-284
-2.62257e-287
-2.54139e-290
-2.47494e-293
-2.42531e-296
-2.39443e-299
-2.38455e-302
-2.39687e-305
-2.43407e-308
-2.49828e-311
-2.59266e-314
-2.68984e-317
0
0
0
0
0
0
0
0
0
0
0
0
0
0
0
0
0
0
0
0
0
0
0
0
0
0
0
0
0
0
0
0
0
0
0
0
0
0
0
0
0
0
0
0
0
0
0
0
0
0
0
0
0
0
0
0
0
0
0
0
0
0
0
0
0
0
0
0
0
0
0
0
0
0
0
0
0
0
0
0
0
0
0
0
0
0.00350383
6.48474e-09
-2.05636e-09
-3.65259e-12
-3.20434e-15
-3.16575e-18
5.96079e-19
1.57429e-21
-1.78773e-22
-6.47592e-25
2.56854e-26
1.2472e-28
-3.80973e-30
-2.04768e-32
2.74034e-34
1.86063e-36
-2.2055e-38