/*--------------------------------*- C++ -*----------------------------------*\
| =========                 |                                                 |
| \\      /  F ield         | OpenFOAM: The Open Source CFD Toolbox           |
|  \\    /   O peration     | Version:  2506                                  |
|   \\  /    A nd           | Website:  www.openfoam.com                      |
|    \\/     M anipulation  |                                                 |
\*---------------------------------------------------------------------------*/
FoamFile
{
    version     2.0;
    format      ascii;
    arch        "LSB;label=32;scalar=64";
    class       volScalarField;
    location    "5";
    object      p;
}
// * * * * * * * * * * * * * * * * * * * * * * * * * * * * * * * * * * * * * //

dimensions      [0 2 -2 0 0 0 0];

internalField   nonuniform List<scalar> 
4000
(
0.000554681
0.000496759
0.000465403
0.00045185
0.000443641
0.000437918
0.000433921
0.000430915
0.000428425
0.000426226
0.000424216
0.000422335
0.000420552
0.000418846
0.000417208
0.000415631
0.000414114
0.000412657
0.00041126
0.000409927
0.000408661
0.000407465
0.000406345
0.000405306
0.000404354
0.000403495
0.000402737
0.000402088
0.000401554
0.000401145
0.000400871
0.000400749
0.000400794
0.000400897
0.000401518
0.000402554
0.000403277
0.000403524
0.000403264
0.000402238
0.000400156
0.000395841
0.000389265
0.000381127
0.000371443
0.000360405
0.00034814
0.000334559
0.000320299
0.000305256
0.000289702
0.00027415
0.000258419
0.000243461
0.00022883
0.000215541
0.000203462
0.000192786
0.000184203
0.000176662
0.000171581
0.000167814
0.000165607
0.000164849
0.000164969
0.000166258
0.000167992
0.000170449
0.00017313
0.000176111
0.000179218
0.000182323
0.000185484
0.00018855
0.000191533
0.000194422
0.000197174
0.000199791
0.000202279
0.000204625
0.000206833
0.000208912
0.000210864
0.000212697
0.000214423
0.000216047
0.000217581
0.000219035
0.000220413
0.000221726
0.000222978
0.000224175
0.000225323
0.000226421
0.000227477
0.000228485
0.000229454
0.000230384
0.000231278
0.00023214
0.000232979
0.000233795
0.000234595
0.000235379
0.000236149
0.000236905
0.000237645
0.00023836
0.000239045
0.000239682
0.000240256
0.000240739
0.000241109
0.000241316
0.000241348
0.000241122
0.000240616
0.000239774
0.000238523
0.000236831
0.00023464
0.000231884
0.000228533
0.000224558
0.000219903
0.00021456
0.000208513
0.00020175
0.000194281
0.000186109
0.0001772
0.000167661
0.000157485
0.000146603
0.000135221
0.000123362
0.000110835
9.82339e-05
8.51949e-05
7.21512e-05
5.91497e-05
4.64392e-05
3.42603e-05
2.29937e-05
1.25113e-05
3.85792e-06
-3.88888e-06
-9.37518e-06
-1.34258e-05
-1.58976e-05
-1.66128e-05
-1.63997e-05
-1.4664e-05
-1.24022e-05
-9.22399e-06
-5.84096e-06
-2.03706e-06
1.7397e-06
5.54044e-06
9.18135e-06
1.32248e-05
1.63097e-05
1.91046e-05
2.16472e-05
2.39989e-05
2.60594e-05
2.78893e-05
2.90502e-05
2.96722e-05
2.99336e-05
2.98542e-05
2.94747e-05
2.88463e-05
2.80169e-05
2.70294e-05
2.59221e-05
2.47286e-05
2.34776e-05
2.21929e-05
2.08939e-05
1.95962e-05
1.83114e-05
1.70483e-05
1.5813e-05
1.46093e-05
1.34393e-05
1.23037e-05
1.12019e-05
1.01322e-05
9.09476e-06
8.08659e-06
7.10581e-06
6.15082e-06
5.22022e-06
4.3131e-06
3.42932e-06
2.56977e-06
1.73438e-06
9.22243e-07
2.0377e-07
0.000503015
0.000479886
0.000461979
0.000452192
0.000445326
0.000439762
0.000435472
0.000432145
0.000429401
0.000427008
0.000424853
0.000422867
0.000421005
0.000419241
0.000417559
0.000415951
0.00041441
0.000412936
0.000411527
0.000410186
0.000408914
0.000407717
0.000406597
0.000405561
0.000404613
0.00040376
0.00040301
0.00040237
0.000401849
0.000401454
0.000401197
0.000401091
0.000401152
0.000401243
0.000401735
0.000402541
0.000402925
0.00040274
0.000401907
0.000400109
0.000397048
0.000391784
0.000384527
0.000375901
0.000365885
0.000354653
0.000342338
0.000328912
0.000314954
0.000300383
0.000285459
0.000270645
0.000255796
0.000241765
0.000228206
0.000215852
0.000204575
0.000194525
0.000186315
0.00017907
0.000173965
0.000170087
0.000167616
0.000166511
0.000166262
0.000167145
0.000168514
0.000170614
0.000173
0.000175717
0.000178618
0.000181553
0.000184581
0.000187553
0.000190465
0.00019331
0.00019604
0.00019865
0.000201145
0.000203508
0.000205742
0.000207852
0.00020984
0.000211711
0.000213475
0.000215136
0.000216705
0.000218193
0.000219602
0.000220946
0.000222233
0.000223462
0.000224642
0.000225779
0.000226871
0.000227929
0.000228946
0.00022994
0.0002309
0.000231833
0.000232733
0.000233612
0.000234466
0.000235299
0.000236113
0.000236898
0.00023766
0.00023838
0.000239052
0.000239655
0.000240169
0.000240563
0.00024081
0.000240855
0.000240685
0.000240215
0.000239421
0.000238247
0.000236624
0.000234522
0.000231888
0.000228663
0.000224827
0.000220357
0.000215207
0.000209383
0.000202877
0.000195686
0.000187831
0.000179325
0.000170142
0.000160401
0.000150103
0.000139176
0.000127858
0.000116152
0.000103911
9.16816e-05
7.91539e-05
6.67381e-05
5.45052e-05
4.26633e-05
3.1442e-05
2.11392e-05
1.1739e-05
3.88648e-06
-3.08254e-06
-8.10596e-06
-1.18316e-05
-1.41672e-05
-1.49069e-05
-1.4801e-05
-1.32888e-05
-1.12714e-05
-8.36926e-06
-5.24604e-06
-1.68782e-06
1.87676e-06
5.51029e-06
8.91087e-06
1.2885e-05
1.59645e-05
1.8786e-05
2.13572e-05
2.3718e-05
2.57347e-05
2.74911e-05
2.85723e-05
2.9164e-05
2.94275e-05
2.936e-05
2.89973e-05
2.83919e-05
2.7591e-05
2.66358e-05
2.55633e-05
2.44058e-05
2.31911e-05
2.19422e-05
2.06779e-05
1.94132e-05
1.81595e-05
1.69253e-05
1.57167e-05
1.45373e-05
1.33893e-05
1.22734e-05
1.11895e-05
1.01368e-05
9.11249e-06
8.11648e-06
7.14626e-06
6.20024e-06
5.27713e-06
4.376e-06
3.49655e-06
2.63907e-06
1.8022e-06
9.81599e-07
2.26454e-07
0.000478684
0.000471115
0.000460545
0.000452582
0.000446316
0.0004412
0.000436902
0.000433387
0.000430436
0.00042786
0.000425555
0.00042345
0.000421493
0.000419656
0.000417917
0.000416263
0.000414687
0.000413185
0.000411754
0.000410396
0.000409111
0.000407902
0.000406774
0.000405731
0.000404778
0.000403922
0.000403169
0.000402527
0.000402004
0.000401608
0.000401347
0.000401231
0.000401276
0.000401307
0.00040165
0.000402206
0.000402214
0.000401539
0.000400098
0.000397545
0.000393638
0.000387657
0.000379975
0.000371114
0.000361019
0.000349846
0.000337744
0.000324736
0.000311322
0.000297468
0.00028338
0.000269482
0.000255695
0.000242631
0.000230045
0.000218503
0.000207942
0.000198436
0.000190507
0.00018342
0.000178149
0.000173985
0.000171081
0.000169462
0.000168674
0.000169013
0.000169874
0.000171513
0.000173501
0.000175877
0.000178507
0.000181216
0.000184075
0.000186917
0.000189733
0.000192515
0.000195204
0.000197792
0.000200282
0.000202653
0.000204902
0.000207035
0.00020905
0.000210951
0.000212746
0.000214437
0.000216034
0.000217551
0.000218986
0.000220353
0.000221665
0.000222919
0.000224126
0.000225297
0.00022642
0.00022752
0.000228579
0.000229609
0.000230605
0.000231586
0.00023253
0.000233459
0.000234358
0.000235232
0.000236083
0.000236892
0.000237669
0.000238383
0.000239032
0.000239586
0.000240023
0.000240308
0.000240411
0.000240274
0.000239884
0.000239152
0.00023806
0.000236553
0.000234566
0.000232076
0.000229037
0.0002254
0.000221154
0.000216283
0.000210753
0.00020458
0.000197763
0.000190308
0.000182239
0.000173578
0.000164321
0.000154562
0.000144317
0.000133552
0.000122466
0.000111069
9.92971e-05
8.75847e-05
7.57244e-05
6.40488e-05
5.2651e-05
4.16937e-05
3.13782e-05
2.19185e-05
1.32878e-05
6.02189e-06
-4.16011e-07
-5.19274e-06
-8.80781e-06
-1.12231e-05
-1.21804e-05
-1.23773e-05
-1.12279e-05
-9.59281e-06
-7.04646e-06
-4.26508e-06
-9.93809e-07
2.31217e-06
5.77538e-06
8.89272e-06
1.28761e-05
1.58515e-05
1.86056e-05
2.11486e-05
2.34879e-05
2.54259e-05
2.7105e-05
2.80895e-05
2.86374e-05
2.89011e-05
2.88415e-05
2.84887e-05
2.78998e-05
2.71221e-05
2.61952e-05
2.51543e-05
2.40309e-05
2.28516e-05
2.16387e-05
2.04102e-05
1.91804e-05
1.79603e-05
1.67581e-05
1.55794e-05
1.44281e-05
1.33059e-05
1.22137e-05
1.11512e-05
1.01174e-05
9.11067e-06
8.12921e-06
7.17186e-06
6.23676e-06
5.32247e-06
4.42794e-06
3.5525e-06
2.69574e-06
1.85518e-06
1.02315e-06
2.25269e-07
0.000467691
0.000464906
0.000458453
0.000451959
0.000446653
0.000442103
0.000437966
0.000434485
0.000431438
0.000428723
0.000426289
0.000424059
0.000421995
0.000420071
0.00041826
0.000416544
0.000414917
0.000413372
0.000411904
0.000410513
0.000409199
0.000407964
0.00040681
0.000405743
0.000404765
0.000403884
0.000403105
0.000402434
0.000401879
0.000401445
0.000401138
0.00040096
0.000400921
0.000400835
0.000401005
0.000401317
0.000400969
0.00039983
0.000397837
0.000394664
0.000390141
0.000383708
0.000375809
0.000366887
0.000356889
0.000345966
0.000334276
0.000321875
0.000309211
0.000296247
0.000283115
0.000270268
0.000257626
0.000245605
0.000234062
0.000223367
0.000213519
0.000204531
0.000196815
0.000189805
0.000184267
0.000179693
0.000176219
0.000173924
0.00017244
0.000172064
0.00017226
0.000173286
0.00017474
0.000176655
0.000178911
0.000181306
0.000183924
0.000186578
0.000189249
0.00019193
0.000194548
0.000197089
0.000199555
0.000201918
0.00020417
0.000206317
0.000208351
0.000210275
0.000212097
0.000213814
0.000215435
0.000216977
0.000218433
0.000219819
0.000221152
0.000222425
0.000223652
0.000224849
0.000225997
0.00022713
0.00022822
0.000229298
0.000230335
0.000231365
0.000232354
0.000233332
0.000234275
0.000235188
0.000236072
0.000236897
0.000237681
0.000238379
0.000238989
0.000239478
0.000239818
0.000239972
0.000239908
0.000239563
0.000238929
0.000237915
0.000236507
0.000234656
0.000232303
0.000229433
0.000226011
0.000221995
0.000217387
0.000212177
0.000206346
0.000199914
0.00019289
0.000185287
0.000177136
0.000168465
0.000159281
0.000149666
0.000139657
0.000129236
0.000118567
0.000107682
9.65613e-05
8.55418e-05
7.4497e-05
6.36817e-05
5.31965e-05
4.31565e-05
3.37248e-05
2.50446e-05
1.7097e-05
1.02858e-05
4.19988e-06
-5.37224e-07
-4.2703e-06
-6.98796e-06
-8.39449e-06
-9.10273e-06
-8.51505e-06
-7.42669e-06
-5.37672e-06
-3.04319e-06
-1.352e-07
2.85862e-06
6.14566e-06
8.99237e-06
1.30025e-05
1.58546e-05
1.85032e-05
2.09899e-05
2.32962e-05
2.51466e-05
2.67492e-05
2.76252e-05
2.81083e-05
2.83565e-05
2.82909e-05
2.79338e-05
2.73484e-05
2.65835e-05
2.56764e-05
2.4661e-05
2.35673e-05
2.2421e-05
2.12433e-05
2.00512e-05
1.88581e-05
1.76744e-05
1.65078e-05
1.53635e-05
1.42447e-05
1.31532e-05
1.20895e-05
1.10532e-05
1.00433e-05
9.05815e-06
8.09615e-06
7.15573e-06
6.23504e-06
5.33247e-06
4.44671e-06
3.57658e-06
2.72092e-06
1.87609e-06
1.03558e-06
2.06418e-07
0.00046096
0.000459633
0.000455658
0.000450964
0.000446635
0.000442564
0.000438811
0.000435474
0.000432379
0.000429599
0.000427083
0.000424728
0.000422547
0.000420525
0.000418623
0.000416826
0.000415128
0.000413521
0.000411997
0.000410554
0.000409192
0.00040791
0.00040671
0.000405596
0.000404569
0.000403636
0.000402801
0.000402069
0.000401445
0.000400932
0.000400531
0.000400237
0.000400055
0.000399803
0.000399757
0.000399788
0.000399079
0.000397496
0.000395003
0.000391317
0.000386334
0.00037962
0.000371644
0.000362791
0.000353031
0.000342513
0.000331396
0.000319764
0.000307933
0.000295936
0.000283971
0.000272283
0.00026084
0.000249934
0.000239487
0.000229715
0.000220635
0.000212229
0.000204788
0.000197918
0.000192169
0.000187214
0.000183164
0.000180137
0.000177877
0.000176653
0.000176036
0.000176275
0.000177025
0.000178311
0.000180035
0.00018198
0.000184235
0.0001866
0.000189042
0.000191553
0.000194046
0.000196498
0.000198907
0.000201238
0.000203475
0.000205623
0.000207669
0.000209611
0.000211457
0.000213199
0.000214845
0.000216415
0.000217894
0.0002193
0.000220656
0.000221948
0.000223194
0.000224416
0.000225586
0.000226752
0.000227872
0.000228992
0.000230068
0.000231147
0.000232178
0.000233201
0.000234182
0.000235124
0.00023603
0.000236858
0.000237628
0.000238285
0.000238828
0.000239219
0.000239423
0.000239404
0.000239129
0.000238533
0.000237615
0.00023628
0.000234526
0.00023231
0.000229582
0.000226335
0.000222547
0.000218187
0.000213266
0.000207785
0.000201734
0.000195141
0.000188021
0.000180393
0.000172293
0.000163753
0.000154789
0.000145476
0.000135875
0.000125958
0.000115855
0.000105643
9.53138e-05
8.51168e-05
7.49872e-05
6.51098e-05
5.55793e-05
4.64695e-05
3.79023e-05
2.99615e-05
2.26531e-05
1.62336e-05
1.04213e-05
5.64293e-06
1.69312e-06
-1.4253e-06
-3.4155e-06
-4.76962e-06
-4.91797e-06
-4.5381e-06
-3.16675e-06
-1.43533e-06
9.65777e-07
3.53862e-06
6.58568e-06
9.14471e-06
1.31391e-05
1.58592e-05
1.83688e-05
2.07677e-05
2.30191e-05
2.47589e-05
2.62572e-05
2.70003e-05
2.73968e-05
2.76153e-05
2.75355e-05
2.71687e-05
2.65846e-05
2.58337e-05
2.49507e-05
2.39668e-05
2.29106e-05
2.18065e-05
2.0674e-05
1.95289e-05
1.83834e-05
1.72472e-05
1.61273e-05
1.50283e-05
1.39528e-05
1.29021e-05
1.18764e-05
1.08754e-05
9.89778e-06
8.94211e-06
8.00672e-06
7.08981e-06
6.18957e-06
5.30423e-06
4.43215e-06
3.57172e-06
2.72137e-06
1.87675e-06
1.03551e-06
1.82791e-07
0.000456467
0.000455711
0.000453146
0.00044974
0.000446246
0.000442788
0.00043943
0.000436222
0.000433159
0.000430403
0.00042786
0.000425388
0.000423102
0.00042099
0.000418988
0.000417099
0.000415319
0.000413636
0.000412039
0.000410527
0.000409098
0.000407749
0.00040648
0.000405295
0.000404194
0.00040318
0.000402257
0.000401428
0.000400696
0.00040006
0.000399518
0.00039906
0.000398684
0.000398224
0.000397919
0.000397621
0.000396547
0.000394553
0.000391621
0.000387524
0.000382211
0.000375354
0.000367425
0.000358756
0.000349352
0.000339357
0.000328924
0.00031814
0.00030722
0.000296268
0.000285542
0.000275036
0.000264794
0.000255022
0.00024567
0.000236852
0.000228574
0.000220811
0.00021374
0.000207115
0.000201299
0.000196096
0.000191575
0.000187898
0.000184913
0.000182828
0.000181347
0.000180696
0.000180615
0.000181123
0.000182154
0.000183496
0.000185235
0.000187173
0.000189267
0.000191504
0.000193783
0.000196075
0.000198368
0.000200622
0.000202809
0.000204931
0.000206969
0.000208917
0.00021078
0.000212545
0.000214215
0.000215815
0.00021732
0.000218751
0.000220133
0.000221449
0.000222714
0.000223963
0.000225154
0.000226352
0.000227498
0.000228655
0.000229762
0.000230883
0.000231946
0.000233003
0.000234007
0.000234962
0.000235867
0.000236668
0.000237391
0.000237971
0.000238403
0.000238647
0.000238666
0.000238424
0.000237887
0.000236995
0.000235751
0.000234066
0.000231946
0.00022936
0.000226266
0.000222668
0.000218557
0.000213911
0.000208752
0.000203089
0.000196923
0.000190283
0.000183191
0.00017567
0.000167756
0.000159485
0.000150878
0.000142004
0.000132948
0.000123624
0.000114229
0.000104794
9.53297e-05
8.60181e-05
7.68368e-05
6.79113e-05
5.93209e-05
5.11087e-05
4.33612e-05
3.61352e-05
2.93743e-05
2.33089e-05
1.77368e-05
1.29047e-05
8.72312e-06
5.20027e-06
2.59518e-06
5.53509e-07
-4.19803e-07
-8.4656e-07
-3.01169e-07
6.84547e-07
2.42057e-06
4.43829e-06
7.13165e-06
9.35468e-06
1.32178e-05
1.57816e-05
1.81168e-05
2.03854e-05
2.25438e-05
2.41399e-05
2.54929e-05
2.60815e-05
2.63762e-05
2.65533e-05
2.64552e-05
2.60807e-05
2.55044e-05
2.4778e-05
2.39324e-05
2.2995e-05
2.19924e-05
2.09474e-05
1.98775e-05
1.87964e-05
1.77151e-05
1.66425e-05
1.55851e-05
1.45465e-05
1.35285e-05
1.25317e-05
1.15564e-05
1.06021e-05
9.66737e-06
8.7509e-06
7.85115e-06
6.96637e-06
6.09465e-06
5.23406e-06
4.38277e-06
3.53889e-06
2.7008e-06
1.86374e-06
1.03083e-06
1.59793e-07
0.000453452
0.000452963
0.000451182
0.000448605
0.000445738
0.000442753
0.000439723
0.000436724
0.000433816
0.000431065
0.000428448
0.000425934
0.000423608
0.000421426
0.000419318
0.000417332
0.000415469
0.000413703
0.000412026
0.000410431
0.000408922
0.000407489
0.000406133
0.000404855
0.000403655
0.000402535
0.000401494
0.000400535
0.000399658
0.000398859
0.000398135
0.000397468
0.000396855
0.000396153
0.00039555
0.000394889
0.000393454
0.000391095
0.000387797
0.00038339
0.000377865
0.000370991
0.000363214
0.000354825
0.000345865
0.000336475
0.00032679
0.00031689
0.000306984
0.000297139
0.000287533
0.00027818
0.000269113
0.000260444
0.000252146
0.000244259
0.000236778
0.000229681
0.000223054
0.000216756
0.000211031
0.000205746
0.000200895
0.000196728
0.000193172
0.000190327
0.000188039
0.000186506
0.000185559
0.000185213
0.00018544
0.000186054
0.000187133
0.000188503
0.000190113
0.000191944
0.000193891
0.000195921
0.00019801
0.000200112
0.000202187
0.000204235
0.000206227
0.000208152
0.00021001
0.000211782
0.000213469
0.000215096
0.000216627
0.000218087
0.000219498
0.000220841
0.000222129
0.000223408
0.000224618
0.000225845
0.000227012
0.000228198
0.000229326
0.000230475
0.000231552
0.000232624
0.000233626
0.000234563
0.000235432
0.000236168
0.0002368
0.000237252
0.00023752
0.000237564
0.000237345
0.000236829
0.000235987
0.000234763
0.000233168
0.000231123
0.000228643
0.000225708
0.000222286
0.000218395
0.000214031
0.000209185
0.000203887
0.000198152
0.000191987
0.000185423
0.000178485
0.000171198
0.000163598
0.000155717
0.000147584
0.00013926
0.000130791
0.000122172
0.000113562
0.000104947
9.63624e-05
8.79422e-05
7.96874e-05
7.1676e-05
6.39672e-05
5.65836e-05
4.95764e-05
4.29652e-05
3.67205e-05
3.09879e-05
2.56413e-05
2.07654e-05
1.63733e-05
1.24936e-05
9.3095e-06
6.60724e-06
4.80617e-06
3.55183e-06
3.1915e-06
3.33537e-06
4.27818e-06
5.61695e-06
7.81644e-06
9.63778e-06
1.31958e-05
1.55558e-05
1.76777e-05
1.97629e-05
2.17732e-05
2.31891e-05
2.43538e-05
2.47789e-05
2.49676e-05
2.50942e-05
2.49769e-05
2.46027e-05
2.40476e-05
2.33629e-05
2.25745e-05
2.17045e-05
2.0777e-05
1.98132e-05
1.88276e-05
1.78313e-05
1.68338e-05
1.58436e-05
1.48668e-05
1.3906e-05
1.29612e-05
1.2033e-05
1.11216e-05
1.02264e-05
9.34598e-06
8.47935e-06
7.62528e-06
6.78215e-06
5.94807e-06
5.12097e-06
4.29885e-06
3.47971e-06
2.66214e-06
1.84101e-06
1.02523e-06
1.40429e-07
0.000451447
0.000451089
0.000449741
0.000447683
0.000445252
0.000442609
0.000439838
0.000437022
0.00043423
0.000431514
0.000428895
0.000426379
0.000423993
0.000421725
0.000419558
0.000417503
0.000415558
0.000413709
0.000411948
0.000410269
0.000408668
0.000407141
0.000405687
0.000404302
0.000402985
0.000401736
0.000400553
0.000399437
0.000398385
0.000397391
0.000396449
0.00039554
0.000394655
0.000393682
0.000392754
0.000391708
0.000389926
0.000387252
0.000383662
0.000379038
0.000373404
0.000366615
0.000359076
0.000351041
0.000342591
0.000333858
0.000324957
0.000315969
0.000307062
0.000298297
0.000289773
0.000281522
0.000273557
0.000265921
0.000258601
0.000251587
0.000244871
0.000238427
0.000232276
0.000226346
0.000220854
0.000215643
0.000210585
0.000206101
0.000202166
0.00019873
0.000195766
0.000193451
0.000191689
0.000190499
0.000189892
0.000189717
0.000190039
0.000190728
0.000191734
0.000193032
0.000194513
0.00019616
0.000197931
0.000199779
0.000201655
0.000203551
0.000205434
0.00020728
0.00020909
0.000210838
0.000212516
0.000214152
0.000215698
0.000217181
0.000218617
0.000219989
0.0002213
0.000222606
0.000223835
0.000225086
0.000226266
0.000227469
0.000228602
0.000229758
0.000230825
0.00023188
0.000232845
0.000233726
0.000234513
0.000235136
0.000235623
0.000235894
0.000235945
0.00023574
0.000235235
0.00023441
0.000233235
0.000231668
0.000229725
0.00022734
0.000224538
0.00022131
0.000217634
0.000213535
0.000209018
0.000204082
0.000198762
0.000193076
0.000187035
0.00018067
0.000174005
0.000167066
0.000159883
0.00015249
0.000144915
0.000137211
0.000129382
0.000121531
0.000113697
0.000105895
9.81668e-05
9.06019e-05
8.32122e-05
7.60418e-05
6.91292e-05
6.24846e-05
5.61291e-05
5.00639e-05
4.42594e-05
3.88331e-05
3.37111e-05
2.88043e-05
2.42387e-05
2.00707e-05
1.63721e-05
1.30729e-05
1.05066e-05
8.46893e-06
7.18562e-06
6.44415e-06
6.51538e-06
7.08296e-06
8.64719e-06
9.99047e-06
1.30491e-05
1.51328e-05
1.69924e-05
1.8833e-05
2.06266e-05
2.18255e-05
2.27661e-05
2.30348e-05
2.31258e-05
2.31984e-05
2.30661e-05
2.27072e-05
2.21932e-05
2.15731e-05
2.08666e-05
2.00886e-05
1.92611e-05
1.84034e-05
1.75259e-05
1.66363e-05
1.57434e-05
1.48558e-05
1.39794e-05
1.3114e-05
1.22581e-05
1.14124e-05
1.0578e-05
9.75376e-06
8.93842e-06
8.13189e-06
7.33345e-06
6.54147e-06
5.75409e-06
4.96925e-06
4.18486e-06
3.39878e-06
2.60988e-06
1.81279e-06
1.02168e-06
1.27854e-07
0.000450199
0.000449903
0.000448789
0.000447033
0.000444876
0.000442457
0.000439861
0.000437172
0.000434462
0.000431784
0.000429173
0.000426647
0.000424222
0.000421904
0.000419687
0.000417573
0.000415557
0.000413634
0.000411795
0.000410034
0.000408341
0.000406718
0.000405159
0.000403659
0.000402214
0.000400823
0.000399483
0.000398191
0.000396942
0.000395732
0.00039455
0.000393373
0.000392192
0.000390926
0.000389654
0.000388215
0.000386103
0.000383157
0.000379344
0.000374584
0.000368924
0.000362298
0.000355062
0.000347438
0.000339541
0.000331496
0.000323395
0.000315316
0.000307381
0.000299642
0.00029215
0.000284923
0.000277966
0.000271273
0.000264838
0.000258621
0.000252611
0.000246783
0.000241117
0.000235618
0.000230351
0.000225291
0.000220248
0.000215564
0.000211362
0.000207515
0.000204064
0.000201143
0.000198684
0.000196733
0.000195344
0.000194391
0.000193923
0.000193873
0.000194194
0.000194868
0.000195766
0.00019691
0.000198244
0.000199717
0.000201283
0.00020293
0.000204613
0.000206302
0.000207991
0.000209653
0.000211275
0.000212878
0.00021441
0.000215891
0.000217334
0.000218719
0.000220043
0.000221366
0.000222604
0.000223867
0.000225046
0.000226248
0.000227363
0.000228498
0.000229522
0.000230523
0.000231408
0.000232186
0.000232841
0.000233301
0.000233591
0.000233634
0.000233425
0.000232934
0.000232122
0.000230977
0.000229475
0.000227587
0.000225337
0.000222673
0.000219626
0.000216197
0.000212373
0.00020818
0.00020363
0.000198729
0.000193514
0.000188002
0.000182204
0.00017615
0.00016986
0.000163358
0.000156673
0.000149831
0.000142861
0.000135804
0.000128684
0.000121563
0.00011448
0.000107456
0.000100529
9.37506e-05
8.71388e-05
8.07159e-05
7.45002e-05
6.84972e-05
6.27034e-05
5.71156e-05
5.17175e-05
4.65388e-05
4.15431e-05
3.66526e-05
3.20204e-05
2.76249e-05
2.34737e-05
1.96486e-05
1.64299e-05
1.36937e-05
1.15117e-05
9.88205e-06
9.05092e-06
8.78969e-06
9.60164e-06
1.03751e-05
1.27635e-05
1.44802e-05
1.60169e-05
1.75469e-05
1.90496e-05
2.00008e-05
2.06973e-05
2.08319e-05
2.08445e-05
2.08655e-05
2.07288e-05
2.04097e-05
1.99667e-05
1.94411e-05
1.88427e-05
1.8181e-05
1.74802e-05
1.67554e-05
1.60078e-05
1.5243e-05
1.447e-05
1.37031e-05
1.29487e-05
1.21974e-05
1.14443e-05
1.06936e-05
9.94807e-06
9.20413e-06
8.4614e-06
7.72301e-06
6.98862e-06
6.25628e-06
5.52357e-06
4.78862e-06
4.04947e-06
3.30367e-06
2.55028e-06
1.78388e-06
1.02258e-06
1.26104e-07
0.000449576
0.000449308
0.000448299
0.000446684
0.000444661
0.000442353
0.000439846
0.000437221
0.000434552
0.000431894
0.000429284
0.000426746
0.000424296
0.000421942
0.000419685
0.000417522
0.000415451
0.000413465
0.000411557
0.00040972
0.000407945
0.000406229
0.000404565
0.000402948
0.000401373
0.000399835
0.000398329
0.00039685
0.000395393
0.000393958
0.000392527
0.000391065
0.00038957
0.000387997
0.000386374
0.000384546
0.000382119
0.000378938
0.000374955
0.000370121
0.000364502
0.000358096
0.000351203
0.000344031
0.000336717
0.000329374
0.000322073
0.000314884
0.00030788
0.000301104
0.000294572
0.000288281
0.00028223
0.000276379
0.000270728
0.000265222
0.000259844
0.000254578
0.000249371
0.000244278
0.000239238
0.00023435
0.000229495
0.000224838
0.000220458
0.000216296
0.00021252
0.000209173
0.000206155
0.000203567
0.000201512
0.000199851
0.000198624
0.000197834
0.000197445
0.000197413
0.000197689
0.000198249
0.000199042
0.000200028
0.000201159
0.000202445
0.000203828
0.000205257
0.000206727
0.000208215
0.000209701
0.000211203
0.000212662
0.000214094
0.0002155
0.000216862
0.000218167
0.000219477
0.000220699
0.000221945
0.000223099
0.000224268
0.000225337
0.000226413
0.000227358
0.00022826
0.000229021
0.00022965
0.000230127
0.000230382
0.000230438
0.000230226
0.000229739
0.000228959
0.000227849
0.000226411
0.000224627
0.000222484
0.000220007
0.000217165
0.000213989
0.000210485
0.000206644
0.000202485
0.000198031
0.000193298
0.000188314
0.000183092
0.000177642
0.000171988
0.000166149
0.000160147
0.000154005
0.000147748
0.0001414
0.000134994
0.000128562
0.000122141
0.000115764
0.000109458
0.000103252
9.71734e-05
9.12399e-05
8.54628e-05
7.98413e-05
7.43823e-05
6.90611e-05
6.3877e-05
5.88071e-05
5.38395e-05
4.89694e-05
4.41395e-05
3.94301e-05
3.48699e-05
3.04133e-05
2.61397e-05
2.23157e-05
1.89213e-05
1.59278e-05
1.34723e-05
1.17604e-05
1.06393e-05
1.06131e-05
1.07459e-05
1.23121e-05
1.35633e-05
1.47157e-05
1.58755e-05
1.70212e-05
1.7709e-05
1.81683e-05
1.82075e-05
1.8172e-05
1.81547e-05
1.8025e-05
1.77616e-05
1.74237e-05
1.70404e-05
1.65823e-05
1.60553e-05
1.55126e-05
1.49565e-05
1.43607e-05
1.3731e-05
1.30757e-05
1.24279e-05
1.18091e-05
1.11879e-05
1.05492e-05
9.90474e-06
9.26169e-06
8.60787e-06
7.94252e-06
7.2767e-06
6.61147e-06
5.94458e-06
5.27254e-06
4.59334e-06
3.90486e-06
3.20424e-06
2.49081e-06
1.75909e-06
1.02676e-06
1.37748e-07
0.000449524
0.000449258
0.000448255
0.000446648
0.000444632
0.000442327
0.000439821
0.000437196
0.000434522
0.000431856
0.000429234
0.00042668
0.00042421
0.000421831
0.000419545
0.000417346
0.000415232
0.000413197
0.000411233
0.00040933
0.000407481
0.00040568
0.000403918
0.000402189
0.000400487
0.000398804
0.000397134
0.000395468
0.000393792
0.000392133
0.000390466
0.000388713
0.000386893
0.000385004
0.000383028
0.000380821
0.000378095
0.000374703
0.000370587
0.000365727
0.000360192
0.00035404
0.000347518
0.000340824
0.000334111
0.000327475
0.000320959
0.000314627
0.000308505
0.000302622
0.000296966
0.000291516
0.000286263
0.00028115
0.000276181
0.000271292
0.000266467
0.000261699
0.000256912
0.000252201
0.000247437
0.00024276
0.000238085
0.000233486
0.000229068
0.000224831
0.000220864
0.000217169
0.000213693
0.00021063
0.000208059
0.000205797
0.000203885
0.000202407
0.000201353
0.000200615
0.000200227
0.000200124
0.000200312
0.000200772
0.000201352
0.000202166
0.00020315
0.000204222
0.000205365
0.000206568
0.000207814
0.000209116
0.000210421
0.00021173
0.000213028
0.000214302
0.00021553
0.00021677
0.000217931
0.00021911
0.000220198
0.000221288
0.000222272
0.000223241
0.000224066
0.000224825
0.000225422
0.000225865
0.000226129
0.000226159
0.000225967
0.000225506
0.000224767
0.000223738
0.000222387
0.000220725
0.000218744
0.000216448
0.000213856
0.000210959
0.000207786
0.000204352
0.000200644
0.000196656
0.000192427
0.000187987
0.000183347
0.000178509
0.000173482
0.000168289
0.000162947
0.000157474
0.00015189
0.000146217
0.000140477
0.000134698
0.000128904
0.000123131
0.000117395
0.000111729
0.000106153
0.000100679
9.5322e-05
9.00894e-05
8.49626e-05
7.99553e-05
7.5023e-05
7.01723e-05
6.53686e-05
6.05885e-05
5.58398e-05
5.10639e-05
4.62905e-05
4.15788e-05
3.6899e-05
3.23657e-05
2.80426e-05
2.40103e-05
2.02596e-05
1.70576e-05
1.45028e-05
1.25063e-05
1.15394e-05
1.11214e-05
1.17176e-05
1.23771e-05
1.30791e-05
1.38266e-05
1.45674e-05
1.49822e-05
1.52339e-05
1.52413e-05
1.52183e-05
1.52194e-05
1.51185e-05
1.48706e-05
1.46271e-05
1.44487e-05
1.41792e-05
1.37999e-05
1.34259e-05
1.30468e-05
1.26181e-05
1.21516e-05
1.16664e-05
1.11771e-05
1.06923e-05
1.01897e-05
9.65285e-06
9.09951e-06
8.5439e-06
7.98028e-06
7.40428e-06
6.81755e-06
6.22387e-06
5.62546e-06
5.01767e-06
4.39866e-06
3.76451e-06
3.11122e-06
2.43979e-06
1.74489e-06
1.02939e-06
1.54752e-07
0.000450043
0.000449754
0.000448661
0.000446929
0.000444793
0.000442385
0.000439793
0.000437099
0.000434375
0.000431672
0.000429023
0.000426451
0.000423963
0.000421569
0.000419265
0.000417044
0.000414902
0.000412833
0.000410826
0.000408872
0.00040696
0.000405085
0.000403236
0.000401405
0.000399585
0.000397767
0.000395942
0.000394101
0.000392235
0.00039034
0.000388393
0.000386366
0.000384257
0.000382057
0.000379727
0.00037715
0.000374133
0.000370542
0.000366314
0.000361454
0.000356032
0.000350151
0.000344015
0.000337813
0.00033171
0.000325775
0.000320022
0.000314508
0.000309206
0.000304139
0.000299265
0.000294553
0.00028999
0.000285509
0.000281119
0.000276755
0.000272401
0.000268065
0.000263651
0.000259285
0.0002548
0.000250355
0.000245873
0.00024141
0.000237043
0.000232775
0.000228672
0.000224753
0.000221067
0.000217697
0.00021465
0.000211886
0.000209375
0.000207322
0.000205694
0.000204332
0.000203259
0.000202473
0.000202044
0.000201914
0.000201945
0.000202191
0.000202649
0.000203275
0.000204
0.000204817
0.000205704
0.000206688
0.00020774
0.000208837
0.000209938
0.000211035
0.000212103
0.000213189
0.000214219
0.000215262
0.000216225
0.000217177
0.000218026
0.000218837
0.000219504
0.000220081
0.000220488
0.000220728
0.00022077
0.000220573
0.000220146
0.000219464
0.000218528
0.00021734
0.000215864
0.000214105
0.000212063
0.000209767
0.000207234
0.000204455
0.000201425
0.000198163
0.000194688
0.000190983
0.00018708
0.000183023
0.000178794
0.000174391
0.000169828
0.000165122
0.000160288
0.000155341
0.000150298
0.00014518
0.000140007
0.000134803
0.000129581
0.000124386
0.000119213
0.0001141
0.000109059
0.000104096
9.9217e-05
9.44337e-05
8.97098e-05
8.50706e-05
8.04526e-05
7.58746e-05
7.12878e-05
6.66722e-05
6.20325e-05
5.73147e-05
5.25243e-05
4.77377e-05
4.2874e-05
3.80891e-05
3.33128e-05
2.87854e-05
2.4468e-05
2.0577e-05
1.71273e-05
1.42614e-05
1.23238e-05
1.13064e-05
1.09398e-05
1.09271e-05
1.11359e-05
1.14719e-05
1.17869e-05
1.18852e-05
1.19386e-05
1.1993e-05
1.20199e-05
1.20316e-05
1.20367e-05
1.19822e-05
1.19226e-05
1.18785e-05
1.1737e-05
1.15255e-05
1.13663e-05
1.11899e-05
1.09311e-05
1.06249e-05
1.02979e-05
9.95297e-06
9.58888e-06
9.19857e-06
8.77777e-06
8.33419e-06
7.87464e-06
7.39803e-06
6.9032e-06
6.39187e-06
5.86683e-06
5.32922e-06
4.77679e-06
4.21649e-06
3.63758e-06
3.03118e-06
2.40302e-06
1.7522e-06
1.09193e-06
2.23481e-07
0.00045119
0.000450844
0.00044954
0.000447529
0.000445132
0.000442508
0.000439739
0.000436911
0.000434093
0.00043133
0.000428647
0.000426054
0.000423554
0.000421162
0.000418859
0.000416624
0.000414469
0.000412385
0.000410353
0.000408362
0.000406403
0.000404467
0.000402545
0.000400626
0.000398702
0.000396762
0.000394796
0.000392793
0.000390741
0.000388627
0.000386436
0.000384152
0.000381756
0.000379246
0.000376566
0.000373631
0.000370325
0.000366531
0.000362195
0.000357345
0.000352043