/*--------------------------------*- C++ -*----------------------------------*\
| =========                 |                                                 |
| \\      /  F ield         | OpenFOAM: The Open Source CFD Toolbox           |
|  \\    /   O peration     | Version:  2506                                  |
|   \\  /    A nd           | Website:  www.openfoam.com                      |
|    \\/     M anipulation  |                                                 |
\*---------------------------------------------------------------------------*/
FoamFile
{
    version     2.0;
    format      ascii;
    arch        "LSB;label=32;scalar=64";
    class       volScalarField;
    location    "5";
    object      s;
}
// * * * * * * * * * * * * * * * * * * * * * * * * * * * * * * * * * * * * * //

dimensions      [0 0 0 0 0 0 0];

internalField   nonuniform List<scalar> 
4000
(
5.46856e-23
-2.82995e-22
1.21938e-21
-4.53957e-21
1.32261e-20
-2.06078e-20
-5.09691e-20
5.07786e-19
-1.80053e-18
2.3093e-18
8.84848e-18
-5.30678e-17
8.70291e-17
3.00439e-16
-1.99691e-15
-2.51669e-14
-2.15776e-13
-3.43511e-12
-1.03595e-10
-6.11932e-10
2.95193e-11
1.58666e-08
2.37615e-07
2.54393e-06
2.16492e-05
0.000156416
0.000999472
0.005781
0.0269436
0.0736697
0.127179
0.143017
0.142982
0.134488
0.0978338
0.0350037
0.00597918
0.00621526
0.00735709
0.00874461
0.0102186
0.0114367
0.0122636
0.0127212
0.0133286
0.0138769
0.0142875
0.0146812
0.0150682
0.0154911
0.0160055
0.016582
0.0173337
0.0182095
0.0192638
0.0204929
0.0219373
0.0236895
0.0257806
0.0283837
0.0315813
0.0355169
0.0400384
0.0445122
0.048303
0.0510481
0.0526757
0.0532825
0.0528861
0.0499444
0.0361394
0.0162157
0.0050692
0.0031053
0.00186919
0.00100749
0.000517288
0.00026348
0.00013257
6.12637e-05
2.45054e-05
1.0109e-05
4.82017e-06
2.34893e-06
1.13333e-06
5.18051e-07
2.24878e-07
9.43873e-08
3.8749e-08
1.54652e-08
5.95449e-09
2.2188e-09
7.93927e-10
2.64725e-10
6.36773e-11
-4.12353e-11
-1.8476e-10
-4.65839e-10
-9.81787e-10
-1.74555e-09
-2.41832e-09
-5.83068e-09
-2.36342e-08
-6.82631e-08
-1.47116e-07
-2.7364e-07
-4.49503e-07
-6.53452e-07
-8.83542e-07
-1.09332e-06
-1.11819e-06
-8.52505e-07
-8.43511e-08
1.26189e-06
3.30624e-06
1.05276e-05
0.000127684
0.000374498
0.000733822
0.00119618
0.00174098
0.00230069
0.00284167
0.0033693
0.00384624
0.00426941
0.00463513
0.00493131
0.00517442
0.00539339
0.00552067
0.00562408
0.0057643
0.00581747
0.00587737
0.00603197
0.00600735
0.00610586
0.00609116
0.00604689
0.00589985
0.00559565
0.00506333
0.00449228
0.00395069
0.00342908
0.00291395
0.00241091
0.00192713
0.00147389
0.00106898
0.000725876
0.00045808
0.000267305
0.000144641
7.31369e-05
3.4969e-05
1.61092e-05
7.17289e-06
2.98532e-06
1.1053e-06
1.40825e-07
-6.07381e-07
-1.2999e-06
-2.0346e-06
-2.76936e-06
-3.29151e-06
-3.02555e-06
-2.34309e-06
-1.49297e-06
-5.86459e-07
3.45387e-07
1.3058e-06
2.30699e-06
4.28827e-06
8.7818e-06
1.65144e-05
2.6799e-05
3.78502e-05
4.74128e-05
5.26839e-05
4.9442e-05
3.98879e-05
2.84756e-05
1.87115e-05
1.22431e-05
8.99936e-06
7.65779e-06
6.74505e-06
5.91924e-06
5.13497e-06
4.39159e-06
3.69617e-06
3.05809e-06
2.48632e-06
1.98704e-06
1.562e-06
1.2081e-06
9.17894e-07
6.78796e-07
3.26949e-23
-1.19908e-22
3.21359e-22
-6.90277e-22
7.84171e-22
1.83193e-21
-1.39528e-20
4.46857e-20
-8.34859e-20
6.14452e-20
6.32622e-20
2.53878e-19
-2.63285e-18
1.49399e-18
7.40788e-17
-5.14031e-16
-3.72054e-15
-4.42556e-14
-1.4251e-12
-1.04156e-11
-1.11391e-11
2.12504e-10
4.00465e-09
4.81867e-08
4.52538e-07
3.59517e-06
2.53835e-05
0.000156231
0.000732155
0.00233145
0.00571368
0.010537
0.0164162
0.0244296
0.0302385
0.0311393
0.0301505
0.0278811
0.0248783
0.0216724
0.0181665
0.0150944
0.0126053
0.0107143
0.00959095
0.00859706
0.0077522
0.00709557
0.00656019
0.00613243
0.00581301
0.00555275
0.0053954
0.00527628
0.00528295
0.00540214
0.00566487
0.00617079
0.00678923
0.00780698
0.00905235
0.0106867
0.0128031
0.0153146
0.0183918
0.0216519
0.0252234
0.028717
0.0321064
0.0352455
0.0365059
0.0359613
0.0344895
0.0336654
0.033421
0.0335166
0.0335839
0.033044
0.0311224
0.0255112
0.0138163
0.00436246
0.00186508
0.00107104
0.000591487
0.000296589
0.000134899
5.76031e-05
2.40947e-05
9.93501e-06
4.02131e-06
1.62641e-06
6.46155e-07
2.52864e-07
9.70949e-08
3.49894e-08
7.99399e-09
-9.65922e-09
-3.64252e-08
-8.41792e-08
-1.46912e-07
-2.3575e-07
-3.98862e-07
-7.2625e-07
-1.19946e-06
-1.8299e-06
-2.27861e-06
-2.14059e-06
-9.95575e-07
1.5189e-06
0.000472404
0.00143623
0.00298453
0.00505436
0.00759132
0.0103348
0.0132642
0.0164579
0.0197539
0.023018
0.0260395
0.0286442
0.0308673
0.0328131
0.0345104
0.0359861
0.0372624
0.0383506
0.0392816
0.0401023
0.040787
0.0413717
0.0419098
0.0423478
0.0427227
0.0430993
0.0433745
0.0436534
0.043877
0.0440693
0.0442237
0.044324
0.0443358
0.0442458
0.0437145
0.0430333
0.0416683
0.0398521
0.0375427
0.0346861
0.0316064
0.0279567
0.0241793
0.0199912
0.0157496
0.0112457
0.00724921
0.00453924
0.0028238
0.00169539
0.00111251
0.000713046
0.000423245
0.000239026
0.000150597
0.000437578
0.00160613
0.00331455
0.00505302
0.00662652
0.00792894
0.00891725
0.00959674
0.0100088
0.0102185
0.0103023
0.010339
0.0104012
0.0105516
0.0108382
0.0112659
0.011743
0.0121306
0.0123067
0.0121927
0.0117565
0.0110034
0.0100035
0.0089489
0.00796503
0.00709312
0.00631169
0.00558807
0.00489979
0.00423961
0.00361211
0.00302772
0.00249706
0.00202653
0.0015908
4.16109e-24
-6.36162e-24
-2.48296e-23
1.30692e-22
-3.46114e-22
2.96355e-22
1.34059e-21
-5.75783e-21
4.1867e-21
4.5325e-20
-2.14021e-19
4.11439e-19
2.13981e-19
-3.92e-18
1.04013e-17
7.30766e-18
-1.34052e-17
-2.78357e-17
-7.33472e-15
-1.04514e-14
-2.16522e-13
-3.19974e-13
8.91521e-13
1.34087e-11
1.25431e-10
1.01519e-09
6.99754e-09
3.6275e-08
1.32151e-07
3.71519e-07
7.84539e-07
1.78769e-06
3.56588e-06
9.62213e-06
0.000591512
0.00138162
0.00160424
0.00168428
0.0016439
0.00149316
0.00123935
0.00100281
0.000825725
0.000693413
0.000596644
0.000524066
0.000466976
0.000425794
0.000393131
0.000368744
0.000352309
0.000340938
0.000338152
0.000340257
0.000351394
0.000367172
0.00039047
0.000424455
0.00046727
0.000539271
0.000643396
0.000809177
0.00107496
0.00147882
0.0021357
0.00305643
0.00439541
0.00611583
0.00833625
0.0109717
0.0143106
0.0176271
0.020587
0.0231745
0.025499
0.0276676
0.0300078
0.0320628
0.0335133
0.0356634
0.0370559
0.036033
0.0343168
0.0318066
0.0270718
0.0183402
0.00834554
0.0032379
0.00179571
0.00110987
0.000667072
0.000377339
0.000199431
0.000100025
4.8987e-05
2.39724e-05
1.16679e-05
5.66157e-06
2.66796e-06
1.0912e-06
2.1306e-07
-4.82659e-08
6.73152e-07
3.36482e-06
1.04391e-05
8.57105e-05
0.000944073
0.00271557
0.00556686
0.00927252
0.0139849
0.0189952
0.0246589
0.0305056
0.0356113
0.0398749
0.04339
0.0463833
0.0486149
0.0500452
0.0508272
0.0513717
0.0518973
0.0524114
0.0528234
0.0530583
0.0531507
0.0531472
0.053074
0.0529327
0.0527598
0.0525553
0.0523083
0.0520765
0.0518291
0.0515514
0.0513478
0.0511297
0.0509908
0.050928
0.0509791
0.0511943
0.0516153
0.0522093
0.0528178
0.0534341
0.0540566
0.0545785
0.0548988
0.054928
0.054662
0.0538939
0.0526987
0.0508672
0.0485635
0.045371
0.0408141
0.0343727
0.0275098
0.020358
0.0159144
0.0126485
0.0104627
0.0101681
0.0121369
0.0158544
0.0216498
0.0277331
0.0329388
0.0369779
0.0400616
0.0423804
0.0440737
0.0452466
0.0459667
0.0462792
0.0462177
0.0458157
0.0451181
0.0441927
0.0431371
0.0420815
0.0411861
0.0406304
0.0405897
0.04122
0.0426714
0.0450853
0.0482724
0.0510414
0.0529109
0.054104
0.0547438
0.0547995
0.0541323
0.0526235
0.0505418
0.0481761
0.0460622
0.0430619
-2.54562e-24
1.06099e-23
-2.85468e-23
4.56185e-23
-6.07976e-24
-2.45191e-22
8.00409e-22
-1.18342e-21
-3.96886e-22
5.41544e-21
-6.02581e-21
-3.43763e-20
2.02084e-19
-6.30371e-19
1.45388e-18
-3.86033e-18
2.45346e-17
-2.28989e-18
-7.90014e-18
-1.05566e-15
3.614e-15
-7.96617e-15
-1.25793e-13
-1.11361e-12
-9.31005e-12
-6.68587e-11
-5.24394e-10
-2.11711e-09
-1.47452e-09
1.63059e-08
4.18792e-08
1.17971e-07
2.6219e-07
5.65249e-07
1.90514e-07
2.13345e-07
3.40494e-07
4.09849e-07
4.25631e-07
3.97521e-07
3.35318e-07
2.75891e-07
2.32003e-07
2.01161e-07
1.81705e-07
1.69954e-07
1.63188e-07
1.62209e-07
1.64044e-07
1.69275e-07
1.78475e-07
1.90881e-07
2.09984e-07
2.34871e-07
2.71502e-07
3.16351e-07
3.69065e-07
4.29256e-07
4.99578e-07
6.82931e-07
9.81971e-07
1.4773e-06
2.22499e-06
3.27421e-06
4.77808e-06
6.87878e-06
9.95377e-06
1.424e-05
5.92762e-05
0.000326732
0.000940742
0.00198139
0.00342946
0.00527501
0.0075625
0.0101077
0.0130035
0.0162919
0.0195159
0.0230961
0.0267795
0.0306326
0.0339448
0.0359743
0.0388884
0.0401161
0.0387831
0.0364216
0.0337246
0.0300607
0.0245556
0.0174442
0.00951298
0.00469568
0.0029098
0.00206092
0.00172721
0.00180941
0.00176666
0.00166158
0.00147076
0.00156737
0.00232227
0.0040669
0.00709158
0.0112677
0.0167137
0.0235526
0.0306931
0.0370855
0.0426246
0.0469175
0.0503601
0.0523029
0.0530078
0.053663
0.0540281
0.0537754
0.0530182
0.0518393
0.0503368
0.0486903
0.046923
0.0449884
0.0429027
0.0407286
0.0386227
0.0366501
0.03479
0.0330054
0.0313529
0.0298236
0.0283583
0.0270479
0.0258441
0.0246801
0.0237093
0.0228009
0.0220482
0.0214476
0.0210257
0.0208433
0.0209546
0.021377
0.0224888
0.0240561
0.0264939
0.0294676
0.0329271
0.0367325
0.040485
0.0441381
0.0473595
0.0494131
0.0502282
0.0507517
0.0516006
0.0512323
0.0498105
0.0470322
0.0452016
0.0440448
0.0436025
0.0438617
0.0453833
0.0480402
0.051192
0.0537036
0.0552462
0.0561661
0.056972
0.0576671
0.0582549
0.0587393
0.0590831
0.0593199
0.0594756
0.0595673
0.0596037
0.0595975
0.0595518
0.0594632
0.0593348
0.0591787
0.0590171
0.0588801
0.0587984
0.0587949
0.0588672
0.0590422
0.0597291
0.0611682
0.0634417
0.0665152
0.0702279
0.0740181
0.0759195
0.0766081
0.0768644
0.0767721
-6.71116e-25
2.04578e-24
-1.74925e-24
-4.75913e-24
2.49135e-23
-5.50201e-23
7.68313e-23
-1.799e-22
9.67107e-22
-4.44277e-21
1.561e-20
-4.75906e-20
1.39332e-19
-3.96742e-19
1.03396e-18
-2.24768e-18
2.86661e-18
-7.76863e-19
1.16242e-17
-7.01357e-17
2.37082e-16
1.56406e-15
1.8172e-15
6.88482e-15
5.83777e-14
5.00621e-13
-5.60335e-12
7.174e-12
1.53003e-10
1.75298e-09
7.50733e-09
1.14812e-08
1.96384e-08
6.20371e-09
2.02624e-08
1.89231e-08
1.35938e-08
1.82487e-09
-1.75422e-08
-3.59727e-08
-4.64115e-08
-5.06633e-08
-5.17588e-08
-5.12249e-08
-4.97915e-08
-4.76452e-08
-4.49581e-08
-4.21223e-08
-3.91606e-08
-3.63055e-08
-3.37205e-08
-3.14398e-08
-2.96535e-08
-2.83019e-08
-2.75901e-08
-2.69331e-08
-2.49663e-08
-1.99759e-08
-1.1587e-08
4.67612e-09
2.32824e-08
4.10206e-08
5.45876e-08
6.37182e-08
7.5182e-08
9.7552e-08
1.47701e-07
2.36586e-07
3.39967e-07
4.10668e-07
4.38171e-07
4.23177e-07
3.91976e-07
5.60437e-07
0.000163048
0.000576718
0.00128805
0.00237847
0.00387739
0.00586521
0.00842367
0.0116383
0.0156004
0.0196068
0.0240752
0.02845
0.0328338
0.0363796
0.0387148
0.0405548
0.0427783
0.0434405
0.0428197
0.0418206
0.0406591
0.0393708
0.0373597
0.0345401
0.0314057
0.0288346
0.0268271
0.0261731
0.0274168
0.0306496
0.0354913
0.0408375
0.0459075
0.0505258
0.0530894
0.0546096
0.0557265
0.0556535
0.0547303
0.0529702
0.0504399
0.0475897
0.0440955
0.040026
0.0359154
0.0319923
0.0282457
0.0247679
0.0216311
0.0188482
0.0164254
0.0143333
0.0125341
0.0109932
0.00966061
0.00852542
0.00759457
0.00682195
0.00615733
0.00560534
0.00512984
0.00470826
0.00436614
0.00406498
0.00382162
0.00362973
0.00349087
0.00341552
0.00341062
0.00347938
0.00372836
0.00415064
0.0049693
0.00622109
0.00807126
0.0107971
0.0143235
0.0187327
0.0238365
0.0297505
0.0353907
0.0402926
0.0445539
0.047945
0.0497205
0.0505499
0.0511886
0.0519778
0.0530023
0.0543615
0.0557649
0.0567498
0.0570823
0.0565373
0.0556677
0.0546304
0.0534938
0.0522614
0.051015
0.0498222
0.0487401
0.0478295
0.0470978
0.0465427
0.0461603
0.0459456
0.045896
0.0460126
0.0463021
0.0467783
0.0474651
0.0484011
0.0496114
0.0510117
0.052528
0.054079
0.0555739
0.0569763
0.0583217
0.0596886
0.0612233
0.0632697
0.0660692
0.0692811
0.0720504
0.0742098
4.86319e-26
-2.75272e-25
1.04523e-24
-2.05282e-24
2.05907e-24
1.99741e-25
1.25726e-23
-1.11904e-22
4.83166e-22
-1.52282e-21
4.17423e-21
-1.08565e-20
2.63498e-20
-5.44598e-20
8.21993e-20
-5.23874e-20
-1.17062e-19
5.62929e-21
-1.23484e-18
1.18655e-17
-4.21176e-17
1.83204e-16
-3.36282e-16
2.74228e-15
9.55799e-15
1.46918e-13
1.29178e-12
-3.07102e-12
5.08302e-11
1.08209e-10
2.86864e-10
4.84277e-10
8.67184e-10
8.46739e-10
2.93177e-09
3.62382e-09
3.1413e-09
1.79665e-09
-6.61233e-10
-2.17247e-09
-2.45437e-09
-2.26871e-09
-1.93344e-09
-1.58621e-09
-1.28586e-09
-1.03796e-09
-8.36872e-10
-6.81859e-10
-5.59116e-10
-4.64591e-10
-3.93157e-10
-3.38945e-10
-3.01354e-10
-2.75527e-10
-2.61356e-10
-4.56504e-10
-1.08646e-09
-2.03216e-09
-2.92975e-09
-3.42894e-09
-2.7009e-09
-6.15927e-10
1.48855e-09
3.64346e-09
7.02176e-09
1.26854e-08
2.23717e-08
3.61091e-08
5.8259e-08
7.84878e-08
7.22204e-08
4.05273e-08
2.81681e-08
8.2085e-08
8.67002e-08
1.97767e-07
3.30526e-07
4.77569e-07
5.28907e-07
2.81815e-05
0.000271035
0.000807843
0.00175751
0.0031815
0.00514482
0.00767503
0.0110673
0.0151368
0.0193303
0.0234248
0.027533
0.031226
0.0352238
0.0392584
0.0418031
0.0438967
0.0455047
0.0466309
0.0483382
0.0504579
0.0523025
0.053486
0.054271
0.0549162
0.0554173
0.0553337
0.0547214
0.0535082
0.0516214
0.0490926
0.0458289
0.0416025
0.0369501
0.0322114
0.0273932
0.0228083
0.0186626
0.0150644
0.0120567
0.00959248
0.00757484
0.00603062
0.00487667
0.00400022
0.0033236
0.00279159
0.00236739
0.0020256
0.00174666
0.00151559
0.00132485
0.00116519
0.00102806
0.000914187
0.000816788
0.000732413
0.000663689
0.000604583
0.000556786
0.000519044
0.000490922
0.000473705
0.00046761
0.000474607
0.000492696
0.000520636
0.000565947
0.000630154
0.000707924
0.000932558
0.00152759
0.0027618
0.00476116
0.00796632
0.0124788
0.0180179
0.0239478
0.0304448
0.0364678
0.0414747
0.0445154
0.0465517
0.0478162
0.0482965
0.0477657
0.0462186
0.0433247
0.0398427
0.0364224
0.0332787
0.0304904
0.0280759
0.0260228
0.024283
0.0228199
0.0216036
0.0206054
0.019798
0.0191568
0.0186604
0.0182916
0.0180372
0.0178883
0.0178399
0.0178918
0.0180493
0.0183254
0.018741
0.0193266
0.0201235
0.0211782
0.0225656
0.0243499
0.0265697
0.0292424
0.0323817
0.0359443
0.0400262
0.0437157
0.0504785
1.95345e-26
-6.22094e-26
5.92722e-26
1.5119e-25
-6.56471e-25
6.76921e-25
2.35381e-24
-9.32164e-24
1.22536e-23
2.53846e-23
-2.30577e-22
1.08475e-21
-4.10861e-21
1.25696e-20
-2.92719e-20
4.5809e-20
-3.42533e-20
8.4696e-20
-1.06449e-18
4.78754e-18
-1.38103e-17
3.5738e-17
-1.80853e-16
3.18555e-16
7.20552e-16
2.57861e-14
1.21688e-13
5.46846e-13
4.72358e-12
7.05648e-12
1.51901e-11
2.7192e-11
5.13081e-11
6.35837e-11
1.86371e-10
2.32508e-10
2.08284e-10
1.1967e-10
-2.89985e-11
-1.71969e-10
-1.93056e-10
-1.74208e-10
-1.42224e-10
-1.10139e-10
-8.32052e-11
-6.18694e-11
-4.53832e-11
-3.31339e-11
-2.39589e-11
-1.72056e-11
-1.22643e-11
-8.63569e-12
-6.03577e-12
-4.13519e-12
-2.76907e-12
-1.69762e-12
1.18215e-13
9.19574e-12
3.79502e-11
3.14379e-11
-2.33767e-10
-4.47029e-10
-5.46412e-10
-3.336e-10
4.84696e-11
6.6902e-10
1.71607e-09
3.11325e-09
4.70659e-09
8.98556e-09
1.49377e-08
1.76936e-08
1.60584e-08
2.00464e-08
3.7392e-09
-2.79328e-09
2.6855e-09
2.00995e-09
7.78187e-08
1.34597e-07
3.34863e-07
5.16825e-07
6.48153e-07
6.02843e-07
9.98215e-07
9.1437e-05
0.000453126
0.00116339
0.00225509
0.00371985
0.0055099
0.00752015
0.00996827
0.0127677
0.0156031
0.0182004
0.020782
0.0233399
0.025938
0.0280982
0.0297665
0.0307139
0.0310587
0.0309153
0.0302598
0.0292067
0.0276318
0.0255919
0.0231222
0.0203263
0.0173552
0.0143868
0.0115695
0.00904953
0.0068808
0.00521039
0.0039683
0.00304727
0.00236317
0.00184891
0.00145817
0.00115904
0.000927809
0.000747689
0.0006072
0.000496901
0.000409738
0.00034042
0.00028474
0.000239555
0.000202983
0.000173058
0.000148004
0.000127647
0.000110652
9.63916e-05
8.49514e-05
7.54162e-05
6.78315e-05
6.19479e-05
5.75831e-05
5.48418e-05
5.3652e-05
5.4243e-05
5.63316e-05
5.9681e-05
6.51354e-05
7.28053e-05
8.3486e-05
9.85206e-05
0.000118898
0.000147598
0.000180918
0.000298549
0.00103174
0.00271705
0.00548752
0.0098132
0.0149997
0.0208125
0.0248447
0.0274922
0.0288067
0.0288957
0.0275089
0.0249411
0.0212762
0.0175947
0.0144825
0.0119895
0.0100342
0.00851228
0.00732918
0.00641074
0.00571044
0.00517913
0.00477443
0.00446477
0.00422761
0.00404706
0.00391194
0.00381433
0.00374861
0.00371088
0.0036988
0.00371146
0.00374956
0.0038156
0.00391435
0.00405352
0.00424371
0.00450174
0.00485201
0.00532384
0.00594904
0.00676639
0.00778805
0.00916319
0.0104106
0.0138704
-7.27477e-28
5.40263e-27
-2.42962e-26
5.93646e-26
-1.14272e-25
3.07656e-25
-1.56817e-24
7.0392e-24
-2.52431e-23
7.89897e-23
-2.27716e-22
6.01402e-22
-1.37747e-21
2.50428e-21
-3.02171e-21
9.58883e-22
2.25553e-21
1.23468e-20
-7.04965e-20
1.65825e-19
-3.84476e-19
1.17504e-18
-4.08691e-18
-2.41485e-17
3.27971e-17
8.6564e-16
3.22478e-15
2.32816e-14
1.53701e-13
3.06888e-13
7.68193e-13
1.58967e-12
3.48236e-12
5.72696e-12
1.29552e-11
1.09566e-11
1.9304e-12
-9.49603e-12
-1.87426e-11
-2.40272e-11
-2.16031e-11
-1.67678e-11
-1.19908e-11
-8.15834e-12
-5.3427e-12
-3.29787e-12
-1.77781e-12
-6.2624e-13
2.58148e-13
9.20408e-13
1.39019e-12
1.7094e-12
1.91831e-12
2.03617e-12
2.08471e-12
2.06631e-12
1.89721e-12
2.0673e-12
3.79841e-12
1.84437e-11
3.57701e-11
6.28981e-11
2.89359e-11
-1.29689e-11
-2.81531e-11
2.126e-11
1.63159e-10
3.00613e-10
3.57668e-10
3.33792e-10
-4.01145e-10
-2.57389e-10
-7.71001e-10
-2.21676e-09
-4.60074e-09
-7.92492e-09
-6.97734e-09
-4.4675e-09
1.16925e-08
2.45828e-08
4.32981e-08
7.08174e-08
8.34301e-08
1.39354e-07
2.94444e-07
3.87792e-07
6.28118e-07
7.60874e-07
8.12093e-07
9.92585e-07
2.37015e-06
1.47245e-05
0.000130404
0.00036441
0.000716249
0.00111805
0.00154594
0.00200115
0.0025278
0.00306883
0.00363122
0.00416216
0.00465681
0.00508192
0.00535846
0.00545173
0.00529022
0.00490259
0.00434531
0.00370291
0.00305765
0.00246391
0.00194939
0.0015265
0.00118441
0.000914749
0.000703428
0.000538964
0.000412816
0.000316503
0.00024307
0.000187442
0.000145194
0.000112919
8.82142e-05
6.91803e-05
5.44317e-05
4.2941e-05
3.39169e-05
2.67822e-05
2.11604e-05
1.67041e-05
1.31321e-05
1.03554e-05
8.1468e-06
6.39826e-06
5.0675e-06
4.03687e-06
3.27673e-06
2.74119e-06
2.3915e-06
2.22303e-06
2.21478e-06
2.38003e-06
2.69183e-06
3.12279e-06
3.74622e-06
4.58282e-06
5.72114e-06
7.32248e-06
9.50078e-06
1.26823e-05
1.70919e-05
2.31057e-05
3.10816e-05
4.04917e-05
4.61126e-05
0.000572763
0.00182738
0.00408808
0.00609025
0.00765027
0.00836958
0.00825553
0.00726171
0.00578577
0.00420263
0.00300659
0.00222069
0.00170502
0.0013563
0.00111314
0.000939375
0.000812814
0.00071928
0.000649499
0.000597232
0.000558147
0.00052919
0.000508189
0.000493589
0.000484272
0.000479423
0.000478476
0.000481086
0.000487109
0.000496602
0.000509855
0.000527457
0.000550379
0.000580236
0.000618815
0.000668813
0.000734626
0.000822167
0.000939321
0.00109436
0.00130633
0.00154725
0.00206403
-1.81809e-28
6.13198e-28
-7.33427e-28
2.33263e-28
-7.30335e-27
6.32072e-26
-2.83648e-25
8.75784e-25
-2.2595e-24
5.05472e-24
-8.92286e-24
6.57617e-24
2.92513e-23
-1.51353e-22
3.76432e-22
-5.42054e-22
7.82229e-22
-5.75196e-21
3.74117e-20
-1.45688e-19
4.56644e-19
-1.43685e-18
4.91126e-18
-5.98955e-18
4.55214e-18
2.23001e-17
1.15306e-16
2.42461e-16
5.31806e-15
1.50689e-14
4.42562e-14
1.05067e-13
2.75871e-13
6.2453e-13
1.32803e-12
4.22351e-13
-2.8854e-12
-6.67859e-12
-8.59079e-12
-7.96044e-12
-5.69901e-12
-3.40412e-12
-1.94016e-12
-1.05812e-12
-5.04561e-13
-1.25568e-13
1.70359e-13
3.8442e-13
5.21547e-13
6.09978e-13
6.5969e-13
6.61872e-13
6.44497e-13
6.13022e-13
5.71978e-13
5.23959e-13
4.92734e-13
4.78298e-13
4.24156e-13
2.25862e-12
4.86453e-12
1.19969e-11
1.96042e-11
2.94503e-11
4.02204e-11
5.77281e-11
7.92496e-11
1.30319e-10
1.44751e-10
7.14913e-11
-2.09877e-10
-7.83896e-10
-1.64371e-09
-3.11071e-09
-4.83085e-09
-6.91591e-09
-9.2106e-09
-9.24433e-09
-6.95838e-09
-1.04973e-09
1.02387e-08
2.74089e-08
4.89422e-08
8.47084e-08
1.31117e-07
1.6665e-07
2.14178e-07
2.43196e-07
3.06369e-07
3.76287e-07
4.3694e-07
9.35628e-07
1.46876e-06
2.10784e-06
2.97089e-06
4.24514e-06
6.44286e-06
1.04766e-05
1.79812e-05
3.05124e-05
4.98681e-05
7.58163e-05
0.000107264
0.000141015
0.000172312
0.000198072
0.000214292
0.00022058
0.000217105
0.000205367
0.000187844
0.000166715
0.000144018
0.000121678
0.000100393
8.13321e-05
6.47264e-05
5.06235e-05
3.90084e-05
2.96004e-05
2.20828e-05
1.61826e-05
1.15851e-05
8.02088e-06
5.27731e-06
3.1698e-06
1.55484e-06
3.2219e-07
-6.11302e-07
-1.30652e-06
-1.8068e-06
-2.15096e-06
-2.38084e-06
-2.54064e-06
-2.6528e-06
-2.7157e-06
-2.72818e-06
-2.70121e-06
-2.64231e-06
-2.55817e-06
-2.45433e-06
-2.33743e-06
-2.21151e-06
-2.08162e-06
-1.94678e-06
-1.80532e-06
-1.65861e-06
-1.51046e-06
-1.36072e-06
-1.20344e-06
-1.03117e-06
-8.14421e-07
-5.37581e-07
-1.0439e-07
6.11536e-07
1.85189e-06
3.97327e-06
6.25668e-06
7.45657e-06
6.90813e-06
8.26297e-06
6.3656e-05
8.13987e-05
8.79834e-05
8.45596e-05
7.50929e-05
6.26106e-05
5.21434e-05
4.43237e-05
3.84527e-05
3.40572e-05
3.07885e-05
2.83887e-05
2.66641e-05
2.54718e-05
2.47084e-05
2.42966e-05
2.41772e-05
2.43065e-05
2.4653e-05
2.51943e-05
2.59137e-05
2.67994e-05
2.78465e-05
2.90599e-05
3.04543e-05
3.20578e-05
3.3917e-05
3.6106e-05
3.8739e-05
4.19919e-05
4.60443e-05
5.1242e-05
5.81083e-05
6.73737e-05
8.00294e-05
9.73238e-05
0.000121138
0.000151199
0.000206242
9.37471e-30
-5.53309e-29
2.08164e-28
-5.35554e-28
1.41744e-27
-5.59508e-27
2.6408e-26
-1.06366e-25
3.68541e-25
-1.15783e-24
3.30433e-24
-8.27053e-24
1.69967e-23
-2.54216e-23
1.87182e-23
9.1866e-24
6.89319e-23
-8.45699e-22
3.89944e-21
-1.38144e-20
5.00396e-20
-1.66566e-19
3.62361e-19
2.07347e-19
3.70468e-19
2.92489e-18
-1.07991e-17
-2.90859e-17
1.69293e-16
8.23803e-16
2.68978e-15
7.51612e-15
2.3751e-14
7.16035e-14
4.279e-14
-3.70957e-13
-8.44876e-13
-9.50848e-13
-7.56784e-13
-5.16811e-13
-3.1746e-13
-1.41169e-13
9.33989e-14
3.62449e-13
5.96949e-13
7.97078e-13
8.97733e-13
8.83405e-13
8.28162e-13
7.77688e-13
7.50116e-13
7.46273e-13
7.63068e-13
7.96336e-13
8.39739e-13
8.84809e-13
9.2153e-13
9.3106e-13
9.11455e-13
9.68775e-13
9.86625e-13
1.58969e-12
3.78108e-12
7.30587e-12
1.42829e-11
2.46198e-11
4.05426e-11
6.53865e-11
9.80516e-11
1.26357e-10
1.71089e-10
1.40613e-10
5.59082e-11
-1.52399e-10
-5.60059e-10
-1.21948e-09
-2.34695e-09
-3.83819e-09
-5.68276e-09
-6.66887e-09
-5.4002e-09
-1.68085e-09
5.19861e-09
1.59043e-08
3.03662e-08
5.15894e-08
7.81173e-08
1.08623e-07
1.43183e-07
1.90671e-07
2.38863e-07
2.95441e-07
3.75179e-07
4.81302e-07
6.14512e-07
7.66074e-07
9.40141e-07
1.12337e-06
1.30145e-06
1.44055e-06
1.53894e-06
1.57614e-06
1.55678e-06
1.48224e-06
1.35973e-06
1.20695e-06
1.03187e-06
8.46086e-07
6.50697e-07
4.36993e-07
1.80797e-07
-1.04146e-07
-3.94988e-07
-6.81357e-07
-9.55902e-07
-1.21698e-06
-1.4609e-06
-1.6843e-06
-1.88709e-06
-2.068e-06
-2.22612e-06
-2.36336e-06
-2.47919e-06
-2.57396e-06
-2.64962e-06
-2.70707e-06
-2.747e-06
-2.76716e-06
-2.76276e-06
-2.7278e-06
-2.66269e-06
-2.57125e-06
-2.45498e-06
-2.3324e-06
-2.19728e-06
-2.03469e-06
-1.84739e-06
-1.66058e-06
-1.48563e-06
-1.32968e-06
-1.19279e-06
-1.07987e-06
-9.89198e-07
-9.21091e-07
-8.80731e-07
-8.6613e-07
-8.7883e-07
-9.05408e-07
-9.34466e-07
-9.60228e-07
-9.63802e-07
-9.26363e-07
-8.65435e-07
-7.82551e-07
-6.26175e-07
-3.9816e-07
-7.0595e-08
4.66064e-07
1.2e-06
2.14186e-06
2.71928e-06
3.43361e-06
3.4004e-06
3.02232e-06
2.40933e-06
1.75867e-06
1.15965e-06
7.04123e-07
3.811e-07
1.55127e-07
-1.30904e-09
-1.07717e-07
-1.77024e-07
-2.17095e-07
-2.33045e-07
-2.27887e-07
-2.06812e-07
-1.71627e-07
-1.25284e-07
-6.94694e-08
-5.79477e-09
6.27408e-08
1.33101e-07
2.02576e-07
2.68772e-07
3.30006e-07
3.8575e-07
4.3723e-07
4.88252e-07
5.46741e-07
6.2526e-07
7.42457e-07
9.27912e-07
1.22429e-06
1.691e-06
2.40806e-06
3.47886e-06
5.03496e-06
7.18201e-06
1.06665e-05
-1.61963e-32
1.09921e-30
-7.80903e-30
1.83969e-29
2.17154e-29
-2.98484e-28
1.14955e-27
-3.29308e-27
9.23629e-27
-2.41453e-26
4.8515e-26
-4.73147e-26
-1.09736e-25
6.73889e-25
-1.87365e-24
4.80583e-24
-2.34585e-23
1.42404e-22
-6.6813e-22
2.32245e-21
-6.69634e-21
1.91753e-20
-5.03966e-20
6.64279e-20
1.37674e-19
-5.03649e-19
2.05545e-18
-7.23406e-18
-2.22014e-17
5.59605e-17
-4.12698e-17
5.01525e-16
4.7357e-15
2.56629e-15
-4.75178e-14
-9.67336e-14
-9.15001e-14
-7.42866e-14
-5.38112e-14
-3.30777e-14
5.73468e-14
3.76961e-13
1.25944e-12
2.28571e-12
2.98362e-12
3.6497e-12
4.34758e-12
4.98507e-12
5.60068e-12
6.18891e-12
6.72337e-12
7.1648e-12
7.4662e-12
7.58774e-12
7.41349e-12
6.96788e-12
6.34255e-12
5.52402e-12
4.65834e-12
3.76392e-12
2.97055e-12
2.34692e-12
1.97786e-12
1.75238e-12
2.0616e-12
3.06029e-12
5.3879e-12
1.17704e-11
2.27662e-11
4.11339e-11
6.68279e-11
9.32334e-11
1.18232e-10
1.35091e-10
1.54377e-10
1.96323e-10
2.11046e-10
-1.20214e-11
-6.1332e-10
-1.5962e-09
-2.66846e-09
-3.58818e-09
-3.59537e-09
-3.40192e-09
-2.88486e-09
-9.52663e-10
2.9675e-09
9.46801e-09
1.82596e-08
3.08519e-08
4.70259e-08
6.17944e-08
7.49321e-08
8.65111e-08
9.58619e-08
1.01618e-07
1.04513e-07
1.04538e-07
1.0287e-07
9.9776e-08
9.71141e-08
9.47594e-08
9.32414e-08
9.21534e-08
9.08863e-08
8.92145e-08
8.64649e-08
8.26495e-08
7.80957e-08
7.37883e-08
7.14252e-08
6.2063e-08
4.29465e-08
1.8173e-08
-8.63935e-09
-3.35337e-08
-5.66782e-08
-7.88239e-08
-9.99834e-08
-1.19869e-07
-1.38018e-07
-1.54369e-07
-1.68494e-07
-1.79957e-07
-1.88636e-07
-1.94336e-07
-1.96987e-07
-1.96641e-07
-1.93285e-07
-1.87047e-07
-1.78797e-07
-1.69708e-07
-1.59651e-07
-1.49686e-07
-1.39217e-07
-1.28829e-07
-1.18846e-07
-1.09039e-07
-9.9649e-08
-9.07559e-08
-8.228e-08
-7.48104e-08
-6.83465e-08
-6.31303e-08
-6.1407e-08
-6.67137e-08
-8.32993e-08
-1.12296e-07
-1.54927e-07
-2.12962e-07
-2.89551e-07
-3.87604e-07
-4.76463e-07
-5.53606e-07
-6.12404e-07
-6.17431e-07
-5.64194e-07
-4.78242e-07
-3.73762e-07
-5.99676e-08
1.31309e-07
1.58677e-07
1.19168e-07
2.24226e-08
-1.32969e-07
-3.0357e-07
-4.5524e-07
-5.65218e-07
-6.37655e-07
-6.85063e-07
-7.18167e-07
-7.4107e-07
-7.5338e-07
-7.51773e-07
-7.32664e-07
-6.95972e-07
-6.42253e-07
-5.91143e-07
-5.384e-07
-4.94145e-07
-4.56796e-07
-4.17403e-07
-3.78852e-07
-3.47286e-07
-3.23574e-07
-3.07631e-07
-2.99299e-07
-2.98684e-07
-3.05961e-07
-3.21379e-07
-3.45304e-07
-3.76564e-07
-4.12414e-07
-4.48366e-07
-4.76801e-07
-4.8351e-07
-4.63083e-07
-4.19203e-07
-3.57094e-07
-2.8008e-07
2.46751e-29
-9.71289e-29
1.98751e-28
-1.05794e-28
-7.5093e-28
2.18301e-27
-1.36401e-27
-4.20054e-27
6.96997e-27
2.84725e-27
-9.83859e-27
-2.34748e-26
4.69625e-26
3.67445e-26
-1.63975e-25
5.97541e-25
-3.91181e-24
2.0607e-23
-9.15761e-23
3.68847e-22
-1.36282e-21
4.25995e-21
-8.97881e-21
6.0736e-21
2.00391e-20
-1.44752e-19
5.56066e-19
-1.26828e-19
-2.88802e-18
2.29552e-17
-7.7116e-17
-4.877e-17
8.77468e-16
-2.11903e-15
-8.01515e-15
-7.33039e-15
-5.66349e-15
-3.50159e-15
-2.19654e-15
4.01803e-14
7.83984e-13
3.27586e-12
9.46301e-12
1.69947e-11
2.31505e-11
3.10982e-11
4.05187e-11
4.95322e-11
5.7525e-11
6.32484e-11
6.61221e-11
6.67642e-11
6.54216e-11
6.3067e-11
6.85185e-11
8.07666e-11
8.73141e-11
9.16989e-11
9.35443e-11
9.09041e-11
8.51057e-11
7.62161e-11
6.57289e-11
5.47897e-11
4.42961e-11
3.50911e-11
2.73432e-11
2.18731e-11
1.89822e-11
1.76403e-11
1.79666e-11
2.13079e-11
2.77253e-11
4.29045e-11
6.6235e-11
9.34987e-11
1.16232e-10
1.39208e-10
1.70971e-10
1.45911e-10
-5.68229e-11
-4.94889e-10
-9.47146e-10
-1.4071e-09
-1.79024e-09
-2.01425e-09
-1.88221e-09
-1.67001e-09
-1.38449e-09
-1.05773e-09
-6.79218e-10
-2.14261e-10
2.94926e-10
8.67237e-10
1.49781e-09
2.14458e-09
2.79832e-09
3.42306e-09
4.00608e-09
4.50602e-09
4.95193e-09
5.32422e-09
5.65363e-09
5.94281e-09
6.19084e-09
6.40922e-09
6.57936e-09
6.70653e-09
6.77348e-09
6.75684e-09
6.67598e-09
6.5526e-09
6.55469e-09
6.54667e-09
6.14548e-09
5.57422e-09
5.13314e-09
4.93402e-09
4.85906e-09
4.81882e-09
4.80386e-09
4.81026e-09
4.85326e-09
4.98717e-09
5.30297e-09
5.73947e-09
6.12746e-09
6.34514e-09
6.14614e-09
4.57462e-09
1.07915e-09
-2.98212e-09
-7.23241e-09
-1.10944e-08
-1.43958e-08
-1.76019e-08
-2.00234e-08
-2.09329e-08
-2.00126e-08
-1.74446e-08
-1.36398e-08
-9.55222e-09
-5.94162e-09
-2.95779e-09
-8.85762e-10
6.29288e-10
1.78185e-09
2.64603e-09
3.2561e-09
3.76182e-09
-2.89495e-09
-2.47346e-08
-6.19407e-08
-1.15237e-07
-1.81114e-07
-2.80527e-07
-3.68145e-07
-4.39283e-07
-4.85747e-07
-4.91832e-07
-5.20506e-07
-5.65243e-07
-6.24423e-07
-6.85299e-07
-7.32308e-07
-7.50893e-07
-7.50119e-07
-7.51689e-07
-7.57617e-07
-7.71006e-07
-7.96283e-07
-8.21579e-07
-8.4011e-07
-8.42982e-07
-8.17496e-07
-7.78376e-07
-6.92793e-07
-5.99356e-07
-5.7487e-07
-5.7003e-07
-5.83502e-07
-6.16391e-07
-6.74277e-07
-7.56542e-07
-8.47783e-07
-9.36915e-07
-1.01555e-06
-1.0787e-06
-1.12425e-06
-1.15162e-06
-1.16238e-06
-1.15892e-06
-1.14084e-06
-1.11212e-06
-1.09084e-06
-1.063e-06
-9.98161e-07
-9.25595e-07
-8.16547e-07
-6.14703e-07
-3.14044e-29
-5.36491e-29
1.18374e-27
-4.56529e-27
7.56574e-27
3.62691e-27
-3.95578e-26
5.58566e-26
2.44203e-26
-1.05045e-25
-1.64756e-25
6.38893e-25
9.86051e-27
-1.81484e-24
1.08055e-24
2.2675e-24
-2.48179e-25
-3.62171e-24
3.10633e-24
-8.85043e-24
-3.37766e-24
1.30872e-22
-7.77688e-22
3.51963e-21
-1.30578e-20
4.20051e-20
-1.1246e-19
2.73633e-19
-2.54335e-19
1.505e-18
3.4574e-19
2.57829e-18
-4.15414e-17
-2.08885e-16
-2.72491e-16
-1.83583e-16
-2.54502e-15
1.7991e-14
-3.49527e-15
8.72021e-13
8.1117e-12
3.35798e-11
9.80245e-11
1.64008e-10
2.60445e-10
4.31453e-10
6.34788e-10
8.21383e-10
1.01054e-09
1.22672e-09
1.48416e-09
1.81659e-09
2.19132e-09
2.64328e-09
3.0427e-09
3.31156e-09
3.40779e-09
3.35296e-09
3.1926e-09
2.91313e-09
2.5705e-09
2.18383e-09
1.79202e-09
1.422e-09
1.09228e-09
8.15616e-10
5.94439e-10
4.29868e-10
3.11558e-10
2.28604e-10
1.71804e-10
1.3325e-10
1.07388e-10
8.97942e-11
7.66068e-11
7.0201e-11
7.08325e-11
8.38412e-11
1.00465e-10
1.15786e-10
1.20329e-10
1.20443e-10
1.00348e-10
2.91053e-11
-8.66446e-11
-2.72864e-10
-4.3438e-10
-5.55225e-10
-6.37805e-10
-6.72377e-10
-6.50314e-10
-5.6895e-10
-4.26433e-10
-2.54355e-10
-1.09292e-10
4.10441e-11
1.97848e-10
3.50133e-10
4.92166e-10
6.14068e-10
7.17082e-10
7.96221e-10
8.57275e-10
9.05709e-10
9.45449e-10
9.84046e-10
1.03171e-09
1.06542e-09
1.05835e-09
1.02322e-09
1.00483e-09
9.48622e-10
1.57771e-09