/*--------------------------------*- C++ -*----------------------------------*\
| =========                 |                                                 |
| \\      /  F ield         | OpenFOAM: The Open Source CFD Toolbox           |
|  \\    /   O peration     | Version:  2506                                  |
|   \\  /    A nd           | Website:  www.openfoam.com                      |
|    \\/     M anipulation  |                                                 |
\*---------------------------------------------------------------------------*/
FoamFile
{
    version     2.0;
    format      ascii;
    arch        "LSB;label=32;scalar=64";
    class       volVectorField;
    location    "3.6";
    object      U;
}
// * * * * * * * * * * * * * * * * * * * * * * * * * * * * * * * * * * * * * //

dimensions      [0 1 -1 0 0 0 0];

internalField   nonuniform List<vector> 
4000
(
(0.0138049 0.00103864 0)
(0.0124343 0.00142363 -4.14907e-21)
(0.0103831 0.000972496 4.34569e-21)
(0.008402 0.000524496 8.8404e-21)
(0.00715177 0.00026589 -1.81025e-20)
(0.00641897 0.000132815 9.18297e-21)
(0.00595755 6.91441e-05 0)
(0.00565712 4.03617e-05 0)
(0.00546098 2.80003e-05 0)
(0.00532924 2.31999e-05 1.83899e-20)
(0.00523541 2.19608e-05 -1.84287e-20)
(0.00516371 2.23591e-05 3.65774e-20)
(0.00510496 2.35309e-05 -3.66217e-20)
(0.0050537 2.50788e-05 0)
(0.00500666 2.67923e-05 0)
(0.00496187 2.85929e-05 0)
(0.00491807 3.04386e-05 3.59165e-20)
(0.00487434 3.23363e-05 -3.59451e-20)
(0.00482989 3.43051e-05 0)
(0.00478398 3.63681e-05 0)
(0.00473583 3.85512e-05 0)
(0.00468457 4.08797e-05 0)
(0.00462928 4.33783e-05 0)
(0.00456887 4.60734e-05 7.00278e-20)
(0.00450216 4.89961e-05 -1.39915e-19)
(0.00442773 5.21881e-05 6.98958e-20)
(0.00434396 5.57109e-05 0)
(0.00424887 5.96634e-05 0)
(0.00413998 6.4223e-05 0)
(0.00401399 6.97054e-05 0)
(0.00386622 7.67344e-05 -6.89187e-20)
(0.00368972 8.69019e-05 6.91304e-20)
(0.00348073 0.000100216 0)
(0.00316326 0.000127126 6.04379e-20)
(0.00279659 0.000221688 6.92725e-20)
(0.0026016 0.000410982 -3.49528e-19)
(0.0026046 0.000659564 -2.80617e-19)
(0.00268963 0.000928808 7.05523e-20)
(0.0028153 0.00121341 -2.82125e-19)
(0.0029965 0.00152291 -6.33975e-19)
(0.00331613 0.00187485 7.0347e-20)
(0.00379517 0.00223491 5.55295e-19)
(0.00428853 0.00253084 -5.48971e-19)
(0.00472855 0.00275423 0)
(0.00514049 0.0029251 0)
(0.00553236 0.00305456 -3.2842e-20)
(0.00593125 0.00315149 -4.87355e-19)
(0.00631982 0.00320311 -4.82269e-19)
(0.00668856 0.00320856 -2.8572e-19)
(0.00705721 0.00316882 -2.4912e-19)
(0.00739548 0.0030723 2.44517e-19)
(0.00771334 0.002922 0)
(0.00797882 0.00270045 -2.93435e-20)
(0.00819162 0.00242534 4.95097e-19)
(0.00833203 0.00208401 0)
(0.00838038 0.00169547 -1.12742e-19)
(0.00834547 0.00126542 -2.75676e-20)
(0.00817897 0.00081446 -3.49403e-23)
(0.00795079 0.000375619 -4.68725e-22)
(0.00759412 -6.06048e-05 -1.37381e-20)
(0.00716367 -0.000447838 2.6269e-20)
(0.00669955 -0.00078432 0)
(0.00619605 -0.00106124 0)
(0.00571042 -0.00127752 5.14314e-20)
(0.00522543 -0.00143824 3.59307e-19)
(0.00478856 -0.00155015 5.0787e-20)
(0.00438175 -0.00162199 -5.11893e-20)
(0.00402532 -0.00166332 5.01199e-20)
(0.00371281 -0.00168195 1.4956e-19)
(0.00343841 -0.00168357 -3.46936e-19)
(0.00320982 -0.00167582 -4.93034e-20)
(0.00300507 -0.00165861 6.65025e-22)
(0.00283116 -0.00163646 0)
(0.00268368 -0.00161057 0)
(0.00255126 -0.00157926 0)
(0.00243833 -0.00154514 -2.35781e-20)
(0.0023408 -0.00150938 -3.51529e-19)
(0.00225078 -0.00147077 0)
(0.00217013 -0.00142999 6.6073e-22)
(0.00209828 -0.00138787 2.28047e-20)
(0.00203182 -0.00134418 -3.62647e-19)
(0.00197096 -0.00129937 3.26302e-19)
(0.00191551 -0.00125387 4.79567e-23)
(0.00186484 -0.00120773 3.58494e-19)
(0.0018207 -0.00116177 2.15415e-21)
(0.0017814 -0.00111594 -3.43585e-19)
(0.001745 -0.00106918 -3.4558e-19)
(0.00171588 -0.00102252 3.47842e-19)
(0.00169157 -0.000975782 -5.25684e-21)
(0.00166801 -0.000927015 -3.3223e-19)
(0.00165126 -0.000877296 0)
(0.00163796 -0.000826314 -3.34859e-19)
(0.0016244 -0.000772136 -3.10946e-19)
(0.00161711 -0.000716067 3.17249e-19)
(0.00160862 -0.000656647 -1.7645e-19)
(0.00160554 -0.000594202 1.93767e-20)
(0.0016021 -0.000528662 1.53178e-19)
(0.00160284 -0.000459559 1.88802e-20)
(0.00160265 -0.000387299 1.31071e-19)
(0.00160771 -0.00031094 9.26316e-20)
(0.00161404 -0.000232954 -3.67515e-20)
(0.00162281 -0.000151335 9.12375e-20)
(0.00163741 -6.91785e-05 -9.08531e-21)
(0.0016514 1.39679e-05 -9.05154e-21)
(0.00167116 9.96425e-05 -3.60874e-20)
(0.00169516 0.000186295 0)
(0.0017236 0.000274799 0)
(0.00176026 0.000364165 -2.84833e-19)
(0.00180143 0.00045463 -9.07099e-21)
(0.00185092 0.00054671 1.50152e-19)
(0.0019082 0.000640645 1.45847e-19)
(0.00197333 0.000737208 4.5666e-21)
(0.00204801 0.000837247 -1.51447e-19)
(0.00213194 0.000940307 -3.10092e-22)
(0.00222518 0.00104782 0)
(0.00233314 0.00116035 2.94386e-19)
(0.0024471 0.00127647 -9.15757e-21)
(0.00257292 0.00139788 -2.74168e-19)
(0.00271022 0.00152327 -9.17357e-21)
(0.00285424 0.0016509 -2.91109e-19)
(0.00300848 0.00178124 -1.22724e-21)
(0.00317228 0.00191231 2.87381e-19)
(0.00334037 0.002042 1.77041e-20)
(0.0035145 0.00217031 -3.17555e-19)
(0.00369592 0.00229522 1.75668e-20)
(0.00388079 0.00241439 2.75797e-19)
(0.00406977 0.00252653 3.37167e-20)
(0.00426208 0.00262959 -3.37923e-20)
(0.00445673 0.00272247 2.63639e-19)
(0.00465925 0.00280516 -2.24932e-19)
(0.00486735 0.00287267 -3.2097e-20)
(0.00507348 0.00292494 -4.64617e-19)
(0.00529391 0.00296433 -3.07744e-20)
(0.00552513 0.0029824 -2.37238e-19)
(0.00575332 0.00297975 2.07339e-21)
(0.00600605 0.00295972 0)
(0.00626506 0.00290617 0)
(0.00651888 0.00282617 -9.45584e-22)
(0.00678617 0.00270952 0)
(0.0070415 0.00255411 -2.4078e-20)
(0.00728581 0.00235504 -6.97197e-20)
(0.00750104 0.00210805 -2.22276e-20)
(0.00766439 0.00181314 -4.30795e-20)
(0.0077756 0.00147577 -2.14118e-20)
(0.0077863 0.00109631 -5.9684e-20)
(0.00772723 0.00070005 1.96051e-20)
(0.00754383 0.000276637 0)
(0.0072444 -0.000114899 0)
(0.00687919 -0.000475367 0)
(0.00642057 -0.000784219 -1.64201e-20)
(0.0059396 -0.0010339 1.65171e-20)
(0.00540932 -0.00122445 6.35054e-20)
(0.0048914 -0.00135098 6.23789e-20)
(0.00438104 -0.00142409 0)
(0.00391012 -0.00145042 -6.05818e-20)
(0.00346867 -0.00143923 0)
(0.0030719 -0.00139801 -1.45849e-20)
(0.00271031 -0.00133191 7.36192e-20)
(0.00237188 -0.00123835 -1.45514e-20)
(0.00202883 -0.00107067 2.47092e-19)
(0.00197508 -0.000921004 -5.76697e-20)
(0.00214033 -0.000816706 -5.68787e-20)
(0.00229811 -0.000712333 0)
(0.00244822 -0.000592084 0)
(0.00263618 -0.000457392 0)
(0.00287404 -0.000315606 0)
(0.00320627 -0.000187136 0)
(0.00356666 -0.000111709 1.18728e-20)
(0.00381946 -7.99935e-05 -3.82338e-22)
(0.00397845 -6.61247e-05 -3.85724e-22)
(0.00409834 -5.90013e-05 -1.10582e-20)
(0.00420245 -5.50653e-05 0)
(0.00429932 -5.27878e-05 9.84378e-21)
(0.00439265 -5.12392e-05 -9.81325e-21)
(0.00448317 -4.97873e-05 2.87524e-22)
(0.00456949 -4.80567e-05 0)
(0.00464919 -4.5892e-05 0)
(0.00471966 -4.32289e-05 -7.85226e-21)
(0.00477859 -4.00579e-05 7.83314e-21)
(0.00482511 -3.65221e-05 0)
(0.00485878 -3.29909e-05 0)
(0.00487969 -2.93966e-05 -2.95386e-21)
(0.00488897 -2.57489e-05 1.84102e-22)
(0.00488848 -2.21414e-05 2.96324e-21)
(0.00487976 -1.93775e-05 0)
(0.00486471 -1.73084e-05 0)
(0.0048456 -1.54411e-05 0)
(0.0048243 -1.3833e-05 0)
(0.00480256 -1.23796e-05 1.21916e-22)
(0.00478191 -1.11561e-05 0)
(0.00476348 -1.01763e-05 0)
(0.00474811 -9.47444e-06 0)
(0.00473615 -9.12274e-06 5.83481e-22)
(0.00472776 -8.70747e-06 -5.82641e-22)
(0.00472298 -8.1127e-06 0)
(0.00472146 -7.32728e-06 4.63513e-23)
(0.00472255 -6.30651e-06 1.23282e-22)
(0.00472527 -4.97558e-06 -8.21325e-23)
(0.00472726 -2.80781e-06 -4.08803e-23)
(0.00472804 2.94768e-06 0)
(0.0164278 0.00176601 0)
(0.0173838 0.00312125 0)
(0.0171973 0.00278864 0)
(0.0162849 0.00220455 8.17541e-21)
(0.0151781 0.00157849 -1.67148e-20)
(0.0141816 0.00106479 8.53066e-21)
(0.0133934 0.000697052 0)
(0.012785 0.000455582 1.73843e-20)
(0.0123261 0.00030415 -1.75777e-20)
(0.0119832 0.000211226 1.75561e-20)
(0.0117234 0.000155145 -1.7662e-20)
(0.0115199 0.000121565 -3.51599e-20)
(0.0113537 0.000101563 3.52854e-20)
(0.0112118 8.96952e-05 3.50648e-20)
(0.0110858 8.2683e-05 -1.61343e-22)
(0.0109702 7.86934e-05 -6.99786e-20)
(0.0108612 7.67749e-05 3.49807e-20)
(0.0107562 7.64817e-05 0)
(0.010653 7.76373e-05 0)
(0.0105498 8.02278e-05 0)
(0.0104445 8.43358e-05 0)
(0.0103354 9.00984e-05 0)
(0.0102204 9.76925e-05 0)
(0.0100972 0.000107339 0)
(0.0099633 0.000119317 0)
(0.00981603 0.000133988 0)
(0.00965218 0.000151839 0)
(0.00946804 0.000173565 0)
(0.00925915 0.000200195 0)
(0.00901996 0.000233355 0)
(0.00874339 0.000275788 -6.79454e-20)
(0.00841918 0.000332564 2.33282e-22)
(0.00804354 0.000412879 1.36655e-19)
(0.00754711 0.000528223 -6.00618e-20)
(0.00699189 0.000743356 -6.90241e-20)
(0.00662993 0.0011221 2.10195e-19)
(0.00654371 0.00164708 -2.83027e-19)
(0.00663606 0.00226318 -7.10042e-20)
(0.00685286 0.00293523 7.13815e-19)
(0.00721007 0.00364642 2.15173e-19)
(0.00779456 0.00438752 0)
(0.00860208 0.0050985 6.9566e-20)
(0.00947329 0.00570614 4.12313e-19)
(0.0103256 0.0061967 6.82424e-20)
(0.011164 0.00658421 5.33379e-19)
(0.0119929 0.00688046 -5.24657e-19)
(0.012833 0.00709387 2.52591e-21)
(0.0136587 0.00720984 0)
(0.0144652 0.00722272 -2.49815e-19)
(0.0152597 0.00713069 0)
(0.0160097 0.00691864 -7.60983e-22)
(0.0167157 0.00658713 0)
(0.0173371 0.00611524 -2.31456e-19)
(0.0178691 0.00552524 -2.27639e-19)
(0.0182721 0.00480335 0)
(0.0185222 0.0039825 -1.6313e-22)
(0.0186146 0.00307626 1.08208e-19)
(0.0184957 0.00210925 2.62866e-20)
(0.018221 0.00113777 5.24053e-20)
(0.0177142 0.000163211 -1.32076e-20)
(0.0170415 -0.000747832 0)
(0.0162364 -0.00157488 1.03754e-19)
(0.0153196 -0.00229556 -5.22074e-20)
(0.0143663 -0.00289657 -1.03314e-19)
(0.0133742 -0.00337893 -3.10055e-19)
(0.0124214 -0.003748 -5.19629e-20)
(0.011497 -0.00401524 2.58285e-19)
(0.0106455 -0.00419811 -5.19951e-20)
(0.00986361 -0.00431051 0)
(0.00915449 -0.00436755 5.15858e-20)
(0.00852926 -0.00438409 -5.17446e-20)
(0.00796285 -0.00436569 1.42145e-21)
(0.00746143 -0.00432392 0)
(0.00701916 -0.00426253 -4.08106e-19)
(0.00662011 -0.00418309 -4.0559e-19)
(0.00626363 -0.00409041 2.5081e-20)
(0.00594454 -0.00398653 -2.5007e-20)
(0.00565198 -0.00387215 2.46922e-20)
(0.00538435 -0.00374958 -3.92005e-19)
(0.00513983 -0.00362043 3.65287e-19)
(0.00491376 -0.00348578 -3.8599e-19)
(0.00470478 -0.00334754 -3.92873e-19)
(0.00451199 -0.00320725 2.36129e-20)
(0.0043342 -0.00306609 -3.8608e-19)
(0.00417303 -0.0029256 3.66274e-19)
(0.00402694 -0.00278619 -3.63249e-19)
(0.00389312 -0.00264744 3.61867e-19)
(0.00377549 -0.00251001 -3.5645e-19)
(0.00367178 -0.00237312 -1.09972e-20)
(0.00357703 -0.00223524 1.08987e-20)
(0.00349609 -0.00209635 0)
(0.00342564 -0.00195578 0)
(0.00336125 -0.00181212 1.67256e-19)
(0.00330831 -0.00166551 -1.85093e-19)
(0.00325976 -0.00151507 1.62438e-19)
(0.00322141 -0.00136088 4.00447e-20)
(0.00318792 -0.00120291 1.51742e-22)
(0.00316367 -0.00104122 -6.08877e-23)
(0.00314463 -0.000875663 -3.46925e-19)
(0.00313613 -0.000704604 -5.70813e-20)
(0.00313533 -0.000531345 7.55062e-20)
(0.0031441 -0.000354037 -7.48472e-20)
(0.00316438 -0.000174437 0)
(0.00319546 7.7398e-06 -9.24122e-21)
(0.00324232 0.000194011 9.24551e-21)
(0.00330363 0.000383603 0)
(0.00338026 0.000578152 0)
(0.00347579 0.000777325 1.47907e-19)
(0.0035883 0.000982721 -1.47966e-19)
(0.00372116 0.00119545 1.52927e-19)
(0.00387456 0.00141734 -2.97693e-19)
(0.004049 0.00165151 -2.26732e-23)
(0.00424594 0.00189476 -4.67999e-21)
(0.00446442 0.00214966 -1.49784e-19)
(0.00470487 0.0024198 0)
(0.00497093 0.0027056 0)
(0.00525467 0.00300503 0)
(0.00556032 0.0033178 3.07267e-19)
(0.00588609 0.00364197 2.85543e-19)
(0.00622695 0.00397495 0)
(0.00658555 0.0043146 -3.29719e-19)
(0.00696023 0.00465707 5.44358e-20)
(0.00734575 0.00499834 -3.58946e-20)
(0.00774319 0.0053351 1.78839e-20)
(0.00815291 0.00566235 -3.48594e-20)
(0.00857168 0.00597521 2.76568e-19)
(0.00899995 0.00626918 -2.37576e-19)
(0.00943745 0.00653948 3.01132e-19)
(0.00988466 0.00678225 -6.67777e-22)
(0.0103469 0.00699412 2.29084e-19)
(0.0108222 0.0071678 0)
(0.0113058 0.00730184 2.51253e-19)
(0.0118132 0.00739326 -2.99863e-20)
(0.0123401 0.00743129 -2.05401e-19)
(0.0128773 0.0074161 2.32557e-19)
(0.0134464 0.00734537 -2.7482e-20)
(0.0140247 0.00719916 2.75196e-20)
(0.0146053 0.00698286 -2.72156e-20)
(0.0151917 0.00667975 2.5673e-20)
(0.01576 0.00628776 -2.37586e-20)
(0.0162975 0.00579917 1.1764e-19)
(0.0167771 0.00521029 -1.11036e-19)
(0.0171656 0.00452265 1.08192e-19)
(0.0174494 0.00374883 0)
(0.0175663 0.00289337 2.01859e-20)
(0.0175387 0.00200095 -1.86171e-20)
(0.0172995 0.00106827 -9.12086e-21)
(0.0168657 0.00016849 0)
(0.0162637 -0.00067796 -1.70967e-20)
(0.0154782 -0.00143752 3.32825e-20)
(0.014592 -0.00208405 0)
(0.013581 -0.00261069 -6.39731e-20)
(0.0125401 -0.00300458 -1.55628e-20)
(0.0114657 -0.00327393 1.57274e-20)
(0.0104268 -0.00342889 0)
(0.00941415 -0.00348286 6.19045e-20)
(0.00846853 -0.00345192 -6.1385e-20)
(0.00758156 -0.00334237 6.16501e-20)
(0.00677067 -0.00316922 0)
(0.00597986 -0.00288693 -1.22307e-19)
(0.00562981 -0.00259837 -7.6134e-20)
(0.00567739 -0.00231177 1.34177e-19)
(0.0058544 -0.00199974 -1.44383e-20)
(0.00607663 -0.00166252 1.42317e-20)
(0.00637732 -0.00131024 1.3568e-20)
(0.00676334 -0.000960972 1.2943e-20)
(0.00727104 -0.000648843 -1.13098e-20)
(0.00781341 -0.000423591 -7.65186e-22)
(0.00825654 -0.000284442 0)
(0.00859591 -0.000206617 7.06861e-22)
(0.00888017 -0.000167596 0)
(0.00913917 -0.000149846 -6.49909e-22)
(0.00938516 -0.000141894 -9.79021e-21)
(0.0096224 -0.000136794 1.03236e-20)
(0.00985033 -0.000130383 -8.53935e-22)
(0.0100651 -0.000120448 8.5157e-21)
(0.0102613 -0.000106273 -1.60612e-20)
(0.0104333 -8.79074e-05 1.57761e-20)
(0.0105769 -6.65287e-05 -8.14225e-21)
(0.0106893 -4.54616e-05 0)
(0.0107698 -2.28686e-05 3.69194e-21)
(0.0108194 -1.50355e-06 -3.46285e-21)
(0.0108405 1.73902e-05 -3.72855e-22)
(0.0108368 3.31339e-05 -2.71426e-21)
(0.0108127 4.50252e-05 2.38328e-21)
(0.0107737 5.35188e-05 2.35199e-21)
(0.0107247 5.8472e-05 -2.63086e-21)
(0.0106704 6.01533e-05 2.25627e-21)
(0.0106146 5.91333e-05 -3.93478e-21)
(0.0105608 5.58854e-05 2.42713e-21)
(0.0105117 5.0922e-05 -8.23209e-22)
(0.010469 4.48077e-05 -1.73622e-22)
(0.010434 3.80259e-05 0)
(0.0104071 3.12011e-05 3.54598e-22)
(0.0103877 2.49505e-05 -4.85294e-22)
(0.0103748 1.97396e-05 2.51065e-23)
(0.010367 1.59733e-05 -1.60513e-22)
(0.0103627 1.41224e-05 0)
(0.010359 1.49304e-05 0)
(0.010355 2.27672e-05 -1.0627e-23)
(0.0163819 0.0010434 0)
(0.0172168 0.00223521 -4.04869e-21)
(0.0180489 0.00257919 3.99471e-21)
(0.0182758 0.00247 7.8726e-21)
(0.0180765 0.00214532 -7.93016e-21)
(0.0177108 0.00174043 0)
(0.0172437 0.00134655 0)
(0.0167486 0.00101509 0)
(0.0162992 0.000756299 -1.62406e-20)
(0.0159147 0.000566749 3.27155e-20)
(0.0155931 0.000435011 1.62924e-20)
(0.0153245 0.000346682 -3.29393e-20)
(0.0150974 0.000289007 -3.27985e-20)
(0.0149011 0.000251731 3.29326e-20)
(0.0147269 0.000227604 0)
(0.0145683 0.000212119 -3.26925e-20)
(0.0144207 0.000202621 6.54136e-20)
(0.0142805 0.000197673 -3.27139e-20)
(0.0141446 0.000196545 0)
(0.0140105 0.000198978 0)
(0.0138759 0.000205001 0)
(0.0137383 0.000214801 0)
(0.0135951 0.000228679 0)
(0.0134437 0.000247036 -6.42551e-20)
(0.0132811 0.000270394 6.44069e-20)
(0.0131041 0.00029943 0)
(0.0129089 0.000335045 0)
(0.0126915 0.000378477 0)
(0.0124469 0.000431487 0)
(0.0121696 0.000496681 0)
(0.0118529 0.000578072 -6.37985e-20)
(0.0114876 0.000682095 6.40784e-20)
(0.0110726 0.000820248 0)
(0.0105625 0.00100279 4.00433e-21)
(0.0100031 0.00128144 0)
(0.00959776 0.00172161 -1.31632e-19)
(0.00945395 0.00232135 2.6741e-19)
(0.00953536 0.00303826 0)
(0.00980819 0.00383289 -5.35516e-19)
(0.0102791 0.00467106 8.89158e-22)
(0.0109986 0.00551771 -6.54523e-20)
(0.0119355 0.00630829 6.5043e-20)
(0.0129583 0.00699403 -5.11177e-19)
(0.0139942 0.00756811 0)
(0.015033 0.00803902 -5.55805e-19)
(0.0160711 0.00840156 5.16734e-19)
(0.0171154 0.00866221 5.06783e-19)
(0.0181425 0.00881352 0)
(0.0191503 0.00883472 2.29069e-19)
(0.0201388 0.00872736 0)
(0.0210785 0.00848084 -4.42159e-19)
(0.0219635 0.00809239 0)
(0.0227618 0.00755548 1.86974e-19)
(0.0234638 0.0068684 2.36542e-19)
(0.0240347 0.00603461 2.07307e-19)
(0.0244523 0.00508167 1.01686e-19)
(0.0246983 0.00402865 1.00199e-19)
(0.0247302 0.00289017 4.89755e-20)
(0.024579 0.00171688 -2.44145e-20)
(0.0241831 0.000520852 -3.59425e-20)
(0.0235856 -0.000635231 0)
(0.0228012 -0.00172239 -9.38055e-20)
(0.0218508 -0.00271202 9.34781e-20)
(0.0207986 -0.00357878 0)
(0.0196527 -0.00431435 3.74943e-19)
(0.0184917 -0.00491173 0)
(0.0173194 -0.00537729 4.69295e-20)
(0.0161905 -0.00572227 -4.74446e-20)
(0.0151142 -0.00596018 0)
(0.0141057 -0.00610707 4.73847e-20)
(0.0131825 -0.00617961 -4.77309e-20)
(0.0123289 -0.00618874 -5.23472e-19)
(0.0115536 -0.00614876 3.3375e-19)
(0.0108513 -0.00606798 -1.29064e-21)
(0.0102089 -0.00595299 3.78515e-19)
(0.0096244 -0.00581066 2.35611e-20)
(0.00909179 -0.00564498 -4.00362e-19)
(0.00860082 -0.00545934 0)
(0.00814757 -0.00525802 -3.72669e-19)
(0.00772862 -0.00504446 -7.16415e-19)
(0.00733873 -0.00482173 6.99898e-19)
(0.00697543 -0.00459344 3.76413e-19)
(0.00663705 -0.00436274 -3.73414e-19)
(0.00632193 -0.00413229 3.69397e-19)
(0.00603099 -0.00390453 0)
(0.00576323 -0.00368075 3.51873e-19)
(0.00551631 -0.00346145 3.58134e-21)
(0.00529273 -0.00324704 6.99811e-19)
(0.0050908 -0.00303675 3.20846e-19)
(0.00490677 -0.00282959 3.49048e-19)
(0.00474251 -0.00262473 0)
(0.00459525 -0.00242146 0)
(0.00446167 -0.00221907 -1.62987e-19)
(0.00434436 -0.00201721 0)
(0.00423809 -0.00181576 -1.98536e-20)
(0.00414693 -0.00161493 1.96613e-20)
(0.00406727 -0.00141486 -1.5508e-19)
(0.004003 -0.00121605 1.53318e-19)
(0.00395158 -0.00101821 1.32615e-19)
(0.00391788 -0.0008218 1.87652e-20)
(0.00390234 -0.000626202 -7.42455e-20)
(0.00390662 -0.000430884 3.67996e-20)
(0.00393347 -0.000234511 -2.73956e-20)
(0.00398296 -3.55982e-05 9.1028e-21)
(0.00405914 0.000167222 0)
(0.00416212 0.000375633 7.21645e-20)
(0.00429328 0.000592308 0)
(0.00445481 0.000819114 1.43904e-19)
(0.00464566 0.00105886 2.73055e-22)
(0.00486739 0.0013137 -1.39558e-19)
(0.00511977 0.00158601 1.43961e-19)
(0.0054027 0.00187786 -4.50011e-21)
(0.00571659 0.00219055 0)
(0.00605905 0.00252486 1.42745e-19)
(0.00642974 0.00288199 -1.42258e-19)
(0.00682967 0.003261 0)
(0.00725318 0.00366153 8.78736e-21)
(0.00770159 0.00408186 -2.88553e-19)
(0.00817259 0.00451888 -2.62033e-19)
(0.00866189 0.00496966 2.57874e-19)
(0.00917009 0.00543009 -2.72556e-19)
(0.00969515 0.00589479 -1.68154e-20)
(0.0102331 0.00635838 2.50105e-19)
(0.0107841 0.00681523 3.32638e-20)
(0.0113481 0.0072584 2.91784e-19)
(0.0119229 0.00768146 -5.77986e-19)
(0.012509 0.00807789 2.86044e-19)
(0.0131064 0.00844105 -2.19117e-19)
(0.0137161 0.00876503 1.81475e-19)
(0.0143421 0.00904398 2.97172e-19)
(0.0149834 0.00926968 1.73934e-19)
(0.0156366 0.00943982 2.88829e-20)
(0.0163129 0.00954609 1.9376e-19)
(0.0170092 0.0095792 2.45426e-19)
(0.0177189 0.00953947 -2.58809e-20)
(0.018453 0.00941862 2.5866e-20)
(0.0191922 0.00920094 7.39236e-20)
(0.0199301 0.00888955 2.32891e-20)
(0.0206613 0.00847011 -2.25284e-20)
(0.0213658 0.00794087 2.25217e-20)
(0.0220258 0.0072976 -8.49278e-20)
(0.0226146 0.00653985 2.02488e-20)
(0.0231017 0.00567299 -8.06288e-22)
(0.0234689 0.00471104 -1.93232e-20)
(0.0236658 0.00366433 -7.29573e-20)
(0.0237012 0.00257515 0)
(0.023517 0.00145258 3.32587e-20)
(0.0231226 0.000348449 -2.05797e-20)
(0.0225279 -0.000708761 1.55792e-20)
(0.0217196 -0.00168507 -4.52219e-20)
(0.0207606 -0.00254635 -1.48642e-20)
(0.0196309 -0.00327809 5.79214e-20)
(0.0184158 -0.00385923 7.21755e-20)
(0.017114 -0.00428994 -2.84896e-20)
(0.0158 -0.00457334 7.13036e-20)
(0.0144741 -0.0047195 -5.6269e-20)
(0.0131903 -0.00474388 -1.40614e-20)
(0.0119514 -0.00464771 -5.63135e-20)
(0.0108066 -0.00445815 1.42829e-20)
(0.00970104 -0.00414514 -5.70942e-20)
(0.00903178 -0.00378292 5.72938e-20)
(0.00879398 -0.00337767 -4.22309e-20)
(0.008786 -0.00292685 -1.38047e-20)
(0.00890273 -0.00244607 -2.66771e-20)
(0.00914758 -0.00196232 0)
(0.00950804 -0.00150305 -2.4776e-20)
(0.00999787 -0.00110734 2.24087e-20)
(0.0105355 -0.000811213 3.69694e-22)
(0.0110167 -0.000613245 -3.63281e-22)
(0.0114286 -0.000493005 -1.03133e-21)
(0.0117991 -0.000427374 -1.03973e-20)
(0.0121477 -0.000394604 6.12708e-22)
(0.0124825 -0.000377378 0)
(0.0128057 -0.000363545 -5.59652e-22)
(0.0131154 -0.000345359 5.34126e-22)
(0.0134064 -0.000318643 8.97464e-21)
(0.0136721 -0.000282107 -8.39875e-21)
(0.0139056 -0.000236607 -7.19963e-21)
(0.0141016 -0.00018458 7.60615e-21)
(0.0142563 -0.000129363 0)
(0.014368 -7.40161e-05 -3.93442e-22)
(0.0144381 -2.16787e-05 0)
(0.0144696 2.51036e-05 -2.3605e-21)
(0.014467 6.45259e-05 1.6695e-22)
(0.0144364 9.57165e-05 2.84417e-21)
(0.0143843 0.000118529 5.70019e-22)
(0.0143168 0.000132754 2.64936e-22)
(0.0142406 0.000138993 -2.44169e-22)
(0.0141613 0.000138296 0)
(0.0140838 0.000131982 2.03319e-22)
(0.0140117 0.000121472 6.923e-22)
(0.0139478 0.000108271 -5.28425e-22)
(0.0138936 9.38823e-05 -5.34328e-22)
(0.0138494 7.94236e-05 6.5723e-22)
(0.0138149 6.60298e-05 0)
(0.013789 5.47445e-05 1.03759e-22)
(0.0137698 4.64112e-05 1.50625e-22)
(0.0137554 4.17566e-05 3.74816e-23)
(0.0137433 4.13264e-05 -3.74059e-23)
(0.0137301 4.98603e-05 9.95767e-24)
(0.0162716 0.000569557 0)
(0.0168387 0.00146768 0)
(0.0176466 0.00194965 0)
(0.0181891 0.00211476 7.91432e-21)
(0.0184846 0.00205767 -7.88648e-21)
(0.0186106 0.00187021 0)
(0.0185538 0.00161237 0)
(0.0184085 0.00134173 0)
(0.0181932 0.00109169 0)
(0.0179463 0.000883076 0)
(0.0177025 0.000717722 0)
(0.0174758 0.000592863 -3.15473e-20)
(0.0172694 0.000503588 3.1701e-20)
(0.0170816 0.000441342 -3.15385e-20)
(0.0169098 0.000398317 6.31566e-20)
(0.0167507 0.000369005 -3.16042e-20)
(0.0166011 0.000349693 -3.14022e-20)
(0.0164579 0.0003382 3.14828e-20)
(0.0163187 0.000333237 0)
(0.0161812 0.000334267 0)
(0.0160429 0.000341238 6.22465e-20)
(0.0159017 0.000354378 -6.23766e-20)
(0.015755 0.000374103 0)
(0.0156002 0.000400996 -6.18007e-20)
(0.0154344 0.000435809 6.19303e-20)
(0.0152545 0.00047951 0)
(0.015057 0.000533358 0)
(0.0148378 0.000599028 6.13018e-20)
(0.0145928 0.000678801 -2.47949e-22)
(0.0143169 0.000775874 -6.13823e-20)
(0.0140048 0.000894848 -6.10906e-20)
(0.0136499 0.00104238 1.2234e-19)
(0.0132527 0.00122945 -6.12501e-20)
(0.0127842 0.00146412 5.71233e-20)
(0.0122792 0.0017827 -6.15951e-20)
(0.0118965 0.00223819 -6.25494e-20)
(0.0117437 0.002836 6.39696e-20)
(0.0118228 0.00354761 1.91865e-19)
(0.0121206 0.00433769 3.19212e-19)
(0.0126387 0.00516626 6.37968e-20)
(0.0134002 0.00598897 -6.2454e-20)
(0.0143581 0.00675293 -5.50107e-19)
(0.0154051 0.00742729 5.42239e-19)
(0.0164802 0.00800574 5.33096e-19)
(0.0175674 0.0084866 -1.16876e-19)
(0.0186595 0.00886548 8.64012e-20)
(0.0197538 0.0091352 -2.54083e-19)
(0.0208344 0.00930462 0)
(0.0218938 0.00929263 -2.45687e-19)
(0.0229291 0.00919652 2.70373e-20)
(0.0239192 0.00894917 2.11228e-19)
(0.0248553 0.00854959 2.57561e-20)
(0.0257146 0.00799741 -2.5603e-19)
(0.0264861 0.00730205 -1.75912e-19)
(0.0271409 0.00646468 -1.98742e-19)
(0.0276614 0.00550073 -9.85142e-20)
(0.0280295 0.00443144 -2.33526e-20)
(0.028211 0.00327142 2.37847e-20)
(0.0282188 0.00206059 2.31469e-20)
(0.0280079 0.000813414 3.41059e-20)
(0.0275991 -0.000419205 2.25839e-20)
(0.0269928 -0.00160838 0)
(0.0261996 -0.00272615 8.88487e-20)
(0.025263 -0.00374291 0)
(0.0241916 -0.00464321 -3.07632e-19)
(0.0230491 -0.0054093 -1.76786e-19)
(0.0218459 -0.0060402 -4.41446e-20)
(0.0206358 -0.00653688 0)
(0.0194373 -0.00690758 0)
(0.0182741 -0.00716374 -1.7799e-19)
(0.017171 -0.00731931 0)
(0.016124 -0.00738649 4.01451e-19)
(0.0151475 -0.00737998 -4.01825e-19)
(0.0142412 -0.00731036 3.79641e-19)
(0.0133984 -0.00718694 -1.08751e-22)
(0.0126187 -0.00701948 -1.06293e-22)
(0.0118976 -0.00681492 3.11803e-19)
(0.0112273 -0.0065794 4.45052e-20)
(0.0106038 -0.00631938 3.32069e-19)
(0.0100233 -0.00604058 3.52878e-19)
(0.00948066 -0.0057483 1.02986e-21)
(0.00897272 -0.00544814 -3.38501e-19)
(0.00849734 -0.00514509 3.36538e-19)
(0.00805258 -0.00484353 0)
(0.00763882 -0.00454719 5.35585e-21)
(0.00725539 -0.00425839 3.36162e-19)
(0.00690054 -0.0039785 -6.74373e-19)
(0.00657652 -0.00370829 -1.00952e-18)
(0.00628229 -0.00344684 -3.42864e-19)
(0.00601492 -0.00319321 1.09959e-20)
(0.00577564 -0.00294655 0)
(0.00556241 -0.00270516 1.00793e-20)
(0.00537159 -0.0024682 -1.00074e-20)
(0.00520486 -0.00223559 0)
(0.00505766 -0.00200642 1.56313e-19)
(0.00493261 -0.00178148 -1.92622e-20)
(0.00482667 -0.00156041 1.91115e-20)
(0.00474287 -0.00134399 1.29509e-22)
(0.00467919 -0.00113185 1.4934e-19)
(0.00464054 -0.000924064 -1.84266e-20)
(0.00462678 -0.000719569 3.6564e-20)
(0.00464039 -0.000517717 -1.81383e-20)
(0.00468421 -0.000316306 4.50444e-24)
(0.00475836 -0.000112907 -8.90419e-21)
(0.00486723 9.4776e-05 8.88664e-21)
(0.00501048 0.00031042 -7.06788e-20)
(0.00518989 0.000536816 -7.47159e-20)
(0.00540651 0.00077749 -1.36039e-19)
(0.00565926 0.00103557 2.79834e-19)
(0.00594872 0.00131391 -1.35001e-19)
(0.00627404 0.00161516 -4.35793e-21)
(0.00663388 0.00194148 -4.31878e-21)
(0.00702794 0.00229408 4.32655e-21)
(0.0074528 0.00267394 -1.37632e-19)
(0.0079078 0.00308124 9.12681e-21)
(0.00839174 0.00351514 -6.52553e-23)
(0.00889965 0.00397454 1.17519e-19)
(0.0094315 0.00445669 4.09727e-19)
(0.00998462 0.00495804 -2.64022e-19)
(0.0105554 0.00547461 -2.6326e-19)
(0.0111436 0.0060011 2.7665e-19)
(0.0117474 0.00653135 2.39351e-19)
(0.0123637 0.00705906 -2.38768e-19)
(0.0129929 0.00757723 -2.80057e-19)
(0.0136347 0.00807805 -2.32094e-19)
(0.0142881 0.00855407 3.25473e-20)
(0.0149536 0.00899761 -3.00872e-20)
(0.0156319 0.00940097 0)
(0.016324 0.00975692 -2.59552e-19)
(0.0170327 0.0100583 -2.25748e-19)
(0.017758 0.0102964 -1.93581e-19)
(0.0184952 0.0104715 0)
(0.0192529 0.010568 -2.36471e-19)
(0.020031 0.0105768 2.58362e-20)
(0.0208212 0.0105002 -7.41623e-20)
(0.0216242 0.010328 -2.43589e-20)
(0.0224279 0.0100612 -7.26547e-22)
(0.0232252 0.00968173 -1.12293e-19)
(0.0240064 0.00918834 2.2086e-20)
(0.0247538 0.00858084 -1.04263e-19)
(0.02545 0.00785858 1.82267e-19)
(0.0260722 0.00702425 1.55978e-19)
(0.0265957 0.00608583 7.54029e-20)
(0.0270025 0.00505771 0)
(0.0272571 0.00395259 -1.7546e-20)
(0.0273585 0.00280431 2.24005e-22)
(0.0272642 0.00162534 7.84227e-21)
(0.0269754 0.000457882 -2.73061e-20)
(0.0264931 -0.000668563 1.52955e-20)
(0.025802 -0.0017255 -2.93432e-20)
(0.0249421 -0.00267961 2.81294e-20)
(0.0238948 -0.0035144 0)
(0.0227225 -0.00420414 -6.74787e-20)
(0.0214219 -0.00474357 2.68179e-20)
(0.0200569 -0.00512669 -5.31648e-20)
(0.0186308 -0.00535891 -1.33354e-20)
(0.0172021 -0.0054506 6.62401e-20)
(0.0157787 -0.00539512 -1.3314e-20)
(0.0144336 -0.00522394 0)
(0.0131261 -0.00492254 6.66117e-20)
(0.0122058 -0.00453433 -1.15597e-22)
(0.0116894 -0.0040726 -1.56869e-22)
(0.0114448 -0.00354921 -1.86058e-22)
(0.0113844 -0.00299157 2.52481e-20)
(0.0115021 -0.00244051 -2.48237e-22)
(0.0117706 -0.00193224 -1.57946e-22)
(0.0121866 -0.00150579 -1.12083e-20)
(0.0126693 -0.00118288 9.76176e-21)
(0.0131304 -0.000958769 1.03907e-20)
(0.0135529 -0.000816856 9.18626e-22)
(0.0139513 -0.000735577 -9.90719e-21)
(0.0143351 -0.000691898 1.16136e-21)
(0.0147065 -0.000665423 8.74178e-21)
(0.0150647 -0.000640648 -8.67548e-21)
(0.0154062 -0.000607209 -1.01248e-21)
(0.0157255 -0.000559411 -9.7064e-22)
(0.0160157 -0.000495563 0)
(0.0162702 -0.000417152 6.86591e-21)
(0.0164832 -0.000327983 -6.83883e-21)
(0.0166511 -0.000233241 0)
(0.0167723 -0.000138087 -7.4859e-22)
(0.0168477 -4.75393e-05 0)
(0.0168805 3.41363e-05 6.66692e-22)
(0.0168755 0.000103802 2.43141e-21)
(0.0168388 0.000159528 -2.42993e-21)
(0.0167774 0.000200176 -5.48048e-22)
(0.0166984 0.000226113 5.05712e-22)
(0.0166088 0.000238418 0)
(0.0165152 0.000238767 -1.63474e-21)
(0.0164228 0.000229321 1.63376e-21)
(0.016336 0.000212498 3.5009e-22)
(0.0162579 0.000190789 5.87899e-22)
(0.0161904 0.000166631 -5.87425e-22)
(0.0161341 0.000142338 4.37697e-22)
(0.0160887 0.000119899 -4.36861e-22)
(0.016053 0.000100972 -1.63282e-22)
(0.0160252 8.68104e-05 -1.08271e-22)
(0.016003 7.83109e-05 7.20778e-23)
(0.0159847 7.57302e-05 8.96059e-23)
(0.0159634 8.35333e-05 0)
(0.0162332 0.000360248 0)
(0.0166252 0.0010042 0)
(0.0172252 0.00143533 0)
(0.0177446 0.00166127 8.03183e-21)
(0.0181616 0.00172735 -7.9713e-21)
(0.0184752 0.00167744 0)
(0.0186779 0.00155031 1.56214e-20)
(0.0187947 0.00137993 -1.56412e-20)
(0.0187934 0.00120042 -1.55311e-20)
(0.0187507 0.00103271 3.10951e-20)
(0.0186694 0.00088438 -1.55681e-20)
(0.0185605 0.000761368 0)
(0.0184432 0.000666452 0)
(0.0183236 0.000595269 3.08691e-20)
(0.0182052 0.000543102 -1.43302e-22)
(0.0180893 0.000506024 -6.16298e-20)
(0.0179756 0.000480794 3.08122e-20)
(0.0178632 0.000465354 0)
(0.0177506 0.000458378 0)
(0.0176364 0.000459313 3.04242e-20)
(0.0175193 0.000468115 -3.0476e-20)
(0.0173974 0.000485101 0)
(0.0172687 0.000510842 0)
(0.0171312 0.000546111 -6.0148e-20)
(0.0169824 0.000591887 1.20216e-19)
(0.0168196 0.000649395 -6.00688e-20)
(0.0166399 0.000720176 -5.96457e-20)
(0.0164399 0.000806205 2.51587e-22)
(0.0162161 0.000910053 1.18937e-19)
(0.0159646 0.00103513 -5.94482e-20)
(0.0156814 0.00118605 -5.90785e-20)
(0.0153621 0.00136897 2.27598e-22)
(0.0150084 0.00159322 5.90441e-20)
(0.0146001 0.00186502 5.86007e-20)
(0.0141665 0.00220968 -5.91574e-20)
(0.0138365 0.0026667 0)
(0.0137076 0.00324212 -2.45373e-19)
(0.0137981 0.00391491 -4.93049e-19)
(0.0141066 0.00465499 0)
(0.0146318 0.00542455 2.42399e-19)
(0.0153811 0.00618125 -5.9249e-20)
(0.0163027 0.00688389 5.28714e-19)
(0.0173075 0.00751033 -4.62951e-19)
(0.0183439 0.00805293 -4.56333e-19)
(0.0193936 0.00850625 -2.80111e-19)
(0.0204483 0.00886213 5.5693e-20)
(0.021502 0.00911126 2.18381e-19)
(0.0225461 0.00926088 -1.88158e-19)
(0.0235691 0.00925317 -2.66432e-20)
(0.0245614 0.00913925 -2.08611e-19)
(0.0255149 0.00888016 0)
(0.0264212 0.00848195 -2.02937e-19)
(0.0272619 0.00794335 2.24974e-19)