/*--------------------------------*- C++ -*----------------------------------*\
| =========                 |                                                 |
| \\      /  F ield         | OpenFOAM: The Open Source CFD Toolbox           |
|  \\    /   O peration     | Version:  2506                                  |
|   \\  /    A nd           | Website:  www.openfoam.com                      |
|    \\/     M anipulation  |                                                 |
\*---------------------------------------------------------------------------*/
FoamFile
{
    version     2.0;
    format      ascii;
    arch        "LSB;label=32;scalar=64";
    class       volVectorField;
    location    "3.6";
    object      vorticityField;
}
// * * * * * * * * * * * * * * * * * * * * * * * * * * * * * * * * * * * * * //

dimensions      [0 0 -1 0 0 0 0];

internalField   nonuniform List<vector> 
4000
(
(-2.28777e-20 7.75451e-18 -55.9273)
(-8.48937e-18 -5.9173e-18 -59.7889)
(9.12289e-18 -2.64817e-17 -56.8305)
(3.37144e-17 3.89493e-17 -50.6659)
(-6.98087e-17 4.98799e-18 -45.3688)
(3.60046e-17 -3.64556e-17 -41.5544)
(-3.03806e-19 1.71627e-17 -38.867)
(3.47367e-17 -0 -36.959)
(-3.42105e-17 -3.43702e-17 -35.6084)
(7.08948e-17 3.03595e-17 -34.6416)
(-7.09957e-17 -2.99088e-17 -33.9266)
(1.69697e-18 2.60648e-17 -33.3728)
(-5.26043e-18 7.62998e-17 -32.9213)
(7.26903e-17 -6.84451e-17 -32.5342)
(-3.22389e-19 -0 -32.1875)
(-1.3666e-16 -6.7127e-17 -31.866)
(1.38475e-16 5.9611e-17 -31.5597)
(-7.53714e-17 7.46965e-17 -31.2614)
(3.56758e-18 -6.71804e-17 -30.965)
(0 -0 -30.6652)
(0 -0 -30.3567)
(0 -0 -30.0338)
(8.88096e-18 -1.3088e-16 -29.6905)
(1.21816e-16 2.47473e-16 -29.3201)
(-2.80022e-16 2.80757e-17 -28.9152)
(1.59364e-16 -2.75302e-16 -28.4672)
(-1.00204e-17 1.30634e-16 -27.9663)
(0 -0 -27.4008)
(0 -0 -26.756)
(-1.14004e-17 1.28807e-16 -26.0129)
(-2.62166e-16 -1.17522e-16 -25.1448)
(1.50887e-16 -1.40489e-16 -24.1185)
(2.71861e-16 1.62064e-17 -22.8895)
(1.43756e-17 -1.3673e-16 -21.0782)
(-7.64918e-17 7.57153e-16 -18.959)
(-3.48816e-16 6.26573e-16 -17.8981)
(-1.02929e-15 -1.10393e-15 -18.3692)
(-5.37992e-19 6.32201e-18 -19.8694)
(6.84319e-16 1.84025e-15 -22.1808)
(-8.39166e-16 -1.11352e-15 -25.4052)
(4.14713e-16 -2.40094e-15 -30.088)
(1.17146e-15 2.25894e-15 -35.5852)
(-4.07845e-16 9.67396e-16 -40.8513)
(2.63493e-16 -1.07602e-15 -45.683)
(1.19464e-15 8.39872e-16 -50.1222)
(-1.3779e-15 2.25681e-16 -54.3422)
(-1.38389e-15 5.341e-16 -58.5048)
(-1.11432e-15 -1.11118e-15 -62.3322)
(-1.19179e-15 -1.36442e-15 -65.9676)
(-5.38794e-16 -1.37978e-15 -69.3392)
(7.51542e-16 -4.17571e-16 -72.2885)
(-4.35998e-17 5.41435e-16 -74.9553)
(-6.20365e-16 -1.18155e-15 -76.9567)
(8.03369e-16 -6.93946e-17 -78.5464)
(-9.89157e-17 1.15584e-15 -79.4162)
(-3.43476e-16 1.0277e-16 -79.6512)
(2.24136e-16 -3.94974e-17 -79.2609)
(7.63108e-17 -2.05343e-17 -78.0069)
(1.4264e-16 6.13784e-17 -76.3592)
(-7.26538e-17 -4.79194e-17 -73.919)
(7.87284e-17 -1.49791e-17 -70.9128)
(2.91616e-16 9.83261e-18 -67.6724)
(-1.37363e-16 -7.29983e-17 -64.1013)
(-6.98253e-17 -7.12001e-16 -60.4972)
(1.00793e-16 -1.88174e-16 -56.8757)
(-1.06584e-16 8.17961e-16 -53.3263)
(6.2909e-16 -6.00113e-17 -50.0052)
(3.37988e-17 -4.51324e-16 -46.8)
(3.15677e-16 7.05067e-16 -43.9094)
(-8.24268e-16 8.3106e-16 -41.1748)
(-1.76726e-16 -6.15703e-16 -38.7015)
(-9.36843e-17 -3.1324e-16 -36.4328)
(-1.30012e-19 1.52239e-18 -34.2797)
(-9.85097e-16 6.24839e-16 -32.3355)
(-9.61141e-16 6.8536e-16 -30.4952)
(-4.29702e-17 8.46122e-16 -28.7533)
(-8.46341e-16 5.42998e-16 -27.134)
(9.82316e-17 -8.71298e-16 -25.5889)
(-9.25981e-16 4.22229e-16 -24.1007)
(7.85427e-16 2.77533e-16 -22.6933)
(-1.51927e-15 4.11967e-16 -21.3526)
(-1.81709e-16 -8.74718e-16 -20.0727)
(4.34669e-17 -1.15958e-16 -18.8621)
(-5.65303e-17 8.4895e-18 -17.7187)
(7.43353e-16 1.21977e-15 -16.6449)
(-1.30783e-15 1.73623e-15 -15.6469)
(2.83877e-17 -1.56805e-15 -14.7087)
(-6.8866e-17 -8.53489e-16 -13.8301)
(-1.2111e-17 1.53019e-15 -13.0261)
(-5.52637e-16 3.56812e-16 -12.2684)
(2.06512e-18 2.80623e-18 -11.5563)
(-5.4444e-16 1.00152e-15 -10.9107)
(-2.664e-16 -1.22435e-15 -10.2993)
(1.95002e-16 -4.36074e-16 -9.73204)
(5.36567e-18 6.59921e-16 -9.221)
(7.7268e-17 -7.04058e-16 -8.74359)
(2.33108e-16 -1.21365e-16 -8.33191)
(3.02793e-17 3.30083e-17 -7.96042)
(-3.45126e-16 -7.77027e-17 -7.65389)
(5.97032e-17 2.91865e-16 -7.40245)
(6.06934e-17 -1.3557e-18 -7.2291)
(2.35385e-17 -6.37938e-17 -7.11954)
(-1.07278e-17 1.87447e-16 -7.10001)
(-2.75077e-17 5.12034e-17 -7.14748)
(-4.1663e-17 -2.05182e-17 -7.2879)
(-7.48938e-19 -6.79879e-17 -7.51384)
(4.06035e-18 5.45228e-16 -7.83896)
(-2.19536e-16 -1.95059e-17 -8.26207)
(-2.51973e-16 -9.20821e-16 -8.787)
(4.78548e-16 -1.36909e-16 -9.41816)
(-2.30253e-16 1.74972e-16 -10.1637)
(1.11534e-17 6.12111e-16 -11.0225)
(-2.55161e-16 -1.20442e-16 -12.0168)
(-2.33051e-16 -4.84615e-16 -13.12)
(-7.52595e-18 -6.36951e-16 -14.3937)
(5.0091e-16 3.30973e-16 -15.7959)
(3.73729e-18 1.25442e-15 -17.3499)
(7.68349e-19 1.18365e-16 -19.0708)
(4.97721e-16 3.65206e-16 -20.9339)
(-5.30323e-16 -3.97583e-16 -22.9529)
(-5.75327e-16 -1.91424e-15 -25.1337)
(6.45396e-16 4.31403e-16 -27.4451)
(3.25356e-17 1.41364e-15 -29.8778)
(-5.99701e-16 -4.34842e-16 -32.4438)
(-1.11503e-16 -1.46966e-15 -35.1023)
(1.13808e-15 8.06676e-16 -37.8456)
(-3.70248e-16 4.34723e-16 -40.6529)
(5.23038e-16 -1.28726e-16 -43.4938)
(6.22131e-16 8.92494e-16 -46.3634)
(-8.06965e-17 9.63156e-16 -49.2769)
(-2.42315e-17 5.37529e-16 -52.1153)
(-6.7168e-16 -9.67861e-17 -54.9385)
(-2.19216e-16 -6.44748e-16 -57.7893)
(-1.10703e-15 -7.71402e-16 -60.4783)
(3.33364e-16 1.25791e-16 -63.1052)
(-7.05549e-17 -3.54936e-17 -65.784)
(7.2964e-17 4.07454e-17 -68.0921)
(1.5773e-17 -2.34779e-16 -70.4246)
(7.80647e-17 8.25404e-17 -72.4271)
(-1.19976e-16 1.27144e-16 -74.2243)
(6.97628e-17 2.29736e-16 -75.6836)
(-3.96617e-16 -1.46361e-16 -76.7387)
(1.44165e-16 2.05295e-16 -77.2617)
(-6.40059e-17 5.17465e-17 -77.351)
(-1.31325e-16 -6.2996e-17 -76.5851)
(-2.60374e-19 -2.63913e-16 -75.4908)
(-2.00662e-17 3.61302e-17 -73.393)
(0 -0 -70.702)
(-4.39009e-17 3.36874e-17 -67.5386)
(4.67992e-17 -9.30315e-18 -63.7799)
(2.04075e-17 -1.83699e-16 -59.8524)
(-1.31034e-17 -8.63856e-17 -55.5493)
(1.43376e-16 8.10479e-17 -51.2131)
(7.34741e-17 2.17958e-16 -46.8699)
(-1.58139e-16 6.17048e-17 -42.6477)
(1.4673e-16 -1.55809e-16 -38.5971)
(-2.45365e-16 -1.41933e-16 -34.7193)
(3.25831e-16 -1.83406e-16 -31.0457)
(-7.67553e-17 -3.23708e-16 -27.3271)
(2.28358e-16 -2.41909e-16 -23.348)
(-2.29076e-16 7.33397e-16 -20.6527)
(1.85942e-16 -1.11789e-16 -20.0637)
(-4.67223e-17 -9.72923e-17 -19.837)
(3.19432e-17 -7.44658e-18 -19.8012)
(3.03314e-17 -4.66487e-18 -20.1865)
(2.88755e-17 -2.3991e-18 -21.146)
(-2.77665e-17 -2.18526e-17 -22.9423)
(2.45586e-17 -1.20282e-17 -25.0798)
(1.71328e-18 2.21839e-17 -26.698)
(2.76487e-18 1.95099e-17 -27.783)
(-2.42943e-17 1.30891e-17 -28.6084)
(-5.16914e-18 -3.90743e-17 -29.3218)
(1.63327e-18 3.54878e-18 -29.9788)
(2.86264e-18 3.261e-17 -30.6005)
(-2.82509e-18 -1.90829e-17 -31.1897)
(1.85039e-17 5.91908e-19 -31.7367)
(-3.3583e-17 1.45914e-17 -32.2255)
(1.61093e-17 1.2801e-18 -32.6394)
(-1.82999e-18 -3.04968e-17 -32.9649)
(1.00418e-18 1.46255e-17 -33.1959)
(8.20778e-18 5.55118e-18 -33.33)
(-1.36138e-17 6.85888e-18 -33.3697)
(-1.03005e-18 -1.10559e-17 -33.3238)
(5.16149e-19 -7.65798e-18 -33.2062)
(5.29457e-18 5.54764e-18 -33.0298)
(4.92768e-18 1.46987e-20 -32.8081)
(-5.49354e-18 -1.63866e-20 -32.5576)
(4.687e-18 -2.14127e-19 -32.2924)
(-7.90611e-18 -7.97991e-19 -32.0248)
(5.02581e-18 2.42597e-19 -31.7653)
(-1.69631e-18 -5.0599e-21 -31.5218)
(-3.83936e-19 -1.09286e-18 -31.2996)
(1.21343e-18 -2.65862e-18 -31.1009)
(-4.36692e-19 4.82818e-18 -30.9265)
(-1.00864e-18 -1.17752e-18 -30.7757)
(1.42795e-19 -9.70741e-19 -30.6458)
(-7.44781e-20 -1.60748e-18 -30.5323)
(-1.61705e-19 1.22665e-18 -30.4286)
(-8.24172e-20 7.6451e-19 -30.3193)
(-2.15014e-20 -7.63901e-20 -30.22)
(0 -0 3.99519)
(2.15869e-19 -0 -7.66128)
(-5.81727e-19 -1.53219e-17 -17.0434)
(-1.61807e-18 2.5229e-17 -21.9869)
(1.92331e-17 1.11205e-17 -23.9429)
(-1.74243e-17 -3.70153e-17 -24.1897)
(3.89842e-19 -1.6593e-17 -23.671)
(-5.15118e-19 2.3211e-17 -22.8813)
(-3.26086e-17 9.41022e-18 -22.1025)
(2.85648e-17 -9.02978e-18 -21.4238)
(6.62273e-17 1.07985e-16 -20.8614)
(-1.35733e-16 -8.15011e-17 -20.4032)
(1.27357e-17 -1.49341e-16 -20.028)
(6.33247e-17 4.91488e-17 -19.7147)
(-8.5264e-18 1.97054e-16 -19.4462)
(-6.23334e-17 -3.1843e-17 -19.2092)
(6.50542e-17 -1.48072e-16 -18.9944)
(3.30089e-18 6.55589e-17 -18.7948)
(0 -0 -18.6055)
(0 -0 -18.4223)
(0 -0 -18.2415)
(0 -0 -18.0598)
(0 -0 -17.8738)
(-2.68577e-16 -0 -17.6798)
(4.08782e-16 -0 -17.4738)
(-1.3992e-16 -0 -17.2517)
(0 -0 -17.0085)
(0 -0 -16.7384)
(0 -0 -16.4347)
(-1.12705e-17 1.27339e-16 -16.0888)
(9.70702e-18 2.61691e-17 -15.6892)
(2.52624e-17 -3.84534e-16 -15.2199)
(-8.64951e-18 6.34338e-17 -14.6626)
(-1.5218e-16 4.08487e-16 -13.9819)
(-8.91185e-17 -4.89446e-16 -13.1625)
(4.00201e-16 3.99536e-16 -12.4644)
(1.00422e-15 9.03155e-16 -12.2533)
(6.32397e-17 -1.95769e-15 -12.7032)
(-3.56676e-16 -9.64695e-16 -13.8103)
(1.12508e-15 2.18575e-15 -15.5424)
(-3.11882e-16 1.21642e-16 -17.9102)
(-9.16699e-16 -1.6156e-15 -20.4712)
(2.34649e-16 -1.99193e-16 -23.1142)
(4.34809e-17 -2.77308e-16 -25.8257)
(-1.12152e-15 2.26372e-17 -28.4639)
(9.09343e-16 2.35343e-15 -31.0491)
(2.34335e-15 4.58926e-16 -33.5754)
(1.11778e-15 1.16205e-15 -35.9791)
(1.17611e-15 8.45969e-16 -38.3373)
(6.6656e-16 -1.98181e-16 -40.5359)
(-1.71349e-15 -8.99645e-16 -42.591)
(-3.62947e-17 4.47152e-16 -44.51)
(4.19367e-16 9.94652e-16 -46.1971)
(-7.31973e-16 -4.42142e-16 -47.7104)
(6.05444e-16 -2.8905e-16 -48.9388)
(5.99451e-16 -7.52184e-18 -49.9338)
(3.82353e-16 -1.13828e-16 -50.6356)
(1.2811e-16 1.13688e-16 -51.0236)
(-7.31853e-17 -4.20752e-18 -51.0705)
(-7.46909e-17 1.15653e-16 -50.7987)
(-5.06382e-17 -2.17419e-16 -50.1243)
(-2.95204e-16 -3.68326e-17 -49.093)
(2.31466e-16 4.54382e-16 -47.742)
(-1.79979e-16 6.84408e-16 -46.0794)
(1.38841e-16 2.38825e-16 -44.2481)
(8.44611e-18 -1.06499e-15 -42.1825)
(1.98772e-16 -2.89631e-16 -40.0997)
(-3.05281e-16 7.07379e-16 -37.9003)
(-3.74498e-16 -3.55827e-17 -35.7607)
(9.99394e-16 -4.51704e-16 -33.6355)
(1.27486e-17 1.4576e-16 -31.5624)
(-1.38942e-15 4.56831e-16 -29.613)
(7.4618e-16 4.731e-16 -27.694)
(1.08022e-16 1.26902e-15 -25.8815)
(1.13926e-15 -1.27822e-15 -24.1566)
(1.58722e-16 -9.71044e-16 -22.489)
(-1.04689e-16 6.90434e-17 -20.9063)
(-4.77152e-17 8.65516e-16 -19.407)
(-6.8901e-16 -1.31405e-16 -17.9681)
(-1.67827e-15 8.78395e-16 -16.6031)
(2.25784e-15 4.43765e-16 -15.3162)
(2.01416e-16 -8.98877e-16 -14.1008)
(-7.36295e-16 4.9555e-16 -12.9618)
(1.38021e-16 -6.27267e-16 -11.8995)
(-5.55721e-17 -1.4081e-16 -10.9073)
(1.3708e-15 -7.27654e-16 -9.99289)
(5.54275e-16 -5.86049e-16 -9.15217)
(6.80503e-16 5.2811e-16 -8.36677)
(5.66844e-16 -1.16554e-15 -7.65058)
(1.17198e-15 -7.45164e-16 -6.99786)
(3.70745e-19 2.35304e-17 -6.38668)
(5.51908e-16 -6.70485e-16 -5.83507)
(2.28887e-16 2.00844e-16 -5.33475)
(-5.01098e-16 3.06123e-16 -4.8704)
(2.28766e-16 -6.08044e-16 -4.46604)
(4.97338e-18 3.17023e-16 -4.0931)
(-4.89604e-16 2.43622e-16 -3.77932)
(2.27488e-16 6.10912e-16 -3.50118)
(2.32693e-17 1.8731e-16 -3.27628)
(-1.31566e-16 -7.74387e-16 -3.09202)
(-6.02526e-17 2.34922e-17 -2.96759)
(-7.95477e-17 1.65974e-16 -2.88959)
(-3.03411e-17 -1.21997e-16 -2.86473)
(2.76626e-17 -1.51132e-17 -2.89468)
(5.5493e-17 -1.5068e-17 -2.97948)
(1.11641e-16 3.13662e-17 -3.12131)
(-2.11216e-18 -2.83623e-16 -3.32662)
(6.76535e-16 4.24112e-16 -3.59121)
(4.5211e-18 2.89393e-17 -3.92515)
(-4.43842e-16 1.05897e-16 -4.32542)
(-2.83409e-17 3.70264e-16 -4.79568)
(-1.77884e-17 -6.03426e-16 -5.34852)
(2.48969e-16 4.31679e-16 -5.99357)
(2.18673e-16 1.39116e-16 -6.70574)
(-2.41764e-16 -4.47582e-16 -7.51911)
(-5.00335e-16 -2.89614e-16 -8.4077)
(1.87178e-17 -6.62378e-16 -9.40922)
(2.39129e-17 -7.44854e-16 -10.5127)
(-3.3133e-16 2.40686e-16 -11.7055)
(1.04012e-15 2.0777e-15 -13.0097)
(-6.11471e-16 -3.16811e-16 -14.4167)
(-5.74302e-16 -1.13044e-15 -15.9096)
(4.34812e-16 4.21813e-16 -17.4986)
(7.01431e-16 4.79315e-16 -19.1815)
(4.94382e-16 -2.01326e-16 -20.9297)
(-1.51274e-15 -1.07451e-15 -22.7495)
(3.16995e-16 6.25467e-16 -24.6234)
(-1.67685e-16 -1.26117e-15 -26.5341)
(-1.67861e-16 4.62589e-17 -28.4791)
(1.31887e-15 5.94426e-16 -30.4452)
(4.68276e-16 2.73681e-16 -32.3727)
(1.35517e-15 5.583e-16 -34.3172)
(6.34982e-16 1.49268e-15 -36.2447)
(8.43001e-16 5.87044e-16 -38.0567)
(6.68033e-17 -8.09746e-16 -39.8624)
(9.70525e-17 5.86585e-16 -41.6154)
(2.28221e-16 3.29709e-17 -43.1511)
(9.0097e-17 -1.73083e-17 -44.7197)
(-3.08659e-17 -1.06596e-16 -46.0434)
(6.93685e-17 -6.63257e-17 -47.2704)
(9.05341e-17 -1.28691e-16 -48.3082)
(-6.12648e-18 5.1125e-16 -49.1529)
(1.62484e-16 -5.05912e-16 -49.7819)
(3.61786e-17 1.80923e-16 -50.2075)
(-1.34182e-17 -7.64345e-17 -50.3174)
(-4.82356e-17 8.54953e-17 -50.2478)
(8.6931e-17 1.42646e-17 -49.7739)
(-5.66249e-17 1.53382e-17 -49.0478)
(3.78994e-17 2.10819e-17 -47.9383)
(-9.96928e-17 -1.85501e-16 -46.4903)
(-6.09316e-17 1.96326e-16 -44.7351)
(4.02823e-17 3.24138e-16 -42.659)
(1.9192e-17 -1.02936e-16 -40.33)
(-9.34645e-17 -5.60976e-17 -37.7882)
(3.32707e-16 -2.20259e-16 -35.0942)
(-1.99278e-16 -2.54691e-17 -32.3287)
(4.27038e-17 9.55078e-17 -29.5031)
(-4.02928e-16 -1.25204e-16 -26.6825)
(1.17648e-16 3.30408e-16 -23.8316)
(-6.22723e-16 6.80148e-16 -20.9927)
(2.59619e-16 -4.70585e-16 -18.1238)
(-5.91839e-17 -3.26646e-16 -16.1398)
(5.31928e-18 2.57599e-16 -14.8553)
(-7.32584e-17 -6.09586e-17 -14.0459)
(-3.66717e-18 -2.10147e-17 -13.6195)
(-5.29801e-17 2.07462e-17 -13.6052)
(5.54965e-17 4.56553e-17 -13.9909)
(-2.79497e-17 -1.9276e-17 -14.6639)
(-2.51202e-19 -2.76274e-18 -15.4425)
(-1.50505e-18 -2.16325e-18 -16.1715)
(1.75538e-18 2.4798e-18 -16.7993)
(3.13077e-18 2.06596e-17 -17.3469)
(-2.29701e-17 1.16738e-17 -17.8387)
(1.81786e-17 -5.12767e-17 -18.2877)
(9.44657e-19 6.53606e-18 -18.6988)
(2.13147e-17 -5.54783e-18 -19.0714)
(-1.84216e-17 5.25273e-17 -19.4007)
(-3.58094e-19 -8.45531e-17 -19.6816)
(1.917e-18 6.7163e-17 -19.9134)
(-1.49862e-18 -2.21793e-17 -20.0842)
(-4.76137e-19 -1.39622e-17 -20.1906)
(6.78233e-18 2.62391e-17 -20.2411)
(-5.4889e-18 1.17761e-18 -20.2363)
(-6.23681e-18 1.2537e-17 -20.1814)
(5.55028e-18 -2.45519e-17 -20.0843)
(1.71553e-18 -8.07438e-18 -19.954)
(4.70594e-19 2.01342e-17 -19.7997)
(-3.19371e-19 -1.72531e-17 -19.6304)
(-4.33531e-19 3.4628e-17 -19.4542)
(3.2397e-19 -2.87936e-17 -19.2783)
(1.53814e-18 1.33054e-17 -19.1081)
(-1.14385e-18 8.84787e-19 -18.9476)
(-2.31338e-18 -1.00069e-18 -18.7989)
(2.55984e-18 -4.90946e-18 -18.6624)
(-9.521e-21 8.82274e-18 -18.5373)
(1.04881e-19 -1.56705e-18 -18.4224)
(4.86772e-20 4.11392e-18 -18.3151)
(2.38466e-19 -2.99609e-19 -18.2127)
(7.19288e-21 1.97369e-20 -18.1077)
(1.28982e-20 2.35794e-18 -18.0231)
(-2.2448e-20 7.60886e-18 6.46938)
(-4.15984e-19 -4.08101e-18 3.96217)
(6.36226e-19 -2.58305e-17 -0.472736)
(8.80569e-20 1.53469e-17 -4.62712)
(1.66453e-17 2.18592e-17 -7.97404)
(-1.68572e-17 -1.49034e-17 -10.3383)
(0 -0 -11.6539)
(-3.55211e-17 3.05215e-17 -12.3213)
(3.63363e-17 -4.89639e-17 -12.5415)
(-3.25878e-17 -8.5905e-17 -12.4965)
(3.1722e-17 1.11601e-16 -12.3409)
(3.62595e-18 1.1629e-16 -12.1578)
(-3.08707e-18 -1.00479e-16 -11.9835)
(-1.3049e-16 -8.49564e-17 -11.8301)
(1.21244e-16 1.23332e-16 -11.6984)
(8.24776e-17 -1.00402e-16 -11.5843)
(-1.32443e-16 -4.48011e-17 -11.4831)
(5.64911e-17 1.45243e-16 -11.3906)
(3.26488e-18 -6.14804e-17 -11.3038)
(0 -0 -11.2203)
(1.24378e-16 -0 -11.1384)
(-1.24638e-16 -0 -11.0568)
(-8.19404e-18 1.20757e-16 -10.9741)
(-1.15602e-16 -7.94971e-17 -10.8889)
(1.32982e-16 -1.62302e-16 -10.7998)
(-8.92761e-18 1.21042e-16 -10.7049)
(0 -0 -10.6024)
(1.2249e-16 -0 -10.4899)
(-4.9544e-19 -0 -10.3645)
(-1.33263e-16 1.19899e-16 -10.2229)
(2.31207e-17 -8.41409e-17 -10.0607)
(2.56793e-16 -1.56183e-16 -9.8716)
(-4.06585e-16 1.12897e-16 -9.65016)
(2.34713e-16 -3.79875e-18 -9.40277)
(-1.12145e-17 2.55056e-16 -9.08424)
(-4.95944e-16 -5.30031e-16 -8.6905)
(7.38276e-16 -1.70488e-16 -8.37744)
(3.53164e-16 1.72832e-15 -8.36628)
(-8.87942e-16 -1.37499e-16 -8.74702)
(-2.12798e-16 -1.07435e-15 -9.50083)
(-1.37082e-16 -1.72607e-16 -10.5479)
(-1.37574e-15 5.40946e-17 -11.6903)
(6.58878e-17 6.54564e-16 -12.948)
(1.02428e-15 7.08486e-16 -14.3118)
(-1.64526e-15 -1.48044e-15 -15.728)
(1.8771e-15 -1.87584e-15 -17.1756)
(-4.14125e-16 1.97516e-16 -18.5779)
(-5.04018e-17 5.85961e-16 -20.0139)
(1.65478e-16 -3.41281e-16 -21.397)
(-4.02755e-17 1.37381e-15 -22.772)
(2.57711e-16 9.52379e-16 -24.112)
(1.67345e-16 -1.21339e-15 -25.3946)
(7.62924e-17 -7.73949e-16 -26.662)
(2.84152e-16 -4.78217e-16 -27.8975)
(-4.57004e-16 -3.27985e-16 -29.0623)
(-2.50788e-16 -3.99443e-17 -30.1635)
(-3.41453e-16 -1.89396e-16 -31.1919)
(-1.88234e-17 1.36985e-16 -32.1584)
(-1.04616e-16 2.07413e-16 -32.96)
(1.37456e-16 2.90435e-17 -33.682)
(5.20047e-17 1.0737e-16 -34.1734)
(-2.61482e-16 3.00881e-17 -34.4324)
(3.99873e-16 -4.18434e-16 -34.434)
(3.59028e-16 -6.40022e-16 -34.114)
(-1.44885e-16 -7.0102e-16 -33.5641)
(-4.22826e-16 7.71748e-16 -32.6847)
(-8.66256e-16 3.40055e-16 -31.6384)
(1.54909e-16 1.1494e-16 -30.3461)
(2.14997e-17 -2.06192e-16 -28.9466)
(-6.37464e-16 3.35681e-16 -27.4347)
(4.10423e-17 1.28427e-15 -25.8446)
(1.36086e-15 -8.60127e-16 -24.2679)
(-1.09785e-15 -1.03928e-15 -22.6552)
(1.94963e-15 -1.1348e-15 -21.073)
(7.81465e-16 -9.52261e-16 -19.533)
(-1.83671e-16 1.83916e-15 -18.0242)
(9.73009e-16 -5.93876e-17 -16.5728)
(5.22542e-17 -7.73883e-17 -15.1914)
(1.67167e-15 9.52868e-16 -13.8715)
(3.66069e-16 -2.00622e-15 -12.6236)
(5.95441e-16 -3.55165e-15 -11.4547)
(-1.11485e-16 2.15096e-15 -10.3622)
(7.55145e-16 -1.64173e-16 -9.3494)
(6.47589e-16 -1.54233e-15 -8.41586)
(-6.83877e-16 5.00522e-16 -7.55495)
(1.20524e-15 -1.01051e-15 -6.77002)
(-1.90805e-15 3.87227e-16 -6.05852)
(-1.35813e-15 -3.36178e-16 -5.40622)
(-6.56281e-16 9.72834e-16 -4.81953)
(-6.81069e-17 5.45507e-16 -4.29548)
(1.18285e-17 7.50733e-16 -3.81979)
(2.40947e-17 3.36076e-16 -3.40047)
(-2.69097e-16 2.01439e-16 -3.03327)
(2.94799e-16 -4.40005e-16 -2.70762)
(-8.22992e-18 -2.5366e-17 -2.43448)
(-9.00775e-17 3.00935e-16 -2.19743)
(3.7194e-17 -2.308e-16 -2.00754)
(-2.68812e-17 -6.11615e-16 -1.85163)
(7.71451e-16 2.67383e-17 -1.73685)
(6.78263e-17 3.78203e-16 -1.65384)
(-5.79513e-17 -6.09323e-18 -1.60671)
(8.46235e-17 -1.06121e-16 -1.58918)
(1.4179e-18 5.97663e-17 -1.60164)
(-3.43808e-19 -5.38493e-17 -1.64343)
(-1.85515e-18 -1.19356e-16 -1.71334)
(-1.07567e-16 -3.43125e-17 -1.81281)
(-1.1669e-16 -1.5924e-16 -1.94358)
(-4.35224e-16 -1.47738e-16 -2.10589)
(6.74927e-16 7.53136e-16 -2.30369)
(-4.69948e-16 -3.97662e-16 -2.53767)
(4.83417e-16 -1.36257e-16 -2.81078)
(-5.94199e-18 2.92015e-16 -3.12488)
(1.24018e-17 -3.00121e-16 -3.48814)
(5.26644e-17 2.42552e-16 -3.89605)
(-1.73615e-17 3.91543e-16 -4.35921)
(-4.03577e-18 -3.27496e-16 -4.86458)
(2.17836e-16 7.46483e-16 -5.43078)
(8.13427e-17 9.16186e-16 -6.05603)
(-1.11223e-15 -1.68412e-15 -6.73628)
(-3.4206e-16 -5.14639e-16 -7.48394)
(9.84231e-16 1.64686e-15 -8.29657)
(2.92858e-16 -9.74515e-16 -9.1682)
(-2.13672e-16 -6.78829e-16 -10.1067)
(-5.72031e-16 -5.28241e-16 -11.1116)
(-4.73899e-17 7.66364e-16 -12.1701)
(-1.03522e-15 4.79992e-16 -13.2862)
(6.43689e-16 -9.57137e-16 -14.4513)
(-8.41595e-16 1.21884e-16 -15.6562)
(-4.40092e-16 -2.00428e-15 -16.8961)
(-6.24498e-16 -1.30225e-15 -18.1604)
(-1.2776e-16 -6.38333e-17 -19.4179)
(-5.58275e-16 -4.85073e-16 -20.6957)
(-2.44419e-16 -1.36319e-15 -21.9637)
(9.80286e-16 2.61523e-16 -23.1677)
(-7.50887e-16 1.64529e-16 -24.3648)
(1.99087e-17 -3.06445e-16 -25.5083)
(6.20457e-17 -3.24034e-16 -26.5627)
(-1.28795e-16 -5.58905e-17 -27.6011)
(-4.74042e-17 9.58611e-17 -28.5193)
(-1.6282e-16 -5.12858e-17 -29.3767)
(4.14698e-17 5.04835e-16 -30.1469)
(7.36618e-16 3.03069e-17 -30.8349)
(-8.45134e-17 5.17261e-17 -31.4496)
(1.95254e-19 2.48282e-16 -31.9893)
(-1.7881e-16 3.64718e-16 -32.448)
(2.02492e-17 -1.99411e-16 -32.8328)
(6.51449e-17 -1.66716e-16 -33.113)
(-7.69168e-17 1.667e-16 -33.2919)
(9.58244e-17 -4.671e-17 -33.2896)
(-1.44566e-16 3.36715e-16 -33.1028)
(6.38323e-17 -9.80677e-17 -32.6744)
(1.00952e-16 -4.95618e-16 -32.0027)
(-2.0628e-16 -2.3675e-16 -31.0469)
(6.69363e-17 1.39256e-16 -29.8276)
(-2.35457e-16 -2.76956e-16 -28.3377)
(-1.00168e-16 4.50992e-16 -26.641)
(3.41344e-16 -8.82977e-17 -24.739)
(-1.24069e-16 1.96355e-16 -22.691)
(-1.85404e-17 -4.39731e-17 -20.5269)
(5.05803e-16 -1.25532e-16 -18.3485)
(1.21626e-16 -2.21352e-16 -15.8368)
(-2.58275e-16 3.2223e-16 -13.6011)
(4.00393e-17 -5.81529e-18 -11.8858)
(4.11366e-17 4.28233e-17 -10.6981)
(-3.15961e-17 1.18938e-18 -9.93879)
(-2.53003e-17 2.25583e-17 -9.56708)
(-1.27617e-17 -1.13109e-16 -9.49929)
(2.9021e-17 3.92293e-17 -9.68999)
(2.39291e-17 1.30087e-18 -10.0561)
(2.77479e-18 1.97202e-17 -10.4798)
(-2.05684e-17 3.66294e-17 -10.8756)
(2.02216e-18 -2.17829e-17 -11.2138)
(4.08578e-17 2.50622e-18 -11.4939)
(-4.15669e-17 1.07217e-18 -11.7246)
(-1.88481e-18 -2.03929e-17 -11.9162)
(-2.04911e-17 -3.51749e-17 -12.078)
(3.82099e-17 7.87003e-17 -12.2165)
(-2.07578e-17 1.67836e-17 -12.336)
(1.10584e-18 -6.29229e-17 -12.4382)
(1.02935e-18 1.50297e-17 -12.5212)
(-9.46896e-18 2.5456e-18 -12.5827)
(7.58309e-18 3.74922e-18 -12.6216)
(2.12095e-18 2.09379e-17 -12.6364)
(1.02906e-17 -9.73565e-18 -12.6267)
(-1.00267e-17 -2.70719e-17 -12.5936)
(-5.78859e-18 -1.55015e-18 -12.5391)
(6.6472e-18 -9.71829e-19 -12.4666)
(-4.70463e-18 2.99227e-18 -12.3798)
(4.75647e-18 -8.22916e-19 -12.2826)
(-1.67257e-18 -3.78197e-18 -12.1788)
(2.55215e-18 -9.81889e-18 -12.072)
(1.55148e-18 1.1054e-17 -11.9648)
(-1.32251e-18 8.81144e-18 -11.8596)
(2.24744e-19 -1.44232e-17 -11.7575)
(1.2039e-19 1.03691e-18 -11.6591)
(-3.67635e-19 -3.12034e-18 -11.5645)
(1.27532e-19 -5.29335e-18 -11.4733)
(1.56296e-19 -2.33953e-18 -11.3849)
(1.72241e-19 2.73866e-18 -11.2939)
(2.81451e-20 -2.43344e-18 -11.222)
(0 -0 4.1337)
(8.10489e-18 -0 3.77238)
(-7.86482e-18 -1.4915e-17 2.84881)
(9.11964e-19 7.71634e-18 1.24963)
(-1.02724e-18 2.20612e-17 -0.642477)
(2.19241e-19 -1.48626e-17 -2.37146)
(3.12139e-17 -0 -3.85889)
(-3.12535e-17 -0 -5.06062)
(1.47782e-18 -0 -5.83314)
(-3.35902e-18 -0 -6.35319)
(-6.56518e-17 5.94528e-17 -6.67432)
(6.72586e-17 -3.26608e-17 -6.85)
(6.62788e-17 -2.70981e-17 -6.95177)
(-2.21657e-18 -3.27859e-17 -7.01829)
(6.68325e-19 -5.26066e-17 -7.06799)
(-6.63001e-17 2.04438e-16 -7.10853)
(-6.40719e-17 -9.3124e-17 -7.1425)
(6.89343e-17 -8.49468e-17 -7.17042)
(-3.15075e-18 5.93313e-17 -7.1923)
(6.77138e-17 -1.17307e-16 -7.2082)
(-6.72094e-17 6.7755e-17 -7.21832)
(-8.23657e-18 1.67105e-16 -7.22305)
(-2.73154e-19 -1.08546e-18 -7.22279)
(1.55186e-17 -6.83324e-17 -7.21787)
(1.20713e-16 -1.64846e-16 -7.2085)
(-1.28634e-16 1.16711e-16 -7.19469)
(-1.09978e-16 -1.15527e-16 -7.17625)
(2.34247e-18 -4.54114e-17 -7.15271)
(2.18488e-16 2.32018e-16 -7.12334)
(-1.3109e-16 1.59728e-16 -7.08709)
(3.80857e-17 -3.03126e-16 -7.04254)
(-1.21854e-16 -8.47475e-17 -6.9873)
(1.03272e-16 1.64777e-16 -6.92091)
(1.13452e-16 -3.69517e-17 -6.8448)
(-1.4579e-16 2.6065e-16 -6.73887)
(2.78515e-16 -1.65293e-16 -6.56868)
(-9.57594e-16 -7.56362e-16 -6.36515)
(-8.94014e-16 -9.29031e-16 -6.25466)
(1.11528e-15 5.38585e-16 -6.32007)
(4.21745e-16 1.0024e-15 -6.56938)
(-1.42531e-16 1.33314e-15 -6.94446)
(8.66725e-16 -1.45476e-16 -7.37612)
(5.92122e-16 -2.7754e-15 -7.88612)
(-8.47615e-16 1.53465e-16 -8.46822)
(4.60931e-16 1.47682e-15 -9.0981)
(-1.03133e-15 -4.57149e-16 -9.77776)
(-8.68122e-16 1.82981e-16 -10.4259)
(-4.51587e-16 -2.59963e-16 -11.2408)
(-8.02103e-16 3.67545e-17 -11.9762)
(-4.3151e-16 -1.20195e-15 -12.6315)
(1.28707e-15 9.22366e-17 -13.4213)
(-5.87199e-16 6.60749e-16 -14.2123)
(-1.0586e-16 9.98706e-16 -15.0214)
(-8.06812e-16 5.55751e-17 -15.8485)
(-1.29099e-16 2.91156e-16 -16.7166)
(-3.40019e-17 -8.56731e-17 -17.6003)
(-4.66971e-16 -2.61188e-16 -18.5095)
(-1.22832e-16 -1.62795e-16 -19.4708)
(1.04716e-17 -7.80229e-17 -20.396)
(7.25458e-17 -9.47202e-17 -21.3569)
(-1.34555e-16 6.55219e-18 -22.2364)
(2.83469e-16 -1.62832e-16 -23.0299)
(-4.12545e-16 -1.79313e-16 -23.6909)
(1.48831e-16 7.41218e-16 -24.1372)
(-5.97862e-16 1.31097e-15 -24.399)
(7.38788e-16 -2.60817e-16 -24.3732)
(-1.76601e-16 -1.75678e-16 -24.1452)
(1.38152e-16 -1.445e-16 -23.6455)
(-4.87312e-16 5.82834e-16 -22.9584)
(4.48254e-16 2.14878e-16 -22.0864)
(2.42693e-16 -1.36014e-15 -21.0563)
(4.12009e-16 -1.50098e-16 -19.9481)
(-3.99493e-16 9.41631e-16 -18.7437)
(-2.22994e-16 -1.34913e-15 -17.5041)
(-9.49197e-16 1.41191e-15 -16.2543)
(3.85228e-17 -7.2521e-16 -15.0016)
(6.28426e-16 -9.23581e-16 -13.7757)
(1.80049e-17 -1.35604e-16 -12.5955)
(1.38307e-15 -2.00652e-15 -11.4656)
(1.29522e-15 -5.23255e-16 -10.3991)
(-2.8912e-15 3.40764e-15 -9.40539)
(-5.92071e-16 -3.24472e-17 -8.48524)
(6.34552e-16 -1.50622e-15 -7.6417)
(-7.41012e-16 1.24284e-15 -6.87397)
(1.62089e-18 -7.70135e-16 -6.17595)
(-1.38018e-15 2.11379e-15 -5.54708)
(1.39669e-15 2.68102e-15 -4.98362)
(-9.13925e-17 5.42991e-17 -4.4751)
(-4.87482e-16 -1.74136e-15 -4.02342)
(-1.72872e-15 1.91183e-16 -3.62538)
(-2.70494e-16 1.46455e-16 -3.27302)
(1.50001e-17 8.37293e-18 -2.96981)
(2.87149e-16 -1.15898e-16 -2.7126)
(-3.9756e-17 -3.27716e-16 -2.49529)
(-4.82811e-16 1.62011e-16 -2.32246)
(-2.2236e-17 2.95359e-16 -2.18356)
(2.42057e-16 -1.30038e-16 -2.08307)
(-7.40814e-16 -5.04505e-17 -2.01118)
(-4.17575e-16 8.09308e-17 -1.96998)
(-2.29234e-17 2.2885e-16 -1.95128)
(1.1288e-16 -2.97013e-17 -1.95593)
(-1.0908e-16 8.52537e-17 -1.97784)
(6.89373e-17 -1.91096e-17 -2.01615)
(-8.8282e-19 -1.39222e-17 -2.06825)
(1.18286e-18 1.14322e-16 -2.13302)
(-2.30913e-16 1.53021e-16 -2.21022)
(-1.71572e-18 1.55157e-16 -2.29982)
(-2.30189e-16 -6.93689e-16 -2.40204)
(-1.92197e-16 -1.65049e-16 -2.51787)
(4.17486e-16 7.60184e-16 -2.64803)
(-1.82681e-17 -2.68808e-16 -2.79357)
(6.43546e-18 -1.26241e-17 -2.95552)
(2.85391e-18 2.75098e-16 -3.13645)
(-2.59194e-16 -4.79235e-17 -3.33498)
(4.35185e-16 -5.90922e-17 -3.55819)
(1.0687e-17 -2.28126e-16 -3.79982)
(-6.53487e-16 -1.37654e-15 -4.06877)
(4.70603e-16 6.76445e-16 -4.36627)
(8.50247e-16 2.35681e-15 -4.69151)
(-6.73382e-16 -1.29113e-15 -5.0524)
(1.09319e-15 -8.35338e-16 -5.4505)
(-6.68722e-16 2.9969e-16 -5.88481)
(-5.80791e-16 1.20917e-15 -6.36169)
(-3.77791e-16 3.54302e-16 -6.88307)
(-7.5619e-16 -7.31369e-16 -7.44482)
(1.58997e-15 5.97482e-16 -8.05028)
(-1.52712e-16 4.12005e-17 -8.69633)
(4.54474e-16 8.19125e-16 -9.37879)
(-6.37734e-16 8.72809e-16 -10.0944)
(-9.41455e-16 -3.55293e-17 -10.8374)
(-5.62453e-16 -2.0418e-16 -11.5806)
(-5.43258e-17 4.92831e-17 -12.3667)
(-8.73867e-16 3.71925e-16 -13.1341)
(-5.41085e-16 -7.9213e-16 -13.8786)
(-1.23541e-16 4.18855e-16 -14.6458)
(-1.36209e-16 -1.09347e-16 -15.3417)
(-4.47568e-16 -8.72043e-17 -16.0102)
(-2.817e-16 4.29144e-16 -16.6933)
(1.59621e-16 -8.52446e-17 -17.3061)
(-8.95481e-17 3.14172e-16 -17.8845)
(4.70171e-16 -1.51233e-15 -18.4287)
(-3.29144e-17 -8.12514e-16 -18.9468)
(1.16463e-17 -2.22424e-16 -19.4522)
(1.89265e-16 2.17385e-16 -19.9451)
(2.43234e-16 1.86945e-16 -20.4467)
(9.08307e-17 -3.54651e-17 -20.9398)
(-8.60416e-17 -1.65819e-17 -21.452)
(5.32021e-17 1.98153e-16 -21.9515)
(-4.45251e-17 -1.12314e-16 -22.4041)
(2.18922e-16 1.90197e-16 -22.7937)
(1.01857e-17 -2.63433e-16 -23.0551)
(-2.08397e-16 2.32665e-16 -23.1765)
(3.15363e-17 4.21271e-16 -23.0887)
(3.10232e-17 -2.36899e-16 -22.7811)
(-9.33717e-17 4.62313e-16 -22.2158)
(1.04425e-16 -1.93931e-16 -21.4103)
(-3.05506e-16 -3.14743e-16 -20.3572)
(2.72092e-16 8.96817e-17 -19.032)
(-2.49692e-17 -1.57252e-16 -17.5598)
(-7.98948e-17 -2.53876e-16 -15.9617)
(-1.43692e-16 1.97655e-16 -14.0392)
(1.28552e-16 -4.04666e-17 -12.1186)
(2.71777e-17 -5.62567e-17 -10.4972)
(9.73955e-17 -9.67792e-17 -9.30323)
(-1.87702e-17 5.01684e-17 -8.52338)
(3.22151e-17 1.42157e-17 -8.11413)
(-7.22202e-17 2.50555e-17 -7.98449)
(-6.5299e-18 -7.80689e-17 -8.06389)
(5.11144e-18 -2.95881e-17 -8.26885)
(2.46406e-17 3.08391e-17 -8.51203)
(-3.79256e-19 4.68434e-17 -8.72793)
(-7.54339e-18 -4.18112e-17 -8.88447)
(-5.23215e-18 -3.24309e-17 -8.97542)
(5.12337e-18 6.91739e-17 -9.00846)
(4.23658e-18 -7.48864e-18 -8.99786)
(-3.92758e-17 3.84515e-18 -8.95986)
(3.27158e-17 -1.4446e-17 -8.9095)
(1.52011e-17 -4.20218e-17 -8.8587)
(-1.07216e-17 6.77209e-17 -8.8154)
(-4.04841e-18 -1.15123e-17 -8.78325)
(8.46462e-18 7.46749e-18 -8.76262)
(-6.14144e-18 -2.74156e-18 -8.75132)
(6.75354e-19 -1.19534e-17 -8.74573)
(5.12406e-18 -2.18656e-17 -8.74171)
(-1.08617e-17 3.31751e-17 -8.73535)
(6.89041e-19 8.55935e-19 -8.72352)
(-1.51494e-18 -8.22486e-18 -8.70401)
(-1.21121e-18 4.02118e-18 -8.67538)
(2.79989e-18 2.36274e-17 -8.63723)
(-3.51791e-18 -3.0368e-17 -8.58997)
(-3.43648e-18 -4.99767e-18 -8.53442)
(3.68757e-18 -1.11998e-17 -8.47175)
(-1.21814e-18 1.32288e-17 -8.40334)
(-1.10263e-18 -1.31235e-17 -8.33084)
(-8.95556e-21 1.39228e-17 -8.25568)
(6.72569e-19 5.29376e-18 -8.17928)
(-6.25421e-19 5.86471e-18 -8.10301)
(-6.13948e-20 -3.52469e-18 -8.02817)
(2.32537e-19 -9.59372e-18 -7.95028)
(-9.26666e-20 1.67687e-19 -7.89263)
(0 -0 2.6804)
(0 -0 2.67814)
(1.34342e-19 -1.51787e-17 2.60269)
(9.00418e-19 8.04813e-18 2.17604)
(-1.18135e-18 2.21948e-17 1.47417)
(7.44793e-19 -4.45859e-17 0.638581)
(3.19999e-17 1.49146e-17 -0.315498)
(-6.5118e-17 7.3517e-17 -1.16848)
(3.26633e-17 -7.36506e-17 -1.9094)
(1.47548e-18 -2.92264e-17 -2.55031)
(-2.45396e-18 7.3388e-17 -3.07961)
(6.4108e-17 -2.94209e-17 -3.45267)
(-1.22475e-16 -5.83369e-17 -3.75735)
(1.25291e-16 -2.82804e-17 -4.0049)
(-1.34064e-16 1.74989e-16 -4.21121)
(6.4551e-17 -1.94335e-18 -4.38816)
(8.65119e-18 -1.44658e-16 -4.54239)
(-5.45623e-18 5.82293e-17 -4.67774)
(3.22293e-18 -5.74962e-17 -4.79681)
(5.70447e-17 3.01159e-17 -4.90115)
(-6.93875e-17 8.49742e-17 -4.99224)
(9.22235e-18 -5.75939e-17 -5.07164)
(-1.25946e-16 1.13669e-16 -5.1409)
(1.38667e-16 -1.7386e-16 -5.20147)
(-2.91972e-18 -1.06317e-16 -5.25466)
(-2.72315e-17 3.92746e-16 -5.30157)
(6.47028e-18 -6.22835e-17 -5.34312)
(2.06042e-17 -3.3815e-16 -5.37995)
(-1.19799e-16 1.14677e-17 -5.41246)
(9.08362e-17 3.86721e-16 -5.44079)