/*--------------------------------*- C++ -*----------------------------------*\
| =========                 |                                                 |
| \\      /  F ield         | OpenFOAM: The Open Source CFD Toolbox           |
|  \\    /   O peration     | Version:  2506                                  |
|   \\  /    A nd           | Website:  www.openfoam.com                      |
|    \\/     M anipulation  |                                                 |
\*---------------------------------------------------------------------------*/
FoamFile
{
    version     2.0;
    format      ascii;
    arch        "LSB;label=32;scalar=64";
    class       surfaceScalarField;
    location    "3.35";
    object      phi;
}
// * * * * * * * * * * * * * * * * * * * * * * * * * * * * * * * * * * * * * //

dimensions      [0 3 -1 0 0 0 0];

oriented        oriented;

internalField   nonuniform List<scalar> 
7780
(
3.2866e-10
-3.2866e-10
6.26063e-10
-2.97403e-10
8.27344e-10
-2.01281e-10
9.72978e-10
-1.45634e-10
1.08081e-09
-1.07833e-10
1.16169e-09
-8.08819e-11
1.22376e-09
-6.20654e-11
1.27243e-09
-4.86742e-11
1.31144e-09
-3.9008e-11
1.34346e-09
-3.20209e-11
1.37028e-09
-2.6817e-11
1.39284e-09
-2.25631e-11
1.41176e-09
-1.89143e-11
1.42754e-09
-1.57842e-11
1.44052e-09
-1.29792e-11
1.45089e-09
-1.03733e-11
1.45876e-09
-7.87232e-12
1.46434e-09
-5.57555e-12
1.4676e-09
-3.26038e-12
1.46859e-09
-9.92084e-13
1.46751e-09
1.08525e-12
1.46413e-09
3.38026e-12
1.45847e-09
5.65528e-12
1.45058e-09
7.89397e-12
1.44042e-09
1.01572e-11
1.42795e-09
1.24743e-11
1.41305e-09
1.48939e-11
1.39553e-09
1.75191e-11
1.37498e-09
2.05549e-11
1.35057e-09
2.44078e-11
1.32467e-09
9.7118e-12
1.29793e-09
-8.74483e-11
1.26411e-09
-2.03981e-10
1.21452e-09
-2.99512e-10
1.14504e-09
-3.74206e-10
1.06434e-09
-4.42958e-10
9.84085e-10
-5.14554e-10
8.99463e-10
-6.14638e-10
8.12535e-10
-6.78318e-10
7.40663e-10
-7.09352e-10
6.8579e-10
-7.37338e-10
6.48541e-10
-7.62056e-10
6.26172e-10
-7.81157e-10
6.16159e-10
-7.95044e-10
6.16802e-10
-8.04607e-10
6.25978e-10
-8.09373e-10
6.42578e-10
-8.09055e-10
6.64607e-10
-8.03967e-10
6.90486e-10
-7.93546e-10
7.18758e-10
-7.77252e-10
7.48787e-10
-7.53531e-10
7.81463e-10
-7.19615e-10
8.17015e-10
-6.8068e-10
8.58141e-10
-6.25112e-10
9.08182e-10
-5.56961e-10
9.68639e-10
-4.61342e-10
1.04013e-09
-3.47062e-10
1.1117e-09
-1.87499e-10
1.16844e-09
-8.02914e-13
1.20097e-09
1.82317e-10
1.20678e-09
3.46298e-10
1.18531e-09
4.9637e-10
1.16028e-09
5.79036e-10
1.12699e-09
6.59757e-10
1.10121e-09
6.97875e-10
1.07944e-09
7.32199e-10
1.0632e-09
7.56732e-10
1.05363e-09
7.70665e-10
1.04931e-09
7.8129e-10
1.04845e-09
7.89719e-10
1.05043e-09
7.95762e-10
1.05483e-09
7.9844e-10
1.06106e-09
7.98718e-10
1.06859e-09
7.96889e-10
1.07706e-09
7.92757e-10
1.08633e-09
7.86004e-10
1.09627e-09
7.76222e-10
1.10723e-09
7.60509e-10
1.11863e-09
7.42283e-10
1.13032e-09
7.19022e-10
1.14265e-09
6.88507e-10
1.15628e-09
6.41251e-10
1.16978e-09
5.90807e-10
1.18463e-09
5.12908e-10
1.19959e-09
4.23243e-10
1.21714e-09
2.88364e-10
1.23617e-09
1.41324e-10
1.25756e-09
-2.4381e-11
1.28312e-09
-1.98717e-10
1.31143e-09
-3.52129e-10
1.33805e-09
-4.65487e-10
1.36254e-09
-5.62796e-10
1.37764e-09
-6.19864e-10
1.3853e-09
-6.7098e-10
1.38148e-09
-6.97163e-10
1.36832e-09
-7.17983e-10
1.3514e-09
-7.40068e-10
1.33224e-09
-7.54519e-10
1.31501e-09
-7.69078e-10
1.30252e-09
-7.82927e-10
1.29623e-09
-7.95156e-10
1.29627e-09
-8.04719e-10
1.30099e-09
-8.09602e-10
1.30818e-09
-8.09475e-10
1.31511e-09
-8.03859e-10
1.3206e-09
-7.94048e-10
1.32565e-09
-7.81887e-10
1.32995e-09
-7.64216e-10
1.33333e-09
-7.39823e-10
1.34059e-09
-7.15642e-10
1.35721e-09
-6.89218e-10
1.37442e-09
-6.33042e-10
1.40264e-09
-5.83134e-10
1.4247e-09
-4.80805e-10
1.44501e-09
-3.69796e-10
1.443e-09
-2.02936e-10
1.4089e-09
-2.18974e-12
1.35105e-09
1.86388e-10
1.28251e-09
3.47265e-10
1.20673e-09
4.91042e-10
1.14535e-09
5.73139e-10
1.09426e-09
6.41691e-10
1.0576e-09
6.82395e-10
1.02732e-09
7.23923e-10
1.00762e-09
7.44374e-10
9.94605e-10
7.62108e-10
9.86044e-10
7.77788e-10
9.8211e-10
7.87673e-10
9.822e-10
7.93439e-10
9.85382e-10
7.96999e-10
9.90983e-10
7.98387e-10
9.98628e-10
7.97469e-10
1.00801e-09
7.94149e-10
1.01904e-09
7.87565e-10
1.03169e-09
7.78229e-10
1.04563e-09
7.65919e-10
1.06098e-09
7.49658e-10
1.07776e-09
7.28891e-10
1.09672e-09
6.96484e-10
1.11693e-09
6.60923e-10
1.13811e-09
6.16134e-10
1.16203e-09
5.44502e-10
1.18601e-09
4.6912e-10
1.21233e-09
3.51615e-10
1.24007e-09
2.1668e-10
1.26905e-09
5.99661e-11
1.30153e-09
-1.14952e-10
1.33726e-09
-2.82584e-10
1.37231e-09
-4.12942e-10
1.40464e-09
-5.19919e-10
1.4309e-09
-5.97591e-10
1.44745e-09
-6.50445e-10
1.4516e-09
-6.82898e-10
1.44808e-09
-7.15093e-10
1.43611e-09
-7.3213e-10
1.41986e-09
-7.47767e-10
1.40313e-09
-7.62536e-10
1.39055e-09
-7.78777e-10
1.38481e-09
-7.93148e-10
1.38439e-09
-8.02818e-10
1.39665e-09
-8.1717e-10
1.45159e-09
-8.58938e-10
1.60595e-09
-9.54819e-10
1.66889e-09
-7.09945e-10
1.70433e-09
-6.02776e-10
1.72898e-09
-5.25169e-10
1.72989e-09
-4.12937e-10
1.71138e-09
-2.94708e-10
1.66192e-09
-1.48355e-10
1.57964e-09
5.18634e-12
1.5019e-09
7.45202e-11
1.46648e-09
3.54153e-11
1.45204e-09
1.44453e-11
1.44746e-09
4.57388e-12
1.44697e-09
4.93149e-13
1.44785e-09
-8.79035e-13
1.44854e-09
-6.94323e-13
1.44836e-09
1.83369e-13
1.44728e-09
1.07973e-12
1.44534e-09
1.93931e-12
1.44269e-09
2.65015e-12
1.43952e-09
3.16705e-12
1.436e-09
3.52587e-12
1.43218e-09
3.81552e-12
1.42804e-09
4.13963e-12
1.42345e-09
4.59576e-12
1.41818e-09
5.26658e-12
1.41194e-09
6.23922e-12
1.40427e-09
7.6768e-12
1.39456e-09
9.70603e-12
1.38194e-09
1.26179e-11
1.36493e-09
1.70123e-11
1.34127e-09
2.3659e-11
1.30711e-09
3.41596e-11
1.25568e-09
5.14293e-11
1.17515e-09
8.05272e-11
1.04348e-09
1.31672e-10
8.2087e-10
2.22613e-10
4.44782e-10
3.76088e-10
4.44782e-10
1.75108e-11
-3.46171e-10
1.76881e-10
-4.56773e-10
3.83897e-10
-4.08298e-10
5.78133e-10
-3.39869e-10
7.4734e-10
-2.7704e-10
8.90885e-10
-2.24426e-10
1.01164e-09
-1.82819e-10
1.11342e-09
-1.5046e-10
1.19957e-09
-1.25154e-10
1.27246e-09
-1.04916e-10
1.33389e-09
-8.82453e-11
1.38571e-09
-7.43832e-11
1.42938e-09
-6.25814e-11
1.46573e-09
-5.21308e-11
1.49545e-09
-4.26982e-11
1.51911e-09
-3.40348e-11
1.53712e-09
-2.58806e-11
1.54978e-09
-1.82388e-11
1.55735e-09
-1.08355e-11
1.56003e-09
-3.66573e-12
1.55772e-09
3.38993e-12
1.55076e-09
1.03433e-11
1.53921e-09
1.72065e-11
1.52314e-09
2.39647e-11
1.5027e-09
3.05987e-11
1.47804e-09
3.71294e-11
1.44937e-09
4.3563e-11
1.41695e-09
4.99418e-11
1.38113e-09
5.63717e-11
1.34263e-09
6.29143e-11
1.29794e-09
5.44011e-11
1.23513e-09
-2.46421e-11
1.14614e-09
-1.14988e-10
1.03369e-09
-1.87064e-10
9.05808e-10
-2.46324e-10
7.77172e-10
-3.14322e-10
6.59451e-10
-3.96832e-10
5.43749e-10
-4.98937e-10
4.39258e-10
-5.73828e-10
3.63217e-10
-6.33313e-10
3.14898e-10
-6.8902e-10
2.90002e-10
-7.37161e-10
2.85129e-10
-7.76285e-10
2.97853e-10
-8.07768e-10
3.2471e-10
-8.31462e-10
3.62309e-10
-8.46971e-10
4.0832e-10
-8.55064e-10
4.59624e-10
-8.5527e-10
5.13565e-10
-8.47486e-10
5.68074e-10
-8.31762e-10
6.22447e-10
-8.07905e-10
6.77787e-10
-7.74955e-10
7.34625e-10
-7.37518e-10
7.97406e-10
-6.87894e-10
8.70621e-10
-6.30177e-10
9.60278e-10
-5.50999e-10
1.06994e-09
-4.5672e-10
1.19991e-09
-3.17469e-10
1.34108e-09
-1.41972e-10
1.47286e-09
5.05385e-11
1.57611e-09
2.43053e-10
1.62971e-09
4.42769e-10
1.63989e-09
5.68856e-10
1.61237e-09
6.87276e-10
1.56716e-09
7.43074e-10
1.51101e-09
7.88343e-10
1.45394e-09
8.13788e-10
1.40245e-09
8.22147e-10
1.36009e-09
8.23649e-10
1.32626e-09
8.23553e-10
1.30078e-09
8.21244e-10
1.28288e-09
8.16347e-10
1.2715e-09
8.101e-10
1.26538e-09
8.03001e-10
1.26338e-09
7.94757e-10
1.26469e-09
7.84703e-10
1.26875e-09
7.72168e-10
1.27582e-09
7.53442e-10
1.28513e-09
7.32985e-10
1.29625e-09
7.07901e-10
1.30971e-09
6.75043e-10
1.32647e-09
6.24493e-10
1.34543e-09
5.71838e-10
1.36829e-09
4.90051e-10
1.39441e-09
3.9712e-10
1.42653e-09
2.56241e-10
1.46371e-09
1.04145e-10
1.50467e-09
-6.53473e-11
1.54962e-09
-2.4366e-10
1.59298e-09
-3.95494e-10
1.62903e-09
-5.01539e-10
1.65456e-09
-5.88327e-10
1.66537e-09
-6.30664e-10
1.66344e-09
-6.6905e-10
1.65001e-09
-6.83729e-10
1.63025e-09
-6.98217e-10
1.61137e-09
-7.21189e-10
1.59715e-09
-7.40302e-10
1.59158e-09
-7.63518e-10
1.59595e-09
-7.87314e-10
1.60922e-09
-8.08434e-10
1.62866e-09
-8.24168e-10
1.65032e-09
-8.31266e-10
1.67058e-09
-8.29741e-10
1.68693e-09
-8.20204e-10
1.69949e-09
-8.06598e-10
1.71058e-09
-7.92972e-10
1.72041e-09
-7.74038e-10
1.73139e-09
-7.50806e-10
1.74915e-09
-7.33402e-10
1.77652e-09
-7.16579e-10
1.80891e-09
-6.65428e-10
1.85036e-09
-6.2458e-10
1.89127e-09
-5.21722e-10
1.93201e-09
-4.10532e-10
1.96036e-09
-2.31291e-10
1.96764e-09
-9.47032e-12
1.94911e-09
2.04924e-10
1.90359e-09
3.92779e-10
1.82942e-09
5.65219e-10
1.74492e-09
6.57637e-10
1.65621e-09
7.30399e-10
1.57386e-09
7.6475e-10
1.49582e-09
8.01954e-10
1.429e-09
8.11194e-10
1.37276e-09
8.18343e-10
1.3256e-09
8.24945e-10
1.28807e-09
8.25208e-10
1.25985e-09
8.21654e-10
1.23995e-09
8.16904e-10
1.22704e-09
8.11295e-10
1.22005e-09
8.04463e-10
1.21796e-09
7.96233e-10
1.22018e-09
7.85352e-10
1.22637e-09
7.72038e-10
1.23573e-09
7.56562e-10
1.24822e-09
7.37164e-10
1.26385e-09
7.13263e-10
1.2836e-09
6.76731e-10
1.30674e-09
6.37782e-10
1.33304e-09
5.89834e-10
1.36495e-09
5.12586e-10
1.40045e-09
4.33623e-10
1.44217e-09
3.09892e-10
1.48962e-09
1.69232e-10
1.54148e-09
8.1082e-12
1.59707e-09
-1.70543e-10
1.65184e-09
-3.37357e-10
1.69927e-09
-4.60366e-10
1.73444e-09
-5.55082e-10
1.75478e-09
-6.17912e-10
1.75915e-09
-6.5479e-10
1.75018e-09
-6.73915e-10
1.73471e-09
-6.99604e-10
1.71719e-09
-7.14624e-10
1.70431e-09
-7.34929e-10
1.7015e-09
-7.59794e-10
1.71404e-09
-7.91404e-10
1.74636e-09
-8.25555e-10
1.79614e-09
-8.52656e-10
1.87073e-09
-8.91774e-10
1.99002e-09
-9.78167e-10
2.14683e-09
-1.11152e-09
2.22763e-09
-7.90653e-10
2.2748e-09
-6.49895e-10
2.3019e-09
-5.52268e-10
2.30461e-09
-4.15663e-10
2.28986e-09
-2.79979e-10
2.25266e-09
-1.11163e-10
2.19109e-09
6.67486e-11
2.12484e-09
1.40772e-10
2.07988e-09
8.03721e-11
2.05239e-09
4.19328e-11
2.03638e-09
2.05861e-11
2.02664e-09
1.02382e-11
2.01921e-09
6.54322e-12
2.01182e-09
6.70138e-12
2.0032e-09
8.8015e-12
1.99278e-09
1.15042e-11
1.98055e-09
1.41688e-11
1.96671e-09
1.64905e-11
1.95156e-09
1.83166e-11
1.93535e-09
1.97354e-11
1.91817e-09
2.09919e-11
1.89992e-09
2.23884e-11
1.88033e-09
2.41917e-11
1.85895e-09
2.6638e-11
1.83518e-09
3.00177e-11
1.80819e-09
3.46648e-11
1.77678e-09
4.11135e-11
1.73906e-09
5.03388e-11
1.69213e-09
6.39431e-11
1.6311e-09
8.46878e-11
1.54814e-09
1.17123e-10
1.43045e-09
1.69114e-10
1.25698e-09
2.53996e-10
9.97568e-10
3.91086e-10
6.26804e-10
5.93377e-10
1.99884e-10
8.03008e-10
6.44667e-10
-6.17989e-11
-2.84372e-10
-3.32139e-11
-4.85358e-10
6.7458e-11
-5.0897e-10
1.98334e-10
-4.70745e-10
3.34358e-10
-4.13064e-10
4.64602e-10
-3.54671e-10
5.84299e-10
-3.02515e-10
6.9191e-10
-2.5807e-10
7.87411e-10
-2.20656e-10
8.71479e-10
-1.88983e-10
9.45035e-10
-1.61802e-10
1.00885e-09
-1.38194e-10
1.06363e-09
-1.17361e-10
1.11009e-09
-9.85913e-11
1.14879e-09
-8.1404e-11
1.1802e-09
-6.54433e-11
1.20473e-09
-5.04093e-11
1.22261e-09
-3.61222e-11
1.23415e-09
-2.23738e-11
1.23954e-09
-9.05268e-12
1.239e-09
3.92527e-12
1.23272e-09
1.66309e-11
1.22087e-09
2.90572e-11
1.20367e-09
4.1162e-11
1.18138e-09
5.28853e-11
1.15437e-09
6.41407e-11
1.12311e-09
7.48199e-11
1.08827e-09
8.47894e-11
1.05079e-09
9.38469e-11
1.01201e-09
1.01699e-10
9.68334e-10
9.8073e-11
8.98394e-10
4.52972e-11
8.00316e-10
-1.69097e-11
6.84491e-10
-7.12399e-11
5.64819e-10
-1.26652e-10
4.52931e-10
-2.02432e-10
3.56278e-10
-3.00179e-10
2.65783e-10
-4.08441e-10
1.91075e-10
-4.99121e-10
1.43252e-10
-5.85491e-10
1.19943e-10
-6.65714e-10
1.16777e-10
-7.33996e-10
1.31705e-10
-7.91213e-10
1.61987e-10
-8.38049e-10
2.04036e-10
-8.73511e-10
2.55046e-10
-8.9798e-10
3.11978e-10
-9.11994e-10
3.71319e-10
-9.1461e-10
4.30209e-10
-9.06376e-10
4.86658e-10
-8.88211e-10
5.40068e-10
-8.61315e-10
5.91465e-10
-8.26353e-10
6.41546e-10
-7.87599e-10
6.94358e-10
-7.40705e-10
7.53933e-10
-6.89752e-10
8.26984e-10
-6.24051e-10
9.19033e-10
-5.48769e-10
1.03884e-09
-4.3728e-10
1.18978e-09
-2.92907e-10
1.36311e-09
-1.22786e-10
1.5412e-09
6.49677e-11
1.70185e-09
2.82119e-10
1.82431e-09
4.46398e-10
1.89481e-09
6.16762e-10
1.91419e-09
7.23689e-10
1.89305e-09
8.09478e-10
1.84537e-09
8.61464e-10
1.78249e-09
8.85023e-10
1.71784e-09
8.88307e-10
1.65633e-09
8.85066e-10
1.60279e-09
8.74785e-10
1.55871e-09
8.60422e-10
1.52451e-09
8.44298e-10
1.49943e-09
8.28087e-10
1.48213e-09
8.12061e-10
1.47135e-09
7.95492e-10
1.46596e-09
7.77561e-10
1.46584e-09
7.53569e-10
1.47001e-09
7.28814e-10
1.47779e-09
7.0012e-10
1.4896e-09
6.63235e-10
1.50612e-09
6.07964e-10
1.52662e-09
5.51336e-10
1.55246e-09
4.64203e-10
1.58305e-09
3.66534e-10
1.61997e-09
2.1932e-10
1.66151e-09
6.26044e-11
1.7046e-09
-1.08434e-10
1.74693e-09
-2.85992e-10
1.78181e-09
-4.3038e-10
1.80505e-09
-5.2478e-10
1.81449e-09
-5.97773e-10
1.81033e-09
-6.26501e-10
1.79623e-09
-6.54944e-10
1.77712e-09
-6.64618e-10
1.75903e-09
-6.80121e-10
1.74806e-09
-7.1021e-10
1.74689e-09
-7.39134e-10
1.75678e-09
-7.73414e-10
1.77593e-09
-8.06474e-10
1.80059e-09
-8.33102e-10
1.82632e-09
-8.49919e-10
1.84889e-09
-8.53842e-10
1.86562e-09
-8.46473e-10
1.87605e-09
-8.3063e-10
1.88141e-09
-8.1195e-10
1.88523e-09
-7.96793e-10
1.8888e-09
-7.77596e-10
1.89644e-09
-7.58448e-10
1.91015e-09
-7.47104e-10
1.92978e-09
-7.3621e-10
1.9547e-09
-6.90344e-10
1.98488e-09
-6.54753e-10
2.01647e-09
-5.53317e-10
2.04845e-09
-4.42513e-10
2.07815e-09
-2.60992e-10
2.1052e-09
-3.65265e-11
2.12399e-09
1.86144e-10
2.13249e-09
3.8428e-10
2.12325e-09
5.74454e-10
2.09434e-09
6.86554e-10
2.04505e-09
7.79688e-10
1.98252e-09
8.27274e-10
1.90969e-09
8.74788e-10
1.83362e-09
8.87256e-10
1.75911e-09
8.92856e-10
1.68833e-09
8.95723e-10
1.62495e-09
8.88587e-10
1.57088e-09
8.75729e-10
1.52714e-09
8.60643e-10
1.49349e-09
8.4495e-10
1.46922e-09
8.2873e-10
1.45316e-09
8.12288e-10
1.44431e-09
7.94208e-10
1.44212e-09
7.74229e-10
1.44529e-09
7.53385e-10
1.45359e-09
7.28868e-10
1.46676e-09
7.00092e-10
1.48557e-09
6.57918e-10
1.50962e-09
6.1373e-10
1.53852e-09
5.6094e-10
1.57448e-09
4.76617e-10
1.61575e-09
3.92355e-10
1.66379e-09
2.6185e-10
1.7172e-09
1.1582e-10
1.77219e-09
-4.68821e-11
1.82601e-09
-2.24365e-10
1.87209e-09
-3.83431e-10
1.90505e-09
-4.93327e-10
1.92178e-09
-5.71811e-10
1.92337e-09
-6.19496e-10
1.91278e-09
-6.44174e-10
1.89662e-09
-6.57725e-10
1.8823e-09
-6.85259e-10
1.87606e-09
-7.08363e-10
1.8838e-09
-7.42681e-10
1.90943e-09
-7.85453e-10
1.95623e-09
-8.38268e-10
2.02685e-09
-8.96259e-10
2.1135e-09
-9.39394e-10
2.21217e-09
-9.90502e-10
2.32083e-09
-1.08684e-09
2.40943e-09
-1.20007e-09
2.45172e-09
-8.32858e-10
2.47046e-09
-6.68576e-10
2.47234e-09
-5.54113e-10
2.45604e-09
-3.99355e-10
2.43265e-09
-2.56599e-10
2.40194e-09
-8.04662e-11
2.363e-09
1.05678e-10
2.31972e-09
1.84053e-10
2.28129e-09
1.18802e-10
2.2508e-09
7.24219e-11
2.22728e-09
4.41009e-11
2.20849e-09
2.90327e-11
2.19174e-09
2.3294e-11
2.17506e-09
2.33784e-11
2.1572e-09
2.66621e-11
2.13736e-09
3.13418e-11
2.1154e-09
3.61372e-11
2.09156e-09
4.03288e-11
2.06606e-09
4.38175e-11
2.03899e-09
4.68e-11
2.01033e-09
4.96573e-11
1.97986e-09
5.28598e-11
1.94718e-09
5.68694e-11
1.91169e-09
6.21277e-11
1.87261e-09
6.90962e-11
1.82893e-09
7.83399e-11
1.7792e-09
9.08443e-11
1.72135e-09
1.08189e-10
1.65225e-09
1.33042e-10
1.56666e-09
1.70285e-10
1.45569e-09
2.28094e-10
1.30497e-09
3.19827e-10
1.09395e-09
4.65015e-10
8.02566e-10
6.82475e-10
4.39569e-10
9.56374e-10
1.05821e-10
1.13676e-09
7.50487e-10
-6.78934e-11
-2.16479e-10
-1.07574e-10
-4.45677e-10
-9.12139e-11
-5.2533e-10
-3.51588e-11
-5.268e-10
4.30019e-11
-4.91225e-10
1.30358e-10
-4.42027e-10
2.19237e-10
-3.91394e-10
3.05197e-10
-3.4403e-10
3.85816e-10
-3.01275e-10
4.59883e-10
-2.6305e-10
5.26873e-10
-2.28792e-10
5.86571e-10
-1.97892e-10
6.38957e-10
-1.69748e-10
6.8417e-10
-1.43804e-10
7.22384e-10
-1.19619e-10
7.53781e-10
-9.68395e-11
7.78546e-10
-7.51748e-11
7.96828e-10
-5.44036e-11
8.08796e-10
-3.43422e-11
8.14611e-10
-1.48681e-11
8.14447e-10
4.09004e-12
8.08511e-10
2.25665e-11
7.9704e-10
4.05286e-11
7.80324e-10
5.78776e-11
7.58753e-10
7.44569e-11
7.32852e-10
9.00412e-11
7.0334e-10
1.04332e-10
6.71195e-10
1.16934e-10
6.37784e-10
1.27258e-10
6.04916e-10
1.34568e-10
5.69929e-10
1.33059e-10
5.12673e-10
1.02553e-10
4.34101e-10
6.1662e-11
3.47042e-10
1.58191e-11
2.64693e-10
-4.43027e-11
1.93281e-10
-1.3102e-10
1.35725e-10
-2.42622e-10
8.47535e-11
-3.57468e-10
4.81643e-11
-4.62531e-10
3.19137e-11
-5.69241e-10
3.37657e-11
-6.67568e-10
5.03562e-11
-7.50588e-10
8.0595e-11
-8.21453e-10
1.22473e-10
-8.79928e-10
1.73157e-10
-9.24195e-10
2.29361e-10
-9.54183e-10
2.87798e-10
-9.70429e-10
3.45253e-10
-9.72064e-10
3.99306e-10
-9.60428e-10
4.48479e-10
-9.37384e-10
4.92479e-10
-9.05315e-10
5.323e-10
-8.66174e-10
5.68811e-10
-8.24109e-10
6.05263e-10
-7.77159e-10
6.44823e-10
-7.29312e-10
6.93166e-10
-6.72394e-10
7.55486e-10
-6.11089e-10
8.42161e-10
-5.23955e-10
9.62251e-10
-4.12995e-10
1.11911e-09
-2.79641e-10
1.31011e-09
-1.26033e-10
1.52111e-09
7.11143e-11
1.72238e-09
2.45128e-10
1.89678e-09
4.42351e-10
2.02551e-09
5.94956e-10
2.10195e-09
7.3303e-10
2.12622e-09
8.37199e-10
2.10751e-09
9.03735e-10
2.06184e-09
9.33984e-10
1.9997e-09
9.47214e-10
1.93372e-09
9.40756e-10
1.87043e-09
9.23711e-10
1.81481e-09
8.9992e-10
1.76892e-09
8.73984e-10
1.73305e-09
8.47929e-10
1.70661e-09
8.21943e-10
1.68838e-09
7.95797e-10
1.67792e-09
7.64027e-10
1.67404e-09
7.32696e-10
1.67571e-09
6.98447e-10
1.68315e-09
6.55794e-10
1.69647e-09
5.94636e-10
1.71496e-09
5.32838e-10
1.7394e-09
4.39764e-10
1.7688e-09
3.37131e-10
1.80325e-09
1.84876e-10
1.83996e-09
2.58864e-11
1.87422e-09
-1.42689e-10
1.90259e-09
-3.1436e-10
1.91889e-09
-4.46687e-10
1.92164e-09
-5.27535e-10
1.91124e-09
-5.87375e-10
1.89169e-09
-6.06948e-10
1.8685e-09
-6.31752e-10
1.84828e-09
-6.44397e-10
1.83625e-09
-6.68084e-10
1.83597e-09
-7.09926e-10
1.84725e-09
-7.50403e-10
1.86788e-09
-7.94047e-10
1.89323e-09
-8.31833e-10
1.918e-09
-8.57874e-10
1.93773e-09
-8.69668e-10
1.94961e-09
-8.65729e-10
1.95327e-09
-8.50139e-10
1.95039e-09
-8.27751e-10
1.94377e-09
-8.05325e-10
1.9365e-09
-7.89519e-10
1.93126e-09
-7.72351e-10
1.93183e-09
-7.59018e-10
1.93722e-09
-7.52486e-10
1.94625e-09
-7.45243e-10
1.95959e-09
-7.03683e-10
1.97425e-09
-6.69414e-10
1.99115e-09
-5.70214e-10
2.00901e-09
-4.6037e-10
2.03036e-09
-2.82339e-10
2.05892e-09
-6.50921e-11
2.09234e-09
1.52721e-10
2.1297e-09
3.46924e-10
2.16656e-09
5.37591e-10
2.19711e-09
6.56012e-10
2.21521e-09
7.61583e-10
2.2153e-09
8.27182e-10
2.19391e-09
8.96178e-10
2.1529e-09
9.28261e-10
2.09748e-09
9.48282e-10
2.03189e-09
9.61313e-10
1.96322e-09
9.57257e-10
1.89622e-09
9.42733e-10
1.83552e-09
9.21342e-10
1.78365e-09
8.96816e-10
1.74205e-09
8.70333e-10
1.7107e-09
8.43634e-10
1.68897e-09
8.1594e-10
1.67652e-09
7.86682e-10
1.67175e-09
7.5816e-10
1.67421e-09
7.26399e-10
1.68335e-09
6.90952e-10
1.69943e-09
6.41835e-10
1.72212e-09
5.91047e-10
1.75063e-09
5.32424e-10
1.78652e-09
4.40729e-10
1.82771e-09
3.51162e-10
1.87402e-09
2.15544e-10
1.92291e-09
6.69239e-11
1.96878e-09
-9.27531e-11
2.00748e-09
-2.63065e-10
2.03258e-09
-4.0853e-10
2.04177e-09
-5.02521e-10
2.03545e-09
-5.65501e-10
2.01893e-09
-6.02972e-10
1.99864e-09
-6.23872e-10
1.98326e-09
-6.42328e-10
1.97958e-09
-6.81538e-10
1.99265e-09
-7.21396e-10
2.0255e-09
-7.75506e-10
2.07856e-09
-8.38511e-10
2.15123e-09
-9.10964e-10
2.24138e-09
-9.86463e-10
2.33386e-09
-1.03195e-09
2.41621e-09
-1.07292e-09
2.47756e-09
-1.14825e-09
2.49602e-09
-1.21852e-09
2.49524e-09
-8.3205e-10
2.48044e-09
-6.53714e-10
2.45444e-09
-5.28069e-10
2.42038e-09
-3.65273e-10
2.38773e-09
-2.23954e-10
2.35738e-09
-5.01222e-11
2.33171e-09
1.3135e-10
2.30564e-09
2.10122e-10
2.27514e-09
1.49298e-10
2.24499e-09
1.02567e-10
2.21661e-09
7.24819e-11
2.18995e-09
5.56935e-11
2.16425e-09
4.8998e-11
2.13849e-09
4.91385e-11
2.11182e-09
5.33293e-11
2.08372e-09
5.94396e-11
2.05392e-09
6.59417e-11
2.02228e-09
7.19642e-11
1.98879e-09
7.73105e-11
1.95335e-09
8.22361e-11
1.91575e-09
8.72566e-11
1.87561e-09
9.29985e-11
1.83239e-09
1.00092e-10
1.78538e-09
1.09144e-10
1.73369e-09
1.20784e-10
1.67623e-09
1.35801e-10
1.61159e-09
1.55479e-10
1.53781e-09
1.81976e-10
1.4518e-09
2.19051e-10
1.34866e-09
2.73422e-10
1.22032e-09
3.56437e-10
1.05444e-09
4.85708e-10
8.36381e-10
6.83071e-10
5.60782e-10
9.58073e-10
2.60723e-10
1.25643e-09
3.82625e-11
1.35922e-09
7.8875e-10
-5.83682e-11
-1.5811e-10
-1.20908e-10
-3.83137e-10
-1.49188e-10
-4.9705e-10
-1.44767e-10
-5.31222e-10
-1.15558e-10
-5.20434e-10
-7.04207e-11
-4.87164e-10
-1.67714e-11
-4.45043e-10
4.032e-11
-4.01122e-10
9.75011e-11
-3.58456e-10
1.52596e-10
-3.18145e-10
2.04208e-10
-2.80403e-10
2.51424e-10
-2.45108e-10
2.93667e-10
-2.11991e-10
3.30602e-10
-1.80738e-10
3.62041e-10
-1.51058e-10
3.87888e-10
-1.22686e-10
4.08109e-10
-9.53955e-11
4.22708e-10
-6.90027e-11
4.31733e-10
-4.33675e-11
4.35269e-10
-1.84046e-11
4.33447e-10
5.91272e-12
4.26458e-10
2.95551e-11
4.14567e-10
5.242e-11
3.9813e-10
7.43141e-11
3.77642e-10
9.49453e-11
3.53772e-10
1.13911e-10
3.27423e-10
1.30681e-10
2.99795e-10
1.44562e-10
2.72462e-10
1.54591e-10
2.47432e-10
1.59597e-10
2.2345e-10
1.57042e-10
1.85847e-10
1.40156e-10
1.36828e-10
1.10681e-10
8.71642e-11
6.54826e-11
4.65398e-11
-3.6784e-12
1.62445e-11
-1.00725e-10
-3.99163e-12
-2.22385e-10
-1.92056e-11
-3.42253e-10
-2.37444e-11
-4.57991e-10
-1.48133e-11
-5.78172e-10
6.3144e-12
-6.88696e-10
3.76391e-11
-7.81914e-10
7.87791e-11
-8.62595e-10
1.27856e-10
-9.29006e-10
1.82091e-10
-9.78431e-10
2.38315e-10
-1.01041e-09
2.93403e-10
-1.02552e-09
3.44705e-10
-1.02336e-09
3.90437e-10
-1.00616e-09
4.29722e-10
-9.76669e-10
4.6266e-10
-9.38252e-10
4.90312e-10
-8.93827e-10
5.13677e-10
-8.47475e-10
5.35349e-10
-7.9883e-10
5.57729e-10
-7.51692e-10
5.85183e-10
-6.99849e-10
6.21716e-10
-6.47622e-10
6.76116e-10
-5.78354e-10
7.57506e-10
-4.94385e-10
8.73245e-10
-3.95378e-10
1.02939e-09
-2.82181e-10
1.22786e-09
-1.27353e-10
1.45064e-09
2.23452e-11
1.68166e-09
2.11322e-10
1.89223e-09
3.84384e-10
2.0677e-09
5.57563e-10
2.19494e-09
7.09954e-10
2.2694e-09
8.29282e-10
2.29357e-09
9.09819e-10
2.27811e-09
9.6267e-10
2.23549e-09
9.8338e-10
2.1778e-09
9.81398e-10
2.11616e-09
9.61559e-10
2.05724e-09
9.32911e-10
2.00553e-09
8.99643e-10
1.96326e-09
8.64212e-10
1.9306e-09
8.28463e-10
1.90761e-09
7.87016e-10
1.89326e-09
7.47039e-10
1.88636e-09
7.0535e-10
1.88692e-09
6.55225e-10
1.89432e-09
5.8723e-10
1.90769e-09
5.19467e-10
1.92687e-09
4.20589e-10
1.95031e-09
3.13691e-10
1.97642e-09
1.58765e-10
2.0016e-09
7.05483e-13
2.02015e-09
-1.61243e-10
2.02882e-09
-3.23025e-10
2.02318e-09
-4.41049e-10
2.00495e-09
-5.09311e-10
1.9773e-09
-5.59724e-10
1.947e-09
-5.76648e-10
1.92046e-09
-6.0522e-10
1.90398e-09
-6.27919e-10
1.90044e-09
-6.64538e-10
1.90997e-09
-7.1945e-10
1.92897e-09
-7.69398e-10
1.95236e-09
-8.17433e-10
1.97394e-09
-8.53405e-10
1.98853e-09
-8.72467e-10
1.99323e-09
-8.74378e-10
1.98767e-09
-8.60173e-10
1.97389e-09
-8.3637e-10
1.95545e-09
-8.09317e-10
1.93666e-09
-7.8654e-10
1.91982e-09
-7.72675e-10
1.90771e-09
-7.60233e-10
1.9018e-09
-7.53106e-10
1.90019e-09
-7.50869e-10
1.90084e-09
-7.459e-10
1.90454e-09
-7.0738e-10
1.90728e-09
-6.72152e-10
1.91216e-09
-5.75088e-10
1.91812e-09
-4.66332e-10
1.92965e-09
-2.93869e-10
1.95205e-09
-8.74908e-11
1.98502e-09
1.19748e-10
2.03027e-09
3.0167e-10
2.0865e-09
4.81362e-10
2.14628e-09
5.96234e-10
2.206e-09
7.01862e-10
2.25887e-09
7.74316e-10
2.29927e-09
8.55773e-10
2.3214e-09
9.0613e-10
2.3196e-09
9.50082e-10
2.29427e-09
9.86649e-10
2.25009e-09
1.00144e-09
2.19409e-09
9.98737e-10
2.13385e-09
9.81584e-10
2.07493e-09
9.55733e-10
2.02211e-09
9.23153e-10
1.97815e-09
8.87589e-10
1.94407e-09
8.50019e-10
1.9207e-09
8.10059e-10
1.90674e-09
7.72122e-10
1.90189e-09
7.31248e-10
1.90539e-09
6.87448e-10
1.9169e-09
6.30316e-10
1.93597e-09
5.71975e-10
1.96127e-09
5.0713e-10
1.99327e-09
4.08728e-10
2.02941e-09
3.15018e-10
2.06758e-09
1.77372e-10
2.10432e-09
3.01912e-11
2.13294e-09
-1.21379e-10
2.14939e-09
-2.79514e-10
2.14926e-09
-4.08407e-10
2.13439e-09
-4.87652e-10
2.10908e-09
-5.40195e-10
2.08213e-09
-5.76035e-10
2.06181e-09
-6.03549e-10
2.0565e-09
-6.37009e-10
2.07039e-09
-6.95401e-10
2.10516e-09
-7.56132e-10
2.15962e-09
-8.29923e-10
2.22988e-09
-9.0874e-10
2.311e-09
-9.92064e-10
2.39626e-09
-1.07174e-09
2.46672e-09
-1.10245e-09
2.50918e-09
-1.11544e-09
2.51573e-09
-1.15486e-09
2.47768e-09
-1.18052e-09
2.4418e-09
-7.96175e-10
2.40177e-09
-6.13659e-10
2.35783e-09
-4.84093e-10
2.31336e-09
-3.20778e-10
2.27514e-09
-1.85719e-10
2.24567e-09
-2.06468e-11
2.22659e-09
1.50427e-10
2.20949e-09
2.27218e-10
2.18429e-09
1.74498e-10
2.15501e-09
1.31845e-10
2.12391e-09
1.03576e-10
2.09212e-09
8.74833e-11
2.06002e-09
8.11003e-11
2.02748e-09
8.1676e-11
1.99419e-09
8.66176e-11
1.95984e-09
9.37941e-11
1.92412e-09
1.0166e-10
1.88674e-09
1.09343e-10
1.84741e-09
1.16643e-10
1.80578e-09
1.23869e-10
1.7614e-09
1.31635e-10
1.71372e-09
1.4068e-10
1.66206e-09
1.51753e-10
1.60563e-09
1.65576e-10
1.54351e-09
1.82904e-10
1.4746e-09
2.04708e-10
1.39754e-09
2.32537e-10
1.31047e-09
2.69048e-10
1.21059e-09
3.18924e-10
1.09362e-09
3.90394e-10
9.52997e-10
4.97061e-10
7.80108e-10
6.58596e-10
5.68524e-10
8.94656e-10
3.27378e-10
1.19922e-09
1.04096e-10
1.47972e-09
-1.31233e-11
1.47644e-09
7.75627e-10
-4.53072e-11
-1.12803e-10
-1.09544e-10
-3.18901e-10
-1.57466e-10
-4.49127e-10
-1.80976e-10
-5.07712e-10
-1.83366e-10
-5.18043e-10
-1.69721e-10
-5.00809e-10
-1.44858e-10
-4.69906e-10
-1.13356e-10
-4.32624e-10
-7.86251e-11
-3.93188e-10
-4.30595e-11
-3.53711e-10
-8.38462e-12
-3.15078e-10
2.41745e-11
-2.77667e-10
5.3748e-11
-2.41564e-10
7.97355e-11
-2.06726e-10
1.01726e-10
-1.73049e-10
1.19443e-10
-1.40403e-10
1.32708e-10
-1.0866e-10
1.41421e-10
-7.7716e-11
1.45552e-10
-4.74984e-11
1.45136e-10
-1.79886e-11
1.4028e-10
1.07695e-11
1.31177e-10
3.86577e-11
1.18127e-10
6.54699e-11
1.01557e-10
9.08841e-11
8.20553e-11
1.14447e-10
6.04121e-11
1.35554e-10
3.76682e-11
1.53425e-10
1.51528e-11
1.67078e-10
-5.49816e-12
1.75242e-10
-2.22547e-11
1.76354e-10
-3.51838e-11
1.69971e-10
-5.30513e-11
1.58024e-10
-7.39147e-11
1.31545e-10
-9.0008e-11
8.15759e-11
-9.58947e-11
2.20821e-12
-9.36637e-11
-1.02956e-10
-8.52382e-11
-2.30811e-10
-7.37251e-11
-3.53765e-10
-5.53051e-11
-4.7641e-10
-2.8354e-11
-6.05122e-10
6.51541e-12
-7.23564e-10
4.82359e-11
-8.23635e-10
9.64685e-11
-9.10828e-10
1.4929e-10
-9.81828e-10
2.039e-10
-1.03304e-09
2.57335e-10
-1.06384e-09
3.06891e-10
-1.07507e-09
3.50574e-10
-1.06705e-09
3.8726e-10
-1.04284e-09
4.1666e-10
-1.00607e-09
4.39265e-10
-9.60857e-10
4.56258e-10
-9.1082e-10
4.68719e-10
-8.59937e-10
4.78794e-10
-8.08905e-10
4.88338e-10
-7.61236e-10
5.00653e-10
-7.12164e-10
5.18586e-10
-6.65556e-10
5.48718e-10
-6.08486e-10
5.98118e-10
-5.43785e-10
6.73689e-10
-4.70948e-10
7.83207e-10
-3.917e-10
9.36312e-10
-2.80461e-10
1.12832e-09
-1.6967e-10
1.35615e-09
-1.65126e-11
1.59823e-09
1.42314e-10
1.83644e-09
3.19351e-10
2.04819e-09
4.98208e-10
2.21882e-09
6.58662e-10
2.33742e-09
7.91215e-10
2.40533e-09
8.94757e-10
2.42844e-09
9.60272e-10
2.41644e-09
9.93401e-10
2.38016e-09
9.97833e-10
2.3304e-09
9.82683e-10
2.27688e-09
9.53165e-10
2.22651e-09
9.14576e-10
2.18281e-09
8.72164e-10
2.14795e-09
8.21874e-10
2.12224e-09
7.72746e-10
2.10496e-09
7.22627e-10
2.09631e-09
6.63877e-10
2.09497e-09
5.88563e-10
2.09996e-09
5.14479e-10
2.11001e-09
4.10534e-10
2.12302e-09
3.00685e-10
2.13581e-09
1.4598e-10
2.14446e-09
-7.94822e-12
2.14322e-09
-1.60007e-10
2.13005e-09
-3.09853e-10
2.10308e-09
-4.14078e-10
2.06719e-09
-4.73421e-10
2.02775e-09
-5.20286e-10
1.99296e-09
-5.41865e-10
1.96862e-09
-5.80886e-10
1.95897e-09
-6.18275e-10
1.96356e-09
-6.69125e-10
1.97889e-09
-7.3478e-10
1.99851e-09
-7.89004e-10
2.0158e-09
-8.34717e-10
2.02462e-09
-8.62222e-10
2.02165e-09
-8.69496e-10
2.00636e-09
-8.59088e-10
1.9811e-09
-8.34915e-10
1.95038e-09
-8.05662e-10
1.91916e-09
-7.78104e-10
1.89143e-09
-7.58815e-10
1.8692e-09
-7.50441e-10
1.85343e-09
-7.44464e-10
1.84412e-09
-7.43786e-10
1.83832e-09
-7.45076e-10
1.83351e-09
-7.41088e-10
1.83039e-09
-7.04253e-10
1.82501e-09
-6.66778e-10
1.82133e-09
-5.71401e-10
1.81861e-09
-4.63613e-10
1.82167e-09
-2.96932e-10
1.83572e-09
-1.01538e-10
1.86061e-09
9.48571e-11
1.89876e-09
2.63514e-10
1.95288e-09
4.27247e-10
2.01902e-09
5.30094e-10
2.09662e-09
6.24263e-10
2.17918e-09
6.91753e-10
2.26038e-09
7.74571e-10
2.33214e-09
8.34372e-10
2.387e-09
8.95221e-10
2.42193e-09
9.51721e-10
2.43108e-09
9.92288e-10
2.41526e-09
1.01456e-09
2.38034e-09
1.01651e-09
2.33454e-09
1.00153e-09
2.28495e-09
9.72741e-10
2.2378e-09
9.34743e-10
2.19669e-09
8.91126e-10
2.16482e-09
8.41926e-10
2.14222e-09
7.94724e-10
2.12941e-09
7.44061e-10
2.12588e-09
6.90979e-10
2.13084e-09
6.25354e-10
2.14373e-09
5.5908e-10
2.16259e-09
4.88268e-10
2.18663e-09
3.84687e-10
2.21284e-09
2.88808e-10
2.23728e-09
1.52931e-10
2.25613e-09
1.13459e-11
2.2628e-09
-1.28046e-10
2.2548e-09
-2.71522e-10
2.23107e-09
-3.84677e-10
2.19776e-09
-4.54349e-10
2.16243e-09
-5.04868e-10
2.13569e-09
-5.49306e-10
2.12519e-09
-5.93058e-10
2.1366e-09
-6.48425e-10
2.16983e-09
-7.28616e-10
2.22211e-09
-8.0839e-10
2.28793e-09
-8.95703e-10
2.35979e-09
-9.80552e-10
2.42994e-09
-1.06218e-09
2.48998e-09
-1.13177e-09
2.52234e-09
-1.13482e-09
2.51805e-09
-1.11118e-09
2.47759e-09
-1.11446e-09
2.4022e-09
-1.10518e-09
2.3449e-09
-7.38902e-10
2.29095e-09
-5.59708e-10
2.23791e-09
-4.3104e-10
2.1887e-09
-2.71547e-10
2.14872e-09
-1.45718e-10
2.12032e-09
7.75442e-12
2.10447e-09
1.66279e-10
2.09173e-09
2.39955e-10
2.06992e-09
1.96314e-10
2.04199e-09
1.59768e-10
2.01029e-09
1.35275e-10
1.97636e-09
1.21415e-10
1.94113e-09
1.16334e-10
1.905e-09
1.17807e-10
1.86802e-09
1.23595e-10
1.83004e-09
1.31777e-10
1.79074e-09
1.40955e-10
1.74972e-09
1.50368e-10
1.70647e-09
1.5989e-10
1.66045e-09
1.69892e-10
1.61102e-09
1.81059e-10
1.5575e-09
1.94199e-10
1.49912e-09
2.10132e-10
1.43504e-09
2.29656e-10
1.36432e-09
2.53624e-10
1.28587e-09
2.83162e-10
1.19834e-09
3.20067e-10
1.09996e-09
3.67432e-10
9.88211e-10
4.3067e-10
8.59554e-10
5.19051e-10
7.09407e-10
6.47209e-10
5.33785e-10
8.34218e-10
3.3529e-10
1.09315e-09
1.35704e-10