/*--------------------------------*- C++ -*----------------------------------*\
| =========                 |                                                 |
| \\      /  F ield         | OpenFOAM: The Open Source CFD Toolbox           |
|  \\    /   O peration     | Version:  2506                                  |
|   \\  /    A nd           | Website:  www.openfoam.com                      |
|    \\/     M anipulation  |                                                 |
\*---------------------------------------------------------------------------*/
FoamFile
{
    version     2.0;
    format      ascii;
    arch        "LSB;label=32;scalar=64";
    class       volVectorField;
    location    "3.35";
    object      U;
}
// * * * * * * * * * * * * * * * * * * * * * * * * * * * * * * * * * * * * * //

dimensions      [0 1 -1 0 0 0 0];

internalField   nonuniform List<vector> 
4000
(
(0.00126714 -0.000560901 -1.27302e-23)
(0.00192431 -0.000489012 0)
(0.00285892 -0.000254454 -3.02106e-23)
(0.00357581 -0.000139934 -3.04481e-23)
(0.00404939 -8.59307e-05 -2.98079e-23)
(0.00438522 -5.29102e-05 0)
(0.00463705 -3.24132e-05 -2.77634e-23)
(0.00482529 -1.99009e-05 -2.67766e-23)
(0.004967 -1.21945e-05 0)
(0.00507717 -7.54851e-06 0)
(0.00516396 -4.849e-06 -4.27069e-22)
(0.00523228 -2.97582e-06 8.01224e-22)
(0.00528555 -1.52945e-06 -3.74386e-22)
(0.00532549 -5.31691e-07 4.09771e-22)
(0.0053543 2.11285e-07 -4.08521e-22)
(0.00537282 7.94752e-07 -2.65001e-23)
(0.00538176 1.25002e-06 -4.57165e-22)
(0.00538186 1.57747e-06 4.55992e-22)
(0.0053735 1.87508e-06 -3.07817e-23)
(0.0053569 2.15673e-06 0)
(0.00533258 2.49714e-06 0)
(0.0053006 2.30236e-06 3.78998e-23)
(0.00526075 1.81358e-06 4.09754e-23)
(0.00521318 1.18991e-06 0)
(0.00515802 4.80437e-07 4.83018e-23)
(0.00509523 -2.98928e-07 5.25995e-23)
(0.00502464 -1.09888e-06 0)
(0.00494575 -1.78545e-06 0)
(0.00485781 -2.0477e-06 -2.31433e-21)
(0.0047575 -7.25353e-07 2.38718e-21)
(0.0046476 8.46857e-06 0)
(0.00455095 3.7118e-05 5.98224e-21)
(0.00446348 7.98348e-05 -9.39001e-21)
(0.00435845 0.000117186 2.5366e-22)
(0.00421459 0.000124136 4.24499e-21)
(0.00402268 8.47586e-05 -6.54148e-20)
(0.00383003 -6.39103e-06 5.572e-22)
(0.00362616 -0.000153984 1.38547e-20)
(0.00340956 -0.000363775 0)
(0.0032098 -0.000598392 -5.12014e-21)
(0.00305275 -0.00080596 5.16926e-21)
(0.0029461 -0.000966133 -4.18297e-20)
(0.00288661 -0.00107169 0)
(0.00287064 -0.00112016 -3.63844e-20)
(0.00289566 -0.00111359 1.54172e-20)
(0.00295636 -0.00105812 -2.1273e-20)
(0.00304967 -0.000959766 0)
(0.00317219 -0.000826992 2.04505e-20)
(0.00331885 -0.000670359 2.13759e-20)
(0.00348365 -0.000500811 1.56493e-20)
(0.00366093 -0.000328829 0)
(0.00385765 -0.000160374 0)
(0.00406694 -9.41823e-06 1.79231e-21)
(0.00430233 0.000120921 -1.37479e-20)
(0.00457322 0.000219277 -2.25163e-21)
(0.00489202 0.000273195 8.63896e-21)
(0.0052602 0.000259922 4.67738e-21)
(0.0056533 0.000156671 -1.26766e-21)
(0.005971 -5.4748e-05 0)
(0.00614637 -0.000323185 -1.56685e-22)
(0.00615303 -0.000597362 -7.82107e-22)
(0.00596959 -0.000819294 8.15438e-22)
(0.00572188 -0.000944268 7.12982e-21)
(0.00542525 -0.000984616 -8.06935e-21)
(0.00515089 -0.000962693 0)
(0.00491165 -0.000903661 0)
(0.00470416 -0.000827204 0)
(0.00453959 -0.00074756 -1.64393e-21)
(0.00441113 -0.000673753 -2.43017e-20)
(0.00431018 -0.000607464 -1.34494e-20)
(0.00422888 -0.000549273 0)
(0.00416436 -0.000498918 1.1723e-20)
(0.0041132 -0.000455502 -1.15163e-20)
(0.00407174 -0.000417508 -1.20954e-21)
(0.00403737 -0.000383635 1.21648e-20)
(0.0040084 -0.000352855 -1.03909e-20)
(0.00398369 -0.000324303 -1.12847e-20)
(0.00396438 -0.000298194 -1.03039e-20)
(0.00394869 -0.000273727 0)
(0.00393519 -0.000250056 0)
(0.00392385 -0.000226562 2.19369e-22)
(0.0039192 -0.000204533 6.15989e-21)
(0.00391758 -0.000182178 0)
(0.00392262 -0.000159865 -3.44584e-21)
(0.00393408 -0.00013561 1.84542e-21)
(0.00396012 -0.000108845 0)
(0.0040049 -7.58551e-05 0)
(0.00407022 -3.11711e-05 -2.46525e-22)
(0.00416306 3.47868e-05 -1.05371e-21)
(0.00428581 0.000129785 3.0058e-21)
(0.00442356 0.000256138 -9.97129e-23)
(0.00456514 0.000411644 1.70797e-22)
(0.0046959 0.000582669 7.09086e-22)
(0.0048009 0.000755782 0)
(0.00487989 0.000914739 -1.42239e-20)
(0.00492309 0.00104623 -1.45976e-20)
(0.0049419 0.00115012 -1.51955e-20)
(0.00495395 0.00123025 -1.01007e-21)
(0.00496593 0.00129385 -1.55238e-20)
(0.00499111 0.00135355 -1.65274e-20)
(0.00503963 0.00142039 2.63854e-22)
(0.00511607 0.00150087 -1.70805e-20)
(0.00521925 0.00159501 -3.25068e-20)
(0.00534217 0.00169649 -7.65717e-22)
(0.00547552 0.0017969 -1.46814e-20)
(0.00561096 0.00188612 0)
(0.00574739 0.0019551 1.36272e-20)
(0.00588838 0.0019955 1.18225e-20)
(0.00603162 0.00200117 8.07934e-22)
(0.00618128 0.0019746 0)
(0.00636767 0.00191941 8.7768e-21)
(0.00659249 0.00181061 -7.14176e-21)
(0.00683278 0.00164934 0)
(0.00709693 0.0014085 -7.37105e-21)
(0.00731853 0.00108491 -8.44931e-22)
(0.00746323 0.000663072 5.92904e-22)
(0.00741406 0.000173069 0)
(0.00715381 -0.000286982 1.27725e-21)
(0.00677964 -0.000650536 -2.52485e-22)
(0.00632012 -0.000887852 -5.47686e-23)
(0.00588943 -0.000997806 3.03105e-22)
(0.00551711 -0.00102005 -1.14087e-20)
(0.00521983 -0.000992166 1.31434e-20)
(0.00496773 -0.000932295 8.70156e-22)
(0.00476709 -0.000858899 1.2611e-20)
(0.00461146 -0.000786324 -2.75651e-20)
(0.0044836 -0.000715794 1.39119e-20)
(0.0043792 -0.000649977 -1.5301e-20)
(0.00429722 -0.000591317 5.47186e-22)
(0.00423243 -0.00053989 -1.33716e-20)
(0.00418023 -0.000494545 0)
(0.00413757 -0.000454063 1.42445e-20)
(0.00410229 -0.000417288 -2.12463e-21)
(0.00407355 -0.000383631 1.4951e-20)
(0.00404997 -0.000352347 0)
(0.00403026 -0.000322591 0)
(0.00401361 -0.000293691 -1.09823e-20)
(0.00399901 -0.000264585 9.68232e-21)
(0.00399025 -0.000236432 0)
(0.00398428 -0.000208238 0)
(0.00397836 -0.000177759 6.33081e-21)
(0.00398074 -0.000146842 -1.02985e-21)
(0.00398574 -0.000112988 4.12982e-21)
(0.00400086 -7.56309e-05 0)
(0.00403013 -3.35487e-05 -8.72716e-23)
(0.00407571 1.46301e-05 9.55234e-22)
(0.00414642 7.84072e-05 -1.40518e-21)
(0.00425037 0.000161288 1.17253e-21)
(0.00437824 0.00027113 0)
(0.00451696 0.000408111 -2.41361e-21)
(0.00465501 0.000568416 -3.11423e-22)
(0.00477854 0.000738336 1.73305e-20)
(0.00487253 0.000900862 -3.01433e-21)
(0.00493449 0.00104577 -3.84434e-22)
(0.00497646 0.00116639 -1.02543e-20)
(0.00499828 0.00126058 -3.47364e-21)
(0.00501339 0.00133618 0)
(0.00503825 0.00140682 0)
(0.00509084 0.00148827 0)
(0.00518362 0.00159084 2.71751e-20)
(0.0053366 0.00171877 -3.25383e-21)
(0.0055921 0.00187348 -1.11854e-20)
(0.00615004 0.0020874 -8.09505e-21)
(0.00702298 0.00216232 0)
(0.00734136 0.00199212 7.26663e-21)
(0.00750375 0.00175786 1.05094e-20)
(0.00766704 0.00147149 3.3408e-22)
(0.00771717 0.00112567 1.07351e-21)
(0.00759211 0.000737173 1.96257e-21)
(0.00724944 0.000367998 5.49494e-22)
(0.00679501 0.000128016 0)
(0.00649158 4.14459e-05 6.62496e-24)
(0.00636549 1.53576e-05 0)
(0.0063134 5.2471e-06 6.63372e-24)
(0.00628511 1.34979e-06 6.6027e-24)
(0.00626609 6.86034e-07 4.25672e-22)
(0.00624942 1.0711e-06 -4.25273e-22)
(0.00623025 1.82243e-06 -2.11168e-22)
(0.00620702 2.85595e-06 2.17647e-22)
(0.00617995 3.80721e-06 -2.11309e-22)
(0.00614966 4.5624e-06 4.48985e-22)
(0.00611693 5.08766e-06 -2.16776e-22)
(0.00608258 5.4331e-06 0)
(0.00604716 5.68667e-06 7.79288e-24)
(0.00601078 5.93307e-06 -8.18931e-24)
(0.00597305 6.26571e-06 2.90823e-22)
(0.00593332 6.76145e-06 -2.72837e-22)
(0.00589054 7.48097e-06 3.17786e-22)
(0.00584309 8.61801e-06 -3.0727e-22)
(0.00578906 1.02719e-05 1.91942e-22)
(0.0057255 1.26893e-05 -1.69076e-22)
(0.00564793 1.64785e-05 1.26808e-23)
(0.00554939 2.22194e-05 1.37401e-23)
(0.00541806 3.13169e-05 0)
(0.00523425 4.64843e-05 1.65862e-23)
(0.00496143 7.294e-05 1.85776e-23)
(0.00454503 0.000121803 2.0266e-22)
(0.00382558 0.000226813 -2.07811e-22)
(0.00264092 0.000479567 0)
(0.0015646 0.0006609 3.73696e-23)
(3.54338e-05 -0.00127502 -1.01718e-23)
(0.000257045 -0.00145852 -3.42583e-23)
(0.00109172 -0.00115438 3.38479e-23)
(0.0019249 -0.000880572 -1.60831e-22)
(0.00263426 -0.000665886 4.17839e-22)
(0.00322719 -0.000503481 -6.22664e-24)
(0.00371993 -0.000384649 -2.1243e-22)
(0.00412722 -0.000297718 8.57826e-23)
(0.0044638 -0.000233331 5.46196e-23)
(0.00474405 -0.000184664 5.33629e-23)
(0.00497443 -0.000146623 7.97117e-23)
(0.00516154 -0.000115856 4.78584e-22)
(0.00531575 -9.01194e-05 -4.50714e-22)
(0.00543914 -6.78544e-05 4.36068e-22)
(0.00553538 -4.80264e-05 -8.27583e-22)
(0.00560728 -2.99217e-05 9.95179e-22)
(0.00565696 -1.27625e-05 -4.04181e-22)
(0.00568591 2.7414e-06 5.74088e-22)
(0.00569536 1.81574e-05 6.76097e-22)
(0.00568645 3.32159e-05 -1.01636e-21)
(0.0056597 4.80833e-05 7.44196e-23)
(0.00561555 6.24284e-05 1.38731e-21)
(0.005555 7.65769e-05 -1.38864e-21)
(0.00547854 9.05669e-05 -1.48921e-21)
(0.00538675 0.000104521 1.52843e-21)
(0.00528032 0.000118552 5.4533e-23)
(0.00516003 0.000132836 2.04612e-21)
(0.00502666 0.000147746 5.78663e-23)
(0.00488132 0.000164037 -4.6743e-21)
(0.00472651 0.00018274 -3.1044e-22)
(0.00456646 0.000210316 2.67263e-21)
(0.0043747 0.000264608 3.18837e-21)
(0.0041198 0.00032846 1.01136e-20)
(0.00379356 0.000356256 2.1924e-20)
(0.0034238 0.00031446 1.61412e-20)
(0.00304089 0.000160469 1.8168e-20)
(0.00270361 -0.000111008 -3.932e-21)
(0.00238346 -0.000495391 -1.52542e-20)
(0.00207349 -0.000954583 5.19825e-21)
(0.0018237 -0.0014044 1.55456e-20)
(0.00166335 -0.00178267 2.13306e-20)
(0.00157828 -0.00206701 2.28185e-20)
(0.00155845 -0.00224792 0)
(0.00160027 -0.00232423 4.62556e-20)
(0.00170162 -0.00230169 -2.30486e-20)
(0.00184903 -0.00219089 2.39939e-20)
(0.00203783 -0.00200452 -2.34937e-20)
(0.00226079 -0.00175985 0)
(0.00250821 -0.00147624 -1.76126e-21)
(0.002771 -0.00117395 -1.99824e-20)
(0.00304359 -0.000872689 1.91103e-20)
(0.00333226 -0.000587044 -2.14777e-21)
(0.00363177 -0.000338113 -1.58661e-20)
(0.00396277 -0.000137945 3.30573e-21)
(0.00433818 -1.64891e-06 -1.37112e-20)
(0.00479064 5.43253e-05 0)
(0.00533173 1.0326e-05 -4.79519e-21)
(0.00597621 -0.000160072 2.22712e-21)
(0.00668282 -0.00046853 2.10407e-22)
(0.00735604 -0.000893345 3.57377e-23)
(0.0078973 -0.00139731 1.01367e-21)
(0.00816976 -0.00190594 4.02966e-21)
(0.0081553 -0.00230703 5.67939e-21)
(0.00791418 -0.00256992 8.98784e-21)
(0.00754366 -0.00267636 -1.30462e-21)
(0.00711592 -0.00264893 1.2925e-21)
(0.00667159 -0.00252817 0)
(0.00626504 -0.00235349 0)
(0.00591199 -0.00216265 2.72392e-20)
(0.00561784 -0.00197292 -1.33403e-20)
(0.00537452 -0.00179607 -1.76871e-21)
(0.00517762 -0.0016373 1.71327e-20)
(0.0050205 -0.00149733 1.17466e-20)
(0.00489541 -0.00137377 1.57665e-20)
(0.00479506 -0.00126365 -8.14021e-22)
(0.00471389 -0.00116415 -8.45335e-22)
(0.00464759 -0.00107278 -1.31753e-20)
(0.00459645 -0.000989038 1.14872e-20)
(0.00455763 -0.00091054 6.67786e-22)
(0.00452812 -0.000835252 9.23334e-21)
(0.00450666 -0.000761693 -8.07668e-21)
(0.00450015 -0.00069119 0)
(0.00450449 -0.000619682 0)
(0.00452491 -0.000547244 0)
(0.00456139 -0.000469332 -1.97999e-21)
(0.004625 -0.000383739 3.47918e-23)
(0.00472102 -0.000281875 1.58827e-22)
(0.00484783 -0.00015229 -1.71717e-22)
(0.00500679 1.86668e-05 3.86564e-22)
(0.00519043 0.000243052 -7.43089e-21)
(0.00537495 0.000521818 5.90936e-22)
(0.00553974 0.000844244 -4.76745e-23)
(0.00567211 0.001185 -1.12875e-20)
(0.00576105 0.00151695 1.32678e-20)
(0.005816 0.00181261 -1.42362e-20)
(0.00584198 0.00205621 1.50998e-20)
(0.00586008 0.00224822 -1.43714e-20)
(0.00589535 0.00239995 -1.58385e-20)
(0.005959 0.00253099 1.70303e-20)
(0.00606223 0.00266387 1.67986e-20)
(0.00620821 0.00281555 0)
(0.00639134 0.00299262 -1.58628e-20)
(0.00660003 0.00318955 1.69876e-20)
(0.00681931 0.00339129 -4.8557e-22)
(0.00703684 0.00358184 2.0436e-21)
(0.00724627 0.00373302 0)
(0.00745159 0.00382355 -2.73286e-20)
(0.00765962 0.00384837 -2.59642e-20)
(0.00787236 0.00380274 -1.05087e-20)
(0.00810623 0.00369051 -8.61166e-21)
(0.00838389 0.00350855 -9.33246e-21)
(0.00871048 0.00324877 1.41997e-20)
(0.00905631 0.00291954 -3.74012e-22)
(0.00942856 0.00244469 3.7855e-21)
(0.00976798 0.00185615 -1.4745e-22)
(0.0100508 0.00114315 -2.43145e-22)
(0.010191 0.000331434 -1.19435e-22)
(0.0101486 -0.000498516 -1.09826e-21)
(0.00992349 -0.00126699 -2.33635e-22)
(0.00948825 -0.00190761 2.31991e-22)
(0.00894479 -0.00235388 0)
(0.00835529 -0.0026089 1.20051e-20)
(0.00779507 -0.0027057 4.03771e-22)
(0.00726198 -0.00267819 -1.26715e-21)
(0.00678835 -0.00256848 -1.41119e-20)
(0.00638233 -0.00241577 1.55409e-20)
(0.00603366 -0.00224212 1.45715e-20)
(0.00573742 -0.00206614 3.09995e-20)
(0.00549373 -0.00189975 3.11721e-20)
(0.00529631 -0.00174817 1.41614e-20)
(0.00513702 -0.00161202 1.92257e-21)
(0.0050084 -0.00148993 1.44663e-20)
(0.00490411 -0.00137958 -2.89971e-20)
(0.00482028 -0.00127924 3.39199e-21)
(0.00475328 -0.00118692 9.38437e-21)
(0.00469968 -0.00110038 0)
(0.00465718 -0.00101788 0)
(0.00462323 -0.000937235 -6.78721e-22)
(0.00460334 -0.000860001 -2.11021e-21)
(0.00459476 -0.000783355 -5.35776e-21)
(0.0045929 -0.000703701 -1.39123e-21)
(0.00461022 -0.00062382 3.78176e-22)
(0.00464074 -0.00053733 1.15117e-21)
(0.0046955 -0.000443998 -6.8939e-22)
(0.00478031 -0.000338404 7.38958e-24)
(0.00489682 -0.000210867 0)
(0.0050493 -4.39937e-05 -1.22814e-21)
(0.00523443 0.000175449 1.22256e-21)
(0.00543079 0.000453018 -3.64017e-21)
(0.00561496 0.000782113 0)
(0.00577083 0.00114187 0)
(0.0058875 0.0015028 0)
(0.00596228 0.00183595 0)
(0.00600505 0.00212293 -2.90464e-20)
(0.00604028 0.00235656 -6.25322e-21)
(0.00608191 0.00254576 -3.38915e-21)
(0.00615335 0.00271213 3.46192e-21)
(0.00627787 0.00288272 1.95371e-20)
(0.00647902 0.00308156 -6.12767e-21)
(0.00677597 0.00331642 -1.40887e-20)
(0.00719159 0.00356952 -2.50148e-22)
(0.00777825 0.00377122 9.21514e-21)
(0.00858136 0.00385075 -2.07888e-21)
(0.00950029 0.00369521 4.60721e-22)
(0.00989649 0.00340423 7.52626e-21)
(0.0101265 0.00303848 -5.89816e-21)
(0.0103336 0.00257491 0)
(0.010401 0.00203889 0)
(0.0102968 0.00146055 -6.58606e-22)
(0.010007 0.000903648 -4.75856e-22)
(0.00959886 0.000482692 4.44234e-22)
(0.00925217 0.000251858 -6.96866e-24)
(0.00903968 0.000132892 4.71589e-22)
(0.00891359 7.26152e-05 -4.6467e-22)
(0.00882858 4.55143e-05 -2.11831e-23)
(0.00876279 3.67373e-05 -4.5578e-22)
(0.00870302 3.71405e-05 6.04631e-24)
(0.00864088 4.16577e-05 2.36938e-22)
(0.00857217 4.74718e-05 2.04784e-22)
(0.00849558 5.29251e-05 2.27165e-22)
(0.00841192 5.7368e-05 -2.26685e-22)
(0.00832241 6.05569e-05 7.81159e-24)
(0.0082284 6.27292e-05 -2.60789e-22)
(0.00813087 6.4452e-05 2.69264e-22)
(0.00802991 6.64061e-05 8.68651e-24)
(0.00792464 6.92042e-05 2.7697e-22)
(0.00781384 7.33523e-05 -3.34201e-22)
(0.00769544 7.94317e-05 3.43495e-22)
(0.00756591 8.82651e-05 -3.76836e-22)
(0.00742299 0.000100939 1.60329e-22)
(0.00725899 0.000119457 -2.08524e-22)
(0.00706565 0.000147424 1.38449e-23)
(0.00682951 0.00019056 -4.43692e-23)
(0.0065234 0.000258699 -2.7331e-22)
(0.00611123 0.000369464 2.92372e-22)
(0.00552881 0.000554431 -6.03075e-23)
(0.00467808 0.00087024 -2.29228e-23)
(0.00340522 0.00138881 8.03399e-23)
(0.00165477 0.00206723 0)
(0.000265702 0.00195785 -1.08838e-22)
(-0.000112312 -0.00116699 0)
(-0.000279012 -0.00170864 1.2059e-22)
(4.21248e-05 -0.00166037 -6.07091e-23)
(0.000537906 -0.00145461 -5.9738e-23)
(0.00107469 -0.00122265 1.23439e-22)
(0.00159543 -0.00101032 -2.37513e-22)
(0.00207449 -0.000832176 2.35337e-22)
(0.0025024 -0.000687154 -5.79399e-23)
(0.00287825 -0.000569521 -5.62184e-23)
(0.00320499 -0.000472913 -1.60395e-22)
(0.00348669 -0.000391995 -5.41207e-23)
(0.00372717 -0.00032345 -1.57678e-22)
(0.00393016 -0.000264297 4.29072e-22)
(0.00409862 -0.000211845 -9.69801e-22)
(0.00423544 -0.000164506 3.7907e-22)
(0.00434295 -0.000121131 -5.2443e-22)
(0.00442314 -8.07258e-05 2.87508e-22)
(0.00447753 -4.26544e-05 -1.86561e-22)
(0.00450744 -6.36475e-06 -1.16345e-21)
(0.00451405 2.85271e-05 1.02229e-21)
(0.00449844 6.23132e-05 -7.64277e-23)
(0.00446162 9.54069e-05 -2.43042e-22)
(0.00440448 0.000127709 1.46813e-21)
(0.00432802 0.000159148 -1.56078e-21)
(0.00423333 0.000189677 -1.73073e-21)
(0.00412178 0.00021922 1.39181e-21)
(0.00399506 0.000247688 2.05373e-21)
(0.00385524 0.000275027 -1.91636e-21)
(0.00370473 0.000301219 0)
(0.0035502 0.000326054 0)
(0.0034019 0.000351806 0)
(0.00320309 0.000386194 0)
(0.00291598 0.000406182 -1.33162e-20)
(0.0025619 0.000370763 -1.83008e-20)
(0.00219491 0.000238874 1.93808e-20)
(0.00185424 -2.00144e-05 -3.6996e-21)
(0.00158434 -0.000407914 2.31701e-20)
(0.00134572 -0.00091034 -4.93555e-21)
(0.00112932 -0.001459 -1.99891e-20)
(0.000981157 -0.00197057 4.16467e-21)
(0.000914083 -0.00239813 -4.26163e-20)
(0.000908903 -0.00272105 0)
(0.00096233 -0.00292822 2.08951e-20)
(0.00107424 -0.00301838 2.0742e-20)
(0.00123126 -0.00299821 -2.61635e-21)
(0.00142906 -0.00287848 -1.63154e-20)
(0.00166043 -0.00267428 3.7764e-20)
(0.00191435 -0.00240554 1.62428e-20)
(0.00217972 -0.00209441 2.9514e-21)
(0.00244706 -0.00176437 -1.47194e-22)
(0.00271155 -0.00143818 -5.70038e-21)
(0.00297836 -0.00113433 3.70676e-21)
(0.00324385 -0.000875175 1.32306e-21)
(0.00352653 -0.000673622 -2.01106e-22)
(0.00383795 -0.000544036 -1.10449e-20)
(0.00420873 -0.000496042 4.05873e-21)
(0.00465688 -0.000542074 4.03242e-21)
(0.00521798 -0.000690022 -2.00482e-21)
(0.00591063 -0.000943832 -2.11325e-22)
(0.00671153 -0.00130508 0)
(0.00755569 -0.00176267 1.76492e-22)
(0.00828845 -0.00229024 -1.70183e-22)
(0.00884353 -0.00280938 -8.20682e-22)
(0.00913234 -0.00326152 -5.91791e-21)
(0.00911227 -0.0035737 6.87624e-21)
(0.00888908 -0.00372282 -8.28862e-21)
(0.00849882 -0.00372498 0)
(0.00804084 -0.00360579 0)
(0.0075659 -0.0034147 -2.38519e-20)
(0.00712221 -0.00318244 2.48568e-20)
(0.00672455 -0.00293895 0)
(0.00638381 -0.00270268 -1.17548e-20)
(0.00610008 -0.00248392 -9.05119e-22)
(0.00586862 -0.00228514 1.06535e-20)
(0.00568125 -0.00210537 -1.34365e-20)
(0.00552989 -0.00194212 -1.07706e-20)
(0.00540705 -0.00179236 2.31918e-20)
(0.00531065 -0.00165478 -6.79536e-22)
(0.00523645 -0.00152608 -5.74672e-22)
(0.00518009 -0.00140334 -1.653e-20)
(0.00513893 -0.00128446 1.48823e-20)
(0.00511937 -0.0011698 1.77224e-22)
(0.0051174 -0.00105439 -4.27726e-23)
(0.00513823 -0.000937282 -1.31331e-22)
(0.00518147 -0.000812506 1.92745e-21)
(0.00525665 -0.000676192 0)
(0.00536645 -0.000517206 3.66477e-22)
(0.00550482 -0.000322111 1.3092e-23)
(0.00566561 -7.6136e-05 8.44413e-22)
(0.00583379 0.000230313 6.50471e-21)
(0.00598567 0.000593783 4.63825e-22)
(0.00610424 0.000996819 1.91693e-20)
(0.00618613 0.00140947 1.11856e-20)
(0.00623182 0.00180071 -2.39577e-20)
(0.0062596 0.00214297 -2.40846e-23)
(0.00628483 0.00242379 1.40993e-20)
(0.0063295 0.00264615 2.86201e-20)
(0.00641405 0.00282599 1.5242e-20)
(0.00654379 0.00298793 0)
(0.00671892 0.00315621 -1.46584e-20)
(0.00693092 0.00334661 0)
(0.00716482 0.00356196 1.5672e-20)
(0.00740414 0.00379181 -2.25868e-22)
(0.00763444 0.00401621 -1.33469e-20)
(0.00784849 0.00421032 1.43681e-20)
(0.00804644 0.00434163 0)
(0.00823598 0.0043938 2.3997e-20)
(0.00842988 0.00437687 1.16825e-20)
(0.00863787 0.00428999 1.36058e-21)
(0.00887202 0.00410482 9.19507e-21)
(0.00913634 0.00382889 0)
(0.00943489 0.00346273 -6.18188e-21)
(0.00974439 0.00300812 0)
(0.0100687 0.00244439 2.42056e-21)
(0.0103665 0.00178579 -1.07377e-22)
(0.0106274 0.0010323 0)
(0.0108196 0.000205097 0)
(0.0109273 -0.000645545 1.08747e-21)
(0.0109318 -0.00147542 0)
(0.0108107 -0.00224676 -2.34011e-22)
(0.0105635 -0.00288821 5.06549e-22)
(0.0101865 -0.00336612 -2.72689e-22)
(0.00972758 -0.00366809 0)
(0.00921153 -0.00380255 0)
(0.00868158 -0.00379217 -1.24636e-20)
(0.00816606 -0.0036804 1.39832e-20)
(0.00768105 -0.00349875 -2.78701e-20)
(0.00723745 -0.00328167 -1.44535e-20)
(0.00684795 -0.00305418 -1.98161e-21)
(0.00651552 -0.0028328 -1.27045e-20)
(0.00623794 -0.0026254 1.73281e-21)
(0.00600958 -0.00243473 -1.42487e-20)
(0.00582309 -0.00226018 -2.45853e-21)
(0.00567233 -0.00210017 6.59201e-23)
(0.00555173 -0.00195255 -2.16348e-21)
(0.00545564 -0.00181425 2.9403e-21)
(0.00538011 -0.00168283 -1.01957e-20)
(0.00532092 -0.00155544 -1.90214e-20)
(0.00528257 -0.00143265 0)
(0.00526299 -0.00131097 7.36145e-21)
(0.0052569 -0.00118617 6.77845e-21)
(0.00527649 -0.00105949 -1.24049e-21)
(0.00531642 -0.000923229 -2.41344e-21)
(0.00538637 -0.000774359 -5.38213e-22)
(0.0054901 -0.000603667 9.45924e-23)
(0.00562399 -0.000398142 -6.89025e-23)
(0.00578456 -0.000142627 -2.13165e-22)
(0.00596057 0.000175346 3.9345e-21)
(0.0061286 0.000556318 3.58776e-21)
(0.00626872 0.000985436 1.04643e-20)
(0.00637277 0.00143355 -4.78541e-21)
(0.00644218 0.00186634 2.54017e-21)
(0.00648816 0.00225471 1.10208e-20)
(0.00653007 0.00258241 2.39684e-20)
(0.00659589 0.00284865 1.28301e-20)
(0.00670388 0.00307101 0)
(0.00687499 0.00327608 1.20582e-20)
(0.00712708 0.00348984 -3.48133e-20)
(0.00747636 0.00372629 -1.65076e-21)
(0.00793257 0.00397412 0)
(0.00849512 0.00418358 -9.48672e-21)
(0.00915624 0.0042683 0)
(0.00984078 0.0041829 0)
(0.0104736 0.00388395 -4.27275e-21)
(0.0107377 0.00351374 -7.17952e-21)
(0.0108972 0.00311633 0)
(0.0110357 0.00265452 0)
(0.0110436 0.00213496 1.54256e-21)
(0.0109533 0.00159302 -1.23411e-21)
(0.0107392 0.00108137 7.18991e-23)
(0.010446 0.000675173 6.33756e-23)
(0.0101652 0.000417641 4.93851e-22)
(0.0099466 0.000262606 -1.44702e-23)
(0.00978111 0.000171643 2.9023e-23)
(0.0096516 0.000124727 4.24655e-23)
(0.0095409 0.000106823 4.47868e-22)
(0.00943755 0.000106338 2.80801e-23)
(0.00933333 0.000115022 -4.61882e-22)
(0.00922339 0.000127196 1.41315e-23)
(0.00910364 0.000139337 -2.34665e-22)
(0.00897618 0.000149657 2.49685e-22)
(0.00884181 0.00015773 -1.52851e-23)
(0.00870123 0.00016404 0)
(0.00855493 0.000169662 -1.66693e-23)
(0.00840259 0.000175935 -3.54026e-23)
(0.00824314 0.00018412 3.25667e-22)
(0.00807463 0.000195363 -2.87773e-22)
(0.00789418 0.000210941 3.46518e-22)
(0.00769822 0.000232383 -6.94127e-22)
(0.0074829 0.000262256 5.91185e-22)
(0.00724001 0.000304873 -1.9784e-22)
(0.00696093 0.000367459 -8.22568e-23)
(0.00663058 0.000462906 2.97183e-23)
(0.00622136 0.000612736 0)
(0.00569016 0.000853331 -1.06526e-22)
(0.00496835 0.00124293 4.02774e-23)
(0.00396783 0.00185451 0)
(0.00261518 0.00269804 -5.28492e-23)
(0.00100201 0.00342135 1.12101e-22)
(-4.88957e-06 0.00251242 1.86356e-22)
(-0.000100264 -0.000882957 1.09803e-22)
(-0.000401779 -0.00165008 0)
(-0.000411684 -0.00184024 0)
(-0.00024134 -0.00178018 1.14913e-22)
(4.29639e-05 -0.0016088 -1.14248e-22)
(0.000377612 -0.00140996 -2.28962e-22)
(0.000724104 -0.0012194 2.27603e-22)
(0.00106075 -0.00104895 -1.07555e-22)
(0.0013759 -0.000900113 0)
(0.00166381 -0.000770559 1.0864e-22)
(0.0019221 -0.000657027 0)
(0.00215007 -0.000556717 3.94199e-24)
(0.00234789 -0.000467032 0)
(0.00251625 -0.000385628 1.09586e-22)
(0.00265621 -0.000310799 0)
(0.00276883 -0.00024121 0)
(0.00285518 -0.00017576 1.21378e-22)
(0.00291621 -0.000113663 6.47756e-22)
(0.00295283 -5.42054e-05 -1.62473e-21)
(0.00296596 3.07077e-06 1.10357e-21)
(0.0029565 5.85103e-05 0)
(0.00292549 0.000112274 -1.20293e-21)
(0.00287398 0.000164386 1.36478e-21)
(0.00280321 0.000214664 1.88971e-22)
(0.0027147 0.000262781 0)
(0.00261037 0.000308267 1.90131e-21)
(0.00249272 0.000350505 -1.89105e-21)
(0.00236489 0.000388676 0)
(0.00223065 0.000421509 -2.44903e-21)
(0.00209883 0.000447349 2.4467e-21)
(0.00198292 0.000464862 -2.90691e-21)
(0.0018258 0.000467478 5.8927e-21)
(0.00159382 0.0004352 1.02145e-20)
(0.00132139 0.000335534 3.89924e-21)
(0.00106721 0.000135183 -6.94578e-22)
(0.000861948 -0.000190189 7.81942e-22)
(0.000730208 -0.000637831 1.29928e-20)
(0.000626356 -0.00118185 -1.22977e-22)
(0.000546639 -0.00174522 -4.03313e-21)
(0.000525867 -0.00226161 8.94048e-21)
(0.000562581 -0.00269846 -3.94284e-21)
(0.000641742 -0.00303426 5.12299e-21)
(0.000764171 -0.00325571 -4.07844e-20)
(0.000929369 -0.00336071 -1.58383e-20)
(0.001129 -0.00335457 -4.99148e-21)
(0.00135556 -0.0032472 0)
(0.00160009 -0.00305356 -1.50516e-21)
(0.00185041 -0.00279377 -3.57106e-20)
(0.00209688 -0.00249057 -1.56625e-20)
(0.00233196 -0.00216844 -2.05088e-21)
(0.00255275 -0.00185117 -2.94045e-20)
(0.0027643 -0.00155883 0)
(0.00296406 -0.001313 1.41655e-20)
(0.00316848 -0.00112666 -1.82614e-22)
(0.00338536 -0.00101245 -1.97035e-22)
(0.00363916 -0.000975816 -4.97216e-21)
(0.00394557 -0.0010233 -2.43139e-21)
(0.00434094 -0.00115213 2.95518e-21)
(0.00486386 -0.00135902 -5.19885e-22)
(0.005537 -0.00164382 -1.38796e-22)
(0.00635575 -0.00200196 4.7605e-22)
(0.00726972 -0.0024367 -6.90069e-23)
(0.00816098 -0.00292282 -4.20102e-21)
(0.00889748 -0.0034156 5.85523e-21)
(0.0094054 -0.00384667 -1.15424e-20)
(0.00967915 -0.00417337 -3.99748e-22)
(0.00965074 -0.00435988 8.95423e-21)
(0.00943431 -0.0043908 1.25387e-21)
(0.0090579 -0.00430766 1.10953e-20)
(0.00861686 -0.004133 -1.4273e-20)
(0.00815483 -0.00390323 -9.46387e-21)
(0.00771577 -0.00364729 0)
(0.00732004 -0.00338834 -1.21322e-20)
(0.0069789 -0.00313853 -1.05763e-20)
(0.00669261 -0.00290402 -1.44027e-21)
(0.00645653 -0.00268627 2.20603e-20)
(0.00626314 -0.00248407 -1.20844e-20)
(0.00610871 -0.00229677 1.27511e-21)
(0.00598744 -0.00212104 -8.88501e-21)
(0.00589345 -0.00195347 8.38346e-21)
(0.00582275 -0.00179148 -7.32083e-21)
(0.00578009 -0.00163439 5.87069e-21)
(0.00576062 -0.00147655 -4.62362e-21)
(0.00576851 -0.0013158 0)
(0.0058021 -0.00114487 -3.28179e-23)
(0.00586796 -0.000957986 6.83043e-23)
(0.00596467 -0.000742212 -3.99632e-22)
(0.00608143 -0.000483381 0)
(0.00620636 -0.000168662 -1.53209e-21)
(0.00632197 0.000206638 -3.27143e-21)
(0.00640958 0.000632579 9.49282e-22)
(0.00646082 0.00108565 -1.03672e-20)
(0.00648338 0.00153324 -9.22934e-21)
(0.00648884 0.00194408 1.15827e-20)
(0.00650192 0.00229416 7.95614e-22)
(0.00654145 0.00257591 -1.24204e-20)
(0.00662417 0.00279686 -1.3784e-20)
(0.00675988 0.0029775 -8.48197e-22)
(0.00694235 0.00314435 -1.3218e-20)
(0.00715907 0.00332044 2.78144e-20)
(0.00739199 0.00351818 0)
(0.00762203 0.00373611 0)
(0.00783461 0.00395993 0)
(0.00802214 0.00416716 1.3134e-20)
(0.00818611 0.00433229 7.62319e-22)
(0.00833549 0.00443514 -3.71713e-22)
(0.0084796 0.00443964 -1.2982e-21)
(0.0086331 0.00436941 9.02623e-21)
(0.00880699 0.00420536 9.14825e-21)
(0.00900642 0.00395445 0)
(0.00922735 0.00361951 0)
(0.00946971 0.00320386 0)
(0.00971183 0.00271234 0)
(0.00995659 0.00213959 -1.3163e-21)
(0.0101791 0.00149651 -3.92309e-22)
(0.0103787 0.000790601 0)
(0.0105527 3.63916e-05 5.16252e-23)
(0.010701 -0.000741752 0)
(0.010821 -0.00152035 0)
(0.0108924 -0.00228339 0)
(0.0109081 -0.0029832 0)
(0.0108551 -0.00358315 2.66849e-22)
(0.0107076 -0.00404749 -8.34702e-21)
(0.0104497 -0.0043663 -2.95314e-22)
(0.0100959 -0.00450972 1.13928e-20)
(0.00967009 -0.00452574 -1.2772e-20)
(0.00920329 -0.0044253 1.32851e-20)
(0.00872207 -0.00424593 0)
(0.00825735 -0.00401942 -1.3159e-20)
(0.00782804 -0.00377354 1.16575e-20)
(0.00744708 -0.00352626 -9.11839e-21)
(0.00711966 -0.00328817 1.21336e-20)
(0.00684455 -0.00306375 -7.48907e-22)
(0.00661783 -0.00285389 -1.44803e-21)
(0.00643418 -0.00265795 7.35618e-22)
(0.00628673 -0.00247313 7.69913e-21)
(0.00617019 -0.00229681 3.14478e-21)
(0.00607873 -0.00212583 9.0838e-21)
(0.00601483 -0.0019597 1.79403e-21)
(0.00597592 -0.00179443 -8.08352e-21)
(0.0059559 -0.00162526 -1.05083e-20)
(0.00596513 -0.00145165 -4.477e-21)
(0.00599758 -0.00126509 7.76848e-22)
(0.00605976 -0.00106008 3.63096e-22)
(0.00615189 -0.000825289 3.45795e-22)
(0.00626561 -0.000546667 -2.87761e-22)
(0.00639165 -0.000210283 -1.93303e-23)
(0.00651482 0.000190755 -5.3279e-21)
(0.00661587 0.000648279 0)
(0.00668443 0.00113907 -1.02775e-20)
(0.00672448 0.00162892 -6.61422e-21)
(0.0067505 0.00208312 0)
(0.00678406 0.00247665 -8.27577e-21)
(0.00684887 0.00279962 -1.42603e-20)
(0.00697006 0.00305914 8.07374e-21)
(0.00716078 0.00327753 -8.11862e-21)
(0.00743143 0.00348025 -1.47465e-20)
(0.00778663 0.00368506 1.44426e-20)
(0.00822579 0.00389127 1.11221e-20)
(0.00873873 0.00407365 -1.12037e-20)
(0.0092966 0.00418712 1.16315e-20)
(0.00984962 0.00414035 -6.82127e-21)
(0.0102939 0.003928 -1.43549e-21)
(0.0106383 0.00358801 7.15635e-21)
(0.0107648 0.00324135 0)
(0.0108354 0.0028864 -4.04732e-21)
(0.0108765 0.00248007 -8.321e-22)
(0.0108455 0.00203379 -1.42435e-21)
(0.0107388 0.00158221 1.38671e-21)
(0.0105751 0.00116315 -5.60566e-22)
(0.0103741 0.000813656 5.56871e-22)
(0.0101568 0.000564167 0)
(0.00995217 0.000396968 3.02881e-23)
(0.00976988 0.000290587 4.33931e-22)
(0.00960695 0.000231503 -4.92477e-22)
(0.00945713 0.000207329 -4.50726e-22)
(0.00931389 0.000206037 3.9495e-22)
(0.0091712 0.000217813 -2.26858e-22)
(0.00902482 0.000235482 2.26948e-22)
(0.0088722 0.000253963 0)
(0.00871249 0.00027034 -2.73924e-22)
(0.00854553 0.000284017 2.44192e-22)
(0.00837133 0.000295787 -2.97648e-22)
(0.00818959 0.000307232 2.65595e-22)
(0.00799933 0.000320271 3.5685e-23)
(0.00779887 0.000336802 -3.78044e-23)
(0.00758576 0.000358654 0)
(0.00735683 0.000387717 0)
(0.00710825 0.000426296 -4.52761e-23)
(0.00683535 0.00047829 0)
(0.0065316 0.000550141 0)
(0.00618791 0.000652877 1.10538e-22)
(0.00578964 0.000806495 0)
(0.00531253 0.00104491 0)
(0.00471723 0.00142259 2.87412e-22)
(0.00394733 0.00201414 -1.47436e-22)
(0.00294769 0.0028753 0)
(0.00172632 0.00389059 0)
(0.000473456 0.00440207 -1.12706e-23)
(-7.74501e-05 0.00272189 -1.18188e-22)
(-7.46371e-05 -0.000647792 -2.92556e-23)
(-0.000379538 -0.00145789 1.41691e-22)
(-0.000540929 -0.00181439 1.12209e-22)
(-0.000566532 -0.00188194 -2.25818e-22)
(-0.000482839 -0.00180136 4.39157e-22)
(-0.000320948 -0.00165268 -2.19528e-22)
(-0.000118728 -0.00148399 0)
(0.000100717 -0.00131717 1.09382e-22)
(0.000322076 -0.00116071 0)
(0.000535521 -0.00101679 5.18346e-22)
(0.000734863 -0.000884976 -4.14692e-22)
(0.000916247 -0.000764019 1.06013e-22)
(0.00107732 -0.0006524 4.25321e-22)
(0.00121678 -0.000548582 -3.1851e-22)
(0.00133405 -0.000451247 1.08221e-22)
(0.00142895 -0.000359273 0)
(0.00150158 -0.000271713 1.17495e-22)
(0.00155221 -0.000187821 -3.96305e-22)
(0.00158122 -0.000106992 1.6263e-21)
(0.00158915 -2.88232e-05 -1.10535e-21)
(0.00157669 4.69005e-05 -1.1232e-21)