/*--------------------------------*- C++ -*----------------------------------*\
| =========                 |                                                 |
| \\      /  F ield         | OpenFOAM: The Open Source CFD Toolbox           |
|  \\    /   O peration     | Version:  2506                                  |
|   \\  /    A nd           | Website:  www.openfoam.com                      |
|    \\/     M anipulation  |                                                 |
\*---------------------------------------------------------------------------*/
FoamFile
{
    version     2.0;
    format      ascii;
    arch        "LSB;label=32;scalar=64";
    class       volVectorField;
    location    "3.35";
    object      vorticityField;
}
// * * * * * * * * * * * * * * * * * * * * * * * * * * * * * * * * * * * * * //

dimensions      [0 0 -1 0 0 0 0];

internalField   nonuniform List<vector> 
4000
(
(1.15726e-19 1.35976e-19 9.99994)
(-6.83743e-20 2.96255e-20 10.4798)
(1.28739e-19 3.96061e-19 6.9824)
(-2.87434e-19 4.74529e-19 3.58814)
(8.23658e-19 5.27688e-19 1.11854)
(-1.22722e-20 -3.37827e-21 -0.75114)
(-4.30976e-19 7.57342e-19 -2.22356)
(1.42303e-19 7.14022e-19 -3.38077)
(1.06722e-19 -4.51184e-20 -4.29379)
(6.04184e-20 7.29387e-19 -5.02586)
(-5.53974e-19 1.34142e-17 -5.60806)
(2.40819e-18 -2.79792e-17 -6.06539)
(-1.5963e-18 1.37439e-17 -6.4274)
(1.57699e-18 -1.40486e-17 -6.70286)
(-2.3626e-18 1.47829e-17 -6.90374)
(1.78694e-18 9.91437e-19 -7.038)
(-1.51967e-18 1.3201e-17 -7.11201)
(1.96632e-18 -1.46843e-17 -7.13052)
(1.10189e-18 1.67449e-18 -7.09722)
(-1.84466e-18 -6.0199e-20 -7.01533)
(1.42175e-19 -6.41073e-20 -6.88844)
(2.58467e-18 -9.28584e-19 -6.71766)
(-2.42138e-18 -8.03477e-19 -6.50372)
(-2.6606e-18 -2.39708e-20 -6.24876)
(2.82701e-18 -9.06799e-19 -5.95477)
(1.88583e-19 -7.29081e-19 -5.62336)
(3.59782e-18 1.04764e-19 -5.25578)
(-4.76143e-19 3.94948e-18 -4.85238)
(-1.16171e-17 1.96502e-17 -4.41172)
(4.23425e-18 -2.83281e-17 -3.92349)
(5.61791e-18 -6.00069e-18 -3.3886)
(1.33312e-17 -2.17752e-17 -2.83711)
(-2.66452e-18 7.33412e-17 -2.29511)
(3.61411e-17 -1.35862e-18 -1.70775)
(9.33694e-18 1.13319e-16 -1.00929)
(-8.42522e-17 2.64454e-16 -0.109671)
(2.11709e-17 -1.54892e-16 0.930772)
(-1.05431e-17 -4.96895e-17 2.34602)
(1.80017e-18 4.74808e-17 4.33082)
(2.47014e-17 2.91834e-17 6.52561)
(2.84483e-17 1.06685e-16 8.62375)
(1.11425e-17 1.48277e-16 10.3872)
(2.37354e-18 -1.26359e-17 11.6785)
(1.25887e-16 1.05348e-16 12.4328)
(-5.65828e-17 -1.0228e-16 12.6135)
(7.36522e-19 1.60347e-16 12.2436)
(-3.48494e-17 -1.44728e-16 11.3329)
(4.79731e-17 -1.24024e-16 9.9683)
(3.47439e-19 -6.01925e-17 8.24285)
(-4.15056e-17 -5.56089e-17 6.27755)
(3.83501e-17 7.221e-17 4.1875)
(-4.45885e-18 -7.64979e-18 2.00824)
(-3.5788e-17 -1.58147e-17 -0.102103)
(-2.55149e-17 1.06893e-16 -2.20787)
(-3.10043e-17 -7.11763e-17 -4.33519)
(2.22375e-17 -9.3833e-17 -6.62836)
(4.08291e-19 -8.06973e-17 -9.20406)
(1.333e-18 5.0888e-17 -12.1867)
(8.33699e-19 -1.89673e-18 -15.3416)
(-2.31767e-18 -2.18849e-17 -18.3374)
(-1.30039e-17 -8.89321e-17 -20.8496)
(-2.99163e-17 -1.38348e-16 -22.4435)
(3.03067e-17 1.2503e-16 -22.7365)
(-6.36594e-17 -2.25791e-16 -22.2877)
(-6.20477e-19 -1.65781e-17 -20.9568)
(3.20993e-18 -2.80874e-18 -19.2965)
(-4.99041e-19 4.48569e-18 -17.4042)
(-1.41428e-17 5.02531e-17 -15.4697)
(-4.64117e-17 -2.85013e-16 -13.6946)
(-5.39696e-17 -1.37277e-16 -12.1106)
(1.80491e-18 -6.67244e-17 -10.724)
(5.72989e-17 7.53228e-17 -9.51506)
(3.00859e-19 -7.43313e-17 -8.47532)
(3.24666e-19 -1.48334e-16 -7.57604)
(4.95177e-17 1.49094e-16 -6.78868)
(-2.30662e-17 -1.35795e-17 -6.09094)
(-4.63103e-17 -6.33817e-17 -5.4678)
(-1.62964e-17 -1.60486e-16 -4.90673)
(2.0019e-18 -2.70423e-17 -4.4149)
(1.65404e-17 -1.59221e-17 -3.96953)
(-1.33727e-17 1.20009e-18 -3.5679)
(1.04699e-17 7.73672e-17 -3.21206)
(-3.37379e-19 2.01862e-17 -2.92564)
(-5.63964e-18 -7.58001e-17 -2.68183)
(-2.01093e-19 6.48388e-17 -2.51309)
(-4.80334e-21 3.36996e-18 -2.42321)
(2.48875e-19 3.84768e-19 -2.46168)
(-7.41321e-19 6.03289e-18 -2.62586)
(-8.91968e-19 6.11892e-18 -2.9654)
(-5.60066e-18 -4.43002e-17 -3.54262)
(4.33066e-19 5.6474e-18 -4.35105)
(-1.35504e-17 3.01876e-17 -5.42024)
(-1.70336e-17 -1.82157e-17 -6.66768)
(2.13857e-17 4.95736e-17 -8.07639)
(-4.99889e-17 8.13071e-17 -9.48749)
(-4.10097e-17 1.48025e-16 -10.8264)
(-5.06437e-17 1.2363e-17 -12.0961)
(-3.27692e-17 -2.15934e-17 -13.2453)
(-5.55609e-17 2.04681e-16 -14.3571)
(-6.39859e-17 1.39112e-16 -15.5179)
(1.48563e-18 -5.95274e-19 -16.8238)
(-6.51324e-17 1.33683e-16 -18.3343)
(-1.13557e-16 2.46645e-16 -20.0339)
(-5.76362e-18 -4.19818e-17 -21.8493)
(-1.2202e-16 1.87436e-16 -23.6752)
(-2.14972e-18 -7.41672e-17 -25.3668)
(7.42845e-17 -3.04926e-16 -26.8234)
(7.16557e-17 -2.34692e-16 -27.9548)
(-1.67737e-17 -5.06535e-18 -28.6829)
(-2.17754e-17 -3.66047e-17 -29.1642)
(9.60214e-17 -2.47606e-16 -29.562)
(-6.79865e-17 2.95641e-16 -29.5955)
(-9.43684e-19 -1.18956e-18 -29.7879)
(-7.0637e-17 3.77265e-16 -29.6098)
(-2.00173e-18 2.52649e-17 -29.4948)
(-1.42882e-17 1.96342e-16 -29.2444)
(-3.71035e-19 -1.15631e-18 -28.6294)
(4.94086e-19 2.67038e-17 -27.6972)
(-1.83144e-18 -3.46575e-18 -26.6452)
(2.32418e-19 -7.74406e-19 -25.2823)
(2.59392e-18 2.78723e-17 -23.6981)
(-6.02761e-17 -2.61123e-16 -22.0616)
(3.22141e-17 7.81991e-17 -20.3515)
(9.23889e-19 1.11063e-17 -18.6115)
(5.75179e-17 2.59027e-16 -16.8005)
(-8.14928e-17 -2.87996e-16 -15.1221)
(5.87184e-17 2.61836e-17 -13.558)
(-1.40132e-17 -1.91674e-16 -12.1103)
(2.21379e-17 -1.21233e-16 -10.8238)
(-3.6291e-17 -1.54635e-16 -9.70433)
(-1.19859e-18 -7.03679e-17 -8.72637)
(5.54968e-17 6.03165e-17 -7.86582)
(-3.15443e-17 7.73558e-17 -7.10149)
(3.46685e-17 8.48002e-17 -6.41804)
(2.01849e-17 1.58881e-17 -5.80659)
(2.60085e-18 2.46595e-17 -5.25286)
(-2.11858e-17 -1.01611e-16 -4.7468)
(2.86179e-17 7.59409e-17 -4.28108)
(-1.20623e-18 2.34385e-17 -3.86236)
(-1.03842e-17 -5.45765e-18 -3.50085)
(8.18756e-18 7.76861e-17 -3.16934)
(-1.20317e-18 -1.62955e-17 -2.89541)
(1.54875e-17 1.0163e-16 -2.68783)
(-2.00983e-19 7.84869e-18 -2.55604)
(-1.99854e-18 -5.72207e-17 -2.5487)
(1.95192e-18 -3.51437e-17 -2.66776)
(-5.09226e-18 2.91251e-17 -2.96302)
(4.27679e-18 -2.14817e-17 -3.50452)
(-5.41934e-18 4.56191e-18 -4.29428)
(-6.69304e-18 2.28528e-17 -5.35348)
(-5.30372e-18 -4.28067e-17 -6.66977)
(4.0186e-17 -1.15958e-16 -8.18639)
(-7.08069e-18 6.81285e-17 -9.76171)
(-7.71148e-18 -8.1893e-17 -11.407)
(-2.1072e-17 4.61649e-17 -12.9321)
(-2.51462e-17 -3.00391e-18 -14.3752)
(5.75361e-18 -2.53547e-18 -15.7711)
(3.905e-17 4.28737e-17 -17.262)
(-2.24059e-17 -9.51317e-17 -18.9632)
(1.17415e-16 -3.02362e-16 -21.065)
(-8.48283e-18 1.60824e-16 -23.8056)
(-1.13756e-16 2.73375e-16 -27.164)
(-9.28051e-18 2.60832e-17 -32.3362)
(-6.17147e-18 -3.92709e-17 -31.3852)
(2.94251e-17 -1.13477e-16 -31.638)
(7.24812e-17 -2.91184e-16 -31.0627)
(6.96618e-18 2.1013e-17 -30.1566)
(1.07385e-17 -5.46619e-17 -28.8764)
(1.39014e-17 -1.14121e-16 -26.8582)
(4.36638e-18 -4.34902e-17 -24.0514)
(1.15651e-18 9.37842e-19 -21.0942)
(1.34788e-20 -7.61321e-19 -19.1009)
(1.02996e-18 2.69256e-21 -18.0839)
(-9.94965e-19 -7.4524e-19 -17.5657)
(-1.41871e-19 -1.43865e-18 -17.2339)
(5.59638e-20 -3.81857e-17 -16.9812)
(-7.52124e-19 3.98709e-17 -16.7563)
(-1.08292e-19 1.77609e-17 -16.5254)
(9.12658e-19 -1.94879e-17 -16.2741)
(-2.40519e-20 1.74825e-17 -15.9998)
(5.0431e-19 -3.75916e-17 -15.7053)
(-3.65884e-19 1.84399e-17 -15.3946)
(-5.93027e-19 -3.83857e-19 -15.0725)
(5.87869e-19 -6.43066e-19 -14.7423)
(-4.64212e-20 1.67099e-19 -14.4048)
(1.25032e-18 -1.77676e-17 -14.0575)
(-1.28317e-18 1.6841e-17 -13.6965)
(1.40102e-18 -1.71505e-17 -13.3156)
(-1.42035e-18 1.67553e-17 -12.9041)
(7.32924e-19 -9.2267e-18 -12.4536)
(-7.70317e-19 8.07864e-18 -11.9419)
(4.53095e-20 -8.86638e-19 -11.3426)
(-5.18967e-20 -5.37118e-19 -10.6139)
(-5.57035e-19 -6.3834e-21 -9.67382)
(6.45487e-19 -5.38717e-19 -8.40461)
(-6.36379e-20 -7.8662e-19 -6.59038)
(5.39572e-19 -3.00789e-18 -3.87977)
(-4.4741e-19 3.64029e-18 0.492891)
(-4.50808e-21 -4.17562e-19 6.53911)
(-2.70807e-20 -1.7535e-20 8.80695)
(1.04359e-19 -1.28735e-20 -1.91474)
(5.56464e-19 -1.02978e-19 4.57901)
(-1.87514e-19 -1.28956e-19 6.53057)
(8.1519e-19 8.7779e-19 6.77127)
(-1.10722e-18 -6.4829e-18 6.42023)
(-3.00937e-19 3.26285e-19 5.86391)
(1.08968e-18 3.89733e-18 5.26695)
(-2.36492e-19 -2.35383e-18 4.68839)
(-2.46332e-19 -1.19328e-18 4.1538)
(-4.14182e-19 -1.39016e-18 3.67854)
(6.52458e-19 -3.00433e-18 3.26394)
(-2.22748e-18 -1.46307e-17 2.9057)
(1.7953e-18 1.49402e-17 2.59952)
(-2.79284e-18 -1.3941e-17 2.34085)
(1.77604e-18 2.66629e-17 2.12603)
(-1.05482e-18 -3.2743e-17 1.95133)
(1.36007e-18 1.38242e-17 1.81149)
(-9.85136e-19 -1.83463e-17 1.70593)
(-2.23866e-18 -1.46138e-17 1.6333)
(1.63431e-18 2.8797e-17 1.58901)
(3.36422e-19 -5.74931e-18 1.57165)
(-4.29801e-19 -2.68299e-17 1.57928)
(1.61085e-18 3.42743e-17 1.6102)
(-2.61468e-18 2.09937e-17 1.66227)
(-2.3472e-18 -2.92763e-17 1.73354)
(2.55013e-18 -1.53669e-18 1.8213)
(4.32021e-18 -2.54793e-17 1.92241)
(-5.02024e-18 1.35577e-17 2.03306)
(2.34148e-18 4.90843e-17 2.14829)
(-2.38062e-18 -1.26262e-17 2.25944)
(1.91411e-18 -2.88127e-17 2.37731)
(-6.68692e-18 -3.43834e-17 2.55735)
(2.96936e-18 -8.85823e-17 2.79933)
(-2.08211e-17 -1.32779e-16 3.03169)
(2.85529e-17 -6.12248e-17 3.15974)
(9.97779e-17 -6.34387e-18 3.16863)
(3.30439e-17 7.39923e-17 3.17922)
(-2.14972e-17 1.26146e-17 3.39611)
(-3.04377e-17 -1.07525e-16 3.9371)
(-1.7517e-17 -4.23283e-17 4.62364)
(-1.42716e-16 -1.39916e-16 5.38218)
(2.12337e-17 6.1996e-17 6.12711)
(4.58429e-17 -8.76081e-18 6.74957)
(-1.06597e-17 2.90365e-17 7.19678)
(1.37569e-17 8.63441e-17 7.46498)
(-8.34836e-17 -5.09014e-17 7.53065)
(1.56754e-16 2.06293e-16 7.38492)
(-2.08991e-18 -5.82555e-17 7.06566)
(-6.86137e-17 2.21096e-17 6.60539)
(-1.82073e-19 3.0467e-17 6.04722)
(-5.03768e-17 -1.61907e-16 5.42843)
(2.89441e-18 9.13925e-17 4.78276)
(2.11722e-17 1.18833e-16 4.16364)
(3.1711e-17 -1.6481e-17 3.55261)
(-2.54238e-17 1.5191e-16 2.95362)
(-9.4061e-18 -2.09167e-17 2.27098)
(-2.86327e-18 9.60647e-17 1.42923)
(-9.53651e-19 -7.24931e-17 0.216189)
(-2.43478e-18 -7.94769e-18 -1.59039)
(5.04879e-18 2.74967e-17 -4.02166)
(1.49947e-17 7.21193e-17 -6.9142)
(3.53015e-17 1.92006e-16 -9.88451)
(7.76333e-17 3.26941e-16 -12.3125)
(6.63687e-17 2.50095e-16 -14.2486)
(2.7092e-18 -2.87896e-17 -15.0555)
(-7.74184e-18 4.81758e-17 -15.1655)
(-4.00705e-19 3.31229e-18 -14.6571)
(1.14918e-17 -7.87836e-17 -13.7021)
(1.55424e-16 4.82503e-16 -12.5451)
(-1.76214e-17 -2.49856e-16 -11.3321)
(-1.17655e-18 -1.09546e-16 -10.1615)
(4.63638e-17 2.74641e-16 -9.07292)
(8.53576e-17 1.52991e-16 -8.0952)
(5.89746e-17 1.83717e-16 -7.23137)
(-2.45993e-17 1.29086e-16 -6.47106)
(-4.8456e-18 2.34531e-17 -5.79926)
(1.71046e-17 -2.77512e-16 -5.20527)
(3.87503e-17 7.44735e-17 -4.66521)
(3.89653e-19 1.5305e-17 -4.19034)
(1.572e-18 1.8446e-16 -3.76457)
(-2.20071e-18 -1.2942e-16 -3.38576)
(-9.98202e-18 -1.00509e-17 -3.03191)
(-7.28291e-20 4.84926e-20 -2.74246)
(5.50833e-18 6.98509e-19 -2.47598)
(-1.33687e-17 -1.03373e-16 -2.26654)
(3.33563e-19 -1.1297e-18 -2.08157)
(3.34532e-19 -5.36536e-18 -1.94662)
(7.07863e-19 5.52975e-18 -1.84042)
(2.80673e-18 7.21729e-18 -1.75776)
(1.48423e-18 1.06646e-16 -1.71176)
(2.30997e-18 -1.99085e-17 -1.72806)
(2.33258e-17 6.48533e-17 -1.84776)
(-1.10602e-17 1.18957e-16 -2.08988)
(2.01398e-18 -1.77481e-16 -2.49415)
(-2.89669e-17 1.79268e-16 -3.00714)
(9.22132e-17 -9.68743e-17 -3.62246)
(8.83945e-18 3.15508e-16 -4.30126)
(-4.83958e-17 1.40942e-16 -4.96929)
(9.00903e-17 -2.19442e-16 -5.63978)
(6.56065e-17 -1.24953e-16 -6.30837)
(-8.5641e-19 8.28938e-17 -6.98674)
(-4.63624e-17 2.57743e-16 -7.6858)
(1.4786e-16 -1.70214e-16 -8.39789)
(-2.95745e-17 1.83287e-17 -9.09817)
(2.22908e-17 1.0126e-16 -9.77437)
(2.42921e-18 7.54191e-17 -10.3907)
(-2.29491e-16 6.16259e-16 -10.8733)
(-2.67252e-16 5.14375e-16 -11.2098)
(-1.47149e-16 2.56854e-16 -11.4132)
(-1.09505e-16 3.01924e-16 -11.4768)
(-1.20569e-16 1.923e-16 -11.3765)
(2.09075e-16 -6.11355e-16 -11.0843)
(-4.81727e-18 4.14817e-17 -10.9527)
(9.0885e-17 -2.72633e-16 -10.809)
(-4.59105e-18 4.59866e-17 -10.8034)
(1.33815e-17 -1.30765e-16 -11.0282)
(1.44744e-18 -1.7091e-17 -11.6354)
(-4.68496e-18 -7.71351e-17 -12.5943)
(-9.66214e-19 -1.15609e-17 -13.6687)
(1.06658e-18 9.13503e-18 -14.7538)
(-4.40191e-19 -2.33252e-17 -15.4805)
(8.6589e-17 2.10141e-16 -15.8251)
(-2.72604e-17 5.84483e-17 -15.6891)
(-9.14046e-18 1.04209e-17 -15.2553)
(-1.12743e-16 -1.72828e-16 -14.444)
(1.44951e-16 3.84983e-17 -13.4387)
(8.06833e-18 2.95712e-16 -12.3449)
(1.40194e-16 3.61584e-16 -11.2166)
(1.26174e-16 4.28278e-16 -10.1205)
(3.77789e-17 2.0741e-16 -9.10795)
(1.02103e-17 1.69488e-17 -8.19487)
(1.58789e-17 3.15854e-16 -7.38029)
(-8.56901e-17 -2.88828e-16 -6.65586)
(-2.57696e-17 -2.13411e-17 -6.00707)
(3.47539e-17 1.30428e-16 -5.42678)
(7.32481e-18 1.57195e-17 -4.9047)
(1.40078e-18 -3.47423e-19 -4.43052)
(-3.1215e-17 6.80355e-17 -4.00224)
(-4.05054e-18 -1.93618e-17 -3.60303)
(-8.18138e-18 -1.01575e-16 -3.2543)
(-4.36787e-18 -3.76372e-17 -2.94605)
(-4.88231e-19 -4.76256e-18 -2.66147)
(3.46053e-18 6.8089e-17 -2.43691)
(-4.89399e-18 -4.32242e-17 -2.24302)
(3.72513e-18 6.21024e-17 -2.10101)
(-1.42681e-18 2.25848e-18 -1.98671)
(1.41033e-18 2.17745e-17 -1.89549)
(5.28466e-18 -1.89112e-17 -1.84825)
(1.05108e-18 6.26091e-17 -1.8709)
(2.11019e-17 3.97581e-18 -2.0081)
(-7.68075e-18 -4.80238e-18 -2.29382)
(-2.58647e-17 -1.90988e-17 -2.74444)
(3.14266e-17 9.10959e-17 -3.34323)
(-7.93023e-17 4.19013e-16 -4.09728)
(-5.06602e-18 7.06509e-17 -4.8844)
(-1.4837e-17 2.65219e-17 -5.71986)
(3.89356e-17 -8.95107e-17 -6.58199)
(9.81695e-17 -3.86803e-16 -7.49658)
(-5.60244e-17 2.23351e-16 -8.48368)
(-1.44133e-16 1.27357e-16 -9.59278)
(-2.11194e-17 -8.93753e-17 -10.9575)
(9.86652e-17 -1.49341e-16 -12.4672)
(-1.39338e-17 1.38066e-16 -13.4028)
(-1.22747e-17 -2.48524e-17 -11.307)
(1.01753e-16 -3.94786e-16 -11.129)
(-9.15413e-17 2.64417e-16 -11.0287)
(-3.22013e-18 -1.26279e-17 -10.7844)
(1.31614e-18 1.49067e-18 -10.4841)
(-1.15014e-17 4.72275e-17 -10.2118)
(-5.8576e-18 6.02995e-17 -9.87541)
(4.09529e-18 -5.81471e-17 -9.43125)
(1.0506e-18 7.22724e-19 -8.8507)
(7.76324e-19 -5.67174e-17 -8.25396)
(-4.43948e-19 5.70523e-17 -7.78078)
(5.16491e-20 2.49269e-18 -7.42716)
(-1.88808e-19 5.42778e-17 -7.14796)
(7.90766e-19 -2.27151e-18 -6.91168)
(-4.65506e-19 -2.86909e-17 -6.69701)
(-3.16844e-19 -2.37408e-17 -6.48897)
(2.08906e-19 -2.41644e-17 -6.27329)
(-5.29192e-19 2.49341e-17 -6.05028)
(4.49983e-19 -8.74251e-19 -5.81849)
(-2.36283e-19 2.40723e-17 -5.57654)
(1.07986e-19 -2.57975e-17 -5.32385)
(-5.20626e-20 -6.67997e-19 -5.05993)
(3.04516e-19 -2.06239e-17 -4.7839)
(-2.73528e-19 2.52699e-17 -4.49335)
(3.05316e-19 -2.24264e-17 -4.18422)
(-1.05382e-18 2.47548e-17 -3.85162)
(9.24224e-19 -9.06645e-18 -3.48997)
(-2.09063e-19 1.15616e-17 -3.08468)
(-1.71053e-19 -9.79395e-19 -2.62127)
(-1.55793e-20 2.27451e-18 -2.07362)
(-4.7418e-19 8.5594e-18 -1.3901)
(2.79375e-19 -1.00253e-17 -0.486927)
(-1.29952e-19 1.95389e-18 0.766471)
(-4.59694e-19 1.70872e-19 2.50669)
(7.49245e-19 -8.98709e-19 4.39555)
(2.27581e-19 3.2528e-19 4.19578)
(-2.14609e-19 -8.05937e-20 -3.7837)
(2.4024e-19 -2.04995e-19 -4.67898)
(-1.08854e-18 1.50791e-19 0.459334)
(5.21358e-19 2.68187e-19 3.40091)
(1.07739e-18 -1.77985e-19 4.99462)
(-1.98393e-18 -2.64711e-19 5.80608)
(8.52939e-19 2.34458e-18 6.18335)
(-4.09169e-19 -2.83053e-18 6.31841)
(-2.24083e-19 1.6347e-18 6.3193)
(2.27382e-20 1.42967e-18 6.24742)
(6.3963e-19 3.00395e-18 6.14147)
(-6.16703e-20 1.42587e-18 6.01348)
(-4.72715e-19 2.63463e-18 5.87355)
(1.07126e-19 -9.35426e-18 5.74006)
(7.2328e-19 2.41153e-17 5.6131)
(1.1349e-18 -1.01941e-17 5.49482)
(-1.56729e-18 1.33699e-17 5.38736)
(8.54606e-19 -8.05168e-18 5.2917)
(-5.34775e-20 6.58805e-18 5.20788)
(-4.05106e-18 2.3052e-17 5.13594)
(4.09895e-18 -2.35828e-17 5.07566)
(-3.90298e-19 3.813e-18 5.0262)
(-4.45514e-18 1.28507e-18 4.98565)
(5.39829e-18 -2.00339e-17 4.95293)
(1.54969e-18 2.93472e-17 4.92659)
(-3.10122e-18 1.61012e-17 4.90473)
(4.95607e-18 -2.39621e-17 4.88484)
(-6.43673e-18 -1.41292e-17 4.86365)
(-1.83947e-18 2.17927e-17 4.8369)
(4.39798e-18 -3.27491e-18 4.79845)
(4.79694e-18 5.91573e-20 4.73904)
(-9.66126e-18 -2.34669e-19 4.65954)
(8.48844e-19 2.31608e-17 4.54041)
(-1.28528e-17 8.76606e-17 4.36962)
(-2.89281e-17 -3.63065e-18 4.06273)
(-1.83991e-17 -8.24387e-17 3.58596)
(-2.26468e-17 -3.68481e-17 2.97857)
(2.04534e-17 -3.623e-17 2.37271)
(1.75346e-17 1.11174e-16 1.95725)
(3.39772e-17 -1.37097e-17 1.78468)
(-4.26502e-17 4.62777e-17 1.80043)
(8.86239e-17 1.95773e-17 2.02111)
(-9.79913e-18 -1.71634e-16 2.37607)
(-1.64514e-16 -1.51543e-16 2.76667)
(-2.26014e-16 -1.07504e-16 3.15059)
(3.47919e-17 1.25849e-16 3.51294)
(2.5343e-17 -9.79193e-17 3.81251)
(-1.09415e-16 -1.34809e-16 4.03272)
(-1.63014e-16 -5.39045e-17 4.18071)
(-6.93443e-17 -4.76468e-18 4.25462)
(3.80051e-17 5.45559e-17 4.26203)
(-1.11487e-16 -7.22398e-17 4.21145)
(-2.96774e-18 -3.55492e-17 4.11611)
(8.63001e-17 4.73284e-17 4.01613)
(-1.05545e-17 1.64796e-17 3.90064)
(6.09432e-17 1.3908e-16 3.80895)
(-2.0123e-17 -9.22055e-17 3.72407)
(-9.48803e-18 -7.1037e-17 3.65751)
(9.92453e-18 6.12386e-17 3.52413)
(-6.28761e-20 8.36462e-18 3.19764)
(-3.46581e-19 -6.22723e-19 2.46586)
(6.55399e-18 3.21414e-17 1.17823)
(-1.94737e-17 -2.57138e-17 -0.822939)
(-4.09576e-18 6.55942e-17 -3.29399)
(-1.36709e-16 -3.71152e-16 -5.80811)
(1.07137e-16 3.59924e-16 -7.91752)
(-1.51087e-16 -3.20848e-16 -9.60821)
(2.41163e-17 -4.01148e-17 -10.5813)
(-3.64748e-18 6.20291e-17 -10.9285)
(-2.77325e-16 -5.89661e-16 -10.7419)
(2.33775e-16 4.62346e-16 -10.2111)
(-2.50252e-17 1.18237e-16 -9.48028)
(-1.02868e-16 -1.36884e-16 -8.65985)
(-1.32583e-17 3.19043e-17 -7.82969)
(2.77969e-17 2.87379e-16 -7.03942)
(-6.47583e-17 -1.27111e-16 -6.31461)
(-2.22854e-17 -3.25965e-16 -5.66115)
(1.18242e-16 3.19548e-16 -5.0799)
(-2.42714e-17 6.96811e-17 -4.54862)
(-2.10278e-17 4.55636e-17 -4.07807)
(-7.38547e-17 -3.04867e-16 -3.65574)
(6.79405e-17 2.23059e-16 -3.27897)
(1.03683e-17 2.96124e-17 -2.9199)
(-7.96591e-18 5.78087e-18 -2.61406)
(-6.18264e-19 -7.32312e-18 -2.31795)
(1.64969e-17 9.88601e-17 -2.0599)
(3.96263e-21 2.89025e-18 -1.79666)
(-3.89145e-18 -2.668e-17 -1.54101)
(2.92077e-19 -1.20003e-18 -1.26805)
(-3.40362e-18 -3.30175e-17 -0.967517)
(1.08054e-17 -1.09663e-16 -0.658129)
(2.09461e-18 -3.14658e-17 -0.38101)
(2.61032e-17 -2.9057e-16 -0.19135)
(2.96845e-17 -4.50771e-17 -0.134189)
(-8.93868e-17 3.18371e-16 -0.250014)
(1.8904e-17 -4.22551e-17 -0.517664)
(2.46221e-17 -2.89898e-16 -0.912247)
(1.46726e-16 -3.54133e-16 -1.37323)
(1.02442e-16 -8.42709e-17 -1.8189)
(-5.72092e-17 1.49383e-17 -2.21109)
(-8.1424e-17 2.39991e-16 -2.52037)
(3.05591e-19 -7.68943e-17 -2.74588)
(1.41295e-16 -1.91532e-16 -2.90712)
(-3.57628e-17 4.10005e-17 -3.0303)
(-1.13541e-16 2.62501e-16 -3.14535)
(1.35145e-16 -3.02315e-16 -3.28357)
(-1.84628e-18 -2.43798e-17 -3.46579)
(3.65162e-16 -5.56824e-16 -3.55501)
(2.30837e-16 -1.56691e-16 -3.58499)
(3.87902e-17 6.53768e-17 -3.64447)
(1.59562e-16 -2.82291e-16 -3.7064)
(2.49374e-17 5.29026e-17 -3.65052)
(-1.49609e-16 2.86164e-16 -3.51125)
(-3.61949e-19 -1.75373e-17 -3.37008)
(6.44577e-17 -3.46264e-16 -3.30814)
(-4.38311e-18 2.41984e-17 -3.31215)
(6.15342e-19 -8.15041e-20 -3.44736)
(3.27518e-19 -1.86065e-18 -3.79921)
(7.0422e-18 7.74232e-17 -4.40028)
(7.16867e-19 2.15113e-18 -5.29643)
(-3.11167e-18 -1.10529e-17 -6.52628)
(5.68698e-18 2.11104e-17 -7.85581)
(-3.16322e-17 8.70769e-18 -9.19299)
(-2.08297e-17 1.44935e-17 -10.2388)
(3.47666e-18 2.55434e-17 -10.9951)
(-9.57649e-17 -4.2761e-16 -11.2676)
(9.83903e-17 4.43285e-16 -11.1762)
(-2.45897e-16 -4.83872e-16 -10.784)
(-1.61955e-16 -2.17154e-16 -10.1713)
(-6.13698e-17 1.27536e-16 -9.42308)
(-1.11611e-16 -2.32295e-16 -8.62342)
(-1.07662e-17 5.3201e-17 -7.83157)
(-6.84219e-17 -1.65142e-16 -7.08367)
(5.41656e-18 -1.69083e-16 -6.39783)
(-8.35795e-18 9.43758e-18 -5.77413)
(-7.37446e-19 1.50762e-17 -5.21133)
(2.91663e-17 4.3727e-17 -4.70473)
(-4.43429e-17 -1.16812e-16 -4.24488)
(-6.74279e-17 -3.18423e-16 -3.83079)
(2.42524e-19 -6.01194e-17 -3.43984)
(1.88592e-17 1.07443e-16 -3.08929)
(2.54516e-17 1.83988e-16 -2.77402)
(-1.18001e-17 -6.4822e-18 -2.46656)
(-1.13331e-17 -7.53088e-17 -2.19743)
(-6.33666e-18 -5.74898e-17 -1.92778)
(8.05358e-18 5.32577e-17 -1.66493)
(8.2015e-19 1.2511e-17 -1.38862)
(3.39407e-19 -7.98407e-18 -1.08746)
(-9.56058e-18 -9.80962e-17 -0.774592)
(1.00481e-17 -6.92724e-17 -0.489335)
(1.3798e-17 -1.64511e-16 -0.291977)
(-2.65025e-17 8.20121e-17 -0.236802)
(6.98363e-18 -7.51121e-17 -0.358103)
(4.21361e-17 -2.35112e-16 -0.655151)
(1.65697e-16 -3.36111e-16 -1.11215)
(1.07932e-16 -9.56137e-17 -1.63597)
(-8.99643e-18 -7.24478e-18 -2.18946)
(8.24136e-17 -1.64251e-16 -2.7202)
(-3.04895e-16 6.52485e-16 -3.20832)
(-2.1162e-17 2.86985e-17 -3.64795)
(8.90658e-18 3.00398e-17 -4.0715)
(-1.24958e-16 3.45759e-16 -4.56892)
(-3.99447e-17 -6.58978e-17 -4.89581)
(3.47298e-18 1.30522e-17 -4.62797)
(-7.13947e-17 2.81661e-16 -3.68518)
(-1.5134e-16 3.72476e-16 -3.3293)
(1.20597e-18 -1.35173e-17 -3.16519)
(-2.51528e-18 -3.69096e-18 -3.07984)
(2.55663e-17 -1.47869e-16 -3.07209)
(-1.3653e-17 1.44909e-16 -3.08304)
(2.30364e-18 -3.94673e-18 -3.10454)
(2.43145e-18 -6.46685e-18 -3.05642)
(3.4569e-18 -6.43421e-17 -2.86274)
(-8.63508e-19 2.64476e-18 -2.54455)
(2.03407e-18 -3.88134e-18 -2.19761)
(-1.05121e-18 -6.2457e-18 -1.87661)
(6.74118e-19 -5.85365e-17 -1.5987)
(1.15441e-18 -1.39122e-18 -1.36328)
(-1.68613e-18 5.92648e-17 -1.16288)
(6.45651e-21 -2.08717e-18 -0.987673)
(-9.75486e-19 2.7109e-17 -0.826441)
(3.51516e-19 -2.95106e-17 -0.669062)
(5.3093e-19 2.05563e-18 -0.509047)
(-7.60149e-20 3.35708e-22 -0.341173)
(-2.55154e-20 1.62874e-18 -0.161528)
(-9.02467e-20 2.47914e-18 0.0321155)
(-3.53022e-20 -2.54212e-17 0.240801)
(1.61598e-19 2.27551e-17 0.4668)
(-1.28341e-20 -2.24129e-17 0.712882)
(-6.88234e-19 4.36341e-17 0.981805)
(7.86404e-19 -3.54216e-17 1.28289)
(8.37463e-20 1.1966e-17 1.62143)
(-5.59013e-20 3.29723e-18 2.01354)
(1.43761e-19 -1.3678e-18 2.48522)
(5.67595e-19 2.37702e-19 3.06991)
(-5.3678e-19 2.88575e-18 3.83678)
(-1.93097e-20 -1.13255e-18 4.83366)
(4.96649e-20 1.60594e-19 5.89505)
(-5.30974e-19 3.45998e-19 5.97437)
(1.37325e-18 -6.76173e-19 1.97892)
(1.31412e-18 5.04607e-19 -9.5574)
(-6.05051e-19 -1.28293e-19 -4.46574)
(3.98648e-20 1.91454e-19 -1.45965)
(3.4486e-19 -1.93819e-19 0.926973)
(-1.61843e-18 4.75776e-19 2.56785)
(1.79324e-18 4.53097e-19 3.67614)
(1.88813e-18 1.74738e-19 4.38521)
(-2.27356e-18 -9.78991e-19 4.84761)
(1.12287e-18 7.98674e-19 5.15165)
(1.26157e-19 -3.72519e-19 5.35148)
(8.69139e-19 -1.64192e-18 5.4812)
(-6.93541e-19 1.6855e-19 5.56214)
(6.47686e-19 -9.43577e-19 5.60833)
(3.43263e-21 -1.79594e-19 5.63102)
(1.0233e-18 -2.20345e-18 5.63693)
(-5.21152e-19 1.83531e-19 5.63105)
(9.93124e-19 -1.97627e-19 5.61715)
(-2.95746e-19 -3.52921e-18 5.59793)
(-9.53689e-19 -7.14078e-18 5.57511)
(5.54771e-18 2.24775e-17 5.54983)
(-3.72081e-18 -1.8295e-17 5.52265)
(-2.33534e-18 3.95242e-18 5.49377)
(2.35766e-18 1.02835e-17 5.46275)
(-1.64883e-18 -1.73536e-17 5.42856)
(2.30962e-18 1.03015e-18 5.38973)
(3.48032e-18 -2.92352e-18 5.34424)
(-8.97625e-19 -1.0617e-17 5.28947)
(-2.12373e-18 1.61895e-17 5.22193)
(3.53784e-18 1.02322e-18 5.13683)
(-6.84648e-19 6.62922e-18 5.02711)
(-1.66186e-18 -1.00651e-17 4.88469)
(-1.34028e-18 3.54606e-18 4.70074)
(-1.81947e-18 -3.90146e-17 4.40503)
(2.22435e-17 -2.23012e-17 3.98287)
(2.31554e-17 1.45687e-17 3.39413)
(-7.46979e-17 -2.2767e-18 2.64549)
(4.25852e-17 -2.60551e-17 1.81157)
(-7.3458e-17 -4.00821e-17 1.02304)
(-1.87799e-18 3.28846e-17 0.427955)
(1.00887e-16 3.91454e-17 0.0548398)
(-1.00455e-16 -5.96158e-17 -0.10328)
(1.11704e-16 9.09718e-17 -0.0351655)
(-5.01175e-17 5.81568e-17 0.203851)
(1.4684e-16 4.67746e-17 0.532908)
(7.28933e-17 -7.09403e-17 0.920989)
(4.63494e-17 -1.19702e-17 1.32876)
(-6.13571e-19 -8.67618e-18 1.73336)
(-9.97184e-17 -5.4818e-18 2.10965)
(1.52254e-16 1.26768e-16 2.44378)
(6.73802e-17 -1.9833e-17 2.71739)
(1.47474e-17 4.4693e-17 2.9226)
(1.64104e-16 2.06511e-16 3.05781)
(2.32071e-18 -9.56146e-17 3.12975)
(-4.73543e-17 -1.2038e-16 3.16952)
(3.39401e-18 3.08732e-17 3.17639)
(6.15378e-17 3.26761e-17 3.19899)
(2.51177e-18 7.42876e-17 3.25156)
(1.7333e-18 3.46111e-17 3.38335)
(-1.74986e-17 -8.52311e-17 3.59456)
(3.16795e-18 2.25626e-17 3.87855)
(9.12725e-18 2.06828e-17 4.13482)
(-3.42605e-17 -8.58169e-17 4.1783)
(-1.12359e-17 -1.80211e-17 3.63349)
(-1.10405e-16 -3.36582e-16 2.52292)
(1.43376e-16 3.61881e-16 0.8867)
(-2.57808e-16 -5.91495e-16 -1.20229)
(-1.0149e-18 -1.76554e-16 -3.30295)
(1.77324e-16 4.01088e-16 -5.11814)
(2.27245e-17 3.3793e-17 -6.63138)
(2.10839e-16 2.73464e-16 -7.56425)
(-2.31107e-16 -2.53383e-16 -8.00914)
(-1.08801e-16 -3.40759e-16 -8.00672)
(2.73557e-17 -2.17648e-17 -7.72277)
(-1.07685e-16 -2.00681e-16 -7.24856)
(-9.65032e-17 -1.97459e-16 -6.67362)
(3.83436e-17 -1.64638e-16 -6.07202)
(1.71152e-16 4.41534e-16 -5.48483)
(-1.21717e-16 -1.05415e-16 -4.93829)
(1.16159e-17 1.22903e-17 -4.42532)
(-5.14872e-17 -2.14532e-16 -3.96158)
(7.41829e-17 1.21262e-16 -3.53981)
(-7.77973e-17 -1.04749e-16 -3.15796)
(3.57348e-17 1.50524e-16 -2.78952)
(-3.13663e-17 -1.33662e-16 -2.46285)
(5.60372e-18 -1.22041e-17 -2.13569)
(-3.88634e-18 -2.52476e-18 -1.82988)
(-4.13551e-19 -3.03387e-18 -1.50217)
(3.39832e-18 3.41556e-17 -1.16114)
(-4.49697e-19 1.96567e-18 -0.78973)
(-2.34963e-18 4.08168e-17 -0.390326)
(-1.31153e-17 5.18534e-17 0.00285995)
(5.9701e-18 -8.13266e-19 0.340124)
(-5.71256e-17 1.55689e-16 0.564634)
(-2.15484e-17 1.02659e-16 0.638672)
(7.06244e-17 -1.55154e-16 0.538886)
(1.53758e-17 7.3552e-17 0.295712)
(-8.79284e-17 1.70667e-16 -0.0413452)
(-1.05529e-16 1.24788e-16 -0.395693)
(-3.34747e-17 -1.68355e-17 -0.685804)
(-4.41653e-17 1.9053e-16 -0.862309)
(2.07498e-16 -4.72461e-16 -0.903048)
(-4.98517e-19 7.00029e-17 -0.821785)
(-3.09161e-17 -3.33848e-17 -0.659131)
(5.75578e-20 -3.29933e-17 -0.466123)
(1.64971e-16 -2.35088e-16 -0.292896)
(-2.02231e-17 -1.50742e-17 -0.165886)
(-4.72392e-18 1.44395e-17 -0.168626)
(-5.96307e-17 -8.21228e-17 -0.202877)
(1.03728e-16 -3.78207e-16 -0.207954)
(1.49548e-16 -2.92345e-16 -0.235688)
(-6.3509e-18 1.54639e-17 -0.27387)
(0 -0 -0.290406)
(6.23816e-18 4.26325e-18 -0.30326)
(6.72002e-18 6.16483e-18 -0.292914)
(-4.8288e-17 1.61944e-16 -0.318287)
(-2.06754e-17 1.51768e-16 -0.336945)
(1.14957e-19 -7.78336e-19 -0.395682)
(-2.04289e-19 9.50185e-18 -0.510417)
(-2.28975e-18 3.74914e-19 -0.698922)
(-4.8846e-19 1.27556e-19 -1.06351)
(1.00233e-18 -4.0429e-19 -1.66857)
(-1.47169e-17 7.02095e-18 -2.5041)
(5.27741e-18 2.77337e-17 -3.60278)
(-1.15844e-16 -3.74315e-16 -4.8377)
(-6.35657e-18 -5.38524e-17 -6.0369)
(1.74663e-16 3.27278e-16 -7.10103)
(-1.85129e-16 -3.05921e-16 -7.91485)
(2.07979e-16 2.24906e-16 -8.31477)
(3.27704e-17 3.17356e-17 -8.38914)
(-1.41644e-16 -2.67766e-16 -8.18929)
(1.0186e-16 1.93916e-16 -7.78809)
(-8.3207e-17 -2.24917e-16 -7.26145)
(1.20902e-16 2.23333e-16 -6.67756)
(-2.79653e-17 -3.57473e-17 -6.08748)
(8.51795e-18 -4.82604e-17 -5.5185)
(1.04351e-17 4.82348e-17 -4.98547)
(4.52115e-17 1.58539e-16 -4.49572)
(2.95879e-17 -1.03761e-17 -4.04504)
(8.13139e-17 1.23563e-16 -3.6351)
(2.75471e-17 6.35279e-17 -3.24471)
(-6.79997e-17 -1.53838e-16 -2.88495)
(-6.95927e-17 -2.80152e-16 -2.55145)
(-3.57931e-17 -1.9374e-16 -2.21584)
(8.07864e-18 2.06908e-17 -1.89968)
(7.8081e-18 3.29665e-17 -1.56582)
(-2.66165e-18 -2.49607e-17 -1.21625)
(1.05251e-18 1.44725e-17 -0.837885)
(-4.53774e-19 6.36721e-18 -0.431629)
(-3.87904e-18 1.25626e-16 -0.0269432)
(-7.47658e-18 7.10759e-18 0.325861)
(-4.71039e-17 1.80221e-16 0.564746)
(-6.64914e-18 1.13338e-16 0.642274)
(-3.7567e-18 1.51307e-18 0.539438)
(-7.73062e-17 1.32928e-16 0.275508)
(-1.43959e-16 1.4669e-16 -0.105077)
(1.26564e-17 -2.17517e-16 -0.51126)
(-6.361e-17 2.34982e-16 -0.881574)
(-1.59291e-16 2.02403e-16 -1.16047)
(2.07113e-16 -3.05562e-16 -1.32509)
(1.19316e-16 -2.09459e-16 -1.37069)
(-1.54626e-16 4.05601e-16 -1.31643)
(2.06631e-16 -3.80544e-16 -1.30774)
(-1.23147e-16 4.14399e-16 -1.23699)
(-5.36489e-17 4.85072e-17 -0.681326)
(1.6962e-16 -4.07741e-16 -0.302514)
(1.84367e-17 3.31458e-17 -0.0245903)
(-7.24099e-17 3.14775e-16 0.0728098)
(-1.48802e-17 7.15361e-17 0.0789237)
(-2.97051e-17 1.43644e-16 0.00438734)
(2.46606e-17 -1.41651e-16 -0.0219575)
(-6.19744e-18 6.87025e-17 -0.0716929)
(5.76975e-18 -6.71457e-17 -0.0894854)
(-1.8745e-18 8.92585e-19 0.000602086)
(9.80532e-19 -4.57012e-18 0.196168)
(1.49679e-18 -5.58066e-17 0.44592)
(-1.53858e-18 6.55993e-17 0.711886)
(-2.61219e-18 5.66878e-17 0.958415)
(1.98534e-19 -5.12942e-17 1.17004)
(1.31426e-18 2.83414e-17 1.34478)
(6.10799e-19 -2.83308e-17 1.48772)
(-1.84972e-20 8.64868e-19 1.60316)
(-1.12873e-18 2.92677e-17 1.70759)
(1.28596e-18 -2.61841e-17 1.81195)
(-1.52652e-18 2.81018e-17 1.92381)
(4.35409e-19 -2.55849e-17 2.04871)
(8.11134e-19 -2.55317e-18 2.19003)
(-9.17751e-19 2.85216e-18 2.34998)
(4.27946e-19 -6.23568e-20 2.53019)
(-1.27707e-18 6.66204e-20 2.73229)
(2.07445e-18 2.51183e-18 2.96031)
(-1.43089e-18 -9.03033e-20 3.22288)
(1.85383e-19 -1.90542e-19 3.52739)
(5.43576e-19 -4.51798e-18 3.89654)
(-7.92389e-19 1.82638e-19 4.36497)
(7.36436e-19 -4.89793e-19 4.97682)
(2.08832e-18 -6.31614e-18 5.77684)
(-1.31654e-18 3.64106e-18 6.70346)
(3.315e-19 -2.5121e-19 7.28423)
(-2.2743e-19 1.6776e-20 5.9907)
(-1.34811e-19 3.69569e-19 -0.19808)
(-1.31145e-18 -2.41923e-19 -12.1511)
(-9.88204e-20 -2.62812e-19 -3.76984)
(-1.3722e-18 3.53246e-20 -2.21839)
(-9.08944e-19 1.04144e-18 -0.514904)
(2.39009e-18 -1.25045e-18 0.827829)
(-4.50832e-18 1.12697e-18 1.81412)
(3.23029e-18 2.16231e-19 2.53586)
(-4.20589e-19 -5.79066e-19 3.05234)
(-6.12882e-19 -3.99022e-19 3.43493)
(4.63417e-20 -7.12314e-19 3.72626)
(-3.82462e-18 -1.15763e-18 3.95229)
(2.18762e-18 2.44352e-18 4.12964)
(3.57503e-20 -2.49344e-18 4.26945)
(-1.28424e-18 -2.35908e-18 4.37998)
(-4.03862e-19 3.09495e-18 4.46719)
(-1.07628e-19 -1.12545e-18 4.5356)
(4.49215e-19 -7.05564e-21 4.58863)
(-1.56825e-18 -3.03722e-21 4.62884)
(-4.23749e-19 8.14967e-19 4.65801)