/*--------------------------------*- C++ -*----------------------------------*\
| =========                 |                                                 |
| \\      /  F ield         | OpenFOAM: The Open Source CFD Toolbox           |
|  \\    /   O peration     | Version:  2506                                  |
|   \\  /    A nd           | Website:  www.openfoam.com                      |
|    \\/     M anipulation  |                                                 |
\*---------------------------------------------------------------------------*/
FoamFile
{
    version     2.0;
    format      ascii;
    arch        "LSB;label=32;scalar=64";
    class       volScalarField;
    location    "3.55";
    object      s;
}
// * * * * * * * * * * * * * * * * * * * * * * * * * * * * * * * * * * * * * //

dimensions      [0 0 0 0 0 0 0];

internalField   nonuniform List<scalar> 
4000
(
-6.99707e-18
-5.09801e-18
2.85265e-18
1.94687e-17
4.83486e-17
9.46515e-17
1.64822e-16
2.66544e-16
4.0865e-16
6.00818e-16
8.53388e-16
1.17769e-15
1.58715e-15
2.09982e-15
2.74112e-15
3.55223e-15
4.60744e-15
6.02691e-15
7.9517e-15
1.05644e-14
1.41144e-14
1.89439e-14
2.55158e-14
3.44448e-14
4.65346e-14
6.28199e-14
8.46327e-14
1.13645e-13
1.5196e-13
2.02597e-13
2.67305e-13
3.6413e-13
5.17495e-13
7.5003e-13
1.09118e-12
1.58445e-12
2.26763e-12
3.32159e-12
5.09901e-12
7.99515e-12
1.29239e-11
2.14921e-11
3.67908e-11
6.38888e-11
1.09979e-10
1.84652e-10
3.01777e-10
4.83712e-10
7.8122e-10
1.28658e-09
2.23266e-09
3.88972e-09
7.22109e-09
1.30857e-08
2.42083e-08
4.35992e-08
7.77521e-08
1.01725e-07
1.76281e-07
1.59852e-07
1.09443e-07
5.03142e-08
1.54728e-08
4.9171e-09
1.89915e-09
7.93762e-10
3.31997e-10
1.43778e-10
6.55993e-11
3.06561e-11
1.4363e-11
6.6845e-12
3.07479e-12
1.3927e-12
6.19484e-13
2.70109e-13
1.15315e-13
4.82029e-14
1.97393e-14
7.94589e-15
3.17274e-15
1.28769e-15
5.56164e-16
1.99217e-16
6.05431e-17
4.86594e-17
1.96098e-16
6.24032e-16
1.62246e-15
4.42751e-15
1.27035e-14
6.57531e-14
2.42708e-13
8.88803e-13
2.97432e-12
1.11189e-11
3.20164e-11
1.36795e-10
7.7776e-11
8.41316e-10
4.76919e-09
3.70031e-09
-1.27128e-08
-3.8902e-07
-3.30703e-07
7.69098e-07
4.27306e-06
1.00613e-05
1.8694e-05
2.62593e-05
2.52944e-05
4.1665e-07
-0.000144712
-0.00148902
-0.00667058
-0.0207484
-0.0409717
-0.0745292
-0.0675014
-0.0408317
-0.0156248
-0.00507179
-0.00177311
-0.000660184
-0.000244182
-9.33976e-05
-3.7892e-05
-1.58314e-05
-6.65218e-06
-2.7793e-06
-1.14709e-06
-4.65568e-07
-1.85286e-07
-7.21783e-08
-2.74798e-08
-1.02136e-08
-3.70306e-09
-1.30974e-09
-4.53623e-10
-1.54977e-10
-5.28102e-11
-1.82003e-11
-6.78977e-12
-3.50516e-12
-3.59496e-12
-6.93378e-12
-1.93164e-11
-6.82692e-11
-4.01878e-10
-1.55599e-09
-7.63562e-09
-3.86434e-08
-1.33807e-07
-3.62755e-07
-7.23263e-07
-2.74755e-06
-3.57634e-06
-1.3216e-05
-6.97873e-05
-0.000215002
-0.000187004
0.000227027
0.00579234
0.00206405
-0.0173033
-0.0526585
-0.122729
-0.156997
-0.149204
-0.125517
-0.100983
-0.0928023
-0.114453
-0.186907
-0.272744
-0.317628
-0.339893
-0.347999
-0.345382
-0.333939
-0.315015
-0.290312
-0.261641
-0.230688
-0.198776
-0.166284
-0.128562
-0.0766089
-0.0214517
0.0316729
0.0793514
0.117427
0.141869
0.155027
0.164139
0.173086
0.186858
0.196915
0.219846
0.170389
4.30726e-19
-1.04838e-17
-2.12949e-17
-3.52353e-17
-5.16914e-17
-6.97971e-17
-8.82815e-17
-1.05515e-16
-1.19518e-16
-1.28495e-16
-1.31402e-16
-1.28284e-16
-1.1928e-16
-1.02089e-16
-7.12298e-17
-3.12327e-17
5.50564e-18
3.02458e-17
6.73473e-17
1.26683e-16
2.23975e-16
3.85081e-16
6.50595e-16
1.08303e-15
1.77588e-15
2.86109e-15
4.51713e-15
7.05684e-15
1.08699e-14
1.65899e-14
2.44551e-14
2.8306e-14
2.45524e-14
1.70211e-14
1.00407e-14
5.1769e-15
2.32641e-15
7.95253e-16
2.74562e-16
2.40437e-16
3.88322e-16
6.68719e-16
1.1751e-15
2.19418e-15
4.24215e-15
7.03533e-15
1.15851e-14
1.88646e-14
3.12466e-14
5.34764e-14
9.63504e-14
1.77331e-13
3.52071e-13
7.03631e-13
1.54068e-12
3.54808e-12
8.97641e-12
2.511e-11
9.01599e-10
8.91477e-08
1.81581e-07
1.62529e-07
1.0386e-07
4.67952e-08
1.50177e-08
4.54677e-09
1.8578e-09
8.51057e-10
3.9124e-10
1.82478e-10
8.71786e-11
4.19801e-11
2.00834e-11
9.50306e-12
4.44681e-12
2.05501e-12
9.35965e-13
4.2016e-13
1.85965e-13
8.14816e-14
3.57075e-14
1.60539e-14
7.69019e-15
4.33571e-15
3.00857e-15
2.78289e-15
3.40094e-15
5.77084e-15
1.14211e-14
2.50821e-14
8.27535e-14
2.94103e-13
7.11211e-13
2.02176e-12
6.51192e-12
2.04141e-11
7.7762e-11
1.53871e-10
6.31373e-10
3.61491e-09
5.37963e-09
-1.40037e-09
-2.65391e-08
-1.77233e-08
1.24862e-06
3.84766e-06
6.46178e-06
7.76171e-06
8.98198e-06
5.21871e-06
-2.64233e-05
-0.000135301
-0.00169733
-0.00592527
-0.0127575
-0.0204683
-0.0257618
-0.0486886
-0.0849128
-0.116669
-0.0842056
-0.0401361
-0.0130713
-0.00367914
-0.00133227
-0.000524994
-0.000207068
-8.54293e-05
-3.65754e-05
-1.57739e-05
-6.73672e-06
-2.83223e-06
-1.16921e-06
-4.7306e-07
-1.87135e-07
-7.21905e-08
-2.70847e-08
-9.84985e-09
-3.46853e-09
-1.18848e-09
-4.02028e-10
-1.4979e-10
-6.46864e-11
-3.58852e-11
-4.60524e-11
-8.05836e-11
-2.26827e-10
-6.74683e-10
-3.01458e-09
-9.35087e-09
-4.87276e-08
-1.64461e-07
-3.25755e-07
-6.04154e-07
-1.48638e-06
-3.40117e-06
-1.21268e-05
-6.37442e-05
-0.000151703
-0.00016615
8.94202e-05
0.00053145
-0.00850574
-0.0370961
-0.0798275
-0.121445
-0.139224
-0.136761
-0.122823
-0.100788
-0.0849196
-0.0858175
-0.0959574
-0.124744
-0.16088
-0.191687
-0.207833
-0.207759
-0.201556
-0.189348
-0.165922
-0.139339
-0.118029
-0.0983786
-0.0760186
-0.0435603
-0.00469789
0.0375901
0.0816018
0.124895
0.163765
0.193897
0.211923
0.216848
0.211155
0.202557
0.203626
0.240309
0.34368
0.38512
1.67874e-17
9.46264e-18
1.25951e-17
1.54425e-17
1.78805e-17
1.94876e-17
2.00733e-17
1.96594e-17
1.84076e-17
1.65807e-17
1.4409e-17
1.19399e-17
8.91769e-18
4.78855e-18
-1.08038e-18
-9.16949e-18
-2.00704e-17
-3.46072e-17
-5.33847e-17
-7.65533e-17
-1.03648e-16
-1.3268e-16
-1.59083e-16
-1.7447e-16
-1.66973e-16
-1.21266e-16
-2.46173e-17
3.96874e-17
1.26003e-16
2.54947e-16
4.23526e-16
4.96518e-16
4.03833e-16
2.06111e-16
2.57923e-17
-1.22874e-16
-3.80455e-16
-3.47074e-16
-1.94048e-16
-1.02046e-16
-1.03805e-16
-1.75753e-16
-3.22788e-16
-5.5604e-16
-5.48027e-16
-3.70916e-16
-6.61153e-16
-1.25227e-15
-2.38723e-15
-4.50512e-15
-8.46582e-15
-1.5595e-14
-3.11287e-14
-6.70843e-14
-1.81099e-13
-4.7194e-13
-1.64866e-12
-5.09983e-12
-1.68219e-11
6.23835e-09
9.43919e-08
1.63642e-07
1.75216e-07
1.35236e-07
7.67976e-08
3.2414e-08
1.06999e-08
4.32278e-09
2.12507e-09
1.07464e-09
5.3231e-10
2.61689e-10
1.2899e-10
6.34915e-11
3.09734e-11
1.49161e-11
7.08532e-12
3.32624e-12
1.54569e-12
7.14502e-13
3.32082e-13
1.58807e-13
8.02634e-14
4.51798e-14
2.97097e-14
2.44525e-14
2.61494e-14
3.93424e-14
7.28153e-14
1.74838e-13
7.92764e-13
2.00915e-12
3.22254e-12
7.54759e-12
2.17145e-11
6.79083e-11
2.14831e-10
4.89564e-10
3.44482e-09
7.90631e-09
6.0392e-09
-1.35048e-08
-4.1328e-08
1.0538e-06
4.03682e-06
7.41971e-06
9.76358e-06
1.07278e-05
1.1634e-05
-3.00633e-05
-0.000231109
-0.00201948
-0.00676413
-0.0143928
-0.0245
-0.0356571
-0.0474257
-0.0546292
-0.0780196
-0.119535
-0.14455
-0.112488
-0.0621287
-0.0236542
-0.00674009
-0.00249544
-0.00110154
-0.00048901
-0.000217321
-9.79599e-05
-4.40036e-05
-1.94119e-05
-8.37492e-06
-3.53284e-06
-1.45438e-06
-5.81989e-07
-2.25346e-07
-8.39236e-08
-2.9819e-08
-9.83641e-09
-2.94448e-09
-8.66767e-10
-2.32991e-10
-3.41973e-10
-6.12368e-10
-6.94774e-10
-2.39643e-09
-9.78011e-09
-3.25573e-08
-9.37158e-08
-2.59466e-07
-4.68864e-07
-6.62613e-07
-1.31285e-06
-3.62776e-06
-1.0977e-05
-6.89797e-05
-0.000183299
-0.000236572
-5.18171e-05
0.000374845
-0.00631259
-0.048207
-0.108055
-0.168797
-0.211706
-0.227551
-0.218923
-0.194051
-0.163649
-0.138775
-0.129379
-0.137764
-0.160905
-0.19183
-0.221753
-0.242813
-0.250059
-0.245542
-0.230466
-0.201502
-0.165005
-0.124848
-0.0827928
-0.0386218
0.00876151
0.0602146
0.115171
0.170825
0.222071
0.26262
0.286979
0.292506
0.280658
0.257095
0.231647
0.218571
0.262924
0.406989
0.519331
-1.27543e-17
-5.07604e-18
-4.73679e-18
-4.61389e-18
-4.42465e-18
-4.07203e-18
-3.6174e-18
-3.08931e-18
-2.46983e-18
-1.69299e-18
-6.48915e-19
7.87283e-19
2.71774e-18
5.18793e-18
8.16599e-18
1.15479e-17
1.5181e-17
1.88722e-17
2.23032e-17
2.50816e-17
2.63347e-17
2.51296e-17
1.80761e-17
2.5748e-18
-1.6039e-17
-3.32862e-17
-5.22908e-17
-7.74453e-17
-1.08154e-16
-1.41276e-16
-1.69632e-16
-1.968e-16
-2.2405e-16
-2.29548e-16
-1.82938e-16
-9.283e-17
1.27678e-17
7.36664e-17
7.42112e-17
5.19932e-17
4.48493e-17
6.20188e-17
1.01818e-16
1.31074e-16
8.46716e-17
9.69913e-17
1.74416e-16
3.32031e-16
6.4188e-16
3.66345e-16
1.96746e-16
9.85537e-17
4.32024e-17
4.43735e-17
-3.28695e-17
-3.51594e-15
-7.2506e-14
-1.10441e-12
-5.39858e-12
4.15805e-11
7.39947e-09
7.0076e-08
1.42338e-07
1.69758e-07
1.48451e-07
1.06942e-07
5.9466e-08
2.62165e-08
1.05991e-08
5.00809e-09
2.56688e-09
1.31105e-09
6.63082e-10
3.37029e-10
1.72367e-10
8.81671e-11
4.48555e-11
2.26788e-11
1.13913e-11
5.69944e-12
2.85981e-12
1.46093e-12
7.6948e-13
4.31667e-13
2.66221e-13
1.94574e-13
1.84623e-13
2.36389e-13
4.99561e-13
1.67891e-12
4.60652e-12
7.24168e-12
1.01779e-11
2.55221e-11
7.2803e-11
2.19879e-10
5.41056e-10
3.19499e-09
9.61608e-09
1.13481e-08
-1.84066e-09
-3.42399e-08
1.08518e-06
4.41494e-06
8.58486e-06
1.13387e-05
1.21243e-05
1.27762e-05
-2.95943e-05
-0.000352608
-0.0024483
-0.0073836
-0.0154417
-0.0256447
-0.0372296
-0.0486658
-0.0596005
-0.0687416
-0.0777585
-0.105362
-0.142531
-0.16017
-0.133549
-0.085305
-0.0389326
-0.013629
-0.00500616
-0.00230323
-0.00111843
-0.000529813
-0.000245565
-0.000112663
-5.09627e-05
-2.25586e-05
-9.72937e-06
-4.07413e-06
-1.64911e-06
-6.39598e-07
-2.3404e-07
-7.81554e-08
-2.124e-08
-1.3894e-09
5.01612e-09
4.36622e-09
2.60245e-09
1.80463e-09
-2.52769e-09
-3.53669e-08
-1.4406e-07
-3.57625e-07
-6.88363e-07
-8.11193e-07
-3.88739e-07
-2.36294e-06
-9.65222e-06
-7.27138e-05
-0.000201775
-0.000293124
-0.000180532
0.000240424
-0.0102639
-0.0543964
-0.143734
-0.224799
-0.284808
-0.311805
-0.306561
-0.280203
-0.245496
-0.212627
-0.189231
-0.181931
-0.191258
-0.213189
-0.239861
-0.25969
-0.262351
-0.256995
-0.237501
-0.203487
-0.161019
-0.114739
-0.0671954
-0.0184754
0.033013
0.0890306
0.149821
0.212792
0.272332
0.320969
0.351703
0.360883
0.349826
0.323717
0.289641
0.255381
0.23009
0.264685
0.427666
0.534595
4.26652e-18
1.94531e-18
1.35858e-18
1.11545e-18
9.24735e-19
7.39758e-19
5.48178e-19
3.10829e-19
-6.26844e-21
-4.27276e-19
-9.59369e-19
-1.58868e-18
-2.28261e-18
-2.99267e-18
-3.65479e-18
-4.18624e-18
-4.47588e-18
-4.37131e-18
-3.65892e-18
-2.1418e-18
4.66103e-19
4.43347e-18
9.54253e-18
1.50297e-17
1.96765e-17
2.11387e-17
1.64373e-17
4.47711e-18
-1.28216e-17
-3.35496e-17
-5.72814e-17
-6.75543e-17
-4.64154e-17
2.96824e-18
4.73321e-17
5.18739e-17
2.38778e-17
-5.95865e-18
-1.92283e-17
-1.9768e-17
-1.81708e-17
-2.03314e-17
-2.67345e-17
-2.72289e-17
-2.15668e-17
-2.88803e-17
-5.07757e-17
-9.30216e-17
-1.59501e-16
-9.36517e-17
-4.30389e-17
-1.81921e-17
-6.84034e-18
-8.45144e-18
4.49573e-17
1.43778e-16
-2.17373e-15
-6.30407e-14
-2.31272e-12
-1.56081e-11
-7.63658e-12
4.59307e-09
4.79602e-08
1.15325e-07
1.51001e-07
1.57264e-07
1.40977e-07
1.02391e-07
5.74081e-08
2.6091e-08
1.13551e-08
5.77189e-09
3.14216e-09
1.73408e-09
9.58347e-10
5.28603e-10
2.89978e-10
1.58097e-10
8.54902e-11
4.58481e-11
2.44788e-11
1.31527e-11
7.15813e-12
4.03722e-12
2.42389e-12
1.68156e-12
1.46998e-12
1.55608e-12
2.77696e-12
5.69237e-12
1.05632e-11
1.21654e-11
2.58737e-11
8.88616e-11
2.5803e-10
5.89399e-10
2.57456e-09
1.04433e-08
1.62313e-08
8.78422e-09
-2.13402e-08
1.15297e-06
4.82106e-06
9.7042e-06
1.32748e-05
1.33778e-05
1.32863e-05
-1.99861e-05
-0.000526922
-0.00278116
-0.00797278
-0.0157791
-0.0260331
-0.036865
-0.0478001
-0.0578245
-0.0669253
-0.0761334
-0.0832893
-0.0951101
-0.123279
-0.154271
-0.170336
-0.15439
-0.112176
-0.0627159
-0.0273666
-0.0108465
-0.005055
-0.0025488
-0.00127103
-0.000615306
-0.000292342
-0.000136874
-6.28523e-05
-2.81181e-05
-1.21936e-05
-5.08046e-06
-1.99493e-06
-6.9985e-07
-1.86294e-07
-3.28928e-09
7.17173e-08
7.98981e-08
7.43055e-08
6.84099e-08
5.56052e-08
-1.35202e-08
-2.15109e-07
-8.25538e-07
-9.14918e-07
1.77249e-06
2.9192e-06
-5.70747e-06
-6.53449e-05
-0.000245816
-0.000325928
-0.000320051
5.48393e-05
-0.0152182
-0.0702276
-0.166758
-0.280359
-0.357003
-0.393765
-0.391542
-0.362415
-0.321838
-0.282796
-0.252828
-0.235415
-0.233398
-0.244432
-0.26007
-0.266668
-0.265295
-0.256485
-0.233047
-0.191356
-0.138208
-0.0810529
-0.0248784
0.028983
0.0822281
0.137716
0.197193
0.259453
0.319589
0.36972
0.401697
0.41186
0.402431
0.376375
0.340076
0.300718
0.263103
0.231091
0.252073
0.424532
0.529436
-9.18371e-19
-5.27721e-19
-3.1789e-19
-2.31772e-19
-1.65285e-19
-9.58167e-20
-1.13353e-20
9.89407e-20
2.35412e-19
3.90724e-19
5.51672e-19
7.01437e-19
8.195e-19
8.79496e-19
8.47804e-19
6.81894e-19
3.29627e-19
-2.67525e-19
-1.15094e-18
-2.32092e-18
-3.69395e-18
-4.91937e-18
-5.17426e-18
-3.55578e-18
3.62089e-19
5.97071e-18
1.1494e-17
1.47153e-17
1.40906e-17
1.03439e-17
7.05675e-18
1.16208e-17
2.02553e-17
1.73042e-17
-2.27685e-19
-1.32809e-17
-1.07807e-17
-1.90561e-18
4.08071e-18
6.22087e-18
6.20293e-18
5.9424e-18
6.32577e-18
5.96314e-18
6.24688e-18
9.42767e-18
1.56633e-17
2.59612e-17
3.51511e-17
1.95758e-17
7.79454e-18
2.81889e-18
7.93281e-19
-3.59255e-19
-5.76491e-18
8.31141e-17
1.17979e-16
-5.2543e-15
-9.03603e-14
-1.66326e-12
-1.30521e-11
-2.82106e-11
2.25492e-09
3.12963e-08
8.2344e-08
1.31395e-07
1.64613e-07
1.73842e-07
1.46811e-07
1.00495e-07
5.44214e-08
2.69098e-08
1.47914e-08
8.71036e-09
5.20715e-09
3.09811e-09
1.82501e-09
1.06439e-09
6.13324e-10
3.49059e-10
1.96851e-10
1.10812e-10
6.23026e-11
3.55401e-11
2.08536e-11
1.3015e-11
8.71376e-12
6.21761e-12
5.68958e-12
4.3855e-12
-1.22193e-12
1.13716e-11
8.70908e-11
3.27676e-10
7.91666e-10
2.17337e-09
1.06133e-08
1.9832e-08
1.95625e-08
-5.23168e-09
1.26175e-06
5.32063e-06
1.08737e-05
1.52204e-05
1.57577e-05
1.26193e-05
-1.26386e-05
-0.000689211
-0.00307659
-0.00821463
-0.0157615
-0.0250392
-0.0350645
-0.0440768
-0.0514997
-0.0578266
-0.0633017
-0.0694462
-0.0774499
-0.0863118
-0.102386
-0.130145
-0.160072
-0.17661
-0.174702
-0.143816
-0.0974808
-0.0537926
-0.025344
-0.0116072
-0.00587405
-0.00308178
-0.00158805
-0.000792581
-0.000386582
-0.000185199
-8.69679e-05
-3.97651e-05
-1.74901e-05
-7.12531e-06
-2.38017e-06
-2.83388e-07
4.84225e-07
8.19243e-07
9.26786e-07
9.78511e-07
9.75468e-07
8.04157e-07
4.07598e-07
1.30735e-06
9.65381e-06
1.76691e-05
7.62853e-06
-4.54459e-05
-0.000271276
-0.000442962
-0.000516138
-0.000178891
-0.0214628
-0.0904337
-0.201452
-0.323973
-0.424708
-0.468903
-0.464129
-0.430777
-0.382384
-0.335088
-0.298815
-0.276766
-0.268197
-0.269142
-0.270898
-0.270285
-0.26487
-0.250097
-0.21807
-0.164749
-0.0989247
-0.0293739
0.0371758
0.0977538
0.153244
0.206885
0.261742
0.318248
0.372287
0.415423
0.435251
0.437103
0.428974
0.406427
0.371587
0.329048
0.284734
0.245453
0.214102
0.235515
0.422863
0.501776
-1.37432e-20
1.12248e-19
6.25524e-20
3.94566e-20
1.67148e-20
-1.10142e-20
-4.4905e-20
-8.3698e-20
-1.23413e-19
-1.58726e-19
-1.83488e-19
-1.90653e-19
-1.71139e-19
-1.13212e-19
-2.95535e-21
1.72571e-19
4.16309e-19
7.06257e-19
9.81395e-19
1.12386e-18
8.52419e-19
-1.06474e-19
-1.56924e-18
-2.72189e-18
-2.70353e-18
-1.12555e-18
1.57047e-18
4.24004e-18
6.42764e-18
8.65081e-18
1.0566e-17
9.19492e-18
2.81392e-18
-3.14851e-18
-2.02536e-18
2.43344e-18
3.24076e-18
1.14192e-18
-7.58361e-19
-1.69349e-18
-1.77435e-18
-1.53051e-18
-1.43704e-18
-1.4903e-18
-1.98933e-18
-3.12141e-18
-4.72556e-18
-6.68823e-18
-6.90193e-18
-3.46943e-18
-1.23013e-18
-3.94041e-19
-3.98534e-20
1.647e-20
-5.02568e-19
-1.63997e-17
5.49892e-17
-2.02032e-17
-7.86542e-15
-1.76833e-13
-1.45011e-12
-6.63819e-12
-1.97707e-11
1.5196e-09
1.92712e-08
6.46667e-08
1.32456e-07
2.02635e-07
2.40591e-07
2.33122e-07
1.86016e-07
1.20034e-07
7.12957e-08
4.3543e-08
2.73507e-08
1.72697e-08
1.0793e-08
6.65632e-09
4.04532e-09
2.42264e-09
1.4343e-09
8.4572e-10
4.97147e-10
2.93223e-10
1.7109e-10
9.76551e-11
5.30588e-11
1.96864e-11
-2.75822e-11
-6.05297e-11
-4.42221e-11
5.17904e-11
4.16649e-10
1.19306e-09
2.53734e-09
1.02926e-08
2.54315e-08
3.19681e-08
1.62594e-08
1.42538e-06
5.97323e-06
1.21839e-05
1.71202e-05
1.79487e-05
1.05731e-05
-1.10479e-05
-0.000788835
-0.00334718
-0.00815168
-0.0153544
-0.0232541
-0.0318936
-0.0384474
-0.0447586
-0.0455929
-0.0463146
-0.0479924
-0.0516252
-0.0581712
-0.0676914
-0.0800523
-0.0999698
-0.129306
-0.16058
-0.180609
-0.1916
-0.17789
-0.141699
-0.0957822
-0.0552617
-0.0285704
-0.0144318
-0.00762679
-0.00410758
-0.00218941
-0.00113723
-0.000577795
-0.000287923
-0.00014065
-6.64655e-05
-2.92071e-05
-1.04051e-05
-7.4315e-07
4.16811e-06
7.47199e-06
9.7207e-06
1.13517e-05
1.60395e-05
2.75104e-05
4.61045e-05
6.05595e-05
4.2196e-05
-2.66712e-05
-0.000263061
-0.000577118
-0.000545765
-0.0013728
-0.0295788
-0.114434
-0.242297
-0.375799
-0.481006
-0.531436
-0.523059
-0.483242
-0.423093
-0.365103
-0.320673
-0.293306
-0.279926
-0.274582
-0.271296
-0.266691
-0.257109
-0.234682
-0.189728
-0.125855
-0.0501515
0.0291697
0.104943
0.172896
0.23232
0.285277
0.33452
0.380576
0.419283
0.439054
0.443589
0.441851
0.434385
0.415604
0.383066
0.340001
0.289089
0.237616
0.198582
0.176087
0.218599
0.43035
0.369933
1.01518e-19
-2.09155e-20
-9.03865e-21
-2.47884e-21
5.70228e-21
1.54466e-20
2.57669e-20
3.52146e-20
4.20698e-20
4.44349e-20
4.00734e-20
2.61458e-20
-7.76344e-22
-4.35611e-20
-1.01591e-19
-1.6595e-19
-2.14665e-19
-2.09533e-19
-9.74245e-20
1.59293e-19
4.79427e-19
5.84374e-19
2.26468e-19
-5.20929e-19
-1.27781e-18
-1.61525e-18
-1.3845e-18
-8.05276e-19
-3.04282e-19
-4.5975e-19
-1.56449e-18
-2.77383e-18
-2.25029e-18
-1.9771e-19
5.71751e-19
-3.84684e-19
-8.51552e-19
-4.06899e-19
1.19551e-19
4.09976e-19
4.41818e-19
3.61612e-19
3.34699e-19
4.08856e-19
6.36671e-19
9.81238e-19
1.31753e-18
1.54183e-18
1.23153e-18
5.50207e-19
1.80938e-19
5.18211e-20
-2.41603e-21
-9.38975e-20
3.57618e-20
4.77243e-18
2.61651e-17
7.31797e-17
-9.1285e-16
-3.92111e-14
-7.58292e-13
-5.18527e-12
-4.87584e-12
6.85581e-11
2.13211e-09
1.94179e-08
7.54442e-08
1.81987e-07
3.07846e-07
4.04147e-07
4.44101e-07
3.99433e-07
2.96383e-07
2.01558e-07
1.34248e-07
8.88043e-08
5.81017e-08
3.75393e-08
2.39106e-08
1.5013e-08
9.32979e-09
5.76823e-09
3.5337e-09
2.1572e-09
1.31035e-09
7.84768e-10
4.24659e-10
1.10505e-10
-9.52246e-11
-1.30531e-10
-2.75173e-12
4.78541e-10
1.70358e-09
3.87413e-09
1.13906e-08
3.06573e-08
4.16186e-08
6.14044e-08
1.68498e-06
6.7742e-06
1.37852e-05
1.90623e-05
2.00137e-05
1.38731e-05
-4.28159e-05
-0.000863166
-0.00350941
-0.00804463
-0.0142799
-0.0214867
-0.0273373
-0.0337595
-0.0339831
-0.0328273
-0.0311604
-0.0297194
-0.0291554
-0.0303708
-0.0340487
-0.0414938
-0.0522715
-0.0676462
-0.0904763
-0.122076
-0.15517
-0.184192
-0.202314
-0.209102
-0.189282
-0.150245
-0.105603
-0.0660338
-0.0373584
-0.0199986
-0.0109158
-0.00607503
-0.00338084
-0.00185486
-0.00100372
-0.000533264
-0.000273673
-0.000131596
-5.21958e-05
-6.27194e-06
2.42935e-05
5.77759e-05
9.49553e-05
0.000133332
0.000160742
0.000165506
0.000124385
-8.77221e-06
-0.000284865
-0.000759662
-0.000821693
-0.00530538
-0.0430076
-0.141796
-0.286698
-0.430679
-0.537483
-0.578869
-0.566337
-0.51639
-0.44349
-0.372075
-0.317528
-0.282906
-0.265311
-0.258741
-0.255578
-0.248272
-0.230331
-0.195821
-0.143828
-0.0763676
0.00155088
0.0831335
0.161879
0.233528
0.296655
0.351336
0.397299
0.429068
0.44187
0.445245
0.443631
0.438018
0.426605
0.404603
0.373341
0.333199
0.281596
0.219345
0.160302
0.126163
0.120659
0.203092
0.426816
0.0438445
-2.19641e-20
6.78635e-22
-6.27822e-22
-2.45825e-21
-4.97135e-21
-7.57612e-21
-9.7147e-21
-1.08751e-20
-1.0526e-20
-8.0237e-21
-2.58347e-21
6.56514e-21
1.94824e-20
3.42001e-20
4.52907e-20
4.34325e-20
1.74149e-20
-3.84103e-20
-1.06934e-19
-1.33678e-19
-6.59078e-20
5.09259e-20
6.79857e-20
-1.26851e-19
-4.94635e-19
-8.94181e-19
-1.20428e-18
-1.38381e-18
-1.41932e-18
-1.21274e-18
-6.42842e-19
1.31616e-19
5.33953e-19
2.21503e-19
-1.12026e-19
4.96145e-20
2.11927e-19
1.27494e-19
-1.04015e-20
-8.97066e-20
-9.95016e-20
-8.14552e-20
-8.09758e-20
-1.15427e-19
-1.94541e-19
-2.84818e-19
-3.34338e-19
-3.20225e-19
-2.05873e-19
-8.31874e-20
-2.69747e-20
-5.90093e-21
-3.59037e-21
7.35538e-20
-4.06536e-19
-9.56521e-19
3.07595e-18
2.93556e-17
8.94774e-18
-1.24482e-14
-2.82298e-13
-1.7858e-12
-1.11421e-12
3.12038e-11
4.24828e-10
4.49872e-09
2.92131e-08
1.13162e-07
2.8797e-07
5.23151e-07
7.32864e-07
8.99172e-07
9.24451e-07
7.87506e-07
5.88824e-07
4.11171e-07
2.79834e-07
1.88199e-07
1.24946e-07
8.19137e-08
5.32016e-08
3.43916e-08
2.21242e-08
1.42244e-08
8.96722e-09
5.43715e-09
3.1186e-09
1.61157e-09
6.75542e-10
3.37414e-10
7.53037e-10
2.3497e-09
6.16382e-09
1.47097e-08
4.00258e-08
6.60556e-08
1.57023e-07
2.10379e-06
7.85178e-06
1.55871e-05
2.1462e-05
2.25573e-05
1.83703e-05
-8.8059e-05
-0.000985818
-0.00349064
-0.00786831
-0.0130326
-0.0190335
-0.0234729
-0.027109
-0.0255938
-0.0227309
-0.0195352
-0.0164695
-0.0140181
-0.012522
-0.0124692
-0.0139847
-0.0180449
-0.0251895
-0.0363046
-0.0526227
-0.0772771
-0.109501
-0.146346
-0.182594
-0.20979
-0.227214
-0.236512
-0.211488
-0.168738
-0.125171
-0.0853931
-0.0538272
-0.031493
-0.0178871
-0.0102885
-0.0059866
-0.00349651
-0.002031
-0.00116761
-0.000631115
-0.000283965
-6.68793e-05
9.82573e-05
0.000250666
0.000318863
0.00029903
0.000246466
3.42449e-05
-0.000397365
-0.0011404
-0.00147651
-0.0118323
-0.0622302
-0.175957
-0.332183
-0.486207
-0.589302
-0.618757
-0.599358
-0.534493
-0.447245
-0.360531
-0.29216
-0.248354
-0.223369
-0.209784
-0.200763
-0.18967
-0.168319
-0.133016
-0.0831733
-0.0208003
0.0499912
0.124154
0.196913
0.264584
0.324703
0.375628
0.415698
0.440379
0.443832
0.442244
0.437371
0.425661
0.403613
0.373439
0.339869
0.303517
0.258769
0.197787
0.123238
0.060172
0.037836
0.0581176
0.197883
0.398888
-0.332864
-4.18695e-21
2.54804e-21
1.41515e-21
1.74044e-21
2.27789e-21
2.71184e-21
2.84968e-21
2.54549e-21
1.63594e-21
-7.56049e-23
-2.72259e-21
-6.10993e-21
-9.29236e-21
-1.03022e-20
-6.50846e-21
4.00598e-21
1.99589e-20
3.41304e-20
3.4917e-20
1.96373e-20
9.78991e-21
2.89439e-20
6.2099e-20
6.49643e-20
1.54849e-20
-5.95338e-20
-1.0352e-19
-6.86345e-20
4.61475e-20
1.69108e-19
1.7776e-19
3.64932e-20
-1.09362e-19
-8.23625e-20
1.76637e-20
-8.41701e-22
-5.01478e-20
-3.81499e-20
-3.18663e-21
1.78793e-20
2.10325e-20
1.80448e-20
1.99081e-20
3.20281e-20
5.58153e-20
7.62757e-20
7.81146e-20
6.17255e-20
3.34877e-20
1.28574e-20
4.43877e-21
3.32455e-22
3.02406e-21
-2.939e-20
1.97292e-19
-4.3732e-19
-2.34967e-18
8.93448e-18
1.09424e-16
-4.26331e-16
-1.38916e-14
-1.91829e-13
-1.05531e-12
2.4793e-11
1.57373e-10
9.72154e-10
6.46887e-09
3.94612e-08
1.60161e-07
4.39654e-07
8.19807e-07
1.27273e-06
1.61916e-06
1.8134e-06
1.75996e-06
1.50346e-06
1.17276e-06
8.61871e-07
6.02181e-07
4.06481e-07
2.70762e-07
1.79412e-07
1.18027e-07
7.73676e-08
5.04719e-08
3.34744e-08
2.18676e-08
1.23238e-08
6.10173e-09
3.74002e-09
4.79547e-09
1.02769e-08
2.40493e-08
5.97587e-08
1.12701e-07
3.74945e-07
2.75121e-06
9.33267e-06
1.77647e-05
2.39441e-05
2.46369e-05
2.08945e-05
-0.000116988
-0.00108965
-0.00346666
-0.0073425
-0.0120884
-0.016082
-0.0204308
-0.0199296
-0.0175324
-0.0143368
-0.0110207
-0.00802875
-0.00570951
-0.00412184
-0.00317772
-0.0029195
-0.00316285
-0.00433064
-0.0071459
-0.012865
-0.0225127
-0.0385451
-0.0625567
-0.0948057
-0.134089
-0.175749
-0.213808
-0.244045
-0.265502
-0.269419
-0.243188
-0.202887
-0.160401
-0.11956
-0.0831648
-0.0542492
-0.0336231
-0.020282
-0.0121807
-0.00732777
-0.00436921
-0.00261706
-0.001455
-0.000472201
0.000113474
0.000331542
0.000307242
5.02794e-05
-0.000602769
-0.00175853
-0.00305486
-0.022658
-0.0891187
-0.218912
-0.383755
-0.540687
-0.632803
-0.650673
-0.623557
-0.545405
-0.435526
-0.334225
-0.253842
-0.199278
-0.166776
-0.145617
-0.128388
-0.110875
-0.0894877
-0.0587128
-0.0176384
0.0323138
0.0883418
0.146995
0.204985
0.259901
0.310337
0.355168
0.392411
0.417959
0.426784
0.426423
0.416502
0.394637
0.362429
0.323918
0.284667
0.248417
0.212021
0.164098
0.0936012
0.0089443
-0.0514025
-0.0546785
0.00801477
0.206161
0.338366
-0.408478
2.95709e-21
-1.58775e-21
-7.86815e-22
-7.59375e-22
-7.96343e-22
-7.78578e-22
-6.48632e-22
-3.64869e-22
1.17412e-22
8.19561e-22
1.65489e-21
2.31397e-21
2.22731e-21
7.61352e-22
-2.33016e-21
-6.39781e-21
-9.71155e-21
-1.01298e-20
-7.02697e-21
-2.77035e-21
1.51445e-21
1.24403e-20
3.65893e-20
6.93075e-20
9.88951e-20
1.18002e-19
1.24359e-19
1.12846e-19
7.58389e-20
2.03499e-20
-1.75547e-20
-7.15084e-21
2.61023e-20
2.67263e-20
-1.17092e-21
-2.74366e-21
1.10489e-20
1.10445e-20
2.52017e-21
-3.19756e-21
-4.31812e-21
-4.01511e-21
-4.86778e-21
-8.6045e-21
-1.50699e-20
-1.91097e-20
-1.72467e-20
-1.15383e-20
-5.5727e-21
-2.17289e-21
-8.33547e-22
3.68292e-23
-7.35866e-22
6.95606e-21
-4.47207e-20
7.13144e-20
-5.23139e-19
6.41125e-18
6.75978e-17
3.05779e-17
-3.17169e-15
-1.05706e-13
-6.78627e-13
2.06719e-12
3.63312e-11
5.23934e-10
-6.16352e-10
3.53067e-09
3.66863e-08
1.92768e-07
5.5816e-07
1.14159e-06
1.82158e-06
2.4542e-06
2.93909e-06
3.01218e-06
2.83128e-06
2.48002e-06
2.05555e-06
1.61398e-06
1.21085e-06
8.73369e-07
6.05931e-07
4.0688e-07
2.63557e-07
1.61201e-07
9.29295e-08
5.41575e-08
3.14988e-08
2.02468e-08
2.35127e-08
4.56638e-08
1.02241e-07
1.93711e-07
8.08713e-07
3.84351e-06
1.11923e-05
2.06307e-05
2.64834e-05
2.68645e-05
2.2436e-05
-0.000162982
-0.00114463
-0.00352199
-0.00676968
-0.0109029
-0.0139255
-0.0162261
-0.0147605
-0.0118843
-0.00863654
-0.00564847
-0.00342334
-0.00206021
-0.00134713
-0.000988416
-0.000796553
-0.000643898
-0.000538175
-0.000532189
-0.000735181
-0.00181117
-0.00498412
-0.0124788
-0.026679
-0.0489277
-0.0802615
-0.120389
-0.165343
-0.211559
-0.258441
-0.289129
-0.324735
-0.313478
-0.287209
-0.252115
-0.211637
-0.169565
-0.129499
-0.0940448
-0.0650605
-0.0433077
-0.0276218
-0.0157453
-0.00796752
-0.00406861
-0.00184533
-0.000469253
-0.000264109
-0.00111303
-0.00277601
-0.00913599
-0.0411144
-0.126749
-0.271991
-0.440646
-0.592358
-0.668984
-0.674239
-0.635687
-0.540427
-0.419104
-0.29921
-0.209506
-0.14818
-0.109501
-0.0851291
-0.0649033
-0.0442023
-0.0216856
0.00362176
0.0343099
0.0698898
0.108525
0.147937
0.186208
0.222313
0.256141
0.287963
0.317483
0.342936
0.360861
0.366475
0.359046
0.337595
0.303736
0.261322
0.216594
0.175897
0.141523
0.106771
0.0558635
-0.0230978
-0.113366
-0.163437
-0.141726
-0.0279103
0.208076
0.240689
-0.335993
-6.92912e-22
5.27138e-22
3.04358e-22
2.54911e-22
2.25284e-22
1.76194e-22
9.24455e-23
-3.64025e-23
-2.14469e-22
-4.17839e-22
-5.63113e-22
-5.01196e-22
-7.9741e-23
7.30665e-22
1.73489e-21
2.5381e-21
2.70753e-21
1.99478e-21
5.70548e-22
-1.04149e-21
-2.6112e-21
-3.25573e-21
-6.25266e-22
6.10262e-21
1.36126e-20
1.6502e-20
1.17185e-20
1.60679e-21
-6.28485e-21
-4.95835e-21
1.4799e-21
9.84372e-22
-6.75073e-21
-8.27524e-21
-7.40354e-22
1.36378e-21
-2.18761e-21
-3.079e-21
-1.12619e-21
4.67301e-22
8.84154e-22
9.09966e-22
1.1773e-21
2.23838e-21
3.87044e-21
4.57251e-21
3.71716e-21
2.19798e-21
1.00122e-21
4.16202e-22
1.7003e-22
1.9349e-23
-2.22261e-22
4.95685e-22
4.98411e-21
8.90312e-21
-3.23159e-19
-3.40334e-18
5.0763e-18
1.34797e-16
2.26426e-16
-2.4569e-15
-5.75522e-14
-2.92912e-12
-1.25617e-11
7.32741e-11
-1.83011e-10
-1.07191e-09
-6.84128e-09
1.73463e-08
1.71171e-07
5.83718e-07
1.30747e-06
2.19212e-06
3.08032e-06
3.76454e-06
4.32084e-06
4.18932e-06
3.89297e-06
3.46577e-06
2.95522e-06
2.4147e-06
1.88726e-06
1.41236e-06
1.00387e-06
6.72292e-07
4.18991e-07
2.37113e-07
1.22318e-07
8.04285e-08
1.04184e-07
2.05719e-07
3.77359e-07
1.53218e-06
5.75177e-06
1.38446e-05
2.37158e-05
2.91815e-05
2.84973e-05
2.33036e-05
-0.000225088
-0.00120577
-0.00349662
-0.00647991
-0.00939378
-0.0123183
-0.0120081
-0.0100633
-0.00734687
-0.00459927
-0.00252941
-0.001344
-0.000793616
-0.000524634
-0.00036974
-0.000271187
-0.000204005
-0.000154345
-0.000121149
-0.000103001
-0.000105563
-0.000191022
-0.000518745
-0.00150611
-0.00630263
-0.0175854
-0.0373631
-0.0668953
-0.10618
-0.153996
-0.210929
-0.265181
-0.317957
-0.361239
-0.380027
-0.374416
-0.352828
-0.318603
-0.275774
-0.228632
-0.180824
-0.136502
-0.0972692
-0.0642102
-0.0385406
-0.0199979
-0.00815819
-0.00284209
-0.00292848
-0.00598348
-0.022918
-0.0715667
-0.176156
-0.331225
-0.50391
-0.635771
-0.694946
-0.689498
-0.635816
-0.521822
-0.3887
-0.264614
-0.165
-0.101513
-0.0627556
-0.0389577
-0.0217757
-0.00458889
0.0143622
0.035038
0.0571542
0.0806765
0.104367
0.126856
0.147114
0.165056
0.18139
0.197205
0.213428
0.230053
0.245477
0.25642
0.258682
0.248743
0.225152
0.189484
0.146263
0.102097
0.063216
0.0309556
-0.00339574
-0.0580529
-0.143892
-0.234841
-0.268635
-0.218898
-0.0550447
0.191359
0.0590287
0.121634
9.22384e-23
-8.03363e-23
-8.99496e-23
-6.77676e-23
-4.99368e-23
-2.57012e-23
7.98276e-24
5.20977e-23
1.01636e-22
1.37212e-22
1.2205e-22
1.75115e-23
-1.83217e-22
-4.29615e-22
-6.26684e-22
-6.79235e-22
-5.30574e-22
-2.0086e-22
1.28528e-22
1.05335e-22
-6.18888e-22
-2.25666e-21
-4.46119e-21
-6.35643e-21
-7.38762e-21
-7.55108e-21
-6.7092e-21
-4.53197e-21
-1.6263e-21
3.15313e-23
-3.00834e-22
-1.6028e-22
1.73814e-21
2.4424e-21
4.84682e-22
-4.76265e-22
3.58225e-22
8.21029e-22
4.17785e-22
-2.84161e-23
-1.8198e-22
-2.11812e-22
-2.83958e-22
-5.6738e-22
-9.58798e-22
-1.0681e-21
-8.06576e-22
-4.44003e-22
-2.001e-22
-8.88538e-23
-3.47798e-23
-2.53614e-23
2.57961e-22
-1.21846e-21
3.30208e-21
3.1286e-21
3.74603e-20
-9.0107e-19
3.83425e-18
3.59668e-17
-3.40162e-17
-1.64345e-15
-1.4581e-14
-6.9911e-14
-3.1169e-12
-3.97537e-11
-4.45292e-11
-6.31845e-10
-4.65138e-09
-1.50446e-08
-2.4386e-08
8.32899e-08
4.77588e-07
1.21625e-06
2.2556e-06
3.3504e-06
4.22217e-06
4.96809e-06
5.00793e-06
4.84514e-06
4.48295e-06
3.9548e-06
3.31419e-06
2.63151e-06
1.96587e-06
1.37009e-06
8.8211e-07
5.34641e-07
3.4804e-07
3.40773e-07
4.86952e-07
1.02723e-06
3.09614e-06
8.55147e-06
1.7903e-05
2.70044e-05
3.18111e-05
2.95078e-05
2.15452e-05
-0.000283213
-0.00136335
-0.00337547
-0.00623753
-0.00833333
-0.0100916
-0.00921197
-0.00706737
-0.00449899
-0.00237054
-0.00110491
-0.000559782
-0.000327206
-0.000207229
-0.000139192