/*--------------------------------*- C++ -*----------------------------------*\
| =========                 |                                                 |
| \\      /  F ield         | OpenFOAM: The Open Source CFD Toolbox           |
|  \\    /   O peration     | Version:  2506                                  |
|   \\  /    A nd           | Website:  www.openfoam.com                      |
|    \\/     M anipulation  |                                                 |
\*---------------------------------------------------------------------------*/
FoamFile
{
    version     2.0;
    format      ascii;
    arch        "LSB;label=32;scalar=64";
    class       volVectorField;
    location    "3.55";
    object      vorticityField;
}
// * * * * * * * * * * * * * * * * * * * * * * * * * * * * * * * * * * * * * //

dimensions      [0 0 -1 0 0 0 0];

internalField   nonuniform List<vector> 
4000
(
(5.07833e-19 1.27399e-19 41.6659)
(8.52132e-20 9.18991e-20 45.2715)
(1.83162e-19 5.52415e-19 39.6278)
(6.03468e-19 8.23025e-19 34.3609)
(-7.96307e-19 9.79744e-19 31.0079)
(5.51435e-20 1.13793e-20 28.6749)
(5.21273e-19 1.03674e-18 26.8548)
(-8.06183e-20 1.16731e-18 25.3967)
(-1.01139e-19 3.85769e-20 24.2032)
(-6.15158e-20 -5.84595e-19 23.1991)
(5.1461e-19 2.75652e-17 22.3364)
(-2.11536e-18 -5.04352e-17 21.5838)
(1.37811e-18 2.34706e-17 20.919)
(-1.37628e-18 -2.56139e-17 20.3255)
(2.07295e-18 2.48358e-17 19.7908)
(-1.59012e-18 1.22648e-18 19.305)
(1.31257e-18 2.63437e-17 18.86)
(-1.69697e-18 -2.49532e-17 18.4489)
(-9.68245e-19 6.92098e-19 18.0657)
(1.62095e-18 5.01177e-20 17.7048)
(-1.23547e-19 5.1708e-20 17.3605)
(-2.20935e-18 -1.3048e-18 17.0272)
(2.06432e-18 -1.3997e-18 16.6988)
(2.22245e-18 1.83461e-20 16.3681)
(-2.35108e-18 -1.30709e-18 16.0271)
(-1.53427e-19 -1.43873e-18 15.6653)
(-2.92632e-18 -8.2085e-20 15.2697)
(3.62958e-19 -3.05163e-18 14.8225)
(9.30337e-18 5.52997e-17 14.2993)
(-3.27378e-18 -5.02886e-17 13.626)
(-4.51807e-18 5.00091e-18 12.6946)
(-1.15523e-17 -1.30649e-16 11.9496)
(6.81115e-18 1.38155e-16 11.8943)
(-1.59008e-17 -6.5157e-17 12.6092)
(1.11645e-17 -2.51121e-16 13.9935)
(1.50175e-16 9.9225e-16 15.9658)
(3.19121e-17 3.56908e-17 18.2118)
(-6.70581e-17 -1.54897e-16 22.178)
(-6.62352e-19 -4.56538e-17 28.4553)
(1.96927e-17 5.42745e-17 35.248)
(-6.44592e-17 -1.8508e-16 41.8464)
(2.45665e-16 6.44536e-16 47.8968)
(-2.5295e-18 1.35783e-17 53.2809)
(4.24646e-16 3.75256e-16 57.9485)
(-2.0042e-16 -9.77979e-17 61.8436)
(6.50468e-18 4.09816e-16 64.9831)
(2.89001e-17 1.4127e-16 67.2853)
(-4.9641e-17 -4.49982e-16 68.9052)
(-3.50878e-16 -2.61952e-16 69.9534)
(-2.30146e-16 -1.89392e-16 70.6129)
(-3.77142e-17 -7.44843e-17 70.9924)
(4.47615e-18 8.45249e-18 70.8176)
(1.57961e-17 -2.54081e-17 70.6476)
(3.50803e-17 4.36698e-16 69.8508)
(-1.11428e-16 4.19368e-16 68.4064)
(-1.94046e-17 -3.7836e-16 65.5977)
(-5.65842e-17 -8.07596e-17 61.5815)
(1.1917e-17 1.24053e-17 55.7897)
(-1.43847e-18 3.16065e-18 48.1539)
(2.67079e-18 -3.65813e-17 39.9694)
(1.24122e-17 -7.8014e-17 32.3635)
(3.00684e-17 1.62638e-16 25.731)
(-2.4108e-17 4.53983e-16 20.2877)
(4.35385e-17 -3.99264e-16 16.2813)
(5.90219e-19 1.29067e-17 13.1809)
(-2.55567e-18 2.23625e-18 10.9328)
(3.96693e-19 -3.56572e-18 9.2286)
(1.00217e-17 -1.17651e-16 7.91875)
(2.17672e-17 -9.34548e-16 6.91942)
(4.31676e-17 -4.97731e-16 6.12765)
(-1.47186e-18 5.41964e-17 5.48064)
(-4.73573e-17 4.55687e-16 4.9367)
(9.19628e-19 -4.46941e-16 4.47588)
(-1.07233e-17 4.3859e-17 4.07869)
(-3.30794e-17 4.34455e-16 3.73014)
(2.06046e-17 -4.58524e-16 3.4197)
(4.07198e-17 -4.65273e-16 3.14032)
(8.4794e-18 -3.62943e-16 2.88835)
(-1.81497e-18 2.4457e-17 2.66809)
(-1.57975e-17 1.5247e-17 2.46881)
(1.34267e-17 1.37495e-17 2.28897)
(-1.13298e-17 3.25399e-16 2.13443)
(3.96615e-19 -2.38115e-17 2.01805)
(7.79794e-18 -2.77554e-16 1.92976)
(4.67857e-19 2.72745e-16 1.8885)
(-4.82668e-20 -6.5499e-18 1.90187)
(5.1322e-20 -1.22042e-19 1.99602)
(4.75898e-20 1.20819e-17 2.15368)
(3.43515e-19 4.9365e-17 2.36605)
(2.21609e-18 -1.02908e-16 2.64346)
(-1.27735e-19 -2.51499e-18 2.98098)
(9.22656e-18 -1.91621e-17 3.38283)
(9.31074e-18 -1.13152e-17 3.75817)
(-1.22502e-17 -3.08641e-17 4.06949)
(3.1099e-17 3.45829e-16 4.17429)
(1.76537e-17 3.42269e-16 4.07868)
(3.37184e-17 4.22788e-16 3.82905)
(2.08225e-17 4.17568e-17 3.54398)
(1.31238e-17 3.56443e-16 3.33097)
(1.46436e-17 4.5014e-16 3.32824)
(-7.88355e-19 -1.02215e-17 3.66182)
(5.0763e-17 4.40717e-16 4.38934)
(5.13136e-17 9.5518e-16 5.51765)
(3.60862e-18 6.11534e-17 7.0212)
(6.04118e-17 4.51785e-16 8.84558)
(2.0588e-18 7.06619e-17 10.9384)
(-2.53631e-17 -3.65622e-16 13.2793)
(-2.8826e-17 -3.88896e-16 15.8598)
(1.87437e-17 -3.49554e-17 18.6672)
(2.46438e-17 4.45379e-17 21.7577)
(-8.085e-17 -3.67289e-16 25.1676)
(5.53758e-17 2.69065e-16 28.4496)
(7.24086e-19 -7.64558e-18 31.8261)
(8.73528e-17 6.71196e-16 34.3351)
(7.84188e-18 2.12429e-16 35.8941)
(2.62249e-17 3.20447e-16 35.9547)
(8.21451e-20 7.17384e-18 34.1334)
(-1.42047e-19 9.62504e-17 30.7206)
(1.09463e-18 -1.04937e-17 26.5988)
(-2.57243e-20 -6.53017e-20 22.288)
(-1.60345e-18 -2.21616e-18 18.4664)
(3.82658e-17 -3.47088e-16 15.4058)
(-2.14458e-17 4.88674e-16 13.0122)
(-2.27052e-19 2.753e-17 11.1248)
(-3.13468e-17 3.39258e-16 9.60493)
(4.8967e-17 -8.76915e-16 8.4274)
(-4.42499e-17 5.03913e-16 7.47571)
(-3.53538e-19 -4.60137e-16 6.67866)
(-2.75269e-17 8.3645e-17 6.01148)
(1.94237e-17 -4.03968e-16 5.44841)
(1.04708e-18 5.71255e-17 4.96324)
(-4.56906e-17 4.85021e-16 4.53879)
(3.3822e-17 -1.22616e-16 4.16242)
(-2.93863e-17 5.01825e-16 3.82658)
(-1.76402e-17 -1.34784e-17 3.52679)
(-2.42192e-18 -2.2963e-17 3.25583)
(1.98035e-17 -3.68205e-16 3.00882)
(-2.24213e-17 3.78569e-16 2.78052)
(1.41731e-18 -2.28047e-17 2.57875)
(1.14032e-17 6.60697e-18 2.4092)
(-9.21938e-18 3.06654e-16 2.25388)
(2.11327e-18 -7.27623e-17 2.13614)
(-1.90737e-17 3.34387e-16 2.05807)
(1.30964e-18 -1.60204e-17 2.02995)
(1.31023e-18 -1.8117e-16 2.08061)
(1.51246e-18 -1.13294e-16 2.2136)
(1.0323e-18 8.7806e-17 2.43004)
(-1.1087e-18 -6.03023e-17 2.73265)
(2.17427e-18 -1.92308e-18 3.11383)
(4.285e-18 6.66692e-17 3.61215)
(3.28234e-18 2.42027e-17 4.14527)
(-2.46537e-17 -4.92988e-16 4.62862)
(5.13876e-18 5.97347e-17 4.95725)
(8.0927e-18 3.46094e-17 5.12325)
(1.37089e-17 3.09155e-16 5.05755)
(1.45855e-17 1.22419e-16 4.89443)
(-3.66665e-18 1.66995e-18 4.76767)
(-2.58926e-17 -2.8428e-17 4.83924)
(1.64289e-17 7.28e-17 5.27288)
(-5.01306e-17 -9.62515e-16 6.21259)
(5.80112e-19 2.6244e-17 7.82684)
(4.47832e-17 4.51756e-16 10.1708)
(1.76098e-17 4.70894e-16 13.6586)
(7.05336e-18 4.17926e-17 14.9162)
(-3.43734e-17 -3.98929e-16 16.7531)
(-4.682e-17 -6.34806e-16 18.362)
(-6.75322e-18 -2.77452e-17 19.7755)
(-9.20042e-18 -6.21614e-17 20.7657)
(-1.13563e-17 -2.28117e-16 21.0448)
(-4.77479e-18 -6.75924e-17 20.3048)
(-2.04686e-18 -1.78519e-18 18.9589)
(-4.65852e-21 -8.85778e-19 18.0242)
(-9.3475e-19 -8.23637e-21 17.6599)
(9.01059e-19 -8.73196e-19 17.572)
(4.52041e-20 -7.0104e-19 17.5562)
(1.71786e-20 -6.44074e-17 17.5513)
(-3.43963e-20 6.38628e-17 17.5476)
(-1.68173e-19 3.1565e-17 17.5459)
(1.65608e-19 -3.20624e-17 17.5542)
(-2.69836e-20 2.99308e-17 17.5838)
(3.29945e-19 -6.28347e-17 17.6438)
(-2.47138e-19 3.04623e-17 17.7407)
(-5.62706e-19 -2.41297e-19 17.8799)
(5.72914e-19 -8.11974e-19 18.0626)
(-5.46226e-20 2.28802e-19 18.287)
(1.60099e-18 -3.01802e-17 18.5527)
(-1.66065e-18 2.88737e-17 18.8607)
(2.05033e-18 -2.92054e-17 19.2127)
(-2.08458e-18 2.87499e-17 19.6128)
(1.1735e-18 -1.54095e-17 20.0702)
(-1.24033e-18 1.40381e-17 20.5995)
(7.50425e-20 -1.20708e-18 21.2249)
(-1.04415e-19 -6.72526e-19 21.9849)
(-1.03362e-18 -1.27265e-20 22.9453)
(1.17923e-18 -7.0378e-19 24.2252)
(-1.49922e-19 -1.19873e-18 26.0546)
(9.0019e-19 -5.54053e-18 28.9373)
(-7.15774e-19 6.77343e-18 34.1059)
(-8.50122e-21 -7.99492e-19 42.2119)
(-3.69776e-20 -5.09796e-20 39.7584)
(-9.66877e-20 -3.22325e-19 -1.95136)
(1.43251e-20 -1.1649e-19 12.4426)
(-7.40643e-20 -8.96776e-19 15.458)
(1.1641e-18 1.91197e-18 15.8254)
(-2.19602e-18 -6.49722e-18 15.4537)
(8.15509e-19 -1.9974e-18 14.8122)
(1.31212e-19 4.10048e-18 14.1277)
(-1.83237e-19 -1.75473e-18 13.4832)
(-5.78959e-20 -1.27185e-18 12.8934)
(1.54828e-19 -1.28973e-18 12.3559)
(-7.37532e-19 -2.00714e-18 11.8665)
(9.76297e-19 -1.74112e-17 11.4209)
(-8.37162e-19 1.62335e-17 11.0148)
(1.99935e-18 -1.65211e-17 10.6444)
(-7.22683e-19 3.13383e-17 10.3061)
(8.16743e-20 -3.52395e-17 9.99687)
(-8.89264e-19 1.40824e-17 9.71386)
(5.21124e-19 -1.72964e-17 9.45452)
(1.80792e-18 -2.31982e-17 9.21644)
(-1.12603e-18 3.16631e-17 8.99731)
(-3.23845e-19 1.63653e-18 8.79482)
(1.65707e-19 -3.84239e-17 8.60654)
(-1.20872e-18 3.27192e-17 8.42981)
(2.33042e-18 3.85684e-17 8.26152)
(1.84367e-18 -3.25833e-17 8.09795)
(-2.13105e-18 -9.48049e-21 7.93453)
(-3.71658e-18 -3.75477e-17 7.76544)
(4.00944e-18 -7.87545e-18 7.58318)
(-1.04591e-18 7.61137e-17 7.3776)
(2.02739e-18 1.26148e-17 7.13338)
(-2.22245e-18 -3.45397e-17 6.79456)
(3.32732e-18 -2.96286e-17 6.2535)
(-1.12108e-17 -1.00445e-16 5.67452)
(-8.31368e-18 -2.47244e-16 5.17907)
(-4.55725e-17 -2.01939e-16 4.77591)
(-1.15115e-16 -3.09107e-16 4.4122)
(1.63081e-17 -6.41364e-17 4.10653)
(8.67428e-17 2.01425e-16 3.91422)
(-1.76364e-17 3.32417e-17 3.8412)
(-1.50538e-16 -1.11852e-16 3.9336)
(-1.30143e-16 -8.25104e-17 4.30057)
(-2.7262e-16 -3.29614e-16 4.8771)
(-3.90379e-17 8.58837e-18 5.58202)
(-5.86794e-16 -5.58441e-16 6.37096)
(3.01457e-16 1.91581e-16 7.20737)
(-3.58199e-16 -1.98721e-16 8.05279)
(2.89404e-16 5.60114e-17 8.88953)
(7.18208e-18 5.73124e-17 9.72349)
(9.72484e-18 4.43321e-17 10.5651)
(3.02181e-16 2.48399e-16 11.3915)
(-3.22957e-16 -7.4298e-17 12.1774)
(3.48706e-17 -6.72308e-17 12.9515)
(2.90106e-16 8.71884e-17 13.8876)
(-9.71782e-17 -3.83995e-17 15.1443)
(2.27122e-16 1.02113e-16 16.7245)
(1.36726e-17 2.48077e-17 18.6898)
(6.37398e-17 4.92594e-17 20.9129)
(-2.59679e-17 -1.35572e-17 23.3593)
(-6.01032e-19 -6.96946e-18 25.2508)
(-3.33872e-18 1.56794e-17 25.7625)
(-1.45794e-17 1.08887e-16 24.7128)
(-3.38108e-17 2.69146e-16 22.286)
(-6.93586e-17 2.60281e-16 19.1739)
(-4.53748e-17 3.74528e-16 16.3997)
(-5.53852e-18 -5.22672e-17 13.6773)
(9.67831e-18 3.74308e-17 11.5068)
(3.19032e-19 -2.63717e-18 9.77572)
(-9.13478e-18 6.26243e-17 8.38581)
(-7.86024e-17 8.67208e-16 7.29577)
(-1.33972e-17 -4.25601e-16 6.43431)
(-1.32732e-18 1.14966e-17 5.74488)
(-1.10318e-17 5.34281e-16 5.17691)
(-5.3207e-17 3.96147e-16 4.70233)
(-3.81995e-17 4.90364e-16 4.29819)
(2.79798e-17 -1.01854e-16 3.94676)
(3.3974e-18 -5.45928e-17 3.63491)
(-2.94839e-17 -3.4952e-16 3.35586)
(-2.85205e-17 4.35374e-16 3.09604)
(1.84282e-19 1.77715e-17 2.86279)
(8.49815e-18 3.07114e-16 2.64686)
(-7.24997e-18 -3.34472e-16 2.44836)
(1.07275e-17 9.48982e-18 2.25128)
(5.1666e-20 -3.44013e-20 2.08065)
(-7.55799e-18 -3.30903e-18 1.90287)
(1.01928e-17 -2.615e-16 1.73428)
(-3.45863e-19 1.47997e-17 1.53073)
(7.72086e-19 -1.4661e-17 1.28627)
(-3.91406e-19 1.54366e-17 0.959973)
(-9.14902e-19 -2.02427e-17 0.557469)
(5.67024e-19 2.51895e-16 0.144489)
(-1.30146e-18 -9.68659e-18 -0.192938)
(-1.25566e-17 -5.52284e-18 -0.390219)
(5.58365e-18 2.94901e-16 -0.457562)
(4.80007e-18 -3.13818e-16 -0.432182)
(3.68973e-18 3.38152e-16 -0.373566)
(-4.90515e-17 -3.74026e-16 -0.239415)
(-3.52243e-17 2.59057e-16 -0.0677395)
(-6.48549e-18 4.22709e-16 0.0456024)
(-3.51208e-17 -3.70239e-16 0.119819)
(-1.60022e-17 -4.34663e-16 0.193029)
(6.36984e-19 -5.92635e-17 0.265394)
(-3.14417e-17 3.95049e-16 0.374591)
(-7.72277e-17 -4.63304e-16 0.530573)
(2.26581e-17 6.9593e-18 0.753016)
(-4.96378e-17 -8.48227e-17 1.06013)
(-2.18084e-18 -6.74985e-17 1.46024)
(8.8009e-17 7.37162e-16 1.9496)
(1.35065e-16 8.55149e-16 2.51202)
(7.70727e-17 4.01048e-16 3.13952)
(5.18222e-17 2.94814e-16 3.84317)
(1.10501e-16 4.29765e-16 4.61779)
(-1.73006e-16 -5.77802e-16 5.42692)
(3.59812e-18 -9.30859e-18 6.3099)
(-1.26739e-16 -2.83041e-16 7.48842)
(7.34064e-19 1.0103e-17 9.07225)
(-2.99839e-17 -1.04218e-16 11.0396)
(-2.26318e-18 -1.39812e-17 13.3327)
(1.22434e-18 -3.81104e-17 15.4095)
(8.12524e-19 -6.0105e-18 16.6236)
(-9.24276e-19 6.88372e-18 16.6714)
(2.70777e-19 1.55635e-17 15.6512)
(-5.58315e-17 3.65082e-16 14.2031)
(1.83133e-17 -2.25683e-17 12.5663)
(5.54657e-18 -5.96769e-17 11.1102)
(7.22744e-17 -3.99808e-16 9.78421)
(-9.59837e-17 5.37959e-16 8.66485)
(1.22242e-17 3.5473e-16 7.72972)
(-7.82317e-17 8.69888e-16 6.93463)
(-7.0595e-17 8.04856e-16 6.25804)
(-2.15085e-17 3.2428e-16 5.68301)
(-6.5965e-18 5.63352e-17 5.18845)
(1.50168e-18 2.84037e-16 4.75718)
(5.11494e-17 -8.16453e-16 4.3764)
(2.4644e-17 1.45999e-16 4.03455)
(-2.16667e-17 2.63674e-16 3.72647)
(-6.57799e-18 -1.36048e-17 3.44555)
(-9.51407e-19 -5.80478e-20 3.18533)
(3.47527e-17 -6.19003e-17 2.94468)
(2.29794e-18 -9.00451e-17 2.71246)
(1.58342e-18 -2.08874e-16 2.50173)
(2.36257e-18 -5.83951e-17 2.30365)
(9.87854e-19 7.37993e-18 2.10121)
(5.02036e-18 1.0461e-16 1.9148)
(6.53255e-18 -1.20882e-16 1.70718)
(-8.64965e-18 1.79645e-16 1.47954)
(-1.98414e-18 -4.05609e-18 1.18545)
(1.75387e-19 5.63327e-17 0.792165)
(-1.62696e-18 -6.04942e-17 0.372947)
(1.3777e-18 1.20267e-16 -0.0161228)
(-1.01257e-17 -2.43598e-18 -0.258239)
(3.65616e-18 2.2846e-18 -0.353492)
(1.47778e-17 1.09089e-17 -0.332264)
(-1.7485e-17 -5.06621e-17 -0.276182)
(2.17713e-17 7.55031e-16 -0.154755)
(-1.24698e-17 1.97906e-16 -0.00316009)
(2.70873e-18 1.08876e-16 0.121253)
(-1.58424e-17 -7.5297e-17 0.221462)
(1.55951e-17 -5.93208e-16 0.327764)
(6.05558e-18 1.46677e-16 0.471415)
(6.94689e-17 5.05669e-16 0.691826)
(1.67935e-17 6.7478e-17 1.02337)
(-5.21812e-17 -3.70198e-16 1.48469)
(-8.27594e-18 6.38649e-17 1.74522)
(1.5997e-17 2.93588e-17 1.50407)
(-1.16946e-17 -3.68356e-16 1.79554)
(6.48738e-17 2.87876e-16 2.19588)
(3.78741e-18 1.59068e-17 2.73966)
(-1.65166e-18 -2.76004e-18 3.46384)
(1.70823e-17 6.44557e-17 4.30689)
(5.06851e-18 5.49843e-17 5.2501)
(-2.41357e-18 -4.58491e-17 5.99092)
(-1.45725e-18 2.89311e-19 6.3528)
(-2.79338e-19 -5.18442e-17 6.52215)
(2.68732e-20 4.96083e-17 6.63194)
(4.64127e-20 2.87973e-18 6.72756)
(6.39827e-20 4.9631e-17 6.8148)
(-1.0217e-20 -7.40592e-19 6.89445)
(2.44644e-20 -2.57662e-17 6.96878)
(-8.04279e-20 -2.19111e-17 7.04202)
(1.75029e-20 -2.25206e-17 7.11875)
(-2.44224e-19 2.3212e-17 7.20565)
(2.92186e-19 -2.8963e-19 7.30867)
(-1.80904e-19 2.24275e-17 7.43036)
(4.88852e-20 -2.37423e-17 7.57332)
(-8.03539e-20 -1.0037e-18 7.73997)
(4.4169e-19 -1.88757e-17 7.9311)
(-3.87936e-19 2.34617e-17 8.14963)
(4.88807e-19 -2.0569e-17 8.39833)
(-1.6813e-18 2.30901e-17 8.68213)
(1.5189e-18 -8.28717e-18 9.00858)
(-3.29216e-19 1.09436e-17 9.3893)
(-3.25273e-19 -7.55777e-19 9.84437)
(2.67587e-20 2.58862e-18 10.4052)
(-5.05475e-19 6.91531e-18 11.1262)
(5.82704e-20 -8.77138e-18 12.0995)
(-7.19297e-20 2.28672e-18 13.472)
(-8.15483e-19 8.70453e-20 15.4065)
(1.07062e-18 -8.12166e-19 17.5905)
(4.19052e-19 6.54591e-19 16.3374)
(-3.94884e-19 -2.13992e-19 -2.72401)
(-2.99528e-19 3.80571e-19 -8.52133)
(-1.90916e-18 2.06439e-19 1.54803)
(9.90862e-19 -7.44741e-19 5.12749)
(-1.16449e-19 2.98431e-19 6.52097)
(1.16244e-19 -4.95836e-19 7.0757)
(1.87903e-18 2.02725e-18 7.23706)
(-2.37058e-18 -1.49764e-18 7.21365)
(5.99722e-19 5.5663e-19 7.10305)
(2.73211e-19 1.05467e-18 6.94849)
(5.39732e-19 2.84024e-18 6.77225)
(2.59303e-19 1.4406e-18 6.58764)
(1.26317e-18 4.20603e-18 6.40289)
(-1.67932e-18 -1.16176e-17 6.22301)
(2.79507e-18 2.32839e-17 6.05101)
(-2.27046e-18 -8.40203e-18 5.88868)
(2.49587e-18 1.3439e-17 5.73701)
(-1.36737e-18 -6.83046e-18 5.59641)
(3.57575e-19 2.27921e-18 5.4669)
(4.85756e-18 2.95924e-17 5.34824)
(-4.76839e-18 -2.21304e-17 5.24002)
(3.80437e-19 -8.74298e-21 5.14167)
(3.98082e-18 7.29825e-18 5.05239)
(-5.09846e-18 -2.98346e-17 4.9711)
(-7.94161e-19 2.507e-17 4.89627)
(2.90475e-18 3.30647e-17 4.82587)
(-4.34223e-18 -1.79812e-17 4.75729)
(4.85273e-18 -3.43831e-17 4.68713)
(1.88028e-18 2.46257e-17 4.61084)
(-3.56913e-18 2.66798e-18 4.5222)
(-3.84894e-18 -4.73282e-20 4.41384)
(7.70347e-18 1.87099e-19 4.26425)
(-4.13584e-19 -1.83697e-17 4.00953)
(2.62088e-17 1.11403e-16 3.68394)
(5.66398e-17 2.2526e-16 3.31937)
(-3.52496e-17 -1.32055e-16 2.90438)
(4.7921e-17 2.7762e-17 2.41794)
(-1.12342e-16 -2.16226e-16 1.8856)
(2.06923e-17 -4.78899e-17 1.41779)
(1.62683e-16 1.73745e-16 1.06446)
(-3.39027e-17 -4.62472e-17 0.84993)
(4.46751e-16 3.54112e-16 0.843163)
(9.59195e-18 1.46361e-16 1.01941)
(-2.06052e-16 -4.29641e-17 1.34039)
(-1.77621e-16 -8.118e-17 1.77351)
(1.78888e-17 -8.5944e-17 2.28886)
(2.57166e-16 2.46249e-16 2.84188)
(-6.41054e-16 -2.49663e-16 3.3738)
(-2.05957e-16 -1.10127e-16 3.90813)
(-5.5578e-17 -1.52328e-17 4.40537)
(-3.31583e-17 -5.11889e-17 4.90822)
(1.78627e-16 1.51539e-16 5.36454)
(-7.78897e-17 -6.99057e-18 5.76599)
(-7.31294e-17 -8.73385e-17 6.13471)
(1.6001e-17 -1.91653e-17 6.58593)
(1.88811e-16 -1.37699e-17 7.22024)
(-7.33376e-17 5.0878e-17 8.07618)
(-8.78398e-17 3.93141e-18 9.19407)
(3.735e-17 -2.35566e-17 10.6139)
(4.68598e-18 5.62906e-18 12.5002)
(2.24123e-19 6.72085e-19 14.3316)
(-6.69169e-18 9.48322e-18 15.7144)
(1.51043e-17 -1.54837e-17 16.2459)
(6.3739e-18 -9.58374e-17 15.8394)
(1.11655e-16 -2.06013e-16 14.5304)
(-7.7381e-17 2.24899e-16 12.8654)
(1.07602e-16 -3.15105e-16 11.2713)
(-2.19823e-17 3.56139e-17 9.78028)
(2.8485e-18 -5.14561e-17 8.46273)
(1.6067e-16 -7.82011e-16 7.37229)
(-1.27471e-16 8.79603e-16 6.48673)
(2.17679e-17 -9.94545e-17 5.77356)
(6.5218e-17 -4.1414e-16 5.19134)
(1.89442e-17 -1.59463e-17 4.7098)
(-1.01627e-18 2.69514e-16 4.30336)
(3.84625e-17 -4.86781e-16 3.95181)
(-4.69748e-19 -2.31316e-16 3.63905)
(-7.25494e-17 8.07279e-16 3.35658)
(2.08077e-17 -9.3983e-17 3.08502)
(1.93532e-17 -7.52245e-17 2.82912)
(4.88594e-17 -6.02972e-16 2.57997)
(-4.67872e-17 6.66411e-16 2.33636)
(-1.1295e-17 -1.61935e-17 2.0736)
(9.74492e-18 -7.11011e-18 1.81469)
(3.86766e-19 -7.14419e-19 1.52034)
(-1.68403e-17 2.57437e-16 1.20246)
(3.45158e-19 -7.76492e-18 0.819389)
(1.21464e-18 -5.60671e-17 0.384794)
(3.58835e-20 8.21216e-20 -0.0752535)
(8.68964e-19 -3.71158e-17 -0.505635)
(-7.44674e-18 -2.37042e-16 -0.808328)
(-1.29559e-18 -1.32733e-18 -0.955186)
(-1.85312e-17 -5.20041e-16 -0.937258)
(-1.57708e-17 -3.35697e-16 -0.767733)
(3.85799e-17 6.05858e-16 -0.508283)
(-1.57318e-17 6.09726e-17 -0.197486)
(1.08272e-17 -3.0049e-16 0.0713081)
(-2.97409e-17 -7.25692e-16 0.264619)
(-3.01709e-17 -4.408e-16 0.378305)
(3.92791e-17 -1.05496e-17 0.435205)
(-4.89261e-18 3.79354e-16 0.444006)
(-2.22393e-19 5.72317e-17 0.396513)
(-4.28884e-17 -4.42318e-16 0.330546)
(2.60747e-17 -2.45095e-17 0.305273)
(9.98868e-18 4.0663e-16 0.339968)
(-3.93201e-17 -3.84078e-16 0.447671)
(1.82162e-18 2.66802e-17 0.624382)
(-1.69724e-16 -8.03071e-16 0.849944)
(-1.48325e-16 -5.12761e-16 1.09534)
(-5.18609e-17 -6.92641e-17 1.33503)
(-1.05043e-16 -3.58791e-16 1.55656)
(-3.00473e-17 -6.58711e-17 1.75153)
(1.33907e-16 3.04619e-16 1.95753)
(7.68052e-19 2.93979e-17 2.14769)
(-3.77031e-17 -1.91067e-16 2.39372)
(5.55899e-18 1.29465e-18 2.85807)
(5.35282e-18 1.55365e-18 3.6255)
(4.83554e-19 2.92018e-19 4.75577)
(-1.54461e-18 3.78664e-17 6.26614)
(-3.13793e-19 -4.56481e-19 8.02214)
(2.13818e-18 -5.2523e-18 9.75118)
(-4.21091e-18 1.27007e-17 10.7345)
(2.11665e-17 -1.98594e-17 10.8742)
(1.55628e-17 -1.08926e-17 10.464)
(-2.45273e-18 -1.89993e-17 9.88765)
(5.54689e-17 -2.7546e-16 9.04691)
(-5.2634e-17 3.0834e-16 8.22296)
(1.45305e-16 -8.23641e-16 7.46001)
(1.06578e-16 -4.07547e-16 6.76854)
(5.23108e-17 -1.29751e-16 6.1523)
(6.81654e-17 -3.48382e-16 5.61185)
(1.13356e-17 2.45375e-17 5.13826)
(4.09456e-17 -4.05206e-16 4.71944)
(-1.222e-17 2.19736e-18 4.34508)
(7.53807e-18 -8.72306e-18 4.00298)
(2.96694e-18 -6.99168e-17 3.68626)
(-2.37819e-17 8.22469e-17 3.38903)
(2.78393e-17 -3.67859e-16 3.10332)
(4.26581e-17 -6.0351e-16 2.8284)
(-5.47683e-19 6.16328e-17 2.54468)
(-1.05668e-17 3.07565e-16 2.26263)
(-1.22851e-17 3.06179e-16 1.97686)
(1.32229e-17 -9.41607e-17 1.6575)
(9.87858e-18 -1.89483e-16 1.32319)
(2.59646e-18 -1.04606e-16 0.934512)
(-7.58696e-19 1.13378e-16 0.498936)
(-1.73394e-18 2.4701e-17 0.0331032)
(-2.18021e-20 1.57016e-18 -0.421903)
(3.95051e-19 -1.68952e-16 -0.764477)
(-5.63895e-18 -1.15588e-16 -0.934796)
(-1.25007e-17 -3.3592e-16 -0.964687)
(1.43145e-17 1.38881e-16 -0.823667)
(-3.43255e-18 -5.71212e-17 -0.580469)
(-1.11559e-17 -2.9445e-16 -0.266894)
(-5.66608e-17 -7.11308e-16 0.0139913)
(-4.00125e-17 -4.19254e-16 0.225466)
(6.62217e-18 7.65219e-18 0.359056)
(-7.94401e-19 -4.37996e-16 0.425304)
(5.54913e-17 1.1101e-15 0.431036)
(-1.34282e-17 1.35082e-16 0.384369)
(-3.86766e-18 -2.12206e-17 0.331856)
(1.07705e-17 3.83791e-16 0.319552)
(3.46951e-17 5.62795e-17 0.361803)
(-3.26942e-18 -1.38789e-17 0.309646)
(1.1833e-18 2.05592e-16 0.274141)
(6.81762e-17 3.92802e-16 0.224836)
(-2.44258e-18 1.58401e-17 0.234231)
(3.30244e-18 5.06429e-18 0.288653)
(-4.10054e-18 -1.17237e-16 0.360641)
(-7.28696e-19 1.01078e-16 0.473194)
(-8.16246e-19 2.38241e-18 0.685617)
(-6.47748e-19 -3.19257e-18 0.893392)
(-5.65787e-19 -4.79095e-17 1.0108)
(7.01233e-19 4.723e-19 1.08342)
(-1.39689e-18 -2.82247e-18 1.15995)
(6.15521e-19 -4.18009e-18 1.25885)
(6.14779e-20 -4.46584e-17 1.37928)
(3.63207e-20 -2.62003e-18 1.51156)
(-1.38164e-19 4.54516e-17 1.64659)
(7.31084e-20 -1.20176e-18 1.77945)
(-4.59232e-19 2.10549e-17 1.90848)
(1.10566e-20 -2.26429e-17 2.03472)
(3.81688e-19 1.62322e-18 2.16103)
(-9.32295e-20 7.75906e-21 2.2902)
(3.40901e-22 1.41212e-18 2.42548)
(-8.85552e-20 1.6108e-18 2.57083)
(-2.18525e-19 -1.94667e-17 2.73015)
(3.6583e-19 1.73036e-17 2.9071)
(-2.52084e-19 -1.62931e-17 3.10609)
(-5.56448e-19 3.22946e-17 3.33249)
(7.20211e-19 -2.71489e-17 3.5933)
(3.45545e-19 9.88511e-18 3.89959)
(5.0426e-20 2.07663e-18 4.26862)
(2.18626e-19 -1.22449e-18 4.72884)
(1.05365e-18 4.55069e-19 5.32601)
(-5.24433e-19 1.79988e-18 6.1252)
(-1.96378e-19 -1.0296e-18 7.18193)
(9.61372e-20 3.12172e-19 8.37268)
(-7.29201e-19 -6.98008e-20 8.69224)
(1.43542e-18 -5.79386e-19 3.99471)
(1.90106e-18 1.08846e-18 -12.6093)
(-9.88425e-19 4.41337e-19 -7.78959)
(3.98256e-20 -3.1906e-19 -1.58928)
(-5.1523e-19 2.60026e-19 1.1309)
(-1.09249e-18 2.42831e-19 2.4602)
(6.54368e-19 -1.0517e-18 3.19742)
(2.02205e-18 1.08527e-18 3.63728)
(-1.52948e-18 -1.23419e-19 3.90658)
(6.09158e-19 -8.55143e-20 4.07015)
(-1.22456e-19 3.82375e-19 4.16412)
(-1.80722e-18 -1.53059e-18 4.21104)
(7.06359e-19 -1.69849e-19 4.22637)
(-2.86224e-19 -7.22991e-19 4.22084)
(-2.8914e-20 1.7308e-19 4.20187)
(-1.45024e-18 -2.2572e-18 4.17458)
(4.81015e-19 -1.72236e-19 4.14258)
(-9.16831e-19 1.81709e-19 4.10839)
(-5.39261e-20 -1.59235e-18 4.07369)
(-7.08327e-19 -1.49822e-17 4.03959)
(-1.54352e-18 2.9892e-17 4.00677)
(1.18016e-18 -1.70972e-17 3.97555)
(2.04097e-18 -3.4847e-18 3.94602)
(-1.02614e-18 2.05139e-17 3.91788)
(2.52077e-19 -1.93439e-17 3.89047)
(-2.10073e-18 -4.50493e-18 3.86261)
(-2.90192e-18 2.39037e-18 3.83258)
(2.0471e-19 -2.6795e-17 3.79806)
(2.38392e-18 2.06291e-17 3.75598)
(-2.87371e-18 -7.65697e-19 3.70214)
(1.77802e-18 2.85035e-17 3.6308)
(7.04195e-20 -2.56074e-17 3.53479)
(3.78475e-18 3.12459e-17 3.40111)
(-5.03392e-18 -3.20417e-17 3.19245)
(-3.30762e-17 -9.4339e-17 2.89679)
(-2.62204e-17 -5.59538e-17 2.49678)
(5.0507e-17 4.12593e-17 1.98091)
(-2.3632e-17 -1.57843e-17 1.36781)
(-1.56712e-17 -5.57693e-17 0.726062)
(9.3117e-18 -2.67659e-17 0.178757)
(-1.0284e-17 -2.66315e-17 -0.224661)
(-3.69038e-17 -3.29626e-18 -0.46546)
(-1.02374e-17 -5.8306e-17 -0.506098)
(-3.33476e-17 -9.00457e-17 -0.372844)
(5.74379e-16 2.87402e-16 -0.103182)
(2.12611e-16 1.92904e-16 0.270418)
(5.80445e-17 5.28031e-17 0.71929)
(1.12015e-18 8.00429e-18 1.22545)
(7.84078e-17 1.32532e-17 1.68784)
(6.77162e-16 2.42617e-16 2.11632)
(2.81711e-16 1.81101e-16 2.51446)
(3.53295e-17 -2.60425e-17 2.83909)
(5.54892e-16 1.2335e-16 3.10684)
(-2.48673e-18 1.01814e-16 3.31518)
(-2.85784e-16 -3.95952e-17 3.47835)
(-3.33316e-19 -3.3026e-17 3.64223)
(-3.57237e-17 -4.73959e-17 3.85015)
(1.20344e-16 -1.42681e-17 4.15811)
(5.70493e-17 8.55316e-18 4.65224)
(-6.36089e-17 3.00589e-17 5.29815)
(1.18031e-17 -1.31243e-17 6.25745)
(-2.59475e-18 1.23018e-18 7.48892)
(2.48493e-18 1.178e-17 8.85806)
(6.38235e-18 -1.18486e-17 10.1808)
(9.2366e-17 -1.31763e-16 10.8602)
(-1.18326e-16 1.96506e-16 10.9603)
(1.98389e-16 -4.05744e-16 10.5261)
(-3.62769e-18 8.18635e-17 9.58383)
(-1.2106e-16 3.05495e-16 8.60931)
(-1.46808e-17 5.02342e-17 7.60696)
(-1.41196e-16 4.07703e-16 6.6853)
(1.47071e-16 -5.81582e-16 5.8774)
(5.29671e-17 -2.65139e-16 5.19983)
(-2.31202e-17 1.8174e-17 4.63826)
(6.29089e-17 -4.29548e-16 4.17284)
(6.00958e-17 -3.39625e-16 3.78171)
(-3.77486e-17 7.41818e-17 3.4449)
(-1.01557e-16 7.17485e-16 3.14441)
(8.82723e-17 -5.02757e-16 2.86932)
(-8.12197e-18 5.23276e-17 2.59793)
(2.70898e-17 -2.97336e-16 2.33019)
(-5.84782e-17 3.54335e-16 2.05729)
(6.6818e-17 -3.48417e-16 1.7758)
(-1.93922e-17 2.82202e-16 1.46296)
(1.66775e-17 -2.78664e-16 1.13483)
(-8.13319e-18 1.55646e-17 0.763863)
(6.91463e-18 -1.04264e-17 0.364289)
(1.92875e-19 -6.28954e-18 -0.0776487)
(-3.12865e-18 7.05458e-17 -0.520554)
(1.2307e-19 -1.66831e-18 -0.90669)
(1.41458e-18 6.8497e-17 -1.16908)
(7.83097e-18 1.21982e-16 -1.26373)
(-3.65549e-18 -4.05679e-17 -1.17172)
(3.38969e-17 3.02081e-16 -0.926186)
(1.02209e-17 2.96282e-16 -0.588085)
(-3.30323e-17 -3.08902e-16 -0.199305)
(-1.19201e-17 -4.0343e-17 0.165109)
(3.15231e-17 3.1648e-16 0.443049)
(3.25103e-17 3.96845e-16 0.635744)
(1.95187e-17 4.05857e-17 0.745512)
(-2.61142e-17 3.89063e-16 0.754642)
(-2.53209e-17 -7.51695e-16 0.693819)
(3.6902e-19 -5.18187e-17 0.611785)
(2.36563e-17 2.55453e-17 0.520669)
(-3.06051e-20 2.81617e-17 0.480177)
(-5.55432e-17 -4.1407e-16 0.505918)
(2.29078e-17 -2.68419e-17 0.59746)
(1.30318e-18 7.45542e-18 0.736473)
(5.61923e-17 9.49872e-17 0.891512)
(-1.254e-17 -2.67515e-16 1.02861)
(-7.01684e-17 -3.57858e-16 1.12086)
(6.67292e-18 -1.7427e-17 1.15622)
(0 -0 1.13169)
(-8.87787e-18 -6.07292e-18 1.07767)
(-1.15418e-17 -1.2267e-17 0.981957)
(5.22754e-17 1.01786e-16 0.915389)
(1.75647e-17 8.85553e-17 0.892027)
(1.29903e-18 3.1448e-18 0.99186)
(1.62035e-19 4.32799e-18 1.27376)
(2.20283e-19 1.37388e-20 1.8864)
(1.93633e-19 -5.05651e-20 2.83518)
(-6.33256e-19 2.55278e-19 4.17583)
(1.05562e-17 -5.02269e-18 5.53725)
(-3.72327e-18 -5.97578e-18 6.52851)
(7.89066e-17 -2.02732e-16 7.14134)
(4.54515e-18 2.49969e-17 7.21138)
(-1.15823e-16 3.1197e-16 6.98791)
(1.20052e-16 -3.75068e-16 6.65327)
(-1.37289e-16 4.4423e-16 6.2118)
(-2.60062e-17 -2.70881e-17 5.74191)
(9.10688e-17 -3.64517e-16 5.27207)
(-6.20085e-17 3.40441e-16 4.83037)
(4.60677e-17 -2.41478e-16 4.42698)
(-7.47565e-17 3.69704e-16 4.05722)
(1.51952e-17 -4.67565e-17 3.71625)
(-1.07982e-17 -2.23368e-17 3.39488)
(-3.05041e-19 2.88568e-17 3.08561)
(-2.48382e-17 2.29597e-16 2.78382)
(-2.98248e-17 1.23711e-16 2.48177)
(-6.67905e-17 3.38069e-16 2.17821)
(-2.58547e-17 4.50194e-17 1.85392)
(5.06888e-17 -3.82353e-16 1.51425)
(4.62146e-17 -5.20192e-16 1.15813)
(1.86705e-17 -2.74495e-16 0.76303)
(-6.26257e-18 7.48556e-17 0.349655)
(-5.80951e-18 5.36766e-17 -0.0954128)
(3.19869e-18 -5.78176e-17 -0.53906)
(-9.19447e-20 2.81183e-17 -0.929716)
(-1.27663e-18 -3.6038e-18 -1.1975)
(7.03367e-18 2.33704e-16 -1.30859)
(2.75981e-18 -5.15294e-18 -1.2275)
(2.83045e-17 3.31364e-16 -0.989302)
(3.69226e-18 2.22161e-16 -0.645411)
(1.70743e-18 -1.48798e-18 -0.256801)
(3.52273e-17 2.432e-16 0.11805)
(5.58589e-17 4.86134e-16 0.407884)
(1.97047e-17 -2.36496e-16 0.605815)
(3.32109e-18 2.36428e-16 0.715125)
(3.77411e-17 5.43691e-16 0.716895)
(-6.37943e-17 -4.98104e-16 0.636143)
(-1.37769e-17 -4.45994e-16 0.507654)
(1.55477e-17 4.74299e-16 0.37804)
(-5.8456e-17 -5.098e-16 0.288605)
(1.0257e-17 3.33403e-16 0.254316)
(2.76523e-17 1.46443e-16 0.196389)
(-6.24156e-17 -4.04359e-16 0.251142)
(-2.22436e-17 -3.88008e-17 0.198216)
(7.99759e-18 2.57172e-16 0.148981)
(2.27345e-18 6.57574e-17 0.0924982)
(1.28576e-17 1.19757e-16 -0.0169923)
(-6.96942e-18 -1.07453e-16 -0.163209)
(2.10295e-19 4.86621e-17 -0.328525)
(5.54548e-19 -4.866e-17 -0.491549)
(1.95684e-18 -1.14569e-18 -0.632731)
(-6.67483e-19 -2.59407e-18 -0.720406)
(6.55989e-19 -4.38555e-17 -0.735306)
(-7.2e-19 4.83799e-17 -0.682326)
(-1.79149e-19 4.54543e-17 -0.573036)
(2.05445e-19 -3.8904e-17 -0.428355)
(-2.28388e-19 2.15873e-17 -0.268547)
(2.39076e-19 -2.1807e-17 -0.106622)
(-3.01619e-20 4.26623e-19 0.0499608)
(-6.47173e-19 2.30377e-17 0.1973)
(8.95264e-19 -2.04634e-17 0.33523)
(-1.23637e-18 2.21243e-17 0.465793)
(1.64076e-19 -2.03169e-17 0.592577)
(8.94753e-19 -1.85362e-18 0.720516)
(-1.17649e-18 2.33461e-18 0.85603)
(5.729e-19 -8.08918e-20 1.00353)
(-1.95403e-18 1.04794e-19 1.16847)
(3.31434e-18 2.00152e-18 1.35622)
(-2.34839e-18 -1.42333e-19 1.57352)
(3.16577e-19 -3.40238e-19 1.83022)
(6.63308e-19 -3.28249e-18 2.14021)
(-1.45852e-18 3.25611e-19 2.52661)
(1.36839e-18 -9.53201e-19 3.01918)
(1.9921e-18 -3.29901e-18 3.63891)
(-1.42043e-18 2.67202e-18 4.33333)
(6.38684e-19 -4.90848e-19 4.77476)
(-4.33719e-19 3.2896e-20 3.81067)
(-7.19939e-19 3.5292e-19 -1.26073)
(-1.90436e-18 -5.29751e-19 -12.9899)
(1.25238e-18 1.44126e-19 -6.58122)
(-1.52659e-18 8.04066e-19 -2.47096)
(-2.19369e-18 -3.73601e-19 -0.405594)
(3.50278e-18 -3.31453e-19 0.704719)
(-6.16745e-18 1.50617e-18 1.41265)
(1.82788e-18 -1.63677e-18 1.91496)
(4.81757e-19 6.76836e-19 2.28541)
(-1.15439e-18 -3.75989e-19 2.56394)
(-4.07306e-20 7.10943e-19 2.77545)
(-3.67353e-18 -3.65321e-18 2.93756)
(3.61076e-18 1.83619e-18 3.06321)
(-1.07546e-18 2.25123e-19 3.1618)
(-2.71887e-18 -5.32288e-18 3.24013)
(3.29582e-18 3.10175e-18 3.30306)
(-8.12507e-19 -5.74066e-19 3.35411)
(-4.20318e-19 2.55626e-21 3.39581)
(7.77179e-19 -1.92625e-18 3.42993)
(1.7181e-18 7.94602e-18 3.45764)
(-4.35697e-18 -2.26871e-17 3.47966)
(3.80056e-18 1.03279e-17 3.49629)
(2.50594e-18 1.78513e-17 3.50747)
(-4.62336e-18 -1.40973e-17 3.51272)
(2.38098e-18 -2.16741e-18 3.51106)
(5.44706e-19 2.46293e-18 3.50094)
(5.1173e-19 6.23712e-19 3.48022)
(2.10147e-18 3.55305e-19 3.44605)
(-2.02734e-18 -1.86402e-17 3.39479)
(-2.89657e-18 -2.86389e-18 3.32171)
(-6.8517e-18 -6.04249e-18 3.22056)
(6.80243e-18 1.68243e-17 3.0838)
(2.8434e-19 -5.14117e-18 2.89879)
(1.68014e-17 3.90112e-17 2.63157)