/*--------------------------------*- C++ -*----------------------------------*\
| =========                 |                                                 |
| \\      /  F ield         | OpenFOAM: The Open Source CFD Toolbox           |
|  \\    /   O peration     | Version:  2506                                  |
|   \\  /    A nd           | Website:  www.openfoam.com                      |
|    \\/     M anipulation  |                                                 |
\*---------------------------------------------------------------------------*/
FoamFile
{
    version     2.0;
    format      ascii;
    arch        "LSB;label=32;scalar=64";
    class       volVectorField;
    location    "2.05";
    object      U;
}
// * * * * * * * * * * * * * * * * * * * * * * * * * * * * * * * * * * * * * //

dimensions      [0 1 -1 0 0 0 0];

internalField   nonuniform List<vector> 
4000
(
(0.00339338 -0.00146051 9.81882e-23)
(0.00449073 -0.00112908 0)
(0.00611551 -0.00053779 4.42554e-23)
(0.00728098 -0.00026933 3.69221e-23)
(0.00794623 -0.000161731 3.15244e-23)
(0.00837388 -0.000101035 0)
(0.00868315 -6.52601e-05 2.48772e-23)
(0.00891546 -4.50855e-05 2.30143e-23)
(0.00909579 -3.30378e-05 0)
(0.00924116 -2.51957e-05 0)
(0.00936175 -1.97908e-05 3.42957e-22)
(0.0094639 -1.58883e-05 -6.43665e-22)
(0.00955193 -1.29391e-05 3.00839e-22)
(0.00962894 -1.06213e-05 -3.34041e-22)
(0.00969727 -8.74226e-06 3.32746e-22)
(0.00975871 -7.17982e-06 2.19872e-23)
(0.0098147 -5.85419e-06 3.76248e-22)
(0.00986647 -4.71316e-06 -3.74874e-22)
(0.00991512 -3.72387e-06 2.54203e-23)
(0.00996167 -2.86824e-06 0)
(0.0100072 -2.14128e-06 0)
(0.0100526 -1.55095e-06 -3.06759e-23)
(0.0100993 -1.11478e-06 -3.28878e-23)
(0.0101484 -8.65022e-07 0)
(0.0102017 -8.59849e-07 -3.81398e-23)
(0.0102612 -1.20053e-06 -4.12502e-23)
(0.0103296 -2.06978e-06 0)
(0.0104107 -3.81693e-06 0)
(0.0105091 -6.92522e-06 1.80701e-21)
(0.0106383 -1.28179e-05 -1.85581e-21)
(0.0108163 -3.58261e-05 0)
(0.0108907 -0.000118818 -4.88099e-21)
(0.0107874 -0.00029244 7.78741e-21)
(0.0105528 -0.00057163 -3.3921e-22)
(0.0102582 -0.000940528 -4.00429e-21)
(0.00994038 -0.00139759 5.98898e-20)
(0.00968823 -0.00194109 -8.888e-22)
(0.00938599 -0.00269549 -1.35115e-20)
(0.00889937 -0.00362208 0)
(0.00834073 -0.00450951 5.28482e-21)
(0.00787572 -0.00526722 -5.3729e-21)
(0.00749719 -0.00590149 4.32598e-20)
(0.00718274 -0.00642076 0)
(0.00692854 -0.00681994 3.731e-20)
(0.00672649 -0.00709505 -1.57206e-20)
(0.00655952 -0.00725791 2.18204e-20)
(0.00641491 -0.00731233 0)
(0.00628595 -0.00727191 -2.10162e-20)
(0.00614903 -0.00715046 -2.23133e-20)
(0.00598 -0.00696556 -1.67084e-20)
(0.00575159 -0.0067175 0)
(0.00548427 -0.00636911 0)
(0.00518839 -0.00593037 -2.13292e-21)
(0.00488125 -0.00534707 1.67119e-20)
(0.00466667 -0.00459174 2.723e-21)
(0.00469447 -0.00360422 -1.15737e-20)
(0.00507364 -0.00248233 -6.61263e-21)
(0.00594183 -0.00128387 1.91209e-21)
(0.00728237 -0.000261781 0)
(0.00875533 0.000379855 1.47902e-23)
(0.0100165 0.00067414 3.25145e-22)
(0.0110089 0.000730649 -8.85434e-22)
(0.0116547 0.000670683 -5.64597e-21)
(0.0120802 0.000581624 6.21706e-21)
(0.0123467 0.000496768 0)
(0.0125202 0.000426273 0)
(0.0126423 0.000370271 0)
(0.0127271 0.000327238 1.30106e-21)
(0.0127871 0.000293887 1.92211e-20)
(0.0128327 0.000267192 1.07755e-20)
(0.0128692 0.000245018 0)
(0.0128983 0.000226361 -9.6012e-21)
(0.0129216 0.000210452 9.57273e-21)
(0.0129407 0.000196588 9.87508e-22)
(0.0129565 0.000184245 -1.03279e-20)
(0.0129697 0.000173035 9.03044e-21)
(0.0129809 0.000162613 9.97746e-21)
(0.0129891 0.000153252 9.29389e-21)
(0.0129952 0.000144517 0)
(0.0129997 0.000136079 0)
(0.0130027 0.000127623 -2.26042e-22)
(0.0130005 0.000120152 -6.59228e-21)
(0.0129953 0.000112338 0)
(0.012983 0.000104944 4.71651e-21)
(0.0129635 9.65113e-05 -3.56932e-21)
(0.0129268 8.72634e-05 0)
(0.0128675 7.413e-05 0)
(0.0127804 5.13457e-05 6.8428e-23)
(0.0126627 8.29309e-06 4.05334e-22)
(0.0125227 -7.20208e-05 -1.39316e-21)
(0.0124033 -0.000189589 8.20653e-23)
(0.0123311 -0.000327442 -1.3705e-22)
(0.0123128 -0.00045515 -4.26686e-22)
(0.0123468 -0.000544045 0)
(0.0124199 -0.000577845 9.30457e-21)
(0.0125186 -0.000562191 9.86669e-21)
(0.0126241 -0.00051671 1.05481e-20)
(0.0127063 -0.000459224 7.25488e-22)
(0.012746 -0.000409647 1.16244e-20)
(0.0127457 -0.000389183 1.27956e-20)
(0.0127023 -0.000408703 -2.06617e-22)
(0.0126158 -0.000471708 1.40308e-20)
(0.0124912 -0.000577216 2.76927e-20)
(0.0123361 -0.000717854 6.76426e-22)
(0.0121558 -0.000883385 1.35128e-20)
(0.0119502 -0.00106477 0)
(0.0117125 -0.00125649 -1.36838e-20)
(0.011429 -0.00145522 -1.25035e-20)
(0.0110881 -0.0016561 -8.73845e-22)
(0.0106795 -0.00185427 0)
(0.0101766 -0.00203927 -1.15316e-20)
(0.00959496 -0.00217015 1.04947e-20)
(0.00896971 -0.00219208 0)
(0.00837094 -0.00202743 1.62064e-20)
(0.00795487 -0.00167006 2.98307e-21)
(0.00785595 -0.00110641 4.70671e-21)
(0.00824922 -0.000422236 0)
(0.0090581 0.000166932 -1.95643e-23)
(0.0099746 0.000532634 1.06404e-22)
(0.0108324 0.000682383 6.2799e-23)
(0.0114775 0.000684738 -1.57907e-22)
(0.0119232 0.00062258 6.87288e-21)
(0.0122132 0.000550774 -8.74534e-21)
(0.0124167 0.000481799 -6.19878e-22)
(0.0125551 0.000423441 -8.93977e-21)
(0.0126492 0.000376777 2.02919e-20)
(0.0127194 0.000338648 -1.05789e-20)
(0.0127732 0.000307093 1.17903e-20)
(0.012814 0.000281029 -5.02253e-22)
(0.0128459 0.000259155 1.07329e-20)
(0.0128715 0.000240344 0)
(0.0128924 0.000223792 -1.19353e-20)
(0.0129095 0.000208879 1.87255e-21)
(0.0129232 0.000195357 -1.30036e-20)
(0.0129341 0.000182874 0)
(0.0129427 0.000171046 0)
(0.0129494 0.000159572 1.02908e-20)
(0.0129548 0.000147836 -9.3872e-21)
(0.0129559 0.000136659 0)
(0.0129545 0.000125299 0)
(0.0129521 0.000112469 -7.27648e-21)
(0.0129416 9.95068e-05 1.43257e-21)
(0.0129267 8.42598e-05 -6.41887e-21)
(0.0128987 6.64855e-05 0)
(0.012853 4.39911e-05 2.12253e-21)
(0.0127839 1.41351e-05 6.47539e-22)
(0.012683 -2.76565e-05 6.18735e-23)
(0.0125517 -9.63573e-05 -2.28327e-22)
(0.0124156 -0.000201875 0)
(0.0123205 -0.00033775 1.23094e-21)
(0.0122713 -0.000473071 2.54518e-22)
(0.0122753 -0.000584232 -9.70944e-21)
(0.012325 -0.000649719 1.72805e-21)
(0.0124086 -0.000663154 2.04187e-22)
(0.0125025 -0.000640042 6.42267e-21)
(0.0125885 -0.000595837 2.23706e-21)
(0.0126393 -0.00055245 0)
(0.0126508 -0.000531236 0)
(0.0126138 -0.000548387 0)
(0.0125218 -0.000614116 -2.11918e-20)
(0.0123628 -0.000731691 2.70008e-21)
(0.0121188 -0.000891371 9.96106e-21)
(0.0116972 -0.00108275 7.69484e-21)
(0.0110399 -0.00120433 0)
(0.0106208 -0.00122538 -8.90239e-21)
(0.0102572 -0.00119824 -1.39513e-20)
(0.00990118 -0.00109409 -2.88399e-22)
(0.00964693 -0.000900503 -1.69758e-21)
(0.00955137 -0.000635634 -3.71892e-21)
(0.00970472 -0.000341304 -1.10785e-21)
(0.0100122 -0.000124835 0)
(0.0102255 -3.88749e-05 -9.61306e-24)
(0.0103066 -9.79371e-06 0)
(0.0103314 -1.16301e-07 -6.40229e-24)
(0.0103408 3.79207e-06 -5.0538e-24)
(0.010346 4.5369e-06 -2.21748e-22)
(0.0103503 4.33739e-06 2.20344e-22)
(0.0103544 4.0672e-06 4.42577e-23)
(0.0103577 3.95071e-06 -4.50559e-23)
(0.0103589 4.07341e-06 -1.10475e-23)
(0.010357 4.42464e-06 4.84497e-23)
(0.0103511 5.10783e-06 -3.50037e-23)
(0.0103405 5.84451e-06 0)
(0.0103246 6.84945e-06 3.14623e-24)
(0.0103024 7.95878e-06 -3.96983e-24)
(0.0102729 9.20175e-06 1.73854e-22)
(0.0102348 1.11939e-05 -1.63027e-22)
(0.0101869 1.35776e-05 2.37732e-22)
(0.0101271 1.62558e-05 -2.29476e-22)
(0.0100528 1.93198e-05 1.72779e-22)
(0.00996122 2.28862e-05 -1.52158e-22)
(0.00984878 2.71637e-05 1.29718e-23)
(0.00971016 3.26578e-05 1.51681e-23)
(0.00953649 4.06895e-05 0)
(0.0093105 5.4751e-05 2.09012e-23)
(0.00899438 8.37581e-05 2.48218e-23)
(0.00849498 0.000151101 3.04892e-22)
(0.00756746 0.000335222 -3.15385e-22)
(0.00577151 0.00092201 0)
(0.00434235 0.00163078 7.68948e-23)
(-3.90831e-05 -0.00286967 -3.45604e-23)
(-8.17859e-05 -0.0025791 4.31887e-23)
(0.000963719 -0.00173217 -5.23532e-23)
(0.00195805 -0.00119838 2.06528e-22)
(0.00274294 -0.000846625 -4.85014e-22)
(0.00337372 -0.000612059 2.84974e-23)
(0.00389569 -0.00046191 2.21447e-22)
(0.00433033 -0.000364388 -8.24907e-23)
(0.00469603 -0.000297494 -5.20492e-23)
(0.00500826 -0.000249342 -4.97835e-23)
(0.00527833 -0.000213471 -7.21862e-23)
(0.00551443 -0.000185999 -4.29232e-22)
(0.0057228 -0.000164482 4.02439e-22)
(0.00590828 -0.000147362 -3.9058e-22)
(0.0060747 -0.000133618 7.40063e-22)
(0.00622515 -0.000122568 -8.90494e-22)
(0.0063622 -0.000113758 3.60393e-22)
(0.00648808 -0.000106901 -5.10122e-22)
(0.00660479 -0.000101841 -5.94577e-22)
(0.00671421 -9.85277e-05 8.93538e-22)
(0.00681818 -9.70066e-05 -6.50342e-23)
(0.00691863 -9.74152e-05 -1.1902e-21)
(0.00701761 -9.99957e-05 1.18716e-21)
(0.00711745 -0.00010513 1.25092e-21)
(0.00722088 -0.000113404 -1.2798e-21)
(0.00733124 -0.000125698 -4.52646e-23)
(0.00745273 -0.000143362 -1.67859e-21)
(0.00759083 -0.000168514 -4.9586e-23)
(0.00775228 -0.000204651 3.80342e-21)
(0.00794994 -0.00025688 2.71246e-22)
(0.00820378 -0.000339675 -2.15603e-21)
(0.00841017 -0.000513691 -2.62512e-21)
(0.00847857 -0.000805478 -8.29079e-21)
(0.00841749 -0.0012036 -1.80521e-20)
(0.00827805 -0.00169251 -1.34809e-20)
(0.00809895 -0.00227587 -1.56916e-20)
(0.00791751 -0.00296885 2.9239e-21)
(0.00768363 -0.0038307 1.33428e-20)
(0.00730205 -0.00479047 -4.47541e-21)
(0.00685276 -0.005708 -1.31328e-20)
(0.00646993 -0.00652996 -1.81978e-20)
(0.00614588 -0.00724641 -2.00499e-20)
(0.00586269 -0.0078429 0)
(0.00561855 -0.00830677 -4.04719e-20)
(0.00540414 -0.00864023 2.0136e-20)
(0.00520288 -0.00885085 -2.08612e-20)
(0.00499741 -0.00894147 2.06354e-20)
(0.00477671 -0.008925 0)
(0.00451579 -0.0088152 1.45901e-21)
(0.00419106 -0.00862466 1.86351e-20)
(0.00378201 -0.00834963 -1.87676e-20)
(0.00328799 -0.00798214 2.16886e-21)
(0.00272609 -0.00755014 1.7277e-20)
(0.00208663 -0.00697278 -3.81303e-21)
(0.00146073 -0.00620835 1.68233e-20)
(0.000932802 -0.00520851 0)
(0.000656258 -0.00399719 6.98718e-21)
(0.000802203 -0.0025537 -3.51646e-21)
(0.00161818 -0.00102269 -3.82188e-22)
(0.00303892 0.000339234 1.95837e-22)
(0.0048212 0.00131458 -6.06044e-22)
(0.00669741 0.00188298 -3.15213e-21)
(0.00828392 0.00199898 -4.24973e-21)
(0.00952787 0.00192566 -7.36986e-21)
(0.0104176 0.0017527 1.05105e-21)
(0.0110384 0.00155914 -1.01719e-21)
(0.0114772 0.00137958 0)
(0.0117839 0.0012285 0)
(0.0120014 0.00110529 -2.15477e-20)
(0.0121595 0.00100471 1.05527e-20)
(0.0122786 0.000921394 1.42769e-21)
(0.0123692 0.000851777 -1.38044e-20)
(0.0124385 0.000792829 -9.5717e-21)
(0.012492 0.000741958 -1.31203e-20)
(0.0125335 0.000697144 7.39406e-22)
(0.0125656 0.000656875 7.02662e-22)
(0.0125903 0.000619864 1.14601e-20)
(0.0126065 0.000586419 -1.02661e-20)
(0.0126156 0.000555189 -6.04887e-22)
(0.0126188 0.000525101 -8.79209e-21)
(0.0126165 0.000495212 8.05663e-21)
(0.0126027 0.000467307 0)
(0.0125806 0.000437793 0)
(0.0125443 0.000407404 0)
(0.0124951 0.000371699 3.90917e-21)
(0.0124248 0.000328289 -1.01862e-22)
(0.012336 0.000266981 2.74929e-23)
(0.0122419 0.000174082 -2.7262e-23)
(0.0121632 3.44986e-05 -1.58825e-22)
(0.0121314 -0.000150547 3.3471e-21)
(0.0121549 -0.000354316 -3.12919e-22)
(0.0122323 -0.000539141 -4.5988e-23)
(0.0123574 -0.00066733 6.35106e-21)
(0.0125031 -0.000722425 -7.70192e-21)
(0.0126462 -0.000711998 8.48193e-21)
(0.0127642 -0.000662487 -9.15687e-21)
(0.0128361 -0.000579428 9.10499e-21)
(0.0128513 -0.000498583 1.03727e-20)
(0.0128285 -0.000447749 -1.13568e-20)
(0.0127529 -0.000446591 -1.15964e-20)
(0.0126301 -0.000502668 0)
(0.0124684 -0.000616094 1.19171e-20)
(0.0122752 -0.00077939 -1.30222e-20)
(0.0120539 -0.000980485 3.95722e-22)
(0.0118017 -0.00120671 -1.47238e-21)
(0.011509 -0.00144773 0)
(0.0111613 -0.00169657 2.50733e-20)
(0.0107412 -0.00194816 2.52668e-20)
(0.0102339 -0.00219664 1.11096e-20)
(0.00962744 -0.0024317 9.8554e-21)
(0.00890754 -0.00262859 1.14505e-20)
(0.00807773 -0.00273384 -2.01046e-20)
(0.00718097 -0.00273158 5.8946e-22)
(0.00624181 -0.00258223 -8.53537e-21)
(0.00539248 -0.00220776 7.41602e-22)
(0.00474435 -0.001585 -2.47159e-21)
(0.00451913 -0.000743783 -2.13008e-22)
(0.00485818 0.000179274 -6.5884e-23)
(0.0057255 0.00100971 9.0823e-23)
(0.00696504 0.0015948 -8.5754e-23)
(0.00822132 0.00186527 0)
(0.00930977 0.00190581 -7.80256e-21)
(0.0101518 0.00181081 -2.79516e-22)
(0.0107932 0.00165917 8.90904e-22)
(0.0112564 0.00150057 1.03747e-20)
(0.0115871 0.00135715 -1.16516e-20)
(0.0118301 0.00123268 -1.08903e-20)
(0.0120115 0.00112694 -2.38917e-20)
(0.0121468 0.00103827 -2.44642e-20)
(0.0122491 0.00096357 -1.13792e-20)
(0.0123278 0.000899741 -1.54467e-21)
(0.0123889 0.000844289 -1.19218e-20)
(0.0124368 0.000795151 2.44865e-20)
(0.0124733 0.000751213 -2.9593e-21)
(0.0125003 0.000711346 -8.29151e-21)
(0.0125196 0.000674303 0)
(0.0125317 0.000639177 0)
(0.0125384 0.000604402 6.4208e-22)
(0.0125348 0.000571707 2.19941e-21)
(0.0125226 0.000538896 5.88409e-21)
(0.0125049 0.000503077 1.71884e-21)
(0.0124709 0.000466954 -2.69057e-22)
(0.0124266 0.000424462 -2.20155e-21)
(0.0123629 0.000375061 1.95759e-21)
(0.0122805 0.000311621 -2.19329e-21)
(0.0121871 0.000225706 0)
(0.0120975 9.67749e-05 2.59862e-22)
(0.01204 -8.51407e-05 -2.53546e-22)
(0.0120427 -0.000301477 1.45057e-21)
(0.0120883 -0.000515869 0)
(0.0121956 -0.000685547 0)
(0.0123318 -0.000784688 0)
(0.0124748 -0.000807454 0)
(0.0126015 -0.000783192 1.6149e-20)
(0.0126845 -0.000719997 3.68522e-21)
(0.0127127 -0.000650115 1.99172e-21)
(0.0126904 -0.000605926 -2.216e-21)
(0.0126072 -0.000611656 -1.30003e-20)
(0.0124555 -0.000681202 4.30441e-21)
(0.0122327 -0.000816488 9.93537e-21)
(0.0119285 -0.00100306 7.67792e-23)
(0.0115252 -0.00120254 -7.4821e-21)
(0.0110093 -0.0013505 2.03896e-21)
(0.0103663 -0.00140716 -2.54872e-22)
(0.00987447 -0.00142841 -8.98107e-21)
(0.0094002 -0.00140103 7.68395e-21)
(0.0088943 -0.00129699 0)
(0.00843447 -0.00110231 0)
(0.00807475 -0.000830838 1.41528e-21)
(0.00788559 -0.000520369 8.85856e-22)
(0.00785878 -0.000262026 -8.51349e-22)
(0.007876 -0.000122411 1.10116e-23)
(0.00786039 -5.37738e-05 -5.30235e-22)
(0.00782895 -2.2581e-05 5.20072e-22)
(0.00780074 -1.20554e-05 1.68296e-23)
(0.00778016 -1.08818e-05 2.41325e-22)
(0.00776673 -1.2102e-05 -7.81703e-23)
(0.00775834 -1.19753e-05 -1.18824e-22)
(0.00775174 -1.03731e-05 -4.34216e-23)
(0.00774376 -6.72337e-06 1.62406e-23)
(0.0077319 -1.55161e-06 -1.50723e-23)
(0.00771408 4.88556e-06 2.0099e-24)
(0.0076885 1.25326e-05 -1.02764e-22)
(0.00765341 2.10358e-05 1.06447e-22)
(0.00760695 3.10712e-05 4.56181e-24)
(0.00754673 4.29222e-05 1.81238e-22)
(0.00746933 5.7586e-05 -2.18216e-22)
(0.00737068 7.52229e-05 2.782e-22)
(0.00724606 9.63097e-05 -3.0636e-22)
(0.0070897 0.000121651 1.58299e-22)
(0.00689446 0.000152362 -2.04329e-22)
(0.0066513 0.000190325 1.53097e-23)
(0.00634794 0.000239312 -5.30362e-23)
(0.005966 0.000307596 -3.61585e-22)
(0.00547533 0.00041427 3.88064e-22)
(0.00482363 0.000603986 -8.69195e-23)
(0.00391916 0.000978406 -3.52768e-23)
(0.00262139 0.00174664 1.27678e-22)
(0.000752754 0.00314336 0)
(6.50896e-05 0.00393428 -2.00708e-22)
(-0.000286791 -0.00239783 0)
(-0.000792343 -0.00274537 -2.23612e-22)
(-0.0005256 -0.00226373 1.04956e-22)
(-1.88274e-05 -0.00179434 7.59957e-23)
(0.000535146 -0.00141897 -1.64433e-22)
(0.00107607 -0.00113515 2.65306e-22)
(0.00158009 -0.000927914 -2.62912e-22)
(0.00203708 -0.000775604 5.77485e-23)
(0.00244667 -0.000660579 5.42734e-23)
(0.00281298 -0.000571435 1.56156e-22)
(0.00314104 -0.000500883 5.04128e-23)
(0.00343562 -0.000444022 1.49441e-22)
(0.00370097 -0.000397487 -4.01959e-22)
(0.00394081 -0.000358952 9.07139e-22)
(0.00415833 -0.000326797 -3.53707e-22)
(0.00435633 -0.000299881 4.84021e-22)
(0.00453723 -0.000277416 -2.64864e-22)
(0.00470325 -0.000258887 1.70763e-22)
(0.00485642 -0.000244002 1.04841e-21)
(0.00499873 -0.000232661 -9.19045e-22)
(0.00513214 -0.000224932 6.72914e-23)
(0.00525871 -0.000221057 2.12891e-22)
(0.00538067 -0.000221474 -1.26324e-21)
(0.00550053 -0.000226881 1.33792e-21)
(0.00562122 -0.000238319 1.45612e-21)
(0.00574624 -0.000257304 -1.16652e-21)
(0.00587984 -0.00028604 -1.69711e-21)
(0.00602726 -0.000327776 1.57427e-21)
(0.00619452 -0.000387534 0)
(0.00639057 -0.000472797 0)
(0.00662936 -0.000597321 0)
(0.00684338 -0.000805615 0)
(0.00695168 -0.00112167 1.0683e-20)
(0.00694433 -0.001542 1.47111e-20)
(0.00685982 -0.00206158 -1.53971e-20)
(0.00673419 -0.00269037 2.68206e-21)
(0.00659403 -0.00344418 -1.90525e-20)
(0.00641162 -0.0043321 4.10206e-21)
(0.00612907 -0.00527292 1.64802e-20)
(0.005814 -0.00616966 -3.00718e-21)
(0.00555189 -0.00698466 3.60855e-20)
(0.00532706 -0.00770025 0)
(0.00512143 -0.00829906 -1.77624e-20)
(0.00493414 -0.00876947 -1.77533e-20)
(0.00475571 -0.00910856 2.26648e-21)
(0.00456956 -0.00931619 1.4306e-20)
(0.00435834 -0.00939896 -3.34955e-20)
(0.00410872 -0.00937212 -1.46919e-20)
(0.0037997 -0.00926028 -2.82905e-21)
(0.00341375 -0.00904887 9.8097e-23)
(0.0029398 -0.0087378 5.6222e-21)
(0.00237909 -0.00832912 -3.90048e-21)
(0.00174685 -0.00782572 -1.51482e-21)
(0.00104091 -0.00719537 1.7701e-22)
(0.000334342 -0.0064161 1.36375e-20)
(-0.000313883 -0.00545664 -5.25981e-21)
(-0.000776703 -0.00432331 -5.59758e-21)
(-0.000972403 -0.00300552 2.9706e-21)
(-0.00069978 -0.0015735 3.81834e-22)
(0.000131431 -0.000162943 0)
(0.0014547 0.00106541 -1.15082e-23)
(0.00320666 0.00197603 1.06167e-23)
(0.00500051 0.00251497 8.02352e-22)
(0.0066654 0.00273991 5.01392e-21)
(0.00804517 0.00268373 -5.8776e-21)
(0.00911778 0.00252012 7.03218e-21)
(0.0099316 0.00231243 0)
(0.0105303 0.00210405 0)
(0.0109661 0.00191577 1.97386e-20)
(0.0112854 0.0017532 -2.05485e-20)
(0.011523 0.0016151 0)
(0.0117014 0.00149846 9.81144e-21)
(0.0118363 0.00139942 7.97764e-22)
(0.011939 0.00131413 -9.0192e-21)
(0.0120176 0.00123922 1.15748e-20)
(0.0120775 0.00117202 9.38122e-21)
(0.0121232 0.0011102 -2.06286e-20)
(0.0121548 0.00105329 6.10162e-22)
(0.0121746 0.000999215 5.46826e-22)
(0.0121844 0.000946163 1.60631e-20)
(0.0121858 0.000892496 -1.51708e-20)
(0.0121733 0.000838799 -2.00947e-22)
(0.0121514 0.000780217 3.03665e-23)
(0.0121163 0.000715111 1.70398e-22)
(0.0120731 0.000636507 -3.84534e-21)
(0.0120214 0.000537375 0)
(0.0119739 0.000404822 3.03201e-22)
(0.0119524 0.00022927 -1.09314e-24)
(0.0119777 1.02023e-05 -2.50481e-22)
(0.0120573 -0.000230952 -2.89879e-21)
(0.012193 -0.000456029 -2.22667e-22)
(0.0123621 -0.000631579 -1.04555e-20)
(0.0125352 -0.000733777 -6.3467e-21)
(0.0126921 -0.000757544 1.40699e-20)
(0.0128123 -0.000715718 1.46103e-22)
(0.0128734 -0.000630389 -8.8755e-21)
(0.0128781 -0.000532262 -1.84913e-20)
(0.012837 -0.000451381 -1.01225e-20)
(0.0127399 -0.000410465 0)
(0.0125974 -0.000425776 1.06511e-20)
(0.0124198 -0.000497287 0)
(0.012214 -0.000629246 -1.20709e-20)
(0.0119827 -0.000808451 1.848e-22)
(0.0117228 -0.00102114 1.12638e-20)
(0.0114246 -0.00125392 -1.24373e-20)
(0.0110743 -0.0014957 0)
(0.0106565 -0.00173788 -2.31029e-20)
(0.010157 -0.00197306 -1.18581e-20)
(0.00956714 -0.00219235 -1.3587e-21)
(0.00888219 -0.00238108 -1.08896e-20)
(0.00809939 -0.00251304 0)
(0.00723038 -0.00255758 9.2701e-21)
(0.00631408 -0.00248865 0)
(0.00536708 -0.00227149 -6.06749e-21)
(0.00447401 -0.00189359 3.61533e-22)
(0.00370978 -0.00133454 0)
(0.00321997 -0.000605532 0)
(0.00314022 0.000228323 6.85551e-23)
(0.00353277 0.00107608 0)
(0.00442388 0.00182486 1.23458e-22)
(0.00560744 0.0023424 -2.88121e-22)
(0.0068603 0.00262486 1.62564e-22)
(0.0079966 0.00265507 0)
(0.00896153 0.00256707 0)
(0.00972568 0.00241219 9.30336e-21)
(0.0103086 0.00223784 -1.06798e-20)
(0.0107514 0.00206757 2.18618e-20)
(0.0110867 0.00191276 1.16052e-20)
(0.0113394 0.00177723 1.74716e-21)
(0.0115306 0.00166021 1.0402e-20)
(0.0116766 0.00155901 -1.46277e-21)
(0.0117887 0.00147064 1.21157e-20)
(0.0118752 0.00139214 2.05602e-21)
(0.0119411 0.00132141 -2.27314e-23)
(0.01199 0.00125661 2.04346e-21)
(0.0120253 0.00119567 -2.68953e-21)
(0.0120486 0.00113702 9.7791e-21)
(0.0120625 0.00107836 1.89571e-20)
(0.0120632 0.00102029 0)
(0.0120525 0.000959728 -8.18139e-21)
(0.0120348 0.000892608 -8.42149e-21)
(0.0120017 0.000818724 1.6201e-21)
(0.011962 0.000729978 3.98687e-21)
(0.0119138 0.000620787 1.83298e-21)
(0.0118668 0.00047988 -1.49043e-21)
(0.0118388 0.000297099 -3.15484e-22)
(0.0118542 6.72025e-05 1.66582e-22)
(0.0119178 -0.000193878 -1.08939e-21)
(0.0120422 -0.000446844 -1.45135e-21)
(0.0122033 -0.00065483 -4.88424e-21)
(0.0123771 -0.000790386 2.37496e-21)
(0.0125363 -0.00084298 -1.2888e-21)
(0.0126628 -0.0008232 -6.07566e-21)
(0.0127296 -0.000755187 -1.36505e-20)
(0.0127359 -0.000667553 -7.55407e-21)
(0.0126896 -0.000594532 0)
(0.0125744 -0.000562682 -7.97272e-21)
(0.0123956 -0.00058854 2.37743e-20)
(0.0121524 -0.000677122 1.34898e-21)
(0.0118418 -0.000819136 0)
(0.0114598 -0.000986706 7.96804e-21)
(0.0110089 -0.00113177 0)
(0.0105038 -0.0011959 0)
(0.00994883 -0.00118277 4.85439e-21)
(0.00950344 -0.00115632 8.89078e-21)
(0.00906473 -0.00109543 0)
(0.008608 -0.000971541 0)
(0.00818922 -0.000787611 -2.28293e-21)
(0.00783446 -0.000563807 2.09362e-21)
(0.00756294 -0.000331765 -1.63495e-22)
(0.00738736 -0.000142568 -1.85591e-22)
(0.00726901 -3.69243e-05 -7.13132e-22)
(0.00716749 1.07317e-05 1.74995e-23)
(0.00707647 2.5069e-05 -2.66455e-23)
(0.00700259 2.15321e-05 -3.22451e-23)
(0.00694333 1.16786e-05 -2.25858e-22)
(0.00689536 2.85711e-06 6.27419e-23)
(0.00685542 -1.36567e-06 1.55362e-22)
(0.00681988 -5.20591e-07 -1.73102e-24)
(0.00678525 4.60648e-06 -2.04909e-23)
(0.00674889 1.32794e-05 2.30415e-23)
(0.00670819 2.52134e-05 -3.91003e-24)
(0.00666103 4.00202e-05 0)
(0.00660475 5.79443e-05 -7.57088e-24)
(0.00653619 7.97852e-05 -1.91939e-23)
(0.00645183 0.000106592 2.16128e-22)
(0.00634697 0.000139437 -1.90565e-22)
(0.00621582 0.000179817 2.86515e-22)
(0.0060515 0.00022936 -6.03524e-22)
(0.00584568 0.000290051 5.56023e-22)
(0.00558813 0.000364672 -1.97166e-22)
(0.0052661 0.000457701 -9.27661e-23)
(0.004863 0.000577228 3.63706e-23)
(0.00435645 0.000738893 0)
(0.00371576 0.000973876 -1.49046e-22)
(0.00290225 0.0013432 5.93626e-23)
(0.0018836 0.00195313 0)
(0.000687788 0.00292431 -8.43479e-23)
(-0.000497212 0.00407312 1.69915e-22)
(-0.000342188 0.0037071 2.96711e-22)
(-0.000205989 -0.00177937 -1.84421e-22)
(-0.000746514 -0.00253707 0)
(-0.000808761 -0.00243181 0)
(-0.000632125 -0.00213648 -1.55113e-22)
(-0.000312915 -0.00183297 1.4379e-22)
(6.64121e-05 -0.00156816 2.62704e-22)
(0.000463854 -0.00135047 -2.62004e-22)
(0.000854401 -0.00117405 1.16017e-22)
(0.00122559 -0.00103036 0)
(0.00157235 -0.00091219 -1.0662e-22)
(0.00189334 -0.000813985 0)
(0.00218899 -0.000731536 -7.89077e-25)
(0.00246057 -0.000661659 0)
(0.00270973 -0.000601981 -1.02797e-22)
(0.00293822 -0.000550744 0)
(0.00314781 -0.00050666 0)
(0.0033402 -0.000468809 -1.11573e-22)
(0.00351709 -0.000436584 -5.918e-22)
(0.00368013 -0.000409646 1.47152e-21)
(0.003831 -0.000387898 -9.93043e-22)
(0.00397143 -0.000371476 0)
(0.00410329 -0.000360757 1.04368e-21)
(0.00422866 -0.000356397 -1.18157e-21)
(0.0043499 -0.000359402 -1.61007e-22)
(0.00446977 -0.000371233 0)
(0.00459158 -0.000393934 -1.57209e-21)
(0.00471922 -0.000430345 1.55654e-21)
(0.00485736 -0.000484407 0)
(0.00501107 -0.000561737 1.98026e-21)
(0.00518712 -0.000670119 -1.96314e-21)
(0.0053952 -0.000821226 2.33928e-21)
(0.00558517 -0.00104775 -4.6411e-21)
(0.00569086 -0.00137434 -8.08915e-21)
(0.00570577 -0.00180643 -3.12603e-21)
(0.00566698 -0.00234589 7.73713e-22)
(0.00560657 -0.00300219 -8.79023e-22)
(0.00553785 -0.00378007 -1.01773e-20)
(0.00544159 -0.00465985 1.78007e-22)
(0.00527609 -0.00556452 3.028e-21)
(0.00509191 -0.00642522 -7.02554e-21)
(0.00494121 -0.0072122 3.03874e-21)
(0.00480689 -0.00790433 -4.30766e-21)
(0.00467185 -0.00848245 3.479e-20)
(0.00453537 -0.00893452 1.36981e-20)
(0.00438802 -0.0092562 4.33203e-21)
(0.00421427 -0.00944636 0)
(0.00400033 -0.00950218 1.35113e-21)
(0.00373344 -0.00945971 3.27893e-20)
(0.00339836 -0.00930176 1.47588e-20)
(0.00298375 -0.00903755 1.99105e-21)
(0.00248768 -0.00867181 3.00322e-20)
(0.00191575 -0.00820812 0)
(0.00128776 -0.00764969 -1.60139e-20)
(0.000610751 -0.00698333 1.71351e-22)
(-5.66202e-05 -0.00620183 2.60466e-23)
(-0.000671159 -0.00529867 6.4213e-21)
(-0.00115717 -0.00428193 3.36383e-21)
(-0.0014293 -0.00314776 -4.22614e-21)
(-0.00143075 -0.00193124 7.79381e-22)
(-0.00103867 -0.000688287 3.27813e-22)
(-0.000242604 0.000499627 -1.1137e-21)
(0.00100918 0.00155156 -6.02737e-23)
(0.0025235 0.002334 3.46071e-21)
(0.00416149 0.00281252 -5.26012e-21)
(0.00570888 0.00305622 1.06008e-20)
(0.00705757 0.00306252 5.36522e-22)
(0.00817498 0.00294508 -8.11018e-21)
(0.00905733 0.00276484 -1.1148e-21)
(0.00973449 0.00256886 -9.70536e-21)
(0.0102478 0.00238105 1.24014e-20)
(0.0106359 0.00221177 8.22328e-21)
(0.010929 0.00206369 0)
(0.0111509 0.00193544 1.05626e-20)
(0.0113194 0.00182378 9.26098e-21)
(0.0114481 0.00172499 1.26133e-21)
(0.0115464 0.00163561 -1.97633e-20)
(0.011622 0.0015524 1.10394e-20)
(0.0116777 0.00147366 -1.17258e-21)
(0.0117176 0.00139652 8.49886e-21)
(0.0117452 0.00131826 -8.32835e-21)
(0.0117633 0.00123644 7.62384e-21)
(0.0117691 0.00114964 -6.52418e-21)
(0.011769 0.00105224 5.66473e-21)
(0.0117628 0.000939853 0)
(0.0117593 0.000804538 9.71337e-23)
(0.0117648 0.0006373 1.86675e-23)
(0.0117956 0.000429144 -4.23742e-22)
(0.011866 0.000180774 0)
(0.0119923 -9.33866e-05 5.35038e-22)
(0.0121653 -0.000361449 1.51219e-21)
(0.0123636 -0.000585037 -4.85505e-22)
(0.0125611 -0.000736195 5.68119e-21)
(0.0127298 -0.000802798 5.34985e-21)
(0.0128538 -0.000787651 -6.86058e-21)
(0.0129081 -0.000715521 -3.68739e-22)
(0.0129013 -0.000609613 7.86638e-21)
(0.0128432 -0.000503454 9.05979e-21)
(0.0127254 -0.000423438 5.76285e-22)
(0.012564 -0.000391103 9.54538e-21)
(0.0123705 -0.000418039 -2.07253e-20)
(0.0121534 -0.000504391 0)
(0.0119162 -0.000646199 0)
(0.0116554 -0.000829522 0)
(0.0113613 -0.00103905 -1.12922e-20)
(0.0110207 -0.00126051 -6.89196e-22)
(0.0106195 -0.00148195 3.45581e-22)
(0.010146 -0.00169339 1.17818e-21)
(0.00959331 -0.00188551 -9.58823e-21)
(0.00896107 -0.00204714 -1.03415e-20)
(0.0082533 -0.00216214 0)
(0.00747688 -0.00220788 0)
(0.00664722 -0.00216379 0)
(0.00579786 -0.00201543 0)
(0.00494491 -0.00175484 3.44197e-21)
(0.00414228 -0.00138443 1.90355e-21)
(0.00343507 -0.000904909 0)
(0.00290509 -0.000327717 4.53513e-23)
(0.00262934 0.00032538 0)
(0.00269649 0.00102414 0)
(0.00315019 0.00172666 0)
(0.00397889 0.00232404 0)
(0.00504785 0.00273775 -1.93402e-22)
(0.00617314 0.00296873 6.16007e-21)
(0.007249 0.00304164 2.18933e-22)
(0.00819019 0.00297149 -9.04812e-21)
(0.00896616 0.00283913 1.03756e-20)
(0.00958857 0.00267959 -1.0943e-20)
(0.0100776 0.00251724 0)
(0.0104561 0.00236466 1.11333e-20)
(0.0107472 0.00222663 -9.96967e-21)
(0.0109712 0.00210366 7.86974e-21)
(0.0111434 0.0019941 -1.06692e-20)
(0.0112762 0.0018951 6.18202e-22)
(0.0113783 0.00180391 1.3354e-21)
(0.0114558 0.00171807 -6.55974e-22)
(0.0115142 0.00163478 -7.32269e-21)
(0.011557 0.00155169 -3.04621e-21)
(0.0115883 0.00146593 -9.31334e-21)
(0.0116066 0.0013761 -1.99686e-21)
(0.0116154 0.00127816 9.30998e-21)
(0.0116207 0.00116741 1.33445e-20)
(0.011619 0.00104005 6.79348e-21)
(0.0116214 0.000888262 -1.28778e-21)
(0.0116329 0.000704121 -9.52635e-22)
(0.0116684 0.000479937 4.47755e-22)
(0.01174 0.000215756 -1.2394e-22)
(0.0118621 -7.61247e-05 -1.2317e-23)
(0.0120305 -0.000365761 1.64464e-21)
(0.012227 -0.000613308 0)
(0.012424 -0.000787124 4.8175e-21)
(0.0125939 -0.00087292 3.40733e-21)
(0.012717 -0.000870948 0)
(0.0127702 -0.000812759 4.52258e-21)
(0.012758 -0.000714787 8.25553e-21)
(0.012687 -0.000616167 -5.00534e-21)
(0.012546 -0.00054496 5.36532e-21)
(0.0123446 -0.000521402 1.00249e-20)
(0.0120895 -0.000555368 -1.02879e-20)
(0.0117815 -0.000641905 -8.41211e-21)
(0.0114204 -0.000761724 9.29323e-21)
(0.0110109 -0.000882515 -1.01153e-20)
(0.0105668 -0.0009629 6.67752e-21)
(0.0101047 -0.000967794 1.58533e-21)
(0.00963076 -0.000917977 -8.32424e-21)
(0.00924334 -0.000861485 0)
(0.00886806 -0.00077459 5.04801e-21)
(0.00849425 -0.000640136 1.13742e-21)
(0.00816067 -0.000469355 2.1504e-21)
(0.0078768 -0.000284739 -1.94102e-21)
(0.00764067 -0.000113802 7.70673e-22)
(0.007451 1.52839e-05 -7.81906e-22)
(0.00729698 8.58172e-05 0)
(0.00715927 0.000110895 -3.0433e-23)
(0.00703327 0.000107684 -3.4209e-22)
(0.00691995 8.99949e-05 3.9019e-22)
(0.00681831 6.914e-05 2.08165e-22)
(0.00672668 5.23049e-05 -1.86854e-22)
(0.00664322 4.26992e-05 3.53847e-23)
(0.00656582 4.0639e-05 -3.53746e-23)
(0.00649218 4.52241e-05 0)
(0.0064201 5.54319e-05 -5.85216e-23)
(0.00634735 7.07204e-05 5.37946e-23)
(0.00627141 9.11246e-05 -1.2287e-22)
(0.00618923 0.00011736 1.1064e-22)
(0.00609705 0.000150779 1.93923e-23)
(0.00599031 0.000193146 -2.33653e-23)
(0.00586336 0.000246538 0)
(0.00570937 0.000313497 0)
(0.00552019 0.000396898 -3.82281e-23)
(0.00528607 0.000500273 0)
(0.00499522 0.000628463 0)
(0.00463325 0.000788827 1.22933e-22)
(0.00418234 0.000993444 0)
(0.00362076 0.00126283 0)
(0.0029243 0.00163132 4.04896e-22)
(0.00207538 0.00215077 -2.11165e-22)
(0.00109293 0.00287488 0)
(9.33923e-05 0.00376326 0)
(-0.000571609 0.0043363 -2.23734e-23)
(-0.000278653 0.00308756 -1.81803e-22)
(-0.000133721 -0.00137385 6.88532e-23)
(-0.00056622 -0.00225928 -2.05326e-22)
(-0.000751008 -0.00239809 -1.54418e-22)
(-0.000749434 -0.00227262 3.09124e-22)
(-0.000607575 -0.00207464 -5.43481e-22)
(-0.00037885 -0.00186652 2.68791e-22)
(-0.000103618 -0.00167267 0)
(0.00019115 -0.00150005 -1.17189e-22)
(0.00048845 -0.00134896 0)
(0.000778494 -0.00121749 -5.26006e-22)
(0.00105584 -0.00110315 4.18455e-22)
(0.00131772 -0.00100347 -1.02989e-22)
(0.00156292 -0.000916277 -4.11673e-22)
(0.00179122 -0.000839743 3.0719e-22)
(0.00200297 -0.000772423 -1.03694e-22)
(0.00219885 -0.000713196 0)
(0.00237975 -0.000661244 -1.09996e-22)
(0.00254674 -0.000616028 3.61526e-22)
(0.00270095 -0.000577274 -1.47211e-21)
(0.00284368 -0.000544971 9.93299e-22)
(0.00297634 -0.000519373 9.81568e-22)
(0.00310052 -0.000501027 -1.1083e-21)
(0.00321807 -0.000490823 0)
(0.00333116 -0.000490074 1.64588e-22)
(0.00344237 -0.000500616 0)
(0.00355477 -0.000524943 -1.89171e-22)
(0.003672 -0.000566385 -1.66824e-21)