/*--------------------------------*- C++ -*----------------------------------*\
| =========                 |                                                 |
| \\      /  F ield         | OpenFOAM: The Open Source CFD Toolbox           |
|  \\    /   O peration     | Version:  2506                                  |
|   \\  /    A nd           | Website:  www.openfoam.com                      |
|    \\/     M anipulation  |                                                 |
\*---------------------------------------------------------------------------*/
FoamFile
{
    version     2.0;
    format      ascii;
    arch        "LSB;label=32;scalar=64";
    class       volVectorField;
    location    "1.65";
    object      U;
}
// * * * * * * * * * * * * * * * * * * * * * * * * * * * * * * * * * * * * * //

dimensions      [0 1 -1 0 0 0 0];

internalField   nonuniform List<vector> 
4000
(
(0.0140771 0.00108119 0)
(0.0123001 0.0015163 2.30684e-21)
(0.00993763 0.00106943 -2.42515e-21)
(0.00775192 0.000605653 -5.10598e-21)
(0.00630783 0.00031901 1.05284e-20)
(0.00539861 0.000159167 -5.37635e-21)
(0.00480045 7.68965e-05 0)
(0.00439967 3.69762e-05 0)
(0.00413042 1.79029e-05 0)
(0.00394639 8.47722e-06 -1.08999e-20)
(0.0038166 3.68878e-06 1.09329e-20)
(0.00372141 1.20888e-06 -2.16843e-20)
(0.00364838 -1.80679e-07 2.17194e-20)
(0.00358939 -9.318e-07 0)
(0.00353886 -1.2418e-06 0)
(0.00349297 -1.2936e-06 0)
(0.00344915 -1.20119e-06 -2.12226e-20)
(0.00340568 -1.02083e-06 2.124e-20)
(0.00336137 -7.85562e-07 0)
(0.00331535 -5.09939e-07 0)
(0.00326689 -1.8967e-07 0)
(0.00321528 1.89206e-07 0)
(0.00315981 6.43694e-07 0)
(0.00309968 1.19363e-06 -4.10264e-20)
(0.00303398 1.86217e-06 8.19014e-20)
(0.00296167 2.67631e-06 -4.08796e-20)
(0.00288157 3.67161e-06 0)
(0.00279227 4.90164e-06 0)
(0.00269209 6.45375e-06 0)
(0.00257891 8.49967e-06 0)
(0.00244979 1.1451e-05 3.97067e-20)
(0.00230077 1.64461e-05 -3.98147e-20)
(0.00213204 2.25143e-05 0)
(0.00188231 3.98733e-05 -3.43819e-20)
(0.00160455 0.000104606 -3.9012e-20)
(0.00148737 0.000237202 1.97041e-19)
(0.00154975 0.000428772 1.57043e-19)
(0.00168472 0.000650564 -3.94258e-20)
(0.00185421 0.000897777 1.57381e-19)
(0.00206714 0.00118081 3.53953e-19)
(0.00240879 0.00151782 -3.92535e-20)
(0.00288501 0.00187446 -3.12544e-19)
(0.00336106 0.00217435 3.12346e-19)
(0.00377936 0.00240173 0)
(0.00415927 0.00257226 0)
(0.00451031 0.00269818 1.97134e-20)
(0.00486274 0.00279014 2.96699e-19)
(0.00519614 0.00283608 2.97894e-19)
(0.00550794 0.00283804 1.79551e-19)
(0.0058161 0.00279751 1.60656e-19)
(0.00608874 0.00270456 -1.61689e-19)
(0.00633702 0.00256201 0)
(0.00652771 0.0023569 2.04696e-20)
(0.00666722 0.00210054 -3.49225e-19)
(0.0067264 0.00178272 0)
(0.00668957 0.0014247 8.27147e-20)
(0.00656829 0.00103838 2.06139e-20)
(0.0063178 0.000638114 -2.22853e-23)
(0.00600524 0.000255513 1.09984e-22)
(0.00557128 -0.00011147 1.0524e-20)
(0.00507177 -0.000425111 -2.05378e-20)
(0.00455095 -0.000680123 0)
(0.00400619 -0.000871865 0)
(0.00349035 -0.00100358 -3.99522e-20)
(0.0029952 -0.00107969 -2.7823e-19)
(0.00255412 -0.00111384 -3.88242e-20)
(0.00216243 -0.00111224 3.92694e-20)
(0.00182395 -0.00108903 -3.74508e-20)
(0.00154226 -0.00105044 -1.10826e-19)
(0.00130379 -0.00100346 2.54404e-19)
(0.00111607 -0.000956039 3.58612e-20)
(0.000960816 -0.000910327 -1.3438e-21)
(0.000834024 -0.000869003 0)
(0.000738274 -0.000831923 0)
(0.000660433 -0.000798018 0)
(0.000601103 -0.000768386 1.57512e-20)
(0.000558721 -0.000742649 2.33098e-19)
(0.000526022 -0.000719149 0)
(0.000501814 -0.000697727 -1.25326e-21)
(0.000485933 -0.00067798 -1.44893e-20)
(0.000474759 -0.000658849 2.29149e-19)
(0.000466986 -0.000639964 -2.04431e-19)
(0.000462345 -0.000621097 -9.58844e-23)
(0.000459852 -0.00060199 -2.19372e-19)
(0.00046003 -0.000583074 -7.57091e-22)
(0.000462617 -0.000564143 2.06314e-19)
(0.000466185 -0.000544635 2.05727e-19)
(0.000473086 -0.000525665 -2.05821e-19)
(0.000483514 -0.000506815 3.09089e-21)
(0.00049409 -0.000486728 1.93158e-19)
(0.000508037 -0.000466341 0)
(0.000525292 -0.000445164 1.91927e-19)
(0.000542136 -0.000421818 1.77033e-19)
(0.000561743 -0.000397347 -1.79612e-19)
(0.00058177 -0.000369706 9.92946e-20)
(0.000602813 -0.000340267 -1.08612e-20)
(0.000624247 -0.000307025 -8.52205e-20)
(0.000646262 -0.000271031 -1.04139e-20)
(0.000667455 -0.000231014 -7.21112e-20)
(0.000690044 -0.000187907 -5.06884e-20)
(0.000712892 -0.000141761 2.00158e-20)
(0.000735122 -9.25104e-05 -4.94862e-20)
(0.000759898 -4.12211e-05 4.9132e-21)
(0.000782715 1.2293e-05 4.87412e-21)
(0.000809192 6.84291e-05 1.93134e-20)
(0.000837186 0.000126863 0)
(0.000868674 0.000187945 0)
(0.000905913 0.00025169 1.50708e-19)
(0.000947558 0.000318272 4.78267e-21)
(0.000996661 0.000388619 -7.89018e-20)
(0.00105373 0.00046322 -7.64001e-20)
(0.0011189 0.000542883 -2.38161e-21)
(0.00119538 0.000628308 7.88747e-20)
(0.00128013 0.000719522 1.18801e-22)
(0.00137687 0.000817974 0)
(0.00148687 0.000923717 -1.52462e-19)
(0.00160411 0.00103523 4.74094e-21)
(0.00173383 0.00115396 1.4221e-19)
(0.00187357 0.00127815 4.75156e-21)
(0.00201951 0.00140629 1.51273e-19)
(0.00217485 0.0015385 1.32856e-22)
(0.00233759 0.00167237 -1.50719e-19)
(0.00250286 0.00180523 -9.39331e-21)
(0.00267255 0.00193664 1.69231e-19)
(0.00284652 0.00206447 -9.41182e-21)
(0.00302138 0.00218571 -1.50517e-19)
(0.00319728 0.00229909 -1.88434e-20)
(0.003373 0.0024027 1.88865e-20)
(0.00354786 0.00249541 -1.51581e-19)
(0.00372754 0.00257728 1.3335e-19)
(0.00390777 0.00264382 1.90968e-20)
(0.00408361 0.00269408 2.88632e-19)
(0.00427007 0.00273067 1.93142e-20)
(0.0044603 0.00274707 1.55893e-19)
(0.00464514 0.00274193 2.15884e-22)
(0.00484986 0.00271975 0)
(0.00505034 0.00266828 0)
(0.00524658 0.00258967 -4.07351e-23)
(0.00544468 0.00247973 0)
(0.00562634 0.00233439 2.04132e-20)
(0.00578952 0.00215129 6.15151e-20)
(0.00591835 0.00192746 2.06095e-20)
(0.00599062 0.00166217 4.12628e-20)
(0.00600763 0.00136167 2.07551e-20)
(0.00592059 0.00102757 6.19014e-20)
(0.00576601 0.000687606 -2.0545e-20)
(0.00549104 0.000339562 0)
(0.00511387 2.50675e-05 0)
(0.00467925 -0.000253648 0)
(0.00416749 -0.000476548 1.91349e-20)
(0.00364689 -0.000641523 -1.92703e-20)
(0.00309935 -0.000744438 -7.37283e-20)
(0.00257785 -0.000792243 -7.13421e-20)
(0.00208707 -0.000790585 0)
(0.00164616 -0.000755395 6.5994e-20)
(0.00125768 -0.000692636 0)
(0.000924321 -0.000616731 1.44186e-20)
(0.00065163 -0.000533619 -7.19885e-20)
(0.000426751 -0.000449169 1.32743e-20)
(0.000245963 -0.000345414 -2.20918e-19)
(0.00023634 -0.000304872 4.89225e-20)
(0.000425018 -0.00030137 4.6563e-20)
(0.000621633 -0.000295545 0)
(0.000831944 -0.000272099 0)
(0.00108273 -0.000229783 0)
(0.00138022 -0.000164654 0)
(0.00176107 -9.50411e-05 0)
(0.00216045 -4.43907e-05 -8.52815e-21)
(0.00245169 -1.76243e-05 2.38475e-22)
(0.0026344 -3.49328e-06 2.3197e-22)
(0.00275364 5.11542e-06 8.01771e-21)
(0.00283496 1.05094e-05 0)
(0.00289318 1.34886e-05 -7.27884e-21)
(0.00293901 1.46334e-05 7.26305e-21)
(0.00297999 1.45208e-05 -2.14822e-22)
(0.00302053 1.36398e-05 0)
(0.00306254 1.23618e-05 0)
(0.00310606 1.09891e-05 5.9203e-21)
(0.00314993 9.76156e-06 -5.90707e-21)
(0.00319229 8.82161e-06 0)
(0.00323116 8.20471e-06 0)
(0.00326472 7.91715e-06 2.24264e-21)
(0.00329149 7.91658e-06 -1.33809e-22)
(0.00331051 8.11703e-06 -2.25414e-21)
(0.00332151 8.46903e-06 0)
(0.00332482 8.67115e-06 0)
(0.00332095 8.61947e-06 0)
(0.00331112 8.66683e-06 0)
(0.00329696 8.73982e-06 -9.48782e-23)
(0.00327994 8.73339e-06 0)
(0.00326139 8.48057e-06 0)
(0.00324257 7.97334e-06 0)
(0.00322454 7.21081e-06 -4.65908e-22)
(0.00320817 6.3271e-06 4.65358e-22)
(0.00319428 5.47588e-06 0)
(0.00318334 4.58995e-06 -3.74775e-23)
(0.00317535 3.67061e-06 -1.00398e-22)
(0.00317002 2.82027e-06 6.67302e-23)
(0.00316571 2.60115e-06 3.34717e-23)
(0.00316341 4.76457e-06 0)
(0.0167931 0.00184131 0)
(0.0175819 0.00335544 0)
(0.0172751 0.0030526 0)
(0.0163344 0.00251455 -4.65263e-21)
(0.0151358 0.00188644 9.54639e-21)
(0.0139791 0.00133299 -4.89628e-21)
(0.013014 0.000909794 0)
(0.0122411 0.000615651 -1.01008e-20)
(0.0116377 0.000420868 1.02472e-20)
(0.0111755 0.000293315 -1.02617e-20)
(0.0108234 0.000210517 1.03476e-20)
(0.0105524 0.000157323 2.0613e-20)
(0.0103394 0.000123207 -2.07133e-20)
(0.010167 0.000101838 -2.05724e-20)
(0.0100218 8.92468e-05 1.11185e-22)
(0.00989416 8.2552e-05 4.10451e-20)
(0.009777 7.97962e-05 -2.05138e-20)
(0.00966548 7.97402e-05 0)
(0.00955608 8.16209e-05 0)
(0.00944616 8.50166e-05 0)
(0.0093336 8.97657e-05 0)
(0.00921648 9.58735e-05 0)
(0.00909287 0.000103443 0)
(0.00896076 0.000112647 0)
(0.00881792 0.00012371 0)
(0.00866182 0.000136915 0)
(0.00848959 0.000152616 0)
(0.00829787 0.000171287 0)
(0.0080827 0.000193598 0)
(0.00783915 0.000220593 0)
(0.00756122 0.000254046 3.89497e-20)
(0.00724019 0.000297429 -2.62775e-22)
(0.00687575 0.000356678 -7.79981e-20)
(0.00639533 0.000439182 3.42504e-20)
(0.0058686 0.000588949 3.90357e-20)
(0.00556637 0.000867466 -1.18636e-19)
(0.00555956 0.00129472 1.58349e-19)
(0.00573711 0.0018364 3.95642e-20)
(0.00603878 0.00246005 -3.97283e-19)
(0.00647087 0.00314739 -1.1893e-19)
(0.00712433 0.00389079 0)
(0.00797339 0.0046269 -3.94292e-20)
(0.00886049 0.00526832 -2.35984e-19)
(0.00971388 0.00578765 -3.91527e-20)
(0.0105366 0.006192 -3.13721e-19)
(0.0113361 0.00649551 3.13725e-19)
(0.012138 0.00671015 4.79443e-22)
(0.0129138 0.00682425 0)
(0.0136672 0.00683527 1.57286e-19)
(0.0144039 0.00674548 0)
(0.0150878 0.00654331 8.29901e-23)
(0.0157238 0.00622762 0)
(0.016265 0.00578069 1.59077e-19)
(0.0167122 0.00522163 1.59916e-19)
(0.017018 0.00453957 0)
(0.0171642 0.00376759 -2.86379e-22)
(0.0171427 0.00292465 -8.02329e-20)
(0.0168958 0.00203241 -2.01395e-20)
(0.0164899 0.00114403 -3.99758e-20)
(0.0158429 0.000270825 1.01167e-20)
(0.0150309 -0.000530727 0)
(0.01409 -0.00123576 -8.02841e-20)
(0.0130455 -0.00182439 4.04126e-20)
(0.011978 -0.00228966 8.0364e-20)
(0.0108919 -0.00263156 2.40352e-19)
(0.00986458 -0.00286642 4.02586e-20)
(0.00889329 -0.00300332 -1.97605e-19)
(0.00801473 -0.00306841 3.96955e-20)
(0.00723086 -0.00307554 0)
(0.00653894 -0.00304275 -3.80618e-20)
(0.00594646 -0.00298722 3.82035e-20)
(0.00543062 -0.00291547 -2.49428e-21)
(0.00499004 -0.00284034 0)
(0.0046206 -0.00276379 2.87901e-19)
(0.00430359 -0.00268648 2.82155e-19)
(0.00403479 -0.00261237 -1.70459e-20)
(0.00380927 -0.00254084 1.69809e-20)
(0.00361478 -0.00246994 -1.63302e-20)
(0.00344641 -0.00240007 2.56655e-19)
(0.0033016 -0.00233029 -2.37274e-19)
(0.00317396 -0.00225895 2.47598e-19)
(0.00305967 -0.00218581 2.47521e-19)
(0.00295682 -0.00211068 -1.47529e-20)
(0.00286304 -0.0020335 2.39074e-19)
(0.00277849 -0.00195528 -2.23259e-19)
(0.00270243 -0.00187603 2.20251e-19)
(0.00263208 -0.00179551 -2.17304e-19)
(0.00257073 -0.00171537 2.11134e-19)
(0.00251895 -0.00163521 6.44832e-21)
(0.00247214 -0.00155359 -6.38395e-21)
(0.00243371 -0.00147138 0)
(0.00240399 -0.0013871 0)
(0.00237806 -0.0012994 -9.55134e-20)
(0.00235974 -0.00120903 1.04633e-19)
(0.00234568 -0.00111324 -9.13117e-20)
(0.00233756 -0.00101343 -2.23788e-20)
(0.00233449 -0.00090753 -1.91113e-22)
(0.00233683 -0.000796615 8.84353e-23)
(0.00234334 -0.000679697 1.90479e-19)
(0.00235711 -0.000557548 3.11245e-20)
(0.00237795 -0.000430249 -4.10397e-20)
(0.00240601 -0.000298058 4.04628e-20)
(0.00244497 -0.000161624 0)
(0.00249283 -2.09194e-05 4.93838e-21)
(0.0025561 0.00012468 -4.9389e-21)
(0.00263331 0.000275615 0)
(0.00272753 0.000433056 0)
(0.00284111 0.000597961 -7.78537e-20)
(0.00297389 0.000772012 7.75805e-20)
(0.00312865 0.000957113 -7.98712e-20)
(0.00330617 0.00115548 1.54911e-19)
(0.00350632 0.00136854 1.78023e-23)
(0.00373175 0.00159761 2.42215e-21)
(0.00397831 0.00184414 7.71894e-20)
(0.00424989 0.00210984 0)
(0.00454521 0.00239421 0)
(0.00485832 0.00269591 0)
(0.00519277 0.00301433 -1.57652e-19)
(0.00554444 0.00334661 -1.47381e-19)
(0.005909 0.00368961 0)
(0.0062885 0.00404049 1.70677e-19)
(0.00667945 0.00439435 -2.84115e-20)
(0.00707654 0.004746 1.89147e-20)
(0.0074813 0.00509152 -9.46739e-21)
(0.00789255 0.00542536 1.89148e-20)
(0.00830733 0.00574183 -1.51731e-19)
(0.00872601 0.00603632 1.33116e-19)
(0.00914762 0.00630404 -1.7173e-19)
(0.00957277 0.0065411 -3.13865e-23)
(0.0100078 0.00674462 -1.34464e-19)
(0.0104476 0.00690727 0)
(0.0108892 0.00702731 -1.55414e-19)
(0.01135 0.0071029 1.9609e-20)
(0.0118204 0.00712449 1.37945e-19)
(0.0122945 0.00709167 -1.58348e-19)
(0.0127967 0.00700479 1.99699e-20)
(0.0132948 0.00684557 -2.00192e-20)
(0.0137923 0.00661878 2.0277e-20)
(0.0142838 0.00631204 -2.02207e-20)
(0.014749 0.00592253 2.03305e-20)
(0.0151746 0.00544547 -1.01977e-19)
(0.0155331 0.00487916 1.01728e-19)
(0.0157904 0.00422515 -1.02387e-19)
(0.0159342 0.00349744 0)
(0.0159009 0.00270724 -2.01387e-20)
(0.0157284 0.00189462 2.01345e-20)
(0.0153317 0.00106668 9.89105e-21)
(0.0147419 0.000280467 0)
(0.0139891 -0.000439799 1.93117e-20)
(0.0130596 -0.00106104 -3.80477e-20)
(0.0120454 -0.00156627 0)
(0.0109228 -0.00194222 7.33667e-20)
(0.00979318 -0.00219382 1.76313e-20)
(0.00865742 -0.00232323 -1.78687e-20)
(0.0075827 -0.00235635 0)
(0.00656647 -0.00230329 -6.59711e-20)
(0.00564293 -0.00219424 6.32805e-20)
(0.00481428 -0.00204147 -6.13434e-20)
(0.00409461 -0.00187086 0)
(0.0034426 -0.00166055 1.11567e-19)
(0.00317299 -0.00156297 6.60319e-20)
(0.00332649 -0.00150282 -1.11954e-19)
(0.00362957 -0.00141535 1.13994e-20)
(0.00400946 -0.00128974 -1.1188e-20)
(0.00449079 -0.00112748 -1.01007e-20)
(0.00506737 -0.000925068 -9.37865e-21)
(0.0057668 -0.000709208 8.22728e-21)
(0.00648023 -0.000509072 5.51757e-22)
(0.00705424 -0.000347019 0)
(0.00747257 -0.000230027 -5.12249e-22)
(0.00778086 -0.000152333 0)
(0.00801679 -0.000103924 4.77176e-22)
(0.00820614 -7.63657e-05 7.24099e-21)
(0.00836813 -6.31531e-05 -7.6491e-21)
(0.00851647 -5.88946e-05 6.38136e-22)
(0.00865923 -5.91759e-05 -6.39261e-21)
(0.00879966 -6.0626e-05 1.20755e-20)
(0.00893745 -6.08545e-05 -1.1885e-20)
(0.00906987 -5.83692e-05 6.13791e-21)
(0.00919299 -5.25965e-05 0)
(0.00930254 -4.37359e-05 -2.78995e-21)
(0.00939475 -3.23185e-05 2.61429e-21)
(0.00946679 -1.88703e-05 2.8212e-22)
(0.00951716 -4.58877e-06 2.05941e-21)
(0.00954574 9.3743e-06 -1.80627e-21)
(0.00955371 2.20572e-05 -1.79527e-21)
(0.00954343 3.27371e-05 2.00805e-21)
(0.00951817 4.13399e-05 -1.73726e-21)
(0.00948145 4.76254e-05 3.03704e-21)
(0.00943709 5.13798e-05 -1.88117e-21)
(0.00938869 5.26438e-05 6.40435e-22)
(0.00933963 5.16946e-05 1.36158e-22)
(0.00929275 4.89112e-05 0)
(0.00925031 4.48158e-05 -2.82446e-22)
(0.00921383 3.99329e-05 3.8636e-22)
(0.0091841 3.47034e-05 -2.04152e-23)
(0.00916134 2.95951e-05 1.29071e-22)
(0.00914525 2.52074e-05 0)
(0.00913368 2.23233e-05 0)
(0.00912931 2.40925e-05 8.75695e-24)
(0.0167225 0.00106965 0)
(0.0174214 0.0023456 2.27631e-21)
(0.018118 0.00275818 -2.24113e-21)
(0.0185281 0.00271355 -4.46391e-21)
(0.0183964 0.00246855 4.4869e-21)
(0.0180537 0.00208611 0)
(0.0175643 0.00167636 0)
(0.0170102 0.00131176 0)
(0.0164705 0.00101031 9.29949e-21)
(0.0159891 0.000770279 -1.87755e-20)
(0.015577 0.000588469 -9.36586e-21)
(0.0152303 0.000456373 1.8979e-20)
(0.0149398 0.000362788 1.89104e-20)
(0.0146954 0.000298783 -1.90129e-20)
(0.0144863 0.0002569 0)
(0.0143026 0.000230837 1.88635e-20)
(0.0141364 0.000215992 -3.77447e-20)
(0.0139815 0.000209138 1.88744e-20)
(0.0138329 0.000208093 0)
(0.0136869 0.000211503 0)
(0.0135402 0.000218699 0)
(0.0133902 0.000229472 0)
(0.0132342 0.000243911 0)
(0.0130697 0.000262313 3.6809e-20)
(0.0128936 0.000285138 -3.69059e-20)
(0.0127029 0.000312989 0)
(0.0124941 0.000346634 0)
(0.0122629 0.000387073 0)
(0.0120048 0.000435665 0)
(0.011714 0.000494352 0)
(0.0113842 0.000566071 3.6052e-20)
(0.0110061 0.000655553 -3.62311e-20)
(0.0105802 0.000771499 0)
(0.0100518 0.00091914 -2.25142e-21)
(0.00947431 0.00113996 0)
(0.00908047 0.00150372 7.34354e-20)
(0.00897672 0.00203312 -1.47963e-19)
(0.00910983 0.00270451 0)
(0.00943718 0.00348224 2.95847e-19)
(0.00995793 0.00432949 2.59963e-22)
(0.010728 0.00521063 3.66261e-20)
(0.0117001 0.00605459 -3.63907e-20)
(0.0127423 0.00679817 2.89833e-19)
(0.0137895 0.00742222 0)
(0.0148304 0.00792709 3.24659e-19)
(0.0158633 0.00831657 -3.06069e-19)
(0.016899 0.00859337 -3.05768e-19)
(0.0179099 0.00875522 0)
(0.0189013 0.00878202 -1.43877e-19)
(0.0198725 0.00868022 0)
(0.0207902 0.00844183 2.8847e-19)
(0.0216499 0.00806339 0)
(0.0224168 0.00753165 -1.26965e-19)
(0.023085 0.0068629 -1.62736e-19)
(0.0236136 0.0060523 -1.44915e-19)
(0.0239804 0.00512569 -7.26789e-20)
(0.0241662 0.0041009 -7.18824e-20)
(0.024121 0.00299706 -3.60204e-20)
(0.0238831 0.00186511 1.7942e-20)
(0.0233801 0.000719643 2.68112e-20)
(0.0226631 -0.000379688 0)
(0.021747 -0.00140054 7.11909e-20)
(0.0206545 -0.00231325 -7.11009e-20)
(0.0194568 -0.00309561 0)
(0.0181658 -0.00373793 -2.83596e-19)
(0.0168687 -0.00424125 0)
(0.0155757 -0.00460908 -3.50813e-20)
(0.0143441 -0.00486201 3.55583e-20)
(0.0131885 -0.00501382 0)
(0.0121232 -0.00508592 -3.45241e-20)
(0.0111667 -0.00509824 3.48405e-20)
(0.0103043 -0.00506014 3.7531e-19)
(0.0095398 -0.00499198 -2.36575e-19)
(0.00886918 -0.00490101 1.92843e-21)
(0.00827604 -0.00479237 -2.6079e-19)
(0.00775473 -0.00467345 -1.59568e-20)
(0.00729807 -0.00454611 2.69945e-19)
(0.00689297 -0.00441066 0)
(0.00653236 -0.00426902 2.44695e-19)
(0.00621121 -0.00412137 4.63274e-19)
(0.00592155 -0.00396721 -4.46774e-19)
(0.00565755 -0.00380744 -2.37948e-19)
(0.00541538 -0.00364284 2.33164e-19)
(0.0051912 -0.00347446 -2.27083e-19)
(0.00498387 -0.00330431 0)
(0.00479205 -0.00313336 -2.11699e-19)
(0.00461284 -0.00296244 -2.97072e-21)
(0.00444818 -0.00279354 -4.14488e-19)
(0.00429874 -0.00262658 -1.88345e-19)
(0.00416139 -0.00246099 -2.03126e-19)
(0.00403847 -0.00229736 0)
(0.00393029 -0.00213419 0)
(0.00383272 -0.00197035 9.23244e-20)
(0.00374871 -0.00180614 0)
(0.0036754 -0.00163987 1.10703e-20)
(0.00361391 -0.0014721 -1.09494e-20)
(0.00356335 -0.00130247 8.54821e-20)
(0.00352474 -0.00113155 -8.41186e-20)
(0.00349782 -0.00095946 -7.2238e-20)
(0.00348611 -0.000786744 -1.01942e-20)
(0.00349108 -0.000613216 3.99967e-20)
(0.00351429 -0.000438707 -1.97255e-20)
(0.00355992 -0.000262485 1.46125e-20)
(0.00362782 -8.3109e-05 -4.84464e-21)
(0.00372393 0.000100963 0)
(0.00384784 0.000292047 -3.798e-20)
(0.00400291 0.000492843 0)
(0.00419045 0.000706188 -7.50642e-20)
(0.00441049 0.000935279 -1.08595e-22)
(0.0046642 0.00118309 7.21654e-20)
(0.00495149 0.00145254 -7.41455e-20)
(0.00527114 0.00174594 2.31322e-21)
(0.00562413 0.00206499 0)
(0.00600541 0.00241076 -7.29725e-20)
(0.0064175 0.00278412 7.2619e-20)
(0.0068571 0.00318386 0)
(0.00731944 0.00360869 -4.48175e-21)
(0.0078056 0.00405625 1.4756e-19)
(0.00831124 0.0045226 1.33714e-19)
(0.0088326 0.00500361 -1.32972e-19)
(0.0093701 0.00549435 1.41374e-19)
(0.00992026 0.00598832 8.79787e-21)
(0.010479 0.00647906 -1.31976e-19)
(0.0110469 0.0069603 -1.75846e-20)
(0.0116227 0.00742441 -1.58119e-19)
(0.0122044 0.00786439 3.16321e-19)
(0.0127922 0.00827333 -1.583e-19)
(0.0133858 0.00864425 1.23367e-19)
(0.0139863 0.00897116 -1.06212e-19)
(0.014598 0.0092485 -1.77574e-19)
(0.0152185 0.00946743 -1.06965e-19)
(0.0158447 0.00962666 -1.78792e-20)
(0.0164894 0.00971861 -1.25697e-19)
(0.0171467 0.00973356 -1.62517e-19)
(0.0178116 0.00967379 1.81588e-20)
(0.0184969 0.00953368 -1.81661e-20)
(0.0191786 0.00929479 -5.45743e-20)
(0.0198571 0.00896475 -1.78943e-20)
(0.0205203 0.00852984 1.83627e-20)
(0.0211506 0.00798851 -1.83801e-20)
(0.0217306 0.00733788 7.31429e-20)
(0.0222326 0.00657866 -1.91933e-20)
(0.0226246 0.0057176 9.71447e-23)
(0.0228917 0.00476985 1.83865e-20)
(0.0229767 0.00375214 7.24906e-20)
(0.0228973 0.00269901 0)
(0.0225822 0.00162186 -3.52148e-20)
(0.02205 0.000573223 2.19427e-20)
(0.0213118 -0.00041635 -1.72634e-20)
(0.0203518 -0.0013116 5.05341e-20)
(0.0192435 -0.00208387 1.61286e-20)
(0.0179615 -0.00271545 -6.50989e-20)
(0.0166043 -0.00319627 -7.8995e-20)
(0.0151709 -0.00352299 3.10534e-20)
(0.0137438 -0.0037111 -7.60736e-20)
(0.0123265 -0.0037694 5.89258e-20)
(0.0109744 -0.00372577 1.40083e-20)
(0.00969783 -0.00359448 5.47211e-20)
(0.00855205 -0.00341037 -1.37802e-20)
(0.00748226 -0.00315556 5.2058e-20)
(0.00687393 -0.00297762 -4.94632e-20)
(0.00676272 -0.00281467 3.50179e-20)
(0.00691499 -0.00260914 1.1178e-20)
(0.00722465 -0.00235127 2.05409e-20)
(0.00769411 -0.00205152 0)
(0.00829347 -0.00171463 1.79509e-20)
(0.00902368 -0.00137186 -1.61047e-20)
(0.00977104 -0.00105224 -2.625e-22)
(0.0104076 -0.000779482 2.32807e-22)
(0.0109137 -0.000566817 7.02486e-22)
(0.0113187 -0.000413975 7.48815e-21)
(0.0116505 -0.000312214 -4.4471e-22)
(0.0119305 -0.000250344 0)
(0.0121771 -0.000217243 4.11949e-22)
(0.0124045 -0.000202611 -3.95207e-22)
(0.0126214 -0.000197528 -6.68501e-21)
(0.0128318 -0.000194866 6.25573e-21)
(0.0130356 -0.000189435 5.3759e-21)
(0.0132298 -0.000177961 -5.67433e-21)
(0.0134096 -0.000158997 0)
(0.0135698 -0.000132669 2.9315e-22)
(0.0137054 -0.000100224 0)
(0.0138126 -6.36193e-05 1.76213e-21)
(0.0138894 -2.52898e-05 -1.19761e-22)
(0.0139352 1.22944e-05 -2.12293e-21)
(0.0139513 4.69336e-05 -4.27595e-22)
(0.0139408 7.69083e-05 -1.99464e-22)
(0.0139077 0.000100981 1.84677e-22)
(0.0138566 0.00011851 0)
(0.0137929 0.000129295 -1.55201e-22)
(0.0137217 0.000133706 -5.3231e-22)
(0.0136479 0.000132477 4.05832e-22)
(0.0135757 0.000126597 4.15432e-22)
(0.0135085 0.000117194 -5.11755e-22)
(0.0134487 0.000105457 0)
(0.0133976 9.26022e-05 -8.16551e-23)
(0.0133559 7.98577e-05 -1.19124e-22)
(0.0133234 6.83951e-05 -2.99056e-23)
(0.0132986 5.90961e-05 2.98466e-23)
(0.0132815 5.53677e-05 -8.07064e-24)
(0.0166172 0.000572801 0)
(0.0169992 0.00150881 0)
(0.0176812 0.00203699 0)
(0.0183319 0.0022575 -4.49822e-21)
(0.0187391 0.00227422 4.47058e-21)
(0.0189863 0.00213381 0)
(0.0189929 0.00190357 0)
(0.0188944 0.0016431 0)
(0.018705 0.00138227 0)
(0.0184582 0.00114117 0)
(0.0181865 0.000935515 0)
(0.0179214 0.000766605 1.79831e-20)
(0.0176737 0.000632766 -1.80947e-20)
(0.0174476 0.00053276 1.8006e-20)
(0.0172426 0.000461676 -3.60813e-20)
(0.0170558 0.000413298 1.80634e-20)
(0.0168836 0.000382539 1.7931e-20)
(0.016722 0.000365183 -1.79842e-20)
(0.016567 0.000358077 0)
(0.0164151 0.000359032 0)
(0.0162635 0.000366823 -3.54421e-20)
(0.0161092 0.00038093 3.55231e-20)
(0.0159496 0.000401334 0)
(0.0157819 0.000428394 3.50651e-20)
(0.0156032 0.000462761 -3.51465e-20)
(0.0154105 0.000505335 0)
(0.0152001 0.000557272 0)
(0.0149682 0.000620054 -3.45525e-20)
(0.0147102 0.000695616 2.21691e-22)
(0.014421 0.000786578 3.45382e-20)
(0.0140949 0.000896628 3.42033e-20)
(0.0137245 0.001031 -6.84283e-20)
(0.0133107 0.00119882 3.42311e-20)
(0.0128159 0.00140388 -3.17506e-20)
(0.0122781 0.00167939 3.42835e-20)
(0.0118785 0.00208476 3.46472e-20)
(0.0117269 0.0026398 -3.53668e-20)
(0.0118152 0.00332794 -1.05786e-19)
(0.0121256 0.00411896 -1.75401e-19)
(0.0126561 0.00497161 -3.45848e-20)
(0.013435 0.0058394 3.46655e-20)
(0.0144059 0.0066604 3.10487e-19)
(0.0154617 0.00739271 -3.09331e-19)
(0.0165465 0.00802216 -3.08546e-19)
(0.0176428 0.00854314 6.8425e-20)
(0.018744 0.00895203 -5.12317e-20)
(0.0198498 0.00924333 1.53518e-19)
(0.0209392 0.00942715 0)
(0.02201 0.0094254 1.5362e-19)
(0.0230579 0.0093264 -1.70415e-20)
(0.0240593 0.00910329 -1.36885e-19)
(0.0250069 0.00871034 -1.7098e-20)
(0.0258748 0.00816293 1.70845e-19)
(0.0266536 0.00747485 1.20411e-19)
(0.0273134 0.00664609 1.38041e-19)
(0.0278357 0.00569254 6.82747e-20)
(0.0282002 0.0046331 1.75613e-20)
(0.028368 0.00348424 -1.68784e-20)
(0.0283547 0.00228597 -1.67994e-20)
(0.0281059 0.00105165 -2.47435e-20)
(0.0276446 -0.000166697 -1.6261e-20)
(0.0269688 -0.00133864 0)
(0.0260873 -0.00243318 -6.48945e-20)
(0.0250463 -0.0034212 0)
(0.0238543 -0.00428723 2.26486e-19)
(0.0225844 -0.00501584 1.29388e-19)
(0.0212514 -0.00560335 3.24312e-20)
(0.0199158 -0.00605555 0)
(0.0186019 -0.00638172 0)
(0.0173375 -0.00659713 1.2764e-19)
(0.016152 -0.00671945 0)
(0.0150429 -0.00676065 -2.82863e-19)
(0.0140244 -0.0067406 2.80414e-19)
(0.0130981 -0.00667081 -2.61627e-19)
(0.0122552 -0.00655997 2.6967e-22)
(0.0114934 -0.00641802 2.64275e-22)
(0.0108065 -0.00625063 -2.07185e-19)
(0.0101837 -0.00606175 -2.92868e-20)
(0.00961851 -0.00585553 -2.15191e-19)
(0.00910552 -0.00563428 -2.26001e-19)
(0.0086365 -0.00539956 -1.62579e-21)
(0.00820496 -0.00515404 2.11644e-19)
(0.00780597 -0.00490021 -2.07904e-19)
(0.00743464 -0.00464081 0)
(0.00708865 -0.00437928 -3.22901e-21)
(0.00676581 -0.00411813 -2.0186e-19)
(0.00646296 -0.00385972 4.00172e-19)
(0.0061816 -0.00360704 5.9306e-19)
(0.00592255 -0.00336038 1.99385e-19)
(0.00568335 -0.00312007 -7.04764e-21)
(0.00546635 -0.00288671 0)
(0.00527243 -0.00265897 -5.7142e-21)
(0.0050984 -0.00243557 5.67125e-21)
(0.00494677 -0.0022164 0)
(0.00481522 -0.00199993 -8.71849e-20)
(0.00470445 -0.00178668 1.06235e-20)
(0.00461377 -0.0015759 -1.05372e-20)
(0.0045441 -0.00136851 -2.30853e-22)
(0.00449507 -0.00116394 -8.11082e-20)
(0.00447052 -0.0009635 9.90839e-21)
(0.00447185 -0.00076595 -1.96068e-20)
(0.00450131 -0.000571032 9.69904e-21)
(0.00456299 -0.000376837 7.75935e-24)
(0.00465704 -0.000180798 4.69196e-21)
(0.00478933 1.97352e-05 -4.67994e-21)
(0.0049589 0.000229087 3.69508e-20)
(0.005169 0.000450792 3.89049e-20)
(0.00541954 0.000689268 7.04569e-20)
(0.00570992 0.000948473 -1.44376e-19)
(0.00603993 0.00123202 6.94143e-20)
(0.00640827 0.00154313 2.23342e-21)
(0.00681249 0.00188425 2.20137e-21)
(0.0072523 0.00225692 -2.2031e-21)
(0.00772181 0.002662 6.98173e-20)
(0.0082225 0.00309937 -4.39934e-21)
(0.00874984 0.00356749 2.78919e-23)
(0.00929962 0.00406446 -5.98591e-20)
(0.00987169 0.0045868 -2.08414e-19)
(0.0104619 0.00512998 1.35372e-19)
(0.0110673 0.00568903 1.34764e-19)
(0.0116876 0.00625783 -1.42602e-19)
(0.01232 0.00682921 -1.25544e-19)
(0.0129616 0.00739591 1.25194e-19)
(0.013613 0.00795026 1.50202e-19)
(0.0142733 0.00848372 1.24978e-19)
(0.0149415 0.00898825 -1.65073e-20)
(0.0156182 0.00945567 1.67071e-20)
(0.0163034 0.00987784 0)
(0.0169985 0.0102473 1.51004e-19)
(0.0177063 0.0105568 1.34637e-19)
(0.0184257 0.0107971 1.18222e-19)
(0.019152 0.0109704 0)
(0.0198954 0.011059 1.53012e-19)
(0.0206539 0.0110547 -1.70253e-20)
(0.0214208 0.0109619 5.10543e-20)
(0.0221977 0.0107733 1.7103e-20)
(0.0229682 0.0104742 5.0555e-22)
(0.0237314 0.0100792 8.61071e-20)
(0.024474 0.00956441 -1.71856e-20)
(0.0251794 0.00893478 8.54181e-20)
(0.0258306 0.00819199 -1.5443e-19)
(0.0264037 0.00733986 -1.37087e-19)
(0.0268738 0.00638744 -6.78299e-20)
(0.0272252 0.00535033 0)
(0.0274169 0.00424097 1.61109e-20)
(0.0274518 0.00309246 -2.76535e-22)
(0.027279 0.00191837 -7.9499e-21)
(0.0269043 0.000761288 2.80356e-20)
(0.0263278 -0.000348439 -1.58952e-20)
(0.0255291 -0.00138027 3.0541e-20)
(0.0245552 -0.00230289 -3.0389e-20)
(0.0233791 -0.00309912 0)
(0.0220753 -0.00374711 7.21668e-20)
(0.020637 -0.00424003 -2.81587e-20)
(0.0191378 -0.00457849 5.56579e-20)
(0.0175823 -0.00476785 1.36788e-20)
(0.0160314 -0.00482512 -6.49502e-20)
(0.0145015 -0.00476342 1.29851e-20)
(0.0130812 -0.00461372 0)
(0.011718 -0.00436909 -5.9408e-20)
(0.0108074 -0.00413887 5.91975e-22)
(0.01038 -0.00389425 5.25247e-22)
(0.0102662 -0.00359448 4.7523e-22)
(0.0103675 -0.00323281 -1.88497e-20)
(0.0106788 -0.00282744 3.74641e-22)
(0.0111553 -0.00239276 1.4599e-22)
(0.0117778 -0.00196193 7.98276e-21)
(0.0124337 -0.00156094 -6.94103e-21)
(0.0130152 -0.00121101 -7.41788e-21)
(0.0135046 -0.000927839 -6.92958e-22)
(0.0139204 -0.00071558 7.13237e-21)
(0.0142796 -0.000568249 -8.48468e-22)
(0.0145954 -0.000474515 -6.41803e-21)
(0.0148805 -0.00042099 6.3802e-21)
(0.0151458 -0.000394055 7.52188e-22)
(0.0153987 -0.000381167 7.18704e-22)
(0.0156425 -0.00037181 0)
(0.015877 -0.000358022 -5.10325e-21)
(0.0160993 -0.000334593 5.07563e-21)
(0.016305 -0.00029903 0)
(0.0164886 -0.00025129 5.55395e-22)
(0.0166448 -0.000193258 0)
(0.0167695 -0.000128107 -4.93642e-22)
(0.0168601 -5.97457e-05 -1.79961e-21)
(0.0169156 7.743e-06 1.79622e-21)
(0.0169371 7.0576e-05 4.06691e-22)
(0.0169272 0.000125611 -3.77519e-22)
(0.0168901 0.000170487 0)
(0.0168309 0.000203875 1.23214e-21)
(0.0167554 0.000225458 -1.23034e-21)
(0.0166695 0.000235718 -2.65728e-22)
(0.0165789 0.00023579 -4.49438e-22)
(0.0164884 0.000227304 4.49145e-22)
(0.0164023 0.000212192 -3.38442e-22)
(0.0163236 0.000192577 3.3823e-22)
(0.0162545 0.000170615 1.27519e-22)
(0.0161959 0.000148381 8.5068e-23)
(0.0161479 0.000127806 -5.65154e-23)
(0.0161101 0.000110115 -7.08621e-23)
(0.0160769 9.7573e-05 0)
(0.0165896 0.000358693 0)
(0.0167624 0.00101813 0)
(0.0172171 0.00148072 0)
(0.0178033 0.00174267 -4.57833e-21)
(0.018314 0.00185196 4.53575e-21)
(0.0187139 0.00184519 0)
(0.0189971 0.00175607 -8.89877e-21)
(0.0191799 0.0016104 8.89547e-21)
(0.019284 0.00143826 8.83511e-21)
(0.0192792 0.00126302 -1.7678e-20)
(0.0192327 0.00109787 8.84939e-21)
(0.0191481 0.000947087 0)
(0.0190338 0.000816458 0)
(0.0189062 0.000711866 -1.75539e-20)
(0.0187748 0.000631602 9.06556e-23)
(0.0186438 0.000572802 3.50592e-20)
(0.0185154 0.00053307 -1.75305e-20)
(0.0183893 0.000508979 0)
(0.0182644 0.00049765 0)
(0.018139 0.000496996 -1.72659e-20)
(0.0180115 0.000505726 1.72979e-20)
(0.0178798 0.000523191 0)
(0.0177417 0.000549334 0)
(0.0175949 0.000584586 3.39863e-20)
(0.0174371 0.000629769 -6.78853e-20)
(0.0172656 0.000686032 3.38995e-20)
(0.0170773 0.000754847 3.35474e-20)
(0.0168688 0.000838062 -2.09023e-22)
(0.0166364 0.000938007 -6.6713e-20)
(0.0163759 0.00105768 3.33166e-20)
(0.016083 0.00120104 3.29562e-20)
(0.0157521 0.00137326 -2.16404e-22)
(0.0153847 0.00158262 -3.28777e-20)
(0.0149546 0.00183242 -3.2472e-20)
(0.0144909 0.00214771 3.28189e-20)
(0.0141343 0.00257412 0)
(0.0139841 0.00312572 1.36041e-19)
(0.0140554 0.00378896 2.71203e-19)
(0.0143461 0.00453785 0)
(0.014855 0.00533394 -1.33985e-19)
(0.0155956 0.00613229 3.32611e-20)
(0.0165112 0.00688369 -2.97469e-19)
(0.0175138 0.00755869 2.63702e-19)
(0.0185551 0.00814477 2.63362e-19)
(0.0196153 0.00863386 1.64847e-19)
(0.0206855 0.00901823 -3.29105e-20)
(0.0217599 0.00928894 -1.31748e-19)
(0.0228274 0.0094645 1.15333e-19)
(0.023877 0.00945275 1.64678e-20)
(0.0248962 0.00935293 1.31804e-19)
(0.0258769 0.00910311 0)