/*--------------------------------*- C++ -*----------------------------------*\
| =========                 |                                                 |
| \\      /  F ield         | OpenFOAM: The Open Source CFD Toolbox           |
|  \\    /   O peration     | Version:  2506                                  |
|   \\  /    A nd           | Website:  www.openfoam.com                      |
|    \\/     M anipulation  |                                                 |
\*---------------------------------------------------------------------------*/
FoamFile
{
    version     2.0;
    format      ascii;
    arch        "LSB;label=32;scalar=64";
    class       volScalarField;
    location    "4.3";
    object      p;
}
// * * * * * * * * * * * * * * * * * * * * * * * * * * * * * * * * * * * * * //

dimensions      [0 2 -2 0 0 0 0];

internalField   nonuniform List<scalar> 
4000
(
0.000562038
0.000504116
0.00047276
0.000459205
0.000450995
0.000445273
0.000441278
0.000438278
0.0004358
0.000433621
0.000431639
0.000429795
0.000428054
0.000426396
0.000424806
0.000423275
0.000421799
0.000420373
0.000418999
0.000417679
0.000416416
0.000415215
0.000414085
0.000413031
0.000412062
0.000411185
0.000410411
0.000409748
0.000409205
0.000408792
0.00040852
0.000408408
0.000408471
0.000408595
0.00040926
0.000410354
0.000411095
0.000411304
0.000410949
0.000409758
0.000407431
0.00040277
0.000395809
0.000387321
0.000377349
0.000366099
0.000353703
0.000340066
0.000325824
0.000310854
0.000295407
0.000279979
0.000264379
0.000249538
0.000235007
0.000221775
0.000209721
0.000199035
0.000190413
0.000182805
0.000177644
0.000173788
0.000171498
0.000170672
0.000170745
0.000172024
0.000173781
0.00017631
0.00017911
0.000182266
0.000185603
0.000188988
0.000192482
0.000195918
0.000199297
0.000202591
0.000205735
0.000208706
0.000211491
0.000214055
0.000216389
0.000218495
0.000220375
0.000222045
0.000223529
0.000224846
0.000226024
0.000227091
0.000228063
0.000228963
0.000229811
0.000230612
0.00023138
0.000232124
0.000232845
0.000233551
0.000234242
0.000234922
0.000235592
0.000236256
0.00023691
0.000237561
0.000238213
0.000238867
0.000239526
0.000240185
0.000240849
0.000241506
0.000242155
0.000242779
0.000243364
0.000243884
0.000244319
0.000244617
0.000244765
0.00024468
0.000244333
0.000243664
0.000242593
0.00024108
0.000239059
0.000236452
0.000233223
0.000229332
0.000224714
0.000219357
0.000213241
0.000206351
0.000198701
0.0001903
0.000181121
0.000171287
0.000160801
0.000149601
0.000137936
0.000125835
0.000113083
0.000100338
8.71965e-05
7.41196e-05
6.11386e-05
4.84892e-05
3.63972e-05
2.52253e-05
1.48309e-05
6.23812e-06
-1.48006e-06
-6.96178e-06
-1.1031e-05
-1.35293e-05
-1.42584e-05
-1.40382e-05
-1.22422e-05
-9.87017e-06
-6.50167e-06
-2.85596e-06
1.30584e-06
5.52345e-06
9.84781e-06
1.40629e-05
1.87731e-05
2.243e-05
2.57503e-05
2.87252e-05
3.13903e-05
3.35805e-05
3.53317e-05
3.60797e-05
3.6038e-05
3.54912e-05
3.45201e-05
3.32297e-05
3.17336e-05
3.01319e-05
2.85073e-05
2.69242e-05
2.54279e-05
2.40448e-05
2.27826e-05
2.16337e-05
2.05776e-05
1.95864e-05
1.86283e-05
1.76729e-05
1.66943e-05
1.56735e-05
1.45995e-05
1.3469e-05
1.22846e-05
1.10669e-05
9.8225e-06
8.5698e-06
7.32789e-06
6.11495e-06
4.94748e-06
3.83957e-06
2.80232e-06
1.84148e-06
9.57238e-07
2.09879e-07
0.000510374
0.000487244
0.000469336
0.000459546
0.000452678
0.000447111
0.000442821
0.000439497
0.00043676
0.000434382
0.00043225
0.000430294
0.000428471
0.000426753
0.000425119
0.000423558
0.00042206
0.000420622
0.00041924
0.000417916
0.000416652
0.000415453
0.000414325
0.000413276
0.000412312
0.000411443
0.000410677
0.000410024
0.000409494
0.000409096
0.000408843
0.000408748
0.00040883
0.000408945
0.00040948
0.000410333
0.000410715
0.000410468
0.000409508
0.00040751
0.000404173
0.000398556
0.000390938
0.000381998
0.000371732
0.000360324
0.00034791
0.000334446
0.000320523
0.000306029
0.000291207
0.00027651
0.000261777
0.000247846
0.000234361
0.000222066
0.000210813
0.000200755
0.000192508
0.000185202
0.000180021
0.000176062
0.000173509
0.000172336
0.000172033
0.000172894
0.000174269
0.000176418
0.000178895
0.000181752
0.000184846
0.000188023
0.000191344
0.000194654
0.000197937
0.000201175
0.0002043
0.000207287
0.000210119
0.000212762
0.000215198
0.000217421
0.000219425
0.000221217
0.000222811
0.000224224
0.00022548
0.000226608
0.000227625
0.000228557
0.000229429
0.000230246
0.000231028
0.000231787
0.000232521
0.000233246
0.000233955
0.000234661
0.000235355
0.000236051
0.000236743
0.000237437
0.000238127
0.000238815
0.000239506
0.000240189
0.000240871
0.000241534
0.000242174
0.000242771
0.000243306
0.000243749
0.000244074
0.000244225
0.000244185
0.000243865
0.000243238
0.000242239
0.000240793
0.000238861
0.00023638
0.000233284
0.000229543
0.000225126
0.000219981
0.000214109
0.000207501
0.000200153
0.000192091
0.000183336
0.000173872
0.000163835
0.000153241
0.000142037
0.000130464
0.000118528
0.000106122
9.3771e-05
8.11854e-05
6.87566e-05
5.65512e-05
4.4767e-05
3.36202e-05
2.3393e-05
1.40566e-05
6.24901e-06
-6.9836e-07
-5.72513e-06
-9.47053e-06
-1.18319e-05
-1.25852e-05
-1.24718e-05
-1.09046e-05
-8.78575e-06
-5.70938e-06
-2.34498e-06
1.54223e-06
5.51447e-06
9.64164e-06
1.35896e-05
1.82238e-05
2.19091e-05
2.52745e-05
2.83087e-05
3.10104e-05
3.31731e-05
3.48499e-05
3.5539e-05
3.55046e-05
3.49964e-05
3.40663e-05
3.28107e-05
3.13438e-05
2.97656e-05
2.81587e-05
2.65888e-05
2.51036e-05
2.3732e-05
2.24841e-05
2.13539e-05
2.03222e-05
1.9361e-05
1.84382e-05
1.7522e-05
1.65849e-05
1.56058e-05
1.45719e-05
1.34787e-05
1.23295e-05
1.11362e-05
9.91043e-06
8.67028e-06
7.43473e-06
6.22252e-06
5.05103e-06
3.93529e-06
2.88709e-06
1.9124e-06
1.01012e-06
2.24201e-07
0.000486045
0.000478475
0.000467904
0.000459939
0.000453669
0.00044855
0.00044425
0.000440734
0.000437788
0.000435221
0.000432933
0.000430853
0.000428931
0.000427136
0.000425444
0.000423838
0.000422306
0.000420843
0.000419443
0.000418105
0.000416831
0.000415624
0.000414489
0.000413434
0.000412465
0.000411592
0.000410823
0.000410167
0.000409634
0.000409234
0.000408976
0.000408869
0.000408933
0.000408988
0.000409364
0.000409948
0.000409934
0.000409173
0.00040758
0.000404805
0.000400609
0.000394298
0.000386299
0.000377171
0.00036687
0.000355554
0.000343374
0.000330338
0.000316974
0.000303182
0.000289182
0.000275385
0.000261697
0.000248719
0.000236199
0.000224712
0.000214174
0.000204665
0.000196707
0.000189571
0.000184234
0.000179998
0.000177018
0.000175329
0.000174484
0.000174788
0.000175639
0.000177304
0.000179356
0.000181841
0.00018463
0.000187546
0.000190665
0.000193815
0.000196979
0.000200142
0.000203229
0.000206212
0.000209075
0.000211775
0.000214288
0.000216604
0.000218707
0.000220597
0.000222285
0.000223778
0.000225099
0.000226278
0.00022733
0.000228283
0.000229168
0.000229991
0.000230775
0.000231538
0.000232274
0.000233009
0.000233728
0.000234452
0.000235165
0.000235887
0.000236599
0.00023732
0.000238037
0.000238753
0.000239471
0.000240171
0.000240866
0.000241525
0.000242147
0.000242705
0.000243175
0.000243524
0.000243719
0.000243701
0.000243451
0.000242878
0.000241955
0.00024062
0.000238801
0.000236465
0.000233559
0.000230025
0.000225846
0.000220998
0.000215446
0.0002092
0.000202261
0.000194636
0.000186356
0.000177449
0.000167923
0.000157887
0.000147368
0.000136347
0.000125032
0.000113444
0.000101533
8.97263e-05
7.78212e-05
6.61395e-05
5.47682e-05
4.38603e-05
3.36051e-05
2.42047e-05
1.56249e-05
8.39268e-06
1.96946e-06
-2.81285e-06
-6.44556e-06
-8.88279e-06
-9.85288e-06
-1.00431e-05
-8.8484e-06
-7.12508e-06
-4.4263e-06
-1.42972e-06
2.13829e-06
5.81753e-06
9.74469e-06
1.33836e-05
1.80186e-05
2.16032e-05
2.49303e-05
2.79749e-05
3.06888e-05
3.27956e-05
3.44021e-05
3.50231e-05
3.49842e-05
3.45067e-05
3.36025e-05
3.23618e-05
3.09041e-05
2.93318e-05
2.77287e-05
2.6163e-05
2.4685e-05
2.33261e-05
2.20983e-05
2.09963e-05
2.00008e-05
1.90827e-05
1.8208e-05
1.73428e-05
1.64569e-05
1.55271e-05
1.45385e-05
1.34851e-05
1.23693e-05
1.11985e-05
9.9892e-06
8.75841e-06
7.52543e-06
6.31007e-06
5.13086e-06
4.00396e-06
2.94215e-06
1.95217e-06
1.03231e-06
2.06435e-07
0.000475054
0.000472269
0.000465816
0.000459321
0.000454013
0.000449461
0.00044532
0.000441839
0.000438795
0.000436087
0.000433666
0.000431458
0.000429424
0.000427538
0.000425769
0.000424099
0.000422515
0.000421009
0.000419574
0.000418205
0.000416903
0.000415671
0.000414512
0.000413433
0.000412439
0.000411539
0.000410742
0.000410054
0.000409486
0.000409043
0.000408734
0.000408559
0.000408529
0.00040846
0.000408647
0.000408961
0.000408571
0.00040733
0.000405171
0.000401772
0.000396972
0.000390249
0.000382084
0.00037294
0.000362774
0.000351736
0.000339984
0.000327562
0.000314969
0.000302028
0.000288973
0.000276213
0.000263655
0.000251709
0.000240236
0.000229577
0.000219756
0.000210776
0.000203045
0.000196003
0.000190415
0.000185784
0.000182245
0.000179886
0.000178347
0.00017793
0.000178103
0.000179134
0.000180628
0.000182622
0.000185003
0.000187571
0.000190414
0.000193344
0.000196337
0.000199381
0.000202391
0.000205336
0.000208199
0.000210932
0.000213502
0.000215895
0.000218087
0.000220069
0.000221845
0.000223415
0.000224796
0.000226023
0.000227103
0.00022807
0.00022896
0.000229779
0.000230554
0.000231312
0.00023204
0.000232777
0.000233497
0.000234234
0.00023496
0.000235706
0.000236441
0.000237191
0.000237936
0.000238678
0.000239422
0.000240136
0.000240839
0.000241489
0.000242083
0.000242589
0.000242978
0.00024321
0.000243253
0.000243039
0.000242556
0.000241704
0.000240464
0.000238779
0.000236581
0.000233847
0.000230535
0.000226597
0.000222028
0.000216816
0.000210939
0.000204416
0.000197257
0.000189479
0.000181118
0.000172211
0.000162776
0.000152906
0.000142648
0.000132001
0.000121132
0.000110086
9.88495e-05
8.77568e-05
7.66787e-05
6.58626e-05
5.54021e-05
4.54034e-05
3.602e-05
2.73862e-05
1.94787e-05
1.26949e-05
6.62377e-06
1.88612e-06
-1.85657e-06
-4.58762e-06
-6.0032e-06
-6.70295e-06
-6.08058e-06
-4.91864e-06
-2.74176e-06
-2.21249e-07
2.94771e-06
6.27812e-06
9.99445e-06
1.33374e-05
1.79748e-05
2.14421e-05
2.46819e-05
2.77008e-05
3.04101e-05
3.24525e-05
3.39921e-05
3.45333e-05
3.44605e-05
3.3985e-05
3.30812e-05
3.18326e-05
3.03663e-05
2.87884e-05
2.71842e-05
2.56232e-05
2.41579e-05
2.28205e-05
2.16231e-05
2.056e-05
1.96101e-05
1.87423e-05
1.79202e-05
1.71076e-05
1.62725e-05
1.53896e-05
1.4443e-05
1.34261e-05
1.23418e-05
1.11919e-05
9.99907e-06
8.77901e-06
7.55122e-06
6.33629e-06
5.1536e-06
4.0201e-06
2.94936e-06
1.9488e-06
1.02008e-06
1.66221e-07
0.000468326
0.000466999
0.000463025
0.00045833
0.000454001
0.00044993
0.000446174
0.000442838
0.000439748
0.000436975
0.000434471
0.000432134
0.000429979
0.00042799
0.000426125
0.000424369
0.000422712
0.000421142
0.00041965
0.00041823
0.000416881
0.000415603
0.000414399
0.000413273
0.00041223
0.000411277
0.000410421
0.000409669
0.000409026
0.000408498
0.000408087
0.000407786
0.000407601
0.000407354
0.000407305
0.000407309
0.000406541
0.000404847
0.000402187
0.000398288
0.000393058
0.000386102
0.000377911
0.000368878
0.000358983
0.000348373
0.000337206
0.000325569
0.000313783
0.000301795
0.000289891
0.000278273
0.000266897
0.000256052
0.000245657
0.000235923
0.000226876
0.000218488
0.000211045
0.000204159
0.00019838
0.000193388
0.000189291
0.000186215
0.000183914
0.000182653
0.000182012
0.000182245
0.000183018
0.000184361
0.000186181
0.000188268
0.000190713
0.00019332
0.000196055
0.000198906
0.000201776
0.00020463
0.000207449
0.000210178
0.000212776
0.000215225
0.000217491
0.000219556
0.000221417
0.000223063
0.000224508
0.000225784
0.000226892
0.00022787
0.000228759
0.000229567
0.000230325
0.000231069
0.000231781
0.000232513
0.00023323
0.000233976
0.000234713
0.000235484
0.00023624
0.000237021
0.000237793
0.00023856
0.000239324
0.000240045
0.000240743
0.000241364
0.000241906
0.000242329
0.000242599
0.000242674
0.000242518
0.000242061
0.000241295
0.000240121
0.000238527
0.000236464
0.000233871
0.000230739
0.000227036
0.000222727
0.000217819
0.000212312
0.000206195
0.000199495
0.000192232
0.000184431
0.000176131
0.000167373
0.000158184
0.000148644
0.00013883
0.000128724
0.000118447
0.000108103
9.7684e-05
8.74313e-05
7.72784e-05
6.74037e-05
5.78945e-05
4.88173e-05
4.02871e-05
3.23849e-05
2.5101e-05
1.87022e-05
1.29053e-05
8.13333e-06
4.18415e-06
1.06438e-06
-9.25131e-07
-2.26162e-06
-2.37885e-06
-1.93356e-06
-4.55975e-07
1.4386e-06
4.06608e-06
6.93956e-06
1.03755e-05
1.34044e-05
1.79795e-05
2.13091e-05
2.44146e-05
2.73568e-05
3.0021e-05
3.19658e-05
3.34069e-05
3.38429e-05
3.3713e-05
3.32259e-05
3.23198e-05
3.10683e-05
2.96043e-05
2.80369e-05
2.64506e-05
2.49148e-05
2.34816e-05
2.21828e-05
2.10294e-05
2.00142e-05
1.91145e-05
1.82974e-05
1.75252e-05
1.67608e-05
1.59715e-05
1.51314e-05
1.42241e-05
1.32432e-05
1.21905e-05
1.1073e-05
9.90711e-06
8.70997e-06
7.50109e-06
6.30074e-06
5.12825e-06
4.00069e-06
2.93202e-06
1.93017e-06
1.00255e-06
1.23878e-07
0.000463837
0.000463081
0.000460516
0.00045711
0.000453616
0.000450158
0.000446801
0.000443595
0.000440538
0.000437789
0.000435257
0.000432801
0.000430541
0.000428457
0.000426486
0.000424632
0.000422891
0.000421242
0.000419675
0.000418186
0.00041677
0.000415426
0.000414156
0.00041296
0.000411843
0.00041081
0.000409865
0.000409013
0.000408258
0.000407601
0.000407041
0.000406565
0.000406173
0.000405705
0.000405376
0.000405027
0.000403879
0.000401774
0.000398685
0.000394398
0.000388873
0.000381823
0.000373723
0.000364909
0.000355396
0.000345327
0.000334854
0.000324078
0.000313125
0.000302215
0.00029153
0.000281069
0.000270876
0.000261149
0.000251836
0.000243045
0.0002348
0.000227064
0.000220003
0.000213371
0.000207542
0.000202323
0.000197776
0.00019407
0.000191067
0.000188963
0.00018747
0.000186815
0.000186755
0.00018731
0.000188419
0.000189881
0.000191783
0.000193934
0.000196292
0.000198841
0.000201477
0.000204159
0.000206861
0.000209526
0.000212103
0.000214566
0.000216875
0.000219001
0.000220934
0.000222651
0.000224158
0.000225484
0.000226623
0.000227615
0.000228504
0.000229298
0.000230033
0.000230757
0.000231446
0.000232168
0.000232875
0.000233629
0.000234373
0.000235168
0.000235946
0.000236755
0.00023755
0.000238335
0.000239107
0.000239815
0.000240482
0.000241042
0.00024149
0.000241783
0.00024188
0.00024174
0.000241327
0.000240573
0.000239475
0.000237938
0.000235961
0.000233507
0.000230524
0.000227015
0.000222962
0.000218342
0.000213173
0.000207464
0.000201216
0.000194461
0.000187225
0.000179537
0.000171441
0.000162978
0.000154177
0.000145112
0.000135884
0.000126405
0.000116876
0.000107339
9.78065e-05
8.84526e-05
7.92548e-05
7.03321e-05
6.17569e-05
5.35668e-05
4.5842e-05
3.86335e-05
3.18961e-05
2.58417e-05
2.02814e-05
1.5462e-05
1.12889e-05
7.77625e-06
5.18631e-06
3.17778e-06
2.24131e-06
1.88104e-06
2.5241e-06
3.66058e-06
5.59756e-06
7.88764e-06
1.09292e-05
1.3597e-05
1.79769e-05
2.11289e-05
2.40468e-05
2.68451e-05
2.94013e-05
3.11992e-05
3.24946e-05
3.28015e-05
3.26011e-05
3.20992e-05
3.12021e-05
2.99708e-05
2.85399e-05
2.70178e-05
2.54855e-05
2.4009e-05
2.26377e-05
2.14005e-05
2.03066e-05
1.93472e-05
1.84986e-05
1.77271e-05
1.69961e-05
1.627e-05
1.55172e-05
1.47125e-05
1.38409e-05
1.28976e-05
1.18847e-05
1.081e-05
9.68695e-06
8.53205e-06
7.36322e-06
6.19906e-06
5.05748e-06
3.95439e-06
2.90346e-06
1.91244e-06
9.94876e-07
9.22611e-08
0.000460824
0.000460336
0.000458555
0.000455979
0.000453112
0.000450128
0.0004471
0.000444104
0.000441201
0.000438458
0.000435851
0.000433351
0.000431053
0.000428898
0.00042681
0.000424857
0.000423029
0.000421295
0.000419645
0.000418075
0.000416579
0.000415153
0.000413798
0.000412513
0.000411299
0.00041016
0.000409098
0.000408115
0.000407212
0.000406389
0.000405639
0.000404947
0.000404306
0.000403582
0.00040294
0.000402211
0.000400694
0.000398227
0.000394787
0.000390216
0.000384515
0.000377486
0.000369573
0.000361066
0.000352014
0.00034256
0.000332836
0.000322931
0.000312966
0.000303165
0.000293583
0.000284251
0.000275212
0.000266572
0.000258302
0.000250446
0.000242968
0.000235905
0.000229299
0.000222992
0.000217268
0.000211982
0.000207116
0.000202938
0.000199391
0.000196558
0.000194275
0.000192752
0.000191836
0.000191541
0.000191844
0.000192569
0.000193795
0.000195358
0.000197208
0.000199327
0.000201609
0.000204009
0.000206495
0.000209007
0.000211484
0.000213895
0.000216191
0.000218336
0.00022031
0.000222079
0.000223638
0.000225014
0.000226186
0.000227196
0.000228088
0.000228872
0.000229584
0.000230287
0.000230948
0.000231656
0.00023235
0.000233106
0.000233855
0.00023467
0.000235464
0.000236295
0.000237103
0.000237887
0.000238644
0.000239309
0.000239905
0.000240356
0.000240656
0.000240759
0.000240623
0.000240209
0.000239484
0.000238384
0.000236918
0.000234998
0.000232635
0.000229804
0.000226467
0.000222635
0.000218304
0.000213462
0.000208137
0.000202342
0.000196086
0.000189405
0.000182329
0.000174889
0.000167128
0.000159085
0.000150795
0.000142326
0.000133719
0.000124977
0.000116278
0.000107592
9.89564e-05
9.05039e-05
8.22356e-05
7.42235e-05
6.65211e-05
5.91472e-05
5.21488e-05
4.55441e-05
3.93099e-05
3.35716e-05
2.82306e-05
2.33747e-05
1.8992e-05
1.51295e-05
1.19772e-05
9.32596e-06
7.57258e-06
6.39041e-06
6.13258e-06
6.42753e-06
7.55859e-06
9.15315e-06
1.16666e-05
1.39097e-05
1.7916e-05
2.08286e-05
2.35022e-05
2.60813e-05
2.84518e-05
3.00504e-05
3.11528e-05
3.1319e-05
3.10474e-05
3.05353e-05
2.96676e-05
2.84913e-05
2.71363e-05
2.57058e-05
2.42736e-05
2.2899e-05
2.16252e-05
2.0476e-05
1.9458e-05
1.85617e-05
1.77624e-05
1.70277e-05
1.63247e-05
1.56231e-05
1.48942e-05
1.41151e-05
1.32741e-05
1.23698e-05
1.1405e-05
1.03865e-05
9.32529e-06
8.23542e-06
7.13163e-06
6.02923e-06
4.94311e-06
3.88637e-06
2.87125e-06
1.90442e-06
1.00445e-06
8.04144e-08
0.000458823
0.000458464
0.000457117
0.000455059
0.00045263
0.000449988
0.000447219
0.000444407
0.000441621
0.000438912
0.000436304
0.000433803
0.000431437
0.000429192
0.000427048
0.000425023
0.00042311
0.00042129
0.000419555
0.000417898
0.000416314
0.000414798
0.000413346
0.000411956
0.000410629
0.000409364
0.000408161
0.000407022
0.000405944
0.000404923
0.000403952
0.000403011
0.000402092
0.000401085
0.000400107
0.000398986
0.000397118
0.00039434
0.000390625
0.000385861
0.000380082
0.000373165
0.000365513
0.000357378
0.000348845
0.000340049
0.000331104
0.000322087
0.000313142
0.000304385
0.000295866
0.000287618
0.000279663
0.000272041
0.000264734
0.000257733
0.000251023
0.000244596
0.000238461
0.000232531
0.000227053
0.000221847
0.00021677
0.000212282
0.000208387
0.000204997
0.000202055
0.000199766
0.000198051
0.000196925
0.000196401
0.000196341
0.000196806
0.000197677
0.000198905
0.00020047
0.000202275
0.000204265
0.000206411
0.000208661
0.000210939
0.000213204
0.000215405
0.0002175
0.000219461
0.000221242
0.000222827
0.000224237
0.000225439
0.00022647
0.000227371
0.000228152
0.000228846
0.000229531
0.000230165
0.000230856
0.000231531
0.000232284
0.000233031
0.000233854
0.000234651
0.000235487
0.000236284
0.000237041
0.000237745
0.000238322
0.000238795
0.000239082
0.000239173
0.000239028
0.0002386
0.000237864
0.000236786
0.000235318
0.000233475
0.000231185
0.000228469
0.000225314
0.000221693
0.000217627
0.00021312
0.000208172
0.000202812
0.000197059
0.000190925
0.000184447
0.000177656
0.000170583
0.000163266
0.000155743
0.000148048
0.000140239
0.00013231
0.000124377
0.000116487
0.000108637
0.000100874
9.32848e-05
8.58817e-05
7.87042e-05
7.17869e-05
6.51384e-05
5.87775e-05
5.27057e-05
4.69004e-05
4.14467e-05
3.6321e-05
3.14457e-05
2.68806e-05
2.27299e-05
1.90801e-05
1.58498e-05
1.33394e-05
1.1375e-05
1.021e-05
9.62884e-06
9.8849e-06
1.07014e-05
1.2557e-05
1.4297e-05
1.7744e-05
2.03343e-05
2.27016e-05
2.49849e-05
2.70871e-05
2.84403e-05
2.93145e-05
2.93473e-05
2.90201e-05
2.85126e-05
2.77027e-05
2.66243e-05
2.53954e-05
2.41084e-05
2.28263e-05
2.15986e-05
2.0459e-05
1.94238e-05
1.84971e-05
1.7669e-05
1.69153e-05
1.62069e-05
1.5519e-05
1.48284e-05
1.41104e-05
1.3345e-05
1.25281e-05
1.16646e-05
1.07568e-05
9.80841e-06
8.82819e-06
7.82621e-06
6.81248e-06
5.79755e-06
4.79174e-06
3.80316e-06
2.84159e-06
1.91183e-06
1.03506e-06
9.40119e-08
0.000457577
0.000457281
0.000456168
0.000454412
0.000452257
0.000449839
0.000447246
0.000444561
0.000441857
0.000439187
0.000436586
0.000434075
0.000431668
0.00042937
0.000427178
0.00042509
0.000423104
0.000421209
0.000419395
0.000417655
0.000415983
0.000414372
0.000412818
0.000411316
0.000409864
0.00040846
0.000407102
0.000405788
0.000404514
0.000403277
0.000402063
0.00040085
0.000399631
0.000398324
0.000396997
0.000395482
0.000393285
0.000390242
0.000386317
0.000381436
0.000375654
0.000368919
0.000361582
0.000353868
0.000345892
0.000337782
0.000329629
0.000321508
0.000313536
0.000305778
0.000298274
0.000291036
0.000284073
0.000277378
0.000270942
0.000264726
0.000258715
0.000252891
0.000247229
0.000241723
0.000236482
0.000231434
0.000226365
0.000221686
0.000217529
0.000213732
0.000210321
0.000207448
0.000205055
0.000203181
0.000201887
0.000201058
0.000200739
0.000200867
0.0002014
0.000202314
0.00020354
0.000205003
0.000206677
0.000208538
0.000210507
0.000212518
0.000214516
0.000216466
0.000218333
0.000220062
0.000221625
0.000223035
0.000224245
0.000225288
0.000226196
0.000226977
0.000227661
0.000228331
0.000228941
0.000229611
0.000230262
0.000231
0.000231727
0.00023254
0.000233314
0.000234124
0.000234873
0.000235559
0.000236161
0.000236598
0.00023689
0.000236955
0.000236783
0.000236342
0.000235587
0.000234505
0.000233069
0.000231248
0.000229063
0.00022646
0.000223466
0.000220077
0.000216278
0.000212094
0.000207535
0.000202614
0.000197354
0.00019177
0.000185881
0.000179724
0.000173326
0.000166714
0.000159922
0.000152982
0.000145927
0.000138795
0.000131616
0.000124452
0.000117337
0.000110285
0.000103336
9.65391e-05
8.99116e-05
8.34736e-05
7.72416e-05
7.1221e-05
6.54075e-05
5.97988e-05
5.43805e-05
4.91756e-05
4.41699e-05
3.92948e-05
3.46569e-05
3.02737e-05
2.61804e-05
2.24441e-05
1.92754e-05
1.66067e-05
1.45661e-05
1.31101e-05
1.24631e-05
1.24465e-05
1.3541e-05
1.46855e-05
1.74138e-05
1.95821e-05
2.1576e-05
2.3492e-05
2.52499e-05
2.63258e-05
2.69589e-05
2.68855e-05
2.65347e-05
2.60576e-05
2.53399e-05
2.44054e-05
2.33546e-05
2.22635e-05
2.11814e-05
2.0144e-05
1.91706e-05
1.82702e-05
1.74488e-05
1.66935e-05
1.59771e-05
1.52778e-05
1.45928e-05
1.391e-05
1.3198e-05
1.24351e-05
1.16344e-05
1.08143e-05
9.97206e-06
9.10633e-06
8.22328e-06
7.32857e-06
6.42598e-06
5.52017e-06
4.61613e-06
3.71331e-06
2.81985e-06
1.9376e-06
1.08699e-06
1.34755e-07
0.000456956
0.000456689
0.00045568
0.000454066
0.000452045
0.000449738
0.000447234
0.000444614
0.000441951
0.0004393
0.000436701
0.000434177
0.000431744
0.000429412
0.000427179
0.000425042
0.000422998
0.00042104
0.000419159
0.000417344
0.000415589
0.000413887
0.00041223
0.000410614
0.000409034
0.000407485
0.000405964
0.000404465
0.000402984
0.000401525
0.00040006
0.000398557
0.000397024
0.000395408
0.000393727
0.000391826
0.000389319
0.000386047
0.000381962
0.000377022
0.000371297
0.000364791
0.000357806
0.000350547
0.000343154
0.000335742
0.00032838
0.000321139
0.00031409
0.00030728
0.00030072
0.000294407
0.000288336
0.00028247
0.000276807
0.000271289
0.000265902
0.000260626
0.000255413
0.000250308
0.000245275
0.000240391
0.000235528
0.000230876
0.000226535
0.000222421
0.000218688
0.000215404
0.000212465
0.00020996
0.000208008
0.000206478
0.000205408
0.000204798
0.000204615
0.000204821
0.000205372
0.000206263
0.000207353
0.000208689
0.000210239
0.000211889
0.000213573
0.000215265
0.000216933
0.000218519
0.000219986
0.000221335
0.000222512
0.000223538
0.000224433
0.000225207
0.000225876
0.000226529
0.000227113
0.000227754
0.000228369
0.000229069
0.000229753
0.00023052
0.000231233
0.000231968
0.000232618
0.00023318
0.000233621
0.000233864
0.000233922
0.000233724
0.000233257
0.0002325
0.000231415
0.000230004
0.000228249
0.000226135
0.000223689
0.000220877
0.000217724
0.000214229
0.000210381
0.000206209
0.000201731
0.00019698
0.000191949
0.000186647
0.000181111
0.000175371
0.000169446
0.000163359
0.000157138
0.000150813
0.000144411
0.000137964
0.000131503
0.000125065
0.000118675
0.000112358
0.00010614
0.000100046
9.40939e-05
8.82942e-05
8.26461e-05
7.71574e-05
7.18041e-05
6.65867e-05
6.14842e-05
5.64859e-05
5.15953e-05
4.67604e-05
4.20475e-05
3.74972e-05
3.30825e-05
2.88974e-05
2.5143e-05
2.18246e-05
1.89674e-05
1.66883e-05
1.51549e-05
1.42696e-05
1.44854e-05
1.50411e-05
1.68938e-05
1.85301e-05
2.00834e-05
2.15698e-05
2.29239e-05
2.37118e-05
2.41188e-05
2.39842e-05
2.36544e-05
2.32432e-05
2.26587e-05
2.19139e-05
2.10817e-05
2.02257e-05
1.93877e-05
1.85847e-05
1.78042e-05
1.70504e-05
1.63532e-05
1.56899e-05
1.5008e-05
1.42807e-05
1.35615e-05
1.28843e-05
1.2191e-05
1.14324e-05
1.06462e-05
9.87756e-06
9.10828e-06
8.33373e-06
7.55824e-06
6.78306e-06
6.00464e-06
5.2212e-06
4.43592e-06
3.6262e-06
2.80965e-06
1.98095e-06
1.15418e-06
1.9836e-07
0.000456907
0.000456641
0.000455638
0.000454032
0.000452017
0.000449715
0.000447213
0.000444591
0.000441924
0.000439266
0.000436655
0.000434116
0.000431664
0.000429306
0.000427044
0.000424872
0.000422787
0.000420781
0.000418844
0.000416965
0.000415137
0.00041335
0.000411598
0.000409872
0.000408166
0.000406474
0.000404789
0.000403103
0.000401406
0.000399731
0.000398026
0.000396222
0.000394368
0.000392437
0.000390404
0.000388129
0.000385326
0.00038185
0.000377641
0.000372684
0.000367053
0.000360806
0.000354194
0.000347414
0.00034062
0.000333909
0.000327326
0.000320934
0.000314758
0.000308831
0.000303136
0.000297653
0.000292371
0.000287234
0.000282243
0.000277333
0.000272489
0.000267701
0.000262898
0.000258167
0.000253394
0.000248712
0.000244033
0.000239438
0.000235037
0.000230832
0.000226908
0.000223285
0.000219896
0.000216914
0.000214442
0.000212311
0.000210562
0.000209264
0.000208401
0.000207901
0.00020774
0.000207963
0.000208484
0.000209195
0.000210173
0.000211339
0.000212622
0.00021396
0.000215323
0.000216662
0.000217938
0.00021915
0.000220229
0.000221182
0.000222022
0.000222758
0.000223391
0.000224006
0.000224549
0.000225139
0.000225696
0.000226326
0.00022693
0.0002276
0.000228203
0.000228804
0.000229297
0.000229675
0.0002299
0.000229903
0.000229692
0.000229216
0.000228464
0.000227422
0.000226056
0.000224377
0.000222383
0.000220076
0.00021748
0.000214584
0.000211413
0.000207965
0.000204223
0.000200207
0.000195948
0.000191496
0.000186805
0.00018186
0.000176758
0.000171502
0.000166096
0.000160563
0.000154927
0.000149215
0.000143448
0.000137654
0.000131854
0.000126083
0.000120349
0.000114683
0.000109101
0.000103615
9.82374e-05
9.29767e-05
8.7816e-05
8.27698e-05
7.77964e-05
7.2903e-05
6.80578e-05
6.324e-05
5.8461e-05
5.3668e-05
4.88904e-05
4.41869e-05
3.95357e-05
3.50652e-05
3.0815e-05
2.68615e-05
2.32486e-05
2.02195e-05
1.78315e-05
1.60692e-05
1.53401e-05
1.5265e-05
1.61484e-05
1.71689e-05
1.82212e-05
1.92284e-05
2.01416e-05
2.0648e-05
2.08675e-05
2.07327e-05
2.04806e-05
2.01786e-05
1.97868e-05
1.9294e-05
1.86977e-05
1.8069e-05
1.74865e-05
1.69551e-05
1.63914e-05
1.57852e-05
1.5205e-05
1.46191e-05
1.3978e-05
1.32898e-05
1.25917e-05
1.18982e-05
1.11602e-05
1.03671e-05
9.61465e-06
8.92352e-06
8.23815e-06
7.55903e-06
6.89445e-06
6.24178e-06
5.58925e-06
4.92756e-06
4.27746e-06
3.55206e-06
2.81523e-06
2.04052e-06
1.22212e-06
2.6417e-07
0.000457428
0.000457139
0.000456046
0.000454316
0.000452181
0.000449775
0.000447187
0.000444498
0.00044178
0.000439086
0.000436449
0.000433892
0.000431424
0.000429053
0.000426775
0.000424582
0.00042247
0.000420432
0.000418455
0.000416526
0.000414637
0.000412778
0.000410939
0.000409112
0.000407289
0.000405463
0.000403624
0.000401765
0.000399878
0.000397957
0.000395975
0.000393912
0.000391765
0.000389516
0.00038713
0.000384491
0.000381403
0.000377732
0.000373418
0.000368466
0.000362952
0.000356979
0.000350748
0.000344461
0.000338277
0.000332262
0.000326437
0.000320855
0.000315495
0.000310376
0.000305458
0.000300708
0.00029611
0.000291599
0.00028718
0.000282789
0.000278409
0.000274043
0.000269604
0.000265209
0.000260702
0.000256239
0.000251744
0.000247275
0.000242912
0.000238669
0.000234607
0.000230747
0.000227125
0.000223834
0.000220884
0.000218247
0.000215909
0.000214024
0.000212559
0.000211406
0.000210564
0.000210058
0.000210007
0.000210155
0.00021046
0.000211005
0.000211775
0.000212661
0.000213623
0.000214607
0.000215585
0.000216577
0.00021748
0.000218283
0.000219001
0.000219642
0.000220194
0.000220728
0.000221197
0.000221697
0.000222159
0.000222671
0.000223147
0.000223663
0.000224101
0.000224509
0.000224792
0.000224942
0.000224914
0.000224655
0.000224164
0.000223419
0.000222421
0.000221176
0.000219644
0.000217834
0.000215755
0.000213432
0.000210869
0.000208038
0.000204945
0.000201626
0.000198109
0.000194383
0.000190457
0.000186356
0.000182068
0.000177581
0.000172952
0.000168193
0.000163313
0.000158327
0.000153259
0.000148127
0.00014295
0.000137752
0.000132542
0.000127362
0.000122201
0.000117096
0.000112055
0.000107081
0.000102181
9.73675e-05
9.26062e-05
8.79227e-05
8.32579e-05
7.86308e-05
7.39959e-05
6.93359e-05
6.46576e-05
5.99124e-05
5.51079e-05
5.03189e-05
4.54745e-05
4.07371e-05
3.60312e-05
3.1577e-05
2.73758e-05
2.36382e-05
2.03443e-05
1.77264e-05
1.60692e-05
1.52169e-05
1.51401e-05
1.55162e-05
1.60252e-05
1.65326e-05
1.69932e-05
1.72191e-05
1.72918e-05
1.72303e-05
1.71273e-05
1.69714e-05
1.67754e-05
1.65561e-05
1.62813e-05
1.59771e-05
1.56809e-05
1.5361e-05
1.49505e-05
1.44989e-05
1.40699e-05
1.3582e-05
1.29818e-05
1.2314e-05
1.16164e-05
1.08993e-05
1.01594e-05
9.41225e-06
8.7023e-06
8.04318e-06
7.41912e-06
6.82944e-06
6.27253e-06
5.73759e-06
5.20802e-06
4.66956e-06
4.11391e-06
3.49411e-06
2.83721e-06
2.11979e-06
1.34735e-06
3.70289e-07
0.000458576
0.00045823
0.000456926
0.000454917
0.000452522
0.0004499
0.000447135
0.000444312
0.000441501
0.000438747
0.000436078
0.000433501
0.000431022
0.000428658
0.000426384
0.000424177
0.000422057
0.000420008
0.000418008
0.000416045
0.00041411
0.000412191
0.00041028
0.000408365
0.000406438
0.00040449
0.00040251
0.000400488
0.000398413
0.000396272
0.000394046
0.000391733
0.000389299
0.000386731
0.000383998
0.000381006
0.000377633
0.000373762
0.000369344
0.000364405
0.000359015
0.000353315
0.000347462