/*--------------------------------*- C++ -*----------------------------------*\
| =========                 |                                                 |
| \\      /  F ield         | OpenFOAM: The Open Source CFD Toolbox           |
|  \\    /   O peration     | Version:  2506                                  |
|   \\  /    A nd           | Website:  www.openfoam.com                      |
|    \\/     M anipulation  |                                                 |
\*---------------------------------------------------------------------------*/
FoamFile
{
    version     2.0;
    format      ascii;
    arch        "LSB;label=32;scalar=64";
    class       volScalarField;
    location    "4.7";
    object      s;
}
// * * * * * * * * * * * * * * * * * * * * * * * * * * * * * * * * * * * * * //

dimensions      [0 0 0 0 0 0 0];

internalField   nonuniform List<scalar> 
4000
(
3.81969e-20
5.77209e-20
6.99043e-20
7.42933e-20
7.15934e-20
6.1335e-20
4.26384e-20
1.50277e-20
-2.10943e-20
-6.41383e-20
-1.11091e-19
-1.57366e-19
-1.968e-19
-2.21867e-19
-2.24205e-19
-1.95519e-19
-1.28905e-19
-2.05548e-20
1.28273e-19
3.09207e-19
5.04903e-19
6.87675e-19
8.19004e-19
8.5045e-19
7.26652e-19
3.91279e-19
-2.02504e-19
-1.08054e-18
-2.21328e-18
-3.56221e-18
-4.77246e-18
-8.05177e-18
-1.54872e-17
-2.64697e-17
-3.70866e-17
-4.0037e-17
-2.73322e-17
5.16487e-18
6.76058e-17
1.84275e-16
3.86178e-16
6.75616e-16
1.15213e-15
2.27116e-15
4.01818e-15
6.01662e-15
8.91791e-15
1.31376e-14
1.95875e-14
2.94253e-14
4.58327e-14
7.20827e-14
1.21953e-13
2.0988e-13
3.94663e-13
6.67605e-13
1.15793e-12
1.47055e-12
2.5022e-12
2.46715e-12
1.95504e-12
1.11598e-12
4.04778e-13
1.25835e-13
4.44479e-14
1.68653e-14
6.32415e-15
2.40586e-15
9.60252e-16
2.77354e-16
9.52737e-19
-4.77797e-17
-2.57246e-17
-1.87643e-19
1.19085e-17
1.26672e-17
8.17996e-18
3.32522e-18
1.58586e-19
-1.20196e-18
-1.41178e-18
-1.13211e-18
-7.46329e-19
-4.37884e-19
-2.41922e-19
-1.66312e-19
-1.71932e-19
-3.77104e-19
-6.20077e-19
-1.18047e-18
-3.58923e-18
6.85381e-17
6.94443e-18
-1.17596e-16
1.81651e-15
1.44934e-14
6.01959e-14
2.43632e-13
1.04894e-12
4.89628e-12
1.03184e-11
4.8878e-11
2.09381e-10
4.43735e-10
9.74139e-10
1.83132e-09
1.38461e-08
9.92409e-08
3.4733e-07
7.64734e-07
1.49162e-06
2.41454e-06
3.21162e-06
2.78711e-06
1.36213e-06
6.96684e-08
1.16617e-06
2.28394e-06
2.27011e-06
1.97974e-06
1.27982e-06
5.61264e-07
1.6271e-07
1.53562e-08
2.98677e-09
8.75878e-10
1.678e-10
-4.63818e-11
-6.4194e-11
-3.15266e-11
-1.23307e-11
-4.77305e-12
-1.88147e-12
-7.53246e-13
-3.08563e-13
-1.29143e-13
-5.48499e-14
-2.35179e-14
-1.0206e-14
-4.47458e-15
-1.99046e-15
-9.21473e-16
-4.56604e-16
-2.69917e-16
-2.29361e-16
-3.78324e-16
-9.51647e-16
-2.24131e-14
-4.69241e-13
-8.83118e-12
-1.02931e-10
-8.20431e-10
-4.72374e-09
-2.16732e-08
-8.44856e-08
-3.9157e-07
-7.08371e-07
-3.1635e-06
-1.67661e-05
-5.2933e-05
-0.000107733
6.40765e-06
0.000870145
-0.000304834
-0.00549399
-0.0170831
-0.0355462
-0.0596343
-0.0652118
-0.059553
-0.0489763
-0.0375797
-0.0267733
-0.016999
-0.00849071
-0.00366757
-0.00209692
-0.00185161
-0.00214153
-0.00282252
-0.00386699
-0.00522475
-0.00680433
-0.00847325
-0.0100795
-0.0115162
-0.0128837
-0.0149045
-0.0196071
-0.0310632
-0.057535
-0.110621
-0.177492
-0.22457
-0.259333
-0.286025
-0.305363
-0.316886
-0.315708
-0.190062
-8.16765e-20
-7.9367e-21
-8.51553e-21
-5.70662e-21
1.10028e-21
8.61211e-21
1.33964e-20
1.24743e-20
3.93674e-21
-1.23458e-20
-3.40698e-20
-5.60752e-20
-7.03171e-20
-6.63858e-20
-3.27091e-20
4.14514e-20
1.63132e-19
3.31903e-19
5.353e-19
7.43704e-19
9.05194e-19
9.41187e-19
7.44034e-19
1.77925e-19
-9.15191e-19
-2.70336e-18
-5.34462e-18
-8.95668e-18
-1.35926e-17
-1.91387e-17
-2.55366e-17
-2.98469e-17
-2.8925e-17
-2.12682e-17
-8.35804e-18
4.22772e-18
8.57956e-18
1.2087e-18
-1.76215e-17
-5.02058e-17
-1.01774e-16
-1.72243e-16
-3.03948e-16
-6.11257e-16
-5.79501e-16
-2.2903e-16
-1.22428e-16
-6.4417e-17
-3.22281e-17
-1.46727e-17
-4.79982e-18
1.63391e-18
5.97926e-18
1.13842e-17
2.31519e-17
4.53689e-17
9.56055e-17
2.46824e-16
5.72492e-16
6.28643e-13
1.79385e-12
2.77214e-12
2.18928e-12
1.18079e-12
4.38591e-13
1.3282e-13
4.80945e-14
1.87469e-14
7.26322e-15
3.00475e-15
1.21157e-15
3.75949e-16
8.75209e-18
-8.30761e-17
-6.6059e-17
-2.59183e-17
3.80802e-18
1.63538e-17
1.64542e-17
1.13019e-17
5.74508e-18
1.76705e-18
-5.38875e-19
-1.61678e-18
-2.01433e-18
-2.10609e-18
-2.00867e-18
-2.00014e-18
1.71849e-19
4.69213e-18
3.13569e-17
3.88193e-18
-1.80782e-16
6.17523e-16
4.61872e-15
2.77435e-14
1.14844e-13
4.30038e-13
2.03652e-12
6.28456e-12
3.0751e-11
1.40038e-10
2.80335e-10
4.40026e-10
1.02014e-09
8.63177e-09
7.86369e-08
2.40571e-07
3.90787e-07
4.77407e-07
4.3577e-07
-2.32057e-07
-2.15537e-06
-5.55253e-06
-1.05573e-05
-1.62293e-05
-2.10926e-05
-1.98408e-05
-1.24236e-05
-4.24332e-06
-1.27227e-07
5.19798e-07
4.50758e-07
2.63245e-07
1.12818e-07
3.64682e-08
7.53663e-09
-3.31534e-10
-5.83344e-10
-3.93919e-10
-1.80076e-10
-6.02762e-11
-2.16355e-11
-8.95378e-12
-3.8302e-12
-1.61885e-12
-6.73788e-13
-2.78724e-13
-1.16253e-13
-4.96495e-14
-2.23439e-14
-1.12197e-14
-6.64187e-15
-5.12714e-15
-5.6273e-15
-9.44417e-15
-2.34656e-14
-1.41e-13
-2.03339e-12
-2.82004e-11
-2.93454e-10
-1.91786e-09
-9.52774e-09
-4.08467e-08
-1.80951e-07
-4.72347e-07
-2.09502e-06
-1.12103e-05
-3.0136e-05
-4.0593e-05
-1.51557e-05
7.35385e-05
-0.00171452
-0.00784875
-0.0185875
-0.0317315
-0.0436259
-0.052191
-0.0562775
-0.0549276
-0.0503717
-0.0445714
-0.0372631
-0.0288665
-0.0212803
-0.0155031
-0.0121854
-0.0115401
-0.0130217
-0.016424
-0.0218299
-0.0284177
-0.0349876
-0.0403342
-0.0435644
-0.0445249
-0.0442456
-0.0452227
-0.0512746
-0.0667374
-0.0949482
-0.136069
-0.185194
-0.234056
-0.273286
-0.294327
-0.295209
-0.29209
-0.305255
-0.266497
-6.90334e-20
8.98372e-21
-8.4917e-22
-7.17258e-22
3.69556e-22
3.16091e-21
6.15853e-21
6.57661e-21
1.29833e-21
-1.21818e-20
-3.47537e-20
-6.47099e-20
-9.68887e-20
-1.22029e-19
-1.26421e-19
-9.19471e-20
3.40478e-21
1.84477e-19
4.77289e-19
9.06822e-19
1.49433e-18
2.25439e-18
3.19191e-18
4.29951e-18
5.55522e-18
6.92172e-18
8.34676e-18
9.76958e-18
1.11147e-17
1.23374e-17
1.3293e-17
1.43946e-17
1.61513e-17
1.7996e-17
1.78638e-17
1.37275e-17
7.42933e-18
3.77034e-18
6.35189e-18
1.5107e-17
2.86717e-17
4.77611e-17
8.93572e-17
1.55445e-16
1.06383e-16
5.53585e-17
2.74689e-17
1.36147e-17
6.53286e-18
2.82367e-18
7.32539e-19
-6.45495e-19
-1.63653e-18
-3.1894e-18
-6.74821e-18
-1.35266e-17
-3.09824e-17
-3.2399e-17
-2.89911e-16
1.26178e-15
4.4042e-13
1.86617e-12
3.462e-12
3.11193e-12
2.03876e-12
9.3975e-13
3.04304e-13
1.0516e-13
4.25223e-14
1.76314e-14
7.3567e-15
3.18728e-15
1.32594e-15
4.36155e-16
2.75454e-17
-9.42605e-17
-9.09966e-17
-4.98056e-17
-1.08793e-17
1.20638e-17
2.01087e-17
1.95991e-17
1.57616e-17
1.17896e-17
8.87776e-18
7.61124e-18
7.97807e-18
1.00219e-17
1.42918e-17
1.91416e-17
3.64979e-18
-1.30552e-16
3.24231e-17
2.67133e-15
1.36463e-14
7.80129e-14
3.15617e-13
1.34643e-12
5.56541e-12
2.14451e-11
1.20001e-10
3.0919e-10
4.84117e-10
9.38619e-10
6.69331e-09
6.81355e-08
2.287e-07
4.12908e-07
4.98235e-07
5.21217e-07
2.29847e-08
-1.59649e-06
-4.86894e-06
-1.01206e-05
-1.76129e-05
-2.67091e-05
-3.53865e-05
-4.12225e-05
-3.98938e-05
-2.85164e-05
-1.34485e-05
-3.64957e-06
-7.14726e-07
-5.25008e-08
5.18467e-08
4.47333e-08
2.55054e-08
8.77617e-09
1.87899e-09
-3.32033e-10
-5.99284e-10
-3.57093e-10
-1.54413e-10
-5.93677e-11
-2.30392e-11
-9.36651e-12
-3.96167e-12
-1.72897e-12
-7.83368e-13
-3.71239e-13
-1.87178e-13
-1.05478e-13
-7.03615e-14
-6.16094e-14
-7.51475e-14
-1.25605e-13
-3.23294e-13
-9.59589e-13
-1.06512e-11
-1.1687e-10
-1.02998e-09
-6.70915e-09
-2.96237e-08
-1.41143e-07
-4.78984e-07
-1.72768e-06
-1.00328e-05
-2.99683e-05
-4.79524e-05
-4.04101e-05
1.26629e-05
-0.00113814
-0.0084791
-0.0209584
-0.0371582
-0.0541035
-0.0689076
-0.0800945
-0.0865777
-0.0874026
-0.08295
-0.07598
-0.0679323
-0.0598768
-0.0528587
-0.0478672
-0.0456952
-0.0467914
-0.0511269
-0.0581153
-0.0666091
-0.0750348
-0.0816694
-0.0851016
-0.0848536
-0.0820455
-0.079851
-0.0833447
-0.0983399
-0.129129
-0.175731
-0.232015
-0.286067
-0.322867
-0.329697
-0.305336
-0.261633
-0.248614
-0.286025
-0.272972
-3.12816e-20
1.88747e-22
9.0349e-23
-8.38425e-22
-1.26501e-21
-2.64909e-22
3.07824e-21
8.63469e-21
1.51128e-20
1.98781e-20
1.90653e-20
7.85811e-21
-1.91799e-20
-6.77329e-20
-1.43319e-19
-2.50818e-19
-3.93966e-19
-5.74805e-19
-7.93173e-19
-1.04614e-18
-1.32696e-18
-1.62307e-18
-1.91338e-18
-2.16551e-18
-2.33389e-18
-2.35873e-18
-2.16882e-18
-1.68941e-18
-8.60472e-19
3.48925e-19
1.93095e-18
3.40996e-18
4.52421e-18
4.53705e-18
2.53305e-18
-6.22599e-19
-2.51198e-18
-2.5606e-18
-2.80489e-18
-4.7108e-18
-8.11746e-18
-1.38577e-17
-2.57067e-17
-3.58639e-17
-2.45e-17
-1.21132e-17
-5.64238e-18
-2.70683e-18
-1.27459e-18
-5.20676e-19
-7.49032e-20
2.20794e-19
4.90378e-19
9.92176e-19
2.18984e-18
4.50664e-18
1.11036e-17
8.96708e-18
2.56258e-16
-1.08617e-15
-4.05495e-15
4.99538e-13
2.31786e-12
4.52776e-12
4.27137e-12
3.14272e-12
1.67042e-12
6.49863e-13
2.2011e-13
8.6714e-14
3.68553e-14
1.6028e-14
7.11033e-15
3.24169e-15
1.41222e-15
5.00036e-16
5.90711e-17
-9.90138e-17
-1.21565e-16
-8.77023e-17
-4.43491e-17
-1.17222e-17
7.71482e-18
1.71194e-17
2.06473e-17
2.13028e-17
1.99853e-17
1.88466e-17
4.13609e-18
-3.32331e-17
-1.49223e-16
-1.88915e-16
1.29106e-15
9.2552e-15
4.02233e-14
2.18501e-13
8.76734e-13
4.03977e-12
1.5992e-11
9.22236e-11
2.99238e-10
5.01514e-10
8.37663e-10
5.77355e-09
6.02636e-08
2.11884e-07
4.03182e-07
5.02341e-07
4.61293e-07
-1.69536e-09
-1.47048e-06
-4.24923e-06
-8.86237e-06
-1.57928e-05
-2.5537e-05
-3.78532e-05
-5.16025e-05
-6.41168e-05
-7.1953e-05
-6.78915e-05
-5.07793e-05
-2.6795e-05
-9.68872e-06
-2.70237e-06
-7.6431e-07
-2.20947e-07
-6.89604e-08
-2.49935e-08
-1.11769e-08
-5.87897e-09
-3.16363e-09
-1.58418e-09
-7.17029e-10
-2.94221e-10
-1.15138e-10
-4.52982e-11
-1.8437e-11
-7.86013e-12
-3.58473e-12
-1.8007e-12
-1.02913e-12
-6.99623e-13
-5.74975e-13
-5.97151e-13
-7.91518e-13
-1.3307e-12
-2.99006e-12
-7.39874e-12
-5.30296e-11
-4.79856e-10
-3.63148e-09
-2.12548e-08
-1.01159e-07
-4.61775e-07
-1.45023e-06
-8.91071e-06
-2.97216e-05
-5.48081e-05
-5.94208e-05
-2.74895e-05
-0.00139938
-0.0079561
-0.0233799
-0.0414626
-0.0609443
-0.0789882
-0.0936679
-0.104807
-0.112368
-0.115891
-0.115237
-0.112447
-0.108541
-0.104384
-0.100962
-0.0993056
-0.100284
-0.104343
-0.111265
-0.120052
-0.129
-0.136019
-0.139202
-0.137591
-0.13202
-0.125785
-0.124728
-0.136148
-0.1662
-0.21621
-0.279528
-0.341057
-0.381119
-0.384864
-0.350285
-0.285129
-0.220144
-0.208854
-0.269621
-0.265849
1.95309e-20
-2.82099e-21
6.34624e-22
1.74967e-22
-5.7926e-22
-2.01495e-21
-3.48779e-21
-3.89926e-21
-1.76377e-21
4.51157e-21
1.64659e-20
3.55233e-20
6.2833e-20
9.90472e-20
1.43972e-19
1.9635e-19
2.53858e-19
3.13356e-19
3.70497e-19
4.1782e-19
4.41421e-19
4.1593e-19
2.98802e-19
3.03431e-20
-4.50529e-19
-1.17082e-18
-2.07756e-18
-2.99954e-18
-3.63585e-18
-3.62776e-18
-2.68662e-18
-9.29479e-19
6.59809e-19
8.81257e-19
9.77341e-20
-1.75477e-19
3.88342e-19
8.8826e-19
1.10469e-18
1.51537e-18
2.38823e-18
4.1433e-18
6.97641e-18
7.8776e-18
5.11433e-18
2.46092e-18
1.12161e-18
5.33989e-19
2.48224e-19
9.29672e-20
-3.25788e-21
-6.87495e-20
-1.47086e-19
-3.1225e-19
-7.19342e-19
-1.56004e-18
-3.54845e-18
-3.69142e-18
-2.63891e-17
-4.44876e-17
-1.98824e-14
3.2017e-14
7.36644e-13
3.18063e-12
6.20366e-12
5.97992e-12
4.59963e-12
2.70974e-12
1.19741e-12
4.29738e-13
1.68413e-13
7.24626e-14
3.26956e-14
1.52153e-14
7.20032e-15
3.45703e-15
1.59233e-15
6.47122e-16
1.61628e-16
-6.76101e-17
-1.46496e-16
-1.45291e-16
-1.15319e-16
-8.466e-17
-6.28389e-17
-5.31349e-17
-5.70713e-17
-6.87283e-17
-1.13833e-16
-1.78686e-16
-2.55152e-16
4.80344e-16
5.28088e-15
3.3188e-14
1.29492e-13
6.29663e-13
2.64274e-12
1.10941e-11
6.16535e-11
2.57666e-10
4.94633e-10
7.39238e-10
5.61784e-09
5.45049e-08
1.94792e-07
3.84493e-07
4.96915e-07
4.35224e-07
9.21362e-09
-1.17712e-06
-3.32713e-06
-6.72245e-06
-1.18726e-05
-1.94181e-05
-3.00541e-05
-4.41014e-05
-6.13734e-05
-8.05955e-05
-9.9493e-05
-0.000110611
-0.000105172
-8.01058e-05
-4.59069e-05
-1.86975e-05
-5.68807e-06
-1.81166e-06
-6.09196e-07
-2.12958e-07
-8.10504e-08
-3.34954e-08
-1.46249e-08
-6.52643e-09
-2.87093e-09
-1.21755e-09
-5.0304e-10
-2.09639e-10
-9.12994e-11
-4.23922e-11
-2.13036e-11
-1.17636e-11
-7.32003e-12
-5.38479e-12
-4.75646e-12
-5.19983e-12
-6.96421e-12
-1.15481e-11
-2.24123e-11
-5.55732e-11
-2.60177e-10
-1.89401e-09
-1.29028e-08
-6.68751e-08
-3.46826e-07
-1.33997e-06
-7.34743e-06
-2.80089e-05
-5.91626e-05
-7.49664e-05
-6.04482e-05
-0.00155437
-0.00853057
-0.0231733
-0.0444664
-0.0653425
-0.0850966
-0.101787
-0.115004
-0.125795
-0.134997
-0.142567
-0.14786
-0.15193
-0.155118
-0.157804
-0.160609
-0.164313
-0.169601
-0.176714
-0.185169
-0.19366
-0.200251
-0.202899
-0.200244
-0.192538
-0.182491
-0.175644
-0.179724
-0.202373
-0.247276
-0.309932
-0.37564
-0.422634
-0.431591
-0.398506
-0.330184
-0.250313
-0.187422
-0.189931
-0.255641
-0.257096
4.50027e-20
-1.77693e-21
-5.18607e-24
3.06495e-22
7.13754e-22
8.99124e-22
3.69962e-22
-1.37922e-21
-4.81563e-21
-1.0299e-20
-1.80289e-20
-2.7925e-20
-3.95142e-20
-5.19769e-20
-6.46968e-20
-7.7525e-20
-8.97063e-20
-9.57624e-20
-7.92093e-20
-9.02104e-21
1.50805e-19
4.06835e-19
6.8764e-19
8.2431e-19
6.03967e-19
-1.01984e-19
-1.19095e-18
-2.2695e-18
-2.79527e-18
-2.44206e-18
-1.36731e-18
-3.08828e-19
-3.83763e-20
-2.82014e-19
-2.81879e-19
-6.54049e-20
-7.39128e-20
-2.55121e-19
-3.83009e-19
-4.96152e-19
-7.33846e-19
-1.2191e-18
-1.77278e-18
-1.69014e-18
-1.03199e-18
-4.883e-19
-2.2233e-19
-1.05895e-19
-4.81324e-20
-1.55141e-20
5.39025e-21
2.08638e-20
4.48448e-20
9.97836e-20
2.39091e-19
5.47403e-19
1.42352e-18
2.64365e-18
-2.43919e-18
4.80915e-18
-3.13227e-15
-2.45651e-15
1.49213e-13
1.28077e-12
4.67321e-12
9.00103e-12
8.82626e-12
6.98765e-12
4.3673e-12
2.07375e-12
8.00308e-13
3.27086e-13
1.45001e-13
6.67458e-14
3.16813e-14
1.55893e-14
7.87297e-15
4.05045e-15
2.07361e-15
1.01158e-15
4.09617e-16
7.78582e-17
-8.63683e-17
-1.60989e-16
-1.87845e-16
-1.93187e-16
-1.93018e-16
-1.84105e-16
-1.43233e-16
1.23259e-17
4.62843e-16
3.57326e-15
1.86415e-14
1.07247e-13
4.64519e-13
2.00192e-12
7.87968e-12
3.79135e-11
1.92831e-10
4.60336e-10
7.13564e-10
5.91055e-09
5.05824e-08
1.78413e-07
3.60792e-07
4.81236e-07
4.1492e-07
3.16703e-08
-9.07769e-07
-2.48655e-06
-4.806e-06
-8.1268e-06
-1.29103e-05
-1.98957e-05
-2.9881e-05
-4.36672e-05
-6.19992e-05
-8.52539e-05
-0.000113258
-0.000142059
-0.000160387
-0.000153511
-0.000119647
-7.24454e-05
-3.19233e-05
-1.01362e-05
-3.28981e-06
-1.17223e-06
-4.26358e-07
-1.62093e-07
-6.48287e-08
-2.67129e-08
-1.11227e-08
-4.62248e-09
-1.91469e-09
-8.02981e-10
-3.53555e-10
-1.70174e-10
-9.25695e-11
-5.78012e-11
-4.15745e-11
-3.50412e-11
-3.42002e-11
-3.93749e-11
-5.29482e-11
-8.53838e-11
-1.53488e-10
-3.49138e-10
-1.37468e-09
-7.62315e-09
-4.4306e-08
-2.31917e-07
-9.87294e-07
-5.30303e-06
-2.45295e-05
-5.80344e-05
-8.93662e-05
-8.57724e-05
-0.00168275
-0.00904828
-0.0241023
-0.0447745
-0.0681726
-0.0881865
-0.105187
-0.118378
-0.12908
-0.139032
-0.149766
-0.161898
-0.174554
-0.187488
-0.200077
-0.211874
-0.222786
-0.233066
-0.243027
-0.252655
-0.261312
-0.267694
-0.270139
-0.267271
-0.258873
-0.246762
-0.235389
-0.231709
-0.243712
-0.277157
-0.331111
-0.394514
-0.446982
-0.466228
-0.442418
-0.378028
-0.295304
-0.220711
-0.176176
-0.188222
-0.245744
-0.245524
8.58125e-21
5.59606e-22
-2.00528e-22
-2.28033e-22
-2.04211e-22
1.11584e-22
8.69532e-22
2.17845e-21
4.08181e-21
6.5279e-21
9.35767e-21
1.23651e-20
1.54327e-20
1.84731e-20
2.01742e-20
1.57417e-20
-4.19868e-21
-4.79168e-20
-1.06225e-19
-1.33773e-19
-6.24162e-20
1.29644e-19
3.41669e-19
3.66653e-19
3.61754e-20
-6.02423e-19
-1.24621e-18
-1.53488e-18
-1.35586e-18
-9.36753e-19
-6.05559e-19
-4.8141e-19
-3.69679e-19
-1.34818e-19
3.99161e-20
4.72288e-20
3.08677e-20
7.39481e-20
1.23997e-19
1.62761e-19
2.28285e-19
3.43094e-19
4.26991e-19
3.58279e-19
2.07079e-19
9.67759e-20
4.42316e-20
2.10225e-20
9.1961e-21
2.26033e-21
-2.31433e-21
-6.25278e-21
-1.38033e-20
-3.20466e-20
-8.0091e-20
-1.88312e-19
-4.84686e-19
-1.0658e-18
-4.7554e-18
-2.1428e-17
-5.51536e-17
-7.15744e-15
2.99046e-14
4.61012e-13
2.58453e-12
7.81973e-12
1.22062e-11
1.31292e-11
1.09279e-11
7.21585e-12
3.69541e-12
1.52815e-12
6.27693e-13
2.81575e-13
1.35056e-13
6.73023e-14
3.46183e-14
1.84047e-14
1.01037e-14
5.6782e-15
3.28982e-15
1.94052e-15
1.15976e-15
7.17319e-16
4.61571e-16
3.48423e-16
3.5763e-16
5.45197e-16
8.55582e-16
1.66495e-15
3.79061e-15
1.58208e-14
7.40136e-14
3.31937e-13
1.63234e-12
6.63582e-12
2.68769e-11
1.41323e-10
4.10011e-10
7.15973e-10
6.09462e-09
4.80203e-08
1.63655e-07
3.34266e-07
4.57524e-07
3.92144e-07
5.0309e-08
-6.94288e-07
-1.82902e-06
-3.33646e-06
-5.26265e-06
-7.86581e-06
-1.15297e-05
-1.69683e-05
-2.49374e-05
-3.64876e-05
-5.30174e-05
-7.60636e-05
-0.000107834
-0.000149592
-0.000194882
-0.000223789
-0.000217
-0.000171936
-0.000109198
-5.11615e-05
-1.75249e-05
-5.65911e-06
-2.04282e-06
-7.52253e-07
-2.83185e-07
-1.11113e-07
-4.49893e-08
-1.85765e-08
-7.8405e-09
-3.44452e-09
-1.6211e-09
-8.40899e-10
-4.93728e-10
-3.32442e-10
-2.56522e-10
-2.29216e-10
-2.32723e-10
-2.71647e-10
-3.60889e-10
-5.59875e-10
-9.63734e-10
-2.02168e-09
-7.07909e-09
-3.35966e-08
-1.62629e-07
-7.61386e-07
-3.16252e-06
-1.97074e-05
-5.19989e-05
-9.69786e-05
-0.00011375
-0.00178353
-0.00945837
-0.0249916
-0.0457787
-0.0684914
-0.0893008
-0.104939
-0.116854
-0.125147
-0.132499
-0.140602
-0.151816
-0.167729
-0.187623
-0.209891
-0.232803
-0.254782
-0.274652
-0.291804
-0.306089
-0.317431
-0.325359
-0.329014
-0.327532
-0.3207
-0.30965
-0.297477
-0.289508
-0.292692
-0.313511
-0.354192
-0.40858
-0.460739
-0.489093
-0.47869
-0.4272
-0.344949
-0.264133
-0.203741
-0.174479
-0.189296
-0.240495
-0.214024
-2.42107e-20
7.80288e-22
8.72996e-23
4.90426e-23
-7.89533e-23
-3.42916e-22
-7.65078e-22
-1.34027e-21
-2.03085e-21
-2.77729e-21
-3.51774e-21
-4.12521e-21
-4.10106e-21
-2.10845e-21
3.76688e-21
1.35202e-20
2.12456e-20
1.55425e-20
-8.35492e-21
-2.83229e-20
-6.76486e-21
5.34169e-20
7.48144e-20
-3.50403e-20
-2.75991e-19
-5.28186e-19
-6.55032e-19
-6.2299e-19
-4.95827e-19
-3.43095e-19
-1.89284e-19
-2.837e-20
7.88324e-20
7.2939e-20
1.44744e-20
-1.15803e-20
-1.19605e-20
-2.18997e-20
-3.82264e-20
-5.17792e-20
-6.88487e-20
-9.13973e-20
-9.86023e-20
-7.49669e-20
-4.14419e-20
-1.91872e-20
-8.80388e-21
-4.15398e-21
-1.71011e-21
-2.26455e-22
7.94833e-22
1.87023e-21
4.2801e-21
1.03091e-20
2.69678e-20
6.51355e-20
2.32009e-19
6.35795e-19
-1.26888e-18
-1.55371e-17
3.3066e-18
7.46424e-17
-2.1378e-14
1.7025e-13
1.37604e-12
5.91713e-12
1.34653e-11
1.97078e-11
2.08722e-11
1.73525e-11
1.16929e-11
6.26099e-12
2.7949e-12
1.2317e-12
5.78188e-13
2.9002e-13
1.52136e-13
8.24646e-14
4.60425e-14
2.65406e-14
1.5906e-14
1.00203e-14
6.65998e-15
4.7486e-15
3.70393e-15
3.25774e-15
3.28566e-15
3.93793e-15
5.22024e-15
8.7691e-15
1.80568e-14
6.93643e-14
2.90969e-13
1.21922e-12
5.06145e-12
2.32292e-11
1.12763e-10
3.54564e-10
7.14622e-10
6.02207e-09
4.58087e-08
1.51742e-07
3.06899e-07
4.27677e-07
3.62775e-07
5.80063e-08
-5.40754e-07
-1.35891e-06
-2.30004e-06
-3.33324e-06
-4.52122e-06
-6.10645e-06
-8.36068e-06
-1.18425e-05
-1.71339e-05
-2.5268e-05
-3.77069e-05
-5.65485e-05
-8.52528e-05
-0.0001298
-0.000192363
-0.000260635
-0.000305655
-0.000298452
-0.00024213
-0.000159381
-7.9687e-05
-2.9579e-05
-9.39364e-06
-3.34736e-06
-1.24021e-06
-4.6687e-07
-1.81768e-07
-7.34808e-08
-3.11495e-08
-1.40518e-08
-6.92016e-09
-3.83368e-09
-2.44213e-09
-1.78927e-09
-1.48496e-09
-1.39771e-09
-1.46068e-09
-1.71246e-09
-2.24205e-09
-3.35097e-09
-5.58174e-09
-1.13506e-08
-3.5819e-08
-1.53979e-07
-6.65669e-07
-2.43995e-06
-1.45257e-05
-4.78792e-05
-9.51023e-05
-0.000148312
-0.00205401
-0.00976468
-0.025656
-0.0464734
-0.0688697
-0.0883552
-0.102856
-0.111639
-0.116744
-0.120379
-0.122219
-0.126709
-0.13675
-0.154564
-0.179908
-0.210203
-0.242804
-0.274897
-0.304144
-0.329517
-0.349154
-0.3587
-0.363709
-0.364958
-0.362784
-0.357105
-0.349246
-0.342603
-0.342432
-0.354636
-0.383047
-0.425709
-0.472011
-0.503553
-0.503127
-0.470928
-0.398925
-0.313446
-0.243238
-0.19734
-0.17458
-0.192566
-0.231151
-0.143357
4.95023e-21
-3.57142e-22
5.88323e-24
3.76644e-23
1.2026e-22
2.44041e-22
4.05099e-22
5.88686e-22
7.72534e-22
9.21607e-22
9.4163e-22
5.83007e-22
-5.46161e-22
-2.52524e-21
-4.28777e-21
-3.60399e-21
7.93167e-22
6.83096e-21
1.13626e-20
1.61499e-20
2.66948e-20
3.85649e-20
3.25158e-20
-3.61998e-21
-5.31978e-20
-8.16775e-20
-6.70878e-20
-1.53936e-20
4.63202e-20
8.50864e-20
8.49825e-20
4.815e-20
9.3158e-22
-1.82146e-20
-9.10302e-21
1.1456e-21
3.54768e-21
6.21045e-21
1.10774e-20
1.54725e-20
1.95641e-20
2.30392e-20
2.19887e-20
1.5442e-20
8.23726e-21
3.79251e-21
1.74794e-21
8.13498e-22
3.04568e-22
-1.41833e-23
-2.50684e-22
-5.60997e-22
-1.33327e-21
-3.31526e-21
-9.05153e-21
-2.37615e-20
-9.98198e-20
-1.39041e-19
3.93322e-19
-1.95186e-18
1.90017e-19
3.07238e-16
2.50015e-15
-2.37036e-14
4.90013e-13
3.3671e-12
1.25815e-11
2.44529e-11
3.48259e-11
3.59689e-11
2.97051e-11
2.00686e-11
1.10052e-11
5.31615e-12
2.56246e-12
1.28006e-12
6.67464e-13
3.62454e-13
2.04133e-13
1.19335e-13
7.28322e-14
4.68178e-14
3.18417e-14
2.32796e-14
1.84652e-14
1.6345e-14
1.63567e-14
1.90064e-14
2.46745e-14
4.00366e-14
8.44469e-14
3.0785e-13
1.15465e-12
4.92108e-12
1.69867e-11
9.53309e-11
3.26079e-10
6.70608e-10
5.59305e-09
4.38958e-08
1.4176e-07
2.81777e-07
3.93405e-07
3.28066e-07
5.06933e-08
-4.3808e-07
-1.04092e-06
-1.6183e-06
-2.10493e-06
-2.53618e-06
-3.00874e-06
-3.70271e-06
-4.76225e-06
-6.52498e-06
-9.34978e-06
-1.40207e-05
-2.15878e-05
-3.41059e-05
-5.46098e-05
-9.11778e-05
-0.000153098
-0.000244
-0.000343536
-0.000415477
-0.000403081
-0.000330901
-0.000224226
-0.000119423
-4.78359e-05
-1.53262e-05
-5.40492e-06
-2.01273e-06
-7.67384e-07
-3.08623e-07
-1.32124e-07
-6.10905e-08
-3.14565e-08
-1.84663e-08
-1.24878e-08
-9.65642e-09
-8.3654e-09
-8.09885e-09
-8.57731e-09
-1.00167e-08
-1.29214e-08
-1.87328e-08
-3.06018e-08
-6.12821e-08
-1.90317e-07
-7.09102e-07
-2.44955e-06
-1.17796e-05
-4.46283e-05
-9.00716e-05
-0.000207619
-0.0023789
-0.0103831
-0.0258662
-0.0469028
-0.0680956
-0.087301
-0.0986061
-0.106615
-0.10574
-0.102085
-0.0972227
-0.0947874
-0.0964213
-0.104525
-0.121789
-0.149044
-0.183885
-0.223646
-0.264782
-0.30326
-0.335255
-0.357924
-0.370653
-0.375017
-0.375882
-0.376377
-0.37598
-0.37584
-0.379145
-0.389634
-0.410757
-0.44367
-0.482824
-0.512868
-0.516227
-0.500094
-0.448745
-0.369381
-0.289156
-0.231407
-0.196146
-0.174883
-0.195608
-0.21545
-0.0436321
1.297e-21
-6.90185e-23
-3.53918e-23
-4.69249e-23
-7.88212e-23
-1.20297e-22
-1.66039e-22
-2.07486e-22
-2.29624e-22
-1.96172e-22
-3.17192e-23
3.37657e-22
8.12202e-22
9.35577e-22
1.11942e-22
-1.62229e-21
-3.10325e-21
-2.72546e-21
7.17141e-22
8.588e-21
2.25086e-20
4.16773e-20
6.12016e-20
7.58663e-20
8.41349e-20
8.58676e-20
7.83271e-20
5.82337e-20
2.82854e-20
-7.33137e-22
-1.72868e-20
-1.68092e-20
-5.49795e-21
2.96308e-21
3.0227e-21
3.24231e-22
-8.344e-22
-1.61288e-21
-2.96692e-21
-4.26602e-21
-5.17856e-21
-5.51212e-21
-4.75428e-21
-3.12763e-21
-1.62208e-21
-7.46102e-22
-3.45566e-22
-1.57126e-22
-5.04262e-23
1.85224e-23
7.6153e-23
1.69105e-22
4.16419e-22
1.06419e-21
3.02175e-21
9.24831e-21
3.43105e-20
2.13186e-20
2.92949e-19
1.29228e-18
-6.9772e-18
-4.19837e-18
1.36057e-15
1.46372e-14
2.86198e-14
1.06379e-12
7.0031e-12
2.35794e-11
4.40791e-11
6.844e-11
6.86664e-11
5.59985e-11
3.79616e-11
2.15006e-11
1.09073e-11
5.56032e-12
2.91033e-12
1.58042e-12
8.98706e-13
5.33854e-13
3.30967e-13
2.15346e-13
1.47859e-13
1.08838e-13
8.66677e-14
7.64763e-14
7.59011e-14
8.60528e-14
1.12411e-13
1.78321e-13
4.14383e-13
1.34126e-12
5.0781e-12
1.7198e-11
8.82079e-11
2.811e-10
7.18034e-10
5.05874e-09
4.25195e-08
1.34545e-07
2.57982e-07
3.58889e-07
2.92361e-07
3.35004e-08
-3.74799e-07
-8.3843e-07
-1.18815e-06
-1.36591e-06
-1.41361e-06
-1.4216e-06
-1.4753e-06
-1.65805e-06
-2.01233e-06
-2.68594e-06
-3.8484e-06
-5.94033e-06
-9.51275e-06
-1.59634e-05
-2.72279e-05
-4.97037e-05
-9.51502e-05
-0.000179743
-0.000309324
-0.00044113
-0.000584136
-0.000554644
-0.000455763
-0.000315575
-0.000177132
-7.56646e-05
-2.47292e-05
-8.74661e-06
-3.38462e-06
-1.34911e-06
-5.77292e-07
-2.73832e-07
-1.4649e-07
-8.96904e-08
-6.32302e-08
-5.07334e-08
-4.52095e-08
-4.45065e-08
-4.74219e-08
-5.50228e-08
-7.01215e-08
-9.98984e-08
-1.62655e-07
-3.3742e-07
-9.8166e-07
-3.17664e-06
-1.1318e-05
-4.42678e-05
-9.47067e-05
-0.000341451
-0.00276398
-0.0111759
-0.0261653
-0.0466594
-0.0672614
-0.0835528
-0.0950035
-0.0974501
-0.0910139
-0.0813909
-0.071277
-0.0627766
-0.0582352
-0.0580896
-0.0638335
-0.0778979
-0.102197
-0.135774
-0.177188
-0.2233
-0.269275
-0.309806
-0.341226
-0.36104
-0.368985
-0.37198
-0.374191
-0.379263
-0.388624
-0.403372
-0.424837
-0.453243
-0.486406
-0.51541
-0.520492
-0.513984
-0.484535
-0.422265
-0.343501
-0.27194
-0.224521
-0.195173
-0.173782
-0.195424
-0.195565
0.0530001
-2.90434e-22
1.26395e-22
3.00446e-23
2.99803e-23
3.77531e-23
4.75107e-23
5.56814e-23
5.70769e-23
4.10936e-23
-1.09687e-23
-1.09942e-22
-2.08627e-22
-1.6608e-22
1.45898e-22
5.78496e-22
6.01015e-22
-2.96061e-22
-1.94997e-21
-3.27818e-21
-2.59829e-21
1.53403e-21
8.82429e-21
1.61889e-20
1.91228e-20
1.49236e-20
4.93233e-21
-5.88747e-21
-1.18632e-20
-1.04547e-20
-4.0695e-21
2.17573e-21
4.28445e-21
2.32342e-21
-2.09164e-22
-7.97656e-22
-2.31062e-22
1.54289e-22
3.76837e-22
7.27777e-22
1.07996e-21
1.27566e-21
1.2562e-21
9.99177e-22
6.23091e-22
3.16399e-22
1.46062e-22
6.79025e-23
2.9719e-23
7.22774e-24
-7.89104e-24
-2.27704e-23
-5.12452e-23
-1.30175e-22
-3.40913e-22
-1.02028e-21
-3.63685e-21
-1.03548e-20
-1.68491e-20
-1.08874e-19
1.0207e-18
2.788e-18
-4.3521e-17
7.17374e-17
4.21957e-15
2.35509e-17
2.73267e-14
1.77255e-12
1.20324e-11
3.94499e-11
7.77912e-11
1.29739e-10
1.262e-10
1.04937e-10
7.44576e-11
4.42444e-11
2.3076e-11
1.22902e-11
6.92433e-12
4.02918e-12
2.40812e-12
1.49735e-12
9.78931e-13
6.76038e-13
4.99394e-13
3.97771e-13
3.49039e-13
3.42899e-13
3.80485e-13
5.04785e-13
8.12283e-13
2.07225e-12
6.11004e-12
2.15152e-11
8.227e-11
3.07731e-10
6.18079e-10
4.35128e-09
4.16886e-08
1.31002e-07
2.36881e-07
3.22007e-07
2.57338e-07
4.44362e-09
-3.40881e-07
-6.90613e-07
-9.664e-07
-9.32703e-07
-8.05667e-07
-6.51956e-07
-5.37208e-07
-4.9035e-07
-5.17485e-07
-6.15638e-07
-8.22582e-07
-1.19339e-06
-1.88827e-06
-3.14226e-06
-5.52892e-06
-1.00591e-05
-1.96841e-05
-4.31218e-05
-9.9347e-05
-0.000214187
-0.000386304
-0.000570185
-0.00076665
-0.000735336
-0.000616135
-0.000440693
-0.000261999
-0.000120211
-4.19965e-05
-1.49616e-05
-6.1121e-06
-2.67853e-06
-1.28086e-06
-6.9599e-07
-4.36812e-07
-3.16102e-07
-2.5943e-07
-2.35046e-07
-2.33379e-07
-2.4911e-07
-2.87246e-07
-3.63782e-07
-5.16028e-07
-8.62751e-07
-1.83411e-06
-4.92061e-06
-1.51039e-05
-5.31523e-05
-0.000118061
-0.000565227
-0.00332447
-0.0118836
-0.0268258
-0.045485
-0.066372
-0.0793384
-0.0885772
-0.0859037
-0.0766932
-0.0622905
-0.0490265
-0.0381282
-0.0304396
-0.0265633
-0.025946
-0.0291876
-0.0380834
-0.0551173
-0.0811275
-0.116556
-0.159889
-0.207093
-0.252548
-0.291138
-0.319694
-0.337679
-0.348212
-0.355731
-0.366247
-0.383462
-0.4084
-0.439869
-0.474378
-0.505438
-0.519656
-0.517545
-0.502297
-0.460172
-0.395341
-0.322208
-0.259384
-0.218545
-0.191049
-0.168968
-0.193063
-0.169743
0.140626
-1.95582e-22
-6.37458e-23
-1.67117e-23
-1.40938e-23
-1.46068e-23
-1.54657e-23
-1.46545e-23
-9.35751e-24
4.73371e-24
2.92675e-23
5.05156e-23
3.18184e-23
-5.2648e-23
-1.41923e-22
-7.88108e-23
2.12057e-22
4.85051e-22
2.21909e-22
-9.47424e-22
-2.85963e-21
-4.89367e-21
-6.47227e-21
-7.46499e-21
-7.92836e-21
-7.51979e-21
-5.65765e-21
-2.49798e-21
6.03661e-22
2.04849e-21
1.46092e-21
-3.73654e-23
-9.53568e-22
-7.22665e-22
-7.67465e-23
1.85369e-22
8.8761e-23
-1.88305e-23
-7.84027e-23
-1.62955e-22
-2.51523e-22
-2.93556e-22
-2.73687e-22
-2.04554e-22
-1.2224e-22
-6.11781e-23
-2.84444e-23
-1.32206e-23
-5.44329e-24
-6.80701e-25
2.717e-24
6.77529e-24
1.56073e-23
4.06447e-23
1.09416e-22
3.57417e-22
1.3541e-21
2.78819e-21
9.31749e-21
-4.00298e-20
-5.3802e-19
2.78771e-18
1.47281e-17
-2.01487e-16
-1.67467e-15
-2.25805e-15
-6.3749e-14
1.2832e-13
2.18393e-12
1.65291e-11
6.11281e-11
1.31327e-10
1.87337e-10
2.05795e-10
1.84708e-10
1.43264e-10
9.4911e-11
5.53129e-11
3.04682e-11
1.7496e-11
1.06028e-11
6.68836e-12
4.40131e-12
3.04703e-12
2.25094e-12
1.7887e-12
1.55759e-12
1.50973e-12
1.65215e-12
2.24699e-12
3.90937e-12
1.03134e-11
2.88867e-11
9.84757e-11
3.48825e-10
7.71924e-10
5.64417e-09
3.83952e-08
1.30595e-07
2.204e-07
2.8341e-07
2.13949e-07
-2.00561e-08
-3.41337e-07
-5.76727e-07
-7.63368e-07
-6.72851e-07
-4.84766e-07
-3.00173e-07
-1.84943e-07
-1.39449e-07
-1.30972e-07
-1.43931e-07
-1.76231e-07
-2.41092e-07
-3.57231e-07
-5.72865e-07
-9.66744e-07
-1.66881e-06
-2.92246e-06
-5.44617e-06
-1.24427e-05
-3.63814e-05
-0.000105339
-0.000258055
-0.000475662
-0.000723567
-0.000977344
-0.000950241
-0.00081689
-0.00060836
-0.00038441
-0.000193211
-7.64641e-05
-2.84032e-05
-1.23458e-05
-6.04636e-06
-3.33546e-06
-2.12274e-06
-1.55764e-06
-1.29324e-06
-1.18101e-06
-1.17608e-06
-1.25496e-06
-1.44162e-06
-1.82924e-06
-2.63269e-06
-4.57019e-06
-9.58458e-06
-2.58049e-05
-7.24447e-05
-0.000173255
-0.00085773
-0.0041185
-0.0126444
-0.0272097
-0.0448694
-0.062617
-0.0768127
-0.07955
-0.0737
-0.0619209
-0.0471849
-0.0324089
-0.0214759
-0.0141594
-0.00996167
-0.00820186
-0.00804995
-0.00949964
-0.0136184
-0.0225294
-0.038227
-0.062686
-0.0962903
-0.136793
-0.179509
-0.218917
-0.250891
-0.274307
-0.291334
-0.306501
-0.325184
-0.351408
-0.386152
-0.426885
-0.467674
-0.499454
-0.511691
-0.504881
-0.477977
-0.431004
-0.369583
-0.304577
-0.248801
-0.210681
-0.182082
-0.159099
-0.185503
-0.137379
0.25918
1.03592e-22
1.48964e-23
7.11281e-24
5.25061e-24
4.62225e-24
3.9565e-24
2.34944e-24
-1.21159e-24
-7.13603e-24
-1.23309e-23
-8.00278e-24
1.24729e-23
3.36028e-23
1.46396e-23
-5.98808e-23
-1.16862e-22
-4.17781e-23
1.49209e-22
2.27702e-22
-5.76839e-23
-6.86529e-22
-1.29858e-21
-1.44913e-21
-9.66112e-22
-1.11469e-22
5.74396e-22
6.66699e-22
2.21455e-22
-2.66089e-22
-3.56052e-22
-7.88316e-23