/*--------------------------------*- C++ -*----------------------------------*\
| =========                 |                                                 |
| \\      /  F ield         | OpenFOAM: The Open Source CFD Toolbox           |
|  \\    /   O peration     | Version:  2506                                  |
|   \\  /    A nd           | Website:  www.openfoam.com                      |
|    \\/     M anipulation  |                                                 |
\*---------------------------------------------------------------------------*/
FoamFile
{
    version     2.0;
    format      ascii;
    arch        "LSB;label=32;scalar=64";
    class       volVectorField;
    location    "1.15";
    object      U;
}
// * * * * * * * * * * * * * * * * * * * * * * * * * * * * * * * * * * * * * //

dimensions      [0 1 -1 0 0 0 0];

internalField   nonuniform List<vector> 
4000
(
(0.00435272 -0.00196554 7.01742e-23)
(0.00593378 -0.00165025 0)
(0.00820106 -0.000859885 7.86445e-24)
(0.00992944 -0.00044906 2.98387e-24)
(0.0109708 -0.000271996 -8.51982e-25)
(0.0116403 -0.000170167 0)
(0.012113 -0.000106997 -6.49081e-24)
(0.0124559 -7.02039e-05 -8.53883e-24)
(0.0127096 -4.85759e-05 0)
(0.0129037 -3.50966e-05 0)
(0.0130565 -2.63446e-05 -2.6246e-22)
(0.0131795 -2.05024e-05 5.24999e-22)
(0.0132799 -1.64818e-05 -2.58735e-22)
(0.0133632 -1.36408e-05 3.40648e-22)
(0.0134331 -1.16088e-05 -3.39314e-22)
(0.0134924 -1.01637e-05 -2.41123e-23)
(0.0135435 -9.16636e-06 -4.48277e-22)
(0.0135882 -8.52844e-06 4.46674e-22)
(0.0136279 -8.194e-06 -3.14193e-23)
(0.0136642 -8.12912e-06 0)
(0.0136981 -8.31597e-06 0)
(0.0137311 -8.74997e-06 4.01089e-23)
(0.0137643 -9.4391e-06 4.33442e-23)
(0.0137992 -1.04053e-05 0)
(0.0138373 -1.1687e-05 5.03345e-23)
(0.0138804 -1.33442e-05 5.4081e-23)
(0.0139308 -1.54682e-05 0)
(0.0139913 -1.82178e-05 0)
(0.0140646 -2.1591e-05 -2.21228e-21)
(0.0141605 -2.53654e-05 2.27251e-21)
(0.0142983 -4.12944e-05 0)
(0.0142774 -0.000109456 5.12871e-21)
(0.0139767 -0.000279444 -7.9143e-21)
(0.0134301 -0.000606905 1.17497e-22)
(0.012738 -0.00112405 3.13995e-21)
(0.0119641 -0.00188592 -4.97905e-20)
(0.0113266 -0.00282272 6.29279e-23)
(0.0106402 -0.00417968 9.70854e-21)
(0.00976706 -0.00585904 0)
(0.00887722 -0.00741671 -3.40094e-21)
(0.00815457 -0.0087087 3.47455e-21)
(0.00757969 -0.00975893 -2.7802e-20)
(0.0071145 -0.0105948 0)
(0.00674555 -0.0112205 -2.37976e-20)
(0.00645319 -0.011646 9.87491e-21)
(0.00620606 -0.0118915 -1.34516e-20)
(0.00598392 -0.0119665 0)
(0.00577717 -0.0118888 1.22832e-20)
(0.00555147 -0.0117134 1.20995e-20)
(0.00527674 -0.0114279 8.30571e-21)
(0.00493141 -0.0110272 0)
(0.0045846 -0.0104422 0)
(0.00426928 -0.00970629 6.82787e-22)
(0.00407351 -0.0086835 -4.88039e-21)
(0.00418102 -0.00734619 -8.85513e-22)
(0.00485766 -0.00564129 1.23717e-21)
(0.00619575 -0.00381116 -2.82436e-22)
(0.00826275 -0.00200092 5.39289e-22)
(0.01087 -0.000565049 0)
(0.0132984 0.000211394 -6.92986e-22)
(0.0150103 0.000460919 -2.33641e-21)
(0.015946 0.000352197 1.46768e-22)
(0.0163821 0.00019127 7.94451e-21)
(0.0165593 6.21975e-05 -8.19297e-21)
(0.0166193 -1.59649e-05 0)
(0.0166266 -5.82607e-05 0)
(0.016621 -7.95804e-05 0)
(0.0166137 -9.07368e-05 -1.24972e-21)
(0.0166049 -9.10134e-05 -1.83336e-20)
(0.0165974 -8.78635e-05 -1.00521e-20)
(0.0165909 -8.64683e-05 0)
(0.016585 -8.53131e-05 8.80791e-21)
(0.016579 -8.37288e-05 -8.76151e-21)
(0.0165733 -8.16809e-05 -9.0065e-22)
(0.016568 -7.92217e-05 9.4763e-21)
(0.0165629 -7.64547e-05 -8.35922e-21)
(0.0165578 -7.33568e-05 -9.30886e-21)
(0.0165537 -7.00398e-05 -8.73173e-21)
(0.0165497 -6.64151e-05 0)
(0.016546 -6.25076e-05 0)
(0.0165424 -5.82093e-05 2.27414e-22)
(0.0165406 -5.36258e-05 6.74305e-21)
(0.0165378 -4.83658e-05 0)
(0.0165366 -4.33816e-05 -5.3038e-21)
(0.0165343 -3.66664e-05 4.41008e-21)
(0.0165322 -2.85152e-05 0)
(0.016526 -1.89363e-05 0)
(0.0165117 -8.51878e-06 3.94169e-23)
(0.0164638 1.03048e-06 1.81528e-24)
(0.0163589 -5.33813e-07 3.51129e-22)
(0.0161863 -3.77688e-05 -6.37275e-23)
(0.0159405 -0.000140706 9.96921e-24)
(0.0156502 -0.000328611 2.23291e-22)
(0.0153642 -0.000604544 0)
(0.0151489 -0.000936532 -5.8853e-21)
(0.0150202 -0.00122554 -6.67257e-21)
(0.014971 -0.00144757 -7.36944e-21)
(0.0149817 -0.00159418 -5.17214e-22)
(0.0150201 -0.00167631 -8.25596e-21)
(0.0150652 -0.00172057 -8.91786e-21)
(0.0150773 -0.0017614 1.43917e-22)
(0.0150228 -0.00183396 -9.25699e-21)
(0.0148787 -0.00196936 -1.73314e-20)
(0.0146298 -0.00219019 -4.03788e-22)
(0.0142684 -0.00250709 -7.67961e-21)
(0.0137905 -0.00291739 0)
(0.0131875 -0.00340772 7.20805e-21)
(0.0124488 -0.00395323 6.38243e-21)
(0.0115841 -0.00451221 4.3874e-22)
(0.010618 -0.00503697 0)
(0.00955316 -0.00545767 5.26177e-21)
(0.00853624 -0.00563158 -4.58745e-21)
(0.00770159 -0.00546585 0)
(0.00729179 -0.00480848 -5.42082e-21)
(0.00755238 -0.00375227 -6.97973e-22)
(0.00859325 -0.00242467 3.41515e-22)
(0.0104636 -0.00107901 0)
(0.0126487 -0.000132809 9.21119e-22)
(0.0144948 0.000319381 -1.93385e-22)
(0.0156722 0.000308539 -5.00762e-23)
(0.0162632 0.0001991 2.22335e-22)
(0.0165192 7.92517e-05 -8.73228e-21)
(0.0166112 -3.87055e-06 9.82361e-21)
(0.0166323 -5.29704e-05 6.41227e-22)
(0.0166379 -7.67256e-05 9.23256e-21)
(0.0166326 -9.15867e-05 -2.00434e-20)
(0.016625 -9.86105e-05 1.01086e-20)
(0.0166176 -9.64645e-05 -1.1139e-20)
(0.0166109 -9.1799e-05 4.24914e-22)
(0.0166044 -8.94693e-05 -9.89819e-21)
(0.0165984 -8.73419e-05 0)
(0.0165927 -8.46254e-05 1.09147e-20)
(0.0165872 -8.12844e-05 -1.72256e-21)
(0.0165823 -7.74751e-05 1.19384e-20)
(0.0165777 -7.32743e-05 0)
(0.0165733 -6.86966e-05 0)
(0.0165692 -6.37169e-05 -9.65235e-21)
(0.0165649 -5.81616e-05 8.88622e-21)
(0.0165618 -5.2144e-05 0)
(0.0165581 -4.55078e-05 0)
(0.0165541 -3.80782e-05 7.33175e-21)
(0.0165516 -2.97698e-05 -1.52989e-21)
(0.0165466 -2.06583e-05 7.00858e-21)
(0.016542 -1.10773e-05 0)
(0.0165339 -1.03537e-06 -2.87186e-21)
(0.0165209 9.03914e-06 -1.3399e-21)
(0.0164855 1.61308e-05 5.83157e-22)
(0.0164046 1.67955e-05 -2.45064e-22)
(0.0162561 -5.40706e-06 0)
(0.0160413 -7.94068e-05 -5.13982e-22)
(0.0157578 -0.000232244 -2.14588e-22)
(0.0154513 -0.00047641 5.0658e-21)
(0.0151866 -0.000800662 -9.52383e-22)
(0.0150008 -0.00112921 -2.0339e-23)
(0.0148918 -0.00140554 -4.22431e-21)
(0.0148525 -0.00161732 -1.51705e-21)
(0.0148594 -0.00176944 0)
(0.0148754 -0.00188473 0)
(0.0148581 -0.00199869 0)
(0.0147661 -0.00215027 1.37151e-20)
(0.0145446 -0.00236743 -1.6568e-21)
(0.0141444 -0.00266654 -6.22281e-21)
(0.0132018 -0.00307121 -4.81928e-21)
(0.0118722 -0.00336771 0)
(0.0110349 -0.00338506 7.75192e-21)
(0.0103883 -0.00326501 1.22233e-20)
(0.00989835 -0.00296035 1.10167e-22)
(0.0097819 -0.00243292 1.68105e-21)
(0.0101636 -0.00173644 4.32426e-21)
(0.0110862 -0.00101092 1.39459e-21)
(0.0122208 -0.000467408 0)
(0.0130179 -0.000210392 1.39052e-23)
(0.0134652 -0.000104281 0)
(0.0137223 -5.74842e-05 1.05268e-23)
(0.0138851 -3.34213e-05 9.27448e-24)
(0.0139932 -2.05313e-05 5.16582e-22)
(0.0140669 -1.33503e-05 -5.14431e-22)
(0.0141192 -9.04504e-06 -2.00906e-22)
(0.0141575 -6.23869e-06 2.06301e-22)
(0.0141855 -4.22709e-06 -1.56312e-22)
(0.0142051 -2.63434e-06 3.12045e-22)
(0.0142176 -1.26224e-06 -1.41582e-22)
(0.0142237 -1.45836e-08 0)
(0.0142238 1.19084e-06 3.66796e-24)
(0.0142178 2.43792e-06 -3.4835e-24)
(0.0142053 3.95476e-06 1.12307e-22)
(0.0141856 5.66132e-06 -1.05393e-22)
(0.0141574 7.60356e-06 1.16322e-22)
(0.0141183 9.87396e-06 -1.12439e-22)
(0.0140655 1.3177e-05 7.63815e-23)
(0.0139956 1.74304e-05 -6.72511e-23)
(0.0139027 2.29948e-05 5.80283e-24)
(0.0137782 3.08372e-05 7.10568e-24)
(0.0136079 4.30944e-05 0)
(0.0133648 6.48648e-05 1.14382e-23)
(0.0129912 0.00010854 1.51467e-23)
(0.0123502 0.00020606 2.36156e-22)
(0.0111027 0.000459484 -2.48911e-22)
(0.00855236 0.001263 0)
(0.00643534 0.00234227 8.71164e-23)
(-5.32674e-05 -0.00378213 -4.01545e-23)
(-9.9524e-05 -0.00352562 1.48028e-24)
(0.00132133 -0.00248654 -9.4716e-24)
(0.00271129 -0.00179767 1.38069e-23)
(0.00382184 -0.00130192 9.28114e-24)
(0.0047053 -0.000936974 2.74592e-23)
(0.00542403 -0.000687602 -3.53754e-23)
(0.00600865 -0.000521766 2.83083e-23)
(0.00648595 -0.00040829 2.28224e-23)
(0.00688034 -0.000327656 2.7384e-23)
(0.00721038 -0.000268697 4.86863e-23)
(0.00748955 -0.000224493 3.52007e-22)
(0.00772809 -0.000190571 -3.34713e-22)
(0.00793398 -0.000164064 3.89668e-22)
(0.0081135 -0.000143117 -7.66032e-22)
(0.00827174 -0.000126494 9.79973e-22)
(0.00841286 -0.000113359 -4.07098e-22)
(0.00854042 -0.000103144 6.25299e-22)
(0.00865752 -9.54773e-05 7.67806e-22)
(0.00876696 -9.01326e-05 -1.13145e-21)
(0.0088714 -8.70079e-05 8.43674e-23)
(0.0089734 -8.61127e-05 1.58476e-21)
(0.00907559 -8.75707e-05 -1.5824e-21)
(0.00918077 -9.16345e-05 -1.67962e-21)
(0.00929203 -9.8714e-05 1.71744e-21)
(0.00941295 -0.000109425 5.96602e-23)
(0.00954775 -0.000124674 2.19302e-21)
(0.00970171 -0.000145759 1.8394e-23)
(0.00988071 -0.000174622 -4.8003e-21)
(0.0100977 -0.000212883 -2.44065e-22)
(0.0103797 -0.000266556 2.59414e-21)
(0.010558 -0.000402029 2.79835e-21)
(0.0105216 -0.000674163 8.44851e-21)
(0.0103198 -0.00110436 1.73043e-20)
(0.0100586 -0.00169417 1.19309e-20)
(0.0097996 -0.00245378 1.23548e-20)
(0.00958815 -0.00337611 -2.77952e-21)
(0.00932239 -0.00452102 -9.00937e-21)
(0.00890271 -0.0057728 2.97815e-21)
(0.00840893 -0.00694981 8.89845e-21)
(0.00796379 -0.00801064 1.18784e-20)
(0.00756566 -0.00894645 1.21369e-20)
(0.00720259 -0.00973876 0)
(0.00687044 -0.0103761 2.38822e-20)
(0.00655686 -0.0108564 -1.1721e-20)
(0.00624511 -0.0111823 1.1924e-20)
(0.0059208 -0.0113604 -1.14033e-20)
(0.00556855 -0.0114249 0)
(0.00516421 -0.0113438 -1.00376e-21)
(0.00468386 -0.0111708 -8.73114e-21)
(0.004118 -0.010894 7.58527e-21)
(0.00348138 -0.0104955 -8.36443e-22)
(0.00279905 -0.00999383 -5.06751e-21)
(0.00208648 -0.00931478 8.80474e-22)
(0.00146377 -0.00843168 -2.85776e-21)
(0.00106946 -0.00724902 0)
(0.00109869 -0.00579627 6.11326e-22)
(0.0018335 -0.00406716 -8.75155e-22)
(0.00359127 -0.00225559 -3.01738e-22)
(0.00627469 -0.000667819 9.42362e-22)
(0.00940957 0.000364952 2.89314e-21)
(0.0122204 0.000855113 7.12194e-21)
(0.0141584 0.000772229 9.27106e-21)
(0.0153389 0.000530334 9.41155e-21)
(0.0159835 0.000293863 -1.20253e-21)
(0.0162885 0.000114679 1.16825e-21)
(0.0164309 -1.78918e-06 0)
(0.0165013 -7.12769e-05 0)
(0.0165358 -0.000119802 2.05459e-20)
(0.0165534 -0.000151783 -9.93437e-21)
(0.016563 -0.000169037 -1.30065e-21)
(0.016568 -0.000178378 1.25852e-20)
(0.0165695 -0.000182396 8.67706e-21)
(0.0165687 -0.000182782 1.18407e-20)
(0.0165666 -0.000180777 -6.72168e-22)
(0.016564 -0.000175648 -6.33156e-22)
(0.0165606 -0.000167947 -1.04759e-20)
(0.0165568 -0.000158323 9.51682e-21)
(0.0165521 -0.000147002 5.62401e-22)
(0.0165466 -0.000134029 8.34546e-21)
(0.01654 -0.000119252 -7.80013e-21)
(0.0165323 -0.000102082 0)
(0.0165216 -8.21052e-05 0)
(0.016507 -5.76345e-05 0)
(0.0164842 -3.02127e-05 -4.65761e-21)
(0.0164474 2.20195e-06 1.31044e-22)
(0.0163817 3.80775e-05 -1.25388e-22)
(0.0162731 8.034e-05 1.35628e-22)
(0.0161105 0.000117134 1.9028e-23)
(0.015891 0.000120188 -8.64773e-22)
(0.0156391 5.71337e-05 1.43886e-22)
(0.0153904 -9.36224e-05 -4.51225e-23)
(0.01519 -0.00033157 -3.57811e-21)
(0.015064 -0.000629535 4.68013e-21)
(0.0150087 -0.000932176 -5.42103e-21)
(0.0150095 -0.00118991 6.03452e-21)
(0.0150364 -0.0013771 -6.16888e-21)
(0.0150648 -0.00149026 -7.04513e-21)
(0.0150659 -0.00155106 7.78796e-21)
(0.0150071 -0.00159488 7.80176e-21)
(0.0148557 -0.00166116 0)
(0.0146031 -0.00178662 -7.30649e-21)
(0.0142471 -0.00199767 7.84185e-21)
(0.0137836 -0.00230698 -2.20629e-22)
(0.0132092 -0.00271324 8.04106e-22)
(0.0125162 -0.00320335 0)
(0.0116917 -0.00375544 -1.30862e-20)
(0.0107291 -0.00434022 -1.28346e-20)
(0.00963987 -0.00492215 -5.62022e-21)
(0.00844801 -0.00545767 -4.85043e-21)
(0.00718421 -0.00587554 -5.13025e-21)
(0.00593661 -0.00605172 8.67306e-21)
(0.00481211 -0.00598721 -2.31436e-22)
(0.00389778 -0.00559188 2.59909e-21)
(0.00339658 -0.00482126 -5.56561e-23)
(0.00346284 -0.00369476 -2.45626e-22)
(0.00440009 -0.00232675 -1.42964e-22)
(0.00626691 -0.000986646 -1.3897e-21)
(0.00886366 6.48977e-05 -2.46697e-22)
(0.011587 0.000657394 2.24554e-22)
(0.0136882 0.000727791 0)
(0.0150365 0.000565375 9.66822e-21)
(0.0157985 0.000349353 3.15665e-22)
(0.0161854 0.000163938 -9.59296e-22)
(0.0163738 3.75158e-05 -1.04005e-20)
(0.0164674 -3.89623e-05 1.13014e-20)
(0.0165157 -8.99863e-05 1.05379e-20)
(0.0165425 -0.000129001 2.23233e-20)
(0.0165572 -0.000154711 2.24997e-20)
(0.0165645 -0.000167814 1.031e-20)
(0.0165675 -0.000174126 1.39948e-21)
(0.0165676 -0.000175831 1.07652e-20)
(0.0165658 -0.000174295 -2.20716e-20)
(0.0165628 -0.000170019 2.67586e-21)
(0.0165587 -0.000163038 7.53215e-21)
(0.0165538 -0.000153641 0)
(0.0165482 -0.000142031 0)
(0.0165415 -0.000128356 -6.25642e-22)
(0.0165342 -0.000112395 -2.09967e-21)
(0.0165245 -9.42163e-05 -5.69497e-21)
(0.016512 -7.41294e-05 -1.72951e-21)
(0.0164961 -5.0848e-05 2.09454e-22)
(0.0164722 -2.46332e-05 2.37833e-21)
(0.0164364 5.40988e-06 -2.32188e-21)
(0.0163761 3.88133e-05 2.9516e-21)
(0.0162791 7.39858e-05 0)
(0.0161292 0.000110933 2.16332e-22)
(0.0159179 0.000125021 -2.10769e-22)
(0.0156595 7.8646e-05 -3.60894e-22)
(0.015388 -5.62641e-05 0)
(0.0151467 -0.000288744 0)
(0.0149721 -0.000599418 0)
(0.0148727 -0.000939226 0)
(0.0148313 -0.00125273 -1.02245e-20)
(0.0148222 -0.00150192 -2.46036e-21)
(0.0148161 -0.00168187 -1.33238e-21)
(0.0147743 -0.00181219 1.47758e-21)
(0.0146558 -0.00192996 8.55514e-21)
(0.0144187 -0.0020779 -2.78582e-21)
(0.0140258 -0.00229204 -6.26639e-21)
(0.0134366 -0.00258331 -4.56602e-23)
(0.0125943 -0.00291384 4.56251e-21)
(0.0113979 -0.00317951 -1.53379e-21)
(0.0101025 -0.00321435 -5.2527e-24)
(0.009112 -0.00322666 8.21173e-21)
(0.00818649 -0.00322845 -6.82e-21)
(0.00728596 -0.00309487 0)
(0.00660329 -0.00277369 0)
(0.0062896 -0.00227421 -1.69497e-21)
(0.00647914 -0.00165749 -1.23972e-21)
(0.00711828 -0.00109516 1.18381e-21)
(0.00778951 -0.000720725 -1.6468e-23)
(0.0082933 -0.000475016 8.51417e-22)
(0.00866099 -0.000312874 -8.33549e-22)
(0.00893759 -0.000211346 -3.16513e-23)
(0.00914713 -0.000149782 -5.80494e-22)
(0.00930708 -0.000111274 6.88497e-23)
(0.00943115 -8.54566e-05 2.94089e-22)
(0.00952825 -6.67723e-05 2.06537e-22)
(0.00960366 -5.22036e-05 1.77518e-22)
(0.00966075 -4.0063e-05 -1.78031e-22)
(0.00970174 -2.93732e-05 4.71454e-24)
(0.00972806 -1.94878e-05 -1.41421e-22)
(0.00974043 -9.87285e-06 1.45258e-22)
(0.00973889 7.15597e-09 4.09217e-24)
(0.00972269 1.07762e-05 1.15209e-22)
(0.00969016 2.31341e-05 -1.38771e-22)
(0.00963851 3.79616e-05 1.37412e-22)
(0.00956375 5.6384e-05 -1.50605e-22)
(0.00945963 8.04221e-05 7.1097e-23)
(0.00931747 0.000111791 -9.16984e-23)
(0.00912543 0.000153638 6.93521e-24)
(0.00886657 0.000211895 -2.5249e-23)
(0.00851494 0.000298785 -1.93002e-22)
(0.00802685 0.000442049 2.0709e-22)
(0.00732237 0.000707247 -5.29773e-23)
(0.00625188 0.00124832 -2.49581e-23)
(0.0045669 0.0023983 1.01567e-22)
(0.00190879 0.00458621 0)
(0.000234656 0.00608802 -2.11092e-22)
(-0.000385976 -0.00314002 0)
(-0.0010736 -0.00372811 -6.56321e-23)
(-0.000761897 -0.00316496 2.62248e-23)
(-0.000148516 -0.00256055 1.50422e-24)
(0.000531624 -0.00203633 -1.08481e-23)
(0.00119539 -0.00161012 -3.71441e-23)
(0.00180983 -0.00128574 3.68233e-23)
(0.00236258 -0.0010444 -1.92383e-23)
(0.00285131 -0.000862791 -2.43974e-23)
(0.00328103 -0.000723711 -8.46207e-23)
(0.00365886 -0.000615551 -3.40224e-23)
(0.00399186 -0.000530228 -1.12878e-22)
(0.00428652 -0.000462063 3.61755e-22)
(0.00454868 -0.000407102 -8.53962e-22)
(0.00478348 -0.000362579 3.45328e-22)
(0.00499541 -0.000326539 -5.44845e-22)
(0.00518844 -0.000297594 2.94096e-22)
(0.00536612 -0.000274772 -2.06124e-22)
(0.00553173 -0.000257421 -1.33473e-21)
(0.00568833 -0.000245144 1.16807e-21)
(0.0058389 -0.000237771 -8.95081e-23)
(0.0059864 -0.000235342 -2.84773e-22)
(0.00613391 -0.000238114 1.71481e-21)
(0.00628471 -0.00024659 -1.81587e-21)
(0.00644242 -0.000261566 -1.97585e-21)
(0.00661116 -0.00028422 1.5824e-21)
(0.00679571 -0.000316254 2.25447e-21)
(0.0070018 -0.000360104 -2.08962e-21)
(0.00723575 -0.000419423 0)
(0.00750835 -0.000498883 0)
(0.00784256 -0.000607569 0)
(0.00813378 -0.00080715 0)
(0.00829659 -0.00113991 -1.1454e-20)
(0.00834703 -0.00161423 -1.47331e-20)
(0.00834631 -0.00222702 1.48502e-20)
(0.00832218 -0.0029848 -2.75509e-21)
(0.0082897 -0.00388615 1.5438e-20)
(0.00817462 -0.00494081 -3.0373e-21)
(0.00792935 -0.0060535 -1.19687e-20)
(0.00762947 -0.0071183 2.74054e-21)
(0.00734831 -0.00810015 -2.39231e-20)
(0.00707889 -0.00897748 0)
(0.00681355 -0.00972877 1.12526e-20)
(0.0065508 -0.0103397 1.09024e-20)
(0.00628095 -0.010803 -1.31831e-21)
(0.0059904 -0.0111175 -8.14267e-21)
(0.00566621 -0.0112885 1.82905e-20)
(0.00529094 -0.0113296 7.60405e-21)
(0.00484658 -0.0112493 1.25354e-21)
(0.00431894 -0.0110601 -1.32346e-22)
(0.00370083 -0.010765 -2.33762e-21)
(0.0029995 -0.0103675 1.37293e-21)
(0.00222796 -0.00987547 3.37387e-22)
(0.0014007 -0.00925313 -1.70573e-22)
(0.000588671 -0.00847946 -2.0493e-21)
(-0.000125919 -0.00749846 1.82707e-22)
(-0.000584087 -0.00630551 -8.20738e-22)
(-0.000640593 -0.00487701 9.57188e-22)
(9.13934e-06 -0.00328406 3.07462e-22)
(0.00154679 -0.00167198 0)
(0.00394641 -0.000242611 1.14887e-21)
(0.00698739 0.000784684 -1.01842e-21)
(0.0098655 0.00130882 5.81781e-22)
(0.0121923 0.00128751 -9.65726e-21)
(0.0138503 0.00108905 8.69809e-21)
(0.0149154 0.000809744 -8.80749e-21)
(0.0155538 0.000543255 0)
(0.0159253 0.000341269 0)
(0.0161396 0.000197492 -1.91856e-20)
(0.0162659 9.7365e-05 1.93661e-20)
(0.0163439 3.01429e-05 0)
(0.016394 -1.45007e-05 -8.87913e-21)
(0.0164265 -4.36524e-05 -6.6739e-22)
(0.016447 -6.13393e-05 8.11742e-21)
(0.0164592 -7.04558e-05 -1.04059e-20)
(0.0164651 -7.33602e-05 -8.4505e-21)
(0.0164663 -7.07522e-05 1.87155e-20)
(0.0164637 -6.27635e-05 -5.56721e-22)
(0.0164566 -5.03491e-05 -5.10594e-22)
(0.0164457 -3.40595e-05 -1.5112e-20)
(0.0164305 -1.39688e-05 1.45628e-20)
(0.0164088 1.15787e-05 2.01515e-22)
(0.0163775 4.09936e-05 -2.33363e-23)
(0.0163337 7.68593e-05 -1.78897e-22)
(0.0162726 0.000117646 4.55687e-21)
(0.016184 0.000166447 0)
(0.0160575 0.000220039 -6.12968e-22)
(0.0158862 0.000266967 -5.66254e-24)
(0.0156711 0.000287172 -8.18368e-23)
(0.0154314 0.000250361 7.49818e-22)
(0.0152072 0.000129618 8.21789e-23)
(0.0150358 -8.2873e-05 5.43086e-21)
(0.0149423 -0.000368634 3.61586e-21)
(0.0149243 -0.000688566 -8.68146e-21)
(0.0149585 -0.000992671 -1.38495e-22)
(0.0150099 -0.0012393 5.89072e-21)
(0.0150499 -0.00140956 1.24676e-20)
(0.015035 -0.00151194 6.8746e-21)
(0.0149488 -0.00157361 0)
(0.0147654 -0.00163141 -6.85605e-21)
(0.0144807 -0.00172331 0)
(0.0140946 -0.00188164 7.44166e-21)
(0.0136077 -0.00212578 -1.08512e-22)
(0.0130189 -0.00246015 -6.62475e-21)
(0.0123239 -0.00287662 6.99526e-21)
(0.0115141 -0.00335779 0)
(0.0105809 -0.00388059 1.27317e-20)
(0.00952773 -0.00441905 6.24231e-21)
(0.00837511 -0.00494407 3.05483e-22)
(0.00715333 -0.00541676 5.43225e-21)
(0.00589553 -0.00577584 0)
(0.00466497 -0.00596315 -4.08989e-21)
(0.00352147 -0.00592452 0)
(0.00250531 -0.00559433 1.41446e-21)
(0.00173409 -0.00497983 -5.02114e-23)
(0.00132016 -0.00406371 0)
(0.00149711 -0.00288884 0)
(0.00244757 -0.00160857 1.47047e-21)
(0.00421973 -0.000380961 0)
(0.006766 0.000605844 -2.90017e-22)
(0.00946249 0.0011667 5.62601e-22)
(0.0117822 0.00127247 -2.76085e-22)
(0.0134888 0.00113854 0)
(0.0146371 0.000888668 0)
(0.0153483 0.000633225 -1.01843e-20)
(0.0157685 0.000426467 1.09852e-20)
(0.0160193 0.000276601 -2.12023e-20)
(0.0161744 0.000168412 -1.08295e-20)
(0.0162718 9.1598e-05 -1.45642e-21)
(0.0163338 3.96412e-05 -9.51942e-21)
(0.016374 5.12592e-06 1.31778e-21)
(0.0163998 -1.65793e-05 -1.08625e-20)
(0.0164155 -2.83765e-05 -1.87039e-21)
(0.0164235 -3.22786e-05 1.83189e-23)
(0.0164253 -2.97843e-05 -1.8593e-21)
(0.0164219 -2.2109e-05 2.43548e-21)
(0.0164141 -9.94372e-06 -8.93271e-21)
(0.0164018 6.07626e-06 -1.75359e-20)
(0.0163843 2.70576e-05 0)
(0.016359 5.22746e-05 7.85186e-21)
(0.016326 8.05413e-05 8.29096e-21)
(0.0162808 0.00011524 -1.62509e-21)
(0.0162182 0.000153719 -4.26126e-21)
(0.0161314 0.000198339 -2.17126e-21)
(0.0160092 0.000246597 1.88806e-21)
(0.0158429 0.000290438 4.50521e-22)
(0.0156294 0.000311015 -1.12742e-22)
(0.0153818 0.00027715 -2.35605e-22)
(0.0151369 0.000157158 3.6625e-22)
(0.014936 -6.25083e-05 2.22537e-21)
(0.0148067 -0.000367259 -1.23631e-21)
(0.0147523 -0.000717546 7.12123e-22)
(0.0147511 -0.00106292 3.82285e-21)
(0.0147661 -0.00135887 8.8566e-21)
(0.0147594 -0.00158291 5.02471e-21)
(0.0146948 -0.00174272 0)
(0.0145376 -0.00186651 5.33272e-21)
(0.0142563 -0.00199243 -1.57525e-20)
(0.0138194 -0.00215473 -1.03392e-21)
(0.0132057 -0.00237183 0)
(0.0124001 -0.00262743 -5.67322e-21)
(0.0114005 -0.00286204 0)
(0.0101919 -0.00294807 0)
(0.00900566 -0.00292879 -4.8099e-21)
(0.00800693 -0.0029387 -8.45111e-21)
(0.00701758 -0.00294125 0)
(0.00604092 -0.00284265 0)
(0.00522176 -0.00261196 2.80144e-21)
(0.00466032 -0.00225338 -2.68722e-21)
(0.00444869 -0.00179782 1.4337e-22)
(0.00460491 -0.00134303 2.14472e-22)
(0.00492045 -0.000994903 1.0419e-21)
(0.00522991 -0.000733527 -2.77737e-23)
(0.00550803 -0.00054084 4.63618e-23)
(0.0057521 -0.000406222 6.31873e-23)
(0.00595929 -0.000314022 5.73523e-22)
(0.00613178 -0.000248925 -2.5558e-23)
(0.00627447 -0.000200499 -5.26934e-22)
(0.00639162 -0.000162476 1.38891e-23)
(0.00648632 -0.000131033 -1.87068e-22)
(0.00656085 -0.000103791 1.9706e-22)
(0.00661687 -7.91954e-05 -1.03292e-23)
(0.00665541 -5.60649e-05 0)
(0.00667683 -3.32979e-05 -8.91755e-24)
(0.00668072 -9.69091e-06 -1.65606e-23)
(0.00666572 1.61937e-05 1.40686e-22)
(0.00662937 4.60916e-05 -1.23895e-22)
(0.00656758 8.22454e-05 1.44303e-22)
(0.00647422 0.0001276 -2.93788e-22)
(0.00634055 0.000185688 2.60326e-22)
(0.00615458 0.000261592 -9.08349e-23)
(0.00590014 0.000362655 -4.34996e-23)
(0.00555522 0.00050115 1.78993e-23)
(0.00508924 0.000700502 0)
(0.00445822 0.0010097 -8.3781e-23)
(0.00359909 0.00153301 3.70396e-23)
(0.00243681 0.00247257 0)
(0.000955703 0.00410509 -6.7055e-23)
(-0.000717169 0.00630899 1.38238e-22)
(-0.00055123 0.00595872 2.75656e-22)
(-0.000279855 -0.00230183 -4.1903e-23)
(-0.00103378 -0.00341219 0)
(-0.00116945 -0.00332918 0)
(-0.00101412 -0.00293534 -9.60411e-24)
(-0.000692112 -0.0025021 -2.15836e-24)
(-0.000291531 -0.00210715 -3.69918e-23)
(0.000141398 -0.00177571 3.72709e-23)
(0.000571807 -0.00150696 -3.54174e-23)
(0.000982092 -0.00129022 0)
(0.00136432 -0.00111472 5.73323e-23)
(0.00171614 -0.000971755 0)
(0.00203803 -0.000854544 2.97633e-24)
(0.00233193 -0.000757924 0)
(0.00260049 -0.000678009 9.69265e-23)
(0.00284659 -0.000611902 0)
(0.00307316 -0.000557449 0)
(0.0032831 -0.000513071 1.29463e-22)
(0.00347921 -0.000477638 7.24213e-22)
(0.00366422 -0.00045039 -1.84614e-21)
(0.00384088 -0.000430886 1.25881e-21)
(0.00401193 -0.000418977 0)
(0.0041802 -0.000414799 -1.40726e-21)
(0.00434872 -0.000418789 1.59147e-21)
(0.00452073 -0.000431722 2.18601e-22)
(0.00469984 -0.000454778 0)
(0.0048901 -0.000489642 2.12967e-21)
(0.00509619 -0.000538666 -2.10341e-21)
(0.00532346 -0.000605097 0)
(0.00557766 -0.000693535 -2.54146e-21)
(0.00586747 -0.000809883 2.51353e-21)
(0.0062099 -0.000963741 -2.79828e-21)
(0.00653762 -0.00120421 5.48571e-21)
(0.00678642 -0.00156654 8.7678e-21)
(0.00695507 -0.00205906 3.09128e-21)
(0.00707934 -0.00268002 -4.19485e-22)
(0.00717085 -0.00343454 4.249e-22)
(0.00723561 -0.00431701 8.9505e-21)
(0.00721639 -0.00531296 3.48488e-23)
(0.0070907 -0.00634106 -2.54464e-21)
(0.00692217 -0.00732933 5.58532e-21)
(0.00675588 -0.00824859 -2.38716e-21)
(0.00658069 -0.0090747 2.91232e-21)
(0.00639034 -0.00978295 -2.22278e-20)
(0.00618382 -0.0103565 -8.44461e-21)
(0.00595234 -0.0107855 -2.63128e-21)
(0.0056837 -0.0110664 0)
(0.00536605 -0.0112025 -8.0364e-22)
(0.00498542 -0.0112031 -1.68096e-20)
(0.00452725 -0.0110754 -7.143e-21)
(0.00398521 -0.0108312 -9.14254e-22)
(0.00335818 -0.0104809 -1.19396e-20)
(0.00265424 -0.0100355 0)
(0.00188642 -0.00950319 4.66272e-21)
(0.00107339 -0.00887228 -1.5349e-22)
(0.000264244 -0.00813747 -1.59816e-22)
(-0.000490546 -0.00727658 -1.42933e-22)
(-0.0011046 -0.00628154 5.2387e-22)
(-0.00146424 -0.00512671 -1.68841e-21)
(-0.00145017 -0.00382878 4.32652e-22)
(-0.000845248 -0.00242246 8.91902e-22)
(0.000493655 -0.000989895 -3.68049e-21)
(0.00268576 0.000336253 -1.06724e-21)
(0.00537916 0.00128104 -1.08634e-20)
(0.00811253 0.00178533 1.06137e-20)
(0.0104839 0.00186056 -1.70035e-20)
(0.0123263 0.00170794 -1.58668e-21)
(0.0136502 0.00143387 9.75828e-21)
(0.0145458 0.0011438 1.14607e-21)
(0.0151298 0.000889995 9.47522e-21)
(0.0155062 0.000687629 -1.17795e-20)
(0.0157508 0.000534681 -7.70307e-21)
(0.0159128 0.000422648 0)
(0.0160219 0.00034201 -9.50765e-21)
(0.0160962 0.000285024 -8.29552e-21)
(0.0161465 0.000245964 -1.12918e-21)
(0.0161794 0.000220653 1.76812e-20)
(0.0161989 0.000206299 -9.9539e-21)
(0.0162071 0.00020205 1.05868e-21)
(0.0162045 0.00020605 -7.74827e-21)
(0.0161926 0.000216849 7.78052e-21)
(0.0161715 0.000233866 -7.26533e-21)
(0.0161378 0.000259087 6.30995e-21)
(0.0160895 0.000290095 -5.67058e-21)
(0.0160225 0.000328842 0)
(0.0159324 0.000372325 -1.19145e-22)
(0.0158095 0.00042112 -5.88286e-23)
(0.0156479 0.000466197 8.01103e-22)
(0.0154517 0.000490898 0)
(0.0152349 0.000469779 4.66129e-23)
(0.0150293 0.000372223 -4.70181e-22)
(0.0148759 0.000180198 2.20677e-22)
(0.0147999 -9.93976e-05 -3.03669e-21)
(0.0148038 -0.000433674 -3.2147e-21)
(0.0148638 -0.000775643 4.2918e-21)
(0.0149403 -0.00107663 2.31912e-22)
(0.0149933 -0.00130472 -5.22768e-21)
(0.0149803 -0.00145219 -6.07042e-21)
(0.0148822 -0.00153639 -3.82122e-22)
(0.0146818 -0.0015903 -6.21056e-21)
(0.0143738 -0.00165148 1.33331e-20)
(0.0139631 -0.00175504 0)
(0.0134567 -0.00192692 0)
(0.0128591 -0.00217908 0)
(0.0121698 -0.00250896 6.72131e-21)
(0.0113834 -0.00290321 4.12013e-22)
(0.0104933 -0.00334246 -2.0691e-22)
(0.0094985 -0.00380536 -3.56664e-22)
(0.00841361 -0.00427108 5.81178e-21)
(0.00726723 -0.00471633 5.81607e-21)
(0.00609186 -0.00510696 0)
(0.00491715 -0.00539293 0)
(0.0037826 -0.0055263 0)
(0.00271822 -0.00547268 0)
(0.00174992 -0.00519894 -8.67868e-22)
(0.000943808 -0.00470375 1.6681e-22)
(0.000366824 -0.00397785 0)
(0.00016009 -0.00304204 1.1376e-22)
(0.000468269 -0.00195535 0)
(0.00141385 -0.000789579 0)
(0.00314389 0.000351871 0)
(0.00548237 0.00123614 0)
(0.00800098 0.00174687 3.10903e-22)
(0.0102653 0.00187959 -9.21192e-21)
(0.0120873 0.00176019 -2.9072e-22)
(0.0134197 0.00151523 9.97562e-21)
(0.0143302 0.00124501 -1.06682e-20)
(0.0149371 0.00100077 1.07367e-20)
(0.0153403 0.000800509 0)
(0.015608 0.000645606 -1.02997e-20)
(0.0157873 0.000530133 9.07929e-21)
(0.0159095 0.000445635 -7.10915e-21)
(0.0159935 0.000385026 9.54814e-21)
(0.0160504 0.000342976 -5.38771e-22)
(0.0160873 0.000315872 -1.1933e-21)
(0.0161083 0.000301153 5.42778e-22)
(0.0161163 0.000296241 6.55563e-21)
(0.0161133 0.000299616 2.81328e-21)
(0.0161002 0.000309776 8.57357e-21)
(0.0160757 0.000327813 1.87633e-21)
(0.0160374 0.000352288 -8.79997e-21)
(0.015986 0.000380845 -1.30148e-20)
(0.0159152 0.000416619 -6.8959e-21)
(0.015821 0.00045498 1.3419e-21)
(0.015697 0.000495638 1.0534e-21)
(0.0155361 0.000530923 -7.31639e-22)
(0.0153403 0.00054493 2.84839e-22)
(0.0151213 0.000512932 4.86045e-23)
(0.0149065 0.000402875 4.99529e-23)
(0.0147363 0.000193034 0)
(0.0146391 -0.000111559 -2.25584e-21)
(0.0146171 -0.000476955 -1.97821e-21)
(0.014646 -0.000852666 0)
(0.0146853 -0.00118998 -2.82342e-21)
(0.0146886 -0.00145611 -5.39575e-21)
(0.0146169 -0.00164415 3.37524e-21)
(0.0144381 -0.0017724 -3.65701e-21)
(0.0141286 -0.00187292 -6.73546e-21)
(0.0136713 -0.00197926 6.89769e-21)
(0.01305 -0.00211239 5.6467e-21)
(0.0122667 -0.00227413 -6.89151e-21)
(0.0113376 -0.00243669 7.35823e-21)
(0.0102909 -0.00254095 -5.83083e-21)
(0.00913491 -0.00252317 -1.53234e-21)
(0.00804687 -0.00246331 8.3162e-21)
(0.00708571 -0.00244906 0)
(0.00613363 -0.00243187 -5.90262e-21)
(0.00521802 -0.00235135 -1.41517e-21)
(0.00443771 -0.00219597 -2.75775e-21)
(0.00384931 -0.00196901 2.59775e-21)
(0.00350245 -0.00168126 -1.10752e-21)
(0.00341526 -0.00137482 1.12187e-21)
(0.00348954 -0.00110868 0)
(0.00362376 -0.000884393 5.07618e-23)
(0.00378466 -0.000702856 6.5815e-22)
(0.00395241 -0.000563686 -7.48022e-22)
(0.00411184 -0.000458814 -5.65933e-22)
(0.00425561 -0.000378027 4.97834e-22)
(0.00438154 -0.00031339 -2.28199e-22)
(0.00448933 -0.000259565 2.2766e-22)
(0.00457927 -0.000212995 0)
(0.00465191 -0.000171256 -1.92708e-22)
(0.00470767 -0.00013256 1.69778e-22)
(0.0047467 -9.535e-05 -1.64625e-22)
(0.00476861 -5.79927e-05 1.45985e-22)
(0.00477233 -1.8573e-05 1.72312e-23)
(0.00475579 2.52797e-05 -1.64012e-23)
(0.00471568 7.65922e-05 0)
(0.00464662 0.000139303 0)
(0.00454119 0.00021845 -1.8767e-23)
(0.00438893 0.000320386 0)
(0.00417568 0.000453683 0)
(0.00388282 0.000630214 5.91379e-23)
(0.00348659 0.000868152 0)
(0.00295782 0.00119862 0)
(0.0022635 0.00167936 2.37042e-22)
(0.00137562 0.00241606 -1.25596e-22)
(0.000304056 0.00356465 0)
(-0.000789427 0.00516496 0)
(-0.00147116 0.00639468 -2.72186e-23)
(-0.000534644 0.00486439 -1.60832e-22)
(-0.000183088 -0.00174817 2.80045e-23)
(-0.000788148 -0.00300613 -2.47603e-23)
(-0.00108376 -0.0032226 -1.11076e-23)
(-0.00115186 -0.00303774 2.06889e-23)
(-0.00104584 -0.0027331 2.70293e-23)
(-0.000835388 -0.00241279 -1.87813e-23)
(-0.000561409 -0.00211772 0)
(-0.000257551 -0.00185894 3.53834e-23)
(5.46513e-05 -0.00163679 0)
(0.000362117 -0.00144763 2.94168e-22)
(0.0006576 -0.00128703 -2.38597e-22)
(0.000937514 -0.00115083 7.55584e-23)
(0.00120055 -0.0010354 3.56131e-22)
(0.00144682 -0.000937741 -2.62127e-22)
(0.00167724 -0.000855429 1.01784e-22)
(0.00189326 -0.000786581 0)
(0.0020966 -0.000729761 1.2308e-22)
(0.00228919 -0.000683934 -4.41243e-22)
(0.00247309 -0.000648419 1.82391e-21)
(0.00265049 -0.000622865 -1.2438e-21)
(0.00282374 -0.000607243 -1.29562e-21)
(0.00299534 -0.000601851 1.45784e-21)
(0.00316803 -0.000607342 0)
(0.00334481 -0.000624772 -2.23936e-22)
(0.00352904 -0.000655667 0)
(0.00372451 -0.000702131 2.56753e-22)