/*--------------------------------*- C++ -*----------------------------------*\
| =========                 |                                                 |
| \\      /  F ield         | OpenFOAM: The Open Source CFD Toolbox           |
|  \\    /   O peration     | Version:  2506                                  |
|   \\  /    A nd           | Website:  www.openfoam.com                      |
|    \\/     M anipulation  |                                                 |
\*---------------------------------------------------------------------------*/
FoamFile
{
    version     2.0;
    format      ascii;
    arch        "LSB;label=32;scalar=64";
    class       volVectorField;
    location    "4.3";
    object      U;
}
// * * * * * * * * * * * * * * * * * * * * * * * * * * * * * * * * * * * * * //

dimensions      [0 1 -1 0 0 0 0];

internalField   nonuniform List<vector> 
4000
(
(0.00816187 0.000799206 0)
(0.00705285 0.000968996 -4.56742e-22)
(0.00555875 0.000585131 4.73835e-22)
(0.00426922 0.00029684 9.07452e-22)
(0.0034708 0.000157777 -1.8349e-21)
(0.00297617 8.76686e-05 9.21716e-22)
(0.00264138 5.07297e-05 0)
(0.00240664 3.14705e-05 0)
(0.00223851 2.11847e-05 0)
(0.00211406 1.54109e-05 1.8172e-21)
(0.00201886 1.19218e-05 -1.8212e-21)
(0.00194412 9.69437e-06 3.61736e-21)
(0.00188409 8.23958e-06 -3.62221e-21)
(0.00183475 7.27749e-06 0)
(0.00179312 6.66506e-06 0)
(0.00175692 6.32303e-06 0)
(0.00172434 6.18807e-06 3.56819e-21)
(0.00169394 6.21164e-06 -3.57033e-21)
(0.00166459 6.35831e-06 0)
(0.00163541 6.59842e-06 0)
(0.00160569 6.90746e-06 0)
(0.00157488 7.2676e-06 0)
(0.00154249 7.66741e-06 0)
(0.00150813 8.10097e-06 7.0201e-21)
(0.00147136 8.56727e-06 -1.40339e-20)
(0.00143179 9.06996e-06 7.01411e-21)
(0.00138895 9.61805e-06 0)
(0.0013423 1.02288e-05 0)
(0.00129121 1.09347e-05 0)
(0.00123482 1.18083e-05 0)
(0.00117189 1.30505e-05 -6.99342e-21)
(0.0011008 1.51211e-05 7.00252e-21)
(0.00102069 1.77498e-05 0)
(0.000903073 2.6112e-05 6.15599e-21)
(0.000769307 5.55113e-05 7.08509e-21)
(0.000704432 0.000112315 -3.55259e-20)
(0.000719162 0.000190277 -2.86652e-20)
(0.000770296 0.000281117 7.21835e-21)
(0.000844436 0.000386923 -2.90095e-20)
(0.000946509 0.000514841 -6.53805e-20)
(0.00111766 0.000674143 7.28718e-21)
(0.00136768 0.000852368 5.74944e-20)
(0.00163141 0.00101319 -5.65334e-20)
(0.00187664 0.00114638 0)
(0.00210882 0.00125604 0)
(0.00232673 0.00134371 -3.22586e-21)
(0.00254308 0.00141218 -4.71604e-20)
(0.00274815 0.00145442 -4.59538e-20)
(0.00293692 0.001471 -2.66916e-20)
(0.00312069 0.00146205 -2.24702e-20)
(0.00328322 0.00142247 2.12552e-20)
(0.00343034 0.0013547 0)
(0.00354737 0.00125241 -2.34053e-21)
(0.00363382 0.00112116 3.87496e-20)
(0.0036804 0.000956753 0)
(0.00367414 0.000769822 -8.1502e-21)
(0.00362405 0.000568065 -1.90126e-21)
(0.00350687 0.000359006 -6.36952e-24)
(0.00335564 0.000158207 -8.47564e-23)
(0.00314314 -3.49342e-05 -9.06375e-22)
(0.00289194 -0.000199225 1.6266e-21)
(0.00262869 -0.00033379 0)
(0.00234786 -0.000435216 0)
(0.00207785 -0.000504189 3.17937e-21)
(0.00181427 -0.000543986 2.22933e-20)
(0.00157433 -0.000559402 3.21419e-21)
(0.00135617 -0.000555291 -3.2255e-21)
(0.00116229 -0.000537365 3.28883e-21)
(0.000994831 -0.000509925 9.93948e-21)
(0.000847527 -0.000476505 -2.34344e-20)
(0.000724018 -0.000440798 -3.3715e-21)
(0.000616557 -0.000403776 -7.09494e-23)
(0.000524986 -0.000367535 0)
(0.000449559 -0.000333299 0)
(0.000384738 -0.000301201 0)
(0.000331164 -0.000271928 -1.83719e-21)
(0.000287646 -0.00024573 -2.76771e-20)
(0.000251171 -0.00022213 0)
(0.000221131 -0.000200937 -9.85086e-23)
(0.000196698 -0.000181928 1.90615e-21)
(0.000175867 -0.000164516 -3.05109e-20)
(0.000157558 -0.000148213 2.77402e-20)
(0.000140955 -0.000132646 -7.8201e-24)
(0.000125157 -0.000117498 3.13625e-20)
(0.000109875 -0.000102719 2.89616e-22)
(9.47925e-05 -8.8298e-05 -3.06951e-20)
(7.95315e-05 -7.42548e-05 -3.11588e-20)
(6.46196e-05 -6.09407e-05 3.15549e-20)
(5.02805e-05 -4.8554e-05 -4.80075e-22)
(3.61548e-05 -3.71682e-05 -3.06994e-20)
(2.29109e-05 -2.70846e-05 0)
(1.08515e-05 -1.83618e-05 -3.13987e-20)
(-4.11689e-07 -1.10103e-05 -2.9352e-20)
(-1.03688e-05 -5.13351e-06 3.01054e-20)
(-1.89009e-05 -5.7417e-07 -1.68387e-20)
(-2.62787e-05 2.57989e-06 1.85661e-21)
(-3.19418e-05 4.63343e-06 1.47847e-20)
(-3.63258e-05 5.52285e-06 1.84057e-21)
(-3.88279e-05 5.60543e-06 1.28022e-20)
(-3.97133e-05 4.70388e-06 9.10571e-21)
(-3.86143e-05 3.33145e-06 -3.63325e-21)
(-3.58307e-05 1.71334e-06 9.06567e-21)
(-3.07102e-05 5.08862e-07 -9.06204e-22)
(-2.32057e-05 4.88103e-08 -9.08283e-22)
(-1.26265e-05 6.05522e-07 -3.65463e-21)
(1.1444e-06 2.88025e-06 0)
(1.87072e-05 7.10866e-06 0)
(4.06015e-05 1.41334e-05 -2.94087e-20)
(6.71517e-05 2.43728e-05 -9.42329e-22)
(9.91022e-05 3.85831e-05 1.56993e-20)
(0.000136938 5.73079e-05 1.53731e-20)
(0.000180905 8.12102e-05 4.85495e-22)
(0.000232037 0.000110739 -1.61564e-20)
(0.000289457 0.000146402 -1.30102e-23)
(0.000354443 0.000188463 0)
(0.000427358 0.000237241 3.20005e-20)
(0.00050613 0.000292183 -1.00288e-21)
(0.000592478 0.000353575 -3.01103e-20)
(0.000685294 0.00042065 -1.00921e-21)
(0.000782754 0.000492508 -3.21584e-20)
(0.00088592 0.00056883 -1.80174e-22)
(0.000993787 0.000648279 3.17719e-20)
(0.00110381 0.000729291 1.94833e-21)
(0.0012165 0.000811161 -3.48791e-20)
(0.00133157 0.000892539 1.92374e-21)
(0.00144718 0.000971743 2.98218e-20)
(0.00156333 0.00104767 3.5746e-21)
(0.00167923 0.00111889 -3.58446e-21)
(0.00179416 0.00118434 2.72345e-20)
(0.00191078 0.00124358 -2.2489e-20)
(0.0020271 0.00129432 -3.20085e-21)
(0.00214 0.00133542 -4.40039e-20)
(0.00225749 0.00136789 -2.88096e-21)
(0.00237594 0.00138814 -2.08455e-20)
(0.00248888 0.00139587 5.21282e-22)
(0.00261091 0.00139314 0)
(0.00273076 0.00137273 0)
(0.00284466 0.00133737 -2.3225e-22)
(0.00296122 0.00128381 0)
(0.00306724 0.00121033 -1.21289e-21)
(0.00316406 0.00111561 -3.02196e-21)
(0.00324253 0.000997998 -7.70368e-22)
(0.00329196 0.000858353 -1.21614e-21)
(0.0033133 0.000699329 -5.6574e-22)
(0.00328232 0.00052167 -7.443e-22)
(0.00321295 0.000340962 1.96951e-22)
(0.00308538 0.000155825 0)
(0.00290077 -1.08647e-05 0)
(0.00268658 -0.00015965 0)
(0.00242884 -0.000279461 2.58748e-22)
(0.00216191 -0.000367848 -2.59625e-22)
(0.00187834 -0.000424053 -1.05264e-21)
(0.00160246 -0.000448481 -9.19603e-22)
(0.00133931 -0.000446494 0)
(0.00109686 -0.000423553 4.86544e-22)
(0.000877817 -0.000384752 0)
(0.000683212 -0.000335962 -5.80357e-23)
(0.000515851 -0.000281666 4.9362e-22)
(0.000369762 -0.000224548 -2.28534e-22)
(0.000244672 -0.000160389 4.48387e-21)
(0.000195139 -0.000122204 -1.42421e-21)
(0.000221742 -0.000105865 -1.67248e-21)
(0.000251933 -9.60354e-05 0)
(0.000297551 -8.58926e-05 0)
(0.000368052 -7.39261e-05 0)
(0.000468369 -5.68325e-05 0)
(0.000614654 -4.00356e-05 0)
(0.000790179 -2.8848e-05 6.50161e-22)
(0.000941991 -2.32861e-05 -5.49529e-24)
(0.00106164 -1.94538e-05 -1.38868e-23)
(0.00115717 -1.58098e-05 -6.2938e-22)
(0.00123191 -1.23604e-05 0)
(0.00128891 -9.29763e-06 5.52815e-22)
(0.00133188 -6.74905e-06 -5.51698e-22)
(0.00136466 -4.77768e-06 1.5751e-23)
(0.00139081 -3.4012e-06 0)
(0.0014134 -2.59148e-06 0)
(0.0014348 -2.27294e-06 -4.13584e-22)
(0.0014566 -2.33166e-06 4.12849e-22)
(0.00147959 -2.63057e-06 0)
(0.0015038 -3.02584e-06 0)
(0.0015286 -3.38441e-06 -1.56628e-22)
(0.00155292 -3.60035e-06 8.39946e-24)
(0.00157549 -3.60528e-06 1.58292e-22)
(0.00159497 -3.37081e-06 0)
(0.00161023 -2.90598e-06 0)
(0.00162045 -2.24664e-06 0)
(0.00162517 -1.4788e-06 0)
(0.00162422 -6.67881e-07 6.65132e-24)
(0.00161802 2.53447e-07 0)
(0.00160731 1.1268e-06 0)
(0.00159282 1.89498e-06 0)
(0.00157552 2.53649e-06 2.89467e-23)
(0.00155643 3.03268e-06 -2.89152e-23)
(0.00153652 3.37931e-06 0)
(0.00151666 3.59262e-06 2.08937e-24)
(0.00149757 3.70325e-06 4.99632e-24)
(0.00147959 3.74473e-06 -3.48451e-24)
(0.0014614 4.23963e-06 -1.50459e-24)
(0.00144231 7.7904e-06 0)
(0.0101626 0.00148331 0)
(0.0105615 0.0023424 0)
(0.0101516 0.00199799 0)
(0.00927967 0.00150239 8.84358e-22)
(0.00836907 0.00106443 -1.79678e-21)
(0.00761288 0.000736225 9.10225e-22)
(0.00700306 0.000513131 0)
(0.00651662 0.000366653 1.82475e-21)
(0.00613306 0.000269713 -1.84285e-21)
(0.00583054 0.000204145 1.83672e-21)
(0.00558963 0.000158411 -1.8479e-21)
(0.00539553 0.000125733 -3.68005e-21)
(0.00523702 0.000102085 3.69442e-21)
(0.00510549 8.49013e-05 3.67648e-21)
(0.00499419 7.25957e-05 -1.38017e-23)
(0.0048977 6.41183e-05 -7.34797e-21)
(0.00481159 5.86552e-05 3.67446e-21)
(0.00473229 5.55626e-05 0)
(0.00465693 5.43399e-05 0)
(0.00458321 5.4592e-05 0)
(0.00450929 5.60165e-05 0)
(0.00443366 5.8402e-05 0)
(0.00435506 6.16206e-05 0)
(0.00427234 6.56164e-05 0)
(0.00418442 7.03938e-05 0)
(0.00409018 7.60098e-05 0)
(0.00398837 8.25706e-05 0)
(0.00387762 9.02436e-05 0)
(0.00375629 9.92922e-05 0)
(0.00362239 0.000110167 0)
(0.00347336 0.000123732 -7.29266e-21)
(0.0033059 0.000141761 7.60631e-26)
(0.00311926 0.000167482 1.46816e-20)
(0.00287834 0.000207115 -6.44815e-21)
(0.00261781 0.000279095 -7.43023e-21)
(0.002472 0.000404943 2.25019e-20)
(0.00247713 0.000591349 -3.03031e-20)
(0.00257848 0.000828076 -7.64053e-21)
(0.00275255 0.0011098 7.70065e-20)
(0.00300687 0.00143639 2.34323e-20)
(0.00339103 0.00180766 0)
(0.00389436 0.00219644 7.51958e-21)
(0.00442511 0.00255486 4.4288e-20)
(0.00494162 0.00286387 7.34686e-21)
(0.00544405 0.0031215 5.61381e-20)
(0.00593048 0.00332798 -5.44025e-20)
(0.00641265 0.00348444 7.84413e-22)
(0.00687589 0.00358143 0)
(0.00731622 0.00361775 -2.45815e-20)
(0.00774067 0.00359128 0)
(0.00812933 0.00349661 -2.36948e-22)
(0.00848404 0.00333569 0)
(0.00878125 0.0030993 -2.0031e-20)
(0.00901785 0.00279831 -1.90802e-20)
(0.00917424 0.0024289 0)
(0.00923656 0.0020085 -5.65442e-23)
(0.00920443 0.00155071 8.11933e-21)
(0.00904692 0.00106946 1.84936e-21)
(0.00880004 0.000593811 3.67946e-21)
(0.00842634 0.000129185 -9.29186e-22)
(0.00796038 -0.000290849 0)
(0.00743064 -0.000655546 7.04086e-21)
(0.00684577 -0.000953932 -3.5351e-21)
(0.00624788 -0.00118223 -6.91284e-21)
(0.00564005 -0.00134237 -2.08295e-20)
(0.00505867 -0.00144116 -3.49287e-21)
(0.00450623 -0.00148576 1.77203e-20)
(0.00399774 -0.0014882 -3.57703e-21)
(0.00353772 -0.00145737 0)
(0.00312323 -0.00140284 3.75037e-21)
(0.00275988 -0.00133366 -3.74994e-21)
(0.00243738 -0.00125401 -1.18913e-22)
(0.0021545 -0.00117082 0)
(0.00191081 -0.00108732 -3.16183e-20)
(0.00169752 -0.00100552 -3.20402e-20)
(0.00151332 -0.000928058 2.04822e-21)
(0.00135584 -0.000855638 -2.039e-21)
(0.00121925 -0.000788022 2.08885e-21)
(0.00110098 -0.000725228 -3.35458e-20)
(0.000998985 -0.000666629 3.15116e-20)
(0.000909412 -0.000611074 -3.3779e-20)
(0.000829412 -0.000557693 -3.51194e-20)
(0.000756871 -0.000505704 2.12658e-21)
(0.000689586 -0.000454578 -3.50648e-20)
(0.000626419 -0.000404363 3.38133e-20)
(0.000566377 -0.000355192 -3.36592e-20)
(0.000508325 -0.000307467 3.38287e-20)
(0.000452988 -0.000262202 -3.37513e-20)
(0.000400833 -0.000219918 -1.05066e-21)
(0.000351121 -0.000181076 1.0407e-21)
(0.000305135 -0.000146501 0)
(0.000263557 -0.000116251 0)
(0.00022563 -9.03695e-05 1.63383e-20)
(0.000192442 -6.91351e-05 -1.82571e-20)
(0.000163991 -5.19837e-05 1.61024e-20)
(0.00014014 -3.91138e-05 3.99019e-21)
(0.000121628 -2.97197e-05 -1.11773e-23)
(0.000107992 -2.38219e-05 5.83038e-24)
(9.99456e-05 -2.04658e-05 -3.51756e-20)
(9.75639e-05 -1.97072e-05 -5.83385e-21)
(0.000102013 -2.02371e-05 7.7384e-21)
(0.00011327 -2.15743e-05 -7.71945e-21)
(0.000132814 -2.22349e-05 0)
(0.000160425 -2.10634e-05 -9.67119e-22)
(0.000198042 -1.70185e-05 9.67845e-22)
(0.000246 -8.15632e-06 0)
(0.000305627 6.56432e-06 0)
(0.000378179 2.93436e-05 1.5829e-20)
(0.000464027 6.16077e-05 -1.59766e-20)
(0.000564515 0.00010526 1.66343e-20)
(0.000680149 0.000161894 -3.25775e-20)
(0.000811147 0.000233053 7.78824e-25)
(0.000958562 0.000319919 -5.18151e-22)
(0.00112072 0.000423554 -1.67272e-20)
(0.00129906 0.000544233 0)
(0.00149297 0.000682405 0)
(0.00169931 0.000837063 0)
(0.00191957 0.0010076 3.5141e-20)
(0.00215131 0.00119237 3.27368e-20)
(0.00239188 0.00138909 0)
(0.00264197 0.00159567 -3.79908e-20)
(0.00289936 0.00180905 6.25799e-21)
(0.0031608 0.0020257 -4.11103e-21)
(0.0034267 0.0022427 2.04529e-21)
(0.0036962 0.0024565 -3.91989e-21)
(0.00396708 0.00266331 3.08131e-20)
(0.00423925 0.00285984 -2.59949e-20)
(0.00451176 0.00304263 3.24362e-20)
(0.00478448 0.00320872 -1.54226e-22)
(0.00506049 0.00335574 2.4067e-20)
(0.00533674 0.00347952 0)
(0.00561113 0.00357774 2.48902e-20)
(0.005893 0.00364957 -2.75289e-21)
(0.00617686 0.00368969 -1.80853e-20)
(0.00645797 0.00369695 2.01838e-20)
(0.00675028 0.00367139 -2.12106e-21)
(0.0070381 0.00360329 2.12982e-21)
(0.00731919 0.00349559 -2.06922e-21)
(0.00759614 0.00334165 1.67241e-21)
(0.00785367 0.00314039 -1.20351e-21)
(0.00808663 0.00288922 5.74428e-21)
(0.00827945 0.00258767 -4.19246e-21)
(0.00841429 0.00223829 3.48917e-21)
(0.00848476 0.00184889 0)
(0.00845832 0.00142386 3.83053e-22)
(0.00834996 0.000988674 -4.73973e-23)
(0.00812359 0.000547554 -7.26044e-24)
(0.00778679 0.000134262 0)
(0.00736414 -0.000241422 1.56392e-22)
(0.00684636 -0.000560762 -4.10959e-22)
(0.0062809 -0.000814182 0)
(0.00566088 -0.00099662 9.07439e-22)
(0.00503145 -0.00110773 1.9979e-22)
(0.00440126 -0.00115249 -2.01187e-22)
(0.00379804 -0.00114173 0)
(0.003227 -0.00108388 -1.5046e-22)
(0.00270106 -0.000992907 -1.2775e-22)
(0.00222634 -0.000878478 4.86487e-22)
(0.00180668 -0.000752945 0)
(0.00143375 -0.000613301 -2.36366e-21)
(0.00123055 -0.000528464 -1.95941e-21)
(0.00121394 -0.000479279 4.10376e-21)
(0.001259 -0.000442353 -5.54226e-22)
(0.00135803 -0.000410442 5.47094e-22)
(0.00152627 -0.000378482 6.46673e-22)
(0.00176634 -0.000338182 6.94757e-22)
(0.00209209 -0.000295908 -5.84309e-22)
(0.00245947 -0.000251786 -4.29977e-23)
(0.00278624 -0.000207871 0)
(0.00305566 -0.000167476 4.1755e-23)
(0.00327695 -0.000131675 0)
(0.00345627 -0.000100882 -3.87264e-23)
(0.00359989 -7.58095e-05 -5.78172e-22)
(0.0037154 -5.68465e-05 6.10777e-22)
(0.00381066 -4.38076e-05 -4.94002e-23)
(0.0038929 -3.60369e-05 4.83098e-22)
(0.00396808 -3.25405e-05 -9.07092e-22)
(0.00404062 -3.20955e-05 8.81602e-22)
(0.00411319 -3.33734e-05 -4.52799e-22)
(0.0041867 -3.50773e-05 0)
(0.00426051 -3.60705e-05 2.04948e-22)
(0.00433271 -3.54876e-05 -1.92339e-22)
(0.00440061 -3.28093e-05 -2.08423e-23)
(0.00446119 -2.78842e-05 -1.54653e-22)
(0.00451157 -2.0895e-05 1.35544e-22)
(0.0045494 -1.22893e-05 1.36061e-22)
(0.00457314 -2.69546e-06 -1.52128e-22)
(0.00458216 7.17111e-06 1.30987e-22)
(0.00457682 1.66419e-05 -2.27726e-22)
(0.00455843 2.5334e-05 1.39576e-22)
(0.00452888 3.26247e-05 -4.7007e-23)
(0.00449057 3.82186e-05 -9.71909e-24)
(0.00444611 4.20053e-05 0)
(0.00439815 4.40049e-05 1.8141e-23)
(0.00434917 4.43627e-05 -2.50934e-23)
(0.00430133 4.3345e-05 1.01615e-24)
(0.00425636 4.13433e-05 -7.59048e-24)
(0.00421539 3.8925e-05 0)
(0.00417777 3.71304e-05 0)
(0.00414259 3.90282e-05 -2.62318e-25)
(0.0101548 0.000930656 0)
(0.0107181 0.0018789 -4.42538e-22)
(0.0111803 0.00207992 4.38701e-22)
(0.0111189 0.00193067 8.49732e-22)
(0.0108358 0.00164984 -8.58013e-22)
(0.0104124 0.00133657 0)
(0.0099536 0.00105569 0)
(0.00951531 0.000826233 0)
(0.00912191 0.0006482 -1.72155e-21)
(0.00878096 0.000512999 3.46482e-21)
(0.00849019 0.000410289 1.72331e-21)
(0.00824381 0.000332377 -3.48623e-21)
(0.00803483 0.000273385 -3.47349e-21)
(0.00785644 0.000228863 3.48894e-21)
(0.00770255 0.000195833 0)
(0.00756762 0.000172143 -3.47246e-21)
(0.00744672 0.000156002 6.95165e-21)
(0.00733564 0.000145943 -3.47804e-21)
(0.00723081 0.000140781 0)
(0.0071292 0.000139546 0)
(0.00702827 0.000141476 0)
(0.00692589 0.000146021 0)
(0.00682021 0.000152832 0)
(0.00670956 0.000161737 -6.89557e-21)
(0.00659236 0.000172723 6.90969e-21)
(0.00646697 0.000185912 0)
(0.00633164 0.000201546 0)
(0.00618444 0.000219997 0)
(0.00602314 0.000241814 0)
(0.00584512 0.000267833 0)
(0.00564729 0.00029943 -6.95138e-21)
(0.00542577 0.000339043 6.97588e-21)
(0.00518115 0.000391014 0)
(0.004882 0.000460323 4.39071e-22)
(0.00456346 0.000564773 0)
(0.00436566 0.000733389 -1.43913e-20)
(0.00434436 0.00098057 2.91174e-20)
(0.00445934 0.00129936 0)
(0.00468807 0.00167963 -5.86234e-20)
(0.00503383 0.00211171 2.07658e-22)
(0.00553227 0.00258316 -7.18607e-21)
(0.00615418 0.00306002 7.17101e-21)
(0.00681191 0.00350198 -5.59474e-20)
(0.00746693 0.00389102 0)
(0.00811366 0.00422033 -5.94534e-20)
(0.00874839 0.00448677 5.46224e-20)
(0.00937767 0.00468791 5.25858e-20)
(0.00998639 0.00481498 0)
(0.0105724 0.00486384 2.25912e-20)
(0.011137 0.00483186 0)
(0.0116622 0.00471479 -4.14534e-20)
(0.0121456 0.0045125 0)
(0.0125652 0.0042172 1.65011e-20)
(0.0129164 0.00384053 2.02997e-20)
(0.0131768 0.00338107 1.71912e-20)
(0.013333 0.00285525 8.05974e-21)
(0.0133783 0.00227504 7.82772e-21)
(0.0132834 0.00165477 3.65914e-21)
(0.0130736 0.0010254 -1.82252e-21)
(0.0127113 0.000396988 -2.60103e-21)
(0.0122255 -0.000195521 0)
(0.0116341 -0.000734578 -6.52821e-21)
(0.0109498 -0.00120331 6.4703e-21)
(0.0102137 -0.00159044 0)
(0.00943388 -0.00189272 2.62072e-20)
(0.00865498 -0.00211228 0)
(0.00788489 -0.00225357 3.35681e-21)
(0.00715036 -0.00232837 -3.38007e-21)
(0.00646099 -0.00234622 0)
(0.00582195 -0.00231952 3.54707e-21)
(0.00524337 -0.00226027 -3.5606e-21)
(0.00471752 -0.00217563 -4.02019e-20)
(0.0042456 -0.00207641 2.60605e-20)
(0.0038274 -0.00196809 1.03357e-22)
(0.00345428 -0.00185516 3.08512e-20)
(0.00312442 -0.00174243 1.96751e-21)
(0.00283485 -0.00163174 -3.3559e-20)
(0.00257869 -0.00152385 0)
(0.00235234 -0.00141962 -3.23099e-20)
(0.00215295 -0.00131871 -6.32862e-20)
(0.00197564 -0.00122011 6.27265e-20)
(0.00181639 -0.00112317 3.40491e-20)
(0.00167201 -0.0010273 -3.41958e-20)
(0.00153909 -0.000932276 3.4359e-20)
(0.00141561 -0.000838619 0)
(0.00129968 -0.000746891 3.33157e-20)
(0.00118925 -0.000658082 2.09076e-22)
(0.00108494 -0.000573956 6.69978e-20)
(0.000987126 -0.000495399 3.09263e-20)
(0.000894713 -0.000423271 3.38706e-20)
(0.000809542 -0.000358808 0)
(0.000732572 -0.000302021 0)
(0.000662856 -0.000252858 -1.61523e-20)
(0.000602163 -0.000211613 0)
(0.000550261 -0.000177251 -1.99354e-21)
(0.000507409 -0.000149943 1.97208e-21)
(0.000474261 -0.000128382 -1.57074e-20)
(0.000450626 -0.000112477 1.55827e-20)
(0.0004372 -0.000100737 1.35699e-20)
(0.000434686 -9.29654e-05 1.92425e-21)
(0.000444318 -8.71894e-05 -7.68065e-21)
(0.000466216 -8.27461e-05 3.82826e-21)
(0.000502768 -7.76872e-05 -2.86859e-21)
(0.00055368 -7.01373e-05 9.54978e-22)
(0.00062192 -5.83373e-05 0)
(0.000707689 -3.93239e-05 7.70006e-21)
(0.000812663 -1.12627e-05 0)
(0.000938171 2.89895e-05 1.55855e-20)
(0.00108421 8.36816e-05 3.3579e-24)
(0.00125201 0.000155408 -1.53217e-20)
(0.00144155 0.000246389 1.59336e-20)
(0.00165244 0.000358576 -5.00688e-22)
(0.00188521 0.000493364 0)
(0.0021372 0.000651882 1.61767e-20)
(0.00240947 0.000834185 -1.62303e-20)
(0.0027003 0.00104029 0)
(0.00300609 0.00126885 1.01469e-21)
(0.0033276 0.00151828 -3.33873e-20)
(0.00366179 0.00178614 -3.04686e-20)
(0.00400585 0.00206924 2.99258e-20)
(0.00435992 0.00236418 -3.16091e-20)
(0.00472151 0.00266671 -1.94556e-21)
(0.00508768 0.00297228 2.87937e-20)
(0.00545865 0.00327647 3.83487e-21)
(0.00583336 0.00357432 3.3009e-20)
(0.00621004 0.00386095 -6.49978e-20)
(0.00658858 0.00413166 3.19345e-20)
(0.00696833 0.00438175 -2.41116e-20)
(0.00734943 0.00460706 1.91155e-20)
(0.00773419 0.00480377 3.06318e-20)
(0.0081202 0.00496669 1.73052e-20)
(0.0085063 0.00509318 2.86477e-21)
(0.0088994 0.00518063 1.79623e-20)
(0.00929449 0.00522277 2.2222e-20)
(0.00968858 0.00521845 -2.11774e-21)
(0.0100907 0.0051653 2.12376e-21)
(0.010486 0.00505467 5.45296e-21)
(0.0108731 0.0048887 1.49927e-21)
(0.0112489 0.00466089 -1.29553e-21)
(0.0115999 0.00437099 1.29961e-21)
(0.0119172 0.00401764 -3.99171e-21)
(0.0121842 0.00360196 6.82812e-22)
(0.0123827 0.00312856 -1.79262e-22)
(0.0125029 0.00260696 -5.31703e-22)
(0.0125133 0.00204586 -1.19474e-21)
(0.0124237 0.00146752 0)
(0.0121969 0.000880443 4.14766e-23)
(0.0118397 0.000316938 7.46552e-24)
(0.0113659 -0.000207224 -1.45841e-22)
(0.0107671 -0.000670801 5.55953e-22)
(0.0100863 -0.0010586 1.20306e-22)
(0.00931488 -0.00136112 -8.45718e-22)
(0.0085031 -0.00157405 -7.15355e-22)
(0.00765819 -0.00169814 2.62116e-22)
(0.00681953 -0.00174291 -3.83808e-22)
(0.00599497 -0.0017157 1.41616e-22)
(0.00520896 -0.00163265 -8.09321e-23)
(0.00447213 -0.00150558 -5.38207e-22)
(0.00380748 -0.00135522 1.59206e-22)
(0.00319973 -0.00117912 -1.09499e-21)
(0.00282232 -0.00106217 1.48391e-21)
(0.00270459 -0.000981435 -1.29744e-21)
(0.00271003 -0.000913596 -4.66507e-22)
(0.00281054 -0.000852361 -1.10041e-21)
(0.0030193 -0.000793585 0)
(0.00332925 -0.000725719 -1.27546e-21)
(0.0037441 -0.000653601 1.20809e-21)
(0.00420126 -0.000572252 4.65319e-23)
(0.0046139 -0.000484364 -4.9212e-24)
(0.00496387 -0.000398895 -5.28602e-23)
(0.00525896 -0.000321148 -6.23064e-22)
(0.0055051 -0.000253828 3.70503e-23)
(0.0057088 -0.000198923 0)
(0.00587849 -0.000157365 -3.32675e-23)
(0.00602322 -0.000128753 3.13144e-23)
(0.00615138 -0.000111566 5.1144e-22)
(0.00627001 -0.000103471 -4.79421e-22)
(0.00638428 -0.000101623 -4.01488e-22)
(0.00649729 -0.00010298 4.24287e-22)
(0.00661001 -0.000104621 0)
(0.00672147 -0.000104034 -2.19676e-23)
(0.00682916 -9.93538e-05 0)
(0.00692954 -8.95228e-05 -1.33839e-22)
(0.00701867 -7.43283e-05 7.57518e-24)
(0.00709275 -5.43215e-05 1.62823e-22)
(0.00714865 -3.06556e-05 3.30847e-23)
(0.00718425 -4.88719e-06 1.55392e-23)
(0.0071987 2.125e-05 -1.43667e-23)
(0.00719256 4.60889e-05 0)
(0.0071675 6.82716e-05 1.18618e-23)
(0.00712618 8.66181e-05 3.97619e-23)
(0.00707208 0.000100448 -3.04786e-23)
(0.00700899 0.000109502 -2.92885e-23)
(0.00694075 0.00011388 3.58923e-23)
(0.00687095 0.000114002 0)
(0.00680276 0.000110552 5.33576e-24)
(0.00673876 0.000104426 7.34735e-24)
(0.0066808 9.67189e-05 1.58245e-24)
(0.00662933 8.87316e-05 -1.58103e-24)
(0.00658118 8.40738e-05 2.48671e-25)
(0.0100749 0.000516127 0)
(0.0104761 0.00128164 0)
(0.011015 0.001678 0)
(0.0113791 0.0017925 8.47151e-22)
(0.0115711 0.00172802 -8.45892e-22)
(0.011543 0.00156519 0)
(0.0114253 0.00136063 0)
(0.011231 0.0011524 0)
(0.0110009 0.000964251 0)
(0.0107661 0.000802541 0)
(0.010541 0.000667005 0)
(0.0103328 0.000556855 -3.32967e-21)
(0.0101434 0.000468767 3.347e-21)
(0.00997274 0.000399079 -3.33264e-21)
(0.00981931 0.000345298 6.67803e-21)
(0.00968052 0.000305236 -3.34362e-21)
(0.00955342 0.000276761 -3.32853e-21)
(0.00943508 0.000258019 3.33719e-21)
(0.00932269 0.000247416 0)
(0.00921355 0.000243555 0)
(0.00910522 0.000245281 6.63039e-21)
(0.00899546 0.000251716 -6.64311e-21)
(0.00888225 0.000262271 0)
(0.00876372 0.000276634 -6.6148e-21)
(0.00863802 0.000294752 6.62783e-21)
(0.00850331 0.000316799 0)
(0.0083576 0.000343152 0)
(0.00819871 0.000374393 6.62031e-21)
(0.00802423 0.000411343 -8.16919e-24)
(0.00783139 0.000455164 -6.64668e-21)
(0.00761713 0.000507567 -6.6562e-21)
(0.00737764 0.000571212 1.33531e-20)
(0.00711436 0.000650551 -6.69818e-21)
(0.00680068 0.000748379 6.29825e-21)
(0.00646802 0.00088023 -6.77403e-21)
(0.00624609 0.00107579 -6.88636e-21)
(0.00619928 0.0013513 6.98549e-21)
(0.0063057 0.00170345 2.09221e-20)
(0.0065487 0.00212133 3.50482e-20)
(0.00692715 0.00258912 7.13002e-21)
(0.00746175 0.0030873 -6.89863e-21)
(0.00811385 0.00358236 -6.01675e-20)
(0.00880682 0.00404349 5.88876e-20)
(0.00950682 0.00445505 5.72217e-20)
(0.0102052 0.00480747 -1.24292e-20)
(0.0108971 0.00509438 9.08053e-21)
(0.0115847 0.00531047 -2.61351e-20)
(0.012254 0.00545065 0)
(0.0129034 0.00550385 -2.42656e-20)
(0.0135322 0.00546857 2.64066e-21)
(0.0141239 0.00534318 1.98161e-20)
(0.0146734 0.00512607 2.31594e-21)
(0.0151637 0.00481233 -2.27939e-20)
(0.0155893 0.00441071 -1.50374e-20)
(0.0159309 0.00392186 -1.64983e-20)
(0.0161759 0.00335943 -8.05057e-21)
(0.0163143 0.00273484 -1.63805e-21)
(0.0163217 0.00206072 1.85304e-21)
(0.0162121 0.00136466 1.72091e-21)
(0.015952 0.000657093 2.52142e-21)
(0.0155601 -3.02845e-05 1.68635e-21)
(0.0150429 -0.000678669 0)
(0.0144092 -0.00126837 6.45178e-21)
(0.0136909 -0.00178297 0)
(0.0128949 -0.00221494 -2.20074e-20)
(0.0120648 -0.00255904 -1.27774e-20)
(0.0112105 -0.00281556 -3.17664e-21)
(0.0103648 -0.00299083 0)
(0.0095417 -0.0030924 0)
(0.00875435 -0.0031312 -1.33902e-20)
(0.00801862 -0.00311935 0)
(0.00733174 -0.00306541 3.11984e-20)
(0.00670017 -0.00298181 -3.1753e-20)
(0.00612562 -0.00287618 3.06096e-20)
(0.00560211 -0.00275505 2.82181e-23)
(0.00512922 -0.00262522 2.83694e-23)
(0.00470453 -0.00249024 2.65288e-20)
(0.00432164 -0.00235226 3.83431e-21)
(0.00397713 -0.00221343 2.92067e-20)
(0.00366814 -0.00207443 3.14779e-20)
(0.00338969 -0.00193491 -1.13772e-22)
(0.0031375 -0.00179487 -3.09984e-20)
(0.00290794 -0.00165425 3.11823e-20)
(0.00269695 -0.00151339 0)
(0.00250188 -0.00137348 5.07231e-22)
(0.00231999 -0.00123571 3.18516e-20)
(0.00214823 -0.0011018 -6.44965e-20)
(0.00198688 -0.000974412 -9.72407e-20)
(0.00183587 -0.000855027 -3.32695e-20)
(0.00169367 -0.00074506 9.73031e-22)
(0.00156255 -0.000646228 0)
(0.00144372 -0.000558664 9.96952e-22)
(0.00133623 -0.00048223 -9.884e-22)
(0.0012427 -0.000417214 0)
(0.00116276 -0.000362121 1.56473e-20)
(0.00109737 -0.000316979 -1.9469e-21)
(0.00104702 -0.000279961 1.9299e-21)
(0.001012 -0.000250776 -1.54135e-23)
(0.000992747 -0.000227436 1.52846e-20)
(0.000990655 -0.000209622 -1.90404e-21)
(0.00100687 -0.000194792 3.78622e-21)
(0.00104174 -0.000181825 -1.88334e-21)
(0.00109804 -0.00016816 9.81567e-25)
(0.00117515 -0.000151261 -9.42618e-22)
(0.00127667 -0.000128769 9.40966e-22)
(0.00140214 -9.6896e-05 -7.55859e-21)
(0.00155319 -5.31668e-05 -8.06107e-21)
(0.00173057 6.201e-06 -1.47687e-20)
(0.00193347 8.40157e-05 3.06379e-20)
(0.00216241 0.000183181 -1.49082e-20)
(0.00241645 0.000306157 -4.83162e-22)
(0.00269419 0.000454903 -4.8555e-22)
(0.00299541 0.000630686 4.87188e-22)
(0.00331632 0.00083432 -1.56406e-20)
(0.00365752 0.0010655 1.04589e-21)
(0.00401635 0.00132356 -4.3133e-24)
(0.004389 0.00160677 1.35678e-20)
(0.0047757 0.0019127 4.75326e-20)
(0.00517334 0.00223823 -3.06142e-20)
(0.00557931 0.00257956 -3.0676e-20)
(0.00599366 0.00293243 3.2207e-20)
(0.0064142 0.00329194 2.75691e-20)
(0.00683869 0.00365295 -2.76168e-20)
(0.00726747 0.00401019 -3.18249e-20)
(0.0076998 0.00435801 -2.63875e-20)
(0.00813462 0.00469094 3.96634e-21)
(0.00857203 0.00500351 -3.33384e-21)
(0.00901182 0.00529032 0)
(0.00945434 0.00554643 -2.74987e-20)
(0.00990132 0.00576707 -2.32763e-20)
(0.0103512 0.00594682 -1.9415e-20)
(0.0108028 0.00608233 0)
(0.0112612 0.0061695 -2.19328e-20)
(0.0117221 0.00620234 2.32916e-21)
(0.0121829 0.00617972 -6.18282e-21)
(0.012648 0.00609798 -1.97162e-21)
(0.0131053 0.00595036 -1.31325e-22)
(0.0135527 0.00573833 -7.50016e-21)
(0.0139845 0.00545715 1.41532e-21)
(0.0143888 0.00510733 -5.64983e-21)
(0.0147561 0.00468937 8.7969e-21)
(0.015071 0.00420589 6.38861e-21)
(0.0153177 0.0036629 2.6703e-21)
(0.0154856 0.00307018 0)
(0.0155485 0.00243741 -4.49676e-22)
(0.0155102 0.00178472 7.17565e-24)
(0.0153391 0.00112188 3.7866e-23)
(0.0150381 0.000477023 -8.01206e-23)
(0.0146124 -0.000132859 2.01574e-24)
(0.0140515 -0.000687869 5.89026e-23)
(0.0133881 -0.00117006 -2.77857e-22)
(0.01261 -0.00156831 0)
(0.0117619 -0.00187331 6.27676e-22)
(0.0108462 -0.00208261 -1.65925e-22)
(0.0099046 -0.00220025 2.99305e-22)
(0.00894449 -0.00223131 2.57998e-23)
(0.00799723 -0.00218895 3.56437e-22)
(0.00707615 -0.00208466 -8.88973e-23)
(0.00622549 -0.00194339 0)
(0.00542548 -0.00176411 1.34398e-21)
(0.00488528 -0.00163036 7.96115e-23)
(0.00463913 -0.00152821 6.56115e-23)
(0.00456343 -0.00143463 6.04382e-23)
(0.00461797 -0.00134426 1.11256e-21)
(0.00481319 -0.00125598 4.43936e-23)
(0.00513145 -0.00115788 1.42441e-23)
(0.0055664 -0.00105244 -6.18761e-22)
(0.00604344 -0.000932415 5.36136e-22)
(0.0064776 -0.000800767 6.07414e-22)
(0.00685233 -0.000669855 6.17961e-23)
(0.00717504 -0.000548813 -5.88364e-22)
(0.00745069 -0.000443022 6.86191e-23)
(0.00768452 -0.000356065 5.13682e-22)
(0.00788392 -0.000289657 -5.11481e-22)
(0.00805724 -0.000243392 -5.76841e-23)
(0.00821248 -0.000215011 -5.542e-23)
(0.00835649 -0.000200872 0)
(0.00849452 -0.000196443 3.76621e-22)
(0.00862979 -0.000196841 -3.74874e-22)
(0.00876345 -0.00019735 0)
(0.00889466 -0.000193894 -4.04193e-23)
(0.00902094 -0.000183428 0)
(0.00913862 -0.000164211 3.66751e-23)
(0.00924348 -0.000135883 1.37619e-22)
(0.00933135 -9.9346e-05 -1.37213e-22)
(0.00939862 -5.65105e-05 -3.16827e-23)
(0.00944269 -1.00023e-05 2.9318e-23)
(0.00946229 3.71987e-05 0)
(0.00945768 8.21477e-05 -9.59898e-23)
(0.00943049 0.000122238 9.5824e-23)
(0.00938354 0.000155524 2.02236e-23)
(0.00932069 0.000180735 3.3139e-23)
(0.00924631 0.000197328 -3.31022e-23)
(0.00916491 0.000205441 2.32921e-23)
(0.00908083 0.000205797 -2.32786e-23)
(0.00899796 0.000199579 -8.1349e-24)
(0.00891955 0.000188302 -4.97456e-24)
(0.00884795 0.000173708 3.46186e-24)
(0.00878475 0.0001574 3.57085e-24)
(0.00872283 0.000142848 0)
(0.0100413 0.000317191 0)
(0.0102866 0.000873642 0)
(0.0107151 0.00124758 0)
(0.0111427 0.00144224 8.55707e-22)
(0.0114794 0.00150264 -8.49944e-22)
(0.0117075 0.00146787 0)
(0.0118553 0.00136755 1.65007e-21)
(0.0119002 0.00123538 -1.65258e-21)
(0.0118815 0.00109468 -1.63437e-21)
(0.011823 0.000956028 3.27055e-21)
(0.0117345 0.000827239 -1.63667e-21)
(0.0116317 0.000715104 0)
(0.0115226 0.000619689 0)
(0.0114125 0.000539974 3.24384e-21)
(0.0113049 0.000475936 -1.37767e-23)
(0.0112008 0.00042648 -6.48566e-21)
(0.0111004 0.000390029 3.24442e-21)
(0.0110032 0.000365165 0)
(0.0109082 0.000350527 0)
(0.010814 0.000344744 3.2179e-21)
(0.010719 0.000346603 -3.22325e-21)
(0.0106216 0.000355121 0)
(0.0105199 0.0003696 0)
(0.0104123 0.000389656 -6.40189e-21)
(0.0102971 0.000415218 1.28081e-20)
(0.0101725 0.000446511 -6.40652e-21)
(0.0100364 0.000484033 -6.39067e-21)
(0.00988689 0.000528539 1.08774e-23)
(0.00972154 0.000581066 1.27976e-20)
(0.00953781 0.000642995 -6.40731e-21)
(0.00933299 0.000716203 -6.40847e-21)
(0.0091037 0.000803286 3.80594e-24)
(0.00885166 0.000908343 6.4354e-21)
(0.00855496 0.00103259 6.44125e-21)