/*--------------------------------*- C++ -*----------------------------------*\
| =========                 |                                                 |
| \\      /  F ield         | OpenFOAM: The Open Source CFD Toolbox           |
|  \\    /   O peration     | Version:  2506                                  |
|   \\  /    A nd           | Website:  www.openfoam.com                      |
|    \\/     M anipulation  |                                                 |
\*---------------------------------------------------------------------------*/
FoamFile
{
    version     2.0;
    format      ascii;
    arch        "LSB;label=32;scalar=64";
    class       volVectorField;
    location    "4.3";
    object      vorticityField;
}
// * * * * * * * * * * * * * * * * * * * * * * * * * * * * * * * * * * * * * //

dimensions      [0 0 -1 0 0 0 0];

internalField   nonuniform List<vector> 
4000
(
(-2.51844e-21 8.5364e-19 -33.3793)
(-1.05926e-18 3.32994e-19 -35.6386)
(1.11876e-18 -3.76822e-18 -32.6613)
(3.62321e-18 2.81923e-18 -27.8719)
(-7.39333e-18 2.71494e-18 -24.0496)
(3.76192e-18 -4.67524e-18 -21.3613)
(-3.04937e-20 1.72266e-18 -19.3803)
(3.64615e-18 -0 -17.891)
(-3.59213e-18 -3.3963e-18 -16.7647)
(7.21794e-18 1.80642e-18 -15.8999)
(-7.22951e-18 -1.76711e-18 -15.2225)
(-2.27304e-19 4.06887e-19 -14.682)
(-1.22257e-19 9.71993e-18 -14.2435)
(7.60585e-18 -6.76982e-18 -13.8808)
(-2.7578e-20 -0 -13.5742)
(-1.43676e-17 -6.66886e-18 -13.3082)
(1.416e-17 4.03056e-18 -13.0702)
(-7.49127e-18 9.31115e-18 -12.8501)
(3.54358e-19 -6.67285e-18 -12.64)
(0 -0 -12.4335)
(0 -0 -12.2254)
(0 -0 -12.0116)
(8.90292e-19 -1.31204e-17 -11.7886)
(1.22217e-17 2.16227e-17 -11.5533)
(-2.81087e-17 9.10565e-18 -11.3026)
(1.60029e-17 -3.07172e-17 -11.0334)
(-1.00556e-18 1.31092e-17 -10.7423)
(0 -0 -10.4253)
(0 -0 -10.0777)
(-1.15684e-18 1.30705e-17 -9.69345)
(-2.74182e-17 -9.57399e-18 -9.26397)
(1.5257e-17 -1.65841e-17 -8.78036)
(2.92213e-17 1.57809e-18 -8.22558)
(8.48124e-19 -1.51046e-17 -7.44771)
(-8.26623e-18 7.57448e-17 -6.58019)
(-3.38612e-17 6.86298e-17 -6.18615)
(-1.08112e-16 -1.13089e-16 -6.43276)
(-3.33402e-19 -8.16841e-19 -7.11985)
(7.02067e-17 2.10769e-16 -8.19367)
(-1.06045e-16 -6.88518e-17 -9.73299)
(4.44936e-17 -2.50745e-16 -12.0454)
(1.2202e-16 2.33706e-16 -14.9014)
(-3.81372e-17 1.02963e-16 -17.7731)
(2.7837e-17 -1.10342e-16 -20.5055)
(1.25779e-16 8.7915e-17 -23.0679)
(-1.44076e-16 2.05427e-17 -25.4955)
(-1.96599e-16 1.68234e-16 -27.855)
(-1.03486e-16 -1.13224e-16 -29.9909)
(-8.11083e-17 -1.9917e-16 -31.9671)
(-4.8574e-17 -1.24737e-16 -33.7584)
(1.0033e-16 -1.19874e-16 -35.2727)
(-3.75697e-18 4.66583e-17 -36.5844)
(-5.5922e-17 -8.78873e-17 -37.5091)
(9.05688e-17 -1.06205e-16 -38.166)
(-7.63043e-18 8.91992e-17 -38.3992)
(-3.53387e-17 5.53964e-17 -38.2337)
(8.50513e-18 5.16693e-17 -37.7054)
(3.98536e-18 9.35589e-18 -36.6904)
(8.79945e-18 1.5928e-17 -35.4262)
(-5.30586e-18 -2.60118e-18 -33.7278)
(5.11225e-18 4.66366e-18 -31.7072)
(1.98223e-17 3.7107e-19 -29.5692)
(-9.37008e-18 -4.34476e-18 -27.2548)
(-7.78327e-18 -5.10883e-17 -24.929)
(-1.06697e-17 -6.05713e-17 -22.6131)
(-9.29458e-18 4.5661e-17 -20.3555)
(6.12181e-17 4.44145e-17 -18.2498)
(-1.31012e-19 -3.31946e-17 -16.2428)
(2.27966e-17 5.13772e-17 -14.4388)
(-5.65322e-17 5.29437e-17 -12.7672)
(-1.11504e-17 -3.83487e-17 -11.2799)
(-2.98102e-17 -6.26564e-17 -9.95152)
(1.38706e-20 -1.62419e-19 -8.75169)
(-7.63211e-17 4.84099e-17 -7.71629)
(-7.59228e-17 5.40806e-17 -6.79957)
(-2.86969e-18 6.67351e-17 -5.99743)
(-6.70913e-17 4.26483e-17 -5.30936)
(8.0365e-18 -6.84628e-17 -4.70923)
(-8.75154e-17 2.5386e-17 -4.18298)
(6.75911e-17 2.17997e-17 -3.72506)
(-1.30462e-16 3.59164e-17 -3.31806)
(-2.36181e-17 -7.75737e-17 -2.94949)
(3.92779e-18 -1.21129e-17 -2.61259)
(-7.44329e-18 2.27051e-18 -2.30002)
(7.07087e-17 1.08733e-16 -2.00857)
(-1.19076e-16 1.57563e-16 -1.73795)
(4.73672e-18 -1.42685e-16 -1.4855)
(-8.78676e-18 -7.55089e-17 -1.25336)
(-1.19633e-18 1.40083e-16 -1.04537)
(-5.10076e-17 3.29472e-17 -0.858206)
(2.09106e-19 1.24475e-18 -0.693675)
(-5.10868e-17 9.4216e-17 -0.554021)
(-2.41935e-17 -1.15837e-16 -0.43462)
(1.82433e-17 -3.86982e-17 -0.336109)
(5.37767e-19 6.01736e-17 -0.257676)
(7.72738e-18 -6.7403e-17 -0.19565)
(2.31988e-17 -9.81648e-18 -0.150849)
(3.02156e-18 3.12126e-18 -0.119647)
(-3.52381e-17 -5.39537e-18 -0.10289)
(5.76671e-18 2.98895e-17 -0.0985908)
(6.35543e-18 -8.65256e-19 -0.107246)
(1.96729e-18 -5.54216e-18 -0.127055)
(-1.06922e-18 1.87556e-17 -0.160956)
(-2.82231e-18 5.09585e-18 -0.20974)
(-4.1705e-18 -2.05859e-18 -0.277712)
(-7.58461e-20 -6.88524e-18 -0.367803)
(4.19226e-19 5.62943e-17 -0.485185)
(-2.14345e-17 -2.35871e-18 -0.636001)
(-2.71116e-17 -9.58591e-17 -0.826231)
(5.10481e-17 -1.41648e-17 -1.06408)
(-2.61755e-17 1.63272e-17 -1.35788)
(1.19439e-18 6.49246e-17 -1.71484)
(-2.72561e-17 -1.29117e-17 -2.14762)
(-2.46814e-17 -5.63879e-17 -2.65549)
(-8.17671e-19 -6.91937e-17 -3.26032)
(5.44504e-17 3.59939e-17 -3.95719)
(2.66043e-19 1.37253e-16 -4.75324)
(-8.04632e-18 3.50127e-17 -5.65924)
(5.69489e-17 4.24407e-17 -6.66593)
(-5.85805e-17 -4.38075e-17 -7.77607)
(-4.56089e-17 -2.48268e-16 -8.99345)
(7.1805e-17 4.79301e-17 -10.3026)
(4.27156e-18 1.54088e-16 -11.6936)
(-6.788e-17 -4.44717e-17 -13.1683)
(-1.11975e-17 -1.62132e-16 -14.7039)
(1.24953e-16 8.88178e-17 -16.2907)
(-3.75792e-17 4.15044e-17 -17.9141)
(5.33384e-17 -6.22708e-18 -19.5535)
(6.39007e-17 9.00111e-17 -21.2003)
(-6.32449e-17 1.87941e-16 -22.858)
(-7.31498e-18 5.43474e-17 -24.4619)
(-1.26261e-16 9.44594e-17 -26.0341)
(-2.57506e-17 -5.70696e-17 -27.5965)
(-9.75148e-17 -6.90708e-17 -29.0439)
(-4.71757e-17 1.45332e-16 -30.4182)
(-5.33197e-18 -1.87989e-18 -31.7858)
(5.69933e-18 3.51424e-18 -32.9243)
(3.88916e-17 -9.78897e-17 -34.0307)
(4.90535e-18 4.21396e-18 -34.9369)
(-1.10769e-17 1.81873e-17 -35.6925)
(-2.4299e-17 9.18449e-17 -36.2385)
(-1.90065e-17 6.6491e-18 -36.5383)
(-1.41688e-17 7.86467e-17 -36.5297)
(-5.34891e-18 1.37091e-17 -36.2667)
(-3.24567e-18 1.30259e-17 -35.5326)
(8.10551e-18 -6.79428e-17 -34.584)
(4.0949e-20 3.74146e-19 -33.1222)
(0 -0 -31.3323)
(3.70719e-19 -5.09031e-19 -29.3002)
(1.06502e-18 1.06073e-17 -26.957)
(-1.78441e-18 -7.47821e-18 -24.5271)
(-2.28713e-19 1.34463e-18 -21.9365)
(-2.22434e-18 -1.38826e-18 -19.346)
(-8.97022e-19 -2.46645e-18 -16.8053)
(1.27005e-18 -4.95564e-19 -14.3668)
(-2.46375e-19 1.20861e-18 -12.0848)
(-1.06851e-17 -2.72565e-17 -9.9642)
(1.12862e-18 -3.46052e-18 -8.05893)
(-8.00975e-19 -6.44822e-18 -6.32041)
(-8.43322e-18 -2.99147e-17 -4.77092)
(-6.19523e-18 1.55472e-17 -3.85779)
(9.62403e-18 6.20759e-18 -3.71472)
(-1.66713e-18 -2.77241e-18 -3.73465)
(1.22796e-18 -2.86261e-19 -3.91308)
(1.44564e-18 -2.22335e-19 -4.30343)
(1.54999e-18 -1.2878e-19 -4.94768)
(-1.44227e-18 -1.19778e-18 -5.9441)
(1.26743e-18 -2.97782e-18 -7.15269)
(1.38619e-19 7.73341e-19 -8.21914)
(1.92569e-19 7.99372e-19 -9.06895)
(-1.33315e-18 3.76234e-18 -9.74744)
(-2.96713e-19 -2.21e-18 -10.2816)
(1.2394e-20 -3.4142e-18 -10.6937)
(2.44459e-19 5.43411e-18 -11.0095)
(-1.64779e-19 -1.30271e-18 -11.2555)
(1.04965e-18 3.25329e-20 -11.4559)
(-1.90091e-18 7.68146e-19 -11.6307)
(9.57881e-19 4.05006e-18 -11.7952)
(-1.47528e-19 -5.5756e-18 -11.9586)
(5.29256e-20 7.7084e-19 -12.1249)
(4.54785e-19 2.94409e-19 -12.2929)
(-7.38818e-19 2.21394e-18 -12.4574)
(-5.93991e-20 -5.50413e-19 -12.6106)
(3.25459e-21 -2.5384e-18 -12.7436)
(3.00135e-19 2.96398e-19 -12.848)
(2.85063e-19 8.50308e-22 -12.9166)
(-3.17661e-19 -9.47544e-22 -12.945)
(2.72132e-19 -1.16331e-20 -12.9313)
(-4.57743e-19 -3.12509e-19 -12.8759)
(2.88994e-19 1.32794e-20 -12.783)
(-9.68631e-20 -2.88931e-22 -12.6585)
(-2.1318e-20 -5.4224e-20 -12.509)
(6.27547e-20 -1.18619e-18 -12.342)
(-2.31118e-20 1.2904e-18 -12.1652)
(-5.21035e-20 -5.8049e-20 -11.9857)
(8.48973e-21 -2.946e-19 -11.8096)
(-3.6589e-21 -5.71493e-19 -11.6419)
(-7.60144e-21 3.05667e-19 -11.4846)
(-3.84166e-21 2.79048e-19 -11.3287)
(-5.33573e-22 -2.81076e-21 -11.1844)
(0 -0 3.17818)
(3.00662e-20 -0 -6.36977)
(-5.72822e-20 -1.65741e-18 -12.805)
(3.37355e-19 -5.25778e-20 -15.4202)
(1.12132e-18 6.46853e-18 -16.1294)
(-1.4482e-18 -6.46443e-18 -15.8679)
(4.04288e-20 -1.71395e-18 -15.2806)
(1.61754e-19 -1.44879e-18 -14.6398)
(-3.67248e-18 4.88013e-18 -14.041)
(3.41217e-18 -4.41657e-18 -13.5154)
(6.6267e-18 1.47652e-17 -13.0657)
(-1.40197e-17 -2.14552e-18 -12.6837)
(9.88742e-19 -2.20287e-17 -12.359)
(6.82014e-18 -8.78807e-19 -12.0815)
(-9.10098e-19 2.08224e-17 -11.8421)
(-6.79991e-18 8.28107e-18 -11.6328)
(7.48598e-18 -2.12971e-17 -11.4466)
(-1.47824e-19 6.88647e-18 -11.2773)
(0 -0 -11.1198)
(0 -0 -10.9693)
(0 -0 -10.8218)
(0 -0 -10.6739)
(0 -0 -10.5225)
(-2.78316e-17 -0 -10.3649)
(4.19002e-17 -0 -10.1984)
(-1.40411e-17 -0 -10.0204)
(0 -0 -9.82801)
(0 -0 -9.61804)
(0 -0 -9.38663)
(-1.20967e-18 1.36675e-17 -9.12891)
(-2.88334e-19 1.05094e-17 -8.83841)
(3.70082e-18 -4.17319e-17 -8.50636)
(-1.4476e-19 -7.16023e-18 -8.12149)
(-1.60519e-17 5.01031e-17 -7.65364)
(-9.62665e-18 -4.67849e-17 -7.15454)
(4.18518e-17 2.05421e-17 -6.82221)
(9.8451e-17 1.28763e-16 -6.80093)
(5.28652e-18 -2.04095e-16 -7.11931)
(-1.61509e-17 -1.76723e-16 -7.77581)
(1.13177e-16 2.43391e-16 -8.78874)
(-3.33315e-17 1.37943e-17 -10.2138)
(-8.64838e-17 -1.8276e-16 -11.8319)
(7.77196e-17 -1.41048e-16 -13.527)
(1.29113e-17 -4.21732e-17 -15.2648)
(-2.39433e-17 -1.79231e-16 -16.9622)
(-8.26731e-18 4.43259e-16 -18.6306)
(1.89258e-16 1.39195e-16 -20.2612)
(1.06284e-16 1.13433e-16 -21.792)
(7.73297e-17 1.51915e-16 -23.2736)
(6.04336e-17 -2.17044e-17 -24.6351)
(-1.32091e-16 -1.44262e-16 -25.874)
(-3.11379e-18 3.8359e-17 -27.0007)
(-1.7067e-17 2.41745e-16 -27.937)
(-8.11342e-17 5.64635e-17 -28.7381)
(5.02331e-17 -2.42767e-17 -29.3165)
(3.72519e-17 3.67076e-17 -29.7042)
(3.69763e-17 -5.59624e-17 -29.8612)
(8.58217e-18 1.118e-17 -29.7722)
(-3.90573e-18 -3.19552e-17 -29.4545)
(-6.06742e-18 1.43512e-17 -28.8775)
(-2.98184e-18 -1.48503e-17 -28.0443)
(-2.57242e-17 -7.60389e-17 -26.9846)
(2.02598e-17 7.445e-17 -25.7305)
(-2.49135e-18 9.35298e-17 -24.3127)
(4.63195e-17 1.44059e-16 -22.7994)
(6.46385e-18 -5.20626e-17 -21.1956)
(-7.46074e-18 -7.9227e-17 -19.6011)
(-1.53629e-17 6.44714e-17 -17.9975)
(-2.47877e-17 -3.34001e-18 -16.4676)
(6.34686e-17 -4.10637e-17 -15.0006)
(4.86043e-18 2.19405e-17 -13.624)
(-1.32101e-16 -2.5576e-17 -12.3599)
(5.83552e-17 3.58389e-17 -11.1797)
(4.85388e-17 1.76278e-16 -10.1131)
(1.28046e-16 -3.44964e-17 -9.14412)
(1.14862e-17 -7.87236e-17 -8.26153)
(-1.1609e-17 1.0338e-17 -7.46828)
(-4.99114e-18 7.2873e-17 -6.75192)
(-5.15236e-17 -3.20035e-19 -6.09901)
(-1.66887e-16 4.81533e-17 -5.50637)
(2.15417e-16 6.76335e-17 -4.96552)
(2.63152e-17 -7.4984e-17 -4.46772)
(-6.7833e-17 4.60322e-17 -4.00941)
(2.73317e-17 -4.22437e-17 -3.58671)
(-7.14372e-18 -1.38284e-17 -3.19671)
(1.3322e-16 -5.44816e-17 -2.84019)
(4.41472e-17 -6.26957e-17 -2.51527)
(6.8049e-17 4.65444e-17 -2.22049)
(5.45861e-17 -1.10931e-16 -1.9591)
(1.11096e-16 -7.06432e-17 -1.72807)
(3.54015e-20 2.24686e-18 -1.52551)
(5.17217e-17 -6.42598e-17 -1.35316)
(2.05933e-17 2.03625e-17 -1.20671)
(-4.85453e-17 2.68318e-17 -1.08421)
(2.24824e-17 -5.78092e-17 -0.985697)
(8.86881e-19 3.18966e-17 -0.906214)
(-4.86772e-17 2.27739e-17 -0.847092)
(2.32232e-17 6.18461e-17 -0.803899)
(2.22449e-18 1.5288e-17 -0.777846)
(-1.30077e-17 -7.95443e-17 -0.766089)
(-6.46177e-18 3.00446e-18 -0.770418)
(-7.63536e-18 1.62927e-17 -0.788662)
(-3.24261e-18 -1.25511e-17 -0.823366)
(2.85618e-18 -1.67692e-18 -0.87458)
(5.60151e-18 -1.49648e-18 -0.944892)
(1.19119e-17 3.31157e-18 -1.03687)
(-2.26043e-19 -3.03533e-17 -1.15306)
(7.06242e-17 4.60313e-17 -1.29756)
(7.6724e-19 5.92715e-18 -1.47393)
(-4.75625e-17 7.76657e-18 -1.68672)
(-2.25534e-18 4.77765e-17 -1.94085)
(-1.91881e-18 -6.60586e-17 -2.24058)
(2.65412e-17 4.77753e-17 -2.59266)
(2.34807e-17 1.9595e-17 -2.99726)
(-2.75757e-17 -5.02908e-17 -3.46795)
(-5.43877e-17 -3.14817e-17 -3.99705)
(2.0808e-18 -7.57903e-17 -4.59656)
(1.10154e-17 -1.08651e-16 -5.26747)
(-1.23843e-17 -2.75756e-17 -6.00484)
(1.17708e-16 2.37577e-16 -6.81642)
(-9.53103e-17 4.08465e-18 -7.6999)
(-5.69713e-17 -1.3962e-16 -8.64597)
(4.49057e-17 5.72008e-17 -9.65636)
(8.03426e-17 4.80717e-17 -10.729)
(4.88021e-17 -1.03781e-17 -11.8473)
(-8.98628e-17 -2.4391e-16 -13.011)
(-4.23855e-17 1.95863e-16 -14.2083)
(8.59808e-17 -3.00951e-16 -15.427)
(-1.57922e-17 6.67211e-18 -16.6628)
(1.8458e-16 -1.59619e-17 -17.907)
(4.69302e-17 3.06234e-17 -19.1223)
(1.98014e-16 -5.6175e-17 -20.3354)
(4.57838e-17 1.61971e-16 -21.5296)
(-4.44394e-17 2.62957e-16 -22.644)
(8.14435e-17 -2.05367e-16 -23.7364)
(-5.63042e-18 7.75418e-17 -24.7858)
(3.11387e-17 -2.47918e-17 -25.6895)
(2.1888e-17 -3.64517e-17 -26.5908)
(1.2052e-17 -3.82762e-17 -27.3318)
(-8.446e-18 3.13235e-17 -27.9936)
(4.93613e-17 -1.36033e-16 -28.5195)
(-6.33078e-17 2.33771e-16 -28.902)
(4.09934e-17 -1.53675e-16 -29.1223)
(1.15888e-18 6.33667e-18 -29.1869)
(8.95844e-18 -5.69802e-17 -29.0153)
(-9.9153e-19 1.49123e-17 -28.702)
(-1.48958e-18 2.25954e-17 -28.0894)
(-2.68383e-20 -3.05221e-19 -27.2965)
(6.93478e-19 4.21767e-17 -26.255)
(-4.53988e-18 -7.73446e-17 -24.9896)
(6.99809e-19 -2.63981e-18 -23.5489)
(2.11565e-17 1.30588e-16 -21.9122)
(5.77674e-18 2.24782e-17 -20.1614)
(-4.17303e-18 -2.03952e-17 -18.3105)
(-2.28674e-18 7.73673e-19 -16.4303)
(-2.38158e-17 -7.96599e-17 -14.5554)
(1.12006e-17 2.78643e-17 -12.7281)
(-2.2935e-17 -5.62015e-17 -10.9867)
(1.68492e-18 5.2138e-18 -9.35635)
(3.42262e-19 3.89623e-17 -7.89731)
(1.94965e-17 2.12069e-17 -6.80194)
(-1.69165e-17 -4.83327e-17 -6.22822)
(1.39614e-18 1.18329e-17 -5.94643)
(-4.28943e-18 -6.40513e-18 -5.85628)
(-1.29259e-18 -6.07853e-18 -5.94689)
(-4.28449e-18 -7.33807e-18 -6.23097)
(3.75573e-18 6.77758e-18 -6.70687)
(-1.3827e-18 -3.77779e-19 -7.29891)
(-1.56846e-20 -1.58966e-19 -7.88473)
(-1.47189e-19 -8.62018e-19 -8.40708)
(3.14509e-20 1.4684e-19 -8.85638)
(2.21199e-19 2.04172e-18 -9.23928)
(-1.0966e-18 1.12153e-17 -9.56403)
(7.95596e-19 -1.43976e-17 -9.8399)
(7.84767e-20 1.54834e-18 -10.0771)
(1.1197e-18 -1.16094e-17 -10.2856)
(-8.78194e-19 2.47795e-17 -10.4738)
(-2.59077e-19 -2.78576e-17 -10.6481)
(2.66355e-19 1.63358e-17 -10.8122)
(-8.32953e-20 -1.23273e-18 -10.9675)
(-9.86657e-20 -7.88011e-18 -11.113)
(4.2065e-19 7.80736e-18 -11.2461)
(-2.9357e-19 1.0916e-18 -11.3632)
(-2.93518e-19 7.04984e-18 -11.4599)
(2.82738e-19 -6.67901e-18 -11.5322)
(8.18035e-20 -6.87685e-18 -11.5768)
(4.69155e-20 8.59193e-18 -11.5916)
(-3.60737e-21 -8.44358e-18 -11.576)
(-6.6859e-20 1.50202e-17 -11.531)
(5.9707e-20 -1.01356e-17 -11.4593)
(6.76221e-20 3.91308e-18 -11.365)
(-7.88876e-20 1.06356e-18 -11.2531)
(-1.20534e-19 -5.27795e-20 -11.1291)
(1.5255e-19 -2.29275e-18 -10.9984)
(-3.42119e-20 3.48351e-18 -10.8661)
(5.2297e-21 -3.37534e-19 -10.7364)
(-1.18294e-20 1.67933e-18 -10.6127)
(1.0088e-20 -1.41729e-20 -10.4968)
(-1.46218e-22 4.82261e-22 -10.3875)
(-1.14522e-20 1.04146e-18 -10.2921)
(-2.45365e-21 8.31678e-19 5.45224)
(-3.78955e-19 1.30317e-18 2.32161)
(4.02868e-19 -4.55625e-18 -1.63597)
(5.9025e-19 -1.82926e-18 -5.00282)
(1.19365e-18 5.86315e-18 -7.50575)
(-1.79835e-18 -1.61249e-18 -8.95284)
(0 -0 -9.7741)
(-3.72923e-18 3.23537e-18 -10.1625)
(3.4139e-18 4.46163e-19 -10.2919)
(-2.69167e-18 -2.0144e-17 -10.287)
(3.50974e-18 6.76867e-18 -10.2126)
(-1.93321e-19 2.27735e-17 -10.1042)
(-6.08375e-19 -7.5681e-19 -9.98182)
(-1.33846e-17 -1.88797e-17 -9.85663)
(1.28117e-17 1.30828e-17 -9.73476)
(8.39652e-18 -1.39422e-18 -9.61958)
(-1.35495e-17 -2.31498e-17 -9.51267)
(5.78471e-18 2.45545e-17 -9.41418)
(3.47112e-19 -6.53642e-18 -9.32326)
(0 -0 -9.23833)
(1.32485e-17 -0 -9.15739)
(-1.32739e-17 -0 -9.07822)
(-8.79347e-19 1.29591e-17 -8.9986)
(-1.28051e-17 7.69288e-18 -8.91637)
(1.46682e-17 -3.36376e-17 -8.82946)
(-9.5777e-19 1.29856e-17 -8.73584)
(0 -0 -8.63344)
(1.32284e-17 -0 -8.51997)
(-1.63233e-20 -0 -8.3928)
(-1.44373e-17 1.3064e-17 -8.24863)
(1.51802e-18 4.10359e-18 -8.08311)
(2.88558e-17 -3.02776e-17 -7.8902)
(-4.39317e-17 1.22846e-17 -7.66432)
(2.56212e-17 -1.30201e-18 -7.40003)
(-1.53757e-18 2.78767e-17 -7.10895)
(-5.59714e-17 -4.18073e-17 -6.84472)
(8.66822e-17 -5.12883e-17 -6.69335)
(3.8268e-17 1.88753e-16 -6.74339)
(-1.28673e-16 8.49449e-17 -7.02914)
(-2.98541e-17 -9.33327e-17 -7.54922)
(-2.34139e-17 -1.41341e-18 -8.28824)
(-1.41723e-16 -1.1997e-17 -9.11531)
(-6.68539e-17 2.13183e-16 -10.0314)
(1.10158e-16 7.32924e-17 -11.033)
(-2.83683e-16 5.0009e-17 -12.0659)
(3.06403e-16 -4.0831e-16 -13.1242)
(7.46607e-17 -2.08043e-16 -14.1849)
(-5.42694e-18 6.31877e-17 -15.2313)
(8.99981e-17 -2.01112e-16 -16.2758)
(-3.69333e-18 1.31185e-16 -17.2723)
(-1.07795e-16 4.19678e-16 -18.232)
(1.52688e-17 -1.11863e-16 -19.1501)
(5.12492e-17 -2.00586e-16 -20.004)
(9.25723e-17 -2.76202e-16 -20.8055)
(1.70997e-17 -2.44295e-16 -21.5269)
(-2.28289e-18 -8.61879e-17 -22.1751)
(-6.04568e-18 -1.27047e-16 -22.7228)
(4.27634e-18 -3.13571e-17 -23.1695)
(-9.6577e-18 3.96345e-17 -23.4771)
(8.36707e-18 3.68539e-17 -23.6555)
(3.96783e-18 7.26168e-18 -23.6563)
(-1.24791e-17 7.54979e-17 -23.4657)
(2.01541e-17 -9.78137e-17 -23.0873)
(2.42345e-17 -4.46547e-17 -22.5055)
(-7.01393e-17 -3.39385e-16 -21.7711)
(-3.10911e-17 5.42846e-17 -20.8604)
(-6.85959e-17 -5.33827e-18 -19.858)
(1.93379e-17 3.72034e-17 -18.7481)
(1.57029e-18 -1.50678e-17 -17.6068)
(-5.59016e-17 4.57618e-18 -16.4423)
(1.07949e-17 1.18945e-16 -15.2821)
(1.83177e-16 1.04975e-16 -14.1682)
(-1.50384e-16 -2.2089e-16 -13.0826)
(1.81374e-16 -2.86385e-17 -12.0582)
(2.615e-17 -1.41214e-16 -11.0941)
(-1.76257e-17 1.47317e-16 -10.1839)
(1.36512e-16 9.61524e-17 -9.33515)
(4.44963e-18 -4.06707e-18 -8.54449)
(1.87378e-16 1.6166e-16 -7.80351)
(9.06566e-17 -8.26512e-17 -7.11287)
(2.27694e-18 -3.99404e-16 -6.47044)
(-4.30029e-17 1.40602e-16 -5.87193)
(9.75137e-17 3.0761e-17 -5.31752)
(4.76158e-17 -1.60028e-16 -4.80629)
(-6.31061e-17 4.48693e-17 -4.33631)
(1.06011e-16 -1.0752e-16 -3.90932)
(-1.90163e-16 1.67619e-17 -3.5237)
(-1.55144e-16 -8.31981e-17 -3.17559)
(-7.26666e-17 7.11348e-17 -2.8677)
(-1.41915e-17 3.30729e-17 -2.59622)
(1.14781e-18 7.2849e-17 -2.35705)
(2.38461e-18 3.33075e-17 -2.15186)
(-2.65968e-17 2.04123e-17 -1.97629)
(2.90765e-17 -4.34851e-17 -1.82693)
(-5.80484e-19 -2.50971e-18 -1.70562)
(-8.99776e-18 3.03325e-17 -1.60554)
(3.23725e-18 -2.42587e-17 -1.53001)
(-3.32374e-18 -6.51444e-17 -1.47288)
(7.88016e-17 3.64244e-18 -1.43695)
(6.90092e-18 3.88258e-17 -1.41753)
(-5.9084e-18 -1.16286e-18 -1.41768)
(8.68067e-18 -1.07285e-17 -1.4337)
(2.96841e-19 6.694e-18 -1.46784)
(-8.83505e-20 -5.70682e-18 -1.51908)
(-1.80726e-19 -1.27648e-17 -1.58825)
(-1.20111e-17 -6.40434e-18 -1.67678)
(-1.2592e-17 -1.74588e-17 -1.78492)
(-4.75808e-17 -2.38714e-17 -1.91458)
(7.34576e-17 8.84222e-17 -2.06691)
(-5.13971e-17 -3.96539e-17 -2.24365)
(5.33382e-17 -2.1093e-17 -2.44683)
(-7.13011e-19 3.26417e-17 -2.67811)
(1.38053e-18 -3.40036e-17 -2.94099)
(1.06404e-17 4.96328e-18 -3.23435)
(-9.17882e-18 7.06199e-17 -3.56747)
(-4.55498e-19 -3.73877e-17 -3.93319)
(2.5891e-17 8.45482e-17 -4.3417)
(-2.17137e-17 1.87213e-16 -4.79296)
(-1.52772e-16 -1.44423e-16 -5.2845)
(4.18292e-18 -1.54603e-16 -5.82397)
(5.88281e-17 3.01811e-16 -6.41042)
(2.99782e-17 -1.06021e-16 -7.03955)
(4.43921e-17 -2.06329e-16 -7.716)
(-5.60946e-17 -7.40423e-17 -8.4393)
(9.99637e-17 -9.58563e-17 -9.20009)
(-3.21562e-16 3.94965e-16 -10.0009)
(1.6913e-16 -2.64156e-16 -10.8349)
(-1.70471e-16 1.41014e-16 -11.6952)
(5.90786e-17 -3.89565e-16 -12.5786)
(1.12986e-16 -4.28911e-16 -13.4777)
(1.06571e-16 -2.08417e-16 -14.3708)
(-3.70605e-17 -7.46091e-17 -15.2724)
(1.26298e-16 -3.89882e-16 -16.167)
(2.3889e-16 -2.39934e-16 -17.017)
(-8.3987e-17 5.47334e-17 -17.8599)
(2.17149e-17 -6.2275e-17 -18.6686)
(7.24418e-17 -1.69062e-16 -19.3949)
(3.13715e-17 -9.8183e-17 -20.1179)
(-2.15115e-17 5.30186e-17 -20.7452)
(9.55076e-18 -5.19168e-17 -21.3265)
(-7.16992e-17 2.50638e-16 -21.8349)
(2.91709e-17 6.94695e-18 -22.269)
(-4.21077e-18 1.05239e-18 -22.629)
(-1.27507e-17 5.87378e-17 -22.9133)
(-3.85887e-17 2.20712e-16 -23.0951)
(-2.43172e-19 -2.38408e-18 -23.2048)
(6.64721e-18 -1.07305e-16 -23.1701)
(-3.28584e-18 6.8823e-17 -23.0398)
(-1.58947e-18 -4.24899e-17 -22.7434)
(1.04998e-17 1.23111e-16 -22.2861)
(5.61021e-18 6.01523e-17 -21.6625)
(-2.29638e-17 -1.29291e-16 -20.8479)
(-3.64441e-17 -2.15003e-16 -19.8733)
(1.46529e-17 6.61856e-17 -18.7288)
(-4.09151e-17 -1.76795e-16 -17.4591)
(2.46079e-17 7.90605e-17 -16.087)
(8.13919e-18 2.15978e-17 -14.6545)
(1.82959e-17 5.44498e-17 -13.1965)
(-5.8809e-18 -1.63201e-17 -11.761)
(3.26769e-17 6.42348e-17 -10.4265)
(-7.70147e-18 -3.34322e-17 -9.26416)
(-1.27001e-18 2.64747e-17 -8.42254)
(4.8316e-18 9.21198e-18 -7.85844)
(9.05978e-18 2.55956e-17 -7.49154)
(-1.31859e-18 5.37079e-19 -7.28504)
(2.48116e-18 1.90895e-17 -7.23437)
(-4.69391e-18 -2.73549e-17 -7.31398)
(1.75269e-18 5.77378e-20 -7.49129)
(1.67012e-18 -1.12011e-18 -7.72356)
(5.04515e-19 9.17161e-19 -7.97677)
(-7.70999e-20 1.73787e-17 -8.23062)
(8.40866e-20 -2.12761e-18 -8.47683)
(2.40745e-18 1.49992e-19 -8.7097)
(-2.43567e-18 9.4222e-19 -8.92435)
(-1.21397e-19 -2.06718e-18 -9.11775)
(-1.52644e-18 -2.30401e-17 -9.28881)
(2.47454e-18 2.3696e-17 -9.43793)
(-8.73075e-19 1.98862e-17 -9.56648)
(-2.42362e-19 -2.33789e-17 -9.6764)
(5.74216e-20 8.38425e-19 -9.76991)
(-5.0925e-19 1.13531e-18 -9.84913)
(4.21478e-19 2.13166e-19 -9.91585)
(2.4375e-19 1.03098e-17 -9.97127)
(5.58806e-19 -4.19396e-19 -10.0159)
(-6.8966e-19 -1.27851e-17 -10.0494)
(-3.56524e-19 -3.09924e-18 -10.0709)
(3.82663e-19 -1.10289e-18 -10.0791)
(-2.7482e-19 1.22047e-18 -10.0729)
(2.72398e-19 -4.82724e-20 -10.0513)
(-8.39813e-20 -1.25425e-18 -10.0141)
(2.15986e-19 -5.61239e-18 -9.96216)
(3.0732e-20 4.64938e-18 -9.89696)
(-1.59599e-19 5.43112e-18 -9.82086)
(1.13526e-19 -6.71867e-18 -9.73663)
(4.89029e-21 5.72433e-20 -9.64724)
(1.52137e-20 -1.55481e-18 -9.55546)
(4.76568e-20 -2.65488e-18 -9.46372)
(2.52845e-20 -1.28715e-18 -9.37385)
(-1.09208e-20 1.30234e-18 -9.28561)
(1.25011e-20 -1.04738e-18 -9.1864)
(0 -0 3.61284)
(8.85896e-19 -0 3.0445)
(-8.64084e-19 -1.59651e-18 1.88096)
(6.74414e-19 -2.87793e-18 0.0354017)
(-6.83976e-19 6.06857e-18 -1.72062)
(2.35154e-20 -1.59414e-18 -3.27964)
(3.29707e-18 -0 -4.57171)
(-3.3021e-18 -0 -5.50091)
(1.80591e-19 -0 -6.1583)
(-4.01025e-19 -0 -6.62164)
(-6.92375e-18 6.27498e-18 -6.9279)
(6.409e-18 9.65223e-18 -7.12544)
(7.72789e-18 -1.59543e-17 -7.24925)
(-7.98814e-19 9.14913e-18 -7.3218)
(1.0279e-18 -3.06048e-17 -7.35916)
(-7.36183e-18 3.40568e-17 -7.37376)
(-7.23115e-18 2.20993e-18 -7.37487)
(7.68778e-18 -2.10731e-17 -7.36897)
(-3.33981e-19 6.28914e-18 -7.36024)
(7.16713e-18 -1.24954e-17 -7.35102)
(-6.4537e-18 -1.56973e-17 -7.34216)
(-1.5366e-18 4.0712e-17 -7.3335)
(-3.33152e-20 -5.33482e-20 -7.32422)
(1.01795e-18 1.46365e-17 -7.31317)
(1.35213e-17 -3.95931e-17 -7.29909)
(-1.37224e-17 1.24906e-17 -7.28071)
(-1.17757e-17 -1.24764e-17 -7.25677)
(1.23306e-18 -2.52741e-17 -7.22598)
(2.3595e-17 2.55751e-17 -7.1869)
(-1.52501e-17 3.72455e-17 -7.13773)
(2.85138e-18 -1.43159e-17 -7.07616)
(-1.04401e-17 -4.5887e-17 -6.99871)
(9.74725e-18 3.58792e-17 -6.90303)
(1.43574e-17 -1.94993e-17 -6.789)
(-1.79939e-17 4.50775e-17 -6.65186)
(2.75255e-17 -2.70876e-18 -6.48538)
(-1.01399e-16 -9.83507e-17 -6.32006)
(-8.2786e-17 -1.60986e-16 -6.23537)
(1.47149e-16 -1.96071e-17 -6.27849)
(4.87885e-17 1.11891e-16 -6.45375)
(-2.40015e-17 1.68024e-16 -6.73948)
(-1.0856e-17 2.39899e-16 -7.07607)
(1.85382e-16 -5.79205e-16 -7.48938)
(4.53545e-17 -2.90279e-16 -7.98189)
(1.82731e-17 2.2791e-16 -8.52937)
(-8.32477e-17 -1.05261e-16 -9.12332)
(-1.75603e-16 2.11851e-16 -9.73635)
(-4.51774e-17 -2.82126e-17 -10.3924)
(-1.62832e-16 1.94481e-16 -11.0549)
(-3.15417e-17 -1.3988e-16 -11.7168)
(1.94058e-16 -1.78935e-16 -12.3943)
(-4.47221e-17 3.2499e-17 -13.0676)
(-1.01275e-16 3.84352e-16 -13.7444)
(-1.22479e-16 1.86636e-16 -14.4171)
(-6.45257e-17 2.42952e-16 -15.0896)
(-2.88802e-17 1.22816e-16 -15.7584)
(-3.83319e-17 -9.60989e-18 -16.4151)
(-4.63394e-18 -4.35119e-17 -17.0648)
(2.90019e-18 -3.3833e-17 -17.6636)
(6.61698e-18 -5.42675e-17 -18.2363)
(-1.02377e-17 -3.43931e-17 -18.7211)
(1.97625e-17 -1.16355e-17 -19.1003)
(-3.84665e-17 -1.3736e-16 -19.3514)
(1.12074e-17 5.30872e-17 -19.4354)
(1.68929e-17 4.46415e-16 -19.3741)
(9.40103e-17 1.99097e-16 -19.1213)
(-2.39003e-18 3.29439e-17 -18.7328)
(9.84962e-18 -1.0361e-17 -18.1812)
(-3.65932e-17 4.38179e-17 -17.5253)
(8.61694e-17 1.73522e-16 -16.7733)
(1.83867e-17 -1.04537e-16 -15.9497)
(-6.8424e-17 -2.53741e-16 -15.1018)
(5.03791e-17 2.52511e-16 -14.2205)
(-8.89656e-17 -2.55573e-16 -13.3429)
(-7.70597e-17 1.15159e-16 -12.4775)
(3.54499e-18 -6.08193e-17 -11.6253)
(9.32848e-18 -1.58372e-16 -10.7996)
(-5.71089e-18 -2.76137e-17 -10.0044)
(8.14274e-17 -2.4548e-16 -9.23751)
(7.63365e-17 -1.13125e-16 -8.50429)
(-2.80458e-16 2.63974e-16 -7.80832)
(-2.42796e-17 4.58871e-17 -7.15004)
(3.24844e-17 -1.83172e-16 -6.5339)
(-6.89107e-17 1.153e-16 -5.96262)
(-2.384e-19 -7.3724e-17 -5.43645)
(-1.6075e-16 1.41275e-16 -4.95881)
(1.73637e-16 3.40855e-16 -4.52907)
(3.70268e-17 1.06622e-16 -4.14215)
(-3.73275e-17 -1.44492e-16 -3.80041)
(-1.76583e-16 -2.75264e-18 -3.49912)
(-2.64389e-17 1.40697e-17 -3.23261)
(1.28554e-18 1.98408e-19 -3.00218)
(2.86623e-17 -1.08858e-17 -2.80359)
(-3.94991e-18 -3.27905e-17 -2.63248)
(-5.13348e-17 4.83169e-18 -2.49232)
(-2.05776e-18 3.0315e-17 -2.3752)
(2.43497e-17 -1.38615e-17 -2.28624)
(-7.69725e-17 -1.14823e-17 -2.2181)
(-4.47395e-17 -4.61317e-19 -2.17486)
(-2.20803e-18 2.39865e-17 -2.15022)
(1.13835e-17 -4.3518e-18 -2.14782)
(-1.12132e-17 9.49029e-18 -2.16226)
(7.34744e-18 -1.18963e-18 -2.19508)
(6.91807e-21 -1.04323e-18 -2.244)
(5.3219e-20 1.18163e-17 -2.30814)
(-2.41976e-17 1.92213e-17 -2.3877)
(5.1251e-19 2.4415e-17 -2.48101)
(-2.42692e-17 -6.80547e-17 -2.58827)
(-2.16949e-17 -4.54423e-17 -2.7088)
(4.55191e-17 1.03727e-16 -2.84246)
(-1.85809e-18 -2.90652e-17 -2.98931)
(6.11245e-19 -7.03538e-19 -3.14943)
(4.30074e-19 3.05504e-17 -3.32436)
(-3.45063e-17 1.7004e-17 -3.51215)
(4.79925e-17 4.73762e-18 -3.71962)
(1.39169e-18 -2.65915e-17 -3.94064)
(-6.12821e-17 -2.03737e-16 -4.18324)
(1.06317e-16 -5.77767e-17 -4.44792)
(5.0876e-17 3.96074e-16 -4.73365)
(-1.2431e-16 -5.12207e-17 -5.04723)
(1.85131e-16 -2.15722e-16 -5.3897)
(-3.05471e-18 -1.17887e-16 -5.75972)
(-1.3507e-16 2.63049e-16 -6.16272)
(-1.54511e-16 2.53443e-16 -6.60009)
(-1.73469e-16 6.71502e-17 -7.06773)
(1.73713e-16 8.79424e-17 -7.56905)
(-3.43154e-17 3.07041e-17 -8.10123)
(5.01174e-17 8.77591e-17 -8.66099)
(-2.21355e-16 3.47915e-16 -9.24646)
(-2.42532e-16 2.36199e-16 -9.85298)
(-1.88905e-16 2.00836e-16 -10.4678)
(-5.83449e-18 7.94707e-19 -11.0973)
(-2.70485e-16 3.73328e-16 -11.7325)
(-2.64354e-17 -1.17543e-16 -12.3475)
(-8.64688e-17 1.90321e-16 -12.9642)
(-3.51608e-17 3.93813e-17 -13.5618)
(-2.10092e-17 -4.61639e-17 -14.1193)
(-1.27327e-16 2.82554e-16 -14.6737)
(3.23783e-17 -6.49256e-17 -15.1799)
(-1.13914e-16 3.3849e-16 -15.6625)
(1.99796e-16 -6.24939e-16 -16.113)
(1.40871e-16 -5.37127e-16 -16.5329)
(6.69418e-17 -2.87515e-16 -16.9297)
(6.04583e-18 7.2426e-18 -17.3031)
(-7.70426e-18 9.45575e-17 -17.651)
(2.78773e-18 4.12221e-18 -17.9803)
(1.25246e-18 -3.70721e-17 -18.2677)
(-3.91257e-18 1.19036e-16 -18.5241)
(1.14294e-18 -6.61626e-17 -18.7037)
(4.376e-18 1.36538e-16 -18.7957)
(-1.01504e-17 -1.03396e-16 -18.7758)
(2.03427e-18 -2.22116e-18 -18.6143)
(4.088e-17 2.27006e-16 -18.3055)
(-1.86197e-17 -9.39157e-17 -17.8244)
(3.49368e-17 1.48905e-16 -17.182)
(9.09187e-18 4.0895e-17 -16.3822)
(-5.18473e-17 -1.93626e-16 -15.4487)
(1.14759e-17 3.18065e-17 -14.4039)
(-3.82274e-19 -2.86222e-18 -13.2926)
(-3.11383e-17 -9.29805e-17 -12.1913)
(-3.49728e-18 5.74803e-18 -11.1192)
(4.19923e-18 -6.21952e-19 -10.1865)
(1.14458e-18 -2.23985e-18 -9.44575)
(-2.88917e-18 -2.81643e-17 -8.87055)
(-5.51604e-19 1.28668e-18 -8.43043)
(1.24656e-18 -2.96287e-18 -8.11854)
(-6.11842e-19 1.93119e-17 -7.91089)
(-3.17441e-18 -1.94767e-17 -7.79833)
(-2.13172e-18 -2.22356e-17 -7.76669)
(1.51028e-18 -2.31068e-18 -7.79836)
(1.9636e-18 2.41516e-17 -7.87613)
(-6.57617e-19 -5.68649e-18 -7.98646)
(-1.27323e-18 -2.55439e-17 -8.11568)
(1.27167e-18 2.76204e-17 -8.24969)
(3.41966e-19 2.97049e-18 -8.37608)
(-2.1358e-18 2.90819e-18 -8.48546)
(1.83504e-18 -7.96152e-19 -8.57182)
(2.5551e-19 -2.80736e-17 -8.63253)
(-2.12468e-20 2.93936e-17 -8.66798)
(-2.13747e-19 -6.32117e-19 -8.6811)
(5.51272e-19 4.10498e-18 -8.67659)
(-3.27186e-19 -1.49254e-19 -8.66007)
(-3.52029e-20 -4.43246e-18 -8.63727)
(8.16973e-20 -1.49641e-17 -8.61318)
(-4.06469e-19 1.55563e-17 -8.59144)
(5.72617e-20 3.07069e-18 -8.57399)
(-9.96297e-20 -4.30127e-18 -8.56106)
(-6.8182e-20 2.35444e-19 -8.55131)
(1.86528e-20 1.51148e-17 -8.54236)
(-6.03179e-20 -1.5464e-17 -8.53138)
(-1.25467e-19 -4.04392e-18 -8.51565)
(3.51497e-19 -7.33926e-18 -8.49298)
(-2.10561e-19 7.43502e-18 -8.46201)
(9.92157e-20 -7.28411e-18 -8.42231)
(-1.57176e-19 7.30062e-18 -8.37418)
(-2.73848e-20 3.09143e-18 -8.31853)
(-1.00207e-19 3.48064e-18 -8.25664)
(3.52768e-20 -1.7751e-18 -8.19003)
(1.17294e-19 -5.52485e-18 -8.12014)
(-1.42741e-21 6.70878e-21 -8.00825)
(0 -0 2.34904)
(0 -0 2.34727)
(1.43128e-20 -1.61713e-18 2.12368)
(5.88476e-19 -2.81418e-18 1.53043)
(-6.15111e-19 6.03754e-18 0.7767)
(7.88928e-20 -4.72456e-18 -0.203824)
(4.27079e-18 -6.16067e-18 -1.1348)
(-7.7551e-18 1.54907e-17 -1.98397)
(2.72644e-18 -4.00169e-20 -2.73259)
(1.48302e-18 -1.84658e-17 -3.37966)
(-8.76214e-19 1.53871e-17 -3.86416)
(6.76591e-18 -3.093e-18 -4.25039)
(-1.28761e-17 -6.13025e-18 -4.56047)
(1.38801e-17 -1.77301e-17 -4.79923)
(-1.42528e-17 1.85524e-17 -4.98206)
(5.65255e-18 2.88641e-17 -5.12353)
(1.53356e-18 -2.96875e-17 -5.23499)
(-6.39159e-19 6.13135e-18 -5.32538)
(3.40882e-19 -6.08124e-18 -5.40163)
(6.46944e-18 -1.07391e-17 -5.46883)
(-7.90718e-18 2.29117e-17 -5.53031)
(1.10457e-18 -6.09135e-18 -5.58795)
(-1.33266e-17 1.20984e-17 -5.64257)
(1.37444e-17 8.16856e-18 -5.69427)
(1.76929e-18 -6.43632e-17 -5.74273)
(-4.04682e-18 6.82806e-17 -5.78749)
(-6.40662e-19 1.90168e-17 -5.82806)
(1.96808e-18 -3.67545e-17 -5.86399)
(-9.82294e-18 -4.86297e-17 -5.89481)
(8.26306e-18 6.64025e-17 -5.91994)