/*--------------------------------*- C++ -*----------------------------------*\
| =========                 |                                                 |
| \\      /  F ield         | OpenFOAM: The Open Source CFD Toolbox           |
|  \\    /   O peration     | Version:  2506                                  |
|   \\  /    A nd           | Website:  www.openfoam.com                      |
|    \\/     M anipulation  |                                                 |
\*---------------------------------------------------------------------------*/
FoamFile
{
    version     2.0;
    format      ascii;
    arch        "LSB;label=32;scalar=64";
    class       surfaceScalarField;
    location    "3.45";
    object      phi;
}
// * * * * * * * * * * * * * * * * * * * * * * * * * * * * * * * * * * * * * //

dimensions      [0 3 -1 0 0 0 0];

oriented        oriented;

internalField   nonuniform List<scalar> 
7780
(
4.08357e-10
-4.08357e-10
7.03941e-10
-2.95585e-10
8.78667e-10
-1.74725e-10
9.98566e-10
-1.19899e-10
1.08668e-09
-8.811e-11
1.15398e-09
-6.73048e-11
1.2075e-09
-5.35162e-11
1.25152e-09
-4.40189e-11
1.28869e-09
-3.71728e-11
1.32075e-09
-3.20572e-11
1.34886e-09
-2.81181e-11
1.37387e-09
-2.50063e-11
1.39634e-09
-2.24732e-11
1.41669e-09
-2.03475e-11
1.43522e-09
-1.85313e-11
1.45218e-09
-1.69622e-11
1.46778e-09
-1.55987e-11
1.48219e-09
-1.44092e-11
1.49558e-09
-1.33852e-11
1.5081e-09
-1.25203e-11
1.51991e-09
-1.18173e-11
1.53121e-09
-1.12924e-11
1.54218e-09
-1.09744e-11
1.55308e-09
-1.0901e-11
1.56425e-09
-1.11694e-11
1.57609e-09
-1.18418e-11
1.58918e-09
-1.30891e-11
1.60433e-09
-1.51435e-11
1.62276e-09
-1.84327e-11
1.64648e-09
-2.37245e-11
1.67306e-09
-5.71567e-11
1.67641e-09
-2.19031e-10
1.6527e-09
-4.2547e-10
1.60773e-09
-6.14444e-10
1.54518e-09
-7.75534e-10
1.47727e-09
-9.21214e-10
1.41331e-09
-1.05957e-09
1.32427e-09
-1.23178e-09
1.22e-09
-1.3412e-09
1.13095e-09
-1.38659e-09
1.0569e-09
-1.42236e-09
9.99029e-10
-1.45192e-09
9.53753e-10
-1.4725e-09
9.18556e-10
-1.48547e-09
8.91496e-10
-1.49154e-09
8.70247e-10
-1.49024e-09
8.5403e-10
-1.48064e-09
8.39978e-10
-1.46294e-09
8.25473e-10
-1.43553e-09
8.07405e-10
-1.39667e-09
7.83999e-10
-1.34321e-09
7.57618e-10
-1.27117e-09
7.23174e-10
-1.18413e-09
6.8887e-10
-1.06878e-09
6.58767e-10
-9.27415e-10
6.49234e-10
-7.47695e-10
6.67586e-10
-5.38876e-10
7.30075e-10
-2.81457e-10
8.3497e-10
7.50537e-13
9.55112e-10
2.85687e-10
1.07513e-09
5.4508e-10
1.18607e-09
7.86101e-10
1.27544e-09
9.57058e-10
1.35003e-09
1.10872e-09
1.40928e-09
1.21024e-09
1.45852e-09
1.29267e-09
1.50061e-09
1.35662e-09
1.53761e-09
1.40063e-09
1.57147e-09
1.43377e-09
1.6029e-09
1.45865e-09
1.63316e-09
1.47662e-09
1.66234e-09
1.48732e-09
1.69077e-09
1.49204e-09
1.7188e-09
1.49144e-09
1.74655e-09
1.48571e-09
1.77403e-09
1.47469e-09
1.8012e-09
1.45779e-09
1.82782e-09
1.4306e-09
1.85418e-09
1.39724e-09
1.88012e-09
1.35429e-09
1.90588e-09
1.29804e-09
1.92966e-09
1.21322e-09
1.95282e-09
1.1183e-09
1.97293e-09
9.76754e-10
1.99061e-09
8.10031e-10
2.00193e-09
5.66533e-10
2.0082e-09
2.96621e-10
2.00902e-09
-6.46844e-12
2.00734e-09
-3.25389e-10
2.00523e-09
-6.09555e-10
2.00515e-09
-8.28881e-10
2.00597e-09
-1.01763e-09
2.00574e-09
-1.14211e-09
2.00292e-09
-1.25011e-09
1.99481e-09
-1.31597e-09
1.97949e-09
-1.36571e-09
1.95784e-09
-1.40819e-09
1.92939e-09
-1.43293e-09
1.89623e-09
-1.45206e-09
1.86047e-09
-1.46668e-09
1.82413e-09
-1.4775e-09
1.78894e-09
-1.48477e-09
1.75558e-09
-1.48699e-09
1.7238e-09
-1.48366e-09
1.69232e-09
-1.47384e-09
1.65941e-09
-1.4566e-09
1.62335e-09
-1.43129e-09
1.58184e-09
-1.39388e-09
1.53376e-09
-1.34296e-09
1.47863e-09
-1.28292e-09
1.41678e-09
-1.20862e-09
1.34771e-09
-1.09416e-09
1.27428e-09
-9.74738e-10
1.19975e-09
-7.92002e-10
1.12993e-09
-5.90307e-10
1.07407e-09
-3.31259e-10
1.0429e-09
-3.73747e-11
1.03928e-09
2.46407e-10
1.05934e-09
5.06411e-10
1.09802e-09
7.45716e-10
1.14376e-09
9.20909e-10
1.19181e-09
1.06754e-09
1.2369e-09
1.17463e-09
1.2792e-09
1.26791e-09
1.31735e-09
1.33068e-09
1.35203e-09
1.38028e-09
1.38451e-09
1.42051e-09
1.41535e-09
1.44956e-09
1.44494e-09
1.46931e-09
1.47398e-09
1.48241e-09
1.50294e-09
1.48968e-09
1.5322e-09
1.49151e-09
1.5619e-09
1.48808e-09
1.59206e-09
1.4783e-09
1.62326e-09
1.46269e-09
1.65538e-09
1.44094e-09
1.68889e-09
1.41152e-09
1.72407e-09
1.37331e-09
1.76008e-09
1.31537e-09
1.7983e-09
1.24837e-09
1.83831e-09
1.1638e-09
1.87813e-09
1.03387e-09
1.91912e-09
8.90436e-10
1.95676e-09
6.76229e-10
1.99127e-09
4.27172e-10
2.02027e-09
1.3901e-10
2.04418e-09
-1.79685e-10
2.06441e-09
-4.86502e-10
2.08376e-09
-7.33162e-10
2.10123e-09
-9.38469e-10
2.11605e-09
-1.094e-09
2.12607e-09
-1.20734e-09
2.1293e-09
-1.28525e-09
2.12507e-09
-1.35305e-09
2.11165e-09
-1.392e-09
2.08967e-09
-1.42105e-09
2.06026e-09
-1.44246e-09
2.02582e-09
-1.46034e-09
1.98857e-09
-1.47185e-09
1.94451e-09
-1.47334e-09
1.89496e-09
-1.47106e-09
1.8491e-09
-1.473e-09
1.8291e-09
-1.49209e-09
1.77121e-09
-1.16422e-09
1.70418e-09
-1.00453e-09
1.63541e-09
-8.76532e-10
1.56154e-09
-7.04333e-10
1.49e-09
-5.2005e-10
1.42521e-09
-3.08836e-10
1.37688e-09
-9.73007e-11
1.35139e-09
1.93968e-11
1.34037e-09
1.10184e-11
1.33804e-09
2.3297e-12
1.34118e-09
-3.14059e-12
1.34689e-09
-5.70404e-12
1.35317e-09
-6.2809e-12
1.35904e-09
-5.87505e-12
1.36392e-09
-4.87484e-12
1.36738e-09
-3.46463e-12
1.36927e-09
-1.88754e-12
1.36956e-09
-2.84227e-13
1.36847e-09
1.08891e-12
1.36612e-09
2.351e-12
1.36259e-09
3.52984e-12
1.35797e-09
4.61144e-12
1.35231e-09
5.66294e-12
1.34555e-09
6.76533e-12
1.33741e-09
8.13976e-12
1.32764e-09
9.77109e-12
1.31585e-09
1.17879e-11
1.30121e-09
1.46368e-11
1.28255e-09
1.86569e-11
1.25816e-09
2.43955e-11
1.22528e-09
3.28815e-11
1.17904e-09
4.62333e-11
1.11034e-09
6.86997e-11
1.00138e-09
1.08964e-10
8.15435e-10
1.85945e-10
4.76794e-10
3.38641e-10
4.76794e-10
-2.63581e-11
-3.81999e-10
9.41738e-11
-4.16117e-10
2.58147e-10
-3.38699e-10
4.11243e-10
-2.72995e-10
5.46098e-10
-2.22966e-10
6.63024e-10
-1.8423e-10
7.63927e-10
-1.5442e-10
8.51228e-10
-1.3132e-10
9.2718e-10
-1.13125e-10
9.93666e-10
-9.85437e-11
1.05221e-09
-8.66596e-11
1.10395e-09
-7.67493e-11
1.14978e-09
-6.83051e-11
1.19044e-09
-6.10037e-11
1.22648e-09
-5.45741e-11
1.25832e-09
-4.87988e-11
1.28627e-09
-4.35514e-11
1.31064e-09
-3.87803e-11
1.33171e-09
-3.44565e-11
1.34976e-09
-3.05696e-11
1.36507e-09
-2.71203e-11
1.37789e-09
-2.41189e-11
1.38853e-09
-2.16163e-11
1.39733e-09
-1.96945e-11
1.40474e-09
-1.85803e-11
1.41132e-09
-1.84227e-11
1.41782e-09
-1.95865e-11
1.42518e-09
-2.25103e-11
1.43471e-09
-2.79566e-11
1.44824e-09
-3.72534e-11
1.46257e-09
-7.14926e-11
1.45379e-09
-2.10251e-10
1.41327e-09
-3.84947e-10
1.34455e-09
-5.45725e-10
1.25503e-09
-6.8601e-10
1.15892e-09
-8.25104e-10
1.06486e-09
-9.65515e-10
9.54401e-10
-1.12131e-09
8.3911e-10
-1.22591e-09
7.43794e-10
-1.29127e-09
6.69688e-10
-1.34825e-09
6.14747e-10
-1.39698e-09
5.75796e-10
-1.43355e-09
5.50066e-10
-1.45974e-09
5.34505e-10
-1.47598e-09
5.25861e-10
-1.48159e-09
5.21607e-10
-1.47639e-09
5.17841e-10
-1.45918e-09
5.10934e-10
-1.42863e-09
4.97587e-10
-1.38333e-09
4.7622e-10
-1.32184e-09
4.48092e-10
-1.24305e-09
4.11255e-10
-1.14729e-09
3.73245e-10
-1.03077e-09
3.40846e-10
-8.95015e-10
3.27887e-10
-7.34736e-10
3.43724e-10
-5.54714e-10
4.05162e-10
-3.42895e-10
5.12825e-10
-1.06912e-10
6.57759e-10
1.40753e-10
8.20449e-10
3.8239e-10
9.8284e-10
6.23712e-10
1.12572e-09
8.14178e-10
1.24584e-09
9.88601e-10
1.3411e-09
1.11497e-09
1.41599e-09
1.21777e-09
1.47411e-09
1.29851e-09
1.51926e-09
1.35549e-09
1.55566e-09
1.39738e-09
1.5862e-09
1.42812e-09
1.61314e-09
1.44969e-09
1.63796e-09
1.4625e-09
1.6619e-09
1.46809e-09
1.68574e-09
1.46758e-09
1.70997e-09
1.46146e-09
1.73493e-09
1.44973e-09
1.76064e-09
1.43209e-09
1.78699e-09
1.40425e-09
1.81412e-09
1.37012e-09
1.84188e-09
1.32653e-09
1.87066e-09
1.26926e-09
1.89939e-09
1.1845e-09
1.92896e-09
1.08873e-09
1.95849e-09
9.47223e-10
1.98851e-09
7.80012e-10
2.01795e-09
5.37094e-10
2.04864e-09
2.65933e-10
2.08027e-09
-3.80973e-11
2.11342e-09
-3.58541e-10
2.14526e-09
-6.41395e-10
2.17419e-09
-8.57807e-10
2.19716e-09
-1.04061e-09
2.21107e-09
-1.15602e-09
2.21431e-09
-1.25334e-09
2.20526e-09
-1.30693e-09
2.18459e-09
-1.34503e-09
2.15541e-09
-1.37902e-09
2.1198e-09
-1.39732e-09
2.08152e-09
-1.41378e-09
2.04353e-09
-1.42869e-09
2.00784e-09
-1.44182e-09
1.9754e-09
-1.45233e-09
1.94548e-09
-1.45706e-09
1.91612e-09
-1.45429e-09
1.88466e-09
-1.44238e-09
1.8486e-09
-1.42055e-09
1.80614e-09
-1.38883e-09
1.75537e-09
-1.34312e-09
1.69632e-09
-1.28391e-09
1.6296e-09
-1.21621e-09
1.5566e-09
-1.13562e-09
1.47835e-09
-1.01591e-09
1.39768e-09
-8.94067e-10
1.31636e-09
-7.10678e-10
1.23836e-09
-5.1231e-10
1.16669e-09
-2.59587e-10
1.10882e-09
2.0496e-11
1.07014e-09
2.85081e-10
1.05638e-09
5.20181e-10
1.06517e-09
7.36921e-10
1.09084e-09
8.95241e-10
1.12818e-09
1.03019e-09
1.17187e-09
1.13094e-09
1.21651e-09
1.22327e-09
1.25917e-09
1.28802e-09
1.29827e-09
1.34118e-09
1.33384e-09
1.38494e-09
1.36632e-09
1.41708e-09
1.39632e-09
1.43931e-09
1.42483e-09
1.4539e-09
1.45274e-09
1.46177e-09
1.48097e-09
1.46328e-09
1.51006e-09
1.459e-09
1.54028e-09
1.44808e-09
1.57237e-09
1.43061e-09
1.60625e-09
1.40706e-09
1.64239e-09
1.37537e-09
1.68112e-09
1.33459e-09
1.72205e-09
1.27444e-09
1.76624e-09
1.20418e-09
1.8136e-09
1.11644e-09
1.86367e-09
9.83803e-10
1.91676e-09
8.37347e-10
1.97132e-09
6.21667e-10
2.0283e-09
3.70189e-10
2.08624e-09
8.10779e-11
2.14487e-09
-2.3832e-10
2.20071e-09
-5.42336e-10
2.25159e-09
-7.84051e-10
2.29381e-09
-9.80683e-10
2.3254e-09
-1.1256e-09
2.3433e-09
-1.22524e-09
2.34663e-09
-1.28859e-09
2.33668e-09
-1.3431e-09
2.31476e-09
-1.37007e-09
2.28447e-09
-1.39076e-09
2.24957e-09
-1.40754e-09
2.21447e-09
-1.42522e-09
2.18304e-09
-1.4404e-09
2.15075e-09
-1.44105e-09
2.11928e-09
-1.43959e-09
2.09994e-09
-1.45368e-09
2.09299e-09
-1.48516e-09
2.05337e-09
-1.12463e-09
1.99857e-09
-9.49747e-10
1.93458e-09
-8.12543e-10
1.85872e-09
-6.28469e-10
1.77971e-09
-4.41032e-10
1.69891e-09
-2.28036e-10
1.62239e-09
-2.07811e-11
1.56138e-09
8.04052e-11
1.52332e-09
4.90798e-11
1.50297e-09
2.26842e-11
1.49404e-09
5.78734e-12
1.49171e-09
-3.37356e-12
1.49248e-09
-7.05163e-12
1.49384e-09
-7.23037e-12
1.49412e-09
-5.16315e-12
1.49231e-09
-1.65389e-12
1.48789e-09
2.54058e-12
1.48072e-09
6.87724e-12
1.47077e-09
1.10376e-11
1.45821e-09
1.49137e-11
1.44326e-09
1.84866e-11
1.42606e-09
2.1808e-11
1.40662e-09
2.51006e-11
1.3847e-09
2.86843e-11
1.35999e-09
3.28531e-11
1.33163e-09
3.81346e-11
1.29835e-09
4.50606e-11
1.25861e-09
5.43781e-11
1.20984e-09
6.74233e-11
1.14817e-09
8.60713e-11
1.06751e-09
1.13542e-10
9.5846e-10
1.55282e-10
8.07369e-10
2.1979e-10
5.97986e-10
3.18347e-10
3.25204e-10
4.58726e-10
5.43349e-11
6.0951e-10
5.31129e-10
-7.51017e-11
-3.06897e-10
-5.6929e-11
-4.34289e-10
2.97746e-11
-4.25402e-10
1.42921e-10
-3.86141e-10
2.61301e-10
-3.41346e-10
3.75911e-10
-2.9884e-10
4.82717e-10
-2.61226e-10
5.80365e-10
-2.28968e-10
6.68808e-10
-2.01568e-10
7.48528e-10
-1.78263e-10
8.20164e-10
-1.58296e-10
8.84373e-10
-1.40958e-10
9.4175e-10
-1.25682e-10
9.92804e-10
-1.12058e-10
1.03798e-09
-9.97455e-11
1.07765e-09
-8.84704e-11
1.11215e-09
-7.80504e-11
1.14175e-09
-6.83823e-11
1.1667e-09
-5.94095e-11
1.18725e-09
-5.11206e-11
1.20363e-09
-4.35027e-11
1.21612e-09
-3.66001e-11
1.22499e-09
-3.04888e-11
1.23063e-09
-2.53409e-11
1.2335e-09
-2.14427e-11
1.23418e-09
-1.91015e-11
1.2334e-09
-1.88107e-11
1.23209e-09
-2.11977e-11
1.23135e-09
-2.7216e-11
1.23241e-09
-3.83158e-11
1.23169e-09
-7.07773e-11
1.20573e-09
-1.84289e-10
1.14733e-09
-3.26549e-10
1.06328e-09
-4.61668e-10
9.6464e-10
-5.87375e-10
8.64382e-10
-7.24846e-10
7.6914e-10
-8.70273e-10
6.67045e-10
-1.01922e-09
5.70086e-10
-1.12895e-09
4.94874e-10
-1.21605e-09
4.40565e-10
-1.29394e-09
4.03567e-10
-1.35998e-09
3.81236e-10
-1.41122e-09
3.70856e-10
-1.44936e-09
3.69062e-10
-1.47419e-09
3.72343e-10
-1.48487e-09
3.77427e-10
-1.48147e-09
3.80495e-10
-1.46224e-09
3.78345e-10
-1.42648e-09
3.68639e-10
-1.37362e-09
3.50815e-10
-1.30402e-09
3.26361e-10
-1.21859e-09
2.9649e-10
-1.11742e-09
2.67424e-10
-1.00171e-09
2.45972e-10
-8.73562e-10
2.42528e-10
-7.31292e-10
2.65334e-10
-5.77519e-10
3.25196e-10
-4.02757e-10
4.25591e-10
-2.07307e-10
5.6213e-10
4.21453e-12
7.23951e-10
2.20569e-10
8.97228e-10
4.50435e-10
1.06374e-09
6.47662e-10
1.21339e-09
8.38944e-10
1.33856e-09
9.89791e-10
1.43841e-09
1.11791e-09
1.51478e-09
1.22215e-09
1.57134e-09
1.29896e-09
1.61232e-09
1.3564e-09
1.6422e-09
1.39825e-09
1.66528e-09
1.42661e-09
1.68469e-09
1.44308e-09
1.70277e-09
1.45e-09
1.72124e-09
1.4491e-09
1.741e-09
1.44169e-09
1.76264e-09
1.42808e-09
1.78643e-09
1.40831e-09
1.81258e-09
1.3781e-09
1.8411e-09
1.3416e-09
1.8719e-09
1.29572e-09
1.90569e-09
1.23548e-09
1.94219e-09
1.148e-09
1.9817e-09
1.04922e-09
2.02424e-09
9.04686e-10
2.06995e-09
7.34303e-10
2.11846e-09
4.88583e-10
2.16901e-09
2.15375e-10
2.21844e-09
-8.75202e-11
2.26545e-09
-4.05558e-10
2.30559e-09
-6.81531e-10
2.33682e-09
-8.89033e-10
2.35617e-09
-1.05996e-09
2.36213e-09
-1.16198e-09
2.35437e-09
-1.24558e-09
2.33402e-09
-1.28658e-09
2.30351e-09
-1.31452e-09
2.26704e-09
-1.34254e-09
2.22776e-09
-1.35804e-09
2.1894e-09
-1.37543e-09
2.15411e-09
-1.3934e-09
2.1225e-09
-1.4102e-09
2.09392e-09
-1.42375e-09
2.06614e-09
-1.42928e-09
2.03619e-09
-1.42434e-09
2.00106e-09
-1.40724e-09
1.95868e-09
-1.37818e-09
1.90884e-09
-1.33899e-09
1.85125e-09
-1.28554e-09
1.78745e-09
-1.2201e-09
1.71929e-09
-1.14806e-09
1.64925e-09
-1.06558e-09
1.57978e-09
-9.46431e-10
1.51313e-09
-8.27424e-10
1.4512e-09
-6.48743e-10
1.39608e-09
-4.57191e-10
1.34743e-09
-2.10936e-10
1.30522e-09
6.2705e-11
1.2676e-09
3.227e-10
1.23896e-09
5.48826e-10
1.22273e-09
7.53148e-10
1.22259e-09
8.95376e-10
1.23563e-09
1.01715e-09
1.2598e-09
1.10677e-09
1.29002e-09
1.19305e-09
1.32339e-09
1.25465e-09
1.35626e-09
1.30831e-09
1.38694e-09
1.35426e-09
1.41504e-09
1.38898e-09
1.44084e-09
1.41351e-09
1.46523e-09
1.42952e-09
1.48915e-09
1.43785e-09
1.51385e-09
1.43858e-09
1.54025e-09
1.4326e-09
1.56895e-09
1.41938e-09
1.60085e-09
1.3987e-09
1.63599e-09
1.37193e-09
1.67498e-09
1.33638e-09
1.71826e-09
1.2913e-09
1.76628e-09
1.22642e-09
1.81967e-09
1.15079e-09
1.87822e-09
1.05789e-09
1.94276e-09
9.19262e-10
2.01274e-09
7.67369e-10
2.08746e-09
5.46949e-10
2.16591e-09
2.91743e-10
2.24385e-09
3.13262e-12
2.31849e-09
-3.12957e-10
2.38449e-09
-6.08337e-10
2.43858e-09
-8.38142e-10
2.47717e-09
-1.01927e-09
2.49934e-09
-1.14777e-09
2.50402e-09
-1.22993e-09
2.4933e-09
-1.27787e-09
2.47026e-09
-1.32007e-09
2.43885e-09
-1.33866e-09
2.40418e-09
-1.35609e-09
2.37076e-09
-1.37411e-09
2.34301e-09
-1.39745e-09
2.3243e-09
-1.42167e-09
2.30781e-09
-1.42455e-09
2.29177e-09
-1.42354e-09
2.28145e-09
-1.44336e-09
2.2678e-09
-1.47153e-09
2.23615e-09
-1.09298e-09
2.1918e-09
-9.0541e-10
2.13766e-09
-7.5841e-10
2.07455e-09
-5.6536e-10
2.01288e-09
-3.79361e-10
1.95295e-09
-1.68102e-10
1.89442e-09
3.77537e-11
1.8414e-09
1.33421e-10
1.80092e-09
8.95623e-11
1.77217e-09
5.14328e-11
1.7527e-09
2.5258e-11
1.73973e-09
9.59937e-12
1.73054e-09
2.13167e-12
1.72276e-09
5.58463e-13
1.7145e-09
3.0926e-12
1.70449e-09
8.35134e-12
1.6919e-09
1.51297e-11
1.67636e-09
2.24261e-11
1.65773e-09
2.96641e-11
1.63602e-09
3.66239e-11
1.61134e-09
4.31698e-11
1.58375e-09
4.93893e-11
1.55319e-09
5.56616e-11
1.51936e-09
6.25206e-11
1.48164e-09
7.05716e-11
1.43901e-09
8.07674e-11
1.38984e-09
9.42246e-11
1.33203e-09
1.12187e-10
1.26259e-09
1.36866e-10
1.17672e-09
1.71942e-10
1.06713e-09
2.2313e-10
9.23577e-10
2.98837e-10
7.3419e-10
4.09177e-10
4.93117e-10
5.59421e-10
2.23346e-10
7.28497e-10
1.70455e-11
8.15811e-10
5.48174e-10
-6.34436e-11
-2.43453e-10
-9.04467e-11
-4.07286e-10
-6.45699e-11
-4.51279e-10
-4.07045e-12
-4.46641e-10
7.48589e-11
-4.20275e-10
1.61319e-10
-3.853e-10
2.48827e-10
-3.48734e-10
3.33736e-10
-3.13877e-10
4.14113e-10
-2.81944e-10
4.89011e-10
-2.53161e-10
5.58018e-10
-2.27304e-10
6.21031e-10
-2.03971e-10
6.78102e-10
-1.82753e-10
7.29349e-10
-1.63305e-10
7.74925e-10
-1.45321e-10
8.15007e-10
-1.28552e-10
8.49773e-10
-1.12817e-10
8.79388e-10
-9.79977e-11
9.04012e-10
-8.40335e-11
9.23803e-10
-7.09111e-11
9.38947e-10
-5.86472e-11
9.49664e-10
-4.73169e-11
9.5624e-10
-3.70643e-11
9.59031e-10
-2.81323e-11
9.58482e-10
-2.08933e-11
9.55198e-10
-1.5818e-11
9.4992e-10
-1.3532e-11
9.43591e-10
-1.48689e-11
9.37325e-10
-2.09496e-11
9.32444e-10
-3.34352e-11
9.25575e-10
-6.39083e-11
8.94931e-10
-1.53644e-10
8.36596e-10
-2.68214e-10
7.60124e-10
-3.85195e-10
6.77598e-10
-5.04848e-10
5.97939e-10
-6.45187e-10
5.25066e-10
-7.97399e-10
4.50562e-10
-9.44716e-10
3.8468e-10
-1.06307e-09
3.37654e-10
-1.16903e-09
3.07483e-10
-1.26377e-09
2.9056e-10
-1.34306e-09
2.84924e-10
-1.40558e-09
2.88096e-10
-1.45253e-09
2.96782e-10
-1.48287e-09
3.07561e-10
-1.49565e-09
3.17174e-10
-1.49108e-09
3.22445e-10
-1.46752e-09
3.21075e-10
-1.42511e-09
3.11879e-10
-1.36443e-09
2.95263e-10
-1.2874e-09
2.73211e-10
-1.19654e-09
2.48318e-10
-1.09253e-09
2.26022e-10
-9.79409e-10
2.12054e-10
-8.59593e-10
2.13815e-10
-7.33053e-10
2.37522e-10
-6.01226e-10
2.90829e-10
-4.56065e-10
3.7864e-10
-2.95118e-10
5.01825e-10
-1.1897e-10
6.5478e-10
6.76135e-11
8.29879e-10
2.75335e-10
1.01165e-09
4.65891e-10
1.18805e-09
6.62539e-10
1.34721e-09
8.30627e-10
1.48275e-09
9.82374e-10
1.59179e-09
1.11313e-09
1.67505e-09
1.21572e-09
1.73516e-09
1.2963e-09
1.7761e-09
1.3573e-09
1.8029e-09
1.3998e-09
1.82041e-09
1.42555e-09
1.83262e-09
1.43778e-09
1.84322e-09
1.43849e-09
1.85494e-09
1.42998e-09
1.8695e-09
1.41352e-09
1.88792e-09
1.3899e-09
1.91101e-09
1.35502e-09
1.93876e-09
1.31386e-09
1.9709e-09
1.26359e-09
2.00801e-09
1.19837e-09
2.0498e-09
1.1062e-09
2.09603e-09
1.00299e-09
2.1467e-09
8.54022e-10
2.20098e-09
6.8002e-10
2.2577e-09
4.31861e-10
2.31453e-09
1.58547e-10
2.36702e-09
-1.40015e-10
2.41296e-09
-4.51497e-10
2.44706e-09
-7.15626e-10
2.46796e-09
-9.09936e-10
2.47351e-09
-1.06551e-09
2.46439e-09
-1.15285e-09
2.44181e-09
-1.223e-09
2.40923e-09
-1.254e-09
2.3703e-09
-1.27559e-09
2.32952e-09
-1.30177e-09
2.29003e-09
-1.31854e-09
2.25445e-09
-1.33985e-09
2.22318e-09
-1.36214e-09
2.19513e-09
-1.38215e-09
2.16786e-09
-1.39648e-09
2.13747e-09
-1.39889e-09
2.10126e-09
-1.38813e-09
2.05787e-09
-1.36385e-09
2.00707e-09
-1.32737e-09
1.94945e-09
-1.28137e-09
1.88586e-09
-1.22196e-09
1.81949e-09
-1.15373e-09
1.75268e-09
-1.08125e-09
1.68795e-09
-1.00085e-09
1.62828e-09
-8.86762e-10
1.57469e-09
-7.73839e-10
1.53009e-09
-6.04139e-10
1.49519e-09
-4.22287e-10
1.46952e-09
-1.85268e-10
1.45255e-09
7.96732e-11
1.43961e-09
3.35639e-10
1.42963e-09
5.58802e-10
1.42174e-09
7.61041e-10
1.41959e-09
8.97528e-10
1.42455e-09
1.01219e-09
1.43835e-09
1.09297e-09
1.45855e-09
1.17284e-09
1.48418e-09
1.22902e-09
1.51147e-09
1.28101e-09
1.53783e-09
1.3279e-09
1.56182e-09
1.36499e-09
1.58294e-09
1.39239e-09
1.60194e-09
1.41052e-09
1.61987e-09
1.41993e-09
1.63846e-09
1.41999e-09
1.6593e-09
1.41176e-09
1.68363e-09
1.39505e-09
1.71293e-09
1.36941e-09
1.74735e-09
1.3375e-09
1.78771e-09
1.29602e-09
1.8344e-09
1.24462e-09
1.88781e-09
1.17301e-09
1.94812e-09
1.09048e-09
2.01495e-09
9.91052e-10
2.08916e-09
8.4505e-10
2.16903e-09
6.87506e-10
2.25308e-09
4.62893e-10
2.33878e-09
2.06044e-10
2.42029e-09
-7.83765e-11
2.4937e-09
-3.86365e-10
2.55276e-09
-6.67393e-10
2.59472e-09
-8.80103e-10
2.61703e-09
-1.04158e-09
2.62086e-09
-1.15159e-09
2.60765e-09
-1.21673e-09
2.58217e-09
-1.25239e-09
2.54891e-09
-1.28681e-09
2.5134e-09
-1.30316e-09
2.48098e-09
-1.32368e-09
2.45545e-09
-1.34858e-09
2.43959e-09
-1.38159e-09
2.43461e-09
-1.41668e-09
2.42963e-09
-1.41956e-09
2.41806e-09
-1.41195e-09
2.40068e-09
-1.42598e-09
2.36752e-09
-1.43837e-09
2.328e-09
-1.05347e-09
2.28014e-09
-8.57554e-10
2.22638e-09
-7.04658e-10
2.17038e-09
-5.0937e-10
2.12198e-09
-3.30965e-10
2.08096e-09
-1.2708e-10
2.04501e-09
7.37047e-11
2.01073e-09
1.67701e-10
1.97809e-09
1.22202e-10
1.94881e-09
8.07188e-11
1.92354e-09
5.0527e-11
1.90194e-09
3.11933e-11
1.88293e-09
2.11458e-11
1.86512e-09
1.83643e-11
1.84724e-09
2.0982e-11
1.82818e-09
2.74051e-11
1.80707e-09
3.6243e-11
1.78312e-09
4.63736e-11
1.75597e-09
5.68151e-11
1.72572e-09
6.68718e-11
1.69243e-09
7.64656e-11
1.65592e-09
8.5896e-11
1.61594e-09
9.56424e-11
1.57205e-09
1.06409e-10
1.52353e-09
1.19094e-10
1.46936e-09
1.34937e-10
1.4081e-09
1.55486e-10
1.33758e-09
1.82704e-10
1.25466e-09
2.1978e-10
1.15464e-09
2.71972e-10
1.03056e-09
3.47203e-10
8.7345e-10
4.5595e-10
6.75165e-10
6.07462e-10
4.38175e-10
7.96411e-10
1.94963e-10
9.71708e-10
2.374e-11
9.87034e-10
5.71914e-10
-4.92462e-11
-1.94207e-10
-9.19626e-11
-3.6457e-10
-1.02625e-10
-4.40617e-10
-8.39822e-11
-4.65284e-10
-4.40489e-11
-4.60209e-10
9.10317e-12
-4.38452e-10
6.90156e-11
-4.08647e-10
1.31441e-10
-3.76302e-10
1.93595e-10
-3.44098e-10
2.53696e-10
-3.13262e-10
3.10614e-10
-2.84222e-10
3.63653e-10
-2.57009e-10
4.12395e-10
-2.31496e-10
4.56597e-10
-2.07507e-10
4.9613e-10
-1.84853e-10
5.30944e-10
-1.63367e-10
5.61044e-10
-1.42917e-10
5.86462e-10
-1.23415e-10
6.07255e-10
-1.04826e-10
6.23507e-10
-8.7163e-11
6.35349e-10
-7.04898e-11
6.4297e-10
-5.49382e-11
6.46636e-10
-4.07303e-11
6.46712e-10
-2.82079e-11
6.4366e-10
-1.78414e-11
6.38125e-10
-1.02826e-11
6.30905e-10
-6.31274e-12
6.23039e-10
-7.00262e-12
6.15775e-10
-1.36852e-11
6.10564e-10
-2.82246e-11
6.05036e-10
-5.83803e-11
5.81365e-10
-1.29973e-10
5.38228e-10
-2.25077e-10
4.85208e-10
-3.32175e-10
4.32398e-10
-4.52037e-10
3.83994e-10
-5.96784e-10
3.41327e-10
-7.54732e-10
2.98525e-10
-9.01914e-10
2.63501e-10
-1.02804e-09
2.42297e-10
-1.14782e-09
2.32976e-10
-1.25445e-09
2.32617e-10
-1.3427e-09
2.39822e-10
-1.41279e-09
2.52345e-10
-1.46505e-09
2.67119e-10
-1.49765e-09
2.81045e-10
-1.50958e-09
2.91297e-10
-1.50134e-09
2.95532e-10
-1.47175e-09
2.92409e-10
-1.42199e-09
2.81718e-10
-1.35374e-09
2.64574e-10
-1.27026e-09
2.43272e-10
-1.17524e-09
2.20767e-10
-1.07003e-09
2.0158e-10
-9.60222e-10
1.90156e-10
-8.48169e-10
1.91709e-10
-7.34606e-10
2.10734e-10
-6.20251e-10
2.53106e-10
-4.98436e-10
3.2414e-10
-3.66152e-10
4.27375e-10
-2.22205e-10
5.63218e-10
-6.82303e-11
7.29543e-10
1.09008e-10
9.1539e-10
2.80042e-10
1.11066e-09
4.67267e-10
1.30162e-09
6.39672e-10
1.47819e-09
8.05814e-10
1.63239e-09
9.58934e-10
1.76007e-09
1.08804e-09
1.85979e-09
1.19657e-09
1.93201e-09
1.28507e-09
1.98094e-09
1.35086e-09
2.01165e-09
1.39483e-09
2.0292e-09
1.42023e-09
2.03886e-09
1.42883e-09
2.04555e-09
1.4233e-09
2.05278e-09
1.4063e-09
2.06325e-09
1.37943e-09
2.07896e-09
1.33932e-09
2.10056e-09
1.29226e-09
2.12805e-09
1.2361e-09
2.16223e-09
1.16418e-09
2.2027e-09
1.06573e-09
2.24876e-09
9.56926e-10
2.29985e-09
8.02931e-10
2.35438e-09
6.25489e-10
2.41008e-09
3.76159e-10
2.46369e-09
1.04943e-10
2.50968e-09
-1.86011e-10
2.54524e-09
-4.8705e-10
2.565e-09
-7.35393e-10
2.56889e-09
-9.13819e-10
2.55607e-09
-1.05269e-09
2.52954e-09
-1.12632e-09
2.49211e-09
-1.18556e-09
2.44892e-09
-1.21081e-09
2.40414e-09
-1.23081e-09
2.36178e-09
-1.25941e-09
2.32391e-09
-1.28067e-09
2.29125e-09
-1.30719e-09
2.26211e-09
-1.333e-09
2.23345e-09
-1.35348e-09
2.20178e-09
-1.36482e-09
2.16428e-09
-1.36139e-09
2.11955e-09
-1.3434e-09
2.06671e-09
-1.31101e-09
2.0062e-09
-1.26686e-09
1.94029e-09
-1.21546e-09
1.87171e-09
-1.15338e-09
1.80443e-09
-1.08645e-09
1.74032e-09
-1.01714e-09
1.68114e-09
-9.41668e-10
1.62976e-09
-8.35389e-10
1.58576e-09
-7.29836e-10
1.55209e-09
-5.70472e-10
1.52872e-09
-3.98914e-10
1.5168e-09
-1.73351e-10
1.51721e-09
7.92663e-11
1.52545e-09
3.27397e-10
1.53894e-09
5.45314e-10
1.55431e-09
7.45666e-10
1.57112e-09
8.80721e-10
1.58992e-09
9.93388e-10
1.61276e-09
1.07013e-09
1.63929e-09
1.1463e-09
1.67005e-09
1.19827e-09
1.70237e-09
1.24869e-09
1.7339e-09
1.29637e-09
1.76259e-09
1.3363e-09
1.78702e-09
1.36796e-09
1.80737e-09
1.39017e-09
1.82425e-09
1.40305e-09
1.83959e-09
1.40465e-09
1.85567e-09
1.39569e-09
1.87446e-09
1.37626e-09
1.89841e-09
1.34545e-09
1.9282e-09
1.30771e-09
1.96512e-09
1.2591e-09
2.00978e-09
1.19996e-09
2.06263e-09
1.12015e-09
2.12371e-09
1.0294e-09
2.19204e-09
9.22722e-10
2.26798e-09
7.6911e-10
2.34898e-09
6.06504e-10
2.43239e-09
3.79486e-10
2.51467e-09
1.23762e-10
2.58876e-09
-1.52471e-10
2.65007e-09
-4.47669e-10
2.69219e-09
-7.09511e-10
2.71386e-09
-9.01771e-10
2.71439e-09
-1.04211e-09
2.69754e-09
-1.13475e-09
2.66731e-09
-1.18649e-09
2.63049e-09
-1.21557e-09
2.59229e-09
-1.24862e-09
2.55847e-09
-1.26935e-09
2.53319e-09
-1.29841e-09
2.51812e-09
-1.33352e-09
2.51281e-09
-1.37629e-09
2.5155e-09
-1.41938e-09
2.51122e-09
-1.41527e-09
2.49133e-09
-1.39205e-09
2.45653e-09
-1.39117e-09
2.40015e-09
-1.38198e-09
2.34835e-09
-1.00166e-09
2.29283e-09
-8.02035e-10
2.23438e-09
-6.46217e-10
2.17787e-09
-4.52865e-10
2.13258e-09
-2.85678e-10
2.09976e-09
-9.42636e-11
2.07776e-09
9.57107e-11
2.05853e-09
1.86926e-10
2.03495e-09
1.45785e-10
2.00888e-09
1.06787e-10
1.98209e-09
7.73208e-11
1.95562e-09
5.76649e-11
1.92971e-09
4.70531e-11
1.904e-09
4.40777e-11
1.87782e-09
4.71645e-11
1.85045e-09
5.47687e-11
1.82127e-09
6.54259e-11
1.7898e-09
7.78431e-11
1.75568e-09
9.093e-11
1.71859e-09
1.03962e-10
1.67827e-09
1.16789e-10
1.63445e-09
1.29717e-10
1.58675e-09
1.4334e-10
1.53464e-09
1.5852e-10
1.47736e-09
1.76371e-10
1.41397e-09
1.98334e-10
1.34317e-09
2.26285e-10
1.26307e-09
2.62806e-10
1.17084e-09
3.12002e-10
1.06237e-09
3.80448e-10
9.31801e-10
4.77769e-10
7.72293e-10
6.15459e-10
5.79807e-10
7.99947e-10
3.62775e-10
1.01344e-09
1.56016e-10
1.17847e-09
2.08743e-11
1.12218e-09
5.92788e-10
-3.70684e-11
-1.57139e-10
-8.25238e-11
-3.19114e-10
-1.11638e-10
-4.11503e-10
-1.19402e-10
-4.57519e-10
-1.08684e-10
-4.70927e-10
-8.37633e-11
-4.63372e-10
-4.95281e-11
-4.42882e-10
-9.94577e-12
-4.15884e-10
3.21289e-11
-3.86173e-10
7.4649e-11
-3.55782e-10
1.16167e-10
-3.2574e-10
1.55678e-10
-2.9652e-10
1.92489e-10
-2.68307e-10
2.26124e-10
-2.41142e-10
2.56265e-10
-2.14994e-10
2.82706e-10
-1.89808e-10
3.05323e-10
-1.65534e-10
3.24053e-10
-1.42146e-10
3.38885e-10
-1.19658e-10
3.49859e-10
-9.81378e-11
3.5708e-10
-7.77102e-11
3.60732e-10
-5.859e-11
3.61093e-10
-4.10919e-11
3.58556e-10
-2.56706e-11
3.53665e-10
-1.29505e-11
3.47109e-10
-3.72661e-12
3.39793e-10
1.00328e-12
3.32846e-10
-5.61157e-14
3.27618e-10
-8.45656e-12
3.25686e-10
-2.62925e-11
3.25752e-10
-5.84463e-11
3.14999e-10
-1.19221e-10
2.93409e-10
-2.03486e-10
2.68417e-10
-3.07183e-10
2.46646e-10
-4.30267e-10
2.28395e-10
-5.78532e-10
2.13324e-10
-7.39661e-10
1.97709e-10
-8.863e-10
1.87469e-10
-1.0178e-09
1.86181e-10
-1.14654e-09
1.92482e-10
-1.26075e-09
2.04102e-10
-1.35432e-09
2.19933e-10
-1.42862e-09
2.37903e-10
-1.48302e-09
2.55245e-10
-1.51499e-09
2.69307e-10
-1.52364e-09
2.77877e-10
-1.50991e-09
2.79446e-10
-1.47332e-09
2.73514e-10
-1.41605e-09
2.60604e-10
-1.34083e-09
2.42272e-10
-1.25193e-09
2.20906e-10
-1.15387e-09
1.99353e-10
-1.04847e-09
1.8123e-10
-9.42099e-10
1.69832e-10
-8.36771e-10
1.68803e-10
-7.33577e-10
1.81293e-10
-6.3274e-10
2.1174e-10
-5.28883e-10
2.64819e-10
-4.19231e-10
3.44847e-10
-3.02233e-10
4.55235e-10
-1.7862e-10
5.98865e-10
-3.46239e-11
7.70524e-10
1.08382e-10
9.65182e-10
2.72613e-10
1.17105e-09
4.33812e-10
1.37772e-09
5.99148e-10
1.57428e-09
7.62385e-10
1.75149e-09
9.10827e-10
1.90412e-09
1.04393e-09
2.02801e-09
1.16116e-09
2.12248e-09
1.25638e-09
2.18892e-09
1.32838e-09
2.23229e-09
1.37686e-09
2.25746e-09
1.40366e-09
2.27117e-09
1.40961e-09
2.27839e-09
1.39909e-09
2.28455e-09
1.37328e-09
2.29307e-09
1.3308e-09
2.30628e-09
1.27905e-09
2.32525e-09
1.21713e-09
2.35155e-09
1.13788e-09
2.38484e-09
1.03244e-09
2.42451e-09
9.17251e-10
2.46942e-09
7.58018e-10
2.51746e-09
5.7745e-10
2.56514e-09
3.28478e-10
2.60852e-09
6.15661e-11
2.64119e-09
-2.18677e-10
2.66007e-09
-5.0593e-10
2.66045e-09
-7.35769e-10
2.64394e-09
-8.97317e-10
2.61143e-09
-1.02018e-09
2.56803e-09
-1.08293e-09
2.51783e-09
-1.13536e-09
2.46683e-09
-1.15982e-09
2.41885e-09
-1.18282e-09
2.37657e-09
-1.21712e-09
2.34023e-09
-1.24433e-09
2.30835e-09
-1.27531e-09
2.2779e-09
-1.30255e-09
2.24484e-09
-1.32043e-09
2.20553e-09
-1.32552e-09
2.15769e-09
-1.31354e-09
2.10058e-09
-1.28629e-09
2.03531e-09
-1.24573e-09
1.96493e-09
-1.19648e-09
1.89294e-09
-1.14346e-09
1.82226e-09
-1.0827e-09
1.75643e-09
-1.02063e-09
1.69648e-09
-9.57183e-10
1.64315e-09
-8.88345e-10
1.59871e-09
-7.90948e-10
1.56148e-09
-6.92598e-10
1.53443e-09
-5.43431e-10
1.51716e-09
-3.81639e-10
1.51164e-09
-1.67834e-10
1.51982e-09
7.10893e-11
1.53858e-09
3.08632e-10
1.56654e-09
5.17359e-10
1.60074e-09
7.11464e-10
1.6382e-09
8.43259e-10
1.67797e-09
9.53619e-10
1.71983e-09
1.02827e-09
1.76368e-09
1.10245e-09
1.81046e-09
1.15149e-09
1.85876e-09
1.20039e-09
1.90668e-09
1.24846e-09
1.95169e-09
1.2913e-09
1.9911e-09
1.32855e-09
2.02414e-09
1.35713e-09
2.05029e-09
1.3769e-09
2.07081e-09
1.38414e-09
2.08839e-09
1.37811e-09
2.10529e-09
1.35936e-09
2.12509e-09
1.32565e-09
2.14938e-09
1.28342e-09
2.18035e-09
1.22814e-09
2.21925e-09
1.16105e-09
2.26679e-09
1.07262e-09
2.32319e-09
9.73001e-10
2.38714e-09
8.58774e-10
2.4583e-09
6.97948e-10
2.53361e-09
5.31192e-10
2.60899e-09
3.04103e-10
2.68018e-09
5.25761e-11
2.73914e-09
-2.11429e-10
2.78102e-09
-4.89544e-10
2.80025e-09
-7.28744e-10
2.79792e-09
-8.99434e-10
2.77576e-09
-1.01995e-09
2.74015e-09
-1.09914e-09
2.6971e-09
-1.14344e-09
2.65442e-09
-1.17288e-09
2.61686e-09
-1.21106e-09
2.58891e-09
-1.2414e-09
2.57222e-09
-1.28173e-09
2.56531e-09
-1.32663e-09
2.56473e-09
-1.37572e-09
2.56525e-09
-1.4199e-09
2.55098e-09
-1.40101e-09
2.51491e-09
-1.35596e-09
2.45782e-09
-1.33406e-09
2.37757e-09
-1.30173e-09
2.31064e-09
-9.34723e-10
2.24489e-09
-7.36283e-10
2.18049e-09
-5.8182e-10
2.12267e-09
-3.95047e-10
2.07902e-09
-2.42036e-10
2.05083e-09
-6.60774e-11
2.03674e-09
1.09801e-10
2.02677e-09
1.96902e-10
2.0099e-09
1.62651e-10
1.98754e-09
1.29151e-10
1.96148e-09
1.03381e-10
1.93319e-09
8.59568e-11
1.90354e-09
7.66954e-11
1.87286e-09
7.47643e-11
1.84104e-09
7.89781e-11
1.80782e-09
8.79895e-11
1.77284e-09
1.00408e-10
1.73575e-09
1.14938e-10
1.69616e-09
1.30511e-10
1.65367e-09
1.46452e-10
1.60785e-09
1.62609e-10
1.55827e-09
1.79299e-10
1.50442e-09
1.97197e-10
1.44566e-09
2.17273e-10
1.38126e-09
2.40771e-10
1.31032e-09
2.6928e-10
1.23169e-09
3.0491e-10
1.14378e-09
3.5072e-10
1.04424e-09
4.11542e-10
9.29711e-10
4.94974e-10
7.95778e-10
6.11703e-10
6.38215e-10
7.73021e-10