/*--------------------------------*- C++ -*----------------------------------*\
| =========                 |                                                 |
| \\      /  F ield         | OpenFOAM: The Open Source CFD Toolbox           |
|  \\    /   O peration     | Version:  2506                                  |
|   \\  /    A nd           | Website:  www.openfoam.com                      |
|    \\/     M anipulation  |                                                 |
\*---------------------------------------------------------------------------*/
FoamFile
{
    version     2.0;
    format      ascii;
    arch        "LSB;label=32;scalar=64";
    class       volVectorField;
    location    "3.45";
    object      U;
}
// * * * * * * * * * * * * * * * * * * * * * * * * * * * * * * * * * * * * * //

dimensions      [0 1 -1 0 0 0 0];

internalField   nonuniform List<vector> 
4000
(
(0.00175081 -0.000703983 6.07513e-23)
(0.00226182 -0.000505686 0)
(0.00311496 -0.000230417 3.05034e-23)
(0.00372072 -0.00012324 2.53763e-23)
(0.00410294 -7.78978e-05 2.21577e-23)
(0.00437619 -5.09916e-05 0)
(0.00458548 -3.45493e-05 1.92196e-23)
(0.0047495 -2.44733e-05 1.88335e-23)
(0.00488111 -1.79369e-05 0)
(0.00498906 -1.34315e-05 0)
(0.00507904 -1.01471e-05 3.44606e-22)
(0.0051552 -7.65428e-06 -6.64541e-22)
(0.00522008 -5.66874e-06 3.17944e-22)
(0.00527573 -3.9832e-06 -3.82954e-22)
(0.0053236 -2.50079e-06 3.81638e-22)
(0.00536483 -1.17834e-06 2.62623e-23)
(0.00540021 1.30761e-08 4.65719e-22)
(0.00543061 1.09792e-06 -4.64243e-22)
(0.00545669 2.07014e-06 3.20689e-23)
(0.0054791 2.93341e-06 0)
(0.00549845 3.69152e-06 0)
(0.00551544 4.33484e-06 -3.94851e-23)
(0.00553073 4.8384e-06 -4.23785e-23)
(0.00554516 5.2094e-06 0)
(0.00555979 5.42216e-06 -4.89354e-23)
(0.00557593 5.44244e-06 -5.26661e-23)
(0.00559528 5.16078e-06 0)
(0.00562021 4.40131e-06 0)
(0.00565398 2.76609e-06 2.23952e-21)
(0.00570348 -8.31019e-07 -2.30293e-21)
(0.00577632 -1.23273e-05 0)
(0.00583016 -4.67312e-05 -5.72903e-21)
(0.00583147 -0.00010936 8.98552e-21)
(0.00578367 -0.000198954 -3.34176e-22)
(0.00570074 -0.000313796 -4.26691e-21)
(0.0055952 -0.000459667 6.37944e-20)
(0.00549981 -0.000641681 -7.71725e-22)
(0.00539315 -0.000894386 -1.36191e-20)
(0.00520325 -0.00121739 0)
(0.00497164 -0.00154268 5.07542e-21)
(0.00478343 -0.00182131 -5.13001e-21)
(0.00463575 -0.0020512 4.05872e-20)
(0.00451865 -0.00223263 0)
(0.004431 -0.00236244 3.41032e-20)
(0.00436998 -0.00244071 -1.41168e-20)
(0.00432896 -0.00247155 1.94032e-20)
(0.00430229 -0.00245798 0)
(0.00428759 -0.00240649 -1.80099e-20)
(0.00427306 -0.00232674 -1.85007e-20)
(0.00424651 -0.00222744 -1.33933e-20)
(0.00419322 -0.00211464 0)
(0.0041116 -0.00198305 0)
(0.00400092 -0.00183919 -1.46948e-21)
(0.00384873 -0.00166145 1.11983e-20)
(0.00368918 -0.00143805 1.86648e-21)
(0.00356594 -0.00114731 -6.08365e-21)
(0.00354347 -0.000800943 -2.67743e-21)
(0.00368918 -0.000410205 3.57621e-22)
(0.00404998 -4.70757e-05 0)
(0.0045418 0.000195882 6.51043e-22)
(0.0050316 0.000326405 2.14775e-21)
(0.00547916 0.00036069 -7.10902e-22)
(0.00580428 0.000344188 -9.30205e-21)
(0.00604151 0.000308373 9.58127e-21)
(0.00619274 0.00027354 0)
(0.00628846 0.000247687 0)
(0.0063485 0.000231064 0)
(0.00638406 0.000222333 1.56145e-21)
(0.00640752 0.000218568 2.30065e-20)
(0.00642405 0.000217155 1.27244e-20)
(0.00643715 0.000216479 0)
(0.00644821 0.00021574 -1.12882e-20)
(0.00645837 0.00021371 1.12902e-20)
(0.00646833 0.000209801 1.16725e-21)
(0.00647849 0.000204143 -1.23027e-20)
(0.00648853 0.000196977 1.08848e-20)
(0.00649825 0.000188333 1.21421e-20)
(0.0065061 0.000178802 1.1402e-20)
(0.0065134 0.000168309 0)
(0.00652003 0.000156782 0)
(0.00652628 0.00014399 -2.94365e-22)
(0.00652892 0.000130558 -8.67448e-21)
(0.00653291 0.000115689 0)
(0.00653432 9.96622e-05 6.63678e-21)
(0.0065373 8.18964e-05 -5.38199e-21)
(0.00653915 6.19602e-05 0)
(0.00654495 4.15247e-05 0)
(0.00655655 2.16872e-05 -2.01982e-23)
(0.00658245 4.98985e-06 1.02562e-22)
(0.00663152 -6.08043e-07 -7.00231e-22)
(0.00670283 1.47521e-05 8.48028e-23)
(0.00679446 5.71492e-05 -6.29694e-23)
(0.00689201 0.000126033 -3.28697e-22)
(0.00698943 0.000215097 0)
(0.00707754 0.000313377 8.12154e-21)
(0.00714338 0.000407912 8.91527e-21)
(0.00718603 0.000489815 9.72618e-21)
(0.00720448 0.000551144 6.78714e-22)
(0.00720081 0.000588346 1.09456e-20)
(0.00718174 0.000603779 1.20583e-20)
(0.00715546 0.000603413 -1.9475e-22)
(0.00712965 0.000594667 1.31359e-20)
(0.00710965 0.000583832 2.57412e-20)
(0.00709689 0.000574493 6.24988e-22)
(0.00708905 0.000566543 1.24217e-20)
(0.0070802 0.000556312 0)
(0.00706294 0.000538043 -1.24851e-20)
(0.00702812 0.00050455 -1.13697e-20)
(0.00696442 0.000449197 -7.91126e-22)
(0.00686666 0.000372104 0)
(0.00673987 0.000279659 -1.02409e-20)
(0.00656064 0.000173462 9.21567e-21)
(0.00635445 7.07027e-05 0)
(0.00610694 -1.17412e-05 1.35331e-20)
(0.00585027 -5.99626e-05 2.3629e-21)
(0.00560986 -5.30365e-05 3.2323e-21)
(0.00543384 5.59129e-06 0)
(0.00536903 0.000105049 -3.48202e-22)
(0.00540277 0.000211309 1.43892e-22)
(0.00552302 0.000296913 6.12362e-23)
(0.00567217 0.000344253 -1.97438e-22)
(0.00582942 0.000362209 8.30842e-21)
(0.00596257 0.000361057 -1.0164e-20)
(0.00607671 0.000348905 -7.11099e-22)
(0.00616076 0.000332887 -1.03182e-20)
(0.0062238 0.00031752 2.32811e-20)
(0.00627196 0.000303853 -1.21179e-20)
(0.00630771 0.000292563 1.3552e-20)
(0.00633454 0.000282918 -5.77203e-22)
(0.00635571 0.000273856 1.24457e-20)
(0.00637337 0.000264691 0)
(0.00638864 0.00025494 -1.40651e-20)
(0.00640218 0.000244215 2.26143e-21)
(0.00641378 0.000232472 -1.56171e-20)
(0.00642399 0.000219658 0)
(0.00643297 0.000205712 0)
(0.00644093 0.000190544 1.28112e-20)
(0.00644868 0.000173606 -1.18221e-20)
(0.00645314 0.00015551 0)
(0.0064585 0.000135719 0)
(0.00646535 0.00011328 -9.71727e-21)
(0.00646871 8.88037e-05 2.01336e-21)
(0.00647646 6.18486e-05 -9.15757e-21)
(0.00648398 3.26291e-05 0)
(0.00649552 2.58277e-06 3.63385e-21)
(0.00651239 -2.6169e-05 1.63895e-21)
(0.00653876 -5.12386e-05 -6.74188e-22)
(0.00658339 -6.56615e-05 2.63808e-22)
(0.00665249 -5.95029e-05 0)
(0.00674148 -2.8424e-05 7.4586e-22)
(0.0068431 3.3962e-05 2.8148e-22)
(0.00694766 0.000119336 -7.00719e-21)
(0.00704321 0.000218202 1.29808e-21)
(0.00712536 0.000323619 1.25906e-22)
(0.00718524 0.000420969 5.45892e-21)
(0.00721804 0.000500394 1.94129e-21)
(0.00722458 0.000556898 0)
(0.00721125 0.000591421 0)
(0.00718642 0.000608991 0)
(0.00715745 0.000615596 -1.91228e-20)
(0.00713413 0.000618143 2.43197e-21)
(0.00712047 0.000632173 9.07835e-21)
(0.00724473 0.00068655 6.96523e-21)
(0.0072937 0.000677441 0)
(0.00719365 0.00057418 -9.30866e-21)
(0.00704437 0.000450455 -1.45815e-20)
(0.00687048 0.000332103 -2.4037e-22)
(0.00666564 0.000226691 -1.85857e-21)
(0.00642477 0.000139137 -4.34429e-21)
(0.00617983 7.72154e-05 -1.34624e-21)
(0.00599443 4.45153e-05 0)
(0.0058948 2.45139e-05 -1.2013e-23)
(0.00585008 1.35035e-05 0)
(0.00583589 8.63939e-06 -7.66162e-24)
(0.0058374 6.56831e-06 -5.84293e-24)
(0.00584499 5.6549e-06 -2.35508e-22)
(0.00585259 5.4244e-06 2.33727e-22)
(0.00585676 5.66914e-06 2.73212e-23)
(0.00585548 6.10259e-06 -2.74049e-23)
(0.00584765 6.59054e-06 -4.98135e-23)
(0.00583297 7.12942e-06 1.41656e-22)
(0.00581201 8.06783e-06 -8.49909e-23)
(0.00578557 9.12321e-06 0)
(0.00575418 1.00297e-05 5.80589e-24)
(0.00571829 1.08009e-05 -7.02546e-24)
(0.00567813 1.15237e-05 2.91654e-22)
(0.00563394 1.22423e-05 -2.73585e-22)
(0.00558473 1.32378e-05 3.71544e-22)
(0.0055301 1.43859e-05 -3.58935e-22)
(0.00546818 1.56968e-05 2.49493e-22)
(0.00539699 1.77043e-05 -2.19795e-22)
(0.00531265 2.06432e-05 1.74713e-23)
(0.00520944 2.48493e-05 1.94801e-23)
(0.00507876 3.11822e-05 0)
(0.0049071 4.17288e-05 2.43274e-23)
(0.00466766 6.13905e-05 2.73841e-23)
(0.00430729 0.000102028 2.99602e-22)
(0.00370018 0.000200934 -3.06355e-22)
(0.00267542 0.000473091 0)
(0.00197513 0.000749712 5.45572e-23)
(-1.89641e-05 -0.0014559 -1.94614e-23)
(2.49442e-05 -0.00134401 2.99361e-23)
(0.00068542 -0.00095109 -3.47468e-23)
(0.00134088 -0.000696426 1.38246e-22)
(0.00190214 -0.000526093 -3.29596e-22)
(0.00238111 -0.000407009 1.1866e-23)
(0.00278965 -0.000322858 1.58709e-22)
(0.00313699 -0.000261944 -6.45284e-23)
(0.0034332 -0.000216509 -4.31935e-23)
(0.003687 -0.000181694 -4.37603e-23)
(0.00390551 -0.00015437 -6.71197e-23)
(0.00409475 -0.000132368 -4.28645e-22)
(0.00425804 -0.000114173 4.03927e-22)
(0.00439933 -9.88011e-05 -4.23995e-22)
(0.00452117 -8.55654e-05 8.16956e-22)
(0.00462575 -7.39532e-05 -1.01168e-21)
(0.00471428 -6.36743e-05 4.14419e-22)
(0.00478836 -5.46094e-05 -6.0862e-22)
(0.00484915 -4.66958e-05 -7.24772e-22)
(0.00489794 -3.99111e-05 1.082e-21)
(0.00493582 -3.42675e-05 -7.9524e-23)
(0.00496411 -2.9804e-05 -1.46621e-21)
(0.0049838 -2.66125e-05 1.46546e-21)
(0.00499617 -2.49881e-05 1.54172e-21)
(0.00500285 -2.53554e-05 -1.5806e-21)
(0.00500581 -2.80803e-05 -5.52814e-23)
(0.00500749 -3.40642e-05 -2.0428e-21)
(0.00501106 -4.44576e-05 -3.89084e-23)
(0.00502064 -6.13576e-05 4.5826e-21)
(0.00504257 -8.84241e-05 2.89671e-22)
(0.00508367 -0.000132966 -2.57049e-21)
(0.00511033 -0.000209774 -3.03083e-21)
(0.00507167 -0.00032513 -9.53316e-21)
(0.00495606 -0.000482488 -2.05852e-20)
(0.00478303 -0.000693856 -1.5176e-20)
(0.00458164 -0.000977533 -1.73693e-20)
(0.00438724 -0.00134755 3.26831e-21)
(0.00419284 -0.00181381 1.43948e-20)
(0.00393067 -0.00234227 -4.78773e-21)
(0.00364821 -0.00285498 -1.39985e-20)
(0.00343103 -0.00330023 -1.91812e-20)
(0.00326801 -0.00366768 -2.08073e-20)
(0.00314561 -0.00395181 0)
(0.00306316 -0.00414762 -4.10387e-20)
(0.0030151 -0.0042566 2.01361e-20)
(0.00299162 -0.00428497 -2.03696e-20)
(0.00298256 -0.00424028 1.97429e-20)
(0.00298014 -0.00413435 0)
(0.00296734 -0.00398077 1.54141e-21)
(0.00292904 -0.00379114 1.64601e-20)
(0.0028514 -0.00357128 -1.55987e-20)
(0.00272937 -0.00332014 1.76202e-21)
(0.00256948 -0.00304517 1.27012e-20)
(0.00236211 -0.00273496 -2.5943e-21)
(0.00215461 -0.00236673 1.04297e-20)
(0.00198846 -0.00192026 0)
(0.00193013 -0.00141155 2.59311e-21)
(0.00204134 -0.000843462 -7.74001e-22)
(0.00238653 -0.000279359 5.61642e-23)
(0.00293315 0.000177626 -6.14535e-22)
(0.00360666 0.00048192 -2.70671e-21)
(0.00431432 0.000641767 -7.50599e-21)
(0.00492487 0.000669374 -9.55983e-21)
(0.00542255 0.000632077 -1.124e-20)
(0.00577806 0.000569189 1.47251e-21)
(0.0060247 0.000509727 -1.43819e-21)
(0.00618422 0.000469407 0)
(0.00627452 0.000451855 0)
(0.00632017 0.00045165 -2.64852e-20)
(0.00634107 0.00046222 1.2893e-20)
(0.00634621 0.000477826 1.71018e-21)
(0.006343 0.000493962 -1.65811e-20)
(0.00633805 0.000505404 -1.14891e-20)
(0.00633432 0.00050915 -1.57845e-20)
(0.00633325 0.000504353 9.18158e-22)
(0.00633599 0.000491834 8.46512e-22)
(0.00634258 0.000471991 1.40422e-20)
(0.00635125 0.000445586 -1.27622e-20)
(0.00636328 0.000413295 -7.53419e-22)
(0.00637788 0.000376064 -1.11354e-20)
(0.00639544 0.00033416 1.03547e-20)
(0.00641411 0.000287744 0)
(0.00643883 0.000236118 0)
(0.00646786 0.000179229 0)
(0.00650701 0.000118315 5.80043e-21)
(0.00655862 5.45145e-05 -1.58256e-22)
(0.00663253 -7.12505e-06 1.3206e-22)
(0.00673642 -5.92916e-05 -1.38676e-22)
(0.00687549 -8.70422e-05 -5.95917e-23)
(0.00704335 -7.13779e-05 1.73119e-21)
(0.00722427 2.62789e-07 -2.29226e-22)
(0.00740746 0.000127796 -1.78489e-23)
(0.00757307 0.000300034 5.36349e-21)
(0.00771317 0.000498847 -6.90964e-21)
(0.00781723 0.000701608 7.94053e-21)
(0.00788003 0.000887152 -8.84533e-21)
(0.00790899 0.00104047 8.99931e-21)
(0.0079117 0.00115137 1.03838e-20)
(0.00789748 0.0012189 -1.14975e-20)
(0.00787817 0.00125046 -1.17531e-20)
(0.00786391 0.00125816 0)
(0.00786119 0.00125466 1.19355e-20)
(0.00787118 0.00124934 -1.29852e-20)
(0.00788879 0.00124611 3.91774e-22)
(0.00790512 0.00124245 -1.42168e-21)
(0.00790888 0.00123009 0)
(0.00788989 0.00119807 2.44713e-20)
(0.00783862 0.00113566 2.45126e-20)
(0.00774635 0.00103605 1.07001e-20)
(0.00761265 0.000902577 9.36905e-21)
(0.0074442 0.000746708 1.06861e-20)
(0.00723049 0.000574674 -1.83596e-20)
(0.00699453 0.0004109 5.22022e-22)
(0.00672337 0.000270588 -7.18492e-21)
(0.00644121 0.000170402 5.59681e-22)
(0.00615076 0.000125207 -1.65405e-21)
(0.00586849 0.000137974 -1.06372e-22)
(0.00562922 0.000207506 3.27506e-22)
(0.00547872 0.000316425 1.35722e-22)
(0.00543094 0.000443903 -1.3325e-22)
(0.00545609 0.000550841 0)
(0.00553849 0.000625885 -9.23722e-21)
(0.00565548 0.000664755 -3.27752e-22)
(0.00578243 0.000680447 1.04383e-21)
(0.00589234 0.000680347 1.20146e-20)
(0.00598412 0.000673914 -1.34997e-20)
(0.00605646 0.00066715 -1.26996e-20)
(0.00610895 0.000662014 -2.78399e-20)
(0.00614586 0.000657987 -2.86153e-20)
(0.00617227 0.000653106 -1.33807e-20)
(0.00619167 0.000645385 -1.82288e-21)
(0.00620758 0.000633275 -1.41984e-20)
(0.00622266 0.000615809 2.94562e-20)
(0.00623762 0.000592204 -3.60973e-21)
(0.00625361 0.000562628 -1.0162e-20)
(0.00627118 0.000527513 0)
(0.00629004 0.0004873 0)
(0.00631118 0.000442177 8.63438e-22)
(0.00633204 0.000392539 2.86056e-21)
(0.00635646 0.000338037 7.73558e-21)
(0.00638499 0.000279157 2.3386e-21)
(0.00641619 0.000215298 -2.77555e-22)
(0.00645756 0.000147455 -3.18847e-21)
(0.00650764 7.70569e-05 3.03114e-21)
(0.00657687 8.4997e-06 -3.77114e-21)
(0.00667134 -5.02312e-05 0)
(0.00680106 -9.04507e-05 -2.36725e-22)
(0.00696248 -9.37954e-05 2.33565e-22)
(0.00714568 -4.2584e-05 5.54931e-22)
(0.00733569 6.88424e-05 0)
(0.00751814 0.000233021 0)
(0.00767895 0.000432772 0)
(0.00780416 0.000645807 0)
(0.0078924 0.000851323 1.42959e-20)
(0.00794381 0.00102937 3.40096e-21)
(0.00796246 0.00116747 1.85902e-21)
(0.00795913 0.00126228 -2.13001e-21)
(0.00794883 0.00132004 -1.25337e-20)
(0.0079485 0.00135302 4.1739e-21)
(0.0079701 0.00137256 9.55039e-21)
(0.008023 0.00138751 4.08678e-23)
(0.00813349 0.00140439 -7.1822e-21)
(0.00837702 0.00142575 2.11205e-21)
(0.00851819 0.00134657 -1.26802e-22)
(0.00848857 0.00117623 -9.76139e-21)
(0.0083926 0.000990322 8.23806e-21)
(0.00824499 0.000809796 0)
(0.00803052 0.000638808 0)
(0.00774161 0.000478719 1.6473e-21)
(0.00738595 0.000332679 1.06844e-21)
(0.00702672 0.000211602 -1.01357e-21)
(0.0067654 0.000116968 1.30896e-23)
(0.00660914 5.26123e-05 -6.06639e-22)
(0.00652391 1.53112e-05 5.95639e-22)
(0.00647953 -1.68984e-06 1.83461e-23)
(0.00645663 -6.48675e-06 2.39157e-22)
(0.006442 -4.6586e-06 -1.00555e-22)
(0.00642636 1.07828e-06 -1.16308e-22)
(0.0064037 9.61079e-06 -2.27527e-23)
(0.00637067 1.8928e-05 6.11891e-23)
(0.00632604 2.81465e-05 -5.94435e-23)
(0.00626965 3.73629e-05 4.15134e-24)
(0.00620195 4.58302e-05 -1.85825e-22)
(0.00612391 5.33479e-05 1.92451e-22)
(0.0060366 6.01244e-05 7.69589e-24)
(0.0059405 6.66838e-05 2.89397e-22)
(0.00583569 7.37002e-05 -3.48935e-22)
(0.00571922 8.20058e-05 4.14235e-22)
(0.00559364 9.24004e-05 -4.5567e-22)
(0.00544881 0.00010586 2.16053e-22)
(0.00528317 0.000124353 -2.79988e-22)
(0.00508796 0.00015062 1.96027e-23)
(0.00485084 0.000188423 -6.48809e-23)
(0.00455283 0.000244519 -4.10311e-22)
(0.00416499 0.000331673 4.39242e-22)
(0.00364174 0.000473317 -9.16697e-23)
(0.00291876 0.000710993 -3.47703e-23)
(0.00191723 0.00110804 1.18918e-22)
(0.000685368 0.00168398 0)
(6.18815e-05 0.00181612 -1.55726e-22)
(-0.000140434 -0.00126046 0)
(-0.000338277 -0.00152582 -1.50029e-22)
(-7.22453e-05 -0.00136979 7.01535e-23)
(0.000352253 -0.00117081 5.21949e-23)
(0.000816493 -0.000988756 -1.09589e-22)
(0.00127242 -0.000833196 1.88946e-22)
(0.00169793 -0.000704869 -1.87214e-22)
(0.00208446 -0.000600183 4.41756e-23)
(0.00243094 -0.000514568 4.39701e-23)
(0.00273935 -0.000443954 1.34315e-22)
(0.00301265 -0.000385039 4.57074e-23)
(0.00325406 -0.000335034 1.4245e-22)
(0.00346622 -0.000291848 -4.08554e-22)
(0.00365176 -0.000254063 9.40029e-22)
(0.0038128 -0.000220514 -3.72465e-22)
(0.0039512 -0.000190253 5.40462e-22)
(0.00406852 -0.000162681 -2.94487e-22)
(0.00416623 -0.000137491 1.96932e-22)
(0.00424551 -0.000114511 1.23426e-21)
(0.00430755 -9.36694e-05 -1.08351e-21)
(0.00435347 -7.49598e-05 8.064e-23)
(0.00438446 -5.83994e-05 2.55812e-22)
(0.00440171 -4.41483e-05 -1.52238e-21)
(0.0044067 -3.26974e-05 1.61685e-21)
(0.00440119 -2.47829e-05 1.75232e-21)
(0.00438733 -2.1363e-05 -1.40937e-21)
(0.00436781 -2.36837e-05 -2.02694e-21)
(0.00434592 -3.36038e-05 1.88812e-21)
(0.00432552 -5.40608e-05 0)
(0.00431223 -8.98719e-05 0)
(0.0043119 -0.000147577 0)
(0.00428695 -0.000235716 0)
(0.00418441 -0.000367269 1.2261e-20)
(0.00400325 -0.000557825 1.67106e-20)
(0.00377932 -0.000828247 -1.74314e-20)
(0.00355038 -0.00119947 3.01491e-21)
(0.00334383 -0.00168068 -2.10391e-20)
(0.00315406 -0.00225638 4.44262e-21)
(0.00292665 -0.00286861 1.77745e-20)
(0.00270607 -0.00344495 -3.31988e-21)
(0.00255353 -0.00394467 3.80619e-20)
(0.00245162 -0.00435426 0)
(0.00238538 -0.00466525 -1.82395e-20)
(0.00235471 -0.0048728 -1.79366e-20)
(0.00235284 -0.00497928 2.23265e-21)
(0.00236849 -0.00499162 1.39752e-20)
(0.00238953 -0.00491942 -3.18029e-20)
(0.00240541 -0.0047758 -1.35441e-20)
(0.00240003 -0.00457461 -2.39471e-21)
(0.00236139 -0.00432777 1.44789e-22)
(0.00228098 -0.00404333 4.74962e-21)
(0.00215789 -0.00372533 -3.02534e-21)
(0.00200429 -0.00337866 -1.13712e-21)
(0.00182261 -0.00299514 2.20351e-22)
(0.00165614 -0.00257084 8.12121e-21)
(0.00154027 -0.00210252 -2.65016e-21)
(0.00153053 -0.00160595 -2.03744e-21)
(0.00166881 -0.00109256 6.92494e-22)
(0.00200179 -0.000602795 -5.62682e-23)
(0.00251777 -0.000183429 0)
(0.00316945 0.000126004 -7.34838e-22)
(0.00390203 0.000318918 7.0547e-22)
(0.0046079 0.000385509 2.21633e-22)
(0.00523786 0.000369514 9.59238e-21)
(0.00573914 0.000308938 -9.45123e-21)
(0.00610988 0.000240826 1.01822e-20)
(0.00635932 0.000193082 0)
(0.00650697 0.000174874 0)
(0.00657827 0.000184517 2.43036e-20)
(0.00659528 0.000216088 -2.48298e-20)
(0.00658101 0.000260999 0)
(0.00655104 0.000307319 1.16138e-20)
(0.00651698 0.000346467 9.25343e-22)
(0.00648628 0.000374734 -1.07004e-20)
(0.00646254 0.000390191 1.38242e-20)
(0.00644749 0.000392072 1.12303e-20)
(0.00644191 0.000380765 -2.49581e-20)
(0.00644502 0.00035665 7.41885e-22)
(0.00645752 0.000321173 6.80052e-22)
(0.00647849 0.000275615 2.00824e-20)
(0.00650802 0.000221175 -1.92541e-20)
(0.00654732 0.000156879 -2.63462e-22)
(0.00660031 8.63088e-05 3.13978e-23)
(0.00666618 1.03924e-05 2.28385e-22)
(0.00675052 -6.58086e-05 -5.63948e-21)
(0.00685908 -0.000140017 0)
(0.00699861 -0.000200918 6.88772e-22)
(0.00716666 -0.000232662 5.21524e-24)
(0.00735901 -0.000217553 2.57694e-23)
(0.0075666 -0.00013976 -1.4368e-21)
(0.00776885 6.33134e-06 -1.36143e-22)
(0.00795295 0.000213938 -8.09205e-21)
(0.00810285 0.000465509 -5.31526e-21)
(0.00821386 0.000737729 1.25599e-20)
(0.008283 0.00100375 1.67191e-22)
(0.00831333 0.0012407 -8.52582e-21)
(0.00831744 0.00143268 -1.81269e-20)
(0.00830712 0.00157155 -1.00502e-20)
(0.0082942 0.00165974 0)
(0.00828941 0.0017079 1.05891e-20)
(0.00829879 0.00173077 0)
(0.00832308 0.00174213 -1.19089e-20)
(0.00835725 0.00175141 1.81318e-22)
(0.0083898 0.00176117 1.10179e-20)
(0.0084097 0.00176737 -1.20563e-20)
(0.00840392 0.00175955 0)
(0.00836592 0.00172572 -2.21963e-20)
(0.00829397 0.00165598 -1.12771e-20)
(0.00818621 0.00154688 -1.23425e-21)
(0.00804843 0.00140345 -1.00927e-20)
(0.00789223 0.00123627 0)
(0.0077182 0.00105427 8.19963e-21)
(0.00754575 0.000876296 0)
(0.00737012 0.000710527 -4.84134e-21)
(0.0072032 0.000563912 2.73067e-22)
(0.00703951 0.000437895 0)
(0.00686749 0.000330334 0)
(0.00667227 0.000245977 -3.21847e-22)
(0.00647144 0.000199139 0)
(0.00629362 0.000200331 1.60219e-22)
(0.00617201 0.000231884 -3.63428e-22)
(0.0061179 0.000275692 2.02473e-22)
(0.00611343 0.000314246 0)
(0.00615039 0.00034861 0)
(0.00620006 0.000373841 1.06514e-20)
(0.00625251 0.000394273 -1.21978e-20)
(0.00629602 0.000415114 2.49199e-20)
(0.00632419 0.000438117 1.32626e-20)
(0.00633908 0.000460868 2.02401e-21)
(0.00634452 0.000481282 1.19943e-20)
(0.00634406 0.000496657 -1.70774e-21)
(0.00634173 0.000503709 1.42228e-20)
(0.00634159 0.000500514 2.36554e-21)
(0.00634596 0.000485995 -1.13332e-23)
(0.00635603 0.000459779 2.56826e-21)
(0.00637289 0.000422792 -3.26587e-21)
(0.00639629 0.000376149 1.20461e-20)
(0.00642704 0.000320223 2.37215e-20)
(0.00646435 0.000254755 0)
(0.00651292 0.000180553 -1.05879e-20)
(0.00657105 0.000102447 -1.11577e-20)
(0.00664002 1.91715e-05 2.16294e-21)
(0.00672765 -6.34141e-05 5.60875e-21)
(0.00683432 -0.000142732 2.8254e-21)
(0.00696919 -0.000209832 -2.42898e-21)
(0.00713241 -0.0002507 -5.58702e-22)
(0.00732181 -0.000247382 1.53425e-22)
(0.0075322 -0.000181966 2.58363e-22)
(0.00774612 -4.46687e-05 -5.47912e-22)
(0.00794575 0.000160863 -2.95489e-21)
(0.00811779 0.000419048 1.664e-21)
(0.00825213 0.000705741 -9.62544e-22)
(0.00834275 0.000993661 -5.138e-21)
(0.00839526 0.00125844 -1.20722e-20)
(0.00841784 0.00148026 -6.90329e-21)
(0.00842189 0.00164979 0)
(0.00842307 0.00176791 -7.554e-21)
(0.00843875 0.00184473 2.26193e-20)
(0.00848677 0.00189526 1.35344e-21)
(0.00857505 0.0019294 0)
(0.00870674 0.00194776 7.80274e-21)
(0.0088928 0.00194543 0)
(0.00915071 0.0019134 0)
(0.00930836 0.00180578 5.18857e-21)
(0.0093356 0.00163974 9.42023e-21)
(0.00930635 0.0014612 0)
(0.00922751 0.00127577 0)
(0.00908913 0.00108183 -2.49892e-21)
(0.00888813 0.000877741 2.35598e-21)
(0.00861821 0.000664723 -1.62999e-22)
(0.0083036 0.000462005 -2.07946e-22)
(0.00803135 0.000297018 -7.97955e-22)
(0.00783108 0.000176854 1.93033e-23)
(0.00768943 9.77372e-05 -2.83034e-23)
(0.00758849 5.23952e-05 -3.33166e-23)
(0.00751401 3.20041e-05 -2.10108e-22)
(0.00745371 2.87555e-05 8.32159e-23)
(0.00739704 3.68679e-05 1.19741e-22)
(0.00733629 5.20473e-05 1.77109e-25)
(0.00726641 7.08076e-05 -6.74726e-23)
(0.00718476 9.04611e-05 7.34055e-23)
(0.00709018 0.000109382 -7.81645e-24)
(0.00698267 0.000127107 0)
(0.00686279 0.000143425 -1.29209e-23)
(0.00673116 0.000158578 -3.16538e-23)
(0.00658796 0.000173589 3.36598e-22)
(0.00643297 0.000189936 -2.9731e-22)
(0.0062638 0.000209144 4.14707e-22)
(0.00607936 0.000233735 -8.55327e-22)
(0.00587244 0.000266488 7.61239e-22)
(0.00563588 0.000310727 -2.62642e-22)
(0.00536142 0.00037241 -1.15681e-22)
(0.00503382 0.000460887 4.31117e-23)
(0.00462977 0.000591274 0)
(0.00411544 0.00078751 -1.60848e-22)
(0.00344461 0.00108312 6.08135e-23)
(0.0025707 0.00151133 0)
(0.00148655 0.00205732 -7.77285e-23)
(0.000361015 0.00249748 1.61747e-22)
(-8.53752e-05 0.00193637 2.61969e-22)
(-0.000101778 -0.00096415 -1.2485e-22)
(-0.000350562 -0.00148558 0)
(-0.000320906 -0.00155667 0)
(-0.000126567 -0.00148186 -1.08042e-22)
(0.000162872 -0.00134893 1.01262e-22)
(0.000494556 -0.00120368 1.90639e-22)
(0.00083563 -0.0010644 -1.89298e-22)
(0.00116741 -0.000938314 9.04591e-23)
(0.00148041 -0.000826957 0)
(0.00177011 -0.00072938 -9.1397e-23)
(0.00203468 -0.00064377 0)
(0.00227375 -0.000568052 -6.82197e-25)
(0.00248769 -0.000500406 0)
(0.0026773 -0.000439406 -1.06032e-22)
(0.00284342 -0.000383836 0)
(0.00298705 -0.000332705 0)
(0.00310914 -0.000285319 -1.25566e-22)
(0.00321068 -0.000241246 -6.8189e-22)
(0.00329254 -0.000200238 1.71414e-21)
(0.0033556 -0.000162198 -1.16363e-21)
(0.00340078 -0.000127144 0)
(0.00342911 -9.51978e-05 1.24823e-21)
(0.00344178 -6.6709e-05 -1.41739e-21)
(0.0034403 -4.23815e-05 -1.93309e-22)
(0.00342645 -2.32613e-05 0)
(0.00340251 -1.0709e-05 -1.88136e-21)
(0.0033713 -6.51684e-06 1.8697e-21)
(0.00333634 -1.31675e-05 0)
(0.00330162 -3.42166e-05 2.33317e-21)
(0.00327317 -7.48371e-05 -2.32541e-21)
(0.00325754 -0.000141308 2.71001e-21)
(0.00321669 -0.000243358 -5.40701e-21)
(0.00310252 -0.000398508 -9.27806e-21)
(0.00292807 -0.000626948 -3.5338e-21)
(0.00273875 -0.000950196 8.39337e-22)
(0.00257033 -0.00138453 -9.40566e-22)
(0.00243424 -0.00192895 -1.13333e-20)
(0.00232362 -0.00255056 1.21386e-22)
(0.00219214 -0.00318451 3.24946e-21)
(0.0020759 -0.00377177 -7.6262e-21)
(0.00201458 -0.00428107 3.205e-21)
(0.00199129 -0.00469671 -4.51292e-21)
(0.00199183 -0.00500871 3.56196e-20)
(0.00201652 -0.00521242 1.38411e-20)
(0.00205803 -0.00530996 4.30883e-21)
(0.00210462 -0.00530791 0)
(0.00214382 -0.00521614 1.36169e-21)
(0.00216526 -0.00504732 2.99131e-20)
(0.00215625 -0.00481486 1.3091e-20)
(0.00210959 -0.00453102 1.7122e-21)
(0.00202236 -0.00420576 2.42548e-20)
(0.00189817 -0.00384677 0)
(0.00175301 -0.00346105 -1.13706e-20)
(0.00159671 -0.00305042 2.02054e-22)
(0.00146602 -0.0026199 5.60107e-23)
(0.001389 -0.00217637 3.17902e-21)
(0.00140566 -0.00173547 1.20482e-21)
(0.0015453 -0.00130972 -7.79599e-22)
(0.00184188 -0.000919836 6.35131e-23)
(0.00230486 -0.000588447 -4.07911e-22)
(0.00291032 -0.000337465 1.61944e-21)
(0.00363018 -0.000174201 6.0128e-22)
(0.00438503 -0.00011229 8.55349e-21)
(0.00511877 -0.000130848 -9.65334e-21)
(0.00576612 -0.000203514 1.68709e-20)
(0.0062954 -0.000295799 1.28925e-21)
(0.00669129 -0.000373921 -1.09872e-20)
(0.00695864 -0.000419387 -1.37708e-21)
(0.00711446 -0.00042625 -1.16748e-20)
(0.00717827 -0.000396091 1.47094e-20)
(0.00717685 -0.000337493 9.68251e-21)
(0.00713247 -0.000263614 0)
(0.00706631 -0.000186651 1.22527e-20)
(0.00699349 -0.000118116 1.07673e-20)
(0.00692622 -6.50849e-05 1.46991e-21)
(0.00687186 -3.07775e-05 -2.31755e-20)
(0.00683382 -1.60452e-05 1.30997e-20)
(0.00681386 -2.12652e-05 -1.39325e-21)
(0.00681285 -4.41129e-05 1.02091e-20)
(0.00682874 -8.13212e-05 -1.02277e-20)
(0.00686059 -0.000130077 9.50643e-21)
(0.00690991 -0.000189338 -8.20966e-21)
(0.0069781 -0.000253115 7.3047e-21)
(0.00706531 -0.000319598 0)
(0.00717405 -0.000380958 1.46075e-22)
(0.0073088 -0.000432025 6.51837e-23)
(0.0074718 -0.000458291 -8.98005e-22)
(0.0076557 -0.000442768 0)
(0.0078534 -0.000369877 7.3462e-23)
(0.0080516 -0.00022801 8.0412e-22)
(0.00822927 -1.62075e-05 -3.29204e-22)
(0.00837472 0.000254354 4.39438e-21)
(0.00847759 0.000562226 4.55299e-21)
(0.00853879 0.000881352 -6.12236e-21)
(0.00856269 0.00118373 -3.21241e-22)
(0.00855924 0.00144698 7.52203e-21)
(0.00854423 0.0016563 8.81114e-21)
(0.0085304 0.00180645 5.62905e-22)
(0.00852815 0.00190304 9.39885e-21)
(0.00854303 0.0019591 -2.03814e-20)
(0.00857416 0.00199077 0)
(0.00861573 0.00201092 0)
(0.00865525 0.00202913 0)
(0.0086756 0.00204633 -1.08836e-20)
(0.00866982 0.00205567 -6.62893e-22)
(0.00863256 0.00204469 3.30528e-22)
(0.00856695 0.00200585 1.06129e-21)
(0.00846764 0.00193013 -9.05377e-21)
(0.00834474 0.00182074 -9.59612e-21)
(0.00820833 0.00167608 0)
(0.00807166 0.00150756 0)
(0.0079395 0.0013251 0)
(0.00782622 0.00114127 0)
(0.00773114 0.000959858 2.69059e-21)
(0.00766376 0.000782583 1.31646e-21)
(0.00761306 0.000604923 0)
(0.00756545 0.000422306 6.32842e-24)
(0.00750094 0.000237555 0)
(0.00741121 6.27811e-05 0)
(0.00729096 -8.39749e-05 0)
(0.00716574 -0.000191352 0)
(0.00706069 -0.000260149 -2.12397e-22)
(0.00698994 -0.000300284 6.82552e-21)
(0.00695486 -0.000314189 2.44049e-22)
(0.00694478 -0.000310831 -9.8912e-21)
(0.00695104 -0.000294308 1.13708e-20)
(0.00695777 -0.000263375 -1.20503e-20)
(0.0069542 -0.000219437 0)
(0.00693729 -0.000166526 1.2413e-20)
(0.00690893 -0.000111021 -1.12025e-20)
(0.00687315 -5.8848e-05 8.83405e-21)
(0.00683488 -1.64153e-05 -1.21126e-20)
(0.00680053 1.18085e-05 5.99716e-22)
(0.00677526 2.33641e-05 1.56103e-21)
(0.00676231 1.69143e-05 -6.57648e-22)
(0.00676363 -6.25534e-06 -8.6501e-21)
(0.00677919 -4.4096e-05 -3.74681e-21)
(0.0068093 -9.41235e-05 -1.14356e-20)
(0.00685428 -0.000156073 -2.50934e-21)
(0.00691576 -0.000224607 1.17345e-20)
(0.00699145 -0.00029442 1.73019e-20)
(0.00708449 -0.000365725 9.13326e-21)
(0.00719842 -0.000429447 -1.75382e-21)
(0.00733342 -0.000480138 -1.37858e-21)
(0.00749439 -0.000505732 9.22755e-22)
(0.00767697 -0.000489806 -3.52161e-22)
(0.00787509 -0.000415899 -3.84237e-23)
(0.00807935 -0.000271228 -6.77535e-23)
(0.00827054 -5.22201e-05 0)
(0.00843216 0.000231638 2.91507e-21)
(0.00855527 0.000559118 2.51389e-21)
(0.00863663 0.000902236 0)
(0.00867906 0.00123236 3.77207e-21)
(0.00869493 0.00152507 7.26459e-21)
(0.00869806 0.00176329 -4.56602e-21)
(0.00870401 0.00194173 5.02313e-21)
(0.00872871 0.00206471 9.40134e-21)
(0.0087862 0.0021436 -9.66701e-21)
(0.0088884 0.00219183 -7.92189e-21)
(0.00903187 0.00221114 8.99951e-21)
(0.00920582 0.00220413 -9.67011e-21)
(0.00940254 0.00216758 6.67757e-21)
(0.00960709 0.00209794 1.63405e-21)
(0.00970981 0.00197465 -8.673e-21)
(0.0097257 0.00181984 0)
(0.00970709 0.00165756 5.25365e-21)
(0.00965588 0.0014834 1.21934e-21)
(0.00957018 0.00129425 2.34785e-21)
(0.00944508 0.00108881 -2.08521e-21)
(0.00927193 0.000867235 8.39754e-22)
(0.00905302 0.000647225 -8.33617e-22)
(0.00883259 0.000459476 0)
(0.00863692 0.000313281 -3.16332e-23)
(0.00846973 0.000209194 -3.47348e-22)
(0.00832853 0.000143867 3.97368e-22)
(0.00820784 0.000110425 1.84271e-22)
(0.00810016 0.000100999 -1.66953e-22)
(0.00799817 0.000108756 6.94187e-24)
(0.00789535 0.000128146 -6.93959e-24)
(0.00778675 0.000154456 0)
(0.00766889 0.000183816 -1.23137e-22)
(0.00753719 0.000213358 1.11934e-22)
(0.00739229 0.000241488 -2.13183e-22)
(0.00723565 0.000267849 1.91664e-22)
(0.00706634 0.000293091 3.14804e-23)
(0.00688392 0.000318704 -3.71108e-23)
(0.00668745 0.000346843 0)
(0.00647466 0.000380121 0)
(0.00624279 0.000422361 -5.46976e-23)
(0.00598679 0.000478205 0)
(0.00569972 0.000553121 0)
(0.00537198 0.000656302 1.52642e-22)
(0.00498862 0.000803106 0)
(0.00452723 0.00101714 0)
(0.00395602 0.00133146 4.30509e-22)
(0.00323627 0.00178094 -2.2186e-22)
(0.00234137 0.00236817 0)
(0.00130664 0.00296933 0)
(0.000334797 0.00314881 -1.3566e-23)
(-5.65492e-05 0.00195748 -1.65788e-22)
(-6.87461e-05 -0.000757953 4.49088e-23)
(-0.000299287 -0.00135699 -1.4241e-22)
(-0.000388146 -0.00158083 -1.07964e-22)
(-0.00035701 -0.00161948 2.1511e-22)
(-0.000224687 -0.00156473 -3.91389e-22)
(-3.03256e-05 -0.00145946 1.94451e-22)
(0.000197497 -0.0013365 0)
(0.000438002 -0.00121175 -9.16512e-23)
(0.000678274 -0.00109259 0)
(0.000910189 -0.000981824 -4.65124e-22)
(0.00112874 -0.000879919 3.71923e-22)
(0.00133094 -0.00078626 -9.80322e-23)
(0.00151511 -0.0006999 -4.16392e-22)
(0.00168038 -0.000619889 3.09439e-22)
(0.0018264 -0.000545333 -1.10296e-22)
(0.00195316 -0.000475464 0)
(0.00206088 -0.000409699 -1.23203e-22)
(0.00214994 -0.000347647 4.18036e-22)