/*--------------------------------*- C++ -*----------------------------------*\
| =========                 |                                                 |
| \\      /  F ield         | OpenFOAM: The Open Source CFD Toolbox           |
|  \\    /   O peration     | Version:  2506                                  |
|   \\  /    A nd           | Website:  www.openfoam.com                      |
|    \\/     M anipulation  |                                                 |
\*---------------------------------------------------------------------------*/
FoamFile
{
    version     2.0;
    format      ascii;
    arch        "LSB;label=32;scalar=64";
    class       volVectorField;
    location    "4.85";
    object      vorticityField;
}
// * * * * * * * * * * * * * * * * * * * * * * * * * * * * * * * * * * * * * //

dimensions      [0 0 -1 0 0 0 0];

internalField   nonuniform List<vector> 
4000
(
(3.71366e-19 1.51389e-19 30.8083)
(1.38343e-20 7.12376e-20 33.3423)
(1.85277e-19 5.47032e-19 28.0383)
(2.10707e-19 7.54798e-19 22.9828)
(-3.01899e-20 8.80498e-19 19.6091)
(2.3951e-20 4.62877e-21 17.2007)
(8.5615e-20 1.03351e-18 15.3365)
(2.80936e-20 1.09111e-18 13.8701)
(-4.58048e-21 9.82984e-22 12.7003)
(-3.7072e-21 9.48789e-21 11.7473)
(4.0105e-20 2.40575e-17 10.9575)
(-4.37064e-20 -4.57812e-17 10.2953)
(5.77992e-21 2.1675e-17 9.73556)
(-3.25538e-21 -2.31293e-17 9.25979)
(-1.88305e-21 2.30342e-17 8.85421)
(1.76952e-20 1.26634e-18 8.50824)
(-1.39871e-20 2.31142e-17 8.21349)
(2.72456e-20 -2.30388e-17 7.96312)
(3.24724e-20 1.28791e-18 7.75133)
(-4.0079e-20 -1.29382e-21 7.573)
(3.91169e-21 -2.25798e-21 7.42339)
(9.29636e-20 -1.27307e-18 7.29788)
(-9.26298e-20 -1.2664e-18 7.19174)
(-1.22509e-19 -1.60768e-21 7.09983)
(1.27071e-19 -1.26578e-18 7.01627)
(6.73797e-21 -1.25468e-18 6.93404)
(1.85668e-19 5.16701e-21 6.84429)
(-2.40274e-20 1.78252e-19 6.73574)
(-5.03634e-19 4.45481e-17 6.59326)
(1.49559e-19 -4.59712e-17 6.37417)
(1.96681e-19 1.65304e-20 6.01824)
(-2.60936e-19 -9.23714e-17 5.79532)
(2.98872e-18 1.24077e-16 6.02487)
(8.5716e-18 -3.98456e-17 6.75573)
(1.10811e-17 -9.44461e-17 7.92843)
(4.56177e-17 7.51273e-16 9.53037)
(3.01068e-17 -5.7557e-17 11.3651)
(-4.39139e-17 -1.21442e-16 14.3681)
(-2.84315e-20 -2.96689e-18 19.0415)
(2.19315e-17 4.8237e-17 24.1651)
(-2.51545e-17 -5.83134e-17 29.1238)
(1.46727e-16 4.74415e-16 33.5938)
(-2.89426e-19 1.69605e-18 37.4459)
(3.10265e-16 2.86339e-16 40.6289)
(-1.45707e-16 -1.14556e-16 43.1287)
(3.71375e-19 3.33112e-16 44.9756)
(1.74224e-18 8.11369e-18 46.1357)
(-2.76398e-18 -3.41948e-16 46.735)
(-2.09948e-16 -1.91302e-16 46.8861)
(-1.61965e-16 -1.37986e-16 46.6959)
(-2.75279e-18 -5.01159e-18 46.2432)
(3.27472e-19 5.59559e-19 45.3181)
(-1.11374e-17 -2.19902e-17 44.2985)
(3.60269e-18 3.23063e-16 42.7901)
(-9.37867e-17 2.14461e-16 40.7417)
(5.71781e-18 -2.82449e-16 37.661)
(-3.60953e-17 -8.6234e-17 33.5744)
(8.94425e-18 3.66815e-17 28.2126)
(1.47535e-19 -4.46946e-19 21.8332)
(8.66808e-19 -3.45504e-17 15.4174)
(1.97677e-18 -9.29899e-17 9.86224)
(4.90127e-18 3.83541e-17 5.67774)
(-4.10456e-18 3.45657e-16 2.88851)
(3.92872e-18 -3.53283e-16 1.26183)
(-5.44216e-20 1.26708e-18 0.38097)
(-1.32296e-19 1.15761e-19 -0.00803655)
(3.50389e-21 -3.14951e-20 -0.14953)
(2.81937e-20 -4.8154e-17 -0.181796)
(-7.7763e-19 -7.1376e-16 -0.172705)
(2.49504e-19 -3.77527e-16 -0.14608)
(-2.11275e-21 1.19236e-19 -0.116735)
(-9.59341e-20 3.21437e-16 -0.0917412)
(-1.71246e-20 -3.14519e-16 -0.0721402)
(-1.94091e-19 -4.42385e-17 -0.0576553)
(2.23703e-19 3.40827e-16 -0.0470494)
(-6.85457e-20 -2.88139e-16 -0.0392436)
(-1.74449e-19 -3.17593e-16 -0.0334191)
(-9.98289e-20 -3.04626e-16 -0.0290098)
(9.8726e-21 -1.28444e-19 -0.025678)
(1.12446e-19 -1.09644e-19 -0.0230407)
(-1.11807e-19 8.17256e-18 -0.0209007)
(1.14644e-19 2.39313e-16 -0.0191785)
(-4.82341e-21 2.91343e-19 -0.017903)
(-1.19364e-19 -2.11626e-16 -0.0169255)
(-1.19281e-20 1.9932e-16 -0.0163979)
(1.7611e-21 1.36986e-19 -0.0164127)
(-8.96593e-21 -6.88482e-21 -0.0173503)
(1.8671e-20 1.00659e-17 -0.0192866)
(1.50219e-20 3.50854e-17 -0.0227108)
(1.05449e-19 -8.48037e-17 -0.0284557)
(-9.01303e-21 -8.01025e-20 -0.0370347)
(-8.82704e-20 3.42988e-19 -0.0495575)
(1.83454e-19 -1.42305e-17 -0.0669655)
(-2.06778e-19 -4.3716e-19 -0.0909334)
(4.5391e-19 2.57884e-16 -0.121657)
(-5.81518e-19 2.72178e-16 -0.159576)
(5.55447e-19 2.77469e-16 -0.203489)
(3.31952e-19 1.89351e-17 -0.253485)
(-1.15873e-18 3.01011e-16 -0.298467)
(-1.26726e-18 3.28172e-16 -0.319403)
(7.7306e-21 -5.47853e-18 -0.300798)
(1.48151e-18 3.43154e-16 -0.212026)
(9.40995e-19 6.91527e-16 -0.0255989)
(1.21211e-19 1.75322e-17 0.309412)
(4.91998e-18 3.46552e-16 0.835526)
(1.06481e-19 3.60633e-18 1.57821)
(-8.88503e-18 -3.5077e-16 2.56842)
(-1.23499e-17 -3.26128e-16 3.80666)
(5.731e-19 -2.25285e-17 5.2443)
(1.39374e-18 2.49028e-18 6.82346)
(-2.75339e-17 -3.13911e-16 8.47631)
(2.81829e-17 2.92464e-16 9.8877)
(1.23049e-19 1.10273e-18 11.0627)
(2.56277e-17 5.8195e-16 11.5746)
(-1.13046e-18 1.38129e-16 11.4223)
(7.01159e-18 2.87024e-16 10.4322)
(4.89686e-20 -6.26532e-19 8.63679)
(-9.38711e-20 7.30407e-17 6.4242)
(1.44925e-19 -9.39983e-18 4.26444)
(-6.60032e-20 -5.65733e-20 2.48697)
(-1.19835e-19 9.10489e-18 1.26964)
(1.22605e-18 -3.34831e-16 0.541847)
(-6.43494e-19 3.48537e-16 0.153594)
(2.77606e-20 2.1319e-17 -0.0221584)
(2.59686e-19 3.27265e-16 -0.0853926)
(-1.38891e-19 -6.82339e-16 -0.101855)
(-4.29542e-19 3.31653e-16 -0.0945273)
(-5.33449e-19 -3.74223e-16 -0.0804655)
(-5.36869e-19 1.06255e-19 -0.0649749)
(-2.05029e-19 -3.2281e-16 -0.0518013)
(5.1159e-22 1.94526e-19 -0.0412161)
(-1.36321e-19 3.31124e-16 -0.0330453)
(2.22259e-19 -4.03745e-17 -0.026781)
(-4.73618e-20 3.52309e-16 -0.0219938)
(-3.46543e-20 -2.03397e-20 -0.018337)
(-2.53091e-21 -2.39964e-20 -0.0155104)
(2.05557e-20 -2.80025e-16 -0.0133025)
(2.79782e-20 2.6796e-16 -0.011561)
(9.13998e-22 -2.20017e-20 -0.0102064)
(9.14818e-21 3.51446e-22 -0.00918796)
(-4.23805e-21 2.28746e-16 -0.00837293)
(-2.4977e-21 -5.37791e-17 -0.00778507)
(1.71979e-20 2.54879e-16 -0.00743866)
(1.98753e-22 -3.77597e-21 -0.00733515)
(-5.69169e-21 -1.39548e-16 -0.00761413)
(-2.04269e-21 -9.13495e-17 -0.00837431)
(1.39346e-21 6.90794e-17 -0.00980211)
(-7.49277e-22 -4.7769e-17 -0.0123096)
(3.65509e-21 -8.52749e-22 -0.0163206)
(-1.03916e-20 5.37316e-17 -0.0224664)
(-5.74954e-21 3.20457e-20 -0.0312493)
(4.03244e-20 -3.69004e-16 -0.0439057)
(-3.35237e-20 6.53656e-17 -0.0600666)
(3.73463e-19 -4.13932e-19 -0.0804748)
(1.56058e-19 2.20058e-16 -0.103987)
(-6.22503e-20 7.72708e-17 -0.122028)
(-3.72738e-20 -2.26798e-20 -0.125539)
(-2.86326e-19 -3.14363e-19 -0.0980882)
(2.24373e-19 1.0039e-18 -0.0215412)
(-1.19917e-18 -7.22494e-16 0.144016)
(3.56912e-19 9.20823e-17 0.443811)
(4.5011e-18 3.83962e-16 0.909052)
(-4.15204e-19 3.07126e-16 1.7343)
(-5.22173e-21 3.36849e-19 2.32422)
(3.45413e-19 -3.07123e-16 2.99992)
(-5.88207e-18 -5.02408e-16 3.5756)
(-1.54431e-19 -1.43624e-19 3.99541)
(-1.27332e-18 -6.50491e-17 4.21165)
(-1.07745e-18 -1.89061e-16 4.13444)
(-5.49689e-19 -5.90649e-17 3.74369)
(4.54042e-19 2.66928e-19 3.20627)
(-4.14464e-21 -9.06871e-19 2.80002)
(5.58915e-19 5.88793e-22 2.56929)
(-5.42691e-19 -9.14739e-19 2.45897)
(-9.73493e-20 -1.3964e-18 2.42456)
(3.13924e-20 -5.94908e-17 2.45013)
(-6.05539e-19 6.05845e-17 2.52857)
(-1.40288e-19 2.84267e-17 2.6536)
(7.90746e-19 -2.99583e-17 2.82053)
(-1.95102e-20 2.75127e-17 3.0252)
(5.25654e-19 -5.82321e-17 3.2625)
(-3.92924e-19 2.84622e-17 3.52824)
(-7.23102e-19 -4.01624e-19 3.81999)
(7.24642e-19 -8.18026e-19 4.13564)
(-6.02978e-20 1.84127e-19 4.47359)
(1.70711e-18 -2.77034e-17 4.83335)
(-1.76279e-18 2.6489e-17 5.21594)
(2.02424e-18 -2.68474e-17 5.62432)
(-2.05675e-18 2.63814e-17 6.0642)
(1.09442e-18 -1.42734e-17 6.54543)
(-1.15757e-18 1.28445e-17 7.08432)
(6.69367e-20 -1.19123e-18 7.70777)
(-8.9154e-20 -6.84228e-19 8.46091)
(-8.83881e-19 -1.01385e-20 9.42138)
(1.01196e-18 -7.0744e-19 10.7275)
(-1.18735e-19 -1.12847e-18 12.634)
(8.13876e-19 -5.07623e-18 15.6595)
(-6.63671e-19 6.12488e-18 20.9666)
(-7.33573e-21 -6.87809e-19 29.0024)
(-2.34281e-20 -4.60789e-20 28.8102)
(-3.13394e-21 -2.05256e-19 -2.17925)
(3.07457e-19 -1.31356e-19 10.0422)
(-1.50443e-19 -6.10911e-19 12.9893)
(1.15076e-18 1.58991e-18 13.4332)
(-1.94019e-18 -7.34791e-18 13.0912)
(3.38831e-19 -1.0103e-18 12.4632)
(6.64318e-19 4.50448e-18 11.7692)
(-2.3296e-19 -2.28731e-18 11.1037)
(-1.60281e-19 -1.36538e-18 10.4958)
(-1.22372e-19 -1.47383e-18 9.95012)
(-1.20228e-19 -2.7609e-18 9.46389)
(-5.20035e-19 -1.79139e-17 9.03219)
(4.16553e-19 1.74189e-17 8.64957)
(-2.73854e-19 -1.69904e-17 8.31077)
(4.7864e-19 3.23636e-17 8.01112)
(-5.1213e-19 -3.77799e-17 7.74654)
(1.78657e-19 1.55109e-17 7.51342)
(-2.00752e-19 -1.97106e-17 7.30862)
(-1.72917e-19 -2.11805e-17 7.12925)
(2.42948e-19 3.36393e-17 6.97265)
(-1.26466e-20 -2.0776e-18 6.83624)
(-1.85119e-19 -3.65089e-17 6.71741)
(2.20108e-19 3.72383e-17 6.61343)
(1.2477e-20 3.36917e-17 6.52127)
(-2.47e-19 -3.45614e-17 6.43747)
(1.11007e-19 -7.60025e-19 6.35791)
(2.57135e-20 -3.57231e-17 6.27752)
(-3.04016e-19 2.37623e-18 6.18993)
(7.40108e-19 7.13888e-17 6.08628)
(8.22604e-20 1.0312e-18 5.95318)
(-4.81153e-19 -3.59175e-17 5.77065)
(-1.55486e-18 -3.57068e-17 5.53395)
(-5.89294e-18 -1.07259e-16 5.33313)
(-1.62118e-17 -2.21314e-16 5.17156)
(-1.39429e-17 -1.57717e-16 4.99998)
(-1.57222e-17 -1.97762e-16 4.78703)
(2.74725e-17 -5.60826e-18 4.57708)
(3.99039e-17 1.3418e-16 4.56012)
(-2.53032e-17 -3.15454e-17 4.76472)
(-9.98242e-17 -9.2637e-17 5.12312)
(-1.47907e-16 -1.24213e-16 5.72866)
(-1.47992e-16 -1.74991e-16 6.5174)
(-2.01059e-18 8.30543e-19 7.37653)
(-3.52137e-16 -3.40882e-16 8.24658)
(1.85512e-16 1.64974e-16 9.0908)
(-2.58714e-16 -1.4405e-16 9.8891)
(2.58057e-16 1.34529e-16 10.5996)
(1.84204e-19 3.25235e-18 11.2355)
(-3.95622e-17 4.57718e-17 11.7958)
(1.83385e-16 1.64793e-16 12.3194)
(-2.36732e-16 -1.13884e-16 12.7422)
(2.43324e-17 8.05418e-18 13.1148)
(2.02663e-16 9.50333e-17 13.5188)
(-4.06096e-17 -2.2914e-17 13.9413)
(1.27404e-16 1.34658e-16 14.4476)
(-9.65634e-20 1.69219e-18 15.0179)
(3.76902e-17 7.60604e-17 15.587)
(-1.66339e-17 -4.81866e-17 15.9146)
(-2.43448e-18 -5.83468e-18 15.5404)
(-5.1218e-19 2.53428e-17 14.0332)
(-4.61879e-18 1.05606e-16 11.5117)
(-6.49047e-18 2.61544e-16 8.4546)
(-9.4005e-18 3.20907e-16 5.56342)
(-3.26102e-18 3.46324e-16 3.33043)
(-8.61205e-19 -4.55443e-17 1.77751)
(7.62479e-19 4.52269e-17 0.815914)
(1.6515e-20 -1.36515e-19 0.283428)
(-9.02881e-20 6.47466e-19 0.0214871)
(1.93598e-18 7.52797e-16 -0.075021)
(-1.51369e-18 -3.74452e-16 -0.109948)
(-1.08771e-19 -4.59049e-17 -0.112163)
(1.01211e-18 4.54987e-16 -0.10133)
(6.09089e-19 3.11746e-16 -0.084526)
(2.69982e-19 3.90705e-16 -0.0688751)
(1.45057e-19 4.335e-19 -0.0558877)
(-2.15282e-21 -2.03621e-17 -0.0457439)
(-8.76707e-20 -3.55407e-16 -0.0380347)
(2.03587e-19 3.02124e-16 -0.0321582)
(3.70965e-21 1.80727e-17 -0.0277646)
(-1.35065e-20 2.8505e-16 -0.0244014)
(4.86449e-20 -2.70452e-16 -0.021803)
(-1.08718e-19 -6.52633e-20 -0.0196507)
(2.2911e-22 -1.52551e-22 -0.0180612)
(1.1558e-19 9.58705e-20 -0.0166926)
(-8.41296e-20 -2.12941e-16 -0.0157273)
(4.4251e-21 5.95442e-18 -0.0149199)
(-3.84047e-20 -1.17715e-17 -0.0144611)
(-6.15581e-21 1.23242e-17 -0.0141719)
(-5.05082e-20 -1.19103e-17 -0.0140149)
(-1.07136e-19 2.06786e-16 -0.0140294)
(-1.10123e-20 -1.26111e-17 -0.0142434)
(-3.64319e-19 1.32876e-17 -0.0142955)
(-3.87032e-19 2.29819e-16 -0.014051)
(7.64239e-19 -2.59337e-16 -0.0129374)
(-6.49736e-19 2.73596e-16 -0.00974752)
(4.62896e-20 -2.71383e-16 -0.00521985)
(-1.64596e-18 2.74485e-16 0.00683045)
(-1.41278e-18 3.07081e-16 0.0302061)
(8.0199e-19 -3.13259e-16 0.0637642)
(1.31622e-18 -3.15555e-16 0.116257)
(1.35265e-20 -1.62795e-18 0.199503)
(-1.27662e-18 3.35371e-16 0.315351)
(-1.81728e-18 -3.46603e-16 0.474419)
(1.11549e-18 1.08354e-17 0.678258)
(8.03434e-19 -2.19684e-17 0.942426)
(-1.25014e-19 -3.84273e-18 1.27761)
(2.54399e-17 6.83895e-16 1.67135)
(3.81426e-17 6.97401e-16 2.10867)
(2.75673e-17 3.18916e-16 2.57885)
(2.92104e-17 2.82603e-16 3.0681)
(2.90726e-17 3.15285e-16 3.54303)
(-6.8962e-17 -5.78865e-16 3.97921)
(2.03913e-18 1.49141e-17 4.38708)
(-2.69552e-17 -2.76717e-16 4.73758)
(3.43147e-18 2.92548e-17 5.06772)
(-6.04726e-18 -1.22316e-16 5.33469)
(-9.0749e-19 -1.40777e-17 5.43842)
(-1.64526e-18 -5.82225e-17 5.19823)
(1.3773e-20 -8.09135e-18 4.51088)
(-4.88205e-21 8.69498e-18 3.45497)
(3.01771e-21 7.81418e-19 2.33542)
(-2.15757e-18 3.25794e-16 1.40889)
(5.91763e-19 9.10937e-18 0.75034)
(1.96279e-20 -3.26339e-17 0.333759)
(5.89551e-19 -3.2716e-16 0.106034)
(-5.32477e-19 3.52344e-16 -0.00526489)
(1.2878e-18 3.51268e-16 -0.0477713)
(9.02915e-19 7.01097e-16 -0.0644149)
(7.29228e-19 6.94105e-16 -0.0633421)
(1.83622e-19 2.99127e-16 -0.0564507)
(2.35504e-20 4.20455e-17 -0.0473246)
(4.24293e-19 3.28887e-16 -0.0388411)
(-3.3666e-19 -6.41657e-16 -0.0316846)
(8.95711e-20 7.79547e-17 -0.0259299)
(1.31009e-19 2.25792e-16 -0.0214204)
(-1.31966e-20 -2.717e-20 -0.0179176)
(1.02094e-20 -5.69696e-21 -0.0151935)
(1.10253e-19 3.54309e-21 -0.0130818)
(-1.55027e-20 -6.33273e-17 -0.0114171)
(-6.8743e-20 -1.80577e-16 -0.010157)
(-1.44867e-20 -5.70825e-17 -0.00919294)
(2.47771e-21 3.02409e-21 -0.00842917)
(4.71496e-20 1.02179e-16 -0.00792846)
(-1.29884e-20 -9.69788e-17 -0.0075849)
(1.29079e-20 1.40325e-16 -0.00746341)
(4.49787e-22 -1.03481e-21 -0.00752408)
(3.51844e-22 4.63757e-17 -0.00771119)
(-5.99353e-21 -4.80691e-17 -0.00795096)
(-1.03081e-20 1.01226e-16 -0.00809605)
(-2.06881e-20 -6.20955e-21 -0.00800002)
(9.09059e-21 5.68407e-21 -0.00701992)
(9.62838e-21 7.15643e-21 -0.00496947)
(-5.86791e-20 -1.62467e-19 -0.00154679)
(-7.87307e-19 6.24857e-16 0.00679936)
(-2.47988e-19 1.46066e-16 0.0209704)
(-1.17891e-19 7.67362e-17 0.042531)
(-2.65795e-20 -7.96572e-17 0.0766347)
(2.84294e-19 -4.97405e-16 0.127349)
(4.59609e-19 1.69925e-16 0.203182)
(1.1533e-18 3.55823e-16 0.306717)
(-2.60626e-19 1.70784e-18 0.454229)
(-3.30395e-18 -2.82441e-16 0.66171)
(1.74997e-18 9.34853e-17 0.916201)
(5.47904e-20 -1.85786e-18 1.01107)
(-1.11858e-17 -3.50305e-16 1.2224)
(7.11212e-18 2.75347e-16 1.44088)
(1.68798e-20 -3.0682e-19 1.63268)
(4.41984e-19 3.90999e-19 1.83469)
(-8.5876e-19 6.27892e-17 2.02668)
(3.09176e-19 5.65528e-17 2.15667)
(-8.39039e-19 -5.30741e-17 2.18837)
(4.34757e-19 7.88818e-19 2.14862)
(-1.0035e-19 -5.82104e-17 2.08256)
(2.54322e-19 5.80776e-17 2.03057)
(6.62993e-20 2.77176e-18 2.0053)
(-3.26992e-20 5.72017e-17 2.0105)
(5.68145e-19 -1.97458e-18 2.04726)
(-4.08647e-19 -3.00371e-17 2.1153)
(-2.73338e-19 -2.51335e-17 2.21371)
(1.55085e-19 -2.54977e-17 2.34118)
(-4.97269e-19 2.66082e-17 2.49595)
(4.73474e-19 -5.85687e-19 2.67625)
(-2.62153e-19 2.53829e-17 2.88059)
(9.94601e-20 -2.71255e-17 3.10769)
(-7.93788e-20 -9.2619e-19 3.35661)
(4.42438e-19 -2.14633e-17 3.62697)
(-3.86381e-19 2.65481e-17 3.91923)
(4.43289e-19 -2.34042e-17 4.23507)
(-1.57624e-18 2.60702e-17 4.57799)
(1.4096e-18 -9.49865e-18 4.9544)
(-2.88592e-19 1.22989e-17 5.37535)
(-2.8916e-19 -9.11922e-19 5.85986)
(1.49433e-20 2.6611e-18 6.4407)
(-5.03814e-19 8.50433e-18 7.17492)
(1.39405e-19 -1.02944e-17 8.16109)
(-1.02313e-19 2.34337e-18 9.55699)
(-7.14807e-19 1.66292e-19 11.536)
(1.02429e-18 -9.59965e-19 13.7916)
(3.56805e-19 5.52671e-19 12.8632)
(-3.98575e-19 -1.6393e-19 -3.62445)
(-5.10321e-20 1.19211e-19 -7.68861)
(-1.73948e-18 2.21165e-19 1.14423)
(8.77906e-19 -3.12676e-19 4.87379)
(5.06344e-19 5.22959e-20 6.66361)
(-9.99392e-19 -3.99434e-19 7.48084)
(1.56699e-18 2.33828e-18 7.80822)
(-1.62237e-18 -2.28108e-18 7.8844)
(2.36497e-19 1.17952e-18 7.82939)
(1.7094e-19 1.36091e-18 7.70591)
(6.32941e-19 3.14517e-18 7.54809)
(1.17618e-19 1.57787e-18 7.37564)
(4.7898e-19 3.71958e-18 7.20011)
(-8.99263e-19 -1.12775e-17 7.0282)
(1.94215e-18 2.52927e-17 6.86373)
(-7.04519e-19 -9.84543e-18 6.70884)
(6.14702e-19 1.43582e-17 6.56462)
(-3.3653e-19 -7.90705e-18 6.43146)
(1.78991e-19 4.66323e-18 6.30933)
(6.96905e-19 2.83397e-17 6.19784)
(-6.20616e-19 -2.43885e-17 6.09634)
(1.50676e-20 1.9998e-18 6.00392)
(-4.51369e-20 4.74956e-18 5.9194)
(-2.15036e-19 -2.7104e-17 5.84131)
(4.90605e-19 2.92972e-17 5.76775)
(2.22922e-19 2.70827e-17 5.6964)
(-3.5902e-20 -2.25992e-17 5.6243)
(-7.8518e-19 -2.70973e-17 5.54768)
(3.39219e-19 2.54723e-17 5.4617)
(1.99207e-19 -1.71838e-19 5.35934)
(2.30602e-19 2.9383e-21 5.23202)
(-4.29752e-19 -1.0467e-20 5.0658)
(2.46484e-19 5.86731e-19 4.8039)
(1.07854e-17 1.12577e-16 4.46005)
(2.17733e-17 1.37315e-16 4.02439)
(-3.24258e-17 -1.24391e-16 3.47768)
(1.89914e-17 1.38276e-18 2.83113)
(-5.98289e-17 -1.54138e-16 2.15497)
(2.10254e-17 2.4824e-17 1.5999)
(1.15211e-16 1.07427e-16 1.21752)
(-3.96036e-17 -1.00884e-17 1.02066)
(3.13834e-16 2.41107e-16 1.07738)
(1.28284e-18 8.29167e-18 1.34319)
(-2.02549e-16 -1.06127e-16 1.74106)
(-2.14991e-16 -1.06811e-16 2.22747)
(2.76772e-17 8.23074e-18 2.75479)
(1.71437e-16 1.04213e-16 3.292)
(-4.51196e-16 -2.15889e-16 3.80175)
(-2.11183e-16 -9.03721e-17 4.30248)
(-7.04425e-17 -7.68816e-18 4.72893)
(-1.17984e-18 -2.55946e-18 5.13932)
(5.15139e-17 5.04002e-17 5.51965)
(-5.22754e-17 -1.86237e-17 5.84865)
(6.38809e-18 -2.62914e-17 6.18801)
(3.0825e-18 -3.06398e-19 6.54549)
(1.67121e-16 4.4825e-17 6.99261)
(-6.24027e-17 -1.44613e-17 7.56742)
(-6.13253e-17 -2.25621e-17 8.31438)
(2.96001e-17 1.51561e-17 9.22071)
(2.21307e-18 6.3598e-18 10.1393)
(1.85218e-19 8.38377e-20 10.7401)
(1.75843e-18 2.131e-17 10.6747)
(2.77738e-18 -2.46176e-17 9.59769)
(5.16581e-18 -2.44491e-17 7.74201)
(1.18522e-17 -3.12307e-16 5.65598)
(-7.18584e-18 3.13811e-16 3.75596)
(7.04944e-18 -3.43654e-16 2.26091)
(-1.03867e-18 1.85426e-18 1.20765)
(1.78655e-20 -7.24734e-19 0.557957)
(-1.0615e-18 -7.42627e-16 0.200858)
(2.01979e-18 7.40385e-16 0.0239485)
(2.1008e-19 -7.69261e-19 -0.0466861)
(-6.12986e-19 -3.15063e-16 -0.075446)
(3.71081e-19 5.02671e-19 -0.0802977)
(7.10036e-19 3.01641e-16 -0.0750743)
(-4.5644e-19 -3.55528e-16 -0.0648197)
(-4.54568e-19 -3.04653e-16 -0.0541886)
(8.19542e-19 6.45883e-16 -0.0449193)
(-1.19574e-19 -1.84797e-17 -0.0373159)
(-1.14246e-19 -1.76305e-17 -0.0314098)
(-4.60618e-19 -5.23999e-16 -0.0268555)
(4.2497e-19 5.1396e-16 -0.0233677)
(1.12663e-19 7.8903e-18 -0.0205222)
(-1.19948e-19 8.73973e-20 -0.0183761)
(-1.88908e-21 -6.99641e-18 -0.016503)
(2.27638e-19 2.06842e-16 -0.0150321)
(-1.25519e-20 1.92458e-19 -0.0136129)
(2.8571e-20 -4.73397e-17 -0.0123613)
(-1.01138e-20 -7.36299e-19 -0.0111268)
(4.01743e-20 -3.52075e-17 -0.00976591)
(-9.45298e-20 -1.95428e-16 -0.00809693)
(-1.981e-20 -1.25728e-17 -0.00594245)
(3.71323e-19 -4.33709e-16 -0.00243138)
(2.4713e-19 -2.30236e-16 0.00287377)
(-5.57315e-19 4.86953e-16 0.0104035)
(-1.97135e-19 1.68069e-17 0.0250804)
(9.98353e-19 -2.85129e-16 0.0482438)
(1.46338e-18 -5.66243e-16 0.0829982)
(6.55711e-19 -2.96488e-16 0.133862)
(8.91146e-19 -3.08748e-19 0.200547)
(-9.75826e-19 3.1399e-16 0.283385)
(-6.4158e-21 1.7657e-18 0.385312)
(-1.00259e-18 -3.3402e-16 0.504849)
(9.43907e-19 3.87856e-18 0.645452)
(5.36079e-18 3.28701e-16 0.806429)
(-7.1399e-18 -3.40723e-16 0.986443)
(1.04774e-19 1.75084e-18 1.18076)
(-3.9313e-17 -6.57276e-16 1.3807)
(-2.63638e-17 -3.33737e-16 1.57582)
(1.16943e-18 -1.91244e-17 1.76075)
(-3.3447e-17 -3.02933e-16 1.93382)
(-1.69922e-18 -3.32747e-18 2.09189)
(3.92887e-17 2.69847e-16 2.25047)
(-1.61246e-20 4.0025e-19 2.39673)
(-3.79434e-17 -2.39248e-16 2.56296)
(1.83202e-18 1.39841e-17 2.80521)
(-6.85136e-19 -1.44646e-19 3.10576)
(-1.07362e-19 2.70958e-19 3.45737)
(1.33791e-18 5.85757e-17 3.77231)
(-6.71054e-20 -2.90728e-19 3.90631)
(1.09862e-19 -8.44853e-18 3.67137)
(-1.55137e-19 1.79273e-17 3.07767)
(1.0632e-18 -1.01489e-17 2.29847)
(7.29323e-19 -5.00054e-19 1.5421)
(-5.22142e-20 -4.50846e-19 0.92014)
(4.90631e-20 -3.63446e-16 0.482875)
(6.18335e-19 3.90535e-16 0.215248)
(-1.02311e-18 -7.22398e-16 0.068187)
(-1.46322e-19 -3.48628e-16 -0.00409886)
(5.769e-19 -2.18466e-17 -0.0333106)
(-6.02216e-19 -3.19479e-16 -0.0455369)
(1.59181e-19 4.17524e-17 -0.0466398)
(-3.22944e-19 -3.2718e-16 -0.0427039)
(-3.18186e-19 -7.97289e-17 -0.0367636)
(2.55634e-20 1.71878e-20 -0.0308264)
(1.01178e-19 -3.7266e-17 -0.0256081)
(1.31929e-20 7.21099e-17 -0.0213136)
(-1.95473e-19 -2.77199e-16 -0.0178777)
(-2.65213e-19 -5.30572e-16 -0.015185)
(4.0208e-22 7.1265e-20 -0.013043)
(8.20069e-20 2.40035e-16 -0.0113921)
(1.31658e-19 2.85025e-16 -0.0101247)
(-1.10145e-20 -5.38212e-17 -0.00908661)
(-3.06512e-20 -1.53489e-16 -0.00832416)
(-2.64413e-20 -9.73622e-17 -0.00767277)
(2.89057e-20 9.40983e-17 -0.00713359)
(4.40374e-21 2.3139e-17 -0.00660675)
(-5.14455e-21 3.31708e-21 -0.00594329)
(-7.20618e-21 -1.45096e-16 -0.00491305)
(3.98577e-21 -1.01681e-16 -0.00303336)
(5.1994e-20 -2.70388e-16 -8.99603e-05)
(-1.78504e-20 1.15434e-16 0.00461597)
(3.25604e-20 -6.13837e-17 0.0135931)
(2.04053e-19 -2.60111e-16 0.0271939)
(5.04376e-19 -5.52775e-16 0.0479356)
(2.46957e-19 -2.90699e-16 0.0772795)
(8.11184e-20 1.75957e-19 0.114012)
(1.28354e-19 -3.15493e-16 0.157955)
(5.01455e-19 9.01761e-16 0.208439)
(5.36404e-19 8.15e-17 0.266453)
(-1.64914e-19 -3.69132e-19 0.332862)
(4.14322e-18 3.44994e-16 0.412902)
(2.89587e-19 5.29114e-19 0.509671)
(-5.2404e-20 1.81321e-19 0.607701)
(6.16962e-18 2.18975e-16 0.643954)
(1.02728e-17 3.45252e-16 0.731719)
(-4.77703e-19 -5.99971e-19 0.849697)
(-3.62971e-19 -5.8587e-19 0.971571)
(-4.35158e-18 -1.16758e-16 1.10053)
(4.14396e-18 1.15371e-16 1.25574)
(-4.29318e-19 -4.21516e-19 1.40988)
(-4.2997e-19 -3.58297e-18 1.53812)
(-7.46198e-19 -5.44931e-17 1.62151)
(-4.6089e-19 2.07649e-18 1.65911)
(1.09212e-18 -3.40397e-18 1.67448)
(-6.83181e-19 -5.62433e-18 1.68431)
(2.64095e-19 -5.40581e-17 1.69906)
(1.03845e-18 -1.76279e-18 1.7252)
(-1.22905e-18 5.51055e-17 1.76683)
(3.57161e-20 -1.90481e-18 1.82653)
(-9.45794e-19 2.52599e-17 1.90589)
(2.3798e-19 -2.74603e-17 2.00577)
(5.98138e-19 2.06711e-18 2.12658)
(-1.11451e-19 3.88067e-21 2.26843)
(-1.04725e-20 1.6374e-18 2.43133)
(-1.03988e-19 1.97509e-18 2.6153)
(-1.87266e-19 -2.32361e-17 2.82056)
(3.48888e-19 2.07456e-17 3.04782)
(-2.18624e-19 -1.98442e-17 3.29877)
(-5.85404e-19 3.90097e-17 3.57667)
(7.41355e-19 -3.23811e-17 3.88749)
(2.99591e-19 1.14319e-17 4.2418)
(2.96858e-20 2.67672e-18 4.65796)
(1.96365e-19 -1.39145e-18 5.16742)
(9.0096e-19 3.8639e-19 5.82219)
(-5.41083e-19 2.37536e-18 6.69831)
(-1.31784e-19 -1.1692e-18 7.86184)
(8.08999e-20 2.61887e-19 9.16318)
(-7.02798e-19 1.42566e-19 9.44559)
(1.5916e-18 -6.20421e-19 4.46705)
(1.89668e-18 9.10291e-19 -12.8457)
(-9.22265e-19 1.98399e-19 -7.10077)
(4.45227e-20 -8.97288e-20 -1.75489)
(-1.25028e-19 5.29054e-20 1.14268)
(-1.51056e-18 4.13973e-19 2.81318)
(1.32616e-18 -4.19031e-19 3.85633)
(2.17174e-18 6.16854e-19 4.48655)
(-2.08216e-18 -4.69384e-19 4.87624)
(9.23739e-19 3.02657e-19 5.1169)
(-6.2373e-21 3.13125e-20 5.26135)
(-5.9724e-19 -1.67381e-18 5.34189)
(5.74114e-20 -1.20394e-20 5.3794)
(1.61681e-19 -9.14414e-19 5.38789)
(-2.0916e-20 6.37292e-21 5.37687)
(-2.86893e-19 -2.35713e-18 5.3529)
(3.58275e-21 -4.28665e-21 5.32054)
(-2.48827e-21 9.30296e-22 5.28298)
(-1.86502e-19 -2.66281e-18 5.24235)
(-9.19758e-19 -1.17622e-17 5.20008)
(2.10663e-18 2.75557e-17 5.15699)
(-1.3373e-18 -1.8498e-17 5.11338)
(-4.81513e-20 8.17029e-20 5.06914)
(8.00373e-19 1.64939e-17 5.02372)
(-9.08094e-19 -1.94574e-17 4.97612)
(-1.42059e-20 -1.98678e-18 4.92483)
(1.69992e-19 -1.53476e-19 4.86782)
(-6.85448e-19 -2.06584e-17 4.80235)
(5.77662e-19 2.00408e-17 4.7249)
(1.91376e-19 6.29127e-20 4.63085)
(1.13309e-18 2.01725e-17 4.51369)
(-1.25123e-18 -2.03055e-17 4.36583)
(2.04359e-18 2.07702e-17 4.17386)
(-5.0322e-18 -3.96951e-17 3.87604)
(-1.01752e-17 -6.91885e-17 3.45729)
(-4.81279e-18 -2.70371e-17 2.90529)
(-6.09976e-18 2.21835e-17 2.22782)
(6.28449e-18 -2.01213e-17 1.47149)
(-4.54161e-17 -5.85653e-17 0.723223)
(4.53603e-18 -5.17294e-19 0.112705)
(4.01369e-17 6.40272e-18 -0.317668)
(-6.85273e-17 -3.65227e-17 -0.549352)
(4.43145e-17 1.0544e-17 -0.556134)
(-4.36496e-17 -2.93943e-17 -0.380575)
(4.14819e-16 2.12678e-16 -0.0831551)
(1.64018e-16 8.87317e-17 0.298325)
(5.7216e-17 2.76773e-17 0.737225)
(-8.86974e-20 1.86026e-19 1.19431)
(1.2472e-18 7.91275e-18 1.61312)
(4.9538e-16 1.98696e-16 2.02035)
(2.11588e-16 9.19752e-17 2.39698)
(2.98637e-17 8.20058e-18 2.69499)
(4.45658e-16 1.5122e-16 2.95897)
(-1.59392e-19 7.27146e-18 3.18313)
(-2.15305e-16 -6.55087e-17 3.39237)
(1.8891e-18 -1.36217e-18 3.60793)
(1.83577e-17 -7.5893e-18 3.87487)
(7.90199e-17 1.99725e-17 4.23719)
(3.68684e-17 1.40607e-17 4.75585)
(-5.09226e-17 -1.93957e-17 5.47907)
(9.36827e-18 4.21678e-18 6.41533)
(4.20551e-18 9.56982e-18 7.45386)
(-1.81592e-17 -3.49878e-17 8.35937)
(-1.39243e-18 -1.69417e-17 8.72331)
(9.72129e-18 -2.53469e-16 8.23014)
(-1.34001e-17 3.0463e-16 7.03525)
(1.87065e-17 -5.432e-16 5.51928)
(2.56918e-18 -4.29538e-17 3.99155)
(-7.94019e-18 3.76015e-16 2.62397)
(-2.01229e-19 4.48625e-17 1.56958)
(-6.53846e-19 3.67433e-16 0.83859)
(-5.65058e-19 -4.5765e-16 0.393583)
(-7.69909e-19 -3.15166e-16 0.147238)
(-7.75209e-20 2.23262e-19 0.0243628)
(-9.43945e-19 -3.49543e-16 -0.0282709)
(-7.30015e-19 -2.98479e-16 -0.0495934)
(-6.72854e-20 -4.16821e-17 -0.0564332)
(1.3646e-18 6.44019e-16 -0.0543243)
(-6.99085e-19 -3.49454e-16 -0.0483413)
(7.41145e-20 3.73352e-17 -0.041328)
(-3.72276e-19 -2.86512e-16 -0.0348757)
(4.84536e-19 2.73265e-16 -0.0294188)
(-5.7579e-19 -2.59936e-16 -0.0250119)
(1.83515e-19 2.45794e-16 -0.0213754)
(-1.42257e-19 -2.32727e-16 -0.0185547)
(1.28674e-19 -2.04314e-19 -0.0161209)
(-1.40721e-19 -6.41994e-18 -0.0141318)
(-2.66887e-21 -6.20501e-18 -0.0122063)
(7.10702e-20 5.94335e-17 -0.0103779)
(1.09813e-20 -4.38264e-21 -0.00845916)
(8.13722e-20 5.91673e-17 -0.00619186)
(1.67733e-19 9.81601e-17 -0.00307412)
(-7.56082e-20 -2.58254e-17 0.00112589)
(2.71109e-19 2.44111e-16 0.00686364)
(-3.08209e-19 2.15137e-16 0.0176781)
(4.89971e-20 -2.4283e-16 0.0350962)
(-1.48642e-19 -1.09304e-18 0.0621552)
(-1.52803e-19 2.51327e-16 0.103318)
(-3.44984e-19 2.81936e-16 0.157946)
(3.44373e-19 1.8457e-17 0.228403)
(-1.10369e-18 2.9649e-16 0.31469)
(-1.74537e-19 -6.15677e-16 0.417023)
(1.07875e-20 -1.51481e-18 0.533985)
(7.86744e-19 8.49566e-19 0.662544)
(-4.21963e-22 1.27111e-18 0.79862)
(-7.17506e-18 -3.21699e-16 0.936688)
(5.35058e-19 -2.02157e-17 1.06953)
(4.24537e-19 9.7422e-18 1.18898)
(5.0917e-19 1.85172e-17 1.28774)
(-2.51912e-17 -2.89594e-16 1.35962)
(-3.05706e-17 -2.97038e-16 1.40571)
(8.1865e-19 -5.43019e-19 1.4324)
(0 -0 1.44756)
(-6.53018e-19 -4.29602e-19 1.48708)
(1.08739e-19 1.58895e-19 1.52509)
(1.72309e-17 1.16455e-16 1.58271)
(1.60533e-17 1.03964e-16 1.73262)
(-1.77709e-19 -2.05374e-19 1.95033)
(7.19866e-19 6.28303e-18 2.25524)
(3.47062e-19 -6.33422e-20 2.63049)
(5.89113e-20 -1.5384e-20 3.01243)
(-6.78214e-20 2.73469e-20 3.24186)
(9.17619e-19 -4.49757e-19 3.16717)
(-1.53402e-19 8.753e-18 2.77675)
(2.45845e-18 -3.02843e-16 2.20187)
(1.37853e-19 -9.04393e-18 1.58568)
(-1.40518e-18 3.41911e-16 1.03224)
(5.23366e-19 -3.68476e-16 0.607711)
(-1.93567e-19 3.70654e-16 0.314913)
(-2.157e-19 -3.32755e-19 0.13922)
(-4.2957e-19 -3.43717e-16 0.0431145)
(5.45549e-19 2.96524e-16 -0.00369395)
(-5.71598e-19 -2.49562e-16 -0.0242629)
(5.9236e-19 3.25628e-16 -0.0327953)
(-2.13334e-19 -3.99789e-17 -0.0344971)
(-1.04755e-19 -3.83685e-17 -0.0322326)
(2.01635e-19 3.73776e-17 -0.0282592)
(2.74097e-19 2.15223e-16 -0.0241067)
(-6.2948e-20 6.88311e-17 -0.0203589)
(1.10336e-19 2.64054e-16 -0.0172092)
(1.05792e-20 6.28012e-17 -0.0146023)
(-1.77455e-19 -2.99306e-16 -0.0125156)
(-2.36213e-19 -4.55312e-16 -0.0108587)
(-1.44733e-19 -2.69076e-16 -0.00946946)
(2.34471e-20 5.12829e-17 -0.00835617)
(2.47853e-20 4.8888e-17 -0.0073285)
(-9.79159e-21 -4.73045e-17 -0.00632154)
(6.19007e-21 2.32967e-17 -0.00517006)
(-4.45978e-21 -1.90228e-20 -0.00359075)
(3.27035e-20 1.9464e-16 -0.00132555)
(6.14298e-21 -1.1536e-20 0.00225207)
(-6.63062e-21 2.7112e-16 0.00862151)
(-6.18583e-20 1.73258e-16 0.018575)
(2.03026e-21 -7.39576e-21 0.0345105)
(-3.80385e-20 1.94728e-16 0.0581843)
(-1.19152e-19 3.43982e-16 0.0892616)
(3.38785e-19 -2.15074e-16 0.127775)
(-1.31315e-19 2.23542e-16 0.171849)
(2.90409e-19 3.90374e-16 0.219745)
(-1.05437e-18 -4.0354e-16 0.268801)
(-1.34543e-18 -3.31954e-16 0.317463)
(3.42099e-18 4.12017e-16 0.36338)
(-5.32456e-18 -4.22277e-16 0.409141)
(5.68236e-18 3.36012e-16 0.457216)
(1.57397e-18 8.44592e-17 0.500974)
(-8.47115e-18 -3.59225e-16 0.524409)
(5.01632e-19 1.29656e-18 0.570073)
(8.24301e-18 2.51535e-16 0.633085)
(2.16253e-18 6.00093e-17 0.716522)
(2.98655e-18 1.15764e-16 0.813678)
(-2.65202e-18 -1.11116e-16 0.930081)
(1.28973e-18 5.425e-17 1.05719)
(-1.28223e-18 -5.35433e-17 1.18237)
(-8.38709e-19 2.89397e-19 1.28953)
(3.0696e-19 -3.71279e-18 1.36585)
(-2.45918e-20 -4.90072e-17 1.41781)
(1.16977e-19 5.71052e-17 1.45392)
(-1.471e-18 5.11459e-17 1.482)
(-3.82102e-19 -4.57236e-17 1.50855)
(1.12877e-18 2.56165e-17 1.53876)
(4.19516e-19 -2.572e-17 1.5768)
(-2.57252e-20 8.83322e-19 1.62602)
(-1.09611e-18 2.66862e-17 1.68911)
(1.34356e-18 -2.38444e-17 1.76818)
(-1.69019e-18 2.55335e-17 1.86485)
(3.39376e-19 -2.34921e-17 1.98036)
(1.054e-18 -2.14062e-18 2.11571)
(-1.25866e-18 2.60877e-18 2.2719)
(6.03485e-19 -8.74701e-20 2.45026)
(-1.91745e-18 1.016e-19 2.653)
(3.2073e-18 2.22213e-18 2.88405)
(-2.20889e-18 -1.37667e-19 3.15031)
(2.87461e-19 -3.05443e-19 3.46376)
(6.28927e-19 -3.83046e-18 3.84457)
(-1.28853e-18 2.92518e-19 4.32502)
(1.20393e-18 -8.06035e-19 4.9505)
(2.08824e-18 -4.47853e-18 5.76181)
(-1.43275e-18 3.07902e-18 6.70632)
(5.37562e-19 -4.13514e-19 7.34527)
(-3.63682e-19 2.97355e-20 6.1523)
(-5.18893e-19 4.15447e-19 -0.34687)
(-1.84857e-18 -4.48461e-19 -14.2636)
(7.01945e-19 -5.408e-20 -5.99575)
(-1.6561e-18 5.01655e-19 -2.67416)
(-1.79436e-18 3.35547e-19 -0.499514)
(3.36082e-18 -8.8505e-19 0.852151)
(-5.99341e-18 1.59114e-18 1.7566)
(2.75801e-18 -9.15787e-19 2.40574)
(6.42404e-20 9.79435e-20 2.86132)
(-9.79683e-19 -3.65646e-19 3.19383)
(1.67065e-22 4.86646e-20 3.44166)
(-4.00087e-18 -2.40275e-18 3.62873)
(3.1463e-18 2.05323e-18 3.77091)
(-5.89357e-19 -1.06696e-18 3.87937)
(-2.16918e-18 -3.9808e-18 3.9621)
(1.65389e-18 3.13418e-18 4.02493)
(-5.12887e-19 -8.50048e-19 4.07214)