/*--------------------------------*- C++ -*----------------------------------*\
| =========                 |                                                 |
| \\      /  F ield         | OpenFOAM: The Open Source CFD Toolbox           |
|  \\    /   O peration     | Version:  2506                                  |
|   \\  /    A nd           | Website:  www.openfoam.com                      |
|    \\/     M anipulation  |                                                 |
\*---------------------------------------------------------------------------*/
FoamFile
{
    version     2.0;
    format      ascii;
    arch        "LSB;label=32;scalar=64";
    class       volVectorField;
    location    "3.7";
    object      U;
}
// * * * * * * * * * * * * * * * * * * * * * * * * * * * * * * * * * * * * * //

dimensions      [0 1 -1 0 0 0 0];

internalField   nonuniform List<vector> 
4000
(
(0.0111954 0.00100236 0)
(0.00956393 0.00132922 2.2956e-21)
(0.00740953 0.00088355 -2.38433e-21)
(0.00551697 0.000487765 -4.93511e-21)
(0.00426796 0.00026688 1.00824e-20)
(0.00344477 0.000144273 -5.11587e-21)
(0.00287328 7.55387e-05 0)
(0.00247278 3.92967e-05 0)
(0.00218909 2.01931e-05 0)
(0.00198413 8.88167e-06 -1.03027e-20)
(0.00183299 1.61494e-06 1.03317e-20)
(0.0017192 -3.21022e-06 -2.05023e-20)
(0.0016315 -6.6607e-06 2.05348e-20)
(0.00156213 -9.24598e-06 0)
(0.00150542 -1.11722e-05 0)
(0.00145706 -1.26432e-05 0)
(0.00141383 -1.38257e-05 -2.00853e-20)
(0.00137337 -1.481e-05 2.00981e-20)
(0.00133392 -1.56664e-05 0)
(0.00129421 -1.64589e-05 0)
(0.00125334 -1.72295e-05 0)
(0.00121066 -1.80012e-05 0)
(0.00116565 -1.87886e-05 0)
(0.00111785 -1.96012e-05 -3.88474e-20)
(0.00106684 -2.04443e-05 7.75365e-20)
(0.0010122 -2.13216e-05 -3.8691e-20)
(0.000953495 -2.22377e-05 0)
(0.000890273 -2.31987e-05 0)
(0.000822077 -2.42132e-05 0)
(0.000748405 -2.52766e-05 0)
(0.000668677 -2.62776e-05 3.75824e-20)
(0.000582724 -2.68726e-05 -3.76311e-20)
(0.000492828 -2.83162e-05 0)
(0.000370402 -2.42519e-05 -3.24751e-20)
(0.000243716 -7.09721e-06 -3.67996e-20)
(0.000217049 3.1545e-05 1.85159e-19)
(0.000301245 0.00010534 1.48347e-19)
(0.000435663 0.000210689 -3.74793e-20)
(0.000601047 0.000348927 1.50811e-19)
(0.000798619 0.000528264 3.42342e-19)
(0.00108742 0.000760207 -3.84366e-20)
(0.00146358 0.00102326 -3.07566e-19)
(0.00184 0.00126054 3.07652e-19)
(0.00217792 0.0014523 0)
(0.00248274 0.00160264 0)
(0.00275775 0.00171684 1.93095e-20)
(0.00302412 0.00180202 2.904e-19)
(0.00326707 0.00184892 2.91071e-19)
(0.00348589 0.00186149 1.75075e-19)
(0.00369352 0.00184025 1.55973e-19)
(0.00386811 0.00177887 -1.56279e-19)
(0.0040187 0.00168225 0)
(0.0041192 0.00154097 1.95797e-20)
(0.00417401 0.00136243 -3.3337e-19)
(0.00416387 0.00114467 0)
(0.00407856 0.000903345 7.83106e-20)
(0.00392829 0.000646907 1.94483e-20)
(0.00368256 0.000387327 -5.83442e-24)
(0.00338918 0.00014653 1.51545e-22)
(0.00301368 -7.13371e-05 9.86127e-21)
(0.00259197 -0.00024559 -1.91618e-20)
(0.00216285 -0.000368728 0)
(0.00172339 -0.000440835 0)
(0.00130999 -0.000466794 -3.73131e-20)
(0.000923574 -0.00045111 -2.60056e-19)
(0.00057809 -0.000407036 -3.63908e-20)
(0.000281013 -0.00033973 3.67799e-20)
(2.24843e-05 -0.00026137 -3.52384e-20)
(-0.000186523 -0.000176902 -1.04034e-19)
(-0.000360296 -9.37318e-05 2.38092e-19)
(-0.000496742 -1.79227e-05 3.34654e-20)
(-0.000603806 4.9954e-05 -1.07782e-21)
(-0.000690439 0.000108449 0)
(-0.000751555 0.000158113 0)
(-0.000795619 0.000198757 0)
(-0.000824666 0.000230328 1.47435e-20)
(-0.000839182 0.000253676 2.1792e-19)
(-0.000843071 0.000269849 0)
(-0.000839543 0.000279953 -1.05342e-21)
(-0.000829064 0.000285154 -1.35627e-20)
(-0.000814266 0.00028658 2.14145e-19)
(-0.000797207 0.000284888 -1.90912e-19)
(-0.00077844 0.00028085 -7.43955e-23)
(-0.00075931 0.000275077 -2.04629e-19)
(-0.000740945 0.000268017 -7.62832e-22)
(-0.000722678 0.000259924 1.92035e-19)
(-0.000705068 0.000250754 1.9124e-19)
(-0.000688872 0.000240309 -1.90986e-19)
(-0.000671679 0.000228465 2.8615e-21)
(-0.000654198 0.000215094 1.78723e-19)
(-0.000637341 0.000200017 0)
(-0.000617976 0.000183676 1.76977e-19)
(-0.000597883 0.000166216 1.62973e-19)
(-0.000577512 0.000147682 -1.65041e-19)
(-0.000553845 0.000128777 9.11171e-20)
(-0.000531176 0.000109131 -9.94177e-21)
(-0.000504951 8.97962e-05 -7.79836e-20)
(-0.000480003 7.0168e-05 -9.52546e-21)
(-0.000453168 5.21826e-05 -6.58871e-20)
(-0.000427805 3.53253e-05 -4.63004e-20)
(-0.000401134 2.16888e-05 1.8286e-20)
(-0.000375553 1.0563e-05 -4.52442e-20)
(-0.000349179 3.2529e-06 4.4969e-21)
(-0.000322218 -2.76175e-07 4.47086e-21)
(-0.000292814 -1.68788e-06 1.77821e-20)
(-0.000263098 -7.06557e-08 0)
(-0.000231253 4.30025e-06 0)
(-0.000197491 1.29292e-05 1.40611e-19)
(-0.000160485 2.58529e-05 4.48888e-21)
(-0.000119384 4.40694e-05 -7.4528e-20)
(-7.30163e-05 6.79622e-05 -7.26396e-20)
(-2.14527e-05 9.82005e-05 -2.28207e-21)
(3.81878e-05 0.000135147 7.60463e-20)
(0.000102543 0.000179067 1.56712e-22)
(0.000176868 0.000230701 0)
(0.000258827 0.000289919 -1.49388e-19)
(0.000347369 0.00035607 4.66726e-21)
(0.000445398 0.000429851 1.4057e-19)
(0.000550565 0.000510027 4.72295e-21)
(0.000661704 0.000595808 1.50841e-19)
(0.000780812 0.000687175 3.38664e-22)
(0.000906147 0.000782366 -1.51104e-19)
(0.00103505 0.000879686 -9.41591e-21)
(0.001169 0.000978717 1.70084e-19)
(0.00130711 0.00107775 -9.4782e-21)
(0.00144751 0.00117488 -1.51156e-19)
(0.00159024 0.00126883 -1.884e-20)
(0.00173393 0.00135775 1.89422e-20)
(0.00187772 0.00144057 -1.51122e-19)
(0.00202547 0.00151682 1.32111e-19)
(0.00217234 0.00158278 1.89392e-20)
(0.00231522 0.00163782 2.83415e-19)
(0.00246486 0.00168355 1.895e-20)
(0.00261315 0.00171415 1.51333e-19)
(0.00275348 0.0017292 -1.58307e-22)
(0.00290574 0.00173118 0)
(0.00304824 0.00171058 0)
(0.00318304 0.00167044 1.01089e-22)
(0.00331274 0.0016064 0)
(0.00342356 0.00151632 1.88005e-20)
(0.00351396 0.00139849 5.62208e-20)
(0.00356969 0.00125077 1.8647e-20)
(0.00357484 0.00107841 3.7079e-20)
(0.00353332 0.000884181 1.85826e-20)
(0.00341013 0.000673726 5.47251e-20)
(0.00323211 0.000461523 -1.81204e-20)
(0.00296532 0.00025367 0)
(0.00262421 7.39832e-05 0)
(0.00224373 -7.20292e-05 0)
(0.00181405 -0.000171378 1.65296e-20)
(0.00138236 -0.000225521 -1.66045e-20)
(0.000945267 -0.000229706 -6.36308e-20)
(0.000532389 -0.000195441 -6.17084e-20)
(0.000156865 -0.000125218 0)
(-0.000178747 -3.56791e-05 5.73489e-20)
(-0.00045928 6.88314e-05 0)
(-0.000692469 0.000173125 1.26005e-20)
(-0.000866119 0.000272422 -6.25945e-20)
(-0.000984958 0.000351983 1.16543e-20)
(-0.0010317 0.000388772 -1.93572e-19)
(-0.00106282 0.000343441 4.30015e-20)
(-0.000993201 0.000273517 4.1241e-20)
(-0.000902072 0.000193839 0)
(-0.000773917 0.000120822 0)
(-0.00060643 5.90848e-05 0)
(-0.00039628 2.15045e-05 0)
(-0.000126341 1.30034e-06 0)
(0.000176022 1.01015e-06 -7.90622e-21)
(0.000436647 7.16777e-06 2.6001e-22)
(0.000635675 1.35156e-05 2.47012e-22)
(0.0007807 1.95711e-05 7.36022e-21)
(0.000880272 2.47134e-05 0)
(0.000943841 2.84203e-05 -6.6259e-21)
(0.000981204 3.06084e-05 6.61146e-21)
(0.00100146 3.15707e-05 -1.95275e-22)
(0.0010123 3.17472e-05 0)
(0.00101984 3.14627e-05 0)
(0.00102841 3.06763e-05 5.39886e-21)
(0.00104042 2.92971e-05 -5.3881e-21)
(0.00105672 2.74049e-05 0)
(0.001077 2.52243e-05 0)
(0.00110006 2.29735e-05 2.044e-21)
(0.00112417 2.08297e-05 -1.24674e-22)
(0.00114736 1.88888e-05 -2.05039e-21)
(0.00116775 1.71573e-05 0)
(0.00118373 1.55822e-05 0)
(0.00119409 1.41308e-05 0)
(0.00119801 1.29749e-05 0)
(0.00119565 1.25851e-05 -8.50063e-23)
(0.00118785 1.27992e-05 0)
(0.00117534 1.3172e-05 0)
(0.00115893 1.32585e-05 0)
(0.00113953 1.30352e-05 -4.13372e-22)
(0.00111827 1.2542e-05 4.12746e-22)
(0.00109627 1.18066e-05 0)
(0.00107447 1.0865e-05 -3.31791e-23)
(0.00105367 9.75426e-06 -8.89514e-23)
(0.00103431 8.49086e-06 5.90848e-23)
(0.00101533 7.50484e-06 2.96846e-23)
(0.000996535 9.43187e-06 0)
(0.0136169 0.00174175 0)
(0.0141799 0.00308039 0)
(0.0137163 0.00276424 0)
(0.0127229 0.00224929 -4.65927e-21)
(0.0115322 0.00169875 9.51231e-21)
(0.0104356 0.00123179 -4.85174e-21)
(0.00949687 0.000874881 0)
(0.00872659 0.000622185 -9.92577e-21)
(0.00811109 0.000448403 1.00463e-20)
(0.00762608 0.000327628 -1.00504e-20)
(0.00724591 0.000243574 1.01256e-20)
(0.00694663 0.000185376 2.01719e-20)
(0.00670838 0.000144813 -2.02645e-20)
(0.00651578 0.000116677 -2.01341e-20)
(0.00635654 9.7839e-05 1.03569e-22)
(0.00622071 8.58951e-05 4.01733e-20)
(0.00610057 7.89731e-05 -2.00762e-20)
(0.00599018 7.57669e-05 0)
(0.00588496 7.52879e-05 0)
(0.00578143 7.67583e-05 0)
(0.00567696 7.9647e-05 0)
(0.00556953 8.3646e-05 0)
(0.00545744 8.85952e-05 0)
(0.00533912 9.44336e-05 0)
(0.00521306 0.000101171 0)
(0.00507768 0.00010886 0)
(0.00493124 0.000117577 0)
(0.0047718 0.000127416 0)
(0.0045972 0.000138494 0)
(0.00440486 0.000150997 0)
(0.00419175 0.000165324 3.80352e-20)
(0.00395402 0.000182547 -2.18263e-22)
(0.00369406 0.000204088 -7.5984e-20)
(0.00335926 0.000233665 3.33113e-20)
(0.00300921 0.000280903 3.78604e-20)
(0.00285126 0.000380119 -1.14343e-19)
(0.00293263 0.000579739 1.52778e-19)
(0.00315793 0.000880499 3.8393e-20)
(0.00348169 0.00127016 -3.88399e-19)
(0.00390441 0.0017413 -1.17669e-19)
(0.00449658 0.00229119 0)
(0.00522433 0.0028727 -3.95099e-20)
(0.00596465 0.00340631 -2.36973e-19)
(0.00666832 0.00385618 -3.94766e-20)
(0.00733515 0.0042173 -3.15484e-19)
(0.00796923 0.0044949 3.15487e-19)
(0.00859008 0.00469775 3.12162e-23)
(0.00917747 0.0048142 0)
(0.00973289 0.0048485 1.57954e-19)
(0.0102625 0.00479924 0)
(0.0107408 0.00466016 1.28949e-22)
(0.0111704 0.00443801 0)
(0.0115108 0.00411737 1.58229e-19)
(0.0117649 0.0037126 1.58486e-19)
(0.011897 0.00322324 0)
(0.0118933 0.00267203 -1.53985e-22)
(0.0117488 0.00207723 -7.87845e-20)
(0.011419 0.00145867 -1.96499e-20)
(0.0109605 0.000855911 -3.91115e-20)
(0.010314 0.000284871 9.89477e-21)
(0.0095404 -0.00021757 0)
(0.00867834 -0.000630698 -7.8418e-20)
(0.00774856 -0.000941936 3.94527e-20)
(0.00681478 -0.00115146 7.82671e-20)
(0.00588721 -0.00126059 2.34138e-19)
(0.0050169 -0.0012899 3.91364e-20)
(0.00421312 -0.00124715 -1.92541e-19)
(0.00349204 -0.0011583 3.8604e-20)
(0.00286243 -0.00103536 0)
(0.00231449 -0.000895334 -3.72083e-20)
(0.00185222 -0.00075414 3.72469e-20)
(0.00146414 -0.00061598 -2.10619e-21)
(0.0011393 -0.000491171 0)
(0.000879603 -0.000381127 2.82008e-19)
(0.000669163 -0.000286688 2.76633e-19)
(0.000502321 -0.000210545 -1.67569e-20)
(0.000376338 -0.000151363 1.66445e-20)
(0.000281524 -0.000106783 -1.60575e-20)
(0.000211499 -7.57491e-05 2.51968e-19)
(0.000163561 -5.57436e-05 -2.32536e-19)
(0.000131353 -4.30979e-05 2.42409e-19)
(0.000110734 -3.5248e-05 2.42272e-19)
(9.96596e-05 -3.0859e-05 -1.44094e-20)
(9.47496e-05 -2.87972e-05 2.32888e-19)
(9.37226e-05 -2.86544e-05 -2.1721e-19)
(9.59941e-05 -2.96953e-05 2.13586e-19)
(9.9373e-05 -3.15941e-05 -2.10231e-19)
(0.000103902 -3.55579e-05 2.03937e-19)
(0.000112345 -4.12633e-05 6.2179e-21)
(0.000122619 -4.80271e-05 -6.12798e-21)
(0.000135749 -5.74891e-05 0)
(0.000154716 -6.89666e-05 0)
(0.000175889 -8.11685e-05 -9.09817e-20)
(0.000200755 -9.4593e-05 9.94423e-20)
(0.000230578 -0.000106927 -8.65185e-20)
(0.00026231 -0.000118715 -2.11482e-20)
(0.000299242 -0.000127778 -1.73755e-22)
(0.000338088 -0.000134617 6.82532e-23)
(0.000381452 -0.00013674 1.78759e-19)
(0.000427898 -0.000134653 2.9174e-20)
(0.000479504 -0.00012574 -3.84137e-20)
(0.000533986 -0.000110483 3.78663e-20)
(0.000594528 -8.77231e-05 0)
(0.000657981 -5.72947e-05 4.63139e-21)
(0.000728642 -2.05806e-05 -4.63636e-21)
(0.000805835 2.34647e-05 0)
(0.000892854 7.47506e-05 0)
(0.000990485 0.000135174 -7.39254e-20)
(0.00109949 0.000205421 7.40073e-20)
(0.00122168 0.000287166 -7.66059e-20)
(0.0013581 0.000381698 1.49486e-19)
(0.00150887 0.000490282 1.59934e-23)
(0.00167691 0.000614161 2.36602e-21)
(0.00185847 0.000754061 7.59223e-20)
(0.00205907 0.000911112 0)
(0.0022759 0.00108548 0)
(0.00250686 0.00127622 0)
(0.00275514 0.00148343 -1.58857e-19)
(0.00301723 0.00170522 -1.48925e-19)
(0.00329145 0.00193958 0)
(0.00357974 0.00218501 1.74156e-19)
(0.0038792 0.00243813 -2.9044e-20)
(0.00418667 0.00269529 1.93603e-20)
(0.00450374 0.00295393 -9.71995e-21)
(0.00482888 0.00321 1.93368e-20)
(0.00516002 0.00345931 -1.55192e-19)
(0.00549705 0.00369807 1.35744e-19)
(0.0058385 0.00392206 -1.7476e-19)
(0.00618431 0.0041278 9.46727e-23)
(0.00653858 0.00431247 -1.36494e-19)
(0.00689524 0.00446966 0)
(0.00725287 0.00459688 -1.56265e-19)
(0.00762298 0.00469351 1.9485e-20)
(0.00799404 0.00475023 1.36492e-19)
(0.00836245 0.00476485 -1.5644e-19)
(0.00874736 0.00473819 1.94812e-20)
(0.00911918 0.00465657 -1.95501e-20)
(0.00948223 0.0045229 1.96855e-20)
(0.0098301 0.00432776 -1.94791e-20)
(0.0101457 0.00407005 1.92907e-20)
(0.0104177 0.00374689 -9.66042e-20)
(0.0106239 0.00335803 9.55218e-20)
(0.0107367 0.00291031 -9.54011e-20)
(0.0107496 0.00241389 0)
(0.0106093 0.00187967 -1.86191e-20)
(0.0103474 0.0013368 1.83374e-20)
(0.00990131 0.000799644 9.02333e-21)
(0.00929743 0.000306687 0)
(0.00856726 -0.000121834 1.75066e-20)
(0.00770452 -0.000460405 -3.44283e-20)
(0.00678587 -0.000702705 0)
(0.00580296 -0.000834729 6.63258e-20)
(0.00482991 -0.00087343 1.59658e-20)
(0.00388258 -0.000818735 -1.61318e-20)
(0.00300168 -0.00070297 0)
(0.00219873 -0.000534234 -6.02019e-20)
(0.00148597 -0.000344879 5.80055e-20)
(0.000878779 -0.000148332 -5.65355e-20)
(0.000377957 2.37655e-05 0)
(-1.87745e-05 0.00015182 1.03507e-19)
(-0.000232146 8.69116e-05 6.12428e-20)
(-0.000130606 -5.64802e-05 -1.04666e-19)
(8.1681e-05 -0.000208997 1.07871e-20)
(0.000396635 -0.00034544 -1.05725e-20)
(0.000822572 -0.000452528 -9.62584e-21)
(0.00135116 -0.000503243 -8.95542e-21)
(0.00199491 -0.000504539 7.88729e-21)
(0.0026706 -0.000446638 5.26181e-22)
(0.00325071 -0.0003573 0)
(0.00370739 -0.000266895 -4.83281e-22)
(0.00405613 -0.000187865 0)
(0.00431446 -0.000124075 4.47254e-22)
(0.00450083 -7.65918e-05 6.77919e-21)
(0.00463451 -4.45557e-05 -7.16834e-21)
(0.00473362 -2.56613e-05 5.98204e-22)
(0.00481328 -1.68997e-05 -6.00519e-21)
(0.00488479 -1.52517e-05 1.13629e-20)
(0.00495569 -1.81192e-05 -1.1205e-20)
(0.00503018 -2.32654e-05 5.79429e-21)
(0.00510949 -2.87081e-05 0)
(0.00519242 -3.28306e-05 -2.63745e-21)
(0.00527596 -3.45001e-05 2.471e-21)
(0.00535612 -3.31257e-05 2.66233e-22)
(0.00542867 -2.86582e-05 1.93727e-21)
(0.00548973 -2.15132e-05 -1.69798e-21)
(0.00553632 -1.24269e-05 -1.67855e-21)
(0.0055666 -2.27279e-06 1.87556e-21)
(0.00558024 8.23545e-06 -1.61366e-21)
(0.00557789 1.8792e-05 2.81597e-21)
(0.00556083 2.83253e-05 -1.7397e-21)
(0.00553136 3.65969e-05 5.90924e-22)
(0.00549254 4.29335e-05 1.252e-22)
(0.00544764 4.70233e-05 0)
(0.0053997 4.9001e-05 -2.58783e-22)
(0.00535145 4.91231e-05 3.53946e-22)
(0.0053052 4.77448e-05 -1.87012e-23)
(0.00526273 4.53029e-05 1.18219e-22)
(0.00522511 4.23408e-05 0)
(0.00519176 3.96144e-05 0)
(0.00516239 4.07348e-05 8.01527e-24)
(0.0135599 0.00102316 0)
(0.0141961 0.00223233 2.28196e-21)
(0.01475 0.00261543 -2.25492e-21)
(0.0150457 0.00256624 -4.48711e-21)
(0.0148556 0.00234825 4.5094e-21)
(0.0144631 0.00201335 0)
(0.0139349 0.00165079 0)
(0.0133669 0.00132381 0)
(0.0128238 0.00104773 9.26511e-21)
(0.0123331 0.000821952 -1.86756e-20)
(0.0119046 0.000645031 -9.30958e-21)
(0.0115367 0.000510186 1.88447e-20)
(0.0112233 0.000408386 1.87762e-20)
(0.0109572 0.000332965 -1.88722e-20)
(0.0107298 0.000278995 0)
(0.0105324 0.00024184 1.87314e-20)
(0.0103574 0.000217647 -3.74785e-20)
(0.0101982 0.000203554 1.87395e-20)
(0.010049 0.000197201 0)
(0.00990502 0.000196633 0)
(0.00976253 0.000200444 0)
(0.0096184 0.000207755 0)
(0.00946997 0.000218074 0)
(0.00931483 0.000231201 3.65544e-20)
(0.00915066 0.000247156 -3.6634e-20)
(0.00897506 0.000266118 0)
(0.00878546 0.000288376 0)
(0.00857895 0.000314317 0)
(0.00835227 0.000344438 0)
(0.00810158 0.000379425 0)
(0.00782249 0.000420317 3.58066e-20)
(0.00750892 0.000468975 -3.59473e-20)
(0.00716324 0.000528782 0)
(0.00673449 0.00060049 -2.23498e-21)
(0.0062765 0.000701859 0)
(0.00600433 0.000881567 7.23394e-20)
(0.00599404 0.00118394 -1.45208e-19)
(0.00617988 0.00161296 0)
(0.00652145 0.00215256 2.93916e-19)
(0.00701467 0.00278091 2.34109e-24)
(0.00770885 0.0034758 3.7084e-20)
(0.00855363 0.00418028 -3.71673e-20)
(0.0094362 0.0048286 2.96351e-19)
(0.0103102 0.00538942 0)
(0.0111673 0.00585213 3.32365e-19)
(0.0120058 0.00621604 -3.13608e-19)
(0.012835 0.00648637 -3.13275e-19)
(0.013635 0.00664918 0)
(0.0144068 0.0067056 -1.47112e-19)
(0.0151496 0.00665226 0)
(0.0158423 0.00648459 2.93983e-19)
(0.0164803 0.00620864 0)
(0.0170277 0.00581047 -1.2876e-19)
(0.0174837 0.00530512 -1.64994e-19)
(0.0178116 0.004692 -1.45993e-19)
(0.0179948 0.00398955 -7.29011e-20)
(0.0180201 0.0032172 -7.22743e-20)
(0.0178428 0.00239406 -3.60831e-20)
(0.0175008 0.00156157 1.80123e-20)
(0.0169315 0.000736014 2.68997e-20)
(0.0161829 -3.87132e-05 0)
(0.0152741 -0.000734767 7.13428e-20)
(0.0142265 -0.00132884 -7.12879e-20)
(0.0131037 -0.0018072 0)
(0.0119192 -0.00216232 -2.84986e-19)
(0.0107443 -0.00240471 0)
(0.00959412 -0.00253774 -3.53094e-20)
(0.00851133 -0.00258602 3.56891e-20)
(0.00751246 -0.00256204 0)
(0.00660513 -0.00248718 -3.47852e-20)
(0.00580367 -0.00238066 3.49931e-20)
(0.00509751 -0.00225108 3.7794e-19)
(0.00448385 -0.00211785 -2.38205e-19)
(0.00396182 -0.00198685 1.71862e-21)
(0.00351562 -0.00186214 -2.62852e-19)
(0.00313914 -0.0017502 -1.60923e-20)
(0.00282692 -0.00165116 2.71559e-19)
(0.00256662 -0.00156348 0)
(0.00235055 -0.00148749 2.45712e-19)
(0.00217424 -0.00142116 4.64729e-19)
(0.00203 -0.00136078 -4.47391e-19)
(0.0019109 -0.00130364 -2.37597e-19)
(0.00181151 -0.00124784 2.32246e-19)
(0.00172695 -0.00119228 -2.25764e-19)
(0.00165411 -0.00113724 0)
(0.00159068 -0.00108227 -2.09109e-19)
(0.00153313 -0.0010275 -2.69007e-21)
(0.00148195 -0.000975042 -4.06124e-19)
(0.00143895 -0.000924596 -1.83905e-19)
(0.00140077 -0.000875942 -1.97648e-19)
(0.00136894 -0.000830615 0)
(0.00134606 -0.000787652 0)
(0.00132957 -0.000745866 8.89359e-20)
(0.00132161 -0.000705717 0)
(0.00132202 -0.000664542 1.05943e-20)
(0.00132972 -0.000622674 -1.04268e-20)
(0.00134608 -0.000577806 8.12556e-20)
(0.00136965 -0.000530036 -7.96966e-20)
(0.00140132 -0.000477738 -6.83129e-20)
(0.00144165 -0.000421535 -9.61529e-21)
(0.00149217 -0.000359944 3.7716e-20)
(0.00155231 -0.000293017 -1.85956e-20)
(0.00162547 -0.00022007 1.37813e-20)
(0.00171007 -0.000140299 -4.57223e-21)
(0.00181098 -5.28366e-05 0)
(0.00192744 4.39985e-05 -3.60643e-20)
(0.00206271 0.000150992 0)
(0.00221767 0.000270061 -7.19428e-20)
(0.00239286 0.000402707 -1.35476e-22)
(0.00258982 0.000550881 7.00282e-20)
(0.00280908 0.000716389 -7.2436e-20)
(0.0030503 0.00090086 2.2744e-21)
(0.00331551 0.00110565 0)
(0.00360068 0.00133178 -7.27339e-20)
(0.00391005 0.00157987 7.29016e-20)
(0.00424052 0.00185003 0)
(0.00458954 0.00214125 -4.556e-21)
(0.00495927 0.00245258 1.50803e-19)
(0.00534615 0.00278178 1.37573e-19)
(0.00574821 0.00312613 -1.37057e-19)
(0.00616668 0.00348273 1.46231e-19)
(0.00659864 0.00384742 9.11865e-21)
(0.00704127 0.00421563 -1.37068e-19)
(0.00749568 0.00458308 -1.83387e-20)
(0.00796037 0.00494442 -1.64253e-19)
(0.00843367 0.00529424 3.28863e-19)
(0.00891544 0.00562711 -1.64602e-19)
(0.00940465 0.00593735 1.28037e-19)
(0.00990152 0.0062198 -1.09385e-19)
(0.0104092 0.00646957 -1.82387e-19)
(0.0109228 0.00667934 -1.0932e-19)
(0.0114419 0.00684518 -1.82863e-20)
(0.0119744 0.00696376 -1.27439e-19)
(0.0125107 0.0070245 -1.642e-19)
(0.0130492 0.00702466 1.81501e-20)
(0.013602 0.00696237 -1.81991e-20)
(0.0141422 0.00682588 -5.41984e-20)
(0.0146726 0.00661541 -1.77304e-20)
(0.0151827 0.00632177 1.79249e-20)
(0.0156565 0.00594489 -1.79646e-20)
(0.0160793 0.0054835 7.08985e-20)
(0.0164274 0.00493934 -1.81725e-20)
(0.016673 0.00431739 1.99147e-22)
(0.0168034 0.00363307 1.7441e-20)
(0.0167695 0.00289647 6.82745e-20)
(0.0165902 0.00213912 0)
(0.0162026 0.0013758 -3.29056e-20)
(0.015625 0.000647724 2.04937e-20)
(0.0148718 -2.03469e-05 -1.60349e-20)
(0.0139315 -0.000598609 4.6968e-20)
(0.0128732 -0.00106902 1.51206e-20)
(0.0116803 -0.00141378 -6.05819e-20)
(0.0104378 -0.00163752 -7.39564e-20)
(0.00915545 -0.00173642 2.91045e-20)
(0.00790012 -0.00173556 -7.1551e-20)
(0.00668479 -0.00164287 5.56224e-20)
(0.0055488 -0.00149302 1.33517e-20)
(0.00451054 -0.00130403 5.2335e-20)
(0.00360567 -0.00111921 -1.31292e-20)
(0.00281185 -0.000943044 5.00384e-20)
(0.00236591 -0.000963973 -4.73666e-20)
(0.00235045 -0.00107318 3.37434e-20)
(0.00253791 -0.00118115 1.07766e-20)
(0.00287797 -0.00126154 1.99161e-20)
(0.0033812 -0.00130157 0)
(0.00402084 -0.00127384 1.74807e-20)
(0.00479406 -0.00118547 -1.56759e-20)
(0.00559174 -0.00103172 -2.19199e-22)
(0.0062867 -0.000840794 2.59769e-22)
(0.00685484 -0.000649857 7.02642e-22)
(0.00731077 -0.000479805 7.15266e-21)
(0.00766937 -0.000339584 -4.23409e-22)
(0.00794684 -0.000232372 0)
(0.00816192 -0.000157358 3.92118e-22)
(0.0083335 -0.000110779 -3.76749e-22)
(0.00847832 -8.7186e-05 -6.38582e-21)
(0.00860958 -8.04453e-05 5.9859e-21)
(0.00873659 -8.43473e-05 5.15993e-21)
(0.00886475 -9.31267e-05 -5.45114e-21)
(0.00899588 -0.000101885 0)
(0.00912873 -0.000106865 2.82043e-22)
(0.00925976 -0.00010557 0)
(0.00938406 -9.67916e-05 1.68967e-21)
(0.00949624 -8.05538e-05 -1.17783e-22)
(0.00959127 -5.79106e-05 -2.02775e-21)
(0.00966512 -3.06188e-05 -4.0664e-22)
(0.00971521 -8.07069e-07 -1.88997e-22)
(0.00974062 2.93113e-05 1.74356e-22)
(0.0097419 5.75292e-05 0)
(0.009721 8.20083e-05 -1.45697e-22)
(0.00968138 0.000101739 -4.97736e-22)
(0.00962721 0.000116159 3.79245e-22)
(0.00956304 0.000125062 3.86694e-22)
(0.00949333 0.000128684 -4.76052e-22)
(0.0094222 0.000127626 0)
(0.00935317 0.00012276 -7.58176e-23)
(0.00928906 0.000115125 -1.10683e-22)
(0.0092317 0.000105936 -2.78496e-23)
(0.009182 9.61935e-05 2.7809e-23)
(0.00913601 9.029e-05 -7.51325e-24)
(0.0134698 0.00054784 0)
(0.0138393 0.00143892 0)
(0.01444 0.00195238 0)
(0.0150262 0.00217648 -4.50461e-21)
(0.0154134 0.0022144 4.48143e-21)
(0.0156443 0.00210489 0)
(0.0156326 0.00190596 0)
(0.0155205 0.00167167 0)
(0.0153244 0.00143101 0)
(0.0150726 0.00120349 0)
(0.0147997 0.00100489 0)
(0.0145291 0.000836963 1.79142e-20)
(0.0142715 0.000697507 -1.80133e-20)
(0.0140328 0.000585993 1.79255e-20)
(0.0138144 0.000500711 -3.59147e-20)
(0.0136148 0.000437683 1.79791e-20)
(0.0134319 0.000393245 1.78536e-20)
(0.0132626 0.000364546 -1.7904e-20)
(0.0131029 0.000348659 0)
(0.0129493 0.000342889 0)
(0.0127981 0.000345158 -3.5301e-20)
(0.0126464 0.000354045 3.53719e-20)
(0.0124912 0.000368662 0)
(0.0123298 0.000388586 3.49351e-20)
(0.0121597 0.000413787 -3.50054e-20)
(0.0119781 0.000444536 0)
(0.0117822 0.000481338 0)
(0.0115688 0.000524904 -3.44535e-20)
(0.0113345 0.000576161 1.97745e-22)
(0.0110752 0.000636326 3.44369e-20)
(0.0107864 0.000707078 3.41428e-20)
(0.0104617 0.000790842 -6.8313e-20)
(0.010103 0.000892146 3.41801e-20)
(0.00966971 0.00100997 -3.17806e-20)
(0.00920197 0.00116432 3.42118e-20)
(0.00888053 0.00140392 3.44294e-20)
(0.00879322 0.00176119 -3.48736e-20)
(0.00891189 0.00224068 -1.04846e-19)
(0.00921311 0.00282816 -1.75473e-19)
(0.00969261 0.0034961 -3.51158e-20)
(0.0103794 0.0042118 3.54047e-20)
(0.0112185 0.00492054 3.1825e-19)
(0.0121153 0.00557511 -3.17845e-19)
(0.013028 0.00615185 -3.1737e-19)
(0.0139437 0.00663794 7.04625e-20)
(0.0148559 0.00702703 -5.28084e-20)
(0.015767 0.0073224 1.58185e-19)
(0.016659 0.00749888 0)
(0.0175288 0.00756175 1.58012e-19)
(0.0183724 0.00750658 -1.75445e-20)
(0.0191718 0.00733218 -1.40288e-19)
(0.0199217 0.00705361 -1.7474e-20)
(0.0205963 0.00663672 1.74649e-19)
(0.0211902 0.0061031 1.22531e-19)
(0.0216745 0.00545392 1.39718e-19)
(0.0220318 0.00470773 6.90125e-20)
(0.0222486 0.00387877 1.74352e-20)
(0.0222875 0.00298195 -1.70532e-20)
(0.0221664 0.00205372 -1.69192e-20)
(0.0218316 0.00110616 -2.50183e-20)
(0.0213094 0.000181146 -1.65067e-20)
(0.0206008 -0.000694242 0)
(0.019715 -0.00149322 -6.59054e-20)
(0.018697 -0.00219247 0)
(0.0175546 -0.00277862 2.30039e-19)
(0.0163552 -0.00324633 1.31605e-19)
(0.0151145 -0.00359357 3.29582e-20)
(0.0138871 -0.0038318 0)
(0.0126966 -0.00397053 0)
(0.0115658 -0.00402694 1.30073e-19)
(0.0105209 -0.00402002 0)
(0.00955901 -0.00396055 -2.88311e-19)
(0.00869011 -0.00386924 2.85615e-19)
(0.00791633 -0.00375633 -2.66572e-19)
(0.00722742 -0.00362966 2.24248e-22)
(0.00662093 -0.00349854 2.20175e-22)
(0.00609177 -0.00336603 -2.10797e-19)
(0.00562847 -0.0032331 -2.97537e-20)
(0.00522389 -0.0031019 -2.18429e-19)
(0.00487273 -0.00297241 -2.2896e-19)
(0.00456655 -0.00284293 -1.45747e-21)
(0.00429762 -0.00271281 2.13423e-19)
(0.00405993 -0.00258065 -2.09071e-19)
(0.00384735 -0.00244573 0)
(0.0036557 -0.00230905 -3.22704e-21)
(0.00348114 -0.00217122 -2.00673e-19)
(0.0033188 -0.00203353 3.96493e-19)
(0.00316845 -0.00189936 5.85254e-19)
(0.00303018 -0.00176968 1.96067e-19)
(0.00290111 -0.00164558 -6.70953e-21)
(0.00278408 -0.00152884 0)
(0.00268141 -0.00141847 -5.55503e-21)
(0.0025909 -0.00131352 5.48278e-21)
(0.00251557 -0.00121436 0)
(0.00245546 -0.00111834 -8.36997e-20)
(0.00241051 -0.00102555 1.01722e-20)
(0.00238185 -0.000933684 -1.00427e-20)
(0.00236891 -0.000842614 -1.7089e-22)
(0.00237225 -0.00075043 -7.6973e-20)
(0.00239319 -0.000657436 9.40094e-21)
(0.00243306 -0.00056182 -1.85751e-20)
(0.00249207 -0.000463226 9.18463e-21)
(0.00257346 -0.000360201 2.89986e-24)
(0.0026762 -0.00025106 4.462e-21)
(0.00280505 -0.000134255 -4.4591e-21)
(0.00295874 -6.97549e-06 3.53665e-20)
(0.00314021 0.000132616 3.74028e-20)
(0.00334947 0.000287336 6.81409e-20)
(0.00358637 0.000459543 -1.40448e-19)
(0.0038514 0.000651581 6.79433e-20)
(0.00414404 0.000865571 2.20177e-21)
(0.00446296 0.00110321 2.18644e-21)
(0.00480902 0.00136567 -2.20347e-21)
(0.00517753 0.0016537 7.03458e-20)
(0.00557157 0.0019674 -4.57004e-21)
(0.00598738 0.00230614 3.18276e-23)
(0.00642236 0.00266869 -6.1339e-20)
(0.00687768 0.00305311 -2.15009e-19)
(0.00734997 0.00345655 1.40013e-19)
(0.00783738 0.00387572 1.40249e-19)
(0.00834065 0.00430672 -1.4882e-19)
(0.00885732 0.00474471 -1.30851e-19)
(0.00938528 0.00518459 1.31097e-19)
(0.0099254 0.00562098 1.56802e-19)
(0.0104766 0.00604769 1.30806e-19)
(0.0110378 0.00645855 -1.76551e-20)
(0.0116092 0.00684717 1.74459e-20)
(0.0121901 0.00720693 0)
(0.012781 0.00753156 1.56514e-19)
(0.013384 0.00781478 1.39009e-19)
(0.0139957 0.00804906 1.216e-19)
(0.0146155 0.00822955 0)
(0.0152477 0.00835135 1.55956e-19)
(0.0158856 0.00840333 -1.73219e-20)
(0.0165282 0.00838204 5.15668e-20)
(0.0171811 0.00828404 1.72307e-20)
(0.0178224 0.00810157 4.40867e-22)
(0.0184508 0.00783352 8.54348e-20)
(0.0190571 0.00747241 -1.70324e-20)
(0.0196271 0.00701901 8.39681e-20)
(0.0201462 0.00647428 -1.50913e-19)
(0.0205929 0.00584139 -1.33143e-19)
(0.0209462 0.00512709 -6.56546e-20)
(0.0211912 0.00434669 0)
(0.0212876 0.00351032 1.54949e-20)
(0.0212449 0.00264554 -2.36177e-22)
(0.0210119 0.00176575 -7.52245e-21)
(0.0205954 0.000907561 2.64606e-20)
(0.0199971 9.45723e-05 -1.49892e-20)
(0.0191983 -0.000646036 2.88911e-20)
(0.0182473 -0.00128951 -2.85578e-20)
(0.0171182 -0.00181875 0)
(0.0158833 -0.00222436 6.82079e-20)
(0.0145413 -0.00249989 -2.67693e-20)
(0.0131621 -0.00265526 5.29091e-20)
(0.0117551 -0.00269597 1.30694e-20)
(0.010374 -0.00264698 -6.26946e-20)
(0.00903912 -0.00252587 1.25246e-20)
(0.00782627 -0.0023794 0)
(0.00669909 -0.00220522 -5.809e-20)
(0.00599015 -0.00217333 4.50049e-22)
(0.00574423 -0.00221664 4.18729e-22)
(0.00576467 -0.00224969 3.98607e-22)
(0.00597749 -0.00224184 -1.84851e-20)
(0.00639268 -0.0021848 3.49976e-22)
(0.00696985 -0.00205787 1.56642e-22)
(0.0076917 -0.00186953 7.77754e-21)
(0.00843986 -0.00162204 -6.75084e-21)
(0.00909999 -0.00134107 -7.13239e-21)
(0.00965465 -0.00106275 -6.36855e-22)
(0.0101178 -0.000811767 6.82742e-21)
(0.0104997 -0.000601058 -8.08713e-22)
(0.0108108 -0.000436367 -6.12151e-21)
(0.0110644 -0.00031797 6.09708e-21)
(0.0112754 -0.000241722 7.19567e-22)
(0.011458 -0.00020046 6.90078e-22)
(0.0116242 -0.0001854 0)
(0.0117831 -0.000187251 -4.92393e-21)
(0.0119404 -0.000197125 4.90013e-21)
(0.0120985 -0.000207231 0)
(0.0122567 -0.000211426 5.36609e-22)
(0.0124119 -0.000205479 0)
(0.0125592 -0.000187214 -4.75409e-22)
(0.0126929 -0.000156497 -1.72715e-21)
(0.0128076 -0.000114931 1.72136e-21)
(0.0128985 -6.53358e-05 3.87949e-22)
(0.0129623 -1.12441e-05 -3.58672e-22)
(0.0129973 4.35438e-05 0)
(0.0130036 9.53518e-05 1.16227e-21)
(0.0129829 0.000141183 -1.16049e-21)
(0.0129385 0.00017873 -2.49489e-22)
(0.0128751 0.000206641 -4.20409e-22)
(0.0127976 0.000224457 4.19726e-22)
(0.0127113 0.000232527 -3.15376e-22)
(0.0126212 0.000231861 3.15014e-22)
(0.0125319 0.000223958 1.18674e-22)
(0.012447 0.00021061 7.92729e-23)
(0.0123691 0.000193879 -5.26715e-23)
(0.0123012 0.000175226 -6.62853e-23)
(0.0122317 0.000158136 0)
(0.0134504 0.000336111 0)
(0.0136046 0.000952808 0)
(0.0140007 0.00140261 0)
(0.0145602 0.00167385 -4.56983e-21)
(0.0150726 0.00180196 4.53285e-21)
(0.0154694 0.00181958 0)
(0.0157533 0.00175629 -8.89515e-21)
(0.0159427 0.00163389 8.88807e-21)
(0.0160657 0.00148091 8.82265e-21)
(0.0160757 0.00131964 -1.76406e-20)
(0.01604 0.00116323 8.82446e-21)
(0.0159643 0.00101692 0)
(0.0158584 0.000884552 0)
(0.0157342 0.000771668 -1.74868e-20)
(0.0156024 0.000679988 8.63799e-23)
(0.0154679 0.000607434 3.49192e-20)
(0.0153345 0.000552829 -1.74606e-20)
(0.0152038 0.000515485 0)
(0.0150753 0.000493149 0)
(0.0149479 0.000483391 -1.72095e-20)
(0.0148201 0.000484323 1.72389e-20)
(0.0146901 0.000494541 0)
(0.0145557 0.00051304 0)
(0.0144147 0.0005393 3.38995e-20)
(0.0142647 0.000573278 -6.77147e-20)
(0.0141035 0.000615327 3.3816e-20)
(0.0139282 0.000666132 3.34929e-20)
(0.0137361 0.000726681 -1.89868e-22)
(0.0135241 0.000798258 -6.66474e-20)
(0.0132883 0.000882502 3.32921e-20)
(0.0130251 0.000981545 3.29777e-20)
(0.0127289 0.0010981 -1.91575e-22)
(0.0124013 0.001237 -3.29382e-20)
(0.0120119 0.00139716 -3.26202e-20)
(0.0115896 0.00159676 3.2897e-20)
(0.0112759 0.00187717 0)
(0.0111558 0.00226068 1.34738e-19)
(0.0112273 0.00274799 2.69883e-19)
(0.0114824 0.00332671 0)
(0.0119189 0.00397008 -1.35806e-19)