/*--------------------------------*- C++ -*----------------------------------*\
| =========                 |                                                 |
| \\      /  F ield         | OpenFOAM: The Open Source CFD Toolbox           |
|  \\    /   O peration     | Version:  2506                                  |
|   \\  /    A nd           | Website:  www.openfoam.com                      |
|    \\/     M anipulation  |                                                 |
\*---------------------------------------------------------------------------*/
FoamFile
{
    version     2.0;
    format      ascii;
    arch        "LSB;label=32;scalar=64";
    class       volVectorField;
    location    "4.35";
    object      U;
}
// * * * * * * * * * * * * * * * * * * * * * * * * * * * * * * * * * * * * * //

dimensions      [0 1 -1 0 0 0 0];

internalField   nonuniform List<vector> 
4000
(
(0.00816188 0.000799213 0)
(0.00705282 0.000969014 -4.54554e-22)
(0.00555863 0.000585156 4.71566e-22)
(0.00426898 0.000296871 9.02791e-22)
(0.00347041 0.00015781 -1.82541e-21)
(0.00297559 8.77072e-05 9.16913e-22)
(0.0026405 5.07824e-05 0)
(0.0024053 3.1551e-05 0)
(0.00223646 2.13102e-05 0)
(0.00211097 1.55968e-05 1.80732e-21)
(0.00201435 1.2176e-05 -1.81134e-21)
(0.00193781 1.00117e-05 3.59745e-21)
(0.0018757 8.60263e-06 -3.60241e-21)
(0.00182413 7.658e-06 0)
(0.0017803 7.02829e-06 0)
(0.00174212 6.63726e-06 0)
(0.00170791 6.43146e-06 3.54849e-21)
(0.00167631 6.37413e-06 -3.55072e-21)
(0.00164621 6.44101e-06 0)
(0.00161668 6.61162e-06 0)
(0.00158691 6.86715e-06 0)
(0.00155626 7.19185e-06 0)
(0.00152416 7.57312e-06 0)
(0.0014901 8.00168e-06 6.98269e-21)
(0.00145362 8.47215e-06 -1.39592e-20)
(0.00141428 8.9836e-06 6.97684e-21)
(0.0013716 9.54094e-06 0)
(0.00132505 1.01579e-05 0)
(0.00127403 1.08642e-05 0)
(0.00121772 1.17293e-05 0)
(0.00115493 1.29496e-05 -6.95687e-21)
(0.00108411 1.49765e-05 6.96589e-21)
(0.00100442 1.75406e-05 0)
(0.000887831 2.57558e-05 6.12387e-21)
(0.000755468 5.46008e-05 7.04805e-21)
(0.000691274 0.00011032 -3.53393e-20)
(0.000705882 0.000186914 -2.85158e-20)
(0.000756843 0.000276409 7.18085e-21)
(0.000831126 0.000381053 -2.88621e-20)
(0.000933709 0.000508109 -6.50547e-20)
(0.00110566 0.000666939 7.25102e-21)
(0.0013569 0.000845379 5.72179e-20)
(0.00162265 0.00100723 -5.62638e-20)
(0.00187047 0.00114194 0)
(0.00210526 0.00125321 0)
(0.00232546 0.00134233 -3.20924e-21)
(0.00254355 0.00141191 -4.69079e-20)
(0.00274972 0.00145486 -4.5698e-20)
(0.00293889 0.00147177 -2.65356e-20)
(0.0031224 0.00146281 -2.23282e-20)
(0.00328411 0.00142296 2.11105e-20)
(0.00343 0.00135476 0)
(0.00354546 0.00125192 -2.32194e-21)
(0.00363016 0.0011202 3.84329e-20)
(0.00367489 0.000955392 0)
(0.00366681 0.000768472 -8.07562e-21)
(0.00361507 0.000566915 -1.88282e-21)
(0.00349647 0.000358223 -6.33941e-24)
(0.00334401 0.000157939 -8.4521e-23)
(0.00313061 -3.4525e-05 -8.97185e-22)
(0.00287881 -0.000198076 1.60895e-21)
(0.00261522 -0.000331852 0)
(0.00233435 -0.000432496 0)
(0.00206443 -0.000500714 3.14466e-21)
(0.00180107 -0.000539773 2.20506e-20)
(0.00156127 -0.000554459 3.17915e-21)
(0.00134314 -0.000549586 -3.19103e-21)
(0.00114908 -0.000530828 3.25265e-21)
(0.000981198 -0.000502425 9.82957e-21)
(0.000833157 -0.000467885 -2.31727e-20)
(0.000708491 -0.000430842 -3.33354e-21)
(0.0005995 -0.000392265 -6.6881e-23)
(0.000505957 -0.000354262 0)
(0.000428134 -0.000318071 0)
(0.000360667 -0.000283946 0)
(0.000304292 -0.000252689 -1.81567e-21)
(0.000258046 -0.000224685 -2.73572e-20)
(0.000219256 -0.00019966 0)
(0.000187544 -0.000177584 -1.03294e-22)
(0.000162312 -0.000158346 1.88806e-21)
(0.000141762 -0.000141449 -3.02326e-20)
(0.000124848 -0.000126421 2.75013e-20)
(0.000110653 -0.000112818 -8.62423e-24)
(9.80601e-05 -0.000100162 3.11586e-20)
(8.64738e-05 -8.81605e-05 2.9936e-22)
(7.52899e-05 -7.65617e-05 -3.05386e-20)
(6.38682e-05 -6.51603e-05 -3.10158e-20)
(5.24836e-05 -5.41357e-05 3.1416e-20)
(4.12114e-05 -4.36127e-05 -4.78098e-22)
(2.9603e-05 -3.36404e-05 -3.05827e-20)
(1.82632e-05 -2.45378e-05 0)
(7.51099e-06 -1.64246e-05 -3.12806e-20)
(-2.99211e-06 -9.39019e-06 -2.92376e-20)
(-1.2675e-05 -3.61528e-06 2.99836e-20)
(-2.1328e-05 9.76749e-07 -1.67684e-20)
(-2.91409e-05 4.21586e-06 1.84859e-21)
(-3.54776e-05 6.35614e-06 1.47177e-20)
(-4.07144e-05 7.28105e-06 1.83159e-21)
(-4.42212e-05 7.37287e-06 1.27388e-20)
(-4.61204e-05 6.48504e-06 9.05877e-21)
(-4.59197e-05 4.96321e-06 -3.614e-21)
(-4.39839e-05 2.95968e-06 9.01642e-21)
(-3.97251e-05 1.26077e-06 -9.01191e-22)
(-3.2972e-05 2.28013e-07 -9.03166e-22)
(-2.30563e-05 1.44791e-07 -3.63361e-21)
(-9.8317e-06 1.7534e-06 0)
(7.34862e-06 5.30618e-06 0)
(2.89908e-05 1.1669e-05 -2.92539e-20)
(5.54344e-05 2.12931e-05 -9.37421e-22)
(8.74217e-05 3.49577e-05 1.56184e-20)
(0.000125452 5.32267e-05 1.52954e-20)
(0.000169768 7.67776e-05 4.83115e-22)
(0.000221391 0.000106065 -1.6078e-20)
(0.000279438 0.000141611 -1.2457e-23)
(0.000345165 0.000183661 0)
(0.000418876 0.000232532 3.18567e-20)
(0.000498499 0.000287652 -9.98528e-22)
(0.000585674 0.000349269 -2.99815e-20)
(0.000679245 0.000416588 -1.00489e-21)
(0.000777341 0.000488672 -3.20228e-20)
(0.000880964 0.000565161 -1.79562e-22)
(0.000989074 0.00064469 3.16367e-20)
(0.00109911 0.000725675 1.93982e-21)
(0.00121156 0.000807401 -3.47251e-20)
(0.00132619 0.000888525 1.91515e-21)
(0.00144119 0.000967391 2.96828e-20)
(0.00155663 0.00104294 3.55721e-21)
(0.00167182 0.00111378 -3.56705e-21)
(0.00178612 0.00117891 2.70966e-20)
(0.00190228 0.00123794 -2.23712e-20)
(0.00201839 0.00128863 -3.18406e-21)
(0.00213138 0.00132989 -4.3764e-20)
(0.00224927 0.00136276 -2.86513e-21)
(0.0023685 0.00138369 -2.07262e-20)
(0.00248259 0.0013922 5.2066e-22)
(0.00260593 0.00139024 0)
(0.00272716 0.00137069 0)
(0.00284248 0.00133608 -2.32413e-22)
(0.00296025 0.00128312 0)
(0.00306714 0.00121006 -1.19884e-21)
(0.00316435 0.00111555 -2.97889e-21)
(0.00324263 0.000997947 -7.55617e-22)
(0.00329122 0.000858188 -1.18621e-21)
(0.00331114 0.00069898 -5.50612e-22)
(0.00327817 0.000521163 -6.98211e-22)
(0.00320641 0.000340538 1.81745e-22)
(0.0030764 0.000155726 0)
(0.00288947 -1.0371e-05 0)
(0.00267322 -0.000158423 0)
(0.00241389 -0.000277332 2.73134e-22)
(0.0021458 -0.000364729 -2.74067e-22)
(0.00186165 -0.000419919 -1.11061e-21)
(0.00158557 -0.000443398 -9.79405e-22)
(0.0013226 -0.000440536 0)
(0.0010805 -0.000416799 5.54098e-22)
(0.000861873 -0.00037722 0)
(0.000667505 -0.000327604 -3.48347e-23)
(0.000499972 -0.00027231 3.79911e-22)
(0.00035324 -0.000214084 -2.01461e-22)
(0.000227369 -0.000149387 4.00641e-21)
(0.000174322 -0.000110661 -1.29943e-21)
(0.000194079 -9.35127e-05 -1.54168e-21)
(0.000216782 -8.36016e-05 0)
(0.00025507 -7.4375e-05 0)
(0.000318606 -6.44443e-05 0)
(0.000413082 -5.02271e-05 0)
(0.000555113 -3.65779e-05 0)
(0.000730507 -2.77012e-05 6.34586e-22)
(0.000888729 -2.36485e-05 8.45448e-25)
(0.00101996 -2.08943e-05 -8.00935e-24)
(0.0011297 -1.79761e-05 -6.2552e-22)
(0.00121916 -1.48999e-05 0)
(0.00128954 -1.18783e-05 5.5924e-22)
(0.00134306 -9.07597e-06 -5.58015e-22)
(0.00138253 -6.60628e-06 1.59621e-23)
(0.00141098 -4.55159e-06 0)
(0.00143145 -2.96336e-06 0)
(0.00144677 -1.85722e-06 -4.09546e-22)
(0.00145936 -1.21091e-06 4.08901e-22)
(0.00147117 -9.65723e-07 0)
(0.00148351 -1.03372e-06 0)
(0.00149707 -1.30839e-06 -1.48648e-22)
(0.00151195 -1.67638e-06 8.90836e-24)
(0.0015277 -2.03042e-06 1.49376e-22)
(0.0015435 -2.28085e-06 0)
(0.00155831 -2.36511e-06 0)
(0.00157104 -2.25158e-06 0)
(0.00158072 -1.93881e-06 0)
(0.00158658 -1.46567e-06 6.43332e-24)
(0.00158813 -8.88106e-07 0)
(0.00158517 -2.32808e-07 0)
(0.00157796 5.46167e-07 0)
(0.00156697 1.29512e-06 2.99031e-23)
(0.00155277 1.97723e-06 -2.98671e-23)
(0.00153612 2.57572e-06 0)
(0.0015178 3.09123e-06 2.23668e-24)
(0.00149856 3.54037e-06 5.401e-24)
(0.0014788 3.94283e-06 -3.76769e-24)
(0.00145696 4.9029e-06 -1.62571e-24)
(0.00143154 9.99764e-06 0)
(0.0101626 0.00148331 0)
(0.0105614 0.00234253 0)
(0.0101514 0.00199816 0)
(0.00927922 0.00150266 8.79827e-22)
(0.00836823 0.00106481 -1.78753e-21)
(0.00761144 0.000736769 9.05511e-22)
(0.00700072 0.000513948 0)
(0.00651296 0.000367883 1.81508e-21)
(0.00612749 0.000271501 -1.83313e-21)
(0.00582232 0.000206596 1.82691e-21)
(0.00557795 0.000161544 -1.83814e-21)
(0.00537962 0.000129445 -3.66042e-21)
(0.00521629 0.000106157 3.67504e-21)
(0.00507965 8.90322e-05 3.6571e-21)
(0.00496335 7.64514e-05 -1.393e-23)
(0.00486235 6.74101e-05 -7.31026e-21)
(0.00477252 6.11981e-05 3.65588e-21)
(0.00469047 5.7293e-05 0)
(0.00461336 5.53046e-05 0)
(0.00453878 5.492e-05 0)
(0.0044647 5.58822e-05 0)
(0.00438938 5.79888e-05 0)
(0.00431134 6.10918e-05 0)
(0.00422924 6.50963e-05 0)
(0.00414185 6.99608e-05 0)
(0.00404798 7.56971e-05 0)
(0.00394637 8.2373e-05 0)
(0.00383566 9.01252e-05 0)
(0.00371427 9.91937e-05 0)
(0.0035803 0.00011001 0)
(0.00343128 0.000123414 -7.25864e-21)
(0.00326405 0.000141146 6.04231e-27)
(0.00307797 0.000166381 1.46134e-20)
(0.00283836 0.000205282 -6.4182e-21)
(0.00257977 0.000275786 -7.39562e-21)
(0.00243563 0.000399046 2.23962e-20)
(0.00244204 0.000582125 -3.01604e-20)
(0.00254498 0.000815414 -7.60491e-21)
(0.00272143 0.00109417 7.66458e-20)
(0.002979 0.00141876 2.3322e-20)
(0.00336716 0.00178933 0)
(0.00387507 0.00217909 7.4847e-21)
(0.0044109 0.0025401 4.4077e-20)
(0.00493257 0.00285262 7.31124e-21)
(0.00543965 0.00311401 5.58543e-20)
(0.00592979 0.00332394 -5.4116e-20)
(0.0064145 0.00348318 7.86347e-22)
(0.0068791 0.00358209 0)
(0.0073195 0.00361958 -2.44338e-20)
(0.00774286 0.00359343 0)
(0.00812947 0.00349846 -2.37313e-22)
(0.00848136 0.00333683 0)
(0.00877522 0.0030995 -1.98778e-20)
(0.00900811 0.00279763 -1.89266e-20)
(0.00916072 0.00242751 0)
(0.00921929 0.00200694 -5.64827e-23)
(0.00918345 0.00154936 8.04291e-21)
(0.00902252 0.00106872 1.8307e-21)
(0.00877252 0.000594043 3.64219e-21)
(0.00839617 0.000130767 -9.19897e-22)
(0.00792804 -0.000287691 0)
(0.00739668 -0.000650615 6.96779e-21)
(0.00681071 -0.000947115 -3.49845e-21)
(0.00621206 -0.00117347 -6.84062e-21)
(0.00560375 -0.00133155 -2.06123e-20)
(0.00502177 -0.00142819 -3.45656e-21)
(0.00446854 -0.00147047 1.7536e-20)
(0.0039588 -0.00147036 -3.54003e-21)
(0.00349701 -0.00143662 0)
(0.00308014 -0.00137875 3.71082e-21)
(0.00271368 -0.00130571 -3.7106e-21)
(0.00238744 -0.00122167 -1.11189e-22)
(0.00210014 -0.00113361 0)
(0.00185148 -0.00104489 -3.12749e-20)
(0.0016329 -0.000957782 -3.16903e-20)
(0.00144335 -0.000875273 2.02592e-21)
(0.00128084 -0.000798494 -2.01708e-21)
(0.00114006 -0.000727686 2.06752e-21)
(0.00101891 -0.000663289 -3.3219e-20)
(0.000915744 -0.000604973 3.12119e-20)
(0.00082706 -0.000551731 -3.34805e-20)
(0.000750135 -0.000502615 -3.486e-20)
(0.000682771 -0.000456552 2.1118e-21)
(0.000622462 -0.000412522 -3.48371e-20)
(0.000567551 -0.000369945 3.36421e-20)
(0.00051645 -0.000328309 -3.34881e-20)
(0.000467397 -0.000287438 3.36756e-20)
(0.000420462 -0.00024792 -3.36254e-20)
(0.000375663 -0.000210071 -1.04698e-21)
(0.000331968 -0.000174312 1.03686e-21)
(0.000290491 -0.000141582 0)
(0.000251939 -0.000112151 0)
(0.000215671 -8.63264e-05 1.62812e-20)
(0.000182964 -6.46608e-05 -1.81893e-20)
(0.000154054 -4.68349e-05 1.60405e-20)
(0.000129028 -3.32809e-05 3.97444e-21)
(0.000108861 -2.33449e-05 -9.59619e-24)
(9.32936e-05 -1.71888e-05 5.4301e-24)
(8.32566e-05 -1.38888e-05 -3.5021e-20)
(7.88092e-05 -1.35003e-05 -5.80738e-21)
(8.121e-05 -1.47342e-05 7.7033e-21)
(9.06628e-05 -1.72363e-05 -7.68358e-21)
(0.000108711 -1.93861e-05 0)
(0.000135142 -1.99347e-05 -9.62443e-22)
(0.000171889 -1.77627e-05 9.6318e-22)
(0.00021932 -1.08189e-05 0)
(0.000278775 2.00325e-06 0)
(0.000351489 2.29841e-05 1.57518e-20)
(0.000437838 5.36141e-05 -1.58989e-20)
(0.000539133 9.58572e-05 1.65545e-20)
(0.00065586 0.000151348 -3.24234e-20)
(0.000788196 0.000221663 8.43725e-25)
(0.000937145 0.000307994 -5.15759e-22)
(0.00110096 0.000411413 -1.66523e-20)
(0.00128101 0.000532161 0)
(0.00147658 0.000670655 0)
(0.00168444 0.000825825 0)
(0.00190599 0.000996981 3.49958e-20)
(0.00213868 0.00118238 3.26042e-20)
(0.0023798 0.00137965 0)
(0.00262998 0.00158661 -3.78365e-20)
(0.00288699 0.00180013 6.23232e-21)
(0.00314762 0.00201663 -4.09385e-21)
(0.00341236 0.00223317 2.03669e-21)
(0.00368042 0.00244624 -3.90244e-21)
(0.00394976 0.00265212 3.06735e-20)
(0.00422045 0.00284761 -2.58726e-20)
(0.00449172 0.00302941 3.22797e-20)
(0.0047636 0.00319468 -1.5393e-22)
(0.00503932 0.00334119 2.3947e-20)
(0.00531594 0.00346491 0)
(0.00559142 0.00356356 2.47585e-20)
(0.00587511 0.00363639 -2.73732e-21)
(0.00616139 0.00367807 -1.79774e-20)
(0.00644534 0.00368719 2.00619e-20)
(0.00674075 0.00366362 -2.10634e-21)
(0.00703166 0.00359763 2.11492e-21)
(0.00731559 0.0034919 -2.05496e-21)
(0.0075948 0.00333965 1.65756e-21)
(0.00785377 0.0031397 -1.18832e-21)
(0.0080871 0.00288943 5.66789e-21)
(0.00827907 0.00258839 -4.11396e-21)
(0.00841174 0.00223921 3.40975e-21)
(0.00847883 0.00184986 0)
(0.00844793 0.0014249 3.66814e-22)
(0.00833428 0.000990051 -3.11201e-23)
(0.00810216 0.000549671 7.35846e-25)
(0.00775953 0.000137542 0)
(0.00733134 -0.000236515 1.72048e-22)
(0.00680862 -0.000553809 -4.42027e-22)
(0.0062389 -0.000804871 0)
(0.00561556 -0.000984705 9.70361e-22)
(0.0049835 -0.00109313 2.16282e-22)
(0.00435149 -0.00113517 -2.17809e-22)
(0.00374684 -0.00112165 0)
(0.0031747 -0.00106093 -2.28982e-22)
(0.00264752 -0.000966807 -3.83545e-23)
(0.00217117 -0.000848808 3.90007e-22)
(0.00174906 -0.000719329 0)
(0.00137346 -0.00057641 -2.11549e-21)
(0.00116284 -0.000488673 -1.79185e-21)
(0.00113326 -0.000437323 3.78605e-21)
(0.00116336 -0.00040117 -5.1796e-22)
(0.00124832 -0.000373758 5.11423e-22)
(0.00140479 -0.000350184 6.14212e-22)
(0.0016377 -0.000321246 6.67549e-22)
(0.00196268 -0.000291829 -5.59444e-22)
(0.00233859 -0.000259191 -4.17302e-23)
(0.00268418 -0.00022397 0)
(0.00298015 -0.00018902 4.1279e-23)
(0.0032316 -0.000155264 0)
(0.00344054 -0.000123336 -3.88861e-23)
(0.00360957 -9.44496e-05 -5.84639e-22)
(0.00374335 -6.96867e-05 6.17565e-22)
(0.00384783 -4.96661e-05 -5.00844e-23)
(0.00392949 -3.45736e-05 4.87159e-22)
(0.00399472 -2.42284e-05 -9.1191e-22)
(0.00404938 -1.81287e-05 8.79465e-22)
(0.00409837 -1.55103e-05 -4.49606e-22)
(0.00414539 -1.54256e-05 0)
(0.00419272 -1.68319e-05 1.96828e-22)
(0.00424128 -1.86949e-05 -1.84617e-22)
(0.00429068 -2.00874e-05 -1.97174e-23)
(0.00433949 -2.0282e-05 -1.45542e-22)
(0.0043856 -1.88094e-05 1.27593e-22)
(0.00442654 -1.54868e-05 1.28544e-22)
(0.00445989 -1.04022e-05 -1.43697e-22)
(0.00448361 -3.87263e-06 1.2574e-22)
(0.00449624 3.61382e-06 -2.20009e-22)
(0.00449708 1.14898e-05 1.36284e-22)
(0.00448634 1.92382e-05 -4.6352e-23)
(0.00446485 2.64198e-05 -9.80455e-24)
(0.00443404 3.25576e-05 0)
(0.00439585 3.73828e-05 1.9065e-23)
(0.00435239 4.07873e-05 -2.63063e-23)
(0.00430586 4.28184e-05 1.12136e-24)
(0.00425831 4.3702e-05 -8.17902e-24)
(0.00421138 4.39334e-05 0)
(0.00416492 4.46402e-05 0)
(0.00411639 4.99682e-05 -2.59669e-25)
(0.0101548 0.000930706 0)
(0.0107181 0.00187909 -4.40348e-22)
(0.0111802 0.00208031 4.36529e-22)
(0.0111186 0.00193123 8.45377e-22)
(0.0108351 0.00165071 -8.53617e-22)
(0.0104111 0.00133788 0)
(0.00995139 0.00105765 0)
(0.00951176 0.000829114 0)
(0.00911645 0.000652308 -1.71234e-21)
(0.00877287 0.000518568 3.44628e-21)
(0.00847865 0.000417383 1.7139e-21)
(0.008228 0.000340805 -3.4676e-21)
(0.00801404 0.00028271 -3.45473e-21)
(0.00783022 0.000238439 3.47045e-21)
(0.0076708 0.00020491 0)
(0.00753067 0.000180037 -3.4543e-21)
(0.00740528 0.000162241 6.91603e-21)
(0.00729069 0.000150323 -3.46055e-21)
(0.00718341 0.000143358 0)
(0.0070804 0.000140585 0)
(0.00697894 0.00014137 0)
(0.00687668 0.000145204 0)
(0.00677149 0.000151704 0)
(0.00666146 0.000160618 -6.86309e-21)
(0.00654481 0.000171824 6.87705e-21)
(0.00641979 0.000185332 0)
(0.00628459 0.000201289 0)
(0.00613727 0.000219991 0)
(0.00597567 0.000241928 0)
(0.00579726 0.000267892 0)
(0.00559905 0.000299219 -6.91956e-21)
(0.0053773 0.000338297 6.9441e-21)
(0.00513275 0.000389386 0)
(0.0048341 0.000457419 4.37105e-22)
(0.00451669 0.000559714 0)
(0.00432074 0.000724895 -1.43263e-20)
(0.00430203 0.000967822 2.89825e-20)
(0.00442044 0.00128226 0)
(0.00465361 0.00165884 -5.83485e-20)
(0.0050047 0.00208861 2.05927e-22)
(0.00550925 0.00255957 -7.15203e-21)
(0.00613744 0.00303804 7.13588e-21)
(0.00680118 0.00348334 -5.56709e-20)
(0.00746159 0.00387674 0)
(0.00811274 0.0042107 -5.91437e-20)
(0.0087507 0.00448151 5.43298e-20)
(0.00938192 0.00468631 5.22923e-20)
(0.00999145 0.00481607 0)
(0.0105769 0.0048669 2.24504e-20)
(0.0111398 0.00483576 0)
(0.0116624 0.00471878 -4.117e-20)
(0.0121426 0.00451605 0)
(0.0125584 0.00422002 1.63763e-20)
(0.0129053 0.00384256 2.0139e-20)
(0.0131613 0.00338256 1.70442e-20)
(0.013313 0.00285624 7.98709e-21)
(0.0133538 0.00227591 7.75547e-21)
(0.0132545 0.00165606 3.62375e-21)
(0.0130404 0.00102759 -1.80484e-21)
(0.0126741 0.000400538 -2.57507e-21)
(0.0121847 -0.000190265 0)
(0.0115902 -0.000727271 -6.46096e-21)
(0.0109033 -0.00119367 6.40357e-21)
(0.0101651 -0.00157819 0)
(0.0093836 -0.00187754 2.59398e-20)
(0.00860301 -0.00209382 0)
(0.00783109 -0.00223144 3.32294e-21)
(0.00709427 -0.00230214 -3.34608e-21)
(0.00640206 -0.00231536 0)
(0.0057595 -0.00228342 3.51101e-21)
(0.00517662 -0.0022183 -3.52464e-21)
(0.00464579 -0.00212719 -3.97873e-20)
(0.00416821 -0.00202102 2.57907e-20)
(0.00374382 -0.00190553 9.86784e-23)
(0.00336425 -0.00178559 3.05235e-20)
(0.00302791 -0.00166653 1.94668e-21)
(0.00273225 -0.00155081 -3.32073e-20)
(0.00247091 -0.00143979 0)
(0.0022408 -0.0013349 -3.19898e-20)
(0.00203962 -0.00123616 -6.27048e-20)
(0.00186295 -0.00114265 6.21948e-20)
(0.00170713 -0.00105348 3.37768e-20)
(0.00156903 -0.000967488 -3.39508e-20)
(0.00144507 -0.000883626 3.41615e-20)
(0.00133269 -0.000801473 0)
(0.00122929 -0.000720638 3.31699e-20)
(0.00113189 -0.000641311 1.94013e-22)
(0.0010402 -0.000564716 6.67379e-20)
(0.00095382 -0.000491478 3.08158e-20)
(0.000871048 -0.000422482 3.37561e-20)
(0.000793387 -0.000359249 0)
(0.000721716 -0.000302192 0)
(0.000655185 -0.000251729 -1.60956e-20)
(0.000595849 -0.000208641 0)
(0.000543811 -0.000172283 -1.98588e-21)
(0.000499718 -0.000143172 1.96449e-21)
(0.000464576 -0.000120206 -1.56419e-20)
(0.000438507 -0.000103462 1.55169e-20)
(0.00042247 -9.1506e-05 1.35094e-20)
(0.000417384 -8.41912e-05 1.91601e-21)
(0.000424606 -7.93738e-05 -7.646e-21)
(0.0004443 -7.63638e-05 3.81056e-21)
(0.000479001 -7.3148e-05 -2.85487e-21)
(0.000528434 -6.77517e-05 9.50416e-22)
(0.00059559 -5.83049e-05 0)
(0.000680687 -4.1722e-05 7.66167e-21)
(0.000785406 -1.60771e-05 0)
(0.000911083 2.18822e-05 1.5508e-20)
(0.0010577 7.44873e-05 3.94783e-24)
(0.00122645 0.000144418 -1.52475e-20)
(0.0014173 0.00023396 1.58576e-20)
(0.00162975 0.000345116 -4.98312e-22)
(0.00186429 0.000479304 0)
(0.00211811 0.000637654 1.61051e-20)
(0.00239217 0.000820183 -1.61603e-20)
(0.00268461 0.00102685 0)
(0.00299171 0.0012562 1.01051e-21)
(0.00331411 0.00150654 -3.32515e-20)
(0.00364867 0.00177528 -3.03448e-20)
(0.00399254 0.00205911 2.98056e-20)
(0.00434585 0.00235448 -3.14815e-20)
(0.00470612 0.00265707 -1.93753e-21)
(0.00507052 0.00296225 2.86741e-20)
(0.0054394 0.0032656 3.81894e-21)
(0.00581189 0.00356222 3.28642e-20)
(0.00618643 0.00384732 -6.47076e-20)
(0.00656311 0.00411638 3.17892e-20)
(0.0069415 0.00436488 -2.39985e-20)
(0.00732193 0.00458887 1.902e-20)
(0.00770683 0.0047847 3.04745e-20)
(0.00809389 0.00494736 1.72124e-20)
(0.00848196 0.00507426 2.84924e-21)
(0.00887792 0.00516285 1.78577e-20)
(0.00927653 0.00520682 2.20893e-20)
(0.00967456 0.00520484 -2.10351e-21)
(0.0100807 0.00515438 2.10934e-21)
(0.01048 0.00504659 5.41017e-21)
(0.0108707 0.00488342 1.48441e-21)
(0.0112493 0.00465819 -1.28125e-21)
(0.0116019 0.00437051 1.28529e-21)
(0.0119196 0.00401894 -3.93304e-21)
(0.0121855 0.0036046 6.68465e-22)
(0.0123813 0.00313214 -1.79408e-22)
(0.0124974 0.0026113 -5.16552e-22)
(0.0125024 0.00205084 -1.13376e-21)
(0.0124062 0.00147318 0)
(0.0121721 0.000887044 1.15492e-23)
(0.0118071 0.000324916 2.61671e-23)
(0.0113254 -0.000197335 -1.6044e-22)
(0.0107191 -0.000658437 5.99436e-22)
(0.0100311 -0.00104324 1.35383e-22)
(0.00925332 -0.00134223 -9.04488e-22)
(0.00843582 -0.00155126 -7.9258e-22)
(0.00758603 -0.00167111 2.94053e-22)
(0.00674305 -0.00171133 -4.6848e-22)
(0.00591477 -0.00167914 2.15606e-22)
(0.0051252 -0.00159062 -5.96875e-23)
(0.00438486 -0.0014575 -4.44426e-22)
(0.0037161 -0.00130066 1.35246e-22)
(0.00310414 -0.00111875 -9.82937e-22)
(0.00271827 -0.000997501 1.35608e-21)
(0.00258791 -0.000914818 -1.19661e-21)
(0.0025786 -0.000849751 -4.32841e-22)
(0.00266557 -0.000797655 -1.03128e-21)
(0.00286452 -0.000754414 0)
(0.00317138 -0.000706817 -1.21843e-21)
(0.00359217 -0.000657258 1.1613e-21)
(0.00406569 -0.000596552 5.13552e-23)
(0.00450408 -0.000524507 1.47041e-24)
(0.00488655 -0.000448598 -4.62503e-23)
(0.005217 -0.00037345 -6.17553e-22)
(0.00549704 -0.000301984 3.71751e-23)
(0.00572911 -0.000237182 0)
(0.00591828 -0.000181517 -3.36961e-23)
(0.00607136 -0.000136459 3.1756e-23)
(0.0061959 -0.000102462 5.17259e-22)
(0.00629949 -7.90792e-05 -4.84875e-22)
(0.00638915 -6.5089e-05 -3.99689e-22)
(0.00647081 -5.86572e-05 4.22554e-22)
(0.00654893 -5.75401e-05 0)
(0.00662627 -5.93121e-05 -2.12237e-23)
(0.00670386 -6.16006e-05 0)
(0.0067811 -6.23213e-05 -1.26178e-22)
(0.00685609 -5.98789e-05 7.7338e-24)
(0.00692603 -5.32916e-05 1.52899e-22)
(0.00698767 -4.22506e-05 3.10262e-23)
(0.0070378 -2.7075e-05 1.4697e-23)
(0.00707366 -8.60879e-06 -1.37028e-23)
(0.00709329 1.19245e-05 0)
(0.00709578 3.31164e-05 1.16004e-23)
(0.00708133 5.35891e-05 3.97751e-23)
(0.00705117 7.20415e-05 -3.03861e-23)
(0.0070074 8.75068e-05 -3.02788e-23)
(0.00695283 9.93526e-05 3.71482e-23)
(0.00689059 0.000107305 0)
(0.00682392 0.000111449 5.71463e-24)
(0.00675596 0.000112211 7.96719e-24)
(0.0066894 0.000110388 1.75552e-24)
(0.00662605 0.000107144 -1.75417e-24)
(0.0065597 0.000107308 2.46054e-25)
(0.0100749 0.000516188 0)
(0.0104761 0.00128188 0)
(0.011015 0.00167847 0)
(0.011379 0.00179328 8.42798e-22)
(0.0115708 0.00172926 -8.41541e-22)
(0.0115424 0.00156709 0)
(0.0114244 0.00136347 0)
(0.0112293 0.00115653 0)
(0.0109982 0.000970084 0)
(0.0107622 0.00081043 0)
(0.0105352 0.000677102 0)
(0.0103246 0.000568977 -3.311e-21)
(0.0101323 0.000482413 3.3283e-21)
(0.00995819 0.000413406 -3.31375e-21)
(0.00980094 0.000359222 6.6405e-21)
(0.00965826 0.000317708 -3.32506e-21)
(0.00952751 0.000286978 -3.31014e-21)
(0.00940602 0.000265538 3.31914e-21)
(0.00929115 0.000252182 0)
(0.00918032 0.000245856 0)
(0.00907105 0.000245646 6.59622e-21)
(0.00896099 0.000250798 -6.6091e-21)
(0.00884792 0.000260718 0)
(0.00872975 0.000274995 -6.58164e-21)
(0.00860445 0.000293417 6.59452e-21)
(0.00846999 0.000315985 0)
(0.00832431 0.000342915 0)
(0.00816521 0.000374652 6.58751e-21)
(0.00799027 0.000411917 -8.01445e-24)
(0.00779679 0.000455794 -6.61398e-21)
(0.0075818 0.000507937 -6.62378e-21)
(0.00734157 0.000570946 1.32885e-20)
(0.00707769 0.00064919 -6.6661e-21)
(0.00676343 0.000745402 6.26856e-21)
(0.00643063 0.000874758 -6.74231e-21)
(0.00621 0.00106667 -6.85453e-21)
(0.0061661 0.00133783 6.95137e-21)
(0.00627667 0.00168562 2.08191e-20)
(0.00652479 0.00209988 3.48724e-20)
(0.00690902 0.00256555 7.09402e-21)
(0.00744983 0.0030636 -6.86296e-21)
(0.00810782 0.00356058 -5.98519e-20)
(0.00880577 0.00402518 5.85726e-20)
(0.00950968 0.00444116 5.69093e-20)
(0.0102109 0.00479832 -1.23605e-20)
(0.0109044 0.00508978 9.0294e-21)
(0.0115926 0.00530987 -2.59821e-20)
(0.0122618 0.00545303 0)
(0.0129101 0.00550891 -2.41136e-20)
(0.0135369 0.00547506 2.62382e-21)
(0.0141262 0.00535028 1.96803e-20)
(0.0146727 0.00513321 2.29879e-21)
(0.0151597 0.00481909 -2.26225e-20)
(0.0155817 0.0044169 -1.49173e-20)
(0.0159194 0.00392749 -1.63584e-20)
(0.0161602 0.00336444 -7.97919e-21)
(0.0162944 0.00273952 -1.62099e-21)
(0.0162974 0.00206552 1.83561e-21)
(0.0161834 0.00137002 1.70385e-21)
(0.0159186 0.000663382 2.4961e-21)
(0.0155222 -2.27049e-05 1.6695e-21)
(0.0150009 -0.000669384 0)
(0.0143634 -0.00125699 6.38621e-21)
(0.0136417 -0.00176909 0)
(0.0128429 -0.00219797 -2.17829e-20)
(0.01201 -0.00253838 -1.26478e-20)
(0.011153 -0.00279059 -3.14449e-21)
(0.0103042 -0.00296095 0)
(0.00947774 -0.00305692 0)
(0.00868639 -0.00308944 -1.32549e-20)
(0.00794601 -0.00307065 0)
(0.00725387 -0.00300919 3.08772e-20)
(0.00661647 -0.00291772 -3.14221e-20)
(0.00603572 -0.00280418 3.02859e-20)
(0.00550581 -0.00267559 2.75091e-23)
(0.00502659 -0.00253936 2.77482e-23)
(0.00459599 -0.00239971 2.62475e-20)
(0.004208 -0.00225952 3.79428e-21)
(0.00385965 -0.00212151 2.89155e-20)
(0.00354858 -0.00198675 3.11813e-20)
(0.00327033 -0.001855 -1.2917e-22)
(0.00302106 -0.00172591 -3.07544e-20)
(0.00279744 -0.00159869 3.09656e-20)
(0.00259547 -0.00147261 0)
(0.0024122 -0.0013476 5.04654e-22)
(0.00224431 -0.00122363 3.16898e-20)
(0.00208786 -0.00110131 -6.42251e-20)
(0.00194207 -0.00098263 -9.68797e-20)
(0.00180582 -0.000868733 -3.31569e-20)
(0.00167664 -0.000761115 9.6849e-22)
(0.00155616 -0.000661961 0)
(0.00144525 -0.000572034 9.93603e-22)
(0.00134287 -0.000491912 -9.84832e-22)
(0.00125191 -0.000422617 0)
(0.00117235 -0.000363223 1.55876e-20)
(0.00110567 -0.000314243 -1.93853e-21)
(0.00105284 -0.000274118 1.92164e-21)
(0.00101462 -0.000242737 -1.31323e-23)
(0.000991806 -0.000218129 1.52122e-20)
(0.000986122 -0.000199939 -1.8951e-21)
(0.000998893 -0.000185558 3.76829e-21)
(0.00103059 -0.000173719 -1.87432e-21)
(0.00108414 -0.000161733 1.15989e-24)
(0.00115895 -0.000146945 -9.37757e-22)
(0.00125868 -0.000126861 9.36126e-22)
(0.00138292 -9.75683e-05 -7.51948e-21)
(0.00153328 -5.64591e-05 -8.01841e-21)
(0.00171054 3.78195e-07 -1.46923e-20)
(0.00191385 7.58781e-05 3.04798e-20)
(0.0021437 0.000173065 -1.48321e-20)
(0.00239907 0.000294505 -4.80718e-22)
(0.00267844 0.00044223 -4.83231e-22)
(0.00298147 0.00061755 4.84834e-22)
(0.0033042 0.000821278 -1.55679e-20)
(0.00364706 0.00105305 1.03989e-21)
(0.00400724 0.00131213 -4.17425e-24)
(0.00438076 0.00159661 1.35107e-20)
(0.00476775 0.00190394 4.73336e-20)
(0.00516501 0.00223076 -3.04888e-20)
(0.00556992 0.00257312 -3.05504e-20)
(0.00598257 0.00292659 3.20754e-20)
(0.00640087 0.00328614 2.74545e-20)
(0.00682271 0.00364656 -2.75021e-20)
(0.00724866 0.00400259 -3.16872e-20)
(0.00767821 0.00434865 -2.62724e-20)
(0.00811052 0.0046794 3.95086e-21)
(0.00854596 0.0049896 -3.31843e-21)
(0.00898449 0.00527407 0)
(0.00942665 0.00552811 -2.73607e-20)
(0.00987426 0.00574721 -2.31548e-20)
(0.0103257 0.00592613 -1.93097e-20)
(0.01078 0.0060616 0)
(0.0112419 0.00614966 -2.18017e-20)
(0.0117069 0.0061843 2.31457e-21)
(0.0121721 0.00616416 -6.14014e-21)
(0.0126417 0.00608542 -1.95748e-21)
(0.0131033 0.00594114 -1.32002e-22)
(0.0135545 0.00573255 -7.43108e-21)
(0.0139892 0.00545472 1.4014e-21)
(0.0143954 0.00510799 -5.57907e-21)
(0.0147631 0.00469273 8.66929e-21)
(0.0150772 0.00421152 6.27386e-21)
(0.0153216 0.00367038 2.61199e-21)
(0.0154857 0.00307924 0)
(0.0155434 0.00244762 -4.34517e-22)
(0.0154987 0.00179593 7.28035e-24)
(0.0153202 0.00113415 3.05766e-23)
(0.0150111 0.000490677 -5.47916e-23)
(0.0145768 -0.000117396 -1.23826e-23)
(0.014007 -0.000670066 8.7949e-23)
(0.0133348 -0.00114932 -3.05841e-22)
(0.0125481 -0.0015439 0)
(0.0116917 -0.00184461 7.00558e-22)
(0.0107684 -0.00204897 -1.96567e-22)
(0.00981964 -0.00216109 3.62463e-22)
(0.00885305 -0.00218591 4.2586e-23)
(0.00789976 -0.00213663 2.60333e-22)
(0.00697315 -0.00202473 -6.88808e-23)
(0.00611696 -0.00187549 0)
(0.00531173 -0.00168879 1.20973e-21)
(0.00476418 -0.00155022 7.66728e-23)
(0.0045095 -0.00144726 6.32503e-23)
(0.00442434 -0.00135921 5.91061e-23)
(0.0044709 -0.00128256 1.04621e-21)
(0.00466248 -0.00121618 4.60427e-23)
(0.00498406 -0.00114586 1.5237e-23)
(0.00543141 -0.00107077 -5.96176e-22)
(0.00592956 -0.000978503 5.15732e-22)
(0.00639121 -0.00086809 5.95974e-22)
(0.00679762 -0.000749518 6.6781e-23)
(0.00715336 -0.000630679 -5.82217e-22)
(0.00745995 -0.000517005 6.88161e-23)
(0.00771913 -0.000413387 5.19905e-22)
(0.00793524 -0.000323814 -5.17802e-22)
(0.0081145 -0.000250784 -5.87201e-23)
(0.00826395 -0.000195197 -5.62484e-23)
(0.00839085 -0.00015647 0)
(0.0085021 -0.000132722 3.75817e-22)
(0.00860369 -0.000121035 -3.7441e-22)
(0.00870024 -0.000117789 0)
(0.00879474 -0.000119041 -3.90601e-23)
(0.00888842 -0.000120905 0)
(0.00898085 -0.000119957 3.46129e-23)
(0.00907016 -0.000113565 1.28905e-22)
(0.00915344 -0.000100082 -1.28471e-22)
(0.0092272 -7.89873e-05 -2.97071e-23)
(0.00928788 -5.07966e-05 2.75701e-23)
(0.00933227 -1.6917e-05 0)
(0.00935797 2.05639e-05 -9.28435e-23)
(0.00936364 5.91826e-05 9.27138e-23)
(0.0093492 9.64427e-05 2.00632e-23)
(0.0093158 0.000130083 3.3729e-23)
(0.00926567 0.000158327 -3.36684e-23)
(0.00920196 0.000179975 2.45589e-23)
(0.00912829 0.000194463 -2.45326e-23)
(0.00904854 0.000201851 -8.78747e-24)
(0.00896657 0.000202747 -5.51328e-24)
(0.00888569 0.000198265 3.81453e-24)
(0.00880948 0.000189579 4.03946e-24)
(0.00872619 0.000181333 0)
(0.0100413 0.000317254 0)
(0.0102866 0.000873878 0)
(0.0107151 0.00124806 0)
(0.0111427 0.00144305 8.51299e-22)
(0.0114795 0.00150393 -8.45557e-22)
(0.0117076 0.00146987 0)
(0.0118555 0.00137055 1.64127e-21)
(0.0119006 0.00123978 -1.64372e-21)
(0.0118821 0.0011009 -1.62539e-21)
(0.0118238 0.000964495 3.25237e-21)
(0.0117356 0.000838173 -1.62744e-21)
(0.011633 0.000728399 0)
(0.0115238 0.00063499 0)
(0.0114132 0.00055646 3.22448e-21)
(0.0113047 0.000492395 -1.38777e-23)
(0.0111994 0.000441699 -6.44682e-21)
(0.0110974 0.000402987 3.22513e-21)
(0.0109986 0.00037519 0)
(0.010902 0.000357355 0)
(0.0108064 0.00034854 3.19941e-21)
(0.0107103 0.000347863 -3.20495e-21)
(0.0106122 0.000354572 0)
(0.0105103 0.000368035 0)
(0.0104027 0.000387798 -6.36674e-21)
(0.0102876 0.000413631 1.27379e-20)
(0.010163 0.000445552 -6.37142e-21)
(0.010027 0.000483849 -6.3559e-21)
(0.00987722 0.00052909 1.06809e-23)
(0.00971146 0.000582166 1.27282e-20)
(0.00952712 0.00064435 -6.37266e-21)
(0.00932151 0.000717438 -6.37413e-21)
(0.00909132 0.000803962 3.68224e-24)
(0.00883834 0.000907948 6.40147e-21)
(0.00854043 0.00103053 6.40788e-21)