/*--------------------------------*- C++ -*----------------------------------*\
| =========                 |                                                 |
| \\      /  F ield         | OpenFOAM: The Open Source CFD Toolbox           |
|  \\    /   O peration     | Version:  2506                                  |
|   \\  /    A nd           | Website:  www.openfoam.com                      |
|    \\/     M anipulation  |                                                 |
\*---------------------------------------------------------------------------*/
FoamFile
{
    version     2.0;
    format      ascii;
    arch        "LSB;label=32;scalar=64";
    class       surfaceScalarField;
    location    "0.1";
    object      phi;
}
// * * * * * * * * * * * * * * * * * * * * * * * * * * * * * * * * * * * * * //

dimensions      [0 3 -1 0 0 0 0];

oriented        oriented;

internalField   nonuniform List<scalar> 
7780
(
9.96269e-10
-9.96268e-10
1.69842e-09
-7.02149e-10
2.08442e-09
-3.86001e-10
2.32649e-09
-2.4207e-10
2.48336e-09
-1.56869e-10
2.5871e-09
-1.03741e-10
2.66052e-09
-7.34195e-11
2.71666e-09
-5.61482e-11
2.76231e-09
-4.56501e-11
2.8013e-09
-3.8983e-11
2.83599e-09
-3.46874e-11
2.8679e-09
-3.19151e-11
2.89807e-09
-3.01678e-11
2.92722e-09
-2.91551e-11
2.95593e-09
-2.87027e-11
2.98463e-09
-2.87033e-11
3.01372e-09
-2.90921e-11
3.04355e-09
-2.98324e-11
3.07446e-09
-3.09083e-11
3.10678e-09
-3.23202e-11
3.14086e-09
-3.40818e-11
3.17709e-09
-3.62209e-11
3.21587e-09
-3.87814e-11
3.25769e-09
-4.18283e-11
3.30315e-09
-4.54575e-11
3.35296e-09
-4.98072e-11
3.40805e-09
-5.5087e-11
3.46966e-09
-6.1617e-11
3.53948e-09
-6.98174e-11
3.61937e-09
-7.98872e-11
3.68868e-09
-1.4306e-10
3.64892e-09
-4.8043e-10
3.50099e-09
-9.35383e-10
3.29141e-09
-1.38077e-09
3.05873e-09
-1.78856e-09
2.85048e-09
-2.1773e-09
2.68264e-09
-2.54185e-09
2.46043e-09
-2.9633e-09
2.2169e-09
-3.24259e-09
2.02349e-09
-3.36549e-09
1.85993e-09
-3.44541e-09
1.71903e-09
-3.50039e-09
1.58952e-09
-3.53101e-09
1.4651e-09
-3.54308e-09
1.34177e-09
-3.53918e-09
1.21537e-09
-3.51894e-09
1.08751e-09
-3.48221e-09
9.54606e-10
-3.42925e-09
8.14875e-10
-3.35741e-09
6.64652e-10
-3.2618e-09
5.09745e-10
-3.14106e-09
3.7639e-10
-2.99604e-09
2.60566e-10
-2.82309e-09
2.088e-10
-2.60862e-09
2.43941e-10
-2.34446e-09
4.21691e-10
-2.004e-09
7.37945e-10
-1.57164e-09
1.20961e-09
-9.99776e-10
1.75809e-09
-2.93687e-10
2.26472e-09
4.72123e-10
2.66738e-09
1.20139e-09
2.97421e-09
1.85661e-09
3.18751e-09
2.31042e-09
3.3576e-09
2.68376e-09
3.49029e-09
2.929e-09
3.60573e-09
3.12095e-09
3.70972e-09
3.26943e-09
3.8037e-09
3.37332e-09
3.89128e-09
3.45205e-09
3.97344e-09
3.51157e-09
4.05217e-09
3.55544e-09
4.12751e-09
3.58206e-09
4.2002e-09
3.59429e-09
4.271e-09
3.59381e-09
4.34024e-09
3.58088e-09
4.40832e-09
3.55486e-09
4.4753e-09
3.51446e-09
4.54082e-09
3.44902e-09
4.60562e-09
3.36864e-09
4.66922e-09
3.26523e-09
4.73214e-09
3.12983e-09
4.79e-09
2.92552e-09
4.84523e-09
2.69774e-09
4.89103e-09
2.35843e-09
4.92677e-09
1.96051e-09
4.93872e-09
1.38167e-09
4.92362e-09
7.45598e-10
4.86903e-09
4.0967e-11
4.7679e-09
-6.87691e-10
4.62164e-09
-1.32894e-09
4.44996e-09
-1.82759e-09
4.25957e-09
-2.26191e-09
4.07407e-09
-2.56956e-09
3.89392e-09
-2.84161e-09
3.72811e-09
-3.02757e-09
3.5733e-09
-3.17589e-09
3.4229e-09
-3.29806e-09
3.2791e-09
-3.38071e-09
3.13943e-09
-3.44235e-09
3.00167e-09
-3.48581e-09
2.86378e-09
-3.51316e-09
2.72352e-09
-3.52555e-09
2.5798e-09
-3.52301e-09
2.43129e-09
-3.50637e-09
2.27617e-09
-3.47533e-09
2.11227e-09
-3.42845e-09
1.93614e-09
-3.36275e-09
1.74811e-09
-3.27381e-09
1.55354e-09
-3.1603e-09
1.34703e-09
-3.02056e-09
1.13014e-09
-2.84717e-09
9.60652e-10
-2.63595e-09
8.22246e-10
-2.38953e-09
8.04127e-10
-2.07174e-09
9.01535e-10
-1.68948e-09
1.16147e-09
-1.19359e-09
1.55968e-09
-5.63519e-10
1.99308e-09
1.52145e-10
2.37135e-09
8.9146e-10
2.67162e-09
1.59152e-09
2.87713e-09
2.12582e-09
3.02882e-09
2.53882e-09
3.14424e-09
2.82625e-09
3.24454e-09
3.05963e-09
3.33147e-09
3.21438e-09
3.41147e-09
3.3326e-09
3.48848e-09
3.42732e-09
3.56291e-09
3.49597e-09
3.63525e-09
3.54263e-09
3.70695e-09
3.57358e-09
3.77866e-09
3.59091e-09
3.85111e-09
3.59531e-09
3.92465e-09
3.58701e-09
3.99933e-09
3.56341e-09
4.07657e-09
3.52569e-09
4.15604e-09
3.47322e-09
4.23871e-09
3.4024e-09
4.32514e-09
3.31053e-09
4.41321e-09
3.1712e-09
4.50554e-09
3.01064e-09
4.60065e-09
2.80822e-09
4.69276e-09
2.4974e-09
4.78329e-09
2.15585e-09
4.85825e-09
1.64672e-09
4.91349e-09
1.05822e-09
4.93452e-09
3.84158e-10
4.909e-09
-3.50156e-10
4.83121e-09
-1.04677e-09
4.71636e-09
-1.60668e-09
4.57397e-09
-2.07887e-09
4.42064e-09
-2.4494e-09
4.26769e-09
-2.73473e-09
4.1244e-09
-2.94865e-09
3.98125e-09
-3.13032e-09
3.84449e-09
-3.25278e-09
3.71139e-09
-3.34713e-09
3.57994e-09
-3.41836e-09
3.44541e-09
-3.47051e-09
3.30527e-09
-3.49942e-09
3.14286e-09
-3.49721e-09
2.92698e-09
-3.45151e-09
2.58382e-09
-3.32001e-09
1.95889e-09
-3.02188e-09
1.61689e-09
-2.60545e-09
1.38867e-09
-2.35612e-09
1.23315e-09
-2.12435e-09
1.18301e-09
-1.82668e-09
1.24031e-09
-1.48408e-09
1.42939e-09
-1.09021e-09
1.73885e-09
-6.60668e-10
2.04524e-09
-3.2109e-10
2.22929e-09
-1.84048e-10
2.34423e-09
-1.14939e-10
2.41931e-09
-7.5085e-11
2.47151e-09
-5.22037e-11
2.51012e-09
-3.8605e-11
2.53998e-09
-2.98621e-11
2.56385e-09
-2.38719e-11
2.58341e-09
-1.95615e-11
2.59973e-09
-1.63131e-11
2.61348e-09
-1.37554e-11
2.62514e-09
-1.1659e-11
2.63501e-09
-9.87439e-12
2.64331e-09
-8.2963e-12
2.65016e-09
-6.8528e-12
2.65561e-09
-5.45027e-12
2.65968e-09
-4.07109e-12
2.66231e-09
-2.62748e-12
2.66322e-09
-9.09143e-13
2.66233e-09
8.91985e-13
2.65913e-09
3.19453e-12
2.65283e-09
6.30294e-12
2.64194e-09
1.08889e-11
2.62344e-09
1.8504e-11
2.59048e-09
3.29629e-11
2.52645e-09
6.40218e-11
2.38932e-09
1.37134e-10
2.06971e-09
3.19607e-10
1.29849e-09
7.71226e-10
1.29849e-09
-1.0247e-10
-8.93798e-10
9.58361e-11
-9.00455e-10
3.46027e-10
-6.36191e-10
5.45708e-10
-4.41751e-10
7.00382e-10
-3.11543e-10
8.20676e-10
-2.24035e-10
9.15073e-10
-1.67816e-10
9.91074e-10
-1.32149e-10
1.05445e-09
-1.09022e-10
1.10922e-09
-9.37581e-11
1.15818e-09
-8.36491e-11
1.20332e-09
-7.70499e-11
1.24609e-09
-7.29409e-11
1.28762e-09
-7.06889e-11
1.32882e-09
-6.98945e-11
1.37042e-09
-7.03043e-11
1.41309e-09
-7.17609e-11
1.45743e-09
-7.41735e-11
1.50402e-09
-7.7502e-11
1.55345e-09
-8.17458e-11
1.6063e-09
-8.69386e-11
1.66323e-09
-9.31488e-11
1.72493e-09
-1.00483e-10
1.7922e-09
-1.09095e-10
1.86595e-09
-1.19209e-10
1.94729e-09
-1.31149e-10
2.0376e-09
-1.45394e-10
2.13865e-09
-1.62664e-10
2.25292e-09
-1.84091e-10
2.38418e-09
-2.11147e-10
2.52104e-09
-2.79923e-10
2.59534e-09
-5.54728e-10
2.60266e-09
-9.42702e-10
2.56886e-09
-1.34697e-09
2.51255e-09
-1.73225e-09
2.44806e-09
-2.11281e-09
2.37724e-09
-2.47102e-09
2.25605e-09
-2.84212e-09
2.09897e-09
-3.08551e-09
1.94311e-09
-3.20962e-09
1.79151e-09
-3.29381e-09
1.64563e-09
-3.35451e-09
1.50121e-09
-3.38658e-09
1.35541e-09
-3.39728e-09
1.20629e-09
-3.39006e-09
1.05192e-09
-3.36457e-09
8.91744e-10
-3.32204e-09
7.23199e-10
-3.2607e-09
5.44179e-10
-3.17839e-09
3.53814e-10
-3.07143e-09
1.52631e-10
-2.93986e-09
-5.21333e-11
-2.79127e-09
-2.58644e-10
-2.61658e-09
-4.47529e-10
-2.41973e-09
-6.02523e-10
-2.18945e-09
-6.82438e-10
-1.92409e-09
-6.50544e-10
-1.60353e-09
-4.32225e-10
-1.2181e-09
5.24542e-12
-7.3116e-10
6.07268e-10
-1.29902e-10
1.26261e-09
5.46042e-10
1.88015e-09
1.23905e-09
2.36898e-09
1.82159e-09
2.74967e-09
2.30305e-09
3.02946e-09
2.64919e-09
3.24354e-09
2.90689e-09
3.41431e-09
3.0987e-09
3.55399e-09
3.23365e-09
3.6737e-09
3.3323e-09
3.77959e-09
3.40561e-09
3.87639e-09
3.4586e-09
3.96565e-09
3.49278e-09
4.04904e-09
3.51092e-09
4.12802e-09
3.51485e-09
4.20354e-09
3.50538e-09
4.27638e-09
3.48203e-09
4.34684e-09
3.444e-09
4.41431e-09
3.38154e-09
4.47962e-09
3.30332e-09
4.5423e-09
3.20255e-09
4.60238e-09
3.06973e-09
4.65444e-09
2.87344e-09
4.70038e-09
2.65178e-09
4.73157e-09
2.32721e-09
4.74583e-09
1.94624e-09
4.72673e-09
1.40077e-09
4.67219e-09
8.00141e-10
4.57697e-09
1.36195e-10
4.44723e-09
-5.57944e-10
4.29545e-09
-1.17716e-09
4.14132e-09
-1.67345e-09
3.98762e-09
-2.10821e-09
3.84098e-09
-2.42292e-09
3.69382e-09
-2.69445e-09
3.5494e-09
-2.88316e-09
3.40506e-09
-3.03155e-09
3.25819e-09
-3.15119e-09
3.10951e-09
-3.23202e-09
2.95845e-09
-3.29129e-09
2.80393e-09
-3.33129e-09
2.64475e-09
-3.35397e-09
2.47974e-09
-3.36055e-09
2.30791e-09
-3.35118e-09
2.12794e-09
-3.3264e-09
1.93796e-09
-3.28536e-09
1.73582e-09
-3.22631e-09
1.51933e-09
-3.14625e-09
1.28808e-09
-3.04255e-09
1.04292e-09
-2.91514e-09
7.84955e-10
-2.76258e-09
5.1424e-10
-2.57646e-09
2.58293e-10
-2.38e-09
1.32286e-11
-2.14447e-09
-1.74113e-10
-1.8844e-09
-2.83662e-10
-1.57993e-09
-2.54037e-10
-1.22321e-09
-2.96045e-11
-7.87952e-10
3.79211e-10
-2.5667e-10
9.02572e-10
3.68103e-10
1.45462e-09
1.03947e-09
1.92718e-09
1.65326e-09
2.30128e-09
2.1647e-09
2.58126e-09
2.54626e-09
2.79828e-09
2.8426e-09
2.96584e-09
3.04681e-09
3.10195e-09
3.19648e-09
3.21943e-09
3.30978e-09
3.3241e-09
3.39125e-09
3.41935e-09
3.44735e-09
3.50847e-09
3.48446e-09
3.59359e-09
3.5058e-09
3.6764e-09
3.51252e-09
3.75789e-09
3.50554e-09
3.83845e-09
3.48287e-09
3.91969e-09
3.44446e-09
4.00162e-09
3.39129e-09
4.08528e-09
3.31874e-09
4.17104e-09
3.22477e-09
4.25597e-09
3.08627e-09
4.34242e-09
2.92418e-09
4.42835e-09
2.72227e-09
4.50574e-09
2.41999e-09
4.57487e-09
2.08671e-09
4.61871e-09
1.60287e-09
4.6324e-09
1.04453e-09
4.60593e-09
4.10644e-10
4.53924e-09
-2.83458e-10
4.44025e-09
-9.47781e-10
4.3294e-09
-1.49583e-09
4.21288e-09
-1.96235e-09
4.0954e-09
-2.33193e-09
3.97484e-09
-2.61419e-09
3.85124e-09
-2.82506e-09
3.71847e-09
-2.99758e-09
3.57881e-09
-3.11315e-09
3.43071e-09
-3.19903e-09
3.27064e-09
-3.25827e-09
3.09176e-09
-3.29158e-09
2.8827e-09
-3.29031e-09
2.6203e-09
-3.23475e-09
2.27676e-09
-3.10794e-09
1.83297e-09
-2.87621e-09
1.32173e-09
-2.51067e-09
9.75471e-10
-2.25924e-09
7.02648e-10
-2.08334e-09
4.56116e-10
-1.87782e-09
2.6155e-10
-1.6321e-09
1.41414e-10
-1.36393e-09
1.2766e-10
-1.07645e-09
2.4795e-10
-7.80959e-10
4.45036e-10
-5.18176e-10
6.05885e-10
-3.44897e-10
7.26674e-10
-2.35729e-10
8.17121e-10
-1.65532e-10
8.85323e-10
-1.20406e-10
9.37434e-10
-9.07155e-11
9.77718e-10
-7.01469e-11
1.00913e-09
-5.52793e-11
1.03368e-09
-4.4114e-11
1.05279e-09
-3.54222e-11
1.06744e-09
-2.84115e-11
1.07834e-09
-2.25569e-11
1.08596e-09
-1.74955e-11
1.09063e-09
-1.29621e-11
1.09253e-09
-8.7503e-12
1.09175e-09
-4.67183e-12
1.08827e-09
-5.93571e-13
1.08192e-09
3.71971e-12
1.07246e-09
8.55449e-12
1.05919e-09
1.41598e-11
1.04127e-09
2.1112e-11
1.01725e-09
3.03238e-11
9.84558e-10
4.35838e-11
9.38531e-10
6.45316e-11
8.70096e-10
1.01398e-10
7.611e-10
1.73017e-10
5.76442e-10
3.21793e-10
2.70688e-10
6.25359e-10
-5.15518e-11
1.09347e-09
1.24694e-09
-2.06342e-10
-6.87456e-10
-2.54587e-10
-8.5221e-10
-1.9061e-10
-7.00168e-10
-9.71908e-11
-5.3517e-10
-2.49026e-12
-4.06244e-10
8.59811e-11
-3.12506e-10
1.65471e-10
-2.47306e-10
2.36076e-10
-2.02754e-10
2.99339e-10
-1.72285e-10
3.56978e-10
-1.51397e-10
4.10542e-10
-1.37213e-10
4.61364e-10
-1.27872e-10
5.10575e-10
-1.22151e-10
5.59126e-10
-1.1924e-10
6.07837e-10
-1.18606e-10
6.5743e-10
-1.19897e-10
7.08563e-10
-1.22894e-10
7.61854e-10
-1.27464e-10
8.17905e-10
-1.33553e-10
8.77322e-10
-1.41163e-10
9.40733e-10
-1.5035e-10
1.00881e-09
-1.61223e-10
1.08227e-09
-1.73945e-10
1.16192e-09
-1.88747e-10
1.24867e-09
-2.05959e-10
1.34357e-09
-2.26048e-10
1.44785e-09
-2.49677e-10
1.56299e-09
-2.77802e-10
1.69073e-09
-3.11833e-10
1.83324e-09
-3.53658e-10
1.98522e-09
-4.31902e-10
2.10675e-09
-6.76255e-10
2.18341e-09
-1.01937e-09
2.21993e-09
-1.38349e-09
2.22034e-09
-1.73265e-09
2.19335e-09
-2.08583e-09
2.13864e-09
-2.41631e-09
2.03535e-09
-2.73884e-09
1.9008e-09
-2.95095e-09
1.76184e-09
-3.07067e-09
1.62236e-09
-3.15433e-09
1.48366e-09
-3.21581e-09
1.34319e-09
-3.24611e-09
1.19929e-09
-3.25339e-09
1.05062e-09
-3.24139e-09
8.95773e-10
-3.20972e-09
7.33467e-10
-3.15974e-09
5.61417e-10
-3.08865e-09
3.77722e-10
-2.99469e-09
1.8431e-10
-2.87801e-09
-1.75498e-11
-2.73799e-09
-2.27594e-10
-2.58123e-09
-4.45077e-10
-2.3991e-09
-6.59488e-10
-2.20532e-09
-8.59222e-10
-1.98971e-09
-1.01606e-09
-1.76724e-09
-1.10351e-09
-1.51609e-09
-1.07779e-09
-1.24381e-09
-8.87357e-10
-9.21596e-10
-5.01783e-10
-5.1548e-10
4.10674e-11
3.1873e-12
6.87488e-10
5.92624e-10
1.30736e-09
1.20172e-09
1.85853e-09
1.75191e-09
2.30468e-09
2.2031e-09
2.65747e-09
2.55419e-09
2.93553e-09
2.82072e-09
3.15451e-09
3.0147e-09
3.33163e-09
3.15518e-09
3.47932e-09
3.2579e-09
3.60692e-09
3.33099e-09
3.7194e-09
3.38031e-09
3.82043e-09
3.40991e-09
3.91276e-09
3.42253e-09
3.99824e-09
3.41991e-09
4.07823e-09
3.40203e-09
4.15346e-09
3.36876e-09
4.22333e-09
3.31166e-09
4.28876e-09
3.23789e-09
4.34931e-09
3.14201e-09
4.40474e-09
3.0143e-09
4.44907e-09
2.82911e-09
4.48408e-09
2.61676e-09
4.5007e-09
2.31058e-09
4.4977e-09
1.94923e-09
4.46081e-09
1.43766e-09
4.39306e-09
8.67894e-10
4.29539e-09
2.33855e-10
4.17668e-09
-4.39236e-10
4.04639e-09
-1.04687e-09
3.91569e-09
-1.54275e-09
3.78154e-09
-1.97406e-09
3.64683e-09
-2.28822e-09
3.50673e-09
-2.55435e-09
3.36433e-09
-2.74076e-09
3.21872e-09
-2.88593e-09
3.06915e-09
-3.00162e-09
2.91635e-09
-3.07922e-09
2.76001e-09
-3.13494e-09
2.59915e-09
-3.17043e-09
2.43275e-09
-3.18757e-09
2.25979e-09
-3.18759e-09
2.0792e-09
-3.17059e-09
1.88957e-09
-3.13678e-09
1.68917e-09
-3.08496e-09
1.47619e-09
-3.01334e-09
1.24918e-09
-2.91925e-09
1.00856e-09
-2.80192e-09
7.55846e-10
-2.66241e-09
4.9201e-10
-2.49874e-09
2.20628e-10
-2.30508e-09
-4.98124e-11
-2.10956e-09
-3.12879e-10
-1.8814e-09
-5.4331e-10
-1.65397e-09
-7.22649e-10
-1.40059e-09
-8.12556e-10
-1.1333e-09
-7.65705e-10
-8.34803e-10
-5.48737e-10
-4.73639e-10
-1.68818e-10
-1.18167e-11
3.44946e-10
5.257e-10
8.87119e-10
1.11108e-09
1.39093e-09
1.66089e-09
1.81457e-09
2.12263e-09
2.16137e-09
2.49584e-09
2.43457e-09
2.77365e-09
2.65181e-09
2.97928e-09
2.82992e-09
3.13169e-09
2.9798e-09
3.24139e-09
3.109e-09
3.31815e-09
3.22371e-09
3.36975e-09
3.32818e-09
3.40135e-09
3.42551e-09
3.4152e-09
3.51773e-09
3.41332e-09
3.60586e-09
3.39474e-09
3.69172e-09
3.35859e-09
3.77573e-09
3.30727e-09
3.85887e-09
3.23558e-09
3.94156e-09
3.14207e-09
4.02042e-09
3.00741e-09
4.09751e-09
2.84708e-09
4.17075e-09
2.64903e-09
4.23151e-09
2.35923e-09
4.2811e-09
2.03711e-09
4.30436e-09
1.57961e-09
4.3012e-09
1.04769e-09
4.26915e-09
4.42688e-10
4.21257e-09
-2.2688e-10
4.13731e-09
-8.72521e-10
4.05407e-09
-1.41258e-09
3.96072e-09
-1.86901e-09
3.85713e-09
-2.22834e-09
3.74136e-09
-2.49843e-09
3.61434e-09
-2.69807e-09
3.47314e-09
-2.8564e-09
3.31965e-09
-2.95969e-09
3.1514e-09
-3.03081e-09
2.96273e-09
-3.0696e-09
2.74405e-09
-3.07288e-09
2.48211e-09
-3.02832e-09
2.1623e-09
-2.91487e-09
1.78197e-09
-2.72754e-09
1.36423e-09
-2.45844e-09
9.70502e-10
-2.11695e-09
6.70909e-10
-1.9597e-09
4.0343e-10
-1.8159e-09
1.53507e-10
-1.62792e-09
-5.42588e-11
-1.42434e-09
-2.05677e-10
-1.21251e-09
-2.84111e-10
-9.98013e-10
-2.729e-10
-7.92166e-10
-1.9348e-10
-5.97595e-10
-1.04899e-10
-4.33478e-10
-2.41157e-11
-3.16513e-10
4.5298e-11
-2.34946e-10
1.03016e-10
-1.78124e-10
1.49838e-10
-1.37537e-10
1.87534e-10
-1.07843e-10
2.17714e-10
-8.54593e-11
2.41674e-10
-6.80745e-11
2.60415e-10
-5.41627e-11
2.7469e-10
-4.26869e-11
2.85055e-10
-3.29212e-11
2.919e-10
-2.43409e-11
2.95483e-10
-1.65449e-11
2.95941e-10
-9.20883e-12
2.93312e-10
-2.04264e-12
2.87482e-10
5.23649e-12
2.78193e-10
1.30092e-11
2.65044e-10
2.17028e-11
2.47314e-10
3.18902e-11
2.23941e-10
4.44854e-11
1.93263e-10
6.10019e-11
1.52729e-10
8.41171e-11
9.82356e-11
1.19025e-10
2.36715e-11
1.75962e-10
-7.87071e-11
2.75396e-10
-2.09757e-10
4.52842e-10
-3.28187e-10
7.43791e-10
-2.97218e-10
1.0625e-09
9.49718e-10
-1.61131e-10
-5.26325e-10
-2.68131e-10
-7.4521e-10
-2.85112e-10
-6.83188e-10
-2.55173e-10
-5.65109e-10
-2.0432e-10
-4.57096e-10
-1.44991e-10
-3.71835e-10
-8.39969e-11
-3.083e-10
-2.45645e-11
-2.62186e-10
3.22955e-11
-2.29145e-10
8.66704e-11
-2.05772e-10
1.3909e-10
-1.89632e-10
1.90214e-10
-1.78996e-10
2.40713e-10
-1.7265e-10
2.91231e-10
-1.69758e-10
3.42378e-10
-1.69753e-10
3.94734e-10
-1.72254e-10
4.4886e-10
-1.77019e-10
5.05307e-10
-1.83912e-10
5.64627e-10
-1.92872e-10
6.27371e-10
-2.03907e-10
6.94111e-10
-2.17091e-10
7.65446e-10
-2.32557e-10
8.42014e-10
-2.50513e-10
9.24512e-10
-2.71245e-10
1.0137e-09
-2.95147e-10
1.11041e-09
-3.22755e-10
1.21553e-09
-3.54802e-10
1.33002e-09
-3.92295e-10
1.45481e-09
-4.36623e-10
1.59075e-09
-4.89596e-10
1.73426e-09
-5.75413e-10
1.85901e-09
-8.01001e-10
1.94864e-09
-1.109e-09
1.99969e-09
-1.43455e-09
2.01131e-09
-1.74426e-09
1.99041e-09
-2.06493e-09
1.93774e-09
-2.36364e-09
1.84266e-09
-2.64376e-09
1.72194e-09
-2.83023e-09
1.59575e-09
-2.94448e-09
1.46688e-09
-3.02546e-09
1.33624e-09
-3.08517e-09
1.20231e-09
-3.11217e-09
1.06413e-09
-3.11521e-09
9.20725e-10
-3.09799e-09
7.70985e-10
-3.05998e-09
6.13714e-10
-3.00247e-09
4.47577e-10
-2.92252e-09
2.7242e-10
-2.81954e-09
8.778e-11
-2.69337e-09
-1.04495e-10
-2.54572e-09
-3.02164e-10
-2.38356e-09
-5.05041e-10
-2.19622e-09
-7.06584e-10
-2.00377e-09
-8.98626e-10
-1.79767e-09
-1.06818e-09
-1.59768e-09
-1.19809e-09
-1.38618e-09
-1.25897e-09
-1.18293e-09
-1.22625e-09
-9.54326e-10
-1.06407e-09
-6.77663e-10
-7.40934e-10
-3.19958e-10
-2.65633e-10
1.17328e-10
2.95821e-10
6.40294e-10
8.77935e-10
1.16986e-09
1.41368e-09
1.66744e-09
1.87728e-09
2.09066e-09
2.26478e-09
2.43326e-09
2.57916e-09
2.70032e-09
2.83379e-09
2.90051e-09
3.04226e-09
3.0494e-09
3.21641e-09
3.15685e-09
3.36451e-09
3.23223e-09
3.49284e-09
3.28159e-09
3.60605e-09
3.30931e-09
3.7074e-09
3.31854e-09
3.7992e-09
3.31021e-09
3.88289e-09
3.28506e-09
3.95821e-09
3.23635e-09
4.02641e-09
3.16969e-09
4.08734e-09
3.08108e-09
4.14078e-09
2.96084e-09
4.18115e-09
2.78872e-09
4.2108e-09
2.58708e-09
4.22172e-09
2.29963e-09
4.2147e-09
1.95624e-09
4.17893e-09
1.47343e-09
4.12027e-09
9.2655e-10
4.04035e-09
3.13774e-10
3.94398e-09
-3.42868e-10
3.8348e-09
-9.37693e-10
3.71931e-09
-1.42726e-09
3.5941e-09
-1.84885e-09
3.46324e-09
-2.15736e-09
3.32452e-09
-2.41563e-09
3.18172e-09
-2.59797e-09
3.03475e-09
-2.73896e-09
2.8834e-09
-2.85026e-09
2.72833e-09
-2.92415e-09
2.56924e-09
-2.97584e-09
2.40529e-09
-3.00648e-09
2.23561e-09
-3.01788e-09
2.05929e-09
-3.01127e-09
1.87531e-09
-2.98661e-09
1.68241e-09
-2.94388e-09
1.47923e-09
-2.88179e-09
1.26465e-09
-2.79878e-09
1.03826e-09
-2.69286e-09
8.01201e-10
-2.56487e-09
5.55199e-10
-2.4164e-09
3.01065e-10
-2.2446e-09
4.612e-11
-2.05013e-09
-2.06975e-10
-1.85647e-09
-4.50881e-10
-1.6375e-09
-6.72855e-10
-1.43199e-09
-8.60365e-10
-1.21307e-09
-9.89389e-10
-1.00427e-09
-1.03857e-09
-7.85618e-10
-9.80699e-10
-5.31516e-10
-7.81547e-10
-2.10974e-10
-4.37773e-10
1.81924e-10
1.10891e-11
6.62225e-10
5.04372e-10
1.16763e-09
9.78084e-10
1.64897e-09
1.40492e-09
2.06906e-09
1.76572e-09
2.4129e-09
2.06406e-09
2.68096e-09
2.31074e-09
2.88502e-09
2.51594e-09
3.03618e-09
2.68874e-09
3.14534e-09
2.8373e-09
3.22118e-09
2.96781e-09
3.27084e-09
3.0849e-09
3.29811e-09
3.19186e-09
3.30634e-09
3.29064e-09
3.29595e-09
3.38345e-09
3.26576e-09
3.47135e-09
3.21935e-09
3.55553e-09
3.15139e-09
3.63668e-09
3.06091e-09
3.71172e-09
2.93236e-09
3.78297e-09
2.77583e-09
3.84922e-09
2.58277e-09
3.90308e-09
2.30536e-09
3.94801e-09
1.99217e-09
3.97249e-09
1.55513e-09
3.97946e-09
1.04071e-09
3.96745e-09
4.54701e-10
3.93661e-09
-1.96044e-10
3.8858e-09
-8.21706e-10
3.81936e-09
-1.34614e-09
3.73396e-09
-1.7836e-09
3.6308e-09
-2.12519e-09
3.51044e-09
-2.37807e-09
3.37514e-09
-2.56277e-09
3.22268e-09
-2.70397e-09
3.05381e-09
-2.79085e-09
2.86463e-09
-2.84165e-09
2.64854e-09
-2.85353e-09
2.39692e-09
-2.82127e-09
2.10212e-09
-2.7335e-09
1.76422e-09
-2.57692e-09
1.39938e-09
-2.36264e-09
1.03938e-09
-2.0984e-09
7.32629e-10
-1.81019e-09
4.79158e-10
-1.70624e-09
2.42312e-10
-1.57908e-09
2.62469e-11
-1.41188e-09
-1.53945e-10
-1.24415e-09
-2.90734e-10
-1.07572e-09
-3.74629e-10
-9.14114e-10
-4.01753e-10
-7.6504e-10
-3.82411e-10
-6.16936e-10
-3.42181e-10
-4.73709e-10
-2.95447e-10
-3.63246e-10
-2.49581e-10
-2.80812e-10
-2.08072e-10
-2.19633e-10
-1.71964e-10
-1.73646e-10
-1.41357e-10
-1.38449e-10
-1.15874e-10
-1.10943e-10
-9.50189e-11
-8.89298e-11
-7.83374e-11
-7.08442e-11
-6.54409e-11
-5.55834e-11
-5.60152e-11
-4.23468e-11
-4.98297e-11
-3.05263e-11
-4.67409e-11
-1.96336e-11
-4.66959e-11
-9.25381e-12
-4.97448e-11
1.00627e-12
-5.6033e-11
1.15247e-11
-6.58265e-11
2.28028e-11
-7.95434e-11
3.54197e-11
-9.78388e-11
5.01856e-11
-1.2166e-10
6.83069e-11
-1.52326e-10
9.16681e-11
-1.91595e-10
1.23386e-10
-2.41335e-10
1.68765e-10
-3.02363e-10
2.3699e-10
-3.70373e-10
3.43406e-10
-4.25267e-10
5.07735e-10
-4.1216e-10
7.30684e-10
-2.56897e-10
9.07233e-10
6.92822e-10
-1.09545e-10
-4.1678e-10
-2.05154e-10
-6.49601e-10
-2.45714e-10
-6.42628e-10
-2.45483e-10
-5.6534e-10
-2.20766e-10
-4.81813e-10
-1.82428e-10
-4.10173e-10
-1.37271e-10
-3.53457e-10
-8.92322e-11
-3.10225e-10
-4.03166e-11
-2.78061e-10
8.62021e-12
-2.54708e-10
5.73426e-11
-2.38355e-10
1.05958e-10
-2.27612e-10
1.54757e-10
-2.21449e-10
2.04115e-10
-2.19116e-10
2.54448e-10
-2.20086e-10
3.0619e-10
-2.23996e-10
3.59787e-10
-2.30616e-10
4.1569e-10
-2.39815e-10
4.74362e-10
-2.51544e-10
5.36279e-10
-2.65823e-10
6.01931e-10
-2.82742e-10
6.7183e-10
-3.02457e-10
7.46513e-10
-3.25196e-10
8.2654e-10
-3.51271e-10
9.12492e-10
-3.81099e-10
1.00496e-09
-4.15227e-10
1.10453e-09
-4.54373e-10
1.21172e-09
-4.99479e-10
1.32687e-09
-5.51774e-10
1.45006e-09
-6.1279e-10
1.57797e-09
-7.03316e-10
1.69035e-09
-9.13384e-10
1.77254e-09
-1.19118e-09
1.81942e-09
-1.48143e-09
1.82905e-09
-1.75389e-09
1.80715e-09
-2.04304e-09
1.75529e-09
-2.31179e-09
1.66735e-09
-2.55581e-09
1.55811e-09
-2.72099e-09
1.44313e-09
-2.8295e-09
1.32438e-09
-2.90671e-09
1.20235e-09
-2.96314e-09
1.07628e-09
-2.9861e-09
9.45715e-10
-2.98465e-09
8.09973e-10
-2.96225e-09
6.68241e-10
-2.91825e-09
5.19672e-10
-2.85391e-09
3.63679e-10
-2.76653e-09
2.004e-10
-2.65627e-09
2.99959e-11
-2.52297e-09
-1.4592e-10
-2.36981e-09
-3.25462e-10
-2.20402e-09
-5.06283e-10
-2.0154e-09
-6.83924e-10
-1.82613e-09
-8.52905e-10
-1.62869e-09
-1.00723e-09
-1.44335e-09
-1.13805e-09
-1.25536e-09
-1.23378e-09
-1.0872e-09
-1.27687e-09
-9.11244e-10
-1.24274e-09
-7.11795e-10
-1.10259e-09
-4.60111e-10
-8.30733e-10
-1.54527e-10
-4.37562e-10
2.47139e-10
4.43794e-11
6.87949e-10
5.55168e-10
1.15668e-09
1.04933e-09
1.5965e-09
1.49809e-09
1.98447e-09
1.88663e-09
2.31173e-09
2.2146e-09
2.57252e-09
2.48891e-09
2.77509e-09
2.7182e-09
2.92759e-09
2.91108e-09
3.03937e-09
3.07506e-09
3.11762e-09
3.21634e-09
3.16802e-09
3.33965e-09
3.19521e-09
3.44848e-09
3.20137e-09
3.54522e-09
3.18831e-09
3.63034e-09
3.15123e-09
3.70573e-09
3.09429e-09
3.77188e-09
3.01491e-09
3.82901e-09
2.9037e-09
3.87267e-09
2.74504e-09
3.90606e-09
2.55368e-09
3.92294e-09
2.28275e-09
3.9255e-09
1.95368e-09
3.90506e-09
1.49387e-09
3.86658e-09
9.65023e-10
3.80886e-09
3.71491e-10
3.73219e-09
-2.66199e-10
3.63721e-09
-8.42719e-10
3.52976e-09
-1.3198e-09
3.40827e-09
-1.72737e-09
3.27855e-09
-2.02764e-09
3.14001e-09
-2.27708e-09
2.99678e-09
-2.45474e-09
2.84911e-09
-2.59128e-09
2.69693e-09
-2.69808e-09
2.54093e-09
-2.76815e-09
2.38083e-09
-2.81574e-09
2.21596e-09
-2.8416e-09
2.04561e-09
-2.84752e-09
1.869e-09
-2.83465e-09
1.68529e-09
-2.8029e-09
1.49353e-09
-2.75213e-09
1.29294e-09
-2.6812e-09
1.08317e-09
-2.58901e-09
8.64687e-10
-2.47439e-09
6.39167e-10
-2.33936e-09
4.08305e-10
-2.18554e-09
1.74671e-10
-2.01097e-09
-5.62061e-11
-1.81925e-09
-2.81919e-10
-1.63076e-09
-4.95393e-10
-1.42403e-09
-6.90861e-10
-1.23653e-09
-8.60833e-10
-1.0431e-09
-9.96116e-10
-8.6899e-10
-1.08386e-09
-6.97875e-10
-1.10633e-09
-5.09041e-10
-1.03919e-09
-2.78128e-10
-8.58405e-10
1.13747e-12
-5.63806e-10
3.67625e-10
-1.79703e-10
7.83533e-10
2.45185e-10
1.22409e-09
6.72667e-10
1.64158e-09
1.06734e-09
2.01822e-09
1.41586e-09
2.33243e-09
1.71628e-09
2.58459e-09
1.97197e-09
2.78049e-09
2.18877e-09
2.92856e-09
2.37397e-09
3.036e-09
2.53413e-09
3.11068e-09
2.67467e-09
3.15757e-09
2.79988e-09
3.18112e-09
2.91263e-09
3.18319e-09
3.01566e-09
3.16272e-09
3.1109e-09
3.1241e-09
3.19999e-09
3.0623e-09
3.28422e-09
2.97668e-09
3.36152e-09
2.85506e-09
3.43482e-09
2.70251e-09
3.50425e-09
2.51333e-09
3.56437e-09
2.24525e-09
3.61981e-09
1.93673e-09
3.66128e-09
1.51365e-09
3.69053e-09
1.01146e-09
3.70272e-09
4.42506e-10
3.69265e-09
-1.85975e-10
3.65543e-09
-7.84486e-10
3.59436e-09
-1.28507e-09
3.5081e-09
-1.69733e-09
3.39988e-09
-2.01696e-09
3.2718e-09
-2.24998e-09
3.12635e-09
-2.41732e-09
2.96124e-09
-2.53887e-09
2.7764e-09
-2.60603e-09
2.56782e-09
-2.6331e-09
2.33048e-09
-2.61622e-09
2.06013e-09
-2.55094e-09
1.75739e-09
-2.43076e-09
1.43367e-09
-2.25318e-09
1.1112e-09
-2.04013e-09
8.16867e-10
-1.80402e-09
5.73908e-10
-1.5672e-09
3.6038e-10
-1.49271e-09
1.6044e-10
-1.37916e-09
-1.61767e-11
-1.23528e-09
-1.6123e-10
-1.09911e-09
-2.72673e-10
-9.64275e-10
-3.47488e-10
-8.39298e-10
-3.86472e-10
-7.26054e-10
-3.94113e-10
-6.09293e-10
-3.8072e-10
-4.87101e-10
-3.56575e-10
-3.8739e-10
-3.28289e-10
-3.09099e-10
-2.99869e-10
-2.48053e-10
-2.73351e-10
-2.00164e-10
-2.49684e-10
-1.62116e-10
-2.29239e-10
-1.31387e-10
-2.12068e-10
-1.06101e-10
-1.9807e-10
-8.4842e-11
-1.87109e-10
-6.65444e-11
-1.79057e-10
-5.03986e-11
-1.73817e-10
-3.57669e-11
-1.71334e-10
-2.21163e-11
-1.71619e-10
-8.9691e-12
-1.74744e-10
4.13117e-12
-1.80859e-10
1.76399e-11
-1.90169e-10
3.21125e-11
-2.0299e-10
4.82416e-11
-2.19749e-10
6.69441e-11
-2.40977e-10
8.95346e-11
-2.67288e-10
1.17979e-10
-2.99139e-10
1.55237e-10
-3.36172e-10
2.05798e-10
-3.75621e-10
2.7644e-10
-4.08534e-10
3.7632e-10
-4.1366e-10
5.12861e-10
-3.50771e-10
6.67795e-10
-1.86705e-10
7.43168e-10
5.06117e-10
-7.14968e-11
-3.45283e-10
-1.44846e-10
-5.76252e-10
-1.85959e-10
-6.01514e-10
-1.96758e-10
-5.54541e-10
-1.85927e-10
-4.92644e-10
-1.61031e-10
-4.35069e-10
-1.27532e-10
-3.86957e-10
-8.90266e-11
-3.4873e-10
-4.76962e-11
-3.19391e-10
-4.75441e-12
-2.9765e-10
3.91972e-11
-2.82306e-10
8.39418e-11
-2.72357e-10
1.29502e-10
-2.67009e-10
1.76043e-10
-2.65658e-10
2.23817e-10
-2.6786e-10
2.73127e-10
-2.73306e-10
3.24309e-10
-2.81798e-10
3.77721e-10
-2.93227e-10
4.3374e-10
-3.07563e-10
4.92758e-10
-3.24841e-10
5.55182e-10
-3.45166e-10
6.21431e-10
-3.68706e-10
6.91932e-10
-3.95697e-10
7.67118e-10
-4.26457e-10
8.4741e-10
-4.61392e-10
9.33206e-10
-5.01022e-10
1.02484e-09
-5.46003e-10
1.12251e-09
-5.97158e-10
1.22625e-09
-6.55509e-10
1.33573e-09
-7.22275e-10
1.44771e-09
-8.15293e-10
1.5451e-09
-1.01077e-09
1.6155e-09
-1.26158e-09
1.65427e-09
-1.5202e-09
1.65963e-09
-1.75925e-09
1.63629e-09
-2.0197e-09
1.58615e-09
-2.26165e-09
1.50536e-09
-2.47502e-09
1.40653e-09
-2.62215e-09
1.30189e-09
-2.72486e-09
1.19298e-09
-2.7978e-09
1.07989e-09
-2.85005e-09
9.62495e-10
-2.8687e-09
8.40736e-10
-2.86288e-09
7.14142e-10
-2.83565e-09
5.82146e-10
-2.78626e-09
4.44203e-10
-2.71596e-09
3.00137e-10
-2.62246e-09
1.50316e-10
-2.50645e-09
-4.44268e-12
-2.36822e-09
-1.62297e-10
-2.21195e-09
-3.21505e-10
-2.04481e-09
-4.78806e-10
-1.8581e-09
-6.31e-10
-1.67394e-09
-7.74272e-10
-1.48542e-09
-9.06075e-10
-1.31155e-09
-1.02198e-09
-1.13945e-09
-1.11865e-09
-9.90528e-10
-1.18808e-09
-8.41811e-10
-1.21626e-09
-6.83616e-10
-1.18235e-09
-4.94017e-10
-1.06057e-09
-2.7631e-10
-8.35841e-10
2.24195e-11
-5.0957e-10
3.61681e-10
-1.09068e-10
7.56167e-10
3.28969e-10
1.15843e-09
7.67202e-10
1.5462e-09
1.17892e-09
1.89999e-09
1.54787e-09
2.20358e-09
1.87127e-09
2.45172e-09
2.14917e-09
2.6497e-09
2.38658e-09
2.80196e-09
2.58915e-09
2.91504e-09
2.76284e-09
2.99432e-09
2.91296e-09
3.04507e-09
3.04379e-09
3.07053e-09
3.15865e-09
3.07344e-09
3.2589e-09
3.05097e-09
3.34718e-09
3.00599e-09
3.42488e-09
2.93719e-09
3.4928e-09
2.83576e-09
3.54798e-09
2.68985e-09
3.59405e-09
2.5076e-09
3.62627e-09
2.25052e-09
3.64688e-09
1.93308e-09
3.64751e-09
1.49324e-09
3.63037e-09
9.82158e-10
3.59136e-09
4.10493e-10
3.52834e-09
-2.03181e-10
3.44176e-09
-7.56135e-10
3.33843e-09
-1.21647e-09
3.2188e-09
-1.60774e-09
3.08978e-09
-1.89861e-09
2.95166e-09
-2.13896e-09
2.80865e-09
-2.31173e-09
2.66116e-09
-2.44378e-09
2.5092e-09
-2.54613e-09
2.35355e-09
-2.61249e-09
2.19399e-09
-2.65618e-09
2.03004e-09
-2.67765e-09
1.86118e-09
-2.67866e-09
1.68682e-09
-2.66029e-09
1.50638e-09
-2.62247e-09
1.31932e-09
-2.56507e-09
1.12539e-09
-2.48727e-09
9.24873e-10
-2.38851e-09
7.18815e-10
-2.26834e-09
5.0913e-10
-2.12968e-09
2.97744e-10
-1.97416e-09
8.8011e-11
-1.80123e-09
-1.15492e-10
-1.61574e-09
-3.10698e-10
-1.43555e-09
-4.91579e-10
-1.24315e-09
-6.5632e-10
-1.07179e-09
-8.00625e-10
-8.98795e-10
-9.21895e-10
-7.47719e-10
-1.01577e-09
-6.04001e-10
-1.07199e-09
-4.52818e-10
-1.07542e-09
-2.74705e-10
-1.00541e-09
-6.88715e-11
-8.45973e-10
2.08185e-10
-5.95671e-10
5.33232e-10
-2.75975e-10
9.04391e-10
8.54992e-11
1.2801e-09
4.53319e-10
1.65039e-09
8.04743e-10
1.98099e-09
1.12543e-09
2.26391e-09
1.41072e-09
2.49521e-09
1.65953e-09
2.67976e-09
1.87547e-09
2.82005e-09
2.06319e-09
2.92296e-09
2.22738e-09
2.99338e-09
2.37242e-09
3.03605e-09
2.50172e-09
3.05387e-09
2.61836e-09
3.04607e-09
2.72514e-09
3.01732e-09
2.82419e-09
2.96324e-09
2.91754e-09
2.88332e-09
3.00439e-09
2.76821e-09
3.08812e-09
2.61877e-09
3.16986e-09
2.43158e-09
3.24557e-09
2.16953e-09
3.31929e-09
1.86301e-09
3.38192e-09
1.45102e-09
3.43199e-09
9.6139e-10
3.46131e-09
4.13184e-10
3.46194e-09
-1.86607e-10
3.42878e-09
-7.51321e-10
3.36622e-09
-1.22251e-09
3.27506e-09
-1.60617e-09
3.15972e-09
-1.90161e-09
3.02295e-09
-2.11321e-09
2.86706e-09
-2.26141e-09
2.68989e-09
-2.3617e-09
2.4915e-09
-2.40765e-09
2.26929e-09
-2.41091e-09
2.02147e-09
-2.36843e-09
1.74913e-09
-2.27863e-09
1.45938e-09
-2.14103e-09
1.16831e-09
-1.96211e-09
8.9555e-10
-1.76735e-09
6.57417e-10
-1.56585e-09
4.62045e-10
-1.37179e-09
2.83907e-10
-1.31455e-09
1.19828e-10
-1.21508e-09
-2.12172e-11
-1.09425e-09
-1.36415e-10
-9.83928e-10
-2.25737e-10
-8.74959e-10
-2.89456e-10
-7.7558e-10
-3.29934e-10
-6.85575e-10
-3.49057e-10
-5.9017e-10
-3.50113e-10
-4.86044e-10
-3.39849e-10
-3.97654e-10
-3.23646e-10
-3.25301e-10
-3.05118e-10
-2.66581e-10
-2.86457e-10
-2.18825e-10
-2.68915e-10
-1.79658e-10
-2.53174e-10
-1.47129e-10
-2.39583e-10
-1.19692e-10
-2.28298e-10
-9.6127e-11
-2.1937e-10
-7.54721e-11
-2.12811e-10
-5.69578e-11