/*--------------------------------*- C++ -*----------------------------------*\
| =========                 |                                                 |
| \\      /  F ield         | OpenFOAM: The Open Source CFD Toolbox           |
|  \\    /   O peration     | Version:  2506                                  |
|   \\  /    A nd           | Website:  www.openfoam.com                      |
|    \\/     M anipulation  |                                                 |
\*---------------------------------------------------------------------------*/
FoamFile
{
    version     2.0;
    format      ascii;
    arch        "LSB;label=32;scalar=64";
    class       surfaceScalarField;
    location    "1.6";
    object      phi;
}
// * * * * * * * * * * * * * * * * * * * * * * * * * * * * * * * * * * * * * //

dimensions      [0 3 -1 0 0 0 0];

oriented        oriented;

internalField   nonuniform List<scalar> 
7780
(
9.93299e-10
-9.93298e-10
1.71565e-09
-7.22347e-10
2.13818e-09
-4.22531e-10
2.42042e-09
-2.82246e-10
2.61599e-09
-1.95572e-10
2.75368e-09
-1.37686e-10
2.85568e-09
-1.02003e-10
2.9358e-09
-8.01207e-11
3.00167e-09
-6.58675e-11
3.05775e-09
-5.60766e-11
3.10686e-09
-4.91117e-11
3.15086e-09
-4.40034e-11
3.19102e-09
-4.01601e-11
3.22825e-09
-3.72234e-11
3.26322e-09
-3.49698e-11
3.29647e-09
-3.32551e-11
3.32846e-09
-3.19856e-11
3.35956e-09
-3.11021e-11
3.39013e-09
-3.05709e-11
3.42051e-09
-3.03791e-11
3.45104e-09
-3.05319e-11
3.48209e-09
-3.10532e-11
3.51408e-09
-3.19863e-11
3.54748e-09
-3.34001e-11
3.58288e-09
-3.5401e-11
3.62103e-09
-3.81484e-11
3.66291e-09
-4.1885e-11
3.7099e-09
-4.69886e-11
3.76393e-09
-5.40255e-11
3.82757e-09
-6.36428e-11
3.88435e-09
-1.30527e-10
3.84713e-09
-4.82961e-10
3.71029e-09
-9.46488e-10
3.50523e-09
-1.38529e-09
3.2568e-09
-1.7728e-09
3.00581e-09
-2.13457e-09
2.77289e-09
-2.47676e-09
2.47147e-09
-2.8841e-09
2.14096e-09
-3.15561e-09
1.86879e-09
-3.28674e-09
1.64663e-09
-3.38681e-09
1.47207e-09
-3.46673e-09
1.33514e-09
-3.52359e-09
1.22815e-09
-3.56051e-09
1.14379e-09
-3.57815e-09
1.07363e-09
-3.5752e-09
1.01476e-09
-3.55121e-09
9.58141e-10
-3.50553e-09
8.9847e-10
-3.43745e-09
8.29775e-10
-3.34328e-09
7.52471e-10
-3.2186e-09
6.8385e-10
-3.06074e-09
6.16458e-10
-2.8715e-09
5.90421e-10
-2.63434e-09
6.27538e-10
-2.34642e-09
7.80618e-10
-1.97933e-09
1.0545e-09
-1.52926e-09
1.46756e-09
-9.41164e-10
1.9521e-09
-2.29739e-10
2.40374e-09
5.27127e-10
2.76863e-09
1.23916e-09
3.04596e-09
1.88612e-09
3.2458e-09
2.32388e-09
3.40532e-09
2.69433e-09
3.53181e-09
2.9352e-09
3.64312e-09
3.12508e-09
3.74389e-09
3.27266e-09
3.83529e-09
3.37586e-09
3.92051e-09
3.45434e-09
4.00051e-09
3.5137e-09
4.07724e-09
3.55746e-09
4.15074e-09
3.58396e-09
4.22165e-09
3.59613e-09
4.29068e-09
3.59561e-09
4.35821e-09
3.58264e-09
4.42465e-09
3.55654e-09
4.49011e-09
3.51601e-09
4.5543e-09
3.45035e-09
4.61784e-09
3.36989e-09
4.68021e-09
3.26644e-09
4.74196e-09
3.13098e-09
4.799e-09
2.92634e-09
4.8534e-09
2.69856e-09
4.89889e-09
2.35874e-09
4.93468e-09
1.96046e-09
4.94827e-09
1.38003e-09
4.93721e-09
7.41562e-10
4.89201e-09
3.15724e-11
4.80963e-09
-7.06433e-10
4.69292e-09
-1.35849e-09
4.56097e-09
-1.86732e-09
4.42481e-09
-2.31613e-09
4.3087e-09
-2.63895e-09
4.21273e-09
-2.9258e-09
4.1416e-09
-3.12225e-09
4.08829e-09
-3.27739e-09
4.04356e-09
-3.40374e-09
3.9999e-09
-3.48085e-09
3.951e-09
-3.5331e-09
3.89244e-09
-3.56499e-09
3.8196e-09
-3.5782e-09
3.73081e-09
-3.57702e-09
3.62648e-09
-3.56239e-09
3.50825e-09
-3.53665e-09
3.37752e-09
-3.49974e-09
3.23482e-09
-3.44967e-09
3.0785e-09
-3.38259e-09
2.90605e-09
-3.2894e-09
2.71756e-09
-3.16639e-09
2.5073e-09
-3.01679e-09
2.2727e-09
-2.82944e-09
2.04463e-09
-2.57735e-09
1.81929e-09
-2.30258e-09
1.67504e-09
-1.9456e-09
1.62748e-09
-1.54451e-09
1.72922e-09
-1.03538e-09
1.9731e-09
-4.09186e-10
2.27596e-09
2.82688e-10
2.56162e-09
9.84067e-10
2.8e-09
1.65341e-09
2.96992e-09
2.1614e-09
3.09954e-09
2.56089e-09
3.20196e-09
2.83926e-09
3.29327e-09
3.06863e-09
3.37467e-09
3.21991e-09
3.45042e-09
3.33681e-09
3.52371e-09
3.43097e-09
3.59516e-09
3.49892e-09
3.66515e-09
3.54501e-09
3.73477e-09
3.57569e-09
3.80455e-09
3.59288e-09
3.87515e-09
3.59719e-09
3.94691e-09
3.58882e-09
4.01988e-09
3.56513e-09
4.09548e-09
3.52735e-09
4.17338e-09
3.4748e-09
4.25461e-09
3.40384e-09
4.33974e-09
3.31182e-09
4.42689e-09
3.17209e-09
4.51839e-09
3.01145e-09
4.61275e-09
2.80895e-09
4.70478e-09
2.49747e-09
4.79527e-09
2.1559e-09
4.87142e-09
1.64553e-09
4.92958e-09
1.0553e-09
4.95731e-09
3.77468e-10
4.94614e-09
-3.64503e-10
4.89262e-09
-1.07104e-09
4.81133e-09
-1.64024e-09
4.71362e-09
-2.12354e-09
4.6202e-09
-2.50932e-09
4.54286e-09
-2.81034e-09
4.48559e-09
-3.03469e-09
4.43952e-09
-3.22744e-09
4.40183e-09
-3.35191e-09
4.36535e-09
-3.44381e-09
4.32255e-09
-3.50707e-09
4.26684e-09
-3.54936e-09
4.19237e-09
-3.56509e-09
4.0813e-09
-3.54849e-09
3.92049e-09
-3.50646e-09
3.69392e-09
-3.43648e-09
3.34511e-09
-3.29788e-09
3.09384e-09
-2.69611e-09
2.87256e-09
-2.36306e-09
2.67191e-09
-2.07923e-09
2.5224e-09
-1.72735e-09
2.44434e-09
-1.34873e-09
2.46269e-09
-9.19491e-10
2.58147e-09
-4.69992e-10
2.72473e-09
-1.57967e-10
2.80837e-09
-8.36362e-11
2.85854e-09
-5.01696e-11
2.89112e-09
-3.25803e-11
2.91505e-09
-2.39339e-11
2.93502e-09
-1.99694e-11
2.95302e-09
-1.8004e-11
2.96971e-09
-1.66876e-11
2.98519e-09
-1.54864e-11
2.99939e-09
-1.41979e-11
3.01216e-09
-1.27675e-11
3.02337e-09
-1.12068e-11
3.03291e-09
-9.54374e-12
3.04066e-09
-7.74929e-12
3.04647e-09
-5.80832e-12
3.05012e-09
-3.65489e-12
3.05121e-09
-1.08685e-12
3.04946e-09
1.74989e-12
3.04428e-09
5.18116e-12
3.03491e-09
9.36559e-12
3.02041e-09
1.45069e-11
2.99942e-09
2.09857e-11
2.96987e-09
2.95495e-11
2.92799e-09
4.18849e-11
2.86591e-09
6.20725e-11
2.76569e-09
1.0022e-10
2.58397e-09
1.81721e-10
2.20973e-09
3.74245e-10
1.36974e-09
8.39983e-10
1.36974e-09
-9.22481e-11
-9.0105e-10
1.41097e-10
-9.55692e-10
4.50636e-10
-7.32071e-10
7.20054e-10
-5.51664e-10
9.44405e-10
-4.19923e-10
1.12997e-09
-3.23256e-10
1.2838e-09
-2.55828e-10
1.41294e-09
-2.09258e-10
1.52316e-09
-1.76094e-10
1.61876e-09
-1.51678e-10
1.7029e-09
-1.33244e-10
1.77793e-09
-1.19035e-10
1.84567e-09
-1.07896e-10
1.90751e-09
-9.90697e-11
1.96459e-09
-9.205e-11
2.01783e-09
-8.64947e-11
2.06802e-09
-8.21726e-11
2.11585e-09
-7.89321e-11
2.16196e-09
-7.66837e-11
2.20697e-09
-7.53895e-11
2.2515e-09
-7.50579e-11
2.29619e-09
-7.57436e-11
2.34175e-09
-7.75522e-11
2.38901e-09
-8.06518e-11
2.4389e-09
-8.52941e-11
2.4926e-09
-9.18481e-11
2.55157e-09
-1.00857e-10
2.61771e-09
-1.1313e-10
2.69363e-09
-1.2994e-10
2.78311e-09
-1.53126e-10
2.87532e-09
-2.22744e-10
2.90248e-09
-5.10121e-10
2.85402e-09
-8.98019e-10
2.75106e-09
-1.28233e-09
2.61353e-09
-1.63527e-09
2.46246e-09
-1.9835e-09
2.30716e-09
-2.32146e-09
2.10748e-09
-2.68443e-09
1.88652e-09
-2.93465e-09
1.68942e-09
-3.08964e-09
1.52038e-09
-3.21777e-09
1.3791e-09
-3.32544e-09
1.25985e-09
-3.40433e-09
1.1574e-09
-3.45805e-09
1.06656e-09
-3.48731e-09
9.81937e-10
-3.49058e-09
8.98953e-10
-3.46824e-09
8.10973e-10
-3.41756e-09
7.1346e-10
-3.33996e-09
6.01401e-10
-3.23124e-09
4.74367e-10
-3.09156e-09
3.38207e-10
-2.92457e-09
1.9061e-10
-2.72389e-09
4.98098e-11
-2.49353e-09
-6.71784e-11
-2.22942e-09
-1.21184e-10
-1.92532e-09
-7.8678e-11
-1.57176e-09
1.26088e-10
-1.14593e-09
5.1808e-10
-6.21734e-10
1.04892e-09
-3.7185e-12
1.62692e-09
6.61158e-10
2.16911e-09
1.34392e-09
2.59998e-09
1.89301e-09
2.93557e-09
2.35873e-09
3.18311e-09
2.68768e-09
3.37444e-09
2.93377e-09
3.52871e-09
3.1184e-09
3.65657e-09
3.24796e-09
3.76735e-09
3.34352e-09
3.86596e-09
3.4151e-09
3.95652e-09
3.46693e-09
4.04042e-09
3.5001e-09
4.11914e-09
3.51744e-09
4.19399e-09
3.52079e-09
4.26576e-09
3.51088e-09
4.33515e-09
3.48716e-09
4.40244e-09
3.44872e-09
4.46727e-09
3.38551e-09
4.53034e-09
3.30681e-09
4.59128e-09
3.2055e-09
4.65039e-09
3.07187e-09
4.70299e-09
2.87373e-09
4.75077e-09
2.65077e-09
4.78666e-09
2.32282e-09
4.80917e-09
1.93793e-09
4.80521e-09
1.38398e-09
4.77393e-09
7.72835e-10
4.71075e-09
9.47566e-11
4.62155e-09
-6.17231e-10
4.51845e-09
-1.25539e-09
4.42239e-09
-1.77127e-09
4.34027e-09
-2.23401e-09
4.27634e-09
-2.57502e-09
4.22541e-09
-2.87486e-09
4.18434e-09
-3.08117e-09
4.14346e-09
-3.23651e-09
4.09607e-09
-3.35636e-09
4.03818e-09
-3.42296e-09
3.967e-09
-3.46192e-09
3.87881e-09
-3.4768e-09
3.77353e-09
-3.47292e-09
3.65335e-09
-3.45684e-09
3.52054e-09
-3.42957e-09
3.37645e-09
-3.39255e-09
3.22052e-09
-3.3438e-09
3.05051e-09
-3.27964e-09
2.86264e-09
-3.19471e-09
2.65267e-09
-3.07944e-09
2.41834e-09
-2.93207e-09
2.15582e-09
-2.75428e-09
1.86665e-09
-2.54027e-09
1.56815e-09
-2.27885e-09
1.26857e-09
-2.00299e-09
1.01136e-09
-1.6884e-09
8.2175e-10
-1.35489e-09
7.54048e-10
-9.67676e-10
8.5433e-10
-5.09466e-10
1.11918e-09
1.78417e-11
1.49736e-09
6.05883e-10
1.91364e-09
1.23714e-09
2.28024e-09
1.7948e-09
2.57581e-09
2.26533e-09
2.80078e-09
2.61429e-09
2.97848e-09
2.89094e-09
3.11953e-09
3.07884e-09
3.23704e-09
3.21926e-09
3.34058e-09
3.32741e-09
3.43439e-09
3.40513e-09
3.521e-09
3.45843e-09
3.60307e-09
3.49365e-09
3.68228e-09
3.5137e-09
3.76003e-09
3.51946e-09
3.83711e-09
3.51174e-09
3.91388e-09
3.48836e-09
3.99187e-09
3.44936e-09
4.07095e-09
3.39571e-09
4.15217e-09
3.32262e-09
4.23602e-09
3.22797e-09
4.32023e-09
3.08788e-09
4.40697e-09
2.92472e-09
4.4945e-09
2.72142e-09
4.57668e-09
2.41529e-09
4.65363e-09
2.07894e-09
4.71145e-09
1.5877e-09
4.7466e-09
1.02014e-09
4.75026e-09
3.73812e-10
4.72255e-09
-3.36789e-10
4.67113e-09
-1.01963e-09
4.61741e-09
-1.58652e-09
4.57206e-09
-2.07818e-09
4.53959e-09
-2.47684e-09
4.51526e-09
-2.78601e-09
4.49593e-09
-3.01535e-09
4.47182e-09
-3.20332e-09
4.43741e-09
-3.31751e-09
4.38739e-09
-3.3938e-09
4.31587e-09
-3.43557e-09
4.21786e-09
-3.45137e-09
4.08976e-09
-3.43703e-09
3.91674e-09
-3.3755e-09
3.68983e-09
-3.27957e-09
3.40841e-09
-3.15506e-09
3.07932e-09
-2.96878e-09
2.80923e-09
-2.42599e-09
2.55527e-09
-2.10908e-09
2.30788e-09
-1.83181e-09
2.08304e-09
-1.50249e-09
1.90222e-09
-1.16791e-09
1.79183e-09
-8.09108e-10
1.77548e-09
-4.53641e-10
1.8236e-09
-2.06086e-10
1.86657e-09
-1.26614e-10
1.89994e-09
-8.3535e-11
1.92634e-09
-5.89851e-11
1.94896e-09
-4.65519e-11
1.96989e-09
-4.08958e-11
1.98994e-09
-3.80541e-11
2.00901e-09
-3.57598e-11
2.02669e-09
-3.3164e-11
2.04244e-09
-2.99547e-11
2.0558e-09
-2.6122e-11
2.06635e-09
-2.17619e-11
2.07376e-09
-1.69507e-11
2.07768e-09
-1.16693e-11
2.07769e-09
-5.82306e-12
2.07325e-09
7.83686e-13
2.0637e-09
8.4728e-12
2.04787e-09
1.7572e-11
2.02447e-09
2.85848e-11
1.99177e-09
4.20682e-11
1.9475e-09
5.87722e-11
1.88861e-09
7.98738e-11
1.81067e-09
1.07491e-10
1.70662e-09
1.4594e-10
1.564e-09
2.04685e-10
1.35951e-09
3.04712e-10
1.05146e-09
4.8977e-10
5.92031e-10
8.33675e-10
7.75659e-11
1.35445e-09
1.44731e-09
-1.99617e-10
-7.01433e-10
-2.20907e-10
-9.34402e-10
-1.12925e-10
-8.40052e-10
3.81852e-11
-7.02774e-10
1.96887e-10
-5.78625e-10
3.5066e-10
-4.77029e-10
4.93326e-10
-3.98494e-10
6.22888e-10
-3.38819e-10
7.39797e-10
-2.93003e-10
8.45353e-10
-2.57234e-10
9.40994e-10
-2.28886e-10
1.02809e-09
-2.0613e-10
1.10787e-09
-1.87674e-10
1.1814e-09
-1.72608e-10
1.24965e-09
-1.60292e-10
1.31342e-09
-1.50272e-10
1.37349e-09
-1.42234e-10
1.43052e-09
-1.35966e-10
1.48518e-09
-1.31347e-10
1.53812e-09
-1.28327e-10
1.58999e-09
-1.2693e-10
1.6415e-09
-1.27248e-10
1.6934e-09
-1.29454e-10
1.74656e-09
-1.33815e-10
1.80199e-09
-1.4072e-10
1.86086e-09
-1.50722e-10
1.9246e-09
-1.64598e-10
1.99493e-09
-1.83454e-10
2.07389e-09
-2.08907e-10
2.16397e-09
-2.43206e-10
2.25839e-09
-3.17164e-10
2.30981e-09
-5.61533e-10
2.30336e-09
-8.91572e-10
2.24912e-09
-1.22809e-09
2.15983e-09
-1.54598e-09
2.05169e-09
-1.87536e-09
1.9306e-09
-2.20036e-09
1.77619e-09
-2.53002e-09
1.61082e-09
-2.76928e-09
1.46344e-09
-2.94226e-09
1.33564e-09
-3.08996e-09
1.22545e-09
-3.21526e-09
1.12864e-09
-3.30752e-09
1.04123e-09
-3.37064e-09
9.5895e-10
-3.40504e-09
8.77382e-10
-3.40901e-09
7.92361e-10
-3.38322e-09
6.98788e-10
-3.324e-09
5.93122e-10
-3.23432e-09
4.72167e-10
-3.11031e-09
3.35811e-10
-2.95522e-09
1.86623e-10
-2.77538e-09
2.58033e-11
-2.56307e-09
-1.3543e-10
-2.33229e-09
-2.84609e-10
-2.08024e-09
-3.96049e-10
-1.81388e-09
-4.46264e-10
-1.52155e-09
-3.92185e-10
-1.20001e-09
-1.91578e-10
-8.22342e-10
1.71129e-10
-3.66431e-10
6.64736e-10
1.67542e-10
1.23888e-09
7.69764e-10
1.78363e-09
1.34826e-09
2.2649e-09
1.87748e-09
2.65068e-09
2.30193e-09
2.95547e-09
2.62901e-09
3.19561e-09
2.87828e-09
3.38551e-09
3.05809e-09
3.54041e-09
3.18867e-09
3.67067e-09
3.28489e-09
3.78425e-09
3.35339e-09
3.88528e-09
3.3991e-09
3.97688e-09
3.42585e-09
4.0614e-09
3.43625e-09
4.14038e-09
3.43188e-09
4.215e-09
3.41251e-09
4.28588e-09
3.37781e-09
4.3528e-09
3.31856e-09
4.4165e-09
3.24308e-09
4.47664e-09
3.14534e-09
4.5335e-09
3.01499e-09
4.58235e-09
2.82486e-09
4.62477e-09
2.60833e-09
4.65375e-09
2.29382e-09
4.66831e-09
1.92335e-09
4.65709e-09
1.39519e-09
4.62222e-09
8.07702e-10
4.56402e-09
1.52958e-10
4.49256e-09
-5.45763e-10
4.41965e-09
-1.18248e-09
4.35947e-09
-1.7111e-09
4.31071e-09
-2.18525e-09
4.27272e-09
-2.53703e-09
4.23744e-09
-2.83958e-09
4.19851e-09
-3.04225e-09
4.15048e-09
-3.18848e-09
4.08863e-09
-3.2945e-09
4.00981e-09
-3.34414e-09
3.91343e-09
-3.36554e-09
3.80046e-09
-3.36384e-09
3.6738e-09
-3.34625e-09
3.53577e-09
-3.31881e-09
3.38782e-09
-3.28161e-09
3.22972e-09
-3.23445e-09
3.05914e-09
-3.17322e-09
2.87249e-09
-3.09298e-09
2.66561e-09
-2.98783e-09
2.43485e-09
-2.84867e-09
2.179e-09
-2.67623e-09
1.89762e-09
-2.47291e-09
1.59585e-09
-2.23852e-09
1.28868e-09
-1.9717e-09
9.87308e-10
-1.70162e-09
7.1553e-10
-1.41662e-09
4.94692e-10
-1.13405e-09
3.59112e-10
-8.32092e-10
3.47062e-10
-4.97413e-10
4.79254e-10
-1.1435e-10
7.5448e-10
3.30659e-10
1.14044e-09
8.51178e-10
1.5574e-09
1.37783e-09
1.94988e-09
1.87286e-09
2.28179e-09
2.28239e-09
2.55489e-09
2.61783e-09
2.77274e-09
2.86099e-09
2.9482e-09
3.04382e-09
3.09451e-09
3.18115e-09
3.21999e-09
3.2797e-09
3.33026e-09
3.3482e-09
3.43005e-09
3.39388e-09
3.52255e-09
3.42119e-09
3.61025e-09
3.43174e-09
3.69471e-09
3.42726e-09
3.77675e-09
3.4063e-09
3.85813e-09
3.36796e-09
3.93901e-09
3.31482e-09
4.02047e-09
3.24114e-09
4.10306e-09
3.14537e-09
4.18441e-09
3.00651e-09
4.26644e-09
2.84267e-09
4.34747e-09
2.64039e-09
4.42123e-09
2.34152e-09
4.48831e-09
2.01185e-09
4.53647e-09
1.53955e-09
4.56522e-09
9.91386e-10
4.57162e-09
3.67414e-10
4.5614e-09
-3.26579e-10
4.54376e-09
-1.00199e-09
4.53281e-09
-1.57557e-09
4.52814e-09
-2.07351e-09
4.52698e-09
-2.47568e-09
4.52217e-09
-2.78119e-09
4.50786e-09
-3.00103e-09
4.47372e-09
-3.16918e-09
4.41811e-09
-3.2619e-09
4.33733e-09
-3.31303e-09
4.22843e-09
-3.32668e-09
4.08993e-09
-3.31289e-09
3.92068e-09
-3.2678e-09
3.70922e-09
-3.16408e-09
3.45365e-09
-3.02402e-09
3.1653e-09
-2.86674e-09
2.86368e-09
-2.66717e-09
2.60613e-09
-2.16843e-09
2.35821e-09
-1.86114e-09
2.1151e-09
-1.58868e-09
1.88876e-09
-1.27614e-09
1.69561e-09
-9.74749e-10
1.55159e-09
-6.65089e-10
1.47224e-09
-3.74288e-10
1.44803e-09
-1.81881e-10
1.44227e-09
-1.20851e-10
1.44525e-09
-8.65153e-11
1.45363e-09
-6.73696e-11
1.46563e-09
-5.85525e-11
1.48004e-09
-5.53031e-11
1.49582e-09
-5.38349e-11
1.51185e-09
-5.17832e-11
1.5272e-09
-4.85193e-11
1.54099e-09
-4.3746e-11
1.5525e-09
-3.76292e-11
1.56112e-09
-3.0387e-11
1.56633e-09
-2.21524e-11
1.56755e-09
-1.28944e-11
1.56414e-09
-2.41304e-12
1.55523e-09
9.69208e-12
1.5397e-09
2.40041e-11
1.51603e-09
4.12427e-11
1.48231e-09
6.23081e-11
1.43605e-09
8.83213e-11
1.37407e-09
1.20762e-10
1.29214e-09
1.61798e-10
1.18464e-09
2.14991e-10
1.04376e-09
2.86819e-10
8.58696e-10
3.89751e-10
6.16028e-10
5.4738e-10
3.07998e-10
7.978e-10
-2.79699e-11
1.16965e-09
-2.03545e-10
1.53002e-09
1.24376e-09
-1.61178e-10
-5.40255e-10
-2.57994e-10
-8.37586e-10
-2.5417e-10
-8.43877e-10
-1.92184e-10
-7.64761e-10
-9.97478e-11
-6.7106e-10
7.0051e-12
-5.83782e-10
1.1772e-10
-5.09208e-10
2.2639e-10
-4.47489e-10
3.3015e-10
-3.96764e-10
4.27861e-10
-3.54944e-10
5.19263e-10
-3.20288e-10
6.04547e-10
-2.91414e-10
6.84127e-10
-2.67254e-10
7.58513e-10
-2.46994e-10
8.28246e-10
-2.30026e-10
8.93873e-10
-2.159e-10
9.55936e-10
-2.04296e-10
1.01497e-09
-1.95002e-10
1.07152e-09
-1.87898e-10
1.12615e-09
-1.82951e-10
1.17943e-09
-1.80213e-10
1.23201e-09
-1.79826e-10
1.28459e-09
-1.8203e-10
1.33796e-09
-1.87186e-10
1.39304e-09
-1.95801e-10
1.45089e-09
-2.08571e-10
1.51273e-09
-2.26443e-10
1.57997e-09
-2.50692e-10
1.65413e-09
-2.83069e-10
1.73681e-09
-3.25885e-10
1.82298e-09
-4.03336e-10
1.87754e-09
-6.16096e-10
1.88691e-09
-9.00938e-10
1.85696e-09
-1.19815e-09
1.79733e-09
-1.48635e-09
1.7202e-09
-1.79822e-09
1.63003e-09
-2.11019e-09
1.51503e-09
-2.41501e-09
1.39381e-09
-2.64806e-09
1.28542e-09
-2.83387e-09
1.18949e-09
-2.99403e-09
1.10366e-09
-3.12943e-09
1.02481e-09
-3.22867e-09
9.49849e-10
-3.29567e-09
8.75219e-10
-3.3304e-09
7.97219e-10
-3.33101e-09
7.12686e-10
-3.2987e-09
6.1861e-10
-3.22994e-09
5.11446e-10
-3.12717e-09
3.9022e-10
-2.9891e-09
2.55623e-10
-2.82064e-09
1.0972e-10
-2.62949e-09
-4.40725e-11
-2.40928e-09
-1.9757e-10
-2.17879e-09
-3.41576e-10
-1.93623e-09
-4.61776e-10
-1.69367e-09
-5.4111e-10
-1.44221e-09
-5.56605e-10
-1.18451e-09
-4.82415e-10
-8.96535e-10
-2.88025e-10
-5.60829e-10
3.92244e-11
-1.59718e-10
4.92434e-10
3.16548e-10
1.00538e-09
8.35326e-10
1.52664e-09
1.35624e-09
1.99997e-09
1.82864e-09
2.40231e-09
2.2267e-09
2.73585e-09
2.54475e-09
3.00434e-09
2.78962e-09
3.22131e-09
2.97174e-09
3.3989e-09
3.10733e-09
3.54789e-09
3.20442e-09
3.67544e-09
3.27154e-09
3.78704e-09
3.31422e-09
3.88672e-09
3.33654e-09
3.97718e-09
3.34138e-09
4.06041e-09
3.32923e-09
4.13764e-09
3.30053e-09
4.20901e-09
3.24716e-09
4.27552e-09
3.17655e-09
4.33701e-09
3.08383e-09
4.39387e-09
2.95811e-09
4.44174e-09
2.77696e-09
4.48246e-09
2.56758e-09
4.50983e-09
2.26644e-09
4.52407e-09
1.90911e-09
4.5165e-09
1.40276e-09
4.49201e-09
8.32202e-10
4.45339e-09
1.91578e-10
4.41028e-09
-5.02651e-10
4.36978e-09
-1.14198e-09
4.3393e-09
-1.68063e-09
4.3132e-09
-2.15915e-09
4.28769e-09
-2.51153e-09
4.25256e-09
-2.80444e-09
4.205e-09
-2.99469e-09
4.14045e-09
-3.12393e-09
4.05578e-09
-3.20984e-09
3.95251e-09
-3.24087e-09
3.83289e-09
-3.24593e-09
3.6999e-09
-3.23085e-09
3.55682e-09
-3.20317e-09
3.4056e-09
-3.16759e-09
3.24631e-09
-3.12232e-09
3.0771e-09
-3.06523e-09
2.89436e-09
-2.99048e-09
2.69407e-09
-2.89269e-09
2.47277e-09
-2.76653e-09
2.22846e-09
-2.60436e-09
1.96229e-09
-2.41006e-09
1.67724e-09
-2.18786e-09
1.3813e-09
-1.94259e-09
1.08797e-09
-1.67837e-09
8.08007e-10
-1.42166e-09
5.57048e-10
-1.16566e-09
3.4782e-10
-9.24817e-10
1.98961e-10
-6.8323e-10
1.32235e-10
-4.30686e-10
1.67843e-10
-1.49958e-10
3.20728e-10
1.77772e-10
5.9609e-10
5.75812e-10
9.54514e-10
1.01941e-09
1.34746e-09
1.47992e-09
1.72524e-09
1.90461e-09
2.06282e-09
2.28026e-09
2.34913e-09
2.5747e-09
2.58579e-09
2.80719e-09
2.78244e-09
2.98454e-09
2.94757e-09
3.1146e-09
3.08853e-09
3.20725e-09
3.21181e-09
3.27059e-09
3.3222e-09
3.31078e-09
3.42339e-09
3.33052e-09
3.51793e-09
3.33268e-09
3.60737e-09
3.31682e-09
3.69384e-09
3.28146e-09
3.77793e-09
3.23071e-09
3.86092e-09
3.15813e-09
3.94354e-09
3.06273e-09
4.02373e-09
2.92632e-09
4.10348e-09
2.76292e-09
4.18157e-09
2.56228e-09
4.25272e-09
2.27036e-09
4.31878e-09
1.94579e-09
4.37053e-09
1.4878e-09
4.41077e-09
9.51145e-10
4.4395e-09
3.38682e-10
4.4626e-09
-3.49677e-10
4.48384e-09
-1.02323e-09
4.50875e-09
-1.60048e-09
4.53078e-09
-2.09554e-09
4.54368e-09
-2.48858e-09
4.5387e-09
-2.7762e-09
4.50927e-09
-2.97159e-09
4.45075e-09
-3.11065e-09
4.36371e-09
-3.17486e-09
4.24703e-09
-3.19634e-09
4.1017e-09
-3.18134e-09
3.92881e-09
-3.14001e-09
3.72938e-09
-3.06838e-09
3.49673e-09
-2.93145e-09
3.23431e-09
-2.76162e-09
2.95684e-09
-2.58929e-09
2.68081e-09
-2.39117e-09
2.44e-09
-1.92764e-09
2.2076e-09
-1.62874e-09
1.98172e-09
-1.3628e-09
1.77235e-09
-1.06676e-09
1.59211e-09
-7.94499e-10
1.45001e-09
-5.22977e-10
1.35381e-09
-2.78086e-10
1.29851e-09
-1.26585e-10
1.26498e-09
-8.73168e-11
1.24632e-09
-6.78556e-11
1.23847e-09
-5.95216e-11
1.23815e-09
-5.82277e-11
1.24278e-09
-5.99396e-11
1.25049e-09
-6.15409e-11
1.25958e-09
-6.0878e-11
1.26899e-09
-5.79262e-11
1.27763e-09
-5.2391e-11
1.2847e-09
-4.4693e-11
1.28947e-09
-3.5155e-11
1.29125e-09
-2.39395e-11
1.28932e-09
-1.0966e-11
1.2828e-09
4.11345e-12
1.27057e-09
2.19233e-11
1.25123e-09
4.33411e-11
1.22299e-09
6.94862e-11
1.18353e-09
1.0176e-10
1.12994e-09
1.41911e-10
1.05851e-09
1.92197e-10
9.6458e-10
2.55727e-10
8.42445e-10
3.37126e-10
6.85539e-10
4.43725e-10
4.87924e-10
5.87366e-10
2.4973e-10
7.85575e-10
-7.524e-12
1.05505e-09
-2.07472e-10
1.36959e-09
-2.10293e-10
1.53284e-09
1.03347e-09
-1.14624e-10
-4.25631e-10
-2.16495e-10
-7.35715e-10
-2.57322e-10
-8.0305e-10
-2.4704e-10
-7.75043e-10
-2.02782e-10
-7.15318e-10
-1.3733e-10
-6.49234e-10
-6.02119e-11
-5.86327e-10
2.19601e-11
-5.29661e-10
1.05048e-10
-4.79851e-10
1.86652e-10
-4.36549e-10
2.65466e-10
-3.99102e-10
3.40841e-10
-3.66789e-10
4.1254e-10
-3.38952e-10
4.80571e-10
-3.15026e-10
5.45098e-10
-2.94552e-10
6.06373e-10
-2.77175e-10
6.64711e-10
-2.62634e-10
7.20471e-10
-2.50762e-10
7.74049e-10
-2.41476e-10
8.25883e-10
-2.34784e-10
8.76454e-10
-2.30784e-10
9.26302e-10
-2.29675e-10
9.76041e-10
-2.31769e-10
1.02637e-09
-2.37516e-10
1.0781e-09
-2.47526e-10
1.13214e-09
-2.62616e-10
1.18955e-09
-2.83853e-10
1.25148e-09
-3.12623e-10
1.31914e-09
-3.50729e-10
1.39369e-09
-4.00436e-10
1.47115e-09
-4.80793e-10
1.5246e-09
-6.69548e-10
1.54353e-09
-9.19867e-10
1.53237e-09
-1.18699e-09
1.4984e-09
-1.45238e-09
1.4496e-09
-1.74942e-09
1.3888e-09
-2.04939e-09
1.3081e-09
-2.3343e-09
1.22204e-09
-2.562e-09
1.14361e-09
-2.75544e-09
1.07185e-09
-2.92227e-09
1.00446e-09
-3.06204e-09
9.39273e-10
-3.16348e-09
8.73953e-10
-3.23034e-09
8.05664e-10
-3.26211e-09
7.3162e-10
-3.25696e-09
6.49066e-10
-3.21614e-09
5.56279e-10
-3.13716e-09
4.5111e-10
-3.02201e-09
3.33633e-10
-2.87164e-09
2.05357e-10
-2.69238e-09
6.87438e-11
-2.49289e-09
-7.17952e-11
-2.26875e-09
-2.09955e-10
-2.04063e-09
-3.38967e-10
-1.80722e-09
-4.50542e-10
-1.5821e-09
-5.35329e-10
-1.35742e-09
-5.79369e-10
-1.14048e-09
-5.65998e-10
-9.09909e-10
-4.74875e-10
-6.51958e-10
-2.86315e-10
-3.48287e-10
1.73681e-11
1.28574e-11
4.17376e-10
4.35312e-10
8.7984e-10
8.93776e-10
1.35621e-09
1.35226e-09
1.80404e-09
1.77887e-09
2.20261e-09
2.14619e-09
2.54184e-09
2.45041e-09
2.82488e-09
2.68873e-09
3.05902e-09
2.87321e-09
3.25364e-09
3.0098e-09
3.41701e-09
3.10814e-09
3.55631e-09
3.17489e-09
3.67724e-09
3.21557e-09
3.78399e-09
3.23459e-09
3.87965e-09
3.23353e-09
3.96634e-09
3.21382e-09
4.04485e-09
3.16864e-09
4.11668e-09
3.1047e-09
4.18214e-09
3.01837e-09
4.24191e-09
2.89832e-09
4.29246e-09
2.7264e-09
4.33615e-09
2.52389e-09
4.36818e-09
2.23441e-09
4.39014e-09
1.88716e-09
4.39599e-09
1.39692e-09
4.3918e-09
8.36403e-10
4.38007e-09
2.03314e-10
4.36725e-09
-4.89829e-10
4.35488e-09
-1.1296e-09
4.34507e-09
-1.67082e-09
4.32902e-09
-2.14311e-09
4.30183e-09
-2.48434e-09
4.25622e-09
-2.75884e-09
4.19067e-09
-2.92913e-09
4.10203e-09
-3.03528e-09
3.99281e-09
-3.10062e-09
3.86628e-09
-3.11434e-09
3.72672e-09
-3.10638e-09
3.57808e-09
-3.0822e-09
3.42301e-09
-3.04811e-09
3.2622e-09
-3.00677e-09
3.09405e-09
-2.95417e-09
2.91538e-09
-2.88656e-09
2.72209e-09
-2.79719e-09
2.51067e-09
-2.68127e-09
2.27913e-09
-2.53498e-09
2.02772e-09
-2.35295e-09
1.76002e-09
-2.14237e-09
1.48163e-09
-1.90948e-09
1.20184e-09
-1.6628e-09
9.32544e-10
-1.40909e-09
6.82593e-10
-1.17172e-09
4.6215e-10
-9.4522e-10
2.7795e-10
-7.40617e-10
1.38966e-10
-5.44243e-10
5.6086e-11
-3.47804e-10
4.19953e-11
-1.35867e-10
1.11118e-10
1.08645e-10
2.80277e-10
4.06646e-10
5.41817e-10
7.57856e-10
8.71345e-10
1.15037e-09
1.22934e-09
1.54659e-09
1.58312e-09
1.92646e-09
1.90626e-09
2.25158e-09
2.18887e-09
2.5246e-09
2.4313e-09
2.74215e-09
2.63717e-09
2.90873e-09
2.81226e-09
3.03215e-09
2.96305e-09
3.11977e-09
3.09512e-09
3.17868e-09
3.21308e-09
3.21253e-09
3.32045e-09
3.2253e-09
3.41958e-09
3.21767e-09
3.51313e-09
3.18789e-09
3.60233e-09
3.1415e-09
3.68878e-09
3.07168e-09
3.77366e-09
2.97785e-09
3.85557e-09
2.8444e-09
3.93694e-09
2.68155e-09
4.01747e-09
2.48175e-09
4.09357e-09
2.19427e-09
4.16847e-09
1.87088e-09
4.23598e-09
1.42029e-09
4.3003e-09
8.86826e-10
4.36099e-09
2.77992e-10
4.41982e-09
-4.0851e-10
4.47402e-09
-1.07744e-09
4.5221e-09
-1.64855e-09
4.55323e-09
-2.12667e-09
4.5613e-09
-2.49664e-09
4.53688e-09
-2.75178e-09
4.47957e-09
-2.91426e-09
4.38838e-09
-3.01945e-09
4.26551e-09
-3.05197e-09
4.11447e-09
-3.04529e-09
3.93875e-09
-3.00561e-09
3.74148e-09
-2.94274e-09
3.52557e-09
-2.85247e-09
3.28751e-09
-2.69339e-09
3.03219e-09
-2.50632e-09
2.77247e-09
-2.3296e-09
2.51783e-09
-2.13655e-09
2.29283e-09
-1.70266e-09
2.07633e-09
-1.41226e-09
1.86839e-09
-1.15485e-09
1.67767e-09
-8.76034e-10
1.51423e-09
-6.31061e-10
1.38359e-09
-3.92324e-10
1.28921e-09
-1.83703e-10
1.2258e-09
-6.31811e-11
1.18088e-09
-4.23944e-11
1.1503e-09
-3.72699e-11
1.13086e-09
-4.00862e-11
1.11958e-09
-4.69525e-11
1.11396e-09
-5.432e-11
1.11207e-09
-5.96429e-11
1.11244e-09
-6.12555e-11
1.11392e-09
-5.9407e-11
1.11556e-09
-5.40215e-11
1.11652e-09
-4.56564e-11
1.11606e-09
-3.46932e-11
1.1134e-09
-2.12803e-11
1.10768e-09
-5.25201e-12
1.09789e-09
1.39036e-11
1.08278e-09
3.70333e-11
1.06081e-09
6.53159e-11
1.03002e-09
1.00275e-10
9.87967e-10
1.43813e-10
9.31599e-10
1.98279e-10
8.57177e-10
2.66619e-10
7.6026e-10
3.52644e-10
6.35966e-10
4.6142e-10
4.80011e-10
5.9968e-10
2.91703e-10
7.75675e-10
8.11212e-11
9.96156e-10
-1.17205e-10
1.25338e-09
-2.27114e-10
1.4795e-09
-1.71282e-10
1.47701e-09
8.62191e-10
-7.8727e-11
-3.46904e-10
-1.67296e-10
-6.47145e-10
-2.22204e-10
-7.48142e-10
-2.39666e-10
-7.5758e-10
-2.27061e-10
-7.27924e-10
-1.92651e-10
-6.83643e-10
-1.43998e-10
-6.3498e-10
-8.68324e-11
-5.86827e-10
-2.5236e-11
-5.41447e-10
3.80328e-11
-4.99818e-10
1.01185e-10
-4.62254e-10
1.63127e-10
-4.2873e-10
2.23226e-10
-3.99051e-10
2.81162e-10
-3.72962e-10
3.36825e-10
-3.50215e-10
3.90248e-10
-3.30598e-10
4.41566e-10
-3.13952e-10
4.90991e-10
-3.00187e-10
5.38797e-10
-2.89282e-10
5.85316e-10
-2.81304e-10
6.30942e-10
-2.7641e-10
6.76133e-10
-2.74866e-10
7.21423e-10
-2.7706e-10
7.67434e-10
-2.83527e-10
8.14886e-10
-2.94978e-10
8.64599e-10
-3.1233e-10
9.17496e-10
-3.3675e-10
9.74579e-10
-3.69706e-10
1.03688e-09
-4.13027e-10
1.10536e-09
-4.68916e-10
1.17697e-09
-5.52408e-10
1.23111e-09
-7.23687e-10
1.25987e-09
-9.48626e-10
1.26637e-09
-1.19349e-09
1.25535e-09
-1.44136e-09
1.23115e-09
-1.72523e-09
1.1952e-09
-2.01344e-09
1.14198e-09
-2.28109e-09
1.08279e-09
-2.5028e-09
1.02683e-09
-2.69948e-09
9.73217e-10
-2.86865e-09
9.19768e-10
-3.00859e-09
8.65071e-10
-3.10878e-09
8.07431e-10
-3.1727e-09
7.44622e-10
-3.1993e-09
6.74473e-10
-3.18681e-09
5.95071e-10
-3.13674e-09
5.05161e-10
-3.04725e-09
4.03983e-10
-2.92083e-09
2.92456e-10
-2.76012e-09
1.72703e-10
-2.57263e-09
4.75212e-11
-2.36771e-09
-7.84712e-11
-2.14276e-09
-2.00392e-10
-1.91871e-09
-3.13226e-10
-1.69438e-09
-4.12077e-10
-1.48325e-09
-4.91123e-10
-1.27838e-09
-5.43362e-10
-1.08824e-09
-5.58752e-10
-8.94521e-10
-5.22308e-10
-6.88404e-10
-4.18737e-10
-4.5186e-10
-2.30511e-10
-1.7537e-10
4.80495e-11
1.5675e-10
4.0862e-10
5.33202e-10
8.2072e-10
9.40157e-10
1.25165e-09
1.34794e-09
1.66742e-09
1.73044e-09
2.04831e-09
2.06956e-09
2.38245e-09
2.35462e-09
2.66921e-09
2.58644e-09
2.91192e-09
2.76706e-09
3.11661e-09
2.90342e-09
3.28999e-09
3.00147e-09
3.43831e-09
3.06721e-09
3.56677e-09
3.1061e-09
3.67953e-09
3.12075e-09
3.77969e-09
3.11365e-09
3.86897e-09
3.07935e-09
3.94958e-09
3.02409e-09
4.02253e-09
2.94542e-09
4.08912e-09
2.83172e-09
4.14696e-09
2.66857e-09
4.19905e-09
2.4718e-09
4.24222e-09
2.19125e-09
4.27911e-09
1.85028e-09
4.30542e-09
1.37062e-09
4.3266e-09
8.15225e-10
4.34283e-09
1.8709e-10
4.3562e-09
-5.032e-10
4.36306e-09
-1.13646e-09
4.36204e-09
-1.6698e-09
4.34321e-09
-2.12428e-09
4.30379e-09
-2.44493e-09
4.23836e-09
-2.69341e-09
4.14743e-09
-2.83821e-09
4.03318e-09
-2.92102e-09
3.9001e-09
-2.96754e-09
3.75337e-09
-2.96761e-09
3.59833e-09
-2.95133e-09
3.43855e-09
-2.92242e-09
3.27525e-09
-2.88482e-09
3.10736e-09
-2.83888e-09
2.93186e-09
-2.77867e-09
2.74489e-09
-2.69959e-09
2.54271e-09
-2.595e-09
2.32302e-09
-2.46157e-09
2.08569e-09
-2.29766e-09
1.83315e-09
-2.1004e-09
1.57087e-09
-1.88008e-09
1.30592e-09
-1.64454e-09
1.04763e-09
-1.40451e-09
8.06031e-10
-1.16749e-09
5.8766e-10
-9.53354e-10
3.98684e-10
-7.56247e-10
2.41964e-10
-5.83898e-10
1.21038e-10
-4.23316e-10
4.06341e-11
-2.67399e-10
7.80633e-12
-1.0304e-10
3.23502e-11
8.40985e-11
1.28989e-10
3.10001e-10
3.03952e-10
5.82886e-10
5.52301e-10
9.02017e-10
8.51824e-10
1.24706e-09
1.17848e-09
1.59981e-09
1.50067e-09
1.92942e-09
1.80312e-09
2.22218e-09
2.07504e-09
2.47025e-09
2.31366e-09
2.67009e-09
2.52022e-09
2.82557e-09
2.69896e-09
2.94101e-09
2.85464e-09
3.02297e-09
2.9919e-09
3.07525e-09
3.11471e-09
3.10247e-09
3.22612e-09
3.10625e-09
3.32932e-09
3.08469e-09
3.42624e-09
3.04458e-09
3.51906e-09
2.97886e-09
3.60956e-09
2.88734e-09
3.69736e-09
2.7566e-09
3.78553e-09
2.59338e-09
3.87488e-09
2.3924e-09
3.96373e-09
2.10542e-09
4.05612e-09
1.77849e-09
4.14768e-09
1.32874e-09
4.24166e-09
7.92848e-10
4.33443e-09
1.85222e-10
4.42246e-09
-4.96546e-10
4.49619e-09
-1.15117e-09
4.54946e-09
-1.70182e-09
4.57227e-09
-2.14948e-09
4.55723e-09
-2.48159e-09
4.50158e-09
-2.69614e-09
4.40966e-09
-2.82233e-09
4.28227e-09
-2.89203e-09
4.12604e-09
-2.89573e-09
3.94722e-09
-2.86645e-09
3.75083e-09
-2.80921e-09
3.54083e-09
-2.73273e-09
3.32057e-09
-2.6322e-09
3.08742e-09
-2.46024e-09
2.84506e-09
-2.26396e-09
2.60256e-09
-2.0871e-09
2.36457e-09
-1.89858e-09
2.15265e-09
-1.49076e-09
1.94985e-09
-1.20947e-09
1.7572e-09
-9.622e-10
1.58243e-09
-7.01273e-10
1.43381e-09
-4.82436e-10
1.31511e-09
-2.73619e-10
1.22769e-09
-9.62773e-11
1.16515e-09
-6.45854e-13
1.11688e-09
5.8753e-12
1.08024e-09
-6.29848e-13
1.05298e-09
-1.28198e-11
1.03286e-09
-2.68386e-11
1.01799e-09
-3.94486e-11
1.00683e-09
-4.8484e-11
9.98414e-10
-5.28366e-11
9.91647e-10
-5.264e-11
9.85811e-10
-4.81852e-11
9.80158e-10
-4.00034e-11
9.73944e-10
-2.848e-11
9.6637e-10
-1.37062e-11
9.56524e-10
4.59485e-12
9.43329e-10
2.70981e-11
9.25494e-10
5.48678e-11
9.01432e-10
8.93779e-11
8.69187e-10
1.3252e-10
8.26365e-10
1.86635e-10
7.70079e-10
2.54565e-10
6.96942e-10
3.39756e-10