/*--------------------------------*- C++ -*----------------------------------*\
| =========                 |                                                 |
| \\      /  F ield         | OpenFOAM: The Open Source CFD Toolbox           |
|  \\    /   O peration     | Version:  2506                                  |
|   \\  /    A nd           | Website:  www.openfoam.com                      |
|    \\/     M anipulation  |                                                 |
\*---------------------------------------------------------------------------*/
FoamFile
{
    version     2.0;
    format      ascii;
    arch        "LSB;label=32;scalar=64";
    class       volVectorField;
    location    "2.4";
    object      vorticityField;
}
// * * * * * * * * * * * * * * * * * * * * * * * * * * * * * * * * * * * * * //

dimensions      [0 0 -1 0 0 0 0];

internalField   nonuniform List<vector> 
4000
(
(-2.11992e-20 7.18557e-18 -10.8653)
(-7.70227e-18 -6.88612e-18 -12.2953)
(8.03492e-18 -2.21658e-17 -10.4856)
(3.17035e-17 3.61208e-17 -8.22474)
(-6.46795e-17 6.99971e-19 -6.49093)
(3.2988e-17 -2.96424e-17 -5.10985)
(-2.59999e-19 1.4688e-17 -3.97827)
(3.37153e-17 -0 -3.04625)
(-3.31874e-17 -2.90093e-17 -2.2705)
(6.40549e-17 2.88895e-17 -1.61727)
(-6.41303e-17 -2.84591e-17 -1.0637)
(-6.97014e-18 2.85199e-17 -0.590403)
(3.97192e-18 5.77754e-17 -0.183999)
(6.94043e-17 -5.77164e-17 0.166762)
(-3.30721e-19 -0 0.471062)
(-1.30159e-16 -5.62568e-17 0.737597)
(1.23582e-16 5.64071e-17 0.973529)
(-6.30617e-17 5.60704e-17 1.1851)
(2.98556e-18 -5.62207e-17 1.37769)
(0 -0 1.5559)
(0 -0 1.7237)
(0 -0 1.88425)
(7.34518e-18 -1.08247e-16 2.04009)
(1.00717e-16 2.16736e-16 2.19297)
(-2.3104e-16 -1.19326e-18 2.34423)
(1.31232e-16 -2.14898e-16 2.49487)
(-8.25378e-18 1.07602e-16 2.6454)
(0 -0 2.79576)
(0 -0 2.94279)
(-9.22972e-18 1.04282e-16 3.08431)
(-2.2286e-16 -1.05595e-16 3.21355)
(1.218e-16 -1.02928e-16 3.31901)
(2.38385e-16 1.41724e-17 3.3661)
(2.16431e-18 -1.01288e-16 3.26471)
(-7.11083e-17 6.03237e-16 3.01071)
(-2.45427e-16 4.73896e-16 2.79385)
(-8.41379e-16 -8.77065e-16 2.65283)
(-1.20958e-17 1.27216e-17 2.47875)
(6.66256e-16 1.45145e-15 2.21064)
(-5.63314e-16 -1.00197e-15 1.81001)
(3.27955e-16 -1.92246e-15 1.23275)
(9.67238e-16 1.85452e-15 0.35955)
(-2.37084e-16 8.50904e-16 -0.762996)
(2.33612e-16 -8.7109e-16 -2.00011)
(1.13615e-15 7.91002e-16 -3.25337)
(-1.30129e-15 1.0023e-16 -4.45853)
(-1.05065e-15 2.31049e-16 -5.59108)
(-9.6142e-16 -9.31631e-16 -6.60362)
(-1.17748e-15 -1.08512e-15 -7.47965)
(-4.71366e-16 -1.20572e-15 -8.20522)
(5.97065e-16 -2.09169e-16 -8.7503)
(-3.86439e-17 4.79882e-16 -9.13246)
(-6.47084e-16 -1.11919e-15 -9.31157)
(5.7476e-16 1.01311e-16 -9.30728)
(-9.01351e-17 1.05316e-15 -9.09612)
(-2.95885e-16 -9.01109e-19 -8.68041)
(2.7525e-16 -1.40251e-16 -8.09197)
(8.65902e-17 -3.76989e-17 -7.31207)
(1.60899e-16 3.33845e-17 -6.39774)
(-7.3313e-17 -4.47454e-17 -5.33295)
(7.25277e-17 -2.75948e-17 -4.15684)
(3.19735e-16 2.55573e-18 -2.92264)
(-1.50995e-16 -6.13389e-17 -1.63978)
(-1.05716e-16 -6.09426e-16 -0.348975)
(-1.14063e-18 3.34505e-18 0.940863)
(-1.0832e-16 7.62186e-16 2.19007)
(5.79577e-16 -2.38999e-16 3.40462)
(2.197e-17 -3.70096e-16 4.53928)
(2.65566e-16 5.87628e-16 5.62202)
(-6.86536e-16 7.2195e-16 6.61696)
(-1.67256e-16 -5.37673e-16 7.5393)
(4.59894e-17 -5.82579e-17 8.38596)
(-1.89857e-19 2.22315e-18 9.11943)
(-8.60826e-16 5.46015e-16 9.78022)
(-8.27607e-16 5.87301e-16 10.3322)
(-3.63818e-17 6.73721e-16 10.7711)
(-6.78943e-16 4.43486e-16 11.1137)
(8.03085e-17 -7.02542e-16 11.3458)
(-6.4506e-16 5.04283e-16 11.4654)
(6.42268e-16 2.09425e-16 11.498)
(-1.21157e-15 3.37905e-16 11.4472)
(-5.94391e-17 -5.51392e-16 11.3206)
(3.45249e-17 -8.54842e-17 11.1364)
(-5.16681e-17 1.41902e-17 10.9055)
(4.95801e-16 8.22402e-16 10.6398)
(-1.01391e-15 1.34157e-15 10.3569)
(2.51827e-17 -1.2095e-15 10.0558)
(1.78069e-17 -5.48474e-16 9.73869)
(-9.89569e-18 1.16951e-15 9.42761)
(-4.21336e-16 2.72004e-16 9.10911)
(1.52121e-18 -7.37106e-19 8.78142)
(-4.13898e-16 7.56773e-16 8.47091)
(-2.01256e-16 -9.24653e-16 8.15371)
(1.69956e-16 -2.88629e-16 7.83608)
(-1.77238e-17 4.5397e-16 7.54112)
(5.91588e-17 -5.26269e-16 7.23657)
(1.89804e-16 -5.1486e-17 6.96764)
(2.35155e-17 2.83614e-17 6.6965)
(-2.46043e-16 -2.37292e-17 6.46241)
(4.96015e-17 2.39365e-16 6.24353)
(4.38698e-17 -6.26143e-18 6.07261)
(1.93208e-17 -3.58645e-17 5.92601)
(-7.96406e-18 1.41068e-16 5.82756)
(-2.04524e-17 3.66833e-17 5.75665)
(-3.10082e-17 -1.52737e-17 5.72898)
(-5.57041e-19 -5.05676e-17 5.72659)
(3.02174e-18 4.05764e-16 5.75247)
(-1.53825e-16 -5.09129e-17 5.79397)
(-1.88475e-16 -6.87647e-16 5.83935)
(3.58609e-16 -1.01133e-16 5.8791)
(-1.93017e-16 1.68346e-16 5.90321)
(8.00092e-18 4.5936e-16 5.89594)
(-1.91367e-16 -9.14645e-17 5.85487)
(-2.03732e-16 -3.23105e-16 5.74916)
(-5.7117e-18 -4.83377e-16 5.59835)
(3.80242e-16 2.5132e-16 5.36958)
(3.99762e-18 9.55394e-16 5.0655)
(8.63722e-17 7.01871e-18 4.68821)
(4.11115e-16 3.01823e-16 4.23078)
(-4.11324e-16 -3.08987e-16 3.69767)
(-5.67073e-16 -1.40304e-15 3.09478)
(5.14424e-16 3.44617e-16 2.42674)
(1.70751e-17 1.11896e-15 1.70494)
(-4.66728e-16 -3.54069e-16 0.941712)
(-9.93256e-17 -1.17281e-15 0.14647)
(9.66933e-16 6.85445e-16 -0.66724)
(-3.56099e-16 3.24843e-16 -1.48867)
(4.98116e-16 -7.425e-17 -2.30606)
(5.0959e-16 7.35669e-16 -3.10449)
(1.03557e-16 6.5116e-16 -3.8764)
(-8.99324e-18 4.4569e-16 -4.60795)
(-3.73442e-16 -2.35051e-16 -5.29457)
(-1.82674e-16 -5.5466e-16 -5.93944)
(-1.01347e-15 -6.98967e-16 -6.52129)
(5.0786e-16 -1.002e-16 -7.0401)
(-7.2332e-17 -3.87151e-17 -7.50849)
(7.4692e-17 4.07543e-17 -7.88159)
(-6.81866e-17 -6.22034e-17 -8.18471)
(8.27299e-17 8.34646e-17 -8.38919)
(-1.14587e-16 9.26993e-17 -8.48697)
(1.73608e-16 8.31673e-17 -8.46754)
(-4.35748e-16 -1.87567e-16 -8.31469)
(2.34183e-16 7.74082e-17 -8.01115)
(-5.73065e-17 2.55297e-17 -7.56039)
(-1.24358e-16 -9.64281e-17 -6.91985)
(-2.70257e-17 -1.35581e-16 -6.1275)
(-2.65948e-17 3.78629e-17 -5.15756)
(0 -0 -4.04434)
(-5.7103e-17 3.73823e-17 -2.82791)
(6.45996e-17 -4.03786e-17 -1.52188)
(2.65485e-17 -1.70315e-16 -0.171495)
(-4.21607e-17 -8.33513e-17 1.20523)
(1.45634e-16 8.94275e-17 2.56391)
(8.1597e-17 2.22292e-16 3.91028)
(-1.58676e-16 6.19144e-17 5.20918)
(1.58386e-16 -1.63366e-16 6.49341)
(-1.99659e-16 -2.48482e-17 7.71285)
(3.17153e-16 -1.62023e-16 8.81588)
(-7.25421e-17 -2.85482e-16 9.46209)
(2.7865e-16 -2.89078e-17 9.44834)
(-1.98736e-16 6.34113e-16 9.12342)
(1.33929e-16 -1.7478e-16 9.27796)
(-3.96529e-17 -8.11235e-17 9.19367)
(2.74204e-17 -6.39222e-18 8.97755)
(2.58826e-17 -3.98066e-18 8.71966)
(2.47846e-17 -2.05922e-18 8.517)
(-2.40967e-17 -1.8196e-17 8.41773)
(2.05854e-17 3.80171e-18 8.2171)
(1.44115e-18 1.87172e-17 7.65418)
(2.53533e-18 1.68388e-17 6.88227)
(-2.08023e-17 -3.15319e-18 6.06171)
(-4.56168e-18 -3.36715e-17 5.28205)
(-2.25993e-19 1.7608e-17 4.59636)
(4.35681e-18 1.39712e-17 4.03139)
(-2.63738e-18 -1.59263e-17 3.59579)
(1.80174e-17 5.254e-19 3.28483)
(-3.2983e-17 1.2885e-17 3.08517)
(1.75247e-17 -1.38548e-17 2.97482)
(-3.30196e-18 -1.20276e-17 2.93289)
(8.88525e-19 1.2941e-17 2.94024)
(8.06269e-18 4.92144e-18 2.97633)
(-1.28273e-17 -7.92622e-19 3.02292)
(-9.95748e-19 -9.82882e-18 3.06654)
(-1.08862e-19 8.42806e-19 3.0976)
(5.20854e-18 4.9225e-18 3.11008)
(4.89648e-18 1.46056e-20 3.10204)
(-5.45777e-18 -1.62799e-20 3.07451)
(4.68254e-18 -1.91145e-19 3.03227)
(-7.93715e-18 4.74474e-20 2.98251)
(5.0384e-18 2.1969e-19 2.93197)
(-1.70426e-18 -5.0836e-21 2.88762)
(-3.84834e-19 -9.96015e-19 2.85605)
(1.10848e-18 1.27462e-18 2.84245)
(-3.25337e-19 7.1471e-19 2.85084)
(-1.02103e-18 -1.07363e-18 2.88302)
(1.36049e-19 -1.39722e-19 2.93947)
(-9.88446e-20 3.72271e-19 3.02005)
(-1.48828e-19 2.07849e-19 3.13365)
(-7.63433e-20 -2.21085e-19 3.30418)
(-2.22442e-20 -6.94685e-20 3.46553)
(0 -0 1.48232)
(-3.71538e-19 -0 -2.74378)
(3.86072e-19 -1.54527e-17 -4.59104)
(2.73981e-19 3.03006e-17 -5.06086)
(1.48779e-17 1.38077e-18 -4.92418)
(-1.51204e-17 -3.19881e-17 -4.56637)
(3.74097e-19 -1.58632e-17 -4.13823)
(-6.12919e-19 3.1147e-17 -3.70679)
(-3.28112e-17 5.98883e-19 -3.30217)
(3.47814e-17 -3.04621e-19 -2.9355)
(6.07851e-17 9.55091e-17 -2.60805)
(-1.24741e-16 -9.5368e-17 -2.31784)
(7.27932e-19 -1.26625e-16 -2.06035)
(6.37648e-17 6.41773e-17 -1.83149)
(-8.13136e-18 1.8775e-16 -1.62712)
(-6.28038e-17 -6.32291e-17 -1.44332)
(7.70544e-17 -1.24051e-16 -1.2766)
(-8.6056e-18 6.20185e-17 -1.12379)
(0 -0 -0.982012)
(0 -0 -0.8487)
(0 -0 -0.721661)
(0 -0 -0.599028)
(0 -0 -0.479276)
(-2.43999e-16 -0 -0.361239)
(3.59008e-16 -0 -0.244145)
(-1.15252e-16 -0 -0.127646)
(0 -0 -0.0119689)
(0 -0 0.101756)
(0 -0 0.211264)
(-1.00139e-17 1.13142e-16 0.312697)
(-1.04472e-17 -4.20989e-18 0.399008)
(4.20148e-17 -3.37829e-16 0.459733)
(-9.8695e-18 1.06263e-16 0.483)
(-1.21798e-16 3.32893e-16 0.486762)
(-6.41971e-17 -4.38757e-16 0.492573)
(2.69038e-16 3.9767e-16 0.501918)
(8.70978e-16 6.67248e-16 0.512479)
(7.25498e-17 -1.69452e-15 0.522133)
(-5.06914e-16 -6.68767e-16 0.490625)
(8.84045e-16 1.83392e-15 0.367203)
(-2.7364e-16 9.84579e-17 0.0802406)
(-7.31856e-16 -1.37194e-15 -0.431352)
(-1.13363e-16 -6.55643e-17 -1.08579)
(2.01227e-17 -2.45411e-16 -1.80624)
(-1.35134e-15 3.62725e-16 -2.54153)
(1.15928e-15 1.88319e-15 -3.25981)
(2.28923e-15 2.55936e-16 -3.94632)
(9.52455e-16 1.06654e-15 -4.56747)
(1.19632e-15 6.5249e-16 -5.12175)
(5.88155e-16 -2.36537e-16 -5.58746)
(-1.78272e-15 -8.09118e-16 -5.95265)
(-3.82126e-17 4.70784e-16 -6.21828)
(5.72051e-16 7.33803e-16 -6.35502)
(-4.65816e-16 -6.03697e-16 -6.38007)
(6.82729e-16 -2.98195e-16 -6.26605)
(6.30109e-16 -8.52159e-17 -6.0234)
(4.03326e-16 -6.32008e-18 -5.64629)
(1.51446e-16 1.29074e-16 -5.12922)
(-8.83028e-17 7.25852e-17 -4.49291)
(-9.64454e-17 1.10494e-16 -3.72351)
(-4.29437e-17 -2.38915e-16 -2.84901)
(-3.30182e-16 1.45275e-16 -1.89126)
(2.64483e-16 3.82446e-16 -0.86871)
(-1.96777e-16 5.72901e-16 0.187157)
(3.16885e-16 -2.00766e-16 1.25646)
(9.78864e-18 -1.16339e-15 2.31072)
(2.75894e-16 -8.47874e-17 3.3355)
(-3.19107e-16 6.49511e-16 4.3017)
(-3.21426e-16 -5.19009e-17 5.20985)
(8.95629e-16 -3.46707e-16 6.04259)
(-2.90717e-17 9.97269e-17 6.78509)
(-1.2463e-15 6.46916e-16 7.44462)
(7.1174e-16 3.80087e-16 7.99434)
(-1.27208e-16 7.34509e-16 8.44914)
(8.05671e-16 -1.48327e-15 8.80631)
(1.46738e-16 -8.2016e-16 9.05352)
(-1.61755e-16 8.57263e-17 9.20091)
(-2.85664e-17 7.23337e-16 9.26044)
(-7.05611e-16 -2.38742e-16 9.23349)
(-1.22839e-15 9.85498e-16 9.134)
(1.66365e-15 8.63055e-17 8.97272)
(8.485e-17 -8.872e-16 8.75623)
(-5.91582e-16 4.07176e-16 8.49751)
(-2.76634e-17 -7.28659e-16 8.20668)
(4.16582e-17 -1.1297e-18 7.88832)
(9.38627e-16 -7.59654e-16 7.55574)
(5.52607e-16 -2.714e-16 7.2147)
(4.69926e-16 2.94339e-16 6.859)
(4.37596e-16 -9.04374e-16 6.50496)
(9.02535e-16 -5.67526e-16 6.15419)
(2.83278e-19 1.7979e-17 5.79693)
(4.18643e-16 -5.07153e-16 5.45084)
(2.10367e-16 2.22289e-16 5.11447)
(-4.0372e-16 1.82445e-16 4.77883)
(1.92142e-16 -4.15351e-16 4.4667)
(9.78387e-18 2.5189e-16 4.15765)
(-3.59491e-16 2.05195e-16 3.87691)
(1.69622e-16 4.53695e-16 3.6112)
(-1.26824e-17 2.99514e-17 3.38511)
(-1.00656e-16 -5.8725e-16 3.18469)
(-4.0414e-17 4.534e-17 3.01867)
(-6.16431e-17 1.003e-16 2.8863)
(-2.26012e-17 -9.04388e-17 2.78599)
(2.07658e-17 -1.43109e-17 2.72079)
(4.11325e-17 -8.04515e-18 2.68647)
(8.37516e-17 2.33939e-17 2.67366)
(-1.57765e-18 -2.11849e-16 2.68905)
(4.97443e-16 3.55371e-16 2.71539)
(2.07381e-17 -3.86421e-17 2.75317)
(-3.57631e-16 1.44618e-16 2.78241)
(2.55335e-17 1.79779e-16 2.80323)
(-1.36905e-17 -4.5741e-16 2.80541)
(1.87853e-16 3.30013e-16 2.78684)
(1.99514e-16 6.66502e-17 2.73434)
(-1.97328e-16 -3.5235e-16 2.65625)
(-3.79804e-16 -2.19846e-16 2.52569)
(1.49056e-17 -5.36737e-16 2.35969)
(-9.51876e-17 -5.27136e-16 2.14655)
(-4.06393e-16 3.46817e-16 1.88444)
(8.61144e-16 1.72639e-15 1.58327)
(-4.45504e-16 -4.358e-16 1.23889)
(-4.79335e-16 -8.96364e-16 0.853649)
(4.24668e-16 3.60163e-16 0.435576)
(5.58134e-16 4.00582e-16 -0.0117942)
(4.91936e-16 -1.89526e-16 -0.482107)
(-1.54906e-15 -6.88992e-16 -0.967233)
(4.99643e-16 3.20925e-16 -1.46087)
(-4.17863e-16 -8.25881e-16 -1.95485)
(-7.36694e-17 9.20774e-17 -2.44249)
(1.09339e-15 7.20441e-16 -2.91952)
(4.55148e-16 2.55083e-16 -3.37271)
(1.01578e-15 6.97902e-16 -3.80313)
(6.62689e-16 1.40465e-15 -4.20942)
(1.02978e-15 1.39649e-16 -4.57198)
(-1.048e-16 -5.01089e-16 -4.90096)
(1.31319e-16 5.26852e-16 -5.19583)
(2.1865e-16 1.01105e-16 -5.42061)
(7.69533e-17 3.14342e-17 -5.60964)
(-6.86859e-17 -4.61913e-17 -5.72129)
(9.7867e-17 -1.56847e-16 -5.76919)
(-5.08457e-17 1.42051e-16 -5.73693)
(1.22732e-16 1.13718e-16 -5.61583)
(8.57588e-17 -2.66741e-16 -5.39458)
(2.75411e-17 2.08001e-16 -5.07251)
(-8.13067e-17 2.09461e-17 -4.62005)
(-4.79171e-17 6.66259e-17 -4.06644)
(1.20903e-16 -3.58951e-17 -3.3696)
(-7.69048e-17 2.00131e-17 -2.56682)
(4.81817e-17 -7.96768e-17 -1.65777)
(-1.30246e-16 -2.86747e-17 -0.657105)
(-7.30131e-17 2.45041e-16 0.396296)
(2.7573e-17 2.25347e-17 1.49861)
(4.9574e-17 -2.06834e-16 2.59919)
(-9.89816e-17 1.37467e-18 3.68694)
(3.73393e-16 -2.39593e-16 4.71375)
(-1.33977e-16 2.25509e-16 5.66709)
(-1.59754e-17 -1.05013e-17 6.46959)
(-3.03774e-16 7.47068e-17 7.04691)
(1.1179e-16 3.10924e-16 7.26394)
(-6.43908e-16 4.35343e-16 7.2112)
(1.48147e-16 -5.97604e-16 6.7536)
(4.25941e-17 -3.3699e-17 6.3405)
(-5.35847e-18 1.9451e-16 5.89233)
(-5.62908e-17 -2.28285e-17 5.47921)
(1.54196e-18 1.21805e-17 5.09603)
(-4.53127e-17 5.46864e-17 4.75648)
(4.81052e-17 1.27616e-17 4.41283)
(-2.32494e-17 -1.9126e-17 3.95647)
(-3.10906e-19 -2.47627e-18 3.45461)
(-1.53589e-18 4.62041e-19 2.95839)
(-1.32854e-18 2.27636e-18 2.48787)
(3.04092e-18 1.71129e-17 2.05874)
(-2.01196e-17 -2.47378e-17 1.67788)
(1.55527e-17 -1.06018e-17 1.35862)
(1.00652e-18 2.65506e-18 1.10377)
(2.24569e-17 3.18842e-17 0.909188)
(-1.98841e-17 -2.09104e-17 0.76684)
(-2.77405e-18 -7.27634e-18 0.666203)
(4.6278e-18 2.53836e-17 0.596184)
(-1.47684e-18 -2.18572e-17 0.545579)
(-4.76168e-19 8.36452e-18 0.505146)
(6.01216e-18 5.6734e-18 0.467042)
(-5.77645e-18 -1.55934e-18 0.425736)
(-5.46065e-18 -6.9492e-18 0.37811)
(5.93355e-18 -7.73151e-18 0.323208)
(1.70522e-18 1.11226e-17 0.26221)
(6.25988e-19 -1.79616e-18 0.197883)
(-4.91579e-19 4.37947e-18 0.13364)
(-1.87504e-19 -3.85673e-18 0.0733527)
(2.24515e-19 -3.41968e-18 0.0211937)
(1.71815e-18 4.05995e-18 -0.0190305)
(-1.22507e-18 -1.69067e-18 -0.0442174)
(-2.31341e-18 -1.0142e-18 -0.0525591)
(2.57612e-18 1.62669e-18 -0.043211)
(6.32414e-21 -1.96133e-19 -0.0156678)
(1.35471e-19 -3.99605e-19 0.0293913)
(9.87047e-20 -3.77838e-19 0.0902713)
(2.31435e-19 -3.04254e-19 0.164452)
(-7.21884e-21 2.03895e-20 0.2409)
(4.62104e-21 -1.58505e-19 0.274324)
(-2.2387e-20 7.58818e-18 2.9551)
(-1.53943e-19 -6.83845e-18 0.456343)
(3.77069e-19 -2.34285e-17 -1.73452)
(-5.3878e-19 2.14779e-17 -3.26022)
(1.69452e-17 1.64286e-17 -4.24401)
(-1.66087e-17 -1.52277e-17 -4.83235)
(0 -0 -5.15539)
(-3.45049e-17 3.08201e-17 -5.31581)
(3.5358e-17 -6.05299e-17 -5.37913)
(-3.15974e-17 -6.42481e-17 -5.38566)
(3.03929e-17 1.23311e-16 -5.35724)
(5.97594e-19 9.4839e-17 -5.30876)
(1.4564e-19 -1.22929e-16 -5.24782)
(-1.28127e-16 -6.34835e-17 -5.17926)
(1.22205e-16 1.23975e-16 -5.10587)
(7.50477e-17 -1.2267e-16 -5.03027)
(-1.2931e-16 -1.60165e-18 -4.95394)
(5.70545e-17 1.24322e-16 -4.87777)
(3.28212e-18 -6.1805e-17 -4.8022)
(0 -0 -4.72734)
(1.25262e-16 -0 -4.65316)
(-1.2553e-16 -0 -4.57932)
(-8.1726e-18 1.20441e-16 -4.50527)
(-1.15874e-16 -1.20608e-16 -4.43024)
(1.33161e-16 -1.20046e-16 -4.35361)
(-8.8664e-18 1.20212e-16 -4.27506)
(0 -0 -4.19452)
(1.22756e-16 -0 -4.1124)
(-5.94882e-19 -0 -4.02798)
(-1.32879e-16 1.14949e-16 -3.94379)
(9.40343e-18 -1.16885e-16 -3.86224)
(2.53839e-16 -1.12868e-16 -3.78849)
(-3.72018e-16 1.07718e-16 -3.72428)
(2.18566e-16 -1.38612e-18 -3.63486)
(-2.69083e-17 2.31394e-16 -3.50005)
(-4.23058e-16 -5.26607e-16 -3.36296)
(6.12426e-16 -5.93738e-17 -3.23793)
(3.27092e-16 1.58181e-15 -3.11036)
(-6.03378e-16 -3.25055e-16 -3.00407)
(-1.61753e-16 -9.96065e-16 -2.96456)
(-1.1164e-16 -2.09855e-16 -3.06755)
(-1.38225e-15 9.27429e-17 -3.33389)
(3.39246e-16 3.56261e-16 -3.70159)
(1.05221e-15 7.53784e-16 -4.1304)
(-1.33235e-15 -1.91611e-15 -4.5905)
(1.59109e-15 -1.4892e-15 -5.06754)
(-7.04676e-16 6.7854e-16 -5.55193)
(-5.08667e-17 5.90821e-16 -6.01991)
(-1.86413e-17 -6.95794e-17 -6.47284)
(-4.25566e-17 1.48398e-15 -6.89056)
(5.61847e-16 3.67949e-16 -7.26567)
(1.85723e-16 -1.33159e-15 -7.59424)
(-6.83032e-17 -5.87696e-16 -7.85278)
(1.38858e-16 -8.06568e-17 -8.05237)
(-6.30777e-16 6.38842e-17 -8.167)
(-3.28426e-16 1.42896e-16 -8.20376)
(-4.13428e-16 1.77162e-17 -8.14633)
(-2.79833e-17 2.60387e-16 -7.98565)
(-1.06473e-16 1.89535e-16 -7.72739)
(1.63432e-16 -5.03104e-17 -7.34547)
(6.23845e-17 1.27598e-16 -6.85965)
(-3.01572e-16 -1.66963e-16 -6.26686)
(4.92973e-16 -3.00624e-16 -5.58197)
(3.89961e-16 -7.31654e-16 -4.8265)
(-1.14957e-16 2.74876e-17 -4.01529)
(-5.27282e-16 9.1213e-16 -3.17863)
(-8.62213e-16 4.37666e-16 -2.33773)
(1.22391e-16 4.51385e-17 -1.51469)
(2.24778e-17 -2.15438e-16 -0.730513)
(-6.44201e-16 4.25298e-16 1.83945e-05)
(2.26213e-19 1.1835e-15 0.65336)
(1.04857e-15 -1.5099e-15 1.23189)
(-8.52191e-16 -4.97526e-16 1.72282)
(1.75643e-15 -1.14615e-15 2.12295)
(8.89809e-16 -4.80612e-16 2.43477)
(-1.45664e-16 1.66538e-15 2.65098)
(6.08416e-16 -5.14689e-16 2.78441)
(5.33748e-17 -9.46059e-17 2.85705)
(1.18673e-15 4.20325e-16 2.87336)
(-4.8619e-17 -2.32181e-15 2.84007)
(8.60502e-16 -2.39115e-15 2.76729)
(7.83736e-17 2.12994e-15 2.66193)
(4.37496e-16 -4.38204e-16 2.53228)
(6.68863e-16 -1.01408e-15 2.38567)
(-5.35029e-16 4.03316e-16 2.22471)
(1.10123e-15 -6.09831e-16 2.05483)
(-1.50674e-15 3.79835e-16 1.879)
(-8.41312e-16 2.18609e-16 1.69527)
(-4.06833e-16 9.71613e-16 1.50766)
(6.69553e-17 6.26683e-16 1.32117)
(9.1387e-18 5.80015e-16 1.13303)
(1.8711e-17 2.55241e-16 0.946486)
(-2.41493e-16 8.07502e-17 0.76716)
(2.21527e-16 -3.335e-16 0.590142)
(-4.36495e-18 -3.07828e-17 0.422529)
(-6.41439e-17 2.34551e-16 0.262515)
(5.51842e-18 -2.34587e-16 0.113791)
(6.92528e-19 -3.89104e-16 -0.0208722)
(5.91873e-16 7.03777e-17 -0.141853)
(5.16804e-17 2.9027e-16 -0.249131)
(-4.63085e-17 -3.28313e-17 -0.34577)
(6.35206e-17 -6.51325e-17 -0.425794)
(7.49397e-19 3.30813e-17 -0.496569)
(-5.47701e-19 -3.63785e-17 -0.55472)
(-1.0275e-18 -8.95763e-17 -0.603472)
(-8.72148e-17 4.89386e-18 -0.64764)
(-9.07143e-17 -1.22152e-16 -0.682019)
(-3.48179e-16 -4.84772e-17 -0.717095)
(5.25854e-16 5.70583e-16 -0.748955)
(-3.43986e-16 -3.67437e-16 -0.787494)
(3.41604e-16 -4.44347e-17 -0.828949)
(-4.01651e-18 2.2444e-16 -0.880377)
(9.91088e-18 -2.41409e-16 -0.948155)
(-1.38246e-17 2.71014e-16 -1.03278)
(3.06244e-17 2.31689e-16 -1.12605)
(-3.29497e-18 -2.67951e-16 -1.24002)
(1.90583e-16 6.49354e-16 -1.3705)
(2.5546e-16 6.20995e-16 -1.52646)
(-8.55898e-16 -1.63581e-15 -1.70837)
(-4.55105e-16 -2.29647e-16 -1.91111)
(1.02194e-15 1.21325e-15 -2.13861)
(2.94917e-16 -8.94253e-16 -2.38928)
(-3.81418e-16 -3.69495e-16 -2.66064)
(-5.66457e-16 -4.72171e-16 -2.95363)
(-2.93597e-16 1.08026e-15 -3.26406)
(-4.73574e-16 -2.46469e-16 -3.58951)
(3.50503e-16 -5.6831e-16 -3.92624)
(-5.87868e-16 -1.50223e-16 -4.26998)
(-6.46294e-16 -1.64356e-15 -4.61814)
(-9.48648e-16 -7.25652e-16 -4.96738)
(-3.63047e-16 2.88359e-16 -5.3077)
(-5.65231e-16 -4.19517e-16 -5.64216)
(-5.52484e-16 -9.36049e-16 -5.96999)
(6.69413e-16 8.05506e-16 -6.27405)
(-7.23709e-16 1.06421e-16 -6.56597)
(-2.63871e-17 -2.59155e-16 -6.84354)
(-5.42583e-17 -8.05906e-17 -7.07945)
(-2.23692e-16 8.5975e-17 -7.30433)
(-8.99993e-18 1.16132e-17 -7.4824)
(-2.43677e-16 4.2071e-17 -7.62886)
(2.353e-16 1.51243e-16 -7.73032)
(8.75172e-16 7.08118e-17 -7.78066)
(-7.42513e-17 7.55613e-17 -7.77201)
(2.77935e-17 1.96438e-16 -7.70218)
(-1.52764e-16 -2.24919e-17 -7.54448)
(2.38104e-17 -2.61973e-16 -7.3206)
(7.52183e-17 3.82328e-17 -6.98113)
(-1.01529e-16 5.58328e-17 -6.55421)
(1.33006e-16 5.25843e-17 -6.01892)
(-2.26491e-16 1.12682e-16 -5.37771)
(6.96425e-17 -2.77126e-16 -4.65819)
(1.93731e-16 -2.59292e-16 -3.85257)
(-1.60118e-16 2.77332e-16 -3.00512)
(4.34419e-17 -1.36786e-17 -2.12681)
(-1.55572e-16 1.49986e-16 -1.27201)
(-2.06809e-16 2.55322e-16 -0.477457)
(3.51727e-16 -1.81917e-16 0.171866)
(-2.22279e-16 -8.4201e-18 0.584792)
(6.92957e-18 6.2154e-18 0.755637)
(3.85847e-16 -3.43575e-16 0.706943)
(1.73088e-16 -5.63158e-17 0.286469)
(-2.65894e-16 1.86755e-16 -0.26562)
(1.85845e-17 -4.78206e-17 -0.791231)
(1.80255e-17 -5.19653e-17 -1.23645)
(-2.71003e-17 1.35149e-18 -1.59036)
(-3.03401e-17 -5.95692e-17 -1.89471)
(-8.26899e-18 -2.18089e-17 -2.18807)
(2.69909e-17 3.88541e-17 -2.53711)
(2.34581e-17 1.45329e-18 -2.80342)
(2.71309e-18 1.69125e-17 -2.99497)
(-2.16885e-17 -9.88444e-18 -3.15403)
(2.15727e-18 -1.8726e-17 -3.29951)
(4.13541e-17 2.5395e-18 -3.43935)
(-4.22775e-17 -1.61142e-18 -3.57296)
(-2.20472e-18 -1.86125e-17 -3.69824)
(-1.93511e-17 1.98458e-17 -3.81336)
(3.69095e-17 2.99003e-17 -3.91839)
(-1.94155e-17 -3.38651e-17 -4.01261)
(-1.07577e-19 -1.23624e-17 -4.09631)
(1.09666e-18 1.60125e-17 -4.17142)
(-9.54566e-18 -2.29915e-19 -4.24072)
(7.5006e-18 4.00301e-18 -4.30577)
(2.30168e-18 -1.02903e-18 -4.36764)
(1.08057e-17 -1.03586e-17 -4.42632)
(-1.06282e-17 1.26846e-19 -4.48122)
(-5.93272e-18 5.0254e-18 -4.53201)
(6.70455e-18 1.84631e-18 -4.57794)
(-4.6742e-18 3.53741e-19 -4.61812)
(4.38822e-18 -8.95294e-19 -4.65221)
(-1.35331e-18 -1.27545e-18 -4.67935)
(2.54156e-18 1.78248e-18 -4.69857)
(1.78427e-18 2.4053e-18 -4.70879)
(-1.40622e-18 -2.70491e-18 -4.70857)
(2.52194e-19 -7.06952e-19 -4.69832)
(3.08498e-20 1.13542e-18 -4.6779)
(-4.13619e-19 -5.00005e-19 -4.64743)
(1.10082e-19 2.90925e-19 -4.60913)
(1.8548e-19 4.86191e-19 -4.56886)
(1.83665e-19 -3.85753e-20 -4.53559)
(3.93166e-20 8.24636e-20 -4.52342)
(0 -0 2.35432)
(8.08287e-18 -0 1.41895)
(-7.94652e-18 -1.49542e-17 0.0940632)
(2.63006e-20 1.33869e-17 -1.23842)
(-1.74269e-19 1.65458e-17 -2.44306)
(2.2095e-19 -1.49784e-17 -3.42159)
(3.11079e-17 -0 -4.1842)
(-3.11761e-17 -0 -4.7635)
(1.86892e-18 -0 -5.20059)
(-4.00405e-18 -0 -5.52864)
(-6.57668e-17 5.9924e-17 -5.77363)
(6.7792e-17 -5.60307e-17 -5.95471)
(6.64525e-17 -4.22343e-18 -6.08716)
(-2.65318e-18 -5.60107e-17 -6.18203)
(4.2035e-19 -7.08649e-18 -6.24781)
(-6.55064e-17 1.83104e-16 -6.29131)
(-6.47559e-17 -1.16692e-16 -6.31798)
(6.91578e-17 -6.27954e-17 -6.33208)
(-3.17622e-18 5.98109e-17 -6.33692)
(6.75575e-17 -1.18141e-16 -6.33501)
(-6.75459e-17 1.13299e-16 -6.32823)
(-7.81395e-18 1.23236e-16 -6.31783)
(-2.63139e-19 -1.26964e-18 -6.30452)
(1.64554e-17 -1.1311e-16 -6.28853)
(1.19901e-16 -1.21372e-16 -6.26979)
(-1.28169e-16 1.17357e-16 -6.24799)
(-1.09336e-16 -1.15778e-16 -6.2228)
(9.98927e-19 -2.51531e-18 -6.19384)
(2.16846e-16 2.31812e-16 -6.16035)
(-1.28711e-16 1.17119e-16 -6.12234)
(3.60437e-17 -3.43472e-16 -6.08009)
(-1.21424e-16 -3.88099e-18 -6.03455)
(1.05924e-16 1.24391e-16 -5.98621)
(1.08949e-16 -2.30732e-18 -5.91439)
(-1.39648e-16 2.18379e-16 -5.79802)
(2.62452e-16 -1.96818e-16 -5.6519)
(-8.93563e-16 -6.79272e-16 -5.48779)
(-8.86459e-16 -7.7703e-16 -5.3121)
(9.56089e-16 6.73331e-16 -5.14643)
(3.93613e-16 9.92595e-16 -5.02285)
(-1.24194e-16 1.27625e-15 -4.99431)
(1.10475e-15 -6.01999e-16 -5.05875)
(3.11809e-16 -2.32527e-15 -5.20829)
(-1.13736e-15 6.76527e-16 -5.42919)
(5.03522e-16 1.35715e-15 -5.69998)
(-1.09551e-15 -3.46958e-16 -6.01487)
(-7.30024e-16 -1.27797e-16 -6.36442)
(-4.85593e-16 -2.64433e-16 -6.73152)
(-6.92278e-16 -3.24395e-16 -7.11952)
(-4.92236e-16 -1.27309e-15 -7.50896)
(1.262e-15 4.63076e-16 -7.89663)
(-6.74651e-16 7.9506e-16 -8.27723)
(4.75921e-17 5.94452e-16 -8.6337)
(-8.05864e-16 -3.05643e-16 -8.97386)
(-4.07738e-17 -1.15735e-16 -9.27745)
(2.89644e-18 -3.39098e-16 -9.55003)
(-5.28859e-16 -3.51922e-16 -9.77423)
(-1.51289e-16 -1.28889e-16 -9.94118)
(9.21531e-18 -3.11642e-17 -10.0458)
(8.59195e-17 -1.32637e-17 -10.0658)
(-1.57077e-16 7.63115e-17 -10.0062)
(3.36754e-16 -1.96402e-16 -9.84745)
(-4.60033e-16 5.26293e-17 -9.59611)
(1.77817e-16 8.94069e-16 -9.2536)
(-8.52962e-16 6.97073e-16 -8.82664)
(7.67131e-16 -8.27267e-16 -8.332)
(-2.32886e-16 -3.33707e-16 -7.79311)
(1.49793e-16 -1.66019e-16 -7.22282)
(-5.70656e-16 6.58372e-16 -6.65469)
(3.69228e-16 -1.82343e-16 -6.09867)
(2.4997e-16 -1.44428e-15 -5.57756)
(6.47981e-16 6.30541e-16 -5.09971)
(-6.84633e-16 3.24593e-16 -4.66743)
(9.80746e-17 -8.02395e-16 -4.30008)
(-8.67482e-16 1.35654e-15 -3.98839)
(4.26924e-17 -6.81475e-16 -3.7323)
(7.69605e-16 -4.51125e-16 -3.52177)
(5.37475e-17 -4.66493e-17 -3.34269)
(1.49158e-15 -1.44328e-15 -3.19284)
(1.32116e-15 -5.00633e-17 -3.06936)
(-2.53634e-15 3.03105e-15 -2.96491)
(-6.88594e-16 -3.46022e-16 -2.87362)
(7.08926e-16 -9.83567e-16 -2.79146)
(-6.00242e-16 1.03751e-15 -2.71427)
(4.08689e-18 -6.30376e-16 -2.6415)
(-9.82853e-16 2.00295e-15 -2.57439)
(8.91843e-16 1.65395e-15 -2.51208)
(-4.20824e-16 -7.01326e-16 -2.456)
(-5.07694e-16 -1.6361e-15 -2.41143)
(-1.40123e-15 1.8392e-16 -2.37381)
(-2.23896e-16 1.21863e-16 -2.3455)
(1.52768e-17 1.19697e-17 -2.32477)
(2.16302e-16 -9.35271e-17 -2.30594)
(-3.191e-17 -2.52795e-16 -2.29298)
(-3.56607e-16 2.13046e-16 -2.28843)
(-2.00038e-17 2.1853e-16 -2.2839)
(1.84757e-16 -8.89651e-17 -2.28843)
(-5.78367e-16 -3.25951e-17 -2.2926)
(-3.04921e-16 1.31616e-16 -2.30604)
(-1.84087e-17 1.66333e-16 -2.32154)
(8.64168e-17 -5.91738e-18 -2.34848)
(-8.47932e-17 5.68999e-17 -2.37843)
(5.27663e-17 -1.47411e-17 -2.41741)
(2.20147e-19 -1.46569e-17 -2.46331)
(7.02565e-19 9.23857e-17 -2.51626)
(-1.75992e-16 8.71515e-17 -2.57726)
(5.16601e-18 8.80956e-17 -2.64163)
(-1.5915e-16 -6.08809e-16 -2.71264)
(-1.99927e-16 7.81765e-18 -2.78621)
(3.58914e-16 5.34725e-16 -2.86465)
(3.83117e-18 -2.10814e-16 -2.94438)
(6.07189e-18 -1.29109e-17 -3.02794)
(1.31896e-18 2.35459e-16 -3.1173)
(-1.68428e-16 -1.19109e-16 -3.2087)
(3.69529e-16 -4.54869e-17 -3.30899)
(9.513e-18 -2.0455e-16 -3.41396)
(-6.45872e-16 -1.15791e-15 -3.52718)
(2.07865e-16 9.31301e-16 -3.65225)
(8.96646e-16 1.90502e-15 -3.78522)
(-4.56235e-16 -1.42062e-15 -3.93117)
(8.34964e-16 -5.11855e-16 -4.09454)
(-7.9736e-16 5.44497e-16 -4.27308)
(-3.63966e-16 8.80581e-16 -4.46828)
(-1.3108e-16 -2.40476e-17 -4.68181)
(-5.11165e-16 -9.93339e-16 -4.91066)
(1.48988e-15 5.88525e-16 -5.15609)
(-9.70935e-17 3.68686e-18 -5.41582)
(4.35972e-16 8.08237e-16 -5.6873)
(-3.18917e-16 3.98815e-16 -5.96947)
(-6.46286e-16 -4.73083e-16 -6.26099)
(-3.01208e-16 -6.23607e-16 -6.5531)
(-5.25367e-17 6.93625e-17 -6.85029)
(-5.44645e-16 -2.45325e-16 -7.15103)
(-6.02438e-16 -7.47713e-16 -7.4398)
(-7.69675e-18 1.90563e-16 -7.73109)
(-1.04207e-16 -2.0827e-16 -8.01834)
(-5.05865e-16 -5.89348e-17 -8.28246)
(-1.11417e-16 -1.12933e-17 -8.55253)
(1.45437e-16 1.98456e-17 -8.79583)
(9.17097e-17 -2.36973e-16 -9.0299)
(2.31986e-16 -7.53404e-16 -9.24498)
(-3.12606e-16 6.35407e-18 -9.43778)
(-1.03667e-16 2.6575e-16 -9.60636)
(2.39191e-16 2.75291e-16 -9.74756)
(3.2984e-16 7.94184e-17 -9.8425)
(1.14289e-16 -4.89389e-17 -9.90918)
(-1.15954e-16 5.78098e-17 -9.89999)
(7.25801e-17 3.22249e-18 -9.83997)
(-5.84836e-17 -2.13252e-18 -9.69282)
(2.77607e-16 -4.3212e-17 -9.45542)
(4.87605e-17 -9.35358e-17 -9.13461)
(-2.83855e-16 3.24262e-16 -8.70764)
(-8.31102e-17 -5.266e-17 -8.21096)
(9.75364e-17 -7.34049e-17 -7.63718)
(-2.3049e-16 1.69498e-16 -7.04054)
(8.29636e-17 -3.47116e-16 -6.45516)
(-2.2032e-16 1.23296e-16 -5.95611)
(2.78325e-16 2.33891e-17 -5.62154)
(-2.10382e-17 -1.71071e-16 -5.43881)
(3.25082e-17 5.57395e-17 -5.45094)
(-1.36842e-16 1.99287e-16 -5.71003)
(1.1779e-16 -3.91732e-17 -6.17202)
(2.09612e-17 -5.37862e-17 -6.56119)
(1.14128e-16 9.95586e-19 -6.8577)
(-2.32962e-17 4.77176e-17 -7.01976)
(2.40485e-17 1.48842e-17 -7.09763)
(-7.22225e-17 -2.51415e-17 -7.12287)
(-3.91279e-18 -3.40449e-17 -7.13095)
(5.65483e-18 2.01386e-17 -7.05698)
(2.53981e-17 3.82646e-17 -6.93613)
(-2.59871e-18 -2.85401e-18 -6.81985)
(-7.89133e-18 -3.78696e-17 -6.73008)
(-4.86074e-18 1.91006e-17 -6.67105)
(4.69818e-18 2.09353e-17 -6.65034)
(4.49941e-18 -1.50393e-17 -6.66544)
(-4.22587e-17 -2.52934e-18 -6.70867)
(3.51917e-17 -1.59403e-17 -6.77127)
(1.7409e-17 1.14865e-17 -6.8443)
(-1.24934e-17 1.71153e-17 -6.92005)
(-4.46298e-18 -1.27407e-17 -6.99213)
(9.17647e-18 8.77431e-19 -7.05635)
(-6.7369e-18 -3.02927e-18 -7.1099)
(5.94907e-19 -5.85169e-18 -7.15112)
(5.37881e-18 4.88507e-18 -7.17906)
(-1.14692e-17 7.69144e-18 -7.19412)
(8.49566e-19 -5.96992e-18 -7.19801)
(-1.79101e-18 -1.98144e-18 -7.19329)
(-1.32744e-18 4.45364e-18 -7.1826)
(3.55522e-18 -1.42724e-18 -7.16878)
(-4.32825e-18 -6.13086e-18 -7.15393)
(-3.88612e-18 1.23695e-18 -7.13973)
(3.89367e-18 9.7617e-19 -7.12704)
(-1.19526e-18 1.32186e-18 -7.11535)
(-1.27637e-18 -1.34479e-18 -7.10384)
(5.5746e-20 2.29029e-18 -7.09157)
(7.50248e-19 -5.0754e-19 -7.07708)
(-7.10501e-19 -4.09422e-20 -7.06011)
(-6.2772e-20 -6.62672e-19 -7.04361)
(3.14946e-19 -8.65513e-19 -7.02997)
(-1.03097e-19 1.88132e-19 -7.02888)
(0 -0 1.65679)
(0 -0 1.45203)
(1.32752e-19 -1.49989e-17 0.968136)
(3.05357e-19 1.32493e-17 0.226392)
(-5.27769e-19 1.66888e-17 -0.641321)
(7.41174e-19 -4.43606e-17 -1.48272)
(3.11552e-17 2.59994e-17 -2.2609)
(-6.38375e-17 6.21897e-17 -2.95849)
(3.24501e-17 -8.47106e-17 -3.53184)
(1.06849e-18 -6.66148e-18 -4.0141)
(-2.27498e-18 6.19463e-17 -4.41616)
(6.4606e-17 -2.93418e-17 -4.74874)
(-1.22081e-16 -5.81306e-17 -5.02166)
(1.24714e-16 -5.77153e-18 -5.24581)
(-1.35024e-16 1.74362e-16 -5.42969)
(6.53866e-17 -4.66517e-17 -5.5807)
(9.839e-18 -1.2186e-16 -5.70529)
(-6.82826e-18 5.80521e-17 -5.80889)
(3.21203e-18 -5.73018e-17 -5.89605)
(5.59101e-17 5.21688e-17 -5.97049)
(-7.08878e-17 6.25473e-17 -6.03523)
(1.18194e-17 -5.74143e-17 -6.09264)
(-1.2416e-16 1.13191e-16 -6.14447)
(1.40261e-16 -2.1677e-16 -6.19192)
(-7.30515e-18 -1.87893e-17 -6.23558)
(-2.6039e-17 3.47532e-16 -6.27572)
(7.94524e-18 -1.0498e-16 -6.31235)
(1.87603e-17 -3.35947e-16 -6.34524)
(-1.21998e-16 9.60047e-17 -6.37376)
(9.322e-17 3.42425e-16 -6.39724)
(1.79831e-17 -1.04964e-16 -6.41486)
(3.09523e-18 -2.22391e-16 -6.42601)
(2.01966e-17 -1.16924e-16 -6.43129)
(-1.35642e-16 2.16836e-16 -6.42697)
(1.10168e-16 1.2048e-16 -6.39009)
(3.09799e-16 3.73072e-16 -6.29279)