/*--------------------------------*- C++ -*----------------------------------*\
| =========                 |                                                 |
| \\      /  F ield         | OpenFOAM: The Open Source CFD Toolbox           |
|  \\    /   O peration     | Version:  2506                                  |
|   \\  /    A nd           | Website:  www.openfoam.com                      |
|    \\/     M anipulation  |                                                 |
\*---------------------------------------------------------------------------*/
FoamFile
{
    version     2.0;
    format      ascii;
    arch        "LSB;label=32;scalar=64";
    class       surfaceScalarField;
    location    "3.7";
    object      phi;
}
// * * * * * * * * * * * * * * * * * * * * * * * * * * * * * * * * * * * * * //

dimensions      [0 3 -1 0 0 0 0];

oriented        oriented;

internalField   nonuniform List<scalar> 
7780
(
2.76359e-09
5.36489e-10
2.09644e-09
6.67281e-10
1.58561e-09
5.1093e-10
1.21703e-09
3.68551e-10
9.61968e-10
2.55039e-10
7.86851e-10
1.7511e-10
6.66181e-10
1.20674e-10
5.81711e-10
8.44702e-11
5.21125e-10
6.05854e-11
4.7681e-10
4.43128e-11
4.438e-10
3.30076e-11
4.18655e-10
2.51423e-11
3.99031e-10
1.96217e-11
3.83279e-10
1.57498e-11
3.70147e-10
1.31296e-11
3.58692e-10
1.14531e-11
3.48221e-10
1.04686e-11
3.3822e-10
9.99907e-12
3.28307e-10
9.91023e-12
3.18213e-10
1.00923e-11
3.07742e-10
1.04678e-11
2.9675e-10
1.09902e-11
2.85113e-10
1.16337e-11
2.72724e-10
1.23862e-11
2.59476e-10
1.3245e-11
2.45261e-10
1.42122e-11
2.29965e-10
1.52919e-11
2.13473e-10
1.64878e-11
1.95665e-10
1.78028e-11
1.76415e-10
1.92433e-11
1.5556e-10
2.08473e-11
1.32793e-10
2.27589e-11
1.07925e-10
2.48579e-11
7.57769e-11
3.21371e-11
5.66369e-11
1.91311e-11
6.63432e-11
-9.70829e-12
9.47636e-11
-2.84149e-11
1.3166e-10
-3.68845e-11
1.76148e-10
-4.44757e-11
2.30626e-10
-5.44772e-11
3.08683e-10
-7.80813e-11
3.91641e-10
-8.3013e-11
4.628e-10
-7.12369e-11
5.24715e-10
-6.20061e-11
5.76355e-10
-5.17344e-11
6.21044e-10
-4.47789e-11
6.62238e-10
-4.12749e-11
6.938e-10
-3.16391e-11
7.22795e-10
-2.9063e-11
7.4624e-10
-2.34961e-11
7.62061e-10
-1.58555e-11
7.7393e-10
-1.189e-11
7.73185e-10
7.34337e-13
7.67549e-10
5.63278e-12
7.46615e-10
2.09361e-11
7.17141e-10
2.94763e-11
6.75714e-10
4.14288e-11
6.20292e-10
5.54225e-11
5.61723e-10
5.85712e-11
4.86274e-10
7.54589e-11
4.13339e-10
7.29577e-11
3.37132e-10
7.62434e-11
2.62538e-10
7.46413e-11
1.94258e-10
6.83309e-11
1.2877e-10
6.55307e-11
7.33177e-11
5.5477e-11
2.19384e-11
5.13731e-11
-2.03487e-11
4.22466e-11
-5.75474e-11
3.71286e-11
-8.81027e-11
3.04605e-11
-1.13439e-10
2.52213e-11
-1.35401e-10
2.18317e-11
-1.52868e-10
1.73282e-11
-1.6711e-10
1.41029e-11
-1.78325e-10
1.10825e-11
-1.86574e-10
8.12637e-12
-1.9249e-10
5.80607e-12
-1.9643e-10
3.84434e-12
-1.98614e-10
2.10453e-12
-1.9953e-10
8.51608e-13
-1.99547e-10
-3.36941e-14
-1.98869e-10
-7.15613e-13
-1.97814e-10
-1.08274e-12
-1.96587e-10
-1.24606e-12
-1.95279e-10
-1.32087e-12
-1.93989e-10
-1.30058e-12
-1.92658e-10
-1.33921e-12
-1.91143e-10
-1.52456e-12
-1.89436e-10
-1.71522e-12
-1.8736e-10
-2.0848e-12
-1.84723e-10
-2.64622e-12
-1.8155e-10
-3.18104e-12
-1.77721e-10
-3.83553e-12
-1.7316e-10
-4.56821e-12
-1.67968e-10
-5.197e-12
-1.61987e-10
-5.98636e-12
-1.55361e-10
-6.63115e-12
-1.48265e-10
-7.10116e-12
-1.40938e-10
-7.33301e-12
-1.33227e-10
-7.71575e-12
-1.25388e-10
-7.84502e-12
-1.1727e-10
-8.12513e-12
-1.08894e-10
-8.38241e-12
-9.97007e-11
-9.20094e-12
-8.97419e-11
-9.96626e-12
-7.97401e-11
-1.00096e-11
-6.86671e-11
-1.10809e-11
-5.70781e-11
-1.15971e-11
-4.42267e-11
-1.286e-11
-3.01709e-11
-1.40651e-11
-1.45562e-11
-1.5625e-11
2.44426e-12
-1.70121e-11
2.16096e-11
-1.91788e-11
4.15483e-11
-1.99546e-11
6.43755e-11
-2.28459e-11
8.80017e-11
-2.36479e-11
1.13046e-10
-2.50694e-11
1.39837e-10
-2.68188e-11
1.6704e-10
-2.72349e-11
1.94951e-10
-2.79461e-11
2.23739e-10
-2.88289e-11
2.52301e-10
-2.86101e-11
2.8041e-10
-2.81661e-11
3.0854e-10
-2.8196e-11
3.35771e-10
-2.73065e-11
3.62114e-10
-2.64268e-11
3.87461e-10
-2.54398e-11
4.11426e-10
-2.40647e-11
4.3434e-10
-2.30198e-11
4.5689e-10
-2.26618e-11
4.77018e-10
-2.02458e-11
4.96389e-10
-1.94928e-11
5.16418e-10
-2.01548e-11
5.33473e-10
-1.71822e-11
5.50221e-10
-1.68749e-11
5.69073e-10
-1.89695e-11
5.82446e-10
-1.34783e-11
5.98076e-10
-1.5724e-11
6.09725e-10
-1.17263e-11
6.19465e-10
-9.79743e-12
6.25154e-10
-5.72318e-12
6.24468e-10
6.75588e-13
6.16039e-10
8.43996e-12
6.00555e-10
1.55102e-11
5.70595e-10
2.99939e-11
5.35893e-10
3.47346e-11
4.82141e-10
5.37757e-11
4.23549e-10
5.86061e-11
3.56378e-10
6.71728e-11
2.82579e-10
7.37897e-11
2.10463e-10
7.21033e-11
1.34316e-10
7.61291e-11
6.56666e-11
6.863e-11
-1.20594e-12
6.68469e-11
-5.89375e-11
5.76992e-11
-1.10992e-10
5.20096e-11
-1.53269e-10
4.22168e-11
-1.87322e-10
3.39804e-11
-2.10654e-10
2.32566e-11
-2.21504e-10
1.07871e-11
-2.18379e-10
-3.15073e-12
-2.05736e-10
-1.26508e-11
-1.83819e-10
-2.19184e-11
-1.52598e-10
-3.1219e-11
-1.11017e-10
-4.15803e-11
-5.94591e-11
-5.15628e-11
5.64966e-12
-6.51199e-11
6.94021e-11
-6.37654e-11
1.21031e-10
-5.16411e-11
1.60295e-10
-3.92755e-11
1.88497e-10
-2.82111e-11
2.07558e-10
-1.907e-11
2.19654e-10
-1.21034e-11
2.26905e-10
-7.25699e-12
2.31171e-10
-4.27194e-12
2.34006e-10
-2.83961e-12
2.36629e-10
-2.62665e-12
2.39825e-10
-3.19869e-12
2.43967e-10
-4.14471e-12
2.49121e-10
-5.15638e-12
2.55117e-10
-5.997e-12
2.61612e-10
-6.49686e-12
2.68167e-10
-6.55647e-12
2.74317e-10
-6.1508e-12
2.79639e-10
-5.32266e-12
2.83798e-10
-4.15922e-12
2.86537e-10
-2.73997e-12
2.87686e-10
-1.14884e-12
2.87429e-10
2.55685e-13
2.85936e-10
1.493e-12
2.83398e-10
2.53768e-12
2.79972e-10
3.42492e-12
2.75923e-10
4.04893e-12
2.7152e-10
4.40287e-12
2.67013e-10
4.50608e-12
2.62614e-10
4.39823e-12
2.5848e-10
4.13384e-12
2.547e-10
3.77969e-12
2.51215e-10
3.4851e-12
4.03123e-12
3.51014e-09
3.26332e-10
3.49583e-09
6.81603e-10
3.30249e-09
7.0435e-10
3.03389e-09
6.37101e-10
2.75141e-09
5.37474e-10
2.49502e-09
4.31495e-10
2.28044e-09
3.35267e-10
2.10697e-09
2.57934e-10
1.96908e-09
1.98475e-10
1.86068e-09
1.52714e-10
1.77555e-09
1.18132e-10
1.70816e-09
9.25353e-11
1.65414e-09
7.36341e-11
1.61007e-09
5.98231e-11
1.57313e-09
5.007e-11
1.54111e-09
4.34726e-11
1.5123e-09
3.92682e-11
1.4854e-09
3.69016e-11
1.45938e-09
3.59326e-11
1.43347e-09
3.59992e-11
1.40709e-09
3.68414e-11
1.37978e-09
3.82992e-11
1.35113e-09
4.02841e-11
1.32075e-09
4.27595e-11
1.28827e-09
4.57272e-11
1.25326e-09
4.9216e-11
1.21528e-09
5.32721e-11
1.17381e-09
5.79558e-11
1.12826e-09
6.33451e-11
1.07795e-09
6.95501e-11
1.02203e-09
7.67546e-11
9.59443e-10
8.53439e-11
8.88386e-10
9.59089e-11
8.02441e-10
1.18076e-10
7.36559e-10
8.50052e-11
7.28328e-10
-1.48551e-12
7.63221e-10
-6.33156e-11
8.24891e-10
-9.85584e-11
9.08885e-10
-1.28469e-10
1.01694e-09
-1.62524e-10
1.15772e-09
-2.18843e-10
1.30487e-09
-2.30147e-10
1.44074e-09
-2.07094e-10
1.56427e-09
-1.85526e-10
1.67328e-09
-1.60725e-10
1.77128e-09
-1.42757e-10
1.86098e-09
-1.30934e-10
1.93746e-09
-1.08091e-10
2.00711e-09
-9.86779e-11
2.06655e-09
-8.29039e-11
2.11401e-09
-6.32864e-11
2.1509e-09
-4.87497e-11
2.16885e-09
-1.71959e-11
2.17364e-09
8.42382e-13
2.15552e-09
3.9061e-11
2.11836e-09
6.66282e-11
2.05803e-09
1.01759e-10
1.97207e-09
1.41373e-10
1.86978e-09
1.60853e-10
1.73853e-09
2.06706e-10
1.59798e-09
2.13506e-10
1.44501e-09
2.29204e-10
1.2875e-09
2.32149e-10
1.1331e-09
2.22746e-10
9.81251e-10
2.17414e-10
8.42293e-10
1.94478e-10
7.12205e-10
1.81513e-10
5.97712e-10
1.56797e-10
4.95407e-10
1.39488e-10
4.06337e-10
1.19577e-10
3.30379e-10
1.01213e-10
2.64408e-10
8.78232e-11
2.09904e-10
7.18408e-11
1.64492e-10
5.95151e-11
1.27049e-10
4.85183e-11
9.7546e-11
3.76165e-11
7.4563e-11
2.87747e-11
5.69611e-11
2.14317e-11
4.4311e-11
1.47411e-11
3.56015e-11
9.54944e-12
2.96428e-11
5.91624e-12
2.63313e-11
2.59063e-12
2.48538e-11
3.92962e-13
2.45891e-11
-9.80808e-13
2.53204e-11
-2.05045e-12
2.65319e-11
-2.51111e-12
2.80629e-11
-2.8712e-12
3.0509e-11
-3.97424e-12
3.36371e-11
-4.84949e-12
3.74411e-11
-5.89703e-12
4.30619e-11
-8.27686e-12
4.96461e-11
-9.77595e-12
5.72251e-11
-1.14259e-11
6.6763e-11
-1.41174e-11
7.67498e-11
-1.51949e-11
8.88755e-11
-1.81228e-11
1.01232e-10
-1.89977e-11
1.15702e-10
-2.15812e-11
1.30395e-10
-2.20351e-11
1.47437e-10
-2.4766e-11
1.64701e-10
-2.51178e-11
1.8394e-10
-2.73724e-11
2.04311e-10
-2.87615e-11
2.25527e-10
-3.04258e-11
2.49314e-10
-3.37617e-11
2.74543e-10
-3.52482e-11
3.03151e-10
-3.96982e-11
3.34111e-10
-4.25668e-11
3.68362e-10
-4.71213e-11
4.05815e-10
-5.15294e-11
4.46659e-10
-5.64802e-11
4.90766e-10
-6.11304e-11
5.38453e-10
-6.68778e-11
5.88565e-10
-7.00777e-11
6.42546e-10
-7.68387e-11
6.98274e-10
-7.93853e-11
7.56058e-10
-8.28608e-11
8.15749e-10
-8.65136e-11
8.75883e-10
-8.73701e-11
9.36476e-10
-8.85349e-11
9.97323e-10
-8.96688e-11
1.05712e-09
-8.83961e-11
1.11561e-09
-8.66488e-11
1.17297e-09
-8.55341e-11
1.22828e-09
-8.26078e-11
1.28153e-09
-7.9661e-11
1.33259e-09
-7.64753e-11
1.38126e-09
-7.27095e-11
1.42809e-09
-6.98292e-11
1.47358e-09
-6.81083e-11
1.51622e-09
-6.28481e-11
1.55788e-09
-6.11015e-11
1.59977e-09
-6.19964e-11
1.63858e-09
-5.59388e-11
1.67781e-09
-5.60548e-11
1.71819e-09
-5.92922e-11
1.75347e-09
-4.87067e-11
1.78965e-09
-5.18686e-11
1.82095e-09
-4.29965e-11
1.84782e-09
-3.66431e-11
1.86743e-09
-2.53271e-11
1.87649e-09
-8.39194e-12
1.87175e-09
1.3156e-11
1.85156e-09
3.56634e-11
1.80862e-09
7.28992e-11
1.74929e-09
9.40212e-11
1.65935e-09
1.43682e-10
1.55188e-09
1.66051e-10
1.42365e-09
1.95376e-10
1.27744e-09
2.19985e-10
1.12436e-09
2.25177e-10
9.5926e-10
2.41215e-10
7.99303e-10
2.2858e-10
6.39244e-10
2.26905e-10
4.91754e-10
2.05193e-10
3.52282e-10
1.91487e-10
2.29293e-10
1.65209e-10
1.20925e-10
1.42346e-10
3.34133e-11
1.10761e-10
-3.27157e-11
7.69102e-11
-3.48949e-11
-9.6334e-13
-1.85531e-12
-4.56777e-11
5.87819e-11
-8.25454e-11
1.42969e-10
-1.154e-10
2.53312e-10
-1.51921e-10
3.83966e-10
-1.82216e-10
5.34846e-10
-2.16004e-10
6.75618e-10
-2.04544e-10
7.9166e-10
-1.6769e-10
8.83453e-10
-1.31076e-10
9.53698e-10
-9.84619e-11
1.00623e-09
-7.16033e-11
1.04526e-09
-5.11381e-11
1.07491e-09
-3.6907e-11
1.09881e-09
-2.81738e-11
1.11986e-09
-2.38936e-11
1.14013e-09
-2.28993e-11
1.16093e-09
-2.39985e-11
1.18287e-09
-2.60837e-11
1.20593e-09
-2.82166e-11
1.2296e-09
-2.96711e-11
1.25306e-09
-2.99551e-11
1.27532e-09
-2.88184e-11
1.29541e-09
-2.62447e-11
1.31251e-09
-2.24166e-11
1.326e-09
-1.76521e-11
1.3356e-09
-1.23394e-11
1.34134e-09
-6.89585e-12
1.34342e-09
-1.8224e-12
1.34217e-09
2.74526e-12
1.33826e-09
6.44246e-12
1.33246e-09
9.23143e-12
1.32548e-09
1.10244e-11
1.31803e-09
1.18532e-11
1.31072e-09
1.18202e-11
1.30404e-09
1.10773e-11
1.29835e-09
9.8162e-12
1.29387e-09
8.26294e-12
1.29068e-09
6.67226e-12
6.11134e-12
3.44039e-09
1.85928e-10
3.63538e-09
4.86557e-10
3.73441e-09
6.05189e-10
3.74284e-09
6.28551e-10
3.67287e-09
6.07395e-10
3.55679e-09
5.47569e-10
3.42011e-09
4.71974e-10
3.28042e-09
3.97636e-10
3.15022e-09
3.28669e-10
3.03479e-09
2.68137e-10
2.93467e-09
2.18257e-10
2.84887e-09
1.78326e-10
2.77597e-09
1.46537e-10
2.71395e-09
1.21841e-10
2.6606e-09
1.0342e-10
2.6139e-09
9.01745e-11
2.57207e-09
8.10922e-11
2.53355e-09
7.54196e-11
2.49701e-09
7.24717e-11
2.46138e-09
7.16303e-11
2.42579e-09
7.24322e-11
2.38951e-09
7.45748e-11
2.35192e-09
7.78764e-11
2.31242e-09
8.22538e-11
2.27044e-09
8.77051e-11
2.22536e-09
9.42894e-11
2.17652e-09
1.02112e-10
2.12316e-09
1.11317e-10
2.06441e-09
1.22094e-10
1.99926e-09
1.34696e-10
1.92652e-09
1.49485e-10
1.84482e-09
1.6704e-10
1.75229e-09
1.88438e-10
1.64306e-09
2.27296e-10
1.54945e-09
1.78616e-10
1.51168e-09
3.62713e-11
1.52331e-09
-7.49487e-11
1.57376e-09
-1.49014e-10
1.65828e-09
-2.12989e-10
1.77489e-09
-2.79124e-10
1.92476e-09
-3.68674e-10
2.08397e-09
-3.89312e-10
2.23981e-09
-3.62892e-10
2.38744e-09
-3.33129e-10
2.52287e-09
-2.96114e-10
2.64758e-09
-2.67441e-10
2.76271e-09
-2.46025e-10
2.86528e-09
-2.10623e-10
2.95942e-09
-1.92779e-10
3.04242e-09
-1.65876e-10
3.1134e-09
-1.34248e-10
3.17158e-09
-1.06908e-10
3.21261e-09
-5.82233e-11
3.23872e-09
-2.52725e-11
3.24281e-09
3.49593e-11
3.22655e-09
8.28581e-11
3.18612e-09
1.42164e-10
3.11852e-09
2.08958e-10
3.02876e-09
2.50591e-10
2.90699e-09
3.28461e-10
2.76609e-09
3.5438e-10
2.60348e-09
3.9178e-10
2.42604e-09
4.09556e-10
2.24079e-09
4.07955e-10
2.04955e-09
4.0863e-10
1.8634e-09
3.80617e-10
1.68139e-09
3.63542e-10
1.51228e-09
3.25929e-10
1.355e-09
2.96807e-10
1.21266e-09
2.61965e-10
1.08643e-09
2.27495e-10
9.73517e-10
2.00789e-10
8.76281e-10
1.69121e-10
7.92167e-10
1.43669e-10
7.19934e-10
1.20785e-10
6.59595e-10
9.79833e-11
6.09299e-10
7.90935e-11
5.67542e-10
6.3207e-11
5.33775e-10
4.85236e-11
5.06855e-10
3.64811e-11
4.85536e-10
2.72469e-11
4.68534e-10
1.96037e-11
4.54865e-10
1.40722e-11
4.43651e-10
1.02419e-11
4.34462e-10
7.14444e-12
4.26443e-10
5.51039e-12
4.19216e-10
4.35515e-12
4.13583e-10
1.6534e-12
4.08995e-10
-2.69826e-13
4.05302e-10
-2.21417e-12
4.03457e-10
-6.44342e-12
4.03291e-10
-9.6218e-12
4.04765e-10
-1.29116e-11
4.0886e-10
-1.82243e-11
4.14242e-10
-2.05888e-11
4.22544e-10
-2.6436e-11
4.32051e-10
-2.85143e-11
4.44479e-10
-3.40199e-11
4.58195e-10
-3.57598e-11
4.75464e-10
-4.20445e-11
4.94511e-10
-4.41728e-11
5.17279e-10
-5.01485e-11
5.43174e-10
-5.4665e-11
5.72575e-10
-5.98354e-11
6.06845e-10
-6.80403e-11
6.44982e-10
-7.33942e-11
6.88749e-10
-8.3474e-11
7.3713e-10
-9.0958e-11
7.90783e-10
-1.00785e-10
8.49485e-10
-1.10242e-10
9.13057e-10
-1.20063e-10
9.81147e-10
-1.29233e-10
1.05367e-09
-1.39417e-10
1.12925e-09
-1.45669e-10
1.20885e-09
-1.56452e-10
1.29026e-09
-1.60808e-10
1.37346e-09
-1.66071e-10
1.45802e-09
-1.71076e-10
1.54245e-09
-1.71805e-10
1.62653e-09
-1.72612e-10
1.70988e-09
-1.73018e-10
1.79127e-09
-1.69774e-10
1.87046e-09
-1.6582e-10
1.9474e-09
-1.62454e-10
2.02139e-09
-1.56576e-10
2.09244e-09
-1.50684e-10
2.16048e-09
-1.44482e-10
2.22551e-09
-1.37708e-10
2.28808e-09
-1.32344e-10
2.34854e-09
-1.28516e-10
2.40627e-09
-1.20512e-10
2.46253e-09
-1.17294e-10
2.51833e-09
-1.17721e-10
2.57157e-09
-1.09101e-10
2.6252e-09
-1.09599e-10
2.67867e-09
-1.12681e-10
2.72826e-09
-9.82184e-11
2.77721e-09
-1.00747e-10
2.82183e-09
-8.75625e-11
2.86119e-09
-7.59688e-11
2.89329e-09
-5.74177e-11
2.91434e-09
-2.94452e-11
2.9216e-09
5.85953e-12
2.91246e-09
4.47434e-11
2.88143e-09
1.03861e-10
2.83045e-09
1.44925e-10
2.74931e-09
2.24753e-10
2.64487e-09
2.70432e-10
2.51444e-09
3.25769e-10
2.35842e-09
3.75969e-10
2.18578e-09
3.9779e-10
1.99165e-09
4.35327e-10
1.79204e-09
4.28162e-10
1.58282e-09
4.36111e-10
1.37847e-09
4.09534e-10
1.17582e-09
3.94126e-10
9.86343e-10
3.54684e-10
8.10793e-10
3.17903e-10
6.62565e-10
2.59006e-10
5.43132e-10
1.96367e-10
5.18983e-10
2.32188e-11
5.45922e-10
-7.25825e-11
6.13977e-10
-1.50574e-10
7.15487e-10
-2.16892e-10
8.51709e-10
-2.8813e-10
1.01175e-09
-3.42249e-10
1.19104e-09
-3.95286e-10
1.35725e-09
-3.70757e-10
1.49826e-09
-3.08699e-10
1.61483e-09
-2.47652e-10
1.7091e-09
-1.92737e-10
1.7844e-09
-1.46907e-10
1.84466e-09
-1.11399e-10
1.89394e-09
-8.61922e-11
1.93604e-09
-7.02795e-11
1.97417e-09
-6.20191e-11
2.01072e-09
-5.9454e-11
2.04727e-09
-6.05473e-11
2.08455e-09
-6.3368e-11
2.12257e-09
-6.62351e-11
2.16073e-09
-6.78261e-11
2.19801e-09
-6.72349e-11
2.23319e-09
-6.39961e-11
2.26502e-09
-5.80787e-11
2.29242e-09
-4.98213e-11
2.31459e-09
-3.98224e-11
2.33108e-09
-2.88295e-11
2.34183e-09
-1.7641e-11
2.34703e-09
-7.02032e-12
2.34737e-09
2.40203e-12
2.34367e-09
1.01458e-11
2.33695e-09
1.59413e-11
2.32829e-09
1.96864e-11
2.3187e-09
2.14471e-11
2.30909e-09
2.1427e-11
2.30024e-09
1.99312e-11
2.29272e-09
1.73292e-11
2.28693e-09
1.40508e-11
2.28319e-09
1.0416e-11
7.52763e-12
3.3736e-09
1.12323e-10
3.54126e-09
3.18841e-10
3.69723e-09
4.49147e-10
3.81308e-09
5.12652e-10
3.88868e-09
5.31768e-10
3.91721e-09
5.19021e-10
3.90431e-09
4.84876e-10
3.8643e-09
4.37656e-10
3.80763e-09
3.85332e-10
3.74215e-09
3.3362e-10
3.67353e-09
2.86875e-10
3.60664e-09
2.45213e-10
3.54406e-09
2.09121e-10
3.48647e-09
1.79426e-10
3.43378e-09
1.56107e-10
3.38568e-09
1.38277e-10
3.34153e-09
1.25242e-10
3.30041e-09
1.16536e-10
3.26137e-09
1.11517e-10
3.2235e-09
1.09498e-10
3.18598e-09
1.09946e-10
3.14807e-09
1.12491e-10
3.10905e-09
1.1689e-10
3.06829e-09
1.23018e-10
3.02512e-09
1.30866e-10
2.9789e-09
1.40517e-10
2.92888e-09
1.5213e-10
2.87426e-09
1.65931e-10
2.81414e-09
1.82213e-10
2.74748e-09
2.01357e-10
2.67309e-09
2.23871e-10
2.58968e-09
2.5044e-10
2.4958e-09
2.82316e-10
2.38682e-09
3.36273e-10
2.28651e-09
2.78926e-10
2.22807e-09
9.47039e-11
2.21426e-09
-6.11489e-11
2.24199e-09
-1.76757e-10
2.30872e-09
-2.79719e-10
2.41026e-09
-3.80654e-10
2.54328e-09
-5.01663e-10
2.68884e-09
-5.34834e-10
2.83851e-09
-5.12508e-10
2.98491e-09
-4.79494e-10
3.12287e-09
-4.34041e-10
3.25211e-09
-3.9666e-10
3.37326e-09
-3.67144e-10
3.48342e-09
-3.20769e-10
3.58554e-09
-2.94841e-10
3.67719e-09
-2.57513e-10
3.75825e-09
-2.15298e-10
3.82823e-09
-1.76898e-10
3.8848e-09
-1.14795e-10
3.92832e-09
-6.88026e-11
3.95488e-09
8.37918e-12
3.96478e-09
7.29365e-11
3.95533e-09
1.51584e-10
3.92365e-09
2.4061e-10
3.87145e-09
3.0277e-10
3.79173e-09
4.08166e-10
3.69053e-09
4.55555e-10
3.56477e-09
5.17504e-10
3.4182e-09
5.56074e-10
3.25477e-09
5.71332e-10
3.07652e-09
5.86831e-10
2.8921e-09
5.64988e-10
2.70276e-09
5.5285e-10
2.51705e-09
5.11616e-10
2.33643e-09
4.77434e-10
2.16536e-09
4.33058e-10
2.00681e-09
3.86082e-10
1.8596e-09
3.48044e-10
1.72726e-09
3.01503e-10
1.60816e-09
2.62815e-10
1.50179e-09
2.27207e-10
1.40856e-09
1.91251e-10
1.32683e-09
1.6086e-10
1.25534e-09
1.34734e-10
1.19346e-09
1.1043e-10
1.14008e-09
8.98818e-11
1.09368e-09
7.36686e-11
1.05317e-09
6.01287e-11
1.01732e-09
4.99436e-11
9.85026e-10
4.25422e-11
9.55647e-10
3.65289e-11
9.28076e-10
3.30825e-11
9.01691e-10
3.07367e-11
8.77062e-10
2.62741e-11
8.5333e-10
2.34511e-11
8.31029e-10
2.00746e-11
8.11211e-10
1.33622e-11
7.93696e-10
7.87942e-12
7.78729e-10
2.0431e-12
7.67689e-10
-7.19667e-12
7.59387e-10
-1.22987e-11
7.55743e-10
-2.28028e-11
7.55229e-10
-2.80115e-11
7.59709e-10
-3.85089e-11
7.67716e-10
-4.37759e-11
7.8161e-10
-5.59471e-11
7.99832e-10
-6.2403e-11
8.24381e-10
-7.47064e-11
8.54747e-10
-8.50383e-11
8.91465e-10
-9.6561e-11
9.35577e-10
-1.12161e-10
9.86106e-10
-1.23931e-10
1.04432e-09
-1.41701e-10
1.10913e-09
-1.55771e-10
1.18062e-09
-1.72286e-10
1.25832e-09
-1.87956e-10
1.34151e-09
-2.03266e-10
1.42959e-09
-2.17322e-10
1.52192e-09
-2.31761e-10
1.61709e-09
-2.40849e-10
1.71537e-09
-2.54749e-10
1.81476e-09
-2.60213e-10
1.9149e-09
-2.66221e-10
2.0152e-09
-2.7138e-10
2.11434e-09
-2.7096e-10
2.21197e-09
-2.70241e-10
2.30769e-09
-2.68741e-10
2.4005e-09
-2.62581e-10
2.49026e-09
-2.55568e-10
2.57684e-09
-2.49026e-10
2.65984e-09
-2.39559e-10
2.73934e-09
-2.30166e-10
2.81537e-09
-2.20495e-10
2.88812e-09
-2.10425e-10
2.95804e-09
-2.02229e-10
3.02546e-09
-1.95896e-10
3.09035e-09
-1.8535e-10
3.15332e-09
-1.80203e-10
3.21512e-09
-1.79464e-10
3.27502e-09
-1.6893e-10
3.33489e-09
-1.69388e-10
3.39369e-09
-1.71415e-10
3.4492e-09
-1.53655e-10
3.503e-09
-1.54486e-10
3.55331e-09
-1.37817e-10
3.59846e-09
-1.21074e-10
3.63748e-09
-9.64182e-11
3.66685e-09
-5.88176e-11
3.68593e-09
-1.32553e-11
3.69044e-09
4.01843e-11
3.67819e-09
1.16062e-10
3.64811e-09
1.74926e-10
3.59422e-09
2.78567e-10
3.51808e-09
3.46509e-10
3.41758e-09
4.26219e-10
3.29038e-09
5.03127e-10
3.14188e-09
5.46253e-10
2.96657e-09
6.10607e-10
2.77614e-09
6.18563e-10
2.5664e-09
6.45821e-10
2.34989e-09
6.26015e-10
2.12422e-09
6.19766e-10
1.90121e-09
5.77682e-10
1.68511e-09
5.34001e-10
1.49634e-09
4.47786e-10
1.33597e-09
3.56771e-10
1.27646e-09
8.27682e-11
1.27431e-09
-7.03882e-11
1.32046e-09
-1.9668e-10
1.40626e-09
-3.02665e-10
1.5316e-09
-4.13452e-10
1.68195e-09
-4.92579e-10
1.84993e-09
-5.63244e-10
2.00594e-09
-5.2676e-10
2.14122e-09
-4.43968e-10
2.25711e-09
-3.6355e-10
2.35517e-09
-2.90795e-10
2.43761e-09
-2.2935e-10
2.50716e-09
-1.80953e-10
2.56682e-09
-1.45853e-10
2.61957e-09
-1.23038e-10
2.66812e-09
-1.10571e-10
2.71464e-09
-1.05968e-10
2.76061e-09
-1.06523e-10
2.80683e-09
-1.09583e-10
2.85336e-09
-1.12768e-10
2.8997e-09
-1.14159e-10
2.94486e-09
-1.12395e-10
2.98759e-09
-1.06731e-10
3.02658e-09
-9.70675e-11
3.06062e-09
-8.38589e-11
3.08875e-09
-6.79523e-11
3.11035e-09
-5.04323e-11
3.1252e-09
-3.24891e-11
3.13348e-09
-1.52936e-11
3.13575e-09
1.31773e-13
3.13289e-09
1.30036e-11
3.12601e-09
2.28224e-11
3.11631e-09
2.9385e-11
3.105e-09
3.27539e-11
3.09321e-09
3.32135e-11
3.08192e-09
3.12175e-11
3.07193e-09
2.73247e-11
3.06379e-09
2.21886e-11
3.05792e-09
1.62861e-11
1.03048e-11
3.34079e-09
7.15727e-11
3.45084e-09
2.08829e-10
3.58322e-09
3.16817e-10
3.71147e-09
3.84413e-10
3.82292e-09
4.20301e-10
3.91022e-09
4.31689e-10
3.97183e-09
4.2325e-10
4.00985e-09
3.99638e-10
4.02622e-09
3.68955e-10
4.02403e-09
3.35816e-10
4.00926e-09
3.01641e-10
3.9859e-09
2.68569e-10
3.95696e-09
2.38065e-10
3.92461e-09
2.11777e-10
3.89082e-09
1.89894e-10
3.85707e-09
1.72031e-10
3.82397e-09
1.58334e-10
3.79157e-09
1.48939e-10
3.75972e-09
1.43363e-10
3.72813e-09
1.41092e-10
3.69636e-09
1.41713e-10
3.66391e-09
1.44945e-10
3.63023e-09
1.50566e-10
3.59478e-09
1.58469e-10
3.55698e-09
1.68662e-10
3.51624e-09
1.8126e-10
3.47189e-09
1.96469e-10
3.42324e-09
2.14581e-10
3.36948e-09
2.35972e-10
3.30972e-09
2.61114e-10
3.24299e-09
2.90605e-10
3.16825e-09
3.25177e-10
3.08449e-09
3.6608e-10
2.98853e-09
4.32232e-10
2.89551e-09
3.71942e-10
2.82943e-09
1.60777e-10
2.79844e-09
-3.01793e-11
2.80563e-09
-1.83954e-10
2.85071e-09
-3.24812e-10
2.92913e-09
-4.59068e-10
3.03586e-09
-6.08378e-10
3.15716e-09
-6.56103e-10
3.28769e-09
-6.42997e-10
3.41845e-09
-6.10218e-10
3.54374e-09
-5.59307e-10
3.66233e-09
-5.15232e-10
3.77467e-09
-4.7947e-10
3.8786e-09
-4.24676e-10
3.97485e-09
-3.91054e-10
4.06207e-09
-3.4473e-10
4.14053e-09
-2.93758e-10
4.21054e-09
-2.46925e-10
4.2712e-09
-1.75468e-10
4.32165e-09
-1.19266e-10
4.36196e-09
-3.19587e-11
4.38996e-09
4.49251e-11
4.40557e-09
1.3596e-10
4.40643e-09
2.39734e-10
4.39227e-09
3.16928e-10
4.35928e-09
4.4114e-10
4.30845e-09
5.06383e-10
4.23665e-09
5.89288e-10
4.14465e-09
6.48044e-10
4.03286e-09
6.83084e-10
3.90232e-09
7.17326e-10
3.75735e-09
7.09909e-10
3.59975e-09
7.10406e-10
3.43546e-09
6.75863e-10
3.26723e-09
6.45644e-10
3.09935e-09
6.0093e-10
2.93596e-09
5.49486e-10
2.7775e-09
5.0653e-10
2.62832e-09
4.50709e-10
2.48828e-09
4.029e-10
2.35794e-09
3.57588e-10
2.23853e-09
3.10709e-10
2.12914e-09
2.70285e-10
2.02924e-09
2.34671e-10
1.93849e-09
2.01209e-10
1.85628e-09
1.7212e-10
1.78138e-09
1.48586e-10
1.7131e-09
1.28432e-10
1.65033e-09
1.1272e-10
1.59208e-09
1.00802e-10
1.53768e-09
9.09381e-11
1.48597e-09
8.47862e-11
1.43619e-09
8.05184e-11
1.38877e-09
7.3682e-11
1.34289e-09
6.93194e-11
1.29902e-09
6.3929e-11
1.25825e-09
5.41169e-11
1.22086e-09
4.52579e-11
1.18729e-09
3.56037e-11
1.15943e-09
2.0648e-11
1.13634e-09
1.0782e-11
1.12027e-09
-6.74366e-12
1.1099e-09
-1.76499e-11
1.1073e-09
-3.59223e-11
1.11091e-09
-4.73931e-11
1.12322e-09
-6.82657e-11
1.1424e-09
-8.15937e-11
1.17048e-09
-1.02796e-10
1.20661e-09
-1.21174e-10
1.2512e-09
-1.41152e-10
1.30491e-09
-1.65877e-10
1.36648e-09
-1.85517e-10
1.43676e-09
-2.11988e-10
1.51436e-09
-2.33382e-10
1.59888e-09
-2.5681e-10
1.68961e-09
-2.78694e-10
1.78534e-09
-2.99009e-10
1.88532e-09
-3.17314e-10
1.98851e-09
-3.34963e-10
2.09352e-09
-3.45867e-10
2.20019e-09
-3.61437e-10
2.30674e-09
-3.66776e-10
2.41265e-09
-3.72147e-10
2.51734e-09
-3.76076e-10
2.61973e-09
-3.7336e-10
2.71946e-09
-3.69975e-10
2.81626e-09
-3.65545e-10
2.90938e-09
-3.5571e-10
2.99886e-09
-3.45039e-10
3.08459e-09
-3.34756e-10
3.16646e-09
-3.21421e-10
3.24465e-09
-3.08348e-10
3.3193e-09
-2.95139e-10
3.39072e-09
-2.81827e-10
3.4593e-09
-2.70796e-10
3.52532e-09
-2.61892e-10
3.58913e-09
-2.4912e-10
3.65077e-09
-2.41801e-10
3.71097e-09
-2.39629e-10
3.77018e-09
-2.28102e-10
3.82824e-09
-2.27387e-10
3.88412e-09
-2.27256e-10
3.9383e-09
-2.07787e-10
3.98999e-09
-2.06138e-10
4.03896e-09
-1.86744e-10
4.08326e-09
-1.6535e-10
4.12296e-09
-1.36099e-10
4.1554e-09
-9.12577e-11
4.18077e-09
-3.86378e-11
4.19567e-09
2.52511e-11
4.19975e-09
1.1196e-10
4.19055e-09
1.84074e-10
4.16595e-09
3.03116e-10
4.12386e-09
3.88553e-10
4.06331e-09
4.86731e-10
3.98028e-09
5.8613e-10
3.87687e-09
6.49632e-10
3.74736e-09
7.40093e-10
3.59806e-09
7.67828e-10
3.42434e-09
8.19511e-10
3.2343e-09
8.16019e-10
3.0253e-09
8.28732e-10
2.80663e-09
7.96321e-10
2.58495e-09
7.55663e-10
2.38553e-09
6.47215e-10
2.20738e-09
5.34944e-10
2.11777e-09
1.7241e-10
2.08236e-09
-3.49286e-11
2.09499e-09
-2.09273e-10
2.1487e-09
-3.5634e-10
2.24324e-09
-5.0796e-10
2.36254e-09
-6.11863e-10
2.49813e-09
-6.98812e-10
2.62474e-09
-6.53348e-10
2.73626e-09
-5.55477e-10
2.83457e-09
-4.61845e-10
2.92094e-09
-3.77168e-10
2.99681e-09
-3.05226e-10
3.06381e-09
-2.47958e-10
3.12375e-09
-2.0579e-10
3.1785e-09
-1.77796e-10
3.22988e-09
-1.61953e-10
3.27942e-09
-1.55506e-10
3.32822e-09
-1.55334e-10
3.37691e-09
-1.58274e-10
3.42554e-09
-1.61392e-10
3.47367e-09
-1.62285e-10
3.52044e-09
-1.59172e-10
3.56472e-09
-1.51009e-10
3.60527e-09
-1.3761e-10
3.64093e-09
-1.19517e-10
3.67074e-09
-9.77687e-11
3.69404e-09
-7.37244e-11
3.71047e-09
-4.8923e-11
3.72011e-09
-2.49339e-11
3.72341e-09
-3.16899e-12
3.72116e-09
1.52574e-11
3.71438e-09
2.95992e-11
3.70427e-09
3.95008e-11
3.69205e-09
4.49732e-11
3.67892e-09
4.63423e-11
3.66595e-09
4.41818e-11
3.65405e-09
3.92269e-11
3.64389e-09
3.23494e-11
3.6359e-09
2.42739e-11
1.49094e-11
3.32471e-09
4.68832e-11
3.39255e-09
1.41057e-10
3.48969e-09
2.19743e-10
3.5979e-09
2.7622e-10
3.7061e-09
3.12084e-10
3.80681e-09
3.30942e-10
3.89454e-09
3.35506e-10
3.96572e-09
3.28454e-10
4.02084e-09
3.13827e-10
4.06179e-09
2.94873e-10
4.09026e-09
2.73167e-10
4.10755e-09
2.51274e-10
4.11463e-09
2.30982e-10
4.1141e-09
2.12311e-10
4.10815e-09
1.95851e-10
4.09826e-09
1.81918e-10
4.0854e-09
1.71187e-10
4.0702e-09
1.64143e-10
4.05334e-09
1.60219e-10
4.03511e-09
1.59319e-10
4.01552e-09
1.61307e-10
3.9944e-09
1.66065e-10
3.97149e-09
1.73472e-10
3.94646e-09
1.83496e-10
3.91892e-09
1.96205e-10
3.88841e-09
2.11767e-10
3.85444e-09
2.30438e-10
3.81645e-09
2.52568e-10
3.77384e-09
2.7859e-10
3.72591e-09
3.09035e-10
3.67197e-09
3.44549e-10
3.61127e-09
3.8587e-10
3.5432e-09
4.34152e-10
3.46593e-09
5.09502e-10
3.38768e-09
4.50191e-10
3.3237e-09
2.24754e-10
3.28467e-09
8.84043e-12
3.27777e-09
-1.7707e-10
3.30419e-09
-3.51242e-10
3.3597e-09
-5.14588e-10
3.43922e-09
-6.87894e-10
3.53377e-09
-7.50628e-10
3.64039e-09
-7.49593e-10
3.74908e-09
-7.18874e-10
3.85402e-09
-6.64228e-10
3.9537e-09
-6.14899e-10
4.04792e-09
-5.73683e-10
4.13616e-09
-5.12892e-10
4.21737e-09
-4.72278e-10
4.29132e-09
-4.18679e-10
4.35882e-09
-3.61254e-10
4.41953e-09
-3.0765e-10
4.4745e-09
-2.30464e-10
4.52256e-09
-1.67356e-10
4.5652e-09
-7.46117e-11
4.60075e-09
9.3691e-12
4.63001e-09
1.06689e-10
4.65175e-09
2.17995e-10
4.66467e-09
3.04019e-10
4.668e-09
4.37809e-10
4.65961e-09
5.14785e-10
4.63704e-09
6.11879e-10
4.59955e-09
6.85539e-10
4.54493e-09
7.37696e-10
4.47327e-09
7.88962e-10
4.3846e-09
7.9855e-10
4.28032e-09
8.14651e-10
4.16269e-09
7.93454e-10
4.0343e-09
7.74009e-10
3.89786e-09
7.37348e-10
3.75736e-09
6.89981e-10
3.61403e-09
6.49864e-10
3.47209e-09
5.9266e-10
3.3326e-09
5.42408e-10
3.19703e-09
4.93194e-10
3.06732e-09
4.40452e-10
2.94354e-09
3.94091e-10
2.82609e-09
3.52156e-10
2.71512e-09
3.12196e-10
2.61083e-09
2.76437e-10
2.5126e-09
2.4684e-10
2.4203e-09
2.20746e-10
2.33337e-09
1.99665e-10
2.2512e-09
1.8298e-10
2.17343e-09
1.68713e-10
2.09917e-09
1.59047e-10
2.0277e-09
1.51977e-10
1.95948e-09
1.4189e-10
1.89361e-09
1.35173e-10
1.83063e-09
1.269e-10
1.77148e-09
1.13249e-10
1.71681e-09
9.99177e-11
1.66715e-09
8.52566e-11
1.62488e-09
6.29099e-11
1.58925e-09
4.63974e-11
1.56325e-09
1.92436e-11
1.54527e-09
3.29112e-13
1.53791e-09
-2.85766e-11
1.53932e-09
-4.88088e-11
1.55216e-09
-8.11096e-11
1.57402e-09
-1.03462e-10
1.6069e-09
-1.35685e-10
1.64933e-09
-1.63608e-10
1.70145e-09
-1.93274e-10
1.76341e-09
-2.27841e-10
1.83355e-09
-2.55669e-10
1.91224e-09
-2.90679e-10
1.99779e-09
-3.18943e-10
2.08931e-09
-3.4834e-10
2.18597e-09
-3.75362e-10
2.28615e-09
-3.99205e-10
2.3891e-09
-4.20268e-10
2.4935e-09
-4.39374e-10
2.5981e-09
-4.50482e-10
2.70257e-09
-4.65913e-10
2.80537e-09
-4.69591e-10
2.90602e-09
-4.7281e-10
3.00407e-09
-4.7413e-10
3.09872e-09
-4.68024e-10
3.18974e-09
-4.61004e-10
3.27706e-09
-4.5287e-10
3.36021e-09
-4.38865e-10
3.43941e-09
-4.2424e-10
3.51468e-09
-4.1002e-10
3.58614e-09
-3.92877e-10
3.65409e-09
-3.763e-10
3.71877e-09
-3.59822e-10
3.78058e-09
-3.43633e-10
3.83988e-09
-3.30093e-10
3.89689e-09
-3.18897e-10
3.95219e-09
-3.04409e-10
4.00517e-09
-2.94785e-10
4.05785e-09
-2.92256e-10
4.10877e-09
-2.78984e-10
4.15836e-09
-2.76963e-10
4.20544e-09
-2.74316e-10
4.25236e-09
-2.5469e-10
4.29624e-09
-2.50002e-10
4.33821e-09
-2.28701e-10
4.37639e-09
-2.03518e-10
4.41157e-09
-1.71271e-10
4.44188e-09
-1.21569e-10
4.46815e-09
-6.49246e-11
4.488e-09
5.38915e-12
4.50246e-09
9.74781e-11
4.50863e-09
1.77895e-10
4.50717e-09
3.04555e-10
4.49405e-09
4.01656e-10
4.46979e-09
5.10974e-10
4.42985e-09
6.26058e-10
4.37408e-09
7.05395e-10
4.29742e-09
8.16754e-10
4.20162e-09
8.63614e-10
4.08188e-09
9.39225e-10
3.94145e-09
9.56421e-10
3.77697e-09
9.93184e-10
3.59356e-09
9.79694e-10
3.39847e-09
9.50729e-10
3.21906e-09
8.26614e-10
3.05092e-09
7.03091e-10
2.94852e-09
2.74833e-10
2.89049e-09
2.31411e-11
2.87407e-09
-1.92819e-10
2.89524e-09
-3.77487e-10
2.95465e-09
-5.67339e-10
3.03654e-09
-6.93728e-10
3.13265e-09
-7.94896e-10
3.22312e-09
-7.43789e-10
3.30396e-09
-6.36298e-10
3.37718e-09
-5.35056e-10
3.44393e-09
-4.43914e-10
3.50515e-09
-3.66445e-10
3.56171e-09
-3.04519e-10
3.61449e-09
-2.58572e-10
3.6644e-09
-2.27713e-10
3.71234e-09
-2.09899e-10
3.7591e-09
-2.02267e-10
3.80524e-09
-2.01479e-10
3.85106e-09
-2.04099e-10
3.89645e-09
-2.06782e-10
3.94103e-09
-2.06861e-10
3.98406e-09
-2.02193e-10
4.02451e-09
-1.91458e-10
4.06135e-09
-1.74449e-10
4.09364e-09
-1.51807e-10
4.12059e-09
-1.2472e-10
4.14159e-09
-9.47263e-11
4.15631e-09
-6.36361e-11
4.16474e-09
-3.33695e-11
4.16727e-09
-5.69664e-12
4.16456e-09
1.79675e-11
4.15751e-09
3.66475e-11
4.14718e-09
4.98307e-11
4.1347e-09
5.74536e-11
4.12119e-09
5.98544e-11
4.10767e-09
5.76978e-11
4.09502e-09
5.18698e-11
4.08394e-09