/*--------------------------------*- C++ -*----------------------------------*\
| =========                 |                                                 |
| \\      /  F ield         | OpenFOAM: The Open Source CFD Toolbox           |
|  \\    /   O peration     | Version:  2506                                  |
|   \\  /    A nd           | Website:  www.openfoam.com                      |
|    \\/     M anipulation  |                                                 |
\*---------------------------------------------------------------------------*/
FoamFile
{
    version     2.0;
    format      ascii;
    arch        "LSB;label=32;scalar=64";
    class       volScalarField;
    location    "3.2";
    object      p;
}
// * * * * * * * * * * * * * * * * * * * * * * * * * * * * * * * * * * * * * //

dimensions      [0 2 -2 0 0 0 0];

internalField   nonuniform List<scalar> 
4000
(
-0.00310558
-0.00316546
-0.00319043
-0.00319372
-0.00318955
-0.00318115
-0.00316971
-0.00315645
-0.00314222
-0.00312741
-0.00311224
-0.00309683
-0.00308125
-0.00306556
-0.0030498
-0.00303397
-0.00301811
-0.00300221
-0.00298629
-0.00297033
-0.00295434
-0.00293831
-0.00292225
-0.00290614
-0.00289
-0.00287382
-0.00285763
-0.00284142
-0.00282522
-0.00280907
-0.00279301
-0.00277709
-0.00276141
-0.0027463
-0.0027316
-0.00271744
-0.00270407
-0.00269138
-0.0026793
-0.00266802
-0.00265775
-0.00264992
-0.00264458
-0.00264065
-0.0026379
-0.00263597
-0.0026346
-0.00263385
-0.00263283
-0.00263166
-0.00262998
-0.0026271
-0.00262328
-0.00261726
-0.00260955
-0.00259896
-0.00258572
-0.00256969
-0.00255008
-0.0025283
-0.00250282
-0.0024752
-0.00244534
-0.00241358
-0.0023807
-0.00234657
-0.0023121
-0.00227711
-0.00224224
-0.00220751
-0.00217327
-0.00213963
-0.00210663
-0.00207449
-0.00204325
-0.00201301
-0.00198388
-0.00195588
-0.00192909
-0.00190354
-0.00187922
-0.00185614
-0.00183427
-0.00181356
-0.00179398
-0.00177545
-0.0017579
-0.00174129
-0.00172553
-0.00171056
-0.00169635
-0.00168284
-0.00166997
-0.00165771
-0.00164601
-0.00163484
-0.00162414
-0.00161387
-0.001604
-0.00159447
-0.00158521
-0.00157617
-0.00156727
-0.00155844
-0.00154968
-0.00154092
-0.0015321
-0.00152319
-0.00151414
-0.00150493
-0.00149554
-0.00148598
-0.00147623
-0.00146634
-0.00145629
-0.00144617
-0.00143599
-0.00142579
-0.00141567
-0.00140565
-0.0013958
-0.00138619
-0.00137688
-0.00136788
-0.00135928
-0.00135109
-0.00134333
-0.00133601
-0.00132911
-0.0013226
-0.00131652
-0.0013107
-0.00130508
-0.00129977
-0.0012944
-0.00128888
-0.00128347
-0.00127731
-0.0012708
-0.00126333
-0.00125479
-0.00124484
-0.00123308
-0.00121904
-0.00120291
-0.00118356
-0.00116213
-0.00113722
-0.00110991
-0.00108032
-0.00104847
-0.00101549
-0.000981055
-0.000946341
-0.000911256
-0.000876595
-0.00084238
-0.000809123
-0.000777011
-0.000746689
-0.000719067
-0.0006935
-0.000669211
-0.000646028
-0.000623887
-0.000602655
-0.000582072
-0.000562452
-0.000543871
-0.000526179
-0.00050921
-0.000492739
-0.000476533
-0.000460391
-0.000444157
-0.000427716
-0.000410999
-0.000393983
-0.000376682
-0.000359133
-0.000341392
-0.000323522
-0.00030559
-0.000287656
-0.000269773
-0.000251978
-0.000234296
-0.000216735
-0.000199283
-0.000181928
-0.000164648
-0.000147427
-0.00013024
-0.000113059
-9.58574e-05
-7.86155e-05
-6.13157e-05
-4.39481e-05
-2.651e-05
-8.94239e-06
-0.00317854
-0.00319042
-0.00319611
-0.00319359
-0.00318702
-0.00317826
-0.00316731
-0.00315473
-0.00314109
-0.00312674
-0.0031119
-0.00309675
-0.00308137
-0.00306583
-0.00305019
-0.00303446
-0.00301868
-0.00300285
-0.00298699
-0.00297108
-0.00295514
-0.00293915
-0.00292313
-0.00290705
-0.00289093
-0.00287477
-0.00285858
-0.00284236
-0.00282615
-0.00280995
-0.00279382
-0.00277779
-0.00276193
-0.0027466
-0.00273139
-0.00271634
-0.00270226
-0.00268912
-0.00267688
-0.00266587
-0.00265631
-0.00264939
-0.00264469
-0.00264112
-0.00263856
-0.00263668
-0.00263525
-0.00263425
-0.00263288
-0.00263125
-0.00262901
-0.00262559
-0.00262117
-0.00261459
-0.00260644
-0.00259573
-0.00258264
-0.0025671
-0.00254832
-0.0025277
-0.00250374
-0.00247781
-0.00244982
-0.00241993
-0.00238893
-0.00235658
-0.00232378
-0.00229032
-0.00225682
-0.00222326
-0.00218987
-0.00215693
-0.00212444
-0.00209264
-0.0020616
-0.00203139
-0.00200215
-0.00197393
-0.00194679
-0.0019208
-0.00189598
-0.00187231
-0.0018498
-0.00182843
-0.00180816
-0.00178894
-0.0017707
-0.00175339
-0.00173693
-0.00172127
-0.00170633
-0.0016921
-0.0016785
-0.00166549
-0.00165304
-0.00164108
-0.0016296
-0.00161853
-0.00160782
-0.00159743
-0.00158733
-0.00157746
-0.00156776
-0.0015582
-0.00154868
-0.00153918
-0.00152964
-0.00152004
-0.00151035
-0.00150056
-0.00149065
-0.00148062
-0.00147049
-0.00146028
-0.00144999
-0.00143972
-0.00142945
-0.00141926
-0.00140921
-0.00139934
-0.00138971
-0.00138037
-0.00137137
-0.00136273
-0.0013545
-0.00134669
-0.0013393
-0.00133234
-0.00132576
-0.00131953
-0.00131366
-0.00130799
-0.00130247
-0.00129717
-0.00129172
-0.00128607
-0.00128039
-0.0012739
-0.00126697
-0.00125902
-0.00124992
-0.00123936
-0.00122712
-0.00121275
-0.00119643
-0.00117718
-0.00115613
-0.00113193
-0.00110562
-0.0010773
-0.00104681
-0.00101537
-0.000982402
-0.000949218
-0.000915475
-0.000882105
-0.000848969
-0.00081669
-0.000785345
-0.000755493
-0.000726535
-0.000699721
-0.000673936
-0.000649291
-0.000625732
-0.000603355
-0.000581894
-0.000561893
-0.000543121
-0.000525272
-0.000508196
-0.000491661
-0.000475416
-0.000459252
-0.000443013
-0.000426587
-0.000409907
-0.000392938
-0.000375683
-0.000358171
-0.000340456
-0.000322603
-0.000304681
-0.000286754
-0.000268876
-0.000251086
-0.000233411
-0.000215862
-0.000198442
-0.000181137
-0.000163925
-0.000146775
-0.00012966
-0.000112553
-9.5429e-05
-7.82653e-05
-6.10442e-05
-4.37544e-05
-2.63911e-05
-8.90721e-06
-0.00321204
-0.00320168
-0.00319745
-0.00319264
-0.00318505
-0.00317575
-0.00316477
-0.00315265
-0.00313952
-0.00312559
-0.00311114
-0.00309631
-0.00308119
-0.00306586
-0.00305038
-0.00303479
-0.00301912
-0.00300338
-0.0029876
-0.00297176
-0.00295587
-0.00293994
-0.00292395
-0.00290791
-0.00289182
-0.00287568
-0.0028595
-0.00284328
-0.00282704
-0.00281079
-0.00279458
-0.00277844
-0.00276239
-0.00274682
-0.00273122
-0.00271562
-0.00270118
-0.00268791
-0.00267579
-0.00266519
-0.00265631
-0.00265005
-0.00264562
-0.00264202
-0.00263925
-0.00263705
-0.00263515
-0.00263348
-0.00263136
-0.00262887
-0.00262569
-0.00262136
-0.00261592
-0.00260857
-0.0025998
-0.00258877
-0.00257569
-0.00256056
-0.00254265
-0.00252323
-0.00250088
-0.00247678
-0.00245076
-0.00242284
-0.00239381
-0.00236323
-0.00233209
-0.00230004
-0.00226777
-0.00223525
-0.00220272
-0.00217052
-0.00213855
-0.00210713
-0.00207632
-0.00204618
-0.00201687
-0.00198846
-0.001961
-0.00193458
-0.00190925
-0.00188503
-0.00186195
-0.00183998
-0.0018191
-0.00179927
-0.00178045
-0.00176254
-0.00174553
-0.00172933
-0.00171385
-0.00169907
-0.00168493
-0.00167135
-0.00165833
-0.00164579
-0.00163372
-0.00162203
-0.00161073
-0.00159973
-0.00158901
-0.00157851
-0.00156818
-0.00155799
-0.00154786
-0.00153778
-0.00152769
-0.00151758
-0.00150741
-0.00149718
-0.00148688
-0.00147651
-0.00146609
-0.00145566
-0.00144521
-0.00143483
-0.00142453
-0.00141436
-0.0014044
-0.00139466
-0.0013852
-0.00137608
-0.00136731
-0.00135892
-0.00135094
-0.00134336
-0.00133618
-0.00132938
-0.00132292
-0.00131676
-0.00131088
-0.00130512
-0.00129945
-0.00129387
-0.00128807
-0.00128199
-0.00127575
-0.00126866
-0.001261
-0.0012523
-0.00124244
-0.0012312
-0.00121836
-0.00120357
-0.00118706
-0.00116802
-0.00114745
-0.00112418
-0.00109908
-0.00107224
-0.00104335
-0.00101363
-0.00098223
-0.000950612
-0.000918154
-0.000885995
-0.000853779
-0.000822283
-0.000791382
-0.000761976
-0.000732099
-0.000704505
-0.000677805
-0.000652065
-0.000627366
-0.000604089
-0.000581962
-0.000561687
-0.000542739
-0.000524725
-0.000507544
-0.000490961
-0.000474701
-0.000458541
-0.000442315
-0.000425905
-0.000409236
-0.000392271
-0.00037501
-0.000357488
-0.000339757
-0.000321887
-0.000303947
-0.000286006
-0.00026812
-0.000250331
-0.000232666
-0.000215137
-0.000197744
-0.000180468
-0.000163293
-0.000146191
-0.000129133
-0.000112089
-9.50338e-05
-7.79418e-05
-6.07942e-05
-4.35791e-05
-2.62896e-05
-8.90692e-06
-0.00322708
-0.00321059
-0.00319962
-0.0031925
-0.00318428
-0.00317404
-0.00316262
-0.00315069
-0.00313776
-0.00312408
-0.00311001
-0.00309554
-0.00308072
-0.00306565
-0.00305041
-0.00303502
-0.0030195
-0.0030039
-0.00298823
-0.00297249
-0.00295669
-0.00294083
-0.00292491
-0.00290894
-0.0028929
-0.0028768
-0.00286065
-0.00284445
-0.00282822
-0.00281196
-0.00279571
-0.0027795
-0.00276336
-0.00274761
-0.00273177
-0.00271594
-0.00270136
-0.00268815
-0.00267624
-0.00266599
-0.00265754
-0.00265147
-0.00264687
-0.00264292
-0.00263961
-0.00263673
-0.00263399
-0.00263132
-0.00262812
-0.00262444
-0.00261998
-0.0026143
-0.00260754
-0.00259916
-0.00258947
-0.00257786
-0.00256454
-0.00254957
-0.00253239
-0.00251396
-0.00249317
-0.0024709
-0.00244695
-0.00242123
-0.00239439
-0.00236593
-0.00233677
-0.0023065
-0.00227579
-0.00224463
-0.00221322
-0.00218195
-0.00215071
-0.00211984
-0.00208942
-0.00205951
-0.00203029
-0.00200184
-0.00197423
-0.00194755
-0.00192188
-0.00189724
-0.00187368
-0.00185119
-0.00182977
-0.00180939
-0.00179002
-0.00177157
-0.00175401
-0.00173727
-0.00172126
-0.00170595
-0.00169127
-0.00167714
-0.00166357
-0.00165045
-0.0016378
-0.00162552
-0.00161361
-0.001602
-0.00159068
-0.00157956
-0.00156863
-0.00155784
-0.00154714
-0.00153651
-0.0015259
-0.0015153
-0.00150469
-0.00149406
-0.00148341
-0.00147275
-0.0014621
-0.00145151
-0.00144096
-0.00143054
-0.00142026
-0.00141016
-0.00140032
-0.00139073
-0.00138145
-0.00137252
-0.00136395
-0.00135573
-0.00134791
-0.00134044
-0.00133331
-0.00132651
-0.00131996
-0.00131364
-0.00130749
-0.00130139
-0.00129527
-0.00128908
-0.00128261
-0.00127579
-0.00126871
-0.0012607
-0.00125202
-0.00124234
-0.00123152
-0.00121942
-0.00120584
-0.00119069
-0.00117401
-0.00115527
-0.00113526
-0.00111307
-0.00108934
-0.00106416
-0.00103711
-0.0010093
-0.000979744
-0.000949881
-0.000918932
-0.000888116
-0.00085694
-0.00082629
-0.0007958
-0.000766815
-0.000736301
-0.0007082
-0.000680885
-0.000654344
-0.000628819
-0.000604954
-0.00058244
-0.000562008
-0.000542924
-0.000524754
-0.000507456
-0.000490797
-0.000474481
-0.000458273
-0.000442006
-0.000425558
-0.000408849
-0.000391842
-0.00037454
-0.000356975
-0.000339204
-0.000321296
-0.000303327
-0.000285362
-0.000267461
-0.000249666
-0.000232005
-0.000214488
-0.000197113
-0.000179866
-0.000162726
-0.000145666
-0.000128656
-0.000111668
-9.46714e-05
-7.76432e-05
-6.0563e-05
-4.34192e-05
-2.61976e-05
-8.93025e-06
-0.00323647
-0.00321809
-0.0032036
-0.0031939
-0.00318403
-0.00317281
-0.00316104
-0.003149
-0.00313611
-0.0031226
-0.00310886
-0.00309466
-0.00308008
-0.0030653
-0.00305034
-0.00303517
-0.00301985
-0.00300443
-0.00298891
-0.00297331
-0.00295763
-0.00294188
-0.00292606
-0.00291017
-0.00289422
-0.0028782
-0.00286213
-0.00284599
-0.00282981
-0.0028136
-0.00279738
-0.00278118
-0.00276503
-0.0027492
-0.00273329
-0.00271745
-0.00270289
-0.00268979
-0.00267808
-0.00266804
-0.00265975
-0.00265356
-0.00264854
-0.00264402
-0.00263997
-0.00263617
-0.00263236
-0.00262846
-0.00262399
-0.00261888
-0.00261286
-0.00260563
-0.00259739
-0.00258775
-0.00257682
-0.00256449
-0.00255068
-0.00253556
-0.00251878
-0.00250097
-0.00248144
-0.00246074
-0.00243869
-0.00241513
-0.00239053
-0.0023644
-0.00233746
-0.00230932
-0.00228055
-0.00225112
-0.0022212
-0.0021912
-0.00216098
-0.00213092
-0.00210113
-0.00207166
-0.0020427
-0.00201438
-0.00198674
-0.00195992
-0.001934
-0.00190902
-0.00188504
-0.0018621
-0.00184018
-0.0018193
-0.00179941
-0.00178044
-0.00176238
-0.00174513
-0.00172862
-0.00171281
-0.00169762
-0.00168297
-0.00166887
-0.0016552
-0.00164197
-0.00162911
-0.00161661
-0.00160439
-0.00159246
-0.00158073
-0.00156921
-0.00155783
-0.00154657
-0.00153541
-0.00152429
-0.00151325
-0.00150223
-0.00149125
-0.00148031
-0.00146942
-0.00145861
-0.00144792
-0.00143732
-0.00142692
-0.00141671
-0.00140672
-0.00139701
-0.00138758
-0.00137846
-0.00136968
-0.00136123
-0.0013531
-0.00134531
-0.00133782
-0.00133059
-0.00132359
-0.00131677
-0.00131005
-0.00130341
-0.00129672
-0.00128988
-0.00128283
-0.0012755
-0.00126771
-0.00125942
-0.00125031
-0.00124046
-0.00122966
-0.00121777
-0.00120474
-0.00119043
-0.00117481
-0.00115792
-0.00113944
-0.00111992
-0.00109877
-0.00107637
-0.00105283
-0.00102773
-0.0010019
-0.000974435
-0.000946541
-0.000917431
-0.000888213
-0.000858354
-0.000828745
-0.000798811
-0.000770282
-0.000739451
-0.000711069
-0.000683452
-0.000656466
-0.000630459
-0.000606294
-0.000583612
-0.000563109
-0.000543913
-0.000525577
-0.000508112
-0.000491305
-0.00047485
-0.000458509
-0.000442117
-0.000425553
-0.000408738
-0.000391637
-0.000374251
-0.000356616
-0.000338786
-0.000320834
-0.000302832
-0.000284847
-0.000266934
-0.000249134
-0.000231475
-0.000213965
-0.000196602
-0.000179372
-0.000162252
-0.000145217
-0.000128237
-0.000111285
-9.43322e-05
-7.73548e-05
-6.03322e-05
-4.32537e-05
-2.60943e-05
-8.95255e-06
-0.0032428
-0.00322341
-0.00320726
-0.0031957
-0.00318453
-0.00317252
-0.00316018
-0.00314766
-0.00313474
-0.00312145
-0.00310789
-0.00309388
-0.00307951
-0.003065
-0.00305029
-0.00303534
-0.00302022
-0.003005
-0.00298966
-0.00297421
-0.00295867
-0.00294305
-0.00292736
-0.0029116
-0.00289576
-0.00287986
-0.00286389
-0.00284787
-0.00283179
-0.00281568
-0.00279955
-0.00278344
-0.00276737
-0.00275156
-0.00273571
-0.00272
-0.00270554
-0.00269254
-0.00268096
-0.00267101
-0.00266267
-0.00265615
-0.00265058
-0.00264536
-0.00264044
-0.00263559
-0.00263059
-0.00262531
-0.00261943
-0.00261275
-0.00260511
-0.00259638
-0.00258664
-0.00257568
-0.00256356
-0.00255027
-0.00253582
-0.00252033
-0.00250368
-0.00248611
-0.00246739
-0.00244788
-0.00242732
-0.00240559
-0.00238293
-0.00235899
-0.00233422
-0.0023083
-0.00228162
-0.00225417
-0.00222604
-0.0021976
-0.00216874
-0.00213982
-0.00211095
-0.00208219
-0.00205376
-0.00202577
-0.00199832
-0.00197153
-0.00194551
-0.00192033
-0.00189606
-0.00187275
-0.00185041
-0.00182907
-0.00180871
-0.00178926
-0.00177071
-0.00175299
-0.00173601
-0.00171972
-0.00170405
-0.00168891
-0.00167429
-0.00166009
-0.00164632
-0.00163288
-0.0016198
-0.00160698
-0.00159445
-0.00158213
-0.00157002
-0.00155809
-0.00154628
-0.00153463
-0.00152306
-0.00151161
-0.00150025
-0.00148898
-0.00147782
-0.00146679
-0.00145588
-0.00144515
-0.00143457
-0.00142424
-0.00141412
-0.00140425
-0.00139467
-0.00138536
-0.00137635
-0.00136764
-0.00135923
-0.00135107
-0.00134318
-0.00133551
-0.00132801
-0.00132064
-0.00131334
-0.00130605
-0.00129871
-0.00129124
-0.00128347
-0.0012755
-0.00126711
-0.00125816
-0.00124856
-0.00123827
-0.00122724
-0.00121529
-0.00120236
-0.00118842
-0.00117341
-0.00115733
-0.00114022
-0.00112193
-0.00110282
-0.00108256
-0.00106133
-0.00103925
-0.00101596
-0.000991987
-0.00096661
-0.000940714
-0.000913612
-0.000886158
-0.000857861
-0.000829501
-0.000800356
-0.0007724
-0.000741722
-0.000713304
-0.000685681
-0.000658614
-0.000632471
-0.000608259
-0.000585588
-0.000565076
-0.000545782
-0.000527262
-0.000509575
-0.000492537
-0.000475849
-0.000459279
-0.000442669
-0.000425906
-0.000408914
-0.000391661
-0.000374151
-0.000356417
-0.000338514
-0.000320514
-0.000302483
-0.000284484
-0.000266566
-0.000248766
-0.000231109
-0.000213604
-0.000196244
-0.000179015
-0.000161896
-0.000144864
-0.000127892
-0.000110953
-9.40229e-05
-7.70788e-05
-6.01005e-05
-4.30788e-05
-2.5977e-05
-8.95966e-06
-0.00324703
-0.00322726
-0.00321008
-0.00319733
-0.00318527
-0.00317264
-0.00315983
-0.003147
-0.00313399
-0.00312071
-0.00310715
-0.00309329
-0.00307917
-0.00306487
-0.00305036
-0.00303558
-0.00302064
-0.00300563
-0.00299048
-0.00297519
-0.0029598
-0.00294434
-0.00292879
-0.00291317
-0.00289748
-0.00288172
-0.0028659
-0.00285002
-0.00283409
-0.00281813
-0.00280215
-0.00278619
-0.00277026
-0.00275456
-0.00273886
-0.00272336
-0.00270903
-0.00269612
-0.00268459
-0.00267459
-0.00266606
-0.00265909
-0.00265286
-0.00264685
-0.00264097
-0.002635
-0.00262875
-0.00262207
-0.00261469
-0.00260647
-0.0025973
-0.0025871
-0.00257591
-0.00256364
-0.00255038
-0.00253615
-0.00252102
-0.0025051
-0.00248842
-0.00247084
-0.00245256
-0.00243387
-0.00241439
-0.00239408
-0.00237297
-0.00235084
-0.00232795
-0.00230406
-0.00227941
-0.00225396
-0.00222774
-0.00220105
-0.0021738
-0.00214627
-0.00211861
-0.00209084
-0.00206323
-0.00203586
-0.00200884
-0.00198231
-0.00195641
-0.00193121
-0.0019068
-0.00188325
-0.00186059
-0.00183888
-0.00181811
-0.00179822
-0.00177922
-0.00176105
-0.00174361
-0.00172686
-0.00171074
-0.00169511
-0.00168001
-0.00166529
-0.00165099
-0.00163699
-0.00162335
-0.00160994
-0.00159684
-0.00158393
-0.00157127
-0.00155881
-0.00154651
-0.00153441
-0.00152244
-0.00151066
-0.00149902
-0.00148755
-0.00147624
-0.00146512
-0.00145418
-0.00144347
-0.00143294
-0.00142269
-0.00141267
-0.00140289
-0.00139339
-0.00138415
-0.00137515
-0.00136642
-0.0013579
-0.00134958
-0.00134144
-0.00133342
-0.00132548
-0.00131757
-0.00130964
-0.00130161
-0.00129343
-0.00128501
-0.00127627
-0.00126727
-0.00125767
-0.00124751
-0.00123675
-0.00122531
-0.00121312
-0.0012001
-0.00118622
-0.00117147
-0.00115586
-0.0011394
-0.00112212
-0.00110395
-0.0010852
-0.00106568
-0.00104541
-0.0010246
-0.00100293
-0.000980576
-0.000957093
-0.00093308
-0.000907974
-0.00088232
-0.000855714
-0.000828755
-0.000800635
-0.000773423
-0.000743408
-0.000715207
-0.000687825
-0.000660986
-0.000635011
-0.000610955
-0.000588425
-0.000567931
-0.00054853
-0.0005298
-0.000511831
-0.000494477
-0.000477459
-0.00046056
-0.000443637
-0.00042659
-0.00040935
-0.000391889
-0.000374219
-0.000356362
-0.000338373
-0.000320326
-0.000302277
-0.000284276
-0.000266362
-0.000248568
-0.000230917
-0.000213413
-0.000196047
-0.000178804
-0.000161665
-0.000144612
-0.000127622
-0.000110673
-9.37436e-05
-7.68138e-05
-5.98652e-05
-4.28907e-05
-2.58439e-05
-8.94431e-06
-0.00324982
-0.00322993
-0.00321217
-0.00319868
-0.00318603
-0.00317296
-0.00315981
-0.00314675
-0.00313364
-0.00312033
-0.00310681
-0.00309306
-0.00307909
-0.00306492
-0.00305054
-0.00303596
-0.00302122
-0.00300636
-0.00299136
-0.00297624
-0.00296102
-0.00294571
-0.00293033
-0.00291486
-0.00289933
-0.00288374
-0.00286809
-0.00285238
-0.00283664
-0.00282086
-0.00280508
-0.00278931
-0.00277359
-0.00275805
-0.00274256
-0.00272731
-0.00271313
-0.00270026
-0.00268871
-0.00267857
-0.00266974
-0.00266222
-0.00265526
-0.00264842
-0.00264153
-0.00263441
-0.00262687
-0.0026188
-0.00260995
-0.00260025
-0.00258961
-0.00257801
-0.00256548
-0.00255203
-0.00253771
-0.00252264
-0.00250686
-0.00249047
-0.00247354
-0.00245603
-0.00243817
-0.00241981
-0.00240103
-0.00238186
-0.00236197
-0.00234126
-0.00231984
-0.00229766
-0.00227483
-0.00225125
-0.00222689
-0.00220197
-0.00217642
-0.00215045
-0.00212417
-0.00209764
-0.00207109
-0.0020446
-0.00201829
-0.00199226
-0.0019667
-0.0019417
-0.00191735
-0.00189373
-0.0018709
-0.00184892
-0.00182782
-0.00180756
-0.00178816
-0.00176956
-0.00175168
-0.00173449
-0.00171791
-0.00170182
-0.00168625
-0.00167102
-0.00165622
-0.00164168
-0.00162749
-0.00161352
-0.00159986
-0.00158641
-0.00157323
-0.00156028
-0.00154754
-0.00153506
-0.00152276
-0.00151071
-0.00149887
-0.00148725
-0.00147587
-0.00146471
-0.00145377
-0.00144309
-0.00143262
-0.00142243
-0.00141245
-0.00140271
-0.0013932
-0.00138391
-0.00137481
-0.0013659
-0.00135714
-0.00134849
-0.00133993
-0.00133141
-0.00132288
-0.00131428
-0.00130557
-0.00129668
-0.00128756
-0.00127813
-0.0012684
-0.00125824
-0.0012475
-0.00123621
-0.00122435
-0.00121182
-0.00119861
-0.00118466
-0.00116997
-0.00115456
-0.00113846
-0.0011217
-0.00110431
-0.00108634
-0.00106795
-0.00104897
-0.00102946
-0.00100978
-0.00098954
-0.000968553
-0.000946699
-0.000924408
-0.000901187
-0.000877296
-0.000852418
-0.000826957
-0.000800112
-0.000773774
-0.000744825
-0.000717154
-0.000690198
-0.000663798
-0.000638223
-0.000614455
-0.000592139
-0.000571646
-0.000552101
-0.00053312
-0.000514807
-0.000497049
-0.000479604
-0.00046228
-0.000444954
-0.000427543
-0.000409988
-0.000392267
-0.0003744
-0.000356408
-0.000338333
-0.000320249
-0.000302194
-0.000284205
-0.000266307
-0.000248527
-0.000230887
-0.000213385
-0.000196004
-0.000178729
-0.00016155
-0.000144453
-0.000127421
-0.000110438
-9.34858e-05
-7.65516e-05
-5.96187e-05
-4.26827e-05
-2.56905e-05
-8.90296e-06
-0.00325156
-0.00323167
-0.0032136
-0.00319966
-0.00318669
-0.00317335
-0.00315998
-0.00314678
-0.0031336
-0.00312028
-0.00310679
-0.00309312
-0.00307926
-0.00306519
-0.00305095
-0.00303652
-0.00302193
-0.00300721
-0.00299236
-0.00297739
-0.00296232
-0.00294717
-0.00293194
-0.00291665
-0.00290129
-0.00288587
-0.00287041
-0.00285491
-0.00283937
-0.00282381
-0.00280825
-0.00279272
-0.00277723
-0.0027619
-0.00274665
-0.00273167
-0.00271763
-0.00270478
-0.00269315
-0.0026828
-0.0026736
-0.00266546
-0.00265773
-0.00265001
-0.00264209
-0.00263379
-0.00262497
-0.00261551
-0.00260526
-0.00259414
-0.00258213
-0.00256924
-0.00255549
-0.00254098
-0.00252575
-0.00250993
-0.00249358
-0.00247678
-0.00245965
-0.00244214
-0.00242445
-0.00240643
-0.00238814
-0.00236964
-0.00235071
-0.00233114
-0.00231096
-0.00229024
-0.00226889
-0.00224691
-0.00222424
-0.00220097
-0.00217709
-0.00215273
-0.00212793
-0.00210281
-0.00207747
-0.00205203
-0.00202669
-0.0020014
-0.00197641
-0.00195183
-0.00192775
-0.00190426
-0.00188142
-0.00185933
-0.00183802
-0.00181747
-0.00179773
-0.00177876
-0.00176047
-0.00174285
-0.00172584
-0.00170929
-0.00169326
-0.00167755
-0.00166225
-0.0016472
-0.0016325
-0.001618
-0.00160383
-0.00158989
-0.00157624
-0.00156286
-0.00154974
-0.00153693
-0.00152438
-0.00151212
-0.00150014
-0.00148842
-0.00147698
-0.0014658
-0.00145486
-0.00144419
-0.00143372
-0.00142351
-0.00141349
-0.00140365
-0.00139401
-0.00138451
-0.00137515
-0.00136592
-0.00135675
-0.00134761
-0.00133848
-0.0013293
-0.00132003
-0.00131063
-0.00130105
-0.00129123
-0.00128112
-0.00127069
-0.00125988
-0.00124861
-0.00123682
-0.00122451
-0.00121163
-0.00119816
-0.00118406
-0.00116934
-0.00115401
-0.00113809
-0.00112162
-0.00110466
-0.00108726
-0.00106948
-0.0010514
-0.00103294
-0.00101414
-0.000995335
-0.000976278
-0.000956556
-0.000936211
-0.000915454
-0.000893894
-0.000871658
-0.000848476
-0.000824545
-0.000799203
-0.000773694
-0.000746163
-0.000719328
-0.000692988
-0.000667182
-0.000642158
-0.000618752
-0.000596665
-0.000576127
-0.000556379
-0.000537093
-0.000518367
-0.000500122
-0.000482162
-0.000464329
-0.000446524
-0.00042868
-0.000410751
-0.000392729
-0.000374634
-0.000356505
-0.000338366
-0.000320253
-0.000302215
-0.000284251
-0.000266363
-0.000248597
-0.000230978
-0.000213483
-0.00019608
-0.000178759
-0.000161521
-0.00014436
-0.000127265
-0.000110225
-9.32328e-05
-7.6279e-05
-5.93513e-05
-4.24484e-05
-2.5514e-05
-8.83396e-06
-0.0032524
-0.0032326
-0.00321443
-0.00320027
-0.00318714
-0.0031737
-0.00316026
-0.00314701
-0.00313381
-0.00312052
-0.00310707
-0.00309347
-0.00307968
-0.00306572
-0.00305157
-0.00303726
-0.0030228
-0.00300819
-0.00299347
-0.00297864
-0.00296372
-0.00294871
-0.00293364
-0.00291851
-0.00290332
-0.00288809
-0.00287283
-0.00285753
-0.00284221
-0.00282688
-0.00281158
-0.0027963
-0.00278107
-0.00276598
-0.00275098
-0.00273628
-0.00272238
-0.00270954
-0.00269779
-0.00268717
-0.00267754
-0.00266875
-0.00266022
-0.00265159
-0.00264262
-0.00263314
-0.00262306
-0.00261226
-0.00260065
-0.0025882
-0.00257491
-0.00256084
-0.00254603
-0.00253058
-0.00251457
-0.00249811
-0.00248128
-0.00246415
-0.00244685
-0.00242931
-0.00241173
-0.00239399
-0.00237612
-0.00235808
-0.00233977
-0.00232106
-0.00230198
-0.00228243
-0.00226229
-0.00224167
-0.00222048
-0.0021987
-0.00217637
-0.00215352
-0.00213023
-0.00210655
-0.00208251
-0.00205829
-0.00203402
-0.00200972
-0.00198553
-0.00196157
-0.00193796
-0.0019148
-0.00189215
-0.00187011
-0.00184875
-0.00182804
-0.00180806
-0.00178878
-0.00177015
-0.00175214
-0.00173472
-0.00171775
-0.00170128
-0.00168512
-0.00166936
-0.00165384
-0.00163867
-0.0016237
-0.00160908
-0.0015947
-0.00158065
-0.00156691
-0.00155348
-0.00154041
-0.00152764
-0.00151522
-0.00150311
-0.0014913
-0.00147979
-0.00146854
-0.00145754
-0.00144679
-0.00143622
-0.00142586
-0.00141565
-0.00140557
-0.00139561
-0.00138575
-0.00137597
-0.00136623
-0.00135648
-0.0013467
-0.00133686
-0.0013269
-0.0013168
-0.00130652
-0.001296
-0.00128522
-0.00127413
-0.00126269
-0.00125086
-0.00123858
-0.00122583
-0.0012126
-0.00119884
-0.00118457
-0.00116976
-0.00115443
-0.0011386
-0.0011223
-0.00110561
-0.00108855
-0.00107119
-0.00105361
-0.00103584
-0.00101792
-0.000999853
-0.000981738
-0.000963513
-0.000944868
-0.000925961
-0.000906588
-0.000886506
-0.000865826
-0.000844271
-0.000821858
-0.000798114
-0.000773615
-0.00074762
-0.000721781
-0.000696234
-0.000671149
-0.000646763
-0.000623744
-0.00060186
-0.000581212
-0.000561191
-0.000541537
-0.000522332
-0.000503527
-0.000484976
-0.000466566
-0.000448234
-0.000429916
-0.000411559
-0.000393199
-0.000374878
-0.000356607
-0.00033838
-0.000320232
-0.000302267
-0.000284394
-0.00026651
-0.000248724
-0.000231123
-0.000213646
-0.000196214
-0.00017883
-0.000161519
-0.000144282
-0.000127112
-0.000110005
-9.2961e-05
-7.598e-05
-5.90539e-05
-4.2185e-05
-2.53221e-05
-8.74093e-06
-0.00325247
-0.00323274
-0.00321462
-0.00320049
-0.00318739
-0.00317399
-0.00316059
-0.00314739
-0.00313424
-0.003121
-0.00310762
-0.00309408
-0.00308037
-0.00306648
-0.00305242
-0.0030382
-0.00302383
-0.00300933
-0.00299471
-0.00298
-0.00296521
-0.00295034
-0.00293541
-0.00292043
-0.00290542
-0.00289037
-0.0028753
-0.00286022
-0.00284512
-0.00283003
-0.00281499
-0.00279997
-0.00278502
-0.00277018
-0.00275546
-0.00274102
-0.00272727
-0.00271442
-0.00270253
-0.00269161
-0.00268152
-0.00267206
-0.00266272
-0.00265316
-0.00264312
-0.00263247
-0.00262114
-0.00260904
-0.00259615
-0.00258245
-0.002568
-0.00255286
-0.00253711
-0.00252088
-0.0025042
-0.00248723
-0.00247002
-0.00245263
-0.0024352
-0.00241763
-0.00240015
-0.00238259
-0.00236502
-0.00234738
-0.00232959
-0.0023116
-0.0022933
-0.00227464
-0.00225557
-0.00223612
-0.00221617
-0.00219569
-0.00217474
-0.0021533
-0.00213141
-0.0021091
-0.00208643
-0.00206349
-0.00204031
-0.00201714
-0.00199394
-0.0019708
-0.00194786
-0.00192522
-0.00190295
-0.00188115
-0.00185989
-0.00183919
-0.0018191
-0.00179963
-0.00178075
-0.00176243
-0.00174467
-0.00172733
-0.00171047
-0.00169391
-0.00167774
-0.00166182
-0.00164624
-0.00163088
-0.00161589
-0.00160115
-0.00158678
-0.00157274
-0.00155905
-0.00154575
-0.0015328
-0.00152021
-0.00150796
-0.001496
-0.00148434
-0.00147292
-0.00146173
-0.00145075
-0.00143994
-0.00142927
-0.0014187
-0.00140819
-0.00139771
-0.00138732
-0.00137696
-0.00136657
-0.0013561
-0.00134554
-0.00133488
-0.00132407
-0.00131308
-0.00130187
-0.00129041
-0.00127868
-0.00126663
-0.00125424
-0.00124148
-0.0012283
-0.00121471
-0.00120068
-0.0011862
-0.00117127
-0.0011559
-0.0011401
-0.00112392
-0.00110738
-0.00109055
-0.00107348
-0.00105622
-0.00103887
-0.00102141
-0.00100396
-0.000986497
-0.000969025
-0.000951598
-0.000933951
-0.000916157
-0.000897935
-0.000879319
-0.000860116
-0.000840083
-0.000819171
-0.000797038
-0.000773844
-0.000749336
-0.000724574
-0.000699928
-0.000675632
-0.000651916
-0.000629266
-0.000607534
-0.000586707
-0.000566339
-0.000546252
-0.000526506
-0.000507076
-0.000487861
-0.000468805
-0.000449936
-0.000431173
-0.000412366
-0.000393625
-0.000375078
-0.000356689
-0.000338405
-0.000320238
-0.000302245
-0.000284369
-0.000266558
-0.00024884
-0.000231267
-0.000213803
-0.000196335
-0.000178869
-0.000161475
-0.000144157
-0.000126909
-0.000109734
-9.26381e-05
-7.56348e-05
-5.87137e-05
-4.18863e-05
-2.5133e-05
-8.65206e-06
-0.00325179
-0.00323209
-0.00321416
-0.00320031
-0.00318743
-0.00317421
-0.00316098
-0.00314792
-0.00313489
-0.00312175
-0.00310845
-0.00309498
-0.00308133
-0.0030675
-0.0030535
-0.00303934
-0.00302504
-0.00301061
-0.00299609
-0.00298147
-0.00296679
-0.00295204
-0.00293724
-0.00292241
-0.00290755
-0.00289268
-0.0028778
-0.00286292
-0.00284805
-0.00283321
-0.00281841
-0.00280366
-0.00278898
-0.00277441
-0.00275997
-0.00274581
-0.00273221
-0.00271935
-0.00270732
-0.00269608
-0.00268552
-0.00267537
-0.00266522
-0.00265472
-0.00264361
-0.00263179
-0.00261923
-0.00260588
-0.00259177
-0.00257692
-0.00256141
-0.00254535
-0.00252879
-0.0025119
-0.0024947
-0.00247732
-0.00245983
-0.00244226
-0.00242475
-0.00240718
-0.00238979
-0.00237239
-0.00235506
-0.00233774
-0.00232037
-0.00230291
-0.00228524
-0.00226735
-0.00224915
-0.00223063
-0.00221172
-0.00219239
-0.00217264
-0.00215246
-0.00213185
-0.00211084
-0.00208946
-0.00206779
-0.0020458
-0.00202372
-0.00200157
-0.0019794
-0.00195729
-0.00193533
-0.0019136
-0.00189222
-0.00187125
-0.00185071
-0.00183067
-0.00181115
-0.00179215
-0.00177364
-0.00175563
-0.00173802
-0.00172085
-0.00170397
-0.00168748
-0.00167124
-0.00165535
-0.00163969
-0.00162439
-0.00160938
-0.00159474
-0.00158046
-0.00156654
-0.00155303
-0.00153987
-0.00152707
-0.0015146
-0.00150241
-0.00149048
-0.00147875
-0.00146719
-0.0014558
-0.00144452
-0.00143333
-0.00142217
-0.00141103
-0.00139989
-0.00138883
-0.00137777
-0.00136659
-0.00135531
-0.00134393
-0.0013324
-0.00132069
-0.00130879
-0.00129666
-0.0012843
-0.00127167
-0.00125873
-0.00124548
-0.00123191
-0.00121795
-0.00120364
-0.00118896
-0.00117388
-0.00115845
-0.00114266
-0.00112653
-0.00111012
-0.00109343
-0.00107656
-0.00105954
-0.00104244
-0.00102532
-0.00100819
-0.000991157
-0.000974224
-0.000957338
-0.000940619
-0.000923792
-0.000906976
-0.000889885
-0.000872546
-0.000854653
-0.000836053
-0.000816717
-0.000796186
-0.000774287
-0.000751288
-0.000727683
-0.000704002
-0.00068052
-0.000657464
-0.000635138
-0.000613478
-0.000592401
-0.000571618
-0.000551031
-0.000530688
-0.000510595
-0.000490722
-0.000471024
-0.000451509
-0.000432176
-0.00041298
-0.000393969
-0.000375198
-0.00035669
-0.000338336
-0.000320118
-0.000302126
-0.000284285
-0.000266538
-0.000248875
-0.000231298
-0.000213777
-0.000196268
-0.000178775
-0.000161331
-0.000143946
-0.000126632
-0.000109399
-9.22541e-05
-7.52384e-05
-5.83271e-05