/*--------------------------------*- C++ -*----------------------------------*\
| =========                 |                                                 |
| \\      /  F ield         | OpenFOAM: The Open Source CFD Toolbox           |
|  \\    /   O peration     | Version:  2506                                  |
|   \\  /    A nd           | Website:  www.openfoam.com                      |
|    \\/     M anipulation  |                                                 |
\*---------------------------------------------------------------------------*/
FoamFile
{
    version     2.0;
    format      ascii;
    arch        "LSB;label=32;scalar=64";
    class       volVectorField;
    location    "0.4";
    object      U;
}
// * * * * * * * * * * * * * * * * * * * * * * * * * * * * * * * * * * * * * //

dimensions      [0 1 -1 0 0 0 0];

internalField   nonuniform List<vector> 
4000
(
(0.00262441 0.000337861 0)
(0.00240503 0.000329138 -3.86179e-21)
(0.00183812 0.000177626 3.92114e-21)
(0.00135911 0.000101125 7.83103e-21)
(0.00103855 6.5747e-05 -1.57409e-20)
(0.000804006 4.54147e-05 7.89422e-21)
(0.000623623 3.35234e-05 0)
(0.000481619 2.65712e-05 0)
(0.000367175 2.23023e-05 0)
(0.000273294 1.94991e-05 1.55917e-20)
(0.000195634 1.75552e-05 -1.56194e-20)
(0.00013121 1.61504e-05 3.09791e-20)
(7.7888e-05 1.5151e-05 -3.10167e-20)
(3.40131e-05 1.44713e-05 0)
(-1.79279e-06 1.40486e-05 0)
(-3.07412e-05 1.38409e-05 0)
(-5.39187e-05 1.38266e-05 3.02878e-20)
(-7.23705e-05 1.39742e-05 -3.02758e-20)
(-8.70919e-05 1.41967e-05 0)
(-9.90429e-05 1.44371e-05 0)
(-0.000109101 1.47079e-05 0)
(-0.000118085 1.50225e-05 0)
(-0.000126651 1.54952e-05 0)
(-0.000135255 1.61362e-05 5.841e-20)
(-0.000144331 1.68733e-05 -1.16504e-19)
(-0.000154274 1.76798e-05 5.80927e-20)
(-0.000165375 1.85492e-05 0)
(-0.000177833 1.94722e-05 0)
(-0.000191748 2.03878e-05 0)
(-0.000207066 2.11607e-05 0)
(-0.000223315 2.15275e-05 -5.63542e-20)
(-0.000239149 2.12969e-05 5.63336e-20)
(-0.000251542 1.97032e-05 0)
(-0.000247798 1.35805e-05 4.86519e-20)
(-0.000222745 -6.74209e-06 5.52247e-20)
(-0.000189121 -3.72941e-05 -2.77432e-19)
(-0.000147957 -6.34875e-05 -2.2252e-19)
(-9.08015e-05 -7.63999e-05 5.61162e-20)
(-1.71343e-05 -7.22208e-05 -2.25345e-19)
(7.01759e-05 -4.89884e-05 -5.08751e-19)
(0.000171769 -6.62791e-06 5.67613e-20)
(0.00029162 5.48722e-05 4.52221e-19)
(0.000420718 0.000126952 -4.50879e-19)
(0.00054537 0.000197559 0)
(0.00066042 0.00026006 0)
(0.000762592 0.00031144 -2.77616e-20)
(0.000854319 0.000349992 -4.15377e-19)
(0.000933473 0.000373982 -4.14306e-19)
(0.000997244 0.000385208 -2.47678e-19)
(0.00105061 0.000384959 -2.18515e-19)
(0.00108979 0.000373021 2.16899e-19)
(0.00111653 0.000351344 0)
(0.00112909 0.000319677 -2.66277e-20)
(0.00112561 0.000280518 4.51654e-19)
(0.00110587 0.000235472 0)
(0.0010669 0.000189261 -1.04392e-19)
(0.00101365 0.000144241 -2.56772e-20)
(0.00094272 0.000102582 -5.31788e-24)
(0.000861082 6.77654e-05 -3.29245e-22)
(0.00076643 4.14115e-05 -1.281e-20)
(0.000664105 2.62474e-05 2.45056e-20)
(0.000560132 2.27991e-05 0)
(0.000455214 2.95332e-05 0)
(0.000353814 4.61249e-05 4.69185e-20)
(0.000256654 7.14814e-05 3.2543e-19)
(0.000167172 0.00010352 4.54609e-20)
(8.39145e-05 0.000140526 -4.56985e-20)
(8.57774e-06 0.000179773 4.40169e-20)
(-6.07841e-05 0.000220761 1.30291e-19)
(-0.00012278 0.000261162 -2.9941e-19)
(-0.000179776 0.000301092 -4.22296e-20)
(-0.000230768 0.000338989 9.17794e-22)
(-0.000276089 0.000374041 0)
(-0.000317578 0.000406562 0)
(-0.000353052 0.000434938 0)
(-0.000383942 0.00045926 -1.9329e-20)
(-0.000410817 0.00047968 -2.87054e-19)
(-0.000432456 0.000495398 0)
(-0.000449862 0.000506572 7.59134e-22)
(-0.000463992 0.000513678 1.83311e-20)
(-0.000474396 0.0005166 -2.90836e-19)
(-0.00048157 0.000515504 2.6084e-19)
(-0.000486174 0.000510733 5.98672e-23)
(-0.000488605 0.000502664 2.84611e-19)
(-0.000489921 0.000491728 1.60413e-21)
(-0.00048994 0.000478151 -2.7127e-19)
(-0.000488184 0.000461629 -2.72188e-19)
(-0.000486263 0.000443213 2.73436e-19)
(-0.000484046 0.000423202 -4.12662e-21)
(-0.000480097 0.000400841 -2.60057e-19)
(-0.00047651 0.000377038 0)
(-0.000472648 0.000352087 -2.61206e-19)
(-0.000467186 0.000325144 -2.42166e-19)
(-0.000462158 0.000297049 2.46735e-19)
(-0.000455235 0.000267494 -1.37018e-19)
(-0.000447756 0.000236607 1.50388e-20)
(-0.000437631 0.000204963 1.18648e-19)
(-0.0004253 0.000171867 1.45995e-20)
(-0.000409628 0.000138401 1.01298e-19)
(-0.00039178 0.000104849 7.15341e-20)
(-0.000370564 7.23361e-05 -2.83623e-20)
(-0.000345687 4.12405e-05 7.03858e-20)
(-0.000317599 1.35113e-05 -7.0099e-21)
(-0.000285031 -1.05061e-05 -6.98237e-21)
(-0.000249088 -3.08643e-05 -2.78247e-20)
(-0.000209864 -4.68072e-05 0)
(-0.000168015 -5.88517e-05 0)
(-0.000124805 -6.60354e-05 -2.1998e-19)
(-8.02492e-05 -6.86999e-05 -7.01251e-21)
(-3.54858e-05 -6.70425e-05 1.16221e-19)
(8.97652e-06 -6.14342e-05 1.12988e-19)
(5.25067e-05 -5.22881e-05 3.53516e-21)
(9.4847e-05 -4.02103e-05 -1.17276e-19)
(0.000135439 -2.57019e-05 -2.07339e-22)
(0.00017431 -9.38816e-06 0)
(0.000211558 8.03949e-06 2.28296e-19)
(0.000246923 2.61866e-05 -7.11017e-21)
(0.0002811 4.41586e-05 -2.13352e-19)
(0.000313679 6.15341e-05 -7.14751e-21)
(0.000344234 7.84997e-05 -2.27402e-19)
(0.000373536 9.50539e-05 -7.23136e-22)
(0.000401931 0.00011099 2.2593e-19)
(0.000429226 0.000126245 1.39906e-20)
(0.000455853 0.000140881 -2.51771e-19)
(0.000482369 0.000154783 1.39767e-20)
(0.000508575 0.000167935 2.21036e-19)
(0.000534856 0.000180313 2.72663e-20)
(0.000561402 0.000191803 -2.73762e-20)
(0.000588198 0.000202395 2.1583e-19)
(0.000615779 0.000212059 -1.86301e-19)
(0.000644432 0.00022033 -2.66538e-20)
(0.000672859 0.000227263 -3.91994e-19)
(0.000702653 0.000232835 -2.60989e-20)
(0.00073402 0.000236151 -2.04726e-19)
(0.00076435 0.000237245 1.04761e-21)
(0.000796046 0.000236001 0)
(0.000828554 0.000230733 0)
(0.00085732 0.000222156 -5.07292e-22)
(0.000886013 0.000208817 0)
(0.000908945 0.000190723 -2.3175e-20)
(0.000926348 0.000167596 -6.83708e-20)
(0.00093494 0.000139541 -2.22998e-20)
(0.000931725 0.000107213 -4.38787e-20)
(0.000915213 7.18735e-05 -2.19471e-20)
(0.00088146 3.45804e-05 -6.3071e-20)
(0.000829265 -1.07408e-07 2.07982e-20)
(0.000758475 -2.9278e-05 0)
(0.00066918 -4.81092e-05 0)
(0.00056885 -5.57306e-05 0)
(0.00045818 -5.08049e-05 -1.80074e-20)
(0.000342842 -3.37321e-05 1.80308e-20)
(0.000225398 -3.9156e-06 6.8542e-20)
(0.000109581 3.61644e-05 6.62159e-20)
(-3.47937e-06 8.68118e-05 0)
(-0.000113486 0.00014409 -6.1429e-20)
(-0.000221264 0.000208738 0)
(-0.000327542 0.000276417 -1.37676e-20)
(-0.000429979 0.000344271 6.86683e-20)
(-0.000510292 0.000392351 -1.30545e-20)
(-0.000544015 0.000388927 2.18658e-19)
(-0.000601296 0.000350235 -4.97272e-20)
(-0.000691316 0.000320681 -4.84326e-20)
(-0.00074404 0.000273933 0)
(-0.000765049 0.000211329 0)
(-0.000761744 0.000138741 0)
(-0.000738106 6.7683e-05 0)
(-0.000699357 8.69879e-06 0)
(-0.000629176 -2.26413e-05 1.01842e-20)
(-0.000508518 -3.5362e-05 -2.68492e-22)
(-0.000364189 -4.08519e-05 -2.84625e-22)
(-0.00022079 -4.20753e-05 -9.75031e-21)
(-9.13997e-05 -4.03915e-05 0)
(1.65279e-05 -3.70355e-05 8.82923e-21)
(9.97889e-05 -3.29714e-05 -8.81164e-21)
(0.000158278 -2.88094e-05 2.58868e-22)
(0.000193746 -2.46427e-05 0)
(0.000209956 -2.04358e-05 0)
(0.000210252 -1.72381e-05 -7.0805e-21)
(0.000197728 -1.43442e-05 7.07237e-21)
(0.000176342 -1.18475e-05 0)
(0.00014917 -9.8353e-06 0)
(0.000118699 -8.27604e-06 -2.67408e-21)
(8.69911e-05 -7.09744e-06 1.64998e-22)
(5.56344e-05 -6.22199e-06 2.68884e-21)
(2.57845e-05 -5.57963e-06 0)
(-1.81449e-06 -5.10691e-06 0)
(-2.67161e-05 -4.74664e-06 0)
(-4.87556e-05 -4.44706e-06 0)
(-6.79957e-05 -4.16566e-06 1.1158e-22)
(-8.46394e-05 -3.87261e-06 0)
(-9.89906e-05 -3.54692e-06 0)
(-0.000111412 -3.17327e-06 0)
(-0.000122296 -2.74329e-06 5.3774e-22)
(-0.000132047 -2.25174e-06 -5.36879e-22)
(-0.000141082 -1.68753e-06 0)
(-0.000149828 -1.02789e-06 4.28375e-23)
(-0.000158761 -2.5079e-07 1.13938e-22)
(-0.00016897 7.3117e-07 -7.59404e-23)
(-0.000183258 2.58654e-06 -3.77418e-23)
(-0.000200572 6.09551e-06 0)
(0.00342543 0.000724191 0)
(0.00359263 0.000965985 0)
(0.00319819 0.000808104 0)
(0.00265931 0.000626175 8.28214e-21)
(0.00216811 0.000481732 -1.674e-20)
(0.00173773 0.000373934 8.44599e-21)
(0.00136924 0.000295129 0)
(0.00105772 0.000237298 1.69462e-20)
(0.000795393 0.000193766 -1.70662e-20)
(0.000574032 0.000159823 1.69988e-20)
(0.000387908 0.000132427 -1.70841e-20)
(0.000231685 0.0001097 -3.39769e-20)
(0.000101357 9.05131e-05 3.40975e-20)
(-6.3631e-06 7.42015e-05 3.38267e-20)
(-9.44664e-05 6.03884e-05 -1.65216e-22)
(-0.000165809 4.88435e-05 -6.70266e-20)
(-0.000223167 3.94023e-05 3.33933e-20)
(-0.000269105 3.18975e-05 0)
(-0.000306034 2.61088e-05 0)
(-0.000336178 2.18236e-05 0)
(-0.000361572 1.88942e-05 0)
(-0.000383969 1.7172e-05 0)
(-0.000404914 1.65712e-05 0)
(-0.00042575 1.69195e-05 0)
(-0.00044749 1.79846e-05 0)
(-0.000470871 1.95678e-05 0)
(-0.0004964 2.14775e-05 0)
(-0.000524364 2.3496e-05 0)
(-0.00055478 2.53051e-05 0)
(-0.000587268 2.63725e-05 0)
(-0.000620439 2.56802e-05 -6.14949e-20)
(-0.000652041 2.06596e-05 2.7522e-22)
(-0.00067788 6.94854e-06 1.2203e-19)
(-0.000689974 -2.19479e-05 -5.32907e-20)
(-0.000676177 -8.25061e-05 -6.03487e-20)
(-0.000619152 -0.000165967 1.81366e-19)
(-0.000514509 -0.000236365 -2.43386e-19)
(-0.00036837 -0.000270085 -6.14675e-20)
(-0.000187946 -0.000256028 6.24886e-19)
(1.91328e-05 -0.000188617 1.90448e-19)
(0.000253858 -6.77608e-05 0)
(0.000509105 9.59151e-05 6.36127e-20)
(0.000763306 0.000274719 3.80992e-19)
(0.00100065 0.000444539 6.36143e-20)
(0.0012157 0.000593141 5.05016e-19)
(0.00140486 0.000714072 -5.03399e-19)
(0.00157121 0.000804841 1.47035e-21)
(0.0017126 0.000863892 0)
(0.00182775 0.000893388 -2.49696e-19)
(0.00192032 0.000894786 0)
(0.00198469 0.000868925 -6.06444e-22)
(0.00202237 0.000820061 0)
(0.00202868 0.000749768 -2.44134e-19)
(0.00200233 0.000662955 -2.43017e-19)
(0.0019419 0.000563735 0)
(0.00184334 0.000459267 8.53158e-23)
(0.00171056 0.000355561 1.18783e-19)
(0.00153912 0.000258463 2.92671e-20)
(0.00134025 0.000174746 5.8081e-20)
(0.00111225 0.000111172 -1.4649e-20)
(0.000864407 7.07401e-05 0)
(0.000608597 5.82185e-05 1.13837e-19)
(0.000348946 7.18369e-05 -5.67694e-20)
(9.57698e-05 0.00011036 -1.1131e-19)
(-0.000147034 0.000172392 -3.28468e-19)
(-0.000374253 0.000251889 -5.39117e-20)
(-0.000583788 0.000347057 2.61563e-19)
(-0.000775258 0.000449918 -5.16455e-20)
(-0.000947319 0.000558517 0)
(-0.00110075 0.000667445 4.89623e-20)
(-0.0012368 0.000774878 -4.84736e-20)
(-0.00135533 0.000877859 1.94679e-21)
(-0.00145786 0.000973117 0)
(-0.00154571 0.00105997 -3.64249e-19)
(-0.0016182 0.00113564 -3.57431e-19)
(-0.00167687 0.00119921 2.17803e-20)
(-0.00172255 0.00125029 -2.15819e-20)
(-0.00175481 0.00128813 2.10301e-20)
(-0.00177497 0.00131265 -3.31432e-19)
(-0.00178444 0.00132429 3.06817e-19)
(-0.00178364 0.00132342 -3.21996e-19)
(-0.00177349 0.00131081 -3.25315e-19)
(-0.00175481 0.00128739 1.94546e-20)
(-0.00172878 0.00125436 -3.16611e-19)
(-0.00169703 0.00121321 2.98692e-19)
(-0.00165976 0.00116496 -2.95265e-19)
(-0.00161685 0.00110995 2.93023e-19)
(-0.00157044 0.00104911 -2.87434e-19)
(-0.00152102 0.000983452 -8.83651e-21)
(-0.00146795 0.000913164 8.75089e-21)
(-0.00141304 0.000838657 0)
(-0.00135573 0.000762158 0)
(-0.00129583 0.000683445 1.33431e-19)
(-0.00123466 0.000602777 -1.47385e-19)
(-0.00117047 0.000521035 1.29215e-19)
(-0.00110419 0.000438453 3.18293e-20)
(-0.00103423 0.000356802 1.29488e-22)
(-0.00096226 0.000275903 -6.95578e-23)
(-0.00088596 0.000197998 -2.75359e-19)
(-0.000806711 0.000123467 -4.53137e-20)
(-0.000723031 5.57336e-05 5.99791e-20)
(-0.000636596 -4.41857e-06 -5.9517e-20)
(-0.000547498 -5.43518e-05 0)
(-0.000457473 -9.30581e-05 -7.36552e-21)
(-0.000366996 -0.000120664 7.3958e-21)
(-0.000277639 -0.000136041 0)
(-0.000190206 -0.000140788 0)
(-0.000105621 -0.000134384 1.19376e-19)
(-2.53196e-05 -0.000118496 -1.19905e-19)
(5.04332e-05 -9.41411e-05 1.24222e-19)
(0.000120908 -6.29191e-05 -2.42149e-19)
(0.000185874 -2.63028e-05 -2.14983e-23)
(0.00024569 1.42221e-05 -3.82709e-21)
(0.000299952 5.71754e-05 -1.228e-19)
(0.00034966 0.000101427 0)
(0.000395648 0.00014603 0)
(0.000437153 0.000189796 0)
(0.000476083 0.000232217 2.56883e-19)
(0.000513082 0.000272862 2.40473e-19)
(0.000548291 0.000311792 0)
(0.000582968 0.000349234 -2.81175e-19)
(0.000617498 0.000385016 4.68024e-20)
(0.000651865 0.000419095 -3.11201e-20)
(0.000687027 0.000451768 1.56133e-20)
(0.000723652 0.000483023 -3.08175e-20)
(0.000761697 0.000512821 2.4656e-19)
(0.000801722 0.000541129 -2.1422e-19)
(0.000843916 0.000567825 2.7432e-19)
(0.000888446 0.000592851 -4.03407e-22)
(0.000936009 0.000616039 2.1257e-19)
(0.000986342 0.000636566 0)
(0.00103835 0.000654189 2.39308e-19)
(0.00109384 0.000668603 -2.92553e-20)
(0.0011517 0.00067836 -2.03149e-19)
(0.00120927 0.000682913 2.32341e-19)
(0.0012688 0.00068164 -2.82822e-20)
(0.00132683 0.000672139 2.84677e-20)
(0.0013792 0.000654111 -2.86056e-20)
(0.00142691 0.000625691 2.76945e-20)
(0.00146237 0.000587099 -2.66477e-20)
(0.00148342 0.000538257 1.33338e-19)
(0.00148399 0.000479749 -1.29278e-19)
(0.0014582 0.000413155 1.28167e-19)
(0.00140216 0.000341569 0)
(0.00130881 0.000268689 2.4573e-20)
(0.00117942 0.000201179 -2.35724e-20)
(0.00101048 0.00014609 -1.15744e-20)
(0.000803633 0.000109284 0)
(0.000568944 9.61887e-05 -2.19798e-20)
(0.000309635 0.000110097 4.27785e-20)
(3.7534e-05 0.000150777 0)
(-0.000240743 0.000221514 -7.99777e-20)
(-0.000516641 0.000315252 -1.88451e-20)
(-0.000782397 0.000435452 1.86847e-20)
(-0.00103686 0.000571523 0)
(-0.0012753 0.000724369 6.77028e-20)
(-0.00149857 0.000881075 -6.44491e-20)
(-0.00170209 0.00103218 6.23218e-20)
(-0.00187014 0.00114024 0)
(-0.00198238 0.00115844 -1.14934e-19)
(-0.00212009 0.00106714 -6.88038e-20)
(-0.00226125 0.000943219 1.19702e-19)
(-0.00234353 0.000764711 -1.27121e-20)
(-0.00235161 0.000550859 1.2607e-20)
(-0.00229001 0.000318943 1.19761e-20)
(-0.00216074 0.000102124 1.15222e-20)
(-0.00196127 -7.44698e-05 -1.02328e-20)
(-0.00168366 -0.000179264 -7.04927e-22)
(-0.00135371 -0.000227531 0)
(-0.00101007 -0.000238451 6.74347e-22)
(-0.000685041 -0.00022372 0)
(-0.000398857 -0.000193237 -6.40385e-22)
(-0.00016298 -0.000154856 -9.77559e-21)
(1.82915e-05 -0.000114389 1.03876e-20)
(0.000145374 -7.58371e-05 -8.63786e-22)
(0.000223596 -4.14035e-05 8.63505e-21)
(0.000259374 -1.20333e-05 -1.6338e-20)
(0.00026071 1.09927e-05 1.6086e-20)
(0.000235181 2.84971e-05 -8.31965e-21)
(0.000189783 4.08056e-05 0)
(0.000131292 4.8482e-05 3.78589e-21)
(6.55147e-05 5.22373e-05 -3.55808e-21)
(-2.86193e-06 5.28655e-05 -3.83703e-22)
(-7.0179e-05 5.11504e-05 -2.79381e-21)
(-0.000133834 4.78131e-05 2.44855e-21)
(-0.000192171 4.34792e-05 2.41957e-21)
(-0.00024431 3.86682e-05 -2.7026e-21)
(-0.000289991 3.37974e-05 2.32257e-21)
(-0.000329405 2.91824e-05 -4.0488e-21)
(-0.000363088 2.50357e-05 2.49822e-21)
(-0.000391786 2.14924e-05 -8.47481e-22)
(-0.000416367 1.86289e-05 -1.79072e-22)
(-0.000437746 1.64765e-05 0)
(-0.000456844 1.50461e-05 3.66839e-22)
(-0.000474577 1.43723e-05 -5.01734e-22)
(-0.000491818 1.45606e-05 2.60327e-23)
(-0.000509417 1.58399e-05 -1.66152e-22)
(-0.000528927 1.86261e-05 0)
(-0.000553547 2.33629e-05 0)
(-0.000579109 2.85807e-05 -1.12614e-23)
(0.00346648 0.000561754 0)
(0.00385807 0.00102887 -4.05588e-21)
(0.00382339 0.00108854 4.05384e-21)
(0.00359671 0.00101626 8.068e-21)
(0.00328138 0.000894754 -8.13898e-21)
(0.00293364 0.000763985 0)
(0.00259051 0.000644717 0)
(0.00227124 0.000542641 0)
(0.00198344 0.000456768 -1.6469e-20)
(0.00172951 0.000384365 3.30963e-20)
(0.00150873 0.00032276 1.64492e-20)
(0.00131895 0.00026983 -3.32444e-20)
(0.00115746 0.000224036 -3.30759e-20)
(0.00102127 0.000184402 3.321e-20)
(0.000907492 0.000150335 0)
(0.000813249 0.000121475 -3.29316e-20)
(0.000735686 9.75507e-05 6.58576e-20)
(0.000671989 7.82927e-05 -3.29115e-20)
(0.000619415 6.34048e-05 0)
(0.000575349 5.2527e-05 0)
(0.00053735 4.52632e-05 0)
(0.000503191 4.11751e-05 0)
(0.000470878 3.9755e-05 0)
(0.000438665 4.05266e-05 -6.39937e-20)
(0.000405113 4.30338e-05 6.40347e-20)
(0.000369093 4.68105e-05 0)
(0.000329771 5.13852e-05 0)
(0.000286617 5.62532e-05 0)
(0.000239431 6.08123e-05 0)
(0.000188416 6.41971e-05 0)
(0.000134011 6.48991e-05 -6.22377e-20)
(7.7388e-05 5.95984e-05 6.23199e-20)
(2.14631e-05 4.34063e-05 0)
(-4.19027e-05 8.77397e-06 3.85884e-21)
(-9.43176e-05 -6.08744e-05 0)
(-7.57461e-05 -0.000154154 -1.22436e-19)
(2.9469e-05 -0.00022736 2.45822e-19)
(0.00019513 -0.000252111 0)
(0.000406932 -0.000214303 -4.95797e-19)
(0.000656508 -0.000107197 3.99352e-22)
(0.000948433 6.70493e-05 -6.22902e-20)
(0.00126651 0.000290363 6.25234e-20)
(0.00157505 0.000525956 -4.97512e-19)
(0.00185981 0.000746986 0)
(0.00211814 0.000939882 -5.55879e-19)
(0.00234761 0.0010971 5.2401e-19)
(0.00255202 0.00121681 5.22112e-19)
(0.00272779 0.00129757 0)
(0.00287377 0.00133998 2.43384e-19)
(0.00299275 0.00134529 0)
(0.00307899 0.00131528 -4.83603e-19)
(0.00313367 0.0012549 0)
(0.00314974 0.00116684 2.0943e-19)
(0.00312602 0.0010564 2.67114e-19)
(0.00305897 0.000928376 2.35585e-19)
(0.0029447 0.000788891 1.17059e-19)
(0.00278567 0.000646244 1.16162e-19)
(0.0025753 0.000508324 5.76479e-20)
(0.00232627 0.000383452 -2.87874e-20)
(0.00203267 0.000281574 -4.27603e-20)
(0.00170569 0.000205565 0)
(0.00135962 0.000164193 -1.11794e-19)
(0.000998696 0.000157495 1.10891e-19)
(0.000638497 0.000184388 0)
(0.00028497 0.000244098 4.36423e-19)
(-5.1675e-05 0.000329163 0)
(-0.000367586 0.000438287 5.25031e-20)
(-0.00065989 0.000561096 -5.1898e-20)
(-0.000923883 0.000694054 0)
(-0.00116129 0.000829922 4.90978e-20)
(-0.00137037 0.000964154 -4.85527e-20)
(-0.00155267 0.00109286 -5.19919e-19)
(-0.00170893 0.00121065 3.24725e-19)
(-0.00183928 0.00131537 -1.65861e-21)
(-0.00194576 0.0014039 3.55251e-19)
(-0.00202913 0.00147439 2.17393e-20)
(-0.0020904 0.00152575 -3.65302e-19)
(-0.00213104 0.0015577 0)
(-0.00215218 0.0015706 -3.31958e-19)
(-0.00215524 0.00156501 -6.31289e-19)
(-0.00214144 0.00154129 6.11063e-19)
(-0.00211207 0.00150092 3.26085e-19)
(-0.00206806 0.00144566 -3.21042e-19)
(-0.00201134 0.0013767 3.15183e-19)
(-0.00194331 0.00129689 0)
(-0.00186527 0.00120828 2.96463e-19)
(-0.00177889 0.00111254 3.23008e-21)
(-0.00168558 0.00101077 5.83988e-19)
(-0.0015856 0.000904726 2.66646e-19)
(-0.00148085 0.000795862 2.89056e-19)
(-0.00137165 0.000684935 0)
(-0.00125834 0.000574291 0)
(-0.00114166 0.000465785 -1.33838e-19)
(-0.00102154 0.000359662 0)
(-0.000898696 0.000258118 -1.62469e-20)
(-0.000774279 0.000161671 1.60979e-20)
(-0.000647577 7.28683e-05 -1.26771e-19)
(-0.000519964 -7.35706e-06 1.25342e-19)
(-0.000391304 -7.63667e-05 1.08402e-19)
(-0.000262461 -0.000134012 1.53655e-20)
(-0.000133506 -0.000177286 -6.08172e-20)
(-7.12019e-06 -0.000205888 3.01649e-20)
(0.000117478 -0.000218445 -2.24111e-20)
(0.000236439 -0.000214817 7.43113e-21)
(0.000350758 -0.000196069 0)
(0.00045789 -0.000162365 5.87311e-20)
(0.000557147 -0.000116273 0)
(0.000648706 -5.9219e-05 1.17319e-19)
(0.000730779 5.80384e-06 2.08171e-22)
(0.000804522 7.65795e-05 -1.1443e-19)
(0.000869847 0.000150608 1.18552e-19)
(0.000927303 0.000225722 -3.72692e-21)
(0.00097819 0.000300136 0)
(0.0010226 0.000372269 1.19731e-19)
(0.00106219 0.000441145 -1.20269e-19)
(0.00109873 0.000506307 0)
(0.00113103 0.000566713 7.55151e-21)
(0.00116179 0.000622942 -2.50358e-19)
(0.00119146 0.00067496 -2.29178e-19)
(0.00122017 0.000722732 2.2813e-19)
(0.00124982 0.000766912 -2.43588e-19)
(0.00128086 0.000807664 -1.5187e-20)
(0.00131316 0.000845125 2.28224e-19)
(0.00134804 0.000879934 3.06031e-20)
(0.00138621 0.00091235 2.72347e-19)
(0.00142759 0.000942418 -5.44837e-19)
(0.00147291 0.000970262 2.72343e-19)
(0.00152238 0.000995835 -2.11047e-19)
(0.00157622 0.0010191 1.78005e-19)
(0.00163527 0.00103994 2.95254e-19)
(0.00169883 0.00105736 1.75432e-19)
(0.00176587 0.00107085 2.93699e-20)
(0.00183853 0.00108014 2.01439e-19)
(0.00191462 0.00108348 2.58509e-19)
(0.0019913 0.00107993 -2.80069e-20)
(0.00207108 0.0010689 2.81938e-20)
(0.00214807 0.00104769 8.25275e-20)
(0.00221855 0.00101557 2.65402e-20)
(0.0022824 0.000971461 -2.64962e-20)
(0.00233167 0.000914975 2.66739e-20)
(0.00236265 0.000846382 -1.03325e-19)
(0.00236772 0.000766644 2.58586e-20)
(0.0023396 0.000677879 -6.41109e-22)
(0.002274 0.000583906 -2.47262e-20)
(0.00216098 0.00049015 -9.54213e-20)
(0.00200288 0.000402349 0)
(0.00179217 0.000328604 4.51495e-20)
(0.00153024 0.00027352 -2.80637e-20)
(0.00122815 0.000245912 2.16462e-20)
(0.000886179 0.000251155 -6.29217e-20)
(0.000520882 0.000289484 -2.02222e-20)
(0.000139578 0.000367415 7.9727e-20)
(-0.000246806 0.000475052 9.59289e-20)
(-0.000625038 0.000617799 -3.68441e-20)
(-0.000990385 0.000782029 8.85751e-20)
(-0.00133247 0.000967929 -6.73185e-20)
(-0.00165107 0.00115725 -1.59133e-20)
(-0.00193782 0.00133596 -6.13273e-20)
(-0.00218588 0.00145978 1.51122e-20)
(-0.00238758 0.00149311 -5.74733e-20)
(-0.00256785 0.00135651 5.46237e-20)
(-0.00267094 0.00114169 -3.97026e-20)
(-0.00270766 0.000855033 -1.29484e-20)
(-0.00264795 0.000523818 -2.48149e-20)
(-0.00247949 0.000179397 0)
(-0.00219967 -0.00013267 -2.33476e-20)
(-0.00181738 -0.000379982 2.15557e-20)
(-0.00135608 -0.00052499 4.21879e-22)
(-0.000878468 -0.000581245 -2.98533e-22)
(-0.000419122 -0.000573998 -9.94429e-22)
(9.14229e-07 -0.000522658 -1.07258e-20)
(0.000365288 -0.000444136 6.37499e-22)
(0.000665061 -0.000352326 0)
(0.000897469 -0.000257804 -5.87433e-22)
(0.00106436 -0.000168231 5.6317e-22)
(0.00117124 -8.8595e-05 9.50792e-21)
(0.00122541 -2.1553e-05 -8.93801e-21)
(0.00123561 3.21568e-05 -7.67737e-21)
(0.00121172 7.26776e-05 8.12715e-21)
(0.0011626 0.000100911 0)
(0.0010965 0.000118324 -4.21363e-22)
(0.00102062 0.000126648 0)
(0.000940857 0.00012773 -2.53915e-21)
(0.00086181 0.000123386 1.77647e-22)
(0.0007868 0.000115304 3.06897e-21)
(0.000718008 0.00010496 6.17153e-22)
(0.000656637 9.35779e-05 2.87581e-22)
(0.00060309 8.21233e-05 -2.65719e-22)
(0.000557165 7.13138e-05 0)
(0.000518224 6.16422e-05 2.22253e-22)
(0.000485355 5.34133e-05 7.58838e-22)
(0.00045749 4.67876e-05 -5.78871e-22)
(0.000433499 4.18252e-05 -5.87707e-22)
(0.00041225 3.85345e-05 7.23306e-22)
(0.000392644 3.69342e-05 0)
(0.000373684 3.71191e-05 1.14618e-22)
(0.00035454 3.92937e-05 1.66555e-22)
(0.000333958 4.37158e-05 4.14451e-23)
(0.00030873 5.05118e-05 -4.13799e-23)
(0.000283624 5.7941e-05 1.11935e-23)
(0.003444 0.000366175 0)
(0.00386041 0.000837727 0)
(0.00405702 0.0010608 0)
(0.00411369 0.00113048 7.97158e-21)
(0.004063 0.00109981 -7.98429e-21)
(0.00393266 0.00101945 0)
(0.00375589 0.000914025 0)
(0.00355941 0.000804925 0)
(0.00336015 0.000700752 0)
(0.00316861 0.000604901 0)
(0.00299055 0.00051827 0)
(0.00282874 0.000440605 -3.1933e-20)
(0.00268423 0.000371418 3.20827e-20)
(0.00255689 0.000310286 -3.19019e-20)
(0.00244589 0.000256832 6.38803e-20)
(0.00235001 0.000210838 -3.19627e-20)
(0.00226774 0.000172143 -3.17372e-20)
(0.00219735 0.000140542 3.18095e-20)
(0.00213698 0.000115751 0)
(0.00208463 9.73764e-05 0)
(0.00203832 8.48983e-05 6.26846e-20)
(0.00199605 7.76997e-05 -6.27518e-20)
(0.00195592 7.50832e-05 0)
(0.00191616 7.63274e-05 -6.19433e-20)
(0.00187516 8.07087e-05 6.19893e-20)
(0.00183153 8.75071e-05 0)
(0.00178411 9.60086e-05 0)
(0.00173197 0.000105471 6.09379e-20)
(0.0016744 0.00011503 -2.92379e-22)
(0.00161086 0.000123528 -6.07711e-20)
(0.0015408 0.000129158 -6.02779e-20)
(0.00146404 0.000129323 1.20471e-19)
(0.0013819 0.000119808 -6.02173e-20)
(0.00127617 9.36639e-05 5.60966e-20)
(0.00116525 4.20996e-05 -6.00704e-20)
(0.00113004 -2.17065e-05 -5.96222e-20)
(0.00119629 -6.05868e-05 5.99114e-20)
(0.00133191 -4.89218e-05 1.79849e-19)
(0.0015206 2.6786e-05 3.01091e-19)
(0.00175546 0.000171664 6.05901e-20)
(0.00204271 0.000381719 -6.07307e-20)
(0.00236304 0.00063533 -5.43826e-19)
(0.00267555 0.000896749 5.42382e-19)
(0.00296761 0.00114163 5.40617e-19)
(0.00323801 0.00135652 -1.20005e-19)
(0.00348477 0.00153364 8.99094e-20)
(0.0037116 0.00167051 -2.68565e-19)
(0.0039144 0.0017647 0)
(0.00409096 0.0018163 -2.67223e-19)
(0.00424286 0.00182644 2.97143e-20)
(0.00436408 0.00179657 2.36e-19)
(0.00445464 0.00173099 2.91844e-20)
(0.00450706 0.00163163 -2.90871e-19)
(0.0045198 0.00150354 -2.02213e-19)
(0.00448783 0.00135099 -2.29322e-19)
(0.00440653 0.00118038 -1.13717e-19)
(0.00427653 0.00099973 -2.80494e-20)
(0.00408864 0.00081683 2.81293e-20)
(0.00385461 0.000641346 2.7752e-20)
(0.00356395 0.000482645 4.11536e-20)
(0.00322771 0.000346845 2.72199e-20)
(0.00285787 0.000243388 0)
(0.00245803 0.000175782 1.07853e-19)
(0.00204619 0.000145177 0)
(0.0016271 0.000152705 -3.71749e-19)
(0.0012159 0.000192708 -2.11446e-19)
(0.000821149 0.00026388 -5.24925e-20)
(0.000448929 0.000356516 0)
(0.000106282 0.000465588 0)
(-0.000206645 0.000583225 -2.01991e-19)
(-0.000484325 0.000702519 0)
(-0.000729389 0.000818898 4.3379e-19)
(-0.000941239 0.000925502 -4.24273e-19)
(-0.00111851 0.00101858 3.92189e-19)
(-0.00126528 0.00109508 -2.12918e-22)
(-0.00138125 0.00115194 -2.02485e-22)
(-0.00146747 0.00118783 3.04911e-19)
(-0.00152695 0.00120276 4.29066e-20)
(-0.00156074 0.00119656 3.15528e-19)
(-0.00156992 0.00116966 3.31235e-19)
(-0.00155693 0.00112369 1.24418e-21)
(-0.00152371 0.0010605 -3.11108e-19)
(-0.00147234 0.000982084 3.06446e-19)
(-0.0014046 0.000890563 0)
(-0.00132136 0.000788393 4.78452e-21)
(-0.00122498 0.00067843 2.98307e-19)
(-0.00111818 0.000563346 -5.93873e-19)
(-0.00100137 0.000444952 -8.8294e-19)
(-0.000875789 0.000325491 -2.98101e-19)
(-0.000744641 0.000207763 9.7142e-21)
(-0.000607613 9.27677e-05 0)
(-0.000465718 -1.73285e-05 8.64695e-21)
(-0.000322026 -0.000119876 -8.57554e-21)
(-0.000175022 -0.000214351 0)
(-2.71804e-05 -0.00029792 1.33119e-19)
(0.000121516 -0.000370031 -1.62705e-20)
(0.000269825 -0.000428145 1.60346e-20)
(0.000416986 -0.000471372 1.56841e-22)
(0.000561353 -0.000497315 1.23286e-19)
(0.000703185 -0.000505913 -1.51014e-20)
(0.000841074 -0.000495332 2.98374e-20)
(0.000972971 -0.000465647 -1.47587e-20)
(0.00109954 -0.000417018 1.15785e-25)
(0.00121723 -0.000350299 -7.20623e-21)
(0.00132772 -0.000267551 7.201e-21)
(0.00142884 -0.000170698 -5.72836e-20)
(0.00152045 -6.27829e-05 -6.07221e-20)
(0.00160338 5.32827e-05 -1.10921e-19)
(0.00167639 0.000174207 2.29297e-19)
(0.00174114 0.000297069 -1.11285e-19)
(0.00179798 0.000419148 -3.61781e-21)
(0.00184773 0.000538131 -3.61032e-21)
(0.00189187 0.000652292 3.65027e-21)
(0.00193076 0.000760084 -1.17095e-19)
(0.00196587 0.000860866 7.745e-21)
(0.00199923 0.00095415 -5.53491e-23)
(0.00202952 0.00103937 1.03198e-19)
(0.0020595 0.00111711 3.63392e-19)
(0.00208967 0.00118749 -2.36994e-19)
(0.00211997 0.00125076 -2.38514e-19)
(0.0021524 0.00130778 2.5352e-19)
(0.00218749 0.00135892 2.22392e-19)
(0.00222506 0.00140449 -2.23715e-19)
(0.00226656 0.00144528 -2.66318e-19)
(0.0023128 0.00148168 -2.22655e-19)
(0.00236373 0.00151388 3.09024e-20)
(0.00242016 0.00154213 -2.95484e-20)
(0.00248236 0.00156643 0)
(0.00255066 0.00158674 -2.62053e-19)
(0.002626 0.00160299 -2.31235e-19)
(0.00270769 0.00161415 -2.01029e-19)
(0.00279461 0.00161959 0)
(0.00288898 0.00161914 -2.53628e-19)
(0.00298844 0.00161092 2.80504e-20)
(0.00308983 0.00159392 -8.23143e-20)
(0.00319563 0.00156758 -2.74214e-20)
(0.0032996 0.00152906 -8.53646e-22)
(0.00339798 0.00147802 -1.32359e-19)
(0.00349006 0.00141357 2.63303e-20)
(0.00356751 0.00133492 -1.27595e-19)
(0.00362666 0.00124214 2.272e-19)
(0.00365951 0.00113622 1.97807e-19)
(0.00365829 0.00101933 9.65891e-20)
(0.00361829 0.000895296 0)
(0.00352811 0.000768939 -2.2628e-20)
(0.0033896 0.000646167 3.54082e-22)
(0.00319233 0.000534321 1.06984e-20)
(0.00293566 0.000439118 -3.76514e-20)
(0.00262955 0.000369109 2.12894e-20)
(0.00226994 0.000331387 -4.08833e-20)
(0.0018751 0.000327431 3.98582e-20)
(0.00144649 0.000365133 0)
(0.00100244 0.000437065 -9.42786e-20)
(0.000554015 0.000548519 3.68972e-20)
(0.00011187 0.000687225 -7.19945e-20)
(-0.000311016 0.000851453 -1.74789e-20)
(-0.000710496 0.00102238 8.21807e-20)
(-0.00107434 0.00118304 -1.60232e-20)
(-0.00139657 0.00129442 0)
(-0.00167633 0.00131644 7.25849e-20)
(-0.00187407 0.00116378 -3.73377e-22)
(-0.00192231 0.000894933 -3.46082e-22)
(-0.00188454 0.000548172 -3.20979e-22)
(-0.00173622 0.000158485 2.49852e-20)
(-0.00146696 -0.000232233 -2.85612e-22)
(-0.00107616 -0.000572984 -1.46838e-22)
(-0.00057594 -0.000829897 -1.15542e-20)
(-1.5765e-05 -0.000970413 1.01175e-20)
(0.000519214 -0.00100426 1.08411e-20)
(0.00100813 -0.000958888 1.01069e-21)
(0.00144381 -0.000858334 -1.03274e-20)
(0.00181756 -0.00072377 1.22106e-21)
(0.00212509 -0.000573183 9.23675e-21)
(0.00236613 -0.000420637 -9.20927e-21)
(0.00254344 -0.000276444 -1.0824e-21)
(0.0026621 -0.000147588 -1.041e-21)
(0.00272885 -3.8131e-05 0)
(0.00275151 5.03575e-05 7.41906e-21)
(0.00273886 0.000117781 -7.39516e-21)
(0.00269932 0.000165406 0)
(0.00264083 0.000195415 -8.10041e-22)
(0.0025705 0.000210498 0)
(0.00249433 0.000213578 7.22567e-22)
(0.00241712 0.000207578 2.63777e-21)
(0.0023425 0.000195237 -2.63758e-21)
(0.00227294 0.000178982 -5.96574e-22)
(0.00220995 0.000160847 5.52467e-22)
(0.00215421 0.000142454 0)
(0.00210573 0.000125012 -1.79521e-21)
(0.00206405 0.000109359 1.79401e-21)
(0.00202838 9.602e-05 3.85615e-22)
(0.00199776 8.52704e-05 6.48916e-22)
(0.00197111 7.7211e-05 -6.48155e-22)
(0.00194735 7.18378e-05 4.84691e-22)
(0.00192544 6.91159e-05 -4.8401e-22)
(0.00190445 6.90494e-05 -1.81297e-22)
(0.00188372 7.17017e-05 -1.20357e-22)
(0.00186241 7.70911e-05 8.01851e-23)
(0.0018375 8.50694e-05 9.95512e-23)
(0.001813 9.43799e-05 0)
(0.00342608 0.000231884 0)
(0.00380344 0.000609944 0)
(0.00405287 0.000869908 0)
(0.00425337 0.00101915 7.97374e-21)
(0.00439953 0.00107363 -7.9422e-21)
(0.00447329 0.00105913 0)
(0.00448486 0.00100563 1.56431e-20)
(0.00445681 0.000925097 -1.56776e-20)
(0.00440005 0.000833989 -1.55703e-20)
(0.00432555 0.000741243 3.11713e-20)
(0.00424189 0.000651211 -1.56035e-20)
(0.00415494 0.000566048 0)
(0.00406866 0.000487171 0)
(0.00398549 0.00041544 3.09197e-20)
(0.00390689 0.000351119 -1.51413e-22)