/*--------------------------------*- C++ -*----------------------------------*\
| =========                 |                                                 |
| \\      /  F ield         | OpenFOAM: The Open Source CFD Toolbox           |
|  \\    /   O peration     | Version:  2506                                  |
|   \\  /    A nd           | Website:  www.openfoam.com                      |
|    \\/     M anipulation  |                                                 |
\*---------------------------------------------------------------------------*/
FoamFile
{
    version     2.0;
    format      ascii;
    arch        "LSB;label=32;scalar=64";
    class       surfaceScalarField;
    location    "1.1";
    object      phi;
}
// * * * * * * * * * * * * * * * * * * * * * * * * * * * * * * * * * * * * * //

dimensions      [0 3 -1 0 0 0 0];

oriented        oriented;

internalField   nonuniform List<scalar> 
7780
(
9.93316e-10
-9.93315e-10
1.71587e-09
-7.22559e-10
2.13872e-09
-4.22847e-10
2.42124e-09
-2.82515e-10
2.61693e-09
-1.95694e-10
2.75452e-09
-1.3759e-10
2.85618e-09
-1.01663e-10
2.93572e-09
-7.95365e-11
3.00078e-09
-6.50636e-11
3.05588e-09
-5.50925e-11
3.10387e-09
-4.79952e-11
3.14668e-09
-4.28061e-11
3.18561e-09
-3.89329e-11
3.22163e-09
-3.60141e-11
3.25545e-09
-3.38219e-11
3.28765e-09
-3.22073e-11
3.31873e-09
-3.10723e-11
3.34908e-09
-3.03537e-11
3.37909e-09
-3.00143e-11
3.40913e-09
-3.00374e-11
3.43956e-09
-3.04251e-11
3.47076e-09
-3.11983e-11
3.50315e-09
-3.23983e-11
3.53724e-09
-3.40912e-11
3.57363e-09
-3.63803e-11
3.61305e-09
-3.94203e-11
3.65649e-09
-4.34457e-11
3.70531e-09
-4.88199e-11
3.76139e-09
-5.60834e-11
3.82723e-09
-6.58321e-11
3.88618e-09
-1.32705e-10
3.85144e-09
-4.8544e-10
3.718e-09
-9.49884e-10
3.51799e-09
-1.39034e-09
3.27665e-09
-1.7799e-09
3.03495e-09
-2.14386e-09
2.81309e-09
-2.48782e-09
2.52511e-09
-2.89753e-09
2.20852e-09
-3.16954e-09
1.94688e-09
-3.29727e-09
1.73085e-09
-3.39294e-09
1.5583e-09
-3.46874e-09
1.41995e-09
-3.52217e-09
1.30904e-09
-3.55658e-09
1.21919e-09
-3.57267e-09
1.14267e-09
-3.56883e-09
1.07667e-09
-3.54407e-09
1.0124e-09
-3.49788e-09
9.44098e-10
-3.42882e-09
8.66048e-10
-3.33393e-09
7.79124e-10
-3.20899e-09
7.00689e-10
-3.05093e-09
6.2401e-10
-2.86222e-09
5.89913e-10
-2.62628e-09
6.21013e-10
-2.34041e-09
7.70529e-10
-1.97577e-09
1.04334e-09
-1.52819e-09
1.45754e-09
-9.42292e-10
1.94439e-09
-2.32062e-10
2.39856e-09
5.24603e-10
2.76559e-09
1.23702e-09
3.04448e-09
1.88455e-09
3.24533e-09
2.32287e-09
3.40548e-09
2.6937e-09
3.53236e-09
2.93481e-09
3.64392e-09
3.12483e-09
3.74482e-09
3.27253e-09
3.83628e-09
3.3758e-09
3.9215e-09
3.45434e-09
4.00146e-09
3.51374e-09
4.07811e-09
3.55754e-09
4.15151e-09
3.58406e-09
4.2223e-09
3.59624e-09
4.29123e-09
3.59573e-09
4.35864e-09
3.58275e-09
4.42497e-09
3.55665e-09
4.49033e-09
3.5161e-09
4.55444e-09
3.45043e-09
4.61791e-09
3.36996e-09
4.68022e-09
3.2665e-09
4.74193e-09
3.13102e-09
4.79892e-09
2.92638e-09
4.8533e-09
2.69859e-09
4.89876e-09
2.35876e-09
4.93454e-09
1.96048e-09
4.94811e-09
1.38005e-09
4.93705e-09
7.41556e-10
4.89192e-09
3.15095e-11
4.80972e-09
-7.06622e-10
4.6934e-09
-1.35887e-09
4.56205e-09
-1.86792e-09
4.42646e-09
-2.3167e-09
4.31038e-09
-2.63898e-09
4.2135e-09
-2.92488e-09
4.14002e-09
-3.11991e-09
4.08307e-09
-3.27376e-09
4.0331e-09
-3.39849e-09
3.98238e-09
-3.4738e-09
3.92559e-09
-3.52523e-09
3.85598e-09
-3.55395e-09
3.7694e-09
-3.56446e-09
3.66402e-09
-3.56042e-09
3.53994e-09
-3.54263e-09
3.3981e-09
-3.51304e-09
3.23874e-09
-3.4711e-09
3.06099e-09
-3.41462e-09
2.86232e-09
-3.34023e-09
2.64191e-09
-3.24144e-09
2.40542e-09
-3.11837e-09
2.15411e-09
-2.97572e-09
1.89217e-09
-2.80209e-09
1.65955e-09
-2.5728e-09
1.4571e-09
-2.32546e-09
1.36395e-09
-1.9967e-09
1.38036e-09
-1.60848e-09
1.54985e-09
-1.10314e-09
1.85365e-09
-4.69113e-10
2.20259e-09
2.36616e-10
2.51864e-09
9.53678e-10
2.77617e-09
1.63426e-09
2.95637e-09
2.15113e-09
3.09158e-09
2.5553e-09
3.19723e-09
2.83604e-09
3.29063e-09
3.06654e-09
3.37324e-09
3.2187e-09
3.44973e-09
3.33607e-09
3.52348e-09
3.43052e-09
3.59518e-09
3.49867e-09
3.66528e-09
3.54489e-09
3.73493e-09
3.57566e-09
3.80469e-09
3.59291e-09
3.87523e-09
3.59725e-09
3.94691e-09
3.5889e-09
4.01979e-09
3.56521e-09
4.0953e-09
3.52744e-09
4.17311e-09
3.47489e-09
4.25427e-09
3.40392e-09
4.33933e-09
3.31189e-09
4.42643e-09
3.17215e-09
4.51787e-09
3.0115e-09
4.6122e-09
2.80899e-09
4.70418e-09
2.49751e-09
4.79462e-09
2.15594e-09
4.87072e-09
1.64559e-09
4.92882e-09
1.05536e-09
4.95651e-09
3.77503e-10
4.94541e-09
-3.64579e-10
4.89221e-09
-1.07135e-09
4.81152e-09
-1.64085e-09
4.71463e-09
-2.12436e-09
4.6216e-09
-2.5097e-09
4.54347e-09
-2.80956e-09
4.48396e-09
-3.03245e-09
4.43326e-09
-3.22281e-09
4.3901e-09
-3.34644e-09
4.34639e-09
-3.43659e-09
4.29499e-09
-3.49847e-09
4.22762e-09
-3.53771e-09
4.1378e-09
-3.54975e-09
4.00782e-09
-3.52957e-09
3.82233e-09
-3.48177e-09
3.55784e-09
-3.39851e-09
3.1357e-09
-3.22452e-09
2.83212e-09
-2.64377e-09
2.56883e-09
-2.32103e-09
2.33875e-09
-2.0498e-09
2.18235e-09
-1.72046e-09
2.12103e-09
-1.36548e-09
2.18116e-09
-9.61273e-10
2.35911e-09
-5.29162e-10
2.55738e-09
-2.12981e-10
2.67808e-09
-1.207e-10
2.7548e-09
-7.67224e-11
2.80655e-09
-5.17482e-11
2.84427e-09
-3.77269e-11
2.87398e-09
-2.97055e-11
2.89862e-09
-2.46465e-11
2.91971e-09
-2.10852e-11
2.93807e-09
-1.83585e-11
2.9542e-09
-1.61357e-11
2.96844e-09
-1.4237e-11
2.98099e-09
-1.25498e-11
2.99198e-09
-1.09907e-11
3.00146e-09
-9.48143e-12
3.00939e-09
-7.93226e-12
3.01562e-09
-6.22395e-12
3.01988e-09
-4.26619e-12
3.02172e-09
-1.84061e-12
3.02054e-09
1.18402e-12
3.01557e-09
4.9736e-12
3.00558e-09
9.98387e-12
2.98896e-09
1.6625e-11
2.96324e-09
2.57148e-11
2.9243e-09
3.89449e-11
2.864e-09
6.0293e-11
2.76439e-09
9.96177e-11
2.58243e-09
1.81956e-10
2.20772e-09
3.74706e-10
1.36817e-09
8.39552e-10
1.36817e-09
-9.20028e-11
-9.01313e-10
1.41739e-10
-9.56301e-10
4.51757e-10
-7.32865e-10
7.21522e-10
-5.52281e-10
9.45915e-10
-4.20087e-10
1.13112e-09
-3.22793e-10
1.28411e-09
-2.5465e-10
1.41192e-09
-2.07353e-10
1.52038e-09
-1.73518e-10
1.61382e-09
-1.48534e-10
1.69549e-09
-1.29666e-10
1.76785e-09
-1.15172e-10
1.83282e-09
-1.039e-10
1.8919e-09
-9.50897e-11
1.9463e-09
-8.82254e-11
1.99705e-09
-8.29541e-11
2.04501e-09
-7.90332e-11
2.09096e-09
-7.63005e-11
2.1356e-09
-7.46558e-11
2.17961e-09
-7.40505e-11
2.22367e-09
-7.44829e-11
2.26847e-09
-7.59982e-11
2.31476e-09
-7.86929e-11
2.3634e-09
-8.27258e-11
2.41535e-09
-8.83373e-11
2.47181e-09
-9.588e-11
2.53424e-09
-1.05873e-10
2.60451e-09
-1.19087e-10
2.68515e-09
-1.3673e-10
2.77985e-09
-1.60528e-10
2.87758e-09
-2.3044e-10
2.91086e-09
-5.18715e-10
2.86982e-09
-9.08839e-10
2.77596e-09
-1.29649e-09
2.64913e-09
-1.65306e-09
2.50976e-09
-2.00448e-09
2.3656e-09
-2.34366e-09
2.17616e-09
-2.70809e-09
1.96303e-09
-2.95641e-09
1.7701e-09
-3.10433e-09
1.60175e-09
-3.2246e-09
1.45875e-09
-3.32574e-09
1.33608e-09
-3.39949e-09
1.22908e-09
-3.44957e-09
1.13292e-09
-3.47652e-09
1.04235e-09
-3.47826e-09
9.52881e-10
-3.45461e-09
8.57605e-10
-3.40262e-09
7.51891e-10
-3.32312e-09
6.30895e-10
-3.21294e-09
4.94501e-10
-3.07258e-09
3.489e-10
-2.90531e-09
1.92336e-10
-2.70564e-09
4.35348e-11
-2.47746e-09
-8.00699e-11
-2.21679e-09
-1.38532e-10
-1.9173e-09
-9.83297e-11
-1.56839e-09
1.0652e-10
-1.14714e-09
5.00722e-10
-6.26265e-10
1.03502e-09
-9.69656e-12
1.61699e-09
6.55042e-10
2.16292e-09
1.33862e-09
2.59677e-09
1.889e-09
2.93452e-09
2.35594e-09
3.18354e-09
2.6858e-09
3.37588e-09
2.93252e-09
3.53075e-09
3.11766e-09
3.65894e-09
3.24758e-09
3.76984e-09
3.3434e-09
3.86844e-09
3.41516e-09
3.95889e-09
3.46712e-09
4.04261e-09
3.50038e-09
4.1211e-09
3.51779e-09
4.19569e-09
3.52117e-09
4.26718e-09
3.51127e-09
4.3363e-09
3.48754e-09
4.40331e-09
3.44909e-09
4.46788e-09
3.38584e-09
4.53072e-09
3.30711e-09
4.59144e-09
3.20578e-09
4.65035e-09
3.07211e-09
4.70279e-09
2.87394e-09
4.75042e-09
2.65095e-09
4.78618e-09
2.32298e-09
4.80859e-09
1.93805e-09
4.80454e-09
1.38408e-09
4.77323e-09
7.72863e-10
4.7101e-09
9.46457e-11
4.62102e-09
-6.17537e-10
4.51798e-09
-1.25584e-09
4.42167e-09
-1.77161e-09
4.33844e-09
-2.23347e-09
4.27259e-09
-2.57312e-09
4.21822e-09
-2.87051e-09
4.17202e-09
-3.07371e-09
4.1256e-09
-3.22734e-09
4.07015e-09
-3.34303e-09
4.00163e-09
-3.40529e-09
3.91572e-09
-3.43931e-09
3.80973e-09
-3.44796e-09
3.68385e-09
-3.43859e-09
3.53933e-09
-3.41591e-09
3.37723e-09
-3.38053e-09
3.19751e-09
-3.33332e-09
2.99842e-09
-3.272e-09
2.77742e-09
-3.19361e-09
2.53249e-09
-3.09531e-09
2.26449e-09
-2.97345e-09
1.97865e-09
-2.83254e-09
1.67878e-09
-2.67585e-09
1.3714e-09
-2.49472e-09
1.08183e-09
-2.28323e-09
8.11493e-10
-2.05512e-09
6.0096e-10
-1.78616e-09
4.67004e-10
-1.47451e-09
4.59964e-10
-1.09609e-09
6.22971e-10
-6.32118e-10
9.47212e-10
-8.76242e-11
1.37723e-09
5.23665e-10
1.8344e-09
1.17709e-09
2.23016e-09
1.75537e-09
2.54474e-09
2.24072e-09
2.78174e-09
2.59904e-09
2.96734e-09
2.88095e-09
3.11328e-09
3.07274e-09
3.23377e-09
3.21553e-09
3.33914e-09
3.32512e-09
3.43405e-09
3.40378e-09
3.52128e-09
3.45769e-09
3.60366e-09
3.49333e-09
3.68294e-09
3.51365e-09
3.76062e-09
3.51959e-09
3.83754e-09
3.51198e-09
3.91408e-09
3.48867e-09
3.99181e-09
3.44971e-09
4.07062e-09
3.39607e-09
4.15157e-09
3.32296e-09
4.23516e-09
3.2283e-09
4.31913e-09
3.08818e-09
4.40564e-09
2.92499e-09
4.49297e-09
2.72166e-09
4.57497e-09
2.41552e-09
4.65177e-09
2.07913e-09
4.70948e-09
1.58788e-09
4.74458e-09
1.02025e-09
4.74831e-09
3.73777e-10
4.7208e-09
-3.3707e-10
4.66959e-09
-1.02014e-09
4.61572e-09
-1.58698e-09
4.56902e-09
-2.07765e-09
4.53407e-09
-2.47474e-09
4.5062e-09
-2.78169e-09
4.48096e-09
-3.00719e-09
4.44915e-09
-3.191e-09
4.40476e-09
-3.30206e-09
4.34079e-09
-3.37263e-09
4.25078e-09
-3.40847e-09
4.12965e-09
-3.41661e-09
3.97343e-09
-3.39358e-09
3.76549e-09
-3.32168e-09
3.49312e-09
-3.20944e-09
3.14962e-09
-3.05502e-09
2.74217e-09
-2.81705e-09
2.40559e-09
-2.30714e-09
2.09489e-09
-2.01028e-09
1.80183e-09
-1.75671e-09
1.55182e-09
-1.47043e-09
1.37115e-09
-1.18481e-09
1.29081e-09
-8.80942e-10
1.33178e-09
-5.70132e-10
1.44764e-09
-3.28847e-10
1.54981e-09
-2.22865e-10
1.63179e-09
-1.58703e-10
1.69703e-09
-1.16992e-10
1.74969e-09
-9.03879e-11
1.79309e-09
-7.31074e-11
1.82944e-09
-6.09944e-11
1.86013e-09
-5.17717e-11
1.88607e-09
-4.42976e-11
1.90789e-09
-3.79598e-11
1.92605e-09
-3.23973e-11
1.94086e-09
-2.73617e-11
1.95251e-09
-2.26397e-11
1.96104e-09
-1.80087e-11
1.96631e-09
-1.32081e-11
1.96801e-09
-7.92139e-12
1.96553e-09
-1.78575e-12
1.95799e-09
5.70366e-12
1.94401e-09
1.51576e-11
1.92164e-09
2.73445e-11
1.8883e-09
4.33265e-11
1.84037e-09
6.45529e-11
1.77272e-09
9.33709e-11
1.67751e-09
1.34147e-10
1.54176e-09
1.96047e-10
1.3421e-09
2.99277e-10
1.03765e-09
4.8641e-10
5.82001e-10
8.3035e-10
7.30694e-11
1.34848e-09
1.44124e-09
-1.99352e-10
-7.0196e-10
-2.20181e-10
-9.35473e-10
-1.11825e-10
-8.4122e-10
3.94224e-11
-7.03529e-10
1.97881e-10
-5.78545e-10
3.50903e-10
-4.75816e-10
4.92245e-10
-3.95992e-10
6.19922e-10
-3.35029e-10
7.3443e-10
-2.88026e-10
8.37146e-10
-2.5125e-10
9.29606e-10
-2.22126e-10
1.01329e-09
-1.98855e-10
1.08954e-09
-1.80155e-10
1.15957e-09
-1.65113e-10
1.22442e-09
-1.53076e-10
1.28504e-09
-1.43576e-10
1.34229e-09
-1.36281e-10
1.39695e-09
-1.30965e-10
1.44978e-09
-1.27487e-10
1.50151e-09
-1.25782e-10
1.55288e-09
-1.25854e-10
1.60467e-09
-1.2778e-10
1.65769e-09
-1.31714e-10
1.71287e-09
-1.37905e-10
1.77125e-09
-1.46718e-10
1.83404e-09
-1.58671e-10
1.90266e-09
-1.74499e-10
1.97881e-09
-1.95236e-10
2.06448e-09
-2.22397e-10
2.16201e-09
-2.58062e-10
2.26455e-09
-3.32979e-10
2.32518e-09
-5.79345e-10
2.32939e-09
-9.13047e-10
2.28702e-09
-1.25412e-09
2.2099e-09
-1.57594e-09
2.1131e-09
-1.90768e-09
2.0011e-09
-2.23166e-09
1.85287e-09
-2.55986e-09
1.69024e-09
-2.79378e-09
1.54258e-09
-2.95667e-09
1.41238e-09
-3.0944e-09
1.29877e-09
-3.21213e-09
1.19787e-09
-3.29859e-09
1.10583e-09
-3.35754e-09
1.0184e-09
-3.38909e-09
9.31022e-10
-3.39088e-09
8.39642e-10
-3.36324e-09
7.38735e-10
-3.30173e-09
6.2509e-10
-3.2095e-09
4.95872e-10
-3.08375e-09
3.50828e-10
-2.92755e-09
1.93048e-10
-2.74754e-09
2.41344e-11
-2.53672e-09
-1.44341e-10
-2.30898e-09
-2.99519e-10
-2.06161e-09
-4.15458e-10
-1.80136e-09
-4.68369e-10
-1.51548e-09
-4.15256e-10
-1.20025e-09
-2.13761e-10
-8.27763e-10
1.51614e-10
-3.75076e-10
6.48848e-10
1.57799e-10
1.22723e-09
7.60225e-10
1.77604e-09
1.3402e-09
2.26094e-09
1.87107e-09
2.64952e-09
2.29726e-09
2.9565e-09
2.62557e-09
3.19819e-09
2.87599e-09
3.38912e-09
3.05668e-09
3.54461e-09
3.18797e-09
3.67511e-09
3.28471e-09
3.7887e-09
3.35357e-09
3.88955e-09
3.39955e-09
3.98084e-09
3.4265e-09
4.06496e-09
3.43703e-09
4.14347e-09
3.43273e-09
4.21759e-09
3.41339e-09
4.28796e-09
3.37868e-09
4.35437e-09
3.3194e-09
4.41758e-09
3.24388e-09
4.47724e-09
3.14609e-09
4.53367e-09
3.01567e-09
4.58211e-09
2.82547e-09
4.62417e-09
2.60887e-09
4.65282e-09
2.29431e-09
4.66709e-09
1.92376e-09
4.65562e-09
1.39555e-09
4.62053e-09
8.07947e-10
4.56212e-09
1.53063e-10
4.49025e-09
-5.45669e-10
4.41649e-09
-1.18208e-09
4.35472e-09
-1.70984e-09
4.30338e-09
-2.18214e-09
4.26123e-09
-2.53097e-09
4.21988e-09
-2.82915e-09
4.175e-09
-3.02883e-09
4.11731e-09
-3.16965e-09
4.04207e-09
-3.26779e-09
3.94772e-09
-3.31094e-09
3.83276e-09
-3.32436e-09
3.69839e-09
-3.3136e-09
3.54594e-09
-3.28613e-09
3.37683e-09
-3.2468e-09
3.1913e-09
-3.19501e-09
2.98812e-09
-3.13014e-09
2.76489e-09
-3.04876e-09
2.51977e-09
-2.9485e-09
2.25303e-09
-2.82856e-09
1.96812e-09
-2.68855e-09
1.67133e-09
-2.53577e-09
1.36783e-09
-2.37236e-09
1.06639e-09
-2.19329e-09
7.8256e-10
-1.9994e-09
5.15739e-10
-1.7883e-09
2.86986e-10
-1.5574e-09
1.13053e-10
-1.30058e-09
2.67197e-11
-1.00975e-09
6.65887e-11
-6.71985e-10
2.51937e-10
-2.72972e-10
5.77552e-10
1.98051e-10
1.00961e-09
7.45033e-10
1.46491e-09
1.30007e-09
1.88738e-09
1.81825e-09
2.24041e-09
2.24602e-09
2.5289e-09
2.59245e-09
2.75714e-09
2.8445e-09
2.93949e-09
3.03321e-09
3.09023e-09
3.17443e-09
3.21849e-09
3.27557e-09
3.33045e-09
3.34577e-09
3.43117e-09
3.39261e-09
3.5241e-09
3.42072e-09
3.61187e-09
3.43181e-09
3.69615e-09
3.42768e-09
3.77785e-09
3.40695e-09
3.85878e-09
3.36875e-09
3.93915e-09
3.31569e-09
4.02007e-09
3.24202e-09
4.10213e-09
3.14623e-09
4.18296e-09
3.00733e-09
4.26452e-09
2.84343e-09
4.3451e-09
2.64106e-09
4.41848e-09
2.34213e-09
4.48525e-09
2.01235e-09
4.53316e-09
1.53996e-09
4.56176e-09
9.91653e-10
4.56804e-09
3.67496e-10
4.5575e-09
-3.26536e-10
4.53881e-09
-1.00145e-09
4.52593e-09
-1.5741e-09
4.51807e-09
-2.06979e-09
4.5121e-09
-2.46876e-09
4.49957e-09
-2.76915e-09
4.47441e-09
-2.98202e-09
4.42774e-09
-3.14432e-09
4.35515e-09
-3.22946e-09
4.25331e-09
-3.27079e-09
4.11879e-09
-3.27396e-09
3.94941e-09
-3.24725e-09
3.74144e-09
-3.18564e-09
3.48158e-09
-3.06186e-09
3.16641e-09
-2.89433e-09
2.80646e-09
-2.69512e-09
2.428e-09
-2.43861e-09
2.10185e-09
-1.98098e-09
1.79546e-09
-1.70386e-09
1.5069e-09
-1.46812e-09
1.25577e-09
-1.21927e-09
1.06117e-09
-9.90203e-10
9.41552e-10
-7.61316e-10
9.10339e-10
-5.38918e-10
9.47686e-10
-3.66194e-10
1.00228e-09
-2.77457e-10
1.05883e-09
-2.1526e-10
1.11227e-09
-1.70433e-10
1.1606e-09
-1.38717e-10
1.20333e-09
-1.15832e-10
1.24066e-09
-9.83286e-11
1.27301e-09
-8.41203e-11
1.30077e-09
-7.20613e-11
1.3243e-09
-6.14892e-11
1.34388e-09
-5.19753e-11
1.3597e-09
-4.31839e-11
1.37185e-09
-3.47876e-11
1.38026e-09
-2.64133e-11
1.38465e-09
-1.76061e-11
1.38453e-09
-7.80023e-12
1.37903e-09
3.71926e-12
1.36684e-09
1.7895e-11
1.34607e-09
3.59222e-11
1.3141e-09
5.9319e-11
1.26734e-09
9.00813e-11
1.20097e-09
1.30921e-10
1.10852e-09
1.8583e-10
9.81319e-10
2.61344e-10
8.08052e-10
3.69313e-10
5.7549e-10
5.31839e-10
2.76811e-10
7.85088e-10
-4.81757e-11
1.15534e-09
-2.10604e-10
1.51091e-09
1.23064e-09
-1.6095e-10
-5.41011e-10
-2.57416e-10
-8.39006e-10
-2.53427e-10
-8.45208e-10
-1.91608e-10
-7.65348e-10
-9.98057e-11
-6.70348e-10
5.77904e-12
-5.81401e-10
1.14788e-10
-5.05002e-10
2.21226e-10
-4.41467e-10
3.2228e-10
-3.8908e-10
4.16894e-10
-3.45864e-10
5.04909e-10
-3.10141e-10
5.86629e-10
-2.80574e-10
6.62583e-10
-2.56109e-10
7.33399e-10
-2.35929e-10
7.99735e-10
-2.19412e-10
8.62251e-10
-2.06093e-10
9.21602e-10
-1.95632e-10
9.78433e-10
-1.87795e-10
1.03339e-09
-1.82443e-10
1.08713e-09
-1.7952e-10
1.14033e-09
-1.79055e-10
1.19371e-09
-1.81164e-10
1.24806e-09
-1.86062e-10
1.30423e-09
-1.94076e-10
1.36319e-09
-2.05676e-10
1.42602e-09
-2.21503e-10
1.49395e-09
-2.4243e-10
1.56834e-09
-2.6963e-10
1.65065e-09
-3.04706e-10
1.74234e-09
-3.49746e-10
1.83833e-09
-4.28971e-10
1.90399e-09
-6.4501e-10
1.92557e-09
-9.34624e-10
1.90802e-09
-1.23657e-09
1.85948e-09
-1.5274e-09
1.79102e-09
-1.83923e-09
1.70626e-09
-2.1469e-09
1.59311e-09
-2.44671e-09
1.47068e-09
-2.67134e-09
1.35926e-09
-2.84525e-09
1.25948e-09
-2.99462e-09
1.16967e-09
-3.12233e-09
1.08675e-09
-3.21566e-09
1.00742e-09
-3.27822e-09
9.27959e-10
-3.30962e-09
8.44479e-10
-3.3074e-09
7.5368e-10
-3.27244e-09
6.52558e-10
-3.20062e-09
5.38031e-10
-3.09499e-09
4.09141e-10
-2.95488e-09
2.66812e-10
-2.78524e-09
1.13435e-10
-2.59417e-09
-4.72965e-11
-2.37599e-09
-2.06997e-10
-2.14928e-09
-3.56253e-10
-1.91235e-09
-4.80658e-10
-1.67695e-09
-5.6292e-10
-1.43322e-09
-5.79854e-10
-1.18332e-09
-5.05683e-10
-9.01937e-10
-3.09944e-10
-5.70823e-10
1.99158e-11
-1.72073e-10
4.76599e-10
3.03536e-10
9.93571e-10
8.23239e-10
1.51908e-09
1.34559e-09
1.99631e-09
1.82006e-09
2.40198e-09
2.21993e-09
2.73817e-09
2.53982e-09
3.00874e-09
2.78613e-09
3.22712e-09
2.96963e-09
3.40554e-09
3.10632e-09
3.55492e-09
3.20422e-09
3.68249e-09
3.27197e-09
3.79383e-09
3.31513e-09
3.89301e-09
3.3378e-09
3.98283e-09
3.34287e-09
4.06531e-09
3.33086e-09
4.14172e-09
3.30223e-09
4.21224e-09
3.24885e-09
4.2779e-09
3.1782e-09
4.33856e-09
3.08541e-09
4.39461e-09
2.9596e-09
4.44172e-09
2.77834e-09
4.48171e-09
2.56885e-09
4.5084e-09
2.26761e-09
4.52201e-09
1.91016e-09
4.51381e-09
1.40374e-09
4.48865e-09
8.33116e-10
4.44917e-09
1.9254e-10
4.40476e-09
-5.01253e-10
4.36219e-09
-1.13951e-09
4.32848e-09
-1.67613e-09
4.29742e-09
-2.15108e-09
4.26517e-09
-2.49873e-09
4.22337e-09
-2.78734e-09
4.16549e-09
-2.97094e-09
4.08633e-09
-3.09048e-09
3.98613e-09
-3.16759e-09
3.86411e-09
-3.18891e-09
3.72205e-09
-3.1823e-09
3.56256e-09
-3.15411e-09
3.38768e-09
-3.11125e-09
3.1983e-09
-3.05742e-09
2.99367e-09
-2.99038e-09
2.77185e-09
-2.90833e-09
2.53092e-09
-2.80782e-09
2.27087e-09
-2.68844e-09
1.99464e-09
-2.55234e-09
1.70801e-09
-2.40192e-09
1.41805e-09
-2.24582e-09
1.13058e-09
-2.0849e-09
8.52749e-10
-1.91547e-09
5.91406e-10
-1.73806e-09
3.50697e-10
-1.54759e-09
1.40358e-10
-1.34706e-09
-2.89046e-11
-1.13131e-09
-1.37802e-10
-9.00853e-10
-1.63653e-10
-6.46132e-10
-8.60145e-11
-3.50611e-10
1.09697e-10
2.33623e-12
4.27412e-10
4.27313e-10
8.25041e-10
9.02434e-10
1.25253e-09
1.39076e-09
1.65828e-09
1.84028e-09
2.01756e-09
2.23317e-09
2.31998e-09
2.54208e-09
2.56829e-09
2.78492e-09
2.77302e-09
2.96974e-09
2.94356e-09
3.10505e-09
3.08804e-09
3.2013e-09
3.21345e-09
3.26719e-09
3.32499e-09
3.30916e-09
3.42662e-09
3.33014e-09
3.52112e-09
3.33315e-09
3.61018e-09
3.31787e-09
3.69602e-09
3.28288e-09
3.77933e-09
3.23235e-09
3.86144e-09
3.15989e-09
3.94315e-09
3.06451e-09
4.02243e-09
2.92804e-09
4.1013e-09
2.76455e-09
4.17858e-09
2.56377e-09
4.24898e-09
2.27173e-09
4.31437e-09
1.94696e-09
4.3655e-09
1.48883e-09
4.4051e-09
9.52053e-10
4.43298e-09
3.39619e-10
4.45453e-09
-3.48092e-10
4.47329e-09
-1.02021e-09
4.49394e-09
-1.59474e-09
4.50949e-09
-2.08534e-09
4.51349e-09
-2.47277e-09
4.4955e-09
-2.75115e-09
4.45131e-09
-2.93783e-09
4.3748e-09
-3.0678e-09
4.26483e-09
-3.11948e-09
4.121e-09
-3.12695e-09
3.94283e-09
-3.09579e-09
3.72983e-09
-3.03425e-09
3.48063e-09
-2.93643e-09
3.18832e-09
-2.76957e-09
2.85753e-09
-2.56359e-09
2.50558e-09
-2.34322e-09
2.15641e-09
-2.08948e-09
1.85124e-09
-1.67584e-09
1.56643e-09
-1.41905e-09
1.30422e-09
-1.2059e-09
1.07938e-09
-9.94417e-10
9.03533e-10
-8.14338e-10
7.85156e-10
-6.42931e-10
7.29444e-10
-4.83204e-10
7.25669e-10
-3.62418e-10
7.45676e-10
-2.97465e-10
7.77048e-10
-2.46632e-10
8.13038e-10
-2.06424e-10
8.49482e-10
-1.75162e-10
8.84073e-10
-1.50423e-10
9.15755e-10
-1.30011e-10
9.44115e-10
-1.1248e-10
9.69025e-10
-9.69717e-11
9.9048e-10
-8.29437e-11
1.0085e-09
-6.99981e-11
1.02309e-09
-5.77697e-11
1.03415e-09
-4.58515e-11
1.04148e-09
-3.37406e-11
1.04467e-09
-2.07919e-11
1.04304e-09
-6.17255e-12
1.03554e-09
1.12128e-11
1.02065e-09
3.27904e-11
9.96183e-10
6.03885e-11
9.59143e-10
9.63584e-11
9.05498e-10
1.43726e-10
8.30009e-10
2.06411e-10
7.26205e-10
2.89633e-10
5.8685e-10
4.007e-10
4.05789e-10
5.50374e-10
1.83726e-10
7.53901e-10
-5.66175e-11
1.02543e-09
-2.37844e-10
1.33656e-09
-2.20872e-10
1.49394e-09
1.00977e-09
-1.14513e-10
-4.26498e-10
-2.16284e-10
-7.37236e-10
-2.57207e-10
-8.04286e-10
-2.47401e-10
-7.75154e-10
-2.04058e-10
-7.1369e-10
-1.39992e-10
-6.45467e-10
-6.47445e-11
-5.80249e-10
1.51089e-11
-5.2132e-10
9.54995e-11
-4.69471e-10
1.74117e-10
-4.24481e-10
2.49756e-10
-3.8578e-10
3.21877e-10
-3.52695e-10
3.90351e-10
-3.24583e-10
4.55296e-10
-3.00874e-10
5.16982e-10
-2.81098e-10
5.75767e-10
-2.64878e-10
6.32069e-10
-2.51933e-10
6.86348e-10
-2.42074e-10
7.391e-10
-2.35196e-10
7.90859e-10
-2.31279e-10
8.42199e-10
-2.30395e-10
8.93745e-10
-2.3271e-10
9.46183e-10
-2.38499e-10
1.00027e-09
-2.48164e-10
1.05685e-09
-2.62256e-10
1.11686e-09
-2.8151e-10
1.18131e-09
-3.06885e-10
1.25131e-09
-3.39622e-10
1.32792e-09
-3.81324e-10
1.41216e-09
-4.33978e-10
1.49994e-09
-5.16756e-10
1.56468e-09
-7.09748e-10
1.59518e-09
-9.65125e-10
1.59452e-09
-1.23591e-09
1.56844e-09
-1.50132e-09
1.52435e-09
-1.79513e-09
1.46494e-09
-2.08749e-09
1.38259e-09
-2.36436e-09
1.29288e-09
-2.58162e-09
1.21021e-09
-2.76258e-09
1.1343e-09
-2.9187e-09
1.06311e-09
-3.05114e-09
9.94213e-10
-3.14677e-09
9.24935e-10
-3.20894e-09
8.52182e-10
-3.23686e-09
7.73025e-10
-3.22825e-09
6.84501e-10
-3.18392e-09
5.85279e-10
-3.1014e-09
4.73422e-10
-2.98314e-09
3.49126e-10
-2.83059e-09
2.14146e-10
-2.65027e-09
7.11922e-11
-2.45122e-09
-7.51434e-11
-2.22966e-09
-2.18447e-10
-2.00598e-09
-3.51888e-10
-1.77891e-09
-4.67191e-10
-1.56165e-09
-5.54902e-10
-1.34551e-09
-6.00961e-10
-1.13726e-09
-5.88497e-10
-9.14403e-10
-4.97077e-10
-6.6225e-10
-3.07111e-10
-3.62048e-10
-9.17669e-13
-2.66364e-12
4.02521e-10
4.19794e-10
8.68964e-10
8.7914e-10
1.34965e-09
1.33937e-09
1.80152e-09
1.76806e-09
2.20381e-09
2.13754e-09
2.54629e-09
2.44368e-09
2.8318e-09
2.68415e-09
3.06765e-09
2.87048e-09
3.26338e-09
3.00848e-09
3.42728e-09
3.10804e-09
3.5666e-09
3.17577e-09
3.68715e-09
3.21721e-09
3.79319e-09
3.23679e-09
3.8879e-09
3.23611e-09
3.97346e-09
3.21664e-09
4.05073e-09
3.17156e-09
4.12126e-09
3.10766e-09
4.18539e-09
3.02128e-09
4.24384e-09
2.90113e-09
4.2931e-09
2.72908e-09
4.33552e-09
2.52642e-09
4.36632e-09
2.23681e-09
4.38706e-09
1.88942e-09
4.39164e-09
1.39918e-09
4.38598e-09
8.38779e-10
4.37237e-09
2.06155e-10
4.35689e-09
-4.85774e-10
4.3407e-09
-1.12331e-09
4.32547e-09
-1.66091e-09
4.30238e-09
-2.12799e-09
4.26809e-09
-2.46445e-09
4.2116e-09
-2.73085e-09
4.13104e-09
-2.89038e-09
4.02674e-09
-2.98618e-09
3.89886e-09
-3.03971e-09
3.74977e-09
-3.03981e-09
3.58333e-09
-3.01587e-09
3.40272e-09
-2.9735e-09
3.2096e-09
-2.91813e-09
3.00386e-09
-2.85168e-09
2.78388e-09
-2.7704e-09
2.54784e-09
-2.67229e-09
2.29527e-09
-2.55525e-09
2.0286e-09
-2.42177e-09
1.7532e-09
-2.27693e-09
1.47615e-09
-2.12488e-09
1.20423e-09
-1.9739e-09
9.42167e-10
-1.82284e-09
6.9427e-10
-1.66758e-09
4.63798e-10
-1.5076e-09
2.53802e-10
-1.3376e-09
7.00018e-11
-1.16326e-09
-8.07166e-11
-9.80591e-10
-1.87459e-10
-7.94108e-10
-2.38682e-10
-5.94908e-10
-2.2037e-10
-3.68923e-10
-1.16837e-10
-1.01202e-10
8.79241e-11
2.22544e-10
3.85238e-10
6.05107e-10
7.48708e-10
1.02727e-09
1.13767e-09
1.45129e-09
1.51686e-09
1.85396e-09
1.86078e-09
2.19818e-09
2.1597e-09
2.48603e-09
2.41431e-09
2.71517e-09
2.6289e-09
2.89047e-09
2.81007e-09
3.02013e-09
2.96486e-09
3.11238e-09
3.09933e-09
3.17465e-09
3.21852e-09
3.21092e-09
3.32624e-09
3.22541e-09
3.42509e-09
3.21899e-09
3.51792e-09
3.19004e-09
3.60606e-09
3.1442e-09
3.69124e-09
3.07471e-09
3.77472e-09
2.98102e-09
3.85517e-09
2.84759e-09
3.93508e-09
2.68464e-09
4.01417e-09
2.48468e-09
4.08887e-09
2.19704e-09
4.16239e-09
1.87343e-09
4.22844e-09
1.42278e-09
4.29103e-09
8.89473e-10
4.34934e-09
2.813e-10
4.40477e-09
-4.0352e-10
4.45379e-09
-1.06922e-09
4.49443e-09
-1.63538e-09
4.51585e-09
-2.10677e-09
4.50931e-09
-2.46622e-09
4.46839e-09
-2.71024e-09
4.39239e-09
-2.86182e-09
4.27739e-09
-2.95279e-09
4.12621e-09
-2.96829e-09
3.94141e-09
-2.94214e-09
3.72505e-09
-2.87942e-09
3.47862e-09
-2.78781e-09
3.20347e-09
-2.66128e-09
2.89785e-09
-2.46395e-09
2.57009e-09
-2.23585e-09
2.23711e-09
-2.01026e-09
1.91602e-09
-1.76843e-09
1.63507e-09
-1.39491e-09
1.37746e-09
-1.16146e-09
1.14674e-09
-9.75173e-10
9.52984e-10
-8.00653e-10
8.01978e-10
-6.63322e-10
6.96273e-10
-5.37218e-10
6.36326e-10
-4.23253e-10
6.14381e-10
-3.40472e-10
6.13844e-10
-2.96928e-10
6.26343e-10
-2.59131e-10
6.46181e-10
-2.26262e-10
6.69279e-10
-1.9826e-10
6.93027e-10
-1.74171e-10
7.15936e-10
-1.52919e-10
7.37185e-10
-1.3373e-10
7.56313e-10
-1.16099e-10
7.73038e-10
-9.96683e-11
7.87156e-10
-8.41167e-11
7.98475e-10
-6.90886e-11
8.06755e-10
-5.41307e-11
8.11652e-10
-3.86379e-11
8.12657e-10
-2.17968e-11
8.09006e-10
-2.52177e-12
7.99575e-10
2.06439e-11
7.82771e-10
4.95948e-11
7.56367e-10
8.67922e-11
7.17338e-10
1.35387e-10
6.61731e-10
1.99333e-10
5.84676e-10
2.83466e-10
4.80793e-10
3.93517e-10
3.45502e-10
5.35991e-10
1.78355e-10
7.17521e-10
-9.73141e-12
9.41988e-10
-1.8258e-10
1.19828e-09
-2.63312e-10
1.4173e-09
-1.83225e-10
1.41385e-09
8.2654e-10
-7.87499e-11
-3.47748e-10
-1.67454e-10
-6.48531e-10
-2.2271e-10
-7.4903e-10
-2.40833e-10
-7.57031e-10
-2.29244e-10
-7.25279e-10
-1.9625e-10
-6.78461e-10
-1.49409e-10
-6.2709e-10
-9.43948e-11
-5.76334e-10
-3.52147e-11
-5.28651e-10
2.54704e-11
-4.85166e-10
8.59759e-11
-4.46286e-10
1.4531e-10
-4.12029e-10
2.02943e-10
-3.82216e-10
2.58652e-10
-3.56584e-10
3.12421e-10
-3.34867e-10
3.64374e-10
-3.1683e-10
4.14732e-10
-3.02292e-10
4.63793e-10
-2.91136e-10
5.11915e-10
-2.83318e-10
5.59511e-10
-2.78875e-10
6.07047e-10
-2.77931e-10
6.55047e-10
-2.8071e-10
7.04097e-10
-2.87549e-10
7.5485e-10
-2.98917e-10
8.08028e-10
-3.15435e-10
8.64425e-10
-3.37907e-10
9.24891e-10
-3.67351e-10
9.90309e-10
-4.0504e-10
1.06153e-09
-4.52546e-10
1.13929e-09
-5.11741e-10
1.22039e-09
-5.97856e-10
1.28425e-09
-7.73601e-10
1.32199e-09
-1.00287e-09
1.3354e-09
-1.24933e-09
1.32815e-09
-1.49407e-09
1.30468e-09
-1.77166e-09
1.26692e-09
-2.04973e-09
1.20991e-09
-2.30735e-09
1.14607e-09
-2.51777e-09
1.08577e-09
-2.70227e-09
1.02837e-09
-2.86131e-09
9.71613e-10
-2.99438e-09
9.13673e-10
-3.08882e-09
8.52476e-10
-3.14774e-09
7.85554e-10
-3.16994e-09
7.10614e-10
-3.1533e-09
6.2578e-10
-3.09908e-09
5.30084e-10
-3.00571e-09
4.22976e-10
-2.87604e-09
3.05532e-10
-2.71315e-09
1.80102e-10
-2.52485e-09
4.96698e-11
-2.3208e-09
-8.10446e-11
-2.09895e-09
-2.0714e-10
-1.87989e-09
-3.23633e-10
-1.66242e-09
-4.25721e-10
-1.45956e-09
-5.07566e-10
-1.26366e-09
-5.62158e-10
-1.08267e-09
-5.79287e-10
-8.97276e-10
-5.43627e-10
-6.97912e-10
-4.39706e-10
-4.65971e-10
-2.5002e-10
-1.92351e-10
3.10472e-11
1.38727e-10
3.95042e-10
5.15142e-10
8.1125e-10
9.2316e-10
1.24654e-09
1.33277e-09
1.66675e-09
1.71735e-09
2.05175e-09
2.05872e-09
2.38967e-09
2.34625e-09
2.67931e-09
2.58083e-09
2.92415e-09
2.7636e-09
3.13022e-09
2.90194e-09
3.30426e-09
3.00169e-09
3.45261e-09
3.06883e-09
3.58053e-09
3.10884e-09
3.6923e-09
3.12433e-09
3.79111e-09
3.11783e-09
3.87877e-09
3.0839e-09
3.95758e-09
3.02885e-09
4.0286e-09
2.95026e-09
4.09321e-09
2.83652e-09
4.14903e-09
2.67326e-09
4.1991e-09
2.47636e-09
4.24023e-09
2.19569e-09
4.27501e-09
1.85464e-09
4.29905e-09
1.37514e-09
4.31761e-09
8.20225e-10
4.33058e-09
1.93189e-10
4.33965e-09
-4.94843e-10
4.34078e-09
-1.12445e-09
4.33252e-09
-1.65265e-09
4.30638e-09
-2.10184e-09
4.25574e-09
-2.41381e-09
4.17528e-09
-2.65039e-09
4.06882e-09
-2.78392e-09
3.93632e-09
-2.85368e-09
3.78091e-09
-2.88429e-09
3.60742e-09
-2.86632e-09
3.42056e-09
-2.82901e-09
3.22306e-09
-2.776e-09
3.01551e-09
-2.71058e-09
2.7967e-09
-2.63287e-09
2.56481e-09
-2.5385e-09
2.31902e-09
-2.42651e-09
2.06102e-09
-2.29725e-09
1.79561e-09
-2.15636e-09
1.52968e-09
-2.011e-09
1.27027e-09
-1.86547e-09
1.02258e-09
-1.72622e-09
7.89278e-10
-1.58955e-09
5.72173e-10
-1.45048e-09
3.72604e-10
-1.30804e-09
1.92715e-10
-1.15771e-09
3.59472e-11
-1.00649e-09
-9.33299e-11
-8.51313e-10
-1.89824e-10
-6.97613e-10
-2.46932e-10
-5.37798e-10
-2.5512e-10
-3.60735e-10
-2.0346e-10
-1.52865e-10
-7.76375e-11
9.67152e-11
1.2818e-10
3.99282e-10
4.07811e-10
7.47633e-10
7.37488e-10
1.12161e-09
1.09144e-09
1.50001e-09
1.43754e-09
1.85212e-09
1.76001e-09
2.1636e-09
2.04818e-09
2.42701e-09
2.29913e-09
2.63952e-09
2.51489e-09
2.80434e-09
2.70012e-09
2.92713e-09
2.86009e-09
3.01466e-09
2.99988e-09
3.0711e-09
3.12386e-09
3.10142e-09
3.23538e-09
3.10746e-09
3.33792e-09
3.08749e-09
3.4336e-09
3.04852e-09
3.52475e-09
2.98355e-09
3.61328e-09
2.8925e-09
3.69891e-09
2.76196e-09
3.78478e-09
2.59877e-09
3.87176e-09
2.39769e-09
3.95818e-09
2.11062e-09
4.04801e-09
1.7836e-09
4.13671e-09
1.33408e-09
4.22725e-09
7.98935e-10
4.31556e-09
1.92989e-10
4.3974e-09
-4.85363e-10
4.46284e-09
-1.13466e-09
4.50542e-09
-1.67795e-09
4.5129e-09
-2.11425e-09
4.48061e-09
-2.43393e-09
4.40587e-09
-2.63549e-09
4.28984e-09
-2.74579e-09
4.13341e-09
-2.79636e-09
3.94297e-09
-2.77783e-09
3.72347e-09
-2.72262e-09
3.47862e-09
-2.63457e-09
3.21124e-09
-2.52042e-09
2.92427e-09
-2.37431e-09
2.61871e-09
-2.1584e-09
2.30334e-09
-1.92048e-09
1.99209e-09
-1.69903e-09
1.69708e-09
-1.47344e-09
1.44107e-09
-1.13893e-09
1.21181e-09
-9.32218e-10
1.01198e-09
-7.75349e-10
8.47419e-10
-6.36094e-10
7.19659e-10
-5.35557e-10
6.27957e-10
-4.4551e-10
5.70526e-10
-3.65819e-10
5.40891e-10
-3.10835e-10
5.28149e-10
-2.84185e-10
5.26999e-10
-2.57981e-10
5.33342e-10
-2.32605e-10
5.4397e-10
-2.08888e-10
5.56632e-10
-1.86833e-10
5.69876e-10
-1.66163e-10
5.82774e-10
-1.46628e-10
5.94705e-10
-1.28031e-10
6.05222e-10
-1.10185e-10
6.13965e-10
-9.28593e-11
6.206e-10
-7.57242e-11
6.24773e-10
-5.83037e-11
6.26053e-10
-3.99174e-11
6.23869e-10
-1.96124e-11
6.17431e-10
3.91579e-12
6.05633e-10
3.2442e-11
5.86946e-10
6.82814e-11