/*--------------------------------*- C++ -*----------------------------------*\
| =========                 |                                                 |
| \\      /  F ield         | OpenFOAM: The Open Source CFD Toolbox           |
|  \\    /   O peration     | Version:  2506                                  |
|   \\  /    A nd           | Website:  www.openfoam.com                      |
|    \\/     M anipulation  |                                                 |
\*---------------------------------------------------------------------------*/
FoamFile
{
    version     2.0;
    format      ascii;
    arch        "LSB;label=32;scalar=64";
    class       surfaceScalarField;
    location    "2.6";
    object      phi;
}
// * * * * * * * * * * * * * * * * * * * * * * * * * * * * * * * * * * * * * //

dimensions      [0 3 -1 0 0 0 0];

oriented        oriented;

internalField   nonuniform List<scalar> 
7780
(
9.9326e-10
-9.93259e-10
1.71547e-09
-7.22209e-10
2.13784e-09
-4.22372e-10
2.41998e-09
-2.82142e-10
2.61554e-09
-1.95562e-10
2.75333e-09
-1.3779e-10
2.85556e-09
-1.02225e-10
2.93602e-09
-8.04566e-11
3.00232e-09
-6.63048e-11
3.05892e-09
-5.65982e-11
3.10862e-09
-4.9697e-11
3.15325e-09
-4.463e-11
3.19405e-09
-4.0805e-11
3.23191e-09
-3.78636e-11
3.2675e-09
-3.55829e-11
3.30132e-09
-3.38194e-11
3.3338e-09
-3.24803e-11
3.3653e-09
-3.15076e-11
3.39617e-09
-3.08691e-11
3.42673e-09
-3.05535e-11
3.45729e-09
-3.05681e-11
3.48823e-09
-3.09389e-11
3.51995e-09
-3.17114e-11
3.5529e-09
-3.29571e-11
3.58769e-09
-3.47856e-11
3.62505e-09
-3.73604e-11
3.66598e-09
-4.09306e-11
3.71186e-09
-4.58832e-11
3.76466e-09
-5.2801e-11
3.82702e-09
-6.23606e-11
3.88254e-09
-1.29268e-10
3.84387e-09
-4.81509e-10
3.70504e-09
-9.44494e-10
3.49702e-09
-1.38233e-09
3.24445e-09
-1.76867e-09
2.98805e-09
-2.12915e-09
2.74876e-09
-2.47039e-09
2.4398e-09
-2.87655e-09
2.10179e-09
-3.14811e-09
1.82446e-09
-3.28158e-09
1.59988e-09
-3.38439e-09
1.4252e-09
-3.46661e-09
1.28971e-09
-3.52504e-09
1.18492e-09
-3.56271e-09
1.10276e-09
-3.58035e-09
1.03429e-09
-3.57688e-09
9.76476e-10
-3.55225e-09
9.20263e-10
-3.50595e-09
8.60586e-10
-3.43747e-09
7.91758e-10
-3.34319e-09
7.14708e-10
-3.2189e-09
6.47399e-10
-3.06208e-09
5.82442e-10
-2.87395e-09
5.60244e-10
-2.63818e-09
6.02194e-10
-2.35126e-09
7.60822e-10
-1.98489e-09
1.04052e-09
-1.53509e-09
1.45909e-09
-9.46667e-10
1.94804e-09
-2.34161e-10
2.40271e-09
5.24096e-10
2.76934e-09
1.23742e-09
3.04744e-09
1.88535e-09
3.24738e-09
2.32378e-09
3.40671e-09
2.69453e-09
3.53299e-09
2.93541e-09
3.64411e-09
3.12527e-09
3.7447e-09
3.27285e-09
3.83596e-09
3.37602e-09
3.92106e-09
3.45447e-09
4.00096e-09
3.51381e-09
4.07759e-09
3.55753e-09
4.151e-09
3.584e-09
4.22184e-09
3.59614e-09
4.29083e-09
3.59562e-09
4.35832e-09
3.58264e-09
4.42472e-09
3.55655e-09
4.49015e-09
3.51602e-09
4.55432e-09
3.45036e-09
4.61784e-09
3.36991e-09
4.6802e-09
3.26645e-09
4.74193e-09
3.13098e-09
4.79895e-09
2.92634e-09
4.85334e-09
2.69856e-09
4.89882e-09
2.35874e-09
4.9346e-09
1.96046e-09
4.94818e-09
1.38005e-09
4.9371e-09
7.41582e-10
4.8919e-09
3.15803e-11
4.80955e-09
-7.06463e-10
4.69294e-09
-1.35859e-09
4.56117e-09
-1.8675e-09
4.42524e-09
-2.31636e-09
4.3093e-09
-2.63912e-09
4.21337e-09
-2.92583e-09
4.14221e-09
-3.12222e-09
4.08873e-09
-3.27721e-09
4.04349e-09
-3.40322e-09
3.99917e-09
-3.48018e-09
3.94962e-09
-3.53245e-09
3.89023e-09
-3.56417e-09
3.81651e-09
-3.57733e-09
3.72692e-09
-3.57621e-09
3.62198e-09
-3.5618e-09
3.50355e-09
-3.53645e-09
3.37326e-09
-3.50017e-09
3.23204e-09
-3.45113e-09
3.07899e-09
-3.38583e-09
2.91281e-09
-3.29566e-09
2.73531e-09
-3.17736e-09
2.5427e-09
-3.03444e-09
2.33388e-09
-2.85525e-09
2.13546e-09
-2.60702e-09
1.94537e-09
-2.33785e-09
1.82649e-09
-1.97098e-09
1.78847e-09
-1.55406e-09
1.87799e-09
-1.02317e-09
2.09218e-09
-3.79504e-10
2.3609e-09
3.1683e-10
2.61742e-09
1.0132e-09
2.83453e-09
1.67468e-09
2.99161e-09
2.17424e-09
3.11321e-09
2.5689e-09
3.21089e-09
2.84399e-09
3.29907e-09
3.07177e-09
3.37852e-09
3.22186e-09
3.45303e-09
3.33805e-09
3.52551e-09
3.43179e-09
3.59642e-09
3.49947e-09
3.66601e-09
3.54538e-09
3.73535e-09
3.57594e-09
3.80492e-09
3.59306e-09
3.87538e-09
3.59732e-09
3.94701e-09
3.58892e-09
4.0199e-09
3.5652e-09
4.09543e-09
3.5274e-09
4.17328e-09
3.47485e-09
4.25447e-09
3.40388e-09
4.33958e-09
3.31185e-09
4.4267e-09
3.17212e-09
4.51818e-09
3.01147e-09
4.61252e-09
2.80897e-09
4.70451e-09
2.4975e-09
4.79495e-09
2.15593e-09
4.87105e-09
1.64559e-09
4.9291e-09
1.0554e-09
4.95665e-09
3.77644e-10
4.94515e-09
-3.64179e-10
4.89111e-09
-1.07052e-09
4.80912e-09
-1.63954e-09
4.71053e-09
-2.12267e-09
4.61604e-09
-2.50824e-09
4.53752e-09
-2.80915e-09
4.47921e-09
-3.03363e-09
4.43225e-09
-3.22652e-09
4.39401e-09
-3.35131e-09
4.35712e-09
-3.44335e-09
4.31408e-09
-3.50679e-09
4.25827e-09
-3.54925e-09
4.18388e-09
-3.56519e-09
4.07325e-09
-3.54899e-09
3.91357e-09
-3.50769e-09
3.68943e-09
-3.439e-09
3.34695e-09
-3.30429e-09
3.10572e-09
-2.70619e-09
2.89755e-09
-2.37618e-09
2.7135e-09
-2.09581e-09
2.58179e-09
-1.74513e-09
2.51984e-09
-1.36483e-09
2.54861e-09
-9.29901e-10
2.6679e-09
-4.70498e-10
2.80572e-09
-1.52519e-10
2.88536e-09
-7.96394e-11
2.93139e-09
-4.60307e-11
2.9591e-09
-2.77105e-11
2.97743e-09
-1.83334e-11
2.99126e-09
-1.38303e-11
3.00287e-09
-1.16038e-11
3.01315e-09
-1.02887e-11
3.02238e-09
-9.22158e-12
3.03045e-09
-8.07457e-12
3.03722e-09
-6.76525e-12
3.04247e-09
-5.24952e-12
3.04608e-09
-3.61281e-12
3.04786e-09
-1.78024e-12
3.04768e-09
1.73603e-13
3.04569e-09
1.9989e-12
3.04162e-09
4.06502e-12
3.03529e-09
6.33346e-12
3.02636e-09
8.92666e-12
3.01434e-09
1.20226e-11
2.99845e-09
1.58841e-11
2.9775e-09
2.09504e-11
2.94944e-09
2.8064e-11
2.91039e-09
3.90518e-11
2.85219e-09
5.81979e-11
2.75632e-09
9.58687e-11
2.57865e-09
1.7767e-10
2.20746e-09
3.71188e-10
1.36919e-09
8.3827e-10
1.36919e-09
-9.24052e-11
-9.00854e-10
1.40735e-10
-9.5535e-10
4.50077e-10
-7.31713e-10
7.19411e-10
-5.51475e-10
9.43859e-10
-4.20011e-10
1.12974e-09
-3.23669e-10
1.2841e-09
-2.56587e-10
1.414e-09
-2.1036e-10
1.52521e-09
-1.77512e-10
1.62198e-09
-1.53367e-10
1.70743e-09
-1.35148e-10
1.78389e-09
-1.2109e-10
1.85312e-09
-1.10032e-10
1.91647e-09
-1.01216e-10
1.97502e-09
-9.41353e-11
2.02965e-09
-8.84487e-11
2.0811e-09
-8.3926e-11
2.13001e-09
-8.04181e-11
2.17698e-09
-7.78391e-11
2.22258e-09
-7.61551e-11
2.26739e-09
-7.53801e-11
2.31203e-09
-7.55747e-11
2.35717e-09
-7.68515e-11
2.4036e-09
-7.93866e-11
2.45225e-09
-8.3442e-11
2.50429e-09
-8.93996e-11
2.56118e-09
-9.78207e-11
2.62484e-09
-1.09542e-10
2.69792e-09
-1.25876e-10
2.78429e-09
-1.48734e-10
2.87324e-09
-2.18221e-10
2.89682e-09
-5.05084e-10
2.844e-09
-8.91674e-10
2.73569e-09
-1.27402e-09
2.59184e-09
-1.62483e-09
2.43396e-09
-1.97127e-09
2.27236e-09
-2.30879e-09
2.06718e-09
-2.67137e-09
1.84234e-09
-2.92328e-09
1.64361e-09
-3.08284e-09
1.47481e-09
-3.21559e-09
1.33473e-09
-3.32653e-09
1.21703e-09
-3.40733e-09
1.11596e-09
-3.46163e-09
1.02601e-09
-3.4904e-09
9.41666e-10
-3.49254e-09
8.5845e-10
-3.46903e-09
7.69961e-10
-3.41745e-09
6.71914e-10
-3.33943e-09
5.59644e-10
-3.23092e-09
4.33148e-10
-3.0924e-09
2.9864e-10
-2.92757e-09
1.53842e-10
-2.72915e-09
1.70982e-11
-2.50143e-09
-9.47421e-11
-2.23941e-09
-1.42805e-10
-1.93682e-09
-9.47479e-11
-1.58314e-09
1.1554e-10
-1.15696e-09
5.1265e-10
-6.31274e-10
1.04749e-09
-1.07423e-11
1.62848e-09
6.56419e-10
2.17236e-09
1.34145e-09
2.60397e-09
1.89215e-09
2.93944e-09
2.35905e-09
3.18654e-09
2.68831e-09
3.3774e-09
2.93443e-09
3.53116e-09
3.11911e-09
3.65859e-09
3.24858e-09
3.769e-09
3.34403e-09
3.86729e-09
3.41549e-09
3.95758e-09
3.46723e-09
4.04126e-09
3.50032e-09
4.11981e-09
3.51761e-09
4.19452e-09
3.52093e-09
4.26617e-09
3.51102e-09
4.33547e-09
3.48728e-09
4.40266e-09
3.44884e-09
4.46742e-09
3.38561e-09
4.53042e-09
3.30689e-09
4.5913e-09
3.20557e-09
4.65035e-09
3.07192e-09
4.70291e-09
2.87378e-09
4.75065e-09
2.65081e-09
4.78652e-09
2.32286e-09
4.80901e-09
1.93797e-09
4.80504e-09
1.38401e-09
4.77379e-09
7.72837e-10
4.71067e-09
9.46987e-11
4.6216e-09
-6.17385e-10
4.51867e-09
-1.25566e-09
4.42275e-09
-1.77158e-09
4.34069e-09
-2.2343e-09
4.27668e-09
-2.57511e-09
4.22556e-09
-2.87472e-09
4.18425e-09
-3.0809e-09
4.14276e-09
-3.23573e-09
4.09465e-09
-3.35511e-09
4.03606e-09
-3.4216e-09
3.96394e-09
-3.46033e-09
3.87481e-09
-3.47503e-09
3.76882e-09
-3.47133e-09
3.64832e-09
-3.4557e-09
3.51577e-09
-3.42925e-09
3.37286e-09
-3.39356e-09
3.21963e-09
-3.34694e-09
3.05478e-09
-3.28628e-09
2.87608e-09
-3.20713e-09
2.68137e-09
-3.10094e-09
2.47069e-09
-2.96667e-09
2.24215e-09
-2.8059e-09
1.9971e-09
-2.61019e-09
1.7511e-09
-2.36102e-09
1.50717e-09
-2.09393e-09
1.29682e-09
-1.76064e-09
1.1367e-09
-1.39394e-09
1.07057e-09
-9.57031e-10
1.14196e-09
-4.50896e-10
1.35568e-09
1.03112e-10
1.67507e-09
6.93813e-10
2.03711e-09
1.31263e-09
2.36207e-09
1.84928e-09
2.62851e-09
2.30245e-09
2.83469e-09
2.63782e-09
3.00007e-09
2.9064e-09
3.13338e-09
3.08854e-09
3.24603e-09
3.22538e-09
3.34647e-09
3.33133e-09
3.43826e-09
3.40768e-09
3.52352e-09
3.46014e-09
3.60466e-09
3.49482e-09
3.68321e-09
3.51452e-09
3.76049e-09
3.52005e-09
3.83723e-09
3.51219e-09
3.91373e-09
3.48871e-09
3.9915e-09
3.44964e-09
4.07041e-09
3.39594e-09
4.15148e-09
3.3228e-09
4.2352e-09
3.22812e-09
4.3193e-09
3.08802e-09
4.40591e-09
2.92485e-09
4.49333e-09
2.72155e-09
4.57536e-09
2.41548e-09
4.65212e-09
2.07917e-09
4.70964e-09
1.58806e-09
4.74438e-09
1.02067e-09
4.74745e-09
3.74572e-10
4.71897e-09
-3.35693e-10
4.6666e-09
-1.01816e-09
4.61186e-09
-1.58479e-09
4.56535e-09
-2.07616e-09
4.53186e-09
-2.47476e-09
4.50681e-09
-2.78412e-09
4.48695e-09
-3.01379e-09
4.46267e-09
-3.20224e-09
4.42814e-09
-3.3168e-09
4.37809e-09
-3.39331e-09
4.30679e-09
-3.43547e-09
4.20941e-09
-3.45182e-09
4.08262e-09
-3.43836e-09
3.91206e-09
-3.3784e-09
3.68948e-09
-3.28511e-09
3.41556e-09
-3.16508e-09
3.09916e-09
-2.98791e-09
2.84635e-09
-2.4534e-09
2.61544e-09
-2.14527e-09
2.39726e-09
-1.87763e-09
2.20625e-09
-1.55412e-09
2.06109e-09
-1.21967e-09
1.98058e-09
-8.49386e-10
1.98038e-09
-4.70305e-10
2.03225e-09
-2.04386e-10
2.07494e-09
-1.22335e-10
2.10469e-09
-7.57813e-11
2.12435e-09
-4.73682e-11
2.13761e-09
-3.1596e-11
2.14734e-09
-2.35557e-11
2.15504e-09
-1.93086e-11
2.16119e-09
-1.64376e-11
2.16563e-09
-1.36547e-11
2.16789e-09
-1.03358e-11
2.16742e-09
-6.30279e-12
2.16376e-09
-1.58614e-12
2.15651e-09
3.63465e-12
2.14542e-09
9.3172e-12
2.13027e-09
1.53205e-11
2.11069e-09
2.15765e-11
2.08646e-09
2.82928e-11
2.05709e-09
3.57087e-11
2.02178e-09
4.42379e-11
1.97932e-09
5.44755e-11
1.92793e-09
6.72745e-11
1.86491e-09
8.39737e-11
1.78602e-09
1.06958e-10
1.68409e-09
1.40974e-10
1.54616e-09
1.96134e-10
1.34777e-09
2.9426e-10
1.0456e-09
4.79839e-10
5.90126e-10
8.26658e-10
7.73458e-11
1.35105e-09
1.44654e-09
-1.99746e-10
-7.01108e-10
-2.21198e-10
-9.33898e-10
-1.13251e-10
-8.39659e-10
3.79676e-11
-7.02694e-10
1.96967e-10
-5.7901e-10
3.51298e-10
-4.78e-10
4.94805e-10
-4.00094e-10
6.25477e-10
-3.41031e-10
7.43744e-10
-2.9578e-10
8.50876e-10
-2.60499e-10
9.48269e-10
-2.32542e-10
1.03724e-09
-2.10063e-10
1.11897e-09
-1.9176e-10
1.19447e-09
-1.7672e-10
1.26464e-09
-1.64297e-10
1.33023e-09
-1.54038e-10
1.39193e-09
-1.45628e-10
1.45037e-09
-1.3886e-10
1.50615e-09
-1.33616e-10
1.55985e-09
-1.29853e-10
1.61207e-09
-1.27602e-10
1.66346e-09
-1.26966e-10
1.71474e-09
-1.2813e-10
1.76673e-09
-1.31375e-10
1.8204e-09
-1.37111e-10
1.87691e-09
-1.45915e-10
1.93769e-09
-1.586e-10
2.00446e-09
-1.76317e-10
2.07934e-09
-2.00754e-10
2.16488e-09
-2.34269e-10
2.25437e-09
-3.07711e-10
2.30021e-09
-5.50928e-10
2.28733e-09
-8.78792e-10
2.22591e-09
-1.21261e-09
2.12934e-09
-1.52825e-09
2.01456e-09
-1.85649e-09
1.88843e-09
-2.18266e-09
1.73093e-09
-2.51386e-09
1.56453e-09
-2.75688e-09
1.41774e-09
-2.93606e-09
1.29138e-09
-3.08922e-09
1.18266e-09
-3.21782e-09
1.087e-09
-3.31166e-09
1.00022e-09
-3.37486e-09
9.18024e-10
-3.40821e-09
8.36082e-10
-3.4106e-09
7.50364e-10
-3.38331e-09
6.56168e-10
-3.32324e-09
5.50142e-10
-3.2334e-09
4.29466e-10
-3.11025e-09
2.94325e-10
-2.95726e-09
1.47482e-10
-2.78073e-09
-9.8161e-12
-2.57186e-09
-1.6638e-10
-2.34487e-09
-3.09857e-10
-2.09593e-09
-4.1498e-10
-1.83169e-09
-4.58786e-10
-1.53933e-09
-3.99083e-10
-1.21666e-09
-1.93952e-10
-8.36406e-10
1.72304e-10
-3.77002e-10
6.68537e-10
1.60179e-10
1.24433e-09
7.65641e-10
1.79007e-09
1.34642e-09
2.2716e-09
1.87755e-09
2.6569e-09
2.30308e-09
2.9611e-09
2.6303e-09
3.20045e-09
2.87982e-09
3.38956e-09
3.05951e-09
3.54375e-09
3.18984e-09
3.6734e-09
3.28584e-09
3.78647e-09
3.35415e-09
3.88708e-09
3.39971e-09
3.97835e-09
3.42636e-09
4.0626e-09
3.4367e-09
4.14134e-09
3.43228e-09
4.21576e-09
3.41287e-09
4.28646e-09
3.37812e-09
4.35321e-09
3.31884e-09
4.41677e-09
3.24331e-09
4.47678e-09
3.14554e-09
4.53353e-09
3.01515e-09
4.5823e-09
2.82499e-09
4.62466e-09
2.60844e-09
4.6536e-09
2.29392e-09
4.66814e-09
1.92342e-09
4.65693e-09
1.39522e-09
4.62211e-09
8.0765e-10
4.56401e-09
1.52798e-10
4.49267e-09
-5.4604e-10
4.41985e-09
-1.18284e-09
4.3597e-09
-1.71143e-09
4.3108e-09
-2.1854e-09
4.27247e-09
-2.53679e-09
4.23683e-09
-2.83908e-09
4.19735e-09
-3.04142e-09
4.14844e-09
-3.1868e-09
4.08573e-09
-3.29241e-09
4.00592e-09
-3.3418e-09
3.90856e-09
-3.36298e-09
3.79496e-09
-3.36143e-09
3.66804e-09
-3.34441e-09
3.53039e-09
-3.31805e-09
3.3838e-09
-3.28265e-09
3.22865e-09
-3.23842e-09
3.0636e-09
-3.18189e-09
2.88652e-09
-3.10921e-09
2.69535e-09
-3.01596e-09
2.48878e-09
-2.89438e-09
2.26779e-09
-2.74567e-09
2.03287e-09
-2.57098e-09
1.78871e-09
-2.36603e-09
1.54684e-09
-2.11914e-09
1.30978e-09
-1.85687e-09
1.09466e-09
-1.54552e-09
9.13469e-10
-1.21275e-09
7.90765e-10
-8.34326e-10
7.58442e-10
-4.18572e-10
8.41312e-10
2.02421e-11
1.0499e-09
4.85229e-10
1.36519e-09
9.97335e-10
1.71931e-09
1.49516e-09
2.06125e-09
1.96051e-09
2.35662e-09
2.34247e-09
2.60373e-09
2.65931e-09
2.80407e-09
2.88822e-09
2.96808e-09
3.06141e-09
3.10702e-09
3.19241e-09
3.22779e-09
3.28692e-09
3.33499e-09
3.35295e-09
3.43274e-09
3.39707e-09
3.52388e-09
3.42338e-09
3.61064e-09
3.4333e-09
3.69441e-09
3.42841e-09
3.77594e-09
3.40718e-09
3.85691e-09
3.36866e-09
3.93744e-09
3.31539e-09
4.01862e-09
3.24162e-09
4.10094e-09
3.14579e-09
4.18203e-09
3.00692e-09
4.26381e-09
2.84307e-09
4.34455e-09
2.6408e-09
4.41797e-09
2.34205e-09
4.48466e-09
2.01248e-09
4.53227e-09
1.54044e-09
4.56033e-09
9.92602e-10
4.56588e-09
3.69025e-10
4.55465e-09
-3.24459e-10
4.53591e-09
-9.99423e-10
4.5239e-09
-1.57278e-09
4.51839e-09
-2.07065e-09
4.51667e-09
-2.47304e-09
4.51147e-09
-2.77894e-09
4.49714e-09
-2.99948e-09
4.46309e-09
-3.16821e-09
4.40748e-09
-3.26121e-09
4.32725e-09
-3.31308e-09
4.21949e-09
-3.3277e-09
4.08285e-09
-3.31516e-09
3.91665e-09
-3.27211e-09
3.71014e-09
-3.17186e-09
3.4624e-09
-3.03734e-09
3.18612e-09
-2.88881e-09
2.90237e-09
-2.70419e-09
2.66841e-09
-2.21947e-09
2.45076e-09
-1.92764e-09
2.24466e-09
-1.67153e-09
2.06029e-09
-1.36975e-09
1.91119e-09
-1.07057e-09
1.80772e-09
-7.4591e-10
1.7595e-09
-4.22085e-10
1.75377e-09
-1.98655e-10
1.75736e-09
-1.25929e-10
1.76283e-09
-8.12504e-11
1.76823e-09
-5.27689e-11
1.77286e-09
-3.62315e-11
1.77662e-09
-2.7313e-11
1.77939e-09
-2.20808e-11
1.78079e-09
-1.7833e-11
1.78016e-09
-1.30275e-11
1.77676e-09
-6.93362e-12
1.76985e-09
6.05683e-13
1.7588e-09
9.46556e-12
1.74305e-09
1.93797e-11
1.72228e-09
3.00963e-11
1.69616e-09
4.14396e-11
1.66432e-09
5.34176e-11
1.62629e-09
6.63188e-11
1.58131e-09
8.06894e-11
1.52818e-09
9.7365e-11
1.46514e-09
1.17519e-10
1.38962e-09
1.42791e-10
1.29796e-09
1.75638e-10
1.1848e-09
2.2012e-10
1.04221e-09
2.83559e-10
8.58634e-10
3.79712e-10
6.19106e-10
5.33789e-10
3.13795e-10
7.85149e-10
-2.23759e-11
1.16283e-09
-2.01184e-10
1.52986e-09
1.24535e-09
-1.61251e-10
-5.39856e-10
-2.58102e-10
-8.37047e-10
-2.54134e-10
-8.43628e-10
-1.91782e-10
-7.65046e-10
-9.8732e-11
-6.7206e-10
8.88791e-12
-5.8562e-10
1.20716e-10
-5.11922e-10
2.30747e-10
-4.51063e-10
3.36098e-10
-4.0113e-10
4.35594e-10
-3.59995e-10
5.28934e-10
-3.25881e-10
6.16258e-10
-2.97386e-10
6.97922e-10
-2.73424e-10
7.74375e-10
-2.53173e-10
8.46097e-10
-2.36019e-10
9.13567e-10
-2.21509e-10
9.77262e-10
-2.09322e-10
1.03765e-09
-1.99249e-10
1.09521e-09
-1.91172e-10
1.15042e-09
-1.85066e-10
1.20381e-09
-1.80993e-10
1.25595e-09
-1.79107e-10
1.30749e-09
-1.79668e-10
1.35917e-09
-1.83057e-10
1.41187e-09
-1.89814e-10
1.46663e-09
-2.00676e-10
1.52468e-09
-2.16642e-10
1.58742e-09
-2.39064e-10
1.65646e-09
-2.69793e-10
1.73348e-09
-3.11288e-10
1.8135e-09
-3.87734e-10
1.86114e-09
-5.98561e-10
1.86289e-09
-8.80549e-10
1.82527e-09
-1.17499e-09
1.7589e-09
-1.46189e-09
1.67672e-09
-1.77432e-09
1.58373e-09
-2.08967e-09
1.46806e-09
-2.39818e-09
1.34784e-09
-2.63665e-09
1.24119e-09
-2.82941e-09
1.147e-09
-2.99503e-09
1.06235e-09
-3.13317e-09
9.84042e-10
-3.23335e-09
9.09039e-10
-3.29986e-09
8.33916e-10
-3.33309e-09
7.55179e-10
-3.33186e-09
6.69878e-10
-3.29801e-09
5.75287e-10
-3.22866e-09
4.68161e-10
-3.12627e-09
3.47819e-10
-2.98991e-09
2.1514e-10
-2.82459e-09
7.22655e-11
-2.63786e-09
-7.73778e-11
-2.42222e-09
-2.25639e-10
-2.19661e-09
-3.63594e-10
-1.95798e-09
-4.77221e-10
-1.71806e-09
-5.49621e-10
-1.46693e-09
-5.58831e-10
-1.20745e-09
-4.79866e-10
-9.15374e-10
-2.82184e-10
-5.7469e-10
4.71321e-11
-1.69145e-10
5.01565e-10
3.1121e-10
1.01517e-09
8.32833e-10
1.53668e-09
1.35609e-09
2.00963e-09
1.83019e-09
2.41128e-09
2.22871e-09
2.74377e-09
2.54737e-09
3.01112e-09
2.79215e-09
3.22702e-09
2.97391e-09
3.40366e-09
3.10918e-09
3.55184e-09
3.20598e-09
3.67871e-09
3.27286e-09
3.78975e-09
3.31534e-09
3.88894e-09
3.33751e-09
3.97899e-09
3.34223e-09
4.06186e-09
3.32998e-09
4.13877e-09
3.30119e-09
4.20985e-09
3.24773e-09
4.27611e-09
3.17703e-09
4.33739e-09
3.08425e-09
4.39406e-09
2.95846e-09
4.44179e-09
2.77726e-09
4.48241e-09
2.56783e-09
4.5097e-09
2.26663e-09
4.52389e-09
1.90923e-09
4.51632e-09
1.40278e-09
4.49186e-09
8.32107e-10
4.45331e-09
1.91355e-10
4.41023e-09
-5.02969e-10
4.36968e-09
-1.14228e-09
4.33899e-09
-1.68075e-09
4.3125e-09
-2.1589e-09
4.28654e-09
-2.51084e-09
4.25101e-09
-2.80356e-09
4.20241e-09
-2.99282e-09
4.13669e-09
-3.12108e-09
4.05103e-09
-3.20675e-09
3.9468e-09
-3.23756e-09
3.82651e-09
-3.2427e-09
3.6933e-09
-3.22821e-09
3.55059e-09
-3.20171e-09
3.40072e-09
-3.16817e-09
3.24434e-09
-3.12626e-09
3.08052e-09
-3.07459e-09
2.90704e-09
-3.00842e-09
2.72183e-09
-2.924e-09
2.52375e-09
-2.81789e-09
2.31307e-09
-2.6837e-09
2.09238e-09
-2.52497e-09
1.86448e-09
-2.34308e-09
1.63519e-09
-2.13674e-09
1.41294e-09
-1.89689e-09
1.20089e-09
-1.64482e-09
1.00813e-09
-1.35276e-09
8.40513e-10
-1.04513e-09
7.09381e-10
-7.03194e-10
6.32127e-10
-3.41317e-10
6.27849e-10
2.45208e-11
7.18233e-10
3.94844e-10
9.18773e-10
7.96794e-10
1.20318e-09
1.21076e-09
1.5301e-09
1.63361e-09
1.85397e-09
2.01863e-09
2.15076e-09
2.36256e-09
2.40722e-09
2.6318e-09
2.62299e-09
2.84565e-09
2.80557e-09
3.00984e-09
2.96146e-09
3.13103e-09
3.09639e-09
3.21803e-09
3.21572e-09
3.27775e-09
3.32352e-09
3.31558e-09
3.423e-09
3.33381e-09
3.51637e-09
3.33502e-09
3.60497e-09
3.31856e-09
3.69079e-09
3.28282e-09
3.77436e-09
3.23181e-09
3.8569e-09
3.15907e-09
3.93912e-09
3.06356e-09
4.01889e-09
2.92713e-09
4.09822e-09
2.76374e-09
4.17588e-09
2.56315e-09
4.24649e-09
2.27143e-09
4.31196e-09
1.94702e-09
4.36298e-09
1.48942e-09
4.40237e-09
9.53207e-10
4.43018e-09
3.41224e-10
4.45226e-09
-3.46544e-10
4.47256e-09
-1.01973e-09
4.49669e-09
-1.59691e-09
4.51819e-09
-2.09214e-09
4.53084e-09
-2.4857e-09
4.52608e-09
-2.77417e-09
4.49699e-09
-2.9704e-09
4.43888e-09
-3.11013e-09
4.3529e-09
-3.17526e-09
4.23784e-09
-3.19803e-09
4.09478e-09
-3.18465e-09
3.92526e-09
-3.14563e-09
3.73097e-09
-3.07779e-09
3.50611e-09
-2.94696e-09
3.25514e-09
-2.78633e-09
2.99403e-09
-2.62768e-09
2.74019e-09
-2.45035e-09
2.52795e-09
-2.00726e-09
2.33109e-09
-1.73081e-09
2.14733e-09
-1.48778e-09
1.98471e-09
-1.20713e-09
1.85359e-09
-9.39453e-10
1.75864e-09
-6.50965e-10
1.70245e-09
-3.65885e-10
1.67694e-09
-1.73147e-10
1.66423e-09
-1.13216e-10
1.65778e-09
-7.48053e-11
1.65469e-09
-4.96781e-11
1.65307e-09
-3.46083e-11
1.65159e-09
-2.58343e-11
1.64932e-09
-1.98121e-11
1.64543e-09
-1.39461e-11
1.63909e-09
-6.68567e-12
1.62947e-09
2.68855e-12
1.61578e-09
1.42974e-11
1.59738e-09
2.78669e-11
1.5738e-09
4.29552e-11
1.5447e-09
5.91934e-11
1.50975e-09
7.63974e-11
1.46849e-09
9.46706e-11
1.42032e-09
1.14495e-10
1.36425e-09
1.3676e-10
1.29882e-09
1.62792e-10
1.22193e-09
1.94412e-10
1.13062e-09
2.34103e-10
1.02085e-09
2.85405e-10
8.87237e-10
3.53732e-10
7.23007e-10
4.47788e-10
5.21189e-10
5.81529e-10
2.79952e-10
7.75026e-10
1.85258e-11
1.04658e-09
-1.88409e-10
1.36977e-09
-2.02312e-10
1.54376e-09
1.04304e-09
-1.14581e-10
-4.25275e-10
-2.16261e-10
-7.35368e-10
-2.56724e-10
-8.03165e-10
-2.45844e-10
-7.75926e-10
-2.0075e-10
-7.17153e-10
-1.34243e-10
-6.52127e-10
-5.58482e-11
-5.90317e-10
2.78084e-11
-5.3472e-10
1.12562e-10
-4.85883e-10
1.95978e-10
-4.43411e-10
2.76701e-10
-4.06605e-10
3.5403e-10
-3.74715e-10
4.2767e-10
-3.47064e-10
4.97571e-10
-3.23074e-10
5.6383e-10
-3.02278e-10
6.26637e-10
-2.84316e-10
6.86242e-10
-2.68927e-10
7.42935e-10
-2.55942e-10
7.97047e-10
-2.45284e-10
8.48946e-10
-2.36965e-10
8.9905e-10
-2.31097e-10
9.47836e-10
-2.27893e-10
9.9586e-10
-2.27692e-10
1.04378e-09
-2.30975e-10
1.09236e-09
-2.384e-10
1.14253e-09
-2.50842e-10
1.19534e-09
-2.6945e-10
1.25199e-09
-2.95717e-10
1.31379e-09
-3.31591e-10
1.38203e-09
-3.79529e-10
1.4528e-09
-4.58509e-10
1.49898e-09
-6.44738e-10
1.51048e-09
-8.9205e-10
1.49267e-09
-1.15717e-09
1.45387e-09
-1.42309e-09
1.40244e-09
-1.72289e-09
1.34117e-09
-2.0284e-09
1.26168e-09
-2.31869e-09
1.17772e-09
-2.5527e-09
1.10133e-09
-2.75302e-09
1.03104e-09
-2.92474e-09
9.64294e-10
-3.06642e-09
8.99045e-10
-3.1681e-09
8.33159e-10
-3.23397e-09
7.64017e-10
-3.26395e-09
6.89066e-10
-3.25691e-09
6.05887e-10
-3.21484e-09
5.12869e-10
-3.13564e-09
4.08217e-10
-3.02162e-09
2.92206e-10
-2.8739e-09
1.66456e-10
-2.69884e-09
3.34304e-11
-2.50484e-09
-1.02485e-10
-2.28631e-09
-2.351e-10
-2.064e-09
-3.5786e-10
-1.83522e-09
-4.62735e-10
-1.61318e-09
-5.40737e-10
-1.38893e-09
-5.78638e-10
-1.16955e-09
-5.5983e-10
-9.34183e-10
-4.64468e-10
-6.70055e-10
-2.73453e-10
-3.60163e-10
3.13975e-11
6.36164e-12
4.31773e-10
4.32467e-10
8.94015e-10
8.93865e-10
1.36993e-09
1.35428e-09
1.81673e-09
1.78191e-09
2.21418e-09
2.14991e-09
2.55196e-09
2.45433e-09
2.8336e-09
2.69226e-09
3.06643e-09
2.87636e-09
3.2599e-09
3.01254e-09
3.42227e-09
3.11051e-09
3.5607e-09
3.17692e-09
3.68088e-09
3.21732e-09
3.78698e-09
3.23611e-09
3.88208e-09
3.23486e-09
3.96826e-09
3.21498e-09
4.04632e-09
3.16965e-09
4.11776e-09
3.10558e-09
4.18287e-09
3.01913e-09
4.24236e-09
2.89897e-09
4.29267e-09
2.72695e-09
4.33616e-09
2.52433e-09
4.36804e-09
2.23474e-09
4.3899e-09
1.88736e-09
4.39569e-09
1.397e-09
4.39146e-09
8.3634e-10
4.37967e-09
2.0314e-10
4.36672e-09
-4.90018e-10
4.35408e-09
-1.12964e-09
4.34383e-09
-1.67051e-09
4.32727e-09
-2.14234e-09
4.2996e-09
-2.48318e-09
4.25279e-09
-2.75676e-09
4.18579e-09
-2.92582e-09
4.09628e-09
-3.03156e-09
3.98625e-09
-3.09672e-09
3.85907e-09
-3.11038e-09
3.71922e-09
-3.10286e-09
3.57086e-09
-3.07985e-09
3.41699e-09
-3.04784e-09
3.25885e-09
-3.01002e-09
3.09569e-09
-2.9631e-09
2.92561e-09
-2.9045e-09
2.74629e-09
-2.8291e-09
2.55645e-09
-2.73416e-09
2.35642e-09
-2.61787e-09
2.14813e-09
-2.47542e-09
1.93556e-09
-2.31241e-09
1.72266e-09
-2.13017e-09
1.51485e-09
-1.92892e-09
1.31813e-09
-1.70018e-09
1.13473e-09
-1.46142e-09
9.69492e-10
-1.18752e-09
8.24871e-10
-9.00514e-10
7.05475e-10
-5.83798e-10
6.19219e-10
-2.5506e-10
5.76406e-10
6.73336e-11
5.9292e-10
3.78329e-10
6.90808e-10
6.98903e-10
8.75185e-10
1.02638e-09
1.12978e-09
1.37902e-09
1.42101e-09
1.7274e-09
1.72001e-09
2.06355e-09
2.00058e-09
2.35122e-09
2.25115e-09
2.59508e-09
2.47063e-09
2.79036e-09
2.66072e-09
2.94095e-09
2.82511e-09
3.05365e-09
2.96879e-09
3.13407e-09
3.0962e-09
3.18816e-09
3.21114e-09
3.21887e-09
3.31651e-09
3.22963e-09
3.41431e-09
3.22075e-09
3.50691e-09
3.19021e-09
3.59537e-09
3.14334e-09
3.68122e-09
3.07321e-09
3.76556e-09
2.97921e-09
3.84694e-09
2.84575e-09
3.92777e-09
2.6829e-09
4.00775e-09
2.48317e-09
4.08319e-09
2.19598e-09
4.1574e-09
1.87281e-09
4.2241e-09
1.42271e-09
4.28755e-09
8.89757e-10
4.34736e-09
2.81415e-10
4.40545e-09
-4.04635e-10
4.45907e-09
-1.07334e-09
4.50675e-09
-1.64459e-09
4.53797e-09
-2.12336e-09
4.54664e-09
-2.49436e-09
4.52306e-09
-2.75059e-09
4.46654e-09
-2.91387e-09
4.37686e-09
-3.02047e-09
4.25612e-09
-3.05453e-09
4.10775e-09
-3.04968e-09
3.93559e-09
-3.01251e-09
3.74341e-09
-2.95346e-09
3.53493e-09
-2.86931e-09
3.30758e-09
-2.71958e-09
3.06716e-09
-2.54587e-09
2.82752e-09
-2.38802e-09
2.59883e-09
-2.22164e-09
2.40662e-09
-1.81506e-09
2.22988e-09
-1.55408e-09
2.06778e-09
-1.32569e-09
1.92693e-09
-1.06628e-09
1.81568e-09
-8.28211e-10
1.73616e-09
-5.71444e-10
1.68803e-09
-3.17747e-10
1.66305e-09
-1.48169e-10
1.64833e-09
-9.84922e-11
1.63949e-09
-6.59719e-11
1.63383e-09
-4.40155e-11
1.62923e-09
-3.00099e-11
1.62415e-09
-2.07487e-11
1.61748e-09
-1.31415e-11
1.60837e-09
-4.83603e-12
1.59608e-09
5.60045e-12
1.57995e-09
1.8822e-11
1.5594e-09
3.48468e-11
1.53397e-09
5.3299e-11
1.50327e-09
7.36533e-11
1.46699e-09
9.54747e-11
1.42479e-09
1.18592e-10
1.37623e-09
1.43233e-10
1.32061e-09
1.70116e-10
1.25687e-09
2.00497e-10
1.18347e-09
2.36197e-10
1.09821e-09
2.79665e-10
9.98172e-10
3.34144e-10
8.79532e-10
4.04045e-10
7.37682e-10
4.95581e-10
5.67942e-10
6.17529e-10
3.68226e-10
7.81245e-10
1.46207e-10
9.97045e-10
-6.62696e-11
1.25905e-09
-1.95701e-10
1.4992e-09
-1.5971e-10
1.50777e-09
8.83333e-10
-7.858e-11
-3.46695e-10
-1.66779e-10
-6.47169e-10
-2.21126e-10
-7.48818e-10
-2.37835e-10
-7.59217e-10
-2.24297e-10
-7.30692e-10
-1.88776e-10
-6.87647e-10
-1.38828e-10
-6.40265e-10
-8.021e-11
-5.93338e-10
-1.70355e-11
-5.49058e-10
4.78916e-11
-5.08338e-10
1.12732e-10
-4.71445e-10
1.76335e-10
-4.38318e-10
2.38009e-10
-4.08738e-10
2.97372e-10
-3.82437e-10
3.54252e-10
-3.59158e-10
4.08622e-10
-3.38686e-10
4.60556e-10
-3.20861e-10
5.10205e-10
-3.05591e-10
5.57784e-10
-2.92862e-10
6.03566e-10
-2.82747e-10
6.47888e-10
-2.75419e-10
6.9116e-10
-2.71165e-10
7.33876e-10
-2.70408e-10
7.76631e-10
-2.7373e-10
8.2014e-10
-2.81908e-10
8.65243e-10
-2.95946e-10
9.12918e-10
-3.17125e-10
9.64261e-10
-3.4706e-10
1.02044e-09
-3.87772e-10
1.08262e-09
-4.41707e-10
1.14788e-09
-5.23773e-10
1.19556e-09
-6.92414e-10
1.21839e-09
-9.14878e-10
1.22043e-09
-1.15922e-09
1.20715e-09
-1.40981e-09
1.18275e-09
-1.69849e-09
1.14817e-09
-1.99381e-09
1.09725e-09
-2.26777e-09
1.04047e-09
-2.49592e-09
9.86319e-10
-2.69886e-09
9.33674e-10
-2.8721e-09
8.80308e-10
-3.01305e-09
8.25058e-10
-3.11284e-09
7.66509e-10
-3.17542e-09
7.02688e-10
-3.20013e-09
6.31686e-10
-3.18591e-09
5.51842e-10
-3.13499e-09
4.62081e-10
-3.04589e-09
3.61901e-10
-2.92144e-09
2.52363e-10
-2.76436e-09
1.3563e-10
-2.58211e-09
1.44519e-11
-2.38366e-09
-1.06617e-10
-2.16524e-09
-2.22833e-10
-1.94778e-09
-3.29357e-10
-1.72869e-09
-4.21507e-10
-1.52103e-09
-4.93714e-10
-1.31672e-09
-5.39288e-10
-1.12398e-09
-5.48832e-10
-9.2464e-10
-5.07764e-10
-7.11123e-10
-4.00978e-10
-4.66946e-10
-2.11127e-10
-1.83485e-10
6.78442e-11
1.53501e-10
4.27975e-10
5.33735e-10
8.39245e-10
9.42995e-10
1.26878e-09
1.35235e-09
1.68317e-09
1.7355e-09
2.06238e-09
2.07512e-09
2.39483e-09
2.35982e-09
2.67996e-09
2.59125e-09
2.92115e-09
2.77137e-09
3.12445e-09
2.90723e-09
3.2966e-09
3.00477e-09
3.44385e-09
3.07006e-09
3.57136e-09
3.10857e-09
3.68329e-09
3.12291e-09
3.78271e-09
3.11553e-09
3.87133e-09
3.08101e-09
3.95136e-09
3.02555e-09
4.02379e-09
2.94669e-09
4.08994e-09
2.83282e-09
4.14739e-09
2.6695e-09
4.19915e-09
2.47256e-09
4.24205e-09
2.19184e-09
4.27872e-09
1.8507e-09
4.30484e-09
1.37087e-09
4.32584e-09
8.15343e-10
4.34184e-09
1.87143e-10
4.35487e-09
-5.03051e-10
4.36124e-09
-1.13601e-09
4.35961e-09
-1.66889e-09
4.34016e-09
-2.12289e-09
4.2996e-09
-2.44262e-09
4.23281e-09
-2.68996e-09
4.14105e-09
-2.83407e-09
4.02602e-09
-2.91653e-09
3.89217e-09
-2.96287e-09
3.74503e-09
-2.96324e-09
3.5901e-09
-2.94792e-09
3.43127e-09
-2.92101e-09
3.27028e-09
-2.88686e-09
3.10683e-09
-2.84657e-09
2.93907e-09
-2.79534e-09
2.76477e-09
-2.73019e-09
2.58228e-09
-2.6466e-09
2.3916e-09
-2.54349e-09
2.19457e-09
-2.42085e-09
1.99438e-09
-2.27523e-09
1.79556e-09
-2.1136e-09
1.602e-09
-1.9366e-09
1.41788e-09
-1.74481e-09
1.24715e-09
-1.52945e-09
1.09077e-09
-1.30505e-09
9.51316e-10
-1.04806e-09
8.29622e-10
-7.78821e-10
7.27451e-10
-4.81627e-10
6.48283e-10
-1.75892e-10
5.96128e-10
1.19489e-10
5.80321e-10
3.94136e-10
6.15403e-10
6.6382e-10
7.16161e-10
9.25625e-10
8.86882e-10
1.2083e-09
1.11252e-09
1.50175e-09
1.3731e-09
1.80297e-09
1.64075e-09
2.08356e-09
1.89957e-09
2.33626e-09
2.13806e-09
2.55187e-09
2.35246e-09
2.72656e-09
2.54181e-09
2.8643e-09
2.70863e-09
2.96725e-09
2.85629e-09
3.04049e-09
2.98826e-09
3.08688e-09
3.10763e-09
3.11025e-09
3.2168e-09
3.11157e-09
3.31851e-09
3.08849e-09
3.41439e-09
3.04744e-09
3.50642e-09
2.98118e-09
3.59627e-09
2.88935e-09
3.68346e-09
2.75855e-09
3.77104e-09
2.59532e-09
3.85981e-09
2.3944e-09
3.94802e-09
2.10777e-09
4.03977e-09
1.78106e-09
4.13064e-09
1.33184e-09
4.22396e-09
7.96436e-10
4.31621e-09
1.89171e-10
4.40387e-09
-4.92298e-10
4.47753e-09
-1.147e-09
4.53134e-09
-1.6984e-09
4.55529e-09
-2.14731e-09
4.54155e-09
-2.48061e-09
4.48756e-09
-2.6966e-09
4.39766e-09
-2.82397e-09
4.27287e-09
-2.89567e-09
4.11969e-09
-2.90136e-09
3.9446e-09
-2.8746e-09
3.75314e-09
-2.82107e-09
3.55002e-09
-2.75035e-09
3.3395e-09
-2.6588e-09
3.11983e-09
-2.4999e-09
2.89552e-09
-2.32155e-09
2.67653e-09
-2.169e-09
2.46812e-09
-2.01321e-09
2.29308e-09
-1.64002e-09
2.13399e-09
-1.395e-09
1.99057e-09
-1.18228e-09
1.86829e-09
-9.44008e-10
1.77402e-09
-7.33943e-10
1.70883e-09
-5.06251e-10
1.67137e-09
-2.80285e-10
1.65301e-09
-1.29817e-10
1.64206e-09
-8.7538e-11
1.63509e-09
-5.89975e-11
1.62968e-09
-3.86105e-11
1.62391e-09
-2.42356e-11
1.61633e-09
-1.31712e-11
1.60597e-09
-2.78118e-12
1.59215e-09
8.98594e-12
1.57435e-09
2.3402e-11
1.55217e-09
4.10011e-11
1.52529e-09
6.17213e-11
1.49346e-09
8.5126e-11
1.45647e-09
1.10652e-10
1.41408e-09
1.37859e-10
1.36604e-09
1.66638e-10
1.3119e-09
1.97367e-10
1.251e-09
2.31021e-10
1.18228e-09
2.6921e-10
1.10427e-09
3.14206e-10
1.01495e-09
3.68991e-10
9.1169e-10
4.37403e-10