/*--------------------------------*- C++ -*----------------------------------*\
| =========                 |                                                 |
| \\      /  F ield         | OpenFOAM: The Open Source CFD Toolbox           |
|  \\    /   O peration     | Version:  2506                                  |
|   \\  /    A nd           | Website:  www.openfoam.com                      |
|    \\/     M anipulation  |                                                 |
\*---------------------------------------------------------------------------*/
FoamFile
{
    version     2.0;
    format      ascii;
    arch        "LSB;label=32;scalar=64";
    class       volScalarField;
    location    "3.35";
    object      p;
}
// * * * * * * * * * * * * * * * * * * * * * * * * * * * * * * * * * * * * * //

dimensions      [0 2 -2 0 0 0 0];

internalField   nonuniform List<scalar> 
4000
(
-0.00394021
-0.00394121
-0.00393288
-0.00391962
-0.00390441
-0.00388808
-0.00387126
-0.00385407
-0.00383666
-0.00381908
-0.00380138
-0.00378359
-0.00376572
-0.00374778
-0.0037298
-0.00371178
-0.00369373
-0.00367568
-0.00365762
-0.00363957
-0.00362155
-0.00360356
-0.00358562
-0.00356775
-0.00354995
-0.00353225
-0.00351466
-0.00349723
-0.00347998
-0.00346293
-0.00344615
-0.00342971
-0.00341368
-0.00339814
-0.00338394
-0.00337124
-0.00335888
-0.00334625
-0.0033331
-0.0033191
-0.00330382
-0.00328672
-0.00326831
-0.00324911
-0.0032292
-0.00320863
-0.00318732
-0.00316522
-0.00314231
-0.00311854
-0.00309383
-0.00306813
-0.00304141
-0.00301365
-0.00298483
-0.0029551
-0.00292451
-0.00289322
-0.0028614
-0.00282908
-0.0027966
-0.00276407
-0.00273171
-0.00269975
-0.00266818
-0.00263739
-0.00260721
-0.00257793
-0.00254934
-0.00252153
-0.00249446
-0.00246799
-0.00244231
-0.00241725
-0.00239281
-0.00236904
-0.00234589
-0.00232335
-0.0023015
-0.00228035
-0.0022599
-0.00224019
-0.00222125
-0.00220306
-0.00218567
-0.00216902
-0.00215309
-0.00213792
-0.00212342
-0.00210955
-0.00209638
-0.00208376
-0.0020717
-0.00206022
-0.00204918
-0.00203868
-0.00202853
-0.00201885
-0.00200944
-0.00200044
-0.00199159
-0.001983
-0.00197449
-0.00196601
-0.00195755
-0.00194893
-0.00194023
-0.00193121
-0.00192194
-0.0019123
-0.00190225
-0.00189174
-0.00188075
-0.00186921
-0.00185719
-0.00184455
-0.00183142
-0.00181777
-0.00180359
-0.00178894
-0.00177382
-0.00175822
-0.00174217
-0.00172569
-0.00170872
-0.0016913
-0.00167342
-0.00165504
-0.00163613
-0.00161666
-0.00159659
-0.00157589
-0.00155448
-0.00153236
-0.00150948
-0.00148577
-0.00146124
-0.00143586
-0.00140959
-0.00138242
-0.00135434
-0.00132539
-0.00129561
-0.00126504
-0.00123378
-0.00120197
-0.00116971
-0.00113739
-0.00110506
-0.00107301
-0.00104153
-0.00101059
-0.000980673
-0.000951531
-0.000923711
-0.000896736
-0.000870939
-0.000845721
-0.000821048
-0.000797353
-0.000778606
-0.000759838
-0.000741519
-0.000723452
-0.000705842
-0.000688009
-0.000669792
-0.000649778
-0.000628585
-0.000607145
-0.000585774
-0.000564665
-0.000543892
-0.000523454
-0.000503305
-0.000483389
-0.000463633
-0.000443952
-0.000424296
-0.000404609
-0.00038487
-0.000365059
-0.000345165
-0.000325192
-0.00030516
-0.000285081
-0.000264986
-0.000244908
-0.000224874
-0.000204911
-0.000185036
-0.000165261
-0.00014559
-0.000126024
-0.000106556
-8.71736e-05
-6.78583e-05
-4.86046e-05
-2.94015e-05
-9.99271e-06
-0.00395819
-0.00394608
-0.0039328
-0.00391856
-0.00390326
-0.00388713
-0.00387051
-0.00385356
-0.00383636
-0.00381897
-0.00380144
-0.0037838
-0.00376606
-0.00374824
-0.00373036
-0.00371244
-0.00369448
-0.00367651
-0.00365853
-0.00364056
-0.0036226
-0.00360468
-0.0035868
-0.00356899
-0.00355125
-0.0035336
-0.00351607
-0.00349868
-0.00348146
-0.00346444
-0.00344768
-0.00343119
-0.00341508
-0.00339948
-0.00338469
-0.00337073
-0.00335701
-0.00334304
-0.00332853
-0.0033132
-0.00329668
-0.00327898
-0.0032604
-0.0032411
-0.00322116
-0.00320059
-0.00317932
-0.00315742
-0.00313475
-0.00311127
-0.00308695
-0.00306172
-0.00303565
-0.00300863
-0.0029808
-0.00295212
-0.00292268
-0.00289262
-0.002862
-0.00283109
-0.00279995
-0.00276881
-0.00273781
-0.00270712
-0.00267682
-0.00264702
-0.00261776
-0.00258921
-0.00256134
-0.0025341
-0.00250754
-0.00248156
-0.00245623
-0.0024315
-0.00240733
-0.00238375
-0.00236074
-0.00233827
-0.0023164
-0.00229515
-0.00227454
-0.0022546
-0.00223534
-0.0022168
-0.00219898
-0.00218186
-0.00216545
-0.00214974
-0.00213469
-0.00212027
-0.00210648
-0.00209325
-0.00208057
-0.00206841
-0.00205671
-0.00204549
-0.00203465
-0.00202418
-0.00201401
-0.00200416
-0.0019945
-0.00198504
-0.00197567
-0.00196635
-0.00195702
-0.00194756
-0.00193795
-0.00192811
-0.00191797
-0.00190749
-0.00189662
-0.00188532
-0.00187356
-0.00186133
-0.00184859
-0.00183536
-0.00182165
-0.00180747
-0.00179283
-0.00177775
-0.00176224
-0.0017463
-0.00172995
-0.00171318
-0.00169602
-0.00167843
-0.00166038
-0.00164185
-0.00162281
-0.00160322
-0.00158305
-0.00156226
-0.0015408
-0.00151866
-0.0014958
-0.00147215
-0.00144775
-0.00142259
-0.00139666
-0.00136991
-0.00134236
-0.00131407
-0.00128507
-0.00125543
-0.00122531
-0.00119472
-0.00116388
-0.00113288
-0.00110193
-0.00107124
-0.00104096
-0.00101127
-0.000982387
-0.000954373
-0.000927433
-0.00090145
-0.000876442
-0.000852168
-0.000828325
-0.000805159
-0.000784789
-0.000765162
-0.000745916
-0.00072686
-0.000707979
-0.000688946
-0.000669436
-0.000648759
-0.000627432
-0.000605837
-0.000584368
-0.000563196
-0.00054238
-0.000521913
-0.000501743
-0.000481807
-0.00046205
-0.000442409
-0.000422814
-0.000403215
-0.000383562
-0.000363832
-0.000344014
-0.000324104
-0.00030414
-0.000284133
-0.000264104
-0.000244084
-0.000224103
-0.000204188
-0.00018436
-0.000164638
-0.000145023
-0.000125512
-0.0001061
-8.67746e-05
-6.75192e-05
-4.83342e-05
-2.92262e-05
-9.93337e-06
-0.00396653
-0.00394861
-0.00393273
-0.00391785
-0.00390235
-0.00388629
-0.00386982
-0.00385305
-0.00383603
-0.00381882
-0.00380144
-0.00378393
-0.00376631
-0.0037486
-0.00373082
-0.00371298
-0.0036951
-0.00367719
-0.00365927
-0.00364134
-0.00362343
-0.00360554
-0.00358769
-0.0035699
-0.00355218
-0.00353454
-0.00351702
-0.00349963
-0.0034824
-0.00346537
-0.00344858
-0.00343205
-0.00341588
-0.00340022
-0.00338498
-0.00337005
-0.00335522
-0.00334014
-0.00332452
-0.00330819
-0.00329089
-0.00327281
-0.00325407
-0.0032347
-0.00321477
-0.00319424
-0.00317309
-0.00315133
-0.00312883
-0.00310561
-0.00308163
-0.00305677
-0.00303119
-0.00300474
-0.00297761
-0.00294971
-0.00292119
-0.00289215
-0.00286258
-0.00283284
-0.00280279
-0.00277276
-0.00274279
-0.00271302
-0.00268361
-0.00265456
-0.00262606
-0.0025981
-0.00257079
-0.00254402
-0.00251785
-0.00249227
-0.00246725
-0.0024428
-0.00241887
-0.00239547
-0.00237258
-0.0023502
-0.00232834
-0.00230702
-0.00228627
-0.00226613
-0.00224662
-0.00222777
-0.00220959
-0.00219209
-0.00217526
-0.00215913
-0.00214364
-0.00212878
-0.00211453
-0.00210084
-0.00208768
-0.00207503
-0.00206283
-0.00205107
-0.00203971
-0.0020287
-0.00201799
-0.00200754
-0.00199729
-0.00198718
-0.00197715
-0.00196715
-0.00195711
-0.00194696
-0.00193664
-0.00192608
-0.00191523
-0.00190403
-0.00189246
-0.00188048
-0.00186807
-0.00185521
-0.00184188
-0.00182811
-0.00181391
-0.00179927
-0.00178424
-0.00176879
-0.00175296
-0.00173674
-0.00172015
-0.00170317
-0.0016858
-0.00166802
-0.00164979
-0.0016311
-0.00161191
-0.00159218
-0.00157189
-0.00155101
-0.00152949
-0.00150734
-0.0014845
-0.00146095
-0.00143677
-0.00141178
-0.00138608
-0.00135968
-0.0013326
-0.00130488
-0.00127656
-0.00124769
-0.00121843
-0.00118874
-0.00115894
-0.00112897
-0.00109909
-0.00106947
-0.00104018
-0.00101152
-0.000983461
-0.000956304
-0.000930014
-0.00090469
-0.000880264
-0.000856759
-0.000833849
-0.000811654
-0.000790704
-0.000770626
-0.00075072
-0.000730883
-0.000711023
-0.000690806
-0.000669965
-0.000648532
-0.000626712
-0.000604792
-0.000583122
-0.000561831
-0.000540953
-0.000520467
-0.000500317
-0.000480431
-0.000460737
-0.000441163
-0.000421638
-0.000402108
-0.00038253
-0.000362876
-0.000343132
-0.000323304
-0.000303382
-0.000283405
-0.000263403
-0.000243407
-0.000223448
-0.000203555
-0.00018375
-0.000164049
-0.000144461
-0.000124987
-0.000105621
-8.63491e-05
-6.71563e-05
-4.80391e-05
-2.90152e-05
-9.86967e-06
-0.0039697
-0.00395003
-0.00393297
-0.00391763
-0.00390188
-0.00388573
-0.00386928
-0.00385261
-0.00383572
-0.00381864
-0.0038014
-0.00378402
-0.00376652
-0.00374891
-0.00373123
-0.00371347
-0.00369566
-0.00367781
-0.00365994
-0.00364206
-0.00362419
-0.00360633
-0.00358851
-0.00357073
-0.00355301
-0.00353538
-0.00351784
-0.00350042
-0.00348315
-0.00346605
-0.00344916
-0.00343251
-0.00341613
-0.00340019
-0.00338451
-0.00336883
-0.00335314
-0.00333716
-0.00332067
-0.00330359
-0.00328577
-0.00326745
-0.0032486
-0.00322918
-0.00320925
-0.00318876
-0.00316769
-0.00314605
-0.0031237
-0.00310069
-0.00307697
-0.00305249
-0.00302734
-0.00300142
-0.00297491
-0.00294772
-0.00292
-0.00289186
-0.00286322
-0.00283449
-0.00280541
-0.00277636
-0.00274733
-0.00271842
-0.00268983
-0.0026615
-0.00263367
-0.00260626
-0.00257945
-0.00255314
-0.00252738
-0.00250218
-0.00247747
-0.0024533
-0.00242963
-0.00240643
-0.0023837
-0.00236144
-0.00233965
-0.00231833
-0.00229752
-0.00227726
-0.00225756
-0.00223845
-0.00221997
-0.00220213
-0.00218494
-0.0021684
-0.0021525
-0.00213722
-0.00212253
-0.00210841
-0.00209481
-0.0020817
-0.00206904
-0.00205678
-0.00204489
-0.00203331
-0.00202202
-0.00201096
-0.00200008
-0.00198932
-0.00197862
-0.00196793
-0.00195718
-0.00194632
-0.00193526
-0.00192398
-0.0019124
-0.00190049
-0.00188823
-0.00187558
-0.00186253
-0.00184907
-0.0018352
-0.00182094
-0.00180629
-0.00179125
-0.00177586
-0.00176012
-0.00174402
-0.00172758
-0.00171079
-0.00169363
-0.0016761
-0.00165816
-0.0016398
-0.00162098
-0.00160166
-0.00158183
-0.00156146
-0.00154051
-0.00151896
-0.00149682
-0.00147403
-0.00145059
-0.00142654
-0.00140178
-0.0013764
-0.0013504
-0.0013238
-0.00129665
-0.00126898
-0.00124085
-0.0012124
-0.00118356
-0.00115468
-0.00112564
-0.0010967
-0.00106801
-0.00103957
-0.00101176
-0.000984403
-0.000957926
-0.00093216
-0.000907398
-0.000883476
-0.000860542
-0.000838379
-0.000817086
-0.000795984
-0.000775743
-0.000755406
-0.000734908
-0.000714016
-0.000692708
-0.000670713
-0.000648475
-0.000626091
-0.000603817
-0.000581926
-0.00056051
-0.000539577
-0.000519085
-0.000498964
-0.000479131
-0.000459502
-0.000439998
-0.000420546
-0.000401088
-0.000381578
-0.000361984
-0.000342292
-0.0003225
-0.000302616
-0.000282667
-0.000262686
-0.000242708
-0.000222765
-0.000202889
-0.000183107
-0.000163433
-0.000143882
-0.000124453
-0.000105139
-8.59306e-05
-6.68108e-05
-4.77739e-05
-2.88335e-05
-9.81466e-06
-0.00397123
-0.00395106
-0.00393324
-0.00391753
-0.00390163
-0.00388529
-0.00386876
-0.00385213
-0.00383534
-0.00381837
-0.00380125
-0.003784
-0.00376662
-0.00374912
-0.00373154
-0.00371388
-0.00369616
-0.00367839
-0.00366058
-0.00364276
-0.00362492
-0.0036071
-0.0035893
-0.00357153
-0.00355381
-0.00353615
-0.00351858
-0.00350111
-0.00348375
-0.00346655
-0.00344951
-0.00343266
-0.00341602
-0.00339972
-0.00338351
-0.00336718
-0.00335077
-0.00333408
-0.00331693
-0.00329931
-0.00328114
-0.00326266
-0.00324372
-0.00322424
-0.00320429
-0.00318381
-0.00316277
-0.00314119
-0.00311896
-0.00309611
-0.00307261
-0.00304842
-0.00302365
-0.0029982
-0.00297223
-0.00294569
-0.00291871
-0.00289137
-0.00286362
-0.00283581
-0.00280768
-0.00277959
-0.0027515
-0.00272348
-0.00269575
-0.00266817
-0.00264104
-0.00261423
-0.00258794
-0.00256209
-0.00253672
-0.00251188
-0.00248747
-0.00246358
-0.00244014
-0.00241713
-0.00239456
-0.00237242
-0.00235068
-0.00232937
-0.00230851
-0.00228812
-0.00226824
-0.00224889
-0.0022301
-0.00221192
-0.00219436
-0.00217741
-0.00216109
-0.00214539
-0.00213026
-0.0021157
-0.00210165
-0.00208807
-0.00207495
-0.00206219
-0.0020498
-0.00203768
-0.00202584
-0.00201417
-0.00200268
-0.00199126
-0.00197989
-0.00196851
-0.00195704
-0.00194545
-0.00193366
-0.00192164
-0.00190935
-0.00189674
-0.0018838
-0.0018705
-0.00185685
-0.00184284
-0.00182846
-0.00181375
-0.0017987
-0.00178332
-0.00176763
-0.00175162
-0.0017353
-0.00171867
-0.0017017
-0.00168438
-0.00166669
-0.00164861
-0.0016301
-0.00161115
-0.00159171
-0.00157177
-0.00155131
-0.0015303
-0.00150871
-0.00148658
-0.00146383
-0.00144049
-0.00141659
-0.00139206
-0.00136699
-0.00134138
-0.00131524
-0.00128864
-0.0012616
-0.00123418
-0.00120651
-0.00117852
-0.00115053
-0.0011224
-0.00109438
-0.00106659
-0.00103899
-0.00101198
-0.000985309
-0.000959476
-0.000934232
-0.000909967
-0.000886461
-0.000863947
-0.00084218
-0.000821502
-0.000800376
-0.000779989
-0.000759247
-0.000738082
-0.000716297
-0.000694055
-0.00067117
-0.000648309
-0.000625492
-0.000602938
-0.00058088
-0.000559379
-0.000538412
-0.000517921
-0.000497822
-0.000478023
-0.000458434
-0.000438972
-0.000419562
-0.000400145
-0.000380673
-0.000361113
-0.00034145
-0.000321684
-0.000301825
-0.000281899
-0.00026194
-0.000241986
-0.000222068
-0.000202221
-0.000182473
-0.000162839
-0.000143333
-0.000123954
-0.000104698
-8.55532e-05
-6.65054e-05
-4.75454e-05
-2.86818e-05
-9.78141e-06
-0.003972
-0.00395177
-0.00393357
-0.00391751
-0.00390138
-0.00388491
-0.00386833
-0.00385172
-0.00383497
-0.00381806
-0.00380103
-0.0037839
-0.00376664
-0.00374925
-0.00373179
-0.00371423
-0.0036966
-0.00367891
-0.00366118
-0.00364342
-0.00362563
-0.00360784
-0.00359006
-0.0035723
-0.00355457
-0.00353689
-0.00351927
-0.00350172
-0.00348427
-0.00346693
-0.00344971
-0.00343262
-0.00341567
-0.00339898
-0.00338228
-0.00336537
-0.00334837
-0.00333112
-0.00331348
-0.00329548
-0.00327707
-0.00325846
-0.00323942
-0.00321987
-0.00319986
-0.00317935
-0.0031583
-0.00313674
-0.00311456
-0.00309183
-0.00306846
-0.00304452
-0.00302005
-0.00299498
-0.00296946
-0.00294347
-0.00291711
-0.00289048
-0.00286352
-0.00283654
-0.00280931
-0.00278213
-0.00275496
-0.00272786
-0.00270098
-0.00267422
-0.00264783
-0.00262168
-0.00259596
-0.00257062
-0.00254567
-0.00252121
-0.00249712
-0.00247349
-0.00245029
-0.00242746
-0.00240503
-0.00238299
-0.00236131
-0.00234
-0.00231909
-0.00229858
-0.00227852
-0.00225894
-0.00223987
-0.00222135
-0.0022034
-0.00218605
-0.00216931
-0.00215316
-0.00213759
-0.00212258
-0.00210809
-0.00209405
-0.00208046
-0.00206723
-0.00205434
-0.00204171
-0.00202932
-0.00201708
-0.00200498
-0.00199293
-0.0019809
-0.00196883
-0.00195665
-0.00194435
-0.00193184
-0.00191911
-0.00190612
-0.00189284
-0.00187926
-0.00186537
-0.00185117
-0.00183666
-0.00182184
-0.00180675
-0.00179136
-0.00177569
-0.00175975
-0.00174352
-0.001727
-0.00171019
-0.00169305
-0.00167556
-0.00165771
-0.00163946
-0.00162079
-0.00160168
-0.00158209
-0.00156202
-0.00154145
-0.00152035
-0.00149871
-0.00147655
-0.00145383
-0.00143059
-0.00140683
-0.00138251
-0.00135772
-0.00133246
-0.00130676
-0.00128067
-0.00125421
-0.00122746
-0.00120051
-0.00117332
-0.00114616
-0.00111889
-0.00109175
-0.00106484
-0.00103807
-0.00101185
-0.000985886
-0.00096069
-0.000935972
-0.000912161
-0.00088902
-0.00086682
-0.000845227
-0.000824793
-0.000803585
-0.000782977
-0.000761849
-0.000740108
-0.000717616
-0.000694689
-0.000671241
-0.000648009
-0.000624966
-0.000602269
-0.000580141
-0.000558613
-0.000537639
-0.000517145
-0.000497041
-0.000477233
-0.000457632
-0.000438155
-0.000418731
-0.000399301
-0.000379819
-0.000360256
-0.000340596
-0.00032084
-0.000300999
-0.0002811
-0.000261173
-0.000241264
-0.000221387
-0.00020159
-0.000181894
-0.000162315
-0.000142863
-0.000123539
-0.00010434
-8.52535e-05
-6.62662e-05
-4.73676e-05
-2.85605e-05
-9.75763e-06
-0.00397236
-0.00395222
-0.00393384
-0.00391757
-0.00390128
-0.0038847
-0.00386807
-0.00385142
-0.00383468
-0.00381784
-0.0038009
-0.00378386
-0.00376667
-0.00374938
-0.00373202
-0.00371457
-0.00369703
-0.00367942
-0.00366176
-0.00364406
-0.00362633
-0.00360858
-0.00359082
-0.00357306
-0.00355532
-0.00353761
-0.00351994
-0.00350231
-0.00348475
-0.00346726
-0.00344984
-0.00343252
-0.00341526
-0.00339817
-0.00338103
-0.00336365
-0.00334617
-0.00332847
-0.00331046
-0.00329216
-0.00327357
-0.00325482
-0.00323566
-0.00321602
-0.00319593
-0.00317534
-0.00315425
-0.00313266
-0.0031105
-0.00308782
-0.00306456
-0.0030408
-0.00301654
-0.00299177
-0.00296662
-0.00294109
-0.00291526
-0.00288921
-0.00286294
-0.00283666
-0.00281023
-0.00278385
-0.00275753
-0.00273128
-0.00270524
-0.0026793
-0.00265366
-0.00262822
-0.00260313
-0.00257835
-0.00255389
-0.00252985
-0.00250612
-0.00248279
-0.00245984
-0.00243721
-0.00241494
-0.002393
-0.00237138
-0.00235009
-0.00232914
-0.00230854
-0.00228833
-0.00226854
-0.0022492
-0.00223036
-0.00221205
-0.0021943
-0.00217713
-0.00216055
-0.00214453
-0.00212906
-0.00211411
-0.00209962
-0.00208557
-0.00207187
-0.0020585
-0.00204536
-0.00203245
-0.00201965
-0.00200697
-0.0019943
-0.00198163
-0.00196889
-0.00195604
-0.00194304
-0.00192985
-0.00191644
-0.0019028
-0.0018889
-0.00187474
-0.00186033
-0.00184565
-0.00183072
-0.00181553
-0.00180011
-0.00178444
-0.00176853
-0.00175237
-0.00173594
-0.00171923
-0.00170223
-0.0016849
-0.00166722
-0.00164917
-0.00163073
-0.00161187
-0.00159257
-0.0015728
-0.00155257
-0.00153186
-0.00151065
-0.00148893
-0.00146674
-0.00144404
-0.00142087
-0.00139723
-0.00137311
-0.00134858
-0.00132365
-0.00129834
-0.00127271
-0.00124679
-0.00122064
-0.00119434
-0.00116788
-0.00114146
-0.00111499
-0.00108865
-0.00106254
-0.00103657
-0.00101108
-0.000985817
-0.000961232
-0.000937046
-0.000913663
-0.000890852
-0.000868895
-0.000847354
-0.000826954
-0.000805545
-0.000784662
-0.000763194
-0.000740998
-0.000718018
-0.000694699
-0.000671002
-0.000647673
-0.000624615
-0.00060193
-0.000579829
-0.000558327
-0.000537356
-0.000516839
-0.000496686
-0.000476811
-0.000457129
-0.000437565
-0.000418056
-0.000398549
-0.000379005
-0.000359397
-0.000339712
-0.000319952
-0.000300128
-0.000280263
-0.000260387
-0.00024054
-0.000220733
-0.00020101
-0.000181388
-0.000161881
-0.000142495
-0.000123231
-0.000104085
-8.50479e-05
-6.61053e-05
-4.72473e-05
-2.84712e-05
-9.73633e-06
-0.0039725
-0.00395251
-0.00393408
-0.00391765
-0.0039013
-0.00388466
-0.00386798
-0.00385131
-0.00383458
-0.00381778
-0.00380088
-0.00378389
-0.0037668
-0.0037496
-0.00373232
-0.00371495
-0.00369749
-0.00367995
-0.00366237
-0.00364472
-0.00362704
-0.00360932
-0.00359158
-0.00357383
-0.00355608
-0.00353834
-0.00352061
-0.0035029
-0.00348523
-0.00346759
-0.00344999
-0.00343243
-0.00341489
-0.00339744
-0.00337991
-0.00336215
-0.00334427
-0.00332621
-0.00330788
-0.00328935
-0.00327059
-0.00325168
-0.00323238
-0.00321261
-0.00319241
-0.00317172
-0.00315055
-0.00312891
-0.00310674
-0.00308406
-0.00306091
-0.00303727
-0.00301316
-0.00298865
-0.00296381
-0.00293865
-0.00291326
-0.00288771
-0.00286202
-0.00283633
-0.00281058
-0.00278489
-0.00275928
-0.00273381
-0.00270852
-0.00268333
-0.0026584
-0.00263366
-0.00260921
-0.00258502
-0.00256109
-0.00253752
-0.00251421
-0.00249122
-0.00246856
-0.00244617
-0.00242409
-0.0024023
-0.00238078
-0.00235953
-0.00233858
-0.00231793
-0.00229761
-0.00227765
-0.00225809
-0.00223897
-0.00222034
-0.00220222
-0.00218465
-0.00216763
-0.00215116
-0.00213523
-0.00211982
-0.00210486
-0.00209035
-0.00207617
-0.00206232
-0.00204869
-0.00203527
-0.00202193
-0.00200869
-0.00199542
-0.00198214
-0.00196876
-0.00195526
-0.00194162
-0.00192778
-0.00191376
-0.00189953
-0.00188508
-0.00187042
-0.00185555
-0.00184047
-0.00182519
-0.00180969
-0.001794
-0.00177808
-0.00176194
-0.00174557
-0.00172893
-0.00171201
-0.00169479
-0.00167724
-0.00165933
-0.00164105
-0.00162238
-0.00160328
-0.00158375
-0.00156378
-0.00154337
-0.0015225
-0.00150116
-0.00147936
-0.00145713
-0.00143445
-0.00141133
-0.00138781
-0.00136388
-0.00133959
-0.00131496
-0.00129003
-0.00126483
-0.0012394
-0.0012138
-0.00118809
-0.00116228
-0.00113649
-0.00111072
-0.0010851
-0.0010597
-0.00103445
-0.00100961
-0.000984985
-0.000960948
-0.00093727
-0.000914274
-0.000891762
-0.000869991
-0.000848464
-0.000827961
-0.00080636
-0.00078517
-0.000763425
-0.000740942
-0.000717731
-0.000694308
-0.000670656
-0.000647451
-0.000624546
-0.000601999
-0.000580001
-0.000558552
-0.000537578
-0.000517002
-0.000496745
-0.000476733
-0.000456895
-0.000437171
-0.000417507
-0.000397862
-0.000378205
-0.000358514
-0.00033878
-0.000319004
-0.000299197
-0.000279379
-0.000259573
-0.000239801
-0.0002201
-0.000200475
-0.000180948
-0.00016153
-0.000142221
-0.000123022
-0.000103928
-8.49302e-05
-6.60174e-05
-4.718e-05
-2.84115e-05
-9.71289e-06
-0.00397255
-0.00395271
-0.00393427
-0.00391776
-0.00390139
-0.00388474
-0.00386804
-0.00385137
-0.00383466
-0.00381788
-0.00380103
-0.00378409
-0.00376706
-0.00374994
-0.00373272
-0.00371542
-0.00369802
-0.00368055
-0.00366302
-0.00364542
-0.00362778
-0.00361009
-0.00359237
-0.00357462
-0.00355686
-0.00353908
-0.0035213
-0.00350352
-0.00348574
-0.00346796
-0.00345018
-0.00343241
-0.00341461
-0.00339685
-0.00337898
-0.0033609
-0.00334269
-0.00332432
-0.00330573
-0.00328697
-0.00326804
-0.00324895
-0.00322948
-0.00320957
-0.00318923
-0.00316842
-0.00314716
-0.00312544
-0.00310323
-0.00308056
-0.00305748
-0.00303391
-0.00300996
-0.00298567
-0.00296109
-0.00293627
-0.00291126
-0.00288614
-0.00286094
-0.00283576
-0.0028106
-0.00278547
-0.00276046
-0.00273566
-0.00271101
-0.00268649
-0.00266218
-0.00263809
-0.00261424
-0.00259062
-0.00256721
-0.00254411
-0.00252124
-0.00249865
-0.00247631
-0.00245421
-0.00243236
-0.00241077
-0.0023894
-0.00236825
-0.00234736
-0.00232672
-0.00230635
-0.00228629
-0.00226657
-0.00224724
-0.00222834
-0.00220989
-0.00219196
-0.00217454
-0.00215763
-0.00214125
-0.00212537
-0.00210993
-0.00209494
-0.00208027
-0.00206594
-0.0020518
-0.00203787
-0.002024
-0.00201021
-0.00199638
-0.00198251
-0.00196855
-0.00195444
-0.00194021
-0.0019258
-0.00191123
-0.00189649
-0.00188157
-0.00186649
-0.00185124
-0.00183582
-0.00182024
-0.00180446
-0.00178852
-0.00177237
-0.00175599
-0.00173938
-0.0017225
-0.00170533
-0.00168784
-0.00167001
-0.00165182
-0.00163327
-0.00161431
-0.00159495
-0.00157517
-0.00155497
-0.00153436
-0.00151333
-0.00149185
-0.00146998
-0.00144772
-0.00142505
-0.00140199
-0.00137859
-0.00135485
-0.00133081
-0.00130648
-0.0012819
-0.00125711
-0.00123213
-0.00120703
-0.00118186
-0.00115664
-0.00113141
-0.00110624
-0.00108125
-0.00105646
-0.00103184
-0.00100755
-0.000983475
-0.000959904
-0.000936681
-0.000914011
-0.000891751
-0.000870118
-0.000848616
-0.000827941
-0.000806247
-0.000784789
-0.000762855
-0.000740269
-0.000717089
-0.000693808
-0.000670412
-0.00064748
-0.000624831
-0.000602501
-0.000580643
-0.00055925
-0.000538247
-0.000517566
-0.000497144
-0.000476925
-0.00045686
-0.000436906
-0.000417027
-0.000397192
-0.000377381
-0.000357579
-0.000337778
-0.000317981
-0.000298195
-0.000278435
-0.000258718
-0.000239051
-0.000219469
-0.000199964
-0.000180552
-0.000161236
-0.000142014
-0.000122881
-0.000103838
-8.48753e-05
-6.59817e-05
-4.71499e-05
-2.8372e-05
-9.68202e-06
-0.00397257
-0.00395283
-0.00393442
-0.0039179
-0.00390154
-0.00388491
-0.00386823
-0.00385158
-0.0038349
-0.00381816
-0.00380135
-0.00378446
-0.00376748
-0.00375041
-0.00373325
-0.00371599
-0.00369865
-0.00368123
-0.00366374
-0.00364618
-0.00362857
-0.0036109
-0.0035932
-0.00357545
-0.00355767
-0.00353986
-0.00352203
-0.00350417
-0.00348629
-0.00346839
-0.00345046
-0.00343249
-0.00341447
-0.00339642
-0.00337827
-0.00335993
-0.00334143
-0.00332278
-0.00330395
-0.00328497
-0.00326585
-0.00324656
-0.0032269
-0.00320683
-0.00318633
-0.00316539
-0.00314402
-0.00312221
-0.00309996
-0.00307729
-0.00305423
-0.00303076
-0.00300696
-0.00298287
-0.00295854
-0.00293402
-0.00290936
-0.00288463
-0.00285987
-0.00283512
-0.00281045
-0.00278584
-0.0027614
-0.00273714
-0.00271303
-0.00268904
-0.00266523
-0.00264171
-0.00261841
-0.0025953
-0.00257238
-0.00254972
-0.00252729
-0.00250509
-0.0024831
-0.00246131
-0.00243974
-0.00241839
-0.00239723
-0.00237626
-0.00235549
-0.00233493
-0.0023146
-0.00229451
-0.0022747
-0.00225524
-0.00223615
-0.00221745
-0.00219921
-0.00218144
-0.00216413
-0.00214732
-0.00213098
-0.00211505
-0.00209957
-0.00208439
-0.00206955
-0.0020549
-0.00204045
-0.00202605
-0.00201173
-0.00199736
-0.00198294
-0.00196843
-0.00195378
-0.00193903
-0.00192412
-0.00190908
-0.0018939
-0.00187859
-0.00186315
-0.00184758
-0.00183186
-0.00181599
-0.00179994
-0.00178373
-0.00176731
-0.00175066
-0.00173377
-0.00171659
-0.0016991
-0.00168128
-0.00166312
-0.0016446
-0.00162571
-0.00160645
-0.0015868
-0.00156674
-0.00154631
-0.00152551
-0.00150431
-0.00148273
-0.0014608
-0.0014385
-0.00141586
-0.0013929
-0.00136963
-0.00134609
-0.00132229
-0.00129826
-0.00127403
-0.00124963
-0.00122509
-0.00120046
-0.00117577
-0.00115106
-0.00112637
-0.00110177
-0.00107732
-0.00105304
-0.00102896
-0.0010051
-0.000981476
-0.000958299
-0.000935469
-0.000913054
-0.000890982
-0.000869447
-0.000848006
-0.000827138
-0.000805463
-0.000783833
-0.000761823
-0.00073931
-0.000716376
-0.000693355
-0.0006704
-0.000647814
-0.000625477
-0.000603401
-0.000581678
-0.000560311
-0.000539244
-0.000518409
-0.00049776
-0.000477272
-0.000456921
-0.000436685
-0.000416544
-0.000396485
-0.000376494
-0.000356562
-0.000336686
-0.000316866
-0.000297105
-0.000277415
-0.000257806
-0.000238277
-0.000218827
-0.000199457
-0.000180172
-0.000160968
-0.000141835
-0.000122766
-0.00010377
-8.48425e-05
-6.59642e-05
-4.71313e-05
-2.83379e-05
-9.6375e-06
-0.00397258
-0.00395291
-0.00393455
-0.00391806
-0.00390174
-0.00388516
-0.00386853
-0.00385192
-0.00383529
-0.0038186
-0.00380183
-0.00378499
-0.00376806
-0.00375103
-0.00373391
-0.0037167
-0.0036994
-0.00368202
-0.00366456
-0.00364703
-0.00362943
-0.00361178
-0.00359408
-0.00357633
-0.00355853
-0.00354069
-0.00352281
-0.00350489
-0.00348692
-0.0034689
-0.00345083
-0.00343269
-0.00341445
-0.00339617
-0.00337778
-0.0033592
-0.00334045
-0.00332155
-0.00330249
-0.00328329
-0.00326395
-0.00324444
-0.00322457
-0.00320431
-0.00318365
-0.00316257
-0.00314109
-0.0031192
-0.0030969
-0.00307422
-0.0030512
-0.00302783
-0.00300417
-0.00298028
-0.0029562
-0.00293197
-0.00290766
-0.00288329
-0.00285894
-0.0028346
-0.00281038
-0.00278624
-0.00276226
-0.00273844
-0.00271477
-0.00269122
-0.00266792
-0.00264492
-0.00262209
-0.00259941
-0.00257687
-0.00255456
-0.00253253
-0.00251071
-0.00248906
-0.00246759
-0.00244631
-0.00242524
-0.00240434
-0.0023836
-0.00236301
-0.00234263
-0.00232241
-0.00230237
-0.00228256
-0.00226305
-0.00224385
-0.00222499
-0.00220653
-0.00218846
-0.00217081
-0.0021536
-0.00213682
-0.00212042
-0.00210444
-0.00208875
-0.00207339
-0.00205821
-0.00204323
-0.0020283
-0.00201345
-0.00199856
-0.00198363
-0.00196862
-0.0019535
-0.00193828
-0.00192294
-0.00190749
-0.00189194
-0.00187629
-0.00186053
-0.00184466
-0.00182866
-0.00181248
-0.00179612
-0.00177958
-0.00176282
-0.00174583
-0.00172855
-0.00171099
-0.00169312
-0.00167494
-0.00165642
-0.00163753
-0.00161829
-0.00159869
-0.00157874
-0.00155843
-0.00153777
-0.00151678
-0.00149543
-0.00147378
-0.0014518
-0.00142951
-0.00140692
-0.00138407
-0.00136098
-0.00133764
-0.00131411
-0.00129038
-0.0012665
-0.00124248
-0.00121837
-0.00119418
-0.00116995
-0.00114572
-0.00112153
-0.00109742
-0.00107344
-0.0010496
-0.00102594
-0.00100247
-0.0009793
-0.000956462
-0.000933921
-0.00091164
-0.000889671
-0.00086821
-0.000846875
-0.000825828
-0.00080425
-0.000782567
-0.000760589
-0.000738291
-0.000715668
-0.000693037
-0.000670549
-0.000648337
-0.000626402
-0.000604638
-0.000582992
-0.000561575
-0.0005404
-0.000519361
-0.000498433
-0.000477632
-0.000456958
-0.000436411
-0.000415989
-0.00039569
-0.000375513
-0.000355454
-0.000335508
-0.000315673
-0.000295948
-0.000276335
-0.000256835
-0.000237435
-0.000218125
-0.000198896
-0.000179744
-0.000160657
-0.000141618
-0.000122625
-0.000103684
-8.47862e-05
-6.59222e-05
-4.70899e-05
-2.82888e-05
-9.5744e-06
-0.00397257
-0.00395293
-0.00393464
-0.00391825
-0.00390201
-0.0038855
-0.00386895
-0.00385241
-0.00383584
-0.0038192
-0.00380249
-0.00378569
-0.0037688
-0.0037518
-0.00373472
-0.00371754
-0.00370027
-0.00368291
-0.00366547
-0.00364796
-0.00363038
-0.00361273
-0.00359503
-0.00357728
-0.00355946
-0.00354159
-0.00352366
-0.00350567
-0.00348762
-0.0034695
-0.0034513
-0.00343299
-0.0034146
-0.0033961
-0.00337748
-0.00335869
-0.00333971
-0.00332057
-0.00330128
-0.00328185
-0.0032623
-0.00324255
-0.00322247
-0.00320198
-0.00318112
-0.00315991
-0.00313833
-0.00311635
-0.00309402
-0.00307134
-0.00304837
-0.00302511
-0.00300161
-0.00297794
-0.0029541
-0.00293018
-0.0029062
-0.00288219
-0.00285824
-0.00283429
-0.00281049
-0.00278677
-0.00276321
-0.0027398
-0.00271655
-0.00269345
-0.00267055
-0.00264791
-0.00262544
-0.00260311
-0.00258094
-0.00255899
-0.00253732
-0.00251586
-0.00249454
-0.00247337
-0.00245236
-0.00243153
-0.00241088
-0.00239039
-0.00237005
-0.00234985
-0.0023298
-0.00230989
-0.00229016
-0.00227069
-0.00225148
-0.00223255
-0.00221393
-0.00219566
-0.00217774
-0.00216017
-0.00214299
-0.00212615
-0.00210968
-0.00209349
-0.0020776
-0.0020619
-0.00204638
-0.00203093
-0.00201556
-0.00200017
-0.00198476
-0.0019693
-0.00195375
-0.00193813
-0.00192241
-0.00190659
-0.00189069
-0.0018747
-0.00185862
-0.00184239
-0.00182603
-0.00180957
-0.00179289
-0.00177593
-0.00175873
-0.00174131
-0.0017236
-0.00170559
-0.00168728
-0.00166867
-0.00164975
-0.00163049
-0.00161088
-0.00159095
-0.00157071
-0.00155017
-0.00152932
-0.00150818
-0.00148673
-0.00146501
-0.00144302
-0.00142077
-0.00139828
-0.00137557
-0.00135266
-0.00132956
-0.0013063
-0.00128289
-0.00125937
-0.00123573
-0.00121203
-0.00118827
-0.00116449
-0.00114072
-0.00111698
-0.00109332
-0.00106977
-0.00104633
-0.00102308
-0.000999974
-0.000977145
-0.000954527
-0.00093216
-0.000909975
-0.000888178
-0.000866806
-0.000845568
-0.000824326
-0.000802847
-0.000781201
-0.000759379
-0.000737346
-0.000715111
-0.000692966
-0.000670929
-0.000649064
-0.000627374
-0.000605786
-0.000584265
-0.000562841
-0.000541507
-0.00052021
-0.000498968
-0.000477839
-0.000456838
-0.000435982
-0.000415285
-0.000394759
-0.000374411
-0.000354239
-0.000334237
-0.000314402
-0.000294724
-0.000275195
-0.000255801
-0.000236526
-0.000217349
-0.000198255
-0.000179227
-0.00016025
-0.000141311
-0.000122401
-0.000103518
-8.46592e-05
-6.58194e-05
-4.69965e-05