/*--------------------------------*- C++ -*----------------------------------*\
| =========                 |                                                 |
| \\      /  F ield         | OpenFOAM: The Open Source CFD Toolbox           |
|  \\    /   O peration     | Version:  2506                                  |
|   \\  /    A nd           | Website:  www.openfoam.com                      |
|    \\/     M anipulation  |                                                 |
\*---------------------------------------------------------------------------*/
FoamFile
{
    version     2.0;
    format      ascii;
    arch        "LSB;label=32;scalar=64";
    class       surfaceScalarField;
    location    "4.6";
    object      phi;
}
// * * * * * * * * * * * * * * * * * * * * * * * * * * * * * * * * * * * * * //

dimensions      [0 3 -1 0 0 0 0];

oriented        oriented;

internalField   nonuniform List<scalar> 
7780
(
2.05869e-09
4.41313e-10
1.55971e-09
4.98972e-10
1.20069e-09
3.5902e-10
9.6098e-10
2.39715e-10
8.04116e-10
1.56864e-10
7.00155e-10
1.0396e-10
6.2934e-10
7.08157e-11
5.7933e-10
5.00102e-11
5.42659e-10
3.66707e-11
5.14758e-10
2.79008e-11
4.92822e-10
2.19363e-11
4.7506e-10
1.77619e-11
4.60268e-10
1.47918e-11
4.4762e-10
1.26491e-11
4.36525e-10
1.1095e-11
4.26546e-10
9.97924e-12
4.17349e-10
9.19669e-12
4.08677e-10
8.67278e-12
4.00319e-10
8.3576e-12
3.92102e-10
8.21781e-12
3.83872e-10
8.23064e-12
3.7549e-10
8.38206e-12
3.66825e-10
8.66476e-12
3.57749e-10
9.07595e-12
3.48133e-10
9.61653e-12
3.37842e-10
1.02909e-11
3.26734e-10
1.11078e-11
3.14652e-10
1.20822e-11
3.01411e-10
1.32413e-11
2.86771e-10
1.4639e-11
2.70375e-10
1.63964e-11
2.51587e-10
1.87879e-11
2.2941e-10
2.21764e-11
1.97979e-10
3.14305e-11
1.72886e-10
2.50924e-11
1.68756e-10
4.12911e-12
1.76748e-10
-7.99238e-12
1.90467e-10
-1.37191e-11
2.10318e-10
-1.98509e-11
2.38951e-10
-2.86334e-11
2.87053e-10
-4.81034e-11
3.42172e-10
-5.51207e-11
3.92674e-10
-5.0505e-11
4.3953e-10
-4.68601e-11
4.80983e-10
-4.14564e-11
5.18503e-10
-3.75225e-11
5.54081e-10
-3.55787e-11
5.82951e-10
-2.88699e-11
6.09795e-10
-2.68426e-11
6.325e-10
-2.27029e-11
6.49657e-10
-1.71541e-11
6.64235e-10
-1.45748e-11
6.70003e-10
-5.7656e-12
6.73046e-10
-3.04077e-12
6.65333e-10
7.71372e-12
6.51874e-10
1.34596e-11
6.30298e-10
2.15754e-11
5.98917e-10
3.13814e-11
5.65774e-10
3.31427e-11
5.19858e-10
4.5916e-11
4.75644e-10
4.42146e-11
4.28032e-10
4.76127e-11
3.80623e-10
4.741e-11
3.36822e-10
4.38026e-11
2.93594e-10
4.32282e-11
2.56791e-10
3.68021e-11
2.21534e-10
3.5257e-11
1.92134e-10
2.93993e-11
1.65286e-10
2.68469e-11
1.42228e-10
2.30586e-11
1.224e-10
1.98296e-11
1.04244e-10
1.81596e-11
8.89872e-11
1.52626e-11
7.52688e-11
1.37252e-11
6.29331e-11
1.23438e-11
5.21589e-11
1.07834e-11
4.24074e-11
9.76182e-12
3.35018e-11
8.91667e-12
2.55775e-11
7.93607e-12
1.84597e-11
7.12992e-12
1.20832e-11
6.38848e-12
6.51008e-12
5.58455e-12
1.71039e-12
4.80984e-12
-2.31356e-12
4.03197e-12
-5.5366e-12
3.22783e-12
-8.06038e-12
2.5244e-12
-9.9769e-12
1.91246e-12
-1.13361e-11
1.3506e-12
-1.23196e-11
9.70867e-13
-1.30076e-11
6.72566e-13
-1.34191e-11
3.94562e-13
-1.37312e-11
2.95026e-13
-1.3968e-11
2.20679e-13
-1.41122e-11
1.3018e-13
-1.42745e-11
1.50548e-13
-1.43207e-11
3.71768e-14
-1.43414e-11
1.38854e-14
-1.41801e-11
-1.65956e-13
-1.38729e-11
-3.10587e-13
-1.32501e-11
-6.25014e-13
-1.23505e-11
-9.01288e-13
-1.09651e-11
-1.38662e-12
-9.03302e-12
-1.93299e-12
-6.45369e-12
-2.57993e-12
-2.97717e-12
-3.4768e-12
1.31566e-12
-4.2929e-12
6.82031e-12
-5.50467e-12
1.34393e-11
-6.61931e-12
2.14719e-11
-8.03359e-12
3.09652e-11
-9.49541e-12
4.20958e-11
-1.11343e-11
5.48355e-11
-1.27451e-11
6.95211e-11
-1.46931e-11
8.55444e-11
-1.60326e-11
1.03871e-10
-1.83374e-11
1.23462e-10
-1.96037e-11
1.4453e-10
-2.10809e-11
1.67171e-10
-2.26552e-11
1.90513e-10
-2.33563e-11
2.14562e-10
-2.40635e-11
2.39273e-10
-2.47268e-11
2.63799e-10
-2.45421e-11
2.87817e-10
-2.40349e-11
3.11478e-10
-2.36779e-11
3.34076e-10
-2.26147e-11
3.5552e-10
-2.14581e-11
3.75681e-10
-2.01748e-11
3.94308e-10
-1.86368e-11
4.11686e-10
-1.73842e-11
4.28331e-10
-1.66449e-11
4.43051e-10
-1.47119e-11
4.57092e-10
-1.40255e-11
4.7157e-10
-1.44564e-11
4.84114e-10
-1.2517e-11
4.96744e-10
-1.26021e-11
5.11341e-10
-1.4571e-11
5.22519e-10
-1.11552e-11
5.36204e-10
-1.36674e-11
5.47824e-10
-1.16081e-11
5.59017e-10
-1.11863e-11
5.68272e-10
-9.25387e-12
5.74361e-10
-6.09078e-12
5.75816e-10
-1.45898e-12
5.73395e-10
2.41526e-12
5.60669e-10
1.27207e-11
5.45703e-10
1.4962e-11
5.16738e-10
2.89623e-11
4.84719e-10
3.20174e-11
4.45966e-10
3.8753e-11
4.01579e-10
4.43868e-11
3.57914e-10
4.36659e-11
3.09426e-10
4.84892e-11
2.6591e-10
4.35175e-11
2.21469e-10
4.44425e-11
1.82819e-10
3.86509e-11
1.45474e-10
3.73458e-11
1.13522e-10
3.19522e-11
8.41346e-11
2.93874e-11
5.93602e-11
2.47741e-11
3.84672e-11
2.08924e-11
3.75481e-11
9.18077e-13
3.8863e-11
-1.31591e-12
4.28455e-11
-3.98357e-12
5.00797e-11
-7.23512e-12
6.34042e-11
-1.33248e-11
8.2991e-11
-1.95861e-11
1.13639e-10
-3.06468e-11
1.46308e-10
-3.2667e-11
1.76309e-10
-3.00002e-11
2.041e-10
-2.77905e-11
2.29666e-10
-2.55656e-11
2.52871e-10
-2.32067e-11
2.73618e-10
-2.0749e-11
2.91875e-10
-1.82591e-11
3.07662e-10
-1.57892e-11
3.21042e-10
-1.33832e-11
3.3212e-10
-1.10813e-11
3.41037e-10
-8.91957e-12
3.47964e-10
-6.92882e-12
3.53096e-10
-5.13449e-12
3.56653e-10
-3.55728e-12
3.58863e-10
-2.21123e-12
3.59971e-10
-1.10687e-12
3.60228e-10
-2.55904e-13
3.5987e-10
3.60383e-13
3.59138e-10
7.34507e-13
3.58251e-10
8.90197e-13
3.57397e-10
8.56817e-13
3.56734e-10
6.65407e-13
3.56376e-10
3.60725e-13
3.56395e-10
-1.80594e-14
3.56811e-10
-4.1531e-13
3.57596e-10
-7.85125e-13
3.58677e-10
-1.08124e-12
3.59935e-10
-1.26039e-12
3.61211e-10
-1.27834e-12
3.62289e-10
-1.08049e-12
3.62849e-10
-5.62686e-13
3.6236e-10
4.87405e-13
2.79612e-12
2.64883e-09
2.92483e-10
2.59886e-09
5.48944e-10
2.421e-09
5.36874e-10
2.20574e-09
4.54975e-10
2.00041e-09
3.62193e-10
1.82796e-09
2.76415e-10
1.68965e-09
2.09121e-10
1.58011e-09
1.59557e-10
1.49327e-09
1.23513e-10
1.42376e-09
9.74109e-11
1.36735e-09
7.83387e-11
1.32082e-09
6.42949e-11
1.2817e-09
5.39109e-11
1.24817e-09
4.61779e-11
1.21886e-09
4.04118e-11
1.19268e-09
3.61543e-11
1.16881e-09
3.30687e-11
1.14657e-09
3.09094e-11
1.12542e-09
2.95069e-11
1.1049e-09
2.87443e-11
1.08459e-09
2.85403e-11
1.06413e-09
2.88436e-11
1.04317e-09
2.96263e-11
1.02136e-09
3.08769e-11
9.98384e-10
3.25974e-11
9.73872e-10
3.48026e-11
9.47459e-10
3.75208e-11
9.18743e-10
4.07985e-11
8.87271e-10
4.4713e-11
8.5251e-10
4.93994e-11
8.13793e-10
5.51138e-11
7.70219e-10
6.23612e-11
7.2034e-10
7.20555e-11
6.59427e-10
9.2343e-11
6.09223e-10
7.52957e-11
5.93627e-10
1.97254e-11
6.04971e-10
-1.93378e-11
6.34874e-10
-4.3622e-11
6.82389e-10
-6.73651e-11
7.50246e-10
-9.64891e-11
8.45652e-10
-1.43507e-10
9.50751e-10
-1.60218e-10
1.05233e-09
-1.52084e-10
1.14833e-09
-1.42862e-10
1.23584e-09
-1.28966e-10
1.31621e-09
-1.17892e-10
1.39096e-09
-1.10333e-10
1.45566e-09
-9.35654e-11
1.5147e-09
-8.58839e-11
1.56565e-09
-7.36578e-11
1.60715e-09
-5.86472e-11
1.64098e-09
-4.84073e-11
1.66117e-09
-2.59578e-11
1.67211e-09
-1.39781e-11
1.66695e-09
1.28813e-11
1.64893e-09
3.1478e-11
1.61517e-09
5.53332e-11
1.56409e-09
8.24643e-11
1.50244e-09
9.47947e-11
1.42098e-09
1.27374e-10
1.33353e-09
1.31661e-10
1.2373e-09
1.43844e-10
1.13733e-09
1.47383e-10
1.03849e-09
1.42641e-10
9.39793e-10
1.41925e-10
8.48379e-10
1.28217e-10
7.60816e-10
1.2282e-10
6.82105e-10
1.0811e-10
6.09596e-10
9.93565e-11
5.44527e-10
8.81286e-11
4.8659e-10
7.77669e-11
4.33616e-10
7.11345e-11
3.86852e-10
6.2027e-11
3.44644e-10
5.59341e-11
3.06346e-10
5.06414e-11
2.72039e-10
4.50897e-11
2.409e-10
4.09008e-11
2.12425e-10
3.73924e-11
1.86634e-10
3.37279e-11
1.63263e-10
3.05022e-11
1.42079e-10
2.75751e-11
1.23099e-10
2.45677e-11
1.06257e-10
2.16545e-11
9.15212e-11
1.87712e-11
7.89097e-11
1.58413e-11
6.8186e-11
1.3249e-11
5.92083e-11
1.08901e-11
5.20048e-11
8.55339e-12
4.61028e-11
6.8717e-12
4.1221e-11
5.55321e-12
3.73596e-11
4.25488e-12
3.40652e-11
3.58873e-12
3.11773e-11
3.10832e-12
2.88438e-11
2.46394e-12
2.66493e-11
2.34561e-12
2.50959e-11
1.59126e-12
2.3816e-11
1.29454e-12
2.3412e-11
2.38518e-13
2.35692e-11
-4.67674e-13
2.52605e-11
-2.31645e-12
2.81458e-11
-3.78694e-12
3.29795e-11
-6.22086e-12
3.98316e-11
-8.7859e-12
4.9024e-11
-1.17732e-11
6.12241e-11
-1.56778e-11
7.62372e-11
-1.9307e-11
9.49532e-11
-2.42217e-11
1.17138e-10
-2.88047e-11
1.43281e-10
-3.41779e-11
1.7341e-10
-3.9625e-11
2.0764e-10
-4.5365e-11
2.45846e-10
-5.09527e-11
2.88164e-10
-5.7011e-11
3.33722e-10
-6.15906e-11
3.83263e-10
-6.78783e-11
4.35245e-10
-7.15834e-11
4.89564e-10
-7.53978e-11
5.45856e-10
-7.89432e-11
6.0279e-10
-8.02856e-11
6.60015e-10
-8.12845e-11
7.1708e-10
-8.17881e-11
7.72741e-10
-8.02004e-11
8.26519e-10
-7.78121e-11
8.78333e-10
-7.54938e-11
9.27366e-10
-7.16519e-11
9.7352e-10
-6.76179e-11
1.0167e-09
-6.33642e-11
1.05682e-09
-5.87696e-11
1.09444e-09
-5.50119e-11
1.13016e-09
-5.23882e-11
1.16303e-09
-4.75897e-11
1.19468e-09
-4.56918e-11
1.22646e-09
-4.62431e-11
1.25612e-09
-4.21782e-11
1.28633e-09
-4.28029e-11
1.31778e-09
-4.60182e-11
1.34638e-09
-3.97379e-11
1.37651e-09
-4.37826e-11
1.40413e-09
-3.92191e-11
1.42963e-09
-3.66712e-11
1.45114e-09
-3.07613e-11
1.46608e-09
-2.10246e-11
1.47259e-09
-7.9641e-12
1.46897e-09
6.0317e-12
1.4507e-09
3.09937e-11
1.42169e-09
4.39647e-11
1.37197e-09
7.86824e-11
1.31046e-09
9.35204e-11
1.23467e-09
1.14551e-10
1.14605e-09
1.33003e-10
1.05205e-09
1.37672e-10
9.48329e-10
1.52207e-10
8.46479e-10
1.45368e-10
7.42059e-10
1.48864e-10
6.43762e-10
1.36948e-10
5.47862e-10
1.33246e-10
4.6006e-10
1.19755e-10
3.78512e-10
1.10934e-10
3.07826e-10
9.54593e-11
2.48563e-10
8.01551e-11
2.28893e-10
2.05871e-11
2.25057e-10
2.51994e-12
2.33161e-10
-1.2088e-11
2.52836e-10
-2.69107e-11
2.88588e-10
-4.90781e-11
3.40138e-10
-7.11379e-11
4.10826e-10
-1.01335e-10
4.85243e-10
-1.07084e-10
5.55539e-10
-1.00297e-10
6.2127e-10
-9.35229e-11
6.82097e-10
-8.63931e-11
7.37687e-10
-7.87987e-11
7.87797e-10
-7.08595e-11
8.32304e-10
-6.27684e-11
8.71208e-10
-5.46939e-11
9.04605e-10
-4.67818e-11
9.32691e-10
-3.91676e-11
9.55748e-10
-3.19772e-11
9.74143e-10
-2.53233e-11
9.88312e-10
-1.93033e-11
9.98754e-10
-1.39985e-11
1.00602e-09
-9.47122e-12
1.01068e-09
-5.76451e-12
1.01332e-09
-2.89767e-12
1.01454e-09
-8.56114e-13
1.01487e-09
4.00264e-13
1.01484e-09
9.26202e-13
1.01485e-09
8.46282e-13
1.01524e-09
2.74345e-13
1.01624e-09
-6.36726e-13
1.01795e-09
-1.72968e-12
1.02038e-09
-2.84103e-12
1.02341e-09
-3.81618e-12
1.02684e-09
-4.51654e-12
1.0304e-09
-4.82459e-12
1.03376e-09
-4.64067e-12
1.03655e-09
-3.86733e-12
1.03835e-09
-2.36653e-12
1.03871e-09
1.28645e-13
4.27579e-12
2.61925e-09
1.73237e-10
2.75223e-09
4.15963e-10
2.78975e-09
4.99351e-10
2.74816e-09
4.96568e-10
2.66024e-09
4.50107e-10
2.54999e-09
3.86673e-10
2.43639e-09
3.22721e-10
2.33112e-09
2.64825e-10
2.23787e-09
2.16762e-10
2.15695e-09
1.78328e-10
2.08744e-09
1.47848e-10
2.02771e-09
1.24029e-10
1.97601e-09
1.05605e-10
1.93084e-09
9.13562e-11
1.89084e-09
8.0404e-11
1.85489e-09
7.21072e-11
1.82202e-09
6.59416e-11
1.79142e-09
6.15073e-11
1.76241e-09
5.85209e-11
1.73437e-09
5.67797e-11
1.70678e-09
5.61374e-11
1.67912e-09
5.65018e-11
1.65092e-09
5.78233e-11
1.62172e-09
6.0082e-11
1.59103e-09
6.32842e-11
1.55837e-09
6.74611e-11
1.52322e-09
7.26686e-11
1.48503e-09
7.89928e-11
1.44318e-09
8.65651e-11
1.39698e-09
9.55923e-11
1.34568e-09
1.06418e-10
1.28839e-09
1.19646e-10
1.2241e-09
1.3635e-10
1.14946e-09
1.6698e-10
1.08553e-09
1.39227e-10
1.05817e-09
4.70802e-11
1.06483e-09
-2.59949e-11
1.0993e-09
-7.80874e-11
1.15977e-09
-1.27835e-10
1.246e-09
-1.82717e-10
1.35929e-09
-2.56803e-10
1.48218e-09
-2.83097e-10
1.60427e-09
-2.74176e-10
1.7212e-09
-2.59784e-10
1.82933e-09
-2.37102e-10
1.92925e-09
-2.17811e-10
2.02176e-09
-2.02845e-10
2.10383e-09
-1.75637e-10
2.17849e-09
-1.60538e-10
2.24387e-09
-1.39043e-10
2.29886e-09
-1.13633e-10
2.34405e-09
-9.35984e-11
2.37593e-09
-5.78407e-11
2.39627e-09
-3.43199e-11
2.40057e-09
8.58487e-12
2.39006e-09
4.19912e-11
2.36251e-09
8.28849e-11
2.31617e-09
1.28802e-10
2.25498e-09
1.55987e-10
2.17243e-09
2.09918e-10
2.07771e-09
2.26382e-10
1.96934e-09
2.52212e-10
1.85187e-09
2.64855e-10
1.72979e-09
2.64725e-10
1.60398e-09
2.67729e-10
1.48118e-09
2.51022e-10
1.36036e-09
2.43642e-10
1.24668e-09
2.2179e-10
1.13921e-09
2.06826e-10
1.03964e-09
1.87706e-10
9.4846e-10
1.68944e-10
8.63844e-10
1.55751e-10
7.87219e-10
1.38652e-10
7.17078e-10
1.26074e-10
6.52727e-10
1.14991e-10
5.9424e-10
1.03576e-10
5.40686e-10
9.44545e-11
4.91429e-10
8.66498e-11
4.46374e-10
7.87849e-11
4.05185e-10
7.16918e-11
3.67485e-10
6.52771e-11
3.33243e-10
5.881e-11
3.02339e-10
5.25594e-11
2.74718e-10
4.63918e-11
2.50461e-10
4.00964e-11
2.29306e-10
3.44015e-11
2.11064e-10
2.91297e-11
1.95865e-10
2.37501e-11
1.83061e-10
1.96739e-11
1.72268e-10
1.6345e-11
1.63511e-10
1.30112e-11
1.56102e-10
1.0998e-11
1.49722e-10
9.4895e-12
1.44657e-10
7.5303e-12
1.40131e-10
6.87472e-12
1.37035e-10
4.69e-12
1.34649e-10
3.68305e-12
1.34066e-10
8.23209e-13
1.34776e-10
-1.17617e-12
1.38187e-10
-5.72685e-12
1.43785e-10
-9.38383e-12
1.52883e-10
-1.53192e-11
1.65519e-10
-2.14215e-11
1.82209e-10
-2.84639e-11
2.03941e-10
-3.74103e-11
2.30336e-10
-4.57024e-11
2.62607e-10
-5.64922e-11
3.00294e-10
-6.64915e-11
3.43893e-10
-7.77757e-11
3.93289e-10
-8.9021e-11
4.4836e-10
-1.00435e-10
5.08772e-10
-1.11364e-10
5.74334e-10
-1.22573e-10
6.4389e-10
-1.31146e-10
7.17798e-10
-1.41786e-10
7.94214e-10
-1.47998e-10
8.72702e-10
-1.53884e-10
9.52534e-10
-1.58773e-10
1.03222e-09
-1.59971e-10
1.11116e-09
-1.60214e-10
1.18867e-09
-1.59291e-10
1.2635e-09
-1.55026e-10
1.33518e-09
-1.49492e-10
1.40348e-09
-1.43796e-10
1.46778e-09
-1.35946e-10
1.52804e-09
-1.27883e-10
1.58429e-09
-1.19618e-10
1.63668e-09
-1.11163e-10
1.6858e-09
-1.04141e-10
1.7322e-09
-9.879e-11
1.77565e-09
-9.10604e-11
1.81739e-09
-8.7438e-11
1.85857e-09
-8.74415e-11
1.89783e-09
-8.14485e-11
1.93733e-09
-8.2306e-11
1.97691e-09
-8.55947e-11
2.01436e-09
-7.71872e-11
2.05183e-09
-8.12388e-11
2.08667e-09
-7.4057e-11
2.11822e-09
-6.8204e-11
2.14499e-09
-5.75262e-11
2.1641e-09
-4.01221e-11
2.17404e-09
-1.79042e-11
2.17227e-09
7.80363e-12
2.15555e-09
4.77098e-11
2.125e-09
7.45122e-11
2.07385e-09
1.29833e-10
2.0068e-09
1.60566e-10
1.92232e-09
1.99037e-10
1.82067e-09
2.34652e-10
1.70792e-09
2.50415e-10
1.5808e-09
2.79331e-10
1.44944e-09
2.7673e-10
1.31097e-09
2.87335e-10
1.17419e-09
2.73729e-10
1.03688e-09
2.70565e-10
9.05663e-10
2.50967e-10
7.80989e-10
2.35609e-10
6.71215e-10
2.05233e-10
5.76817e-10
1.74553e-10
5.34424e-10
6.29794e-11
5.19591e-10
1.73526e-11
5.26642e-10
-1.91392e-11
5.53704e-10
-5.39734e-11
6.05026e-10
-1.00401e-10
6.77961e-10
-1.44074e-10
7.7294e-10
-1.96316e-10
8.71386e-10
-2.05531e-10
9.64876e-10
-1.93789e-10
1.0526e-09
-1.81248e-10
1.13399e-09
-1.67791e-10
1.20867e-09
-1.53477e-10
1.27636e-09
-1.38548e-10
1.33692e-09
-1.23331e-10
1.39034e-09
-1.08122e-10
1.43674e-09
-9.31812e-11
1.47633e-09
-7.87545e-11
1.50942e-09
-6.50751e-11
1.53646e-09
-5.23588e-11
1.55795e-09
-4.07987e-11
1.57452e-09
-3.05606e-11
1.58683e-09
-2.17787e-11
1.59562e-09
-1.45472e-11
1.60163e-09
-8.91132e-12
1.60564e-09
-4.85818e-12
1.60836e-09
-2.31314e-12
1.61043e-09
-1.1414e-12
1.61242e-09
-1.13946e-12
1.61475e-09
-2.06061e-12
1.61773e-09
-3.61668e-12
1.6215e-09
-5.49874e-12
1.62606e-09
-7.39595e-12
1.63125e-09
-9.01622e-12
1.63684e-09
-1.01047e-11
1.64247e-09
-1.04572e-11
1.64775e-09
-9.92491e-12
1.65228e-09
-8.40566e-12
1.65572e-09
-5.80967e-12
1.65786e-09
-2.01103e-12
3.65347e-12
2.56732e-09
1.05913e-10
2.69658e-09
2.86705e-10
2.80568e-09
3.90249e-10
2.8729e-09
4.29349e-10
2.89431e-09
4.28702e-10
2.87753e-09
4.03449e-10
2.83718e-09
3.63077e-10
2.78361e-09
3.18386e-10
2.72454e-09
2.75841e-10
2.6656e-09
2.37266e-10
2.6098e-09
2.03646e-10
2.5581e-09
1.75728e-10
2.51073e-09
1.52981e-10
2.46753e-09
1.34554e-10
2.42804e-09
1.19895e-10
2.39165e-09
1.08497e-10
2.35776e-09
9.98285e-11
2.3258e-09
9.34699e-11
2.2952e-09
8.91178e-11
2.26544e-09
8.6542e-11
2.23601e-09
8.5566e-11
2.20643e-09
8.60847e-11
2.17621e-09
8.80458e-11
2.14486e-09
9.14335e-11
2.11187e-09
9.62693e-11
2.07672e-09
1.0261e-10
2.03884e-09
1.10547e-10
1.99763e-09
1.20209e-10
1.95241e-09
1.3178e-10
1.90249e-09
1.45518e-10
1.84709e-09
1.61812e-10
1.78548e-09
1.81258e-10
1.71696e-09
2.0487e-10
1.63898e-09
2.44964e-10
1.56958e-09
2.08619e-10
1.53288e-09
8.37875e-11
1.53068e-09
-2.37973e-11
1.56023e-09
-1.07644e-10
1.61962e-09
-1.87224e-10
1.70596e-09
-2.69053e-10
1.81677e-09
-3.67613e-10
1.93682e-09
-4.03144e-10
2.0587e-09
-3.96053e-10
2.1767e-09
-3.77784e-10
2.28688e-09
-3.47279e-10
2.3892e-09
-3.20128e-10
2.48409e-09
-2.97729e-10
2.56934e-09
-2.60891e-10
2.6473e-09
-2.38501e-10
2.71664e-09
-2.08378e-10
2.77609e-09
-1.73091e-10
2.82617e-09
-1.43673e-10
2.86506e-09
-9.67339e-11
2.89306e-09
-6.23235e-11
2.90782e-09
-6.17291e-12
2.90915e-09
4.06618e-11
2.89567e-09
9.63687e-11
2.86557e-09
1.58907e-10
2.82061e-09
2.00938e-10
2.75625e-09
2.74279e-10
2.67743e-09
3.05205e-10
2.58276e-09
3.46883e-10
2.47524e-09
3.72375e-10
2.35783e-09
3.8213e-10
2.23205e-09
3.93507e-10
2.1033e-09
3.7978e-10
1.97211e-09
3.7483e-10
1.84339e-09
3.50508e-10
1.71776e-09
3.32465e-10
1.59745e-09
3.08011e-10
1.48401e-09
2.82393e-10
1.37638e-09
2.63378e-10
1.27652e-09
2.38516e-10
1.18339e-09
2.19205e-10
1.09663e-09
2.0175e-10
1.01654e-09
1.83665e-10
9.42291e-10
1.68706e-10
8.73342e-10
1.55601e-10
8.09576e-10
1.42552e-10
7.50683e-10
1.30586e-10
6.96198e-10
1.19763e-10
6.46078e-10
1.0893e-10
6.00153e-10
9.84821e-11
5.58353e-10
8.8188e-11
5.20825e-10
7.76205e-11
4.87322e-10
6.78996e-11
4.57691e-10
5.87567e-11
4.32266e-10
4.9171e-11
4.10336e-10
4.16002e-11
3.91567e-10
3.51124e-11
3.76046e-10
2.85308e-11
3.62974e-10
2.40705e-11
3.51874e-10
2.05917e-11
3.43177e-10
1.62302e-11
3.35736e-10
1.43197e-11
3.30781e-10
9.64893e-12
3.2723e-10
7.23761e-12
3.26597e-10
1.45979e-12
3.27989e-10
-2.56508e-12
3.33541e-10
-1.12766e-11
3.42307e-10
-1.81482e-11
3.56115e-10
-2.91265e-11
3.7488e-10
-4.01856e-11
3.99264e-10
-5.2848e-11
4.30413e-10
-6.85586e-11
4.67724e-10
-8.30127e-11
5.12533e-10
-1.013e-10
5.64104e-10
-1.18061e-10
6.22757e-10
-1.36427e-10
6.88174e-10
-1.54436e-10
7.59866e-10
-1.72124e-10
8.37259e-10
-1.88755e-10
9.19778e-10
-2.0509e-10
1.006e-09
-2.1737e-10
1.09593e-09
-2.31715e-10
1.18753e-09
-2.39595e-10
1.28011e-09
-2.46463e-10
1.37276e-09
-2.51424e-10
1.46398e-09
-2.51194e-10
1.55308e-09
-2.49306e-10
1.63938e-09
-2.45586e-10
1.72178e-09
-2.37425e-10
1.79996e-09
-2.27673e-10
1.87374e-09
-2.17566e-10
1.94275e-09
-2.04955e-10
2.00714e-09
-1.92276e-10
2.0671e-09
-1.79578e-10
2.12298e-09
-1.67047e-10
2.17541e-09
-1.56574e-10
2.22494e-09
-1.48319e-10
2.27183e-09
-1.37954e-10
2.3168e-09
-1.32419e-10
2.36104e-09
-1.31696e-10
2.40368e-09
-1.24099e-10
2.44617e-09
-1.24803e-10
2.48795e-09
-1.27381e-10
2.52816e-09
-1.17392e-10
2.56728e-09
-1.2036e-10
2.60393e-09
-1.10702e-10
2.63683e-09
-1.01097e-10
2.66513e-09
-8.58216e-11
2.68616e-09
-6.11409e-11
2.69904e-09
-3.07771e-11
2.70109e-09
5.75331e-12
2.69043e-09
5.8374e-11
2.66633e-09
9.86071e-11
2.62477e-09
1.71388e-10
2.56709e-09
2.18248e-10
2.49224e-09
2.73881e-10
2.399e-09
3.279e-10
2.29149e-09
3.5792e-10
2.16641e-09
4.04412e-10
2.0315e-09
4.11644e-10
1.88427e-09
4.3457e-10
1.73254e-09
4.25456e-10
1.57484e-09
4.28273e-10
1.4181e-09
4.07709e-10
1.26502e-09
3.88687e-10
1.12821e-09
3.42045e-10
1.00753e-09
2.95235e-10
9.44437e-10
1.26067e-10
9.16342e-10
4.54475e-11
9.18329e-10
-2.1126e-11
9.47472e-10
-8.31171e-11
1.00708e-09
-1.60007e-10
1.09134e-09
-2.28343e-10
1.198e-09
-3.02972e-10
1.30678e-09
-3.14317e-10
1.40962e-09
-2.96627e-10
1.50589e-09
-2.77524e-10
1.59511e-09
-2.57008e-10
1.67698e-09
-2.35351e-10
1.75134e-09
-2.12915e-10
1.81815e-09
-1.90141e-10
1.87745e-09
-1.67431e-10
1.92941e-09
-1.45137e-10
1.97424e-09
-1.23594e-10
2.0123e-09
-1.03128e-10
2.04399e-09
-8.40477e-11
2.06982e-09
-6.66333e-11
2.0904e-09
-5.11342e-11
2.10638e-09
-3.77594e-11
2.1185e-09
-2.66634e-11
2.12753e-09
-1.79298e-11
2.13423e-09
-1.15549e-11
2.13936e-09
-7.43964e-12
2.14361e-09
-5.38681e-12
2.14758e-09
-5.10588e-12
2.15175e-09
-6.2281e-12
2.15646e-09
-8.32464e-12
2.1619e-09
-1.0932e-11
2.16808e-09
-1.3583e-11
2.1749e-09
-1.58386e-11
2.18211e-09
-1.73177e-11
2.18937e-09
-1.7722e-11
2.19629e-09
-1.68529e-11
2.2025e-09
-1.46177e-11
2.20769e-09
-1.10061e-11
2.21175e-09
-6.06752e-12
1.09897e-12
2.53833e-09
6.75818e-11
2.63117e-09
1.93869e-10
2.73759e-09
2.83827e-10
2.83186e-09
3.35074e-10
2.90395e-09
3.56613e-10
2.95184e-09
3.55565e-10
2.97575e-09
3.39167e-10
2.97963e-09
3.14499e-10
2.9696e-09
2.85877e-10
2.95078e-09
2.56081e-10
2.92667e-09
2.27754e-10
2.89954e-09
2.0286e-10
2.87133e-09
1.81189e-10
2.84321e-09
1.62674e-10
2.81561e-09
1.47497e-10
2.78869e-09
1.35421e-10
2.76246e-09
1.26058e-10
2.7368e-09
1.19131e-10
2.71148e-09
1.14438e-10
2.68621e-09
1.11805e-10
2.66071e-09
1.11075e-10
2.6346e-09
1.12187e-10
2.60753e-09
1.15119e-10
2.57909e-09
1.1988e-10
2.54883e-09
1.26524e-10
2.51629e-09
1.35147e-10
2.48096e-09
1.45883e-10
2.44226e-09
1.58909e-10
2.39958e-09
1.74455e-10
2.35228e-09
1.9282e-10
2.29969e-09
2.14408e-10
2.24117e-09
2.39772e-10
2.17624e-09
2.69804e-10
2.10293e-09
3.18274e-10
2.03519e-09
2.76355e-10
1.99301e-09
1.25972e-10
1.9813e-09
-1.20893e-11
2.00067e-09
-1.27015e-10
2.04971e-09
-2.36267e-10
2.12423e-09
-3.43568e-10
2.22e-09
-4.63386e-10
2.32491e-09
-5.08044e-10
2.43403e-09
-5.05179e-10
2.54076e-09
-4.84503e-10
2.64102e-09
-4.47536e-10
2.73441e-09
-4.1352e-10
2.82113e-09
-3.84452e-10
2.90017e-09
-3.39925e-10
2.97232e-09
-3.10655e-10
3.03683e-09
-2.72885e-10
3.09383e-09
-2.30097e-10
3.14275e-09
-1.92588e-10
3.18324e-09
-1.37226e-10
3.21484e-09
-9.3928e-11
3.23697e-09
-2.83046e-11
3.24872e-09
2.89193e-11
3.24951e-09
9.55769e-11
3.2378e-09
1.70617e-10
3.21388e-09
2.24859e-10
3.1749e-09
3.13257e-10
3.12252e-09
3.57584e-10
3.05531e-09
4.14098e-10
2.97446e-09
4.53225e-10
2.88099e-09
4.75599e-10
2.77622e-09
4.98277e-10
2.66339e-09
4.92607e-10
2.54373e-09
4.9449e-10
2.42101e-09
4.73233e-10
2.2968e-09
4.56672e-10
2.17347e-09
4.31345e-10
2.05331e-09
4.02554e-10
1.93617e-09
3.80522e-10
1.82448e-09
3.50204e-10
1.71793e-09
3.25755e-10
1.6167e-09
3.02978e-10
1.5215e-09
2.7887e-10
1.4318e-09
2.58405e-10
1.34739e-09
2.40013e-10
1.26826e-09
2.2169e-10
1.19425e-09
2.0459e-10
1.12493e-09
1.8908e-10
1.06032e-09
1.73545e-10
1.00023e-09
1.58564e-10
9.44612e-10
1.43801e-10
8.93673e-10
1.28554e-10
8.47224e-10
1.14344e-10
8.05194e-10
1.00781e-10
7.68188e-10
8.61715e-11
7.35549e-10
7.42362e-11
7.07153e-10
6.35056e-11
6.83225e-10
5.24583e-11
6.6303e-10
4.42655e-11
6.45983e-10
3.76411e-11
6.32706e-10
2.95107e-11
6.21693e-10
2.5338e-11
6.14461e-10
1.68851e-11
6.09537e-10
1.21668e-11
6.08762e-10
2.23951e-12
6.10953e-10
-4.75069e-12
6.18642e-10
-1.89623e-11
6.30563e-10
-3.00663e-11
6.48938e-10
-4.74996e-11
6.73466e-10
-6.47115e-11
7.04898e-10
-8.42792e-11
7.44359e-10
-1.08018e-10
7.91019e-10
-1.29671e-10
8.46131e-10
-1.5641e-10
9.08681e-10
-1.80608e-10
9.78671e-10
-2.06413e-10
1.05557e-09
-2.31326e-10
1.13844e-09
-2.54998e-10
1.22652e-09
-2.76831e-10
1.31883e-09
-2.97397e-10
1.4138e-09
-3.1233e-10
1.51108e-09
-3.29002e-10
1.60861e-09
-3.37123e-10
1.70555e-09
-3.43407e-10
1.80096e-09
-3.46837e-10
1.89347e-09
-3.43702e-10
1.98243e-09
-3.3827e-10
2.06735e-09
-3.30497e-10
2.14737e-09
-3.17448e-10
2.22243e-09
-3.02726e-10
2.29248e-09
-2.87618e-10
2.35751e-09
-2.69977e-10
2.41784e-09
-2.52614e-10
2.47386e-09
-2.35598e-10
2.52609e-09
-2.19274e-10
2.57517e-09
-2.05662e-10
2.62167e-09
-1.94812e-10
2.66608e-09
-1.82365e-10
2.70856e-09
-1.74902e-10
2.75068e-09
-1.73818e-10
2.7916e-09
-1.65026e-10
2.83198e-09
-1.6519e-10
2.87126e-09
-1.66667e-10
2.90947e-09
-1.5561e-10
2.94597e-09
-1.56859e-10
2.98039e-09
-1.45117e-10
3.01118e-09
-1.31886e-10
3.03813e-09
-1.12767e-10
3.059e-09
-8.20115e-11
3.07362e-09
-4.53885e-11
3.07943e-09
-5.77461e-14
3.07597e-09
6.18335e-11
3.06135e-09
1.13228e-10
3.03397e-09
1.98766e-10
2.9927e-09
2.59512e-10
2.937e-09
3.29584e-10
2.86447e-09
4.00426e-10
2.77735e-09
4.4504e-10
2.6721e-09
5.09664e-10
2.55357e-09
5.3018e-10
2.4191e-09
5.69038e-10
2.2745e-09
5.70063e-10
2.11829e-09
5.84481e-10
1.95662e-09
5.69386e-10
1.7939e-09
5.51407e-10
1.64653e-09
4.89414e-10
1.51346e-09
4.28313e-10
1.43673e-09
2.02797e-10
1.39779e-09
8.43832e-11
1.39358e-09
-1.69167e-11
1.42117e-09
-1.10704e-10
1.48292e-09
-2.21757e-10
1.57006e-09
-3.15482e-10
1.67797e-09
-4.10891e-10
1.78626e-09
-4.22608e-10
1.88763e-09
-3.98001e-10
1.98184e-09
-3.7174e-10
2.06863e-09
-3.43799e-10
2.14792e-09
-3.14647e-10
2.21975e-09
-2.84748e-10
2.28423e-09
-2.54624e-10
2.34154e-09
-2.24745e-10
2.39192e-09
-1.95521e-10
2.43567e-09
-1.67342e-10
2.47314e-09
-1.40595e-10
2.50474e-09
-1.15648e-10
2.53095e-09
-9.28393e-11
2.55229e-09
-7.24753e-11
2.56936e-09
-5.48222e-11
2.58279e-09
-4.00861e-11
2.59325e-09
-2.83868e-11
2.60144e-09
-1.97346e-11
2.60802e-09
-1.40164e-11
2.61363e-09
-1.09916e-11
2.61883e-09
-1.0299e-11
2.62408e-09
-1.14727e-11
2.62972e-09
-1.39651e-11
2.63597e-09
-1.71781e-11
2.64289e-09
-2.05033e-11
2.65041e-09
-2.3365e-11
2.65835e-09
-2.52605e-11
2.66642e-09
-2.5796e-11
2.67428e-09
-2.47184e-11
2.68159e-09
-2.19372e-11
2.68808e-09
-1.75074e-11
2.69365e-09
-1.16354e-11
-3.01065e-12
2.52326e-09
4.43178e-11
2.58626e-09
1.30872e-10
2.67044e-09
1.99649e-10
2.75962e-09
2.45892e-10
2.8436e-09
2.72635e-10
2.91574e-09
2.83427e-10
2.97309e-09
2.81815e-10
3.01608e-09
2.71506e-10
3.0465e-09
2.55459e-10
3.0653e-09
2.37287e-10
3.07422e-09
2.18833e-10
3.07651e-09
2.00567e-10
3.0742e-09
1.83496e-10
3.06838e-09
1.68493e-10
3.0598e-09
1.56084e-10
3.04922e-09
1.45999e-10
3.03718e-09
1.38101e-10
3.02392e-09
1.32382e-10
3.00957e-09
1.28789e-10
2.99411e-09
1.27274e-10
2.97749e-09
1.27685e-10
2.95957e-09
1.30108e-10
2.94014e-09
1.34553e-10
2.91894e-09
1.41078e-10
2.89568e-09
1.49786e-10
2.87e-09
1.60824e-10
2.84151e-09
1.74375e-10
2.80975e-09
1.90666e-10
2.77424e-09
2.09971e-10
2.73444e-09
2.32621e-10
2.68982e-09
2.59026e-10
2.63989e-09
2.89698e-10
2.58428e-09
3.25413e-10
2.52162e-09
3.80936e-10
2.46132e-09
3.36658e-10
2.41799e-09
1.69302e-10
2.39856e-09
7.34141e-12
2.40646e-09
-1.34924e-10
2.4411e-09
-2.70904e-10
2.49802e-09
-4.00489e-10
2.57267e-09
-5.38028e-10
2.65636e-09
-5.91733e-10
2.74628e-09
-5.95099e-10
2.83509e-09
-5.73319e-10
2.91874e-09
-5.31184e-10
2.99663e-09
-4.91408e-10
3.0689e-09
-4.56722e-10
3.13553e-09
-4.0655e-10
3.19616e-09
-3.71282e-10
3.25008e-09
-3.26809e-10
3.29903e-09
-2.7905e-10
3.3417e-09
-2.35258e-10
3.3788e-09
-1.74326e-10
3.4095e-09
-1.2463e-10
3.4344e-09
-5.32015e-11
3.45247e-09
1.08452e-11
3.4638e-09
8.42537e-11
3.46732e-09
1.67095e-10
3.46246e-09
2.29721e-10
3.44793e-09
3.27788e-10
3.42319e-09
3.82321e-10
3.38699e-09
4.50303e-10
3.33902e-09
5.01189e-10
3.27864e-09
5.35977e-10
3.20673e-09
5.70185e-10
3.12414e-09
5.75204e-10
3.03211e-09
5.86515e-10
2.93267e-09
5.7268e-10
2.82765e-09
5.61684e-10
2.71888e-09
5.40118e-10
2.60888e-09
5.12559e-10
2.49807e-09
4.91331e-10
2.38905e-09
4.59227e-10
2.28217e-09
4.32633e-10
2.17815e-09
4.06998e-10
2.07809e-09
3.7893e-10
1.98191e-09
3.54585e-10
1.88984e-09
3.32089e-10
1.80205e-09
3.09481e-10
1.7187e-09
2.87938e-10
1.63947e-09
2.683e-10
1.56454e-09
2.48478e-10
1.4938e-09
2.29299e-10
1.42724e-09
2.10354e-10
1.36514e-09
1.90648e-10
1.30739e-09
1.72088e-10
1.25401e-09
1.54157e-10
1.20587e-09
1.3431e-10
1.16243e-09
1.17672e-10
1.12392e-09
1.02011e-10
1.09075e-09
8.56233e-11
1.06249e-09
7.25329e-11
1.03853e-09
6.16e-11
1.0198e-09
4.82491e-11
1.00451e-09
4.06263e-11
9.94455e-10
2.69477e-11
9.87778e-10
1.88494e-11
9.86569e-10
3.4544e-12
9.89227e-10
-7.40337e-12
9.9868e-10
-2.84101e-11
1.01323e-09
-4.46128e-11
1.03538e-09
-6.96489e-11
1.06454e-09
-9.38672e-11
1.1015e-09
-1.21234e-10
1.14718e-09
-1.537e-10
1.20058e-09
-1.83061e-10
1.26266e-09
-2.18491e-10
1.33219e-09
-2.50139e-10
1.40876e-09
-2.82976e-10
1.49165e-09
-3.14213e-10
1.5795e-09
-3.42839e-10
1.67138e-09
-3.68713e-10
1.76598e-09
-3.91988e-10
1.86167e-09
-4.08021e-10
1.95787e-09
-4.25197e-10
2.05258e-09
-4.31837e-10
2.14495e-09
-4.35774e-10
2.23411e-09
-4.36004e-10
2.31895e-09
-4.28547e-10
2.39901e-09
-4.18328e-10
2.47403e-09
-4.05515e-10
2.54349e-09
-3.86913e-10
2.60763e-09
-3.66861e-10
2.66662e-09
-3.46604e-10
2.72077e-09
-3.24116e-10
2.77061e-09
-3.02455e-10
2.81669e-09
-2.81672e-10
2.85965e-09
-2.62242e-10
2.90017e-09
-2.4618e-10
2.93874e-09
-2.33383e-10
2.97596e-09
-2.1959e-10
3.01142e-09
-2.1037e-10
3.04758e-09
-2.09966e-10
3.08224e-09
-1.99687e-10
3.11668e-09
-1.99635e-10
3.1499e-09
-1.99888e-10
3.18256e-09
-1.88281e-10
3.21327e-09
-1.87569e-10
3.24245e-09
-1.74301e-10
3.26851e-09
-1.57948e-10
3.29177e-09
-1.36031e-10
3.3105e-09
-1.00741e-10
3.32503e-09
-5.99162e-11
3.33359e-09
-8.60917e-12
3.33622e-09
5.92005e-11
3.33089e-09
1.18564e-10
3.3179e-09
2.11754e-10
3.2945e-09
2.82913e-10
3.26072e-09
3.63356e-10
3.21367e-09
4.47478e-10
3.15403e-09
5.04679e-10
3.07828e-09
5.85417e-10
2.98851e-09
6.19954e-10
2.88186e-09
6.75692e-10
2.76156e-09
6.90365e-10
2.62573e-09
7.20313e-10
2.47871e-09
7.16406e-10
2.32584e-09
7.04284e-10
2.18617e-09
6.29078e-10
2.05733e-09
5.57162e-10
1.97764e-09
2.82485e-10
1.93419e-09
1.27833e-10
1.92593e-09
-8.65954e-12
1.95072e-09
-1.35488e-10
2.01027e-09
-2.8131e-10
2.09356e-09
-3.98779e-10
2.19425e-09
-5.11581e-10
2.29351e-09
-5.21869e-10
2.38522e-09
-4.89719e-10
2.46948e-09
-4.55999e-10
2.54625e-09
-4.20578e-10
2.6157e-09
-3.84096e-10
2.67805e-09
-3.47107e-10
2.73361e-09
-3.10186e-10
2.7827e-09
-2.73838e-10
2.82566e-09
-2.38491e-10
2.86289e-09
-2.04567e-10
2.89478e-09
-1.72484e-10
2.92176e-09
-1.42633e-10
2.94429e-09
-1.15367e-10
2.96284e-09
-9.1015e-11
2.97789e-09
-6.98689e-11
2.98998e-09
-5.21635e-11
2.99964e-09
-3.80395e-11
3.00742e-09
-2.75123e-11
3.01387e-09
-2.04544e-11
3.01948e-09
-1.65917e-11
3.0247e-09
-1.55118e-11
3.02991e-09
-1.66814e-11
3.03541e-09
-1.9467e-11
3.04141e-09
-2.31693e-11
3.04797e-09
-2.70702e-11
3.05509e-09
-3.04848e-11
3.06263e-09
-3.28082e-11
3.07039e-09
-3.35603e-11
3.0781e-09
-3.24345e-11
3.08548e-09
-2.93322e-11
3.09232e-09
-2.43465e-11
3.09849e-09
-1.78125e-11
-7.91836e-12
2.51532e-09