/*--------------------------------*- C++ -*----------------------------------*\
| =========                 |                                                 |
| \\      /  F ield         | OpenFOAM: The Open Source CFD Toolbox           |
|  \\    /   O peration     | Version:  2506                                  |
|   \\  /    A nd           | Website:  www.openfoam.com                      |
|    \\/     M anipulation  |                                                 |
\*---------------------------------------------------------------------------*/
FoamFile
{
    version     2.0;
    format      ascii;
    arch        "LSB;label=32;scalar=64";
    class       volScalarField;
    location    "1.9";
    object      p;
}
// * * * * * * * * * * * * * * * * * * * * * * * * * * * * * * * * * * * * * //

dimensions      [0 2 -2 0 0 0 0];

internalField   nonuniform List<scalar> 
4000
(
0.00376412
0.00372728
0.00369986
0.00367839
0.00365854
0.00363954
0.00362108
0.00360296
0.00358505
0.0035673
0.00354969
0.00353218
0.00351476
0.00349742
0.00348016
0.00346297
0.00344584
0.00342879
0.00341181
0.00339489
0.00337805
0.0033613
0.00334463
0.00332807
0.00331164
0.00329534
0.00327922
0.0032633
0.00324763
0.00323226
0.00321729
0.00320279
0.00318891
0.00317584
0.00316373
0.00315238
0.00314139
0.00313037
0.00311905
0.00310714
0.00309426
0.00307985
0.00306355
0.00304542
0.00302552
0.00300396
0.0029808
0.00295605
0.00292989
0.00290236
0.00287362
0.00284389
0.00281309
0.00278163
0.00274935
0.00271675
0.00268382
0.00265068
0.00261761
0.00258441
0.00255162
0.00251908
0.00248699
0.00245547
0.00242453
0.0023944
0.00236502
0.00233649
0.00230883
0.00228209
0.0022563
0.0022315
0.00220769
0.0021849
0.00216314
0.00214238
0.00212261
0.00210379
0.00208587
0.00206878
0.0020525
0.00203695
0.00202208
0.00200786
0.00199422
0.00198117
0.00196867
0.0019567
0.00194523
0.00193425
0.00192373
0.00191364
0.00190396
0.00189466
0.00188573
0.0018771
0.00186879
0.00186072
0.0018529
0.00184524
0.00183776
0.00183038
0.00182309
0.00181584
0.00180857
0.00180131
0.00179396
0.00178655
0.00177902
0.00177135
0.0017635
0.00175543
0.0017471
0.00173849
0.00172952
0.00172018
0.00171037
0.00170005
0.00168914
0.00167756
0.00166527
0.00165221
0.00163833
0.00162358
0.00160793
0.00159135
0.00157382
0.00155532
0.0015358
0.00151532
0.00149388
0.00147153
0.00144825
0.00142402
0.00139893
0.00137297
0.00134606
0.00131836
0.00128973
0.0012603
0.0012301
0.00119919
0.00116765
0.0011356
0.00110304
0.0010704
0.00103752
0.00100486
0.000972354
0.000940184
0.00090853
0.000877402
0.000847099
0.000817641
0.000789298
0.000762267
0.000736855
0.000713463
0.000692578
0.000674545
0.000657807
0.000642658
0.000628401
0.000614848
0.000601605
0.000588496
0.000575139
0.000561597
0.000547396
0.000532526
0.000517003
0.000500833
0.000484066
0.000466788
0.000449105
0.000431126
0.000412954
0.000394669
0.000376308
0.000357964
0.000339714
0.000321584
0.000303594
0.000285751
0.000268054
0.000250491
0.000233043
0.000215675
0.000198366
0.000181095
0.000163841
0.000146587
0.000129318
0.000112041
9.47466e-05
7.74348e-05
6.01103e-05
4.27719e-05
2.5428e-05
8.28996e-06
0.00374856
0.00372274
0.00369943
0.00367911
0.00365963
0.00364071
0.00362222
0.00360403
0.00358607
0.00356828
0.00355063
0.00353311
0.00351568
0.00349835
0.0034811
0.00346393
0.00344683
0.0034298
0.00341285
0.00339597
0.00337917
0.00336245
0.00334582
0.00332929
0.00331288
0.0032966
0.00328049
0.00326457
0.00324888
0.00323346
0.00321837
0.0032037
0.00318955
0.00317605
0.00316329
0.00315107
0.00313912
0.00312713
0.00311483
0.00310188
0.00308796
0.00307263
0.00305561
0.00303694
0.00301664
0.00299479
0.00297148
0.00294675
0.00292082
0.00289376
0.00286567
0.00283675
0.00280696
0.00277663
0.00274576
0.00271452
0.00268297
0.00265126
0.0026196
0.0025879
0.00255653
0.00252539
0.00249465
0.00246437
0.00243456
0.00240532
0.00237668
0.00234872
0.00232151
0.0022951
0.0022695
0.00224478
0.00222093
0.00219802
0.00217604
0.002155
0.00213489
0.00211572
0.0020974
0.00207992
0.00206323
0.00204726
0.00203197
0.00201732
0.00200326
0.00198977
0.0019768
0.00196431
0.00195234
0.00194085
0.00192977
0.00191915
0.00190895
0.0018991
0.00188965
0.00188048
0.00187166
0.00186306
0.00185474
0.00184655
0.00183857
0.00183066
0.00182285
0.0018151
0.00180734
0.0017996
0.00179178
0.0017839
0.0017759
0.00176778
0.00175948
0.00175095
0.00174216
0.00173308
0.00172362
0.00171376
0.00170342
0.00169254
0.00168103
0.00166885
0.00165593
0.00164222
0.00162768
0.00161226
0.00159595
0.00157872
0.00156057
0.00154149
0.00152156
0.00150075
0.00147907
0.00145655
0.00143319
0.00140899
0.001384
0.00135824
0.00133165
0.00130433
0.00127622
0.00124747
0.00121809
0.00118815
0.00115773
0.00112697
0.00109593
0.00106476
0.00103341
0.0010022
0.000971108
0.000940295
0.000909908
0.00087998
0.00085072
0.000822198
0.000794582
0.000768087
0.000742902
0.000719405
0.000698067
0.000679089
0.000661306
0.000645117
0.000629972
0.000615597
0.00060162
0.000587851
0.000574022
0.000560082
0.000545739
0.00053082
0.0005153
0.000499168
0.000482453
0.000465238
0.000447619
0.000429698
0.000411566
0.000393308
0.000375032
0.000356786
0.000338605
0.00032053
0.000302587
0.000284788
0.000267133
0.000249612
0.000232196
0.000214881
0.00019764
0.000180445
0.000163276
0.000146112
0.000128941
0.000111749
9.45324e-05
7.72947e-05
6.00407e-05
4.27614e-05
2.54443e-05
8.30192e-06
0.00374046
0.00371951
0.00369876
0.00367931
0.00366027
0.00364154
0.00362312
0.00360495
0.00358699
0.00356918
0.00355152
0.00353397
0.00351655
0.00349922
0.00348198
0.00346482
0.00344774
0.00343074
0.00341381
0.00339696
0.00338018
0.00336348
0.00334687
0.00333035
0.00331395
0.00329767
0.00328154
0.00326557
0.00324981
0.00323429
0.00321905
0.00320416
0.0031897
0.00317569
0.00316228
0.00314937
0.00313661
0.0031238
0.00311065
0.00309685
0.00308214
0.00306607
0.00304847
0.00302937
0.0030088
0.00298683
0.00296355
0.002939
0.00291339
0.00288677
0.00285927
0.00283102
0.00280213
0.00277275
0.00274291
0.00271278
0.00268243
0.00265194
0.00262152
0.00259106
0.00256087
0.00253087
0.00250118
0.00247186
0.00244292
0.00241447
0.0023865
0.00235912
0.00233235
0.00230627
0.00228089
0.00225627
0.00223244
0.00220944
0.0021873
0.00216603
0.00214563
0.00212611
0.00210745
0.0020896
0.00207252
0.00205617
0.00204051
0.00202548
0.00201104
0.00199716
0.00198381
0.00197093
0.00195853
0.00194659
0.00193506
0.00192396
0.00191325
0.00190291
0.00189293
0.00188326
0.00187389
0.00186478
0.00185591
0.00184724
0.00183872
0.00183032
0.00182202
0.0018138
0.0018056
0.0017974
0.00178917
0.00178088
0.00177249
0.00176397
0.00175528
0.00174637
0.0017372
0.00172771
0.00171784
0.00170753
0.0016967
0.0016853
0.00167326
0.00166053
0.00164705
0.00163278
0.00161768
0.00160173
0.00158492
0.00156724
0.00154869
0.0015293
0.00150908
0.00148805
0.0014662
0.00144358
0.00142021
0.00139607
0.00137122
0.00134566
0.00131933
0.00129244
0.00126489
0.00123679
0.00120816
0.00117908
0.00114962
0.0011199
0.00108995
0.00105994
0.00102981
0.00099982
0.000969949
0.000940308
0.000911033
0.000882118
0.000853781
0.000826023
0.000799054
0.000772977
0.000747997
0.000724321
0.000702388
0.000682404
0.000663911
0.000646677
0.000630636
0.000615487
0.000600931
0.000586746
0.000572758
0.000558673
0.000544255
0.000529354
0.000513872
0.000497767
0.000481077
0.000463894
0.000446311
0.000428423
0.000410324
0.000392104
0.000373848
0.00035562
0.000337463
0.000319417
0.000301509
0.000283752
0.000266146
0.000248679
0.000231341
0.000214105
0.000196945
0.000179835
0.000162752
0.000145673
0.000128584
0.000111473
9.43338e-05
7.71676e-05
5.99772e-05
4.27512e-05
2.5465e-05
8.30354e-06
0.00373662
0.00371732
0.00369779
0.00367909
0.00366048
0.00364203
0.00362376
0.00360566
0.00358773
0.00356995
0.00355229
0.00353476
0.00351734
0.00350002
0.00348279
0.00346565
0.00344859
0.0034316
0.00341469
0.00339785
0.00338109
0.0033644
0.0033478
0.00333128
0.00331486
0.00329856
0.00328238
0.00326636
0.0032505
0.00323485
0.00321944
0.00320431
0.00318953
0.00317505
0.00316109
0.00314757
0.00313413
0.0031206
0.00310674
0.00309223
0.00307687
0.00306019
0.00304211
0.00302268
0.00300189
0.00297985
0.00295663
0.00293229
0.00290701
0.00288084
0.0028539
0.00282634
0.00279819
0.00276965
0.00274071
0.00271154
0.00268219
0.00265271
0.00262331
0.00259385
0.00256465
0.00253558
0.00250678
0.00247831
0.00245014
0.00242242
0.00239507
0.00236826
0.00234194
0.00231622
0.00229112
0.00226665
0.00224292
0.0022199
0.00219766
0.00217622
0.00215559
0.00213578
0.0021168
0.00209861
0.00208119
0.0020645
0.00204849
0.00203312
0.00201834
0.00200411
0.00199039
0.00197715
0.00196435
0.00195199
0.00194003
0.00192846
0.00191727
0.00190644
0.00189594
0.00188576
0.00187586
0.00186624
0.00185685
0.00184766
0.00183865
0.00182979
0.00182103
0.00181236
0.00180374
0.00179513
0.00178652
0.00177786
0.00176912
0.00176025
0.00175121
0.00174196
0.00173243
0.00172254
0.00171227
0.00170151
0.00169022
0.00167832
0.00166577
0.0016525
0.00163849
0.00162369
0.00160808
0.00159165
0.0015744
0.00155633
0.00153746
0.0015178
0.00149736
0.00147618
0.00145425
0.00143162
0.00140831
0.00138429
0.00135964
0.00133436
0.00130842
0.00128196
0.00125495
0.00122746
0.00119953
0.00117123
0.00114263
0.00111381
0.00108479
0.00105576
0.00102662
0.000997623
0.000968734
0.000940033
0.000911678
0.000883585
0.000856031
0.000828915
0.000802506
0.000776776
0.000751974
0.000728163
0.000705705
0.000684781
0.000665657
0.000647483
0.000630642
0.00061485
0.000599918
0.000585531
0.000571567
0.000557462
0.000543056
0.000528189
0.000512719
0.000496616
0.000479924
0.000462731
0.000445131
0.000427227
0.000409115
0.00039089
0.00037263
0.0003544
0.000336254
0.00031823
0.000300357
0.000282646
0.0002651
0.000247706
0.000230447
0.000213297
0.000196226
0.000179208
0.000162215
0.000145225
0.000128219
0.000111187
9.41211e-05
7.70202e-05
5.98857e-05
4.27073e-05
2.54578e-05
8.28971e-06
0.00373436
0.0037157
0.00369693
0.00367879
0.00366057
0.00364242
0.00362433
0.00360636
0.00358849
0.00357073
0.00355309
0.00353557
0.00351816
0.00350084
0.00348361
0.00346647
0.00344942
0.00343244
0.00341553
0.0033987
0.00338194
0.00336525
0.00334863
0.0033321
0.00331566
0.00329932
0.00328309
0.00326698
0.00325103
0.00323524
0.00321965
0.00320429
0.0031892
0.00317433
0.00315988
0.00314583
0.00313176
0.00311755
0.00310301
0.00308784
0.00307187
0.00305464
0.00303614
0.00301642
0.00299548
0.00297341
0.0029503
0.00292619
0.00290127
0.00287556
0.0028492
0.00282229
0.00279488
0.00276714
0.00273904
0.00271075
0.00268229
0.00265371
0.00262519
0.0025966
0.00256824
0.00253997
0.00251194
0.00248421
0.00245672
0.00242966
0.00240289
0.00237662
0.00235075
0.00232541
0.0023006
0.00227635
0.00225275
0.00222978
0.00220751
0.00218597
0.00216516
0.00214512
0.00212587
0.00210738
0.00208964
0.00207263
0.0020563
0.00204061
0.00202551
0.00201096
0.00199691
0.00198333
0.00197017
0.00195742
0.00194505
0.00193304
0.00192138
0.00191007
0.00189907
0.00188838
0.00187797
0.00186783
0.00185792
0.00184824
0.00183872
0.00182939
0.00182017
0.00181106
0.00180203
0.00179302
0.00178404
0.00177501
0.00176591
0.00175669
0.0017473
0.00173767
0.00172775
0.00171744
0.00170673
0.00169549
0.0016837
0.00167129
0.00165819
0.00164439
0.00162984
0.00161453
0.00159843
0.00158157
0.00156392
0.00154552
0.00152638
0.0015065
0.00148593
0.00146467
0.00144273
0.00142016
0.00139697
0.00137314
0.00134875
0.0013238
0.00129828
0.00127231
0.00124585
0.00121898
0.00119174
0.00116419
0.00113637
0.00110837
0.0010802
0.00105202
0.00102373
0.000995569
0.000967494
0.000939571
0.000911976
0.000884569
0.000857674
0.0008311
0.000805168
0.000779746
0.000755116
0.000731253
0.000708486
0.000686823
0.000667143
0.0006482
0.0006307
0.000614407
0.000599209
0.000584674
0.000570688
0.000556525
0.000542069
0.000527158
0.000511629
0.000495464
0.000478716
0.00046147
0.000443827
0.000425891
0.00040776
0.000389527
0.00037127
0.000353056
0.000334936
0.000316951
0.000299127
0.000281477
0.000263999
0.000246682
0.000229505
0.000212441
0.000195457
0.000178527
0.000161621
0.000144715
0.000127791
0.000110835
9.38416e-05
7.68075e-05
5.97328e-05
4.26102e-05
2.54152e-05
8.27174e-06
0.00373296
0.00371457
0.00369627
0.00367856
0.00366068
0.00364277
0.00362487
0.00360705
0.00358927
0.00357155
0.00355394
0.00353643
0.00351902
0.0035017
0.00348447
0.00346732
0.00345026
0.00343327
0.00341636
0.00339951
0.00338274
0.00336603
0.0033494
0.00333284
0.00331636
0.00329997
0.00328367
0.00326748
0.00325141
0.00323548
0.0032197
0.00320412
0.00318875
0.00317353
0.00315867
0.0031441
0.00312944
0.00311459
0.00309939
0.00308359
0.00306702
0.0030493
0.00303043
0.00301047
0.00298943
0.00296739
0.00294443
0.00292059
0.00289605
0.00287083
0.00284506
0.00281881
0.00279213
0.00276517
0.00273789
0.00271043
0.00268281
0.00265506
0.00262735
0.00259955
0.00257194
0.00254438
0.00251702
0.00248991
0.00246301
0.0024365
0.00241025
0.00238444
0.00235899
0.00233401
0.0023095
0.00228547
0.00226202
0.00223914
0.00221687
0.00219528
0.00217436
0.00215416
0.0021347
0.00211597
0.00209796
0.00208066
0.00206404
0.00204805
0.00203266
0.00201781
0.00200346
0.00198956
0.00197607
0.00196296
0.00195022
0.0019378
0.00192571
0.00191393
0.00190244
0.00189126
0.00188033
0.00186968
0.00185925
0.00184906
0.00183905
0.00182924
0.00181956
0.00181001
0.00180056
0.00179115
0.00178178
0.00177237
0.0017629
0.0017533
0.0017435
0.00173346
0.00172309
0.00171231
0.0017011
0.00168934
0.001677
0.00166403
0.00165038
0.00163603
0.00162096
0.00160516
0.00158863
0.00157137
0.0015534
0.00153474
0.00151539
0.00149539
0.00147475
0.00145349
0.00143161
0.00140917
0.00138617
0.0013626
0.00133853
0.00131396
0.0012889
0.00126344
0.00123755
0.00121131
0.00118476
0.00115792
0.00113085
0.00110361
0.00107621
0.00104879
0.00102124
0.000993803
0.000966421
0.00093915
0.000912176
0.000885331
0.000858963
0.00083283
0.000807288
0.000782137
0.000757677
0.000733823
0.000710982
0.000688852
0.000668761
0.000649256
0.000631242
0.000614555
0.000599095
0.000584351
0.000570201
0.000555829
0.000541169
0.000526081
0.000510387
0.000494078
0.000477218
0.000459893
0.000442203
0.000424248
0.000406125
0.000387919
0.000369706
0.000351548
0.000333494
0.000315581
0.000297833
0.000280259
0.00026286
0.00024562
0.00022852
0.000211532
0.000194619
0.000177765
0.000160931
0.000144097
0.000127246
0.000110365
9.34461e-05
7.64872e-05
5.9487e-05
4.24403e-05
2.53279e-05
8.23726e-06
0.0037321
0.00371382
0.00369579
0.00367838
0.00366077
0.00364309
0.00362538
0.00360767
0.00358998
0.00357234
0.00355477
0.00353729
0.00351988
0.00350255
0.00348532
0.00346816
0.00345109
0.00343409
0.00341716
0.00340029
0.0033835
0.00336677
0.0033501
0.00333351
0.00331697
0.00330052
0.00328414
0.00326785
0.00325166
0.00323558
0.00321963
0.00320381
0.00318817
0.00317263
0.00315736
0.00314231
0.00312709
0.00311163
0.00309582
0.00307941
0.0030623
0.00304415
0.00302498
0.00300483
0.00298373
0.00296176
0.00293899
0.00291546
0.00289132
0.00286661
0.00284144
0.00281583
0.00278988
0.00276368
0.0027372
0.00271054
0.00268373
0.00265679
0.00262984
0.00260279
0.00257587
0.00254897
0.00252222
0.00249567
0.0024693
0.00244326
0.00241744
0.00239203
0.00236694
0.00234226
0.00231803
0.0022942
0.00227092
0.00224813
0.00222591
0.0022043
0.00218331
0.00216298
0.00214335
0.00212442
0.00210617
0.00208862
0.00207173
0.00205547
0.0020398
0.00202467
0.00201004
0.00199585
0.00198206
0.00196862
0.00195553
0.00194273
0.00193022
0.00191802
0.00190606
0.00189439
0.00188296
0.0018718
0.00186085
0.00185016
0.00183965
0.00182935
0.00181921
0.00180921
0.00179932
0.00178949
0.00177971
0.00176989
0.00176
0.00174997
0.00173972
0.0017292
0.00171832
0.00170701
0.00169524
0.0016829
0.00166999
0.00165645
0.00164224
0.00162736
0.00161181
0.00159557
0.00157866
0.00156109
0.00154287
0.00152403
0.00150457
0.00148452
0.00146389
0.00144271
0.00142097
0.00139872
0.00137598
0.00135272
0.00132901
0.00130487
0.00128029
0.00125536
0.00123006
0.00120444
0.00117855
0.0011524
0.00112604
0.00109951
0.00107283
0.0010461
0.00101925
0.00099245
0.00096568
0.000938978
0.000912523
0.000886154
0.000860201
0.000834425
0.000809183
0.000784257
0.000759948
0.000736138
0.000713317
0.000690981
0.000670655
0.000650793
0.000632382
0.000615346
0.000599582
0.000584505
0.000569996
0.000555223
0.000540183
0.00052477
0.000508802
0.000492277
0.000475268
0.00045786
0.000440143
0.00042221
0.000404145
0.000386025
0.000367915
0.00034987
0.000331932
0.000314131
0.000296489
0.000279011
0.000261697
0.000244532
0.000227497
0.000210567
0.00019371
0.000176906
0.000160125
0.000143347
0.000126559
0.000109749
9.29093e-05
7.60376e-05
5.91318e-05
4.21876e-05
2.51906e-05
8.18965e-06
0.00373157
0.00371335
0.00369549
0.00367827
0.00366085
0.00364335
0.0036258
0.00360821
0.00359061
0.00357305
0.00355553
0.00353807
0.00352068
0.00350336
0.00348613
0.00346897
0.00345188
0.00343486
0.00341792
0.00340104
0.00338421
0.00336745
0.00335075
0.0033341
0.00331752
0.00330099
0.00328452
0.00326813
0.00325181
0.00323557
0.00321942
0.00320338
0.00318746
0.00317162
0.00315596
0.00314041
0.00312467
0.00310866
0.00309227
0.00307532
0.00305772
0.00303921
0.00301979
0.00299951
0.00297839
0.00295652
0.00293396
0.00291076
0.00288704
0.00286284
0.00283823
0.00281328
0.00278805
0.00276257
0.00273687
0.00271099
0.00268496
0.00265879
0.00263258
0.00260628
0.00258004
0.00255378
0.00252761
0.0025016
0.00247573
0.00245013
0.00242472
0.00239965
0.00237488
0.00235047
0.00232646
0.00230281
0.00227966
0.00225697
0.00223479
0.00221318
0.00219213
0.0021717
0.00215192
0.00213281
0.00211435
0.00209656
0.00207941
0.00206289
0.00204695
0.00203154
0.00201662
0.00200216
0.00198806
0.00197432
0.00196089
0.00194774
0.00193485
0.00192223
0.00190983
0.00189771
0.00188579
0.00187413
0.00186268
0.00185149
0.00184047
0.00182969
0.00181907
0.0018086
0.00179826
0.00178797
0.00177774
0.00176746
0.00175709
0.00174656
0.00173579
0.00172472
0.00171328
0.00170138
0.00168901
0.00167608
0.00166257
0.00164847
0.00163374
0.00161838
0.00160241
0.00158581
0.0015686
0.0015508
0.00153243
0.00151349
0.001494
0.00147397
0.00145343
0.00143239
0.00141086
0.00138885
0.0013664
0.00134349
0.00132018
0.00129649
0.00127241
0.00124801
0.00122329
0.00119828
0.00117303
0.00114753
0.00112185
0.00109599
0.00107
0.00104393
0.00101773
0.000991519
0.000965317
0.000939143
0.000913154
0.000887224
0.000861618
0.00083615
0.000811143
0.00078641
0.000762227
0.000738479
0.000715715
0.000693327
0.000672861
0.000652784
0.000634047
0.000616655
0.000600484
0.000584914
0.000569835
0.000554493
0.000538927
0.000523063
0.000506735
0.000489951
0.000472786
0.000455315
0.000437615
0.000419758
0.000401816
0.00038385
0.000365909
0.000348038
0.000330266
0.000312619
0.00029511
0.000277744
0.000260519
0.000243424
0.000226441
0.000209549
0.000192729
0.000175949
0.000159201
0.000142465
0.00012573
0.000108987
9.22316e-05
7.54598e-05
5.86689e-05
4.18542e-05
2.5005e-05
8.13223e-06
0.00373125
0.00371307
0.00369532
0.00367824
0.00366096
0.00364358
0.00362615
0.00360866
0.00359115
0.00357365
0.00355618
0.00353875
0.00352139
0.00350409
0.00348686
0.0034697
0.00345261
0.00343559
0.00341863
0.00340173
0.00338488
0.00336809
0.00335134
0.00333465
0.003318
0.0033014
0.00328484
0.00326833
0.00325188
0.00323547
0.00321913
0.00320286
0.00318666
0.0031705
0.00315446
0.00313844
0.00312221
0.00310568
0.00308877
0.00307134
0.00305332
0.0030345
0.00301489
0.0029945
0.0029734
0.00295165
0.00292932
0.00290645
0.00288313
0.00285943
0.00283537
0.00281108
0.00278652
0.00276174
0.00273677
0.00271164
0.00268636
0.00266095
0.00263543
0.00260988
0.00258432
0.0025587
0.00253312
0.00250764
0.0024823
0.00245714
0.00243214
0.0024074
0.00238294
0.00235878
0.00233498
0.0023115
0.00228847
0.00226586
0.00224371
0.00222209
0.00220098
0.00218045
0.00216053
0.00214123
0.00212256
0.00210452
0.00208711
0.0020703
0.00205407
0.00203837
0.00202315
0.00200838
0.00199399
0.00197993
0.00196618
0.00195269
0.00193943
0.00192643
0.00191362
0.00190106
0.00188868
0.00187655
0.00186461
0.00185292
0.00184141
0.00183013
0.00181901
0.00180805
0.00179722
0.00178644
0.0017757
0.0017649
0.00175398
0.00174289
0.00173154
0.00171986
0.0017078
0.00169529
0.0016823
0.00166877
0.00165471
0.00164009
0.0016249
0.00160915
0.00159283
0.00157596
0.00155854
0.00154061
0.00152216
0.00150321
0.00148376
0.00146383
0.00144343
0.00142257
0.00140128
0.00137956
0.00135742
0.00133488
0.00131199
0.00128874
0.00126516
0.00124128
0.00121711
0.0011927
0.00116805
0.00114319
0.00111814
0.00109292
0.00106758
0.00104215
0.00101656
0.000990917
0.000965263
0.000939602
0.000914064
0.000888573
0.000863286
0.000838112
0.000813312
0.000788764
0.000764695
0.000741015
0.000718291
0.000695934
0.000675311
0.000655079
0.000636032
0.000618218
0.000601498
0.000585281
0.000569463
0.00055344
0.000537259
0.000520863
0.000504127
0.000487075
0.000469775
0.000452283
0.000434654
0.000416939
0.000399187
0.00038144
0.00036373
0.000346085
0.000328524
0.000311063
0.000293709
0.000276466
0.000259331
0.000242297
0.000225352
0.000208482
0.000191675
0.000174906
0.000158174
0.000141466
0.000124776
0.0001081
9.14334e-05
7.47735e-05
5.81156e-05
4.14537e-05
2.47796e-05
8.06995e-06
0.00373109
0.00371296
0.00369528
0.00367829
0.00366109
0.0036438
0.00362645
0.00360903
0.00359158
0.00357414
0.00355671
0.00353933
0.00352199
0.00350471
0.0034875
0.00347035
0.00345326
0.00343624
0.00341927
0.00340236
0.0033855
0.00336867
0.00335189
0.00333515
0.00331845
0.00330177
0.00328511
0.00326849
0.0032519
0.00323533
0.00321879
0.00320229
0.00318581
0.00316935
0.00315291
0.00313644
0.00311975
0.00310276
0.00308538
0.00306753
0.00304914
0.00303006
0.00301028
0.00298982
0.00296875
0.00294714
0.00292502
0.00290249
0.00287957
0.00285634
0.00283283
0.00280912
0.0027852
0.00276109
0.00273682
0.00271239
0.00268781
0.00266312
0.00263831
0.00261345
0.00258852
0.00256354
0.00253857
0.00251367
0.00248887
0.00246419
0.00243961
0.00241523
0.00239109
0.0023672
0.00234362
0.00232032
0.0022974
0.00227487
0.00225276
0.00223111
0.00220995
0.0021893
0.00216922
0.00214972
0.00213082
0.00211251
0.00209481
0.00207769
0.00206114
0.0020451
0.00202954
0.00201443
0.0019997
0.00198531
0.00197122
0.00195739
0.00194377
0.0019304
0.0019172
0.00190423
0.00189142
0.00187885
0.00186643
0.00185427
0.00184226
0.00183048
0.00181885
0.00180737
0.00179601
0.00178469
0.00177338
0.001762
0.00175048
0.00173877
0.00172678
0.00171448
0.00170179
0.00168866
0.00167508
0.001661
0.00164643
0.00163137
0.00161582
0.00159977
0.00158321
0.00156616
0.00154864
0.00153065
0.0015122
0.0014933
0.00147394
0.00145414
0.00143393
0.00141329
0.00139225
0.00137082
0.00134901
0.00132685
0.00130435
0.00128154
0.00125843
0.00123504
0.00121141
0.00118755
0.00116347
0.00113921
0.00111476
0.00109016
0.00106543
0.00104057
0.00101557
0.000990507
0.000965395
0.000940235
0.000915164
0.000890125
0.000865145
0.000840269
0.000815676
0.000791327
0.000767372
0.000743759
0.000721026
0.000698727
0.000677875
0.00065747
0.000638077
0.000619752
0.000602327
0.000585367
0.000568714
0.000551949
0.000535104
0.000518145
0.000501005
0.00048371
0.000466319
0.000448864
0.000431363
0.000413846
0.000396341
0.000378867
0.000361435
0.000344057
0.000326737
0.000309484
0.000292298
0.000275181
0.000258135
0.000241154
0.000224232
0.000207367
0.000190555
0.000173786
0.000157057
0.000140369
0.000123723
0.000107117
9.05474e-05
7.40108e-05
5.75007e-05
4.10086e-05
2.45283e-05
8.00994e-06
0.00373108
0.003713
0.00369536
0.00367842
0.00366127
0.00364402
0.00362672
0.00360934
0.00359193
0.00357453
0.00355714
0.00353978
0.00352248
0.00350523
0.00348803
0.0034709
0.00345383
0.00343682
0.00341985
0.00340294
0.00338606
0.00336922
0.00335241
0.00333562
0.00331886
0.00330211
0.00328537
0.00326863
0.00325191
0.00323518
0.00321844
0.00320171
0.00318497
0.0031682
0.00315139
0.00313449
0.00311738
0.00309996
0.00308216
0.00306393
0.00304522
0.00302592
0.00300598
0.00298546
0.00296444
0.00294295
0.00292104
0.00289882
0.0028763
0.0028535
0.00283051
0.00280735
0.00278403
0.00276053
0.0027369
0.00271312
0.00268921
0.00266519
0.00264104
0.00261684
0.00259253
0.00256819
0.00254383
0.00251954
0.0024953
0.00247106
0.00244689
0.00242292
0.00239914
0.00237561
0.0023523
0.0023292
0.00230641
0.00228397
0.0022619
0.00224024
0.00221901
0.00219824
0.00217798
0.00215827
0.00213912
0.00212051
0.00210248
0.002085
0.00206808
0.00205166
0.00203571
0.00202021
0.0020051
0.00199033
0.00197587
0.00196167
0.00194769
0.00193395
0.00192037
0.00190702
0.0018938
0.0018808
0.00186795
0.00185532
0.00184283
0.00183054
0.00181839
0.00180637
0.00179444
0.00178254
0.00177062
0.00175861
0.00174644
0.00173407
0.00172143
0.0017085
0.00169522
0.00168153
0.00166743
0.0016529
0.00163793
0.00162249
0.00160663
0.0015904
0.00157372
0.00155657
0.00153902
0.00152104
0.00150264
0.00148382
0.0014646
0.00144498
0.00142495
0.00140455
0.00138374
0.00136259
0.0013411
0.0013193
0.00129718
0.00127478
0.00125211
0.00122919
0.00120605
0.0011827
0.00115916
0.00113545
0.00111157
0.00108754
0.00106337
0.00103908
0.00101466
0.000990151
0.000965569
0.000940947
0.000916314
0.000891658
0.000867015
0.000842477
0.000818132
0.000794023
0.000770173
0.000746614
0.000723809
0.00070155
0.000680403
0.000659757
0.000639957
0.000621039
0.000602847
0.000585121
0.000567624
0.000550036
0.000532429
0.000514925
0.000497462
0.000479993
0.000462569
0.000445199
0.000427879
0.000410611
0.000393396
0.000376227
0.000359096
0.000342004
0.000324931
0.000307887
0.000290866
0.000273868
0.000256901
0.000239968
0.000223069
0.000206208
0.00018939
0.000172616
0.000155892
0.000139225
0.000122625
0.000106091
8.96183e-05
7.32066e-05
5.68512e-05
4.05426e-05
2.42672e-05
7.95871e-06
0.0037312
0.00371318
0.00369556
0.00367863
0.00366149
0.00364425
0.00362695
0.00360959
0.0035922
0.00357481
0.00355745
0.00354013
0.00352285
0.00350563
0.00348847
0.00347137
0.00345432
0.00343732
0.00342037
0.00340346
0.00338658
0.00336973
0.0033529
0.00333608
0.00331926
0.00330245
0.00328563
0.00326879
0.00325194
0.00323506
0.00321815
0.0032012
0.00318419
0.00316712
0.00314996
0.00313266
0.00311515
0.00309733
0.00307915
0.00306057
0.00304155
0.00302206
0.00300201
0.00298145
0.00296045
0.00293907
0.00291736
0.00289542
0.00287324
0.00285088
0.00282836
0.00280571
0.00278292
0.00275999
0.00273694
0.00271376
0.00269046
0.00266705
0.00264352
0.00261994
0.00259624
0.00257252
0.00254875
0.00252501
0.0025013
0.00247757
0.00245391
0.00243037
0.002407
0.00238382
0.00236077
0.00233787
0.00231522
0.00229289
0.00227091
0.00224931
0.00222805
0.00220719
0.00218677
0.00216683
0.00214739
0.00212849
0.00211011
0.00209224
0.0020749
0.00205804
0.00204165
0.0020257
0.00201014
0.00199495
0.00198007
0.00196546
0.0019511
0.00193698
0.00192303
0.00190928
0.00189568
0.00188227
0.00186899
0.00185591
0.00184295
0.00183015
0.00181746
0.00180488
0.00179237
0.00177986
0.00176732
0.00175467
0.00174187
0.00172889
0.00171564
0.00170203
0.00168814
0.00167402
0.00165951
0.00164461
0.00162935
0.0016137
0.00159768
0.00158129
0.00156451
0.00154735
0.00152982
0.00151189
0.00149356
0.00147484
0.00145576
0.00143629
0.00141645
0.00139626
0.00137571
0.00135483
0.00133363
0.00131216
0.00129039
0.00126836
0.0012461
0.00122361
0.00120092
0.00117805
0.001155
0.0011318
0.00110844
0.00108494
0.00106131
0.00103755
0.00101368
0.000989707
0.000965634
0.000941513
0.000917304
0.000893086
0.000868817
0.000844657
0.000820587
0.000796623
0.000772817
0.000749342
0.000726435
0.000704212
0.000682744
0.000661784
0.000641496
0.000621859
0.000602905
0.000584361
0.000565998
0.000547716
0.000529548
0.000511548
0.000493751
0.000476163
0.000458761
0.000441509
0.000424389
0.000407384
0.000390468
0.000373607
0.000356769
0.000339965
0.000323119
0.000306267
0.000289401
0.000272519
0.000255628
0.000238738
0.00022186
0.000205004
0.000188184
0.000171412
0.0001547
0.000138063
0.000121511
0.000105048
8.86771e-05
7.23964e-05
5.62014e-05
4.00824e-05
2.40301e-05
7.93596e-06
0.00373149
0.00371352
0.0036959
0.00367892
0.00366174
0.00364447
0.00362714
0.00360976
0.00359237
0.00357499
0.00355765
0.00354036
0.00352312
0.00350594
0.00348881
0.00347175
0.00345474
0.00343777
0.00342084
0.00340395
0.00338708
0.00337023
0.00335338
0.00333654
0.00331969
0.00330282
0.00328593
0.003269
0.00325204
0.00323502
0.00321793
0.00320078
0.00318353
0.0031662
0.00314872
0.00313105
0.00311315
0.00309497
0.00307643
0.00305752
0.00303821
0.00301851
0.00299831
0.0029777
0.00295674
0.00293546
0.00291394
0.00289225
0.00287039
0.00284842
0.00282632
0.00280412
0.00278182
0.0027594
0.00273688
0.00271424
0.00269149
0.00266866
0.00264569
0.0026227
0.00259957
0.00257643
0.00255323
0.00253002
0.00250683
0.00248363
0.00246046
0.00243736
0.00241436
0.00239151
0.00236877
0.00234618
0.00232377
0.0023016
0.00227973
0.00225816
0.00223689
0.00221595
0.00219539
0.00217522
0.00215549
0.00213627
0.00211755
0.00209931
0.00208155
0.00206424
0.00204736
0.00203092
0.00201489
0.00199922
0.00198388
0.00196883
0.00195406
0.00193953
0.00192519
0.00191105
0.00189706
0.00188324
0.00186956
0.00185603
0.00184261
0.00182933
0.00181612
0.00180296
0.00178979
0.0017766
0.00176342
0.00175017
0.00173679
0.00172322
0.00170943
0.00169536
0.00168104
0.00166648
0.00165161
0.00163644
0.00162098
0.00160518
0.00158905
0.0015726
0.00155579
0.00153863
0.00152113
0.00150325
0.001485
0.00146639
0.00144742
0.00142809
0.00140842
0.00138841
0.00136808
0.00134744
0.00132651
0.00130533
0.00128387
0.00126219
0.00124029
0.0012182
0.00119592
0.00117349
0.00115089
0.00112816
0.00110528
0.00108229
0.00105916
0.00103591
0.00101255
0.000989081
0.000965496
0.000941857
0.000918084
0.000894303
0.000870404
0.000846571
0.000822718
0.000798939
0.000775274
0.000751885
0.000728853
0.000706553
0.000684667
0.000663312
0.000642524
0.000622294
0.000602601
0.000583278
0.000564132
0.000545219
0.000526559
0.000508181
0.000490144
0.000472452
0.000455071
0.000437952
0.000421046
0.000404303
0.000387668
0.000371087
0.000354519
0.000337945
0.000321308
0.000304627
0.000287894
0.000271111
0.000254289
0.000237443
0.00022059
0.00020375
0.000186942
0.000170188
0.000153505
0.000136912
0.000120422
0.000104042
8.77784e-05
7.16294e-05
5.55911e-05
3.96567e-05
2.38204e-05
7.93211e-06
0.003732
0.00371407
0.00369638
0.00367931
0.00366203
0.00364467
0.00362727
0.00360986
0.00359245