/*--------------------------------*- C++ -*----------------------------------*\
| =========                 |                                                 |
| \\      /  F ield         | OpenFOAM: The Open Source CFD Toolbox           |
|  \\    /   O peration     | Version:  2506                                  |
|   \\  /    A nd           | Website:  www.openfoam.com                      |
|    \\/     M anipulation  |                                                 |
\*---------------------------------------------------------------------------*/
FoamFile
{
    version     2.0;
    format      ascii;
    arch        "LSB;label=32;scalar=64";
    class       volVectorField;
    location    "1.9";
    object      vorticityField;
}
// * * * * * * * * * * * * * * * * * * * * * * * * * * * * * * * * * * * * * //

dimensions      [0 0 -1 0 0 0 0];

internalField   nonuniform List<vector> 
4000
(
(-2.12045e-20 7.18736e-18 -10.8652)
(-7.70417e-18 -6.88794e-18 -12.2953)
(8.03691e-18 -2.21713e-17 -10.4856)
(3.17116e-17 3.61301e-17 -8.22472)
(-6.46961e-17 6.99893e-19 -6.49089)
(3.29965e-17 -2.96499e-17 -5.1098)
(-2.60066e-19 1.46918e-17 -3.97823)
(3.37241e-17 -0 -3.04622)
(-3.31961e-17 -2.9017e-17 -2.27048)
(6.40718e-17 2.88971e-17 -1.61726)
(-6.41472e-17 -2.84667e-17 -1.06371)
(-6.97199e-18 2.85275e-17 -0.590418)
(3.97299e-18 5.77907e-17 -0.184023)
(6.94228e-17 -5.77317e-17 0.166732)
(-3.30731e-19 -0 0.471028)
(-1.30194e-16 -5.62721e-17 0.737561)
(1.23615e-16 5.64223e-17 0.973492)
(-6.30788e-17 5.60856e-17 1.18506)
(2.98637e-18 -5.62359e-17 1.37766)
(0 -0 1.55586)
(0 -0 1.72366)
(0 -0 1.88421)
(7.34724e-18 -1.08278e-16 2.04004)
(1.00745e-16 2.16797e-16 2.19292)
(-2.31105e-16 -1.19321e-18 2.34418)
(1.31269e-16 -2.14958e-16 2.49482)
(-8.2561e-18 1.07633e-16 2.64535)
(0 -0 2.7957)
(0 -0 2.94273)
(-9.2324e-18 1.04312e-16 3.08424)
(-2.22925e-16 -1.05625e-16 3.21346)
(1.21835e-16 -1.02959e-16 3.31891)
(2.38455e-16 1.41764e-17 3.366)
(2.1649e-18 -1.01318e-16 3.26461)
(-7.11291e-17 6.03412e-16 3.01061)
(-2.45498e-16 4.74034e-16 2.79375)
(-8.41623e-16 -8.7732e-16 2.65272)
(-1.20989e-17 1.27238e-17 2.47862)
(6.66447e-16 1.45187e-15 2.21046)
(-5.63478e-16 -1.00226e-15 1.80975)
(3.28049e-16 -1.92301e-15 1.23242)
(9.67517e-16 1.85506e-15 0.359166)
(-2.37158e-16 8.51145e-16 -0.763442)
(2.3368e-16 -8.71345e-16 -2.00064)
(1.13649e-15 7.91234e-16 -3.25402)
(-1.30168e-15 1.00267e-16 -4.45932)
(-1.05097e-15 2.31122e-16 -5.59199)
(-9.61719e-16 -9.31914e-16 -6.60446)
(-1.17785e-15 -1.08545e-15 -7.4807)
(-4.71515e-16 -1.2061e-15 -8.20678)
(5.97251e-16 -2.09233e-16 -8.75224)
(-3.86562e-17 4.80034e-16 -9.13476)
(-6.47285e-16 -1.11955e-15 -9.31429)
(5.74949e-16 1.01344e-16 -9.3105)
(-9.01639e-17 1.05349e-15 -9.09993)
(-2.95979e-16 -8.98638e-19 -8.68491)
(2.75333e-16 -1.40292e-16 -8.09721)
(8.66169e-17 -3.77095e-17 -7.31815)
(1.60948e-16 3.33967e-17 -6.40473)
(-7.33354e-17 -4.47602e-17 -5.34093)
(7.25516e-17 -2.76024e-17 -4.1659)
(3.19831e-16 2.55774e-18 -2.93293)
(-1.5104e-16 -6.13607e-17 -1.65141)
(-1.05761e-16 -6.09633e-16 -0.362066)
(-1.23501e-18 3.333e-18 0.926208)
(-1.08373e-16 7.62442e-16 2.17395)
(5.79867e-16 -2.39053e-16 3.38708)
(2.19664e-17 -3.7024e-16 4.52041)
(2.65672e-16 5.87865e-16 5.60175)
(-6.86799e-16 7.22219e-16 6.59532)
(-1.67327e-16 -5.37871e-16 7.51624)
(4.59282e-17 -5.84291e-17 8.36153)
(-1.90073e-19 2.22567e-18 9.0937)
(-8.61292e-16 5.46311e-16 9.75322)
(-8.28073e-16 5.87627e-16 10.3041)
(-3.63904e-17 6.74049e-16 10.7424)
(-6.79281e-16 4.437e-16 11.0849)
(8.03532e-17 -7.0289e-16 11.3176)
(-6.4557e-16 5.04418e-16 11.4385)
(6.42662e-16 2.09484e-16 11.473)
(-1.21226e-15 3.38123e-16 11.4248)
(-5.96042e-17 -5.51769e-16 11.3013)
(3.45451e-17 -8.55241e-17 11.1206)
(-5.17333e-17 1.4225e-17 10.8936)
(4.96118e-16 8.22882e-16 10.6319)
(-1.01444e-15 1.34224e-15 10.3531)
(2.51999e-17 -1.21009e-15 10.0559)
(1.78287e-17 -5.48764e-16 9.74315)
(-9.89998e-18 1.17004e-15 9.43683)
(-4.21523e-16 2.72124e-16 9.1236)
(1.52136e-18 -7.6532e-19 8.80184)
(-4.14062e-16 7.5705e-16 8.498)
(-2.01364e-16 -9.24959e-16 8.18802)
(1.7013e-16 -2.8868e-16 7.87817)
(-1.78684e-17 4.5401e-16 7.59156)
(5.91608e-17 -5.26376e-16 7.29549)
(1.89933e-16 -5.13104e-17 7.0354)
(2.35252e-17 2.84012e-17 6.77279)
(-2.45756e-16 -2.35581e-17 6.54675)
(4.96925e-17 2.39539e-16 6.33517)
(4.38076e-17 -6.29291e-18 6.17174)
(1.93897e-17 -3.57643e-17 6.0311)
(-7.9637e-18 1.41085e-16 5.93784)
(-2.04462e-17 3.66699e-17 5.87156)
(-3.10163e-17 -1.52744e-17 5.84781)
(-5.5705e-19 -5.05685e-17 5.848)
(3.02194e-18 4.0579e-16 5.87466)
(-1.53849e-16 -5.13066e-17 5.91459)
(-1.88397e-16 -6.87707e-16 5.95529)
(3.58593e-16 -1.01191e-16 5.98669)
(-1.93091e-16 1.68671e-16 5.99847)
(8.00245e-18 4.59548e-16 5.97285)
(-1.91462e-16 -9.15203e-17 5.90674)
(-2.03976e-16 -3.23311e-16 5.76945)
(-5.71748e-18 -4.83866e-16 5.57967)
(3.80628e-16 2.51579e-16 5.30273)
(3.99661e-18 9.56559e-16 4.94456)
(8.65276e-17 8.53097e-18 4.5092)
(4.12396e-16 3.02914e-16 3.98574)
(-4.12056e-16 -3.09529e-16 3.38205)
(-5.67862e-16 -1.40867e-15 2.70705)
(5.15677e-16 3.45491e-16 1.96713)
(1.69442e-17 1.11979e-15 1.1762)
(-4.66817e-16 -3.53794e-16 0.347817)
(-9.90654e-17 -1.17263e-15 -0.506063)
(9.65252e-16 6.84247e-16 -1.37038)
(-3.54545e-16 3.25398e-16 -2.23181)
(4.96137e-16 -7.5006e-17 -3.07745)
(5.09279e-16 7.35167e-16 -3.89394)
(9.97897e-17 6.5374e-16 -4.67032)
(-9.18622e-18 4.45594e-16 -5.39222)
(-3.76712e-16 -2.32025e-16 -6.05744)
(-1.82581e-16 -5.53878e-16 -6.67067)
(-1.01187e-15 -6.97929e-16 -7.2097)
(5.04575e-16 -9.73542e-17 -7.67766)
(-7.21879e-17 -3.86264e-17 -8.08988)
(7.45642e-17 4.06879e-17 -8.40004)
(-6.74162e-17 -6.33133e-17 -8.63765)
(8.26279e-17 8.33905e-17 -8.77377)
(-1.14503e-16 9.27962e-17 -8.8052)
(1.72958e-16 8.35982e-17 -8.72217)
(-4.35373e-16 -1.87337e-16 -8.50906)
(2.33806e-16 7.76064e-17 -8.15022)
(-5.72999e-17 2.5576e-17 -7.64806)
(-1.24344e-16 -9.64023e-17 -6.96154)
(-2.69897e-17 -1.35559e-16 -6.13215)
(-2.65937e-17 3.78582e-17 -5.13186)
(0 -0 -3.99488)
(-5.71136e-17 3.73834e-17 -2.761)
(6.45754e-17 -4.04101e-17 -1.44328)
(2.65544e-17 -1.70285e-16 -0.0857857)
(-4.20379e-17 -8.3365e-17 1.29375)
(1.4564e-16 8.94285e-17 2.65179)
(8.15658e-17 2.22258e-16 3.99586)
(-1.58638e-16 6.18996e-17 5.28995)
(1.58315e-16 -1.6331e-16 6.56915)
(-1.9952e-16 -2.4694e-17 7.78164)
(3.17106e-16 -1.61965e-16 8.87622)
(-7.25552e-17 -2.85534e-16 9.51122)
(2.7879e-16 -2.86835e-17 9.48503)
(-1.98738e-16 6.34146e-16 9.14983)
(1.33908e-16 -1.74849e-16 9.29764)
(-3.96554e-17 -8.11322e-17 9.20742)
(2.74223e-17 -6.39267e-18 8.98696)
(2.58842e-17 -3.98091e-18 8.72588)
(2.47856e-17 -2.0593e-18 8.52152)
(-2.40983e-17 -1.81978e-17 8.42167)
(2.05876e-17 3.80254e-18 8.22102)
(1.44153e-18 1.87192e-17 7.65844)
(2.53591e-18 1.68412e-17 6.88651)
(-2.08049e-17 -3.15446e-18 6.0653)
(-4.56232e-18 -3.36766e-17 5.28412)
(-2.25782e-19 1.76109e-17 4.59593)
(4.35772e-18 1.39742e-17 4.02755)
(-2.63803e-18 -1.59296e-17 3.5877)
(1.80235e-17 5.25528e-19 3.27183)
(-3.29957e-17 1.28898e-17 3.06682)
(1.75339e-17 -1.38499e-17 2.95114)
(-3.30639e-18 -1.20423e-17 2.90354)
(8.88881e-19 1.29462e-17 2.90533)
(8.06819e-18 4.92382e-18 2.93654)
(-1.28351e-17 -7.84428e-19 2.97873)
(-9.96464e-19 -9.8328e-18 3.01851)
(-1.10616e-19 8.32728e-19 3.04632)
(5.2126e-18 4.92498e-18 3.05621)
(4.90029e-18 1.4617e-20 3.04619)
(-5.46199e-18 -1.62925e-20 3.01722)
(4.68605e-18 -1.91226e-19 2.97411)
(-7.94314e-18 4.60118e-20 2.9239)
(5.0421e-18 2.19792e-19 2.87303)
(-1.70549e-18 -5.08728e-21 2.82845)
(-3.85089e-19 -9.96367e-19 2.79681)
(1.10889e-18 1.26889e-18 2.78295)
(-3.25246e-19 7.21116e-19 2.79111)
(-1.02171e-18 -1.074e-18 2.82284)
(1.36107e-19 -1.41273e-19 2.87855)
(-9.89857e-20 3.69225e-19 2.95792)
(-1.48889e-19 2.09455e-19 3.06979)
(-7.63686e-20 -2.19521e-19 3.2377)
(-2.22619e-20 -6.95025e-20 3.39636)
(0 -0 1.48234)
(-3.7163e-19 -0 -2.74382)
(3.86166e-19 -1.54566e-17 -4.59111)
(2.73984e-19 3.03085e-17 -5.06094)
(1.48819e-17 1.38064e-18 -4.92424)
(-1.51243e-17 -3.19961e-17 -4.5664)
(3.74196e-19 -1.58674e-17 -4.13823)
(-6.13127e-19 3.11553e-17 -3.70677)
(-3.28198e-17 5.98793e-19 -3.30215)
(3.47905e-17 -3.04554e-19 -2.93549)
(6.08012e-17 9.55342e-17 -2.60804)
(-1.24774e-16 -9.53932e-17 -2.31783)
(7.28019e-19 -1.26659e-16 -2.06035)
(6.37817e-17 6.41941e-17 -1.8315)
(-8.13354e-18 1.878e-16 -1.62713)
(-6.28206e-17 -6.32458e-17 -1.44333)
(7.70751e-17 -1.24085e-16 -1.27662)
(-8.60789e-18 6.20352e-17 -1.12381)
(0 -0 -0.982033)
(0 -0 -0.848724)
(0 -0 -0.721688)
(0 -0 -0.599059)
(0 -0 -0.479313)
(-2.44067e-16 -0 -0.361281)
(3.59109e-16 -0 -0.244194)
(-1.15284e-16 -0 -0.127702)
(0 -0 -0.0120308)
(0 -0 0.101688)
(0 -0 0.211191)
(-1.00168e-17 1.13175e-16 0.31262)
(-1.04503e-17 -4.20982e-18 0.398931)
(4.20271e-17 -3.37927e-16 0.45966)
(-9.87238e-18 1.06292e-16 0.48294)
(-1.21834e-16 3.32991e-16 0.486725)
(-6.42159e-17 -4.38884e-16 0.49257)
(2.69117e-16 3.97783e-16 0.501948)
(8.71229e-16 6.67446e-16 0.512522)
(7.25702e-17 -1.69501e-15 0.522164)
(-5.07057e-16 -6.68966e-16 0.490596)
(8.84297e-16 1.83444e-15 0.367054)
(-2.73717e-16 9.84859e-17 0.0799388)
(-7.32068e-16 -1.37233e-15 -0.43179)
(-1.13387e-16 -6.55774e-17 -1.08633)
(2.0129e-17 -2.45489e-16 -1.80686)
(-1.35174e-15 3.62839e-16 -2.54221)
(1.15962e-15 1.88374e-15 -3.26054)
(2.28992e-15 2.56014e-16 -3.94712)
(9.52751e-16 1.06687e-15 -4.56834)
(1.19669e-15 6.52688e-16 -5.12274)
(5.8834e-16 -2.36606e-16 -5.58864)
(-1.78327e-15 -8.09364e-16 -5.95402)
(-3.82244e-17 4.70929e-16 -6.21988)
(5.7223e-16 7.34031e-16 -6.3569)
(-4.65974e-16 -6.03887e-16 -6.3823)
(6.82937e-16 -2.98289e-16 -6.26872)
(6.30305e-16 -8.52391e-17 -6.02661)
(4.03449e-16 -6.32624e-18 -5.65015)
(1.51492e-16 1.29113e-16 -5.13384)
(-8.83296e-17 7.26013e-17 -4.49845)
(-9.64728e-17 1.10529e-16 -3.73011)
(-4.29586e-17 -2.38987e-16 -2.85679)
(-3.30283e-16 1.45292e-16 -1.90035)
(2.64561e-16 3.82592e-16 -0.879203)
(-1.96842e-16 5.73184e-16 0.175226)
(3.1707e-16 -2.00752e-16 1.24288)
(9.81106e-18 -1.16388e-15 2.2955)
(2.7598e-16 -8.48953e-17 3.31854)
(-3.1924e-16 6.49817e-16 4.28291)
(-3.21549e-16 -5.19361e-17 5.18922)
(8.95984e-16 -3.46868e-16 6.0201)
(-2.90886e-17 9.9804e-17 6.76086)
(-1.24711e-15 6.47152e-16 7.41882)
(7.12178e-16 3.80267e-16 7.96716)
(-1.2707e-16 7.35252e-16 8.42077)
(8.06426e-16 -1.4838e-15 8.77708)
(1.46811e-16 -8.20638e-16 9.0241)
(-1.61993e-16 8.58968e-17 9.1718)
(-2.85953e-17 7.23761e-16 9.23192)
(-7.06e-16 -2.38668e-16 9.20603)
(-1.22949e-15 9.85881e-16 9.10805)
(1.66495e-15 8.66286e-17 8.94867)
(8.51044e-17 -8.87674e-16 8.73434)
(-5.91998e-16 4.07429e-16 8.47803)
(-2.74559e-17 -7.28875e-16 8.18983)
(4.16384e-17 -1.24364e-18 7.8743)
(9.39224e-16 -7.59867e-16 7.54468)
(5.52839e-16 -2.71709e-16 7.20677)
(4.70199e-16 2.94474e-16 6.85444)
(4.37808e-16 -9.04801e-16 6.50404)
(9.02931e-16 -5.67773e-16 6.15725)
(2.83386e-19 1.79859e-17 5.80407)
(4.18807e-16 -5.07294e-16 5.46219)
(2.10577e-16 2.22348e-16 5.13002)
(-4.03931e-16 1.82432e-16 4.79852)
(1.92283e-16 -4.15275e-16 4.49029)
(9.80873e-18 2.51949e-16 4.1844)
(-3.59387e-16 2.05244e-16 3.90629)
(1.69534e-16 4.53496e-16 3.6422)
(-1.30935e-17 2.92587e-17 3.41728)
(-1.00697e-16 -5.8705e-16 3.21732)
(-4.03044e-17 4.55306e-17 3.05107)
(-6.17064e-17 1.00039e-16 2.91759)
(-2.25831e-17 -9.03881e-17 2.81539)
(2.07599e-17 -1.43344e-17 2.74791)
(4.11331e-17 -8.00409e-18 2.71036)
(8.37007e-17 2.33785e-17 2.69332)
(-1.57677e-18 -2.1173e-16 2.70354)
(4.97303e-16 3.5564e-16 2.72268)
(2.09407e-17 -3.90469e-17 2.75102)
(-3.57907e-16 1.44938e-16 2.76847)
(2.592e-17 1.79343e-16 2.7746)
(-1.36965e-17 -4.57399e-16 2.75896)
(1.87955e-16 3.30279e-16 2.71956)
(1.99924e-16 6.68054e-17 2.64322)
(-1.97789e-16 -3.52824e-16 2.53642)
(-3.8019e-16 -2.20069e-16 2.37429)
(1.49389e-17 -5.38174e-16 2.17202)
(-9.59318e-17 -5.30695e-16 1.91853)
(-4.0679e-16 3.43802e-16 1.61746)
(8.64128e-16 1.73242e-15 1.27524)
(-4.48687e-16 -4.34733e-16 0.886857)
(-4.79825e-16 -8.99874e-16 0.457594)
(4.22183e-16 3.59632e-16 -0.00308711)
(5.57984e-16 3.99541e-16 -0.490171)
(4.88915e-16 -1.88932e-16 -0.995921)
(-1.53913e-15 -6.93051e-16 -1.51226)
(4.92738e-16 3.25367e-16 -2.03146)
(-4.1029e-16 -8.30405e-16 -2.54384)
(-7.51774e-17 9.04955e-17 -3.04236)
(1.09257e-15 7.1511e-16 -3.52251)
(4.53515e-16 2.54017e-16 -3.96939)
(1.01741e-15 6.93306e-16 -4.38591)
(6.60258e-16 1.40152e-15 -4.77113)
(1.02395e-15 1.44792e-16 -5.10476)
(-1.02424e-16 -5.03131e-16 -5.39945)
(1.30694e-16 5.26186e-16 -5.65446)
(2.18509e-16 1.00409e-16 -5.8336)
(7.71694e-17 3.09188e-17 -5.97549)
(-6.83367e-17 -4.65062e-17 -6.03808)
(9.75787e-17 -1.56382e-16 -6.0377)
(-4.99886e-17 1.41089e-16 -5.95782)
(1.22001e-16 1.14573e-16 -5.79076)
(8.59996e-17 -2.67003e-16 -5.52613)
(2.75534e-17 2.0782e-16 -5.16395)
(-8.11099e-17 2.08699e-17 -4.67509)
(-4.79101e-17 6.65878e-17 -4.08958)
(1.20872e-16 -3.58997e-17 -3.36501)
(-7.69066e-17 2.00214e-17 -2.5389)
(4.81753e-17 -7.97519e-17 -1.61122)
(-1.30262e-16 -2.84668e-17 -0.596494)
(-7.30175e-17 2.44948e-16 0.466465)
(2.72806e-17 2.20751e-17 1.57449)
(4.93883e-17 -2.06782e-16 2.67655)
(-9.88815e-17 1.46398e-18 3.76306)
(3.73206e-16 -2.39483e-16 4.78568)
(-1.33728e-16 2.25829e-16 5.73322)
(-1.60492e-17 -1.07256e-17 6.52773)
(-3.03566e-16 7.5042e-17 7.09581)
(1.11773e-16 3.10881e-16 7.30302)
(-6.43999e-16 4.35117e-16 7.24171)
(1.481e-16 -5.97793e-16 6.77727)
(4.26494e-17 -3.34747e-17 6.35996)
(-5.35839e-18 1.94498e-16 5.90728)
(-5.62901e-17 -2.28163e-17 5.49289)
(1.54159e-18 1.21886e-17 5.1079)
(-4.53112e-17 5.46991e-17 4.7674)
(4.81047e-17 1.2758e-17 4.42322)
(-2.32516e-17 -1.91277e-17 3.96618)
(-3.10847e-19 -2.47643e-18 3.46309)
(-1.53587e-18 4.62591e-19 2.96514)
(-1.32679e-18 2.27659e-18 2.49223)
(3.04149e-18 1.71157e-17 2.06053)
(-2.01213e-17 -2.47383e-17 1.67655)
(1.55533e-17 -1.06082e-17 1.35364)
(1.00702e-18 2.65455e-18 1.09477)
(2.24608e-17 3.1876e-17 0.895956)
(-1.98849e-17 -2.08756e-17 0.749293)
(-2.78521e-18 -7.33586e-18 0.644354)
(4.63819e-18 2.54308e-17 0.57015)
(-1.47774e-18 -2.18706e-17 0.515716)
(-4.78828e-19 8.34135e-18 0.471868)
(6.01696e-18 5.70383e-18 0.430798)
(-5.78157e-18 -1.55582e-18 0.386877)
(-5.46222e-18 -6.92325e-18 0.337106)
(5.9385e-18 -7.76395e-18 0.280515)
(1.70625e-18 1.10978e-17 0.218183)
(6.27241e-19 -1.75895e-18 0.152802)
(-4.9231e-19 4.34301e-18 0.0876715)
(-1.87338e-19 -3.78917e-18 0.026611)
(2.24749e-19 -3.4689e-18 -0.0262544)
(1.71969e-18 4.08026e-18 -0.0672186)
(-1.22619e-18 -1.68655e-18 -0.0932332)
(-2.31492e-18 -1.01489e-18 -0.102499)
(2.5779e-18 1.61549e-18 -0.0942462)
(6.36662e-21 -1.7859e-19 -0.0679789)
(1.35657e-19 -4.01856e-19 -0.0243728)
(9.90276e-20 -3.68972e-19 0.0348643)
(2.31573e-19 -3.04463e-19 0.107214)
(-7.27307e-21 2.04055e-20 0.181982)
(4.92249e-21 -1.52286e-19 0.214815)
(-2.23926e-20 7.59007e-18 2.95512)
(-1.53932e-19 -6.84033e-18 0.456338)
(3.77113e-19 -2.34342e-17 -1.73453)
(-5.39012e-19 2.14836e-17 -3.26025)
(1.69496e-17 1.64325e-17 -4.24405)
(-1.6613e-17 -1.52316e-17 -4.83237)
(0 -0 -5.15541)
(-3.45139e-17 3.08282e-17 -5.31582)
(3.53674e-17 -6.05462e-17 -5.37914)
(-3.16059e-17 -6.42643e-17 -5.38567)
(3.04008e-17 1.23344e-16 -5.35725)
(5.97897e-19 9.48636e-17 -5.30876)
(1.45765e-19 -1.22962e-16 -5.24782)
(-1.28161e-16 -6.35e-17 -5.17926)
(1.22238e-16 1.24009e-16 -5.10587)
(7.50681e-17 -1.22704e-16 -5.03027)
(-1.29345e-16 -1.60161e-18 -4.95394)
(5.707e-17 1.24355e-16 -4.87778)
(3.283e-18 -6.18217e-17 -4.80221)
(0 -0 -4.72735)
(1.25296e-16 -0 -4.65318)
(-1.25565e-16 -0 -4.57934)
(-8.17489e-18 1.20475e-16 -4.5053)
(-1.15906e-16 -1.20641e-16 -4.43027)
(1.33198e-16 -1.2008e-16 -4.35365)
(-8.86889e-18 1.20246e-16 -4.27511)
(0 -0 -4.19457)
(1.22791e-16 -0 -4.11245)
(-5.94857e-19 -0 -4.02804)
(-1.32917e-16 1.14982e-16 -3.94387)
(9.4065e-18 -1.16918e-16 -3.86232)
(2.53913e-16 -1.12901e-16 -3.78858)
(-3.72126e-16 1.07749e-16 -3.72438)
(2.1863e-16 -1.38654e-18 -3.63496)
(-2.69162e-17 2.31462e-16 -3.50015)
(-4.23183e-16 -5.26759e-16 -3.36305)
(6.12606e-16 -5.93949e-17 -3.23802)
(3.27187e-16 1.58227e-15 -3.11044)
(-6.03556e-16 -3.25145e-16 -3.00415)
(-1.61799e-16 -9.96357e-16 -2.96466)
(-1.11672e-16 -2.09915e-16 -3.06771)
(-1.38264e-15 9.27712e-17 -3.33409)
(3.39336e-16 3.56359e-16 -3.70184)
(1.0525e-15 7.54004e-16 -4.1307)
(-1.33274e-15 -1.91667e-15 -4.59085)
(1.59156e-15 -1.48963e-15 -5.06795)
(-7.04889e-16 6.78746e-16 -5.5524)
(-5.08818e-17 5.90997e-16 -6.02044)
(-1.86453e-17 -6.959e-17 -6.47344)
(-4.25698e-17 1.48443e-15 -6.89126)
(5.62021e-16 3.68051e-16 -7.2665)
(1.85779e-16 -1.332e-15 -7.59521)
(-6.8324e-17 -5.87876e-16 -7.85393)
(1.38898e-16 -8.06796e-17 -8.05374)
(-6.30975e-16 6.39006e-17 -8.16865)
(-3.28527e-16 1.42935e-16 -8.20576)
(-4.13557e-16 1.77145e-17 -8.14877)
(-2.79929e-17 2.60459e-16 -7.98864)
(-1.06505e-16 1.89594e-16 -7.73108)
(1.63482e-16 -5.03185e-17 -7.35005)
(6.2403e-17 1.27635e-16 -6.86527)
(-3.01658e-16 -1.66984e-16 -6.2737)
(4.93107e-16 -3.0074e-16 -5.59019)
(3.90105e-16 -7.31945e-16 -4.83622)
(-1.14912e-16 2.72741e-17 -4.02655)
(-5.27396e-16 9.12432e-16 -3.19167)
(-8.62578e-16 4.37822e-16 -2.35271)
(1.2246e-16 4.51951e-17 -1.53166)
(2.24895e-17 -2.1555e-16 -0.749517)
(-6.44596e-16 4.25498e-16 -0.0209253)
(2.38734e-19 1.18423e-15 0.630576)
(1.04954e-15 -1.51038e-15 1.20735)
(-8.53057e-16 -4.98128e-16 1.69666)
(1.75764e-15 -1.14678e-15 2.09539)
(8.90083e-16 -4.8123e-16 2.40649)
(-1.45777e-16 1.66647e-15 2.62231)
(6.09286e-16 -5.14555e-16 2.75557)
(5.34267e-17 -9.46657e-17 2.82812)
(1.18794e-15 4.2115e-16 2.84458)
(-4.79507e-17 -2.32275e-15 2.81167)
(8.60543e-16 -2.39361e-15 2.73949)
(7.79786e-17 2.13106e-15 2.63469)
(4.38152e-16 -4.38064e-16 2.50566)
(6.69111e-16 -1.01499e-15 2.35972)
(-5.35323e-16 4.03578e-16 2.19968)
(1.10186e-15 -6.10407e-16 2.03082)
(-1.5078e-15 3.80027e-16 1.8562)
(-8.4219e-16 2.1837e-16 1.67389)
(-4.07148e-16 9.72003e-16 1.48797)
(6.70122e-17 6.26792e-16 1.30317)
(9.14265e-18 5.80265e-16 1.11658)
(1.87186e-17 2.55288e-16 0.931288)
(-2.41644e-16 8.06862e-17 0.752326)
(2.21547e-16 -3.3356e-16 0.575049)
(-4.34403e-18 -3.08174e-17 0.406023)
(-6.412e-17 2.34502e-16 0.243265)
(5.34442e-18 -2.34738e-16 0.0903536)
(9.13192e-19 -3.88746e-16 -0.0498277)
(5.91849e-16 7.06392e-17 -0.177323)
(5.16626e-17 2.9017e-16 -0.292081)
(-4.63121e-17 -3.30503e-17 -0.396849)
(6.34943e-17 -6.4987e-17 -0.485492)
(7.34784e-19 3.2994e-17 -0.565041)
(-5.52086e-19 -3.63275e-17 -0.631749)
(-1.01824e-18 -8.95212e-17 -0.68876)
(-8.72796e-17 5.02831e-18 -0.74084)
(-9.07391e-17 -1.22139e-16 -0.782551)
(-3.48371e-16 -4.83623e-17 -0.824826)
(5.26071e-16 5.70924e-16 -0.863903)
(-3.43901e-16 -3.6782e-16 -0.90964)
(3.41364e-16 -4.43394e-17 -0.958394)
(-4.01967e-18 2.24541e-16 -1.01804)
(9.92451e-18 -2.41841e-16 -1.09643)
(-1.42647e-17 2.70334e-16 -1.18911)
(3.05908e-17 2.33523e-16 -1.28916)
(-3.30265e-18 -2.686e-16 -1.41253)
(1.91515e-16 6.5195e-16 -1.55521)
(2.52698e-16 6.27321e-16 -1.72681)
(-8.56191e-16 -1.63694e-15 -1.92284)
(-4.50079e-16 -2.33988e-16 -2.14097)
(1.018e-15 1.22183e-15 -2.38584)
(2.91781e-16 -8.95261e-16 -2.6552)
(-3.74487e-16 -3.74241e-16 -2.9462)
(-5.62773e-16 -4.70434e-16 -3.25855)
(-2.85598e-16 1.06613e-15 -3.58765)
(-4.83891e-16 -2.28879e-16 -3.93067)
(3.55089e-16 -5.72701e-16 -4.28379)
(-5.90273e-16 -1.44333e-16 -4.64092)
(-6.38182e-16 -1.64311e-15 -4.9974)
(-9.37136e-16 -7.33985e-16 -5.35247)
(-3.56589e-16 2.80444e-16 -5.69353)
(-5.63016e-16 -4.19579e-16 -6.02409)
(-5.45296e-16 -9.40086e-16 -6.34348)
(6.72498e-16 7.96207e-16 -6.63407)
(-7.2263e-16 1.06497e-16 -6.90902)
(-2.57625e-17 -2.59321e-16 -7.16519)
(-5.2602e-17 -8.27021e-17 -7.37535)
(-2.22451e-16 8.46142e-17 -7.57305)
(-9.33737e-18 1.20598e-17 -7.72185)
(-2.42639e-16 4.16389e-17 -7.8387)
(2.33403e-16 1.52338e-16 -7.91025)
(8.73711e-16 7.08096e-17 -7.93089)
(-7.44212e-17 7.54728e-17 -7.89332)
(2.76726e-17 1.96479e-16 -7.7959)
(-1.52937e-16 -2.21719e-17 -7.61216)
(2.38129e-17 -2.61845e-16 -7.36419)
(7.5276e-17 3.83135e-17 -7.00231)
(-1.01564e-16 5.57433e-17 -6.55542)
(1.3305e-16 5.27073e-17 -6.00233)
(-2.26583e-16 1.12348e-16 -5.34618)
(6.96555e-17 -2.77224e-16 -4.61506)
(1.93754e-16 -2.58642e-16 -3.8008)
(-1.6012e-16 2.78013e-16 -2.94774)
(4.33727e-17 -1.39887e-17 -2.06749)
(-1.55186e-16 1.50655e-16 -1.21329)
(-2.06869e-16 2.54739e-16 -0.422961)
(3.51506e-16 -1.81909e-16 0.220136)
(-2.22334e-16 -8.73979e-18 0.625282)
(6.9648e-18 6.33375e-18 0.789002)
(3.85709e-16 -3.4388e-16 0.73458)
(1.73127e-16 -5.61272e-17 0.309714)
(-2.65917e-16 1.8665e-16 -0.243907)
(1.85839e-17 -4.78557e-17 -0.770489)
(1.80174e-17 -5.20349e-17 -1.21602)
(-2.71022e-17 1.3504e-18 -1.56986)
(-3.03398e-17 -5.95969e-17 -1.8747)
(-8.26455e-18 -2.17764e-17 -2.16892)
(2.6988e-17 3.88531e-17 -2.51945)
(2.34547e-17 1.45166e-18 -2.78827)
(2.71191e-18 1.69102e-17 -2.98275)
(-2.16847e-17 -9.89505e-18 -3.14502)
(2.15723e-18 -1.87265e-17 -3.29375)
(4.13593e-17 2.53984e-18 -3.43682)
(-4.22813e-17 -1.61129e-18 -3.57367)
(-2.205e-18 -1.86194e-17 -3.70215)
(-1.93687e-17 1.98197e-17 -3.82038)
(3.69347e-17 2.99449e-17 -3.9283)
(-1.94246e-17 -3.38331e-17 -4.02544)
(-1.04573e-19 -1.24205e-17 -4.11207)
(1.09736e-18 1.60228e-17 -4.18983)
(-9.55048e-18 -2.26355e-19 -4.26124)
(7.50607e-18 4.00697e-18 -4.3282)
(2.30468e-18 -9.91615e-19 -4.39192)
(1.08069e-17 -1.03664e-17 -4.45204)
(-1.06324e-17 7.7284e-20 -4.50819)
(-5.93627e-18 5.01773e-18 -4.56014)
(6.70817e-18 1.84292e-18 -4.60711)
(-4.67763e-18 3.59322e-19 -4.64833)
(4.39644e-18 -8.96113e-19 -4.68352)
(-1.35927e-18 -1.28198e-18 -4.71164)
(2.54217e-18 1.75878e-18 -4.73184)
(1.78375e-18 2.42738e-18 -4.7433)
(-1.40508e-18 -2.68146e-18 -4.7443)
(2.50669e-19 -7.38991e-19 -4.73554)
(3.22957e-20 1.1365e-18 -4.71671)
(-4.1359e-19 -5.07193e-19 -4.68782)
(1.10184e-19 2.77465e-19 -4.65098)
(1.85057e-19 4.79382e-19 -4.61218)
(1.83784e-19 -3.13411e-20 -4.58022)
(3.90499e-20 7.61411e-20 -4.56853)
(0 -0 2.35433)
(8.08488e-18 -0 1.41895)
(-7.94849e-18 -1.4958e-17 0.0940728)
(2.61998e-20 1.33907e-17 -1.23843)
(-1.74203e-19 1.65496e-17 -2.44308)
(2.21006e-19 -1.49822e-17 -3.42161)
(3.1116e-17 -0 -4.18423)
(-3.11842e-17 -0 -4.76353)
(1.86942e-18 -0 -5.20062)
(-4.00511e-18 -0 -5.52867)
(-6.57841e-17 5.99399e-17 -5.77364)
(6.781e-17 -5.60467e-17 -5.95471)
(6.64699e-17 -4.22333e-18 -6.08715)
(-2.65366e-18 -5.60268e-17 -6.18202)
(4.20245e-19 -7.08643e-18 -6.24779)
(-6.55237e-17 1.83152e-16 -6.2913)
(-6.47733e-17 -1.16724e-16 -6.31797)
(6.91764e-17 -6.28115e-17 -6.33207)
(-3.17708e-18 5.9827e-17 -6.33692)
(6.7576e-17 -1.18174e-16 -6.33502)
(-6.75645e-17 1.13332e-16 -6.32823)
(-7.81592e-18 1.23268e-16 -6.31784)
(-2.63244e-19 -1.2695e-18 -6.30453)
(1.64603e-17 -1.13143e-16 -6.28855)
(1.19934e-16 -1.21404e-16 -6.26981)
(-1.28205e-16 1.1739e-16 -6.24801)
(-1.09367e-16 -1.15811e-16 -6.22283)
(9.98855e-19 -2.51551e-18 -6.19388)
(2.16908e-16 2.31878e-16 -6.16039)
(-1.28748e-16 1.17153e-16 -6.1224)
(3.60546e-17 -3.43571e-16 -6.08015)
(-1.2146e-16 -3.88127e-18 -6.03462)
(1.05955e-16 1.24427e-16 -5.9863)
(1.08981e-16 -2.30768e-18 -5.91449)
(-1.39689e-16 2.18442e-16 -5.79814)
(2.62528e-16 -1.96875e-16 -5.65204)
(-8.93823e-16 -6.7947e-16 -5.48794)
(-8.86717e-16 -7.7725e-16 -5.31224)
(9.56367e-16 6.73529e-16 -5.14655)
(3.93728e-16 9.92875e-16 -5.02294)
(-1.2423e-16 1.27661e-15 -4.99436)
(1.10507e-15 -6.02184e-16 -5.05878)
(3.11897e-16 -2.32591e-15 -5.20831)
(-1.13769e-15 6.76737e-16 -5.42922)
(5.03676e-16 1.35754e-15 -5.70003)
(-1.09584e-15 -3.47057e-16 -6.01496)
(-7.30239e-16 -1.27853e-16 -6.36456)
(-4.85735e-16 -2.64507e-16 -6.73171)
(-6.92479e-16 -3.245e-16 -7.11975)
(-4.92382e-16 -1.27347e-15 -7.50923)
(1.26238e-15 4.63221e-16 -7.89693)
(-6.74851e-16 7.95304e-16 -8.27759)
(4.76189e-17 5.94624e-16 -8.63412)
(-8.06107e-16 -3.05737e-16 -8.97435)
(-4.0777e-17 -1.15766e-16 -9.27803)
(2.90455e-18 -3.392e-16 -9.55074)
(-5.29021e-16 -3.52023e-16 -9.77512)
(-1.51334e-16 -1.2893e-16 -9.94236)
(9.21597e-18 -3.11772e-17 -10.0474)
(8.59407e-17 -1.32752e-17 -10.068)
(-1.57128e-16 7.63285e-17 -10.0091)
(3.3685e-16 -1.96457e-16 -9.85126)
(-4.60183e-16 5.2608e-17 -9.60099)
(1.7787e-16 8.94307e-16 -9.25977)
(-8.53229e-16 6.97464e-16 -8.83416)
(7.67398e-16 -8.27369e-16 -8.34112)
(-2.32961e-16 -3.33745e-16 -7.80404)
(1.49865e-16 -1.66073e-16 -7.23565)
(-5.70799e-16 6.58682e-16 -6.66953)
(3.69386e-16 -1.82167e-16 -6.11549)
(2.50119e-16 -1.4452e-15 -5.59639)
(6.48074e-16 6.30481e-16 -5.12056)
(-6.84689e-16 3.25215e-16 -4.69022)
(9.77986e-17 -8.03441e-16 -4.32459)
(-8.68053e-16 1.35748e-15 -4.01435)
(4.27357e-17 -6.8203e-16 -3.75935)
(7.69815e-16 -4.51873e-16 -3.54981)
(5.37457e-17 -4.67886e-17 -3.37189)
(1.49251e-15 -1.44499e-15 -3.22306)
(1.32176e-15 -5.05292e-17 -3.1004)
(-2.53865e-15 3.03347e-15 -2.99692)
(-6.88796e-16 -3.45884e-16 -2.90678)
(7.0917e-16 -9.84788e-16 -2.82583)
(-6.0065e-16 1.03831e-15 -2.74964)
(4.08626e-18 -6.30866e-16 -2.67771)
(-9.83931e-16 2.00388e-15 -2.61162)
(8.93123e-16 1.65588e-15 -2.55016)
(-4.20385e-16 -7.00976e-16 -2.49487)
(-5.07911e-16 -1.63705e-15 -2.45074)
(-1.40242e-15 1.83829e-16 -2.41306)
(-2.24098e-16 1.21973e-16 -2.38516)
(1.52937e-17 1.19652e-17 -2.36695)
(2.16347e-16 -9.35385e-17 -2.3511)
(-3.19317e-17 -2.52848e-16 -2.34136)
(-3.56783e-16 2.13028e-16 -2.34211)
(-2.00232e-17 2.18579e-16 -2.34464)
(1.84727e-16 -8.89458e-17 -2.35822)
(-5.78572e-16 -3.28218e-17 -2.37314)
(-3.04844e-16 1.31581e-16 -2.39883)
(-1.84183e-17 1.66303e-16 -2.42762)
(8.64237e-17 -5.86759e-18 -2.46854)
(-8.48528e-17 5.68991e-17 -2.51239)
(5.27805e-17 -1.46975e-17 -2.56457)
(2.41034e-19 -1.46676e-17 -2.62265)
(7.02526e-19 9.24129e-17 -2.68596)
(-1.76026e-16 8.70366e-17 -2.75533)
(5.27073e-18 8.83275e-17 -2.82559)
(-1.58871e-16 -6.09239e-16 -2.89997)
(-2.00807e-16 7.23531e-18 -2.97445)
(3.59616e-16 5.35941e-16 -3.05173)
(4.23787e-18 -2.10862e-16 -3.12733)
(6.08254e-18 -1.29045e-17 -3.2049)
(1.31791e-18 2.36119e-16 -3.28746)
(-1.68723e-16 -1.18249e-16 -3.37099)
(3.68889e-16 -4.58819e-17 -3.46137)
(9.43224e-18 -2.05625e-16 -3.55703)
(-6.4147e-16 -1.15798e-15 -3.66159)
(2.13269e-16 9.23358e-16 -3.77614)
(8.93209e-16 1.90772e-15 -3.9018)
(-4.60552e-16 -1.40938e-15 -4.04438)
(8.37296e-16 -5.13178e-16 -4.20544)
(-7.88e-16 5.33749e-16 -4.38376)
(-3.66336e-16 8.81927e-16 -4.58143)
(-1.36475e-16 -1.3493e-17 -4.79965)
(-5.13739e-16 -9.80111e-16 -5.03523)
(1.48258e-15 5.85862e-16 -5.28924)
(-9.77308e-17 4.66178e-18 -5.55886)
(4.34017e-16 8.04486e-16 -5.84055)
(-3.24837e-16 4.07056e-16 -6.13265)
(-6.49973e-16 -4.61973e-16 -6.43351)
(-3.05414e-16 -6.13439e-16 -6.73325)
(-5.2309e-17 6.94624e-17 -7.03632)
(-5.49409e-16 -2.35616e-16 -7.34068)
(-5.99756e-16 -7.46142e-16 -7.63028)
(-9.94945e-18 1.9284e-16 -7.92016)
(-1.04602e-16 -2.06828e-16 -8.20312)
(-5.0461e-16 -5.89674e-17 -8.4597)
(-1.13364e-16 -8.10273e-18 -8.72067)
(1.45542e-16 1.8893e-17 -8.95291)
(8.94739e-17 -2.33932e-16 -9.17495)
(2.34191e-16 -7.55556e-16 -9.37706)
(-3.10158e-16 3.42123e-18 -9.55611)
(-1.02637e-16 2.64111e-16 -9.71047)
(2.38892e-16 2.7492e-16 -9.83725)
(3.29412e-16 7.95037e-17 -9.91752)
(1.14182e-16 -4.89221e-17 -9.96978)
(-1.15899e-16 5.78312e-17 -9.94572)
(7.24801e-17 3.10309e-18 -9.8714)
(-5.84395e-17 -2.01827e-18 -9.71014)
(2.77566e-16 -4.35015e-17 -9.45926)
(4.8826e-17 -9.32648e-17 -9.12616)
(-2.83718e-16 3.24389e-16 -8.68836)
(-8.30202e-17 -5.35671e-17 -8.18251)
(9.75375e-17 -7.32611e-17 -7.60247)
(-2.30533e-16 1.68789e-16 -7.0021)
(8.27979e-17 -3.47013e-16 -6.41672)
(-2.20141e-16 1.24127e-16 -5.9198)
(2.78137e-16 2.32101e-17 -5.58894)
(-2.10394e-17 -1.71015e-16 -5.40887)
(3.26318e-17 5.61539e-17 -5.42383)
(-1.36832e-16 1.99231e-16 -5.68376)
(1.17772e-16 -3.91789e-17 -6.14577)
(2.09589e-17 -5.37858e-17 -6.53248)
(1.14095e-16 1.06761e-18 -6.82881)
(-2.3285e-17 4.77034e-17 -6.9898)
(2.40558e-17 1.48917e-17 -7.06812)
(-7.2214e-17 -2.51727e-17 -7.09485)
(-3.91273e-18 -3.40116e-17 -7.10555)
(5.65276e-18 2.0164e-17 -7.03485)
(2.53993e-17 3.82604e-17 -6.91753)
(-2.5974e-18 -2.87709e-18 -6.80464)
(-7.89358e-18 -3.78668e-17 -6.71829)
(-4.87577e-18 1.91002e-17 -6.66223)
(4.71323e-18 2.09368e-17 -6.64399)
(4.50142e-18 -1.5038e-17 -6.66118)
(-4.22605e-17 -2.52598e-18 -6.70621)
(3.51956e-17 -1.59369e-17 -6.77033)
(1.73974e-17 1.14264e-17 -6.84477)
(-1.24862e-17 1.71678e-17 -6.92187)
(-4.46188e-18 -1.27367e-17 -6.99533)
(9.17805e-18 8.87477e-19 -7.06076)
(-6.7351e-18 -3.02877e-18 -7.11544)
(5.9993e-19 -5.86186e-18 -7.15776)
(5.37142e-18 4.83045e-18 -7.18683)
(-1.14685e-17 7.7409e-18 -7.20302)
(8.47853e-19 -5.95451e-18 -7.20812)
(-1.7917e-18 -1.99518e-18 -7.20463)
(-1.32588e-18 4.45118e-18 -7.1952)
(3.55423e-18 -1.36657e-18 -7.18261)
(-4.32747e-18 -6.18691e-18 -7.16894)
(-3.88638e-18 1.22054e-18 -7.15589)
(3.89212e-18 9.44122e-19 -7.14438)
(-1.19161e-18 1.35227e-18 -7.13392)
(-1.27879e-18 -1.37654e-18 -7.12366)
(5.66446e-20 2.32115e-18 -7.11267)
(7.49638e-19 -4.92047e-19 -7.09946)
(-7.09688e-19 -2.32999e-20 -7.08368)
(-6.3211e-20 -6.70629e-19 -7.06824)
(3.13074e-19 -8.93163e-19 -7.05538)
(-1.03082e-19 1.87981e-19 -7.05479)
(0 -0 1.6568)
(0 -0 1.45203)
(1.32785e-19 -1.50027e-17 0.968152)
(3.05335e-19 1.32531e-17 0.226399)
(-5.278e-19 1.66927e-17 -0.641326)
(7.41365e-19 -4.43721e-17 -1.48274)
(3.11631e-17 2.60071e-17 -2.26093)
(-6.38539e-17 6.2205e-17 -2.95852)
(3.24587e-17 -8.47337e-17 -3.53188)
(1.06844e-18 -6.66144e-18 -4.01412)
(-2.27542e-18 6.19616e-17 -4.41618)
(6.46231e-17 -2.93495e-17 -4.74874)
(-1.22114e-16 -5.81461e-17 -5.02165)
(1.24747e-16 -5.77153e-18 -5.24579)
(-1.3506e-16 1.74408e-16 -5.42967)
(6.54044e-17 -4.66673e-17 -5.58068)
(9.84147e-18 -1.21891e-16 -5.70527)
(-6.83009e-18 5.80677e-17 -5.80888)
(3.21291e-18 -5.73175e-17 -5.89604)
(5.59253e-17 5.21845e-17 -5.97048)
(-7.09071e-17 6.2563e-17 -6.03522)
(1.18226e-17 -5.743e-17 -6.09263)
(-1.24195e-16 1.13223e-16 -6.14447)
(1.40301e-16 -2.16833e-16 -6.19192)
(-7.30774e-18 -1.87895e-17 -6.23558)
(-2.6046e-17 3.47628e-16 -6.27572)
(7.94774e-18 -1.05011e-16 -6.31236)
(1.87656e-17 -3.36043e-16 -6.34525)
(-1.22033e-16 9.60362e-17 -6.37378)
(9.3247e-17 3.42521e-16 -6.39725)
(1.79886e-17 -1.04996e-16 -6.41488)
(3.09597e-18 -2.22455e-16 -6.42605)
(2.02023e-17 -1.16957e-16 -6.43134)
(-1.35682e-16 2.169e-16 -6.42704)
(1.10201e-16 1.20514e-16 -6.39018)