/*--------------------------------*- C++ -*----------------------------------*\
| =========                 |                                                 |
| \\      /  F ield         | OpenFOAM: The Open Source CFD Toolbox           |
|  \\    /   O peration     | Version:  2506                                  |
|   \\  /    A nd           | Website:  www.openfoam.com                      |
|    \\/     M anipulation  |                                                 |
\*---------------------------------------------------------------------------*/
FoamFile
{
    version     2.0;
    format      ascii;
    arch        "LSB;label=32;scalar=64";
    class       volScalarField;
    location    "0.253704";
    object      s;
}
// * * * * * * * * * * * * * * * * * * * * * * * * * * * * * * * * * * * * * //

dimensions      [0 0 0 0 0 0 0];

internalField   nonuniform List<scalar> 
4000
(
0.00131638
0.0188493
0.156526
0.584979
0.84959
0.756072
0.380469
0.0685678
0.0152879
0.00456057
0.00119022
0.00024873
3.14563e-05
-4.124e-06
-4.94832e-06
-2.5041e-06
-1.00118e-06
-3.98465e-07
-1.57282e-07
-6.0743e-08
-2.26717e-08
-8.51119e-09
-3.37188e-09
-1.37611e-09
-5.62077e-10
-2.19956e-10
-7.87329e-11
-2.47988e-11
-6.5309e-12
-1.26493e-12
-4.45382e-14
1.10876e-13
6.16023e-14
2.34492e-14
7.88757e-15
-8.52873e-15
-1.15255e-13
-1.18023e-13
-1.1187e-13
-1.18544e-13
-1.45995e-13
-9.7072e-14
-2.22213e-14
-7.49527e-15
-2.48321e-15
-5.63364e-16
-3.20284e-17
3.17089e-17
2.62914e-17
1.40251e-17
6.97204e-18
4.83522e-18
3.26633e-18
1.97941e-18
1.1646e-18
5.53243e-19
1.56397e-19
-1.89057e-19
-2.82023e-19
-2.3484e-19
-1.07352e-19
-2.95024e-20
-1.79707e-22
4.1359e-21
2.41902e-21
7.56268e-22
1.73343e-22
1.72299e-23
-4.04791e-24
-2.89451e-24
-9.73923e-25
-2.64195e-25
-5.47125e-26
-1.02626e-26
-1.69234e-27
-2.32752e-28
-3.36787e-29
1.90288e-29
2.37676e-28
7.83655e-28
1.13276e-27
8.89736e-28
4.72068e-28
1.76526e-28
3.15775e-29
-1.85754e-29
-2.39478e-29
-1.72683e-29
-9.79869e-30
-4.81924e-30
-2.29105e-30
-1.00186e-30
-4.25037e-31
-1.88326e-31
-7.41231e-32
-3.14508e-32
-1.15093e-32
-4.28691e-33
-1.24229e-33
-3.28279e-34
-4.02734e-35
1.38635e-35
1.40324e-35
6.98925e-36
2.91218e-36
8.75198e-37
2.59317e-37
5.65703e-38
9.59669e-39
4.90713e-40
-4.69439e-40
-2.57067e-40
-1.02012e-40
-2.63973e-41
-8.74677e-42
-2.09544e-42
-4.89336e-43
-1.35568e-43
-3.29358e-44
-9.02596e-45
-3.52799e-45
-1.43143e-45
-6.21161e-46
-3.53834e-46
-1.98331e-46
-1.17008e-46
-7.3179e-47
-4.54993e-47
-3.00461e-47
-2.26113e-47
-1.44164e-47
-9.92677e-48
-8.47354e-48
-5.77423e-48
-4.19059e-48
-3.85632e-48
-2.25152e-48
-1.71164e-48
-1.00861e-48
-5.4381e-49
-2.25928e-49
-4.51028e-50
-2.01036e-51
1.3835e-51
2.8806e-52
-5.04262e-53
-4.57424e-53
-2.3773e-53
-1.78262e-53
-1.00289e-53
-2.07195e-54
1.22079e-54
1.23982e-54
6.13387e-55
1.73842e-55
2.85541e-56
-3.59971e-57
-4.5189e-57
-1.72033e-57
-2.64203e-58
1.98065e-57
1.02345e-56
3.03361e-56
7.04582e-56
1.48919e-55
2.3499e-55
2.86255e-55
2.05132e-55
9.17778e-56
3.03858e-56
7.80542e-57
1.57637e-57
2.56735e-58
3.64743e-59
3.69328e-60
3.26496e-61
-7.56256e-62
-4.17702e-62
-8.83041e-63
-1.03177e-63
-4.25813e-65
4.89503e-66
-1.34409e-66
-1.30968e-66
-4.12734e-67
-6.31104e-68
8.42615e-69
1.19687e-68
6.96041e-69
3.12452e-69
1.05965e-69
2.52916e-70
5.89333e-71
4.11166e-71
3.81536e-71
2.65389e-71
1.35386e-71
5.48363e-72
1.9834e-72
5.46765e-73
0.00103415
0.00862458
0.0497526
0.205492
0.473045
0.736671
0.829371
0.791535
0.705489
0.552676
0.373968
0.204883
0.0749586
0.026516
0.0104833
0.00398597
0.00125338
0.000195274
-0.00012689
-0.000155831
-0.000100997
-4.74549e-05
-2.43466e-05
-1.21162e-05
-5.71145e-06
-2.50816e-06
-9.99915e-07
-3.56108e-07
-1.11249e-07
-2.94024e-08
-5.67927e-09
-4.71252e-11
5.89572e-10
2.6417e-10
9.72775e-11
3.37122e-11
8.576e-12
-1.95011e-13
-2.64453e-12
-3.14052e-12
-3.51933e-12
-3.29917e-12
-2.54704e-12
-1.59162e-12
-8.47315e-13
-3.71221e-13
-1.4933e-13
-6.20441e-14
-2.73181e-14
-1.25813e-14
-6.00226e-15
-2.94821e-15
-1.46736e-15
-7.3419e-16
-3.61826e-16
-1.69492e-16
-6.43244e-17
6.24713e-18
4.3e-17
3.71243e-17
1.84007e-17
5.47147e-18
2.14988e-19
-7.30591e-19
-4.46538e-19
-1.45634e-19
-2.35064e-20
3.86916e-21
4.53929e-21
1.98109e-21
6.14936e-22
1.5903e-22
3.38338e-23
6.27757e-24
1.04317e-24
1.60536e-25
2.51193e-26
5.63316e-27
4.16886e-26
1.06733e-25
1.21528e-25
1.1357e-25
8.22491e-26
4.87116e-26
2.50583e-26
1.10719e-26
4.24481e-27
1.44398e-27
3.79809e-28
5.10242e-29
-2.12622e-29
-2.3241e-29
-1.3682e-29
-6.81876e-30
-2.82926e-30
-1.17669e-30
-4.3731e-31
-1.67063e-31
-5.82467e-32
-2.07564e-32
-6.56809e-33
-1.90248e-33
-4.52058e-34
-6.42871e-35
1.16077e-35
1.34143e-35
7.16694e-36
2.76743e-36
9.1215e-37
2.59712e-37
6.4392e-38
1.32238e-38
2.06178e-39
9.06212e-41
-1.11105e-40
-5.59664e-41
-2.0399e-41
-7.45998e-42
-2.39239e-42
-7.97918e-43
-3.3651e-43
-1.4655e-43
-6.75718e-44
-3.88732e-44
-2.34879e-44
-1.49356e-44
-9.9363e-45
-6.67944e-45
-4.68677e-45
-3.4913e-45
-2.39563e-45
-1.69357e-45
-1.30392e-45
-9.02717e-46
-6.34413e-46
-4.75033e-46
-2.97836e-46
-1.95664e-46
-1.1488e-46
-6.21661e-47
-2.88674e-47
-9.43139e-48
-2.04073e-48
-1.52695e-49
8.95662e-50
4.49669e-50
1.20357e-50
4.95977e-51
3.96614e-51
2.38539e-51
7.25411e-52
-9.00421e-53
-2.18464e-52
-1.2824e-52
-4.28675e-53
-8.05072e-54
5.66806e-55
1.15395e-54
5.00916e-55
1.1565e-55
-7.10137e-56
1.05088e-55
1.7917e-54
4.52171e-54
6.79739e-54
6.81683e-54
4.84143e-54
2.0003e-54
3.6895e-55
-1.05364e-55
-1.27004e-55
-6.53856e-56
-2.33518e-56
-5.83261e-57
-6.66963e-58
2.19884e-58
1.37322e-58
3.9186e-59
6.8771e-60
5.2077e-61
-1.02712e-61
-4.02216e-62
-3.91438e-63
1.25216e-63
5.48572e-64
4.40877e-65
-4.88669e-65
-3.21087e-65
-1.22949e-65
-2.91503e-66
1.30771e-67
4.40326e-67
9.50037e-69
-3.00461e-67
-3.03493e-67
-1.8219e-67
-8.11739e-68
-2.86777e-68
-7.772e-69
-4.7803e-70
0.000984759
0.00639056
0.0267267
0.0932888
0.256856
0.494768
0.715125
0.875558
0.919523
0.894227
0.828427
0.716928
0.558028
0.392513
0.24923
0.141003
0.0675243
0.0208602
0.00475653
0.000790601
-0.000387823
-0.00070354
-0.000674985
-0.000465983
-0.00021957
-7.36875e-05
-2.64e-05
-1.0132e-05
-3.82791e-06
-1.40594e-06
-3.365e-07
4.78524e-08
7.7739e-08
3.70481e-08
1.52513e-08
6.28669e-09
2.48823e-09
8.84826e-10
2.8113e-10
7.81485e-11
1.14478e-11
-8.93235e-12
-1.38707e-11
-1.3459e-11
-1.15053e-11
-8.78695e-12
-5.72133e-12
-3.27719e-12
-1.85142e-12
-1.0357e-12
-5.683e-13
-3.07609e-13
-1.64065e-13
-8.67683e-14
-4.49335e-14
-2.2686e-14
-1.1104e-14
-5.25427e-15
-2.41674e-15
-1.04942e-15
-4.22745e-16
-1.09344e-16
2.69741e-17
3.55605e-17
1.70679e-17
4.59153e-18
8.51493e-20
-6.44765e-19
-4.11423e-19
-1.65845e-19
-4.96841e-20
-1.10413e-20
-1.51156e-21
8.89047e-23
1.45567e-22
5.86081e-23
1.67067e-23
3.87695e-24
-6.68961e-26
-1.95542e-24
-1.56194e-24
-5.82638e-25
9.36632e-26
3.38457e-25
3.27166e-25
2.24775e-25
1.27459e-25
6.49471e-26
2.94642e-26
1.20512e-26
4.65011e-27
1.66416e-27
5.5501e-28
1.81582e-28
5.72037e-29
1.80898e-29
5.49311e-30
1.48255e-30
2.78657e-31
-2.91465e-32
-6.14049e-32
-4.00957e-32
-1.90098e-32
-7.37223e-33
-2.48119e-33
-6.97849e-34
-1.59437e-34
-2.35334e-35
1.78255e-36
3.16073e-36
1.59876e-36
6.02133e-37
1.96447e-37
5.51156e-38
1.46676e-38
3.53736e-39
7.73292e-40
1.60817e-40
3.24894e-41
7.03565e-42
1.96936e-42
8.4295e-43
3.9386e-43
1.2788e-43
1.9491e-44
-2.211e-44
-3.37966e-44
-3.2139e-44
-2.77136e-44
-2.29077e-44
-1.63724e-44
-1.17928e-44
-8.85708e-45
-5.85231e-45
-3.85123e-45
-2.54541e-45
-1.4108e-45
-7.77295e-46
-3.58351e-46
-1.30969e-46
-1.78942e-47
2.88434e-47
3.50907e-47
2.13209e-47
8.55257e-48
1.90702e-48
-4.73092e-49
-7.60377e-49
-4.61143e-49
-1.76926e-49
-3.41049e-50
1.09747e-50
1.36277e-50
7.23717e-51
2.45417e-51
4.53994e-52
-6.14073e-53
-9.18609e-53
-4.16478e-53
-1.1781e-53
-1.66374e-54
1.23066e-54
1.49905e-53
2.20517e-53
9.13714e-54
-1.60799e-53
-3.92528e-53
-3.89501e-53
-2.49037e-53
-1.20157e-53
-4.68397e-54
-1.51159e-54
-4.01497e-55
-8.31909e-56
-1.0627e-56
8.19805e-58
9.65953e-58
2.75149e-58
1.10925e-59
-3.05254e-59
-1.88032e-59
-6.9139e-60
-1.58824e-60
-7.69551e-63
2.32442e-61
1.61085e-61
7.84224e-62
3.21309e-62
1.17485e-62
3.92945e-63
1.21194e-63
3.45e-64
8.87519e-65
1.65526e-65
-2.75249e-66
-5.12731e-66
-3.24477e-66
-1.4012e-66
-4.25117e-67
-3.71144e-68
0.000992738
0.00660988
0.0278653
0.0925774
0.225249
0.415687
0.624392
0.801852
0.913138
0.937403
0.92471
0.881707
0.782119
0.646034
0.495306
0.350368
0.226791
0.13261
0.0687072
0.030183
0.00958489
0.000310555
-0.0012936
-0.00119746
-0.000973993
-0.000628894
-0.00033535
-0.000148611
-5.20498e-05
-8.53973e-06
-1.65051e-07
8.02431e-07
7.1284e-07
4.94388e-07
2.44863e-07
9.04268e-08
2.97558e-08
1.19263e-08
5.32683e-09
2.34811e-09
9.71259e-10
3.44126e-10
8.69274e-11
4.13135e-13
-2.14608e-11
-2.40308e-11
-2.11625e-11
-1.68718e-11
-1.17747e-11
-7.59412e-12
-4.62457e-12
-2.6924e-12
-1.4968e-12
-7.85755e-13
-3.91864e-13
-1.92004e-13
-9.26246e-14
-4.36312e-14
-2.00287e-14
-8.79678e-15
-3.72056e-15
-1.47715e-15
-4.8552e-16
-6.64651e-17
8.38472e-17
8.40301e-17
4.90908e-17
2.17655e-17
7.51961e-18
1.83345e-18
1.18789e-19
-1.94878e-19
-1.49354e-19
-7.38475e-20
-2.96892e-20
-1.03516e-20
-3.23774e-21
-9.35036e-22
-2.53842e-22
-1.36625e-22
-1.21465e-22
-8.5842e-23
-4.76016e-23
-2.18881e-23
-8.51595e-24
-2.68507e-24
-5.52038e-25
6.08956e-26
1.48621e-25
1.05936e-25
5.80433e-26
2.71908e-26
1.13659e-26
4.43579e-27
1.59226e-27
5.46918e-28
1.7559e-28
5.36032e-29
1.49154e-29
3.61708e-30
6.23356e-31
-2.42128e-32
-9.02366e-32
-5.53815e-32
-2.54224e-32
-9.71583e-33
-3.30532e-33
-9.93314e-34
-2.6131e-34
-5.66929e-35
-7.97418e-36
7.79606e-37
1.24098e-36
6.50735e-37
2.7726e-37
1.03741e-37
3.64403e-38
1.26401e-38
4.34703e-39
1.53546e-39
5.84453e-40
2.39216e-40
1.05339e-40
5.02881e-41
2.54489e-41
1.34791e-41
7.39835e-42
4.17296e-42
2.41889e-42
1.44621e-42
8.78913e-43
5.44262e-43
3.47549e-43
2.23545e-43
1.45391e-43
9.62169e-44
6.25221e-44
4.03161e-44
2.53682e-44
1.54333e-44
8.99125e-45
4.91421e-45
2.4678e-45
1.1379e-45
4.73178e-46
1.70462e-46
4.65146e-47
4.32886e-48
-5.67858e-48
-5.44258e-48
-3.25478e-48
-1.53928e-48
-6.00678e-49
-1.84975e-49
-3.6671e-50
3.20156e-51
7.58279e-51
4.52528e-51
1.80318e-51
5.20339e-52
9.89617e-53
-3.37545e-53
-3.11366e-52
-6.24005e-52
-8.8758e-52
-9.50504e-52
-8.40923e-52
-5.56723e-52
-2.85909e-52
-1.18902e-52
-4.03902e-53
-1.07148e-53
-1.77107e-54
1.57381e-55
2.77696e-55
1.33734e-55
4.01485e-56
5.10737e-57
-3.11774e-57
-3.22646e-57
-1.94903e-57
-9.67803e-58
-4.28064e-58
-1.73338e-58
-6.46116e-59
-2.19163e-59
-6.51042e-60
-1.50164e-60
-1.16194e-61
1.48325e-61
1.30956e-61
7.59753e-62
3.69478e-62
1.60393e-62
6.37194e-63
2.34146e-63
7.96154e-64
2.47382e-64
6.91352e-65
3.21713e-66
0.00099209
0.00693247
0.0307917
0.105494
0.246514
0.432587
0.62587
0.789054
0.899331
0.935847
0.929371
0.901165
0.8257
0.715006
0.581807
0.442192
0.311956
0.202849
0.12038
0.0641425
0.0297081
0.0109933
0.0021782
-0.000991582
-0.00123498
-0.00100257
-0.000683473
-0.000388899
-0.000187891
-7.59946e-05
-2.3879e-05
-2.91011e-06
1.29922e-06
1.19479e-06
8.07093e-07
4.59284e-07
2.27752e-07
1.0291e-07
4.42257e-08
1.8657e-08
7.97649e-09
3.33438e-09
1.26975e-09
4.36811e-10
1.23571e-10
1.16336e-11
-2.18152e-11
-2.66111e-11
-2.30647e-11
-1.86386e-11
-1.31771e-11
-8.66619e-12
-5.39959e-12
-3.22334e-12
-1.8482e-12
-1.01933e-12
-5.38668e-13
-2.70514e-13
-1.28422e-13
-5.62926e-14
-2.16516e-14
-6.83873e-15
-1.74761e-15
-2.02919e-16
1.81202e-16
3.77683e-16
3.22589e-16
2.10766e-16
1.16537e-16
5.73141e-17
2.56221e-17
1.0462e-17
3.91417e-18
1.32869e-18
3.99496e-19
1.00574e-19
1.68859e-20
-1.60489e-21
-3.4212e-21
-2.1868e-21
-1.35216e-21
-8.57326e-22
-5.2082e-22
-2.90477e-22
-1.47985e-22
-6.86796e-23
-2.90076e-23
-1.11549e-23
-3.8335e-24
-1.13189e-24
-2.56849e-25
-2.29991e-26
1.83015e-26
1.54325e-26
7.84667e-27
3.32981e-27
1.23856e-27
4.33176e-28
1.43514e-28
4.73094e-29
1.53128e-29
4.82737e-30
1.41178e-30
3.53185e-31
5.8846e-32
-4.5385e-33
-1.03584e-32
-6.1492e-33
-2.75314e-33
-1.05689e-33
-3.63898e-34
-1.14186e-34
-3.27827e-35
-8.42778e-36
-1.81569e-36
-2.5011e-37
4.11564e-38
5.78407e-38
3.48987e-38
1.76091e-38
8.41951e-39
3.94087e-39
1.85657e-39
9.00965e-40
4.50644e-40
2.33233e-40
1.24714e-40
6.86061e-41
3.88293e-41
2.25786e-41
1.33011e-41
7.97882e-42
4.89645e-42
2.99874e-42
1.85013e-42
1.14944e-42
7.01144e-43
4.24344e-43
2.51076e-43
1.44471e-43
8.0235e-44
4.23561e-44
2.09433e-44
9.64348e-45
4.1384e-45
1.63581e-45
5.77068e-46
1.68519e-46
2.98922e-47
-7.71256e-48
-1.2457e-47
-9.15262e-48
-5.38845e-48
-2.81117e-48
-1.33613e-48
-5.79628e-49
-2.25713e-49
-7.56067e-50
-2.01089e-50
-3.12372e-51
5.37453e-52
-1.84581e-51
-5.75531e-51
-7.87889e-51
-8.22658e-51
-6.84284e-51
-4.78744e-51
-2.65156e-51
-1.185e-51
-4.32745e-52
-1.25079e-52
-2.39403e-53
8.35976e-55
3.51673e-54
2.03367e-54
7.69466e-55
1.81175e-55
-1.15273e-56
-4.49167e-56
-3.44782e-56
-1.98857e-56
-9.99749e-57
-4.60686e-57
-1.98721e-57
-8.08508e-58
-3.09666e-58
-1.10289e-58
-3.54323e-59
-9.48057e-60
-1.50746e-60
4.2096e-61
5.92556e-61
3.98055e-61
2.13761e-61
1.00895e-61
4.31781e-62
1.68977e-62
6.00123e-63
1.89385e-63
2.60797e-64
0.000985503
0.00704814
0.0322316
0.112785
0.26515
0.46021
0.653621
0.809038
0.908534
0.935162
0.925777
0.892082
0.817678
0.713199
0.588503
0.456674
0.331281
0.223247
0.138663
0.0784508
0.0395769
0.0170034
0.00542555
0.000448793
-0.000930506
-0.00102135
-0.000799712
-0.000509038
-0.000277963
-0.000132389
-5.43298e-05
-1.77118e-05
-2.98378e-06
9.7006e-07
1.09929e-06
7.57118e-07
4.60921e-07
2.45897e-07
1.2069e-07
5.64754e-08
2.59897e-08
1.1817e-08
5.22495e-09
2.20772e-09
8.66241e-10
2.96304e-10
6.70512e-11
-1.59365e-11
-2.98043e-11
-2.61186e-11
-2.06497e-11
-1.49057e-11
-1.00294e-11
-6.40129e-12
-3.92073e-12
-2.32012e-12
-1.32881e-12
-7.34946e-13
-3.92466e-13
-2.00421e-13
-9.72381e-14
-4.39574e-14
-1.80437e-14
-6.38026e-15
-1.62444e-15
1.13786e-16
4.5462e-16
4.76134e-16
3.50665e-16
2.21149e-16
1.26584e-16
6.73111e-17
3.3712e-17
1.59978e-17
7.215e-18
3.09818e-18
1.26372e-18
4.86621e-19
1.74699e-19
5.68174e-20
1.57622e-20
2.78449e-21
-5.73265e-22
-1.02451e-21
-7.64442e-22
-4.51644e-22
-2.34105e-22
-1.10416e-22
-4.78407e-23
-1.91127e-23
-7.04971e-24
-2.38375e-24
-7.28794e-25
-1.97094e-25
-4.41818e-26
-6.37423e-27
7.22472e-28
1.18435e-27
6.9347e-28
3.32993e-28
1.43369e-28
5.76271e-29
2.14854e-29
7.36147e-30
2.28136e-30
6.17198e-31
1.33114e-31
1.48906e-32
-5.522e-33
-5.16963e-33
-2.68121e-33
-1.14253e-33
-4.38667e-34
-1.56782e-34
-5.35024e-35
-1.75702e-35
-5.57906e-36
-1.717e-36
-5.08881e-37
-1.41989e-37
-3.51731e-38
-6.25052e-39
5.4278e-40
1.51988e-39
1.20989e-39
7.88025e-40
4.78014e-40
2.82002e-40
1.65405e-40
9.72424e-41
5.7043e-41
3.37086e-41
2.01151e-41
1.18522e-41
6.98997e-42
4.10044e-42
2.34815e-42
1.3249e-42
7.24467e-43
3.82376e-43
1.92791e-43
9.10664e-44
3.93704e-44
1.46143e-44
4.62016e-45
1.04707e-45
8.71202e-47
-5.3234e-47
-9.89964e-48
3.01094e-47
3.92779e-47
3.11135e-47
1.92869e-47
9.78959e-48
4.1095e-48
1.27708e-48
1.61752e-49
-1.45651e-49
-1.45906e-49
-8.69822e-50
-3.09396e-50
-1.63507e-50
-2.49859e-50
-2.88561e-50
-2.54849e-50
-1.72794e-50
-9.20905e-51
-3.46902e-51
-7.60487e-52
9.51398e-53
2.01081e-52
1.23344e-52
5.12117e-53
1.432e-53
8.13236e-55
-2.32743e-54
-2.12136e-54
-1.31861e-54
-6.93296e-55
-3.27639e-55
-1.42556e-55
-5.76146e-56
-2.16092e-56
-7.42533e-57
-2.25429e-57
-5.4168e-58
-5.22503e-59
4.87322e-59
4.69373e-59
2.87262e-59
1.46906e-59
6.69236e-60
2.75951e-60
1.01901e-60
3.20586e-61
7.11061e-62
-3.01196e-63
-1.66663e-62
-1.38412e-62
-7.06479e-63
0.000976578
0.00705722
0.0327667
0.115989
0.275073
0.477608
0.674499
0.827451
0.918181
0.934136
0.922281
0.882443
0.803591
0.69774
0.57482
0.446888
0.326046
0.221917
0.13988
0.0807857
0.0419585
0.0188545
0.00658568
0.00100271
-0.000665793
-0.000895527
-0.000759741
-0.000515635
-0.000302632
-0.000157027
-7.18945e-05
-2.8114e-05
-8.27278e-06
-7.79096e-07
7.87395e-07
8.23232e-07
5.81635e-07
3.46894e-07
1.85367e-07
9.29903e-08
4.53161e-08
2.16976e-08
1.01708e-08
4.64384e-09
2.04643e-09
8.5681e-10
3.30552e-10
1.07339e-10
1.94887e-11
-1.03699e-11
-1.68883e-11
-1.52815e-11
-1.1639e-11
-8.05106e-12
-5.25763e-12
-3.29349e-12
-1.99426e-12
-1.17084e-12
-6.68138e-13
-3.69443e-13
-1.97859e-13
-1.02058e-13
-5.03368e-14
-2.34764e-14
-1.01137e-14
-3.83676e-15
-1.13113e-15
-8.5912e-17
2.30608e-16
2.61303e-16
2.03792e-16
1.36091e-16
8.27692e-17
4.70337e-17
2.52869e-17
1.2953e-17
6.33845e-18
2.96347e-18
1.32094e-18
5.58084e-19
2.21025e-19
8.05855e-20
2.59672e-20
6.60081e-21
6.3462e-22
-7.0243e-22
-6.95247e-22
-4.40006e-22
-2.31577e-22
-1.0839e-22
-4.63133e-23
-1.82473e-23
-6.64853e-24
-2.24369e-24
-6.93748e-25
-1.93708e-25
-4.6294e-26
-7.91562e-27
1.82838e-28
1.06237e-27
6.85007e-28
3.31283e-28
1.38518e-28
5.23027e-29
1.81017e-29
5.72752e-30
1.63852e-30
4.08407e-31
7.87462e-32
5.05057e-33
-5.55241e-33
-4.18557e-33
-2.12206e-33
-9.26485e-34
-3.76115e-34
-1.45991e-34
-5.52244e-35
-2.06296e-35
-7.66518e-36
-2.8501e-36
-1.06756e-36
-4.04182e-37
-1.55017e-37
-6.04354e-38
-2.40035e-38
-9.7167e-39
-4.01543e-39
-1.69505e-39
-7.31314e-40
-3.23521e-40
-1.47855e-40
-6.99522e-41
-3.46683e-41
-1.8436e-41
-1.03289e-41
-6.20357e-42
-3.9195e-42
-2.52561e-42
-1.6518e-42
-1.06774e-42
-6.77265e-43
-4.17615e-43
-2.48348e-43
-1.42522e-43
-7.69209e-44
-3.89097e-44
-1.7799e-44
-7.06126e-45
-2.13997e-45
-1.8721e-46
3.93731e-46
4.36029e-46
3.22344e-46
1.98913e-46
1.09638e-46
5.48575e-47
2.51954e-47
1.06014e-47
4.19517e-48
1.56208e-48
6.792e-49
3.43806e-49
1.74056e-49
9.22385e-50
5.69682e-50
4.34006e-50
3.50361e-50
2.5429e-50
1.53271e-50
7.78953e-51
3.34791e-51
1.18318e-51
3.04097e-52
1.79145e-53
-4.32122e-53
-3.82313e-53
-2.28936e-53
-1.15147e-53
-5.17434e-54
-2.12138e-54
-7.92223e-55
-2.62803e-55
-7.1593e-56
-1.11604e-56
3.71726e-57
5.00379e-57
3.39386e-57
1.85831e-57
8.99927e-58
3.96765e-58
1.60048e-58
5.82259e-59
1.81887e-59
4.09334e-60
-6.80946e-62
-8.57261e-61
-7.17636e-61
-4.44715e-61
-2.4241e-61
-9.72256e-62
0.0009664
0.00701619
0.0328552
0.117164
0.279636
0.486467
0.686428
0.838866
0.922974
0.933112
0.91943
0.874266
0.791767
0.683705
0.560676
0.434583
0.316778
0.215933
0.13667
0.0794968
0.0417392
0.019082
0.00687485
0.00118986
-0.000630385
-0.000822952
-0.000716996
-0.000508374
-0.000311374
-0.000168607
-8.11327e-05
-3.4082e-05
-1.16178e-05
-2.2393e-06
3.60034e-07
6.85987e-07
5.82707e-07
3.8149e-07
2.20399e-07
1.18464e-07
6.13337e-08
3.10519e-08
1.54001e-08
7.47725e-09
3.54177e-09
1.62731e-09
7.18549e-10
2.9787e-10
1.10341e-10
3.13619e-11
1.13562e-12
-8.15427e-12
-9.23259e-12
-7.60838e-12
-5.50501e-12
-3.69981e-12
-2.36551e-12
-1.45572e-12
-8.68242e-13
-5.02976e-13
-2.83718e-13
-1.55692e-13
-8.29721e-14
-4.27861e-14
-2.11854e-14
-9.96992e-15
-4.36156e-15
-1.70043e-15
-5.19865e-16
-5.141e-17
9.75828e-17
1.17779e-16
9.52944e-17
6.57817e-17
4.13282e-17
2.42645e-17
1.34793e-17
7.12771e-18
3.59623e-18
1.72998e-18
7.90743e-19
3.41277e-19
1.37443e-19
5.05808e-20
1.62721e-20
3.99986e-21
2.68974e-22
-5.13296e-22
-4.64514e-22
-2.81934e-22
-1.43475e-22
-6.50898e-23
-2.69635e-23
-1.03216e-23
-3.65435e-24
-1.19605e-24
-3.56131e-25
-9.35144e-26
-1.95072e-26
-1.82558e-27
1.09644e-27
9.38181e-28
4.87519e-28
2.10095e-28
8.08732e-29
2.85143e-29
9.31373e-30
2.81297e-30
7.74163e-31
1.86111e-31
3.37731e-32
8.49462e-34
-3.41363e-33
-2.4266e-33
-1.26315e-33
-5.82104e-34
-2.52946e-34
-1.06653e-34
-4.42876e-35
-1.83022e-35
-7.59038e-36
-3.17291e-36
-1.34201e-36
-5.76691e-37
-2.52375e-37
-1.12684e-37
-5.14236e-38
-2.40071e-38
-1.14772e-38
-5.62473e-39
-2.8236e-39
-1.45033e-39
-7.63327e-40
-4.09919e-40
-2.23794e-40
-1.24319e-40
-6.96378e-41
-3.91741e-41
-2.20542e-41
-1.23221e-41
-6.80615e-42
-3.69159e-42
-1.95445e-42
-1.0059e-42
-4.98242e-43
-2.34659e-43
-1.02469e-43
-3.96368e-44
-1.21207e-44
-1.4226e-45
1.83947e-45
2.21642e-45
1.7207e-45
1.12112e-45
6.60065e-46
3.59237e-46
1.83471e-46
8.84376e-47
4.12241e-47
1.86472e-47
8.94272e-48
4.58008e-48
2.49998e-48
1.44494e-48
8.7402e-49
5.38255e-49
3.26079e-49
1.83794e-49
9.25132e-50
4.12302e-50
1.59778e-50
5.10804e-51
1.10613e-51
-6.56491e-53
-2.58266e-52
-1.95827e-52
-1.10529e-52
-5.35388e-53
-2.32767e-53
-9.19172e-54
-3.25788e-54
-9.87042e-55
-2.13798e-55
4.80517e-57
4.28765e-56
3.42407e-56
2.02323e-56
1.03279e-56
4.76555e-57
2.0146e-57
7.76505e-58
2.65433e-58
7.38085e-59
1.09024e-59
-5.14947e-60
-6.52422e-60
-4.56181e-60
-2.61999e-60
-1.36274e-60
-5.26806e-61
0.000955687
0.00695003
0.0326822
0.117118
0.280953
0.489858
0.691603
0.844522
0.92526
0.932288
0.917705
0.86927
0.784577
0.675072
0.551821
0.426694
0.310648
0.211805
0.134319
0.0784354
0.0414452
0.0191408
0.00703125
0.00134072
-0.000619842
-0.000825407
-0.000687822
-0.000514728
-0.000321198
-0.000177874
-8.8006e-05
-3.84511e-05
-1.41242e-05
-3.50694e-06
1.34728e-07
6.25533e-07
5.46916e-07
3.92769e-07
2.43936e-07
1.39656e-07
7.63808e-08
4.06413e-08
2.1139e-08
1.07644e-08
5.3598e-09
2.604e-09
1.2303e-09
5.59474e-10
2.40663e-10
9.44158e-11
3.05437e-11
4.90344e-12
-3.84955e-12
-5.6603e-12
-4.99193e-12
-3.7184e-12
-2.53517e-12
-1.63279e-12
-1.00923e-12
-6.03303e-13
-3.50767e-13
-1.98799e-13
-1.09964e-13
-5.93413e-14
-3.11586e-14
-1.58614e-14
-7.76031e-15
-3.60542e-15
-1.55007e-15
-5.83929e-16
-1.61784e-16
1.79956e-18
5.01601e-17
5.29237e-17
4.13596e-17
2.81923e-17
1.76325e-17
1.0337e-17
5.73791e-18
3.02878e-18
1.52176e-18
7.26639e-19
3.28272e-19
1.39092e-19
5.4466e-20
1.9149e-20
5.63684e-21
1.07595e-21
-1.59004e-22
-3.24299e-22
-2.3225e-22
-1.2834e-22
-6.15586e-23
-2.66908e-23
-1.06288e-23
-3.91818e-24
-1.33311e-24
-4.15343e-25
-1.15133e-25
-2.6496e-26
-3.75095e-27
6.76541e-28
8.89126e-28
5.05553e-28
2.2832e-28
9.10676e-29
3.33831e-29
1.14286e-29
3.6768e-30
1.10967e-30
3.0975e-31
7.68321e-32
1.48684e-32
7.39453e-34
-1.39584e-33
-1.10337e-33
-6.20797e-34
-3.09348e-34
-1.45483e-34
-6.64776e-35
-2.99972e-35
-1.34829e-35
-6.07589e-36
-2.75906e-36
-1.26632e-36
-5.88817e-37
-2.77871e-37
-1.33221e-37
-6.49507e-38
-3.22229e-38
-1.62492e-38
-8.31986e-39
-4.32922e-39
-2.2791e-39
-1.21171e-39
-6.50203e-40
-3.4989e-40
-1.88365e-40
-1.01167e-40
-5.3901e-41
-2.84095e-41
-1.47365e-41
-7.48717e-42
-3.71094e-42
-1.78123e-42
-8.17639e-43
-3.51807e-43
-1.35698e-43
-4.23971e-44
-6.1084e-45
5.29697e-45
7.0109e-45
5.66827e-45
3.83543e-45
2.35346e-45
1.34494e-45
7.27454e-46
3.75294e-46
1.88688e-46
9.26915e-47
4.69354e-47
2.4522e-47
1.33252e-47
7.46551e-48
4.26278e-48
2.42064e-48
1.3361e-48
6.9063e-49
3.24844e-49
1.37521e-49
5.12703e-50
1.58887e-50
3.30915e-51
-2.68456e-52
-8.24415e-52
-6.14947e-52
-3.45537e-52
-1.67217e-52
-7.27666e-53
-2.87321e-53
-1.01604e-53
-3.05709e-54
-6.46293e-55
2.85505e-56
1.41004e-55
1.10055e-55
6.42627e-56
3.24484e-56
1.47773e-56
6.13324e-57
2.29608e-57
7.43246e-58
1.7964e-58
6.12451e-60
-3.05089e-59
-2.74566e-59
-1.75658e-59
-9.6708e-60
-4.90104e-60
-1.84021e-60
0.000944796
0.00687176
0.0323713
0.116305
0.280059
0.489486
0.692026
0.845557
0.925873
0.932314
0.917348
0.868134
0.78287
0.673073
0.549944
0.4253
0.309926
0.211733
0.134714
0.0790528
0.0420767
0.0196564
0.00738331
0.00155546
-0.000570251
-0.00082552
-0.000691022
-0.000525891
-0.000334408
-0.000188772
-9.54934e-05
-4.30045e-05
-1.66218e-05
-4.76279e-06
-2.83119e-07
6.06992e-07
5.60999e-07
4.11609e-07
2.69511e-07
1.62501e-07
9.30036e-08
5.15048e-08
2.77873e-08
1.46553e-08
7.5592e-09
3.81257e-09
1.87869e-09
8.99336e-10
4.14668e-10
1.81263e-10
7.26087e-11
2.45502e-11
4.89121e-12
-2.03408e-12
-3.65479e-12
-3.33981e-12
-2.51447e-12
-1.71798e-12
-1.10505e-12
-6.80573e-13
-4.05441e-13
-2.3491e-13
-1.32851e-13
-7.34603e-14
-3.97078e-14
-2.09593e-14
-1.07597e-14
-5.34357e-15
-2.53915e-15
-1.13374e-15
-4.58259e-16
-1.51867e-16
-2.54041e-17
1.84524e-17
2.73976e-17
2.37411e-17
1.7121e-17
1.1136e-17
6.73465e-18
3.83911e-18
2.07622e-18
1.06768e-18
5.21685e-19
2.41385e-19
1.05051e-19
4.24775e-20
1.56047e-20
4.96109e-21
1.17333e-21
4.26612e-23
-1.79822e-22
-1.53051e-22
-9.08549e-23
-4.56402e-23
-2.05171e-23
-8.44536e-24
-3.20808e-24
-1.12666e-24
-3.62391e-25
-1.04661e-25
-2.5584e-26
-4.31614e-27
2.29996e-28
6.76483e-28
4.23771e-28
2.01708e-28
8.42104e-29
3.23325e-29
1.16704e-29
4.00409e-30
1.31064e-30
4.0834e-31
1.19718e-31
3.19959e-32
7.11342e-33
8.283e-34
-3.94201e-34
-4.23243e-34
-2.69429e-34
-1.47144e-34
-7.50665e-35
-3.69848e-35
-1.79144e-35
-8.61931e-36
-4.14477e-36
-2.00052e-36
-9.7187e-37
-4.76074e-37
-2.3547e-37
-1.17688e-37
-5.93989e-38
-3.02539e-38
-1.5563e-38
-8.0572e-39
-4.19479e-39
-2.1946e-39
-1.14888e-39
-6.00893e-40
-3.13414e-40
-1.62375e-40
-8.33966e-41
-4.22902e-41
-2.10922e-41
-1.03077e-41
-4.90434e-42
-2.25101e-42
-9.82161e-43
-3.93879e-43
-1.36301e-43
-3.2101e-44
4.21048e-45
1.30297e-44
1.21617e-44
8.8682e-45
5.75361e-45
3.46083e-45
1.97031e-45
1.07286e-45
5.69748e-46
2.95893e-46
1.55594e-46
8.27785e-47
4.48709e-47
2.45848e-47
1.35076e-47
7.29692e-48
3.81056e-48
1.87362e-48
8.49727e-49
3.51957e-49
1.30591e-49
4.13847e-50
9.60441e-51
2.25034e-52
-1.55237e-51
-1.28582e-51
-7.53174e-52
-3.75187e-52
-1.67202e-52
-6.76219e-53
-2.4639e-53
-7.79173e-54
-1.88412e-54
-1.27399e-55
2.34507e-55
2.12254e-55
1.29294e-55
6.61778e-56
3.00597e-56
1.22433e-56
4.38148e-57
1.27055e-57
1.98611e-58
-9.00915e-59
-1.20046e-58
-8.65567e-59
-5.11193e-59
-2.70089e-59
-1.33486e-59
-4.82834e-60
0.000933595
0.00677942
0.0319308
0.11485
0.277419
0.486165
0.688793
0.843006
0.925134
0.933181
0.918428
0.870711
0.786567
0.677748
0.555239
0.430768
0.315124
0.216303
0.138437
0.0818587
0.0440378
0.0209155
0.00812313
0.00192488
-0.000458444
-0.000804443
-0.000704244
-0.000544885
-0.000352429
-0.000202742
-0.000104867
-4.86265e-05
-1.96838e-05
-6.31179e-06
-8.81676e-07
4.97138e-07
5.85361e-07
4.37812e-07
3.06535e-07
1.90827e-07
1.12587e-07
6.41002e-08
3.55335e-08
1.92623e-08
1.02189e-08
5.30797e-09
2.69979e-09
1.33968e-09
6.45289e-10
2.9906e-10
1.31129e-10
5.27271e-11
1.79567e-11
3.74467e-12
-1.26113e-12
-2.4472e-12
-2.24427e-12
-1.68201e-12
-1.14135e-12
-7.28192e-13
-4.45047e-13
-2.63174e-13
-1.51528e-13
-8.52555e-14
-4.69497e-14
-2.53181e-14
-1.33457e-14
-6.85863e-15
-3.41625e-15
-1.63474e-15
-7.39669e-16
-3.06622e-16
-1.08195e-16
-2.42639e-17
6.39204e-18
1.40849e-17
1.3123e-17
9.7765e-18
6.48713e-18
3.9809e-18
2.29735e-18
1.25646e-18
6.53214e-19
3.22811e-19
1.51244e-19
6.67935e-20
2.75143e-20
1.03708e-20
3.43193e-21
8.91554e-22
9.32906e-23
-8.8725e-23
-8.93325e-23
-5.62209e-23
-2.9303e-23
-1.35666e-23
-5.72908e-24
-2.2322e-24
-8.03204e-25
-2.65633e-25
-7.9143e-26
-2.02686e-26
-3.80011e-27
-3.47794e-29
4.52938e-28
3.13353e-28
1.5779e-28
6.91131e-29
2.78669e-29
1.06134e-29
3.86839e-30
1.35907e-30
4.61418e-31
1.50979e-31
4.72123e-32
1.38142e-32
3.5717e-33
6.72415e-34
-2.90551e-35
-1.32414e-34
-1.03409e-34
-6.31133e-35
-3.49585e-35
-1.84547e-35
-9.49521e-36
-4.82031e-36
-2.43167e-36
-1.22444e-36
-6.17291e-37
-3.12162e-37
-1.58435e-37
-8.073e-38
-4.13512e-38
-2.12464e-38
-1.09534e-38
-5.66436e-39
-2.93097e-39
-1.51627e-39
-7.83395e-40
-4.03009e-40
-2.06144e-40
-1.04457e-40
-5.2272e-41
-2.57358e-41
-1.23913e-41
-5.81463e-42
-2.63322e-42
-1.13165e-42
-4.49491e-43
-1.545e-43
-3.70496e-44
3.82538e-45
1.3876e-44
1.31541e-44
9.7038e-45
6.36473e-45
3.88324e-45
2.24887e-45
1.26149e-45
6.8902e-46
3.75034e-46
2.03489e-46
1.10553e-46
5.97541e-47
3.19616e-47
1.66659e-47
8.37307e-48
3.98619e-48
1.77572e-48
7.35535e-49
2.7977e-49
9.49984e-50
2.67949e-50
4.70396e-51
-9.47298e-52
-1.57492e-51
-1.0865e-51
-5.89414e-52
-2.79144e-52
-1.1941e-52
-4.64046e-53
-1.61519e-53
-4.78858e-54
-1.00943e-54
2.26827e-56
1.88285e-55
1.4204e-55
7.76828e-56
3.54622e-56
1.37208e-56
4.1907e-57
6.45835e-58
-3.71426e-58
-4.8569e-58
-3.59186e-58
-2.1863e-58
-1.19258e-58
-6.02086e-59
-2.89086e-59
-9.93867e-60
0.000922176
0.00667487
0.0313749
0.112809
0.273129
0.479933
0.681665
0.836716
0.923261
0.934345
0.920931
0.876827
0.795466
0.688981
0.56774
0.443264
0.326479
0.225762
0.145714
0.0870418
0.0474594
0.0229916
0.00929673
0.00249247
-0.00024572
-0.000777857
-0.000720675
-0.000563947
-0.00037245
-0.000218403
-0.000115387
-5.49992e-05
-2.3223e-05
-8.12315e-06
-1.74742e-06
3.21491e-07
5.75316e-07
4.63244e-07
3.36731e-07
2.17472e-07
1.32612e-07
7.77558e-08
4.42982e-08
2.46366e-08
1.33894e-08
7.11712e-09
3.70179e-09
1.8789e-09
9.27252e-10
4.42205e-10
2.01547e-10
8.61982e-11
3.32651e-11
1.0433e-11
1.49773e-12
-1.39783e-12
-1.89735e-12
-1.60106e-12
-1.14813e-12
-7.55527e-13
-4.70905e-13
-2.8242e-13
-1.64506e-13
-9.35723e-14
-5.2133e-14
-2.84929e-14
-1.527e-14
-8.01488e-15
-4.10573e-15
-2.04239e-15
-9.78139e-16
-4.44337e-16
-1.86397e-16
-6.77326e-17
-1.71328e-17
1.77871e-18
6.96182e-18
6.86755e-18
5.22567e-18
3.50632e-18
2.16806e-18
1.2589e-18
6.92541e-19
3.62298e-19
1.80328e-19
8.52097e-20
3.80307e-20
1.5883e-20
6.09709e-21
2.07606e-21
5.70975e-22
8.08172e-23
-4.05524e-23
-4.82638e-23
-3.19575e-23
-1.71721e-23
-8.14575e-24
-3.51727e-24
-1.39928e-24
-5.1496e-25
-1.74333e-25
-5.34769e-26
-1.42488e-26
-2.88794e-27
-1.43592e-28
2.78331e-28
2.13969e-28
1.14009e-28
5.24327e-29
2.21971e-29
8.89557e-30
3.42675e-30
1.27981e-30
4.65384e-31
1.65108e-31
5.70533e-32
1.90664e-32
6.08043e-33
1.79257e-33
4.48227e-34
6.44068e-35
-2.45247e-35
-3.24406e-35
-2.34036e-35
-1.42795e-35
-8.08067e-36
-4.39302e-36
-2.3345e-36
-1.22458e-36
-6.37826e-37
-3.31009e-37
-1.71552e-37
-8.9014e-38
-4.62082e-38
-2.40302e-38
-1.25187e-38
-6.52351e-39
-3.39805e-39
-1.76768e-39
-9.15791e-40
-4.71929e-40
-2.41066e-40
-1.21783e-40
-6.06517e-41
-2.96567e-41
-1.4211e-41
-6.64071e-42
-3.00368e-42
-1.30141e-42
-5.29011e-43
-1.94506e-43
-5.7841e-44
-7.47781e-45
7.73045e-45
9.85384e-45
7.99154e-45
5.52247e-45
3.49766e-45
2.10026e-45
1.21294e-45
6.85743e-46
3.80711e-46
2.07909e-46
1.11256e-46
5.81489e-47
2.94309e-47
1.43495e-47
6.69634e-48
2.97785e-48
1.25972e-48
5.04281e-49
1.88858e-49
6.46929e-50
1.92714e-50
4.27555e-51
1.11231e-52
-6.33022e-52
-5.13709e-52
-2.96418e-52
-1.45965e-52
-6.46546e-53
-2.6239e-53
-9.78942e-54
-3.33141e-54
-1.01243e-54
-2.6309e-55
-5.3748e-56
-8.10317e-57
-2.97371e-57
-3.99935e-57
-4.20508e-57
-3.41133e-57
-2.34975e-57
-1.44867e-57
-8.22881e-58
-4.37951e-58
-2.20602e-58
-1.05721e-58
-4.89669e-59
-1.56632e-59
0.000910613
0.00655983
0.030697
0.110089
0.266817
0.470026
0.670003