/*--------------------------------*- C++ -*----------------------------------*\
| =========                 |                                                 |
| \\      /  F ield         | OpenFOAM: The Open Source CFD Toolbox           |
|  \\    /   O peration     | Version:  2506                                  |
|   \\  /    A nd           | Website:  www.openfoam.com                      |
|    \\/     M anipulation  |                                                 |
\*---------------------------------------------------------------------------*/
FoamFile
{
    version     2.0;
    format      ascii;
    arch        "LSB;label=32;scalar=64";
    class       volScalarField;
    location    "1.20005e-05";
    object      s;
}
// * * * * * * * * * * * * * * * * * * * * * * * * * * * * * * * * * * * * * //

dimensions      [0 0 0 0 0 0 0];

internalField   nonuniform List<scalar> 
4000
(
0.00044864
2.77714e-10
-8.98725e-11
-8.05908e-14
-5.41599e-17
-3.03204e-20
-2.0358e-21
-1.81625e-24
-1.21754e-27
-7.25601e-31
-4.05297e-34
-2.17233e-37
-1.13132e-40
-5.76723e-44
-2.89149e-47
-1.43026e-50
-6.99488e-54
-3.38743e-57
-1.62604e-60
-7.74201e-64
-3.65768e-67
-1.71493e-70
-7.97884e-74
-3.68256e-77
-1.68515e-80
-7.63944e-84
-3.42716e-87
-1.51921e-90
-6.6415e-94
-2.85603e-97
-1.20395e-100
-4.95139e-104
-1.97299e-107
-7.54001e-111
-2.68394e-114
-8.95576e-118
-2.96672e-121
-1.01362e-124
-3.66197e-128
-1.43177e-131
-6.19872e-135
-2.96793e-138
-1.54021e-141
-8.53345e-145
-4.99354e-148
-3.06389e-151
-1.96131e-154
-1.30232e-157
-8.93198e-161
-6.30662e-164
-4.56625e-167
-3.38086e-170
-2.55299e-173
-1.96012e-176
-1.52869e-179
-1.20725e-182
-9.64977e-186
-7.79651e-189
-6.34888e-192
-5.22821e-195
-4.32092e-198
-3.59525e-201
-3.0024e-204
-2.50939e-207
-2.10181e-210
-1.7517e-213
-1.45713e-216
-1.20024e-219
-9.80444e-223
-7.90106e-226
-6.26526e-229
-4.88658e-232
-3.72563e-235
-2.77521e-238
-2.01444e-241
-1.4192e-244
-9.68991e-248
-6.39971e-251
-4.07454e-254
-2.49622e-257
-1.46897e-260
-8.28421e-264
-4.46934e-267
-2.3026e-270
-1.13045e-273
-5.28504e-277
-2.34971e-280
-9.90698e-284
-3.96374e-287
-1.50382e-290
-5.39376e-294
-1.83324e-297
-5.90136e-301
-1.79639e-304
-5.19623e-308
-1.42396e-311
-3.72498e-315
-7.30456e-319
0
0
0
0
0
0
0
0
0
0
0
0
0
0
0
0
0
0
0
0
0
0
0
0
0
0
0
0
0
0
0
0
0
0
0
0
0
0
0
0
0
0
0
0
0
0
0
0
0
0
0
0
0
0
0
0
0
0
0
0
0
0
0
0
0
0
0
0
0
0
0
0
0
0
0
0
0
0
0
0
0
0
0
0
0
0
0
0
0
0
0
0
0
0
0
0
0
0
0
0
0
0
0.00044988
2.80059e-10
-9.06471e-11
-8.15361e-14
-5.4964e-17
-3.08649e-20
-2.07233e-21
-1.85437e-24
-1.24676e-27
-7.45171e-31
-4.17411e-34
-2.24347e-37
-1.17153e-40
-5.988e-44
-3.00989e-47
-1.49254e-50
-7.3172e-54
-3.5519e-57
-1.70893e-60
-8.15508e-64
-3.86145e-67
-1.81452e-70
-8.46126e-74
-3.91432e-77
-1.79561e-80
-8.16181e-84
-3.67235e-87
-1.63346e-90
-7.17005e-94
-3.09891e-97
-1.31488e-100
-5.45594e-104
-2.20243e-107
-8.59385e-111
-3.20446e-114
-1.14962e-117
-4.08793e-121
-1.47567e-124
-5.5156e-128
-2.17365e-131
-9.19751e-135
-4.15385e-138
-1.98584e-141
-1.003e-144
-5.32697e-148
-2.96617e-151
-1.72687e-154
-1.04648e-157
-6.59148e-161
-4.30166e-164
-2.90021e-167
-2.01623e-170
-1.4399e-173
-1.0543e-176
-7.88545e-180
-6.00716e-183
-4.64509e-186
-3.63328e-189
-2.8625e-192
-2.26625e-195
-1.79152e-198
-1.41078e-201
-1.10178e-204
-8.49506e-208
-6.45632e-211
-4.80684e-214
-3.5078e-217
-2.49424e-220
-1.72932e-223
-1.16515e-226
-7.61878e-230
-4.83838e-233
-2.97371e-236
-1.7706e-239
-1.02072e-242
-5.688e-246
-3.06517e-249
-1.59721e-252
-8.03824e-256
-3.90685e-259
-1.83372e-262
-8.3064e-266
-3.63066e-269
-1.53081e-272
-6.2216e-276
-2.43827e-279
-9.21231e-283
-3.35025e-286
-1.17406e-289
-3.96489e-293
-1.28772e-296
-4.03049e-300
-1.21583e-303
-3.53009e-307
-9.90421e-311
-2.67874e-314
-6.73606e-318
0
0
0
0
0
0
0
0
0
0
0
0
0
0
0
0
0
0
0
0
0
0
0
0
0
0
0
0
0
0
0
0
0
0
0
0
0
0
0
0
0
0
0
0
0
0
0
0
0
0
0
0
0
0
0
0
0
0
0
0
0
0
0
0
0
0
0
0
0
0
0
0
0
0
0
0
0
0
0
0
0
0
0
0
0
0
0
0
0
0
0
0
0
0
0
0
0
0
0
0
0
0
0
0.000451127
2.82339e-10
-9.13868e-11
-8.2428e-14
-5.57203e-17
-3.13776e-20
-2.10685e-21
-1.89062e-24
-1.27479e-27
-7.64138e-31
-4.29293e-34
-2.31421e-37
-1.21213e-40
-6.21461e-44
-3.13363e-47
-1.55892e-50
-7.66804e-54
-3.73501e-57
-1.80346e-60
-8.63849e-64
-4.10654e-67
-1.9378e-70
-9.07693e-74
-4.21967e-77
-1.94605e-80
-8.89816e-84
-4.03039e-87
-1.80638e-90
-7.99934e-94
-3.49373e-97
-1.50145e-100
-6.33108e-104
-2.61028e-107
-1.04873e-110
-4.08232e-114
-1.54984e-117
-5.8661e-121
-2.25714e-124
-8.99491e-128
-3.77692e-131
-1.69746e-134
-8.08099e-138
-4.0354e-141
-2.11199e-144
-1.15446e-147
-6.57838e-151
-3.89901e-154
-2.39308e-157
-1.51957e-160
-9.94937e-164
-6.69768e-167
-4.62753e-170
-3.26829e-173
-2.3564e-176
-1.72756e-179
-1.28538e-182
-9.67582e-186
-7.34994e-189
-5.61783e-192
-4.31135e-195
-3.30931e-198
-2.53498e-201
-1.93177e-204
-1.45904e-207
-1.09053e-210
-8.02402e-214
-5.81089e-217
-4.11996e-220
-2.85926e-223
-1.93603e-226
-1.27657e-229
-8.19949e-233
-5.11236e-236
-3.09544e-239
-1.81876e-242
-1.03525e-245
-5.70895e-249
-3.04957e-252
-1.57607e-255
-7.87872e-259
-3.80909e-262
-1.77989e-265
-8.03625e-269
-3.50469e-272
-1.47521e-275
-5.99448e-279
-2.35112e-282
-8.88822e-286
-3.24168e-289
-1.14076e-292
-3.86751e-296
-1.26531e-299
-3.99612e-303
-1.21728e-306
-3.58819e-310
-1.02213e-313
-2.8447e-317
0
0
0
0
0
0
0
0
0
0
0
0
0
0
0
0
0
0
0
0
0
0
0
0
0
0
0
0
0
0
0
0
0
0
0
0
0
0
0
0
0
0
0
0
0
0
0
0
0
0
0
0
0
0
0
0
0
0
0
0
0
0
0
0
0
0
0
0
0
0
0
0
0
0
0
0
0
0
0
0
0
0
0
0
0
0
0
0
0
0
0
0
0
0
0
0
0
0
0
0
0
0
0
0.000452381
2.84681e-10
-9.21451e-11
-8.33439e-14
-5.64983e-17
-3.19064e-20
-2.14247e-21
-1.92813e-24
-1.30389e-27
-7.83899e-31
-4.41723e-34
-2.38852e-37
-1.25496e-40
-6.45484e-44
-3.26548e-47
-1.63002e-50
-8.04604e-54
-3.93353e-57
-1.90663e-60
-9.16984e-64
-4.37801e-67
-2.07552e-70
-9.77098e-74
-4.56735e-77
-2.11923e-80
-9.75597e-84
-4.453e-87
-2.01344e-90
-9.00825e-94
-3.98247e-97
-1.7368e-100
-7.45744e-104
-3.14599e-107
-1.30193e-110
-5.26817e-114
-2.09812e-117
-8.37463e-121
-3.40484e-124
-1.4337e-127
-6.349e-131
-2.99575e-134
-1.48781e-137
-7.70013e-141
-4.15092e-144
-2.32409e-147
-1.34964e-150
-8.11374e-154
-5.02832e-157
-3.2099e-160
-2.10374e-163
-1.41155e-166
-9.67999e-170
-6.758e-173
-4.79791e-176
-3.45118e-179
-2.51161e-182
-1.84443e-185
-1.3642e-188
-1.01422e-191
-7.56749e-195
-5.65245e-198
-4.21957e-201
-3.14072e-204
-2.32389e-207
-1.70708e-210
-1.23918e-213
-8.8853e-217
-6.2621e-220
-4.33523e-223
-2.93853e-226
-1.94595e-229
-1.2589e-232
-7.92839e-236
-4.86105e-239
-2.89889e-242
-1.6785e-245
-9.43501e-249
-5.14705e-252
-2.72184e-255
-1.39476e-258
-6.92444e-262
-3.32837e-265
-1.54849e-268
-6.97028e-272
-3.03341e-275
-1.27649e-278
-5.19327e-282
-2.04003e-285
-7.7441e-289
-2.84114e-292
-1.00606e-295
-3.44351e-299
-1.13973e-302
-3.64487e-306
-1.12977e-309
-3.38992e-313
-9.88363e-317
0
0
0
0
0
0
0
0
0
0
0
0
0
0
0
0
0
0
0
0
0
0
0
0
0
0
0
0
0
0
0
0
0
0
0
0
0
0
0
0
0
0
0
0
0
0
0
0
0
0
0
0
0
0
0
0
0
0
0
0
0
0
0
0
0
0
0
0
0
0
0
0
0
0
0
0
0
0
0
0
0
0
0
0
0
0
0
0
0
0
0
0
0
0
0
0
0
0
0
0
0
0
0
0.000453643
2.87066e-10
-9.29173e-11
-8.42796e-14
-5.72955e-17
-3.24498e-20
-2.17909e-21
-1.96683e-24
-1.33401e-27
-8.0444e-31
-4.54694e-34
-2.46639e-37
-1.30006e-40
-6.70892e-44
-3.40562e-47
-1.706e-50
-8.45221e-54
-4.14811e-57
-2.01887e-60
-9.75186e-64
-4.67758e-67
-2.22869e-70
-1.05496e-73
-4.96107e-77
-2.31733e-80
-1.07482e-83
-4.94771e-87
-2.25901e-90
-1.02218e-93
-4.57938e-97
-2.02898e-100
-8.88008e-104
-3.83467e-107
-1.63315e-110
-6.84625e-114
-2.84337e-117
-1.18842e-120
-5.06744e-124
-2.23686e-127
-1.03587e-130
-5.08751e-134
-2.61612e-137
-1.39489e-140
-7.70811e-144
-4.40312e-147
-2.59704e-150
-1.57892e-153
-9.85531e-157
-6.31105e-160
-4.13295e-163
-2.76042e-166
-1.87734e-169
-1.29526e-172
-9.05766e-176
-6.39825e-179
-4.56084e-182
-3.27362e-185
-2.36281e-188
-1.71264e-191
-1.24541e-194
-9.07059e-198
-6.60954e-201
-4.81023e-204
-3.48795e-207
-2.51729e-210
-1.80081e-213
-1.27636e-216
-8.9215e-220
-6.14483e-223
-4.15711e-226
-2.75593e-229
-1.78981e-232
-1.13468e-235
-7.02065e-239
-4.23495e-242
-2.48592e-245
-1.41962e-248
-7.88319e-252
-4.25179e-255
-2.2263e-258
-1.13143e-261
-5.57702e-265
-2.66538e-268
-1.23459e-271
-5.53817e-275
-2.40624e-278
-1.01246e-281
-4.12043e-285
-1.62327e-288
-6.19079e-292
-2.28297e-295
-8.15128e-299
-2.81914e-302
-9.4373e-306
-3.06691e-309
-9.66464e-313
-2.9657e-316
0
0
0
0
0
0
0
0
0
0
0
0
0
0
0
0
0
0
0
0
0
0
0
0
0
0
0
0
0
0
0
0
0
0
0
0
0
0
0
0
0
0
0
0
0
0
0
0
0
0
0
0
0
0
0
0
0
0
0
0
0
0
0
0
0
0
0
0
0
0
0
0
0
0
0
0
0
0
0
0
0
0
0
0
0
0
0
0
0
0
0
0
0
0
0
0
0
0
0
0
0
0
0
0.000454911
2.89486e-10
-9.37014e-11
-8.52331e-14
-5.81106e-17
-3.30073e-20
-2.21666e-21
-2.00668e-24
-1.36516e-27
-8.25753e-31
-4.68208e-34
-2.54786e-37
-1.34744e-40
-6.97711e-44
-3.55425e-47
-1.787e-50
-8.88751e-54
-4.37939e-57
-2.14058e-60
-1.03871e-63
-5.00685e-67
-2.39833e-70
-1.1419e-73
-5.40449e-77
-2.54256e-80
-1.18878e-83
-5.52226e-87
-2.54766e-90
-1.16668e-93
-5.30018e-97
-2.38711e-100
-1.06519e-103
-4.70695e-107
-2.0602e-110
-8.9212e-114
-3.8462e-117
-1.67386e-120
-7.4391e-124
-3.41956e-127
-1.64462e-130
-8.35154e-134
-4.42074e-137
-2.41664e-140
-1.36347e-143
-7.91951e-147
-4.73055e-150
-2.9013e-153
-1.82006e-156
-1.1671e-159
-7.6264e-163
-5.06542e-166
-3.41458e-169
-2.32804e-172
-1.60418e-175
-1.11383e-178
-7.787e-182
-5.47211e-185
-3.86173e-188
-2.73456e-191
-1.942e-194
-1.38165e-197
-9.84197e-201
-7.01056e-204
-4.98406e-207
-3.5337e-210
-2.48952e-213
-1.74199e-216
-1.2055e-219
-8.24292e-223
-5.55187e-226
-3.67451e-229
-2.38864e-232
-1.51975e-235
-9.45986e-239
-5.75396e-242
-3.41346e-245
-1.9742e-248
-1.1125e-251
-6.10116e-255
-3.25452e-258
-1.68809e-261
-8.50776e-265
-4.16466e-268
-1.97925e-271
-9.1255e-275
-4.08204e-278
-1.77134e-281
-7.44765e-285
-3.03645e-288
-1.20047e-291
-4.59748e-295
-1.70762e-298
-6.15418e-302
-2.15054e-305
-7.30706e-309
-2.41159e-312
-7.76036e-316
0
0
0
0
0
0
0
0
0
0
0
0
0
0
0
0
0
0
0
0
0
0
0
0
0
0
0
0
0
0
0
0
0
0
0
0
0
0
0
0
0
0
0
0
0
0
0
0
0
0
0
0
0
0
0
0
0
0
0
0
0
0
0
0
0
0
0
0
0
0
0
0
0
0
0
0
0
0
0
0
0
0
0
0
0
0
0
0
0
0
0
0
0
0
0
0
0
0
0
0
0
0
0
0.000456186
2.91939e-10
-9.44964e-11
-8.62034e-14
-5.89429e-17
-3.35785e-20
-2.25517e-21
-2.04767e-24
-1.3973e-27
-8.47837e-31
-4.82264e-34
-2.63295e-37
-1.39713e-40
-7.25962e-44
-3.71155e-47
-1.87313e-50
-9.35278e-54
-4.62795e-57
-2.27213e-60
-1.1078e-63
-5.36728e-67
-2.58533e-70
-1.23845e-73
-5.90104e-77
-2.79701e-80
-1.31876e-83
-6.1844e-87
-2.88406e-90
-1.33715e-93
-6.16168e-97
-2.82127e-100
-1.28329e-103
-5.79856e-107
-2.60434e-110
-1.16189e-113
-5.18056e-117
-2.33674e-120
-1.07683e-123
-5.12638e-127
-2.54637e-130
-1.32997e-133
-7.21327e-137
-4.02693e-140
-2.31196e-143
-1.36156e-146
-8.21639e-150
-5.07279e-153
-3.19271e-156
-2.04712e-159
-1.33329e-162
-8.79998e-166
-5.87766e-169
-3.96026e-172
-2.69025e-175
-1.83758e-178
-1.26151e-181
-8.69207e-185
-6.00771e-188
-4.16346e-191
-2.89267e-194
-2.01358e-197
-1.40405e-200
-9.79836e-204
-6.83352e-207
-4.75997e-210
-3.30105e-213
-2.27832e-216
-1.55885e-219
-1.05633e-222
-7.06854e-226
-4.65966e-229
-3.02422e-232
-1.92584e-235
-1.20262e-238
-7.35504e-242
-4.39695e-245
-2.56806e-248
-1.46433e-251
-8.14228e-255
-4.41213e-258
-2.32911e-261
-1.19684e-264
-5.98406e-268
-2.90986e-271
-1.37515e-274
-6.31598e-278
-2.8189e-281
-1.2212e-284
-5.13898e-288
-2.10058e-291
-8.33258e-295
-3.2111e-298
-1.20276e-301
-4.37589e-305
-1.55048e-308
-5.34519e-312
-1.79889e-315
-7.3427e-319
0
0
0
0
0
0
0
0
0
0
0
0
0
0
0
0
0
0
0
0
0
0
0
0
0
0
0
0
0
0
0
0
0
0
0
0
0
0
0
0
0
0
0
0
0
0
0
0
0
0
0
0
0
0
0
0
0
0
0
0
0
0
0
0
0
0
0
0
0
0
0
0
0
0
0
0
0
0
0
0
0
0
0
0
0
0
0
0
0
0
0
0
0
0
0
0
0
0
0
0
0
0
0.000457469
2.94423e-10
-9.53018e-11
-8.71897e-14
-5.97919e-17
-3.4163e-20
-2.29459e-21
-2.08977e-24
-1.43044e-27
-8.70686e-31
-4.96862e-34
-2.72166e-37
-1.44915e-40
-7.5566e-44
-3.87762e-47
-1.96448e-50
-9.84866e-54
-4.89419e-57
-2.41381e-60
-1.18263e-63
-5.76008e-67
-2.79046e-70
-1.34513e-73
-6.4538e-77
-3.08261e-80
-1.46596e-83
-6.94152e-87
-3.27279e-90
-1.5364e-93
-7.18134e-97
-3.34216e-100
-1.54887e-103
-7.14959e-107
-3.28992e-110
-1.50867e-113
-6.93488e-117
-3.22967e-120
-1.53664e-123
-7.54215e-127
-3.85193e-130
-2.06062e-133
-1.14087e-136
-6.48339e-140
-3.77728e-143
-2.2501e-146
-1.36894e-149
-8.49325e-153
-5.35507e-156
-3.42923e-159
-2.22419e-162
-1.45797e-165
-9.64672e-169
-6.4243e-172
-4.30434e-175
-2.89469e-178
-1.95348e-181
-1.32148e-184
-8.9587e-188
-6.08558e-191
-4.14281e-194
-2.82552e-197
-1.93091e-200
-1.3214e-203
-9.04548e-207
-6.19129e-210
-4.22561e-213
-2.87477e-216
-1.94269e-219
-1.30278e-222
-8.64622e-226
-5.66568e-229
-3.66324e-232
-2.32932e-235
-1.45564e-238
-8.92821e-242
-5.36445e-245
-3.15556e-248
-1.81582e-251
-1.02096e-254
-5.60498e-258
-3.00324e-261
-1.5693e-264
-7.99307e-268
-3.96651e-271
-1.91636e-274
-9.01393e-278
-4.12721e-281
-1.83758e-284
-7.96126e-288
-3.35607e-291
-1.37548e-294
-5.48591e-298
-2.13032e-301
-8.0494e-305
-2.96683e-308
-1.06576e-311
-3.74315e-315
-1.46982e-318
0
0
0
0
0
0
0
0
0
0
0
0
0
0
0
0
0
0
0
0
0
0
0
0
0
0
0
0
0
0
0
0
0
0
0
0
0
0
0
0
0
0
0
0
0
0
0
0
0
0
0
0
0
0
0
0
0
0
0
0
0
0
0
0
0
0
0
0
0
0
0
0
0
0
0
0
0
0
0
0
0
0
0
0
0
0
0
0
0
0
0
0
0
0
0
0
0
0
0
0
0
0
0.000458759
2.96937e-10
-9.61172e-11
-8.81916e-14
-6.06571e-17
-3.47608e-20
-2.33491e-21
-2.13298e-24
-1.46457e-27
-8.94296e-31
-5.12001e-34
-2.81399e-37
-1.50349e-40
-7.8681e-44
-4.05253e-47
-2.06111e-50
-1.03755e-53
-5.17843e-57
-2.56581e-60
-1.26334e-63
-6.18618e-67
-3.01433e-70
-1.46231e-73
-7.0653e-77
-3.40097e-80
-1.63142e-83
-7.80032e-87
-3.71811e-90
-1.76716e-93
-8.37638e-97
-3.96071e-100
-1.86882e-103
-8.80332e-107
-4.14395e-110
-1.9492e-113
-9.21229e-117
-4.41558e-120
-2.16148e-123
-1.0898e-126
-5.70223e-130
-3.11393e-133
-1.75467e-136
-1.01241e-139
-5.97192e-143
-3.59125e-146
-2.19899e-149
-1.36899e-152
-8.63659e-156
-5.51825e-159
-3.56175e-162
-2.31782e-165
-1.51903e-168
-1.00004e-171
-6.61172e-175
-4.38096e-178
-2.90912e-181
-1.93436e-184
-1.28789e-187
-8.58685e-191
-5.73528e-194
-3.83734e-197
-2.57285e-200
-1.72803e-203
-1.16172e-206
-7.81534e-210
-5.24894e-213
-3.51835e-216
-2.34642e-219
-1.55545e-222
-1.02241e-225
-6.64851e-229
-4.27435e-232
-2.70827e-235
-1.68996e-238
-1.03714e-241
-6.24818e-245
-3.69269e-248
-2.13907e-251
-1.21313e-254
-6.73044e-258
-3.65127e-261
-1.93526e-264
-1.00164e-267
-5.05996e-271
-2.49308e-274
-1.198e-277
-5.61367e-281
-2.56255e-284
-1.14028e-287
-4.94553e-291
-2.08925e-294
-8.60367e-298
-3.45567e-301
-1.35292e-304
-5.17516e-308
-1.93263e-311
-7.06738e-315
-2.20665e-318
0
0
0
0
0
0
0
0
0
0
0
0
0
0
0
0
0
0
0
0
0
0
0
0
0
0
0
0
0
0
0
0
0
0
0
0
0
0
0
0
0
0
0
0
0
0
0
0
0
0
0
0
0
0
0
0
0
0
0
0
0
0
0
0
0
0
0
0
0
0
0
0
0
0
0
0
0
0
0
0
0
0
0
0
0
0
0
0
0
0
0
0
0
0
0
0
0
0
0
0
0
0
0.000460056
2.99482e-10
-9.69424e-11
-8.92088e-14
-6.15382e-17
-3.53714e-20
-2.3761e-21
-2.17726e-24
-1.49966e-27
-9.18656e-31
-5.27674e-34
-2.90991e-37
-1.56016e-40
-8.19409e-44
-4.23628e-47
-2.16303e-50
-1.09336e-53
-5.48078e-57
-2.72826e-60
-1.35002e-63
-6.64613e-67
-3.25734e-70
-1.59026e-73
-7.73737e-77
-3.75335e-80
-1.81597e-83
-8.7663e-87
-4.22369e-90
-2.03184e-93
-9.76275e-97
-4.68738e-100
-2.25e-103
-1.08042e-106
-5.19511e-110
-2.50184e-113
-1.21295e-116
-5.96786e-120
-2.99701e-123
-1.54768e-126
-8.27276e-130
-4.59949e-133
-2.6316e-136
-1.53839e-139
-9.17086e-143
-5.55837e-146
-3.42064e-149
-2.13424e-152
-1.34583e-155
-8.57288e-159
-5.50334e-162
-3.55419e-165
-2.30704e-168
-1.50173e-171
-9.8016e-175
-6.40329e-178
-4.18751e-181
-2.73965e-184
-1.79343e-187
-1.17502e-190
-7.70902e-194
-5.0655e-197
-3.33535e-200
-2.2003e-203
-1.45352e-206
-9.61356e-210
-6.35362e-213
-4.19479e-216
-2.75917e-219
-1.80645e-222
-1.17463e-225
-7.56946e-229
-4.83105e-232
-3.04468e-235
-1.89339e-238
-1.16025e-241
-6.99342e-245
-4.14332e-248
-2.41061e-251
-1.37578e-254
-7.69566e-258
-4.21706e-261
-2.26186e-264
-1.18682e-267
-6.08889e-271
-3.05235e-274
-1.49498e-277
-7.15279e-281
-3.34e-284
-1.52302e-287
-6.78084e-291
-2.94609e-294
-1.2499e-297
-5.18108e-301
-2.09715e-304
-8.30722e-308
-3.21807e-311
-1.2226e-314
-4.41715e-318
0
0
0
0
0
0
0
0
0
0
0
0
0
0
0
0
0
0
0
0
0
0
0
0
0
0
0
0
0
0
0
0
0
0
0
0
0
0
0
0
0
0
0
0
0
0
0
0
0
0
0
0
0
0
0
0
0
0
0
0
0
0
0
0
0
0
0
0
0
0
0
0
0
0
0
0
0
0
0
0
0
0
0
0
0
0
0
0
0
0
0
0
0
0
0
0
0
0
0
0
0
0
0.00046136
3.02055e-10
-9.77772e-11
-9.02409e-14
-6.2435e-17
-3.59948e-20
-2.41815e-21
-2.22261e-24
-1.5357e-27
-9.43757e-31
-5.43875e-34
-3.00939e-37
-1.61912e-40
-8.53446e-44
-4.42881e-47
-2.27021e-50
-1.15226e-53
-5.80123e-57
-2.90114e-60
-1.44267e-63
-7.1401e-67
-3.51963e-70
-1.72912e-73
-8.47098e-77
-4.14044e-80
-2.02013e-83
-9.84323e-87
-4.79219e-90
-2.33232e-93
-1.13536e-96
-5.53131e-100
-2.69867e-103
-1.31951e-106
-6.47222e-110
-3.18583e-113
-1.58139e-116
-7.96943e-120
-4.09643e-123
-2.16168e-126
-1.17779e-129
-6.65328e-133
-3.85814e-136
-2.28144e-139
-1.37248e-142
-8.37309e-146
-5.17272e-149
-3.23121e-152
-2.03489e-155
-1.29138e-158
-8.24102e-162
-5.28052e-165
-3.39468e-168
-2.18527e-171
-1.4086e-174
-9.07826e-178
-5.8512e-181
-3.76997e-184
-2.42884e-187
-1.56535e-190
-1.0098e-193
-6.5226e-197
-4.22129e-200
-2.73711e-203
-1.77763e-206
-1.15625e-209
-7.5201e-213
-4.88932e-216
-3.17045e-219
-2.0486e-222
-1.3165e-225
-8.39726e-229
-5.31308e-232
-3.32543e-235
-2.05738e-238
-1.25657e-241
-7.56308e-245
-4.48282e-248
-2.6141e-251
-1.49816e-254
-8.4309e-258
-4.65641e-261
-2.5218e-264
-1.33849e-267
-6.95881e-271
-3.5415e-274
-1.76409e-277
-8.59945e-281
-4.09876e-284
-1.91121e-287
-8.71653e-291
-3.88668e-294
-1.69528e-297
-7.23744e-301
-3.02253e-304
-1.23733e-307
-4.96205e-311
-1.95456e-314
-7.36835e-318
0
0
0
0
0
0
0
0
0
0
0
0
0
0
0
0
0
0
0
0
0
0
0
0
0
0
0
0
0
0
0
0
0
0
0
0
0
0
0
0
0
0
0
0
0
0
0
0
0
0
0
0
0
0
0
0
0
0
0
0
0
0
0
0
0
0
0
0
0
0
0
0
0
0
0
0
0
0
0
0
0
0
0
0
0
0
0
0
0
0
0
0
0
0
0
0
0
0
0
0
0
0
0.000462672
3.04658e-10
-9.86215e-11
-9.12876e-14
-6.33471e-17
-3.66307e-20
-2.46104e-21
-2.269e-24
-1.57268e-27
-9.69584e-31
-5.60595e-34
-3.11237e-37
-1.68034e-40
-8.889e-44
-4.63001e-47
-2.38258e-50
-1.21424e-53
-6.13956e-57
-3.08435e-60
-1.54125e-63
-7.66783e-67
-3.80109e-70
-1.87884e-73
-9.26604e-77
-4.56235e-80
-2.24403e-83
-1.10326e-86
-5.42494e-90
-2.66972e-93
-1.31578e-96
-6.49922e-100
-3.21987e-103
-1.60129e-106
-8.00184e-110
-4.02004e-113
-2.03973e-116
-1.05103e-119
-5.51984e-123
-2.97128e-126
-1.64745e-129
-9.44156e-133
-5.54168e-136
-3.31082e-139
-2.00775e-142
-1.23163e-145
-7.63069e-149
-4.76801e-152
-2.99644e-155
-1.89334e-158
-1.20058e-161
-7.63065e-165
-4.8582e-168
-3.09327e-171
-1.96985e-174
-1.25308e-177
-7.96525e-181
-5.05801e-184
-3.20982e-187
-2.03671e-190
-1.29303e-193
-8.2171e-197
-5.23087e-200
-3.33581e-203
-2.13091e-206
-1.36347e-209
-8.7276e-213
-5.58728e-216
-3.57048e-219
-2.27563e-222
-1.44416e-225
-9.10868e-229
-5.70667e-232
-3.54241e-235
-2.17714e-238
-1.32314e-241
-7.93853e-245
-4.69885e-248
-2.74113e-251
-1.57446e-254
-8.89603e-258
-4.94202e-261
-2.69698e-264
-1.44501e-267
-7.59735e-271
-3.91722e-274
-1.98041e-277
-9.81595e-281
-4.76594e-284
-2.26792e-287
-1.05745e-290
-4.82963e-294
-2.16154e-297
-9.48559e-301
-4.07939e-304
-1.72256e-307
-7.1378e-311
-2.90958e-314
-1.17997e-317
0
0
0
0
0
0
0
0
0
0
0
0
0
0
0
0
0
0
0
0
0
0
0
0
0
0
0
0
0
0
0
0
0
0
0
0
0
0
0
0
0
0
0
0
0
0
0
0
0
0
0
0
0
0
0
0
0
0
0
0
0
0
0
0
0
0
0
0
0
0
0
0
0
0
0
0
0
0
0
0
0
0
0
0
0
0
0
0
0
0
0
0
0
0
0
0
0
0
0
0
0
0
0.000463991
3.0729e-10
-9.9475e-11
-9.23488e-14
-6.42743e-17
-3.72788e-20
-2.50476e-21
-2.31641e-24
-1.61058e-27
-9.96123e-31
-5.77823e-34
-3.21878e-37
-1.74379e-40
-9.25743e-44
-4.8397e-47
-2.50005e-50
-1.27922e-53
-6.49543e-57
-3.27768e-60
-1.64562e-63
-8.22859e-67
-4.10131e-70
-2.03918e-73
-1.01213e-76
-5.0184e-80
-2.48737e-83
-1.23329e-86
-6.1215e-90
-3.04404e-93
-1.51774e-96
-7.59399e-100
-3.81647e-103
-1.92828e-106
-9.80482e-110
-5.02096e-113
-2.60056e-116
-1.36828e-119
-7.33244e-123
-4.02131e-126
-2.26649e-129
-1.31652e-132
-7.81465e-136
-4.71321e-139
-2.87885e-142
-1.77428e-145
-1.10153e-148
-6.87938e-152
-4.31123e-155
-2.71068e-158
-1.70723e-161
-1.07605e-164
-6.78445e-168
-4.27315e-171
-2.68919e-174
-1.68925e-177
-1.05959e-180
-6.63585e-184
-4.15103e-187
-2.59521e-190
-1.6227e-193
-1.01529e-196
-6.36152e-200
-3.99217e-203
-2.50943e-206
-1.57997e-209
-9.95448e-213
-6.27441e-216
-3.95035e-219
-2.48229e-222
-1.55466e-225
-9.68792e-229
-6.00397e-232
-3.69198e-235
-2.25109e-238
-1.35936e-241
-8.11738e-245
-4.79016e-248
-2.79065e-251
-1.60359e-254
-9.08049e-258
-5.06446e-261
-2.77966e-264
-1.50052e-267
-7.96286e-271
-4.15156e-274
-2.12618e-277
-1.06949e-280
-5.27963e-284
-2.55912e-287
-1.21762e-290
-5.68568e-294
-2.6063e-297
-1.17355e-300
-5.18804e-304
-2.2557e-307
-9.64115e-311
-4.05996e-314
-1.69769e-317
0
0
0
0
0
0
0
0
0
0
0
0
0
0
0
0
0
0
0
0
0
0
0
0
0
0
0
0
0
0
0
0
0
0
0
0
0
0
0
0
0
0
0
0
0
0
0
0
0
0
0
0
0
0
0
0
0
0
0
0
0
0
0
0
0
0
0
0
0
0
0
0
0
0
0
0
0
0
0
0
0
0
0
0
0
0
0
0
0
0
0
0
0
0
0
0
0
0
0
0
0
0
0.000465318
3.0995e-10
-1.00338e-10
-9.3424e-14
-6.52161e-17
-3.79389e-20
-2.54928e-21
-2.36481e-24
-1.64936e-27
-1.02336e-30
-5.95547e-34
-3.32853e-37
-1.80939e-40
-9.63943e-44
-5.05768e-47
-2.62248e-50
-1.34712e-53
-6.86831e-57
-3.48082e-60
-1.7556e-63
-8.82121e-67
-4.41956e-70
-2.20972e-73
-1.10342e-76
-5.50713e-80
-2.74928e-83
-1.37395e-86
-6.87926e-90
-3.45395e-93
-1.74061e-96
-8.81322e-100
-4.4881e-103
-2.30113e-106
-1.18916e-109
-6.19979e-113
-3.27422e-116
-1.75731e-119
-9.6009e-123
-5.36083e-126
-3.06974e-129
-1.80647e-132
-1.084e-135
-6.59722e-139
-4.05655e-142
-2.51018e-145
-1.56042e-148
-9.7328e-152
-6.07802e-155
-3.80046e-158
-2.37636e-161
-1.48495e-164
-9.27092e-168
-5.77676e-171
-3.59353e-174
-2.22987e-177
-1.38089e-180
-8.53381e-184
-5.26544e-187
-3.24568e-190
-2.00007e-193
-1.23285e-196
-7.60755e-200
-4.7003e-203
-2.90844e-206
-1.80233e-209
-1.11783e-212
-6.93677e-216
-4.30196e-219
-2.66416e-222
-1.64577e-225
-1.01255e-228
-6.20189e-232
-3.77404e-235
-2.28026e-238
-1.36644e-241
-8.10986e-245
-4.76413e-248
-2.76743e-251
-1.58833e-254
-8.99855e-258
-5.0299e-261
-2.77164e-264
-1.50478e-267
-8.04554e-271
-4.23394e-274
-2.19263e-277
-1.11728e-280
-5.59795e-284
-2.75905e-287
-1.33723e-290
-6.37306e-294
-2.98707e-297
-1.37775e-300
-6.25064e-304
-2.79379e-307
-1.22972e-310
-5.3411e-314
-2.2902e-317
0
0
0
0
0
0
0
0
0
0
0
0
0
0
0
0
0
0
0
0
0
0
0
0
0
0
0
0
0
0
0
0
0
0
0
0
0
0
0
0
0
0
0
0
0
0
0
0
0
0
0
0
0
0
0
0
0
0
0
0
0
0
0
0
0
0
0
0
0
0
0
0
0
0
0
0
0
0
0
0
0
0
0
0
0
0
0
0
0
0
0
0
0
0
0
0
0
0
0
0
0
0
0.000466653
3.12639e-10
-1.01209e-10
-9.45129e-14
-6.61724e-17
-3.86107e-20
-2.59458e-21
-2.41418e-24
-1.68902e-27
-1.05127e-30
-6.13756e-34
-3.44155e-37
-1.87711e-40
-1.00346e-43
-5.28369e-47
-2.74971e-50
-1.41785e-53
-7.25756e-57
-3.69335e-60
-1.87093e-63
-9.44409e-67
-4.75488e-70
-2.38986e-73
-1.20011e-76
-6.02623e-80
-3.02838e-83
-1.52439e-86
-7.69319e-90
-3.89649e-93
-1.98272e-96
-1.01476e-99
-5.23001e-103
-2.71771e-106
-1.42557e-109
-7.55827e-113
-4.06625e-116
-2.22469e-119
-1.23868e-122
-7.04085e-126
-4.09641e-129
-2.4426e-132
-1.48186e-135
-9.09993e-139
-5.63104e-142
-3.49645e-145
-2.17468e-148
-1.35356e-151
-8.41672e-155
-5.23043e-158
-3.24543e-161
-2.01003e-164
-1.24249e-167
-7.65949e-171
-4.71062e-174
-2.88839e-177
-1.76663e-180
-1.07787e-183
-6.56329e-187
-3.9911e-190
-2.42521e-193
-1.47355e-196
-8.95933e-200
-5.4522e-203
-3.32214e-206
-2.02672e-209
-1.2375e-212
-7.5604e-216
-4.61769e-219
-2.81745e-222
-1.7159e-225
-1.04164e-228
-6.30083e-232
-3.79098e-235
-2.2674e-238
-1.3468e-241
-7.93463e-245
-4.63395e-248
-2.68017e-251
-1.5341e-254
-8.68217e-258
-4.85606e-261
-2.68209e-264
-1.46209e-267
-7.863e-271
-4.16962e-274
-2.17981e-277
-1.12333e-280
-5.7028e-284
-2.85327e-287
-1.4064e-290
-6.82999e-294
-3.26801e-297
-1.54164e-300
-7.16686e-304
-3.28808e-307
-1.48827e-310
-6.6576e-314
-2.95769e-317
0
0
0
0
0
0
0
0
0
0
0
0
0
0
0
0
0
0
0
0
0
0
0
0
0
0
0
0
0
0
0
0
0
0
0
0
0
0
0
0
0
0
0
0
0
0
0
0
0
0
0
0
0
0
0
0
0
0
0
0
0
0
0
0
0
0
0
0
0
0
0
0
0
0
0
0
0
0
0
0
0
0
0
0
0
0
0
0
0
0
0
0
0
0
0
0
0
0
0
0
0
0
0.000467995
3.15355e-10
-1.0209e-10
-9.56153e-14
-6.71427e-17
-3.92941e-20
-2.64065e-21
-2.46449e-24
-1.72953e-27
-1.07984e-30
-6.32438e-34
-3.55775e-37
-1.94687e-40
-1.04426e-43
-5.51748e-47
-2.88157e-50
-1.49129e-53
-7.66244e-57
-3.9148e-60
-1.9913e-63
-1.00953e-66
-5.10599e-70
-2.57879e-73
-1.30169e-76
-6.57257e-80
-3.3227e-83
-1.68339e-86
-8.55574e-90
-4.367e-93
-2.24119e-96
-1.15799e-99
-6.03193e-103
-3.1722e-106
-1.68667e-109
-9.08308e-113
-4.97359e-116
-2.77278e-119
-1.57354e-122
-9.10993e-126
-5.38925e-129
-3.2587e-132
-2.00005e-135
-1.23966e-138
-7.71851e-142
-4.80611e-145
-2.98818e-148
-1.85423e-151
-1.14709e-154
-7.07957e-158
-4.3569e-161
-2.67359e-164
-1.63604e-167
-9.978e-171
-6.06761e-174
-3.67723e-177
-2.22211e-180
-1.33904e-183
-8.05031e-187
-4.83159e-190
-2.89649e-193
-1.73554e-196
-1.04018e-199
-6.237e-203
-3.7433e-206
-2.2486e-209
-1.35182e-212
-8.13054e-216
-4.88995e-219
-2.93868e-222
-1.76374e-225
-1.05586e-228
-6.30328e-232
-3.74669e-235
-2.21629e-238
-1.30354e-241
-7.61485e-245
-4.41583e-248
-2.53968e-251
-1.4478e-254
-8.17345e-258
-4.56764e-261
-2.52487e-264
-1.37987e-267
-7.45256e-271
-3.97602e-274
-2.09502e-277
-1.09015e-280
-5.59885e-284
-2.83924e-287
-1.4211e-290
-7.02183e-294
-3.42485e-297
-1.65002e-300
-7.84912e-304
-3.69139e-307
-1.71588e-310
-7.89554e-314
-3.62637e-317
0
0
0
0
0
0
0
0
0
0
0
0
0
0
0
0
0
0
0
0
0
0
0
0
0
0
0
0
0
0
0
0
0
0
0
0
0
0
0
0
0
0
0
0
0
0
0
0
0
0
0
0
0
0
0
0
0
0
0
0
0
0
0
0
0
0
0
0
0
0
0
0
0
0
0
0
0
0
0
0
0
0
0
0
0
0
0
0
0
0
0
0
0
0
0
0
0
0
0
0
0
0
0.000469345
3.18098e-10
-1.02978e-10
-9.67306e-14
-6.81266e-17
-3.99886e-20
-2.68746e-21
-2.51573e-24
-1.77087e-27
-1.10906e-30
-6.51579e-34
-3.67704e-37
-2.01862e-40
-1.08629e-43
-5.75877e-47
-3.01787e-50
-1.56731e-53
-8.08215e-57
-4.14464e-60
-2.11636e-63
-1.07725e-66
-5.47147e-70
-2.77559e-73
-1.40756e-76
-7.14233e-80
-3.62979e-83
-1.84939e-86
-9.45689e-90
-4.85908e-93
-2.51194e-96
-1.30839e-99
-6.87728e-103
-3.65422e-106
-1.96617e-109
-1.07388e-112
-5.97908e-116
-3.39607e-119
-1.96569e-122
-1.16063e-125
-6.99271e-129
-4.29463e-132
-2.67009e-135
-1.67154e-138
-1.04705e-141
-6.53261e-145
-4.05546e-148
-2.50594e-151
-1.54075e-154
-9.43668e-158
-5.75674e-161
-3.49882e-164
-2.11906e-167
-1.27854e-170
-7.68807e-174
-4.60601e-177
-2.75068e-180
-1.63766e-183
-9.72442e-187
-5.76266e-190
-3.4096e-193
-2.01551e-196
-1.19115e-199
-7.03944e-203
-4.16247e-206
-2.46241e-209
-1.45761e-212
-8.63045e-216
-5.11046e-219
-3.02424e-222
-1.78806e-225
-1.05508e-228
-6.21252e-232
-3.64557e-235
-2.13103e-238
-1.23998e-241
-7.17499e-245
-4.12686e-248
-2.35738e-251
-1.33675e-254
-7.51804e-258
-4.1921e-261
-2.31595e-264
-1.26708e-267
-6.86271e-271
-3.6782e-274
-1.95051e-277
-1.02332e-280
-5.30903e-284
-2.72479e-287
-1.38289e-290
-6.94251e-294
-3.44701e-297
-1.6938e-300
-8.23425e-304
-3.96474e-307
-1.89041e-310
-8.93761e-314
-4.22215e-317
0
0
0
0
0
0
0
0
0
0
0
0
0
0
0
0
0
0
0
0
0
0
0
0
0
0
0
0
0
0
0
0
0
0
0
0
0
0
0
0
0
0
0
0
0
0
0
0
0
0
0
0
0
0
0
0
0
0
0
0
0
0
0
0
0
0
0
0
0
0
0
0
0
0
0
0
0
0
0
0
0
0
0
0
0
0
0
0
0
0
0
0
0
0
0
0
0
0
0
0
0
0
0.000470702
3.20865e-10
-1.03874e-10
-9.78578e-14
-6.91234e-17
-4.06939e-20
-2.73498e-21
-2.56786e-24
-1.81301e-27
-1.13891e-30
-6.71167e-34
-3.79933e-37
-2.09231e-40
-1.12952e-43
-6.00728e-47
-3.15844e-50
-1.64579e-53
-8.51586e-57
-4.38232e-60
-2.24576e-63
-1.14734e-66
-5.84971e-70
-2.97922e-73
-1.51706e-76
-7.73112e-80
-3.94682e-83
-2.02054e-86
-1.03847e-89
-5.36489e-93
-2.78981e-96
-1.46254e-99
-7.74328e-103
-4.14851e-106
-2.25392e-109
-1.24598e-112
-7.04385e-116
-4.07574e-119
-2.40952e-122
-1.45444e-125
-8.94893e-129
-5.59699e-132
-3.53242e-135
-2.23604e-138
-1.40866e-141
-8.79408e-145
-5.44221e-148
-3.34384e-151
-2.04093e-154
-1.23942e-157
-7.49018e-161
-4.50703e-164
-2.70104e-167
-1.61209e-170
-9.58589e-174
-5.67808e-177
-3.35178e-180
-1.97211e-183
-1.15698e-186
-6.77188e-190
-3.95575e-193
-2.30764e-196
-1.34518e-199
-7.8373e-203
-4.56655e-206
-2.66074e-209
-1.55086e-212
-9.03927e-216
-5.26906e-219
-3.06968e-222
-1.78728e-225
-1.03905e-228
-6.03109e-232
-3.49163e-235
-2.01545e-238
-1.1592e-241
-6.63791e-245
-3.78301e-248
-2.14399e-251
-1.20791e-254
-6.7596e-258
-3.75614e-261
-2.07121e-264
-1.13291e-267
-6.14494e-271
-3.30411e-274
-1.7609e-277
-9.30153e-281
-4.86793e-284
-2.5251e-287
-1.29771e-290
-6.61051e-294
-3.33688e-297
-1.67032e-300
-8.28868e-304
-4.08147e-307
-1.99412e-310
-9.67757e-314
-4.6707e-317
0
0
0
0
0
0
0
0
0
0
0
0
0
0
0
0
0
0
0
0
0
0
0
0
0
0
0
0
0
0
0
0
0
0
0
0
0
0
0
0
0
0
0
0
0
0
0
0
0
0
0
0
0
0
0
0
0
0
0
0
0
0
0
0
0
0
0
0
0
0
0
0
0
0
0
0
0
0
0
0
0
0
0
0
0
0
0
0
0
0
0
0
0
0
0
0
0
0
0
0
0
0
0.000472068
3.23645e-10
-1.04776e-10
-9.89949e-14
-7.01317e-17
-4.14092e-20
-2.78316e-21
-2.62082e-24
-1.85591e-27
-1.16935e-30
-6.91185e-34
-3.92451e-37
-2.16785e-40
-1.17391e-43
-6.26271e-47
-3.30306e-50
-1.72661e-53
-8.96266e-57
-4.62724e-60
-2.37909e-63
-1.21954e-66
-6.23904e-70
-3.18857e-73
-1.62945e-76
-8.33422e-80
-4.27069e-83
-2.19482e-86
-1.13257e-89
-5.8756e-93
-3.06889e-96
-1.61645e-99
-8.60233e-103
-4.63564e-106
-2.53595e-109
-1.41451e-112
-8.09724e-116
-4.77079e-119
-2.88783e-122
-1.78926e-125
-1.12898e-128
-7.21908e-132
-4.64003e-135
-2.97507e-138
-1.88299e-141
-1.17338e-144
-7.22188e-148
-4.40461e-151
-2.66525e-154
-1.60342e-157
-9.59286e-161
-5.71256e-164
-3.38664e-167
-1.99927e-170
-1.17555e-173
-6.88522e-177
-4.01797e-180
-2.33686e-183
-1.35479e-186
-7.83446e-190
-4.51928e-193
-2.60251e-196
-1.49665e-199
-8.59841e-203
-4.93733e-206
-2.8338e-209
-1.62636e-212
-9.33138e-216
-5.35367e-219
-3.07004e-222
-1.75972e-225
-1.00759e-228
-5.76268e-232
-3.2898e-235
-1.87402e-238
-1.06469e-241
-6.02897e-245
-3.40171e-248
-1.91107e-251
-1.06871e-254
-5.94484e-258
-3.28843e-261
-1.80789e-264
-9.87512e-268
-5.35774e-271
-2.8866e-274
-1.54417e-277
-8.20205e-281
-4.32467e-284
-2.26436e-287
-1.17695e-290
-6.07587e-294
-3.11456e-297
-1.58635e-300
-8.02708e-304
-4.03825e-307
-2.01994e-310
-1.00539e-313
-4.97165e-317
0
0
0
0
0
0
0
0
0
0
0
0
0
0
0
0
0
0
0
0
0
0
0
0
0
0
0
0
0
0
0
0
0
0
0
0
0
0
0
0
0
0
0
0
0
0
0
0
0
0
0
0
0
0
0
0
0
0
0
0
0
0
0
0
0
0
0
0
0
0
0
0
0
0
0
0
0
0
0
0
0
0
0
0
0
0
0
0
0
0
0
0
0
0
0
0
0
0
0
0
0
0
0.000473441