/*--------------------------------*- C++ -*----------------------------------*\
| =========                 |                                                 |
| \\      /  F ield         | OpenFOAM: The Open Source CFD Toolbox           |
|  \\    /   O peration     | Version:  2506                                  |
|   \\  /    A nd           | Website:  www.openfoam.com                      |
|    \\/     M anipulation  |                                                 |
\*---------------------------------------------------------------------------*/
FoamFile
{
    version     2.0;
    format      ascii;
    arch        "LSB;label=32;scalar=64";
    class       volScalarField;
    location    "2";
    object      p;
}
// * * * * * * * * * * * * * * * * * * * * * * * * * * * * * * * * * * * * * //

dimensions      [0 2 -2 0 0 0 0];

internalField   nonuniform List<scalar> 
4000
(
0.0045484
0.00447265
0.00442288
0.0043927
0.00436775
0.00434463
0.00432283
0.00430179
0.00428112
0.00426066
0.00424034
0.00422014
0.00420005
0.00418004
0.00416013
0.0041403
0.00412057
0.00410093
0.00408139
0.00406196
0.00404264
0.00402346
0.00400442
0.00398555
0.00396686
0.00394839
0.00393017
0.00391224
0.00389465
0.00387747
0.00386077
0.00384469
0.00382938
0.00381489
0.00380233
0.00379144
0.00378042
0.00376858
0.00375567
0.0037411
0.00372417
0.00370321
0.00367846
0.00365099
0.00362081
0.0035881
0.00355295
0.00351526
0.00347578
0.00343434
0.00339125
0.00334715
0.00330177
0.00325638
0.00321037
0.00316506
0.00312022
0.00307635
0.0030344
0.00299306
0.00295447
0.00291721
0.00288183
0.00284839
0.00281616
0.00278586
0.00275649
0.00272862
0.00270161
0.00267567
0.00265066
0.00262637
0.00260303
0.0025804
0.00255854
0.0025375
0.00251723
0.00249774
0.00247906
0.00246116
0.00244402
0.00242763
0.00241194
0.00239694
0.00238258
0.00236883
0.00235564
0.00234303
0.00233092
0.00231931
0.0023082
0.00229754
0.00228732
0.00227754
0.00226815
0.00225916
0.0022505
0.00224219
0.00223415
0.00222639
0.00221881
0.00221141
0.0022041
0.00219686
0.00218963
0.00218233
0.00217494
0.00216737
0.00215958
0.0021515
0.00214309
0.00213426
0.00212497
0.00211512
0.00210467
0.00209348
0.0020815
0.00206863
0.00205475
0.00203978
0.00202361
0.00200613
0.0019873
0.00196708
0.00194538
0.00192219
0.00189749
0.00187127
0.00184356
0.00181437
0.00178363
0.00175153
0.00171803
0.00168298
0.00164671
0.00160914
0.00157
0.00153006
0.00148874
0.00144661
0.00140366
0.00136018
0.00131646
0.001273
0.00122969
0.00118788
0.00114637
0.00110736
0.00106978
0.00103413
0.00100085
0.000968905
0.000939511
0.000911311
0.00088526
0.000860255
0.000837103
0.000815159
0.000794862
0.000776336
0.000761688
0.000746596
0.000731944
0.000717695
0.000703866
0.000689758
0.000675198
0.000658994
0.000641691
0.00062377
0.000605221
0.000586051
0.000566298
0.00054602
0.000525291
0.000504199
0.000482839
0.000461304
0.00043968
0.000418037
0.000396439
0.000374919
0.000353532
0.000332306
0.000311259
0.0002904
0.000269725
0.000249225
0.000228886
0.000208678
0.000188587
0.000168589
0.000148657
0.00012877
0.000108907
8.90554e-05
6.92049e-05
4.93505e-05
2.94915e-05
9.70725e-06
0.00449921
0.00445619
0.00441904
0.00439237
0.00436888
0.00434611
0.00432421
0.00430306
0.00428232
0.00426182
0.00424148
0.00422128
0.00420119
0.00418121
0.00416133
0.00414154
0.00412184
0.00410225
0.00408275
0.00406337
0.0040441
0.00402496
0.00400597
0.00398714
0.00396849
0.00395005
0.00393186
0.00391395
0.00389637
0.00387918
0.00386245
0.00384628
0.00383078
0.00381599
0.00380252
0.0037901
0.0037773
0.00376363
0.00374884
0.00373233
0.00371344
0.00369087
0.00366503
0.00363681
0.00360612
0.00357314
0.00353799
0.00350062
0.00346176
0.00342125
0.00337943
0.00333685
0.00329338
0.00324994
0.0032062
0.00316311
0.00312065
0.00307893
0.00303879
0.00299939
0.00296221
0.00292631
0.00289201
0.00285942
0.00282801
0.00279826
0.00276945
0.00274197
0.00271534
0.0026897
0.00266487
0.00264073
0.00261741
0.00259478
0.00257285
0.00255167
0.00253119
0.00251145
0.00249245
0.0024742
0.00245668
0.00243988
0.00242378
0.00240835
0.00239356
0.00237937
0.00236575
0.00235267
0.0023401
0.002328
0.00231638
0.00230518
0.00229441
0.00228404
0.00227404
0.00226441
0.0022551
0.0022461
0.00223737
0.00222888
0.00222058
0.00221244
0.0022044
0.00219641
0.00218844
0.00218041
0.00217228
0.00216398
0.00215546
0.00214666
0.00213752
0.00212795
0.0021179
0.00210727
0.002096
0.00208395
0.00207107
0.00205725
0.00204236
0.00202636
0.00200914
0.00199064
0.0019708
0.0019496
0.00192696
0.0019029
0.00187741
0.0018505
0.00182219
0.0017925
0.00176142
0.00172908
0.00169546
0.00166049
0.00162442
0.0015872
0.00154871
0.00150951
0.00146924
0.00142836
0.00138694
0.00134523
0.00130353
0.00126219
0.00122122
0.00118165
0.00114271
0.00110573
0.00107006
0.00103598
0.00100393
0.000973197
0.000944644
0.000917262
0.000891756
0.000867222
0.00084432
0.000822552
0.000802185
0.00078312
0.000767077
0.000750794
0.00073494
0.000719501
0.000704377
0.000689157
0.000673582
0.000656877
0.000639385
0.000621383
0.000602822
0.000583681
0.000563989
0.000543795
0.000523168
0.000502188
0.000480945
0.000459524
0.000438006
0.000416463
0.000394954
0.00037354
0.000352255
0.000331119
0.000310153
0.000289368
0.000268764
0.000248335
0.000228071
0.000207949
0.000187942
0.000168026
0.000148177
0.000128372
0.000108593
8.88246e-05
6.90557e-05
4.92783e-05
2.94841e-05
9.70794e-06
0.00447553
0.00444679
0.00441668
0.00439222
0.00436938
0.00434704
0.00432531
0.00430415
0.00428338
0.00426285
0.00424249
0.00422228
0.00420219
0.00418221
0.00416234
0.00414256
0.00412288
0.0041033
0.00408383
0.00406446
0.00404522
0.0040261
0.00400713
0.00398831
0.00396968
0.00395124
0.00393305
0.00391512
0.0038975
0.00388024
0.00386341
0.00384706
0.00383129
0.00381607
0.00380172
0.00378798
0.00377377
0.00375866
0.00374232
0.00372417
0.00370368
0.00368
0.00365357
0.00362498
0.00359416
0.00356127
0.00352645
0.00348976
0.00345177
0.00341242
0.00337198
0.00333096
0.00328933
0.00324772
0.00320603
0.00316483
0.00312418
0.00308424
0.0030456
0.0030077
0.00297152
0.00293651
0.00290287
0.00287071
0.00283971
0.00281015
0.00278153
0.00275414
0.00272759
0.00270197
0.00267717
0.00265304
0.00262967
0.00260696
0.00258491
0.00256355
0.00254286
0.00252286
0.00250356
0.00248497
0.00246708
0.0024499
0.00243341
0.00241758
0.00240238
0.00238779
0.00237377
0.00236028
0.0023473
0.0023348
0.00232274
0.00231111
0.00229989
0.00228904
0.00227856
0.00226842
0.00225859
0.00224906
0.00223978
0.00223073
0.00222186
0.00221315
0.00220453
0.00219597
0.00218742
0.00217881
0.0021701
0.00216122
0.00215212
0.00214273
0.00213297
0.00212278
0.00211208
0.00210076
0.00208877
0.00207596
0.00206229
0.00204764
0.0020319
0.00201503
0.00199695
0.00197759
0.00195692
0.00193492
0.00191154
0.0018868
0.00186072
0.00183332
0.00180461
0.00177464
0.00174342
0.00171103
0.00167751
0.0016428
0.00160712
0.00157046
0.00153278
0.00149449
0.0014554
0.00141586
0.00137599
0.00133599
0.00129614
0.00125669
0.00121775
0.00117982
0.00114259
0.00110698
0.0010726
0.00103962
0.00100839
0.00097839
0.000950272
0.000923294
0.000897974
0.000873665
0.000850796
0.000828996
0.000808478
0.000788879
0.000771522
0.000754135
0.000737225
0.000720755
0.000704619
0.000688442
0.000672086
0.000654977
0.000637324
0.000619265
0.000600702
0.000581594
0.000561959
0.00054184
0.000521299
0.000500416
0.000479273
0.000457956
0.000436542
0.0004151
0.000393687
0.000372355
0.000351135
0.000330065
0.000309165
0.000288445
0.000267906
0.000247543
0.000227339
0.000207282
0.000187345
0.000167503
0.000147731
0.000128006
0.000108306
8.86149e-05
6.89193e-05
4.92079e-05
2.94652e-05
9.68648e-06
0.004464
0.00444017
0.0044138
0.00439117
0.00436933
0.00434736
0.00432593
0.00430493
0.00428421
0.0042637
0.00424336
0.00422315
0.00420307
0.0041831
0.00416323
0.00414346
0.0041238
0.00410423
0.00408476
0.00406541
0.00404617
0.00402705
0.00400807
0.00398924
0.00397058
0.00395211
0.00393386
0.00391585
0.00389813
0.00388073
0.00386369
0.00384706
0.00383089
0.00381511
0.00379995
0.00378515
0.00376975
0.00375336
0.0037357
0.00371624
0.00369461
0.00367018
0.00364334
0.00361454
0.00358376
0.00355112
0.00351681
0.00348095
0.00344393
0.00340583
0.0033669
0.0033275
0.00328766
0.00324785
0.00320804
0.00316861
0.00312965
0.00309128
0.00305392
0.00301721
0.00298182
0.00294745
0.00291426
0.00288236
0.00285153
0.002822
0.00279341
0.00276599
0.00273942
0.00271373
0.00268887
0.00266468
0.00264123
0.00261842
0.00259624
0.00257472
0.00255383
0.0025336
0.00251404
0.00249515
0.00247695
0.00245944
0.0024426
0.00242641
0.00241087
0.00239592
0.00238154
0.0023677
0.00235435
0.00234146
0.00232901
0.00231697
0.00230531
0.00229402
0.00228306
0.00227242
0.00226207
0.002252
0.00224216
0.00223256
0.00222311
0.00221382
0.00220462
0.00219547
0.00218634
0.00217715
0.00216786
0.0021584
0.00214872
0.00213873
0.00212837
0.00211754
0.00210618
0.00209416
0.00208144
0.00206787
0.00205339
0.00203791
0.00202134
0.00200363
0.00198473
0.00196456
0.00194314
0.00192044
0.00189645
0.0018712
0.0018447
0.00181698
0.00178809
0.00175805
0.00172688
0.00169469
0.00166149
0.00162728
0.00159222
0.00155635
0.00151966
0.00148246
0.00144468
0.00140657
0.00136827
0.00132993
0.00129178
0.00125401
0.0012167
0.00118023
0.00114444
0.0011099
0.00107645
0.00104418
0.00101342
0.000983793
0.000955807
0.000928942
0.000903577
0.00087933
0.000856304
0.000834286
0.000813519
0.000793446
0.00077523
0.000756902
0.000739042
0.000721646
0.000704648
0.000687699
0.000670775
0.000653316
0.000635492
0.000617372
0.000598796
0.000579699
0.000560091
0.000540012
0.000519518
0.000498688
0.000477604
0.00045635
0.000435001
0.000413625
0.000392278
0.00037101
0.00034986
0.00032886
0.00030803
0.000287381
0.000266916
0.000246629
0.000226509
0.000206536
0.000186685
0.00016693
0.000147246
0.000127607
0.000107991
8.83789e-05
6.8755e-05
4.91064e-05
2.9415e-05
9.65542e-06
0.00445682
0.00443469
0.00441072
0.00438955
0.00436873
0.00434747
0.00432636
0.00430552
0.00428492
0.00426448
0.00424417
0.00422399
0.00420391
0.00418395
0.00416408
0.00414432
0.00412465
0.00410508
0.00408561
0.00406625
0.00404699
0.00402786
0.00400885
0.00398997
0.00397126
0.00395271
0.00393437
0.00391623
0.00389835
0.00388073
0.00386341
0.00384642
0.00382979
0.0038134
0.00379746
0.0037817
0.00376522
0.00374767
0.00372884
0.00370828
0.00368575
0.00366073
0.00363358
0.00360469
0.00357404
0.0035418
0.00350814
0.00347319
0.00343724
0.00340045
0.00336309
0.00332532
0.00328724
0.00324918
0.00321116
0.00317342
0.00313606
0.00309916
0.003063
0.00302738
0.00299274
0.00295897
0.00292617
0.00289448
0.00286375
0.0028342
0.00280555
0.002778
0.0027513
0.00272548
0.00270048
0.00267616
0.00265258
0.00262962
0.00260729
0.00258559
0.0025645
0.00254404
0.00252422
0.00250505
0.00248655
0.00246871
0.00245155
0.00243503
0.00241915
0.00240387
0.00238915
0.00237497
0.00236128
0.00234804
0.00233523
0.00232279
0.00231072
0.00229899
0.00228755
0.00227643
0.00226556
0.00225495
0.00224455
0.00223437
0.00222434
0.00221445
0.00220466
0.00219491
0.00218518
0.00217538
0.0021655
0.00215543
0.00214513
0.00213451
0.0021235
0.002112
0.00209993
0.00208717
0.00207367
0.00205929
0.00204399
0.00202767
0.00201025
0.00199172
0.00197202
0.00195111
0.00192901
0.00190572
0.00188123
0.00185559
0.00182883
0.00180096
0.00177204
0.00174211
0.00171118
0.00167935
0.00164666
0.00161309
0.00157882
0.00154388
0.00150829
0.00147229
0.00143587
0.0013992
0.00136244
0.00132568
0.00128911
0.00125286
0.00121701
0.00118184
0.00114724
0.00111359
0.00108087
0.00104912
0.00101865
0.000989212
0.000961217
0.000934292
0.000908769
0.000884363
0.000861075
0.00083876
0.00081766
0.000797098
0.000778258
0.000759123
0.000740415
0.000722198
0.000704465
0.000686865
0.000669475
0.000651678
0.000633663
0.00061546
0.000596843
0.000577722
0.000558108
0.000538037
0.000517566
0.00049677
0.000475732
0.000454533
0.000433248
0.000411942
0.00039067
0.000369482
0.000348415
0.0003275
0.000306756
0.000286195
0.000265819
0.000245625
0.000225599
0.000205719
0.000185963
0.000166301
0.000146709
0.00012716
0.00010763
8.81004e-05
6.85538e-05
4.89713e-05
2.9341e-05
9.6247e-06
0.00445198
0.00443053
0.00440802
0.00438802
0.00436804
0.00434738
0.00432662
0.00430602
0.00428558
0.00426522
0.00424496
0.0042248
0.00420474
0.00418478
0.00416491
0.00414514
0.00412546
0.00410587
0.00408638
0.00406699
0.0040477
0.00402852
0.00400945
0.00399051
0.00397171
0.00395305
0.00393456
0.00391626
0.00389815
0.00388027
0.00386262
0.00384522
0.00382808
0.00381106
0.00379436
0.0037777
0.00376023
0.00374165
0.00372179
0.0037003
0.00367703
0.00365155
0.00362421
0.00359534
0.00356495
0.00353322
0.0035003
0.00346631
0.00343153
0.0033961
0.00336022
0.00332404
0.00328764
0.00325126
0.00321492
0.00317878
0.00314293
0.00310739
0.00307239
0.00303782
0.00300394
0.00297075
0.00293836
0.00290688
0.00287624
0.00284664
0.0028179
0.00279016
0.00276327
0.00273724
0.00271202
0.00268749
0.00266371
0.00264056
0.00261802
0.00259612
0.00257481
0.00255411
0.00253404
0.00251459
0.00249579
0.00247765
0.00246017
0.00244333
0.00242713
0.00241153
0.0023965
0.00238201
0.00236799
0.00235442
0.00234127
0.00232847
0.002316
0.00230386
0.00229197
0.00228038
0.002269
0.00225786
0.0022469
0.00223615
0.00222551
0.00221503
0.00220461
0.00219425
0.00218389
0.00217347
0.00216295
0.00215224
0.00214128
0.00212998
0.00211826
0.00210603
0.0020932
0.00207965
0.00206534
0.00205012
0.00203397
0.00201681
0.00199858
0.00197926
0.00195883
0.00193727
0.00191461
0.00189085
0.00186602
0.00184014
0.00181326
0.00178541
0.00175662
0.00172695
0.00169641
0.00166509
0.00163304
0.00160024
0.00156685
0.00153292
0.00149847
0.0014637
0.00142862
0.00139337
0.00135806
0.00132277
0.00128764
0.00125277
0.00121823
0.00118418
0.00115059
0.00111772
0.00108558
0.00105425
0.00102397
0.000994597
0.000966489
0.000939372
0.000913568
0.000888802
0.000865182
0.00084249
0.000821014
0.000799948
0.000780585
0.000760763
0.000741328
0.00072242
0.000704082
0.000685933
0.000668123
0.000649986
0.000631743
0.000613404
0.000594687
0.000575487
0.000555821
0.000535726
0.000515258
0.000494492
0.000473508
0.000452384
0.000431189
0.000409985
0.000388825
0.000367751
0.000346801
0.000326001
0.000305371
0.000284922
0.000264656
0.000244567
0.000224641
0.000204858
0.000185195
0.000165625
0.000146121
0.000126657
0.000107212
8.77641e-05
6.82965e-05
4.87913e-05
2.92379e-05
9.58933e-06
0.00444866
0.00442756
0.00440592
0.00438672
0.00436737
0.0043472
0.00432679
0.00430644
0.00428616
0.0042659
0.0042457
0.00422558
0.00420554
0.00418558
0.0041657
0.00414592
0.00412622
0.0041066
0.00408708
0.00406765
0.0040483
0.00402906
0.00400991
0.00399087
0.00397194
0.00395314
0.00393447
0.00391595
0.00389759
0.00387939
0.00386137
0.00384351
0.00382583
0.00380819
0.00379074
0.00377323
0.00375485
0.00373535
0.00371461
0.00369234
0.00366848
0.00364269
0.00361528
0.00358653
0.0035565
0.00352534
0.00349322
0.00346024
0.00342664
0.00339254
0.0033581
0.00332344
0.00328863
0.00325383
0.00321906
0.00318442
0.00314995
0.00311571
0.00308184
0.00304828
0.00301517
0.00298259
0.00295065
0.00291943
0.00288892
0.0028593
0.00283045
0.00280252
0.00277539
0.00274909
0.0027236
0.0026988
0.00267475
0.00265134
0.00262855
0.0026064
0.00258484
0.00256387
0.00254353
0.0025238
0.00250471
0.00248626
0.00246846
0.00245131
0.00243479
0.00241888
0.00240353
0.00238874
0.00237441
0.00236053
0.00234705
0.00233391
0.00232107
0.00230853
0.00229621
0.00228416
0.00227228
0.00226062
0.0022491
0.00223777
0.00222653
0.00221543
0.00220438
0.00219337
0.00218236
0.00217127
0.00216007
0.00214867
0.002137
0.00212497
0.00211249
0.00209947
0.00208583
0.00207144
0.00205629
0.00204023
0.00202324
0.00200527
0.00198627
0.00196625
0.00194521
0.00192312
0.00190003
0.00187596
0.00185093
0.00182498
0.00179814
0.00177045
0.00174195
0.00171267
0.00168263
0.00165196
0.00162063
0.00158868
0.00155623
0.00152334
0.00149005
0.00145649
0.0014227
0.00138878
0.00135481
0.00132088
0.00128705
0.00125341
0.00122004
0.001187
0.00115428
0.00112209
0.00109046
0.00105946
0.00102932
0.000999957
0.000971666
0.000944265
0.000918078
0.000892858
0.000868789
0.000845617
0.000823707
0.000802131
0.000782275
0.000761877
0.000741839
0.000722366
0.000703532
0.000684906
0.000666679
0.000648177
0.000629647
0.000611086
0.000592185
0.000572837
0.000553066
0.000532917
0.000512444
0.000491718
0.000470815
0.000449806
0.000428752
0.000407704
0.000386709
0.000365803
0.000345019
0.000324379
0.0003039
0.00028359
0.000263452
0.000243478
0.000223657
0.000203969
0.000184393
0.000164904
0.000145478
0.000126092
0.000106724
8.73571e-05
6.79738e-05
4.85568e-05
2.90996e-05
9.54244e-06
0.00444643
0.00442552
0.0044044
0.00438573
0.00436683
0.00434703
0.00432692
0.0043068
0.00428666
0.00426651
0.00424638
0.0042263
0.00420628
0.00418632
0.00416644
0.00414664
0.00412692
0.00410727
0.00408771
0.00406822
0.00404881
0.00402948
0.00401024
0.00399108
0.00397201
0.00395303
0.00393416
0.00391539
0.00389673
0.00387819
0.00385975
0.00384142
0.00382317
0.00380491
0.00378674
0.0037684
0.00374919
0.0037289
0.0037074
0.0036845
0.00366018
0.0036342
0.00360681
0.00357827
0.00354866
0.00351814
0.00348684
0.00345488
0.00342244
0.00338963
0.00335656
0.00332333
0.00329001
0.00325666
0.00322334
0.00319008
0.00315693
0.00312389
0.00309112
0.00305858
0.00302626
0.00299431
0.00296288
0.002932
0.00290169
0.00287212
0.00284322
0.00281512
0.00278777
0.0027612
0.00273539
0.00271027
0.0026859
0.00266217
0.00263907
0.00261661
0.00259474
0.00257348
0.00255284
0.00253281
0.00251339
0.00249462
0.00247649
0.00245901
0.00244216
0.00242591
0.00241024
0.00239513
0.00238048
0.00236627
0.00235246
0.00233898
0.00232577
0.00231285
0.00230011
0.0022876
0.00227523
0.00226305
0.00225097
0.00223906
0.0022272
0.00221547
0.00220376
0.00219207
0.00218038
0.00216858
0.00215666
0.00214451
0.00213207
0.00211926
0.00210597
0.00209212
0.00207763
0.0020624
0.0020464
0.00202951
0.00201173
0.00199303
0.00197337
0.00195277
0.00193124
0.00190877
0.00188541
0.00186118
0.00183611
0.00181024
0.0017836
0.00175621
0.00172811
0.00169934
0.00166992
0.00163992
0.00160936
0.0015783
0.00154682
0.00151497
0.00148279
0.00145039
0.00141782
0.00138513
0.00135241
0.00131969
0.00128704
0.0012545
0.00122218
0.00119006
0.00115811
0.00112655
0.00109539
0.00106468
0.00103467
0.00100531
0.000976797
0.000949069
0.000922438
0.000896702
0.000872083
0.000848351
0.000825933
0.000803841
0.000783463
0.000762575
0.000742038
0.00072209
0.000702817
0.000683743
0.000665061
0.000646156
0.000627271
0.00060839
0.000589213
0.000569648
0.00054973
0.000529509
0.000509039
0.000488381
0.000467605
0.000446769
0.000425919
0.000405094
0.000384329
0.000363653
0.000343089
0.000322655
0.000302363
0.00028222
0.000262226
0.000242376
0.00022266
0.000203061
0.000183561
0.00016414
0.000144779
0.00012546
0.000106164
8.68764e-05
6.75829e-05
4.82667e-05
2.89262e-05
9.48108e-06
0.00444502
0.00442424
0.00440342
0.00438509
0.00436649
0.00434696
0.00432706
0.00430711
0.0042871
0.00426704
0.00424697
0.00422693
0.00420694
0.00418699
0.00416711
0.0041473
0.00412755
0.00410788
0.00408826
0.00406872
0.00404924
0.00402982
0.00401047
0.00399118
0.00397195
0.00395278
0.00393368
0.00391464
0.00389567
0.00387676
0.0038579
0.00383907
0.00382025
0.00380137
0.00378249
0.00376336
0.0037434
0.0037224
0.00370026
0.00367686
0.0036522
0.00362611
0.00359883
0.00357056
0.00354142
0.00351156
0.0034811
0.00345014
0.00341881
0.00338723
0.00335545
0.00332356
0.00329159
0.00325959
0.0032276
0.00319562
0.00316369
0.00313182
0.00310006
0.00306848
0.00303701
0.00300576
0.00297487
0.00294441
0.0029144
0.00288499
0.00285613
0.00282793
0.00280042
0.0027736
0.00274749
0.00272205
0.00269732
0.00267324
0.00264978
0.00262695
0.00260474
0.00258313
0.00256213
0.00254176
0.00252198
0.00250285
0.00248435
0.00246649
0.00244927
0.00243265
0.00241661
0.00240112
0.00238611
0.00237154
0.00235737
0.00234351
0.00232992
0.00231659
0.00230342
0.00229046
0.00227759
0.00226489
0.00225225
0.00223975
0.00222727
0.00221488
0.0022025
0.00219012
0.0021777
0.00216515
0.00215247
0.00213954
0.00212629
0.00211265
0.00209852
0.00208382
0.00206848
0.00205242
0.00203561
0.00201796
0.00199948
0.00198015
0.00195996
0.00193893
0.00191708
0.00189439
0.00187092
0.00184669
0.00182174
0.00179608
0.00176975
0.00174276
0.00171516
0.00168697
0.00165822
0.00162892
0.00159917
0.001569
0.00153846
0.00150761
0.00147649
0.00144518
0.00141372
0.00138216
0.00135056
0.00131895
0.00128736
0.00125584
0.00122442
0.0011931
0.00116193
0.00113098
0.00110023
0.00106981
0.00103995
0.00101062
0.000981895
0.000953836
0.000926742
0.000900461
0.000875218
0.000850874
0.000827872
0.000805259
0.00078429
0.000762956
0.000741982
0.000721602
0.000701892
0.000682361
0.000663161
0.000643809
0.000624515
0.000605241
0.000585721
0.000565892
0.000545802
0.000525507
0.000505053
0.000484502
0.000463913
0.000443319
0.000422742
0.000402205
0.000381731
0.000361339
0.000341044
0.000320855
0.00030078
0.000280824
0.000260987
0.000241264
0.000221649
0.000202131
0.000182696
0.000163332
0.000144026
0.000124764
0.000105535
8.63295e-05
6.71332e-05
4.79301e-05
2.87241e-05
9.4085e-06
0.00444431
0.00442363
0.00440298
0.00438482
0.00436639
0.00434702
0.00432726
0.00430741
0.00428749
0.0042675
0.00424748
0.00422748
0.0042075
0.00418757
0.0041677
0.00414788
0.00412811
0.00410841
0.00408875
0.00406915
0.0040496
0.0040301
0.00401065
0.00399121
0.00397182
0.00395246
0.00393312
0.0039138
0.0038945
0.00387521
0.00385593
0.0038366
0.00381722
0.00379773
0.00377816
0.00375827
0.00373762
0.003716
0.00369332
0.0036695
0.00364458
0.00361847
0.00359134
0.00356337
0.00353474
0.00350555
0.00347592
0.00344592
0.00341566
0.00338522
0.00335465
0.00332398
0.00329326
0.00326248
0.0032317
0.00320089
0.00317008
0.00313929
0.00310851
0.00307784
0.00304721
0.00301673
0.00298648
0.00295647
0.00292684
0.00289771
0.00286898
0.00284078
0.00281322
0.00278624
0.00275988
0.00273414
0.00270908
0.00268463
0.0026608
0.00263758
0.00261496
0.00259295
0.00257156
0.0025508
0.00253062
0.00251105
0.00249212
0.00247383
0.00245616
0.0024391
0.00242261
0.00240668
0.00239123
0.00237623
0.00236162
0.00234733
0.00233331
0.00231954
0.0023059
0.00229246
0.00227909
0.00226585
0.00225264
0.00223955
0.00222644
0.0022134
0.00220032
0.00218723
0.00217407
0.00216076
0.00214729
0.00213354
0.00211946
0.00210499
0.00209001
0.00207449
0.00205834
0.00204152
0.002024
0.00200569
0.00198663
0.00196681
0.00194625
0.00192496
0.00190295
0.0018802
0.00185677
0.00183269
0.00180798
0.00178264
0.0017567
0.00173018
0.00170312
0.00167553
0.00164745
0.00161889
0.00158994
0.00156062
0.00153097
0.00150105
0.00147091
0.0014406
0.00141016
0.00137963
0.00134904
0.00131842
0.00128778
0.00125717
0.00122657
0.00119601
0.00116553
0.00113515
0.0011049
0.00107478
0.00104505
0.00101577
0.000986879
0.000958537
0.000931013
0.000904181
0.000878284
0.000853302
0.000829632
0.000806485
0.000784849
0.000763072
0.000741679
0.00072086
0.000700665
0.000680675
0.000660934
0.000641095
0.000621334
0.000601612
0.00058174
0.000561669
0.000541431
0.000521071
0.000500627
0.000480191
0.000459837
0.000439554
0.000419315
0.000399121
0.000378987
0.000358919
0.000338925
0.000319004
0.000299163
0.000279406
0.000259731
0.000240136
0.000220617
0.000201171
0.000181793
0.000162476
0.000143215
0.000124005
0.000104845
8.57276e-05
6.66395e-05
4.7562e-05
2.85031e-05
9.3336e-06
0.00444425
0.00442364
0.00440305
0.00438494
0.00436656
0.00434724
0.00432753
0.00430773
0.00428785
0.00426789
0.00424791
0.00422793
0.00420798
0.00418806
0.00416819
0.00414837
0.0041286
0.00410887
0.00408918
0.00406954
0.00404992
0.00403033
0.00401077
0.00399121
0.00397166
0.00395211
0.00393254
0.00391295
0.00389331
0.00387365
0.00385397
0.00383417
0.00381422
0.00379413
0.00377389
0.00375329
0.00373198
0.00370981
0.00368665
0.00366249
0.00363737
0.00361127
0.00358432
0.0035567
0.00352858
0.00350006
0.00347122
0.00344215
0.00341289
0.00338352
0.00335404
0.00332448
0.00329488
0.00326521
0.00323552
0.00320577
0.00317599
0.00314619
0.00311635
0.00308656
0.00305674
0.00302701
0.00299742
0.00296801
0.00293887
0.00291006
0.00288152
0.00285346
0.00282597
0.00279892
0.00277238
0.00274643
0.0027211
0.00269632
0.00267213
0.00264851
0.00262547
0.00260302
0.0025812
0.00256
0.0025394
0.00251933
0.00249988
0.00248107
0.00246288
0.00244528
0.00242825
0.00241178
0.00239579
0.00238025
0.00236512
0.00235032
0.00233578
0.0023215
0.00230735
0.00229338
0.00227947
0.00226569
0.0022519
0.0022382
0.00222447
0.00221076
0.00219701
0.0021832
0.0021693
0.00215523
0.00214097
0.00212642
0.00211153
0.00209624
0.00208046
0.00206416
0.00204728
0.00202981
0.0020117
0.0019929
0.00197344
0.00195333
0.00193258
0.00191118
0.00188916
0.00186648
0.0018432
0.00181937
0.00179496
0.00177
0.0017445
0.00171849
0.00169197
0.00166498
0.00163755
0.0016097
0.0015815
0.00155297
0.00152415
0.00149509
0.00146584
0.00143644
0.00140691
0.0013773
0.00134761
0.00131789
0.00128811
0.00125831
0.00122848
0.00119863
0.00116878
0.00113894
0.00110914
0.00107944
0.00104992
0.00102069
0.000991675
0.000963116
0.000935184
0.000907814
0.000881291
0.00085567
0.000831249
0.000807533
0.000785169
0.000762921
0.000741099
0.000719815
0.000699111
0.000678618
0.000658392
0.000638149
0.000617836
0.000597518
0.000577317
0.000557064
0.00053669
0.000516312
0.000495989
0.000475768
0.000455676
0.000435696
0.000415792
0.000395947
0.000376167
0.000356443
0.000336769
0.000317124
0.000297521
0.00027796
0.000258441
0.000238968
0.000219541
0.000200164
0.00018084
0.00016157
0.000142356
0.000123199
0.00010411
8.50873e-05
6.61118e-05
4.71714e-05
2.82679e-05
9.26198e-06
0.00444485
0.00442427
0.00440364
0.00438545
0.00436701
0.00434763
0.00432788
0.00430806
0.00428817
0.00426823
0.00424825
0.00422829
0.00420836
0.00418846
0.00416861
0.00414879
0.00412902
0.00410928
0.00408957
0.00406988
0.00405021
0.00403055
0.0040109
0.00399122
0.00397153
0.0039518
0.00393202
0.00391216
0.00389223
0.00387222
0.0038521
0.00383182
0.00381135
0.00379071
0.00376983
0.00374854
0.00372663
0.00370393
0.00368035
0.00365588
0.00363061
0.00360453
0.00357776
0.00355049
0.00352289
0.00349503
0.00346695
0.00343875
0.00341041
0.003382
0.00335351
0.00332496
0.00329635
0.00326767
0.00323895
0.00321017
0.00318132
0.00315243
0.00312346
0.00309452
0.00306548
0.00303651
0.0030076
0.0029788
0.00295016
0.00292174
0.00289359
0.0028658
0.0028384
0.00281138
0.00278473
0.00275867
0.00273318
0.00270815
0.00268364
0.00265966
0.00263619
0.00261329
0.00259104
0.0025694
0.00254827
0.0025277
0.00250771
0.00248829
0.00246947
0.00245124
0.00243358
0.00241646
0.00239981
0.00238364
0.00236787
0.00235245
0.0023373
0.00232242
0.00230769
0.00229314
0.00227866
0.00226428
0.00224992
0.00223561
0.00222125
0.0022069
0.00219247
0.00217796
0.00216333
0.00214852
0.00213351
0.00211822
0.00210259
0.00208658
0.00207013
0.00205322
0.00203576
0.00201769
0.00199904
0.00197986
0.00196021
0.00194
0.00191917
0.00189777
0.00187586
0.00185342
0.00183044
0.00180691
0.00178282
0.00175823
0.00173316
0.00170764
0.00168165
0.00165523
0.0016284
0.00160121
0.00157368
0.00154588
0.0015178
0.00148953
0.00146108
0.00143249
0.00140378
0.00137499
0.00134611
0.00131718
0.00128817
0.00125912
0.00123
0.00120081
0.00117157
0.00114227
0.00111294
0.00108363
0.00105433
0.00102521
0.000996202
0.000967508
0.000939203
0.000911356
0.000884154
0.000857834
0.000832634
0.00080833
0.000785198
0.000762457
0.000740213
0.000718491
0.000697172
0.000676063
0.000655347
0.000634729
0.000614058
0.000593426
0.000572882
0.000552371
0.000531913
0.000511572
0.000491383
0.000471374
0.000451544
0.000431867
0.000412301
0.000392813
0.000373381
0.000353978
0.000334615
0.000315224
0.000295842
0.000276467
0.000257095
0.000237736
0.000218398
0.000199091
0.000179824
0.000160608
0.000141451
0.000122364
0.000103355
8.44248e-05
6.55691e-05
4.67776e-05
2.80581e-05
9.22547e-06
0.00444614
0.00442558
0.00440477
0.00438636
0.00436771
0.00434817
0.0043283
0.0043084
0.00428847
0.0042685
0.00424852
0.00422857
0.00420866
0.00418879
0.00416895
0.00414915
0.00412939
0.00410965
0.00408993
0.00407022
0.00405051
0.0040308
0.00401106
0.00399129
0.00397146
0.00395157
0.0039316
0.00391152
0.00389132
0.00387098
0.00385046
0.00382974
0.00380879
0.00378761
0.00376611
0.00374417
0.00372166
0.00369845
0.00367445
0.00364969
0.00362429
0.00359826
0.00357164
0.00354472
0.00351763
0.00349039
0.00346304
0.00343564
0.00340815
0.00338061
0.00335299
0.00332532
0.00329759
0.00326979
0.00324194
0.00321401
0.003186
0.00315795
0.00312978
0.00310163
0.00307336
0.00304512
0.00301688
0.0029887
0.00296062
0.00293268
0.00290495
0.00287744
0.00285022
0.00282333
0.0027968
0.00277073
0.00274506
0.00271985
0.00269506
0.00267073
0.00264694
0.00262371
0.00260102
0.00257885
0.00255718
0.0025361
0.00251556
0.00249552
0.002476
0.00245706
0.00243867
0.00242083
0.00240344
0.00238654
0.00237006
0.00235392
0.00233807
0.00232249
0.00230711
0.00229191
0.0022768
0.00226181
0.00224684
0.00223192
0.00221696
0.00220199
0.00218694
0.0021718
0.0021565
0.00214097
0.00212518
0.00210914
0.00209284
0.00207625
0.00205928
0.00204185
0.00202393
0.00200553
0.00198662
0.00196722
0.00194743
0.00192722
0.00190646
0.00188516
0.00186339
0.00184116
0.00181844
0.00179521
0.00177149
0.0017473
0.00172265
0.00169756
0.00167205
0.00164614
0.00161986
0.00159325
0.00156633
0.00153917
0.00151177
0.00148419
0.00145645
0.00142858
0.0014006
0.00137254
0.00134438
0.00131618
0.00128786
0.0012595
0.00123103
0.00120246
0.00117381
0.00114505
0.00111618
0.00108728
0.00105826
0.00102933
0.00100035
0.000971514
0.000942875
0.000914626
0.00088686
0.00085987
0.000833778
0.000808743
0.000784763
0.000761486
0.000738747
0.000716541
0.000694729
0.000673293
0.000652129
0.000631132
0.000610192
0.000589306
0.000568526
0.000547875
0.000527386
0.000507101
0.000487051
0.000467243
0.000447661
0.000428262
0.000408998
0.000389821
0.000370692
0.000351578
0.000332456
0.000313293
0.000294109
0.000274896
0.000255659
0.000236409
0.00021716
0.000197927
0.000178727
0.000159576
0.000140491
0.000121485
0.000102569
8.37501e-05
6.50281e-05
4.6395e-05
2.78564e-05
9.20341e-06
0.00444827
0.00442766
0.00440648
0.00438765
0.00436865
0.00434883
0.00432875
0.00430872
0.00428871
0.00426871
0.00424872
0.00422879
0.0042089
0.00418906
0.00416926
0.00414949
0.00412975