/*--------------------------------*- C++ -*----------------------------------*\
| =========                 |                                                 |
| \\      /  F ield         | OpenFOAM: The Open Source CFD Toolbox           |
|  \\    /   O peration     | Version:  2506                                  |
|   \\  /    A nd           | Website:  www.openfoam.com                      |
|    \\/     M anipulation  |                                                 |
\*---------------------------------------------------------------------------*/
FoamFile
{
    version     2.0;
    format      ascii;
    arch        "LSB;label=32;scalar=64";
    class       volScalarField;
    location    "3.65";
    object      p;
}
// * * * * * * * * * * * * * * * * * * * * * * * * * * * * * * * * * * * * * //

dimensions      [0 2 -2 0 0 0 0];

internalField   nonuniform List<scalar> 
4000
(
-0.000105265
-3.09626e-05
-7.84374e-06
-2.55655e-06
2.16789e-06
6.27926e-06
9.24382e-06
1.16907e-05
1.40008e-05
1.62531e-05
1.84863e-05
2.07509e-05
2.30897e-05
2.55356e-05
2.81173e-05
3.0861e-05
3.37911e-05
3.69298e-05
4.02976e-05
4.39134e-05
4.77943e-05
5.19553e-05
5.64088e-05
6.11642e-05
6.62263e-05
7.15947e-05
7.72611e-05
8.32073e-05
8.94018e-05
9.58583e-05
0.000102474
0.000107745
0.00011261
0.000117085
0.000120496
0.000122061
0.000122244
0.000118887
0.000116459
0.000117156
0.000117018
0.000116415
0.000115506
0.000113916
0.000111373
0.000107678
0.000102877
9.65179e-05
8.86621e-05
7.94867e-05
6.93736e-05
5.90053e-05
4.69623e-05
3.53264e-05
2.28871e-05
1.15498e-05
-3.85079e-07
-1.18187e-05
-2.42379e-05
-3.83348e-05
-5.3493e-05
-6.86863e-05
-8.33338e-05
-9.50215e-05
-0.000104213
-0.000110783
-0.000115774
-0.000119643
-0.000122434
-0.000124368
-0.000125593
-0.000126108
-0.000125886
-0.000124905
-0.000123141
-0.000120577
-0.000117183
-0.000112894
-0.000107677
-0.000101512
-9.43521e-05
-8.60784e-05
-7.66939e-05
-6.61301e-05
-5.43997e-05
-4.15424e-05
-2.78745e-05
-1.38535e-05
-3.16907e-08
1.28496e-05
2.46525e-05
3.5451e-05
4.5447e-05
5.46125e-05
6.37596e-05
7.27815e-05
8.10749e-05
8.82064e-05
9.35687e-05
9.68105e-05
9.79859e-05
9.72203e-05
9.48937e-05
9.14727e-05
8.73267e-05
8.27269e-05
7.78368e-05
7.28024e-05
6.76492e-05
6.21109e-05
5.62637e-05
5.10367e-05
4.39108e-05
3.75374e-05
2.86008e-05
1.82366e-05
5.35732e-06
-1.07142e-05
-2.87334e-05
-4.68937e-05
-6.48769e-05
-8.08354e-05
-9.33307e-05
-0.000102862
-0.000110519
-0.000116499
-0.000121126
-0.000124731
-0.000127403
-0.000129187
-0.000130121
-0.000130217
-0.000129472
-0.000127869
-0.000125397
-0.000122034
-0.000117748
-0.000112504
-0.000106208
-9.88336e-05
-9.03726e-05
-8.06922e-05
-6.9831e-05
-5.77912e-05
-4.47859e-05
-3.11625e-05
-1.74936e-05
-4.53769e-06
7.24986e-06
1.80918e-05
2.79968e-05
3.70229e-05
4.56688e-05
5.41017e-05
6.23518e-05
6.9643e-05
7.52129e-05
7.86949e-05
7.99005e-05
7.87892e-05
7.59303e-05
7.27968e-05
6.9688e-05
7.5747e-05
7.17995e-05
6.54532e-05
6.17085e-05
5.81213e-05
5.37757e-05
4.87823e-05
4.27791e-05
3.66437e-05
3.26564e-05
3.0027e-05
2.805e-05
2.66334e-05
2.57456e-05
2.52955e-05
2.51969e-05
2.53984e-05
2.58733e-05
2.66086e-05
2.75999e-05
2.88491e-05
3.03679e-05
3.21727e-05
3.42541e-05
3.66268e-05
3.93115e-05
4.23352e-05
4.57428e-05
4.96141e-05
5.40948e-05
5.94634e-05
6.62823e-05
7.57466e-05
9.04895e-05
0.000116781
0.000170981
0.000287249
-5.17234e-05
-2.27025e-05
-9.96225e-06
-4.03729e-06
4.42881e-07
4.24287e-06
7.37191e-06
1.00944e-05
1.26164e-05
1.50261e-05
1.73815e-05
1.97371e-05
2.21395e-05
2.46268e-05
2.72316e-05
2.99829e-05
3.29067e-05
3.60266e-05
3.93639e-05
4.29381e-05
4.67665e-05
5.08645e-05
5.52445e-05
5.99159e-05
6.48837e-05
7.01477e-05
7.56995e-05
8.152e-05
8.75738e-05
9.38428e-05
0.000100224
0.000105553
0.000110416
0.000114845
0.00011826
0.000120154
0.000120661
0.000118745
0.000116924
0.000116124
0.000114761
0.000112995
0.00011086
0.000108054
0.000104359
9.96516e-05
9.38684e-05
8.67962e-05
7.85586e-05
6.94275e-05
5.96842e-05
4.95885e-05
3.87022e-05
2.79466e-05
1.68829e-05
6.28997e-06
-5.01443e-06
-1.64076e-05
-2.86944e-05
-4.20765e-05
-5.49708e-05
-6.54616e-05
-7.59995e-05
-8.45603e-05
-9.26975e-05
-9.92737e-05
-0.000104604
-0.000108923
-0.000112145
-0.000114445
-0.000116016
-0.000116897
-0.000117067
-0.000116504
-0.000115184
-0.000113073
-0.000110145
-0.000106351
-0.000101647
-9.60149e-05
-8.94148e-05
-8.17443e-05
-7.29633e-05
-6.30557e-05
-5.19978e-05
-3.98524e-05
-2.68588e-05
-1.35365e-05
-4.73647e-07
1.18631e-05
2.33479e-05
3.39735e-05
4.39564e-05
5.331e-05
6.21006e-05
7.03834e-05
7.76638e-05
8.34864e-05
8.73597e-05
8.9297e-05
8.94703e-05
8.81113e-05
8.55128e-05
8.21365e-05
7.82542e-05
7.40033e-05
6.94441e-05
6.4646e-05
5.95944e-05
5.4172e-05
4.84989e-05
4.27125e-05
3.58388e-05
2.88677e-05
2.01654e-05
1.02895e-05
-1.23771e-06
-1.51257e-05
-3.0178e-05
-4.44967e-05
-5.83726e-05
-7.09236e-05
-8.19164e-05
-9.09397e-05
-9.8676e-05
-0.000104963
-0.000109877
-0.000113732
-0.000116675
-0.000118749
-0.000119993
-0.000120419
-0.000120014
-0.000118759
-0.000116637
-0.000113631
-0.000109722
-0.000104875
-9.90122e-05
-9.20874e-05
-8.41098e-05
-7.50016e-05
-6.47409e-05
-5.33933e-05
-4.11026e-05
-2.82685e-05
-1.5472e-05
-3.29097e-06
8.04071e-06
1.84907e-05
2.82205e-05
3.73268e-05
4.58847e-05
5.38724e-05
6.11026e-05
6.68095e-05
7.06774e-05
7.25082e-05
7.22909e-05
7.04649e-05
6.79622e-05
6.56805e-05
6.38685e-05
6.56018e-05
6.12095e-05
5.63539e-05
5.33878e-05
5.03112e-05
4.66786e-05
4.28701e-05
3.87585e-05
3.43178e-05
3.11365e-05
2.89382e-05
2.73089e-05
2.61644e-05
2.54723e-05
2.51539e-05
2.51461e-05
2.54159e-05
2.59477e-05
2.67357e-05
2.77804e-05
2.90872e-05
3.06602e-05
3.24994e-05
3.46217e-05
3.70382e-05
3.97648e-05
4.28277e-05
4.6271e-05
5.01701e-05
5.46567e-05
5.99722e-05
6.65824e-05
7.54315e-05
8.84272e-05
0.000109009
0.00014149
0.000192579
-2.49162e-05
-1.57694e-05
-9.11235e-06
-4.26205e-06
-3.29251e-07
3.142e-06
6.23064e-06
9.01059e-06
1.15861e-05
1.40377e-05
1.64263e-05
1.88046e-05
2.12177e-05
2.37042e-05
2.62974e-05
2.90268e-05
3.19186e-05
3.49965e-05
3.82822e-05
4.17948e-05
4.55519e-05
4.95685e-05
5.3857e-05
5.84264e-05
6.32818e-05
6.84226e-05
7.38405e-05
7.95167e-05
8.54161e-05
9.15116e-05
9.77342e-05
0.000103265
0.0001083
0.000112733
0.000116125
0.000118067
0.000118645
0.000117393
0.000115795
0.000114301
0.000112201
0.0001096
0.000106551
0.000102853
9.83568e-05
9.29786e-05
8.66467e-05
7.93587e-05
7.13482e-05
6.27015e-05
5.36294e-05
4.42554e-05
3.44834e-05
2.46757e-05
1.457e-05
4.39108e-06
-6.36691e-06
-1.7491e-05
-2.93314e-05
-4.15688e-05
-5.33772e-05
-6.22552e-05
-7.09783e-05
-7.81132e-05
-8.48376e-05
-9.05271e-05
-9.53345e-05
-9.95157e-05
-0.000102959
-0.000105608
-0.000107507
-0.000108706
-0.000109201
-0.000108979
-0.000108025
-0.000106306
-0.00010379
-0.000100435
-9.61812e-05
-9.10125e-05
-8.48889e-05
-7.77188e-05
-6.94224e-05
-6.00298e-05
-4.95251e-05
-3.80417e-05
-2.57582e-05
-1.30824e-05
-5.31641e-07
1.14844e-05
2.2776e-05
3.32349e-05
4.2957e-05
5.19208e-05
6.01414e-05
6.75349e-05
7.36961e-05
7.83113e-05
8.12619e-05
8.24997e-05
8.23323e-05
8.09725e-05
7.86512e-05
7.56742e-05
7.22044e-05
6.8322e-05
6.40685e-05
5.9508e-05
5.46337e-05
4.94003e-05
4.38263e-05
3.79407e-05
3.11579e-05
2.38429e-05
1.53366e-05
5.83955e-06
-4.83953e-06
-1.68958e-05
-2.96479e-05
-4.15907e-05
-5.35348e-05
-6.40861e-05
-7.37909e-05
-8.19329e-05
-8.90248e-05
-9.50242e-05
-0.000100041
-0.000104122
-0.000107285
-0.000109583
-0.000111067
-0.000111757
-0.000111636
-0.000110686
-0.000108876
-0.000106187
-0.000102608
-9.81045e-05
-9.26174e-05
-8.60756e-05
-7.84977e-05
-6.98563e-05
-6.00837e-05
-4.93449e-05
-3.77507e-05
-2.56602e-05
-1.35294e-05
-1.8175e-06
9.22005e-06
1.94507e-05
2.89065e-05
3.76092e-05
4.55766e-05
5.26444e-05
5.85783e-05
6.29684e-05
6.55669e-05
6.65286e-05
6.60336e-05
6.46955e-05
6.31746e-05
6.17493e-05
5.99036e-05
5.92635e-05
5.52285e-05
5.13593e-05
4.85335e-05
4.54459e-05
4.20292e-05
3.86814e-05
3.54063e-05
3.21064e-05
2.96062e-05
2.78247e-05
2.65197e-05
2.56181e-05
2.50892e-05
2.48824e-05
2.4957e-05
2.52929e-05
2.58816e-05
2.67213e-05
2.78142e-05
2.91651e-05
3.07796e-05
3.26639e-05
3.48286e-05
3.72833e-05
4.00428e-05
4.31321e-05
4.65912e-05
5.04846e-05
5.4918e-05
6.00697e-05
6.62543e-05
7.40547e-05
8.45091e-05
9.88681e-05
0.000116134
0.000136175
-1.34991e-05
-1.00551e-05
-6.47989e-06
-2.95038e-06
2.54589e-07
3.21652e-06
5.97342e-06
8.55869e-06
1.10095e-05
1.33732e-05
1.56955e-05
1.80183e-05
2.03799e-05
2.28145e-05
2.53528e-05
2.80224e-05
3.08483e-05
3.38531e-05
3.70578e-05
4.04809e-05
4.41394e-05
4.80477e-05
5.22178e-05
5.66585e-05
6.13742e-05
6.6364e-05
7.16196e-05
7.71221e-05
8.28378e-05
8.87357e-05
9.47506e-05
0.000100272
0.000105257
0.00010953
0.000112777
0.000114665
0.000115267
0.000114276
0.000112616
0.000110615
0.000107975
0.000104785
0.000101096
9.67819e-05
9.17602e-05
8.59948e-05
7.94876e-05
7.23128e-05
6.46332e-05
5.6549e-05
4.8218e-05
3.97151e-05
3.10336e-05
2.23111e-05
1.33894e-05
4.26721e-06
-5.36961e-06
-1.53479e-05
-2.59869e-05
-3.71648e-05
-4.82151e-05
-5.75601e-05
-6.60605e-05
-7.30233e-05
-7.90748e-05
-8.40195e-05
-8.82779e-05
-9.20197e-05
-9.52101e-05
-9.78271e-05
-9.98286e-05
-0.000101195
-0.000101898
-0.000101917
-0.000101235
-9.98291e-05
-9.76589e-05
-9.46771e-05
-9.08119e-05
-8.60497e-05
-8.03555e-05
-7.36559e-05
-6.5861e-05
-5.70196e-05
-4.70852e-05
-3.61999e-05
-2.44973e-05
-1.23911e-05
-3.48002e-07
1.12555e-05
2.21846e-05
3.22846e-05
4.1585e-05
5.00394e-05
5.76003e-05
6.41133e-05
6.93569e-05
7.31218e-05
7.53592e-05
7.6185e-05
7.58677e-05
7.45475e-05
7.24229e-05
6.96871e-05
6.64513e-05
6.27792e-05
5.87091e-05
5.43074e-05
4.95723e-05
4.44734e-05
3.89837e-05
3.31926e-05
2.66811e-05
1.96929e-05
1.19077e-05
3.41156e-06
-5.92046e-06
-1.62103e-05
-2.72435e-05
-3.80819e-05
-4.89625e-05
-5.87366e-05
-6.76133e-05
-7.50675e-05
-8.16708e-05
-8.72191e-05
-9.19444e-05
-9.5935e-05
-9.91249e-05
-0.000101509
-0.000103117
-0.000103961
-0.000104026
-0.000103296
-0.000101736
-9.93128e-05
-9.6017e-05
-9.18119e-05
-8.66581e-05
-8.04751e-05
-7.32812e-05
-6.50826e-05
-5.5784e-05
-4.55754e-05
-3.45429e-05
-2.30212e-05
-1.14564e-05
-2.43139e-07
1.03533e-05
2.01545e-05
2.91216e-05
3.72361e-05
4.44427e-05
5.05994e-05
5.54433e-05
5.87953e-05
6.06592e-05
6.12427e-05
6.07856e-05
5.98295e-05
5.86747e-05
5.71749e-05
5.4895e-05
5.32032e-05
4.96986e-05
4.64749e-05
4.38525e-05
4.10486e-05
3.81271e-05
3.53644e-05
3.2768e-05
3.02728e-05
2.82813e-05
2.68062e-05
2.57275e-05
2.49968e-05
2.45908e-05
2.44772e-05
2.46282e-05
2.50297e-05
2.56767e-05
2.65691e-05
2.77098e-05
2.91037e-05
3.07566e-05
3.26752e-05
3.48672e-05
3.73418e-05
4.01129e-05
4.32023e-05
4.66434e-05
5.04863e-05
5.48053e-05
5.97106e-05
6.53687e-05
7.20387e-05
8.00872e-05
8.9784e-05
9.97647e-05
0.000108985
-7.08318e-06
-5.67216e-06
-3.72147e-06
-1.28256e-06
1.21159e-06
3.67211e-06
6.06321e-06
8.38247e-06
1.06387e-05
1.28544e-05
1.5058e-05
1.72802e-05
1.95511e-05
2.18994e-05
2.4352e-05
2.69334e-05
2.96667e-05
3.25729e-05
3.56715e-05
3.89802e-05
4.25149e-05
4.62893e-05
5.03147e-05
5.4599e-05
5.91461e-05
6.39545e-05
6.9015e-05
7.43086e-05
7.98024e-05
8.54637e-05
9.12256e-05
9.65973e-05
0.000101417
0.000105473
0.000108536
0.000110325
0.000110889
0.000109979
0.000108196
0.000105842
0.000102841
9.92457e-05
9.5113e-05
9.0391e-05
8.50568e-05
7.91246e-05
7.26459e-05
6.57158e-05
5.84649e-05
5.09942e-05
4.34129e-05
3.57711e-05
2.80758e-05
2.03693e-05
1.25503e-05
4.56128e-06
-3.78033e-06
-1.24962e-05
-2.1612e-05
-3.13021e-05
-4.14125e-05
-5.06515e-05
-5.93272e-05
-6.64449e-05
-7.27092e-05
-7.75528e-05
-8.15711e-05
-8.50044e-05
-8.78771e-05
-9.03143e-05
-9.22748e-05
-9.37058e-05
-9.45532e-05
-9.47712e-05
-9.43308e-05
-9.32053e-05
-9.13494e-05
-8.87198e-05
-8.52339e-05
-8.08772e-05
-7.56164e-05
-6.93855e-05
-6.20858e-05
-5.378e-05
-4.44082e-05
-3.4116e-05
-2.30232e-05
-1.15154e-05
-2.54822e-08
1.10866e-05
2.15548e-05
3.12016e-05
3.99919e-05
4.78674e-05
5.47183e-05
6.04743e-05
6.49191e-05
6.79984e-05
6.97622e-05
7.03427e-05
6.992e-05
6.86278e-05
6.66232e-05
6.40302e-05
6.09326e-05
5.73898e-05
5.34418e-05
4.9161e-05
4.45492e-05
3.95958e-05
3.42991e-05
2.87124e-05
2.26218e-05
1.62026e-05
9.2917e-06
1.93098e-06
-5.99805e-06
-1.46349e-05
-2.39764e-05
-3.35995e-05
-4.34897e-05
-5.2747e-05
-6.12109e-05
-6.83169e-05
-7.46148e-05
-7.98703e-05
-8.43047e-05
-8.80926e-05
-9.11999e-05
-9.3589e-05
-9.52651e-05
-9.62254e-05
-9.64427e-05
-9.5898e-05
-9.45578e-05
-9.23766e-05
-8.93479e-05
-8.54295e-05
-8.05927e-05
-7.47559e-05
-6.79375e-05
-6.0168e-05
-5.13447e-05
-4.16691e-05
-3.12246e-05
-2.03213e-05
-9.36786e-06
1.27837e-06
1.13349e-05
2.05933e-05
2.89701e-05
3.64133e-05
4.28554e-05
4.81164e-05
5.20557e-05
5.46702e-05
5.60759e-05
5.64609e-05
5.60268e-05
5.51934e-05
5.40238e-05
5.22921e-05
4.96942e-05
4.76636e-05
4.46631e-05
4.1909e-05
3.95473e-05
3.7105e-05
3.46765e-05
3.24437e-05
3.03975e-05
2.8486e-05
2.69072e-05
2.57013e-05
2.48222e-05
2.42451e-05
2.39558e-05
2.39335e-05
2.41607e-05
2.46284e-05
2.53335e-05
2.62767e-05
2.74613e-05
2.88918e-05
3.05734e-05
3.25119e-05
3.47135e-05
3.71862e-05
3.99416e-05
4.29967e-05
4.63761e-05
5.01131e-05
5.42496e-05
5.88323e-05
6.39037e-05
6.94816e-05
7.54766e-05
8.17152e-05
8.72767e-05
9.21526e-05
-3.06083e-06
-2.56385e-06
-1.47029e-06
2.38928e-07
2.16097e-06
4.17397e-06
6.2349e-06
8.29045e-06
1.03365e-05
1.23816e-05
1.44418e-05
1.65388e-05
1.86952e-05
2.09344e-05
2.32791e-05
2.57509e-05
2.83704e-05
3.11568e-05
3.4128e-05
3.73003e-05
4.06884e-05
4.43052e-05
4.81608e-05
5.22623e-05
5.66126e-05
6.12092e-05
6.60424e-05
7.10923e-05
7.63267e-05
8.17122e-05
8.71805e-05
9.23166e-05
9.68966e-05
0.000100696
0.000103544
0.000105201
0.000105688
0.000104784
0.000102889
0.000100301
9.70619e-05
9.31953e-05
8.87749e-05
8.38158e-05
7.83465e-05
7.24184e-05
6.61142e-05
5.9533e-05
5.27829e-05
4.59473e-05
3.90987e-05
3.22674e-05
2.54545e-05
1.86597e-05
1.18173e-05
4.86629e-06
-2.28735e-06
-9.72061e-06
-1.74844e-05
-2.56816e-05
-3.43783e-05
-4.28861e-05
-5.11727e-05
-5.84561e-05
-6.4952e-05
-7.01429e-05
-7.42339e-05
-7.78422e-05
-8.06324e-05
-8.2973e-05
-8.48515e-05
-8.62745e-05
-8.72019e-05
-8.75685e-05
-8.7331e-05
-8.64556e-05
-8.48894e-05
-8.25926e-05
-7.9473e-05
-7.55138e-05
-7.06829e-05
-6.49167e-05
-5.81136e-05
-5.03434e-05
-4.15437e-05
-3.18565e-05
-2.13918e-05
-1.05064e-05
3.92774e-07
1.09536e-05
2.08905e-05
3.00108e-05
3.82389e-05
4.54873e-05
5.16788e-05
5.6725e-05
6.05172e-05
6.30833e-05
6.44944e-05
6.48762e-05
6.43669e-05
6.30766e-05
6.11231e-05
5.85943e-05
5.55675e-05
5.21057e-05
4.82548e-05
4.40938e-05
3.96297e-05
3.48748e-05
2.9844e-05
2.45931e-05
1.90225e-05
1.32633e-05
7.23051e-06
9.36614e-07
-5.72739e-06
-1.2902e-05
-2.06881e-05
-2.89152e-05
-3.76062e-05
-4.61602e-05
-5.42386e-05
-6.12023e-05
-6.73739e-05
-7.25299e-05
-7.68387e-05
-8.04605e-05
-8.34619e-05
-8.58095e-05
-8.75082e-05
-8.85483e-05
-8.88875e-05
-8.85029e-05
-8.73627e-05
-8.54083e-05
-8.26379e-05
-7.90036e-05
-7.44822e-05
-6.89965e-05
-6.25628e-05
-5.52284e-05
-4.68964e-05
-3.77666e-05
-2.79246e-05
-1.76559e-05
-7.33676e-06
2.69167e-06
1.214e-05
2.07763e-05
2.84865e-05
3.52575e-05
4.09276e-05
4.53452e-05
4.85925e-05
5.06922e-05
5.17721e-05
5.1995e-05
5.1487e-05
5.05833e-05
4.92534e-05
4.73098e-05
4.46498e-05
4.26117e-05
4.00393e-05
3.76641e-05
3.55907e-05
3.35111e-05
3.15155e-05
2.97268e-05
2.81246e-05
2.66549e-05
2.54211e-05
2.44644e-05
2.3776e-05
2.33477e-05
2.31732e-05
2.32419e-05
2.35443e-05
2.40753e-05
2.48337e-05
2.5821e-05
2.70403e-05
2.84956e-05
3.0191e-05
3.21309e-05
3.43197e-05
3.67627e-05
3.94671e-05
4.24431e-05
4.57038e-05
4.92638e-05
5.31324e-05
5.73e-05
6.17112e-05
6.62213e-05
7.05396e-05
7.44501e-05
7.71016e-05
7.89591e-05
-5.06725e-07
-3.96329e-07
2.42953e-07
1.45964e-06
2.97052e-06
4.63312e-06
6.39055e-06
8.2e-06
1.004e-05
1.19093e-05
1.38159e-05
1.5774e-05
1.78007e-05
1.99146e-05
2.21348e-05
2.44799e-05
2.69679e-05
2.96162e-05
3.24409e-05
3.54568e-05
3.86774e-05
4.21141e-05
4.57762e-05
4.96694e-05
5.37957e-05
5.81516e-05
6.27264e-05
6.75002e-05
7.24412e-05
7.7516e-05
8.26557e-05
8.75008e-05
9.17942e-05
9.53141e-05
9.79378e-05
9.94533e-05
9.9851e-05
9.89274e-05
9.69531e-05
9.42201e-05
9.08391e-05
8.68124e-05
8.2235e-05
7.71825e-05
7.17246e-05
6.59292e-05
5.99086e-05
5.37496e-05
4.75387e-05
4.13364e-05
3.51874e-05
2.91042e-05
2.30804e-05
1.7098e-05
1.11167e-05
5.08487e-06
-1.04327e-06
-7.35131e-06
-1.39083e-05
-2.07751e-05
-2.8069e-05
-3.55008e-05
-4.29325e-05
-4.98847e-05
-5.63478e-05
-6.18515e-05
-6.62552e-05
-7.00121e-05
-7.31134e-05
-7.55909e-05
-7.75017e-05
-7.89378e-05
-7.99275e-05
-8.04051e-05
-8.03286e-05
-7.96657e-05
-7.83593e-05
-7.63695e-05
-7.35956e-05
-7.00166e-05
-6.56034e-05
-6.0292e-05
-5.39848e-05
-4.67495e-05
-3.85278e-05
-2.94511e-05
-1.96256e-05
-9.38343e-06
8.92551e-07
1.08554e-05
2.02111e-05
2.87555e-05
3.63862e-05
4.30163e-05
4.85626e-05
5.29931e-05
5.62425e-05
5.83945e-05
5.95196e-05
5.9726e-05
5.91203e-05
5.77873e-05
5.58235e-05
5.33057e-05
5.03152e-05
4.69212e-05
4.31761e-05
3.9163e-05
3.48949e-05
3.0402e-05
2.57128e-05
2.08888e-05
1.58889e-05
1.08094e-05
5.60167e-06
2.55977e-07
-5.32594e-06
-1.1276e-05
-1.77086e-05
-2.4585e-05
-3.19793e-05
-3.95653e-05
-4.70598e-05
-5.381e-05
-5.98894e-05
-6.50526e-05
-6.94045e-05
-7.29731e-05
-7.59329e-05
-7.82441e-05
-7.99458e-05
-8.10407e-05
-8.14746e-05
-8.12225e-05
-8.02591e-05
-7.85133e-05
-7.59864e-05
-7.26266e-05
-6.8413e-05
-6.32764e-05
-5.72304e-05
-5.03301e-05
-4.24954e-05
-3.39137e-05
-2.46778e-05
-1.50548e-05
-5.39115e-06
3.98238e-06
1.27598e-05
2.07191e-05
2.78043e-05
3.3831e-05
3.87291e-05
4.24881e-05
4.51799e-05
4.68702e-05
4.76659e-05
4.76932e-05
4.70217e-05
4.59581e-05
4.44665e-05
4.24353e-05
3.98946e-05
3.79895e-05
3.57824e-05
3.37411e-05
3.19627e-05
3.02219e-05
2.85963e-05
2.71732e-05
2.59265e-05
2.47982e-05
2.38496e-05
2.31148e-05
2.26011e-05
2.23112e-05
2.22455e-05
2.2401e-05
2.27734e-05
2.33611e-05
2.41643e-05
2.51851e-05
2.64264e-05
2.78913e-05
2.95827e-05
3.15028e-05
3.36531e-05
3.60348e-05
3.86488e-05
4.14966e-05
4.45779e-05
4.78876e-05
5.14049e-05
5.50751e-05
5.87779e-05
6.22943e-05
6.5308e-05
6.74749e-05
6.85938e-05
6.89349e-05
1.14434e-06
1.11054e-06
1.507e-06
2.40385e-06
3.60069e-06
4.98169e-06
6.48436e-06
8.07008e-06
9.71511e-06
1.14115e-05
1.31615e-05
1.49739e-05
1.68613e-05
1.88386e-05
2.09214e-05
2.31258e-05
2.54676e-05
2.79619e-05
3.06231e-05
3.34645e-05
3.64982e-05
3.97342e-05
4.31804e-05
4.68417e-05
5.07188e-05
5.48075e-05
5.90965e-05
6.35659e-05
6.81854e-05
7.29217e-05
7.77076e-05
8.22279e-05
8.62104e-05
8.94459e-05
9.18493e-05
9.32291e-05
9.35415e-05
9.25952e-05
9.05783e-05
8.77723e-05
8.43258e-05
8.0231e-05
7.56052e-05
7.05747e-05
6.52335e-05
5.96827e-05
5.4024e-05
4.83328e-05
4.26751e-05
3.70893e-05
3.15978e-05
2.61995e-05
2.08837e-05
1.56272e-05
1.04081e-05
5.18586e-06
-6.06094e-08
-5.40972e-06
-1.09266e-05
-1.66813e-05
-2.27319e-05
-2.90305e-05
-3.54591e-05
-4.17078e-05
-4.77287e-05
-5.32232e-05
-5.79092e-05
-6.17777e-05
-6.51289e-05
-6.76968e-05
-6.9878e-05
-7.14722e-05
-7.26008e-05
-7.32184e-05
-7.33029e-05
-7.28318e-05
-7.17597e-05
-7.00532e-05
-6.76065e-05
-6.43932e-05
-6.03872e-05
-5.55216e-05
-4.97081e-05
-4.30066e-05
-3.53671e-05
-2.69066e-05
-1.77315e-05
-8.15118e-06
1.47539e-06
1.08059e-05
1.95455e-05
2.74808e-05
3.45011e-05
4.0506e-05
4.54543e-05
4.93371e-05
5.21209e-05
5.3922e-05
5.47906e-05
5.48158e-05
5.40833e-05
5.26648e-05
5.06516e-05
4.81222e-05
4.51655e-05
4.18557e-05
3.8249e-05
3.44289e-05
3.04129e-05
2.62428e-05
2.19548e-05
1.76084e-05
1.31924e-05
8.7723e-06
4.316e-06
-2.02057e-07
-4.86844e-06
-9.79666e-06
-1.50896e-05
-2.08127e-05
-2.69602e-05
-3.34718e-05
-4.01334e-05
-4.64421e-05
-5.22889e-05
-5.73948e-05
-6.17275e-05
-6.54208e-05
-6.84435e-05
-7.07816e-05
-7.25046e-05
-7.36584e-05
-7.41798e-05
-7.40414e-05
-7.32361e-05
-7.16855e-05
-6.93911e-05
-6.62983e-05
-6.23865e-05
-5.75977e-05
-5.19436e-05
-4.54789e-05
-3.81488e-05
-3.01211e-05
-2.14983e-05
-1.25327e-05
-3.54195e-06
5.14879e-06
1.3237e-05
2.05386e-05
2.68832e-05
3.21951e-05
3.64439e-05
3.96239e-05
4.18419e-05
4.31513e-05
4.366e-05
4.34576e-05
4.25872e-05
4.13644e-05
3.97826e-05
3.77859e-05
3.5462e-05
3.37444e-05
3.186e-05
3.01256e-05
2.86326e-05
2.71972e-05
2.58854e-05
2.47622e-05
2.38002e-05
2.29403e-05
2.22243e-05
2.16793e-05
2.13187e-05
2.11519e-05
2.11844e-05
2.14175e-05
2.18509e-05
2.24853e-05
2.33221e-05
2.43638e-05
2.56128e-05
2.70712e-05
2.874e-05
3.06187e-05
3.27049e-05
3.49947e-05
3.74818e-05
4.01576e-05
4.30082e-05
4.60101e-05
4.91189e-05
5.22506e-05
5.52552e-05
5.79004e-05
5.99087e-05
6.10504e-05
6.15446e-05
6.13453e-05
2.21129e-06
2.13416e-06
2.39928e-06
3.0825e-06
4.04474e-06
5.19732e-06
6.48589e-06
7.87413e-06
9.33873e-06
1.0869e-05
1.24635e-05
1.41274e-05
1.58698e-05
1.77024e-05
1.96383e-05
2.16909e-05
2.38738e-05
2.62004e-05
2.86834e-05
3.13343e-05
3.41638e-05
3.71805e-05
4.03913e-05
4.37997e-05
4.74059e-05
5.12049e-05
5.51855e-05
5.93285e-05
6.36057e-05
6.79851e-05
7.24025e-05
7.65799e-05
8.02435e-05
8.32012e-05
8.53982e-05
8.66547e-05
8.68929e-05
8.59318e-05
8.39067e-05
8.10849e-05
7.76364e-05
7.35514e-05
6.8968e-05
6.40524e-05
5.89154e-05
5.36901e-05
4.84438e-05
4.32443e-05
3.81373e-05
3.31419e-05
2.82634e-05
2.34921e-05
1.88155e-05
1.42111e-05
9.67061e-06
5.16261e-06
6.78671e-07
-3.85208e-06
-8.48467e-06
-1.32936e-05
-1.8315e-05
-2.35852e-05
-2.90096e-05
-3.44331e-05
-3.97724e-05
-4.48585e-05
-4.94804e-05
-5.35058e-05
-5.69041e-05
-5.96171e-05
-6.19193e-05
-6.36801e-05
-6.50114e-05
-6.58474e-05
-6.61566e-05
-6.59055e-05
-6.50698e-05
-6.36353e-05
-6.15043e-05
-5.86468e-05
-5.50399e-05
-5.06133e-05
-4.52912e-05
-3.91224e-05
-3.20674e-05
-2.42278e-05
-1.57115e-05
-6.80685e-06
2.14909e-06
1.08203e-05
1.89152e-05
2.62142e-05
3.26125e-05
3.80077e-05
4.23937e-05
4.57816e-05
4.81502e-05
4.96273e-05
5.0239e-05
5.00617e-05
4.9173e-05
4.76438e-05
4.55695e-05
4.30357e-05
4.01369e-05
3.69481e-05
3.35256e-05
2.99488e-05
2.62371e-05
2.24371e-05
1.85865e-05
1.47369e-05
1.08908e-05
7.08802e-06
3.30392e-06
-4.97112e-07
-4.39098e-06
-8.47641e-06
-1.28367e-05
-1.75571e-05
-2.26631e-05
-2.81516e-05
-3.38456e-05
-3.94935e-05
-4.49054e-05
-4.98174e-05
-5.40692e-05
-5.77792e-05
-6.07934e-05
-6.3273e-05
-6.50717e-05
-6.63207e-05
-6.69621e-05
-6.69392e-05
-6.62802e-05
-6.49162e-05
-6.28482e-05
-6.002e-05
-5.6409e-05
-5.19697e-05
-4.6713e-05
-4.06878e-05
-3.3868e-05
-2.63988e-05
-1.83923e-05
-1.00888e-05
-1.78105e-06
6.21244e-06
1.3599e-05
2.01805e-05
2.58164e-05
3.04531e-05
3.40991e-05
3.67504e-05
3.85301e-05
3.94787e-05
3.96966e-05
3.92579e-05
3.82054e-05
3.68739e-05
3.52867e-05
3.34115e-05
3.13486e-05
2.98363e-05
2.82448e-05
2.67947e-05
2.55664e-05
2.44004e-05
2.33531e-05
2.24753e-05
2.17415e-05
2.10949e-05
2.05672e-05
2.01801e-05
1.99493e-05
1.98879e-05
2.00044e-05
2.03029e-05
2.07855e-05
2.14546e-05
2.23124e-05
2.33615e-05
2.46036e-05
2.60394e-05
2.76676e-05
2.94847e-05
3.14843e-05
3.36565e-05
3.59879e-05
3.84597e-05
4.1046e-05
4.37088e-05
4.63883e-05
4.8989e-05
5.1362e-05
5.33085e-05
5.46401e-05
5.53034e-05
5.54532e-05
5.51414e-05
2.87677e-06
2.79642e-06
2.98824e-06
3.5242e-06
4.30921e-06
5.27659e-06
6.38389e-06
7.59744e-06
8.89582e-06
1.02677e-05
1.17097e-05
1.32244e-05
1.48183e-05
1.65006e-05
1.8282e-05
2.01738e-05
2.21878e-05
2.43352e-05
2.66272e-05
2.90738e-05
3.16843e-05
3.44661e-05
3.74248e-05
4.05633e-05
4.38811e-05
4.7373e-05
5.10286e-05
5.483e-05
5.87516e-05
6.27638e-05
6.68068e-05
7.06347e-05
7.39817e-05
7.66744e-05
7.86825e-05
7.98305e-05
8.00082e-05
7.90444e-05
7.70418e-05
7.42508e-05
7.08546e-05
6.6847e-05
6.23844e-05
5.76613e-05
5.27972e-05
4.79454e-05
4.31431e-05
3.84433e-05
3.38743e-05
2.94392e-05
2.51313e-05
2.09357e-05
1.68408e-05
1.28268e-05
8.89517e-06
5.02086e-06
1.20206e-06
-2.62432e-06
-6.50356e-06
-1.0509e-05
-1.4669e-05
-1.90458e-05
-2.35762e-05
-2.81905e-05
-3.27963e-05
-3.72861e-05
-4.15276e-05
-4.54005e-05
-4.88148e-05
-5.16975e-05
-5.40226e-05
-5.59314e-05
-5.73567e-05
-5.83281e-05
-5.88472e-05
-5.88444e-05
-5.82697e-05
-5.71138e-05
-5.52959e-05
-5.2789e-05
-4.95751e-05
-4.55815e-05
-4.0747e-05
-3.51084e-05
-2.8637e-05
-2.14211e-05
-1.35698e-05
-5.35118e-06
2.91343e-06
1.08995e-05
1.83225e-05
2.49625e-05
3.0734e-05
3.55361e-05
3.93919e-05
4.23188e-05
4.42953e-05
4.54498e-05
4.57905e-05
4.53907e-05
4.4331e-05
4.26898e-05
4.05705e-05
3.8064e-05
3.52652e-05
3.22449e-05
2.90553e-05
2.57672e-05
2.24e-05
1.89993e-05
1.56e-05
1.22429e-05
8.93585e-06
5.69841e-06
2.50983e-06
-6.7108e-07
-3.91034e-06
-7.29523e-06
-1.08954e-05
-1.47966e-05
-1.90204e-05
-2.35714e-05
-2.83653e-05
-3.32482e-05
-3.80628e-05
-4.26148e-05
-4.6736e-05
-5.03111e-05
-5.32733e-05
-5.57347e-05
-5.75738e-05
-5.88976e-05
-5.97179e-05
-5.98752e-05
-5.93864e-05
-5.82131e-05
-5.63703e-05
-5.38064e-05
-5.0497e-05
-4.64081e-05
-4.15518e-05
-3.59688e-05
-2.96596e-05
-2.27503e-05
-1.53609e-05
-7.71962e-06
-1.06804e-07
7.16673e-06
1.3826e-05
1.9683e-05
2.46168e-05
2.86183e-05
3.16948e-05
3.38521e-05
3.52163e-05
3.58183e-05
3.57561e-05
3.51052e-05
3.39196e-05
3.25457e-05
3.10242e-05
2.93241e-05
2.75374e-05
2.62326e-05
2.49098e-05
2.372e-05
2.27296e-05
2.17974e-05
2.09717e-05
2.0294e-05
1.97434e-05
1.92676e-05
1.88914e-05
1.86333e-05
1.85097e-05
1.85352e-05
1.872e-05
1.90698e-05
1.95884e-05
2.02791e-05
2.11447e-05
2.21874e-05
2.3408e-05
2.48056e-05
2.63768e-05
2.81149e-05
3.00093e-05
3.20447e-05
3.42007e-05
3.64503e-05
3.87578e-05
4.10755e-05
4.3337e-05
4.54488e-05
4.7283e-05
4.86911e-05
4.95685e-05
4.99559e-05
4.99326e-05
4.96563e-05
3.25122e-06
3.18181e-06
3.33041e-06
3.761e-06
4.40902e-06
5.22548e-06
6.17607e-06
7.23313e-06
8.37764e-06
9.5985e-06
1.08913e-05
1.2257e-05
1.37002e-05
1.5228e-05
1.6849e-05
1.85728e-05
2.04093e-05
2.2368e-05
2.44586e-05
2.66897e-05
2.90691e-05
3.16033e-05
3.4297e-05
3.71524e-05
4.01688e-05
4.33415e-05
4.6661e-05
5.01114e-05
5.36703e-05
5.73113e-05
6.09801e-05
6.44588e-05
6.7497e-05
6.99397e-05
7.17768e-05
7.28308e-05
7.2962e-05
7.20092e-05
7.00559e-05
6.73351e-05
6.40384e-05
6.01663e-05
5.58859e-05
5.14099e-05
4.68791e-05
4.24382e-05
3.80925e-05
3.38893e-05
2.98403e-05
2.59356e-05
2.21599e-05
1.84967e-05
1.49358e-05
1.14611e-05
8.08009e-06
4.77222e-06
1.53898e-06
-1.67531e-06
-4.90758e-06
-8.22732e-06
-1.16586e-05
-1.5271e-05
-1.90237e-05
-2.28957e-05
-2.68102e-05
-3.06857e-05
-3.44334e-05
-3.7949e-05
-4.11561e-05
-4.39805e-05
-4.63851e-05
-4.83817e-05
-4.98902e-05
-5.09874e-05
-5.15943e-05
-5.17633e-05
-5.14199e-05
-5.05329e-05
-4.90211e-05
-4.68569e-05
-4.40277e-05
-4.04594e-05
-3.61048e-05
-3.09915e-05
-2.50991e-05
-1.85087e-05
-1.13281e-05
-3.80578e-06
3.74404e-06
1.10191e-05
1.77451e-05
2.37121e-05
2.88587e-05
3.30852e-05
3.64317e-05
3.89124e-05
4.05008e-05
4.13222e-05
4.13784e-05
4.07496e-05
3.95264e-05
3.77976e-05
3.5672e-05
3.3241e-05
3.05932e-05
2.779e-05
2.48762e-05
2.19114e-05
1.89139e-05
1.59241e-05
1.2972e-05
1.00875e-05
7.27953e-06
4.55276e-06
1.88918e-06
-7.54566e-07
-3.43509e-06
-6.22987e-06
-9.19705e-06
-1.24144e-05
-1.58965e-05
-1.96625e-05
-2.36512e-05
-2.77909e-05
-3.19483e-05
-3.59904e-05
-3.97806e-05
-4.31895e-05
-4.61339e-05
-4.85365e-05
-5.04534e-05
-5.17642e-05
-5.25895e-05
-5.28877e-05
-5.25777e-05
-5.16026e-05
-4.99851e-05
-4.76843e-05
-4.46759e-05
-4.09362e-05
-3.64789e-05
-3.13387e-05
-2.55366e-05
-1.91874e-05
-1.24187e-05
-5.44612e-06
1.45681e-06
7.98794e-06
1.38956e-05
1.90331e-05
2.32899e-05
2.66847e-05
2.92187e-05
3.09099e-05
3.18788e-05
3.21559e-05
3.18438e-05
3.10269e-05
2.97703e-05
2.84171e-05
2.7013e-05
2.55183e-05
2.40075e-05
2.29043e-05
2.18266e-05
2.0871e-05
2.00892e-05
1.93575e-05
1.87163e-05
1.82015e-05
1.77973e-05
1.74584e-05
1.72032e-05
1.70487e-05
1.70113e-05
1.71058e-05
1.7343e-05
1.77297e-05
1.82705e-05
1.89693e-05
1.9829e-05
2.08513e-05
2.20361e-05
2.3381e-05
2.48803e-05
2.65245e-05
2.82992e-05
3.01845e-05
3.21544e-05
3.41753e-05
3.6205e-05
3.81906e-05
4.00656e-05
4.17464e-05
4.3134e-05
4.413e-05
4.46886e-05
4.48896e-05
4.48057e-05
4.45709e-05
3.4056e-06
3.35007e-06
3.47077e-06
3.82237e-06
4.36091e-06
5.05054e-06
5.8642e-06
6.77964e-06
7.78056e-06
8.85676e-06
1.00035e-05
1.12208e-05
1.25116e-05
1.38815e-05
1.53375e-05
1.68874e-05
1.85394e-05
2.03018e-05
2.21826e-05
2.41891e-05
2.63282e-05
2.86052e-05
3.10242e-05
3.35871e-05
3.62934e-05
3.91389e-05
4.21157e-05
4.52103e-05
4.84036e-05
5.16731e-05
5.49705e-05
5.81037e-05
6.08421e-05
6.30486e-05
6.47307e-05
6.57039e-05
6.5802e-05
6.48742e-05
6.29937e-05
6.03771e-05
5.72209e-05
5.35305e-05
4.94751e-05
4.52901e-05
4.11701e-05
3.71449e-05
3.32575e-05
2.95445e-05
2.59973e-05
2.25957e-05
1.93195e-05
1.61525e-05
1.3086e-05
1.0108e-05
7.22882e-06
4.43113e-06
1.71784e-06
-9.59895e-07
-3.63195e-06
-6.36272e-06
-9.17234e-06
-1.213e-05
-1.52095e-05
-1.84169e-05
-2.16992e-05
-2.49961e-05
-2.82375e-05
-3.13436e-05
-3.42355e-05
-3.68422e-05
-3.91339e-05
-4.10759e-05
-4.26528e-05
-4.38411e-05
-4.45535e-05
-4.48476e-05
-4.46799e-05
-4.40209e-05
-4.2787e-05
-4.09436e-05
-3.84806e-05
-3.53223e-05
-3.1433e-05
-2.68348e-05
-2.15127e-05
-1.55473e-05
-9.04343e-06
-2.22811e-06
4.58273e-06
1.11257e-05
1.71392e-05
2.24314e-05
2.696e-05
3.06259e-05
3.34722e-05
3.55073e-05
3.67022e-05
3.71811e-05
3.69525e-05
3.61096e-05
3.47549e-05
3.29847e-05
3.09073e-05
2.86076e-05
2.61612e-05
2.36174e-05
2.10117e-05
1.83918e-05
1.57742e-05
1.31926e-05
1.0671e-05
8.23008e-06
5.87749e-06
3.60827e-06
1.40653e-06
-7.70611e-07
-2.97077e-06
-5.26249e-06
-7.69392e-06
-1.03334e-05
-1.31926e-05
-1.62953e-05
-1.95961e-05
-2.30638e-05
-2.65913e-05
-3.00847e-05
-3.3437e-05
-3.6542e-05
-3.93136e-05
-4.16764e-05
-4.36268e-05
-4.49892e-05
-4.57847e-05
-4.61294e-05
-4.59485e-05
-4.51541e-05
-4.37528e-05
-4.17074e-05
-3.8995e-05
-3.55989e-05
-3.15343e-05
-2.68354e-05
-2.15352e-05
-1.57467e-05
-9.60446e-06
-3.31158e-06
2.85101e-06
8.62246e-06
1.37853e-05
1.82192e-05
2.1823e-05
2.46377e-05
2.66555e-05
2.7907e-05
2.85064e-05
2.8493e-05
2.79767e-05
2.70518e-05
2.57878e-05
2.45074e-05
2.32551e-05
2.19807e-05
2.07359e-05
1.98241e-05
1.89666e-05
1.82174e-05
1.76151e-05
1.70535e-05
1.6565e-05
1.61817e-05
1.58942e-05
1.56641e-05
1.55045e-05
1.54316e-05
1.54613e-05
1.56079e-05
1.58823e-05
1.62914e-05
1.68406e-05