/*--------------------------------*- C++ -*----------------------------------*\
| =========                 |                                                 |
| \\      /  F ield         | OpenFOAM: The Open Source CFD Toolbox           |
|  \\    /   O peration     | Version:  2506                                  |
|   \\  /    A nd           | Website:  www.openfoam.com                      |
|    \\/     M anipulation  |                                                 |
\*---------------------------------------------------------------------------*/
FoamFile
{
    version     2.0;
    format      ascii;
    arch        "LSB;label=32;scalar=64";
    class       surfaceScalarField;
    location    "3.65";
    object      phi;
}
// * * * * * * * * * * * * * * * * * * * * * * * * * * * * * * * * * * * * * //

dimensions      [0 3 -1 0 0 0 0];

oriented        oriented;

internalField   nonuniform List<scalar> 
7780
(
1.05863e-09
-1.05863e-09
1.85284e-09
-7.94212e-10
2.33237e-09
-4.79525e-10
2.66091e-09
-3.28542e-10
2.89271e-09
-2.31802e-10
3.05677e-09
-1.64058e-10
3.17734e-09
-1.20573e-10
3.27059e-09
-9.3248e-11
3.34585e-09
-7.52617e-11
3.4087e-09
-6.28507e-11
3.4627e-09
-5.39968e-11
3.51017e-09
-4.74683e-11
3.55266e-09
-4.24906e-11
3.59125e-09
-3.85878e-11
3.62671e-09
-3.54643e-11
3.65964e-09
-3.29293e-11
3.6905e-09
-3.08584e-11
3.71967e-09
-2.91704e-11
3.74749e-09
-2.78155e-11
3.77425e-09
-2.67671e-11
3.80027e-09
-2.60184e-11
3.82585e-09
-2.55808e-11
3.85134e-09
-2.54844e-11
3.87712e-09
-2.57804e-11
3.90366e-09
-2.65477e-11
3.93157e-09
-2.7902e-11
3.96158e-09
-3.00113e-11
3.99469e-09
-3.31167e-11
4.03223e-09
-3.75305e-11
4.07561e-09
-4.33847e-11
4.10779e-09
-1.05924e-10
4.04395e-09
-4.56349e-10
3.87142e-09
-9.10787e-10
3.61435e-09
-1.33328e-09
3.29803e-09
-1.70492e-09
2.96975e-09
-2.05727e-09
2.66293e-09
-2.40287e-09
2.29589e-09
-2.81848e-09
1.91291e-09
-3.10313e-09
1.60896e-09
-3.25497e-09
1.37378e-09
-3.37378e-09
1.20015e-09
-3.46765e-09
1.07336e-09
-3.53373e-09
9.81375e-10
-3.5755e-09
9.13229e-10
-3.59436e-09
8.58127e-10
-3.59025e-09
8.13036e-10
-3.56498e-09
7.69175e-10
-3.51829e-09
7.20075e-10
-3.44804e-09
6.61558e-10
-3.3535e-09
5.97155e-10
-3.23155e-09
5.49262e-10
-3.0815e-09
5.1391e-10
-2.90356e-09
5.36877e-10
-2.68335e-09
6.4357e-10
-2.41601e-09
8.8577e-10
-2.06845e-09
1.26114e-09
-1.63075e-09
1.77415e-09
-1.0411e-09
2.33342e-09
-3.04479e-10
2.81249e-09
4.99688e-10
3.15279e-09
1.26376e-09
3.37587e-09
1.94037e-09
3.5232e-09
2.37641e-09
3.6379e-09
2.73919e-09
3.73115e-09
2.96847e-09
3.81703e-09
3.15051e-09
3.89838e-09
3.29202e-09
3.97551e-09
3.39008e-09
4.05003e-09
3.46499e-09
4.12166e-09
3.52205e-09
4.19142e-09
3.56441e-09
4.25911e-09
3.58976e-09
4.32511e-09
3.60103e-09
4.38992e-09
3.59981e-09
4.4538e-09
3.58623e-09
4.51705e-09
3.55965e-09
4.57976e-09
3.51869e-09
4.6419e-09
3.45234e-09
4.70377e-09
3.37153e-09
4.76487e-09
3.26767e-09
4.826e-09
3.13157e-09
4.88397e-09
2.92537e-09
4.93978e-09
2.69712e-09
4.98894e-09
2.35506e-09
5.03024e-09
1.95495e-09
5.05488e-09
1.36898e-09
5.06089e-09
7.24492e-10
5.03887e-09
8.4106e-12
4.98393e-09
-7.33874e-10
4.89108e-09
-1.38234e-09
4.76858e-09
-1.87677e-09
4.62111e-09
-2.30481e-09
4.46917e-09
-2.60312e-09
4.3261e-09
-2.87869e-09
4.21115e-09
-3.07844e-09
4.12428e-09
-3.24384e-09
4.05997e-09
-3.38415e-09
4.0122e-09
-3.47673e-09
3.97141e-09
-3.54121e-09
3.92941e-09
-3.58155e-09
3.87862e-09
-3.60025e-09
3.81165e-09
-3.59883e-09
3.72578e-09
-3.58085e-09
3.62061e-09
-3.54971e-09
3.49722e-09
-3.50707e-09
3.35769e-09
-3.45283e-09
3.20323e-09
-3.38443e-09
3.03492e-09
-3.29353e-09
2.85695e-09
-3.1769e-09
2.66797e-09
-3.03807e-09
2.46909e-09
-2.86518e-09
2.29104e-09
-2.62738e-09
2.13306e-09
-2.36996e-09
2.05832e-09
-2.01512e-09
2.07755e-09
-1.6113e-09
2.2296e-09
-1.0857e-09
2.4956e-09
-4.31319e-10
2.78839e-09
2.92759e-10
3.02954e-09
1.02857e-09
3.1994e-09
1.72193e-09
3.30789e-09
2.22284e-09
3.38272e-09
2.61569e-09
3.4431e-09
2.8813e-09
3.50088e-09
3.10216e-09
3.55789e-09
3.24427e-09
3.6153e-09
3.35514e-09
3.6746e-09
3.44494e-09
3.73538e-09
3.50958e-09
3.79705e-09
3.55329e-09
3.85998e-09
3.58236e-09
3.92427e-09
3.59834e-09
3.99034e-09
3.60169e-09
4.05836e-09
3.59252e-09
4.12835e-09
3.56807e-09
4.20155e-09
3.52971e-09
4.2775e-09
3.47672e-09
4.35719e-09
3.40535e-09
4.4412e-09
3.31293e-09
4.52826e-09
3.17216e-09
4.61996e-09
3.01124e-09
4.71495e-09
2.80832e-09
4.8098e-09
2.49464e-09
4.90377e-09
2.1524e-09
4.98756e-09
1.6379e-09
5.05787e-09
1.04315e-09
5.10394e-09
3.59129e-10
5.11716e-09
-3.88897e-10
5.08825e-09
-1.09565e-09
5.02129e-09
-1.65456e-09
4.9198e-09
-2.11975e-09
4.79825e-09
-2.48117e-09
4.67423e-09
-2.76366e-09
4.56857e-09
-2.98629e-09
4.48374e-09
-3.18866e-09
4.42185e-09
-3.32768e-09
4.37613e-09
-3.43454e-09
4.33834e-09
-3.51206e-09
4.29881e-09
-3.56554e-09
4.24768e-09
-3.58845e-09
4.1636e-09
-3.57549e-09
4.03104e-09
-3.53475e-09
3.83543e-09
-3.4675e-09
3.51916e-09
-3.3305e-09
3.29641e-09
-2.72467e-09
3.10164e-09
-2.38959e-09
2.93472e-09
-2.11297e-09
2.8269e-09
-1.76902e-09
2.79581e-09
-1.39569e-09
2.8565e-09
-9.6181e-10
3.0009e-09
-4.9561e-10
3.15527e-09
-1.69068e-10
3.25047e-09
-9.52007e-11
3.30706e-09
-5.65905e-11
3.34026e-09
-3.31958e-11
3.3599e-09
-1.96443e-11
3.37227e-09
-1.2368e-11
3.38086e-09
-8.59163e-12
3.38754e-09
-6.68301e-12
3.39322e-09
-5.67578e-12
3.39819e-09
-4.97525e-12
3.40248e-09
-4.28869e-12
3.40595e-09
-3.46447e-12
3.40839e-09
-2.44466e-12
3.40958e-09
-1.18922e-12
3.40928e-09
3.01182e-13
3.40753e-09
1.74698e-12
3.40413e-09
3.40532e-12
3.39889e-09
5.23896e-12
3.39156e-09
7.32384e-12
3.38173e-09
9.8341e-12
3.36865e-09
1.30785e-11
3.35102e-09
1.76291e-11
3.32641e-09
2.46118e-11
3.29001e-09
3.64024e-11
3.23169e-09
5.83208e-11
3.12898e-09
1.02705e-10
2.92989e-09
1.99093e-10
2.50738e-09
4.22507e-10
1.56035e-09
9.47033e-10
1.56035e-09
-9.16925e-11
-9.6694e-10
1.68225e-10
-1.05413e-09
5.16888e-10
-8.28188e-10
8.24573e-10
-6.36227e-10
1.0829e-09
-4.90134e-10
1.29712e-09
-3.78272e-10
1.47413e-09
-2.97583e-10
1.62161e-09
-2.40726e-10
1.7462e-09
-1.9986e-10
1.853e-09
-1.69642e-10
1.94576e-09
-1.46764e-10
2.02735e-09
-1.29052e-10
2.09989e-09
-1.15037e-10
2.16505e-09
-1.03741e-10
2.22409e-09
-9.45084e-11
2.27806e-09
-8.68933e-11
2.32779e-09
-8.0591e-11
2.37401e-09
-7.53971e-11
2.41738e-09
-7.11821e-11
2.45849e-09
-6.78764e-11
2.49793e-09
-6.54624e-11
2.53632e-09
-6.39709e-11
2.57432e-09
-6.34831e-11
2.61268e-09
-6.41375e-11
2.65228e-09
-6.61432e-11
2.69418e-09
-6.98036e-11
2.73972e-09
-7.55553e-11
2.79063e-09
-8.40255e-11
2.84926e-09
-9.61614e-11
2.91905e-09
-1.13177e-10
2.98746e-09
-1.74329e-10
2.98194e-09
-4.50825e-10
2.89316e-09
-8.22014e-10
2.74794e-09
-1.18805e-09
2.57177e-09
-1.52875e-09
2.38956e-09
-1.87506e-09
2.21054e-09
-2.22385e-09
1.99508e-09
-2.60301e-09
1.76677e-09
-2.87483e-09
1.56889e-09
-3.05708e-09
1.40341e-09
-3.2083e-09
1.26739e-09
-3.33163e-09
1.15368e-09
-3.42001e-09
1.05606e-09
-3.47787e-09
9.68857e-10
-3.50715e-09
8.86739e-10
-3.50813e-09
8.06141e-10
-3.48439e-09
7.21937e-10
-3.43409e-09
6.28934e-10
-3.35504e-09
5.2438e-10
-3.24895e-09
4.09313e-10
-3.11648e-09
2.91148e-10
-2.96334e-09
1.69486e-10
-2.7819e-09
6.44676e-11
-2.57833e-09
-6.0514e-12
-2.34549e-09
-2.07385e-12
-2.07243e-09
1.13626e-10
-1.74645e-09
4.08817e-10
-1.3363e-09
9.09249e-10
-8.04908e-10
1.55476e-09
-1.45822e-10
2.22013e-09
5.98391e-10
2.78305e-09
1.37746e-09
3.17882e-09
1.98064e-09
3.45355e-09
2.46443e-09
3.63413e-09
2.78784e-09
3.76335e-09
3.02125e-09
3.86667e-09
3.18866e-09
3.95531e-09
3.30142e-09
4.03618e-09
3.38415e-09
4.11183e-09
3.44648e-09
4.18445e-09
3.49186e-09
4.25422e-09
3.52004e-09
4.32173e-09
3.53352e-09
4.38765e-09
3.53384e-09
4.45235e-09
3.52149e-09
4.51626e-09
3.49572e-09
4.57943e-09
3.45552e-09
4.64169e-09
3.39008e-09
4.70337e-09
3.30985e-09
4.76393e-09
3.20711e-09
4.82399e-09
3.07152e-09
4.87989e-09
2.86949e-09
4.93275e-09
2.64426e-09
4.97674e-09
2.31108e-09
5.00988e-09
1.9218e-09
5.01995e-09
1.3589e-09
5.00271e-09
7.41737e-10
4.94963e-09
6.14934e-11
4.86025e-09
-6.445e-10
4.73971e-09
-1.2618e-09
4.60708e-09
-1.74415e-09
4.47521e-09
-2.17294e-09
4.36168e-09
-2.4896e-09
4.26923e-09
-2.78624e-09
4.19761e-09
-3.00681e-09
4.14166e-09
-3.18788e-09
4.09321e-09
-3.3357e-09
4.04431e-09
-3.42784e-09
3.98823e-09
-3.48514e-09
3.91831e-09
-3.51164e-09
3.82848e-09
-3.51041e-09
3.71883e-09
-3.48917e-09
3.59163e-09
-3.45366e-09
3.44945e-09
-3.40753e-09
3.29406e-09
-3.35168e-09
3.12635e-09
-3.28512e-09
2.94618e-09
-3.20427e-09
2.75326e-09
-3.10061e-09
2.54921e-09
-2.97285e-09
2.33357e-09
-2.82243e-09
2.11038e-09
-2.642e-09
1.89537e-09
-2.41236e-09
1.69294e-09
-2.16753e-09
1.53546e-09
-1.85764e-09
1.44018e-09
-1.51602e-09
1.44985e-09
-1.09537e-09
1.60589e-09
-5.87363e-10
1.90886e-09
-1.02174e-11
2.30542e-09
6.32013e-10
2.69705e-09
1.33031e-09
3.00195e-09
1.91794e-09
3.21429e-09
2.40334e-09
3.35388e-09
2.74169e-09
3.45329e-09
3.00272e-09
3.53127e-09
3.16626e-09
3.59951e-09
3.2869e-09
3.66482e-09
3.37967e-09
3.72922e-09
3.44522e-09
3.79315e-09
3.48939e-09
3.85752e-09
3.518e-09
3.92272e-09
3.53315e-09
3.98933e-09
3.53507e-09
4.05759e-09
3.52425e-09
4.12754e-09
3.49811e-09
4.20045e-09
3.45679e-09
4.27587e-09
3.40129e-09
4.35476e-09
3.32646e-09
4.43758e-09
3.23011e-09
4.52277e-09
3.08698e-09
4.61189e-09
2.92213e-09
4.70331e-09
2.71691e-09
4.79239e-09
2.40556e-09
4.87812e-09
2.06667e-09
4.94782e-09
1.56819e-09
4.99574e-09
9.95227e-10
5.00937e-09
3.45501e-10
4.98238e-09
-3.61909e-10
4.91444e-09
-1.02771e-09
4.82263e-09
-1.56275e-09
4.72155e-09
-2.01867e-09
4.63012e-09
-2.38975e-09
4.55701e-09
-2.69054e-09
4.50328e-09
-2.93255e-09
4.46041e-09
-3.14579e-09
4.42325e-09
-3.29052e-09
4.38276e-09
-3.39404e-09
4.32899e-09
-3.4583e-09
4.25213e-09
-3.48869e-09
4.14552e-09
-3.48185e-09
3.9922e-09
-3.42217e-09
3.78373e-09
-3.32627e-09
3.52245e-09
-3.20622e-09
3.22019e-09
-3.02827e-09
2.98212e-09
-2.48662e-09
2.76943e-09
-2.1769e-09
2.57308e-09
-1.91661e-09
2.40755e-09
-1.60349e-09
2.29066e-09
-1.27879e-09
2.24051e-09
-9.11653e-10
2.27101e-09
-5.26106e-10
2.35076e-09
-2.48822e-10
2.41559e-09
-1.60027e-10
2.46092e-09
-1.01922e-10
2.48898e-09
-6.12543e-11
2.50428e-09
-3.49437e-11
2.51122e-09
-1.93066e-11
2.5131e-09
-1.04738e-11
2.51195e-09
-5.53334e-12
2.50879e-09
-2.51735e-12
2.50394e-09
-1.21935e-13
2.49726e-09
2.38783e-12
2.4884e-09
5.39987e-12
2.4769e-09
9.05381e-12
2.46236e-09
1.33499e-11
2.44446e-09
1.82033e-11
2.42273e-09
2.34759e-11
2.3969e-09
2.92297e-11
2.36659e-09
3.55502e-11
2.33121e-09
4.27043e-11
2.28983e-09
5.12203e-11
2.24088e-09
6.202e-11
2.18178e-09
7.673e-11
2.10801e-09
9.83873e-11
2.01136e-09
1.33047e-10
1.87626e-09
1.93423e-10
1.67237e-09
3.06593e-10
1.34401e-09
5.27452e-10
8.1924e-10
9.47283e-10
1.67137e-10
1.59913e-09
1.72748e-09
-2.16714e-10
-7.50226e-10
-2.41267e-10
-1.02957e-09
-1.2644e-10
-9.43016e-10
3.61763e-11
-7.98843e-10
2.08404e-10
-6.62361e-10
3.76185e-10
-5.46054e-10
5.32089e-10
-4.53487e-10
6.7357e-10
-3.82207e-10
8.00849e-10
-3.27138e-10
9.15205e-10
-2.83998e-10
1.01815e-09
-2.49709e-10
1.11116e-09
-2.2206e-10
1.19557e-09
-1.99446e-10
1.27255e-09
-1.80724e-10
1.34312e-09
-1.65078e-10
1.40815e-09
-1.51928e-10
1.46843e-09
-1.40864e-10
1.52464e-09
-1.31606e-10
1.57743e-09
-1.23977e-10
1.62744e-09
-1.17888e-10
1.67531e-09
-1.13328e-10
1.7217e-09
-1.10363e-10
1.76736e-09
-1.09141e-10
1.81312e-09
-1.09901e-10
1.85997e-09
-1.12995e-10
1.90909e-09
-1.1892e-10
1.9619e-09
-1.28367e-10
2.02018e-09
-1.42301e-10
2.08614e-09
-1.62119e-10
2.16263e-09
-1.89674e-10
2.24259e-09
-2.54286e-10
2.27546e-09
-4.83699e-10
2.24936e-09
-7.95911e-10
2.17902e-09
-1.11771e-09
2.07984e-09
-1.42957e-09
1.96779e-09
-1.76301e-09
1.84746e-09
-2.10353e-09
1.69774e-09
-2.45329e-09
1.54012e-09
-2.71721e-09
1.40089e-09
-2.91786e-09
1.28026e-09
-3.08766e-09
1.17545e-09
-3.22682e-09
1.08233e-09
-3.32689e-09
9.97279e-10
-3.39282e-09
9.16592e-10
-3.42646e-09
8.36676e-10
-3.4282e-09
7.53672e-10
-3.40138e-09
6.63054e-10
-3.34348e-09
5.62636e-10
-3.25463e-09
4.501e-10
-3.13641e-09
3.26234e-10
-2.99261e-09
1.93894e-10
-2.831e-09
5.47513e-11
-2.64275e-09
-8.04517e-11
-2.44313e-09
-1.99882e-10
-2.22606e-09
-2.77364e-10
-1.99495e-09
-2.88114e-10
-1.7357e-09
-1.85595e-10
-1.43881e-09
7.89457e-11
-1.06945e-09
5.28487e-10
-5.95359e-10
1.13032e-09
-3.44225e-12
1.80738e-09
7.00399e-10
2.41405e-09
1.37397e-09
2.90701e-09
1.97146e-09
3.27062e-09
2.4242e-09
3.52866e-09
2.76318e-09
3.71348e-09
3.00382e-09
3.85135e-09
3.16355e-09
3.96144e-09
3.27409e-09
4.05477e-09
3.35321e-09
4.13876e-09
3.40791e-09
4.21619e-09
3.44261e-09
4.28898e-09
3.46069e-09
4.35849e-09
3.46428e-09
4.42543e-09
3.45452e-09
4.49045e-09
3.43068e-09
4.55388e-09
3.39208e-09
4.61547e-09
3.32849e-09
4.67564e-09
3.24969e-09
4.73378e-09
3.14898e-09
4.79021e-09
3.01511e-09
4.84048e-09
2.81922e-09
4.88568e-09
2.59906e-09
4.91909e-09
2.27767e-09
4.93854e-09
1.90235e-09
4.93144e-09
1.366e-09
4.89546e-09
7.77721e-10
4.8253e-09
1.3165e-10
4.72577e-09
-5.4497e-10
4.60791e-09
-1.14394e-09
4.49274e-09
-1.62897e-09
4.3902e-09
-2.0704e-09
4.31005e-09
-2.40945e-09
4.2478e-09
-2.72398e-09
4.19862e-09
-2.95763e-09
4.15365e-09
-3.14292e-09
4.1045e-09
-3.28653e-09
4.04335e-09
-3.36669e-09
3.96475e-09
-3.40654e-09
3.8653e-09
-3.4122e-09
3.74645e-09
-3.39156e-09
3.6118e-09
-3.35451e-09
3.46379e-09
-3.30564e-09
3.30482e-09
-3.24856e-09
3.13591e-09
-3.18277e-09
2.95702e-09
-3.10624e-09
2.76764e-09
-3.01489e-09
2.56754e-09
-2.9005e-09
2.3584e-09
-2.76371e-09
2.14146e-09
-2.60548e-09
1.92163e-09
-2.42217e-09
1.70949e-09
-2.20022e-09
1.50875e-09
-1.96679e-09
1.33548e-09
-1.68436e-09
1.20054e-09
-1.38109e-09
1.12837e-09
-1.02319e-09
1.15406e-09
-6.13052e-10
1.30545e-09
-1.6161e-10
1.59575e-09
3.41718e-10
1.9946e-09
9.31463e-10
2.40401e-09
1.50852e-09
2.76169e-09
2.04566e-09
3.03687e-09
2.4665e-09
3.23953e-09
2.80005e-09
3.38575e-09
3.02002e-09
3.49634e-09
3.1763e-09
3.58732e-09
3.28869e-09
3.6677e-09
3.36485e-09
3.74201e-09
3.41507e-09
3.81328e-09
3.44671e-09
3.88307e-09
3.46334e-09
3.95261e-09
3.46552e-09
4.02252e-09
3.45433e-09
4.09304e-09
3.42759e-09
4.16555e-09
3.38429e-09
4.23969e-09
3.32716e-09
4.31634e-09
3.24983e-09
4.39583e-09
3.15062e-09
4.47612e-09
3.00671e-09
4.5587e-09
2.83954e-09
4.64154e-09
2.63408e-09
4.71867e-09
2.32842e-09
4.78921e-09
1.99612e-09
4.83958e-09
1.51783e-09
4.86524e-09
9.69566e-10
4.85659e-09
3.54153e-10
4.81349e-09
-3.18807e-10
4.74343e-09
-9.57655e-10
4.6677e-09
-1.48701e-09
4.59912e-09
-1.95009e-09
4.54808e-09
-2.3387e-09
4.51306e-09
-2.65552e-09
4.48744e-09
-2.90694e-09
4.45964e-09
-3.11798e-09
4.42096e-09
-3.25185e-09
4.36271e-09
-3.33579e-09
4.27779e-09
-3.37338e-09
4.16163e-09
-3.37253e-09
4.01147e-09
-3.33168e-09
3.81654e-09
-3.22724e-09
3.57763e-09
-3.08737e-09
3.30948e-09
-2.93807e-09
3.03455e-09
-2.75334e-09
2.81128e-09
-2.26336e-09
2.60671e-09
-1.97233e-09
2.41383e-09
-1.72373e-09
2.24136e-09
-1.43102e-09
2.10224e-09
-1.13967e-09
2.00697e-09
-8.16387e-10
1.96641e-09
-4.8554e-10
1.96923e-09
-2.51648e-10
1.97962e-09
-1.70415e-10
1.98916e-09
-1.11466e-10
1.99489e-09
-6.69757e-11
1.99609e-09
-3.61463e-11
1.99334e-09
-1.65558e-11
1.9876e-09
-4.73126e-12
1.97958e-09
2.48464e-12
1.96954e-09
7.51568e-12
1.95736e-09
1.20661e-11
1.94257e-09
1.717e-11
1.92463e-09
2.33478e-11
1.90292e-09
3.07647e-11
1.8769e-09
3.93698e-11
1.84608e-09
4.90192e-11
1.80997e-09
5.95854e-11
1.76811e-09
7.10918e-11
1.71988e-09
8.37749e-11
1.66439e-09
9.81932e-11
1.60024e-09
1.1537e-10
1.52523e-09
1.37035e-10
1.43585e-09
1.66109e-10
1.3265e-09
2.07741e-10
1.18809e-09
2.71456e-10
1.00611e-09
3.75401e-10
7.59257e-10
5.53446e-10
4.26239e-10
8.60472e-10
3.22891e-11
1.34123e-09
-2.05193e-10
1.83662e-09
1.52229e-09
-1.78401e-10
-5.71825e-10
-2.89216e-10
-9.1876e-10
-2.91767e-10
-9.40465e-10
-2.32328e-10
-8.58282e-10
-1.40322e-10
-7.54366e-10
-3.16314e-11
-6.54745e-10
8.30269e-11
-5.68146e-10
1.96606e-10
-4.95786e-10
3.05525e-10
-4.36058e-10
4.08227e-10
-3.867e-10
5.04195e-10
-3.45677e-10
5.93467e-10
-3.11331e-10
6.76368e-10
-2.82348e-10
7.5336e-10
-2.57716e-10
8.2495e-10
-2.36669e-10
8.91659e-10
-2.18637e-10
9.54e-10
-2.03206e-10
1.01248e-09
-1.90091e-10
1.06762e-09
-1.79116e-10
1.11994e-09
-1.7021e-10
1.17001e-09
-1.63393e-10
1.21843e-09
-1.58786e-10
1.26591e-09
-1.56615e-10
1.31323e-09
-1.57228e-10
1.36136e-09
-1.61118e-10
1.4114e-09
-1.68958e-10
1.46469e-09
-1.81659e-10
1.52283e-09
-2.00443e-10
1.5877e-09
-2.26984e-10
1.66147e-09
-2.63451e-10
1.73966e-09
-3.32477e-10
1.78633e-09
-5.30364e-10
1.78989e-09
-7.9947e-10
1.75851e-09
-1.08633e-09
1.70267e-09
-1.37373e-09
1.63332e-09
-1.69366e-09
1.55354e-09
-2.02375e-09
1.45032e-09
-2.35006e-09
1.3409e-09
-2.60779e-09
1.24225e-09
-2.81921e-09
1.15345e-09
-2.99886e-09
1.07219e-09
-3.14556e-09
9.96096e-10
-3.2508e-09
9.22966e-10
-3.31969e-09
8.50119e-10
-3.35362e-09
7.74698e-10
-3.35278e-09
6.93454e-10
-3.32014e-09
6.03291e-10
-3.25332e-09
5.02769e-10
-3.15411e-09
3.91106e-10
-3.02475e-09
2.69458e-10
-2.87096e-09
1.39762e-10
-2.7013e-09
5.0916e-12
-2.50808e-09
-1.27622e-10
-2.31042e-09
-2.50457e-10
-2.10323e-09
-3.49687e-10
-1.89572e-09
-4.08928e-10
-1.67646e-09
-4.04489e-10
-1.44325e-09
-3.03708e-10
-1.17023e-09
-6.53456e-11
-8.33719e-10
3.35576e-10
-4.04364e-10
8.92685e-10
1.43288e-10
1.51575e-09
7.50895e-10
2.1183e-09
1.3689e-09
2.63475e-09
1.90772e-09
3.04545e-09
2.35247e-09
3.35692e-09
2.69237e-09
3.58882e-09
2.9317e-09
3.76402e-09
3.09895e-09
3.90084e-09
3.21644e-09
4.01359e-09
3.29518e-09
4.11032e-09
3.34585e-09
4.1963e-09
3.37467e-09
4.27495e-09
3.3856e-09
4.34821e-09
3.38123e-09
4.41739e-09
3.3615e-09
4.48316e-09
3.32632e-09
4.54541e-09
3.26625e-09
4.60479e-09
3.19033e-09
4.66077e-09
3.09301e-09
4.71359e-09
2.96231e-09
4.75863e-09
2.77418e-09
4.79706e-09
2.56062e-09
4.82185e-09
2.25287e-09
4.83127e-09
1.89293e-09
4.81333e-09
1.38394e-09
4.76845e-09
8.22598e-10
4.69493e-09
2.05172e-10
4.60141e-09
-4.51447e-10
4.50093e-09
-1.04346e-09
4.41215e-09
-1.54019e-09
4.33984e-09
-1.99809e-09
4.28682e-09
-2.35643e-09
4.244e-09
-2.68117e-09
4.20397e-09
-2.9176e-09
4.15597e-09
-3.0949e-09
4.09187e-09
-3.22244e-09
4.00689e-09
-3.28171e-09
3.90065e-09
-3.30031e-09
3.77449e-09
-3.28604e-09
3.63246e-09
-3.24954e-09
3.47865e-09
-3.20071e-09
3.31608e-09
-3.14306e-09
3.1465e-09
-3.07899e-09
2.96999e-09
-3.00626e-09
2.78586e-09
-2.92211e-09
2.59366e-09
-2.82269e-09
2.39382e-09
-2.70066e-09
2.18886e-09
-2.55875e-09
1.98138e-09
-2.398e-09
1.77624e-09
-2.21703e-09
1.5814e-09
-2.00538e-09
1.39931e-09
-1.7847e-09
1.2382e-09
-1.52325e-09
1.10264e-09
-1.24553e-09
1.00387e-09
-9.24419e-10
9.61071e-10
-5.70257e-10
9.96982e-10
-1.97521e-10
1.14221e-09
1.96493e-10
1.41933e-09
6.5434e-10
1.78685e-09
1.14101e-09
2.18255e-09
1.64996e-09
2.54433e-09
2.10472e-09
2.84638e-09
2.498e-09
3.08103e-09
2.78537e-09
3.26047e-09
2.99686e-09
3.40084e-09
3.14832e-09
3.5152e-09
3.25051e-09
3.61275e-09
3.31753e-09
3.70004e-09
3.35942e-09
3.78097e-09
3.3824e-09
3.85817e-09
3.38831e-09
3.93317e-09
3.37932e-09
4.00672e-09
3.35403e-09
4.08043e-09
3.31058e-09
4.15424e-09
3.25336e-09
4.22904e-09
3.17503e-09
4.30521e-09
3.07446e-09
4.3804e-09
2.93153e-09
4.45611e-09
2.76383e-09
4.53024e-09
2.55994e-09
4.59641e-09
2.26225e-09
4.65431e-09
1.93823e-09
4.69101e-09
1.48113e-09
4.70464e-09
9.55931e-10
4.69031e-09
3.68483e-10
4.65266e-09
-2.81158e-10
4.60243e-09
-9.0742e-10
4.55872e-09
-1.44331e-09
4.52788e-09
-1.91924e-09
4.5114e-09
-2.32223e-09
4.50051e-09
-2.64463e-09
4.48526e-09
-2.89169e-09
4.45186e-09
-3.08458e-09
4.39303e-09
-3.19302e-09
4.30452e-09
-3.24728e-09
4.18287e-09
-3.25174e-09
4.02839e-09
-3.21805e-09
3.84317e-09
-3.14646e-09
3.62339e-09
-3.00745e-09
3.37613e-09
-2.84011e-09
3.11886e-09
-2.68079e-09
2.87053e-09
-2.505e-09
2.66561e-09
-2.05844e-09
2.47701e-09
-1.78374e-09
2.2998e-09
-1.54652e-09
2.1402e-09
-1.27142e-09
2.00803e-09
-1.0075e-09
1.90848e-09
-7.16836e-10
1.84647e-09
-4.23527e-10
1.81542e-09
-2.20595e-10
1.79582e-09
-1.50816e-10
1.78192e-09
-9.75634e-11
1.77068e-09
-5.57432e-11
1.76005e-09
-2.55152e-11
1.74881e-09
-5.30775e-12
1.73634e-09
7.73637e-12
1.72225e-09
1.65683e-11
1.70612e-09
2.36471e-11
1.68742e-09
3.07706e-11
1.66552e-09
3.90689e-11
1.63977e-09
4.91014e-11
1.60951e-09
6.10187e-11
1.57416e-09
7.47203e-11
1.53317e-09
9.00141e-11
1.48598e-09
1.06769e-10
1.432e-09
1.25071e-10
1.37043e-09
1.45353e-10
1.30008e-09
1.68534e-10
1.21924e-09
1.96216e-10
1.12526e-09
2.31009e-10
1.01424e-09
2.77136e-10
8.80407e-10
3.41571e-10
7.15779e-10
4.36084e-10
5.1077e-10
5.8041e-10
2.59148e-10
8.05068e-10
-2.5024e-11
1.14464e-09
-2.60496e-10
1.57671e-09
-2.60244e-10
1.83636e-09
1.26205e-09
-1.27999e-10
-4.43826e-10
-2.45258e-10
-8.01501e-10
-2.97489e-10
-8.88234e-10
-2.94773e-10
-8.60998e-10
-2.55467e-10
-7.93673e-10
-1.9277e-10
-7.17442e-10
-1.16321e-10
-6.44595e-10
-3.33123e-11
-5.78794e-10
5.1553e-11
-5.20923e-10
1.35418e-10
-4.70565e-10
2.16633e-10
-4.26892e-10
2.94306e-10
-3.89004e-10
3.68023e-10
-3.56064e-10
4.37665e-10
-3.27359e-10
5.03301e-10
-3.02304e-10
5.65108e-10
-2.80444e-10
6.23338e-10
-2.61436e-10
6.78296e-10
-2.45049e-10
7.30333e-10
-2.31154e-10
7.79848e-10
-2.19724e-10
8.27296e-10
-2.1084e-10
8.73203e-10
-2.04693e-10
9.18188e-10
-2.016e-10
9.62981e-10
-2.02021e-10
1.00845e-09
-2.06591e-10
1.05565e-09
-2.1615e-10
1.10578e-09
-2.31796e-10
1.1603e-09
-2.54958e-10
1.22081e-09
-2.87493e-10
1.28908e-09
-3.31721e-10
1.36188e-09
-4.05283e-10
1.41278e-09
-5.81262e-10
1.43256e-09
-8.19253e-10
1.42668e-09
-1.08045e-09
1.40244e-09
-1.34949e-09
1.36636e-09
-1.65758e-09
1.31966e-09
-1.97705e-09
1.25293e-09
-2.28333e-09
1.17923e-09
-2.53409e-09
1.11011e-09
-2.75009e-09
1.04465e-09
-2.93341e-09
9.8107e-10
-3.08197e-09
9.18278e-10
-3.18801e-09
8.54965e-10
-3.25638e-09
7.89053e-10
-3.28771e-09
7.18221e-10
-3.28195e-09
6.39971e-10
-3.24189e-09
5.52391e-10
-3.16574e-09
4.54808e-10
-3.05653e-09
3.4747e-10
-2.91741e-09
2.31952e-10
-2.75545e-09
1.1028e-10
-2.57962e-09
-1.38523e-11
-2.38395e-09
-1.35552e-10
-2.18872e-09
-2.4942e-10
-1.98936e-09
-3.48323e-10
-1.79682e-09
-4.23635e-10
-1.60115e-09
-4.60861e-10
-1.40603e-09
-4.42114e-10
-1.18897e-09
-3.39652e-10
-9.3618e-10
-1.19662e-10
-6.24357e-10
2.48681e-10
-2.25064e-10
7.41996e-10
2.57569e-10
1.30898e-09
8.01906e-10
1.87259e-09
1.34412e-09
2.38298e-09
1.84209e-09
2.81079e-09
2.2646e-09
3.15254e-09
2.59002e-09
3.4189e-09
2.83263e-09
3.62554e-09
3.00981e-09
3.78909e-09
3.13161e-09
3.92196e-09
3.21295e-09
4.03347e-09
3.26312e-09
4.13019e-09
3.28886e-09
4.21631e-09
3.29511e-09
4.29458e-09
3.28324e-09
4.36656e-09
3.25436e-09
4.43264e-09
3.20018e-09
4.49388e-09
3.1291e-09
4.55007e-09
3.03682e-09
4.60147e-09
2.9109e-09
4.64363e-09
2.73201e-09
4.67797e-09
2.52627e-09
4.69779e-09
2.23306e-09
4.70222e-09
1.88849e-09
4.68102e-09
1.40514e-09
4.63712e-09
8.66502e-10
4.57193e-09
2.70368e-10
4.496e-09
-3.7552e-10
4.42127e-09
-9.68736e-10
4.36165e-09
-1.48057e-09
4.31596e-09
-1.9524e-09
4.28155e-09
-2.32203e-09
4.24642e-09
-2.64604e-09
4.20143e-09
-2.87262e-09
4.13704e-09
-3.03052e-09
4.04897e-09
-3.13436e-09
3.93696e-09
-3.1697e-09
3.804e-09
-3.16734e-09
3.65467e-09
-3.13671e-09
3.49439e-09
-3.08927e-09
3.32748e-09
-3.0338e-09
3.15629e-09
-2.97187e-09
2.98137e-09
-2.90407e-09
2.80189e-09
-2.82678e-09
2.61702e-09
-2.73725e-09
2.42684e-09
-2.63251e-09
2.2327e-09
-2.50652e-09
2.03789e-09
-2.36394e-09
1.84556e-09
-2.20567e-09
1.66016e-09
-2.03163e-09
1.48704e-09
-1.83226e-09
1.32754e-09
-1.62521e-09
1.18577e-09
-1.38148e-09
1.06297e-09
-1.12273e-09
9.63298e-10
-8.24748e-10
8.95451e-10
-5.0241e-10
8.72502e-10
-1.74572e-10
9.1689e-10
1.52107e-10
1.06195e-09
5.09279e-10
1.31472e-09
8.88239e-10
1.64895e-09
1.31572e-09
2.01152e-09
1.74215e-09
2.35962e-09
2.1499e-09
2.66127e-09
2.48375e-09
2.90923e-09
2.74893e-09
3.10902e-09
2.94854e-09
3.27023e-09
3.08931e-09
3.40288e-09
3.18488e-09
3.51586e-09
3.24644e-09
3.61542e-09
3.28283e-09
3.70603e-09
3.2977e-09
3.79052e-09
3.29483e-09
3.87054e-09
3.27402e-09
3.94816e-09
3.23296e-09
4.0238e-09
3.17772e-09
4.09856e-09
3.10027e-09
4.17294e-09
3.00008e-09
4.24465e-09
2.85981e-09
4.31533e-09
2.69315e-09
4.38318e-09
2.49209e-09
4.44217e-09
2.20326e-09
4.49308e-09
1.88732e-09
4.52507e-09
1.44914e-09
4.5393e-09
9.41696e-10
4.53482e-09
3.72968e-10
4.51889e-09
-2.65228e-10
4.50112e-09
-8.89655e-10
4.49447e-09
-1.43665e-09
4.49713e-09
-1.92191e-09
4.50312e-09
-2.32821e-09
4.49989e-09
-2.6414e-09
4.47548e-09
-2.86728e-09
4.41929e-09
-3.0284e-09
4.32921e-09
-3.10294e-09
4.20424e-09
-3.12231e-09
4.04667e-09
-3.09418e-09
3.8614e-09
-3.03279e-09
3.65487e-09
-2.93993e-09
3.42758e-09
-2.78017e-09
3.18791e-09
-2.60044e-09
2.95068e-09
-2.44355e-09
2.72651e-09
-2.28081e-09
2.53995e-09
-1.87188e-09
2.36824e-09
-1.61202e-09
2.20805e-09
-1.38633e-09
2.06446e-09
-1.12784e-09
1.94576e-09
-8.88802e-10
1.85492e-09
-6.25989e-10
1.79359e-09
-3.62199e-10
1.75508e-09
-1.82086e-10
1.72628e-09
-1.22021e-10
1.70385e-09
-7.51292e-11
1.68551e-09
-3.74067e-11
1.66917e-09
-9.16914e-12
1.65308e-09
1.07832e-11
1.63604e-09
2.47765e-11
1.61719e-09
3.54183e-11
1.59583e-09
4.49988e-11
1.57136e-09
5.52442e-11
1.54316e-09
6.72708e-11
1.51062e-09
8.16431e-11
1.47314e-09
9.84938e-11
1.43017e-09
1.17695e-10
1.38114e-09
1.39043e-10
1.32547e-09
1.62441e-10
1.26245e-09
1.88083e-10
1.19118e-09
2.16624e-10
1.11035e-09
2.49363e-10
1.0181e-09
2.88475e-10
9.11713e-10
3.37392e-10
7.8743e-10
4.01419e-10
6.4027e-10
4.88731e-10
4.64646e-10
6.11709e-10
2.57171e-10
7.87885e-10
2.4871e-11
1.03737e-09
-1.95962e-10
1.36548e-09
-3.10896e-10
1.69164e-09
-2.24063e-10
1.74953e-09
1.03799e-09
-8.82582e-11
-3.55568e-10
-1.90034e-10
-6.99725e-10
-2.56273e-10
-8.21995e-10
-2.82499e-10
-8.34772e-10
-2.76023e-10
-8.00149e-10
-2.45484e-10
-7.4798e-10
-1.99146e-10
-6.90933e-10
-1.42936e-10
-6.35005e-10
-8.13048e-11
-5.82555e-10
-1.73671e-11
-5.34503e-10
4.67869e-11
-4.91046e-10
1.09803e-10
-4.5202e-10
1.70851e-10
-4.17113e-10
2.29456e-10
-3.85964e-10
2.85387e-10
-3.58235e-10
3.38578e-10
-3.33635e-10
3.89088e-10
-3.11946e-10
4.37064e-10
-2.93025e-10
4.82731e-10
-2.76821e-10
5.26387e-10
-2.6338e-10
5.68406e-10
-2.52859e-10
6.09249e-10
-2.45536e-10
6.4948e-10
-2.41831e-10
6.89785e-10
-2.42326e-10
7.30991e-10
-2.47798e-10
7.74089e-10
-2.59247e-10
8.2024e-10
-2.77948e-10
8.70781e-10
-3.05499e-10
9.27185e-10
-3.43897e-10
9.90992e-10
-3.95527e-10
1.05991e-09
-4.74198e-10
1.11431e-09
-6.35661e-10
1.14729e-09
-8.52238e-10
1.16239e-09
-1.09554e-09
1.16387e-09
-1.35097e-09
1.15441e-09
-1.64813e-09
1.1336e-09
-1.95624e-09
1.09437e-09
-2.24411e-09
1.04674e-09
-2.48645e-09
9.99027e-10
-2.70238e-09
9.50861e-10
-2.88525e-09
9.00831e-10
-3.03194e-09
8.4873e-10
-3.13591e-09
7.93779e-10
-3.20143e-09
7.34244e-10
-3.22817e-09
6.68211e-10
-3.21592e-09
5.93864e-10
-3.16754e-09
5.10143e-10
-3.08202e-09
4.17065e-10
-2.96345e-09
3.15614e-10
-2.81596e-09
2.07755e-10
-2.64759e-09
9.57243e-11
-2.46759e-09
-1.66639e-11
-2.27156e-09
-1.25811e-10
-2.07957e-09
-2.27906e-10
-1.88726e-09
-3.1916e-10
-1.70557e-09
-3.94762e-10
-1.52555e-09
-4.4804e-10
-1.35275e-09
-4.67679e-10
-1.16933e-09
-4.36243e-10
-9.67617e-10
-3.30627e-10
-7.29977e-10
-1.18932e-10
-4.36767e-10
2.11387e-10
-7.2757e-11
6.52279e-10
3.60998e-10
1.15686e-09
8.39537e-10
1.67532e-09
1.32364e-09
2.1621e-09
1.77785e-09
2.58585e-09
2.16629e-09
2.94027e-09
2.47822e-09
3.22718e-09
2.72288e-09
3.45753e-09
2.90122e-09
3.64284e-09
3.02762e-09
3.79401e-09
3.11194e-09
3.92014e-09
3.16274e-09
4.02792e-09
3.18733e-09
4.12208e-09
3.18909e-09
4.20567e-09
3.17078e-09
4.28001e-09
3.12586e-09
4.3469e-09
3.06222e-09
4.40671e-09
2.97701e-09
4.45997e-09
2.85763e-09
4.50274e-09
2.68923e-09
4.53692e-09
2.49208e-09
4.55667e-09
2.2133e-09
4.56237e-09
1.8828e-09
4.54598e-09
1.42154e-09
4.51259e-09
8.99895e-10
4.46548e-09
3.17475e-10
4.41486e-09
-3.24899e-10
4.369e-09
-9.22876e-10
4.33591e-09
-1.44748e-09
4.30892e-09
-1.92541e-09
4.28158e-09
-2.29469e-09
4.24049e-09
-2.60495e-09
4.17812e-09
-2.81024e-09
4.08896e-09
-2.94136e-09
3.97269e-09
-3.01811e-09
3.83306e-09
-3.03006e-09
3.67643e-09
-3.01071e-09
3.50931e-09
-2.96958e-09
3.33715e-09
-2.91711e-09
3.16327e-09
-2.85992e-09
2.98863e-09
-2.79723e-09
2.81263e-09
-2.72807e-09
2.63405e-09
-2.6482e-09
2.45239e-09
-2.55559e-09
2.26853e-09
-2.44865e-09
2.08459e-09
-2.32258e-09
1.90412e-09
-2.18347e-09
1.7301e-09
-2.03165e-09
1.56595e-09
-1.86748e-09
1.41505e-09
-1.68135e-09
1.27765e-09
-1.48782e-09
1.15576e-09
-1.25959e-09
1.04926e-09
-1.01623e-09
9.5931e-10
-7.348e-10
8.89405e-10
-4.32505e-10
8.44042e-10
-1.29208e-10
8.36437e-10
1.59713e-10
8.90234e-10
4.5548e-10
1.02855e-09
7.49918e-10
1.2587e-09
1.08557e-09
1.5553e-09
1.44554e-09
1.8837e-09
1.8215e-09
2.20423e-09
2.16322e-09
2.49339e-09
2.45978e-09
2.74199e-09
2.69994e-09
2.95002e-09
2.88128e-09
3.12277e-09
3.01213e-09
3.26798e-09
3.10123e-09
3.39255e-09
3.15826e-09
3.50208e-09
3.18817e-09
3.6007e-09
3.19621e-09
3.69106e-09
3.18367e-09
3.77585e-09
3.14817e-09
3.85621e-09
3.09737e-09
3.93353e-09
3.02296e-09
4.00864e-09
2.92496e-09
4.07967e-09
2.78878e-09
4.14854e-09
2.62427e-09
4.21418e-09
2.42645e-09
4.27162e-09
2.14582e-09
4.32313e-09
1.83581e-09
4.36068e-09
1.41159e-09
4.3881e-09
9.14268e-10
4.40669e-09
3.54386e-10
4.42313e-09
-2.81672e-10
4.44208e-09
-9.08607e-10
4.46822e-09
-1.46279e-09
4.49237e-09
-1.94606e-09
4.50434e-09
-2.34017e-09
4.48919e-09
-2.62625e-09
4.43939e-09
-2.81748e-09
4.35019e-09
-2.93921e-09
4.22327e-09
-2.976e-09
4.06339e-09
-2.96244e-09
3.87752e-09
-2.90831e-09
3.67375e-09
-2.82902e-09
3.46039e-09
-2.72658e-09
3.23888e-09
-2.55866e-09
3.01535e-09
-2.37691e-09
2.79973e-09
-2.22793e-09
2.59664e-09
-2.07772e-09
2.42658e-09
-1.70182e-09
2.2702e-09
-1.45563e-09
2.12535e-09
-1.24149e-09
1.9966e-09
-9.99084e-10
1.8914e-09
-7.836e-10
1.81184e-09
-5.46438e-10
1.75821e-09
-3.08567e-10
1.7232e-09
-1.47076e-10
1.69568e-09
-9.44986e-11
1.6733e-09
-5.27462e-11
1.65419e-09
-1.82994e-11
1.63644e-09
8.58035e-12
1.61835e-09
2.8868e-11
1.59865e-09
4.44794e-11
1.57642e-09
5.76488e-11
1.55099e-09
7.04267e-11
1.52183e-09
8.4412e-11
1.48843e-09
1.00665e-10
1.45034e-09
1.19733e-10
1.40708e-09
1.41752e-10
1.35817e-09
1.66611e-10
1.30307e-09
1.94138e-10
1.24121e-09
2.24304e-10
1.17186e-09
2.57432e-10
1.09409e-09
2.94396e-10
1.00662e-09
3.36832e-10
9.07694e-10
3.87401e-10
7.94908e-10