/*--------------------------------*- C++ -*----------------------------------*\
| =========                 |                                                 |
| \\      /  F ield         | OpenFOAM: The Open Source CFD Toolbox           |
|  \\    /   O peration     | Version:  2506                                  |
|   \\  /    A nd           | Website:  www.openfoam.com                      |
|    \\/     M anipulation  |                                                 |
\*---------------------------------------------------------------------------*/
FoamFile
{
    version     2.0;
    format      ascii;
    arch        "LSB;label=32;scalar=64";
    class       volVectorField;
    location    "3.65";
    object      U;
}
// * * * * * * * * * * * * * * * * * * * * * * * * * * * * * * * * * * * * * //

dimensions      [0 1 -1 0 0 0 0];

internalField   nonuniform List<vector> 
4000
(
(0.00435266 -0.00196545 7.00099e-23)
(0.00593292 -0.00164974 0)
(0.00819892 -0.000859386 7.68979e-24)
(0.00992608 -0.000448733 2.7816e-24)
(0.010967 -0.000271875 -1.08216e-24)
(0.011637 -0.000170269 0)
(0.0121114 -0.000107324 -6.74216e-24)
(0.0124572 -7.07228e-05 -8.77254e-24)
(0.0127149 -4.92341e-05 0)
(0.0129138 -3.58366e-05 0)
(0.0130722 -2.71092e-05 -2.62643e-22)
(0.013201 -2.12378e-05 5.23553e-22)
(0.0133076 -1.71405e-05 -2.57321e-22)
(0.0133969 -1.41831e-05 3.35209e-22)
(0.0134725 -1.2003e-05 -3.33867e-22)
(0.013537 -1.03861e-05 -2.3573e-23)
(0.0135926 -9.20073e-06 -4.36751e-22)
(0.0136408 -8.36513e-06 4.35167e-22)
(0.013683 -7.8296e-06 -3.05284e-23)
(0.0137206 -7.56589e-06 0)
(0.0137545 -7.5614e-06 0)
(0.0137861 -7.81639e-06 3.89971e-23)
(0.0138164 -8.34345e-06 4.22029e-23)
(0.0138467 -9.16917e-06 0)
(0.0138788 -1.0337e-05 4.92154e-23)
(0.0139142 -1.19131e-05 5.30174e-23)
(0.0139554 -1.39987e-05 0)
(0.0140054 -1.67698e-05 0)
(0.014067 -2.02566e-05 -2.19172e-21)
(0.0141503 -2.42731e-05 2.25196e-21)
(0.0142757 -4.06109e-05 0)
(0.0142413 -0.000109685 5.12016e-21)
(0.0139217 -0.000284683 -7.91616e-21)
(0.0133458 -0.000620563 1.08784e-22)
(0.01261 -0.00115453 3.14169e-21)
(0.0117727 -0.00194569 -5.01486e-20)
(0.0110623 -0.00293711 4.02626e-23)
(0.0102921 -0.0043925 9.82881e-21)
(0.00932823 -0.00620849 0)
(0.00836072 -0.00789583 -3.44813e-21)
(0.00759713 -0.00928535 3.52481e-21)
(0.00701366 -0.0103935 -2.82891e-20)
(0.00656215 -0.0112488 0)
(0.00621889 -0.0118637 -2.42409e-20)
(0.00595461 -0.0122601 1.00461e-20)
(0.005731 -0.0124691 -1.36656e-20)
(0.00552621 -0.0125031 0)
(0.00533051 -0.0123951 1.24199e-20)
(0.00510983 -0.0121901 1.22117e-20)
(0.00483844 -0.0118744 8.37675e-21)
(0.00449915 -0.0114389 0)
(0.00416846 -0.0108085 0)
(0.00388226 -0.0100184 6.96603e-22)
(0.00372872 -0.00892951 -4.99949e-21)
(0.00388975 -0.00752241 -9.00302e-22)
(0.00463063 -0.00575183 1.44361e-21)
(0.00603056 -0.00387225 -8.33769e-23)
(0.00815712 -0.00202932 4.3863e-22)
(0.0108158 -0.000575816 0)
(0.0132813 0.000207937 -6.38441e-22)
(0.0150172 0.000458143 -2.18678e-21)
(0.0159621 0.00034782 1.54931e-22)
(0.0164002 0.000185358 7.67176e-21)
(0.0165749 5.57059e-05 -7.96489e-21)
(0.0166306 -2.15073e-05 0)
(0.0166341 -6.19931e-05 0)
(0.0166253 -8.25113e-05 0)
(0.0166156 -9.19475e-05 -1.23465e-21)
(0.0166053 -9.11036e-05 -1.81121e-20)
(0.0165969 -8.75782e-05 -9.93393e-21)
(0.0165897 -8.58877e-05 0)
(0.0165834 -8.45353e-05 8.69936e-21)
(0.0165773 -8.28461e-05 -8.64801e-21)
(0.0165715 -8.07579e-05 -8.85775e-22)
(0.0165661 -7.83088e-05 9.33904e-21)
(0.0165612 -7.55558e-05 -8.23122e-21)
(0.0165563 -7.25026e-05 -9.15787e-21)
(0.0165523 -6.92694e-05 -8.57809e-21)
(0.0165483 -6.57416e-05 0)
(0.0165447 -6.1905e-05 0)
(0.0165412 -5.76643e-05 2.22133e-22)
(0.0165394 -5.3115e-05 6.57727e-21)
(0.0165367 -4.79158e-05 0)
(0.0165354 -4.30359e-05 -5.1314e-21)
(0.016533 -3.63244e-05 4.23369e-21)
(0.0165308 -2.82024e-05 0)
(0.0165245 -1.86872e-05 0)
(0.0165099 -8.33616e-06 2.81954e-23)
(0.0164615 1.07781e-06 -3.71801e-23)
(0.0163558 -6.43659e-07 4.44643e-22)
(0.0161822 -3.80817e-05 -6.40315e-23)
(0.0159346 -0.000141415 8.34187e-24)
(0.0156421 -0.00033009 2.38179e-22)
(0.0153562 -0.000606835 0)
(0.0151419 -0.000938905 -6.15585e-21)
(0.0150183 -0.00122509 -6.96913e-21)
(0.0149784 -0.0014398 -7.68006e-21)
(0.0150034 -0.00157401 -5.39353e-22)
(0.0150676 -0.00163452 -8.6353e-21)
(0.015136 -0.00164531 -9.34302e-21)
(0.0151908 -0.00164493 1.50768e-22)
(0.0151901 -0.0016621 -9.74392e-21)
(0.0151174 -0.0017243 -1.82921e-20)
(0.0149612 -0.00185132 -4.2819e-22)
(0.0147191 -0.00205052 -8.13689e-21)
(0.0143953 -0.00231653 0)
(0.0139926 -0.00263366 7.67999e-21)
(0.0135114 -0.00297778 6.8191e-21)
(0.0129606 -0.00331649 4.74147e-22)
(0.0123494 -0.00362051 0)
(0.0116604 -0.00385503 5.90689e-21)
(0.0109732 -0.00393176 -5.40991e-21)
(0.0103594 -0.00381282 0)
(0.00999138 -0.00338622 -8.46883e-21)
(0.0100641 -0.00269038 -1.54557e-21)
(0.0107195 -0.00178168 -2.1207e-21)
(0.0120488 -0.000821571 0)
(0.0136956 -0.000119929 3.02971e-22)
(0.0151237 0.000215128 -1.25702e-22)
(0.0160331 0.000195287 -5.65655e-23)
(0.0164925 9.87503e-05 1.68459e-22)
(0.0166761 -1.71884e-06 -7.31879e-21)
(0.0167223 -6.60536e-05 8.73228e-21)
(0.0167137 -9.86049e-05 5.938e-22)
(0.016695 -0.000114493 8.57965e-21)
(0.0166731 -0.000117438 -1.90001e-20)
(0.0166541 -0.00011079 9.71276e-21)
(0.0166396 -0.000104421 -1.07538e-20)
(0.0166278 -0.00010047 4.38158e-22)
(0.0166174 -9.69512e-05 -9.66861e-21)
(0.0166086 -9.32218e-05 0)
(0.0166008 -8.92219e-05 1.07472e-20)
(0.016594 -8.49859e-05 -1.71057e-21)
(0.0165881 -8.0573e-05 1.17953e-20)
(0.0165827 -7.59627e-05 0)
(0.0165777 -7.10865e-05 0)
(0.0165731 -6.5834e-05 -9.56708e-21)
(0.0165684 -6.00319e-05 8.80788e-21)
(0.0165652 -5.38167e-05 0)
(0.0165613 -4.70172e-05 0)
(0.0165571 -3.94438e-05 7.27685e-21)
(0.0165546 -3.10226e-05 -1.51801e-21)
(0.0165497 -2.1788e-05 6.95081e-21)
(0.0165452 -1.20634e-05 0)
(0.0165373 -1.81703e-06 -2.84231e-21)
(0.0165245 8.43041e-06 -1.32174e-21)
(0.0164896 1.57969e-05 5.70605e-22)
(0.0164086 1.68016e-05 -2.37058e-22)
(0.0162588 -4.87304e-06 0)
(0.0160403 -7.87268e-05 -5.18963e-22)
(0.0157504 -0.000232674 -2.14085e-22)
(0.0154348 -0.000479839 5.09442e-21)
(0.0151602 -0.00081008 -9.57596e-22)
(0.0149673 -0.00114625 -1.06374e-23)
(0.0148611 -0.00142514 -4.26181e-21)
(0.0148316 -0.00163014 -1.53578e-21)
(0.014853 -0.00176429 0)
(0.0149044 -0.00184653 0)
(0.0149367 -0.0019083 0)
(0.0149155 -0.00198379 1.42537e-20)
(0.0147966 -0.00209773 -1.73577e-21)
(0.0145405 -0.00226413 -6.44765e-21)
(0.0138774 -0.00249927 -5.02025e-21)
(0.0129538 -0.00265403 0)
(0.0124239 -0.00259776 7.60301e-21)
(0.012043 -0.00244994 1.19556e-20)
(0.0117726 -0.00217613 1.00927e-22)
(0.0117511 -0.00176871 1.65915e-21)
(0.0120599 -0.00126205 4.32699e-21)
(0.0127249 -0.000741799 1.40286e-21)
(0.0135307 -0.000346335 0)
(0.0140833 -0.000154423 1.48808e-23)
(0.0143685 -6.91329e-05 0)
(0.0145022 -3.17411e-05 1.22759e-23)
(0.014561 -1.2933e-05 1.15019e-23)
(0.0145788 -3.47475e-06 7.06377e-22)
(0.0145735 1.8544e-06 -7.05108e-22)
(0.0145564 4.72562e-06 -3.34329e-22)
(0.0145339 6.15486e-06 3.44341e-22)
(0.0145083 6.9995e-06 -3.28211e-22)
(0.0144801 7.67019e-06 6.95322e-22)
(0.014449 8.32514e-06 -3.34951e-22)
(0.0144142 8.98519e-06 0)
(0.0143749 9.59315e-06 1.19108e-23)
(0.01433 1.02642e-05 -1.25353e-23)
(0.0142792 1.14021e-05 4.49491e-22)
(0.0142223 1.27235e-05 -4.21745e-22)
(0.0141585 1.40682e-05 4.97925e-22)
(0.0140871 1.55057e-05 -4.81429e-22)
(0.0140068 1.72097e-05 3.05877e-22)
(0.0139154 1.94664e-05 -2.6952e-22)
(0.0138091 2.28103e-05 2.04144e-23)
(0.0136807 2.83298e-05 2.22518e-23)
(0.0135168 3.83937e-05 0)
(0.0132895 5.8438e-05 2.72359e-23)
(0.0129384 0.000101252 3.10729e-23)
(0.0123221 0.000199175 3.79652e-22)
(0.0110956 0.000454424 -3.93937e-22)
(0.00855693 0.00126092 0)
(0.00644134 0.00234362 1.03558e-22)
(-5.35638e-05 -0.00378134 -4.01571e-23)
(-0.000101511 -0.00352384 1.28842e-24)
(0.00131751 -0.00248433 -9.26193e-24)
(0.00270618 -0.00179625 1.2497e-23)
(0.00381701 -0.00130188 1.29529e-23)
(0.00470261 -0.000938646 2.75746e-23)
(0.00542566 -0.000691174 -3.74595e-23)
(0.00601691 -0.000527202 2.91167e-23)
(0.00650301 -0.0004154 2.3245e-23)
(0.0069081 -0.000336149 2.7648e-23)
(0.00725036 -0.000278213 4.8793e-23)
(0.0075428 -0.00023463 3.49439e-22)
(0.00779516 -0.000200915 -3.32055e-22)
(0.0080149 -0.0001742 3.82532e-22)
(0.00820781 -0.000152647 -7.50285e-22)
(0.00837846 -0.000135042 9.56138e-22)
(0.00853056 -0.000120575 -3.96656e-22)
(0.00866722 -0.000108707 6.06658e-22)
(0.00879113 -9.90942e-05 7.43887e-22)
(0.00890473 -9.15432e-05 -1.09683e-21)
(0.00901033 -8.5986e-05 8.1757e-23)
(0.00911023 -8.24689e-05 1.53895e-21)
(0.00920682 -8.1155e-05 -1.53703e-21)
(0.00930271 -8.234e-05 -1.63799e-21)
(0.00940089 -8.6484e-05 1.67517e-21)
(0.00950489 -9.42675e-05 5.84045e-23)
(0.009619 -0.000106687 2.15773e-21)
(0.00974868 -0.000125181 2.46828e-23)
(0.00990018 -0.000151927 -4.74932e-21)
(0.0100871 -0.000188994 -2.49799e-22)
(0.010338 -0.000242895 2.58095e-21)
(0.010483 -0.000379605 2.80084e-21)
(0.0104065 -0.000655251 8.47703e-21)
(0.0101532 -0.00109395 1.7408e-20)
(0.009829 -0.00170168 1.20303e-20)
(0.00949986 -0.0024956 1.24563e-20)
(0.00922167 -0.00347662 -2.85612e-21)
(0.0089001 -0.00471221 -9.12474e-21)
(0.00843937 -0.00607415 3.02526e-21)
(0.00792607 -0.00735535 9.04886e-21)
(0.00748421 -0.00849842 1.20677e-20)
(0.00710054 -0.00948587 1.2313e-20)
(0.00675451 -0.0102991 0)
(0.00643685 -0.0109342 2.42448e-20)
(0.00613229 -0.0113986 -1.1891e-20)
(0.00582396 -0.0117033 1.20742e-20)
(0.0054982 -0.0118664 -1.1531e-20)
(0.00514241 -0.0119044 0)
(0.00473405 -0.0118038 -1.00399e-21)
(0.00425328 -0.0116114 -8.79543e-21)
(0.00369437 -0.0113106 7.66297e-21)
(0.00307554 -0.0108796 -8.44963e-22)
(0.00242373 -0.0103358 -5.17318e-21)
(0.00175408 -0.00960319 9.11952e-22)
(0.00118884 -0.00865905 -3.04488e-21)
(0.000854296 -0.007413 0)
(0.000942346 -0.00590504 3.80371e-22)
(0.00172563 -0.00413713 -7.04935e-22)
(0.0035354 -0.00230109 -2.68006e-22)
(0.00625717 -0.000699939 8.71586e-22)
(0.0094234 0.000338738 2.70591e-21)
(0.0122552 0.00082906 6.75497e-21)
(0.0142003 0.000747725 8.8653e-21)
(0.0153793 0.000508612 9.14622e-21)
(0.0160159 0.000275557 -1.17644e-21)
(0.0163108 0.000100629 1.14305e-21)
(0.0164459 -1.0536e-05 0)
(0.0165104 -7.65796e-05 0)
(0.0165405 -0.000122534 2.02784e-20)
(0.0165551 -0.000151866 -9.80455e-21)
(0.0165627 -0.000167389 -1.28404e-21)
(0.0165664 -0.000175638 1.24199e-20)
(0.0165671 -0.000179037 8.5581e-21)
(0.0165659 -0.000179166 1.16764e-20)
(0.0165635 -0.000177052 -6.68063e-22)
(0.0165608 -0.00017232 -6.24075e-22)
(0.0165574 -0.00016489 -1.02983e-20)
(0.0165537 -0.000155537 9.35039e-21)
(0.0165492 -0.000144484 5.51987e-22)
(0.0165439 -0.000131776 8.16818e-21)
(0.0165375 -0.00011729 -7.61885e-21)
(0.01653 -0.000100399 0)
(0.0165195 -8.05389e-05 0)
(0.0165049 -5.62382e-05 0)
(0.0164821 -2.90606e-05 -4.46052e-21)
(0.0164453 3.15547e-06 1.24921e-22)
(0.0163794 3.88158e-05 -1.12486e-22)
(0.0162706 8.10236e-05 1.21412e-22)
(0.0161076 0.000117716 3.24288e-23)
(0.015888 0.000120714 -1.09026e-21)
(0.015636 5.77402e-05 1.57564e-22)
(0.015388 -9.30045e-05 -6.04913e-23)
(0.0151899 -0.00033122 -3.80773e-21)
(0.0150686 -0.000629097 4.93527e-21)
(0.0150228 -0.000930042 -5.69002e-21)
(0.0150345 -0.00118337 6.29899e-21)
(0.0150828 -0.00136094 -6.44516e-21)
(0.015135 -0.00145757 -7.36424e-21)
(0.0151667 -0.00149294 8.13557e-21)
(0.0151593 -0.0015051 8.16013e-21)
(0.015079 -0.00151932 0)
(0.0149091 -0.00157443 -7.64436e-21)
(0.0146595 -0.00169893 8.24539e-21)
(0.0143334 -0.00189948 -2.31998e-22)
(0.0139361 -0.00217181 9.45846e-22)
(0.0134707 -0.00250045 0)
(0.0129341 -0.00286228 -1.36643e-20)
(0.0123222 -0.00322975 -1.33998e-20)
(0.0116356 -0.00357522 -5.79364e-21)
(0.0108747 -0.00387327 -5.06199e-21)
(0.0100404 -0.00408739 -5.67831e-21)
(0.00917744 -0.00415822 1.00788e-20)
(0.0083449 -0.00409207 -2.87225e-22)
(0.00761789 -0.00381242 4.22645e-21)
(0.00713912 -0.00331529 -3.16316e-22)
(0.00704776 -0.00259126 1.02934e-21)
(0.00758402 -0.00168911 3.94815e-23)
(0.0088615 -0.000765529 -5.5665e-22)
(0.0107971 -1.23208e-05 -1.49988e-22)
(0.0128921 0.000417334 1.38426e-22)
(0.014533 0.000443773 0)
(0.0155853 0.000314788 8.03022e-21)
(0.016155 0.000145661 2.76624e-22)
(0.0164192 9.28166e-06 -8.60757e-22)
(0.0165353 -7.21086e-05 -9.65646e-21)
(0.0165806 -0.000124849 1.06722e-20)
(0.0165957 -0.000163135 9.9833e-21)
(0.0166001 -0.000184493 2.14573e-20)
(0.0165997 -0.000194215 2.17935e-20)
(0.0165964 -0.000197852 1.0067e-20)
(0.0165917 -0.000197823 1.36659e-21)
(0.0165863 -0.000195254 1.05557e-20)
(0.0165806 -0.00019028 -2.17271e-20)
(0.0165748 -0.000183067 2.64082e-21)
(0.0165687 -0.000173439 7.4331e-21)
(0.0165623 -0.000162003 0)
(0.0165557 -0.000149169 0)
(0.0165482 -0.000134767 -6.30576e-22)
(0.0165404 -0.000118033 -2.08121e-21)
(0.0165304 -9.91457e-05 -5.64266e-21)
(0.0165178 -7.8522e-05 -1.71484e-21)
(0.0165018 -5.46933e-05 2.07974e-22)
(0.0164779 -2.78286e-05 2.35205e-21)
(0.0164423 2.76662e-06 -2.29923e-21)
(0.016382 3.71204e-05 2.91998e-21)
(0.0162846 7.31972e-05 0)
(0.0161334 0.000111563 2.08305e-22)
(0.0159189 0.000127656 -2.02967e-22)
(0.0156552 8.30901e-05 -3.73179e-22)
(0.0153768 -5.124e-05 0)
(0.0151283 -0.000285409 0)
(0.0149488 -0.000600613 0)
(0.0148499 -0.000947048 0)
(0.0148198 -0.00126558 -1.03216e-20)
(0.0148286 -0.00151288 -2.49251e-21)
(0.0148538 -0.00167918 -1.3525e-21)
(0.0148668 -0.00178013 1.51316e-21)
(0.0148221 -0.00184852 8.72946e-21)
(0.014684 -0.00192187 -2.82963e-21)
(0.0144272 -0.00203333 -6.47214e-21)
(0.0140247 -0.00219549 -5.23337e-23)
(0.0134418 -0.00238046 4.6957e-21)
(0.0126221 -0.00252311 -1.49976e-21)
(0.011778 -0.0024811 2.81611e-23)
(0.011177 -0.00241506 7.65093e-21)
(0.0106433 -0.002346 -6.52558e-21)
(0.0101273 -0.00219989 0)
(0.00973398 -0.001943 0)
(0.0095503 -0.00157832 -1.66642e-21)
(0.00965189 -0.00114497 -1.24709e-21)
(0.0100187 -0.000744623 1.19457e-21)
(0.0103953 -0.000462834 -1.71925e-23)
(0.0106443 -0.000270467 9.59401e-22)
(0.0107821 -0.000141959 -9.42832e-22)
(0.0108466 -6.2726e-05 -3.9318e-23)
(0.0108619 -1.80181e-05 -8.08867e-22)
(0.0108454 5.70411e-06 2.78919e-23)
(0.0108106 1.79396e-05 4.16033e-22)
(0.0107653 2.45794e-05 3.5043e-22)
(0.0107128 2.92315e-05 3.82229e-22)
(0.0106534 3.37149e-05 -3.81635e-22)
(0.0105861 3.90106e-05 1.28332e-23)
(0.0105092 4.54788e-05 -4.35656e-22)
(0.0104208 5.30653e-05 4.49466e-22)
(0.0103195 6.174e-05 1.45996e-23)
(0.0102037 7.173e-05 4.67109e-22)
(0.0100721 8.26697e-05 -5.63521e-22)
(0.00992352 9.45287e-05 5.88166e-22)
(0.00975623 0.000107861 -6.45742e-22)
(0.00956751 0.000123762 2.80123e-22)
(0.00935273 0.000144128 -3.64329e-22)
(0.00910414 0.000172392 2.44192e-23)
(0.00880842 0.000215181 -7.90601e-23)
(0.00844193 0.000286249 -4.89749e-22)
(0.00796058 0.0004159 5.24026e-22)
(0.00727998 0.000673157 -1.09912e-22)
(0.00624142 0.00121541 -4.39759e-23)
(0.00458387 0.00237699 1.58703e-22)
(0.00193298 0.00458366 0)
(0.0002431 0.00609715 -2.6395e-22)
(-0.000386429 -0.00313802 0)
(-0.00107553 -0.00372487 -6.48535e-23)
(-0.000764513 -0.00316206 2.58196e-23)
(-0.000150133 -0.00255944 9.40721e-25)
(0.000531625 -0.00203823 -9.77093e-24)
(0.0012002 -0.00161583 -3.95602e-23)
(0.0018219 -0.00129559 3.92088e-23)
(0.00238456 -0.00105832 -1.97938e-23)
(0.00288564 -0.000880425 -2.48337e-23)
(0.00332982 -0.000744461 -8.52667e-23)
(0.00372376 -0.000638657 -3.40553e-23)
(0.00407396 -0.000554823 -1.12041e-22)
(0.00438633 -0.00048722 3.55975e-22)
(0.00466607 -0.000431876 -8.37835e-22)
(0.0049177 -0.000386039 3.38044e-22)
(0.00514507 -0.000347781 -5.29515e-22)
(0.00535154 -0.000315758 2.85983e-22)
(0.00554011 -0.000289048 -1.99546e-22)
(0.00571349 -0.000267056 -1.29094e-21)
(0.00587423 -0.000249453 1.12972e-21)
(0.00602485 -0.000236144 -8.66439e-23)
(0.00616792 -0.000227251 -2.75841e-22)
(0.00630616 -0.000223128 1.66608e-21)
(0.00644258 -0.000224384 -1.76516e-21)
(0.00658065 -0.000231941 -1.93055e-21)
(0.00672441 -0.00024714 1.54666e-21)
(0.00687875 -0.000271897 2.21841e-21)
(0.00704965 -0.000308949 -2.05766e-21)
(0.00724392 -0.000362411 0)
(0.00747325 -0.000437739 0)
(0.00776207 -0.000544821 0)
(0.00800394 -0.000744486 0)
(0.00810908 -0.00108019 -1.15283e-20)
(0.00809256 -0.00156366 -1.48933e-20)
(0.00802041 -0.0021976 1.5072e-20)
(0.0079297 -0.00299594 -2.82809e-21)
(0.00784711 -0.00396476 1.57211e-20)
(0.00770523 -0.0051143 -3.09717e-21)
(0.00745525 -0.00633369 -1.2203e-20)
(0.00716816 -0.0074972 2.80692e-21)
(0.00690855 -0.00855688 -2.42969e-20)
(0.00665879 -0.00948393 0)
(0.00640676 -0.0102577 1.14127e-20)
(0.0061501 -0.0108705 1.10493e-20)
(0.00588001 -0.011323 -1.33461e-21)
(0.00558497 -0.0116209 -8.24365e-21)
(0.00525358 -0.0117746 1.84864e-20)
(0.0048715 -0.011799 7.68188e-21)
(0.00442384 -0.0117036 1.27518e-21)
(0.00389924 -0.0114989 -1.32718e-22)
(0.0032934 -0.0111847 -2.35011e-21)
(0.00261571 -0.0107611 1.39241e-21)
(0.00188012 -0.0102336 3.38623e-22)
(0.00110034 -0.00956471 -1.65001e-22)
(0.000346186 -0.00873499 -2.21028e-21)
(-0.000304458 -0.0076934 2.94543e-22)
(-0.000690573 -0.00644417 -6.13377e-22)
(-0.000688025 -0.00497532 8.0084e-22)
(3.79239e-06 -0.00335927 2.72469e-22)
(0.00157516 -0.00173446 0)
(0.00399292 -0.000299221 1.07731e-21)
(0.00704778 0.00073542 -9.54624e-22)
(0.00993473 0.00126205 5.17629e-22)
(0.0122628 0.0012469 -9.27821e-21)
(0.0139151 0.00105541 8.42846e-21)
(0.0149673 0.000782018 -8.58934e-21)
(0.0155919 0.000522902 0)
(0.0159511 0.000328095 0)
(0.0161555 0.000190014 -1.89069e-20)
(0.0162742 9.46522e-05 1.91015e-20)
(0.0163468 3.10052e-05 0)
(0.0163934 -1.11801e-05 -8.7624e-21)
(0.0164236 -3.87909e-05 -6.63397e-22)
(0.0164427 -5.56664e-05 7.99722e-21)
(0.0164542 -6.44727e-05 -1.02491e-20)
(0.0164598 -6.73726e-05 -8.31096e-21)
(0.0164609 -6.51091e-05 1.83924e-20)
(0.0164584 -5.76507e-05 -5.46793e-22)
(0.0164517 -4.58092e-05 -5.00025e-22)
(0.0164411 -3.01188e-05 -1.47853e-20)
(0.0164263 -1.06338e-05 1.42172e-20)
(0.0164048 1.43383e-05 1.95848e-22)
(0.0163739 4.31987e-05 -2.34431e-23)
(0.0163304 7.86283e-05 -1.73098e-22)
(0.0162696 0.000119002 4.36467e-21)
(0.0161813 0.000167494 0)
(0.0160552 0.000220856 -5.61748e-22)
(0.0158842 0.000267616 -4.81716e-24)
(0.0156697 0.000287787 -4.16207e-23)
(0.0154311 0.00025112 9.65509e-22)
(0.0152089 0.000130667 9.57524e-23)
(0.0150415 -8.15507e-05 5.87946e-21)
(0.0149546 -0.000366988 3.84675e-21)
(0.014948 -0.000685714 -9.16117e-21)
(0.0149959 -0.000986769 -1.54128e-22)
(0.0150697 -0.00122721 6.16858e-21)
(0.0151341 -0.00138669 1.30186e-20)
(0.0151651 -0.00147041 7.17602e-21)
(0.0151308 -0.00150535 0)
(0.0150171 -0.00152607 -7.12765e-21)
(0.0148138 -0.0015671 0)
(0.0145334 -0.00165766 7.75909e-21)
(0.0141846 -0.00181556 -1.12128e-22)
(0.0137731 -0.00204299 -6.74753e-21)
(0.0133032 -0.00232963 7.22022e-21)
(0.0127745 -0.00265634 0)
(0.0121814 -0.00299874 1.27882e-20)
(0.0115201 -0.00333103 6.3438e-21)
(0.0107919 -0.00362901 5.25944e-22)
(0.0100013 -0.00386926 5.60044e-21)
(0.00915719 -0.00402606 0)
(0.00830008 -0.00405761 -4.67592e-21)
(0.00746718 -0.00396774 0)
(0.00670018 -0.00371799 2.88225e-21)
(0.00607249 -0.00331223 -1.60443e-22)
(0.00566228 -0.00273461 0)
(0.00561859 -0.00199283 0)
(0.00611599 -0.00115854 5.87715e-22)
(0.00727333 -0.000317729 0)
(0.00911496 0.000391942 -1.91713e-22)
(0.0111702 0.000799206 3.97679e-22)
(0.0129827 0.000894732 -2.06021e-22)
(0.0143247 0.00079147 0)
(0.0152123 0.000591716 0)
(0.0157448 0.000402426 -9.09699e-21)
(0.016045 0.000256215 1.00772e-20)
(0.0162132 0.000146857 -1.99422e-20)
(0.016311 7.00154e-05 -1.03566e-20)
(0.0163696 1.88632e-05 -1.46272e-21)
(0.0164053 -1.4576e-05 -9.20275e-21)
(0.016427 -3.54129e-05 1.28673e-21)
(0.0164396 -4.69262e-05 -1.06423e-20)
(0.0164458 -5.15434e-05 -1.80879e-21)
(0.016447 -5.0429e-05 1.55574e-23)
(0.0164441 -4.43544e-05 -1.85358e-21)
(0.0164374 -3.41379e-05 2.40279e-21)
(0.0164272 -2.00511e-05 -8.82228e-21)
(0.0164133 -2.51843e-06 -1.73475e-20)
(0.0163945 1.96427e-05 0)
(0.0163684 4.58114e-05 7.78014e-21)
(0.0163347 7.49758e-05 8.20918e-21)
(0.016289 0.000110588 -1.60976e-21)
(0.0162258 0.000150141 -4.22248e-21)
(0.0161381 0.000196066 -2.14784e-21)
(0.0160145 0.000245994 1.86573e-21)
(0.0158459 0.000292107 4.45039e-22)
(0.0156285 0.000315526 -1.12375e-22)
(0.0153754 0.000284542 -2.1403e-22)
(0.0151241 0.000166347 3.78808e-22)
(0.0149175 -5.37151e-05 2.25256e-21)
(0.0147861 -0.000361812 -1.24785e-21)
(0.0147363 -0.000718229 7.17887e-22)
(0.0147511 -0.00107029 3.85084e-21)
(0.0147913 -0.00136914 8.93429e-21)
(0.014831 -0.0015867 5.0848e-21)
(0.0148231 -0.00172745 0)
(0.0147492 -0.00181528 5.37806e-21)
(0.0145757 -0.0018842 -1.59739e-20)
(0.0142835 -0.00196609 -9.36164e-22)
(0.0138625 -0.00208074 0)
(0.0133096 -0.0022198 -5.48628e-21)
(0.0126355 -0.0023459 0)
(0.0118461 -0.00235868 0)
(0.0111262 -0.00229416 -4.25969e-21)
(0.0105566 -0.00223789 -7.6955e-21)
(0.0100131 -0.0021734 0)
(0.00947532 -0.00203945 0)
(0.00900942 -0.00181796 2.54762e-21)
(0.00866296 -0.0015193 -2.5758e-21)
(0.0084811 -0.00116727 1.0399e-22)
(0.00848257 -0.000819181 1.78767e-22)
(0.00856308 -0.000542805 1.08013e-21)
(0.00862789 -0.00033231 -3.04455e-23)
(0.00865927 -0.000178086 5.48459e-23)
(0.00866148 -7.45392e-05 7.95295e-23)
(0.00863846 -1.09484e-05 8.15242e-22)
(0.00859572 2.5916e-05 3.80829e-23)
(0.00853948 4.70906e-05 -8.28034e-22)
(0.00847369 6.05393e-05 2.51397e-23)
(0.00839943 7.16704e-05 -4.10611e-22)
(0.00831578 8.36834e-05 4.36079e-22)
(0.00822067 9.81874e-05 -2.67808e-23)
(0.00811167 0.000115743 0)
(0.00798638 0.000136276 -2.91747e-23)
(0.00784271 0.000159405 -6.16538e-23)
(0.00767874 0.000184638 5.73933e-22)
(0.00749266 0.00021198 -5.06929e-22)
(0.00728261 0.000241977 6.21528e-22)
(0.0070459 0.000275985 -1.25215e-21)
(0.00677836 0.00031654 1.07652e-21)
(0.00647332 0.000368014 -3.62974e-22)
(0.00612013 0.000438022 -1.53515e-22)
(0.00570173 0.000540492 5.58013e-23)
(0.00519049 0.000702532 0)
(0.00454135 0.000979287 -2.03522e-22)
(0.00368438 0.00148306 7.71107e-23)
(0.00253186 0.00242338 0)
(0.00105056 0.00407864 -1.06368e-22)
(-0.000667713 0.00630728 2.12791e-22)
(-0.000544105 0.00598229 3.81151e-22)
(-0.00028021 -0.00229912 -4.12463e-23)
(-0.00103457 -0.00340825 0)
(-0.00116991 -0.00332691 0)
(-0.00101164 -0.00293656 -8.76954e-24)
(-0.000684395 -0.0025083 -3.08018e-24)
(-0.000276512 -0.00211943 -3.91353e-23)
(0.000166267 -0.00179445 3.9407e-23)
(0.000608899 -0.00153202 -3.61945e-23)
(0.0010336 -0.00132101 0)
(0.00143204 -0.00115031 5.7687e-23)
(0.00180136 -0.00101093 0)
(0.00214147 -0.000895919 3.1583e-24)
(0.00245367 -0.000800017 0)
(0.00273995 -0.000719289 9.49275e-23)
(0.00300256 -0.000650838 0)
(0.00324376 -0.000592542 0)
(0.0034658 -0.000542867 1.25411e-22)
(0.00367086 -0.00050075 6.99637e-22)
(0.0038611 -0.000465511 -1.78262e-21)
(0.00403868 -0.000436804 1.21553e-21)
(0.00420583 -0.000414597 0)
(0.00436492 -0.000399161 -1.36339e-21)
(0.0045186 -0.000391091 1.54261e-21)
(0.00466981 -0.000391354 2.1261e-22)
(0.004822 -0.00040136 0)
(0.00497921 -0.000423086 2.08964e-21)
(0.00514627 -0.000459264 -2.06598e-21)
(0.00532897 -0.000513653 0)
(0.00553375 -0.000591578 -2.52612e-21)
(0.00577047 -0.000700039 2.5013e-21)
(0.00605785 -0.000849712 -2.80634e-21)
(0.00632608 -0.00108903 5.51466e-21)
(0.00650796 -0.00145483 8.86171e-21)
(0.00660572 -0.00196004 3.13811e-21)
(0.00666461 -0.00260987 -4.13484e-22)
(0.00670736 -0.00341651 4.20873e-22)
(0.00674849 -0.00437858 9.15288e-21)
(0.00673208 -0.00547601 3.6384e-23)
(0.00662799 -0.00661011 -2.60192e-21)
(0.00648932 -0.00769301 5.69237e-21)
(0.0063503 -0.00868557 -2.42742e-21)
(0.00619286 -0.00955845 2.9543e-21)
(0.00601004 -0.0102886 -2.2527e-20)
(0.00580271 -0.0108655 -8.55622e-21)
(0.00556485 -0.0112863 -2.66431e-21)
(0.00528726 -0.0115535 0)
(0.00496076 -0.0116752 -8.08748e-22)
(0.0045736 -0.0116623 -1.69836e-20)
(0.00411486 -0.0115228 -7.21115e-21)
(0.00358066 -0.0112674 -9.23607e-22)
(0.00297197 -0.0109036 -1.20799e-20)
(0.00229796 -0.0104389 0)
(0.00157183 -0.0098783 4.76296e-21)
(0.00081156 -0.00920801 -1.48235e-22)
(6.47317e-05 -0.00842378 -1.66791e-22)
(-0.000621167 -0.00750737 -2.87511e-22)
(-0.00116342 -0.0064576 3.97441e-22)
(-0.00145119 -0.00525814 -1.43354e-21)
(-0.00138965 -0.00393291 3.76329e-22)
(-0.000753434 -0.00251221 8.18646e-22)
(0.000599408 -0.00107365 -3.37567e-21)
(0.00279292 0.000259184 -9.93719e-22)
(0.00548588 0.00121272 -1.03325e-20)
(0.00821641 0.00172242 1.01862e-20)
(0.0105808 0.00181142 -1.64272e-20)
(0.0124105 0.00166806 -1.51211e-21)
(0.0137177 0.00140291 9.52814e-21)
(0.0145963 0.00112201 1.12583e-21)
(0.0151646 0.000876778 9.32896e-21)
(0.0155277 0.000681692 -1.16079e-20)
(0.015762 0.00053445 -7.59005e-21)
(0.0159166 0.000426608 0)
(0.0160206 0.000348796 -9.37272e-21)
(0.0160914 0.000293464 -8.17386e-21)
(0.0161396 0.000255119 -1.11185e-21)
(0.0161713 0.000229871 1.73857e-20)
(0.0161904 0.00021505 -9.77853e-21)
(0.0161985 0.00021001 1.03913e-21)
(0.0161963 0.000213021 -7.5851e-21)
(0.0161849 0.000222752 7.60948e-21)
(0.0161645 0.000238691 -7.08982e-21)
(0.0161316 0.000262871 6.13252e-21)
(0.0160841 0.000292886 -5.48893e-21)
(0.0160179 0.00033074 0)
(0.0159287 0.000373444 -1.13112e-22)
(0.0158067 0.000421573 -5.25003e-23)
(0.0156462 0.000466126 7.36789e-22)
(0.0154516 0.000490486 0)
(0.0152369 0.000469219 -2.178e-23)
(0.0150345 0.000371667 -5.79906e-22)
(0.0148863 0.00017968 2.4837e-22)
(0.0148186 -9.99676e-05 -3.2905e-21)
(0.0148351 -0.000433885 -3.42927e-21)
(0.0149112 -0.000774371 4.53035e-21)
(0.0150114 -0.00107224 2.40505e-22)
(0.0150955 -0.00129443 -5.4681e-21)
(0.0151276 -0.0014315 -6.33311e-21)
(0.0150801 -0.00149878 -3.97952e-22)
(0.0149442 -0.00152776 -6.42794e-21)
(0.0147191 -0.00155487 1.37783e-20)
(0.0144135 -0.00161195 0)
(0.0140421 -0.00172228 0)
(0.0136171 -0.00189654 0)
(0.013145 -0.0021308 6.80536e-21)
(0.0126272 -0.00241013 4.07212e-22)
(0.0120603 -0.00271298 -2.02273e-22)
(0.0114377 -0.00301485 -5.44075e-22)
(0.0107585 -0.00329217 5.43178e-21)
(0.010028 -0.00352396 5.62401e-21)
(0.00925672 -0.00369051 0)
(0.00845987 -0.00377078 0)
(0.00767215 -0.00374971 0)
(0.00691959 -0.00362285 0)
(0.0062268 -0.00338028 -1.64197e-21)
(0.00562532 -0.00302672 -7.06143e-22)
(0.00514708 -0.00255793 0)
(0.00486113 -0.00197427 2.67846e-23)
(0.00487543 -0.0012922 0)
(0.00531881 -0.000530664 0)
(0.00639791 0.000263465 0)
(0.00804508 0.000921064 0)
(0.00993742 0.00132199 2.3742e-22)
(0.0116918 0.00144877 -7.24926e-21)
(0.013116 0.00136718 -2.39797e-22)
(0.0141521 0.00118694 8.83347e-21)
(0.0148498 0.000986357 -9.73078e-21)
(0.0153043 0.000802571 1.00026e-20)
(0.0155988 0.000651556 0)
(0.0157907 0.00053551 -9.86056e-21)
(0.0159179 0.00044926 8.76488e-21)
(0.0160038 0.000386423 -6.87573e-21)
(0.0160621 0.000341794 9.29566e-21)
(0.0161007 0.00031131 -4.97623e-22)
(0.0161246 0.000292499 -1.17232e-21)
(0.0161364 0.000283634 5.14148e-22)
(0.0161379 0.000282893 6.45147e-21)
(0.0161303 0.00028919 2.78766e-21)
(0.0161139 0.000301467 8.47517e-21)
(0.0160869 0.000321123 1.85538e-21)
(0.0160467 0.000346961 -8.69993e-21)
(0.0159939 0.00037678 -1.28779e-20)
(0.0159217 0.00041398 -6.82025e-21)
(0.015826 0.000453999 1.32759e-21)
(0.0157 0.000496757 1.04079e-21)
(0.0155361 0.000534681 -7.21709e-22)
(0.0153364 0.000551809 2.80044e-22)
(0.0151121 0.000523043 4.81127e-23)
(0.0148916 0.000415338 2.30605e-23)
(0.0147172 0.000205619 0)
(0.0146199 -0.000102082 -2.2827e-21)
(0.0146056 -0.000474288 -1.98854e-21)
(0.0146537 -0.000859522 0)
(0.0147254 -0.00120529 -2.84081e-21)
(0.0147803 -0.00147402 -5.42951e-21)
(0.014772 -0.00165415 3.37099e-21)
(0.0146817 -0.00176135 -3.63654e-21)
(0.0144878 -0.00182514 -6.75601e-21)
(0.0141785 -0.00187644 6.89145e-21)
(0.0137487 -0.00193786 5.60167e-21)
(0.0132102 -0.0020166 -6.52977e-21)
(0.0125863 -0.0020959 7.02823e-21)
(0.0119082 -0.00213607 -5.23038e-21)
(0.0111936 -0.00209516 -1.34672e-21)
(0.0105781 -0.00201854 7.28544e-21)
(0.0100617 -0.00195302 0)
(0.00956355 -0.00186998 -4.9747e-21)
(0.00908112 -0.00173116 -1.23678e-21)
(0.00865316 -0.00153191 -2.51089e-21)
(0.00830318 -0.00128556 2.35001e-21)
(0.00804918 -0.00100928 -1.08128e-21)
(0.00790176 -0.000732539 1.10073e-21)
(0.00782463 -0.000494152 0)
(0.00776899 -0.000299245 5.63568e-23)
(0.00771692 -0.000148175 8.05117e-22)
(0.00766267 -4.10357e-05 -9.16454e-22)
(0.00760146 2.86217e-05 -8.15378e-22)
(0.00753145 7.16731e-05 7.14441e-22)
(0.00745286 9.88412e-05 -4.03514e-22)
(0.00736573 0.000118759 4.03265e-22)
(0.0072691 0.000137658 0)
(0.00716106 0.000159386 -4.81632e-22)
(0.00703906 0.00018584 4.28686e-22)
(0.00690039 0.000217556 -5.2278e-22)
(0.00674244 0.000254242 4.66333e-22)
(0.00656288 0.000295259 6.31767e-23)
(0.00635956 0.000340078 -6.699e-23)
(0.00613032 0.000388864 0)
(0.00587265 0.000442727 0)
(0.00558301 0.00050415 -8.2719e-23)
(0.00525609 0.000577593 0)
(0.00488381 0.00067048 0)
(0.0044539 0.000795141 2.10296e-22)
(0.00394802 0.000972772 0)
(0.00333959 0.00124125 0)
(0.00259277 0.00166926 5.6534e-22)
(0.00166981 0.00237574 -2.90177e-22)
(0.000565032 0.00352779 0)
(-0.000587926 0.00517664 0)
(-0.00135295 0.00648165 -2.79691e-23)
(-0.000515678 0.00493011 -2.32186e-22)
(-0.000183099 -0.0017455 2.77724e-23)
(-0.000786879 -0.00300304 -2.39626e-23)
(-0.0010796 -0.00322251 -1.03569e-23)
(-0.00114379 -0.00304305 1.91054e-23)
(-0.00103065 -0.00274554 3.038e-23)
(-0.000811552 -0.00243332 -2.04831e-23)
(-0.000526617 -0.00214677 0)
(-0.000209828 -0.00189624 3.62139e-23)
(0.000116997 -0.00168149 0)
(0.000440318 -0.0014984 2.93078e-22)
(0.000752361 -0.00134221 -2.37557e-22)
(0.00104893 -0.00120852 7.46232e-23)
(0.0013281 -0.00109355 3.48212e-22)
(0.00158931 -0.00099423 -2.56562e-22)
(0.00183286 -0.000908145 9.87377e-23)
(0.00205956 -0.000833428 0)
(0.00227052 -0.000768697 1.18789e-22)
(0.00246707 -0.000712985 -4.25624e-22)
(0.0026507 -0.000665706 1.75923e-21)
(0.00282306 -0.000626629 -1.20007e-21)
(0.00298599 -0.000595878 -1.25279e-21)
(0.00314156 -0.000573939 1.41039e-21)
(0.00329217 -0.000561701 0)
(0.00344061 -0.000560508 -2.18134e-22)
(0.00359016 -0.000572255 0)
(0.00374475 -0.000599507 2.52051e-22)
(0.00390903 -0.000645688 2.20094e-21)
(0.00408849 -0.000715336 1.64293e-22)