/*--------------------------------*- C++ -*----------------------------------*\
| =========                 |                                                 |
| \\      /  F ield         | OpenFOAM: The Open Source CFD Toolbox           |
|  \\    /   O peration     | Version:  2506                                  |
|   \\  /    A nd           | Website:  www.openfoam.com                      |
|    \\/     M anipulation  |                                                 |
\*---------------------------------------------------------------------------*/
FoamFile
{
    version     2.0;
    format      ascii;
    arch        "LSB;label=32;scalar=64";
    class       volVectorField;
    location    "3.65";
    object      vorticityField;
}
// * * * * * * * * * * * * * * * * * * * * * * * * * * * * * * * * * * * * * //

dimensions      [0 0 -1 0 0 0 0];

internalField   nonuniform List<vector> 
4000
(
(5.6519e-19 2.58084e-19 50.8228)
(2.00286e-21 1.0601e-19 55.4643)
(2.88174e-19 8.22915e-19 48.0175)
(2.24266e-19 1.10859e-18 40.6058)
(1.58781e-19 1.27856e-18 35.6832)
(5.32462e-20 9.89431e-21 32.2953)
(-1.79402e-20 1.5112e-18 29.7143)
(9.039e-20 1.55777e-18 27.6995)
(4.52145e-20 -1.47383e-20 26.1047)
(2.73e-20 4.48524e-19 24.8088)
(-2.61738e-19 3.60152e-17 23.7297)
(1.53483e-18 -7.04019e-17 22.8152)
(-1.09531e-18 3.37559e-17 22.0295)
(1.29807e-18 -3.53684e-17 21.346)
(-2.03477e-18 3.59437e-17 20.7453)
(1.72205e-18 1.97769e-18 20.2124)
(-1.44516e-18 3.47035e-17 19.7355)
(1.9581e-18 -3.60136e-17 19.305)
(1.24005e-18 2.55971e-18 18.9127)
(-1.99118e-18 -6.03877e-20 18.5511)
(1.55683e-19 -6.59236e-20 18.2137)
(2.8481e-18 -1.88306e-18 17.8935)
(-2.69918e-18 -1.77004e-18 17.584)
(-2.92667e-18 -2.45664e-20 17.2775)
(3.07406e-18 -1.9066e-18 16.9658)
(1.78415e-19 -1.74744e-18 16.6391)
(3.79465e-18 1.06307e-19 16.2852)
(-5.03823e-19 3.74002e-18 15.8896)
(-1.14647e-17 6.58312e-17 15.4354)
(3.93888e-18 -7.50045e-17 14.857)
(5.26102e-18 -4.7714e-18 14.0385)
(1.03683e-17 -1.32861e-16 13.5632)
(5.06183e-18 1.95157e-16 13.9899)
(4.9364e-17 -1.0138e-16 15.3614)
(3.08231e-17 -6.98904e-17 17.5158)
(2.77123e-17 1.13111e-15 20.5982)
(8.0509e-17 -2.49759e-16 23.9553)
(-8.9052e-17 -1.68698e-16 29.7941)
(2.38833e-19 3.21975e-17 39.4701)
(7.13453e-17 5.82628e-17 50.1431)
(-4.44068e-17 2.48099e-17 60.4861)
(2.73169e-16 6.87156e-16 69.8352)
(1.72624e-18 -9.3498e-18 78.01)
(6.40256e-16 3.34538e-16 84.9931)
(-2.8998e-16 -1.76384e-16 90.7777)
(-6.1297e-18 5.67834e-16 95.4341)
(-1.54278e-17 -8.35037e-17 98.8433)
(2.89197e-17 -5.60053e-16 101.202)
(-4.41644e-16 -1.56528e-16 102.716)
(-3.55982e-16 -1.09169e-16 103.666)
(1.48285e-17 3.34216e-17 104.029)
(-1.75622e-18 -2.99265e-18 103.15)
(-5.07832e-17 -1.4066e-17 101.904)
(-5.15341e-18 5.25229e-16 99.164)
(-2.29355e-16 4.32192e-16 94.816)
(2.21331e-17 -4.78456e-16 87.5592)
(-9.00275e-17 -6.95771e-17 77.9484)
(2.19799e-17 3.60359e-17 65.4927)
(-9.92385e-19 1.90323e-18 50.482)
(1.24096e-18 -4.99915e-17 35.407)
(6.60663e-18 -1.39279e-16 22.2789)
(4.10544e-17 4.66354e-17 12.6253)
(4.02868e-17 5.58879e-16 6.36708)
(1.07979e-17 -5.59648e-16 2.66848)
(-3.30423e-19 -1.65873e-17 0.595464)
(2.83875e-18 -2.48396e-18 -0.431446)
(-3.74799e-19 3.36892e-18 -0.949949)
(-8.47627e-18 -2.57833e-17 -1.19473)
(-6.0424e-19 -1.15525e-15 -1.30377)
(-3.97111e-17 -6.2085e-16 -1.36412)
(1.39106e-18 -4.94543e-17 -1.38638)
(4.31125e-17 4.99061e-16 -1.37238)
(-1.53431e-18 -4.87404e-16 -1.33357)
(1.99606e-17 -1.53569e-16 -1.27994)
(2.06252e-17 5.63986e-16 -1.2173)
(-1.9055e-17 -4.02539e-16 -1.14727)
(-3.68747e-17 -4.79525e-16 -1.07038)
(-1.10583e-18 -5.27966e-16 -0.988926)
(1.65939e-18 -2.25058e-17 -0.906028)
(1.46337e-17 -1.41516e-17 -0.822075)
(-1.26769e-17 9.93387e-18 -0.737074)
(1.1315e-17 3.83342e-16 -0.650698)
(-4.07968e-19 2.45227e-17 -0.566009)
(-8.47399e-18 -3.49542e-16 -0.47693)
(-2.2077e-19 3.16819e-16 -0.379912)
(6.32503e-20 7.70912e-18 -0.272124)
(-1.82831e-19 -2.05032e-20 -0.13124)
(2.46352e-19 1.67099e-17 0.0676308)
(1.3581e-20 5.65832e-17 0.366796)
(-4.50981e-19 -1.36741e-16 0.796137)
(2.14681e-19 5.80771e-19 1.37059)
(2.67324e-18 -1.6996e-17 2.15365)
(-6.32666e-18 -2.66344e-17 3.16684)
(7.89083e-18 2.02408e-17 4.45484)
(-2.08687e-17 4.19949e-16 6.02977)
(3.15204e-17 4.0962e-16 7.67739)
(-2.60468e-17 4.13958e-16 9.12584)
(-1.14295e-17 1.54735e-17 10.2103)
(4.58109e-17 4.74147e-16 10.9569)
(4.9566e-17 4.68576e-16 11.453)
(-4.15947e-19 -6.49287e-18 11.8954)
(-3.3686e-17 5.71314e-16 12.5781)
(3.80124e-17 1.03129e-15 13.6799)
(1.61666e-18 -4.00529e-18 15.367)
(5.88834e-17 4.82795e-16 17.7335)
(-1.20221e-18 -4.1435e-17 20.7825)
(-1.15294e-16 -5.26829e-16 24.4546)
(-1.21392e-16 -4.41286e-16 28.5913)
(-1.88384e-17 -2.46881e-17 32.9562)
(-1.2906e-17 -2.32677e-17 37.4765)
(-1.39835e-16 -3.73367e-16 42.0804)
(1.51673e-16 3.68285e-16 45.7004)
(-2.93363e-19 4.87983e-18 48.9064)
(1.04547e-16 8.04659e-16 49.8803)
(-1.00665e-17 2.1888e-16 48.7584)
(3.3702e-17 3.92465e-16 44.7341)
(-1.80824e-19 -4.20038e-18 37.4611)
(-6.35916e-19 1.20134e-16 28.1187)
(-4.77933e-19 -1.36871e-17 18.3898)
(1.23982e-19 -1.27985e-18 10.2665)
(8.51932e-19 3.01383e-17 4.78563)
(6.10003e-18 -5.65952e-16 1.49723)
(2.07756e-17 5.37984e-16 -0.240133)
(-4.66183e-19 3.59966e-17 -1.05953)
(2.675e-18 5.90746e-16 -1.41633)
(-2.26289e-17 -1.11044e-15 -1.53314)
(4.15268e-17 4.79806e-16 -1.56498)
(1.86594e-17 -6.23856e-16 -1.5691)
(4.07743e-17 -6.02209e-17 -1.54306)
(-3.86985e-18 -5.35128e-16 -1.49163)
(-9.97243e-19 -5.19052e-17 -1.4268)
(4.12019e-17 4.99445e-16 -1.35448)
(-4.03598e-17 -1.33459e-17 -1.27605)
(2.6366e-17 5.43766e-16 -1.19318)
(1.59777e-17 1.24765e-17 -1.10617)
(2.26569e-18 2.14817e-17 -1.0167)
(-1.85459e-17 -4.60758e-16 -0.926345)
(1.40842e-17 4.08518e-16 -0.83457)
(-1.36822e-18 2.15616e-17 -0.743116)
(-1.10839e-17 -6.96379e-18 -0.651515)
(9.30135e-18 3.7056e-16 -0.559108)
(-2.12374e-18 -8.65982e-17 -0.468923)
(1.51445e-17 4.09961e-16 -0.374061)
(-1.61091e-18 1.8553e-17 -0.274458)
(5.30038e-19 -2.26382e-16 -0.148662)
(-2.71046e-18 -1.56509e-16 0.0149805)
(9.40426e-19 1.12264e-16 0.262257)
(-5.47115e-19 -7.77461e-17 0.639369)
(-5.69928e-19 3.38324e-19 1.17646)
(4.5001e-21 8.52592e-17 1.89785)
(-2.95911e-19 -1.43014e-17 2.89601)
(2.92698e-18 -5.84097e-16 4.20782)
(3.58645e-18 1.1028e-16 5.88844)
(-5.16062e-17 3.34606e-17 7.91467)
(-2.3428e-17 3.63759e-16 9.85459)
(5.15637e-18 9.71008e-17 11.5237)
(2.50981e-18 -1.15711e-18 12.8673)
(1.74481e-17 1.91566e-17 13.9858)
(-1.0964e-17 -4.90145e-17 15.0557)
(-5.56018e-17 -1.09837e-15 16.4137)
(2.5222e-17 1.96968e-16 18.4926)
(9.04511e-17 5.47031e-16 21.4496)
(-4.27247e-17 4.8602e-16 26.7014)
(-5.78034e-18 -3.2102e-17 26.6987)
(2.98646e-17 -5.08842e-16 28.5783)
(-3.82907e-17 -7.1102e-16 30.0407)
(2.15937e-18 2.08763e-17 30.8207)
(-1.12298e-17 -8.68259e-17 30.629)
(-5.84994e-18 -2.73451e-16 28.9555)
(-4.50615e-18 -7.07157e-17 25.7347)
(3.08617e-18 2.39853e-18 21.8583)
(-3.48251e-20 -1.18341e-18 19.0115)
(2.09614e-18 9.94843e-21 17.3782)
(-2.03681e-18 -1.23903e-18 16.543)
(-2.5027e-19 -2.40055e-18 16.1368)
(-3.85392e-20 -8.89808e-17 15.9698)
(-1.1958e-18 9.16684e-17 15.9431)
(-9.66215e-20 4.23151e-17 15.9908)
(1.50204e-18 -4.51553e-17 16.078)
(2.22034e-20 4.18692e-17 16.1895)
(7.17218e-19 -8.80977e-17 16.3215)
(-5.67567e-19 4.32906e-17 16.4759)
(-9.85345e-19 -5.93078e-19 16.6572)
(9.76258e-19 -1.1275e-18 16.871)
(-6.72065e-20 3.94238e-19 17.1231)
(2.01846e-18 -4.25098e-17 17.4168)
(-2.08937e-18 4.07399e-17 17.7537)
(2.30614e-18 -4.13267e-17 18.1379)
(-2.3482e-18 4.05325e-17 18.5748)
(1.21816e-18 -2.17794e-17 19.0725)
(-1.29586e-18 1.97101e-17 19.6448)
(7.4437e-20 -1.53346e-18 20.316)
(-1.03349e-19 -9.79978e-19 21.1296)
(-9.98178e-19 -1.12325e-20 22.1673)
(1.13979e-18 -1.00252e-18 23.5898)
(-1.38704e-19 -1.50518e-18 25.7313)
(9.89098e-19 -8.44698e-18 29.3427)
(-8.2251e-19 9.66215e-18 36.254)
(-8.87102e-21 -8.47372e-19 48.0167)
(5.25035e-20 -1.1944e-19 46.1924)
(-2.20308e-21 -3.27289e-19 -3.00805)
(5.03945e-19 -2.47336e-19 16.1448)
(-2.56523e-19 -8.50771e-19 20.635)
(1.63884e-18 1.57833e-18 21.7838)
(-2.77889e-18 -9.46925e-18 21.8263)
(3.41372e-19 -1.02373e-18 21.3039)
(1.13948e-18 5.44433e-18 20.5784)
(-3.387e-19 -3.1149e-18 19.8338)
(-2.67737e-19 -1.59295e-18 19.1314)
(-3.42711e-19 -1.77628e-18 18.4838)
(2.89699e-19 -4.10708e-18 17.8911)
(-1.96415e-18 -2.18543e-17 17.3499)
(1.76179e-18 2.21672e-17 16.8552)
(-2.69039e-18 -2.08353e-17 16.4014)
(2.06359e-18 4.02114e-17 15.9837)
(-1.6995e-18 -4.86941e-17 15.5975)
(1.5532e-18 2.04698e-17 15.2389)
(-1.31682e-18 -2.70282e-17 14.9042)
(-2.89488e-18 -2.45426e-17 14.59)
(2.37938e-18 4.4471e-17 14.2931)
(2.92691e-19 -6.93049e-18 14.0102)
(-1.35972e-18 -4.47291e-17 13.7381)
(2.68685e-18 5.39729e-17 13.4733)
(-2.08144e-18 3.94273e-17 13.2118)
(-3.57439e-18 -4.83303e-17 12.9491)
(2.72754e-18 -1.52296e-18 12.68)
(3.3187e-18 -4.83943e-17 12.3979)
(-5.37105e-18 1.37126e-17 12.0949)
(5.31793e-18 9.88457e-17 11.7609)
(-1.78024e-18 -9.59955e-18 11.3798)
(-2.33212e-19 -5.53855e-17 10.8773)
(-9.60782e-18 -6.17709e-17 10.0458)
(-1.23754e-17 -1.84175e-16 8.95149)
(-5.43215e-17 -3.38987e-16 7.64841)
(-1.11214e-17 -2.14045e-16 6.13335)
(3.73235e-17 -1.99824e-16 4.35773)
(5.39618e-17 7.08029e-17 2.562)
(6.78148e-17 1.50397e-16 0.490909)
(-5.88332e-17 -1.10994e-16 -1.73038)
(-1.46805e-16 -1.61303e-16 -3.43154)
(-2.96482e-16 -2.67303e-16 -4.43836)
(-2.54509e-16 -1.30529e-16 -4.82743)
(2.47547e-17 -2.88493e-18 -4.71407)
(-6.67691e-16 -3.03988e-16 -4.20514)
(3.61366e-16 2.0058e-16 -3.40068)
(-4.27206e-16 -2.02716e-16 -2.42225)
(4.82766e-16 2.72666e-16 -1.30195)
(-6.56794e-18 -3.41641e-17 -0.00933564)
(-1.70867e-17 6.75743e-18 1.27321)
(3.86346e-16 1.19836e-16 2.56435)
(-4.33719e-16 -1.55494e-16 3.98313)
(4.66212e-17 4.29811e-17 5.73161)
(3.81069e-16 7.60692e-17 7.86174)
(-6.50674e-17 -1.13038e-17 10.7207)
(2.8682e-16 8.5784e-17 14.4402)
(-2.07192e-18 -7.27493e-18 19.1846)
(9.02379e-17 5.78178e-17 24.2683)
(-4.05223e-17 -4.01332e-17 29.2427)
(-4.1211e-18 -6.07031e-18 32.7415)
(3.19758e-18 2.42556e-17 32.9276)
(3.50865e-18 1.475e-16 29.4889)
(-1.7166e-17 4.01179e-16 23.2126)
(-5.56241e-17 4.75648e-16 16.7033)
(-1.68705e-17 5.94666e-16 11.4977)
(1.94816e-17 -7.12391e-17 7.65064)
(-2.17295e-17 9.00828e-17 5.03476)
(-3.5437e-19 2.92928e-18 3.32109)
(8.58059e-18 -5.86766e-17 2.20427)
(-1.69635e-18 1.26561e-15 1.47404)
(5.85521e-17 -6.22927e-16 1.02261)
(4.1286e-18 -1.38564e-16 0.735941)
(-3.02474e-17 7.62569e-16 0.540208)
(1.93652e-17 4.95662e-16 0.407672)
(2.19328e-17 6.51685e-16 0.319926)
(-4.08872e-17 7.48397e-17 0.267552)
(-1.641e-18 -8.33607e-18 0.243108)
(4.8868e-17 -6.66531e-16 0.236723)
(1.93369e-17 4.56222e-16 0.245629)
(-8.27494e-19 3.41057e-17 0.267648)
(-2.44993e-17 5.11803e-16 0.300098)
(2.23611e-17 -4.46318e-16 0.342174)
(-1.06895e-17 -8.49931e-18 0.400167)
(-3.99167e-20 2.65782e-20 0.472585)
(8.19197e-18 3.95467e-18 0.560516)
(1.12835e-18 -3.48307e-16 0.664884)
(1.54276e-19 2.01412e-18 0.796843)
(-8.48195e-19 -1.90464e-17 0.971685)
(-1.29402e-19 1.98326e-17 1.17215)
(5.92947e-20 -1.66335e-17 1.3098)
(-1.67271e-18 3.28297e-16 1.30942)
(3.08049e-19 -2.15064e-17 1.11846)
(8.80884e-18 2.45029e-17 0.705297)
(1.44522e-17 3.38594e-16 0.135562)
(-3.29126e-17 -3.95545e-16 -0.451672)
(3.62515e-17 4.14561e-16 -0.88841)
(-9.51475e-18 -3.81988e-16 -1.06692)
(7.38161e-17 4.83071e-16 -1.01878)
(5.93978e-17 4.4114e-16 -0.810724)
(-3.22673e-17 -4.93098e-16 -0.492981)
(-4.55865e-17 -4.49481e-16 -0.0892866)
(-4.59439e-19 4.00612e-17 0.38312)
(8.91137e-17 5.15341e-16 0.818576)
(-2.26076e-17 -4.92909e-16 1.23322)
(-1.0683e-17 2.04147e-17 1.63912)
(3.53181e-17 -5.98556e-18 2.03738)
(1.20949e-18 3.75097e-17 2.45)
(2.19954e-16 9.94984e-16 2.90221)
(2.38911e-16 9.12136e-16 3.40445)
(1.3046e-16 3.83704e-16 3.9833)
(1.43971e-16 3.60018e-16 4.68266)
(1.23661e-16 3.37928e-16 5.53219)
(-2.87032e-16 -6.74731e-16 6.58753)
(9.51057e-18 3.15021e-17 8.01309)
(-9.32179e-17 -2.83254e-16 10.146)
(1.66555e-17 3.54291e-17 13.0154)
(-2.87473e-17 -1.31948e-16 16.4902)
(-3.75277e-18 -1.06549e-17 20.0625)
(-6.31751e-18 -5.47496e-17 22.3479)
(4.49574e-19 -1.23838e-17 22.0385)
(-5.5007e-19 1.13149e-17 18.6898)
(-6.58266e-20 -1.57567e-17 14.0827)
(1.20921e-17 5.18561e-16 9.89993)
(-2.00653e-17 5.08517e-17 6.64515)
(-3.94143e-19 -2.99749e-17 4.3938)
(-4.46012e-17 -5.327e-16 2.93482)
(6.64953e-17 4.75696e-16 1.98809)
(-6.55091e-17 6.15634e-16 1.38168)
(5.99874e-18 1.12793e-15 1.0072)
(5.81714e-18 1.17826e-15 0.763225)
(8.27675e-18 5.43712e-16 0.596491)
(3.12942e-18 6.54088e-17 0.484237)
(-3.25515e-17 6.43918e-16 0.412348)
(-7.0139e-18 -1.0418e-15 0.370573)
(-2.63487e-17 8.5356e-17 0.352632)
(-8.48892e-19 3.81198e-16 0.351943)
(5.93275e-18 1.23169e-17 0.362927)
(1.33329e-18 -3.18385e-19 0.384162)
(-4.48439e-17 4.42141e-17 0.415487)
(5.47026e-19 -9.42316e-17 0.459278)
(1.28633e-17 -3.06856e-16 0.511239)
(-1.80624e-19 -1.06333e-16 0.571811)
(-9.56179e-19 -7.48242e-18 0.649939)
(-1.89103e-17 1.78153e-16 0.744478)
(-3.48582e-18 -1.58949e-16 0.863079)
(6.82014e-18 2.2499e-16 1.01317)
(3.37528e-18 4.42511e-18 1.20546)
(-1.63112e-18 7.4544e-17 1.38515)
(7.16428e-19 -7.59223e-17 1.45303)
(-6.70209e-19 1.55463e-16 1.3393)
(4.61483e-18 1.66049e-18 1.03071)
(-1.7744e-18 -1.10754e-18 0.533533)
(-7.65346e-18 -5.65072e-18 -0.0307307)
(1.08488e-17 3.21108e-17 -0.507324)
(9.63362e-17 9.45843e-16 -0.735053)
(3.85773e-17 2.09607e-16 -0.725586)
(1.40316e-17 1.05533e-16 -0.508941)
(-7.06879e-18 -1.35983e-16 -0.17707)
(-1.23832e-16 -7.53882e-16 0.267552)
(3.70677e-17 2.89582e-16 0.780433)
(3.93689e-17 4.82795e-16 1.36457)
(-1.43844e-17 -3.78525e-17 2.05202)
(-5.13955e-17 -3.81722e-16 2.84384)
(3.89656e-17 1.49225e-16 3.29828)
(-1.42668e-17 -3.51735e-17 3.17685)
(-1.21962e-16 -4.26092e-16 3.60487)
(4.64024e-17 3.37544e-16 4.38083)
(-2.94137e-18 -1.37197e-17 5.62314)
(2.65094e-18 3.60659e-18 7.30503)
(-6.77196e-18 8.14901e-17 9.254)
(2.13732e-18 5.73023e-17 11.1792)
(-5.62957e-18 -5.99547e-17 12.5573)
(2.45091e-18 1.60179e-18 13.139)
(-1.13622e-18 -6.67104e-17 13.2364)
(1.67187e-18 6.91357e-17 13.1639)
(1.17875e-19 2.87402e-18 13.0628)
(2.55015e-19 6.77279e-17 12.9895)
(1.1856e-18 -3.46556e-18 12.9581)
(-1.12208e-18 -3.55327e-17 12.9632)
(-6.20001e-19 -2.96922e-17 12.9962)
(7.78632e-20 -2.99022e-17 13.051)
(-5.61906e-19 3.22687e-17 13.1249)
(6.72228e-19 -4.95428e-19 13.2184)
(-2.23949e-19 3.0623e-17 13.3333)
(-6.55873e-21 -3.26007e-17 13.4718)
(-9.76828e-20 -1.17939e-18 13.6368)
(5.41429e-19 -2.63034e-17 13.8307)
(-4.44086e-19 3.25285e-17 14.0563)
(5.53989e-19 -2.88709e-17 14.3174)
(-1.88801e-18 3.2077e-17 14.6192)
(1.70174e-18 -1.17536e-17 14.9696)
(-3.65741e-19 1.53108e-17 15.3811)
(-3.37415e-19 -8.32417e-19 15.8749)
(2.60416e-20 3.21721e-18 16.4878)
(-5.43485e-19 1.08277e-17 17.2873)
(1.15374e-19 -1.26449e-17 18.4004)
(-1.06874e-19 2.86516e-18 20.0613)
(-8.41402e-19 3.68594e-19 22.6145)
(1.28216e-18 -1.27658e-18 25.898)
(4.32694e-19 7.26396e-19 24.8143)
(-8.90385e-19 -1.7961e-19 -4.35403)
(-2.55747e-21 1.11477e-19 -11.3631)
(-2.49979e-18 4.88968e-19 1.81352)
(1.2306e-18 -4.36593e-19 6.91607)
(8.03816e-19 -2.52709e-19 9.22483)
(-1.6345e-18 -6.30873e-20 10.3984)
(1.89103e-18 2.00835e-18 10.929)
(-1.85834e-18 -2.11626e-18 11.0989)
(1.41647e-19 1.5499e-18 11.0865)
(1.70767e-19 1.71533e-18 10.9773)
(8.83978e-19 3.3745e-18 10.8146)
(5.86723e-20 1.90148e-18 10.6236)
(1.07543e-20 3.3697e-18 10.4191)
(-6.9882e-19 -1.08768e-17 10.2102)
(2.1642e-18 2.73566e-17 10.0021)
(4.40119e-19 -1.10624e-17 9.79788)
(-8.24113e-19 1.61796e-17 9.59942)
(4.93941e-19 -9.18338e-18 9.40759)
(2.26426e-19 8.06222e-18 9.22267)
(-2.97643e-18 3.02301e-17 9.04449)
(3.13746e-18 -2.9697e-17 8.87251)
(-3.60123e-19 4.84101e-18 8.70586)
(-4.63294e-18 2.7673e-18 8.54336)
(4.06764e-18 -3.00126e-17 8.38348)
(3.73336e-18 4.12143e-17 8.22424)
(-1.02987e-18 2.8039e-17 8.06314)
(3.60925e-18 -3.44393e-17 7.89702)
(-9.78841e-18 -2.89086e-17 7.72183)
(8.07613e-19 3.6053e-17 7.53254)
(4.43034e-18 -3.51808e-18 7.32237)
(4.78606e-18 5.94747e-20 7.08309)
(-9.32837e-18 -2.26581e-19 6.77118)
(1.36953e-18 2.01186e-17 6.21711)
(1.73116e-17 1.87937e-16 5.42866)
(2.45813e-17 1.51162e-16 4.48527)
(-7.67318e-17 -2.22696e-16 3.4455)
(8.99722e-18 2.60664e-19 2.34947)
(-8.40849e-17 -2.23174e-16 1.23006)
(4.08859e-17 1.12744e-16 0.159751)
(1.72353e-16 1.63164e-16 -0.76995)
(-6.24902e-17 -1.1522e-17 -1.41118)
(4.70241e-16 3.78848e-16 -1.7155)
(-4.44506e-18 -9.53664e-17 -1.73)
(-3.56822e-16 -2.607e-16 -1.51201)
(-4.12039e-16 -2.2958e-16 -1.12346)
(5.82691e-17 8.56862e-17 -0.625616)
(2.73232e-16 7.3554e-17 -0.0708813)
(-7.16853e-16 -3.41932e-16 0.491526)
(-3.89031e-16 -1.38669e-16 1.04857)
(-1.10353e-16 -2.29223e-17 1.63281)
(1.72193e-17 2.65008e-17 2.15152)
(5.8286e-17 -1.89877e-18 2.66038)
(-8.76014e-17 -2.58946e-17 3.22643)
(1.77252e-17 9.2412e-18 3.90908)
(-1.0551e-19 6.23679e-18 4.84756)
(3.13819e-16 1.24097e-17 6.18419)
(-1.16908e-16 3.89491e-18 8.06661)
(-1.1806e-16 1.56686e-17 10.5144)
(5.74705e-17 -1.22467e-17 13.6704)
(6.75347e-18 4.63395e-18 17.7747)
(1.01105e-19 -1.47901e-18 21.9744)
(-1.72406e-17 2.89478e-17 25.0806)
(-1.95158e-17 -1.27658e-17 25.3929)
(-6.58386e-17 -5.43154e-17 22.6245)
(6.33907e-17 -4.32044e-16 18.6009)
(-8.97561e-17 4.70066e-16 14.5304)
(3.56968e-17 -4.76793e-16 10.921)
(2.55913e-17 -4.21018e-17 8.14399)
(-2.58092e-18 4.88774e-17 6.12978)
(8.71907e-19 -1.21546e-15 4.71767)
(-1.2517e-17 1.14457e-15 3.74053)
(-2.0031e-17 9.10114e-17 3.05328)
(-2.97971e-17 -4.87221e-16 2.55825)
(-4.34521e-17 -1.49039e-17 2.19684)
(-4.58237e-17 5.58327e-16 1.93032)
(-7.35185e-18 -5.40752e-16 1.73057)
(4.09102e-17 -6.07314e-16 1.57959)
(3.25753e-18 1.03611e-15 1.46727)
(-1.71954e-17 3.28734e-17 1.38465)
(-1.57837e-17 1.90264e-17 1.32893)
(2.34269e-19 -8.90043e-16 1.29289)
(4.07357e-19 8.04748e-16 1.27565)
(9.97194e-18 3.6419e-17 1.2729)
(-9.37983e-18 6.8293e-18 1.29426)
(1.82189e-19 -1.96866e-17 1.32639)
(6.31124e-18 3.34642e-16 1.38209)
(-4.6206e-19 9.14254e-18 1.44501)
(3.01504e-18 -7.50944e-17 1.4954)
(-1.62734e-19 -2.07458e-18 1.47578)
(1.43724e-18 -5.61878e-17 1.33207)
(5.78989e-18 -3.01439e-16 1.0229)
(7.61963e-19 -2.87848e-17 0.55867)
(-8.94445e-18 -6.62248e-16 0.00822189)
(-8.54667e-18 -3.13452e-16 -0.502922)
(3.27236e-17 7.33672e-16 -0.851019)
(1.4939e-17 -9.29367e-19 -0.965656)
(-5.54878e-17 -4.78228e-16 -0.843248)
(-7.83569e-17 -8.54345e-16 -0.530454)
(-3.11415e-17 -4.0127e-16 -0.108605)
(-2.75399e-17 6.97079e-18 0.349101)
(5.94461e-17 4.80833e-16 0.787308)
(1.48954e-19 -3.77409e-17 1.1532)
(-3.9078e-17 -4.76516e-16 1.39534)
(-1.52966e-17 2.65287e-17 1.53698)
(8.62032e-17 4.60131e-16 1.61808)
(-8.13868e-17 -5.02837e-16 1.6756)
(-1.02216e-18 -1.41394e-17 1.74392)
(-1.8622e-16 -8.67977e-16 1.84372)
(-7.45545e-17 -3.58943e-16 1.97703)
(2.57428e-17 -2.43224e-18 2.14271)
(-1.25792e-16 -3.6074e-16 2.33137)
(1.53089e-17 3.42252e-17 2.58151)
(1.15087e-16 2.81549e-16 2.93117)
(-4.19564e-19 -1.53609e-17 3.37722)
(-1.35444e-16 -2.2602e-16 4.13701)
(6.21786e-18 1.75896e-17 5.34306)
(-2.68685e-18 -7.7558e-19 7.19134)
(-9.49405e-20 -1.01277e-18 9.83912)
(8.52926e-18 5.50792e-17 13.1371)
(4.53417e-19 1.26352e-18 16.5931)
(1.99478e-19 -1.04376e-17 18.4988)
(-1.43981e-18 2.22458e-17 17.9065)
(-1.79898e-17 5.51593e-19 15.4884)
(-1.79119e-17 1.25199e-17 12.4239)
(2.33227e-18 1.8813e-17 9.56053)
(6.91539e-17 -6.13627e-16 7.29145)
(-6.66386e-17 6.77804e-16 5.64251)
(1.93501e-17 -1.11271e-15 4.48291)
(-4.97469e-17 -5.68204e-16 3.66818)
(-7.7947e-17 1.82778e-17 3.08516)
(4.37158e-18 -5.17905e-16 2.65933)
(-1.57041e-17 8.99095e-17 2.34324)
(-5.66489e-18 -5.28973e-16 2.1045)
(4.53904e-17 -1.92023e-16 1.92167)
(-6.98045e-18 7.66388e-18 1.78153)
(-1.99457e-17 -5.99973e-17 1.67409)
(1.3402e-17 1.22412e-16 1.59374)
(1.33202e-17 -4.11982e-16 1.53478)
(1.57418e-17 -8.99887e-16 1.4948)
(5.95382e-19 -5.75415e-17 1.46983)
(-6.52326e-18 3.814e-16 1.46274)
(-2.1849e-17 4.91201e-16 1.47156)
(-8.04362e-18 -5.78147e-17 1.4922)
(-1.13279e-18 -2.49717e-16 1.5351)
(6.00932e-18 -1.69443e-16 1.58406)
(-9.84431e-18 1.4568e-16 1.62852)
(5.6398e-19 4.10109e-17 1.62244)
(4.17074e-19 1.72953e-18 1.4981)
(5.11496e-18 -2.21973e-16 1.20809)
(1.45101e-18 -1.60909e-16 0.75027)
(-6.36252e-18 -3.97527e-16 0.186481)
(1.22022e-18 1.71502e-16 -0.363165)
(-4.37381e-18 -1.0215e-16 -0.769816)
(-3.63961e-17 -4.06604e-16 -0.946252)
(-6.69734e-17 -8.11131e-16 -0.861391)
(-3.18615e-17 -3.96436e-16 -0.569852)
(-4.50848e-18 -5.25541e-18 -0.155791)
(-6.87832e-17 -4.34332e-16 0.316685)
(1.67356e-16 1.33712e-15 0.757657)
(2.85276e-17 7.91646e-17 1.12106)
(1.57183e-18 1.35244e-17 1.3946)
(9.27285e-17 4.80922e-16 1.58568)
(-2.45725e-17 -3.95301e-17 1.78493)
(2.32829e-18 1.18177e-17 1.73229)
(7.09736e-17 2.91244e-16 1.7093)
(6.82227e-17 3.90947e-16 1.73765)
(2.98675e-19 -1.49474e-17 1.9228)
(-3.83811e-18 -5.97932e-18 2.30668)
(-2.76645e-17 -1.17367e-16 2.89313)
(2.91298e-17 1.22644e-16 3.70741)
(-2.83519e-18 -5.45925e-18 4.73073)
(-2.8024e-18 -5.05564e-18 5.77848)
(-4.16181e-18 -5.29627e-17 6.53616)
(-1.60671e-18 3.63181e-18 6.9568)
(3.71916e-18 -3.34415e-18 7.14574)
(-2.14585e-18 -6.37348e-18 7.20909)
(4.58504e-20 -5.3111e-17 7.22432)
(2.09415e-18 4.85402e-20 7.23489)
(-1.98699e-18 5.43774e-17 7.25983)
(1.57015e-20 -2.55001e-18 7.30497)
(-1.14076e-18 2.4728e-17 7.36978)
(-2.33539e-20 -2.71566e-17 7.45189)
(9.56738e-19 2.53444e-18 7.54953)
(-1.80975e-19 2.72147e-22 7.66187)
(2.51818e-20 1.83674e-18 7.78903)
(-7.83476e-20 1.65633e-18 7.93218)
(-4.42574e-19 -2.3541e-17 8.09335)
(6.18131e-19 2.08508e-17 8.27592)
(-3.7346e-19 -1.99579e-17 8.48474)
(-4.74935e-19 3.92605e-17 8.72667)
(7.27669e-19 -3.31503e-17 9.01169)
(3.76577e-19 1.18461e-17 9.35505)
(6.21603e-20 2.60818e-18 9.78161)
(2.18321e-19 -1.58552e-18 10.3342)
(1.01804e-18 4.52107e-19 11.0884)
(-5.28972e-19 2.29469e-18 12.1732)
(-1.80259e-19 -1.34317e-18 13.7602)
(9.54234e-20 3.16399e-19 15.8322)
(-9.0355e-19 1.36908e-19 17.0035)
(2.22422e-18 -4.79113e-19 9.82726)
(3.0879e-18 1.23758e-18 -19.6443)
(-1.38833e-18 2.37592e-19 -10.2993)
(8.18936e-20 -7.04231e-20 -2.35887)
(-7.17728e-20 1.4193e-20 1.43965)
(-2.06753e-18 7.64088e-19 3.36687)
(1.91559e-18 -5.46371e-19 4.45782)
(2.76618e-18 -1.50218e-19 5.12889)
(-2.78927e-18 7.06929e-20 5.53392)
(1.28765e-18 2.07234e-19 5.78103)
(5.56945e-20 -1.61811e-19 5.92674)
(7.39719e-20 -1.61436e-18 6.00395)
(-3.90945e-19 8.72179e-20 6.03401)
(5.74126e-19 -1.018e-18 6.03155)
(-5.37019e-21 -1.56286e-19 6.00666)
(7.0601e-19 -2.46962e-18 5.96636)
(-4.60225e-19 1.58909e-19 5.9156)
(1.00319e-18 -2.04488e-19 5.85783)
(-4.81168e-19 -4.1274e-18 5.79546)
(-2.26994e-18 -9.64644e-18 5.73006)
(9.31044e-18 2.97463e-17 5.66262)
(-6.28008e-18 -2.37374e-17 5.59357)
(-2.6036e-18 4.41945e-18 5.52296)
(5.19667e-18 1.69323e-17 5.45037)
(-4.71138e-18 -2.56069e-17 5.37499)
(2.14074e-18 9.9154e-20 5.2955)
(3.87461e-18 -3.20396e-18 5.21005)
(-4.92164e-18 -2.30938e-17 5.11611)
(1.69451e-18 2.92009e-17 5.01037)
(3.77464e-18 8.57459e-19 4.88859)
(4.69978e-18 2.39957e-17 4.74518)
(-7.06782e-18 -2.77579e-17 4.5726)
(5.65413e-18 2.55377e-17 4.34403)
(-1.71263e-17 -7.9452e-17 3.97407)
(-7.11841e-18 -9.71586e-17 3.44085)
(8.22524e-18 -1.8488e-17 2.76895)
(-6.49535e-17 7.94774e-18 1.9865)
(3.76725e-17 -2.83765e-17 1.13931)
(-1.18111e-16 -1.28341e-16 0.275841)
(2.73765e-18 2.23606e-17 -0.48092)
(1.10436e-16 5.26902e-17 -1.07077)
(-1.45691e-16 -1.11981e-16 -1.43447)
(1.17932e-16 8.51673e-17 -1.54758)
(-8.44992e-17 -1.33156e-17 -1.44218)
(6.07032e-16 3.6978e-16 -1.17143)
(2.56553e-16 9.27403e-17 -0.783038)
(9.99883e-17 3.49435e-17 -0.322096)
(-5.27075e-19 -4.85094e-18 0.169234)
(-4.02226e-17 5.56171e-18 0.655504)
(7.73492e-16 3.09655e-16 1.10992)
(3.47257e-16 8.97674e-17 1.51305)
(5.1197e-17 2.95907e-17 1.84372)
(7.57326e-16 2.16336e-16 2.11392)
(9.96621e-19 -3.69424e-17 2.357)
(-3.74619e-16 -6.33987e-17 2.59422)
(3.82822e-18 1.38989e-17 2.90933)
(3.25133e-17 1.30213e-18 3.36806)
(1.43373e-16 -1.18418e-17 4.10044)
(7.22317e-17 -8.2435e-18 5.25335)
(-9.59209e-17 2.45037e-17 6.87555)
(1.78937e-17 -9.22454e-18 9.24579)
(1.13156e-18 7.50132e-18 12.589)
(-1.42661e-17 1.00995e-17 16.4083)
(-1.16814e-17 1.12599e-17 19.7671)
(3.19038e-17 -3.05686e-16 20.9923)
(-3.69611e-17 3.9057e-16 20.2631)
(1.09948e-16 -6.70941e-16 18.025)
(9.71165e-17 -1.07071e-16 15.2808)
(-7.74353e-17 5.11414e-16 12.4866)
(-2.29932e-18 6.57416e-17 10.0398)
(4.01592e-17 5.51094e-16 8.09261)
(-2.61494e-17 -6.31875e-16 6.60807)
(5.15224e-17 -5.30584e-16 5.49396)
(2.06467e-17 -1.69842e-17 4.65976)
(8.9693e-19 -5.39185e-16 4.03149)
(-9.82815e-18 -4.91623e-16 3.55124)
(4.06908e-17 -1.7318e-16 3.17758)
(-1.84013e-17 1.05708e-15 2.88219)
(-3.34129e-17 -4.90696e-16 2.64844)
(1.41034e-18 5.25621e-17 2.45834)
(2.66562e-17 -4.8577e-16 2.30771)
(2.2678e-17 4.20809e-16 2.18596)
(-3.32068e-17 -3.8952e-16 2.09003)
(-2.11885e-17 3.94015e-16 2.00714)
(1.98834e-17 -3.61648e-16 1.95069)
(8.05842e-18 -1.50903e-17 1.89328)
(-7.0059e-18 -7.04922e-18 1.84742)
(3.33403e-19 -1.10934e-17 1.77284)
(-1.23505e-18 9.36781e-17 1.65467)
(2.80962e-20 1.32465e-18 1.43752)
(-2.31685e-18 9.20263e-17 1.07665)
(-4.42966e-18 1.47817e-16 0.577196)
(1.61931e-18 -3.24051e-17 0.00456208)
(-7.415e-18 3.65101e-16 -0.530456)
(1.62356e-17 3.03972e-16 -0.909513)
(-8.50833e-18 -3.61855e-16 -1.04723)
(1.04963e-17 2.91577e-17 -0.939717)
(2.01946e-17 3.82758e-16 -0.608107)
(2.62025e-17 3.99339e-16 -0.136536)
(-1.06371e-17 1.47402e-17 0.385169)
(7.05913e-17 4.31004e-16 0.862393)
(-9.57808e-17 -9.29337e-16 1.24385)
(-2.46948e-19 3.46771e-17 1.49149)
(-1.53063e-17 -1.65285e-17 1.62004)
(1.99229e-20 -1.71062e-17 1.65876)
(-5.59864e-17 -4.39069e-16 1.64878)
(-2.02452e-17 -2.57242e-17 1.62877)
(2.92141e-18 1.61656e-17 1.62463)
(-2.9859e-17 -1.71088e-17 1.643)
(-1.44345e-16 -4.1396e-16 1.67404)
(-1.28249e-16 -3.59583e-16 1.70573)
(-2.43295e-18 1.06887e-17 1.72883)
(0 -0 1.73522)
(3.99515e-18 2.76619e-18 1.79426)
(6.36697e-18 6.5973e-18 1.87366)
(5.4529e-17 1.07246e-16 2.10362)
(4.4837e-17 8.27778e-17 2.53163)
(-2.27269e-19 -1.35816e-18 3.33478)
(1.60533e-18 4.3903e-18 4.69982)
(-1.04051e-18 1.76015e-19 6.8478)
(-4.64607e-19 1.21327e-19 9.81628)
(9.20047e-19 -3.70698e-19 13.1694)
(-1.5133e-17 7.29038e-18 15.4131)
(-3.2128e-19 2.56398e-17 15.8572)
(7.38678e-17 -3.58624e-16 14.7564)
(4.85677e-21 -4.78994e-17 12.8891)
(-4.5548e-18 5.19637e-16 10.8179)
(-2.54945e-19 -5.51476e-16 8.94469)
(2.48253e-17 5.15774e-16 7.4207)
(2.35014e-17 2.4973e-17 6.23821)
(-6.63368e-18 -5.57174e-16 5.33731)
(-2.57131e-18 4.6813e-16 4.64992)
(3.31746e-17 -4.02968e-16 4.11785)
(-1.88662e-17 4.93856e-16 3.6985)
(2.20331e-17 -3.01414e-17 3.36409)
(1.67457e-17 -8.04311e-17 3.09373)
(-2.96258e-17 4.5807e-17 2.87309)
(-2.72681e-17 3.48685e-16 2.69283)
(3.413e-17 9.22178e-17 2.54241)
(2.5864e-17 4.03987e-16 2.41945)
(1.38084e-17 1.26637e-16 2.31359)
(6.54748e-18 -4.35574e-16 2.22778)
(2.41957e-17 -7.33028e-16 2.15788)
(2.57309e-17 -4.56449e-16 2.08559)
(-8.60634e-19 6.53603e-17 2.02391)
(-1.54814e-18 7.74857e-17 1.93452)
(-5.10466e-19 -7.35807e-17 1.80166)
(-1.6751e-18 3.49927e-17 1.57475)
(1.48741e-18 2.80265e-18 1.20441)
(-7.07915e-18 2.9027e-16 0.686526)
(-4.56298e-19 4.21677e-18 0.0847526)
(-1.82602e-19 4.00968e-16 -0.486905)
(1.84276e-17 2.51633e-16 -0.902122)
(-7.95527e-19 1.45465e-18 -1.07349)
(8.93455e-18 2.88995e-16 -0.983411)
(2.88373e-17 4.75903e-16 -0.658811)
(-5.78502e-17 -3.41299e-16 -0.195493)
(4.53761e-17 3.56732e-16 0.296203)
(6.05007e-17 5.33825e-16 0.756486)
(-4.87477e-17 -5.87629e-16 1.11469)
(-7.17874e-17 -4.45129e-16 1.34657)
(9.51698e-17 5.61911e-16 1.45469)
(-7.98145e-17 -5.58424e-16 1.48068)
(8.88001e-17 4.56864e-16 1.44702)
(2.3385e-18 5.77483e-17 1.32944)
(-6.21902e-17 -4.20113e-16 1.34121)
(1.97825e-17 3.59555e-17 1.28161)
(5.9783e-17 2.80246e-16 1.2932)
(1.32058e-17 5.80004e-17 1.39714)
(1.41447e-17 1.09532e-16 1.56315)
(-1.1965e-17 -1.12028e-16 1.81329)
(5.83479e-18 5.3462e-17 2.16418)
(-6.53433e-18 -5.22809e-17 2.57226)
(-3.79128e-18 1.77009e-18 2.91194)
(1.36658e-18 -4.36182e-18 3.12635)
(-5.99428e-19 -4.31619e-17 3.22767)
(8.9398e-19 5.38599e-17 3.25826)
(-2.72825e-18 4.41067e-17 3.26361)
(-1.34316e-18 -4.15679e-17 3.27514)
(3.24303e-18 2.33998e-17 3.30844)
(1.82604e-19 -2.34513e-17 3.36759)
(-2.63853e-20 1.52805e-18 3.44995)
(-9.28584e-19 2.38629e-17 3.54984)
(1.29877e-18 -2.15023e-17 3.66217)
(-1.64347e-18 2.31012e-17 3.78334)
(-1.21819e-19 -2.16202e-17 3.91157)
(1.34181e-18 -1.77456e-18 4.04712)
(-1.49763e-18 2.3631e-18 4.19215)
(7.51123e-19 -1.10558e-19 4.3508)
(-2.30326e-18 1.21971e-19 4.52907)
(3.87547e-18 1.97158e-18 4.73522)
(-2.61014e-18 -1.64959e-19 4.98068)
(3.31315e-19 -3.62657e-19 5.28221)
(6.93887e-19 -3.41873e-18 5.66617)
(-1.54175e-18 3.47093e-19 6.1758)
(1.4469e-18 -9.63443e-19 6.88042)
(2.26897e-18 -3.11431e-18 7.87318)
(-1.60466e-18 2.52356e-18 9.19303)
(6.43314e-19 -4.9452e-19 10.4433)
(-4.10561e-19 4.34254e-20 9.3551)
(-8.00001e-19 5.03144e-19 0.778652)
(-2.71919e-18 -6.46447e-19 -20.0369)
(8.78624e-19 -1.50191e-19 -8.60585)
(-2.39985e-18 6.3608e-19 -3.51687)
(-2.23495e-18 7.14782e-19 -0.657362)
(4.34737e-18 -1.61854e-18 0.866213)
(-7.42135e-18 2.6994e-18 1.76488)
(3.77177e-18 -1.23403e-18 2.34034)
(-7.26644e-20 -9.99194e-20 2.7563)
(-1.11855e-18 -1.36982e-19 3.06258)
(4.23519e-20 -4.46924e-19 3.29196)
(-5.24875e-18 -1.34732e-18 3.46481)
(3.63131e-18 2.00359e-18 3.59511)
(-3.47254e-19 -2.09601e-18 3.69318)
(-2.50575e-18 -3.36522e-18 3.76663)
(7.33365e-19 3.51496e-18 3.8211)
(-4.82437e-19 -1.40924e-18 3.86075)
(4.53667e-19 -2.56904e-20 3.88865)
(-1.93353e-18 -5.1733e-19 3.90695)
(5.69688e-19 2.54938e-18 3.91715)
(-5.2267e-18 -1.98042e-17 3.92014)
(2.2057e-18 1.95644e-17 3.91635)
(2.22084e-18 9.77893e-18 3.90573)
(-3.30516e-19 -1.80357e-17 3.88779)
(-3.10965e-18 2.77579e-18 3.86158)
(-7.40933e-20 2.6011e-18 3.82561)
(-6.73523e-19 -8.32833e-19 3.77782)
(-3.51016e-18 -6.668e-18 3.71545)
(-4.50021e-18 -2.01853e-17 3.63498)
(2.88559e-18 2.12859e-18 3.53202)
(6.36384e-18 7.15094e-19 3.40102)
(-9.92174e-19 2.02682e-17 3.23416)
(-4.7885e-19 5.89091e-18 3.01134)
(8.36195e-18 5.5263e-17 2.68885)