/*--------------------------------*- C++ -*----------------------------------*\
| =========                 |                                                 |
| \\      /  F ield         | OpenFOAM: The Open Source CFD Toolbox           |
|  \\    /   O peration     | Version:  2506                                  |
|   \\  /    A nd           | Website:  www.openfoam.com                      |
|    \\/     M anipulation  |                                                 |
\*---------------------------------------------------------------------------*/
FoamFile
{
    version     2.0;
    format      ascii;
    arch        "LSB;label=32;scalar=64";
    class       volScalarField;
    location    "3.3";
    object      p;
}
// * * * * * * * * * * * * * * * * * * * * * * * * * * * * * * * * * * * * * //

dimensions      [0 2 -2 0 0 0 0];

internalField   nonuniform List<scalar> 
4000
(
-1.79455e-05
1.54076e-05
2.60492e-05
2.80237e-05
2.86462e-05
2.85944e-05
2.79139e-05
2.70931e-05
2.64585e-05
2.60175e-05
2.58439e-05
2.59764e-05
2.64026e-05
2.70918e-05
2.8012e-05
2.92241e-05
3.07474e-05
3.25917e-05
3.47755e-05
3.73144e-05
4.02209e-05
4.3518e-05
4.72286e-05
5.13781e-05
5.5957e-05
6.10008e-05
6.6549e-05
7.26451e-05
7.93251e-05
8.66458e-05
9.47163e-05
0.000103557
0.000112699
0.000121419
0.000129382
0.00013644
0.000142804
0.000147459
0.000150883
0.000154216
0.000156787
0.000158622
0.000159799
0.000160199
0.000159686
0.000158137
0.000155471
0.000151427
0.000145963
0.000139073
0.000130854
0.000121604
0.000111198
0.000100222
8.8465e-05
7.61212e-05
6.26541e-05
4.77913e-05
3.08607e-05
1.16935e-05
-9.38869e-06
-3.2025e-05
-5.30416e-05
-7.14724e-05
-8.66243e-05
-9.8538e-05
-0.000107659
-0.000114233
-0.000118844
-0.000121836
-0.000123433
-0.000123742
-0.000122866
-0.000120878
-0.000117824
-0.000113736
-0.000108625
-0.000102465
-9.52794e-05
-8.7055e-05
-7.77537e-05
-6.72553e-05
-5.56123e-05
-4.27004e-05
-2.85887e-05
-1.32339e-05
3.04018e-06
1.98518e-05
3.66607e-05
5.27691e-05
6.75474e-05
8.07299e-05
9.19766e-05
0.000101488
0.000109258
0.000115869
0.000121574
0.000126409
0.000130561
0.000133924
0.00013623
0.000137153
0.000136454
0.000134002
0.000129845
0.00012417
0.000117214
0.000109162
0.000100272
9.08407e-05
8.07053e-05
6.95514e-05
5.79681e-05
4.48018e-05
3.1042e-05
1.57872e-05
-4.58925e-07
-1.7136e-05
-3.41342e-05
-5.14777e-05
-6.73565e-05
-8.16852e-05
-9.36451e-05
-0.000103845
-0.000111695
-0.00011778
-0.000122342
-0.000125476
-0.000127314
-0.000127993
-0.000127593
-0.000126162
-0.000123725
-0.000120285
-0.000115859
-0.000110445
-0.000104032
-9.65955e-05
-8.80294e-05
-7.83656e-05
-6.75617e-05
-5.54479e-05
-4.21404e-05
-2.75279e-05
-1.18356e-05
4.63068e-06
2.13892e-05
3.77659e-05
5.30371e-05
6.67853e-05
7.86105e-05
8.84459e-05
9.64307e-05
0.000102905
0.000108016
0.000112239
0.00011567
0.000118188
0.000119468
0.000119122
0.000116484
0.000110218
9.84069e-05
7.78845e-05
6.71387e-05
5.93119e-05
4.98104e-05
4.05743e-05
3.26026e-05
2.65505e-05
2.32666e-05
2.21533e-05
2.09496e-05
1.97775e-05
1.88465e-05
1.81052e-05
1.75303e-05
1.71402e-05
1.69522e-05
1.69749e-05
1.71913e-05
1.75952e-05
1.81764e-05
1.89261e-05
1.98334e-05
2.08816e-05
2.20729e-05
2.34232e-05
2.49475e-05
2.66674e-05
2.86225e-05
3.08784e-05
3.35427e-05
3.68409e-05
4.11778e-05
4.72639e-05
5.58913e-05
6.87276e-05
9.12404e-05
0.000135153
4.33948e-06
1.83448e-05
2.38778e-05
2.57147e-05
2.63634e-05
2.64039e-05
2.60588e-05
2.56083e-05
2.52454e-05
2.50335e-05
2.50251e-05
2.52557e-05
2.57353e-05
2.6462e-05
2.7435e-05
2.86807e-05
3.02189e-05
3.2065e-05
3.42355e-05
3.67464e-05
3.96144e-05
4.28571e-05
4.6491e-05
5.05282e-05
5.50351e-05
6.00017e-05
6.54516e-05
7.14088e-05
7.79114e-05
8.50244e-05
9.28126e-05
0.000100985
0.000109335
0.000117464
0.000125016
0.000131788
0.000137782
0.000142116
0.000145339
0.000148083
0.000149967
0.000151106
0.000151547
0.000151204
0.00014996
0.000147685
0.000144266
0.000139568
0.00013355
0.000126287
0.000117964
0.000108832
9.89047e-05
8.86132e-05
7.78928e-05
6.69555e-05
5.5475e-05
4.33618e-05
3.00396e-05
1.53286e-05
-1.15619e-06
-1.94608e-05
-3.73497e-05
-5.45825e-05
-7.00954e-05
-8.29488e-05
-9.33895e-05
-0.000101299
-0.000107098
-0.00011112
-0.00011363
-0.000114771
-0.000114667
-0.000113403
-0.000111034
-0.0001076
-0.000103122
-9.75741e-05
-9.09793e-05
-8.3332e-05
-7.46067e-05
-6.46875e-05
-5.36217e-05
-4.12994e-05
-2.77905e-05
-1.30722e-05
2.54336e-06
1.86354e-05
3.46507e-05
4.98577e-05
6.36979e-05
7.59186e-05
8.63481e-05
9.51778e-05
0.000102548
0.000108863
0.000114272
0.000118795
0.000122498
0.000125227
0.000126723
0.00012673
0.000125143
0.000121948
0.000117307
0.000111415
0.000104441
9.65965e-05
8.81138e-05
7.91181e-05
6.94923e-05
5.919e-05
4.84407e-05
3.68411e-05
2.487e-05
1.22328e-05
-9.94033e-07
-1.4473e-05
-2.79832e-05
-4.19932e-05
-5.57827e-05
-6.88568e-05
-8.04097e-05
-9.07241e-05
-9.90652e-05
-0.000105754
-0.00011092
-0.000114664
-0.000117084
-0.000118304
-0.000118412
-0.000117464
-0.000115491
-0.000112502
-0.000108509
-0.00010352
-9.75225e-05
-9.05073e-05
-8.23711e-05
-7.31361e-05
-6.27884e-05
-5.1167e-05
-3.83869e-05
-2.43657e-05
-9.31992e-06
6.40916e-06
2.23264e-05
3.77091e-05
5.18559e-05
6.43625e-05
7.49873e-05
8.37368e-05
9.0843e-05
9.66351e-05
0.000101272
0.000104967
0.000107686
0.000109199
0.000109096
0.000106832
0.000101748
9.31016e-05
8.03992e-05
6.53319e-05
5.75943e-05
5.08794e-05
4.30589e-05
3.59003e-05
3.01023e-05
2.58637e-05
2.33389e-05
2.20236e-05
2.07855e-05
1.96685e-05
1.87631e-05
1.80537e-05
1.7526e-05
1.71947e-05
1.70698e-05
1.71383e-05
1.73954e-05
1.78321e-05
1.84369e-05
1.92094e-05
2.01407e-05
2.12046e-05
2.24081e-05
2.37751e-05
2.53168e-05
2.7052e-05
2.90192e-05
3.12885e-05
3.39732e-05
3.72926e-05
4.16477e-05
4.76438e-05
5.60065e-05
6.75553e-05
8.31703e-05
0.0001041
1.54578e-05
1.97088e-05
2.21632e-05
2.34966e-05
2.41186e-05
2.42936e-05
2.42179e-05
2.4053e-05
2.3922e-05
2.38976e-05
2.40313e-05
2.43596e-05
2.49038e-05
2.56766e-05
2.66891e-05
2.79599e-05
2.95077e-05
3.13498e-05
3.3502e-05
3.59816e-05
3.88087e-05
4.19998e-05
4.55747e-05
4.95574e-05
5.39536e-05
5.88033e-05
6.41207e-05
6.99253e-05
7.62428e-05
8.31272e-05
9.06148e-05
9.83221e-05
0.000106202
0.000113969
0.000121232
0.000127727
0.000133359
0.000137422
0.000140256
0.000142272
0.000143436
0.000143854
0.000143542
0.000142442
0.000140479
0.00013754
0.000133512
0.000128341
0.000122045
0.000114685
0.000106461
9.76201e-05
8.82467e-05
7.86415e-05
6.8829e-05
5.90015e-05
4.89861e-05
3.88182e-05
2.8128e-05
1.65937e-05
3.78453e-06
-1.02785e-05
-2.54043e-05
-4.10506e-05
-5.56071e-05
-6.85323e-05
-7.97203e-05
-8.86583e-05
-9.55371e-05
-0.00010056
-0.000103984
-0.000105942
-0.000106588
-0.000106024
-0.00010432
-0.000101518
-9.76513e-05
-9.26968e-05
-8.66804e-05
-7.95996e-05
-7.14376e-05
-6.20911e-05
-5.16085e-05
-3.98915e-05
-2.70176e-05
-1.2987e-05
1.8904e-06
1.71836e-05
3.23296e-05
4.6643e-05
5.96475e-05
7.11278e-05
8.09972e-05
8.94165e-05
9.65298e-05
0.000102571
0.000107645
0.000111749
0.00011487
0.000116857
0.00011752
0.000116704
0.000114452
0.000110791
0.00010587
9.99583e-05
9.32066e-05
8.57968e-05
7.79063e-05
6.9549e-05
6.05973e-05
5.1163e-05
4.13459e-05
3.11916e-05
2.08958e-05
1.04237e-05
-2.69665e-07
-1.11255e-05
-2.22345e-05
-3.40078e-05
-4.60392e-05
-5.76096e-05
-6.8541e-05
-7.87183e-05
-8.72984e-05
-9.44373e-05
-0.000100089
-0.000104375
-0.000107325
-0.000109049
-0.000109639
-0.000109156
-0.000107633
-0.000105082
-0.000101516
-9.69463e-05
-9.13628e-05
-8.47645e-05
-7.70589e-05
-6.82649e-05
-5.83845e-05
-4.72779e-05
-3.50671e-05
-2.17035e-05
-7.4132e-06
7.44469e-06
2.23745e-05
3.66722e-05
4.97155e-05
6.11787e-05
7.08863e-05
7.89221e-05
8.55199e-05
9.08377e-05
9.49651e-05
9.79852e-05
9.97665e-05
0.00010001
9.82784e-05
9.41152e-05
8.73003e-05
7.79198e-05
6.66389e-05
5.65757e-05
5.09899e-05
4.5164e-05
3.8944e-05
3.35105e-05
2.91873e-05
2.594e-05
2.36388e-05
2.19968e-05
2.06475e-05
1.94918e-05
1.85837e-05
1.79099e-05
1.74373e-05
1.71634e-05
1.70935e-05
1.72108e-05
1.75033e-05
1.79684e-05
1.85969e-05
1.9384e-05
2.03218e-05
2.13997e-05
2.26216e-05
2.39996e-05
2.55428e-05
2.72664e-05
2.92008e-05
3.1401e-05
3.39645e-05
3.70735e-05
4.10463e-05
4.6359e-05
5.3556e-05
6.27651e-05
7.26454e-05
8.2566e-05
1.92752e-05
2.05178e-05
2.14735e-05
2.22121e-05
2.26005e-05
2.27519e-05
2.27696e-05
2.27398e-05
2.27395e-05
2.28292e-05
2.30538e-05
2.34476e-05
2.40351e-05
2.48345e-05
2.58617e-05
2.71342e-05
2.86697e-05
3.04857e-05
3.25991e-05
3.50272e-05
3.77882e-05
4.08997e-05
4.438e-05
4.82481e-05
5.25238e-05
5.72276e-05
6.23777e-05
6.79908e-05
7.40861e-05
8.07038e-05
8.78755e-05
9.52374e-05
0.000102711
0.00011002
0.00011685
0.000122912
0.000128067
0.000131753
0.00013413
0.000135565
0.000136215
0.000136126
0.000135272
0.000133621
0.000131128
0.000127707
0.000123295
0.000117863
0.00011147
0.000104209
9.62497e-05
8.78285e-05
7.90638e-05
7.01794e-05
6.12451e-05
5.24175e-05
4.36047e-05
3.4853e-05
2.59176e-05
1.6479e-05
6.08782e-06
-5.22717e-06
-1.79189e-05
-3.10976e-05
-4.44321e-05
-5.7093e-05
-6.82285e-05
-7.75447e-05
-8.50927e-05
-9.09048e-05
-9.5138e-05
-9.7843e-05
-9.91766e-05
-9.92427e-05
-9.814e-05
-9.59119e-05
-9.2597e-05
-8.81808e-05
-8.26943e-05
-7.61383e-05
-6.84991e-05
-5.96879e-05
-4.97566e-05
-3.86208e-05
-2.63657e-05
-1.30155e-05
1.11997e-06
1.56118e-05
2.99154e-05
4.34008e-05
5.56584e-05
6.65002e-05
7.58797e-05
8.39031e-05
9.06889e-05
9.64024e-05
0.000101082
0.000104697
0.000107212
0.000108519
0.000108494
0.000107089
0.000104364
0.000100523
9.56403e-05
8.9907e-05
8.34742e-05
7.64974e-05
6.90733e-05
6.1207e-05
5.28982e-05
4.43588e-05
3.5611e-05
2.68191e-05
1.80127e-05
9.24579e-06
4.10627e-07
-8.61622e-06
-1.80227e-05
-2.79461e-05
-3.82789e-05
-4.87355e-05
-5.92137e-05
-6.88252e-05
-7.7402e-05
-8.4743e-05
-9.07187e-05
-9.54458e-05
-9.88413e-05
-0.000100987
-0.000101976
-0.00010189
-0.000100758
-9.85912e-05
-9.54013e-05
-9.12085e-05
-8.60012e-05
-7.97828e-05
-7.24726e-05
-6.40903e-05
-5.46467e-05
-4.40246e-05
-3.23526e-05
-1.96144e-05
-6.04658e-06
7.97924e-06
2.19635e-05
3.52505e-05
4.73071e-05
5.78616e-05
6.68057e-05
7.42075e-05
8.02308e-05
8.49689e-05
8.8435e-05
9.06231e-05
9.13452e-05
9.03131e-05
8.72093e-05
8.18771e-05
7.466e-05
6.61461e-05
5.72911e-05
5.04001e-05
4.55054e-05
4.04394e-05
3.55147e-05
3.13109e-05
2.79369e-05
2.5293e-05
2.32214e-05
2.15479e-05
2.02247e-05
1.914e-05
1.82822e-05
1.7647e-05
1.72222e-05
1.70012e-05
1.69776e-05
1.71379e-05
1.747e-05
1.79667e-05
1.86196e-05
1.94229e-05
2.03716e-05
2.14613e-05
2.26931e-05
2.40717e-05
2.56018e-05
2.72906e-05
2.91532e-05
3.12207e-05
3.3554e-05
3.62723e-05
3.9592e-05
4.38514e-05
4.94238e-05
5.62298e-05
6.26829e-05
6.82812e-05
2.06099e-05
2.07538e-05
2.09624e-05
2.12726e-05
2.14835e-05
2.15606e-05
2.15867e-05
2.1613e-05
2.16826e-05
2.18392e-05
2.21188e-05
2.25516e-05
2.3162e-05
2.39698e-05
2.49925e-05
2.62476e-05
2.7752e-05
2.95228e-05
3.15769e-05
3.39312e-05
3.66029e-05
3.96092e-05
4.29675e-05
4.66954e-05
5.08116e-05
5.53335e-05
6.02773e-05
6.56566e-05
7.14848e-05
7.77952e-05
8.461e-05
9.16042e-05
9.86307e-05
0.000105426
0.000111742
0.000117308
0.00012197
0.000125266
0.000127237
0.000128242
0.00012851
0.000128031
0.000126753
0.000124689
0.000121811
0.000118053
0.000113383
0.000107821
0.000101442
9.43666e-05
8.67589e-05
7.88345e-05
7.07163e-05
6.25813e-05
5.45143e-05
4.66369e-05
3.88931e-05
3.13077e-05
2.36972e-05
1.58014e-05
7.21756e-06
-2.04783e-06
-1.25546e-05
-2.3623e-05
-3.53485e-05
-4.68612e-05
-5.76192e-05
-6.71927e-05
-7.5152e-05
-8.14388e-05
-8.62318e-05
-8.95992e-05
-9.16064e-05
-9.22983e-05
-9.18043e-05
-9.01614e-05
-8.74086e-05
-8.35401e-05
-7.85928e-05
-7.25761e-05
-6.54783e-05
-5.72254e-05
-4.78709e-05
-3.73472e-05
-2.57438e-05
-1.31071e-05
2.59636e-07
1.39382e-05
2.74115e-05
4.01061e-05
5.16624e-05
6.19054e-05
7.07865e-05
7.8399e-05
8.48104e-05
9.01235e-05
9.43467e-05
9.74319e-05
9.93462e-05
0.000100052
9.94363e-05
9.76185e-05
9.46711e-05
9.07388e-05
8.59656e-05
8.0504e-05
7.44564e-05
6.7926e-05
6.09901e-05
5.36995e-05
4.61223e-05
3.84614e-05
3.07294e-05
2.31175e-05
1.55855e-05
8.19185e-06
7.99225e-07
-6.76203e-06
-1.46884e-05
-2.30403e-05
-3.19742e-05
-4.12779e-05
-5.06766e-05
-5.96617e-05
-6.82856e-05
-7.56617e-05
-8.17523e-05
-8.66973e-05
-9.04881e-05
-9.30434e-05
-9.44068e-05
-9.47038e-05
-9.39524e-05
-9.21645e-05
-8.93459e-05
-8.55262e-05
-8.06975e-05
-7.48659e-05
-6.79634e-05
-6.001e-05
-5.10265e-05
-4.09202e-05
-2.98216e-05
-1.775e-05
-4.9468e-06
8.21396e-06
2.12468e-05
3.35544e-05
4.46812e-05
5.43876e-05
6.25853e-05
6.93308e-05
7.47192e-05
7.8782e-05
8.14771e-05
8.27556e-05
8.24392e-05
8.03372e-05
7.63433e-05
7.06645e-05
6.39287e-05
5.68675e-05
4.99051e-05
4.48533e-05
4.05467e-05
3.62859e-05
3.2409e-05
2.90828e-05
2.63567e-05
2.41621e-05
2.2358e-05
2.08156e-05
1.95974e-05
1.86121e-05
1.783e-05
1.72569e-05
1.68909e-05
1.67244e-05
1.67478e-05
1.69493e-05
1.73176e-05
1.78438e-05
1.85205e-05
1.93425e-05
2.0306e-05
2.14081e-05
2.26477e-05
2.40248e-05
2.55382e-05
2.7186e-05
2.89688e-05
3.08939e-05
3.2985e-05
3.53025e-05
3.79749e-05
4.12255e-05
4.53108e-05
5.01644e-05
5.44624e-05
5.73016e-05
2.0786e-05
2.049e-05
2.03278e-05
2.03705e-05
2.04519e-05
2.0506e-05
2.05331e-05
2.05807e-05
2.06894e-05
2.08873e-05
2.12005e-05
2.16552e-05
2.22742e-05
2.30772e-05
2.40817e-05
2.53048e-05
2.67631e-05
2.84728e-05
3.04502e-05
3.27115e-05
3.5273e-05
3.8151e-05
4.13618e-05
4.49217e-05
4.88468e-05
5.31526e-05
5.78529e-05
6.29586e-05
6.84781e-05
7.44415e-05
8.08498e-05
8.7436e-05
9.39846e-05
0.000100249
0.000106039
0.000111118
0.000115321
0.000118253
0.000119884
0.000120558
0.000120522
0.000119722
0.000118098
0.000115702
0.000112527
0.000108529
0.000103711
9.81265e-05
9.18639e-05
8.50579e-05
7.78683e-05
7.04904e-05
6.30377e-05
5.56566e-05
4.84286e-05
4.14461e-05
3.46669e-05
2.80947e-05
2.15771e-05
1.48985e-05
7.72253e-06
3.86569e-08
-8.66826e-06
-1.79681e-05
-2.80384e-05
-3.82622e-05
-4.82313e-05
-5.75043e-05
-6.55334e-05
-7.22346e-05
-7.76211e-05
-8.15152e-05
-8.40253e-05
-8.52663e-05
-8.53239e-05
-8.42511e-05
-8.20641e-05
-7.87611e-05
-7.43694e-05
-6.89094e-05
-6.23739e-05
-5.4704e-05
-4.59516e-05
-3.60698e-05
-2.51475e-05
-1.32511e-05
-6.699e-07
1.21943e-05
2.48553e-05
3.6792e-05
4.76804e-05
5.73464e-05
6.57221e-05
7.28806e-05
7.88788e-05
8.37431e-05
8.7475e-05
9.00175e-05
9.1377e-05
9.15493e-05
9.05525e-05
8.84289e-05
8.53902e-05
8.15235e-05
7.69573e-05
7.18009e-05
6.61272e-05
6.00343e-05
5.36053e-05
4.69227e-05
4.00808e-05
3.32622e-05
2.64807e-05
1.99063e-05
1.34688e-05
7.2097e-06
9.84894e-07
-5.3686e-06
-1.20421e-05
-1.90837e-05
-2.67309e-05
-3.47984e-05
-4.32045e-05
-5.15354e-05
-5.96555e-05
-6.68878e-05
-7.31653e-05
-7.83743e-05
-8.24021e-05
-8.5227e-05
-8.69066e-05
-8.75398e-05
-8.71442e-05
-8.5736e-05
-8.32961e-05
-7.98551e-05
-7.5416e-05
-6.99868e-05
-6.35129e-05
-5.6014e-05
-4.75204e-05
-3.79679e-05
-2.74813e-05
-1.6116e-05
-4.11025e-06
8.17083e-06
2.02654e-05
3.1635e-05
4.18799e-05
5.07617e-05
5.82306e-05
6.42899e-05
6.89931e-05
7.23157e-05
7.41926e-05
7.45993e-05
7.34087e-05
7.06117e-05
6.61995e-05
6.07939e-05
5.50201e-05
4.92881e-05
4.38072e-05
3.98552e-05
3.61384e-05
3.25978e-05
2.95091e-05
2.68237e-05
2.45867e-05
2.27625e-05
2.12272e-05
1.98733e-05
1.87933e-05
1.7923e-05
1.72362e-05
1.67424e-05
1.64439e-05
1.63344e-05
1.6405e-05
1.6646e-05
1.70475e-05
1.76017e-05
1.83021e-05
1.9144e-05
2.01241e-05
2.1239e-05
2.24859e-05
2.38609e-05
2.53575e-05
2.69663e-05
2.86763e-05
3.04763e-05
3.23613e-05
3.43462e-05
3.64915e-05
3.89239e-05
4.17858e-05
4.50085e-05
4.75115e-05
4.84596e-05
2.02802e-05
1.98384e-05
1.95298e-05
1.94398e-05
1.94277e-05
1.94445e-05
1.94882e-05
1.95668e-05
1.97018e-05
1.99253e-05
2.02593e-05
2.07249e-05
2.13431e-05
2.21318e-05
2.31083e-05
2.42888e-05
2.56891e-05
2.73246e-05
2.92108e-05
3.13627e-05
3.37958e-05
3.65249e-05
3.95653e-05
4.29314e-05
4.66373e-05
5.06965e-05
5.51206e-05
5.99181e-05
6.50956e-05
7.06766e-05
7.66547e-05
8.27923e-05
8.88454e-05
9.4586e-05
9.98705e-05
0.000104497
0.000108287
0.000110892
0.000112238
0.000112649
0.000112364
0.0001113
0.000109395
0.000106737
0.000103346
9.9198e-05
9.43272e-05
8.88104e-05
8.27505e-05
7.62803e-05
6.95574e-05
6.27551e-05
5.59718e-05
4.93309e-05
4.2901e-05
3.67509e-05
3.08419e-05
2.51633e-05
1.95824e-05
1.3917e-05
7.88117e-06
1.43841e-06
-5.82679e-06
-1.36666e-05
-2.22637e-05
-3.12307e-05
-4.02338e-05
-4.89636e-05
-5.68374e-05
-6.35786e-05
-6.91546e-05
-7.3477e-05
-7.66259e-05
-7.84507e-05
-7.89639e-05
-7.83911e-05
-7.67074e-05
-7.39575e-05
-7.01168e-05
-6.52176e-05
-5.92553e-05
-5.21813e-05
-4.40429e-05
-3.4818e-05
-2.45904e-05
-1.34449e-05
-1.65135e-06
1.04081e-05
2.2278e-05
3.34831e-05
4.37196e-05
5.28008e-05
6.06858e-05
6.73843e-05
7.29062e-05
7.7285e-05
8.05209e-05
8.25328e-05
8.34202e-05
8.31995e-05
8.19179e-05
7.96754e-05
7.66501e-05
7.29247e-05
6.8596e-05
6.3747e-05
5.84442e-05
5.27928e-05
4.68839e-05
4.08178e-05
3.46957e-05
2.8675e-05
2.2767e-05
1.71061e-05
1.16114e-05
6.30577e-06
1.04882e-06
-4.30381e-06
-9.93503e-06
-1.58953e-05
-2.24171e-05
-2.93687e-05
-3.67832e-05
-4.43039e-05
-5.187e-05
-5.88941e-05
-6.50778e-05
-7.03437e-05
-7.45583e-05
-7.77332e-05
-7.97497e-05
-8.06536e-05
-8.05341e-05
-7.94665e-05
-7.73967e-05
-7.43257e-05
-7.02786e-05
-6.52598e-05
-5.92256e-05
-5.21952e-05
-4.42076e-05
-3.52286e-05
-2.53716e-05
-1.47262e-05
-3.52212e-06
7.89068e-06
1.90773e-05
2.95543e-05
3.89572e-05
4.70151e-05
5.37327e-05
5.91241e-05
6.30957e-05
6.56488e-05
6.67434e-05
6.63999e-05
6.45675e-05
6.14733e-05
5.72312e-05
5.23375e-05
4.75423e-05
4.29473e-05
3.85499e-05
3.53385e-05
3.21755e-05
2.92467e-05
2.67582e-05
2.45673e-05
2.27239e-05
2.1212e-05
1.99256e-05
1.87718e-05
1.78423e-05
1.7095e-05
1.65124e-05
1.61051e-05
1.58777e-05
1.58262e-05
1.59437e-05
1.62228e-05
1.6656e-05
1.72367e-05
1.79595e-05
1.88201e-05
1.98151e-05
2.09404e-05
2.21912e-05
2.35603e-05
2.50372e-05
2.66067e-05
2.82491e-05
2.99403e-05
3.16541e-05
3.3371e-05
3.50944e-05
3.68647e-05
3.87144e-05
4.0434e-05
4.15147e-05
4.15698e-05
1.93812e-05
1.89206e-05
1.85733e-05
1.84237e-05
1.83695e-05
1.83678e-05
1.84102e-05
1.85068e-05
1.86706e-05
1.89162e-05
1.92631e-05
1.97318e-05
2.03416e-05
2.1109e-05
2.20501e-05
2.31795e-05
2.45123e-05
2.60629e-05
2.78456e-05
2.98744e-05
3.21633e-05
3.4726e-05
3.75762e-05
4.07265e-05
4.41894e-05
4.79764e-05
5.20973e-05
5.65587e-05
6.13663e-05
6.65381e-05
7.20664e-05
7.77355e-05
8.32913e-05
8.85258e-05
9.334e-05
9.75538e-05
0.000100976
0.000103287
0.000104393
0.00010459
0.000104102
0.000102826
0.000100699
9.78478e-05
9.43147e-05
9.00995e-05
8.52598e-05
7.98859e-05
7.40954e-05
6.80168e-05
6.17934e-05
5.55811e-05
4.94605e-05
4.35351e-05
3.7857e-05
3.24755e-05
2.73518e-05
2.24663e-05
1.77021e-05
1.29046e-05
7.82703e-06
2.41273e-06
-3.66212e-06
-1.02819e-05
-1.75971e-05
-2.5391e-05
-3.34031e-05
-4.13952e-05
-4.88922e-05
-5.56101e-05
-6.13985e-05
-6.59192e-05
-6.92681e-05
-7.15786e-05
-7.27562e-05
-7.27276e-05
-7.14759e-05
-6.92464e-05
-6.59096e-05
-6.15491e-05
-5.61585e-05
-4.96848e-05
-4.21638e-05
-3.36022e-05
-2.40738e-05
-1.36792e-05
-2.66612e-06
8.60431e-06
1.97052e-05
3.02025e-05
3.98051e-05
4.82997e-05
5.56579e-05
6.18881e-05
6.6912e-05
7.08102e-05
7.35316e-05
7.51155e-05
7.5595e-05
7.50924e-05
7.36568e-05
7.14072e-05
6.84694e-05
6.49193e-05
6.08362e-05
5.62939e-05
5.13634e-05
4.61585e-05
4.07759e-05
3.5322e-05
2.98928e-05
2.4618e-05
1.95037e-05
1.46488e-05
9.97139e-06
5.47879e-06
1.03913e-06
-3.47271e-06
-8.22556e-06
-1.32743e-05
-1.88265e-05
-2.4803e-05
-3.1272e-05
-3.79599e-05
-4.48515e-05
-5.14756e-05
-5.75434e-05
-6.29085e-05
-6.7187e-05
-7.04236e-05
-7.28008e-05
-7.40303e-05
-7.4219e-05
-7.3448e-05
-7.17231e-05
-6.89876e-05
-6.53226e-05
-6.07158e-05
-5.51243e-05
-4.85689e-05
-4.1095e-05
-3.26982e-05
-2.34769e-05
-1.3551e-05
-3.13962e-06
7.42503e-06
1.77328e-05
2.73402e-05
3.59007e-05
4.32182e-05
4.92079e-05
5.38427e-05
5.7084e-05
5.8918e-05
5.9363e-05
5.84319e-05
5.63286e-05
5.31864e-05
4.93016e-05
4.5162e-05
4.12445e-05
3.75122e-05
3.39103e-05
3.12339e-05
2.85666e-05
2.61519e-05
2.4135e-05
2.23422e-05
2.0826e-05
1.95809e-05
1.85179e-05
1.75566e-05
1.67766e-05
1.61518e-05
1.56731e-05
1.53523e-05
1.51952e-05
1.52002e-05
1.53629e-05
1.5678e-05
1.61401e-05
1.67442e-05
1.74857e-05
1.83607e-05
1.93652e-05
2.04942e-05
2.1741e-05
2.30956e-05
2.45441e-05
2.60667e-05
2.76372e-05
2.92216e-05
3.07776e-05
3.22574e-05
3.36149e-05
3.48081e-05
3.58193e-05
3.66171e-05
3.68771e-05
3.62997e-05
1.82571e-05
1.78256e-05
1.74867e-05
1.73161e-05
1.72436e-05
1.72367e-05
1.72863e-05
1.73955e-05
1.75727e-05
1.7833e-05
1.81916e-05
1.86587e-05
1.9252e-05
1.99912e-05
2.08898e-05
2.19605e-05
2.32173e-05
2.46734e-05
2.6342e-05
2.82356e-05
3.03667e-05
3.27479e-05
3.53912e-05
3.83077e-05
4.15079e-05
4.50019e-05
4.87985e-05
5.2903e-05
5.73208e-05
6.20687e-05
6.7135e-05
7.23277e-05
7.73914e-05
8.21448e-05
8.65283e-05
9.03672e-05
9.34582e-05
9.55072e-05
9.64091e-05
9.64334e-05
9.57828e-05
9.43411e-05
9.20497e-05
8.90681e-05
8.54642e-05
8.12564e-05
7.65167e-05
7.13566e-05
6.58884e-05
6.02406e-05
5.45394e-05
4.89215e-05
4.34491e-05
3.8208e-05
3.3233e-05
2.85584e-05
2.41434e-05
1.99643e-05
1.59165e-05
1.18675e-05
7.61245e-06
3.07925e-06
-1.98448e-06
-7.55169e-06
-1.37401e-05
-2.04427e-05
-2.74853e-05
-3.46908e-05
-4.16971e-05
-4.81636e-05
-5.39145e-05
-5.87078e-05
-6.24776e-05
-6.50779e-05
-6.65178e-05
-6.69228e-05
-6.63664e-05
-6.46784e-05
-6.18117e-05
-5.79616e-05
-5.3127e-05
-4.7241e-05
-4.03265e-05
-3.24247e-05
-2.35912e-05
-1.39385e-05
-3.69152e-06
6.80967e-06
1.7162e-05
2.69649e-05
3.59317e-05
4.38699e-05
5.06981e-05
5.64001e-05
6.09182e-05
6.43586e-05
6.66599e-05
6.78161e-05
6.80154e-05
6.73358e-05
6.58453e-05
6.3645e-05
6.083e-05
5.74669e-05
5.36293e-05
4.93931e-05
4.48385e-05
4.00848e-05
3.52293e-05
3.03746e-05
2.56042e-05
2.10205e-05
1.66237e-05
1.24823e-05
8.51793e-06
4.72678e-06
9.87531e-07
-2.80696e-06
-6.80883e-06
-1.10742e-05
-1.57829e-05
-2.08964e-05
-2.64918e-05
-3.23814e-05
-3.85661e-05
-4.46944e-05
-5.04878e-05
-5.57389e-05
-6.01642e-05
-6.36774e-05
-6.61529e-05
-6.75331e-05
-6.80895e-05
-6.77114e-05
-6.62975e-05
-6.38628e-05
-6.05647e-05
-5.63645e-05
-5.12085e-05
-4.51286e-05
-3.81695e-05
-3.03549e-05
-2.17673e-05
-1.25509e-05
-2.91488e-06
6.82721e-06
1.6287e-05
2.50467e-05
3.2808e-05
3.93747e-05
4.46293e-05
4.85203e-05
5.10673e-05
5.22526e-05
5.22221e-05
5.10296e-05
4.87903e-05
4.58659e-05
4.24539e-05
3.90211e-05
3.58158e-05
3.27322e-05
2.9741e-05
2.74789e-05
2.5248e-05
2.32665e-05
2.1632e-05
2.01697e-05
1.89309e-05
1.79152e-05
1.70496e-05
1.62646e-05
1.56247e-05
1.51158e-05
1.47354e-05
1.44963e-05
1.44052e-05
1.44627e-05
1.46664e-05
1.50133e-05
1.54997e-05
1.61217e-05
1.68755e-05
1.77573e-05
1.87625e-05
1.98849e-05
2.11157e-05
2.24427e-05
2.38484e-05
2.53093e-05
2.67936e-05
2.82593e-05
2.96514e-05
3.09002e-05
3.19252e-05
3.26432e-05
3.30429e-05
3.31752e-05
3.29434e-05
3.21933e-05
1.69971e-05
1.66079e-05
1.62953e-05
1.61242e-05
1.60472e-05
1.6041e-05
1.60978e-05
1.62178e-05
1.64057e-05
1.66709e-05
1.70262e-05
1.74864e-05
1.80639e-05
1.87691e-05
1.96167e-05
2.06208e-05
2.17936e-05
2.31467e-05
2.46916e-05
2.64396e-05
2.84015e-05
3.05885e-05
3.30115e-05
3.56802e-05
3.8603e-05
4.17887e-05
4.52463e-05
4.898e-05
5.29958e-05
5.731e-05
6.19106e-05
6.66269e-05
7.12127e-05
7.55125e-05
7.94881e-05
8.29919e-05
8.57832e-05
8.75964e-05
8.83269e-05
8.82138e-05
8.74395e-05
8.58775e-05
8.34742e-05
8.04221e-05
7.68095e-05
7.26779e-05
6.81075e-05
6.32124e-05
5.81142e-05
5.29269e-05
4.77614e-05
4.27344e-05
3.78904e-05
3.32987e-05
2.89784e-05
2.49518e-05
2.11767e-05
1.7628e-05
1.42123e-05
1.08167e-05
7.27033e-06
3.4959e-06
-7.02627e-07
-5.34384e-06
-1.05305e-05
-1.62229e-05
-2.23134e-05
-2.86849e-05
-3.5085e-05
-4.11918e-05
-4.68049e-05
-5.16636e-05
-5.56279e-05
-5.85672e-05
-6.05204e-05
-6.14154e-05
-6.1218e-05
-5.99412e-05
-5.76783e-05
-5.44132e-05
-5.01618e-05
-4.4846e-05
-3.85222e-05
-3.12703e-05
-2.31206e-05
-1.41939e-05
-4.69396e-06
5.05954e-06
1.4683e-05
2.3805e-05
3.21433e-05
3.95033e-05
4.57892e-05
5.09426e-05
5.5017e-05
5.79984e-05
5.98846e-05
6.07625e-05
6.07704e-05
5.99896e-05
5.84977e-05
5.63734e-05
5.36924e-05
5.05173e-05
4.69249e-05
4.29989e-05
3.88271e-05
3.45291e-05
3.01964e-05
2.59211e-05
2.17714e-05
1.78245e-05
1.4075e-05
1.05672e-05
7.22849e-06
4.04777e-06
9.15133e-07
-2.26012e-06
-5.61356e-06
-9.19898e-06
-1.31697e-05
-1.7514e-05
-2.23081e-05
-2.74349e-05
-3.29039e-05
-3.84649e-05
-4.38854e-05
-4.89396e-05
-5.3359e-05
-5.69761e-05
-5.96393e-05
-6.14121e-05
-6.22189e-05
-6.20562e-05
-6.09305e-05
-5.88986e-05
-5.60012e-05
-5.21928e-05
-4.74604e-05
-4.18527e-05
-3.5404e-05
-2.81634e-05
-2.01999e-05
-1.16756e-05
-2.79199e-06
6.15567e-06
1.48003e-05
2.273e-05
2.96996e-05
3.55357e-05
4.0047e-05
4.32576e-05
4.51547e-05
4.58794e-05
4.54928e-05
4.41587e-05
4.2058e-05
3.94646e-05
3.65366e-05
3.36877e-05
3.10312e-05
2.84481e-05
2.59472e-05
2.4026e-05
2.21768e-05
2.05631e-05
1.92466e-05
1.80642e-05
1.70631e-05
1.62448e-05
1.55514e-05
1.49228e-05
1.44099e-05
1.40065e-05
1.37158e-05
1.35507e-05
1.35189e-05
1.36226e-05
1.38614e-05
1.42339e-05
1.47377e-05
1.537e-05
1.61276e-05
1.70063e-05
1.80009e-05
1.91038e-05
2.03043e-05
2.15874e-05
2.29326e-05
2.43127e-05
2.56911e-05
2.70195e-05
2.82335e-05
2.92497e-05
2.99706e-05
3.02994e-05
3.02364e-05
2.99436e-05
2.94976e-05
2.88497e-05
1.56486e-05
1.53008e-05
1.50187e-05
1.48567e-05
1.47823e-05
1.47792e-05
1.48412e-05
1.49669e-05
1.51595e-05
1.54253e-05
1.5774e-05
1.62172e-05
1.67659e-05
1.74301e-05
1.82219e-05
1.91531e-05
2.02346e-05
2.1477e-05
2.28899e-05
2.44833e-05
2.62669e-05
2.82501e-05
3.04427e-05
3.28539e-05
3.54893e-05
3.83564e-05
4.14665e-05
4.48206e-05
4.84291e-05
5.23062e-05
5.64421e-05
6.06859e-05
6.48072e-05
6.8673e-05
7.2266e-05
7.5471e-05
7.79832e-05
7.95846e-05
8.01729e-05
7.9956e-05
7.90959e-05
7.74578e-05
7.4994e-05
7.19292e-05
6.83715e-05
6.43703e-05
6.00264e-05
5.54497e-05
5.07578e-05
4.60528e-05
4.14296e-05
3.69843e-05
3.27449e-05
2.87661e-05
2.50534e-05
2.16195e-05
1.8422e-05
1.54364e-05
1.25798e-05
9.75699e-06
6.82512e-06
3.71019e-06
2.56722e-07
-3.57644e-06
-7.87608e-06
-1.26436e-05
-1.78216e-05
-2.3335e-05
-2.902e-05
-3.46277e-05
-3.9969e-05
-4.47749e-05
-4.88679e-05
-5.2098e-05
-5.43997e-05
-5.57017e-05
-5.59743e-05
-5.52763e-05
-5.35638e-05
-5.08364e-05
-4.71091e-05
-4.23878e-05
-3.66971e-05
-3.00908e-05
-2.26117e-05
-1.43942e-05
-5.62324e-06
3.40038e-06
1.23089e-05
2.07549e-05
2.84601e-05
3.52235e-05
4.09664e-05
4.56267e-05
4.91978e-05
5.17701e-05
5.33332e-05
5.40057e-05
5.38867e-05
5.3058e-05
5.15919e-05
4.95513e-05
4.70047e-05
4.40184e-05
4.06772e-05
3.70715e-05
3.32921e-05
2.94522e-05
2.56335e-05
2.19136e-05
1.83447e-05
1.49823e-05
1.18163e-05
8.87252e-06
6.08511e-06
3.43881e-06
8.35266e-07
-1.80126e-06
-4.59072e-06
-7.58223e-06
-1.09055e-05
-1.45648e-05
-1.86298e-05
-2.30343e-05
-2.77935e-05
-3.2736e-05
-3.76894e-05
-4.24489e-05
-4.67596e-05
-5.0426e-05
-5.32743e-05
-5.52721e-05
-5.63301e-05
-5.64749e-05
-5.57297e-05
-5.40686e-05
-5.15347e-05
-4.81077e-05
-4.38235e-05
-3.86872e-05
-3.27419e-05
-2.6063e-05
-1.87117e-05
-1.0861e-05
-2.70994e-06
5.45822e-06
1.32881e-05
2.04734e-05
2.66703e-05
3.16953e-05
3.54931e-05
3.81223e-05
3.95647e-05
3.9857e-05
3.92866e-05
3.7973e-05
3.6099e-05
3.38536e-05
3.13572e-05
2.89672e-05
2.67326e-05
2.45538e-05
2.24635e-05
2.0838e-05
1.93231e-05
1.80243e-05
1.69768e-05
1.60344e-05
1.52374e-05
1.45884e-05
1.4043e-05
1.35507e-05
1.31497e-05
1.284e-05
1.26285e-05
1.25283e-05
1.25476e-05
1.26898e-05
1.29561e-05
1.33465e-05
1.38596e-05
1.44932e-05
1.52445e-05
1.6109e-05
1.70805e-05
1.81499e-05
1.93045e-05
2.05268e-05
2.17934e-05
2.30733e-05
2.43265e-05
2.55003e-05
2.65258e-05
2.73157e-05
2.7774e-05
2.78254e-05
2.74756e-05
2.69974e-05
2.64986e-05
2.60126e-05
1.42373e-05
1.39248e-05
1.36716e-05
1.35219e-05
1.34527e-05
1.34528e-05
1.3517e-05
1.36436e-05
1.38342e-05
1.40934e-05
1.44284e-05
1.48476e-05
1.53604e-05
1.59762e-05
1.67048e-05
1.7556e-05
1.85392e-05
1.96636e-05
2.09376e-05
2.23696e-05
2.3968e-05
2.57401e-05
2.76947e-05
2.9841e-05
3.21832e-05
3.47275e-05
3.74819e-05
4.04579e-05
4.36583e-05
4.70989e-05
5.07735e-05
5.45501e-05
5.82189e-05
6.167e-05
6.49114e-05
6.78102e-05
7.00757e-05
7.14912e-05
7.19657e-05
7.16776e-05
7.07693e-05
6.90985e-05
6.66241e-05
6.36015e-05
6.01554e-05
5.63451e-05
5.22759e-05
4.806e-05
4.38045e-05
3.95976e-05
3.55174e-05
3.16403e-05
2.79795e-05
2.45767e-05
2.14261e-05
1.85335e-05
1.58573e-05
1.33748e-05
1.10127e-05
8.69279e-06
6.29497e-06
3.75288e-06
9.41778e-07
-2.18723e-06
-5.70796e-06
-9.6423e-06
-1.39682e-05
-1.86422e-05
-2.35591e-05
-2.85414e-05
-3.34412e-05
-3.80247e-05
-4.21058e-05
-4.55129e-05
-4.81146e-05
-4.98288e-05
-5.05899e-05
-5.04093e-05
-4.92318e-05
-4.70555e-05
-4.39251e-05
-3.98167e-05
-3.47472e-05
-2.87872e-05
-2.19793e-05
-1.44638e-05
-6.41423e-06
1.88524e-06
1.00798e-05
1.7844e-05
2.49049e-05
3.10679e-05
3.62494e-05
4.04075e-05
4.35536e-05
4.57654e-05
4.70682e-05
4.75805e-05
4.73726e-05
4.65186e-05
4.50833e-05
4.31248e-05
4.07138e-05
3.79246e-05
3.48482e-05
3.15778e-05
2.82007e-05
2.48189e-05
2.15015e-05
1.831e-05
1.52818e-05
1.24544e-05
9.814e-06
7.37305e-06
5.0726e-06
2.89588e-06
7.55816e-07
-1.40967e-06
-3.70603e-06
-6.17628e-06
-8.92997e-06
-1.19794e-05
-1.53868e-05
-1.91183e-05
-2.31933e-05
-2.74965e-05
-3.19089e-05
-3.62649e-05
-4.03449e-05
-4.39552e-05
-4.69048e-05
-4.9092e-05
-5.04279e-05
-5.08917e-05
-5.05e-05
-4.92006e-05
-4.70489e-05
-4.40431e-05
-4.01987e-05
-3.55343e-05
-3.00939e-05
-2.39698e-05
-1.7224e-05
-1.00352e-05
-2.60275e-06
4.8024e-06
1.18508e-05
1.8222e-05
2.36477e-05
2.79455e-05
3.11329e-05
3.31999e-05
3.42247e-05
3.4313e-05
3.36847e-05
3.24684e-05
3.08259e-05
2.88899e-05
2.67494e-05
2.47136e-05
2.28141e-05
2.09798e-05
1.92458e-05
1.78866e-05
1.66651e-05
1.56374e-05
1.48199e-05
1.40839e-05
1.34616e-05
1.29568e-05
1.25373e-05
1.21614e-05
1.18571e-05
1.16285e-05
1.14852e-05
1.144e-05
1.15014e-05
1.16737e-05
1.19592e-05
1.23588e-05
1.2872e-05
1.34972e-05
1.42314e-05
1.50698e-05
1.60052e-05
1.70272e-05
1.8121e-05
1.92667e-05
2.04383e-05
2.16021e-05
2.27156e-05
2.37247e-05
2.45611e-05
2.51432e-05
2.5389e-05
2.52546e-05