/*--------------------------------*- C++ -*----------------------------------*\
| =========                 |                                                 |
| \\      /  F ield         | OpenFOAM: The Open Source CFD Toolbox           |
|  \\    /   O peration     | Version:  2506                                  |
|   \\  /    A nd           | Website:  www.openfoam.com                      |
|    \\/     M anipulation  |                                                 |
\*---------------------------------------------------------------------------*/
FoamFile
{
    version     2.0;
    format      ascii;
    arch        "LSB;label=32;scalar=64";
    class       volVectorField;
    location    "3.3";
    object      U;
}
// * * * * * * * * * * * * * * * * * * * * * * * * * * * * * * * * * * * * * //

dimensions      [0 1 -1 0 0 0 0];

internalField   nonuniform List<vector> 
4000
(
(0.00211362 -0.000934204 6.29062e-24)
(0.00304199 -0.000797182 0)
(0.00439449 -0.000412283 -2.32186e-23)
(0.00541856 -0.000223084 -2.45788e-23)
(0.0060889 -0.000136457 -2.48474e-23)
(0.0065394 -8.27241e-05 0)
(0.00686335 -4.94138e-05 -2.3964e-23)
(0.00710621 -3.07781e-05 -2.32513e-23)
(0.00728982 -2.02606e-05 0)
(0.00743117 -1.41026e-05 0)
(0.00754618 -1.0213e-05 -3.82515e-22)
(0.00763494 -7.47514e-06 7.21718e-22)
(0.00770882 -5.35416e-06 -3.38927e-22)
(0.00776293 -3.65192e-06 3.78856e-22)
(0.00780626 -2.47042e-06 -3.77586e-22)
(0.00783673 -1.66217e-06 -2.47202e-23)
(0.00785785 -1.13647e-06 -4.31334e-22)
(0.00786994 -8.16372e-07 4.30099e-22)
(0.00787306 -5.7848e-07 -2.92092e-23)
(0.00786836 -4.89872e-07 0)
(0.00785637 -5.63572e-07 0)
(0.00783727 -7.412e-07 3.62884e-23)
(0.00781137 -8.78205e-07 3.9286e-23)
(0.00777934 -7.85899e-07 0)
(0.00774135 -1.11778e-06 4.63273e-23)
(0.00769777 -1.97637e-06 5.04024e-23)
(0.00764889 -3.22909e-06 0)
(0.00759521 -4.64953e-06 0)
(0.00753704 -6.16248e-06 -2.19993e-21)
(0.00747563 -7.94362e-06 2.26732e-21)
(0.00741505 -9.38062e-06 0)
(0.0073477 -9.84785e-07 5.59146e-21)
(0.00724762 6.86542e-06 -8.76234e-21)
(0.00708569 -7.66205e-06 2.12745e-22)
(0.00685496 -7.28889e-05 3.87903e-21)
(0.00656373 -0.000211654 -6.0345e-20)
(0.00627453 -0.000435415 4.44807e-22)
(0.00595748 -0.000779917 1.27463e-20)
(0.00558383 -0.00124565 0)
(0.00522199 -0.00173496 -4.72764e-21)
(0.0049456 -0.00215485 4.78582e-21)
(0.00475348 -0.00247959 -3.89222e-20)
(0.00463089 -0.00270747 0)
(0.00456853 -0.00283925 -3.40543e-20)
(0.00456181 -0.00288202 1.44561e-20)
(0.00459966 -0.00284747 -1.99593e-20)
(0.00467504 -0.00274538 0)
(0.00478142 -0.00258933 1.9208e-20)
(0.00490642 -0.00239495 2.00471e-20)
(0.00503604 -0.00217686 1.46671e-20)
(0.00515646 -0.00194646 0)
(0.00528003 -0.0017019 0)
(0.005405 -0.00145595 1.71405e-21)
(0.00554816 -0.00119819 -1.32281e-20)
(0.00574453 -0.000924326 -2.2285e-21)
(0.00605359 -0.000631437 8.77246e-21)
(0.00650676 -0.000354935 4.93662e-21)
(0.00711169 -0.000144173 -1.45521e-21)
(0.00777571 -8.17059e-05 0)
(0.00832374 -0.000174548 1.33165e-23)
(0.00863899 -0.000348109 -3.22843e-22)
(0.00862171 -0.000529906 7.15178e-22)
(0.00847717 -0.000656524 5.89861e-21)
(0.00823082 -0.000702432 -6.85242e-21)
(0.00799827 -0.000686033 0)
(0.00779131 -0.000639052 0)
(0.0076215 -0.000577873 0)
(0.00749271 -0.000517628 -1.49664e-21)
(0.00739807 -0.000464187 -2.21345e-20)
(0.00732645 -0.000418822 -1.23319e-20)
(0.00727012 -0.000380268 0)
(0.00722545 -0.000347593 1.08751e-20)
(0.00718977 -0.000319627 -1.07676e-20)
(0.00716056 -0.000295145 -1.12034e-21)
(0.00713611 -0.000273203 1.15034e-20)
(0.00711533 -0.000253148 -9.9458e-21)
(0.00709749 -0.000234445 -1.08969e-20)
(0.0070837 -0.000217365 -1.00502e-20)
(0.00707259 -0.000201324 0)
(0.00706325 -0.000185799 0)
(0.0070557 -0.000170366 2.28714e-22)
(0.00705393 -0.000156146 6.54508e-21)
(0.00705499 -0.00014162 0)
(0.00706277 -0.000127401 -4.17611e-21)
(0.00707721 -0.000111767 2.75504e-21)
(0.00710712 -9.449e-05 0)
(0.00715749 -7.19643e-05 0)
(0.00723296 -3.8611e-05 -1.65035e-22)
(0.00734122 1.62393e-05 -7.58455e-22)
(0.00748284 0.000104064 2.26573e-21)
(0.00763798 0.000229206 -9.15912e-23)
(0.00778878 0.00038881 1.74385e-22)
(0.00791165 0.000563172 5.79023e-22)
(0.00798771 0.000732819 0)
(0.00802007 0.000876843 -1.19097e-20)
(0.00801116 0.000976407 -1.23266e-20)
(0.00798295 0.00103859 -1.29764e-20)
(0.00795934 0.00107683 -8.73106e-22)
(0.00795398 0.001108 -1.35875e-20)
(0.00798102 0.00114997 -1.46243e-20)
(0.00804683 0.00121508 2.34538e-22)
(0.00814733 0.00130705 -1.5364e-20)
(0.00827168 0.00141865 -2.9373e-20)
(0.00840304 0.00153304 -6.94603e-22)
(0.00852624 0.0016311 -1.33435e-20)
(0.00862983 0.00169709 0)
(0.00870972 0.00172185 1.2504e-20)
(0.00876968 0.0017022 1.09545e-20)
(0.00881096 0.00163413 7.5194e-22)
(0.00883699 0.00152921 0)
(0.00886683 0.00140267 8.82358e-21)
(0.00891663 0.00124895 -7.66481e-21)
(0.00897385 0.00107855 0)
(0.00906768 0.000876444 -1.04338e-20)
(0.00916877 0.00065041 -1.72582e-21)
(0.00927619 0.000395804 -2.02125e-21)
(0.00932831 9.76048e-05 0)
(0.00928544 -0.000190477 5.21588e-22)
(0.00914695 -0.000442719 -1.60099e-22)
(0.00889925 -0.00063113 -6.06748e-23)
(0.00861965 -0.000732058 2.14339e-22)
(0.00833695 -0.000759201 -8.85078e-21)
(0.00809139 -0.000738284 1.08019e-20)
(0.00787569 -0.000686605 7.46007e-22)
(0.00770454 -0.000625872 1.08167e-20)
(0.0075754 -0.000566114 -2.41394e-20)
(0.00747339 -0.000511105 1.23869e-20)
(0.0073939 -0.000462203 -1.37148e-20)
(0.00733315 -0.000420413 5.36447e-22)
(0.007286 -0.000384859 -1.22262e-20)
(0.00724839 -0.000354042 0)
(0.00721765 -0.000326694 1.33041e-20)
(0.00719208 -0.000301844 -2.03678e-21)
(0.00717123 -0.000279072 1.42236e-20)
(0.00715412 -0.000257846 0)
(0.00713989 -0.000237593 0)
(0.007128 -0.000217881 -1.08312e-20)
(0.00711769 -0.000197923 9.70486e-21)
(0.00711228 -0.000178697 0)
(0.00710935 -0.000159344 0)
(0.00710694 -0.000138197 6.89357e-21)
(0.00711242 -0.000116775 -1.239e-21)
(0.0071212 -9.27564e-05 5.28067e-21)
(0.00714115 -6.56563e-05 0)
(0.00717657 -3.35025e-05 -1.03089e-21)
(0.0072323 4.61771e-06 2.37601e-22)
(0.00731835 5.80804e-05 -8.13507e-22)
(0.0074418 0.00013305 7.57306e-22)
(0.00758976 0.000239974 0)
(0.00774326 0.000380559 -1.88679e-21)
(0.00788229 0.000546451 -2.81269e-22)
(0.00798633 0.000717489 1.3888e-20)
(0.00803881 0.000869839 -2.43197e-21)
(0.00804594 0.000990597 -3.29967e-22)
(0.00803063 0.00107222 -8.47796e-21)
(0.00800391 0.00112031 -2.90007e-21)
(0.0079865 0.00115291 0)
(0.00799749 0.00119082 0)
(0.00805189 0.00125302 0)
(0.00815602 0.00135037 2.42172e-20)
(0.00831682 0.00147892 -2.94943e-21)
(0.00856059 0.00161562 -1.03051e-20)
(0.00899166 0.00176898 -7.53046e-21)
(0.0096697 0.00177242 0)
(0.00985661 0.00160155 7.48231e-21)
(0.00990308 0.00138859 1.13766e-20)
(0.00993651 0.00113514 2.67972e-22)
(0.00988597 0.000847577 1.3045e-21)
(0.00973438 0.000545657 2.84578e-21)
(0.00947279 0.000267292 8.60898e-22)
(0.00917205 9.1679e-05 0)
(0.00898118 2.68246e-05 1.0041e-23)
(0.00890587 9.00211e-06 0)
(0.00887756 2.23667e-06 8.96443e-24)
(0.00886098 2.91183e-07 8.53809e-24)
(0.00884563 6.21884e-07 5.25417e-22)
(0.00882702 1.76644e-06 -5.2465e-22)
(0.00880306 2.95583e-06 -2.46939e-22)
(0.00877383 3.83922e-06 2.54415e-22)
(0.00874076 4.6118e-06 -2.39332e-22)
(0.00870544 5.11084e-06 5.05958e-22)
(0.00866878 5.43849e-06 -2.43119e-22)
(0.00863144 5.74057e-06 0)
(0.00859348 5.99796e-06 8.58894e-24)
(0.00855454 6.28353e-06 -8.99579e-24)
(0.00851398 6.76739e-06 3.18539e-22)
(0.00847078 7.46126e-06 -2.98844e-22)
(0.00842387 8.30167e-06 3.47529e-22)
(0.00837181 9.44912e-06 -3.36022e-22)
(0.00831274 1.11871e-05 2.10424e-22)
(0.00824357 1.38434e-05 -1.85371e-22)
(0.00815979 1.79883e-05 1.39318e-23)
(0.00805245 2.48091e-05 1.51317e-23)
(0.00790817 3.66967e-05 0)
(0.00770208 5.79191e-05 1.85999e-23)
(0.00738309 9.63024e-05 2.13753e-23)
(0.00685172 0.000167137 2.51132e-22)
(0.00592741 0.00032113 -2.59377e-22)
(0.00428261 0.000728262 0)
(0.00277534 0.00111877 5.46198e-23)
(1.81997e-05 -0.00198441 -1.83832e-23)
(0.000193982 -0.00209807 -2.86879e-23)
(0.00125961 -0.00160199 2.65032e-23)
(0.0023166 -0.00120129 -1.3221e-22)
(0.00319837 -0.00089698 3.52863e-22)
(0.00392662 -0.000664888 -1.23645e-24)
(0.00452909 -0.000498799 -1.83525e-22)
(0.00502414 -0.00038311 7.54626e-23)
(0.00543029 -0.000300589 4.83432e-23)
(0.00576488 -0.000240014 4.76973e-23)
(0.00604193 -0.000193602 7.2052e-23)
(0.00627128 -0.000156649 4.39479e-22)
(0.00646138 -0.00012604 -4.14226e-22)
(0.00661755 -9.99183e-05 4.09159e-22)
(0.00674465 -7.75167e-05 -7.79665e-22)
(0.00684558 -5.77797e-05 9.44742e-22)
(0.00692324 -4.0192e-05 -3.84814e-22)
(0.00697973 -2.38118e-05 5.53103e-22)
(0.00701675 -8.30823e-06 6.56604e-22)
(0.00703588 5.54613e-06 -9.83114e-22)
(0.0070384 1.91428e-05 7.23098e-23)
(0.00702545 3.21528e-05 1.35275e-21)
(0.00699822 4.47808e-05 -1.3541e-21)
(0.0069574 5.7014e-05 -1.45352e-21)
(0.00690413 6.84095e-05 1.49056e-21)
(0.0068403 7.88054e-05 5.30807e-23)
(0.00676755 8.81043e-05 1.9894e-21)
(0.00668765 9.63581e-05 5.26106e-23)
(0.00660235 0.000103345 -4.52228e-21)
(0.00651648 0.000108449 -2.92931e-22)
(0.00644083 0.000113124 2.56817e-21)
(0.00630705 0.000125297 3.00359e-21)
(0.00605673 0.000120991 9.44276e-21)
(0.00569682 6.20122e-05 2.02737e-20)
(0.00527245 -0.000104328 1.47677e-20)
(0.00482959 -0.000406944 1.63792e-20)
(0.00443983 -0.000859833 -3.64602e-21)
(0.0040652 -0.00148137 -1.35577e-20)
(0.00367587 -0.00220479 4.62439e-21)
(0.00333699 -0.00290013 1.38866e-20)
(0.00310316 -0.00349254 1.90139e-20)
(0.00295228 -0.00395897 2.02468e-20)
(0.00286845 -0.00428955 0)
(0.00284966 -0.00448516 4.11776e-20)
(0.00288621 -0.00455526 -2.05546e-20)
(0.002964 -0.00451242 2.14326e-20)
(0.0030733 -0.00437092 -2.10096e-20)
(0.00320161 -0.00415143 0)
(0.00333525 -0.00387448 -1.61308e-21)
(0.00346103 -0.00355939 -1.80049e-20)
(0.00356985 -0.00322257 1.728e-20)
(0.00367305 -0.00287152 -1.95509e-21)
(0.00377309 -0.00252434 -1.46515e-20)
(0.00389323 -0.00217336 3.11032e-21)
(0.00407775 -0.00182425 -1.32545e-20)
(0.00439489 -0.00147723 0)
(0.0049028 -0.00116345 -5.12043e-21)
(0.00566868 -0.000912644 2.53333e-21)
(0.00669556 -0.000781897 2.63728e-22)
(0.00787525 -0.000816728 -1.21812e-22)
(0.00893191 -0.00102769 4.71377e-22)
(0.00969545 -0.00135993 2.85957e-21)
(0.0101338 -0.0016909 4.35999e-21)
(0.0100909 -0.00191708 7.65884e-21)
(0.00986608 -0.00201654 -1.14344e-21)
(0.00951362 -0.00199318 1.12825e-21)
(0.00913904 -0.00188634 0)
(0.00879616 -0.00174218 0)
(0.00851235 -0.00159053 2.46086e-20)
(0.00828595 -0.00144794 -1.20803e-20)
(0.00810767 -0.00131993 -1.6204e-21)
(0.0079679 -0.00120838 1.57025e-20)
(0.00785867 -0.00111179 1.08362e-20)
(0.00777269 -0.00102731 1.47089e-20)
(0.00770428 -0.000952067 -7.95146e-22)
(0.0076493 -0.000883852 -7.88894e-22)
(0.00760469 -0.000820906 -1.25826e-20)
(0.0075713 -0.000763211 1.11206e-20)
(0.00754711 -0.000708992 6.50737e-22)
(0.00753018 -0.000656852 9.22638e-21)
(0.00751966 -0.000605742 -8.25961e-21)
(0.00752193 -0.00055725 0)
(0.00753352 -0.000507782 0)
(0.00756009 -0.000457989 0)
(0.00760151 -0.000403812 -2.99021e-21)
(0.00766856 -0.000343735 6.84904e-23)
(0.00776531 -0.000269433 7.02079e-23)
(0.00788941 -0.00016911 -7.81916e-23)
(0.00803716 -2.72562e-05 2.79332e-22)
(0.00819319 0.000168714 -5.49607e-21)
(0.00832972 0.00041672 4.59132e-22)
(0.00842386 0.000700233 4.52728e-23)
(0.00846736 0.000985787 -8.92458e-21)
(0.00845999 0.00124031 1.06137e-20)
(0.00842607 0.00143498 -1.15037e-20)
(0.00838284 0.00156098 1.2331e-20)
(0.00835443 0.00163888 -1.18586e-20)
(0.00836814 0.00169322 -1.32067e-20)
(0.0084327 0.001753 1.43185e-20)
(0.00854804 0.00184222 1.42609e-20)
(0.00870294 0.00197225 0)
(0.00887724 0.00213842 -1.3658e-20)
(0.00905125 0.00232057 1.4726e-20)
(0.00920113 0.0024907 -4.22914e-22)
(0.0093124 0.00262203 1.79089e-21)
(0.00938413 0.00269111 0)
(0.00942514 0.00268965 -2.43083e-20)
(0.00944673 0.0026225 -2.34405e-20)
(0.00945611 0.00250495 -9.79898e-21)
(0.00946402 0.00234085 -8.32607e-21)
(0.00948759 0.00212744 -9.18368e-21)
(0.00954289 0.00187011 1.5284e-20)
(0.00961915 0.001589 -4.25979e-22)
(0.00974848 0.00126879 5.50306e-21)
(0.00991753 0.000913476 -4.06743e-22)
(0.010147 0.000504931 1.0442e-21)
(0.0104136 4.04411e-05 4.86916e-23)
(0.0106809 -0.000458214 -4.30753e-22)
(0.0109084 -0.000964938 -1.43834e-22)
(0.0109504 -0.00143615 1.4049e-22)
(0.0108143 -0.0017988 0)
(0.0105174 -0.00202718 9.36155e-21)
(0.0101403 -0.00212006 3.30018e-22)
(0.00972005 -0.00209309 -1.05356e-21)
(0.00931806 -0.00199112 -1.21046e-20)
(0.00896889 -0.00185284 1.35369e-20)
(0.00867246 -0.00170538 1.27157e-20)
(0.00843103 -0.00156301 2.75391e-20)
(0.00823986 -0.00143449 2.79849e-20)
(0.00809024 -0.00132187 1.28747e-20)
(0.00797301 -0.0012234 1.74925e-21)
(0.00788033 -0.0011363 1.33303e-20)
(0.0078061 -0.001058 -2.70538e-20)
(0.00774711 -0.000986945 3.21569e-21)
(0.00770066 -0.000921561 8.95266e-21)
(0.00766426 -0.000860165 0)
(0.00763641 -0.000801578 0)
(0.00761518 -0.000744095 -6.69199e-22)
(0.00760564 -0.000689418 -2.18002e-21)
(0.00760571 -0.000635142 -5.68042e-21)
(0.00761179 -0.000578315 -1.56442e-21)
(0.00763528 -0.000521835 3.30261e-22)
(0.00767096 -0.000459868 1.66521e-21)
(0.00772954 -0.000392694 -1.28399e-21)
(0.00781582 -0.000314901 1.00669e-21)
(0.00793071 -0.000218694 0)
(0.00807477 -8.45228e-05 -7.91804e-22)
(0.0082377 0.000103735 7.81817e-22)
(0.0083918 0.000349993 -2.62238e-21)
(0.00851001 0.000642344 0)
(0.0085768 0.000951114 0)
(0.00858896 0.00123888 0)
(0.00856259 0.00147363 0)
(0.00852012 0.00164081 -2.30516e-20)
(0.00848747 0.00174466 -5.04092e-21)
(0.00848754 0.00181339 -2.73695e-21)
(0.00854058 0.00188168 2.87821e-21)
(0.00865837 0.00197893 1.64189e-20)
(0.0088454 0.00212333 -5.23334e-21)
(0.00909989 0.00231262 -1.20683e-20)
(0.00942228 0.00251343 -1.82368e-22)
(0.00982975 0.00266079 8.20334e-21)
(0.0102952 0.0026927 -1.97327e-21)
(0.0108227 0.00256848 3.36511e-22)
(0.0109352 0.00233538 7.96338e-21)
(0.0109731 0.00204928 -6.41821e-21)
(0.0110111 0.00171292 0)
(0.010987 0.00133477 0)
(0.0108927 0.000938498 -1.01556e-21)
(0.0107266 0.00056637 -7.68162e-22)
(0.0105198 0.000288549 7.22716e-22)
(0.0103552 0.000140151 -1.08085e-23)
(0.0102656 6.79432e-05 6.54346e-22)
(0.0102156 3.59586e-05 -6.43423e-22)
(0.0101763 2.67743e-05 -2.74554e-23)
(0.0101356 2.93026e-05 -5.6497e-22)
(0.0100868 3.66598e-05 2.19681e-23)
(0.0100263 4.48574e-05 2.91152e-22)
(0.00995426 5.16714e-05 2.42159e-22)
(0.00987293 5.66257e-05 2.60731e-22)
(0.00978467 5.97922e-05 -2.60356e-22)
(0.00969098 6.16337e-05 8.80036e-24)
(0.00959427 6.29258e-05 -2.93006e-22)
(0.00949477 6.44767e-05 3.0245e-22)
(0.00939057 6.68714e-05 9.71985e-24)
(0.00928059 7.04662e-05 3.08372e-22)
(0.00916418 7.55854e-05 -3.7205e-22)
(0.00903855 8.26434e-05 3.8203e-22)
(0.00889981 9.22644e-05 -4.19132e-22)
(0.00874516 0.000105561 1.78847e-22)
(0.00856938 0.000124631 -2.32588e-22)
(0.00836377 0.000153461 1.54172e-23)
(0.00811256 0.000199251 -4.969e-23)
(0.00779152 0.000275706 -3.09298e-22)
(0.00735523 0.000408952 3.30652e-22)
(0.00672068 0.000644388 -6.98783e-23)
(0.00575858 0.00106073 -2.78565e-23)
(0.0042659 0.00179616 9.99512e-23)
(0.00207789 0.00291323 0)
(0.000340365 0.00313188 -1.50203e-22)
(-0.000189855 -0.00173908 0)
(-0.000509618 -0.00234798 8.53415e-23)
(-0.000171913 -0.0021895 -4.49057e-23)
(0.000396222 -0.00187378 -4.94027e-23)
(0.00101116 -0.0015491 1.01381e-22)
(0.00160864 -0.00126148 -2.04713e-22)
(0.00216016 -0.00102762 2.0279e-22)
(0.00265389 -0.000843461 -5.14127e-23)
(0.00308799 -0.000698047 -5.04443e-23)
(0.00346593 -0.000581712 -1.44846e-22)
(0.00379291 -0.000486824 -4.9511e-23)
(0.00407419 -0.000407815 -1.45507e-22)
(0.0043147 -0.000340586 4.02697e-22)
(0.00451867 -0.000282255 -9.14472e-22)
(0.00468969 -0.00023092 3.58772e-22)
(0.00483065 -0.00018503 -5.05224e-22)
(0.00494403 -0.000143474 2.76225e-22)
(0.00503196 -0.000105228 -1.81409e-22)
(0.00509643 -6.95833e-05 -1.13927e-21)
(0.00513901 -3.63364e-05 1.00012e-21)
(0.00516117 -5.16235e-06 -7.52552e-23)
(0.00516439 2.41256e-05 -2.39868e-22)
(0.00515013 5.15313e-05 1.45301e-21)
(0.00512017 7.68939e-05 -1.54391e-21)
(0.00507621 0.000100278 -1.71199e-21)
(0.00502022 0.00012118 1.3754e-21)
(0.00495484 0.000139018 2.02506e-21)
(0.00488308 0.00015303 -1.88755e-21)
(0.00480827 0.000162113 0)
(0.00473848 0.000165518 0)
(0.00468769 0.000162469 0)
(0.00457596 0.000144098 0)
(0.00434409 8.29682e-05 -1.26052e-20)
(0.00402189 -5.78137e-05 -1.71528e-20)
(0.00367696 -0.00031404 1.80496e-20)
(0.00335542 -0.000715 -3.48693e-21)
(0.00310343 -0.00126906 2.10924e-20)
(0.00287239 -0.00196984 -4.45607e-21)
(0.00263667 -0.00272581 -1.79937e-20)
(0.00245002 -0.00343287 3.83244e-21)
(0.00233859 -0.00404348 -3.80841e-20)
(0.00227967 -0.00453395 0)
(0.00226809 -0.00488964 1.8674e-20)
(0.00230632 -0.00510841 1.85351e-20)
(0.00238125 -0.00519697 -2.33816e-21)
(0.00248188 -0.00516597 -1.46069e-20)
(0.00259679 -0.00503047 3.38601e-20)
(0.00271701 -0.00481102 1.45885e-20)
(0.0028255 -0.00452835 2.64868e-21)
(0.00291203 -0.00420281 -1.33602e-22)
(0.00297512 -0.00385228 -5.18823e-21)
(0.00302118 -0.00349038 3.41004e-21)
(0.00305368 -0.00313493 1.23426e-21)
(0.00309668 -0.00278599 -1.73109e-22)
(0.00318387 -0.00245323 -1.06878e-20)
(0.00336762 -0.002139 4.03704e-21)
(0.0036973 -0.00186313 4.17054e-21)
(0.00424513 -0.00163388 -2.14983e-21)
(0.00507637 -0.00147829 -2.67142e-22)
(0.00620359 -0.00142362 0)
(0.00753405 -0.00150381 6.13205e-23)
(0.00884957 -0.0017468 -5.79395e-23)
(0.00991971 -0.00207787 -7.04509e-22)
(0.0106043 -0.00241761 -4.91614e-21)
(0.0109348 -0.00269601 5.92851e-21)
(0.0108597 -0.00281385 -7.29218e-21)
(0.0105925 -0.00282083 0)
(0.010209 -0.00272765 0)
(0.00981258 -0.00257605 -2.16478e-20)
(0.00944792 -0.00239824 2.2679e-20)
(0.0091369 -0.00221631 0)
(0.0088811 -0.00204438 -1.08556e-20)
(0.00867571 -0.00188826 -8.63341e-22)
(0.00851238 -0.00174859 9.94106e-21)
(0.00838276 -0.00162313 -1.2665e-20)
(0.00827957 -0.00150926 -1.02162e-20)
(0.00819673 -0.00140452 2.22451e-20)
(0.00813326 -0.00130813 -6.55137e-22)
(0.00808615 -0.0012176 -5.7057e-22)
(0.00805258 -0.00113081 -1.65841e-20)
(0.0080307 -0.00104625 1.52946e-20)
(0.00802655 -0.000964756 1.9244e-22)
(0.00803663 -0.000881946 -3.71301e-23)
(0.00806625 -0.000797332 -1.53009e-22)
(0.00811428 -0.000705406 2.90522e-21)
(0.00818843 -0.000602433 0)
(0.00828786 -0.000477293 3.99394e-23)
(0.00840305 -0.000316387 7.44432e-24)
(0.00852085 -0.000105239 5.55087e-22)
(0.00862046 0.00016237 4.76798e-21)
(0.00868037 0.000475685 3.48093e-22)
(0.00869052 0.000808987 1.50175e-20)
(0.00865961 0.00112562 8.92741e-21)
(0.00860374 0.00139291 -1.93228e-20)
(0.00855092 0.00158952 -3.22464e-23)
(0.00852474 0.00171639 1.16251e-20)
(0.00854563 0.00179327 2.38129e-20)
(0.00862575 0.00185086 1.27911e-20)
(0.00875808 0.00192132 0)
(0.00892576 0.00202737 -1.25453e-20)
(0.00910573 0.00217596 0)
(0.00927259 0.00235657 1.36156e-20)
(0.0094085 0.00254526 -1.97778e-22)
(0.00949756 0.00271111 -1.17578e-20)
(0.00954892 0.0028266 1.27365e-20)
(0.00956536 0.00286562 0)
(0.00955475 0.00283046 2.18153e-20)
(0.0095271 0.00272 1.07642e-20)
(0.00949565 0.00254664 1.13906e-21)
(0.00947256 0.00232436 9.01968e-21)
(0.00946373 0.00206164 0)
(0.00947931 0.00176464 -6.90789e-21)
(0.00951381 0.00144042 0)
(0.00959489 0.00108199 3.96721e-21)
(0.00971841 0.000691227 -2.15301e-22)
(0.00990184 0.00026016 0)
(0.0101535 -0.000211677 0)
(0.0104788 -0.000710243 4.3536e-22)
(0.0108552 -0.00122307 0)
(0.0112152 -0.00174155 -1.60934e-22)
(0.0114964 -0.00222025 3.60499e-22)
(0.0116236 -0.00261175 -1.99187e-22)
(0.0115223 -0.00287271 0)
(0.0112449 -0.00299051 0)
(0.0108536 -0.00298234 -1.04622e-20)
(0.0104283 -0.00288033 1.19957e-20)
(0.010008 -0.00272533 -2.44281e-20)
(0.00963024 -0.00254603 -1.28955e-20)
(0.00930806 -0.00236516 -1.86602e-21)
(0.0090431 -0.00219545 -1.15146e-20)
(0.00883 -0.00204127 1.59762e-21)
(0.0086604 -0.00190217 -1.32061e-20)
(0.00852514 -0.00177601 -2.25831e-21)
(0.00841774 -0.00166087 4.40229e-23)
(0.00833337 -0.00155472 -2.11836e-21)
(0.0082675 -0.00145504 2.8308e-21)
(0.00821736 -0.00136007 -1.00459e-20)
(0.00817967 -0.00126761 -1.90941e-20)
(0.00815885 -0.00117855 0)
(0.00815344 -0.00108997 7.78994e-21)
(0.00815914 -0.000998253 7.59848e-21)
(0.00818682 -0.000904716 -1.42455e-21)
(0.00823111 -0.00080226 -3.14978e-21)
(0.00830009 -0.00068795 -1.13816e-21)
(0.00839432 -0.000552482 7.39047e-22)
(0.00850658 -0.000383124 1.02422e-22)
(0.00862629 -0.000164429 -1.94519e-22)
(0.00873494 0.000113511 2.60929e-21)
(0.00880883 0.000444033 2.60557e-21)
(0.00883367 0.000803051 7.8393e-21)
(0.00881308 0.00115305 -3.66517e-21)
(0.00876356 0.00145582 1.96247e-21)
(0.00871017 0.00168662 8.72676e-21)
(0.00867847 0.00184213 1.92155e-20)
(0.00869694 0.00193899 1.03995e-20)
(0.00877887 0.00201099 0)
(0.0089296 0.00209419 1.01078e-20)
(0.00914607 0.00221443 -2.94871e-20)
(0.00941981 0.00237906 -1.45541e-21)
(0.00974049 0.00256952 0)
(0.010095 0.00273702 -8.55031e-21)
(0.0104645 0.00281205 0)
(0.0107582 0.00273314 0)
(0.0110258 0.00250687 -4.46074e-21)
(0.0110287 0.00224153 -7.76849e-21)
(0.0110127 0.00196072 0)
(0.0109809 0.00164036 0)
(0.0108993 0.00128936 1.97068e-21)
(0.0107748 0.000934482 -1.77031e-21)
(0.0106293 0.000608827 8.77203e-23)
(0.01048 0.000355427 1.07916e-22)
(0.0103456 0.000199589 7.16324e-22)
(0.0102387 0.000114126 -2.03546e-23)
(0.0101543 7.56945e-05 3.79713e-23)
(0.0100797 6.72004e-05 5.45627e-23)
(0.0100029 7.60556e-05 5.55336e-22)
(0.00991753 9.29058e-05 2.22881e-23)
(0.0098207 0.000111465 -5.59831e-22)
(0.00971223 0.00012791 1.67489e-23)
(0.0095928 0.000140504 -2.72293e-22)
(0.00946546 0.000149418 2.89526e-22)
(0.0093316 0.000155657 -1.75602e-23)
(0.00919208 0.000160741 0)
(0.00904667 0.000166531 -1.89495e-23)
(0.00889417 0.000174337 -3.9987e-23)
(0.00873259 0.000184805 3.67262e-22)
(0.00855927 0.000198724 -3.24465e-22)
(0.00837124 0.000217202 3.90518e-22)
(0.00816487 0.000241429 -7.82744e-22)
(0.00793578 0.000273453 6.67483e-22)
(0.00767764 0.000317616 -2.23601e-22)
(0.00738083 0.000382163 -9.3226e-23)
(0.00702938 0.000481909 3.37846e-23)
(0.00659603 0.000644376 0)
(0.00603442 0.000919531 -1.21999e-22)
(0.00526851 0.00138927 4.71337e-23)
(0.00419153 0.00216883 0)
(0.00270801 0.00333819 -6.5561e-23)
(0.000873639 0.00454963 1.36569e-22)
(-0.000130151 0.00368832 2.38897e-22)
(-0.00015433 -0.00128549 8.20665e-23)
(-0.000603818 -0.00221498 0)
(-0.000653934 -0.00236783 0)
(-0.000493 -0.00222777 9.26224e-23)
(-0.000190837 -0.00197629 -9.47255e-23)
(0.000175105 -0.00170914 -1.9642e-22)
(0.000558521 -0.00146473 1.95607e-22)
(0.000934596 -0.00125376 -9.47007e-23)
(0.00128931 -0.00107461 0)
(0.00161559 -0.000922488 9.8458e-23)
(0.00191063 -0.000792233 0)
(0.00217383 -0.000679409 3.76121e-24)
(0.00240583 -0.000580399 0)
(0.00260788 -0.000492382 1.03877e-22)
(0.00278141 -0.000413236 0)
(0.00292792 -0.000341275 0)
(0.00304882 -0.000275188 1.17939e-22)
(0.00314552 -0.000213899 6.34363e-22)
(0.00321944 -0.000156636 -1.59611e-21)
(0.0032719 -0.00010299 1.08491e-21)
(0.0033042 -5.25994e-05 0)
(0.00331778 -5.34731e-06 -1.1953e-21)
(0.00331419 3.86895e-05 1.35752e-21)
(0.00329529 7.92533e-05 1.88306e-22)
(0.00326322 0.000115652 0)
(0.00322051 0.000147194 1.89209e-21)
(0.00317031 0.000172771 -1.87994e-21)
(0.0031165 0.000190951 0)
(0.00306348 0.000199033 -2.42106e-21)
(0.00302064 0.000195342 2.41584e-21)
(0.00300327 0.000175946 -2.85382e-21)
(0.00294457 0.000121696 5.7383e-21)
(0.00279935 9.41863e-06 9.75968e-21)
(0.00260104 -0.000189003 3.66525e-21)
(0.00241269 -0.00050195 -5.9937e-22)
(0.00226517 -0.000952602 6.66255e-22)
(0.00218025 -0.00154122 1.19499e-20)
(0.00210574 -0.002245 -9.89236e-23)
(0.00202759 -0.00297458 -3.69638e-21)
(0.00198622 -0.00365438 8.11008e-21)
(0.00198813 -0.00425081 -3.58174e-21)
(0.00201622 -0.00473842 4.59346e-21)
(0.00207368 -0.00509953 -3.65086e-20)
(0.00215844 -0.00533001 -1.41755e-20)
(0.00226334 -0.00543242 -4.47397e-21)
(0.00237877 -0.00541437 0)
(0.0024952 -0.00528994 -1.3664e-21)
(0.00259934 -0.00507827 -3.21673e-20)
(0.00267973 -0.00479985 -1.41643e-20)
(0.00272944 -0.00447656 -1.86366e-21)
(0.00274734 -0.00412849 -2.69135e-20)
(0.00274177 -0.00377267 0)
(0.0027172 -0.00342726 1.32599e-20)
(0.00269671 -0.00309917 -1.60472e-22)
(0.00270201 -0.00280049 -1.54964e-22)
(0.00276928 -0.00253579 -4.96186e-21)
(0.0029303 -0.00231684 -2.52497e-21)
(0.0032397 -0.00214043 3.14838e-21)
(0.00376578 -0.00201056 -5.64465e-22)
(0.00457021 -0.00193336 -2.08311e-22)
(0.00567305 -0.00192464 6.94014e-22)
(0.00703863 -0.00201711 4.67064e-24)
(0.00846012 -0.00222328 -3.30997e-21)
(0.00971051 -0.00252444 4.956e-21)
(0.010642 -0.0028368 -1.01052e-20)
(0.0111863 -0.00309903 -3.93333e-22)
(0.0113994 -0.00328186 8.06624e-21)
(0.0112864 -0.00331261 1.14132e-21)
(0.0110119 -0.00326118 1.01419e-20)
(0.0106443 -0.00313754 -1.31045e-20)
(0.010268 -0.00297171 -8.73052e-21)
(0.00991986 -0.00278701 0)
(0.00961898 -0.00260117 -1.13331e-20)
(0.00936818 -0.00242407 -9.93641e-21)
(0.00916386 -0.00225891 -1.35573e-21)
(0.00899918 -0.00210576 2.10388e-20)
(0.0088663 -0.00196331 -1.16545e-20)
(0.00876226 -0.00183093 1.23472e-21)
(0.00868238 -0.00170593 -8.7835e-21)
(0.00862253 -0.00158573 8.44849e-21)
(0.00857978 -0.00146835 -7.55779e-21)
(0.00855865 -0.00135355 6.27757e-21)
(0.00855475 -0.00123642 -5.2113e-21)
(0.0085719 -0.00111492 0)
(0.00860711 -0.000982128 -6.54361e-23)
(0.00866376 -0.000831785 2.5427e-23)
(0.00873568 -0.000651084 2.76206e-25)
(0.00880821 -0.000426706 0)
(0.00886424 -0.000148459 -1.04962e-21)
(0.00888591 0.000181442 -2.42335e-21)
(0.00886306 0.00054314 7.24511e-22)
(0.00879984 0.000904509 -8.15283e-21)
(0.00871835 0.00122865 -7.37591e-21)
(0.00864341 0.00148625 9.39545e-21)
(0.00860648 0.00166367 6.41399e-22)
(0.0086262 0.00176971 -1.02831e-20)
(0.00870783 0.00183058 -1.15173e-20)
(0.00884467 0.00188044 -7.12899e-22)
(0.00901367 0.00195006 -1.12729e-20)
(0.00918662 0.00205767 2.39245e-20)
(0.00933804 0.0022048 0)
(0.00944549 0.00237523 0)
(0.0095088 0.00254306 0)
(0.00951906 0.00267789 1.16786e-20)
(0.00948935 0.00275349 6.86187e-22)
(0.00943157 0.0027539 -3.3747e-22)
(0.00935984 0.0026781 -1.1048e-21)
(0.00928813 0.00253363 8.62421e-21)
(0.00922578 0.00233481 8.89848e-21)
(0.00917874 0.00209393 0)
(0.00914744 0.00181769 0)
(0.00914138 0.00151201 0)
(0.00915161 0.00117978 0)
(0.00919387 0.000819686 -2.16164e-21)
(0.00926453 0.000432173 -1.11733e-21)
(0.00937738 1.57278e-05 0)
(0.00954962 -0.000427742 -2.61455e-24)
(0.00980404 -0.000888757 0)
(0.010163 -0.00135813 0)
(0.0106207 -0.00183967 0)
(0.0111195 -0.0023184 0)
(0.0115478 -0.0027609 2.09217e-22)
(0.0118567 -0.00312673 -6.61267e-21)
(0.0119923 -0.00338863 -2.37782e-22)
(0.0118913 -0.00352588 9.65354e-21)
(0.0116339 -0.00353631 -1.1054e-20)
(0.0112586 -0.00345672 1.1677e-20)
(0.0108512 -0.00331458 0)
(0.0104548 -0.00313756 -1.18924e-20)
(0.0100976 -0.0029495 1.06435e-20)
(0.00979193 -0.00276505 -8.37772e-21)
(0.00953935 -0.00259041 1.12873e-20)
(0.009334 -0.00242715 -6.67608e-22)
(0.00916888 -0.00227512 -1.38483e-21)
(0.00903794 -0.00213311 6.86945e-22)
(0.00893469 -0.00199856 7.48738e-21)
(0.0088548 -0.0018694 3.08883e-21)
(0.00879354 -0.00174315 9.17508e-21)
(0.00875347 -0.00161965 1.88869e-21)
(0.00873258 -0.00149555 -8.66187e-21)
(0.00872579 -0.00136669 -1.18395e-20)
(0.00874155 -0.00123221 -5.57047e-21)
(0.00877312 -0.00108423 1.01402e-21)
(0.00882411 -0.000916795 6.42507e-22)
(0.00888995 -0.000718563 -1.44659e-23)
(0.00895797 -0.000476624 -1.01563e-22)
(0.00901313 -0.000179579 -1.45585e-23)
(0.00903746 0.000172981 -3.60239e-21)
(0.00901925 0.000562309 0)
(0.0089603 0.000954974 -7.75669e-21)
(0.0088796 0.00131075 -5.11246e-21)
(0.00880548 0.00159649 0)
(0.00876797 0.00179742 -6.5708e-21)
(0.00879134 0.00192124 -1.15008e-20)
(0.00888811 0.00199491 6.62619e-21)
(0.00905489 0.00205557 -6.7943e-21)
(0.00928023 0.00213517 -1.24508e-20)
(0.00954711 0.00224994 1.2362e-20)
(0.00983636 0.0023934 9.70092e-21)
(0.010131 0.00253501 -1.00534e-20)
(0.0104086 0.00262555 1.06204e-20)
(0.0106378 0.00261133 -6.54231e-21)
(0.0107371 0.00247002 -1.46836e-21)
(0.0107618 0.00224338 7.5519e-21)
(0.0106895 0.00201297 0)
(0.0106044 0.00176842 -4.5507e-21)
(0.0105151 0.00149126 -1.01366e-21)
(0.0103985 0.00119492 -1.88168e-21)
(0.0102617 0.000903206 1.78155e-21)
(0.0101246 0.000637915 -7.72451e-22)
(0.00999569 0.000422631 7.67482e-22)
(0.00986335 0.000275989 0)
(0.00973241 0.000189326 3.95582e-23)
(0.0096081 0.000148505 5.57038e-22)
(0.00948858 0.00014098 -6.32383e-22)
(0.00936909 0.000154643 -5.55077e-22)
(0.00924533 0.000178705 4.86603e-22)
(0.00911453 0.000205219 -2.70411e-22)
(0.00897563 0.000229301 2.70449e-22)
(0.00882865 0.000248662 0)
(0.00867409 0.000263378 -3.17149e-22)
(0.00851221 0.000275062 2.8254e-22)
(0.00834271 0.000286002 -3.40645e-22)
(0.0081645 0.000298651 3.03916e-22)
(0.00797578 0.000314934 4.06852e-23)
(0.00777399 0.000336158 -4.29171e-23)
(0.007556 0.000363503 0)
(0.00731839 0.000398347 0)
(0.00705728 0.00044254 -5.14615e-23)
(0.00676785 0.000499403 0)
(0.00644361 0.000575483 0)
(0.00607514 0.000683034 1.26452e-22)
(0.0056476 0.000844385 0)
(0.00513663 0.0011 0)
(0.00450282 0.00151973 3.31577e-22)
(0.00368875 0.00220797 -1.70015e-22)
(0.00263686 0.00326885 0)
(0.00136835 0.00462925 0)
(9.76442e-05 0.00553392 -1.82213e-23)
(-0.000211507 0.00367371 -1.47974e-22)
(-0.000108057 -0.000946772 -1.83718e-23)
(-0.00052012 -0.00194335 1.1156e-22)
(-0.000736946 -0.00230765 8.98912e-23)
(-0.000783513 -0.00232359 -1.81614e-22)
(-0.000706288 -0.00217771 3.65317e-22)
(-0.000537168 -0.00197205 -1.83666e-22)
(-0.000315574 -0.00175624 0)
(-7.18981e-05 -0.00155216 9.59026e-23)
(0.000177283 -0.00136688 0)
(0.000420303 -0.00120085 4.71366e-22)
(0.00065009 -0.00105221 -3.77456e-22)
(0.000862358 -0.000918619 9.82833e-23)
(0.00105472 -0.000797778 4.00969e-22)
(0.00122602 -0.000687658 -2.99581e-22)
(0.00137586 -0.000586558 1.03479e-22)
(0.0015043 -0.00049306 0)
(0.00161169 -0.000406008 1.14087e-22)
(0.00169862 -0.000324469 -3.88791e-22)
(0.00176586 -0.000247761 1.59797e-21)
(0.0018143 -0.000175495 -1.08678e-21)
(0.00184498 -0.000107465 -1.11256e-21)