/*--------------------------------*- C++ -*----------------------------------*\
| =========                 |                                                 |
| \\      /  F ield         | OpenFOAM: The Open Source CFD Toolbox           |
|  \\    /   O peration     | Version:  2506                                  |
|   \\  /    A nd           | Website:  www.openfoam.com                      |
|    \\/     M anipulation  |                                                 |
\*---------------------------------------------------------------------------*/
FoamFile
{
    version     2.0;
    format      ascii;
    arch        "LSB;label=32;scalar=64";
    class       volVectorField;
    location    "3.3";
    object      vorticityField;
}
// * * * * * * * * * * * * * * * * * * * * * * * * * * * * * * * * * * * * * //

dimensions      [0 0 -1 0 0 0 0];

internalField   nonuniform List<vector> 
4000
(
(2.32574e-19 1.76366e-19 19.9767)
(-5.73856e-20 5.01012e-20 21.4677)
(1.80982e-19 5.34121e-19 16.6406)
(-1.84723e-19 6.71602e-19 11.9533)
(7.30535e-19 7.61424e-19 8.63088)
(-2.59388e-21 -1.38226e-21 6.2069)
(-3.56251e-19 1.01056e-18 4.32512)
(1.37171e-19 9.90262e-19 2.84547)
(9.44238e-20 -3.91709e-20 1.68162)
(5.39274e-20 6.53292e-19 0.755388)
(-4.7448e-19 2.02503e-17 0.00271922)
(2.15874e-18 -4.07821e-17 -0.600253)
(-1.44777e-18 1.97719e-17 -1.09425)
(1.46065e-18 -2.05016e-17 -1.48259)
(-2.20355e-18 2.1158e-17 -1.7932)
(1.69874e-18 1.30242e-18 -2.02775)
(-1.43425e-18 1.97172e-17 -2.19967)
(1.87e-18 -2.10825e-17 -2.31376)
(1.0758e-18 1.93857e-18 -2.37449)
(-1.78442e-18 -5.72676e-20 -2.38784)
(1.3804e-19 -6.13736e-20 -2.35742)
(2.51641e-18 -1.24011e-18 -2.28593)
(-2.36481e-18 -1.12245e-18 -2.17648)
(-2.59688e-18 -2.32057e-20 -2.03339)
(2.75261e-18 -1.22543e-18 -1.85989)
(1.79303e-19 -1.05796e-18 -1.65911)
(3.49826e-18 1.00602e-19 -1.43432)
(-4.56816e-19 3.75425e-18 -1.18994)
(-1.11532e-17 3.31883e-17 -0.930695)
(3.99169e-18 -4.17543e-17 -0.667573)
(5.36274e-18 -5.54507e-18 -0.409414)
(1.22538e-17 -5.19538e-17 -0.0499351)
(-1.00521e-18 1.09256e-16 0.506362)
(3.72011e-17 -1.81854e-17 1.30625)
(1.3104e-17 7.01512e-17 2.38054)
(-6.08831e-17 4.98292e-16 3.77776)
(3.1779e-17 -1.67885e-16 5.39355)
(-2.61514e-17 -8.41943e-17 7.80897)
(1.38665e-18 4.34544e-17 11.3851)
(3.11388e-17 4.14919e-17 15.3341)
(1.54765e-17 8.18088e-17 19.1475)
(6.36164e-17 2.9411e-16 22.4625)
(2.14273e-18 -1.13201e-17 25.1031)
(2.31206e-16 1.83087e-16 27.0043)
(-1.05788e-16 -1.29734e-16 28.1438)
(-1.42626e-18 2.62677e-16 28.5538)
(-3.06118e-17 -1.33545e-16 28.2334)
(4.50499e-17 -2.33416e-16 27.323)
(-8.01966e-17 -1.11659e-16 25.9431)
(-1.01438e-16 -8.81601e-17 24.2562)
(3.4542e-17 6.63919e-17 22.399)
(-4.03896e-18 -7.12714e-18 20.329)
(-3.87361e-17 -2.01461e-17 18.318)
(-2.41043e-17 2.10619e-16 16.1512)
(-7.15661e-17 2.09133e-17 13.7815)
(2.55213e-17 -1.86827e-16 10.8295)
(-1.59499e-17 -9.07345e-17 7.183)
(5.44221e-18 5.55817e-17 2.55968)
(1.06906e-18 -2.52144e-18 -2.78695)
(-1.38583e-18 -3.16276e-17 -8.13222)
(-9.21112e-18 -1.06911e-16 -12.5391)
(-1.99311e-17 -9.62447e-17 -15.4932)
(2.41151e-17 2.36179e-16 -17.0237)
(-4.67729e-17 -3.17825e-16 -16.9462)
(-6.17044e-19 -1.40065e-17 -15.9972)
(2.80201e-18 -2.4518e-18 -14.5761)
(-4.5433e-19 4.0838e-18 -12.98)
(-1.21351e-17 2.97151e-17 -11.409)
(-3.34575e-17 -5.00533e-16 -10.0359)
(-4.91818e-17 -2.57965e-16 -8.86443)
(1.6852e-18 -6.1544e-17 -7.87192)
(5.323e-17 1.82198e-16 -7.02208)
(-5.13285e-19 -1.77875e-16 -6.29632)
(6.84572e-18 -1.48126e-16 -5.66883)
(4.10584e-17 2.51894e-16 -5.11728)
(-2.23996e-17 -1.10232e-16 -4.62567)
(-4.44716e-17 -1.66631e-16 -4.18398)
(-1.18787e-17 -2.52046e-16 -3.78514)
(1.9515e-18 -2.63752e-17 -3.43493)
(1.65284e-17 -1.59325e-17 -3.11765)
(-1.37045e-17 3.16834e-18 -2.83149)
(1.11757e-17 1.53484e-16 -2.58067)
(-3.75397e-19 2.2501e-17 -2.38278)
(-6.85891e-18 -1.44515e-16 -2.22083)
(-3.22903e-19 1.27266e-16 -2.11983)
(2.00807e-20 5.02292e-18 -2.08711)
(1.07496e-19 2.66581e-19 -2.16317)
(-4.24848e-19 8.72204e-18 -2.34597)
(-6.49238e-19 1.88471e-17 -2.66942)
(-4.11918e-18 -6.94027e-17 -3.18067)
(2.79072e-19 4.22823e-18 -3.87078)
(-1.16e-17 2.73877e-17 -4.76163)
(-1.33207e-17 -2.03074e-17 -5.76375)
(1.70661e-17 4.08196e-17 -6.8374)
(-4.11453e-17 1.6652e-16 -7.84546)
(-3.42675e-17 2.23973e-16 -8.71199)
(-4.24819e-17 1.14697e-16 -9.45869)
(-2.74893e-17 -1.00949e-17 -10.106)
(-4.22029e-17 2.80676e-16 -10.795)
(-4.87184e-17 2.32383e-16 -11.6462)
(1.29279e-18 -1.73246e-18 -12.7505)
(-5.73657e-17 2.4439e-16 -14.1263)
(-9.37063e-17 4.58582e-16 -15.7019)
(-5.17479e-18 -3.17367e-17 -17.3167)
(-9.95759e-17 2.83122e-16 -18.7764)
(-1.96385e-18 -6.77149e-17 -19.9033)
(5.34946e-17 -3.89129e-16 -20.6015)
(4.818e-17 -3.13073e-16 -20.8376)
(-1.6097e-17 -1.22835e-17 -20.6115)
(-2.11051e-17 -3.6253e-17 -20.0441)
(6.28692e-17 -3.10103e-16 -19.282)
(-3.32251e-17 3.51038e-16 -18.2917)
(-6.97787e-19 3.74639e-18 -17.5077)
(-4.66205e-17 5.16527e-16 -16.792)
(-5.71754e-18 6.89526e-17 -16.4398)
(-1.04443e-17 2.59452e-16 -16.5132)
(-1.68093e-19 -4.3995e-18 -16.9153)
(2.52541e-19 4.99423e-17 -17.523)
(-1.22094e-18 -7.17959e-18 -18.2167)
(3.06175e-20 -5.16782e-19 -18.4536)
(1.91012e-18 2.56109e-17 -18.1146)
(-4.61896e-17 -3.40976e-16 -17.277)
(2.64291e-17 1.98627e-16 -16.047)
(5.85942e-19 1.62647e-17 -14.5953)
(4.3996e-17 3.39608e-16 -13.0286)
(-6.50641e-17 -4.95202e-16 -11.5819)
(5.20693e-17 1.44239e-16 -10.2844)
(-5.64837e-18 -2.98075e-16 -9.13901)
(2.66315e-17 -1.02231e-16 -8.15874)
(-2.69442e-17 -2.48457e-16 -7.32926)
(-1.16556e-18 -6.49944e-17 -6.61763)
(5.14951e-17 1.70633e-16 -5.99611)
(-3.4357e-17 5.34638e-17 -5.44433)
(3.26033e-17 1.99225e-16 -4.95017)
(1.92477e-17 1.50661e-17 -4.50703)
(2.56505e-18 2.432e-17 -4.10479)
(-2.09318e-17 -1.9155e-16 -3.73672)
(2.52299e-17 1.58056e-16 -3.39707)
(-1.31785e-18 2.35894e-17 -3.09338)
(-1.10535e-17 -6.14848e-18 -2.83317)
(8.86241e-18 1.50754e-16 -2.59525)
(-1.61061e-18 -3.39287e-17 -2.40454)
(1.69736e-17 1.78594e-16 -2.26614)
(-7.13515e-19 1.18663e-17 -2.19131)
(-1.63781e-18 -9.982e-17 -2.22158)
(4.12972e-19 -6.65106e-17 -2.36262)
(-3.29283e-18 5.06469e-17 -2.65125)
(2.85381e-18 -3.60109e-17 -3.14002)
(-3.89308e-18 3.41405e-18 -3.82283)
(-5.6681e-18 4.06505e-17 -4.71557)
(-4.50386e-18 -3.41502e-17 -5.79705)
(3.37135e-17 -2.40267e-16 -6.99341)
(-6.59462e-18 8.16959e-17 -8.15833)
(-4.46514e-18 -6.42427e-17 -9.29323)
(-1.64967e-17 1.2211e-16 -10.2332)
(-2.14344e-17 2.75876e-17 -11.0559)
(4.78003e-18 -2.1418e-18 -11.8616)
(3.28174e-17 3.60309e-17 -12.8267)
(-1.95009e-17 -8.42545e-17 -14.0735)
(9.28696e-17 -5.17376e-16 -15.7607)
(-6.92924e-18 1.77808e-16 -18.0452)
(-8.7163e-17 3.69822e-16 -20.8051)
(-1.02026e-17 1.31154e-16 -24.5419)
(-6.27045e-18 -3.83946e-17 -23.4944)
(3.05558e-17 -2.12685e-16 -23.0485)
(5.58964e-17 -4.15767e-16 -22.0786)
(6.76396e-18 2.15045e-17 -20.9089)
(8.81684e-18 -7.13934e-17 -19.5471)
(1.1361e-17 -1.59576e-16 -17.8684)
(3.78841e-18 -5.57385e-17 -15.8972)
(1.87082e-18 1.47023e-18 -14.0192)
(6.46023e-21 -9.34979e-19 -12.8337)
(1.42944e-18 5.59072e-21 -12.2782)
(-1.38137e-18 -9.35171e-19 -12.0203)
(-1.78366e-19 -1.79266e-18 -11.842)
(6.38368e-20 -5.39438e-17 -11.6754)
(-9.00135e-19 5.59791e-17 -11.4911)
(-1.05092e-19 2.53209e-17 -11.2733)
(1.0729e-18 -2.74528e-17 -11.0207)
(-1.81114e-20 2.49679e-17 -10.7408)
(5.57104e-19 -5.31244e-17 -10.4426)
(-4.09678e-19 2.59945e-17 -10.1313)
(-6.66174e-19 -4.30249e-19 -9.81375)
(6.59555e-19 -8.23053e-19 -9.49103)
(-5.01785e-20 3.01853e-19 -9.15823)
(1.37963e-18 -2.54021e-17 -8.81198)
(-1.41805e-18 2.41321e-17 -8.44934)
(1.54556e-18 -2.45709e-17 -8.06211)
(-1.56829e-18 2.39991e-17 -7.63899)
(8.0961e-19 -1.30968e-17 -7.17038)
(-8.52912e-19 1.15963e-17 -6.63919)
(4.98447e-20 -1.08912e-18 -6.0177)
(-5.931e-20 -7.05758e-19 -5.25319)
(-6.30401e-19 -7.64453e-21 -4.26528)
(7.295e-19 -7.09616e-19 -2.90444)
(-7.41146e-20 -1.02736e-18 -0.884027)
(6.89705e-19 -4.63697e-18 2.32659)
(-5.82486e-19 5.42047e-18 7.75846)
(-5.70602e-21 -5.34786e-19 15.8647)
(-3.16175e-21 -4.49997e-20 17.853)
(8.99331e-20 -8.88328e-20 -2.3722)
(5.92785e-19 -1.49629e-19 7.70633)
(-2.2239e-19 -3.17213e-19 10.5283)
(1.10725e-18 1.15855e-18 11.0359)
(-1.64835e-18 -7.87478e-18 10.7991)
(-1.51614e-19 -2.88047e-21 10.2236)
(1.19614e-18 4.69785e-18 9.53576)
(-2.82691e-19 -2.74363e-18 8.86632)
(-2.68221e-19 -1.40086e-18 8.25274)
(-4.12487e-19 -1.60414e-18 7.70381)
(5.44509e-19 -3.46855e-18 7.22811)
(-2.17249e-18 -1.79718e-17 6.80694)
(1.78555e-18 1.82244e-17 6.44696)
(-2.7111e-18 -1.71295e-17 6.12633)
(1.818e-18 3.28174e-17 5.85327)
(-1.19201e-18 -3.97954e-17 5.61755)
(1.35326e-18 1.67603e-17 5.42036)
(-1.01791e-18 -2.19887e-17 5.25755)
(-2.27646e-18 -1.88627e-17 5.12226)
(1.72181e-18 3.53464e-17 5.01506)
(3.10193e-19 -5.96116e-18 4.93468)
(-5.86133e-19 -3.42174e-17 4.87633)
(1.76206e-18 4.17415e-17 4.83821)
(-2.44182e-18 2.83583e-17 4.81694)
(-2.49132e-18 -3.64554e-17 4.80898)
(2.50181e-18 -1.56366e-18 4.81166)
(4.02826e-18 -3.36544e-17 4.82102)
(-4.93055e-18 1.33365e-17 4.83225)
(2.7593e-18 6.61473e-17 4.83799)
(-2.1419e-18 -1.14601e-17 4.82672)
(1.43814e-18 -3.74658e-17 4.80254)
(-7.02186e-18 -4.2768e-17 4.82114)
(-4.3056e-19 -1.16117e-16 4.91822)
(-2.68288e-17 -1.93896e-16 4.97468)
(2.05537e-17 -1.07962e-16 4.90059)
(8.7245e-17 -7.15626e-17 4.70313)
(4.07207e-17 6.47148e-17 4.44927)
(-4.69153e-18 5.57171e-17 4.40108)
(-3.74552e-17 -1.07906e-16 4.7038)
(-5.1084e-17 -7.08248e-17 5.22243)
(-1.83247e-16 -1.70791e-16 5.96309)
(-3.4643e-17 2.94472e-18 6.82915)
(4.0967e-17 -7.79868e-18 7.67685)
(-1.42578e-16 -8.04816e-17 8.4299)
(8.2821e-17 1.30031e-16 9.07442)
(-1.6936e-16 -9.06334e-17 9.58086)
(2.39342e-16 2.29948e-16 9.92694)
(-3.64171e-18 -5.39023e-17 10.1317)
(-7.80812e-17 3.62653e-17 10.2157)
(7.10831e-17 7.51156e-17 10.1983)
(-1.40774e-16 -1.72312e-16 10.0816)
(1.2707e-17 8.64622e-17 9.90053)
(1.03343e-16 1.18854e-16 9.7438)
(1.40366e-17 -1.52236e-17 9.56932)
(2.96506e-17 1.65616e-16 9.41174)
(-9.97698e-18 -1.96949e-17 9.19858)
(1.38569e-17 1.00186e-16 8.83943)
(-8.19372e-18 -7.60053e-17 8.05086)
(-3.49288e-18 -6.37524e-18 6.47908)
(3.56041e-18 3.16639e-17 3.86027)
(9.16831e-18 9.9326e-17 0.29772)
(2.41839e-17 2.55309e-16 -3.86678)
(5.55155e-17 3.85155e-16 -7.25155)
(4.96782e-17 3.35838e-16 -9.83069)
(3.69296e-18 -4.04021e-17 -11.3532)
(-8.37757e-18 5.74176e-17 -11.6411)
(-3.49783e-19 2.89136e-18 -11.3499)
(1.0409e-17 -7.12022e-17 -10.5686)
(1.14681e-16 6.74996e-16 -9.6221)
(1.12775e-19 -3.42766e-16 -8.65339)
(3.14435e-19 -1.14772e-16 -7.7513)
(2.62374e-17 3.94802e-16 -6.93731)
(6.83413e-17 2.37458e-16 -6.22173)
(4.79327e-17 2.9909e-16 -5.59688)
(-2.7728e-17 1.16315e-16 -5.04881)
(-3.90098e-18 1.57929e-17 -4.56351)
(2.56126e-17 -3.76003e-16 -4.13256)
(3.35891e-17 1.68569e-16 -3.738)
(3.76562e-20 1.97936e-17 -3.38935)
(-4.89637e-18 2.68563e-16 -3.07494)
(3.80737e-18 -2.09839e-16 -2.79429)
(-1.06127e-17 -9.96647e-18 -2.52966)
(-6.32216e-20 4.20955e-20 -2.31347)
(6.66708e-18 1.9874e-18 -2.11095)
(-1.14421e-17 -1.66949e-16 -1.94885)
(3.31862e-19 -9.80773e-19 -1.79382)
(-1.99247e-19 -8.96198e-18 -1.65809)
(5.66182e-19 9.30189e-18 -1.50822)
(1.8957e-18 3.07173e-19 -1.32532)
(1.09798e-18 1.6827e-16 -1.11912)
(1.82071e-18 -2.03897e-17 -0.927251)
(1.85821e-17 5.31875e-17 -0.805094)
(-9.32053e-18 1.82806e-16 -0.802323)
(1.08196e-18 -2.38495e-16 -0.967902)
(-2.04786e-17 2.43646e-16 -1.25641)
(7.62459e-17 -1.80352e-16 -1.62815)
(1.68055e-17 3.55475e-16 -2.02098)
(-2.78599e-17 2.20573e-16 -2.39332)
(7.1096e-17 -2.95977e-16 -2.74474)
(5.01725e-17 -2.17594e-16 -3.0697)
(-7.47874e-19 7.08376e-17 -3.37507)
(-1.89646e-17 3.32958e-16 -3.66982)
(1.23526e-16 -2.6709e-16 -3.95562)
(-2.54507e-17 1.90667e-17 -4.21086)
(3.678e-17 6.76951e-17 -4.44133)
(2.15892e-18 6.70132e-17 -4.59197)
(-1.57991e-16 7.57595e-16 -4.63131)
(-1.83981e-16 6.61899e-16 -4.50496)
(-9.20328e-17 3.05895e-16 -4.28623)
(-5.6679e-17 3.3478e-16 -4.06988)
(-8.72984e-17 2.5412e-16 -3.80744)
(1.19814e-16 -6.81909e-16 -3.44896)
(-2.08435e-18 4.18378e-17 -3.13138)
(7.32618e-17 -3.04078e-16 -2.88052)
(1.06596e-18 4.83548e-17 -2.82392)
(1.2716e-17 -1.44508e-16 -3.04832)
(6.7405e-19 -1.62818e-17 -3.72064)
(-4.49595e-18 -7.73288e-17 -4.92051)
(-7.69153e-19 -1.13211e-17 -6.58108)
(8.9795e-19 1.039e-17 -8.50458)
(-3.77271e-19 -1.82481e-17 -10.2429)
(6.67287e-17 2.95888e-16 -11.5931)
(-2.25557e-17 5.09747e-17 -12.1383)
(-7.17502e-18 -2.34736e-18 -12.1193)
(-9.10383e-17 -2.65287e-16 -11.5523)
(1.19668e-16 1.56079e-16 -10.7176)
(-3.96239e-18 3.75527e-16 -9.77731)
(1.06597e-16 5.53867e-16 -8.82544)
(9.50924e-17 6.13465e-16 -7.93235)
(2.92066e-17 2.88246e-16 -7.13519)
(8.22269e-18 2.875e-17 -6.43605)
(4.70297e-18 3.97388e-16 -5.82351)
(-6.57452e-17 -4.77246e-16 -5.28338)
(-2.61484e-17 5.56719e-18 -4.8004)
(2.6921e-17 1.94057e-16 -4.36751)
(7.03352e-18 1.49496e-17 -3.97641)
(1.39782e-18 -3.59065e-19 -3.61942)
(-3.43081e-17 6.48711e-17 -3.29562)
(-2.95908e-18 -3.77042e-17 -2.99206)
(-3.96135e-18 -1.54831e-16 -2.72619)
(-3.35642e-18 -5.56838e-17 -2.49013)
(-7.34402e-19 -6.10105e-18 -2.26887)
(-1.27666e-18 9.92159e-17 -2.09177)
(-5.45029e-18 -7.30975e-17 -1.92955)
(5.86316e-18 1.03592e-16 -1.79631)
(1.20364e-19 3.1077e-18 -1.65414)
(8.1684e-19 3.64687e-17 -1.47564)
(3.41752e-18 -3.49109e-17 -1.27363)
(4.36219e-19 8.98022e-17 -1.0836)
(1.59602e-17 3.25225e-18 -0.962003)
(-5.80924e-18 -3.63161e-18 -0.965571)
(-2.08547e-17 -1.53976e-17 -1.12723)
(2.49766e-17 7.2325e-17 -1.44347)
(-6.00631e-17 5.68739e-16 -1.88721)
(1.70411e-18 1.07595e-16 -2.34325)
(-1.0284e-17 4.88763e-17 -2.79731)
(2.93385e-17 -1.01946e-16 -3.24457)
(5.0654e-17 -4.86919e-16 -3.70969)
(-3.40948e-17 2.42448e-16 -4.20799)
(-1.15965e-16 2.31729e-16 -4.78609)
(-1.89857e-17 -7.74919e-17 -5.51711)
(8.0961e-17 -2.27031e-16 -6.31227)
(-4.38994e-18 1.48986e-16 -6.39724)
(-1.32023e-17 -2.87085e-17 -4.94038)
(5.60673e-17 -4.2439e-16 -4.70155)
(-7.3354e-17 3.12227e-16 -4.54189)
(-3.28307e-18 -1.36519e-17 -4.31986)
(1.90042e-18 2.27134e-18 -4.1583)
(-1.3814e-17 6.37737e-17 -4.0229)
(-5.04195e-18 6.43569e-17 -3.91237)
(2.5326e-18 -6.35814e-17 -3.74696)
(1.56943e-18 1.0632e-18 -3.45994)
(4.78274e-19 -6.44023e-17 -3.14294)
(-5.75485e-20 6.53739e-17 -2.8862)
(6.12265e-20 2.7337e-18 -2.68779)
(-1.53481e-19 6.28896e-17 -2.51908)
(9.19022e-19 -2.70165e-18 -2.36079)
(-6.06948e-19 -3.31302e-17 -2.2015)
(-3.74618e-19 -2.75446e-17 -2.03317)
(2.13035e-19 -2.80201e-17 -1.85001)
(-5.68138e-19 2.91492e-17 -1.65393)
(5.0037e-19 -8.66903e-19 -1.44502)
(-2.42237e-19 2.81087e-17 -1.22357)
(9.54771e-20 -2.99232e-17 -0.990285)
(-5.93188e-20 -8.46739e-19 -0.744388)
(3.43842e-19 -2.42217e-17 -0.48333)
(-3.01939e-19 2.961e-17 -0.203953)
(3.45385e-19 -2.63656e-17 0.0977378)
(-1.18681e-18 2.90652e-17 0.427483)
(1.04656e-18 -1.06866e-17 0.792868)
(-2.34032e-19 1.36871e-17 1.20478)
(-1.96371e-19 -9.94553e-19 1.68166)
(-1.04304e-20 2.663e-18 2.25355)
(-5.17606e-19 1.03012e-17 2.97976)
(2.89938e-19 -1.18573e-17 3.95615)
(-1.45904e-19 2.32409e-18 5.32187)
(-5.69395e-19 2.72196e-19 7.25068)
(9.43466e-19 -1.12424e-18 9.55044)
(2.77472e-19 4.30023e-19 9.04939)
(-4.24808e-19 -9.85932e-20 -4.57845)
(2.01051e-19 -1.44774e-19 -6.69147)
(-1.53166e-18 2.54038e-19 0.809664)
(7.42335e-19 1.11673e-19 4.59005)
(1.10737e-18 -2.29361e-19 6.60647)
(-2.07687e-18 -2.30383e-19 7.65304)
(1.21503e-18 2.4319e-18 8.16037)
(-8.36557e-19 -2.85475e-18 8.36485)
(-1.35255e-19 1.74907e-18 8.4012)
(6.90821e-20 1.61491e-18 8.34379)
(7.47487e-19 3.29566e-18 8.23481)
(-2.3327e-20 1.66396e-18 8.09999)
(-3.1178e-19 3.05844e-18 7.95337)
(-1.52696e-19 -1.05075e-17 7.8053)
(1.20083e-18 2.65151e-17 7.65972)
(8.75054e-19 -1.10176e-17 7.52068)
(-1.28986e-18 1.49732e-17 7.38944)
(7.11953e-19 -8.82597e-18 7.26769)
(3.43803e-20 7.08591e-18 7.15591)
(-3.61942e-18 2.65755e-17 7.05308)
(3.68297e-18 -2.63741e-17 6.95885)
(-3.66155e-19 4.09896e-18 6.87302)
(-4.30513e-18 2.00516e-18 6.79433)
(4.9205e-18 -2.39945e-17 6.72126)
(1.91397e-18 3.35687e-17 6.65163)
(-2.56563e-18 2.05764e-17 6.58287)
(4.56152e-18 -2.74144e-17 6.51244)
(-6.88585e-18 -1.92034e-17 6.43682)
(-1.27303e-18 2.62985e-17 6.3512)
(4.1731e-18 -3.22709e-18 6.24958)
(4.7127e-18 5.82093e-20 6.12167)
(-9.38826e-18 -2.28219e-19 5.95791)
(1.10142e-18 2.19558e-17 5.69967)
(-5.87531e-18 1.15235e-16 5.33694)
(-1.63279e-17 3.862e-17 4.81522)
(-3.1076e-17 -1.16701e-16 4.09691)
(-1.3807e-17 -3.00169e-17 3.22712)
(-4.25607e-18 -8.36306e-17 2.32929)
(2.3342e-17 1.10396e-16 1.61365)
(6.96319e-17 2.90007e-17 1.15863)
(-4.84412e-17 3.28419e-17 0.956548)
(1.88308e-16 1.067e-16 1.05198)
(-8.46905e-18 -1.53074e-16 1.37553)
(-2.16384e-16 -1.78976e-16 1.81562)
(-2.77184e-16 -1.38378e-16 2.32492)
(4.1385e-17 1.17465e-16 2.86214)
(8.66941e-17 -5.59237e-17 3.38279)
(-2.62127e-16 -1.92285e-16 3.853)
(-2.2404e-16 -7.76575e-17 4.26326)
(-8.52318e-17 -6.88963e-18 4.60769)
(3.43798e-17 4.99139e-17 4.88296)
(-8.02276e-17 -5.52122e-17 5.08628)
(-2.32753e-17 -3.50082e-17 5.23935)
(8.0736e-17 3.75768e-17 5.39078)
(-9.22285e-18 1.69168e-17 5.53993)
(1.26156e-16 1.15386e-16 5.75106)
(-4.47086e-17 -7.86724e-17 6.04732)
(-3.27963e-17 -5.22283e-17 6.46873)
(2.09472e-17 5.02651e-17 6.9657)
(5.11017e-19 7.3547e-18 7.38674)
(-1.33231e-19 -5.50321e-19 7.40497)
(6.99177e-18 3.23766e-17 6.39156)
(-1.4464e-17 -2.88229e-17 4.24364)
(-2.84961e-18 3.72362e-17 1.53034)
(-1.01853e-16 -4.15349e-16 -1.82553)
(7.63461e-17 4.12466e-16 -4.53511)
(-1.1401e-16 -3.87208e-16 -6.58249)
(2.16712e-17 -3.56945e-17 -8.04606)
(-3.30261e-18 5.62898e-17 -8.50369)
(-2.12889e-16 -7.55499e-16 -8.46923)
(1.76079e-16 6.40921e-16 -8.04522)
(-2.30552e-17 1.08447e-16 -7.45409)
(-8.3119e-17 -2.23914e-16 -6.80006)
(-1.67958e-17 2.32858e-17 -6.15881)
(1.22829e-17 3.56893e-16 -5.56311)
(-5.02331e-17 -2.30145e-16 -5.02391)
(-9.09105e-18 -3.99429e-16 -4.54012)
(9.29494e-17 5.01025e-16 -4.10937)
(-2.28926e-17 6.13832e-17 -3.71206)
(-2.02946e-17 4.04111e-17 -3.35656)
(-5.94513e-17 -4.5604e-16 -3.03325)
(5.55933e-17 3.71327e-16 -2.74108)
(1.09087e-17 3.22358e-17 -2.45579)
(-8.94394e-18 6.51586e-18 -2.20712)
(-4.80008e-19 -1.12075e-17 -1.95622)
(1.63402e-17 1.59756e-16 -1.72448)
(-1.67966e-19 5.31311e-18 -1.46838)
(-2.78149e-18 -4.0229e-17 -1.19189)
(1.38025e-19 -1.48344e-18 -0.869605)
(-2.51057e-18 -3.95065e-17 -0.497509)
(7.94633e-18 -1.65033e-16 -0.111992)
(1.634e-18 -3.03923e-17 0.225768)
(2.18872e-17 -3.97359e-16 0.443976)
(2.40062e-17 -1.23848e-16 0.494282)
(-6.96179e-17 4.31359e-16 0.354106)
(1.76466e-17 -3.38171e-17 0.0715258)
(1.15193e-17 -3.33378e-16 -0.295466)
(1.00038e-16 -4.821e-16 -0.651989)
(7.34536e-17 -1.6936e-16 -0.912604)
(-4.84023e-17 1.27404e-17 -1.03751)
(-4.61812e-17 3.04492e-16 -1.01891)
(2.62064e-19 -6.6323e-17 -0.888369)
(1.02401e-16 -2.73543e-16 -0.69158)
(-3.05898e-17 3.76769e-17 -0.502107)
(-6.84113e-17 3.2115e-16 -0.349329)
(9.39629e-17 -3.68399e-16 -0.273454)
(-1.69916e-18 -2.301e-17 -0.238568)
(2.50052e-16 -6.60251e-16 -0.205853)
(1.71826e-16 -2.20342e-16 -0.162397)
(4.67759e-17 4.05273e-17 -0.0788201)
(1.03101e-16 -3.18297e-16 0.019229)
(2.46575e-17 5.38158e-17 0.128574)
(-9.98472e-17 2.99376e-16 0.239187)
(-5.72319e-19 -2.21092e-17 0.371683)
(1.25949e-17 -3.28256e-16 0.486872)
(-2.97662e-18 2.57214e-17 0.594148)
(-2.73264e-18 -8.82514e-19 0.660069)
(-1.7851e-19 -7.5286e-19 0.638402)
(5.4179e-18 7.79321e-17 0.429323)
(4.20868e-19 9.47658e-19 -0.128176)
(-2.30143e-18 -1.15207e-17 -1.3608)
(4.39166e-18 2.29477e-17 -3.06043)
(-2.46438e-17 3.15587e-18 -4.93413)
(-1.65244e-17 1.15339e-17 -6.6441)
(2.91844e-18 2.1442e-17 -8.05227)
(-7.11883e-17 -4.89125e-16 -8.78256)
(7.17506e-17 5.15498e-16 -8.9644)
(-1.90735e-16 -6.6099e-16 -8.71911)
(-1.32647e-16 -3.0566e-16 -8.21745)
(-5.78951e-17 1.0368e-16 -7.58486)
(-8.75945e-17 -3.08621e-16 -6.92235)
(-1.12831e-17 6.2507e-17 -6.28566)
(-5.3256e-17 -2.56635e-16 -5.70014)
(1.10085e-17 -1.77686e-16 -5.17298)
(-8.05215e-18 9.16666e-18 -4.69736)
(-2.64133e-18 -1.17405e-18 -4.26805)
(2.60358e-17 6.40276e-17 -3.87932)
(-3.40638e-17 -1.93265e-16 -3.52291)
(-5.19878e-17 -4.69688e-16 -3.19857)
(3.98107e-19 -6.13794e-17 -2.88695)
(1.38018e-17 1.76889e-16 -2.60239)
(1.7622e-17 2.67575e-16 -2.34091)
(-1.22168e-17 -1.8227e-17 -2.07604)
(-1.01843e-17 -1.202e-16 -1.83217)
(-4.37562e-18 -8.87056e-17 -1.56996)
(4.79414e-18 7.89492e-17 -1.28985)
(1.18602e-18 2.05087e-17 -0.968203)
(1.22492e-19 -5.02683e-18 -0.596186)
(-6.41663e-18 -1.34613e-16 -0.199988)
(7.48488e-18 -9.59889e-17 0.159443)
(1.24278e-17 -2.32729e-16 0.406533)
(-2.09451e-17 1.07658e-16 0.479674)
(5.53746e-18 -8.19895e-17 0.355305)
(2.98614e-17 -2.77439e-16 0.0705008)
(1.20638e-16 -4.62239e-16 -0.317784)
(7.97741e-17 -1.78605e-16 -0.715789)
(-7.80915e-18 -7.19322e-18 -1.04785)
(4.63352e-17 -2.35443e-16 -1.26573)
(-1.97727e-16 8.40187e-16 -1.36691)
(-3.68395e-18 4.31066e-17 -1.3745)
(6.82393e-18 2.58431e-17 -1.35005)
(-7.32215e-17 3.92146e-16 -1.36964)
(-3.66586e-17 -6.00471e-17 -1.41199)
(3.2385e-18 1.32183e-17 -1.08751)
(-3.69938e-17 2.91325e-16 -0.449496)
(-1.07042e-16 3.94847e-16 -0.260874)
(9.94537e-19 -1.47708e-17 -0.138728)
(-3.09986e-18 -4.67349e-18 -0.0591675)
(1.32341e-17 -1.43175e-16 0.0173782)
(-4.16673e-18 1.46433e-16 0.109824)
(1.19359e-18 -4.28819e-18 0.211467)
(1.31042e-18 -6.09634e-18 0.350314)
(1.79781e-18 -6.49262e-17 0.585322)
(-1.15759e-18 3.15813e-18 0.892758)
(2.64145e-18 -3.94907e-18 1.19528)
(-1.40402e-18 -6.64966e-18 1.45069)
(5.53267e-19 -6.1413e-17 1.65862)
(1.44564e-18 -1.19273e-18 1.82826)
(-1.84612e-18 6.23929e-17 1.96891)
(5.12019e-21 -2.36902e-18 2.09242)
(-1.05655e-18 2.85336e-17 2.21104)
(3.23537e-19 -3.09651e-17 2.33356)
(6.18276e-19 2.30035e-18 2.46433)
(-9.85988e-20 -1.3097e-23 2.61016)
(-1.3854e-20 1.81103e-18 2.7729)
(-8.75502e-20 2.49106e-18 2.94993)
(-1.01194e-19 -2.69916e-17 3.14315)
(2.35537e-19 2.40292e-17 3.35844)
(-6.4575e-20 -2.37225e-17 3.59761)
(-6.67339e-19 4.61651e-17 3.86214)
(7.89223e-19 -3.77029e-17 4.16133)
(1.24851e-19 1.277e-17 4.50802)
(-3.92692e-20 3.45928e-18 4.92107)
(1.56289e-19 -1.53984e-18 5.43071)
(6.42432e-19 2.71759e-19 6.09656)
(-5.64534e-19 3.04146e-18 6.99875)
(-2.50676e-20 -1.29406e-18 8.19794)
(6.03215e-20 1.94346e-19 9.55048)
(-6.64996e-19 3.89113e-19 9.82106)
(1.76261e-18 -6.98531e-19 4.49933)
(1.92633e-18 6.87934e-19 -13.1078)
(-8.33691e-19 -4.87695e-20 -6.23143)
(5.05312e-20 1.43407e-19 -1.85636)
(2.68909e-19 -1.56343e-19 1.09464)
(-1.86393e-18 6.08049e-19 2.9934)
(1.95509e-18 1.96208e-19 4.24524)
(2.27014e-18 7.78265e-21 5.04177)
(-2.58881e-18 -6.89016e-19 5.55583)
(1.2382e-18 6.3973e-19 5.89581)
(1.13143e-19 -3.32828e-19 6.11928)
(6.60869e-19 -1.71638e-18 6.26299)
(-6.30729e-19 1.52384e-19 6.35082)
(6.33809e-19 -1.07968e-18 6.39901)
(6.71025e-21 -1.70168e-19 6.41911)
(8.95531e-19 -2.37553e-18 6.41905)
(-4.91307e-19 1.74011e-19 6.40464)
(9.56907e-19 -1.92131e-19 6.37992)
(-3.36907e-19 -3.74188e-18 6.34789)
(-1.26411e-18 -8.10616e-18 6.31055)
(6.26196e-18 2.4634e-17 6.26903)
(-4.19519e-18 -1.97371e-17 6.2239)
(-2.31322e-18 3.90731e-18 6.17539)
(2.90062e-18 1.20926e-17 6.12309)
(-2.249e-18 -1.94797e-17 6.06608)
(2.17726e-18 7.26226e-19 6.00295)
(3.44495e-18 -2.90914e-18 5.93161)
(-1.68592e-18 -1.40171e-17 5.84944)
(-1.22609e-18 1.94265e-17 5.75303)
(3.48677e-18 9.93264e-19 5.6367)
(4.84416e-19 1.10751e-17 5.49554)
(-2.80764e-18 -1.44815e-17 5.32152)
(1.97873e-19 9.0585e-18 5.09569)
(-5.26641e-18 -4.86755e-17 4.7309)
(1.51761e-17 -4.15045e-17 4.20286)
(1.92758e-17 5.56823e-18 3.49211)
(-7.15984e-17 1.38686e-18 2.6183)
(4.11791e-17 -2.68023e-17 1.65784)
(-8.34427e-17 -6.12366e-17 0.726979)
(-5.62747e-19 3.01822e-17 -0.0222146)
(1.02707e-16 4.32766e-17 -0.542107)
(-1.11157e-16 -7.36007e-17 -0.813386)
(1.12563e-16 9.07868e-17 -0.820964)
(-5.93665e-17 4.09169e-17 -0.617254)
(2.6691e-16 1.27287e-16 -0.280066)
(1.21504e-16 -3.12179e-17 0.157272)
(6.07789e-17 -2.26735e-19 0.649109)
(-6.82486e-19 -7.87217e-18 1.153)
(-8.669e-17 -3.15373e-18 1.63051)
(3.1052e-16 1.77887e-16 2.07021)
(1.38446e-16 7.30906e-18 2.4438)
(2.41211e-17 4.41462e-17 2.74278)
(3.15068e-16 2.17912e-16 2.97347)
(2.15555e-18 -8.81309e-17 3.14316)
(-1.27936e-16 -1.11376e-16 3.28196)
(3.94037e-18 2.97101e-17 3.40703)
(6.30766e-17 3.03697e-17 3.57575)
(3.27197e-17 5.77486e-17 3.83212)
(1.57529e-17 2.28601e-17 4.24762)
(-3.46958e-17 -6.55165e-17 4.87045)
(6.25232e-18 1.88937e-17 5.72814)
(9.82915e-18 1.70122e-17 6.72656)
(-3.61791e-17 -7.14141e-17 7.53626)
(-9.93575e-18 -1.76307e-17 7.58728)
(-8.28952e-17 -3.60107e-16 6.57487)
(1.07147e-16 4.04504e-16 4.60969)
(-1.91297e-16 -6.76165e-16 2.22743)
(7.89773e-18 -1.64163e-16 -0.555801)
(1.31041e-16 4.65229e-16 -2.80605)
(1.76361e-17 4.29882e-17 -4.50613)
(1.70239e-16 3.53811e-16 -5.72203)
(-1.84384e-16 -3.6073e-16 -6.2319)
(-7.83525e-17 -3.98065e-16 -6.33155)
(2.52747e-17 -1.97584e-17 -6.10109)
(-8.32514e-17 -2.87594e-16 -5.72167)
(-7.6957e-17 -2.72216e-16 -5.27482)
(3.8412e-17 -1.67588e-16 -4.81469)
(1.33665e-16 6.03748e-16 -4.37115)
(-1.03814e-16 -2.03677e-16 -3.96023)
(9.68721e-18 2.29735e-17 -3.57168)
(-3.80817e-17 -2.89073e-16 -3.21569)
(6.55088e-17 1.98454e-16 -2.88549)
(-7.16522e-17 -1.7794e-16 -2.57954)
(2.70003e-17 2.18e-16 -2.27415)
(-2.38241e-17 -1.96546e-16 -1.99222)
(6.92599e-18 -1.40237e-17 -1.69633)
(-5.42061e-18 -3.55696e-18 -1.40178)
(-3.5208e-19 -5.50481e-18 -1.06897)
(3.49482e-18 5.08025e-17 -0.703709)
(-2.90719e-19 1.82527e-18 -0.299258)
(-1.36491e-18 5.55966e-17 0.123088)
(-9.79507e-18 8.00391e-17 0.50682)
(4.67291e-18 -1.01833e-17 0.786447)
(-4.57626e-17 2.1509e-16 0.901167)
(-1.72778e-17 1.56149e-16 0.832392)
(5.51071e-17 -2.09664e-16 0.58729)
(1.38265e-17 5.76247e-17 0.23325)
(-6.47015e-17 2.23476e-16 -0.130558)
(-7.51227e-17 1.94912e-16 -0.405508)
(-2.70809e-17 -7.8227e-18 -0.518537)
(-1.48997e-17 2.53521e-16 -0.440879)
(1.29515e-16 -5.95147e-16 -0.19266)
(-4.28799e-19 6.02129e-17 0.164457)
(-2.68593e-17 -2.9004e-17 0.555589)
(4.49998e-20 -2.9344e-17 0.922165)
(1.14873e-16 -2.9521e-16 1.19221)
(-2.03278e-17 -1.81562e-17 1.36418)
(-2.93052e-18 1.50907e-17 1.43603)
(-5.84747e-17 -6.30575e-17 1.45608)
(4.08982e-17 -3.93303e-16 1.42924)
(8.55148e-17 -3.15663e-16 1.38167)
(-5.35731e-18 1.56945e-17 1.3304)
(0 -0 1.28905)
(6.39527e-18 4.39914e-18 1.23697)
(8.99599e-18 9.01812e-18 1.22045)
(-2.96748e-17 1.54354e-16 1.22102)
(-4.41878e-18 1.36062e-16 1.28725)
(-8.29375e-19 -2.14863e-18 1.41041)
(4.78641e-19 8.55344e-18 1.61593)
(-8.76353e-19 1.04376e-19 1.89779)
(-2.35773e-19 6.15696e-20 2.10468)
(6.94799e-19 -2.80224e-19 1.96854)
(-1.06607e-17 5.05383e-18 1.38855)
(4.05911e-18 2.52466e-17 0.315645)
(-8.82809e-17 -4.00097e-16 -1.25479)
(-5.01687e-18 -4.78387e-17 -2.99635)
(1.3872e-16 3.96224e-16 -4.52992)
(-1.47285e-16 -3.88131e-16 -5.75511)
(1.68118e-16 3.16865e-16 -6.45206)
(2.92483e-17 2.82564e-17 -6.70055)
(-1.12591e-16 -3.47212e-16 -6.58164)
(7.98927e-17 2.6724e-16 -6.25823)
(-6.27559e-17 -2.78218e-16 -5.8251)
(9.54978e-17 3.0039e-16 -5.35295)
(-2.1118e-17 -4.00467e-17 -4.88708)
(9.8086e-18 -5.69891e-17 -4.44473)
(5.22888e-18 5.21288e-17 -4.03204)
(3.35442e-17 2.12185e-16 -3.65089)
(2.9144e-17 1.21444e-17 -3.29542)
(7.25579e-17 1.96652e-16 -2.96619)
(2.62593e-17 8.16946e-17 -2.64424)
(-5.81909e-17 -2.30864e-16 -2.33807)
(-5.65695e-17 -4.05319e-16 -2.04399)
(-2.73205e-17 -2.70604e-16 -1.73532)
(7.09115e-18 3.2213e-17 -1.42813)
(7.18632e-18 4.64927e-17 -1.08813)
(-2.98821e-18 -3.83495e-17 -0.715886)
(7.48356e-19 2.03396e-17 -0.306406)
(1.70127e-19 4.75094e-18 0.123156)
(-3.48209e-18 1.74787e-16 0.521488)
(-5.27161e-18 6.26202e-18 0.820009)
(-3.75811e-17 2.44045e-16 0.951449)
(-6.04798e-18 1.49477e-16 0.886451)
(-2.79332e-18 1.62421e-18 0.639923)
(-5.94158e-17 1.74049e-16 0.268914)
(-1.06123e-16 2.32751e-16 -0.130722)
(-1.23311e-18 -2.45294e-16 -0.450522)
(-3.61766e-17 2.64951e-16 -0.623221)
(-1.04677e-16 2.9047e-16 -0.620129)
(1.42157e-16 -3.82634e-16 -0.456276)
(7.21613e-17 -2.76754e-16 -0.179985)
(-9.06819e-17 4.55268e-16 0.133315)
(1.38091e-16 -4.39105e-16 0.402029)
(-7.02554e-17 4.33326e-16 0.651333)
(-4.07307e-17 5.08966e-17 1.03399)
(1.16644e-16 -4.20192e-16 1.20913)
(1.99439e-17 3.57895e-17 1.29752)
(-4.02239e-17 3.07388e-16 1.34946)
(-8.15932e-18 6.86699e-17 1.33272)
(-2.04757e-17 1.37899e-16 1.32478)
(1.62707e-17 -1.35586e-16 1.34613)
(-3.21987e-18 6.63868e-17 1.42401)
(2.6593e-18 -6.49002e-17 1.57398)
(-2.58736e-18 1.23412e-18 1.80227)
(1.13776e-18 -4.653e-18 2.07808)
(8.06707e-19 -5.46323e-17 2.36258)
(-7.47841e-19 6.51815e-17 2.62001)
(-2.68547e-18 5.57989e-17 2.82837)
(-1.91051e-19 -5.09133e-17 2.98564)
(1.76252e-18 2.82653e-17 3.10123)
(5.65826e-19 -2.82437e-17 3.18868)
(-2.36924e-20 1.0146e-18 3.26112)
(-1.13222e-18 2.91778e-17 3.33424)
(1.32788e-18 -2.60747e-17 3.41711)
(-1.56452e-18 2.79651e-17 3.51596)
(3.39775e-19 -2.55876e-17 3.63359)
(9.11028e-19 -2.565e-18 3.77034)
(-1.01501e-18 2.80762e-18 3.92672)
(4.80682e-19 -7.08326e-20 4.10427)
(-1.44683e-18 7.57535e-20 4.30553)
(2.36757e-18 2.45226e-18 4.53483)
(-1.61864e-18 -1.02582e-19 4.80132)
(2.05642e-19 -2.18029e-19 5.12064)
(5.72838e-19 -4.48727e-18 5.51851)
(-9.13983e-19 2.08851e-19 6.03787)
(8.51408e-19 -5.65039e-19 6.74591)
(2.2311e-18 -6.00004e-18 7.71703)
(-1.43495e-18 3.54568e-18 8.92154)
(3.86587e-19 -2.89636e-19 9.84758)
(-2.53758e-19 2.84593e-20 8.59139)
(-2.48655e-19 4.76432e-19 0.802852)
(-1.79801e-18 -3.52828e-19 -15.7876)
(1.31929e-19 -2.55137e-19 -5.20572)
(-1.72044e-18 1.92744e-19 -2.77747)
(-1.31605e-18 1.05724e-18 -0.6432)
(3.07633e-18 -1.4716e-18 0.862184)
(-5.59094e-18 1.74986e-18 1.90871)
(3.59939e-18 -2.2217e-19 2.65038)
(-3.61632e-19 -4.92284e-19 3.18411)
(-7.9009e-19 -2.95848e-19 3.57616)
(4.41883e-20 -6.53906e-19 3.87323)
(-4.396e-18 -8.75309e-19 4.10276)
(2.70385e-18 2.10277e-18 4.28087)
(-9.07917e-20 -2.37673e-18 4.41909)
(-1.68283e-18 -2.38762e-18 4.526)
(-3.38748e-20 3.03402e-18 4.60802)
(-2.19921e-19 -1.12506e-18 4.66999)
(4.36237e-19 -9.63415e-21 4.71558)
(-1.62517e-18 -9.23058e-20 4.74748)
(-1.4224e-19 1.1955e-18 4.76763)
(-1.95913e-18 -1.27796e-17 4.77724)
(9.51807e-20 1.40824e-17 4.77692)
(-4.37876e-20 4.71067e-18 4.7668)
(1.98227e-18 -1.15082e-17 4.74642)