/*--------------------------------*- C++ -*----------------------------------*\
| =========                 |                                                 |
| \\      /  F ield         | OpenFOAM: The Open Source CFD Toolbox           |
|  \\    /   O peration     | Version:  2506                                  |
|   \\  /    A nd           | Website:  www.openfoam.com                      |
|    \\/     M anipulation  |                                                 |
\*---------------------------------------------------------------------------*/
FoamFile
{
    version     2.0;
    format      ascii;
    arch        "LSB;label=32;scalar=64";
    class       volVectorField;
    location    "4.2";
    object      U;
}
// * * * * * * * * * * * * * * * * * * * * * * * * * * * * * * * * * * * * * //

dimensions      [0 1 -1 0 0 0 0];

internalField   nonuniform List<vector> 
4000
(
(0.00816183 0.000799172 0)
(0.00705298 0.000968886 -4.65397e-22)
(0.00555942 0.000584962 4.8281e-22)
(0.00427073 0.000296581 9.2589e-22)
(0.00347354 0.00015743 -1.87245e-21)
(0.00298087 8.71854e-05 9.40705e-22)
(0.00264915 5.00241e-05 0)
(0.00241896 3.04999e-05 0)
(0.00225692 1.99723e-05 0)
(0.00213985 1.40239e-05 1.85621e-21)
(0.00205275 1.04729e-05 -1.86e-21)
(0.00198608 8.32576e-06 3.69527e-21)
(0.00193334 7.07683e-06 -3.69964e-21)
(0.00188989 6.40362e-06 0)
(0.00185246 6.11015e-06 0)
(0.00181877 6.06718e-06 0)
(0.00178721 6.17841e-06 3.64362e-21)
(0.00175673 6.37971e-06 -3.64576e-21)
(0.0017266 6.63351e-06 0)
(0.00169629 6.91906e-06 0)
(0.00166539 7.22752e-06 0)
(0.00163353 7.5582e-06 0)
(0.00160035 7.91503e-06 0)
(0.00156545 8.3044e-06 7.16502e-21)
(0.00152841 8.73422e-06 -1.43232e-20)
(0.00148875 9.2139e-06 7.15853e-21)
(0.00144593 9.75596e-06 0)
(0.00139932 1.03802e-05 0)
(0.00134821 1.11222e-05 0)
(0.0012916 1.20605e-05 0)
(0.00122814 1.34096e-05 -7.13459e-21)
(0.00115603 1.56616e-05 7.14397e-21)
(0.00107423 1.85442e-05 0)
(0.000952949 2.73996e-05 6.27917e-21)
(0.000814239 5.8597e-05 7.22631e-21)
(0.000746312 0.000118819 -3.62386e-20)
(0.000759898 0.000200782 -2.92362e-20)
(0.000809547 0.000295128 7.36202e-21)
(0.000880927 0.000403439 -2.9578e-20)
(0.000979092 0.000532586 -6.66491e-20)
(0.00114564 0.000691793 7.42855e-21)
(0.00139046 0.000868199 5.86005e-20)
(0.00164812 0.00102568 -5.76312e-20)
(0.0018875 0.00115517 0)
(0.00211526 0.00126177 0)
(0.00233079 0.0013475 -3.29578e-21)
(0.00254685 0.00141523 -4.82176e-20)
(0.00275358 0.0014577 -4.702e-20)
(0.0029456 0.00147532 -2.73367e-20)
(0.00313361 0.00146779 -2.30483e-20)
(0.00330079 0.00142955 2.18359e-20)
(0.00345265 0.00136291 0)
(0.00357427 0.00126148 -2.41291e-21)
(0.00366504 0.00113044 3.99781e-20)
(0.00371541 0.000965715 0)
(0.00371239 0.00077746 -8.43563e-21)
(0.00366488 0.000573937 -1.97188e-21)
(0.00354949 0.000362754 -6.55847e-24)
(0.00339967 0.000159599 -8.55635e-23)
(0.00318787 -3.62028e-05 -9.41398e-22)
(0.002937 -0.000203172 1.69497e-21)
(0.00267394 -0.00034051 0)
(0.00239326 -0.000444779 0)
(0.00212382 -0.000516702 3.31694e-21)
(0.00186116 -0.000559639 2.3258e-20)
(0.00162295 -0.000578416 3.35443e-21)
(0.00140711 -0.000577992 -3.36307e-21)
(0.00121637 -0.000564063 3.4329e-21)
(0.00105279 -0.000540998 1.03748e-20)
(0.000909975 -0.000512207 -2.44587e-20)
(0.000791674 -0.000481369 -3.51824e-21)
(0.000689567 -0.000449221 -7.44905e-23)
(0.00060346 -0.000417604 0)
(0.000533184 -0.000387542 0)
(0.000472492 -0.000358723 0)
(0.000421728 -0.000331538 -1.90396e-21)
(0.000379199 -0.000305991 -2.86486e-20)
(0.000341368 -0.000281348 0)
(0.000307608 -0.000257392 -7.01194e-23)
(0.000277218 -0.000234045 1.95569e-21)
(0.000248512 -0.000211012 -3.12722e-20)
(0.000221026 -0.000188298 2.83944e-20)
(0.000194658 -0.000166084 -6.10927e-24)
(0.000169228 -0.000144601 3.19596e-20)
(0.000145116 -0.000124257 2.78284e-22)
(0.000122472 -0.000105314 -3.12169e-20)
(0.000101217 -8.79043e-05 -3.16734e-20)
(8.20565e-05 -7.23631e-05 3.2072e-20)
(6.51512e-05 -5.87432e-05 -4.87922e-22)
(4.99451e-05 -4.68873e-05 -3.12049e-20)
(3.69077e-05 -3.68685e-05 0)
(2.60391e-05 -2.85307e-05 -3.19338e-20)
(1.6625e-05 -2.16373e-05 -2.98653e-20)
(8.98683e-06 -1.61406e-05 3.06493e-20)
(2.93073e-06 -1.17595e-05 -1.71544e-20)
(-1.88691e-06 -8.47339e-06 1.89227e-21)
(-5.10787e-06 -6.01273e-06 1.50746e-20)
(-7.18895e-06 -4.39878e-06 1.87734e-21)
(-7.7888e-06 -3.36887e-06 1.30592e-20)
(-7.20845e-06 -2.95806e-06 9.28921e-21)
(-5.07818e-06 -2.64109e-06 -3.70654e-21)
(-1.63244e-06 -2.26279e-06 9.24849e-21)
(3.83728e-06 -1.39599e-06 -9.24297e-22)
(1.1189e-05 2.21697e-07 -9.25992e-22)
(2.12408e-05 2.80726e-06 -3.72335e-21)
(3.40712e-05 6.93093e-06 0)
(5.03115e-05 1.28193e-05 0)
(7.06103e-05 2.12206e-05 -2.99305e-20)
(9.52617e-05 3.25446e-05 -9.58878e-22)
(0.000125139 4.75357e-05 1.59722e-20)
(0.000160775 6.67473e-05 1.56371e-20)
(0.0002025 9.0872e-05 4.93725e-22)
(0.000251447 0.000120418 -1.64297e-20)
(0.000306835 0.000155938 -1.35511e-23)
(0.000370028 0.000197796 0)
(0.000441533 0.000246382 3.25367e-20)
(0.000519308 0.000301213 -1.01978e-21)
(0.000605183 0.000362671 -3.06213e-20)
(0.000698088 0.000430036 -1.02637e-21)
(0.000796187 0.000502443 -3.27146e-20)
(0.000900542 0.000579588 -1.79746e-22)
(0.00101006 0.000660103 3.23385e-20)
(0.00112206 0.000742357 1.984e-21)
(0.00123689 0.000825564 -3.55224e-20)
(0.0013541 0.000908258 1.95947e-21)
(0.00147162 0.000988624 3.03894e-20)
(0.00158926 0.00106544 3.64413e-21)
(0.00170605 0.00113716 -3.65417e-21)
(0.00182116 0.00120264 2.7776e-20)
(0.0019372 0.00126141 -2.29479e-20)
(0.00205224 0.00131114 -3.26632e-21)
(0.00216316 0.00135068 -4.49438e-20)
(0.00227815 0.00138127 -2.94331e-21)
(0.00239375 0.00139932 -2.13277e-20)
(0.0025037 0.00140502 5.21966e-22)
(0.00262311 0.00140055 0)
(0.00274089 0.00137873 0)
(0.00285355 0.00134239 -2.31818e-22)
(0.00296998 0.0012883 0)
(0.00307714 0.00121472 -1.27453e-21)
(0.00317646 0.0011202 -3.20868e-21)
(0.00325874 0.00100293 -8.33086e-22)
(0.00331312 0.000863545 -1.34177e-21)
(0.00334013 0.000704571 -6.2884e-22)
(0.00331536 0.000526442 -9.31077e-22)
(0.00325251 0.000344412 2.58723e-22)
(0.00313072 0.000157162 0)
(0.00295106 -1.23034e-05 0)
(0.00274111 -0.000164173 0)
(0.0024865 -0.000287447 2.00665e-22)
(0.00222209 -0.000379517 -2.01334e-22)
(0.00194004 -0.000439587 -8.16707e-22)
(0.00166551 -0.000467893 -6.76608e-22)
(0.0014035 -0.00046994 0)
(0.00116268 -0.000451209 2.19815e-22)
(0.000945827 -0.000417009 0)
(0.000754647 -0.000373209 -1.39099e-22)
(0.000591869 -0.000324301 8.91933e-22)
(0.000450651 -0.00027195 -3.13556e-22)
(0.000328078 -0.000208582 5.94368e-21)
(0.000288786 -0.000168914 -1.77338e-21)
(0.000331848 -0.000150286 -2.01486e-21)
(0.000374965 -0.000135475 0)
(0.000427219 -0.000117434 0)
(0.000498109 -9.54491e-05 0)
(0.00059132 -6.80501e-05 0)
(0.000722444 -4.21773e-05 0)
(0.000872235 -2.54012e-05 6.58735e-22)
(0.000989166 -1.71784e-05 -1.62051e-23)
(0.00107268 -1.24494e-05 -2.02583e-23)
(0.0011379 -9.17884e-06 -6.22187e-22)
(0.0011924 -7.05469e-06 0)
(0.00124145 -5.94227e-06 5.53355e-22)
(0.001289 -5.64211e-06 -5.52125e-22)
(0.00133756 -5.90436e-06 1.61715e-23)
(0.00138808 -6.46788e-06 0)
(0.00144022 -7.08658e-06 0)
(0.00149264 -7.55312e-06 -4.60347e-22)
(0.00154342 -7.72024e-06 4.59285e-22)
(0.00159035 -7.51223e-06 0)
(0.00163141 -6.92299e-06 0)
(0.00166496 -6.00225e-06 -1.78248e-22)
(0.00168993 -4.83569e-06 1.15333e-23)
(0.0017059 -3.52262e-06 1.78289e-22)
(0.00171308 -2.15634e-06 0)
(0.00171212 -8.48269e-07 0)
(0.00170419 3.60472e-07 0)
(0.00169068 1.40998e-06 0)
(0.00167305 2.25884e-06 6.62214e-24)
(0.00165277 2.89032e-06 0)
(0.00163129 3.29767e-06 0)
(0.00160986 3.48731e-06 0)
(0.00158957 3.47664e-06 2.63184e-23)
(0.00157125 3.29375e-06 -2.62903e-23)
(0.0015555 2.97865e-06 0)
(0.0015426 2.58573e-06 1.87307e-24)
(0.00153255 2.18183e-06 4.62744e-24)
(0.00152488 1.84728e-06 -3.17108e-24)
(0.00151789 2.07185e-06 -1.44837e-24)
(0.00151137 4.12707e-06 0)
(0.0101625 0.00148338 0)
(0.0105618 0.00234155 0)
(0.0101526 0.00199685 0)
(0.00928237 0.00150025 9.02275e-22)
(0.00837472 0.00106112 -1.83338e-21)
(0.0076233 0.000731153 9.2884e-22)
(0.0070208 0.000505585 0)
(0.00654483 0.00035628 1.86293e-21)
(0.00617492 0.000256787 -1.881e-21)
(0.00588866 0.000189494 1.87511e-21)
(0.00566549 0.000143285 -1.88588e-21)
(0.00548904 0.000111552 -3.75587e-21)
(0.00534654 9.00642e-05 3.76911e-21)
(0.00522807 7.58108e-05 3.75046e-21)
(0.00512621 6.66646e-05 -1.39294e-23)
(0.00503545 6.10867e-05 -7.49248e-21)
(0.00495182 5.79449e-05 3.74625e-21)
(0.00487252 5.64608e-05 0)
(0.00479555 5.61434e-05 0)
(0.00471943 5.67075e-05 0)
(0.00464299 5.80137e-05 0)
(0.00456516 6.00214e-05 0)
(0.00448493 6.27513e-05 0)
(0.00440125 6.62616e-05 0)
(0.00431297 7.06351e-05 0)
(0.00421884 7.59759e-05 0)
(0.00411745 8.24164e-05 0)
(0.00400723 9.01392e-05 0)
(0.00388634 9.94246e-05 0)
(0.00375255 0.000110754 0)
(0.00360306 0.000125052 -7.42763e-21)
(0.00343425 0.000144211 6.47307e-25)
(0.0032451 0.000171653 1.49517e-20)
(0.00299939 0.000213747 -6.56664e-21)
(0.00273192 0.000290586 -7.56627e-21)
(0.00257887 0.000424683 2.29169e-20)
(0.00257652 0.000620879 -3.08678e-20)
(0.00266872 0.000866517 -7.78229e-21)
(0.00283123 0.00115443 7.84486e-20)
(0.00307228 0.00148333 2.38726e-20)
(0.00344249 0.00185278 0)
(0.00393263 0.00223567 7.66414e-21)
(0.0044518 0.00258553 4.51604e-20)
(0.00495944 0.00288555 7.49284e-21)
(0.0054567 0.00313563 5.73107e-20)
(0.0059419 0.00333698 -5.55808e-20)
(0.00642638 0.00349097 7.80235e-22)
(0.00689519 0.00358768 0)
(0.00734346 0.00362576 -2.51761e-20)
(0.00777711 0.00360211 0)
(0.00817556 0.0035103 -2.36356e-22)
(0.00854022 0.00335189 0)
(0.00884702 0.00311731 -2.06246e-20)
(0.00909266 0.00281695 -1.96701e-20)
(0.00925701 0.00244697 0)
(0.00932648 0.0020243 -5.77149e-23)
(0.00930075 0.0015632 8.40865e-21)
(0.00914852 0.00107763 1.91993e-21)
(0.00890615 0.00059689 3.8218e-21)
(0.00853594 0.000126334 -9.64731e-22)
(0.00807295 -0.000300043 0)
(0.00754586 -0.000671603 7.32508e-21)
(0.00696374 -0.000977382 -3.67803e-21)
(0.00636942 -0.00121362 -7.19848e-21)
(0.00576603 -0.0013824 -2.16946e-20)
(0.00519064 -0.00149058 -3.63782e-21)
(0.00464539 -0.00154544 1.84612e-20)
(0.00414561 -0.00155898 -3.72553e-21)
(0.00369531 -0.00154009 0)
(0.00329137 -0.00149807 3.90544e-21)
(0.00293919 -0.00144174 -3.90405e-21)
(0.00262759 -0.00137472 -1.23787e-22)
(0.00235509 -0.00130325 0)
(0.00212043 -0.00122984 -3.28547e-20)
(0.00191388 -0.00115556 -3.32536e-20)
(0.00173348 -0.00108222 2.11959e-21)
(0.00157604 -0.00100988 -2.10968e-21)
(0.00143503 -0.000937857 2.15196e-21)
(0.00130769 -0.000866202 -3.44886e-20)
(0.00119213 -0.000794767 3.23747e-20)
(0.001085 -0.000723332 -3.46233e-20)
(0.000984485 -0.000652357 -3.58515e-20)
(0.000889814 -0.000582552 2.16912e-21)
(0.00080028 -0.00051483 -3.57307e-20)
(0.000716275 -0.000450424 3.43743e-20)
(0.00063802 -0.000390205 -3.42184e-20)
(0.000565254 -0.000334842 3.43684e-20)
(0.000499199 -0.000285168 -3.4273e-20)
(0.000440284 -0.000241198 -1.06694e-21)
(0.000387427 -0.000202687 1.05698e-21)
(0.00034133 -0.000169669 0)
(0.000301912 -0.000141506 0)
(0.000267683 -0.000117613 1.66043e-20)
(0.000239066 -9.77944e-05 -1.85653e-20)
(0.00021541 -8.12167e-05 1.63771e-20)
(0.000196228 -6.78679e-05 4.05881e-21)
(0.000181785 -5.70032e-05 -1.21958e-23)
(0.000171537 -4.86486e-05 6.34702e-24)
(0.000165954 -4.20761e-05 -3.57963e-20)
(0.000165346 -3.72968e-05 -5.93636e-21)
(0.00017066 -3.32361e-05 7.87533e-21)
(0.000181843 -2.95224e-05 -7.85578e-21)
(0.000200426 -2.50428e-05 0)
(0.000226306 -1.8854e-05 -9.84054e-22)
(0.000261507 -1.0076e-05 9.84872e-22)
(0.000306473 2.98835e-06 0)
(0.000362613 2.1328e-05 0)
(0.000431342 4.69822e-05 1.61009e-20)
(0.000513141 8.13846e-05 -1.62484e-20)
(0.000609535 0.000126428 1.69146e-20)
(0.000721194 0.000183768 -3.31231e-20)
(0.000848534 0.000255048 6.89959e-25)
(0.000992767 0.000341599 -5.26756e-22)
(0.00115246 0.000444647 -1.70026e-20)
(0.00132912 0.00056468 0)
(0.00152237 0.00070234 0)
(0.00172909 0.000856831 0)
(0.00195082 0.00102772 3.57203e-20)
(0.00218507 0.00121349 3.32848e-20)
(0.00242905 0.00141191 0)
(0.00268327 0.00162091 -3.86362e-20)
(0.00294523 0.00183731 6.36601e-21)
(0.00321134 0.00205743 -4.18333e-21)
(0.00348167 0.00227808 2.08147e-21)
(0.00375496 0.0024954 -3.99171e-21)
(0.00402864 0.0027053 3.13851e-20)
(0.00430232 0.00290414 -2.6488e-20)
(0.00457485 0.00308821 3.30617e-20)
(0.00484601 0.00325432 -1.56077e-22)
(0.00511892 0.00340003 2.45437e-20)
(0.00539071 0.00352116 0)
(0.00565957 0.00361554 2.54156e-20)
(0.00593524 0.0036827 -2.81653e-21)
(0.00621291 0.00371757 -1.85304e-20)
(0.00648836 0.00371978 2.06912e-20)
(0.00677601 0.00368968 -2.18436e-21)
(0.00706068 0.00361769 2.19344e-21)
(0.00734061 0.00350698 -2.13212e-21)
(0.00761879 0.00335097 1.73688e-21)
(0.0078802 0.00314854 -1.26912e-21)
(0.00811972 0.0028969 6.07363e-21)
(0.00832165 0.00259524 -4.52461e-21)
(0.00846793 0.00224571 3.82176e-21)
(0.00855124 0.00185565 0)
(0.00853876 0.00142909 4.49759e-22)
(0.00844506 0.000991077 -1.12289e-22)
(0.00823296 0.000545466 -3.94522e-23)
(0.00790967 0.000126319 0)
(0.00749947 -0.000256575 9.32302e-23)
(0.00699272 -0.000584313 -2.8506e-22)
(0.00643725 -0.000847038 0)
(0.00582573 -0.00103977 6.50667e-22)
(0.00520438 -0.00116177 1.33077e-22)
(0.00458157 -0.00121822 -1.33977e-22)
(0.0039862 -0.00121987 0)
(0.00342323 -0.00117545 1.54273e-22)
(0.00290669 -0.00109867 -4.57603e-22)
(0.0024422 -0.000998696 8.32646e-22)
(0.00203341 -0.000885883 0)
(0.00166778 -0.000752122 -3.12351e-21)
(0.00148269 -0.000664691 -2.44601e-21)
(0.00149052 -0.000604497 4.94838e-21)
(0.00155431 -0.000545841 -6.36291e-22)
(0.00165791 -0.000482821 6.28297e-22)
(0.00181393 -0.000413908 7.02611e-22)
(0.00202275 -0.000336836 7.28677e-22)
(0.00229865 -0.000263161 -6.20974e-22)
(0.00259974 -0.00019992 -4.41001e-23)
(0.00285251 -0.000150464 0)
(0.00305299 -0.000115822 4.14391e-23)
(0.00322166 -9.39655e-05 0)
(0.00337194 -8.19555e-05 -3.8081e-23)
(0.00351318 -7.72576e-05 -5.77329e-22)
(0.00365211 -7.73957e-05 6.09445e-22)
(0.0037925 -7.98883e-05 -5.05279e-23)
(0.00393507 -8.24841e-05 5.12174e-22)
(0.00407802 -8.3375e-05 -9.72006e-22)
(0.00421775 -8.13234e-05 9.66007e-22)
(0.00434968 -7.57187e-05 -5.01667e-22)
(0.00446895 -6.65588e-05 0)
(0.00457123 -5.43549e-05 2.34249e-22)
(0.00465322 -3.99769e-05 -2.19787e-22)
(0.00471296 -2.44762e-05 -2.37312e-23)
(0.00474998 -8.92839e-06 -1.71723e-22)
(0.00476517 5.69102e-06 1.50785e-22)
(0.00476067 1.86214e-05 1.44733e-22)
(0.00473952 2.93941e-05 -1.61701e-22)
(0.00470528 3.76195e-05 1.3246e-22)
(0.00466174 4.31963e-05 -2.27067e-22)
(0.00461267 4.62073e-05 1.36307e-22)
(0.00456153 4.68665e-05 -4.5092e-23)
(0.00451135 4.54899e-05 -8.97845e-24)
(0.00446461 4.24697e-05 0)
(0.00442312 3.82547e-05 1.62253e-23)
(0.00438803 3.33361e-05 -2.24272e-23)
(0.0043598 2.82409e-05 9.47116e-25)
(0.00433825 2.35405e-05 -6.77781e-24)
(0.0043225 1.98885e-05 0)
(0.00431006 1.82557e-05 0)
(0.00430152 1.99206e-05 -3.42085e-25)
(0.0101548 0.000930436 0)
(0.0107183 0.00187789 -4.51203e-22)
(0.0111809 0.00207747 4.47297e-22)
(0.0111204 0.00192673 8.6698e-22)
(0.0108391 0.00164311 -8.75441e-22)
(0.0104194 0.00132592 0)
(0.0099662 0.00103983 0)
(0.00953642 0.000804372 0)
(0.00915463 0.000620711 -1.75826e-21)
(0.00882812 0.000481331 3.53848e-21)
(0.00855391 0.000376933 1.76051e-21)
(0.00832494 0.000300384 -3.55937e-21)
(0.00813263 0.000245556 -3.5463e-21)
(0.00796874 0.000207177 3.56062e-21)
(0.00782608 0.000181119 0)
(0.00769867 0.000164086 -3.54208e-21)
(0.00758173 0.000153472 7.0894e-21)
(0.00747166 0.000147391 -3.54646e-21)
(0.00736573 0.000144584 0)
(0.00726181 0.000144274 0)
(0.00715818 0.000146049 0)
(0.00705332 0.000149749 0)
(0.00694577 0.000155388 0)
(0.00683405 0.000163079 -7.02825e-21)
(0.00671656 0.000173012 7.04283e-21)
(0.00659155 0.000185428 0)
(0.00645711 0.000200637 0)
(0.00631107 0.000219041 0)
(0.00615098 0.000241214 0)
(0.005974 0.000268031 0)
(0.0057768 0.000300952 -7.08087e-21)
(0.00555521 0.000342571 7.10546e-21)
(0.00530956 0.000397511 0)
(0.00500833 0.000470946 4.47077e-22)
(0.00468583 0.000582221 0)
(0.00448066 0.000761351 -1.46528e-20)
(0.00444846 0.00102058 2.96655e-20)
(0.00454973 0.0013501 0)
(0.00476256 0.00173738 -5.97454e-20)
(0.00509144 0.00217118 2.11253e-22)
(0.00557327 0.0026387 -7.32651e-21)
(0.00618105 0.00310676 7.31318e-21)
(0.00682842 0.00353725 -5.70713e-20)
(0.00747725 0.0039147 0)
(0.00812204 0.00423419 -6.07072e-20)
(0.0087587 0.00449366 5.58025e-20)
(0.00939306 0.00469093 5.37651e-20)
(0.0100098 0.00481664 0)
(0.0106057 0.00486692 2.31471e-20)
(0.011181 0.00483789 0)
(0.0117173 0.00472403 -4.25644e-20)
(0.0122119 0.00452476 0)
(0.0126425 0.0042317 1.69842e-20)
(0.0130042 0.00385612 2.09209e-20)
(0.0132743 0.00339604 1.77494e-20)
(0.0134392 0.00286886 8.33403e-21)
(0.0134928 0.00228599 8.10135e-21)
(0.0134055 0.0016615 3.79315e-21)
(0.0132025 0.00102669 -1.88972e-21)
(0.0128462 0.000391603 -2.7004e-21)
(0.0123661 -0.000208438 0)
(0.0117799 -0.000756084 -6.78992e-21)
(0.011101 -0.00123457 6.73247e-21)
(0.010371 -0.00163257 0)
(0.00959841 -0.00194705 2.72754e-20)
(0.00882847 -0.00218002 0)
(0.00806889 -0.00233603 3.49417e-21)
(0.0073466 -0.00242659 -3.51771e-21)
(0.0066706 -0.00246111 0)
(0.00604573 -0.00245153 3.69114e-21)
(0.00548164 -0.0024093 -3.7041e-21)
(0.00496968 -0.0023408 -4.18093e-20)
(0.00451063 -0.00225585 2.70909e-20)
(0.00410329 -0.00215886 9.16224e-23)
(0.00373823 -0.00205317 3.19892e-20)
(0.00341277 -0.00194252 2.03624e-21)
(0.00312304 -0.00182801 -3.47163e-20)
(0.00286137 -0.00171004 0)
(0.00262375 -0.00158971 -3.32823e-20)
(0.00240715 -0.00146761 -6.49821e-20)
(0.00220705 -0.00134424 6.42493e-20)
(0.00202044 -0.00122095 3.48277e-20)
(0.00184558 -0.00109931 -3.49031e-20)
(0.00168095 -0.000981132 3.49694e-20)
(0.0015266 -0.000868539 0)
(0.00138252 -0.000763064 3.38449e-20)
(0.00124823 -0.000665938 2.22461e-22)
(0.00112535 -0.000578424 6.80357e-20)
(0.00101457 -0.000500465 3.1403e-20)
(0.000914635 -0.000431703 3.4398e-20)
(0.000826615 -0.000372008 0)
(0.000750425 -0.000320246 0)
(0.000684067 -0.000275458 -1.64261e-20)
(0.000628124 -0.000237267 0)
(0.000581431 -0.000204375 -2.02881e-21)
(0.000543513 -0.000176829 2.00668e-21)
(0.000514451 -0.000153513 -1.59903e-20)
(0.000493831 -0.000134542 1.58666e-20)
(0.000482211 -0.000118792 1.38176e-20)
(0.00048034 -0.000106349 1.9592e-21)
(0.000489476 -9.57086e-05 -7.82133e-21)
(0.000510023 -8.63926e-05 3.89867e-21)
(0.000544445 -7.66884e-05 -2.92178e-21)
(0.000592749 -6.48926e-05 9.72679e-22)
(0.000657972 -4.93527e-05 0)
(0.000740518 -2.72385e-05 7.84125e-21)
(0.000842163 3.26353e-06 0)
(0.000964353 4.52223e-05 1.58654e-20)
(0.00110724 0.000100915 4.21943e-24)
(0.00127219 0.000172955 -1.55913e-20)
(0.00145936 0.000263641 1.62106e-20)
(0.00166854 0.00037505 -5.0933e-22)
(0.00190044 0.000508746 0)
(0.00215262 0.000666086 1.64478e-20)
(0.00242618 0.00084736 -1.65007e-20)
(0.00271956 0.00105284 0)
(0.00302917 0.00128147 1.03164e-21)
(0.00335565 0.00153184 -3.39439e-20)
(0.00369584 0.00180165 -3.09759e-20)
(0.00404666 0.00208781 3.04336e-20)
(0.00440792 0.00238683 -3.21514e-20)
(0.00477672 0.00269433 -1.97954e-21)
(0.00514967 0.00300547 2.93016e-20)
(0.00552652 0.00331546 3.90258e-21)
(0.00590581 0.0036189 3.36128e-20)
(0.0062854 0.00391044 -6.62007e-20)
(0.00666491 0.00418493 3.25333e-20)
(0.00704356 0.00443731 -2.45728e-20)
(0.00742153 0.00466313 1.94992e-20)
(0.00780129 0.00485847 3.12637e-20)
(0.0081808 0.00501819 1.76782e-20)
(0.00855926 0.00513997 2.92722e-21)
(0.00894418 0.00522144 1.83893e-20)
(0.00933142 0.00525685 2.27676e-20)
(0.00971865 0.00524575 -2.1779e-21)
(0.0101153 0.00518617 2.18418e-21)
(0.0105072 0.00506972 5.63535e-21)
(0.0108935 0.00489883 1.56199e-21)
(0.0112715 0.00466719 -1.35706e-21)
(0.0116277 0.00437453 1.36109e-21)
(0.0119532 0.00401931 -4.24147e-21)
(0.0122314 0.00360232 7.43356e-22)
(0.0124437 0.00312767 -1.79435e-22)
(0.0125796 0.00260405 -5.94566e-22)
(0.0126072 0.00204106 -1.44389e-21)
(0.0125359 0.0014597 0)
(0.0123277 0.000867846 1.62415e-22)
(0.0119891 0.000297735 -6.81371e-23)
(0.0115333 -0.00023491 -8.69284e-23)
(0.0109518 -0.000708799 3.79435e-22)
(0.0102874 -0.00110853 5.86279e-23)
(0.00953135 -0.00142487 -6.06139e-22)
(0.00873449 -0.00165299 -4.00501e-22)
(0.00790363 -0.00179383 1.33178e-22)
(0.00707899 -0.00185659 -4.45112e-23)
(0.00626793 -0.00184878 -1.4507e-22)
(0.00549582 -0.00178587 -1.59606e-22)
(0.00477272 -0.00167851 -8.70734e-22)
(0.00412218 -0.00154463 2.43819e-22)
(0.00352538 -0.00137673 -1.46342e-21)
(0.00316542 -0.00125284 1.85968e-21)
(0.00306477 -0.00114947 -1.57154e-21)
(0.00308049 -0.00104181 -5.55097e-22)
(0.003175 -0.000926261 -1.25733e-21)
(0.00335624 -0.000805374 0)
(0.00361509 -0.000677884 -1.36498e-21)
(0.00395724 -0.000557552 1.27154e-21)
(0.00432777 -0.000449505 3.2487e-23)
(0.00465237 -0.000359343 -1.70818e-23)
(0.00492527 -0.000292932 -6.05917e-23)
(0.00516504 -0.000249987 -6.16385e-22)
(0.00538488 -0.000226437 3.64627e-23)
(0.00559423 -0.000217342 0)
(0.00580006 -0.000217423 -3.33189e-23)
(0.00600612 -0.00022137 3.19419e-23)
(0.00621279 -0.000224393 5.38895e-22)
(0.00641756 -0.000222686 -5.05497e-22)
(0.00661582 -0.00021371 -4.44401e-22)
(0.00680177 -0.000196304 4.69482e-22)
(0.00696931 -0.00017064 0)
(0.00711292 -0.000138015 -2.51237e-23)
(0.00722833 -0.000100521 0)
(0.00731295 -6.06656e-05 -1.51671e-22)
(0.00736608 -2.10165e-05 1.12941e-23)
(0.00738885 1.60838e-05 1.81834e-22)
(0.0073841 4.87583e-05 3.58784e-23)
(0.00735584 7.56711e-05 1.63592e-23)
(0.00730897 9.60346e-05 -1.47143e-23)
(0.00724881 0.000109627 0)
(0.00718063 0.000116695 1.15029e-23)
(0.00710933 0.000117841 3.71318e-23)
(0.00703916 0.000113939 -2.85739e-23)
(0.0069736 0.000106047 -2.62748e-23)
(0.0069152 9.53421e-05 3.21805e-23)
(0.00686556 8.30654e-05 0)
(0.00682533 7.0475e-05 4.65372e-24)
(0.00679433 5.88123e-05 6.46326e-24)
(0.00677163 4.9283e-05 1.45158e-24)
(0.00675462 4.31507e-05 -1.44887e-24)
(0.0067442 4.18528e-05 3.24403e-25)
(0.0100749 0.000515865 0)
(0.0104761 0.00128054 0)
(0.011015 0.00167551 0)
(0.0113789 0.00178784 8.64415e-22)
(0.0115704 0.00171986 -8.63187e-22)
(0.0115424 0.00155188 0)
(0.0114257 0.0013403 0)
(0.0112334 0.0011239 0)
(0.0110066 0.000927834 0)
(0.0107771 0.000759564 0)
(0.0105592 0.000620435 0)
(0.0103599 0.000510771 -3.40441e-21)
(0.0101804 0.000427212 3.42123e-21)
(0.0100195 0.000365324 -3.40649e-21)
(0.0098746 0.000321142 6.82389e-21)
(0.00974246 0.000290808 -3.41569e-21)
(0.00961973 0.000270876 -3.39938e-21)
(0.00950353 0.000258665 3.40761e-21)
(0.00939136 0.000252248 0)
(0.00928112 0.00025034 0)
(0.009171 0.000252211 6.76736e-21)
(0.00905936 0.00025755 -6.7807e-21)
(0.00894463 0.00026633 0)
(0.00882517 0.000278724 -6.75092e-21)
(0.00869927 0.000295031 6.76449e-21)
(0.00856502 0.000315656 0)
(0.00842034 0.000341102 0)
(0.00826289 0.000372007 6.75503e-21)
(0.00809008 0.000409218 -8.7862e-24)
(0.00789896 0.00045393 -6.78085e-21)
(0.00768633 0.000507927 -6.78908e-21)
(0.00744826 0.000574013 1.36179e-20)
(0.00718592 0.000656908 -6.83003e-21)
(0.00687347 0.000759687 6.42014e-21)
(0.00654098 0.000898924 -6.90439e-21)
(0.00631453 0.00110482 -7.0165e-21)
(0.00625816 0.00139171 7.12554e-21)
(0.00635205 0.00175359 2.13444e-20)
(0.00658126 0.00217722 3.57615e-20)
(0.0069462 0.00264526 7.27343e-21)
(0.00746863 0.00313782 -7.04112e-21)
(0.00811189 0.0036227 -6.14298e-20)
(0.00880034 0.00407147 6.01369e-20)
(0.00949978 0.00447077 5.84565e-20)
(0.0102009 0.0048127 -1.27004e-20)
(0.0108981 0.0050918 9.28212e-21)
(0.0115927 0.00530311 -2.67381e-20)
(0.0122707 0.00544041 0)
(0.0129295 0.0054945 -2.48652e-20)
(0.0135676 0.00546159 2.70713e-21)
(0.0141686 0.00533917 2.03502e-20)
(0.0147274 0.00512517 2.38283e-21)
(0.0152269 0.00481408 -2.34633e-20)
(0.0156612 0.00441424 -1.55035e-20)
(0.0160114 0.00392593 -1.70349e-20)
(0.016265 0.0033634 -8.32133e-21)
(0.0164114 0.00273761 -1.70197e-21)
(0.0164264 0.00206075 1.91908e-21)
(0.0163243 0.00136063 1.78568e-21)
(0.0160715 0.000647751 2.61811e-21)
(0.0156865 -4.5984e-05 1.75103e-21)
(0.0151759 -0.000702125 0)
(0.0145486 -0.00130123 6.70803e-21)
(0.0138373 -0.00182684 0)
(0.0130492 -0.00227159 -2.29048e-20)
(0.0122285 -0.00263007 -1.32983e-20)
(0.0113854 -0.00290251 -3.30711e-21)
(0.0105525 -0.00309476 0)
(0.0097435 -0.00321412 0)
(0.00897104 -0.00327091 -1.39429e-20)
(0.00825033 -0.00327643 0)
(0.0075778 -0.00323841 3.24734e-20)
(0.00695927 -0.00316804 -3.30311e-20)
(0.00639551 -0.00307177 3.18163e-20)
(0.00587987 -0.00295492 2.79062e-23)
(0.00541116 -0.00282313 2.73083e-23)
(0.00498609 -0.00267918 2.7454e-20)
(0.00459766 -0.00252506 3.96236e-21)
(0.00424189 -0.00236325 3.00877e-20)
(0.0039155 -0.00219562 3.23495e-20)
(0.00361355 -0.00202378 -6.21375e-23)
(0.00333233 -0.00185022 -3.17007e-20)
(0.00306931 -0.00167763 3.18189e-20)
(0.00282214 -0.00150893 0)
(0.00259027 -0.00134729 5.15797e-22)
(0.00237323 -0.00119516 3.23971e-20)
(0.00217018 -0.0010545 -6.5548e-20)
(0.00198304 -0.000927149 -9.88087e-20)
(0.00181274 -0.000813208 -3.38141e-20)
(0.00165815 -0.000712298 9.7433e-22)
(0.00152098 -0.000624144 0)
(0.00140145 -0.000547218 1.01464e-21)
(0.00129739 -0.00048011 -1.006e-21)
(0.00120979 -0.000422211 0)
(0.00113707 -0.000371742 1.59402e-20)
(0.00107893 -0.000328705 -1.98474e-21)
(0.00103508 -0.00029165 1.96698e-21)
(0.00100526 -0.000260739 -1.40625e-23)
(0.000989687 -0.00023456 1.55886e-20)
(0.000989691 -0.000213338 -1.94151e-21)
(0.00100657 -0.000194967 3.86106e-21)
(0.00104093 -0.000178709 -1.92078e-21)
(0.00109576 -0.000162224 4.66878e-25)
(0.00117076 -0.000143123 -9.61209e-22)
(0.00126973 -0.000119119 9.59622e-22)
(0.00139246 -8.64353e-05 -7.70589e-21)
(0.00154077 -4.26113e-05 -8.21699e-21)
(0.00171558 1.61579e-05 -1.50501e-20)
(0.0019163 9.27138e-05 3.1213e-20)
(0.00214365 0.00019002 -1.51828e-20)
(0.00239689 0.000310642 -4.92011e-22)
(0.00267485 0.000456699 -4.94191e-22)
(0.00297747 0.00062967 4.95814e-22)
(0.00330116 0.00083066 -1.59134e-20)
(0.00364654 0.00105964 1.06524e-21)
(0.00401099 0.0013163 -4.26542e-24)
(0.00439062 0.0015992 1.37987e-20)
(0.00478543 0.00190615 4.83401e-20)
(0.00519204 0.0022342 -3.11388e-20)
(0.00560745 0.0025796 -3.12006e-20)
(0.00603124 0.00293799 3.27636e-20)
(0.00646073 0.00330425 2.80585e-20)
(0.00689316 0.00367286 -2.81069e-20)
(0.00732838 0.00403808 -3.24084e-20)
(0.00776526 0.00439369 -2.68745e-20)
(0.00820245 0.00473362 4.03505e-21)
(0.00863988 0.00505186 -3.39816e-21)
(0.00907735 0.00534252 0)
(0.00951535 0.00560032 -2.80613e-20)
(0.00995594 0.00582035 -2.37691e-20)
(0.010398 0.00599722 -1.98412e-20)
(0.0108409 0.00612798 0)
(0.0112902 0.00620855 -2.24683e-20)
(0.0117428 0.00623363 2.38869e-21)
(0.0121965 0.00620303 -6.36009e-21)
(0.012656 0.00611336 -2.03051e-21)
(0.0131099 0.00595823 -1.29168e-22)
(0.0135564 0.0057395 -7.79513e-21)
(0.0139902 0.00545272 1.47462e-21)
(0.0143994 0.00509848 -5.95035e-21)
(0.0147744 0.00467717 9.33801e-21)
(0.0150997 0.00419121 6.87181e-21)
(0.015359 0.0036462 2.9139e-21)
(0.0155417 0.00305136 0)
(0.0156215 0.0024167 -5.11956e-22)
(0.0156008 0.00176143 6.92464e-24)
(0.0154483 0.00109472 6.75516e-23)
(0.0151664 0.000444231 -1.83089e-22)
(0.0147602 -0.000173151 6.05087e-23)
(0.0142191 -0.000737586 -5.926e-23)
(0.0135751 -0.00123117 -1.63568e-22)
(0.012816 -0.00164327 0)
(0.0119868 -0.00196399 3.30133e-22)
(0.0110895 -0.00219108 -4.1464e-23)
(0.0101657 -0.00232805 4.54076e-23)
(0.00922259 -0.00238005 -4.11415e-23)
(0.00829174 -0.00235921 7.27254e-22)
(0.00738613 -0.00227555 -1.64696e-22)
(0.00655028 -0.00215017 0)
(0.00576248 -0.00197817 1.7847e-21)
(0.00523385 -0.00183202 8.13146e-23)
(0.00499166 -0.00169594 6.37432e-23)
(0.00491161 -0.00154696 5.43429e-23)
(0.00494689 -0.00138394 1.25509e-21)
(0.00510224 -0.00121487 3.06119e-23)
(0.00535895 -0.00104174 7.27277e-24)
(0.00571376 -0.000879204 -6.45637e-22)
(0.00610285 -0.000731925 5.61692e-22)
(0.00645397 -0.000606556 6.08308e-22)
(0.00676025 -0.000511782 5.27523e-23)
(0.00703722 -0.000449153 -5.80754e-22)
(0.00729564 -0.000414254 6.69309e-23)
(0.00754306 -0.000400254 5.07586e-22)
(0.00778534 -0.00039931 -5.04234e-22)
(0.00802572 -0.000403376 -5.83228e-23)
(0.0082644 -0.00040511 -5.75746e-23)
(0.00849882 -0.00039863 0)
(0.00872437 -0.000379988 4.17488e-22)
(0.00893518 -0.000347383 -4.15295e-22)
(0.00912495 -0.000301109 0)
(0.00928787 -0.00024327 -4.67041e-23)
(0.00941929 -0.000177278 0)
(0.00951624 -0.000107262 4.22166e-23)
(0.00957768 -3.75228e-05 1.5461e-22)
(0.00960457 2.79303e-05 -1.54426e-22)
(0.00959973 8.57607e-05 -3.44301e-23)
(0.00956747 0.00013355 3.10541e-23)
(0.00951317 0.00016988 0)
(0.00944277 0.000194289 -9.43134e-23)
(0.0093623 0.000207148 9.42263e-23)
(0.00927747 0.000209506 1.90568e-23)
(0.0091933 0.000202913 3.01535e-23)
(0.00911393 0.000189257 -3.01422e-23)
(0.00904245 0.000170632 2.04918e-23)
(0.00898087 0.000149213 -2.04809e-23)
(0.00893014 0.000127153 -7.11958e-24)
(0.00889022 0.000106477 -4.39458e-24)
(0.00886029 8.90038e-05 3.01329e-24)
(0.0088379 7.6259e-05 3.31244e-24)
(0.00882317 6.98617e-05 0)
(0.0100413 0.000316928 0)
(0.0102866 0.000872658 0)
(0.0107147 0.0012455 0)
(0.0111417 0.00143841 8.73181e-22)
(0.0114771 0.0014958 -8.67369e-22)
(0.0117026 0.0014562 0)
(0.0118478 0.00134911 1.68542e-21)
(0.0118864 0.00120863 -1.68839e-21)
(0.0118636 0.00105908 -1.67084e-21)
(0.0118009 0.000912355 3.34469e-21)
(0.0117086 0.000778277 -1.67423e-21)
(0.0116038 0.000664935 0)
(0.0114946 0.000572611 0)
(0.0113859 0.000500048 3.32024e-21)
(0.0112809 0.000445808 -1.38087e-23)
(0.0111799 0.00040697 -6.63592e-21)
(0.0110823 0.000380483 3.31884e-21)
(0.0109874 0.000363782 0)
(0.0108937 0.000354823 0)
(0.0107998 0.000352101 3.28973e-21)
(0.0107044 0.000354725 -3.29517e-21)
(0.0106062 0.000362294 0)
(0.0105038 0.00037477 0)
(0.0103957 0.000392382 -6.54353e-21)
(0.0102802 0.000415553 1.30917e-20)
(0.0101558 0.000444847 -6.54842e-21)
(0.0100204 0.00048096 -6.53151e-21)
(0.00987192 0.000524744 1.15299e-23)
(0.00970787 0.000577266 1.3078e-20)
(0.00952564 0.000639925 -6.54722e-21)
(0.00932246 0.00071464 -6.547e-21)
(0.00909495 0.000804102 4.47422e-24)
(0.00884469 0.000912589 6.57263e-21)
(0.00855078 0.00104168 6.57633e-21)