/*--------------------------------*- C++ -*----------------------------------*\
| =========                 |                                                 |
| \\      /  F ield         | OpenFOAM: The Open Source CFD Toolbox           |
|  \\    /   O peration     | Version:  2506                                  |
|   \\  /    A nd           | Website:  www.openfoam.com                      |
|    \\/     M anipulation  |                                                 |
\*---------------------------------------------------------------------------*/
FoamFile
{
    version     2.0;
    format      ascii;
    arch        "LSB;label=32;scalar=64";
    class       volVectorField;
    location    "4.2";
    object      vorticityField;
}
// * * * * * * * * * * * * * * * * * * * * * * * * * * * * * * * * * * * * * //

dimensions      [0 0 -1 0 0 0 0];

internalField   nonuniform List<vector> 
4000
(
(-2.56617e-21 8.69816e-19 -33.3794)
(-1.07646e-18 3.16297e-19 -35.6397)
(1.13709e-18 -3.81894e-18 -32.6649)
(3.69483e-18 2.90537e-18 -27.8807)
(-7.54123e-18 2.71617e-18 -24.0669)
(3.83801e-18 -4.74686e-18 -21.3924)
(-3.11219e-20 1.75815e-18 -19.4326)
(3.72244e-18 -0 -17.9735)
(-3.66643e-18 -3.46921e-18 -16.8868)
(7.36952e-18 1.85588e-18 -16.0691)
(-7.3794e-18 -1.81674e-18 -15.4429)
(-2.27582e-19 4.0857e-19 -14.9536)
(-1.31204e-19 9.93604e-18 -14.5611)
(7.75922e-18 -6.91453e-18 -14.236)
(-2.78331e-20 -0 -13.9565)
(-1.46497e-17 -6.80983e-18 -13.7069)
(1.44475e-17 4.07441e-18 -13.4759)
(-7.64948e-18 9.54927e-18 -13.2558)
(3.61845e-19 -6.81384e-18 -13.041)
(0 -0 -12.8276)
(0 -0 -12.6122)
(0 -0 -12.392)
(9.08671e-19 -1.33912e-17 -12.1642)
(1.24741e-17 2.19867e-17 -11.926)
(-2.86882e-17 9.45962e-18 -11.674)
(1.63324e-17 -3.14342e-17 -11.4048)
(-1.02626e-18 1.33791e-17 -11.1146)
(0 -0 -10.7986)
(0 -0 -10.4518)
(-1.18019e-18 1.33344e-17 -10.0671)
(-2.79477e-17 -9.66601e-18 -9.63527)
(1.55668e-17 -1.70203e-17 -9.1464)
(2.97583e-17 1.61217e-18 -8.58213)
(8.89656e-19 -1.54824e-17 -7.78389)
(-8.39291e-18 7.71825e-17 -6.88723)
(-3.4648e-17 7.02477e-17 -6.47408)
(-1.10194e-16 -1.15337e-16 -6.7166)
(-2.92688e-19 -9.26348e-19 -7.40346)
(7.12327e-17 2.15123e-16 -8.4734)
(-1.0854e-16 -6.98714e-17 -10.002)
(4.53783e-17 -2.55629e-16 -12.2965)
(1.24365e-16 2.38226e-16 -15.1189)
(-3.88488e-17 1.04958e-16 -17.9428)
(2.83849e-17 -1.1248e-16 -20.6259)
(1.28406e-16 8.97566e-17 -23.1492)
(-1.47148e-16 2.0959e-17 -25.5548)
(-1.99419e-16 1.69047e-16 -27.9111)
(-1.05963e-16 -1.15596e-16 -30.0617)
(-8.39701e-17 -2.02126e-16 -32.068)
(-4.98252e-17 -1.27929e-16 -33.8991)
(1.02093e-16 -1.20907e-16 -35.4571)
(-3.86094e-18 4.79494e-17 -36.8136)
(-5.75175e-17 -9.08175e-17 -37.7813)
(9.25724e-17 -1.06781e-16 -38.4782)
(-7.87681e-18 9.20779e-17 -38.7462)
(-3.62503e-17 5.59214e-17 -38.6104)
(9.07619e-18 5.19244e-17 -38.1068)
(4.18707e-18 9.37533e-18 -37.1114)
(9.18537e-18 1.61735e-17 -35.8648)
(-5.49982e-18 -2.7285e-18 -34.1806)
(5.32134e-18 4.6832e-18 -32.1729)
(2.06219e-17 3.91187e-19 -30.0493)
(-9.74688e-18 -4.53823e-18 -27.7515)
(-8.04292e-18 -5.31378e-17 -25.4482)
(-1.08318e-17 -6.20334e-17 -23.1617)
(-9.66102e-18 4.76877e-17 -20.9413)
(6.3732e-17 4.57154e-17 -18.8817)
(-1.42803e-19 -3.46908e-17 -16.9272)
(2.38229e-17 5.36635e-17 -15.1832)
(-5.91094e-17 5.51297e-17 -13.5744)
(-1.15286e-17 -3.98988e-17 -12.1519)
(-3.28109e-17 -6.77439e-17 -10.8861)
(1.45629e-20 -1.70525e-19 -9.74012)
(-7.93056e-17 5.03029e-17 -8.74816)
(-7.87976e-17 5.61219e-17 -7.857)
(-2.86687e-18 6.92554e-17 -7.05809)
(-6.95521e-17 4.39676e-17 -6.3492)
(8.2996e-18 -7.09266e-17 -5.70194)
(-9.27267e-17 2.18497e-17 -5.10319)
(6.93499e-17 2.21519e-17 -4.55247)
(-1.33712e-16 3.69259e-17 -4.03843)
(-2.56951e-17 -8.24863e-17 -3.55633)
(3.99822e-18 -1.20625e-17 -3.10774)
(-7.59789e-18 2.32986e-18 -2.69253)
(7.26953e-17 1.12381e-16 -2.31293)
(-1.2108e-16 1.60146e-16 -1.97187)
(4.78296e-18 -1.45038e-16 -1.66741)
(-9.26858e-18 -7.75371e-17 -1.40063)
(-1.21017e-18 1.42389e-16 -1.17302)
(-5.1849e-17 3.34908e-17 -0.977859)
(2.13269e-19 1.30403e-18 -0.813474)
(-5.19492e-17 9.58612e-17 -0.679193)
(-2.46566e-17 -1.17863e-16 -0.56745)
(1.83934e-17 -3.97093e-17 -0.476919)
(7.35093e-19 6.16979e-17 -0.405766)
(7.84822e-18 -6.87199e-17 -0.349152)
(2.34569e-17 -1.04563e-17 -0.308346)
(3.07005e-18 3.13106e-18 -0.279127)
(-3.5952e-17 -5.98168e-18 -0.262739)
(5.83655e-18 3.02005e-17 -0.256742)
(6.46847e-18 -7.95423e-19 -0.262889)
(2.0169e-18 -5.81995e-18 -0.279685)
(-1.09103e-18 1.91118e-17 -0.310809)
(-2.87394e-18 5.21053e-18 -0.356539)
(-4.25075e-18 -2.09861e-18 -0.421649)
(-7.72724e-20 -7.01471e-18 -0.508726)
(4.26666e-19 5.72932e-17 -0.623089)
(-2.19455e-17 -2.03663e-18 -0.770574)
(-2.75788e-17 -9.75265e-17 -0.957103)
(5.19242e-17 -1.4418e-17 -1.1908)
(-2.64564e-17 1.63526e-17 -1.48007)
(1.21724e-18 6.6025e-17 -1.8322)
(-2.77197e-17 -1.31233e-17 -2.26033)
(-2.49659e-17 -5.74812e-17 -2.76388)
(-8.31379e-19 -7.03538e-17 -3.36573)
(5.53627e-17 3.65972e-17 -4.06124)
(2.67714e-19 1.3957e-16 -4.85845)
(-8.28696e-18 3.56008e-17 -5.76886)
(5.79003e-17 4.31776e-17 -6.78362)
(-5.95939e-17 -4.45727e-17 -7.90592)
(-4.63911e-17 -2.5251e-16 -9.13968)
(7.30791e-17 4.87866e-17 -10.4689)
(4.35389e-18 1.56892e-16 -11.8828)
(-6.91329e-17 -4.53032e-17 -13.3823)
(-1.14064e-17 -1.6516e-16 -14.9427)
(1.27301e-16 9.04809e-17 -16.5523)
(-3.82981e-17 4.23212e-17 -18.1946)
(5.43744e-17 -6.40666e-18 -19.8469)
(6.51767e-17 9.1835e-17 -21.4992)
(-6.40623e-17 1.90793e-16 -23.1541)
(-7.41676e-18 5.54951e-17 -24.7463)
(-1.28116e-16 9.4921e-17 -26.2987)
(-2.62386e-17 -5.83219e-17 -27.8347)
(-9.98325e-17 -7.06726e-17 -29.2506)
(-4.66178e-17 1.45769e-16 -30.5926)
(-5.49576e-18 -1.97138e-18 -31.9313)
(5.86715e-18 3.6025e-18 -33.0464)
(3.88767e-17 -9.8256e-17 -34.1385)
(5.10276e-18 4.43017e-18 -35.0415)
(-1.13861e-17 1.84914e-17 -35.8069)
(-2.39907e-17 9.23611e-17 -36.376)
(-2.0172e-17 6.2358e-18 -36.7116)
(-1.36458e-17 7.92953e-17 -36.7496)
(-5.53516e-18 1.38912e-17 -36.5399)
(-3.65118e-18 1.28916e-17 -35.8642)
(8.08094e-18 -6.90744e-17 -34.9775)
(-3.22039e-20 4.87529e-19 -33.5734)
(0 -0 -31.837)
(2.078e-19 -3.89351e-19 -29.854)
(1.2826e-18 1.07344e-17 -27.5547)
(-1.74456e-18 -8.31106e-18 -25.1655)
(-3.33586e-19 1.00952e-18 -22.611)
(-1.68529e-18 -1.0891e-18 -20.056)
(-5.87104e-19 -1.56424e-18 -17.5517)
(5.73792e-19 -2.2389e-19 -15.1531)
(4.86308e-19 5.19802e-19 -12.9168)
(-1.28758e-17 -2.9619e-17 -10.8479)
(2.7844e-18 -4.7085e-18 -8.99909)
(-1.08851e-18 -8.14179e-18 -7.30241)
(-1.0052e-17 -3.60433e-17 -5.75199)
(-7.65147e-18 1.99388e-17 -4.82979)
(1.19665e-17 8.06544e-18 -4.72239)
(-1.93741e-18 -3.36136e-18 -4.75186)
(1.41022e-18 -3.2875e-19 -4.89873)
(1.57069e-18 -2.41567e-19 -5.22246)
(1.62566e-18 -1.35067e-19 -5.76618)
(-1.52599e-18 -1.21265e-18 -6.62789)
(1.30278e-18 -3.18075e-18 -7.64673)
(1.23895e-19 9.23365e-19 -8.47954)
(1.75178e-19 8.79749e-19 -9.09975)
(-1.34173e-18 3.7364e-18 -9.59555)
(-2.9408e-19 -2.19757e-18 -10.0203)
(2.30616e-20 -3.26029e-18 -10.4078)
(2.33102e-19 5.28175e-18 -10.7823)
(-1.68343e-19 -1.30114e-18 -11.158)
(1.11274e-18 3.35061e-20 -11.5392)
(-2.03451e-18 8.55241e-19 -11.9215)
(1.05024e-18 4.20472e-18 -12.2947)
(-1.76578e-19 -5.90343e-18 -12.6451)
(5.88787e-20 8.57543e-19 -12.9582)
(5.19714e-19 3.35054e-19 -13.2208)
(-8.40638e-19 2.40906e-18 -13.4229)
(-6.54833e-20 -6.33092e-19 -13.5586)
(8.8853e-21 -2.75091e-18 -13.6265)
(3.34094e-19 3.33832e-19 -13.6296)
(3.03231e-19 9.04501e-22 -13.5743)
(-3.3765e-19 -1.00717e-21 -13.4697)
(2.752e-19 -1.15693e-20 -13.3267)
(-4.54956e-19 -3.19215e-19 -13.1565)
(2.82233e-19 1.32048e-20 -12.9703)
(-9.29171e-20 -2.77161e-22 -12.7784)
(-1.96737e-20 -4.93013e-20 -12.5897)
(5.77326e-20 -1.20253e-18 -12.4114)
(-2.2236e-20 1.29688e-18 -12.2489)
(-4.65833e-20 -5.27271e-20 -12.1055)
(7.12895e-21 -2.98048e-19 -11.9826)
(-3.44209e-21 -5.88164e-19 -11.8796)
(-6.70592e-21 3.10595e-19 -11.7928)
(-3.33029e-21 2.89515e-19 -11.7113)
(-6.92888e-22 -2.70627e-21 -11.644)
(0 -0 3.17658)
(3.00772e-20 -0 -6.37214)
(-5.77732e-20 -1.69099e-18 -12.8073)
(3.33011e-19 1.43898e-20 -15.4243)
(1.16453e-18 6.47196e-18 -16.1362)
(-1.48686e-18 -6.53613e-18 -15.8808)
(4.12891e-20 -1.75063e-18 -15.3009)
(1.50966e-19 -1.40444e-18 -14.6685)
(-3.73652e-18 4.90689e-18 -14.0791)
(3.46945e-18 -4.46882e-18 -13.5642)
(6.78359e-18 1.50312e-17 -13.1267)
(-1.42941e-17 -2.1993e-18 -12.7585)
(9.88148e-19 -2.24669e-17 -12.4488)
(6.9462e-18 -9.35938e-19 -12.1863)
(-9.23113e-19 2.12202e-17 -11.9605)
(-6.92253e-18 8.57087e-18 -11.7622)
(7.61997e-18 -2.17834e-17 -11.5838)
(-1.40278e-19 7.02101e-18 -11.4191)
(0 -0 -11.2631)
(0 -0 -11.112)
(0 -0 -10.9627)
(0 -0 -10.8127)
(0 -0 -10.6595)
(-2.83868e-17 -0 -10.5008)
(4.27455e-17 -0 -10.3341)
(-1.43303e-17 -0 -10.1566)
(0 -0 -9.96541)
(0 -0 -9.75701)
(0 -0 -9.52725)
(-1.23206e-18 1.39204e-17 -9.27095)
(-2.69973e-19 1.09084e-17 -8.98124)
(3.74305e-18 -4.24969e-17 -8.64891)
(-1.39988e-19 -7.71364e-18 -8.26219)
(-1.63725e-17 5.12158e-17 -7.79072)
(-9.85415e-18 -4.7451e-17 -7.28286)
(4.2856e-17 2.04566e-17 -6.93673)
(1.00115e-16 1.3166e-16 -6.90277)
(5.29116e-18 -2.07805e-16 -7.21388)
(-1.57251e-17 -1.80633e-16 -7.86777)
(1.15423e-16 2.4752e-16 -8.87943)
(-3.39773e-17 1.40334e-17 -10.3012)
(-8.81769e-17 -1.86126e-16 -11.9099)
(7.84685e-17 -1.41504e-16 -13.5925)
(1.30674e-17 -4.28574e-17 -15.3174)
(-2.65534e-17 -1.78577e-16 -17.0037)
(-5.87655e-18 4.47841e-16 -18.6655)
(1.9474e-16 1.4e-16 -20.2958)
(1.0875e-16 1.16068e-16 -21.8327)
(8.01773e-17 1.53772e-16 -23.3264)
(6.19833e-17 -2.21993e-17 -24.7054)
(-1.3641e-16 -1.46511e-16 -25.9654)
(-3.20727e-18 3.95108e-17 -27.1147)
(-1.59681e-17 2.44661e-16 -28.0746)
(-8.29267e-17 5.57215e-17 -28.8991)
(5.18594e-17 -2.50096e-17 -29.5)
(3.88304e-17 3.67896e-17 -29.9095)
(3.80359e-17 -5.65544e-17 -30.0869)
(8.94256e-18 1.14374e-17 -30.0175)
(-4.11785e-18 -3.21989e-17 -29.7185)
(-6.28377e-18 1.47241e-17 -29.1606)
(-3.11038e-18 -1.54454e-17 -28.3464)
(-2.66744e-17 -7.68291e-17 -27.307)
(2.10038e-17 7.60943e-17 -26.0756)
(-2.76375e-18 9.61806e-17 -24.6835)
(4.76418e-17 1.46778e-16 -23.2014)
(6.65511e-18 -5.46535e-17 -21.6328)
(-7.76062e-18 -8.18792e-17 -20.0794)
(-1.59988e-17 6.70141e-17 -18.5191)
(-2.58772e-17 -3.44839e-18 -17.0347)
(6.60254e-17 -4.30727e-17 -15.6115)
(5.29424e-18 2.30686e-17 -14.274)
(-1.38261e-16 -2.68838e-17 -13.0427)
(6.06648e-17 3.72236e-17 -11.8835)
(5.4179e-17 1.8771e-16 -10.825)
(1.37009e-16 -3.05116e-17 -9.84902)
(1.16437e-17 -8.20635e-17 -8.94205)
(-1.17117e-17 1.10523e-17 -8.10794)
(-5.3879e-18 7.45183e-17 -7.33591)
(-5.03635e-17 4.07355e-18 -6.61459)
(-1.74699e-16 4.37274e-17 -5.94519)
(2.237e-16 7.44753e-17 -5.32425)
(2.87723e-17 -7.36972e-17 -4.74798)
(-6.93625e-17 4.66144e-17 -4.21749)
(2.90333e-17 -3.96121e-17 -3.73259)
(-8.06886e-18 -1.58694e-17 -3.29253)
(1.35862e-16 -5.36142e-17 -2.89891)
(4.46311e-17 -6.50272e-17 -2.5493)
(6.94424e-17 4.80707e-17 -2.24039)
(5.54431e-17 -1.12619e-16 -1.97303)
(1.12858e-16 -7.17976e-17 -1.7418)
(3.59556e-20 2.28202e-18 -1.54215)
(5.26036e-17 -6.53285e-17 -1.37375)
(2.07133e-17 2.04123e-17 -1.23091)
(-4.91679e-17 2.7706e-17 -1.11041)
(2.26932e-17 -5.91911e-17 -1.01221)
(8.22874e-19 3.23014e-17 -0.930931)
(-4.96521e-17 2.31632e-17 -0.868548)
(2.36438e-17 6.29297e-17 -0.820707)
(2.62052e-18 1.67162e-17 -0.789372)
(-1.32334e-17 -8.07775e-17 -0.771902)
(-6.61712e-18 2.80486e-18 -0.770816)
(-7.77532e-18 1.68283e-17 -0.784365)
(-3.30055e-18 -1.2773e-17 -0.815252)
(2.90754e-18 -1.66966e-18 -0.863768)
(5.70983e-18 -1.55901e-18 -0.932408)
(1.21303e-17 3.37093e-18 -1.02368)
(-2.29926e-19 -3.08748e-17 -1.14013)
(7.20017e-17 4.64495e-17 -1.2855)
(6.07124e-19 6.2715e-18 -1.46339)
(-4.8211e-17 7.68514e-18 -1.67812)
(-2.6062e-18 4.89806e-17 -1.93459)
(-1.952e-18 -6.71634e-17 -2.23707)
(2.6984e-17 4.85747e-17 -2.59234)
(2.37535e-17 2.00707e-17 -3.00077)
(-2.8035e-17 -5.11215e-17 -3.47606)
(-5.5299e-17 -3.20092e-17 -4.01071)
(2.11613e-18 -7.70392e-17 -4.61712)
(1.13005e-17 -1.10483e-16 -5.29635)
(-1.27634e-17 -2.76652e-17 -6.04367)
(1.19724e-16 2.41606e-16 -6.86698)
(-9.69275e-17 4.07088e-18 -7.76378)
(-5.8004e-17 -1.42005e-16 -8.72453)
(4.57096e-17 5.81827e-17 -9.75059)
(8.18078e-17 4.89765e-17 -10.8392)
(4.9717e-17 -1.06298e-17 -11.9728)
(-9.20129e-17 -2.47619e-16 -13.1504)
(-4.2685e-17 1.98511e-16 -14.3591)
(8.68988e-17 -3.05255e-16 -15.5856)
(-1.61172e-17 6.79968e-18 -16.8248)
(1.87915e-16 -1.54683e-17 -18.0676)
(4.79266e-17 3.12015e-17 -19.2764)
(2.01335e-16 -5.57088e-17 -20.4785)
(4.70971e-17 1.65221e-16 -21.6576)
(-4.30454e-17 2.64307e-16 -22.754)
(8.17608e-17 -2.07201e-16 -23.8277)
(-5.41179e-18 7.87926e-17 -24.8596)
(3.16946e-17 -2.46646e-17 -25.7487)
(2.2054e-17 -3.63722e-17 -26.6401)
(1.19333e-17 -3.84533e-17 -27.3772)
(-8.23281e-18 3.10431e-17 -28.0421)
(4.94256e-17 -1.36108e-16 -28.5787)
(-6.30641e-17 2.34955e-16 -28.9794)
(4.13859e-17 -1.55181e-16 -29.2251)
(1.2508e-18 6.87991e-18 -29.3207)
(8.78502e-18 -5.72728e-17 -29.1857)
(-1.14696e-18 1.52963e-17 -28.9132)
(-1.14598e-18 2.27551e-17 -28.3447)
(-2.34355e-19 -2.45738e-19 -27.5976)
(9.19854e-19 4.26011e-17 -26.6027)
(-5.16221e-18 -7.88779e-17 -25.3849)
(4.69815e-19 -1.86906e-18 -23.9919)
(2.21199e-17 1.34051e-16 -22.4037)
(6.14715e-18 2.2593e-17 -20.7011)
(-4.79404e-18 -2.11748e-17 -18.8991)
(-7.64409e-19 -2.86822e-19 -17.0669)
(-2.64081e-17 -8.27615e-17 -15.2397)
(1.24234e-17 3.01433e-17 -13.4551)
(-2.73182e-17 -6.035e-17 -11.7475)
(2.38353e-18 7.20618e-18 -10.1296)
(-6.8908e-19 4.75684e-17 -8.65267)
(2.38328e-17 2.30968e-17 -7.4844)
(-2.08663e-17 -5.79464e-17 -6.82936)
(1.70871e-18 1.4426e-17 -6.46117)
(-4.99088e-18 -7.65393e-18 -6.28058)
(-1.34165e-18 -6.94821e-18 -6.2798)
(-4.25956e-18 -7.95221e-18 -6.47555)
(3.87397e-18 7.55361e-18 -6.87043)
(-1.45979e-18 -4.17833e-19 -7.38258)
(-1.9028e-20 -1.60528e-19 -7.89578)
(-1.33245e-19 -8.57644e-19 -8.35863)
(3.01083e-20 1.45077e-19 -8.76885)
(2.14817e-19 2.01831e-18 -9.14099)
(-1.06007e-18 1.0964e-17 -9.48708)
(7.5096e-19 -1.41248e-17 -9.81517)
(8.97359e-20 1.48516e-18 -10.1298)
(1.02498e-18 -1.17452e-17 -10.4319)
(-6.29021e-19 2.53845e-17 -10.7194)
(-5.7358e-19 -2.90585e-17 -10.988)
(4.41634e-19 1.72392e-17 -11.2318)
(-9.31633e-20 -1.37925e-18 -11.4445)
(-1.2652e-19 -8.4232e-18 -11.6205)
(4.89558e-19 8.41155e-18 -11.7549)
(-3.43012e-19 1.14342e-18 -11.8451)
(-3.66938e-19 7.45972e-18 -11.8904)
(3.47501e-19 -7.11344e-18 -11.8925)
(1.4103e-19 -7.13735e-18 -11.8552)
(-1.31966e-20 8.94567e-18 -11.7842)
(5.15362e-20 -8.65434e-18 -11.6866)
(-1.52022e-19 1.53153e-17 -11.5698)
(1.04087e-19 -1.02777e-17 -11.4415)
(4.79262e-20 3.94027e-18 -11.3086)
(-7.69441e-20 1.06596e-18 -11.1772)
(-1.0886e-19 -4.77446e-20 -11.0521)
(1.35284e-19 -2.32313e-18 -10.9367)
(-2.76638e-20 3.50523e-18 -10.8327)
(4.09342e-21 -3.49554e-19 -10.7409)
(-6.42265e-21 1.7067e-18 -10.6604)
(9.20593e-21 -1.26546e-20 -10.5896)
(6.50592e-24 6.33189e-22 -10.5252)
(-5.34686e-21 1.07286e-18 -10.4804)
(-2.5017e-21 8.47963e-19 5.44981)
(-3.78506e-19 1.28709e-18 2.31791)
(4.02898e-19 -4.60502e-18 -1.63939)
(5.86245e-19 -1.78127e-18 -5.00499)
(1.23407e-18 5.89649e-18 -7.50578)
(-1.83513e-18 -1.64525e-18 -8.94838)
(0 -0 -9.76105)
(-3.8073e-18 3.30437e-18 -10.1335)
(3.51701e-18 3.38773e-19 -10.2392)
(-2.81303e-18 -2.03571e-17 -10.2053)
(3.55162e-18 6.97506e-18 -10.1)
(-1.47053e-19 2.30928e-17 -9.96336)
(-5.60914e-19 -8.65657e-19 -9.81966)
(-1.37136e-17 -1.91799e-17 -9.68228)
(1.30921e-17 1.33484e-17 -9.55729)
(8.56237e-18 -1.44629e-18 -9.44615)
(-1.38444e-17 -2.35695e-17 -9.34755)
(5.91341e-18 2.5024e-17 -9.25882)
(3.53941e-19 -6.665e-18 -9.17696)
(0 -0 -9.09914)
(1.35222e-17 -0 -9.02296)
(-1.35489e-17 -0 -8.94642)
(-8.96268e-19 1.32085e-17 -8.86783)
(-1.30617e-17 7.82926e-18 -8.78566)
(1.49612e-17 -3.42736e-17 -8.69841)
(-9.76225e-19 1.32358e-17 -8.60448)
(0 -0 -8.50206)
(1.34976e-17 -0 -8.389)
(-1.75562e-20 -0 -8.2627)
(-1.4727e-17 1.33073e-17 -8.11984)
(1.53735e-18 4.26264e-18 -7.95606)
(2.94137e-17 -3.09235e-17 -7.76529)
(-4.47573e-17 1.25131e-17 -7.54197)
(2.61043e-17 -1.3245e-18 -7.28181)
(-1.57799e-18 2.8383e-17 -6.99279)
(-5.7091e-17 -4.23014e-17 -6.72517)
(8.85721e-17 -5.27132e-17 -6.57024)
(3.9037e-17 1.9236e-16 -6.62373)
(-1.31604e-16 8.59698e-17 -6.92244)
(-3.03027e-17 -9.59704e-17 -7.4625)
(-2.38712e-17 -1.76119e-18 -8.22339)
(-1.44693e-16 -1.19639e-17 -9.06994)
(-6.7122e-17 2.14649e-16 -10.0017)
(1.12552e-16 7.50082e-17 -11.0136)
(-2.87224e-16 4.59367e-17 -12.0508)
(3.10332e-16 -4.11862e-16 -13.1083)
(7.32065e-17 -2.06891e-16 -14.166)
(-5.5404e-18 6.45049e-17 -15.2067)
(8.99299e-17 -2.01614e-16 -16.246)
(-3.79498e-18 1.34596e-16 -17.2398)
(-1.06671e-16 4.22027e-16 -18.1996)
(1.56971e-17 -1.14936e-16 -19.1201)
(5.13983e-17 -2.02912e-16 -19.9791)
(9.31215e-17 -2.77808e-16 -20.7875)
(1.57388e-17 -2.45564e-16 -21.5179)
(-2.94874e-18 -8.66603e-17 -22.1768)
(-7.00208e-18 -1.27867e-16 -22.7366)
(4.23411e-18 -3.12152e-17 -23.1971)
(-9.93009e-18 4.02974e-17 -23.5188)
(8.76823e-18 3.71499e-17 -23.7135)
(4.11751e-18 7.56264e-18 -23.7304)
(-1.30659e-17 7.62604e-17 -23.5569)
(2.1102e-17 -9.97301e-17 -23.1965)
(2.52337e-17 -4.64804e-17 -22.6332)
(-7.20991e-17 -3.44903e-16 -21.9198)
(-3.23515e-17 5.64938e-17 -21.0312)
(-7.14318e-17 -5.00494e-18 -20.0537)
(2.01195e-17 3.81879e-17 -18.9685)
(1.63415e-18 -1.56806e-17 -17.8516)
(-5.84177e-17 4.74506e-18 -16.7079)
(1.14577e-17 1.23745e-16 -15.5623)
(1.93995e-16 1.11752e-16 -14.4556)
(-1.58931e-16 -2.30856e-16 -13.3662)
(1.88181e-16 -3.14181e-17 -12.3266)
(2.29879e-17 -1.51867e-16 -11.3357)
(-1.85497e-17 1.52177e-16 -10.3873)
(1.45619e-16 1.05047e-16 -9.49134)
(4.62889e-18 -4.55094e-18 -8.64768)
(1.96312e-16 1.71731e-16 -7.85115)
(9.93059e-17 -7.38653e-17 -7.10614)
(-2.32547e-18 -4.19237e-16 -6.41413)
(-4.55151e-17 1.39418e-16 -5.77352)
(1.00143e-16 3.55095e-17 -5.18604)
(4.72779e-17 -1.66377e-16 -4.65132)
(-6.4154e-17 4.57597e-17 -4.16688)
(1.07346e-16 -1.11061e-16 -3.73309)
(-1.92055e-16 1.79399e-17 -3.34671)
(-1.55898e-16 -8.41085e-17 -3.00212)
(-7.31064e-17 7.27892e-17 -2.69998)
(-1.39044e-17 3.42833e-17 -2.43541)
(1.16568e-18 7.39832e-17 -2.2032)
(2.42635e-18 3.38714e-17 -2.00409)
(-2.67767e-17 2.10283e-17 -1.83366)
(2.95673e-17 -4.42181e-17 -1.68824)
(-5.15429e-19 -2.53858e-18 -1.56977)
(-9.19116e-18 3.08476e-17 -1.47171)
(3.55922e-18 -2.42375e-17 -1.3976)
(-3.51197e-18 -6.63765e-17 -1.34161)
(8.00754e-17 3.24673e-18 -1.30669)
(6.99934e-18 3.94917e-17 -1.2884)
(-5.95319e-18 -9.35401e-19 -1.28979)
(8.8157e-18 -1.10451e-17 -1.30737)
(2.91934e-19 6.84119e-18 -1.34317)
(-9.05487e-20 -5.83098e-18 -1.39621)
(-1.80766e-19 -1.29983e-17 -1.46729)
(-1.21841e-17 -6.48572e-18 -1.55786)
(-1.28354e-17 -1.77698e-17 -1.66823)
(-4.8314e-17 -2.41197e-17 -1.80037)
(7.48503e-17 8.95324e-17 -1.95547)
(-5.2474e-17 -4.0169e-17 -2.13532)
(5.44011e-17 -2.1594e-17 -2.34193)
(-7.29514e-19 3.32057e-17 -2.57699)
(1.40428e-18 -3.45738e-17 -2.84385)
(1.07103e-17 5.55366e-18 -3.14161)
(-9.18482e-18 7.12384e-17 -3.47918)
(-4.62884e-19 -3.80105e-17 -3.84975)
(2.63229e-17 8.59837e-17 -4.26342)
(-2.13864e-17 1.89086e-16 -4.72017)
(-1.55202e-16 -1.47208e-16 -5.21782)
(3.4598e-18 -1.55977e-16 -5.76399)
(6.07016e-17 3.05698e-16 -6.35781)
(3.05531e-17 -1.07898e-16 -6.99506)
(4.42741e-17 -2.08655e-16 -7.68033)
(-5.72016e-17 -7.53239e-17 -8.41294)
(1.00715e-16 -9.57749e-17 -9.18332)
(-3.25866e-16 3.99204e-16 -9.99356)
(1.71685e-16 -2.67852e-16 -10.8364)
(-1.73205e-16 1.42566e-16 -11.7044)
(5.89863e-17 -3.94628e-16 -12.5937)
(1.13088e-16 -4.32933e-16 -13.4963)
(1.07031e-16 -2.08983e-16 -14.3901)
(-3.81022e-17 -7.57608e-17 -15.2894)
(1.26274e-16 -3.92827e-16 -16.1787)
(2.4155e-16 -2.39525e-16 -17.0206)
(-8.56781e-17 5.50309e-17 -17.8531)
(2.176e-17 -6.29482e-17 -18.6502)
(7.24325e-17 -1.69291e-16 -19.3651)
(3.07959e-17 -9.78491e-17 -20.0771)
(-2.15479e-17 5.31349e-17 -20.6952)
(8.98979e-18 -5.18856e-17 -21.2697)
(-7.10096e-17 2.51343e-16 -21.7744)
(3.15916e-17 6.74102e-18 -22.2085)
(-4.43097e-18 1.1616e-18 -22.5729)
(-1.26597e-17 5.95419e-17 -22.8655)
(-3.88657e-17 2.22085e-16 -23.0606)
(-1.75464e-19 -3.07896e-18 -23.1878)
(6.71546e-18 -1.08322e-16 -23.1768)
(-3.46079e-18 6.97244e-17 -23.0737)
(-1.31057e-18 -4.29977e-17 -22.8087)
(1.03125e-17 1.25734e-16 -22.3869)
(6.10994e-18 6.01805e-17 -21.8009)
(-2.32967e-17 -1.33508e-16 -21.0275)
(-3.88383e-17 -2.19174e-16 -20.0942)
(1.56372e-17 6.82218e-17 -18.9926)
(-4.40913e-17 -1.8186e-16 -17.7627)
(2.5706e-17 8.43212e-17 -16.4276)
(1.06154e-17 2.21686e-17 -15.0222)
(1.97972e-17 5.91079e-17 -13.5773)
(-6.6329e-18 -1.75312e-17 -12.1298)
(3.88158e-17 6.76851e-17 -10.7548)
(-9.15992e-18 -3.87778e-17 -9.48411)
(-1.42941e-18 3.14965e-17 -8.50445)
(5.52041e-18 1.02884e-17 -7.80531)
(9.58526e-18 2.78978e-17 -7.33077)
(-1.49125e-18 4.3443e-19 -7.05487)
(2.03888e-18 2.07946e-17 -6.97701)
(-4.08516e-18 -2.8865e-17 -7.07263)
(1.89735e-18 4.74586e-19 -7.29541)
(1.64179e-18 -8.46267e-19 -7.59072)
(3.71727e-19 1.10535e-18 -7.90744)
(-3.65942e-19 1.71379e-17 -8.21249)
(8.51312e-20 -2.09322e-18 -8.4936)
(2.39215e-18 1.48854e-19 -8.74622)
(-2.40846e-18 9.26144e-19 -8.96914)
(-1.38248e-19 -2.11524e-18 -9.16363)
(-2.04587e-18 -2.33667e-17 -9.33258)
(3.03347e-18 2.42077e-17 -9.47944)
(-6.32648e-19 2.06502e-17 -9.60746)
(-5.87222e-19 -2.44114e-17 -9.71916)
(6.36382e-20 9.2927e-19 -9.81594)
(-5.79792e-19 1.20762e-18 -9.89798)
(4.81483e-19 2.4116e-19 -9.96436)
(1.97422e-19 1.08334e-17 -10.0135)
(5.92941e-19 -5.59823e-19 -10.0437)
(-6.46762e-19 -1.33667e-17 -10.0538)
(-3.3365e-19 -3.15423e-18 -10.0433)
(4.18027e-19 -1.13117e-18 -10.0129)
(-2.88484e-19 1.24562e-18 -9.96477)
(2.74504e-19 -4.82267e-20 -9.90168)
(-7.33843e-20 -1.25606e-18 -9.82718)
(2.27442e-19 -5.59673e-18 -9.74503)
(6.99094e-21 4.62003e-18 -9.65877)
(-1.44546e-19 5.41746e-18 -9.57151)
(1.0072e-19 -6.68878e-18 -9.48567)
(5.03744e-21 5.15749e-20 -9.40296)
(6.70027e-21 -1.53677e-18 -9.32438)
(3.03278e-20 -2.67127e-18 -9.25032)
(1.52515e-20 -1.31023e-18 -9.18081)
(-2.35845e-21 1.32305e-18 -9.11529)
(6.69093e-21 -1.07862e-18 -9.06181)
(0 -0 3.61035)
(9.03243e-19 -0 3.04072)
(-8.81005e-19 -1.62904e-18 1.87605)
(6.71886e-19 -2.84515e-18 0.0297056)
(-6.81761e-19 6.10092e-18 -1.72565)
(2.39962e-20 -1.62673e-18 -3.2788)
(3.36771e-18 -0 -4.56023)
(-3.37365e-18 -0 -5.46161)
(1.81197e-19 -0 -6.08478)
(-4.0034e-19 -0 -6.50304)
(-7.07785e-18 6.41583e-18 -6.75558)
(6.62881e-18 9.56234e-18 -6.89926)
(7.80485e-18 -1.6006e-17 -6.97569)
(-7.3837e-19 9.09365e-18 -7.01265)
(9.52087e-19 -3.07791e-17 -7.02893)
(-7.51098e-18 3.45566e-17 -7.03629)
(-7.3409e-18 2.04644e-18 -7.04096)
(7.82723e-18 -2.13117e-17 -7.04534)
(-3.41029e-19 6.42186e-18 -7.04966)
(7.32589e-18 -1.27535e-17 -7.05311)
(-6.59382e-18 -1.56402e-17 -7.05457)
(-1.57223e-18 4.11723e-17 -7.05302)
(-3.38924e-20 -5.61153e-20 -7.04764)
(1.01533e-18 1.45703e-17 -7.03782)
(1.38431e-17 -4.00409e-17 -7.02306)
(-1.40249e-17 1.27481e-17 -7.00284)
(-1.20369e-17 -1.27303e-17 -6.97657)
(1.22698e-18 -2.54756e-17 -6.94342)
(2.41146e-17 2.60765e-17 -6.90227)
(-1.55463e-17 3.77028e-17 -6.85153)
(2.89715e-18 -1.48498e-17 -6.78903)
(-1.068e-17 -4.63286e-17 -6.71146)
(9.9827e-18 3.63701e-17 -6.61668)
(1.46554e-17 -1.97118e-17 -6.50495)
(-1.83577e-17 4.57705e-17 -6.37053)
(2.79901e-17 -2.95112e-18 -6.20735)
(-1.03389e-16 -1.00114e-16 -6.0501)
(-8.45582e-17 -1.62892e-16 -5.98306)
(1.50299e-16 -1.89232e-17 -6.05504)
(5.00764e-17 1.13545e-16 -6.268)
(-2.45119e-17 1.70994e-16 -6.59435)
(-9.38758e-18 2.37829e-16 -6.96893)
(1.86776e-16 -5.83774e-16 -7.41292)
(4.30214e-17 -2.87954e-16 -7.92573)
(1.93426e-17 2.30896e-16 -8.48245)
(-8.5728e-17 -1.06e-16 -9.07537)
(-1.76948e-16 2.11439e-16 -9.68167)
(-4.62737e-17 -2.88072e-17 -10.3206)
(-1.64281e-16 1.94172e-16 -10.9644)
(-3.26946e-17 -1.42815e-16 -11.6096)
(1.96956e-16 -1.78594e-16 -12.27)
(-4.6291e-17 3.42108e-17 -12.9291)
(-1.0096e-16 3.86594e-16 -13.5949)
(-1.24482e-16 1.87068e-16 -14.2593)
(-6.47363e-17 2.44118e-16 -14.927)
(-2.8793e-17 1.22524e-16 -15.5934)
(-3.96912e-17 -9.95404e-18 -16.2507)
(-4.98838e-18 -4.40131e-17 -16.9044)
(2.90863e-18 -3.41586e-17 -17.5084)
(6.76964e-18 -5.46538e-17 -18.0885)
(-1.06659e-17 -3.43748e-17 -18.5806)
(2.05549e-17 -1.21029e-17 -18.9674)
(-3.98483e-17 -1.3821e-16 -19.2256)
(1.1659e-17 5.524e-17 -19.3153)
(1.65031e-17 4.52536e-16 -19.2592)
(9.70851e-17 1.99449e-16 -19.0098)
(-2.63751e-18 3.29004e-17 -18.6242)
(1.02509e-17 -1.07853e-17 -18.0734)
(-3.81426e-17 4.5643e-17 -17.4162)
(8.95583e-17 1.76379e-16 -16.6595)
(1.91341e-17 -1.08818e-16 -15.8257)
(-7.30757e-17 -2.61396e-16 -14.9616)
(5.55839e-17 2.64077e-16 -14.0562)
(-9.60349e-17 -2.68488e-16 -13.1463)
(-7.99279e-17 1.19537e-16 -12.2417)
(3.68979e-18 -6.29919e-17 -11.3447)
(5.98691e-18 -1.68483e-16 -10.4719)
(-6.27976e-18 -2.87661e-17 -9.63115)
(8.09773e-17 -2.5813e-16 -8.8246)
(7.55497e-17 -1.21511e-16 -8.06106)
(-2.85611e-16 2.73262e-16 -7.34694)
(-2.35332e-17 5.14599e-17 -6.68397)
(3.25734e-17 -1.90553e-16 -6.07592)
(-7.0147e-17 1.17544e-16 -5.52338)
(-2.17901e-19 -7.49997e-17 -5.02351)
(-1.60515e-16 1.44366e-16 -4.5759)
(1.72734e-16 3.45228e-16 -4.17664)
(3.32858e-17 1.058e-16 -3.81856)
(-3.86774e-17 -1.47387e-16 -3.50202)
(-1.78162e-16 -6.95474e-19 -3.22215)
(-2.69083e-17 1.4285e-17 -2.97394)
(1.32228e-18 2.49224e-19 -2.75906)
(2.91422e-17 -1.11174e-17 -2.5744)
(-4.02656e-18 -3.34012e-17 -2.41659)
(-5.23081e-17 5.91845e-18 -2.28937)
(-2.08447e-18 3.08321e-17 -2.18544)
(2.47798e-17 -1.40748e-17 -2.10974)
(-7.84054e-17 -1.10913e-17 -2.05488)
(-4.56101e-17 2.44673e-20 -2.02449)
(-2.24933e-18 2.44381e-17 -2.01205)
(1.16001e-17 -4.38436e-18 -2.02067)
(-1.14405e-17 9.65373e-18 -2.04471)
(7.48274e-18 -1.26975e-18 -2.08539)
(2.91726e-21 -1.08286e-18 -2.14025)
(6.08031e-20 1.20639e-17 -2.20859)
(-2.47278e-17 1.9551e-17 -2.29065)
(4.58336e-19 2.45574e-17 -2.38513)
(-2.48286e-17 -6.95168e-17 -2.49254)
(-2.19452e-17 -4.52997e-17 -2.61242)
(4.6347e-17 1.0484e-16 -2.74496)
(-1.86499e-18 -2.96114e-17 -2.89033)
(6.2485e-19 -7.40223e-19 -3.04874)
(4.34396e-19 3.11069e-17 -3.22166)
(-3.50017e-17 1.6764e-17 -3.40735)
(4.90559e-17 4.3032e-18 -3.61227)
(1.41169e-18 -2.70405e-17 -3.83078)
(-6.28897e-17 -2.06146e-16 -4.07063)
(1.06739e-16 -5.62461e-17 -4.33255)
(5.32177e-17 4.00448e-16 -4.61584)
(-1.25613e-16 -5.33831e-17 -4.92737)
(1.87404e-16 -2.18053e-16 -5.26845)
(-4.76118e-18 -1.17652e-16 -5.63808)
(-1.36604e-16 2.66512e-16 -6.04186)
(-1.55449e-16 2.55042e-16 -6.48132)
(-1.75734e-16 6.68685e-17 -6.9525)
(1.77505e-16 8.8518e-17 -7.45867)
(-3.46982e-17 3.09678e-17 -7.99679)
(5.1071e-17 8.95156e-17 -8.56316)
(-2.23993e-16 3.51041e-16 -9.15531)
(-2.45645e-16 2.37024e-16 -9.76789)
(-1.90982e-16 2.0097e-16 -10.3874)
(-5.94761e-18 9.39595e-19 -11.0198)
(-2.73088e-16 3.73982e-16 -11.6555)
(-2.75735e-17 -1.19209e-16 -12.2675)
(-8.66817e-17 1.90558e-16 -12.8783)
(-3.54589e-17 3.89321e-17 -13.4674)
(-2.23446e-17 -4.5838e-17 -14.0144)
(-1.27611e-16 2.82601e-16 -14.5561)
(3.26983e-17 -6.48226e-17 -15.0483)
(-1.13241e-16 3.37642e-16 -15.5162)
(1.99698e-16 -6.26975e-16 -15.9519)
(1.39402e-16 -5.37694e-16 -16.3579)
(6.61295e-17 -2.87059e-16 -16.7423)
(6.67239e-18 7.95842e-18 -17.1055)
(-6.56737e-18 9.47617e-17 -17.4461)
(3.14199e-18 3.90618e-18 -17.771)
(8.46122e-19 -3.71555e-17 -18.0595)
(-3.43599e-18 1.19972e-16 -18.3203)
(8.16149e-19 -6.67374e-17 -18.5088)
(5.64943e-18 1.37552e-16 -18.614)
(-1.05014e-17 -1.05357e-16 -18.6097)
(1.15756e-18 -1.22367e-18 -18.4685)
(4.25759e-17 2.31852e-16 -18.1801)
(-1.92394e-17 -9.62263e-17 -17.7214)
(3.61105e-17 1.54046e-16 -17.0984)
(1.00904e-17 4.06205e-17 -16.315)
(-5.65013e-17 -1.98973e-16 -15.3881)
(1.37277e-17 3.31641e-17 -14.3362)
(-5.32128e-19 -3.88481e-18 -13.1934)
(-3.5361e-17 -9.99341e-17 -12.033)
(-4.37456e-18 7.00992e-18 -10.8425)
(5.20882e-18 -8.8449e-19 -9.76148)
(1.54691e-18 -2.52554e-18 -8.8802)
(-2.30899e-18 -3.0688e-17 -8.20979)
(-4.0887e-19 1.76724e-18 -7.74177)
(1.56062e-18 -2.6181e-18 -7.47442)
(-1.51352e-18 1.96128e-17 -7.37936)
(-2.59421e-18 -1.98851e-17 -7.42197)
(-1.48254e-18 -2.19694e-17 -7.56187)
(1.42313e-18 -2.07333e-18 -7.75164)
(1.52823e-18 2.37418e-17 -7.9497)
(-6.40019e-19 -5.58901e-18 -8.1303)
(-1.53139e-18 -2.515e-17 -8.27833)
(1.53305e-18 2.72008e-17 -8.38631)
(4.27873e-19 2.97332e-18 -8.45349)
(-2.18321e-18 2.92981e-18 -8.48434)
(1.92755e-18 -8.7639e-19 -8.48673)
(-2.08152e-19 -2.88963e-17 -8.47009)
(4.69564e-19 3.03667e-17 -8.44381)
(-2.43169e-19 -6.96715e-19 -8.41599)
(6.45121e-19 4.26202e-18 -8.39247)
(-3.79836e-19 -1.72178e-19 -8.37639)
(-2.89131e-21 -4.61176e-18 -8.36831)
(2.97194e-19 -1.5421e-17 -8.36657)
(-6.65532e-19 1.60913e-17 -8.3681)
(1.59211e-20 3.12433e-18 -8.3692)
(-3.21571e-20 -4.34467e-18 -8.36638)
(-7.07785e-20 2.35516e-19 -8.35671)
(-1.43866e-19 1.50505e-17 -8.33827)
(1.01378e-19 -1.53916e-17 -8.31023)
(-8.67215e-20 -3.98081e-18 -8.27273)
(3.41891e-19 -7.24309e-18 -8.22656)
(-2.10749e-19 7.33099e-18 -8.17291)
(7.0055e-20 -7.19517e-18 -8.11315)
(-1.21573e-19 7.20514e-18 -8.0487)
(-9.34764e-21 3.08659e-18 -7.98098)
(-6.38165e-20 3.48008e-18 -7.91135)
(1.91263e-20 -1.76374e-18 -7.84127)
(6.06372e-20 -5.53551e-18 -7.77202)
(-2.6092e-21 6.2084e-21 -7.70136)
(0 -0 2.34673)
(0 -0 2.34404)
(1.4605e-20 -1.65015e-18 2.11893)
(5.86777e-19 -2.78059e-18 1.5232)
(-6.13961e-19 6.06991e-18 0.765879)
(8.05611e-20 -4.82429e-18 -0.215262)
(4.32254e-18 -6.08467e-18 -1.14101)
(-7.88359e-18 1.56181e-17 -1.97623)
(2.83543e-18 -2.63394e-19 -2.69989)
(1.41543e-18 -1.84294e-17 -3.31008)
(-8.44075e-19 1.55085e-17 -3.74237)
(6.91783e-18 -3.16398e-18 -4.07733)
(-1.31735e-17 -6.27464e-18 -4.33528)
(1.41277e-17 -1.76905e-17 -4.52956)
(-1.45473e-17 1.89764e-17 -4.68137)
(5.86526e-18 2.86578e-17 -4.80607)
(1.51379e-18 -2.9941e-17 -4.91352)
(-6.35954e-19 6.272e-18 -5.00959)
(3.48491e-19 -6.21699e-18 -5.09733)
(6.62101e-18 -1.05807e-17 -5.17803)
(-8.05573e-18 2.30249e-17 -5.252)
(1.09495e-18 -6.22726e-18 -5.31923)
(-1.36353e-17 1.23661e-17 -5.37973)
(1.4052e-17 7.58004e-18 -5.43363)
(1.78786e-18 -6.42577e-17 -5.48122)
(-4.10443e-18 6.90303e-17 -5.52284)
(-6.08997e-19 1.8699e-17 -5.55883)
(2.0518e-18 -3.7547e-17 -5.58942)
(-1.01552e-17 -4.82789e-17 -5.61468)