/*--------------------------------*- C++ -*----------------------------------*\
| =========                 |                                                 |
| \\      /  F ield         | OpenFOAM: The Open Source CFD Toolbox           |
|  \\    /   O peration     | Version:  2506                                  |
|   \\  /    A nd           | Website:  www.openfoam.com                      |
|    \\/     M anipulation  |                                                 |
\*---------------------------------------------------------------------------*/
FoamFile
{
    version     2.0;
    format      ascii;
    arch        "LSB;label=32;scalar=64";
    class       volVectorField;
    location    "2.3";
    object      U;
}
// * * * * * * * * * * * * * * * * * * * * * * * * * * * * * * * * * * * * * //

dimensions      [0 1 -1 0 0 0 0];

internalField   nonuniform List<vector> 
4000
(
(0.0055624 0.000667756 0)
(0.00438229 0.000764107 3.38942e-21)
(0.00303506 0.000449923 -3.4928e-21)
(0.00196206 0.000239309 -7.11652e-21)
(0.00125596 0.000136443 1.44319e-20)
(0.000773772 7.99703e-05 -7.28321e-21)
(0.000420997 4.77941e-05 0)
(0.000155678 2.92187e-05 0)
(-4.88128e-05 1.74378e-05 0)
(-0.00020926 9.12855e-06 -1.44542e-20)
(-0.000337289 2.76297e-06 1.44216e-20)
(-0.000440632 -2.32547e-06 -2.85202e-20)
(-0.000524714 -6.43529e-06 2.84773e-20)
(-0.00059371 -9.80116e-06 0)
(-0.000650963 -1.25982e-05 0)
(-0.000699302 -1.49688e-05 0)
(-0.00074062 -1.70125e-05 -2.76793e-20)
(-0.000776895 -1.8807e-05 2.76599e-20)
(-0.000809328 -2.04221e-05 0)
(-0.000839243 -2.19107e-05 0)
(-0.000867483 -2.33288e-05 0)
(-0.000894676 -2.47191e-05 0)
(-0.000921264 -2.61069e-05 0)
(-0.000947527 -2.75108e-05 -5.32063e-20)
(-0.000973619 -2.89513e-05 1.06082e-19)
(-0.000999491 -3.04508e-05 -5.28758e-20)
(-0.00102497 -3.20295e-05 0)
(-0.00104964 -3.37127e-05 0)
(-0.00107298 -3.554e-05 0)
(-0.00109403 -3.75841e-05 0)
(-0.00111113 -3.99582e-05 5.11721e-20)
(-0.00112075 -4.32343e-05 -5.11637e-20)
(-0.00111807 -4.9615e-05 0)
(-0.0010918 -6.16883e-05 -4.41369e-20)
(-0.00104101 -9.83082e-05 -5.00684e-20)
(-0.000976894 -0.000156631 2.51808e-19)
(-0.000904924 -0.000210313 2.02192e-19)
(-0.000821492 -0.000244837 -5.11107e-20)
(-0.000723561 -0.000255086 2.05804e-19)
(-0.000614712 -0.000235072 4.67206e-19)
(-0.00047932 -0.000178117 -5.25518e-20)
(-0.000322887 -8.36166e-05 -4.21702e-19)
(-0.000154769 2.92493e-05 4.23453e-19)
(1.47555e-05 0.000139788 0)
(0.000173259 0.000238209 0)
(0.000316052 0.0003207 2.6347e-20)
(0.000448088 0.000387093 3.94906e-19)
(0.000560349 0.000433536 3.94517e-19)
(0.000653762 0.000460967 2.3638e-19)
(0.000730492 0.00046968 2.09356e-19)
(0.00078162 0.000459244 -2.08614e-19)
(0.000813326 0.000433186 0)
(0.000813947 0.000390339 2.58239e-20)
(0.000786726 0.000335548 -4.3886e-19)
(0.000726453 0.000270531 0)
(0.000630624 0.000198092 1.0219e-19)
(0.000503744 0.000125226 2.52508e-20)
(0.000337651 5.87875e-05 -8.74121e-25)
(0.000149944 5.77383e-06 2.64652e-22)
(-6.4497e-05 -2.47851e-05 1.26574e-20)
(-0.000293307 -3.25946e-05 -2.42606e-20)
(-0.000517193 -1.20029e-05 0)
(-0.000734626 3.27753e-05 0)
(-0.000935437 9.78523e-05 -4.59873e-20)
(-0.00111238 0.000180865 -3.17889e-19)
(-0.00127071 0.000271986 -4.42875e-20)
(-0.00139971 0.000371384 4.4346e-20)
(-0.00151365 0.0004695 -4.26438e-20)
(-0.00160325 0.000566864 -1.26056e-19)
(-0.00167964 0.000656893 2.89519e-19)
(-0.00174406 0.000741265 4.08081e-20)
(-0.00179291 0.000818591 -9.45093e-22)
(-0.00183565 0.000886819 0)
(-0.00186768 0.000947481 0)
(-0.00188965 0.000998211 0)
(-0.00190521 0.00103917 1.84852e-20)
(-0.0019128 0.00107111 2.74039e-19)
(-0.00191142 0.00109319 0)
(-0.0019041 0.00110592 -1.00426e-21)
(-0.00189121 0.00111056 -1.7321e-20)
(-0.0018729 0.00110756 2.74285e-19)
(-0.00185108 0.00109785 -2.4545e-19)
(-0.00182668 0.00108254 -7.50902e-23)
(-0.0018009 0.00106234 -2.65739e-19)
(-0.00177626 0.00103841 -1.19424e-21)
(-0.00175208 0.00101138 2.51622e-19)
(-0.00172824 0.000980722 2.51671e-19)
(-0.00170859 0.000947471 -2.52285e-19)
(-0.00169067 0.000912097 3.79483e-21)
(-0.00167258 0.000873015 2.38225e-19)
(-0.00165919 0.000830897 0)
(-0.00164667 0.000786314 2.37861e-19)
(-0.00163358 0.000737356 2.19909e-19)
(-0.00162447 0.000684954 -2.23537e-19)
(-0.00161261 0.000628766 1.23863e-19)
(-0.00160433 0.00056803 -1.35578e-20)
(-0.00159364 0.000504025 -1.06754e-19)
(-0.00158474 0.000435762 -1.30919e-20)
(-0.00157268 0.000364952 -9.07522e-20)
(-0.00156249 0.000290444 -6.3954e-20)
(-0.00155066 0.000215458 2.53068e-20)
(-0.00153765 0.000138409 -6.27279e-20)
(-0.00152611 6.21936e-05 6.24007e-21)
(-0.00151097 -1.15968e-05 6.20918e-21)
(-0.00149504 -8.37172e-05 2.4718e-20)
(-0.0014767 -0.000151938 0)
(-0.00145501 -0.000217479 0)
(-0.00143295 -0.000276791 1.95153e-19)
(-0.00140534 -0.000329975 6.22145e-21)
(-0.00137495 -0.000375772 -1.03127e-19)
(-0.00133983 -0.000413362 -1.00333e-19)
(-0.00130003 -0.000441917 -3.1462e-21)
(-0.00125436 -0.000461378 1.04706e-19)
(-0.00120391 -0.000470487 2.22455e-22)
(-0.00114515 -0.000470427 0)
(-0.0010838 -0.000460272 -2.0566e-19)
(-0.00101476 -0.000440223 6.42423e-21)
(-0.00094042 -0.000411553 1.93459e-19)
(-0.000862156 -0.000374433 6.50656e-21)
(-0.000778868 -0.00032989 2.07729e-19)
(-0.000692026 -0.000278894 6.47422e-22)
(-0.000603059 -0.000222566 -2.08015e-19)
(-0.000512965 -0.000162408 -1.29386e-20)
(-0.000421912 -9.97923e-05 2.33787e-19)
(-0.000331955 -3.60535e-05 -1.30305e-20)
(-0.000243331 2.75298e-05 -2.07125e-19)
(-0.000156676 8.97365e-05 -2.56981e-20)
(-7.3421e-05 0.000149177 2.58798e-20)
(5.53843e-06 0.000205431 -2.05181e-19)
(8.2094e-05 0.000258099 1.77913e-19)
(0.000153361 0.000305427 2.54643e-20)
(0.000219371 0.000346801 3.76583e-19)
(0.00028366 0.000382529 2.51065e-20)
(0.000341267 0.000410757 1.98143e-19)
(0.000391559 0.000431248 -7.41767e-22)
(0.000441685 0.000444805 0)
(0.000479706 0.000448848 0)
(0.000511527 0.000443843 3.7019e-22)
(0.000532701 0.000429669 0)
(0.000540638 0.000405564 2.32375e-20)
(0.00053264 0.000372498 6.89298e-20)
(0.000503302 0.000330361 2.26438e-20)
(0.000446442 0.00028181 4.47674e-20)
(0.000364158 0.000231125 2.24332e-20)
(0.000244896 0.000183622 6.51956e-20)
(0.00010205 0.00014018 -2.15498e-20)
(-7.76912e-05 0.000109846 0)
(-0.000281819 9.4716e-05 0)
(-0.000499121 0.000101695 0)
(-0.000724714 0.000132532 1.88345e-20)
(-0.000944405 0.000183548 -1.87564e-20)
(-0.00115108 0.000258261 -7.14224e-20)
(-0.00133952 0.000344823 -6.89493e-20)
(-0.0014996 0.000446706 0)
(-0.00163742 0.000550108 6.41964e-20)
(-0.00174434 0.000657725 0)
(-0.00183295 0.000757818 1.4542e-20)
(-0.00189323 0.000851375 -7.23458e-20)
(-0.00190928 0.00090902 1.37158e-20)
(-0.00185155 0.000879796 -2.29392e-19)
(-0.00189393 0.000774187 5.18721e-20)
(-0.00196926 0.000688617 5.0313e-20)
(-0.00201264 0.000585015 0)
(-0.00202131 0.000463321 0)
(-0.00201188 0.000331512 0)
(-0.00199007 0.000205492 0)
(-0.00196009 0.000104388 0)
(-0.00189788 5.48691e-05 -1.00128e-20)
(-0.00177596 3.59811e-05 3.51008e-22)
(-0.00162733 2.69073e-05 3.46326e-22)
(-0.00148156 2.32705e-05 9.42001e-21)
(-0.00135357 2.29805e-05 0)
(-0.00125029 2.41778e-05 -8.44284e-21)
(-0.00117309 2.56945e-05 8.44431e-21)
(-0.00112041 2.68679e-05 -2.48631e-22)
(-0.00108931 2.74987e-05 0)
(-0.0010755 2.8325e-05 0)
(-0.00107376 2.93093e-05 6.86749e-21)
(-0.00107951 2.98374e-05 -6.85627e-21)
(-0.00108886 2.9915e-05 0)
(-0.00109867 2.91895e-05 0)
(-0.00110688 2.77322e-05 2.61421e-21)
(-0.00111183 2.59189e-05 -1.56832e-22)
(-0.00111246 2.38114e-05 -2.62823e-21)
(-0.00110881 2.15664e-05 0)
(-0.00110159 1.939e-05 0)
(-0.00109179 1.74276e-05 0)
(-0.00108079 1.5449e-05 0)
(-0.0010704 1.35313e-05 -1.09024e-22)
(-0.00106213 1.19348e-05 0)
(-0.00105709 1.08742e-05 0)
(-0.00105605 1.03589e-05 0)
(-0.00105935 1.03092e-05 -5.24319e-22)
(-0.00106706 1.02493e-05 5.23389e-22)
(-0.00107923 1.008e-05 0)
(-0.00109552 9.82172e-06 -4.17627e-23)
(-0.00111528 9.47934e-06 -1.11689e-22)
(-0.00113848 9.03718e-06 7.41389e-23)
(-0.00116838 9.62476e-06 3.72364e-23)
(-0.00120408 1.45636e-05 0)
(0.00725968 0.0013154 0)
(0.00717874 0.002059 0)
(0.00660216 0.00175685 0)
(0.0057283 0.00135592 -7.08861e-21)
(0.00485257 0.00100633 1.44504e-20)
(0.00408018 0.000743377 -7.34941e-21)
(0.00342578 0.000557769 0)
(0.00288161 0.000427432 -1.49485e-20)
(0.00243384 0.000333692 1.51122e-20)
(0.00206578 0.000264645 -1.51115e-20)
(0.00176225 0.000212381 1.52233e-20)
(0.00151104 0.000172 3.03483e-20)
(0.00130225 0.000140671 -3.05021e-20)
(0.00112747 0.000116463 -3.03389e-20)
(0.000979666 9.79052e-05 1.47651e-22)
(0.000852976 8.38385e-05 6.06293e-20)
(0.000742513 7.34142e-05 -3.03178e-20)
(0.000644162 6.59389e-05 0)
(0.00055453 6.08129e-05 0)
(0.000470784 5.75447e-05 0)
(0.000390652 5.56647e-05 0)
(0.000312326 5.47785e-05 0)
(0.000234406 5.45687e-05 0)
(0.000155849 5.47656e-05 0)
(7.59059e-05 5.51127e-05 0)
(-5.90006e-06 5.53572e-05 0)
(-8.98114e-05 5.52385e-05 0)
(-0.0001758 5.446e-05 0)
(-0.000263581 5.26043e-05 0)
(-0.000352516 4.90115e-05 0)
(-0.000441535 4.25874e-05 5.65705e-20)
(-0.00052868 3.11823e-05 -2.75766e-22)
(-0.000609449 1.0183e-05 -1.11932e-19)
(-0.00069334 -2.61154e-05 4.8799e-20)
(-0.000757255 -0.000105772 5.51499e-20)
(-0.000729049 -0.00021816 -1.65561e-19)
(-0.000599468 -0.000305205 2.22239e-19)
(-0.00040495 -0.000338146 5.62e-20)
(-0.00015912 -0.000304666 -5.73059e-19)
(0.000132883 -0.000194889 -1.74616e-19)
(0.000501137 -2.09493e-06 0)
(0.00091678 0.000262247 -5.82073e-20)
(0.00133344 0.000549402 -3.48232e-19)
(0.00173394 0.000822562 -5.80226e-20)
(0.00210831 0.00106474 -4.60956e-19)
(0.00245317 0.0012675 4.5954e-19)
(0.00277617 0.00142938 -7.60817e-22)
(0.00306377 0.00154419 0)
(0.00331713 0.00161272 2.28306e-19)
(0.0035381 0.00163496 0)
(0.00371361 0.00161063 3.64207e-22)
(0.00384809 0.00154567 0)
(0.00392069 0.00143808 2.25445e-19)
(0.00393513 0.00129638 2.2488e-19)
(0.00387476 0.00112478 0)
(0.00373543 0.000932191 -1.04095e-22)
(0.0035206 0.000731938 -1.10963e-19)
(0.00321331 0.000537021 -2.75034e-20)
(0.00284433 0.000363371 -5.4767e-20)
(0.00239642 0.000227759 1.38467e-20)
(0.0018951 0.000135324 0)
(0.00137016 9.95476e-05 -1.08978e-19)
(0.000827806 0.00011961 5.46392e-20)
(0.000297172 0.000190696 1.07938e-19)
(-0.000209158 0.000311869 3.19566e-19)
(-0.000681394 0.000465548 5.23731e-20)
(-0.00110263 0.000651011 -2.53642e-19)
(-0.00148624 0.000849199 4.99559e-20)
(-0.00181656 0.00105663 0)
(-0.00210761 0.00126032 -4.71559e-20)
(-0.00235484 0.00145564 4.66086e-20)
(-0.00256007 0.00164009 -1.91922e-21)
(-0.00273533 0.00180729 0)
(-0.00287575 0.00195514 3.47907e-19)
(-0.00298594 0.0020808 3.40607e-19)
(-0.00307075 0.0021824 -2.06778e-20)
(-0.00313001 0.0022604 2.047e-20)
(-0.00316613 0.0023147 -1.98517e-20)
(-0.00318318 0.00234579 3.11984e-19)
(-0.00318267 0.00235568 -2.88351e-19)
(-0.00316697 0.00234652 3.01691e-19)
(-0.00313961 0.00232063 3.03258e-19)
(-0.00310292 0.00228083 -1.80975e-20)
(-0.00305996 0.0022297 2.93748e-19)
(-0.00301439 0.00216969 -2.75662e-19)
(-0.0029671 0.00210262 2.72057e-19)
(-0.00291962 0.00202936 -2.69092e-19)
(-0.00287574 0.00195028 2.6259e-19)
(-0.00283361 0.00186598 8.04757e-21)
(-0.0027934 0.00177588 -7.95574e-21)
(-0.00275795 0.00167945 0)
(-0.00272355 0.00157691 0)
(-0.0026904 0.00146777 -1.2002e-19)
(-0.00266065 0.00135117 1.31945e-19)
(-0.00262861 0.00122824 -1.15353e-19)
(-0.00260016 0.00109822 -2.83391e-20)
(-0.00256773 0.000962946 -2.24109e-22)
(-0.00253656 0.00082087 7.44014e-23)
(-0.00250105 0.000674871 2.42984e-19)
(-0.00246618 0.000523525 3.98525e-20)
(-0.00242709 0.000371418 -5.26692e-20)
(-0.00238559 0.000217569 5.21261e-20)
(-0.0023396 6.64468e-05 0)
(-0.00228845 -8.01106e-05 6.42243e-21)
(-0.00223263 -0.000221421 -6.44339e-21)
(-0.0021707 -0.000353764 0)
(-0.00209955 -0.000477383 0)
(-0.00202031 -0.000587333 -1.03662e-19)
(-0.00193007 -0.000682978 1.04122e-19)
(-0.00182909 -0.000760531 -1.08126e-19)
(-0.00171593 -0.000819202 2.11722e-19)
(-0.00159086 -0.000857515 2.15664e-23)
(-0.00145202 -0.000874819 3.37845e-21)
(-0.00130308 -0.000869481 1.08937e-19)
(-0.0011389 -0.000841413 0)
(-0.000965517 -0.000789922 0)
(-0.00078078 -0.000716889 0)
(-0.000585756 -0.000623285 -2.33148e-19)
(-0.000384461 -0.000510726 -2.19645e-19)
(-0.000177179 -0.000381935 0)
(3.51997e-05 -0.000239287 2.59398e-19)
(0.000249508 -8.57245e-05 -4.31318e-20)
(0.000464062 7.50455e-05 2.8619e-20)
(0.000678683 0.000240086 -1.43267e-20)
(0.00089085 0.000405988 2.82737e-20)
(0.00109952 0.000569177 -2.26012e-19)
(0.00130384 0.000726753 1.96437e-19)
(0.00150242 0.000875708 -2.51601e-19)
(0.00169504 0.00101421 2.94572e-22)
(0.00188357 0.00114057 -1.95024e-19)
(0.00206344 0.00125137 0)
(0.0022353 0.00134494 -2.20504e-19)
(0.00240471 0.00142136 2.71301e-20)
(0.00256338 0.00147709 1.88993e-19)
(0.00271137 0.001511 -2.16281e-19)
(0.00285757 0.0015244 2.65466e-20)
(0.00298366 0.00151251 -2.67034e-20)
(0.00309624 0.00147642 2.6839e-20)
(0.00318789 0.00141563 -2.62434e-20)
(0.00325205 0.00132949 2.55465e-20)
(0.00328222 0.00121751 -1.27892e-19)
(0.00326555 0.00108309 1.25034e-19)
(0.00319114 0.000931938 -1.24418e-19)
(0.00305838 0.00077274 0)
(0.00284186 0.00061441 -2.41292e-20)
(0.00256178 0.000464963 2.34476e-20)
(0.0021927 0.000340248 1.15571e-20)
(0.00175308 0.000247853 0)
(0.00126366 0.000201748 2.2296e-20)
(0.000725969 0.000209435 -4.3763e-20)
(0.000176665 0.000266217 0)
(-0.000376071 0.000381677 8.28807e-20)
(-0.000906166 0.000534423 1.9598e-20)
(-0.0013988 0.000731254 -1.93702e-20)
(-0.00185201 0.000944702 0)
(-0.00224578 0.00117635 -7.04932e-20)
(-0.00258984 0.00140072 6.7365e-20)
(-0.00286814 0.00161203 -6.51519e-20)
(-0.00307895 0.00175563 0)
(-0.00320594 0.00178194 1.19584e-19)
(-0.00337044 0.00160279 7.14326e-20)
(-0.00346311 0.001377 -1.23685e-19)
(-0.00350439 0.00110108 1.30216e-20)
(-0.00346579 0.000789458 -1.29002e-20)
(-0.00334548 0.000462207 -1.20839e-20)
(-0.00314097 0.000164959 -1.15083e-20)
(-0.0028545 -7.121e-05 1.02638e-20)
(-0.00249488 -0.000198151 6.97802e-22)
(-0.00210235 -0.000245612 0)
(-0.0017176 -0.000248628 -6.55783e-22)
(-0.00136924 -0.000225201 0)
(-0.00107152 -0.000187937 6.15267e-22)
(-0.000830891 -0.00014593 9.35357e-21)
(-0.000648516 -0.000105298 -9.95325e-21)
(-0.000518462 -6.97567e-05 8.30775e-22)
(-0.000431949 -4.10756e-05 -8.35246e-21)
(-0.000378896 -1.9085e-05 1.58469e-20)
(-0.000349651 -3.53667e-06 -1.5655e-20)
(-0.000334546 5.7313e-06 8.11096e-21)
(-0.000325455 9.1015e-06 0)
(-0.000316406 7.63048e-06 -3.7156e-21)
(-0.000302915 2.68601e-06 3.48839e-21)
(-0.000282436 -3.72798e-06 3.77309e-22)
(-0.000254272 -1.03652e-05 2.7545e-21)
(-0.000219361 -1.61006e-05 -2.41827e-21)
(-0.000179889 -2.00291e-05 -2.39533e-21)
(-0.000138974 -2.15881e-05 2.68013e-21)
(-9.99968e-05 -2.08014e-05 -2.30429e-21)
(-6.60558e-05 -1.77394e-05 4.02061e-21)
(-3.98818e-05 -1.25363e-05 -2.48179e-21)
(-2.36155e-05 -5.5267e-06 8.42068e-22)
(-1.85531e-05 2.73101e-06 1.77681e-22)
(-2.50842e-05 1.16052e-05 0)
(-4.28736e-05 2.01983e-05 -3.63829e-22)
(-7.06378e-05 2.80101e-05 4.97221e-22)
(-0.000106737 3.47943e-05 -2.59992e-23)
(-0.000149195 4.05962e-05 1.64755e-22)
(-0.000196566 4.58593e-05 0)
(-0.000251137 5.20714e-05 0)
(-0.000310413 6.20639e-05 1.1468e-23)
(0.00721797 0.00086192 0)
(0.00752034 0.00174574 3.43281e-21)
(0.00774323 0.00195297 -3.40786e-21)
(0.0076394 0.00184934 -6.79277e-21)
(0.00731883 0.00163299 6.85615e-21)
(0.00685835 0.00138138 0)
(0.00636546 0.00114654 0)
(0.00588669 0.000943717 0)
(0.00544545 0.000774897 1.40995e-20)
(0.00505111 0.000637859 -2.84171e-20)
(0.00470423 0.000526757 -1.41701e-20)
(0.00440214 0.000436492 2.86871e-20)
(0.0041404 0.000363805 2.86052e-20)
(0.00391342 0.000305881 -2.87659e-20)
(0.0037156 0.00026018 0)
(0.00354181 0.000224638 2.86076e-20)
(0.00338729 0.000197659 -5.72813e-20)
(0.0032477 0.000177831 2.8661e-20)
(0.00311919 0.000163891 0)
(0.00299844 0.000154787 0)
(0.00288256 0.000149553 0)
(0.0027691 0.000147332 0)
(0.00265598 0.000147396 0)
(0.00254147 0.000149118 5.61456e-20)
(0.00242417 0.000151947 -5.62709e-20)
(0.00230292 0.00015538 0)
(0.0021768 0.00015893 0)
(0.00204507 0.000162078 0)
(0.00190716 0.000164168 0)
(0.00176265 0.000164267 0)
(0.00161118 0.000160999 5.51703e-20)
(0.00145269 0.000152372 -5.53544e-20)
(0.001291 0.000135342 0)
(0.00109911 0.000104196 -3.44548e-21)
(0.000909811 4.1723e-05 0)
(0.000848388 -3.56643e-05 1.10041e-19)
(0.000946029 -7.15357e-05 -2.20389e-19)
(0.00114937 -3.54506e-05 0)
(0.00143543 8.48792e-05 4.44032e-19)
(0.00179899 0.000295353 -2.885e-22)
(0.00226988 0.000597397 5.56954e-20)
(0.0028079 0.000967159 -5.57838e-20)
(0.00334901 0.00135209 4.42956e-19)
(0.00387342 0.00171536 0)
(0.00437327 0.00203814 4.93561e-19)
(0.00484536 0.00231037 -4.64725e-19)
(0.00529645 0.00252853 -4.62869e-19)
(0.0057128 0.00268586 0)
(0.00609405 0.00278203 -2.1606e-19)
(0.00644062 0.00281449 0)
(0.00673962 0.00278287 4.29846e-19)
(0.00699188 0.00269205 0)
(0.00717559 0.00253894 -1.87077e-19)
(0.00729202 0.00233181 -2.38774e-19)
(0.00732174 0.0020751 -2.10724e-19)
(0.00725675 0.00178196 -1.04873e-19)
(0.00709464 0.00146597 -1.04166e-19)
(0.00681325 0.00114102 -5.1838e-20)
(0.0064393 0.000827554 2.59279e-20)
(0.00594521 0.000541698 3.86634e-20)
(0.00535774 0.0002988 0)
(0.00470065 0.000116123 1.02201e-19)
(0.00398453 1.72151e-06 -1.02003e-19)
(0.00324599 -4.31345e-05 0)
(0.0024991 -1.52375e-05 -4.0692e-19)
(0.001769 7.15856e-05 0)
(0.00107697 0.000215546 -5.03137e-20)
(0.000430186 0.00039649 5.06564e-20)
(-0.000153535 0.000607317 0)
(-0.000680878 0.000832348 -4.83936e-20)
(-0.00114479 0.00105951 4.7682e-20)
(-0.00154797 0.00128327 5.08619e-19)
(-0.0018992 0.00149175 -3.16462e-19)
(-0.00219335 0.00168009 1.72041e-21)
(-0.00243922 0.0018443 -3.43587e-19)
(-0.00264067 0.00198004 -2.09358e-20)
(-0.00279877 0.00208682 3.50927e-19)
(-0.00291924 0.00216484 0)
(-0.00300641 0.00221414 3.16502e-19)
(-0.00306252 0.00223664 5.99183e-19)
(-0.00309192 0.00223535 -5.77626e-19)
(-0.00309909 0.00221334 -3.07205e-19)
(-0.00308726 0.00217426 3.01153e-19)
(-0.00306056 0.00212168 -2.93986e-19)
(-0.00302332 0.00205869 0)
(-0.00297815 0.001988 -2.74337e-19)
(-0.0029287 0.00191131 -3.34321e-21)
(-0.00287861 0.00182861 -5.36707e-19)
(-0.00282732 0.00174049 -2.44048e-19)
(-0.00277695 0.00164699 -2.63434e-19)
(-0.0027289 0.00154692 0)
(-0.00268026 0.00144026 0)
(-0.00263239 0.001327 1.20268e-19)
(-0.00258544 0.00120715 0)
(-0.00253573 0.00108198 1.44731e-20)
(-0.00248672 0.000951121 -1.42958e-20)
(-0.0024336 0.000816636 1.1201e-19)
(-0.00238065 0.000677924 -1.10406e-19)
(-0.00232329 0.000537258 -9.50457e-20)
(-0.00226469 0.000394087 -1.34374e-20)
(-0.00220036 0.000251669 5.29642e-20)
(-0.00213281 0.000110306 -2.62338e-20)
(-0.00205811 -2.74397e-05 1.9532e-20)
(-0.00197697 -0.00016016 -6.50283e-21)
(-0.00188671 -0.000285969 0)
(-0.00178657 -0.000401146 -5.17805e-20)
(-0.00167408 -0.000504413 0)
(-0.00154789 -0.000591932 -1.04308e-19)
(-0.00140689 -0.000661921 -1.85402e-22)
(-0.00124959 -0.000711233 1.02685e-19)
(-0.00107524 -0.000737703 -1.06916e-19)
(-0.000883998 -0.000739232 3.38033e-21)
(-0.000674726 -0.000714309 0)
(-0.000451451 -0.000661608 -1.09814e-19)
(-0.000210182 -0.000581211 1.11036e-19)
(4.42917e-05 -0.000472472 0)
(0.000310193 -0.000337545 -6.96472e-21)
(0.000587694 -0.000177565 2.29803e-19)
(0.000872596 4.97066e-06 2.0925e-19)
(0.0011633 0.000206478 -2.07407e-19)
(0.00145935 0.000423808 2.20518e-19)
(0.00175726 0.000652923 1.36953e-20)
(0.00205483 0.000889125 -2.05139e-19)
(0.00235219 0.00112831 -2.74044e-20)
(0.00264721 0.00136619 -2.4366e-19)
(0.00293871 0.00159824 4.86356e-19)
(0.0032262 0.00182051 -2.42675e-19)
(0.00350859 0.00202912 1.8794e-19)
(0.00378611 0.00222083 -1.59013e-19)
(0.00406072 0.00239273 -2.63884e-19)
(0.00432839 0.00254098 -1.57134e-19)
(0.00458946 0.00266332 -2.62737e-20)
(0.0048494 0.00275897 -1.81164e-19)
(0.00509996 0.0028237 -2.32642e-19)
(0.00534124 0.00285595 2.53888e-20)
(0.00558064 0.00285616 -2.55236e-20)
(0.00580025 0.00281946 -7.52421e-20)
(0.00600462 0.00274666 -2.44256e-20)
(0.00618565 0.00263646 2.44401e-20)
(0.00633302 0.00248866 -2.45803e-20)
(0.00643972 0.00230269 9.59072e-20)
(0.00649256 0.00208242 -2.40923e-20)
(0.00647704 0.00183418 4.63656e-22)
(0.00638775 0.00156642 2.31917e-20)
(0.00619624 0.00128797 9.01917e-20)
(0.00591786 0.00101377 0)
(0.00552057 0.000758183 -4.32168e-20)
(0.00501795 0.000536904 2.69575e-20)
(0.00442731 0.000365515 -2.10029e-20)
(0.00374558 0.000257927 6.15763e-20)
(0.00301538 0.000215471 1.99539e-20)
(0.00223804 0.000250343 -7.96295e-20)
(0.00145229 0.000346307 -9.76426e-20)
(0.000682326 0.00050898 3.84954e-20)
(-5.32119e-05 0.000711942 -9.40429e-20)
(-0.000733236 0.000952307 7.18836e-20)
(-0.00135398 0.00120001 1.69993e-20)
(-0.00189309 0.00143821 6.54917e-20)
(-0.00234824 0.00161811 -1.60911e-20)
(-0.00270602 0.0016902 6.12016e-20)
(-0.0029806 0.00152697 -5.77372e-20)
(-0.00306016 0.00124612 4.18153e-20)
(-0.00305483 0.000896893 1.36343e-20)
(-0.00293093 0.000509707 2.59056e-20)
(-0.002681 0.000118832 0)
(-0.00230407 -0.000222734 2.38644e-20)
(-0.00180276 -0.000484322 -2.19196e-20)
(-0.0012257 -0.000619938 -3.07787e-22)
(-0.000664142 -0.000651472 4.01912e-22)
(-0.000147409 -0.00061719 1.06615e-21)
(0.000312048 -0.000542992 1.05025e-20)
(0.000703124 -0.000448392 -6.16901e-22)
(0.00102166 -0.000348079 0)
(0.00127007 -0.000252734 5.66153e-22)
(0.00145561 -0.000169356 -5.4265e-22)
(0.00158854 -0.000101696 -9.17772e-21)
(0.00168069 -5.12748e-05 8.6168e-21)
(0.00174392 -1.77585e-05 7.43552e-21)
(0.00178926 6.90636e-07 -7.87043e-21)
(0.00182645 5.86371e-06 0)
(0.00186343 1.42592e-06 4.09667e-22)
(0.00190567 -9.39488e-06 0)
(0.001956 -2.3123e-05 2.46771e-21)
(0.00201467 -3.65847e-05 -1.6925e-22)
(0.00208025 -4.72541e-05 -2.96441e-21)
(0.00214973 -5.32502e-05 -5.94577e-22)
(0.00221904 -5.35514e-05 -2.75935e-22)
(0.00228377 -4.77681e-05 2.54063e-22)
(0.00233971 -3.62832e-05 0)
(0.00238323 -2.01314e-05 -2.11174e-22)
(0.00241156 -7.81836e-07 -7.1868e-22)
(0.00242301 2.01244e-05 5.47827e-22)
(0.00241747 4.10912e-05 5.54466e-22)
(0.00239581 6.07979e-05 -6.81918e-22)
(0.00235988 7.81946e-05 0)
(0.00231229 9.26038e-05 -1.07867e-22)
(0.00225615 0.000103857 -1.57098e-22)
(0.00219443 0.000112361 -3.94145e-23)
(0.00212711 0.000119472 3.93765e-23)
(0.00205411 0.000129977 -1.09512e-23)
(0.00715994 0.000474377 0)
(0.00735271 0.00119804 0)
(0.00772409 0.00160659 0)
(0.00807636 0.0017619 -6.74913e-21)
(0.00827185 0.00174117 6.73522e-21)
(0.00823495 0.00163574 0)
(0.00810834 0.00147475 0)
(0.00791208 0.00129686 0)
(0.00767691 0.00112356 0)
(0.00742903 0.000966604 0)
(0.00718277 0.000827459 0)
(0.00694734 0.000706371 2.71327e-20)
(0.00672749 0.000603989 -2.72929e-20)
(0.00652424 0.000519049 2.7181e-20)
(0.00633733 0.000449552 -5.44905e-20)
(0.00616576 0.000393754 2.72953e-20)
(0.00600774 0.000350247 2.71329e-20)
(0.00586093 0.000317405 -2.72243e-20)
(0.00572298 0.000293649 0)
(0.00559159 0.000277684 0)
(0.00546447 0.000268266 -5.38217e-20)
(0.00533944 0.000264222 5.39512e-20)
(0.00521445 0.000264532 0)
(0.00508759 0.000268293 5.33817e-20)
(0.00495711 0.000274706 -5.35041e-20)
(0.00482143 0.000283069 0)
(0.00467906 0.000292746 0)
(0.00452862 0.000303108 -5.28117e-20)
(0.00436876 0.000313446 2.68833e-22)
(0.00419806 0.000322862 5.28481e-20)
(0.00401497 0.000330154 5.24896e-20)
(0.00381753 0.000333768 -1.05102e-19)
(0.0036085 0.000331579 5.2636e-20)
(0.00335594 0.000317717 -4.90911e-20)
(0.00309213 0.000288085 5.27682e-20)
(0.00295299 0.000264586 5.26609e-20)
(0.00298503 0.000291027 -5.29068e-20)
(0.00314381 0.000393662 -1.58728e-19)
(0.00340631 0.000582864 -2.65437e-19)
(0.0037663 0.000859616 -5.32577e-20)
(0.00424687 0.00121871 5.33518e-20)
(0.00480433 0.00162973 4.7698e-19)
(0.00537448 0.0020478 -4.74826e-19)
(0.00593729 0.0024425 -4.72538e-19)
(0.00648529 0.00279546 1.04703e-19)
(0.00701499 0.00309593 -7.83309e-20)
(0.00753077 0.00333845 2.3392e-19)
(0.00802031 0.0035156 0)
(0.0084811 0.00362629 2.32574e-19)
(0.00891293 0.00366401 -2.58327e-20)
(0.00930412 0.00363047 -2.05555e-19)
(0.009652 0.00352902 -2.55077e-20)
(0.00993813 0.0033557 2.55079e-19)
(0.0101614 0.00311862 1.7753e-19)
(0.010304 0.00282067 2.01129e-19)
(0.0103567 0.00247368 9.96096e-20)
(0.0103132 0.00208954 2.47103e-20)
(0.0101503 0.00168031 -2.46182e-20)
(0.0098857 0.00126765 -2.43491e-20)
(0.00948757 0.00086372 -3.61323e-20)
(0.00897565 0.00049023 -2.39362e-20)
(0.00836139 0.000164298 0)
(0.00765221 -9.99449e-05 -9.55465e-20)
(0.00688137 -0.000293638 0)
(0.00605978 -0.000409293 3.33176e-19)
(0.00522323 -0.000451706 1.90716e-19)
(0.0043885 -0.000421519 4.76893e-20)
(0.00357798 -0.000333579 0)
(0.00281196 -0.000195983 0)
(0.0020964 -2.36084e-05 1.88637e-19)
(0.00144544 0.000168581 0)
(0.000857997 0.000372723 -4.19358e-19)
(0.000332584 0.000573692 4.1625e-19)
(-0.000124934 0.000764226 -3.87617e-19)
(-0.000524803 0.000938191 2.33942e-22)
(-0.000867971 0.00108849 2.2689e-22)
(-0.00115521 0.00121277 -2.97574e-19)
(-0.00139385 0.00131059 -4.1677e-20)
(-0.0015879 0.00138128 -3.0467e-19)
(-0.00173966 0.00142612 -3.18146e-19)
(-0.00185457 0.00144822 -1.635e-21)
(-0.00193778 0.00145072 2.95527e-19)
(-0.00199293 0.00143737 -2.89452e-19)
(-0.00202509 0.0014119 0)
(-0.00203889 0.00137721 -4.47698e-21)
(-0.00203801 0.00133629 -2.7834e-19)
(-0.0020279 0.00129088 5.51055e-19)
(-0.0020117 0.00124072 8.14856e-19)
(-0.00199015 0.0011862 2.73567e-19)
(-0.00196784 0.00112712 -9.19976e-21)
(-0.00194513 0.00106137 0)
(-0.00192005 0.000988824 -7.80786e-21)
(-0.00189504 0.000909022 7.71279e-21)
(-0.00186795 0.000821111 0)
(-0.0018364 0.000726485 -1.18525e-19)
(-0.00180259 0.000624772 1.44723e-20)
(-0.00176168 0.000517652 -1.43132e-20)
(-0.00171664 0.000405921 -2.2502e-22)
(-0.00166324 0.000291452 -1.10626e-19)
(-0.00160315 0.000174718 1.35823e-20)
(-0.00153203 5.82087e-05 -2.69295e-20)
(-0.00145192 -5.69545e-05 1.33713e-20)
(-0.00135823 -0.000168512 5.19699e-24)
(-0.00125226 -0.000274293 6.56841e-21)
(-0.00112995 -0.00037223 -6.59513e-21)
(-0.000991307 -0.000458583 5.26396e-20)
(-0.000834193 -0.000531012 5.60512e-20)
(-0.000657447 -0.000585624 1.0284e-19)
(-0.000461264 -0.000619692 -2.13642e-19)
(-0.000244576 -0.000629965 1.04228e-19)
(-7.93038e-06 -0.000613901 3.39927e-21)
(0.000247503 -0.000569373 3.37934e-21)
(0.000522045 -0.000494943 -3.39855e-21)
(0.000810815 -0.000389641 1.08271e-19)
(0.00111643 -0.000253472 -7.11221e-21)
(0.00143413 -8.70781e-05 5.37907e-23)
(0.00176109 0.000107443 -9.35729e-20)
(0.00209759 0.000328052 -3.2741e-19)
(0.00243943 0.000571536 2.12334e-19)
(0.00278475 0.000833874 2.12433e-19)
(0.00313355 0.00111111 -2.24699e-19)
(0.00348289 0.00139853 -1.96461e-19)
(0.00383096 0.00169102 1.96691e-19)
(0.00417836 0.00198389 2.33778e-19)
(0.00452372 0.00227223 1.94764e-19)
(0.00486636 0.00255114 -2.66915e-20)
(0.00520631 0.00281609 2.57807e-20)
(0.00554307 0.00306268 0)
(0.00587714 0.00328703 2.28806e-19)
(0.00621033 0.00348568 2.02121e-19)
(0.00653965 0.00365452 1.75942e-19)
(0.00686519 0.00379093 0)
(0.00719138 0.00389314 2.2302e-19)
(0.00751122 0.00395652 -2.47027e-20)
(0.00782477 0.00397972 7.28894e-20)
(0.00813677 0.00396224 2.42992e-20)
(0.00843203 0.00389953 6.33048e-22)
(0.00871272 0.0037926 1.18487e-19)
(0.00897105 0.00363925 -2.36101e-20)
(0.0091973 0.00344011 1.15301e-19)
(0.00938348 0.00319761 -2.05941e-19)
(0.0095166 0.00291451 -1.79944e-19)
(0.00958321 0.00259601 -8.81367e-20)
(0.00957558 0.00225051 0)
(0.00946732 0.00188632 2.0802e-20)
(0.00926787 0.00151925 -2.95305e-22)
(0.00894446 0.00116031 -9.95702e-21)
(0.00850378 0.000828298 3.50701e-20)
(0.00795452 0.000537721 -1.98967e-20)
(0.007287 0.000304752 3.85e-20)
(0.00653866 0.000137383 -3.78827e-20)
(0.00570245 4.84506e-05 0)
(0.0048217 3.22826e-05 9.12266e-20)
(0.00390996 9.35158e-05 -3.60264e-20)
(0.00300213 0.000214479 7.13549e-20)
(0.00211788 0.00039007 1.77151e-20)
(0.0012773 0.000592951 -8.59133e-20)
(0.000504287 0.000803004 1.71792e-20)
(-0.000174979 0.00097115 0)
(-0.000770123 0.00106163 -7.88368e-20)
(-0.00116931 0.000923529 4.19408e-22)
(-0.00126637 0.000639081 4.08943e-22)
(-0.00123967 0.000283042 4.12674e-22)
(-0.00107423 -0.00010676 -2.64184e-20)
(-0.000753476 -0.000489743 4.18483e-22)
(-0.000286475 -0.000809748 2.02716e-22)
(0.000319786 -0.0010381 1.1667e-20)
(0.000984407 -0.00113775 -1.00599e-20)
(0.00159947 -0.00112469 -1.05164e-20)
(0.00214761 -0.00103634 -8.95328e-22)
(0.00262942 -0.000901745 9.94834e-21)
(0.00304085 -0.000743871 -1.16742e-21)
(0.00338087 -0.000581501 -8.79167e-21)
(0.00365288 -0.000428873 8.75965e-21)
(0.00386369 -0.000295676 1.02926e-21)
(0.00402251 -0.000187547 9.88599e-22)
(0.00414005 -0.000106877 0)
(0.00422753 -5.33067e-05 -7.0717e-21)
(0.00429575 -2.4315e-05 7.05228e-21)
(0.00435439 -1.56494e-05 0)
(0.00441141 -2.22281e-05 7.76824e-22)
(0.00447257 -3.85628e-05 0)
(0.00454109 -5.93838e-05 -6.91505e-22)
(0.00461771 -7.96081e-05 -2.51706e-21)
(0.00470118 -9.49661e-05 2.50694e-21)
(0.00478846 -0.000102266 5.6484e-22)
(0.0048753 -9.97956e-05 -5.21308e-22)
(0.00495695 -8.70381e-05 0)
(0.00502863 -6.46244e-05 1.67885e-21)
(0.005086 -3.42981e-05 -1.67456e-21)
(0.00512568 1.47291e-06 -3.58644e-22)
(0.00514553 3.98833e-05 -6.01888e-22)
(0.00514478 7.81783e-05 6.0054e-22)
(0.00512414 0.00011383 -4.47764e-22)
(0.00508564 0.000144883 4.46831e-22)
(0.00503225 0.000170057 1.67477e-22)
(0.00496766 0.000188821 1.11377e-22)
(0.00489571 0.000201422 -7.40483e-23)
(0.00481874 0.000208805 -9.30148e-23)
(0.00473028 0.000217564 0)
(0.00716549 0.000280486 0)
(0.00714562 0.000798963 0)
(0.00745788 0.00118408 0)
(0.00790408 0.00141292 -6.81631e-21)
(0.00826486 0.00151438 6.76539e-21)
(0.0085136 0.00152304 0)
(0.00867899 0.00146058 -1.32858e-20)
(0.00877166 0.00135975 1.32901e-20)
(0.00877823 0.00124069 1.32012e-20)
(0.0087418 0.00111601 -2.64189e-20)
(0.00867205 0.000992137 1.32253e-20)
(0.00857921 0.000875457 0)
(0.0084734 0.000771703 0)
(0.0083598 0.000681564 -2.62548e-20)
(0.00824297 0.000604434 1.25059e-22)
(0.0081261 0.000540151 5.24841e-20)
(0.00801074 0.000488717 -2.6257e-20)
(0.00789719 0.000448856 0)
(0.00778554 0.000419216 0)
(0.00767543 0.00039887 -2.59413e-20)
(0.00756604 0.000386737 2.59973e-20)