/*--------------------------------*- C++ -*----------------------------------*\
| =========                 |                                                 |
| \\      /  F ield         | OpenFOAM: The Open Source CFD Toolbox           |
|  \\    /   O peration     | Version:  2506                                  |
|   \\  /    A nd           | Website:  www.openfoam.com                      |
|    \\/     M anipulation  |                                                 |
\*---------------------------------------------------------------------------*/
FoamFile
{
    version     2.0;
    format      ascii;
    arch        "LSB;label=32;scalar=64";
    class       surfaceScalarField;
    location    "2.2";
    object      phi;
}
// * * * * * * * * * * * * * * * * * * * * * * * * * * * * * * * * * * * * * //

dimensions      [0 3 -1 0 0 0 0];

oriented        oriented;

internalField   nonuniform List<scalar> 
7780
(
2.75929e-09
5.40946e-10
2.09448e-09
6.65188e-10
1.58594e-09
5.08843e-10
1.21923e-09
3.66644e-10
9.65804e-10
2.53368e-10
7.92075e-10
1.73712e-10
6.7248e-10
1.19613e-10
5.88808e-10
8.36859e-11
5.28805e-10
6.00125e-11
4.84908e-10
4.39009e-11
4.52196e-10
3.27147e-11
4.27256e-10
2.49404e-11
4.0777e-10
1.94863e-11
3.92102e-10
1.5668e-11
3.79012e-10
1.30891e-11
3.67573e-10
1.14394e-11
3.57104e-10
1.0468e-11
3.47103e-10
1.00007e-11
3.37196e-10
9.90607e-12
3.27116e-10
1.00789e-11
3.16669e-10
1.04454e-11
3.05705e-10
1.09617e-11
2.941e-10
1.16032e-11
2.81739e-10
1.23582e-11
2.68512e-10
1.3224e-11
2.54305e-10
1.4203e-11
2.39001e-10
1.52994e-11
2.22478e-10
1.65177e-11
2.04609e-10
1.78627e-11
1.85258e-10
1.93437e-11
1.64247e-10
2.10045e-11
1.4124e-10
2.30009e-11
1.16006e-10
2.523e-11
8.32035e-11
3.28029e-11
6.3347e-11
1.98655e-11
7.26225e-11
-9.25662e-12
1.00624e-10
-2.79781e-11
1.37025e-10
-3.63745e-11
1.81015e-10
-4.39573e-11
2.35025e-10
-5.39706e-11
3.12697e-10
-7.76286e-11
3.95338e-10
-8.25998e-11
4.6626e-10
-7.08896e-11
5.2803e-10
-6.17486e-11
5.79595e-10
-5.15514e-11
6.2427e-10
-4.46593e-11
6.65514e-10
-4.12193e-11
6.97139e-10
-3.1607e-11
7.26229e-10
-2.9078e-11
7.49792e-10
-2.35399e-11
7.65731e-10
-1.5906e-11
7.77757e-10
-1.19805e-11
7.77113e-10
6.93102e-13
7.7177e-10
5.38696e-12
7.51074e-10
2.07347e-11
7.21871e-10
2.92317e-11
6.8072e-10
4.11655e-11
6.25576e-10
5.51396e-11
5.67299e-10
5.82495e-11
4.92109e-10
7.51377e-11
4.1943e-10
7.26039e-11
3.43439e-10
7.58965e-11
2.69014e-10
7.43186e-11
2.00867e-10
6.80354e-11
1.35458e-10
6.52894e-11
8.00604e-11
5.52676e-11
2.86917e-11
5.12098e-11
-1.35954e-11
4.2093e-11
-5.07919e-11
3.69712e-11
-8.13849e-11
3.03436e-11
-1.07093e-10
2.54432e-11
-1.29264e-10
2.18988e-11
-1.46876e-10
1.73401e-11
-1.61277e-10
1.41378e-11
-1.72678e-10
1.11597e-11
-1.81128e-10
8.23622e-12
-1.87276e-10
5.95942e-12
-1.91473e-10
4.03046e-12
-1.93896e-10
2.28219e-12
-1.95019e-10
1.00524e-12
-1.95213e-10
9.70815e-14
-1.94692e-10
-6.0029e-13
-1.93723e-10
-1.03243e-12
-1.92505e-10
-1.26679e-12
-1.91129e-10
-1.41566e-12
-1.89709e-10
-1.45239e-12
-1.88209e-10
-1.5305e-12
-1.86488e-10
-1.74975e-12
-1.84524e-10
-1.99022e-12
-1.82181e-10
-2.36934e-12
-1.79254e-10
-2.94956e-12
-1.75825e-10
-3.45141e-12
-1.71785e-10
-4.05885e-12
-1.6704e-10
-4.76274e-12
-1.61761e-10
-5.29368e-12
-1.55756e-10
-6.01843e-12
-1.49286e-10
-6.48187e-12
-1.42142e-10
-7.15362e-12
-1.34919e-10
-7.23017e-12
-1.27438e-10
-7.48627e-12
-1.19927e-10
-7.51457e-12
-1.1218e-10
-7.74726e-12
-1.04177e-10
-8.00163e-12
-9.54795e-11
-8.69294e-12
-8.59999e-11
-9.47225e-12
-7.64759e-11
-9.51364e-12
-6.58317e-11
-1.06304e-11
-5.46422e-11
-1.11722e-11
-4.21098e-11
-1.25111e-11
-2.82849e-11
-1.37994e-11
-1.27795e-11
-1.54755e-11
4.24887e-12
-1.69938e-11
2.36051e-11
-1.93173e-11
4.38746e-11
-2.02267e-11
6.72011e-11
-2.32799e-11
9.14634e-11
-2.4213e-11
1.17275e-10
-2.57602e-11
1.44939e-10
-2.76112e-11
1.73089e-10
-2.8097e-11
2.01989e-10
-2.88463e-11
2.31772e-10
-2.97294e-11
2.61299e-10
-2.94733e-11
2.90312e-10
-2.89596e-11
3.19255e-10
-2.88887e-11
3.47186e-10
-2.78742e-11
3.74096e-10
-2.68524e-11
3.99868e-10
-2.5713e-11
4.24113e-10
-2.41843e-11
4.47168e-10
-2.29944e-11
4.69733e-10
-2.25061e-11
4.89751e-10
-1.99612e-11
5.08924e-10
-1.91195e-11
5.28709e-10
-1.97344e-11
5.45447e-10
-1.66951e-11
5.61873e-10
-1.63909e-11
5.80432e-10
-1.85131e-11
5.93455e-10
-1.29719e-11
6.08781e-10
-1.52846e-11
6.20096e-10
-1.1274e-11
6.2949e-10
-9.34898e-12
6.34825e-10
-5.28293e-12
6.33952e-10
9.31407e-13
6.25253e-10
8.75912e-12
6.09506e-10
1.58026e-11
5.79202e-10
3.03436e-11
5.44252e-10
3.49649e-11
4.90151e-10
5.40877e-11
4.31308e-10
5.88022e-11
3.63904e-10
6.734e-11
2.89905e-10
7.39155e-11
2.17718e-10
7.20926e-11
1.41516e-10
7.60996e-11
7.29413e-11
6.84688e-11
6.1324e-12
6.66934e-11
-5.14696e-11
5.74827e-11
-1.0347e-10
5.18739e-11
-1.45685e-10
4.20834e-11
-1.79786e-10
3.39635e-11
-2.0316e-10
2.32403e-11
-2.14562e-10
1.12819e-11
-2.11109e-10
-3.51088e-12
-1.98116e-10
-1.3024e-11
-1.76102e-10
-2.20251e-11
-1.44993e-10
-3.11057e-11
-1.03568e-10
-4.14128e-11
-5.23001e-11
-5.12556e-11
1.2492e-11
-6.47833e-11
7.58361e-11
-6.3338e-11
1.27122e-10
-5.12806e-11
1.66266e-10
-3.91393e-11
1.94606e-10
-2.83338e-11
2.14036e-10
-1.94237e-11
2.26673e-10
-1.26306e-11
2.3457e-10
-7.89063e-12
2.39525e-10
-4.94832e-12
2.43021e-10
-3.48867e-12
2.46187e-10
-3.15893e-12
2.49753e-10
-3.55863e-12
2.54083e-10
-4.32193e-12
2.5925e-10
-5.15907e-12
2.65108e-10
-5.84947e-12
2.71353e-10
-6.23678e-12
2.77593e-10
-6.23095e-12
2.83411e-10
-5.80998e-12
2.88431e-10
-5.01291e-12
2.92354e-10
-3.91531e-12
2.94928e-10
-2.56832e-12
2.96098e-10
-1.16499e-12
2.95973e-10
1.29817e-13
2.94645e-10
1.33237e-12
2.92386e-10
2.26156e-12
2.89318e-10
3.07086e-12
2.85679e-10
3.64075e-12
2.81718e-10
3.96339e-12
2.77661e-10
4.05765e-12
2.73701e-10
3.96152e-12
2.69971e-10
3.72963e-12
2.66547e-10
3.42515e-12
2.6335e-10
3.20168e-12
3.84159e-12
3.51347e-09
3.27452e-10
3.49801e-09
6.80706e-10
3.30446e-09
7.02408e-10
3.03628e-09
6.34706e-10
2.75475e-09
5.34834e-10
2.49952e-09
4.28967e-10
2.28619e-09
3.32978e-10
2.11392e-09
2.55972e-10
1.97705e-09
1.9688e-10
1.86949e-09
1.51468e-10
1.78502e-09
1.17189e-10
1.71813e-09
9.18331e-11
1.6645e-09
7.31208e-11
1.6207e-09
5.94737e-11
1.58394e-09
4.98538e-11
1.55203e-09
4.3347e-11
1.52331e-09
3.91921e-11
1.49647e-09
3.68393e-11
1.47052e-09
3.58568e-11
1.4447e-09
3.58955e-11
1.41844e-09
3.67077e-11
1.39126e-09
3.81415e-11
1.36275e-09
4.01128e-11
1.33252e-09
4.25865e-11
1.30018e-09
4.55646e-11
1.2653e-09
4.90752e-11
1.22744e-09
5.31646e-11
1.18606e-09
5.78942e-11
1.14057e-09
6.33448e-11
1.09028e-09
6.96322e-11
1.03433e-09
7.69508e-11
9.71628e-10
8.57026e-11
9.00346e-10
9.65135e-11
8.14035e-10
1.19122e-10
7.47565e-10
8.63481e-11
7.38827e-10
-5.0619e-13
7.72711e-10
-6.18526e-11
8.33375e-10
-9.70343e-11
9.16401e-10
-1.26983e-10
1.02363e-09
-1.61198e-10
1.16381e-09
-2.17804e-10
1.31053e-09
-2.29315e-10
1.44613e-09
-2.06467e-10
1.56953e-09
-1.85125e-10
1.6785e-09
-1.60508e-10
1.77654e-09
-1.42685e-10
1.86634e-09
-1.30999e-10
1.94297e-09
-1.08212e-10
2.01279e-09
-9.88912e-11
2.07243e-09
-8.31732e-11
2.12009e-09
-6.35592e-11
2.15719e-09
-4.90702e-11
2.17548e-09
-1.75914e-11
2.18067e-09
2.13177e-13
2.16298e-09
3.84414e-11
2.12634e-09
6.58942e-11
2.06658e-09
1.00942e-10
1.98126e-09
1.4046e-10
1.87969e-09
1.59821e-10
1.74918e-09
2.05633e-10
1.60942e-09
2.12345e-10
1.45723e-09
2.28054e-10
1.30048e-09
2.31044e-10
1.1468e-09
2.217e-10
9.95571e-10
2.165e-10
8.57187e-10
1.93648e-10
7.27539e-10
1.80861e-10
6.13407e-10
1.56236e-10
5.11292e-10
1.39102e-10
4.22289e-10
1.19361e-10
3.46543e-10
1.01203e-10
2.80557e-10
8.78952e-11
2.25982e-10
7.1917e-11
1.80435e-10
5.96874e-11
1.42782e-10
4.88149e-11
1.13011e-10
3.80044e-11
8.96934e-11
2.92685e-11
7.16965e-11
2.20172e-11
5.86489e-11
1.53188e-11
4.95938e-11
1.00494e-11
4.34271e-11
6.25513e-12
3.96791e-11
3.14372e-12
3.7831e-11
8.1795e-13
3.72728e-11
-7.00684e-13
3.78005e-11
-1.93213e-12
3.88897e-11
-2.53094e-12
4.03587e-11
-2.992e-12
4.27877e-11
-4.17548e-12
4.59475e-11
-5.14982e-12
4.97183e-11
-6.14259e-12
5.51928e-11
-8.42763e-12
6.1558e-11
-9.82019e-12
6.88341e-11
-1.13382e-11
7.7939e-11
-1.387e-11
8.74341e-11
-1.47904e-11
9.89394e-11
-1.75246e-11
1.10658e-10
-1.82003e-11
1.24136e-10
-2.06313e-11
1.37805e-10
-2.0898e-11
1.53777e-10
-2.34566e-11
1.69934e-10
-2.36697e-11
1.88047e-10
-2.58585e-11
2.07281e-10
-2.72337e-11
2.27513e-10
-2.89235e-11
2.5041e-10
-3.23672e-11
2.74917e-10
-3.40193e-11
3.02992e-10
-3.87041e-11
3.33685e-10
-4.18641e-11
3.67949e-10
-4.67748e-11
4.05738e-10
-5.15889e-11
4.47251e-10
-5.69887e-11
4.92366e-10
-6.21105e-11
5.41389e-10
-6.83407e-11
5.93138e-10
-7.19772e-11
6.49031e-10
-7.91739e-11
7.0688e-10
-8.2063e-11
7.66941e-10
-8.58196e-11
8.29009e-10
-8.96766e-11
8.91528e-10
-9.06108e-11
9.54453e-10
-9.17625e-11
1.01753e-09
-9.27934e-11
1.07937e-09
-9.12992e-11
1.13967e-09
-8.92516e-11
1.19859e-09
-8.77899e-11
1.25519e-09
-8.44474e-11
1.30942e-09
-8.10622e-11
1.36117e-09
-7.74289e-11
1.41025e-09
-7.32182e-11
1.45724e-09
-6.99336e-11
1.50267e-09
-6.78631e-11
1.54504e-09
-6.22513e-11
1.58627e-09
-6.02564e-11
1.62764e-09
-6.10106e-11
1.66584e-09
-5.47902e-11
1.70444e-09
-5.48999e-11
1.74417e-09
-5.81501e-11
1.77876e-09
-4.74688e-11
1.8143e-09
-5.07639e-11
1.84495e-09
-4.18769e-11
1.87117e-09
-3.55532e-11
1.89015e-09
-2.42661e-11
1.89844e-09
-7.38366e-12
1.89299e-09
1.41744e-11
1.8721e-09
3.66644e-11
1.82844e-09
7.39805e-11
1.76841e-09
9.49812e-11
1.67777e-09
1.44698e-10
1.5697e-09
1.66848e-10
1.44097e-09
1.96033e-10
1.29436e-09
2.20471e-10
1.14101e-09
2.25381e-10
9.75754e-10
2.413e-10
8.1577e-10
2.28405e-10
6.55736e-10
2.26688e-10
5.08349e-10
2.04846e-10
3.68972e-10
1.91238e-10
2.46049e-10
1.64996e-10
1.37639e-10
1.42366e-10
4.98985e-11
1.10978e-10
-1.64193e-11
7.75963e-11
-1.80211e-11
-1.89122e-12
1.46012e-11
-4.56177e-11
7.44986e-11
-8.18939e-11
1.57567e-10
-1.14149e-10
2.66525e-10
-1.50349e-10
3.95726e-10
-1.80445e-10
5.45297e-10
-2.14352e-10
6.85023e-10
-2.03074e-10
8.00455e-10
-1.66727e-10
8.92154e-10
-1.30853e-10
9.62808e-10
-9.90008e-11
1.01616e-09
-7.27895e-11
1.05631e-09
-5.27781e-11
1.08719e-09
-3.87737e-11
1.11227e-09
-3.00386e-11
1.13433e-09
-2.55477e-11
1.15534e-09
-2.4168e-11
1.17655e-09
-2.47678e-11
1.19855e-09
-2.63107e-11
1.22131e-09
-2.79252e-11
1.24441e-09
-2.89448e-11
1.2671e-09
-2.89232e-11
1.2885e-09
-2.76375e-11
1.30777e-09
-2.50771e-11
1.32416e-09
-2.14088e-11
1.33717e-09
-1.692e-11
1.34656e-09
-1.19624e-11
1.35232e-09
-6.92918e-12
1.35464e-09
-2.19171e-12
1.35397e-09
2.00268e-12
1.35081e-09
5.41402e-12
1.34589e-09
7.98691e-12
1.33988e-09
9.64632e-12
1.33343e-09
1.042e-11
1.32708e-09
1.04045e-11
1.32129e-09
9.74545e-12
1.3164e-09
8.62359e-12
1.31257e-09
7.2586e-12
1.30988e-09
5.89657e-12
5.60023e-12
3.44202e-09
1.85325e-10
3.63629e-09
4.86115e-10
3.73417e-09
6.04108e-10
3.7418e-09
6.26774e-10
3.67172e-09
6.0492e-10
3.55578e-09
5.44918e-10
3.41944e-09
4.69359e-10
3.28027e-09
3.95178e-10
3.1507e-09
3.26463e-10
3.03592e-09
2.66238e-10
2.93644e-09
2.16668e-10
2.85128e-09
1.76997e-10
2.77895e-09
1.45452e-10
2.71741e-09
1.21013e-10
2.66444e-09
1.02829e-10
2.61802e-09
8.97655e-11
2.57641e-09
8.08064e-11
2.53806e-09
7.51948e-11
2.50167e-09
7.22518e-11
2.46618e-09
7.13791e-11
2.43076e-09
7.21356e-11
2.39466e-09
7.42349e-11
2.35727e-09
7.75058e-11
2.31798e-09
8.18702e-11
2.27622e-09
8.73273e-11
2.23136e-09
9.39357e-11
2.18272e-09
1.01799e-10
2.12955e-09
1.11063e-10
2.07097e-09
1.21918e-10
2.00597e-09
1.34623e-10
1.93337e-09
1.4955e-10
1.85178e-09
1.67294e-10
1.75933e-09
1.88958e-10
1.65023e-09
2.28236e-10
1.55664e-09
1.79953e-10
1.51832e-09
3.78229e-11
1.52951e-09
-7.30242e-11
1.57941e-09
-1.46927e-10
1.66338e-09
-2.10953e-10
1.7795e-09
-2.77309e-10
1.92893e-09
-3.67221e-10
2.08783e-09
-3.88185e-10
2.24347e-09
-3.62086e-10
2.39101e-09
-3.3264e-10
2.5264e-09
-2.95882e-10
2.65112e-09
-2.67407e-10
2.76629e-09
-2.46174e-10
2.86892e-09
-2.10846e-10
2.96316e-09
-1.93156e-10
3.04627e-09
-1.66319e-10
3.11735e-09
-1.34694e-10
3.17564e-09
-1.07394e-10
3.21687e-09
-5.88652e-11
3.24317e-09
-2.61263e-11
3.24761e-09
3.39695e-11
3.23173e-09
8.17551e-11
3.19176e-09
1.40893e-10
3.12471e-09
2.07492e-10
3.03562e-09
2.48905e-10
2.91465e-09
3.26596e-10
2.77467e-09
3.52315e-10
2.6131e-09
3.89613e-10
2.43678e-09
4.07348e-10
2.25272e-09
4.05749e-10
2.0627e-09
4.06508e-10
1.87774e-09
3.78588e-10
1.69686e-09
3.61723e-10
1.52879e-09
3.24296e-10
1.37243e-09
2.95454e-10
1.23089e-09
2.60898e-10
1.10538e-09
2.26732e-10
9.92979e-10
2.00329e-10
8.96068e-10
1.68869e-10
8.12133e-10
1.43672e-10
7.39956e-10
1.21046e-10
6.79537e-10
9.84747e-11
6.29045e-10
7.98064e-11
5.86996e-10
6.41054e-11
5.52819e-10
4.95285e-11
5.25364e-10
3.7532e-11
5.03335e-10
2.83098e-11
4.85793e-10
2.07106e-11
4.71549e-10
1.50886e-11
4.598e-10
1.10758e-11
4.50146e-10
7.74697e-12
4.4175e-10
5.88527e-12
4.34243e-10
4.52867e-12
4.28362e-10
1.71343e-12
4.23285e-10
-6.9269e-14
4.19154e-10
-2.01045e-12
4.16962e-10
-6.23685e-12
4.16307e-10
-9.16576e-12
4.17145e-10
-1.21777e-11
4.20491e-10
-1.72166e-11
4.24962e-10
-1.92611e-11
4.32271e-10
-2.48334e-11
4.40667e-10
-2.65958e-11
4.51886e-10
-3.18494e-11
4.64314e-10
-3.3324e-11
4.80288e-10
-3.94288e-11
4.98028e-10
-4.14076e-11
5.19527e-10
-4.73554e-11
5.44234e-10
-5.19388e-11
5.7261e-10
-5.72973e-11
6.06074e-10
-6.58291e-11
6.43684e-10
-7.16283e-11
6.87269e-10
-8.22891e-11
7.35861e-10
-9.04559e-11
7.90146e-10
-1.01061e-10
8.49916e-10
-1.1136e-10
9.14983e-10
-1.22059e-10
9.84972e-10
-1.32104e-10
1.05976e-09
-1.43133e-10
1.1379e-09
-1.50129e-10
1.22032e-09
-1.61593e-10
1.30469e-09
-1.6645e-10
1.39094e-09
-1.72074e-10
1.47854e-09
-1.77281e-10
1.56592e-09
-1.77996e-10
1.65278e-09
-1.78627e-10
1.73869e-09
-1.78706e-10
1.82234e-09
-1.74956e-10
1.90347e-09
-1.70382e-10
1.982e-09
-1.66331e-10
2.05724e-09
-1.59683e-10
2.12918e-09
-1.53004e-10
2.19777e-09
-1.46017e-10
2.26304e-09
-1.38484e-10
2.32556e-09
-1.32437e-10
2.38574e-09
-1.28023e-10
2.44299e-09
-1.19461e-10
2.49859e-09
-1.15822e-10
2.55364e-09
-1.16014e-10
2.60606e-09
-1.07165e-10
2.65884e-09
-1.07642e-10
2.71138e-09
-1.10654e-10
2.76005e-09
-9.61068e-11
2.80808e-09
-9.87859e-11
2.85179e-09
-8.55831e-11
2.89022e-09
-7.4013e-11
2.92135e-09
-5.54596e-11
2.94134e-09
-2.74413e-11
2.94759e-09
7.83111e-12
2.93733e-09
4.68432e-11
2.90516e-09
1.0609e-10
2.85303e-09
1.4707e-10
2.77077e-09
2.26924e-10
2.66529e-09
2.72321e-10
2.5339e-09
3.27412e-10
2.37705e-09
3.77299e-10
2.20374e-09
3.98661e-10
2.00911e-09
4.35886e-10
1.80921e-09
4.28277e-10
1.59986e-09
4.36004e-10
1.3955e-09
4.0917e-10
1.19296e-09
3.93763e-10
1.0036e-09
3.54348e-10
8.28156e-10
3.17827e-10
6.7994e-10
2.59236e-10
5.60514e-10
1.9708e-10
5.35345e-10
2.33498e-11
5.61287e-10
-7.14897e-11
6.27933e-10
-1.4848e-10
7.27771e-10
-2.13937e-10
8.62152e-10
-2.84689e-10
1.02038e-09
-3.38638e-10
1.19802e-09
-3.91972e-10
1.363e-09
-3.68041e-10
1.50327e-09
-3.07008e-10
1.61964e-09
-2.47238e-10
1.71423e-09
-1.93605e-10
1.79029e-09
-1.48871e-10
1.85164e-09
-1.14142e-10
1.90219e-09
-8.93233e-11
1.94553e-09
-7.33914e-11
1.98472e-09
-6.47367e-11
2.02202e-09
-6.1473e-11
2.05892e-09
-6.16667e-11
2.09611e-09
-6.35048e-11
2.13362e-09
-6.54294e-11
2.17091e-09
-6.62287e-11
2.20707e-09
-6.50829e-11
2.24101e-09
-6.15821e-11
2.27164e-09
-5.57102e-11
2.29801e-09
-4.77788e-11
2.31942e-09
-3.83317e-11
2.3355e-09
-2.80447e-11
2.3462e-09
-1.76349e-11
2.35179e-09
-7.78266e-12
2.35285e-09
9.40743e-13
2.35015e-09
8.10817e-12
2.34465e-09
1.34794e-11
2.33733e-09
1.69652e-11
2.32912e-09
1.86288e-11
2.32086e-09
1.8661e-11
2.31325e-09
1.73487e-11
2.30684e-09
1.50381e-11
2.30196e-09
1.21344e-11
2.29893e-09
8.93537e-12
6.55436e-12
3.3735e-09
1.11797e-10
3.54105e-09
3.18317e-10
3.69637e-09
4.48511e-10
3.81144e-09
5.11619e-10
3.88614e-09
5.3024e-10
3.9139e-09
5.1712e-10
3.90052e-09
4.8274e-10
3.86022e-09
4.3548e-10
3.80344e-09
3.83237e-10
3.73801e-09
3.31662e-10
3.66962e-09
2.85062e-10
3.6031e-09
2.43525e-10
3.54093e-09
2.07609e-10
3.48378e-09
1.78171e-10
3.4315e-09
1.55109e-10
3.38376e-09
1.37506e-10
3.33991e-09
1.24659e-10
3.29903e-09
1.16075e-10
3.26018e-09
1.11103e-10
3.22249e-09
1.09075e-10
3.18515e-09
1.09481e-10
3.14741e-09
1.11977e-10
3.10858e-09
1.16332e-10
3.06801e-09
1.22435e-10
3.02506e-09
1.3028e-10
2.97904e-09
1.39951e-10
2.92923e-09
1.51607e-10
2.87482e-09
1.65471e-10
2.8149e-09
1.81838e-10
2.74843e-09
2.01092e-10
2.67423e-09
2.23747e-10
2.59102e-09
2.50501e-10
2.49736e-09
2.82623e-10
2.38868e-09
3.36922e-10
2.28861e-09
2.80027e-10
2.23018e-09
9.62675e-11
2.21634e-09
-5.91716e-11
2.244e-09
-1.74584e-10
2.31062e-09
-2.7757e-10
2.41203e-09
-3.78711e-10
2.54488e-09
-5.00051e-10
2.69029e-09
-5.33568e-10
2.83984e-09
-5.11591e-10
2.98615e-09
-4.78909e-10
3.12403e-09
-4.33735e-10
3.25321e-09
-3.96579e-10
3.3743e-09
-3.67262e-10
3.48435e-09
-3.20955e-10
3.58647e-09
-2.95228e-10
3.67809e-09
-2.57969e-10
3.75911e-09
-2.15769e-10
3.82906e-09
-1.77406e-10
3.88559e-09
-1.15449e-10
3.92901e-09
-6.96059e-11
3.9557e-09
7.22486e-12
3.96564e-09
7.17713e-11
3.95631e-09
1.50173e-10
3.92482e-09
2.38941e-10
3.87288e-09
3.00812e-10
3.79355e-09
4.05896e-10
3.69288e-09
4.52978e-10
3.5678e-09
5.14679e-10
3.42208e-09
5.53078e-10
3.25963e-09
5.6821e-10
3.08249e-09
5.83649e-10
2.89925e-09
5.61815e-10
2.71115e-09
5.49808e-10
2.52664e-09
5.08772e-10
2.34718e-09
4.74892e-10
2.17718e-09
4.30879e-10
2.0196e-09
3.84322e-10
1.87321e-09
3.4674e-10
1.74151e-09
3.00611e-10
1.62289e-09
2.62355e-10
1.51682e-09
2.27182e-10
1.42372e-09
1.91635e-10
1.34197e-09
1.61626e-10
1.27031e-09
1.35823e-10
1.20814e-09
1.11755e-10
1.15435e-09
9.13605e-11
1.10748e-09
7.52254e-11
1.06654e-09
6.16905e-11
1.03026e-09
5.1407e-11
9.9758e-10
4.37887e-11
9.67887e-10
3.74676e-11
9.40106e-10
3.36875e-11
9.13609e-10
3.10383e-11
8.88977e-10
2.63508e-11
8.65444e-10
2.34659e-11
8.43317e-10
2.01153e-11
8.23552e-10
1.35256e-11
8.06038e-10
8.34456e-12
7.90957e-10
2.90119e-12
7.79614e-10
-5.87581e-12
7.70854e-10
-1.05027e-11
7.66614e-10
-2.05939e-11
7.65364e-10
-2.53464e-11
7.68996e-10
-3.5481e-11
7.7606e-10
-4.03863e-11
7.88979e-10
-5.23465e-11
8.06212e-10
-5.86387e-11
8.29829e-10
-7.09709e-11
8.59367e-10
-8.14746e-11
8.95431e-10
-9.33591e-11
9.39146e-10
-1.09543e-10
9.89575e-10
-1.22056e-10
1.04807e-09
-1.40784e-10
1.11354e-09
-1.55929e-10
1.18612e-09
-1.73643e-10
1.26533e-09
-1.90569e-10
1.35041e-09
-2.07146e-10
1.44073e-09
-2.22422e-10
1.53559e-09
-2.38001e-10
1.6335e-09
-2.48045e-10
1.73468e-09
-2.62783e-10
1.83702e-09
-2.68797e-10
1.94008e-09
-2.75142e-10
2.04319e-09
-2.80399e-10
2.14497e-09
-2.7978e-10
2.24498e-09
-2.78646e-10
2.3428e-09
-2.76535e-10
2.43738e-09
-2.69546e-10
2.52856e-09
-2.61576e-10
2.61623e-09
-2.54008e-10
2.69998e-09
-2.43435e-10
2.7799e-09
-2.32935e-10
2.85606e-09
-2.22183e-10
2.92866e-09
-2.11087e-10
2.99819e-09
-2.01976e-10
3.06503e-09
-1.94862e-10
3.12918e-09
-1.83598e-10
3.19124e-09
-1.77877e-10
3.25209e-09
-1.7686e-10
3.311e-09
-1.66053e-10
3.36991e-09
-1.66531e-10
3.42756e-09
-1.683e-10
3.482e-09
-1.50565e-10
3.53472e-09
-1.51523e-10
3.58395e-09
-1.3482e-10
3.62798e-09
-1.1808e-10
3.66585e-09
-9.33899e-11
3.69403e-09
-5.56999e-11
3.71183e-09
-1.00665e-11
3.71507e-09
4.35034e-11
3.70145e-09
1.19629e-10
3.66996e-09
1.78481e-10
3.61469e-09
2.82141e-10
3.53715e-09
3.49827e-10
3.43526e-09
4.29284e-10
3.30674e-09
5.05814e-10
3.15702e-09
5.48362e-10
2.98067e-09
6.12228e-10
2.78936e-09
6.19564e-10
2.57897e-09
6.46372e-10
2.362e-09
6.26121e-10
2.13607e-09
6.19669e-10
1.91293e-09
5.77486e-10
1.69681e-09
5.3396e-10
1.50802e-09
4.48072e-10
1.3475e-09
3.5766e-10
1.28702e-09
8.39137e-11
1.28373e-09
-6.8117e-11
1.32855e-09
-1.93226e-10
1.41292e-09
-2.98244e-10
1.53677e-09
-4.08476e-10
1.68569e-09
-4.87508e-10
1.85238e-09
-5.58623e-10
2.00746e-09
-5.23087e-10
2.14217e-09
-4.41702e-10
2.25787e-09
-3.62941e-10
2.35611e-09
-2.91852e-10
2.43909e-09
-2.31865e-10
2.50947e-09
-1.8454e-10
2.57015e-09
-1.50008e-10
2.62395e-09
-1.27206e-10
2.67343e-09
-1.14222e-10
2.72061e-09
-1.08658e-10
2.76688e-09
-1.07946e-10
2.81297e-09
-1.09594e-10
2.85894e-09
-1.11403e-10
2.90433e-09
-1.11617e-10
2.94825e-09
-1.09007e-10
2.9896e-09
-1.02927e-10
3.0272e-09
-9.33088e-11
3.05999e-09
-8.05744e-11
3.08716e-09
-6.54974e-11
3.10817e-09
-4.90608e-11
3.12287e-09
-3.23354e-11
3.13145e-09
-1.63673e-11
3.13446e-09
-2.07039e-12
3.13271e-09
9.85437e-12
3.12722e-09
1.89638e-11
3.1191e-09
2.50795e-11
3.10946e-09
2.82645e-11
3.09934e-09
2.87851e-11
3.08962e-09
2.70644e-11
3.08103e-09
2.36227e-11
3.07409e-09
1.90684e-11
3.06919e-09
1.38363e-11
8.674e-12
3.34056e-09
7.13492e-11
3.45042e-09
2.08564e-10
3.58251e-09
3.1651e-10
3.7103e-09
3.83903e-10
3.8211e-09
4.19461e-10
3.90766e-09
4.30482e-10
3.96858e-09
4.21779e-10
4.00599e-09
3.98059e-10
4.02183e-09
3.67381e-10
4.01923e-09
3.34259e-10
4.0042e-09
3.00088e-10
3.98073e-09
2.66998e-10
3.95179e-09
2.36549e-10
3.91954e-09
2.10423e-10
3.88595e-09
1.88701e-10
3.85243e-09
1.71025e-10
3.81956e-09
1.57527e-10
3.78736e-09
1.48276e-10
3.75569e-09
1.42776e-10
3.72425e-09
1.40522e-10
3.69261e-09
1.4112e-10
3.66028e-09
1.44307e-10
3.62673e-09
1.49882e-10
3.59142e-09
1.5775e-10
3.55376e-09
1.6793e-10
3.51317e-09
1.80541e-10
3.46899e-09
1.95787e-10
3.4205e-09
2.1396e-10
3.3669e-09
2.35435e-10
3.3073e-09
2.60684e-10
3.24074e-09
2.90309e-10
3.16619e-09
3.25051e-10
3.08265e-09
3.66165e-10
2.98699e-09
4.3258e-10
2.89431e-09
3.7272e-10
2.8285e-09
1.62081e-10
2.79776e-09
-2.84206e-11
2.80517e-09
-1.8199e-10
2.85042e-09
-3.22819e-10
2.92892e-09
-4.57218e-10
3.03566e-09
-6.06776e-10
3.15691e-09
-6.54797e-10
3.28735e-09
-6.42002e-10
3.41801e-09
-6.09521e-10
3.54319e-09
-5.58874e-10
3.66166e-09
-5.1502e-10
3.77385e-09
-4.79447e-10
3.87763e-09
-4.24728e-10
3.97374e-09
-3.91297e-10
4.06081e-09
-3.45056e-10
4.13914e-09
-2.94123e-10
4.20902e-09
-2.47344e-10
4.26952e-09
-1.76002e-10
4.31982e-09
-1.1995e-10
4.35987e-09
-3.28807e-11
4.38774e-09
4.38521e-11
4.40317e-09
1.34689e-10
4.40388e-09
2.38181e-10
4.38956e-09
3.15077e-10
4.3565e-09
4.38918e-10
4.30564e-09
5.03797e-10
4.23395e-09
5.86361e-10
4.14218e-09
6.44841e-10
4.03077e-09
6.79625e-10
3.90078e-09
7.13641e-10
3.75651e-09
7.06089e-10
3.59976e-09
7.0655e-10
3.43641e-09
6.72103e-10
3.26918e-09
6.42094e-10
3.10233e-09
5.97707e-10
2.93997e-09
5.46686e-10
2.78251e-09
5.04217e-10
2.63426e-09
4.48907e-10
2.49504e-09
4.01626e-10
2.36544e-09
3.56853e-10
2.24663e-09
3.10513e-10
2.13773e-09
2.70597e-10
2.0382e-09
2.3542e-10
1.94771e-09
2.023e-10
1.86567e-09
1.73457e-10
1.79088e-09
1.50066e-10
1.72267e-09
1.29948e-10
1.65997e-09
1.14148e-10
1.6018e-09
1.02001e-10
1.54752e-09
9.17771e-11
1.49603e-09
8.51952e-11
1.44659e-09
8.04964e-11
1.39965e-09
7.32887e-11
1.3544e-09
6.87176e-11
1.31122e-09
6.3298e-11
1.27111e-09
5.3629e-11
1.23432e-09
4.51288e-11
1.20122e-09
3.60005e-11
1.1737e-09
2.1637e-11
1.15075e-09
1.24489e-11
1.13462e-09
-4.4609e-12
1.12401e-09
-1.47424e-11
1.12107e-09
-3.25352e-11
1.12423e-09
-4.35492e-11
1.13608e-09
-6.41947e-11
1.15481e-09
-7.7368e-11
1.18253e-09
-9.86887e-11
1.21843e-09
-1.17369e-10
1.26297e-09
-1.379e-10
1.3169e-09
-1.63471e-10
1.37898e-09
-1.84131e-10
1.4501e-09
-2.11901e-10
1.52887e-09
-2.347e-10
1.61488e-09
-2.59663e-10
1.70743e-09
-2.83112e-10
1.80524e-09
-3.0496e-10
1.9075e-09
-3.24696e-10
2.01313e-09
-3.43632e-10
2.12064e-09
-3.55557e-10
2.22982e-09
-3.71973e-10
2.33879e-09
-3.77773e-10
2.44696e-09
-3.83326e-10
2.55369e-09
-3.87138e-10
2.65786e-09
-3.83952e-10
2.75905e-09
-3.79851e-10
2.857e-09
-3.74488e-10
2.95094e-09
-3.63498e-10
3.04091e-09
-3.51557e-10
3.12685e-09
-3.3995e-10
3.20864e-09
-3.25235e-10
3.28651e-09
-3.10809e-10
3.36061e-09
-2.96301e-10
3.4313e-09
-2.81781e-10
3.49901e-09
-2.6969e-10
3.56403e-09
-2.5989e-10
3.62673e-09
-2.46319e-10
3.68722e-09
-2.3837e-10
3.74634e-09
-2.35981e-10
3.80432e-09
-2.24046e-10
3.86122e-09
-2.23401e-10
3.91592e-09
-2.23014e-10
3.96896e-09
-2.03626e-10
4.01949e-09
-2.02074e-10
4.0673e-09
-1.82651e-10
4.11044e-09
-1.61249e-10
4.14896e-09
-1.31954e-10
4.1802e-09
-8.69981e-11
4.2043e-09
-3.42465e-11
4.21795e-09
2.97727e-11
4.22066e-09
1.16838e-10
4.21006e-09
1.89002e-10
4.18409e-09
3.08035e-10
4.14054e-09
3.93322e-10
4.07843e-09
4.91353e-10
3.9938e-09
5.90412e-10
3.88882e-09
6.53322e-10
3.7578e-09
7.43226e-10
3.60709e-09
7.70259e-10
3.43213e-09
8.21315e-10
3.24103e-09
8.17208e-10
3.03119e-09
8.29492e-10
2.81189e-09
7.96776e-10
2.58982e-09
7.56045e-10
2.3901e-09
6.47824e-10
2.21172e-09
5.36105e-10
2.12134e-09
1.74359e-10
2.08509e-09
-3.17952e-11
2.09687e-09
-2.04944e-10
2.14976e-09
-3.51069e-10
2.24349e-09
-5.0215e-10
2.3621e-09
-6.06051e-10
2.4971e-09
-6.93563e-10
2.62332e-09
-6.49263e-10
2.73465e-09
-5.53e-10
2.83294e-09
-4.6121e-10
2.91949e-09
-3.78396e-10
2.99573e-09
-3.08117e-10
3.06329e-09
-2.52108e-10
3.12391e-09
-2.1064e-10
3.17939e-09
-1.82699e-10
3.23142e-09
-1.66263e-10
3.28142e-09
-1.58665e-10
3.3304e-09
-1.56936e-10
3.3789e-09
-1.58101e-10
3.42696e-09
-1.59467e-10
3.47417e-09
-1.58831e-10
3.51975e-09
-1.5458e-10
3.56265e-09
-1.45834e-10
3.6018e-09
-1.3246e-10
3.63619e-09
-1.1496e-10
3.66498e-09
-9.42899e-11
3.68761e-09
-7.16879e-11
3.70381e-09
-4.85387e-11
3.71368e-09
-2.62439e-11
3.71768e-09
-6.06501e-12
3.71652e-09
1.10046e-11
3.71118e-09
2.43038e-11
3.70273e-09
3.35221e-11
3.69231e-09
3.86797e-11
3.68101e-09
4.0083e-11
3.6698e-09
3.82653e-11
3.65952e-09
3.39072e-11
3.65076e-09
2.78158e-11
3.64396e-09
2.06456e-11
1.24527e-11
3.3246e-09
4.68162e-11
3.39239e-09
1.40942e-10
3.48944e-09
2.19648e-10
3.59742e-09
2.76022e-10
3.70523e-09
3.11659e-10
3.80541e-09
3.30244e-10
3.89255e-09
3.34591e-10
3.96317e-09
3.27425e-10
4.01779e-09
3.12748e-10
4.05829e-09
2.9375e-10
4.0864e-09
2.71987e-10
4.10329e-09
2.50103e-10
4.11001e-09
2.29817e-10
4.10931e-09
2.11135e-10
4.10328e-09
1.94732e-10
4.09338e-09
1.80923e-10
4.08056e-09
1.70349e-10
4.06542e-09
1.63409e-10
4.04865e-09
1.59553e-10
4.03049e-09
1.58684e-10
4.01095e-09
1.60661e-10
3.98987e-09
1.65384e-10
3.96701e-09
1.72745e-10
3.94203e-09
1.8273e-10
3.91454e-09
1.95418e-10
3.8841e-09
2.1098e-10
3.85021e-09
2.29678e-10
3.81231e-09
2.51858e-10
3.76979e-09
2.77954e-10
3.72198e-09
3.08495e-10
3.66816e-09
3.44128e-10
3.60761e-09
3.85595e-10
3.53973e-09
4.34052e-10
3.46271e-09
5.09597e-10
3.38478e-09
4.5066e-10
3.32113e-09
2.25738e-10
3.28246e-09
1.0251e-11
3.27589e-09
-1.75418e-10
3.30258e-09
-3.49511e-10
3.35828e-09
-5.12922e-10
3.43788e-09
-6.86378e-10
3.53242e-09
-7.49333e-10
3.63898e-09
-7.48542e-10
3.74756e-09
-7.18065e-10
3.85237e-09
-6.63648e-10
3.9519e-09
-6.14515e-10
4.04593e-09
-5.7346e-10
4.13405e-09
-5.12781e-10
4.21503e-09
-4.72318e-10
4.2888e-09
-4.18804e-10
4.35613e-09
-3.61444e-10
4.41668e-09
-3.07901e-10
4.47147e-09
-2.30828e-10
4.51932e-09
-1.67846e-10
4.56166e-09
-7.52607e-11
4.59699e-09
8.48124e-12
4.62595e-09
1.05685e-10
4.64737e-09
2.1672e-10
4.6599e-09
3.02486e-10
4.66285e-09
4.35908e-10
4.65407e-09
5.12534e-10
4.63114e-09
6.09272e-10
4.59336e-09
6.82604e-10
4.53855e-09
7.3442e-10
4.46683e-09
7.85348e-10
4.37823e-09
7.94672e-10
4.27419e-09
8.10575e-10
4.15694e-09
7.89315e-10
4.02909e-09
7.69906e-10
3.89334e-09
7.33428e-10
3.75364e-09
6.86372e-10
3.61121e-09
6.46651e-10
3.47021e-09
5.89923e-10
3.33169e-09
5.40177e-10
3.19711e-09
4.91492e-10
3.06836e-09
4.39316e-10
2.9455e-09
3.93507e-10
2.82892e-09
3.52057e-10
2.71878e-09
3.12488e-10
2.61526e-09
2.77024e-10
2.51775e-09
2.47618e-10
2.42614e-09
2.21601e-10
2.33987e-09
2.00463e-10
2.25835e-09
1.83565e-10
2.18122e-09
1.6893e-10
2.10766e-09
1.58782e-10
2.03698e-09
1.51187e-10
1.96967e-09
1.40599e-10
1.90486e-09
1.33529e-10
1.84304e-09
1.25113e-10
1.78512e-09
1.11549e-10
1.73166e-09
9.85855e-11
1.68312e-09
8.45377e-11
1.64183e-09
6.29303e-11
1.60696e-09
4.73129e-11
1.58153e-09
2.09788e-11
1.56394e-09
2.84955e-12
1.55677e-09
-2.53706e-11
1.55829e-09
-4.50646e-11
1.57123e-09
-7.71304e-11
1.59323e-09
-9.93602e-11
1.62636e-09
-1.3182e-10
1.66919e-09
-1.60196e-10
1.72191e-09
-1.90615e-10
1.78471e-09
-2.26271e-10
1.85594e-09
-2.55358e-10
1.93597e-09
-2.91931e-10
2.0231e-09
-3.21832e-10
2.11641e-09
-3.52973e-10
2.21502e-09
-3.81728e-10
2.31727e-09
-4.0721e-10
2.42232e-09
-4.29754e-10
2.52881e-09
-4.50128e-10
2.63541e-09
-4.62163e-10
2.74172e-09
-4.78291e-10
2.84615e-09
-4.82207e-10
2.94815e-09
-4.85333e-10
3.04723e-09
-4.86221e-10
3.14258e-09
-4.79307e-10
3.23395e-09
-4.71235e-10
3.3213e-09
-4.61846e-10
3.40418e-09
-4.46386e-10
3.48284e-09
-4.30229e-10
3.55734e-09
-4.14454e-10
3.62783e-09
-3.95739e-10
3.69466e-09
-3.77651e-10
3.7581e-09
-3.59753e-10
3.81858e-09
-3.42274e-10
3.8765e-09
-3.27624e-10
3.93211e-09
-3.15514e-10
3.98603e-09
-3.00258e-10
4.03762e-09
-2.89959e-10
4.08905e-09
-2.87427e-10
4.13862e-09
-2.73655e-10
4.18691e-09
-2.71711e-10
4.23287e-09
-2.68975e-10
4.27862e-09
-2.49383e-10
4.32135e-09
-2.44818e-10
4.36219e-09
-2.23531e-10
4.39927e-09
-1.98348e-10
4.43335e-09
-1.66068e-10
4.46257e-09
-1.1626e-10
4.48776e-09
-5.94875e-11
4.50653e-09
1.09446e-11
4.51982e-09
1.03492e-10
4.52485e-09
1.83916e-10
4.52234e-09
3.10484e-10
4.50796e-09
4.07632e-10
4.48229e-09
5.16965e-10
4.44087e-09
6.31778e-10
4.38357e-09
7.10583e-10
4.30532e-09
8.21447e-10
4.2079e-09
8.67645e-10
4.08662e-09
9.42565e-10
3.94472e-09
9.59082e-10
3.77891e-09
9.95279e-10
3.59435e-09
9.81312e-10
3.39838e-09
9.52018e-10
3.21826e-09
8.27964e-10
3.0496e-09
7.04781e-10
2.94654e-09
2.7747e-10
2.88796e-09
2.68422e-11
2.87112e-09
-1.88074e-10
2.89202e-09
-3.71934e-10
2.95126e-09
-5.61339e-10
3.0331e-09
-6.87834e-10
3.12925e-09
-7.89649e-10
3.21985e-09
-7.39812e-10
3.3009e-09
-6.33994e-10
3.37435e-09
-5.34627e-10
3.44135e-09
-4.45381e-10
3.50286e-09
-3.69619e-10
3.55975e-09
-3.09002e-10
3.61289e-09
-2.6379e-10
3.66316e-09
-2.32978e-10
3.71139e-09
-2.14504e-10
3.7583e-09
-2.05582e-10
3.80439e-09
-2.03041e-10
3.84988e-09
-2.03597e-10
3.89467e-09
-2.04266e-10
3.93838e-09
-2.02548e-10
3.98028e-09
-1.96485e-10
4.01949e-09
-1.85042e-10
4.05508e-09
-1.68053e-10
4.08623e-09
-1.4611e-10
4.11226e-09
-1.20316e-10
4.13265e-09
-9.20833e-11
4.14715e-09
-6.30397e-11
4.15581e-09
-3.48984e-11
4.15898e-09
-9.24098e-12
4.15731e-09
1.26714e-11
4.15164e-09
2.99761e-11
4.14293e-09
4.22294e-11
4.13221e-09
4.93898e-11
4.12051e-09
5.17778e-11
4.10877e-09
5.001e-11
4.09776e-09
4.49041e-11
4.08813e-09