/*--------------------------------*- C++ -*----------------------------------*\
| =========                 |                                                 |
| \\      /  F ield         | OpenFOAM: The Open Source CFD Toolbox           |
|  \\    /   O peration     | Version:  2506                                  |
|   \\  /    A nd           | Website:  www.openfoam.com                      |
|    \\/     M anipulation  |                                                 |
\*---------------------------------------------------------------------------*/
FoamFile
{
    version     2.0;
    format      ascii;
    arch        "LSB;label=32;scalar=64";
    class       volScalarField;
    location    "4.4";
    object      p;
}
// * * * * * * * * * * * * * * * * * * * * * * * * * * * * * * * * * * * * * //

dimensions      [0 2 -2 0 0 0 0];

internalField   nonuniform List<scalar> 
4000
(
0.000558339
0.000500418
0.000469061
0.000455508
0.000447297
0.000441574
0.000437576
0.000434571
0.000432082
0.000429887
0.000427882
0.000426011
0.000424241
0.000422553
0.000420937
0.000419387
0.0004179
0.000416474
0.000415109
0.000413806
0.000412567
0.000411396
0.000410296
0.000409274
0.000408334
0.000407486
0.000406736
0.000406093
0.000405568
0.00040517
0.000404911
0.000404808
0.000404878
0.000405009
0.000405673
0.000406763
0.000407516
0.00040776
0.000407462
0.000406352
0.000404129
0.000399594
0.000392754
0.000384356
0.000374438
0.000363206
0.000350797
0.000337121
0.000322821
0.000307784
0.000292272
0.000276787
0.000261138
0.000246268
0.000231722
0.000218498
0.000206463
0.000195808
0.00018722
0.000179654
0.000174529
0.000170708
0.000168443
0.000167631
0.000167706
0.000168968
0.000170693
0.000173168
0.000175892
0.00017895
0.000182168
0.00018542
0.000188771
0.00019207
0.000195329
0.000198537
0.000201644
0.000204642
0.000207523
0.000210256
0.000212828
0.000215227
0.000217438
0.000219455
0.000221279
0.000222912
0.00022437
0.00022567
0.000226825
0.000227858
0.00022879
0.000229633
0.000230406
0.000231126
0.000231799
0.000232441
0.000233055
0.000233653
0.000234237
0.000234816
0.000235391
0.000235965
0.000236545
0.000237135
0.000237738
0.000238351
0.000238978
0.00023961
0.000240245
0.000240867
0.000241462
0.000242005
0.000242472
0.000242812
0.000243009
0.000242975
0.00024268
0.00024206
0.00024103
0.000239546
0.000237541
0.000234937
0.000231697
0.000227785
0.000223138
0.00021775
0.000211606
0.000204697
0.000197042
0.000188652
0.000179505
0.000169718
0.000159295
0.00014817
0.00013658
0.000124548
0.000111861
9.91591e-05
8.60418e-05
7.29696e-05
5.99767e-05
4.73041e-05
3.5184e-05
2.39868e-05
1.35726e-05
4.97519e-06
-2.73292e-06
-8.19991e-06
-1.22488e-05
-1.47296e-05
-1.54542e-05
-1.52432e-05
-1.34863e-05
-1.1178e-05
-7.91263e-06
-4.40386e-06
-4.23739e-07
3.57632e-06
7.65223e-06
1.16129e-05
1.60398e-05
1.94952e-05
2.26774e-05
2.56066e-05
2.83292e-05
3.07106e-05
3.27892e-05
3.40401e-05
3.45962e-05
3.46599e-05
3.42603e-05
3.34564e-05
3.23254e-05
3.09452e-05
2.9389e-05
2.77246e-05
2.60132e-05
2.4308e-05
2.26525e-05
2.10818e-05
1.96176e-05
1.82704e-05
1.70413e-05
1.59223e-05
1.48974e-05
1.39444e-05
1.30385e-05
1.21547e-05
1.12709e-05
1.03689e-05
9.43595e-06
8.46512e-06
7.45533e-06
6.41485e-06
5.35009e-06
4.2735e-06
3.20007e-06
2.14324e-06
1.11348e-06
2.12386e-07
0.000506675
0.000483545
0.000465637
0.000455849
0.000448982
0.000443416
0.000439125
0.000435798
0.000433054
0.000430663
0.000428512
0.000426532
0.000424681
0.000422932
0.00042127
0.000419686
0.000418173
0.000416729
0.000415352
0.000414042
0.0004128
0.000411629
0.000410532
0.000409514
0.000408581
0.00040774
0.000407
0.000406369
0.000405857
0.000405474
0.000405233
0.000405147
0.000405235
0.000405355
0.00040589
0.000406743
0.000407146
0.000406943
0.00040605
0.000404143
0.000400916
0.000395421
0.000387909
0.000379044
0.00036882
0.000357419
0.000344985
0.000331481
0.000317499
0.000302943
0.000288061
0.000273312
0.000258542
0.000244586
0.000231096
0.000218798
0.000207559
0.000197526
0.000189311
0.000182042
0.000176896
0.000172969
0.000170443
0.000169287
0.000168992
0.000169845
0.000171199
0.000173307
0.000175724
0.0001785
0.000181491
0.000184549
0.000187737
0.000190909
0.000194061
0.000197188
0.000200238
0.0002032
0.000206069
0.000208816
0.000211424
0.000213883
0.000216176
0.000218293
0.00022023
0.000221983
0.000223559
0.000224971
0.000226225
0.000227342
0.000228345
0.000229245
0.000230064
0.000230821
0.000231522
0.00023219
0.000232825
0.000233446
0.000234049
0.000234651
0.000235248
0.000235855
0.000236464
0.000237081
0.00023771
0.000238342
0.000238986
0.000239623
0.000240252
0.000240851
0.000241403
0.000241875
0.00024224
0.00024244
0.000242453
0.000242189
0.000241615
0.000240664
0.000239254
0.000237346
0.000234875
0.000231774
0.000228015
0.000223572
0.000218395
0.000212492
0.000205859
0.000198498
0.000190439
0.000181705
0.000172281
0.000162299
0.000151771
0.000140638
0.000129135
0.000117266
0.000104909
9.25923e-05
8.0024e-05
6.75962e-05
5.53787e-05
4.35742e-05
3.24046e-05
2.21602e-05
1.28129e-05
5.00223e-06
-1.9376e-06
-6.94973e-06
-1.06776e-05
-1.30236e-05
-1.37731e-05
-1.36687e-05
-1.21364e-05
-1.00747e-05
-7.09075e-06
-3.84965e-06
-1.26865e-07
3.6456e-06
7.53674e-06
1.12345e-05
1.55779e-05
1.90309e-05
2.22395e-05
2.5204e-05
2.79459e-05
3.02906e-05
3.22958e-05
3.34729e-05
3.40167e-05
3.41074e-05
3.37466e-05
3.29857e-05
3.19016e-05
3.05693e-05
2.90583e-05
2.74341e-05
2.57567e-05
2.40786e-05
2.24442e-05
2.08882e-05
1.94353e-05
1.80986e-05
1.68808e-05
1.57749e-05
1.47659e-05
1.38324e-05
1.29498e-05
1.20923e-05
1.12367e-05
1.03635e-05
9.45915e-06
8.51559e-06
7.53179e-06
6.50907e-06
5.45773e-06
4.38933e-06
3.31777e-06
2.25494e-06
1.20738e-06
2.385e-07
0.000482345
0.000474775
0.000464205
0.000456241
0.000449973
0.000444855
0.000440555
0.000437038
0.000434087
0.000431511
0.000429208
0.000427107
0.000425158
0.000423333
0.000421611
0.000419979
0.000418429
0.000416956
0.000415557
0.00041423
0.000412976
0.000411795
0.000410692
0.000409669
0.000408732
0.000407889
0.000407146
0.000406514
0.000406
0.000405616
0.00040537
0.000405273
0.000405343
0.000405404
0.000405783
0.000406375
0.000406389
0.000405679
0.000404161
0.00040148
0.000397393
0.000391189
0.000383278
0.000374208
0.000363937
0.000352623
0.000340422
0.00032735
0.00031393
0.000300084
0.000286031
0.000272188
0.000258463
0.00024546
0.000232931
0.000221436
0.000210907
0.000201416
0.000193483
0.000186378
0.000181074
0.000176868
0.000173916
0.000172249
0.000171417
0.000171723
0.000172564
0.000174201
0.000176209
0.000178628
0.00018133
0.000184139
0.000187133
0.000190147
0.000193173
0.000196207
0.000199189
0.000202106
0.000204956
0.000207709
0.000210346
0.000212856
0.000215218
0.000217419
0.00021945
0.000221299
0.000222968
0.00022447
0.000225803
0.000226988
0.000228048
0.000228991
0.000229841
0.000230623
0.000231337
0.000232019
0.00023266
0.000233292
0.000233901
0.000234518
0.000235125
0.000235745
0.00023637
0.000237003
0.000237651
0.000238296
0.00023895
0.000239585
0.0002402
0.000240767
0.000241262
0.000241648
0.000241893
0.000241932
0.000241744
0.00024123
0.000240362
0.000239074
0.000237288
0.00023497
0.000232067
0.000228522
0.000224319
0.000219441
0.000213856
0.000207581
0.000200621
0.000192989
0.000184717
0.000175837
0.000166353
0.000156372
0.000145918
0.000134965
0.000123715
0.000112184
0.000100316
8.85384e-05
7.66467e-05
6.49646e-05
5.35823e-05
4.26571e-05
3.23835e-05
2.29684e-05
1.43772e-05
7.14272e-06
7.25555e-07
-4.04502e-06
-7.66414e-06
-1.00894e-05
-1.10562e-05
-1.12543e-05
-1.00883e-05
-8.41383e-06
-5.79458e-06
-2.90633e-06
5.15094e-07
4.01202e-06
7.71531e-06
1.11082e-05
1.54505e-05
1.87874e-05
2.19258e-05
2.48678e-05
2.75981e-05
2.98728e-05
3.18052e-05
3.29003e-05
3.34274e-05
3.35491e-05
3.32261e-05
3.25016e-05
3.14556e-05
3.01614e-05
2.86856e-05
2.70918e-05
2.54394e-05
2.37814e-05
2.21631e-05
2.06198e-05
1.91788e-05
1.78557e-05
1.6655e-05
1.55701e-05
1.45864e-05
1.36829e-05
1.28339e-05
1.20125e-05
1.11936e-05
1.03563e-05
9.48484e-06
8.57006e-06
7.60892e-06
6.60427e-06
5.56419e-06
4.49977e-06
3.42447e-06
2.34914e-06
1.27815e-06
2.2738e-07
0.000471352
0.000468567
0.000462114
0.000455619
0.000450312
0.000445761
0.000441622
0.000438139
0.000435091
0.000432376
0.000429942
0.000427716
0.000425658
0.000423744
0.000421947
0.000420251
0.000418647
0.000417129
0.000415692
0.000414332
0.000413049
0.000411842
0.000410713
0.000409666
0.000408705
0.000407836
0.000407067
0.000406404
0.000405857
0.000405432
0.000405136
0.000404973
0.000404953
0.000404891
0.000405088
0.00040542
0.000405064
0.000403878
0.000401795
0.000398487
0.000393786
0.000387152
0.000379055
0.000369957
0.000359812
0.000348773
0.000337001
0.000324549
0.000311897
0.000298918
0.000285816
0.000273013
0.000260418
0.000248444
0.000236945
0.000226286
0.000216465
0.000207493
0.000199778
0.000192759
0.000187199
0.000182595
0.000179084
0.000176748
0.000175226
0.000174817
0.000174989
0.000176005
0.000177467
0.000179411
0.00018172
0.000184194
0.000186923
0.000189721
0.000192573
0.000195476
0.000198358
0.000201204
0.000204012
0.000206749
0.000209394
0.000211938
0.000214356
0.00021663
0.000218748
0.000220691
0.000222454
0.000224048
0.00022546
0.000226711
0.000227826
0.000228807
0.000229681
0.00023048
0.000231198
0.000231883
0.000232519
0.00023315
0.000233755
0.000234376
0.000234984
0.000235615
0.00023625
0.000236896
0.000237559
0.000238212
0.000238873
0.000239501
0.000240095
0.000240619
0.000241044
0.000241329
0.000241434
0.000241289
0.000240876
0.000240091
0.000238909
0.000237269
0.0002351
0.000232378
0.000229061
0.000225104
0.000220506
0.000215259
0.000209347
0.000202795
0.000195619
0.000187839
0.000179492
0.000170616
0.000161225
0.000151411
0.000141216
0.000130631
0.000119821
0.000108824
9.76243e-05
8.6555e-05
7.54866e-05
6.46686e-05
5.41974e-05
4.41831e-05
3.47831e-05
2.6136e-05
1.82145e-05
1.14262e-05
5.35576e-06
6.23091e-07
-3.11275e-06
-5.83735e-06
-7.25153e-06
-7.95995e-06
-7.36033e-06
-6.23959e-06
-4.12955e-06
-1.70386e-06
1.33539e-06
4.49973e-06
8.00615e-06
1.11076e-05
1.54581e-05
1.86609e-05
2.16874e-05
2.45756e-05
2.72802e-05
2.94762e-05
3.13386e-05
3.23445e-05
3.28348e-05
3.29691e-05
3.26663e-05
3.19599e-05
3.09345e-05
2.96636e-05
2.82116e-05
2.66403e-05
2.50089e-05
2.33707e-05
2.17715e-05
2.02483e-05
1.88288e-05
1.75297e-05
1.63559e-05
1.53016e-05
1.43519e-05
1.34854e-05
1.26751e-05
1.18925e-05
1.11113e-05
1.03092e-05
9.46928e-06
8.58141e-06
7.64203e-06
6.6537e-06
5.62347e-06
4.56201e-06
3.48233e-06
2.39408e-06
1.30599e-06
1.91442e-07
0.000464623
0.000463296
0.000459321
0.000454626
0.000450297
0.000446226
0.00044247
0.000439132
0.000436038
0.000433257
0.000430743
0.000428391
0.000426214
0.000424201
0.000422312
0.000420532
0.000418855
0.000417273
0.000415777
0.000414364
0.00041303
0.000411775
0.0004106
0.000409505
0.000408495
0.000407573
0.000406746
0.00040602
0.0004054
0.000404892
0.000404497
0.000404211
0.000404039
0.000403803
0.000403771
0.000403802
0.000403073
0.000401435
0.000398846
0.000395029
0.000389882
0.000382996
0.000374858
0.00036586
0.000355981
0.00034537
0.000334188
0.000322526
0.000310686
0.00029867
0.000286728
0.000275071
0.00026366
0.000252786
0.00024237
0.000232624
0.000223565
0.000215174
0.000207738
0.000200868
0.000195109
0.000190138
0.000186064
0.00018301
0.000180724
0.000179473
0.000178835
0.000179061
0.000179812
0.000181115
0.000182876
0.000184882
0.000187224
0.000189707
0.000192302
0.000195006
0.000197733
0.000200463
0.000203192
0.000205883
0.000208512
0.000211069
0.000213525
0.00021586
0.000218059
0.000220092
0.000221949
0.000223638
0.000225136
0.000226458
0.000227631
0.000228651
0.000229547
0.000230358
0.000231072
0.000231752
0.000232373
0.000232993
0.000233583
0.000234198
0.000234799
0.000235432
0.000236071
0.000236722
0.000237393
0.000238046
0.000238701
0.000239307
0.000239859
0.000240315
0.000240639
0.000240784
0.000240708
0.000240335
0.000239651
0.00023855
0.000237015
0.000234995
0.000232426
0.000229297
0.00022558
0.000221244
0.0002163
0.000210755
0.000204603
0.000197878
0.000190603
0.000182804
0.000174524
0.0001658
0.000156656
0.00014717
0.000137417
0.000127365
0.000117139
0.000106836
9.64453e-05
8.62099e-05
7.60629e-05
6.61848e-05
5.66654e-05
4.75739e-05
3.90286e-05
3.11145e-05
2.38163e-05
1.74105e-05
1.16081e-05
6.8328e-06
2.88229e-06
-2.38777e-07
-2.23257e-06
-3.58307e-06
-3.72146e-06
-3.31416e-06
-1.89486e-06
-8.59974e-08
2.42559e-06
5.14659e-06
8.3882e-06
1.11814e-05
1.54865e-05
1.85442e-05
2.14218e-05
2.42168e-05
2.68643e-05
2.89517e-05
3.07115e-05
3.16017e-05
3.20301e-05
3.21587e-05
3.1866e-05
3.11732e-05
3.01694e-05
2.89285e-05
2.75116e-05
2.59783e-05
2.43863e-05
2.27882e-05
2.12295e-05
1.97472e-05
1.83684e-05
1.71094e-05
1.59755e-05
1.49606e-05
1.40494e-05
1.32221e-05
1.24491e-05
1.17019e-05
1.09545e-05
1.01838e-05
9.37303e-06
8.51172e-06
7.59597e-06
6.62768e-06
5.61339e-06
4.56308e-06
3.4891e-06
2.39981e-06
1.3116e-06
1.53302e-07
0.000460132
0.000459376
0.000456811
0.000453405
0.00044991
0.000446452
0.000443093
0.000439885
0.000436824
0.000434067
0.000431525
0.000429058
0.000426777
0.000424673
0.000422683
0.000420808
0.000419048
0.000417387
0.000415816
0.00041433
0.000412928
0.000411604
0.000410358
0.000409192
0.000408105
0.000407102
0.000406186
0.000405361
0.00040463
0.000403994
0.000403452
0.000402994
0.000402619
0.000402166
0.00040186
0.000401545
0.000400438
0.000398385
0.000395361
0.000391144
0.000385688
0.000378692
0.000370634
0.000361849
0.000352349
0.000342281
0.000331796
0.000320993
0.000310023
0.000299079
0.000288362
0.000277868
0.000267644
0.000257889
0.000248555
0.000239752
0.000231489
0.000223736
0.000216673
0.000210055
0.000204238
0.000199031
0.000194502
0.000190813
0.000187817
0.000185718
0.000184227
0.000183568
0.000183489
0.00018401
0.000185069
0.000186458
0.000188267
0.000190303
0.000192526
0.000194928
0.000197415
0.000199958
0.000202547
0.000205142
0.00020771
0.000210243
0.000212708
0.000215078
0.000217336
0.000219446
0.00022139
0.000223173
0.000224756
0.000226155
0.00022739
0.000228455
0.000229375
0.000230198
0.000230903
0.000231573
0.000232169
0.000232769
0.000233332
0.000233932
0.000234515
0.00023514
0.00023577
0.000236416
0.00023708
0.000237714
0.000238341
0.000238896
0.000239371
0.000239718
0.000239893
0.000239846
0.000239534
0.00023888
0.000237875
0.000236416
0.000234499
0.000232082
0.000229114
0.000225599
0.000221523
0.000216868
0.000211659
0.00020591
0.00019963
0.000192854
0.000185611
0.000177933
0.000169861
0.000161434
0.000152679
0.000143663
0.000134493
0.000125057
0.000115567
0.000106062
9.65497e-05
8.72072e-05
7.80119e-05
6.9085e-05
6.05011e-05
5.22992e-05
4.45608e-05
3.73337e-05
3.0594e-05
2.45336e-05
1.89637e-05
1.41329e-05
9.95176e-06
6.43007e-06
3.82686e-06
1.79499e-06
8.33814e-07
4.33627e-07
1.02002e-06
2.07321e-06
3.90236e-06
6.04863e-06
8.91068e-06
1.13488e-05
1.54846e-05
1.83697e-05
2.10585e-05
2.37084e-05
2.62478e-05
2.81836e-05
2.97917e-05
3.0538e-05
3.08821e-05
3.09873e-05
3.06982e-05
3.00233e-05
2.90539e-05
2.78634e-05
2.65082e-05
2.50434e-05
2.35238e-05
2.19997e-05
2.05147e-05
1.91035e-05
1.77913e-05
1.65926e-05
1.55127e-05
1.4545e-05
1.36734e-05
1.28842e-05
1.21428e-05
1.14228e-05
1.07006e-05
9.95414e-06
9.16786e-06
8.33215e-06
7.443e-06
6.50179e-06
5.51437e-06
4.48952e-06
3.43846e-06
2.36769e-06
1.30092e-06
1.23762e-07
0.000457118
0.00045663
0.000454849
0.000452272
0.000449404
0.000446419
0.000443389
0.000440391
0.000437484
0.000434734
0.00043212
0.00042961
0.000427289
0.000425116
0.00042302
0.000421047
0.000419201
0.000417456
0.000415801
0.000414232
0.000412746
0.000411337
0.000410003
0.000408743
0.000407557
0.000406446
0.000405412
0.000404455
0.000403576
0.000402775
0.000402045
0.000401372
0.000400752
0.000400047
0.000399431
0.000398738
0.000397263
0.000394844
0.000391461
0.00038695
0.000381305
0.000374321
0.000366443
0.000357961
0.000348924
0.000339473
0.000329741
0.000319813
0.000309857
0.000300022
0.000290411
0.000281054
0.000271988
0.000263324
0.000255032
0.000247151
0.000239677
0.000232585
0.000225964
0.000219678
0.000213959
0.000208678
0.00020383
0.000199664
0.000196113
0.000193271
0.000190987
0.000189457
0.000188521
0.000188193
0.000188448
0.000189107
0.000190246
0.000191701
0.000193423
0.0001954
0.000197533
0.000199789
0.000202149
0.000204571
0.000207011
0.00020946
0.000211879
0.000214239
0.00021652
0.000218677
0.000220686
0.000222547
0.00022421
0.000225684
0.000226986
0.0002281
0.000229049
0.000229889
0.000230587
0.000231243
0.00023181
0.000232383
0.00023291
0.000233484
0.000234036
0.000234639
0.000235245
0.000235865
0.000236499
0.000237086
0.00023765
0.000238114
0.000238464
0.00023865
0.000238618
0.000238323
0.000237719
0.000236735
0.00023537
0.00023353
0.000231222
0.000228419
0.000225086
0.000221238
0.000216876
0.000211994
0.000206626
0.000200794
0.000194511
0.000187817
0.000180742
0.000173318
0.000165585
0.00015758
0.000149332
0.000140908
0.000132342
0.000123636
0.000114967
0.000106302
9.76787e-05
8.92325e-05
8.09646e-05
7.2949e-05
6.52408e-05
5.78595e-05
5.08532e-05
4.4242e-05
3.79991e-05
3.22612e-05
2.69101e-05
2.20333e-05
1.76408e-05
1.37643e-05
1.0588e-05
7.90248e-06
6.11852e-06
4.89264e-06
4.57291e-06
4.78102e-06
5.8065e-06
7.26083e-06
9.60702e-06
1.16253e-05
1.54165e-05
1.80786e-05
2.05351e-05
2.29783e-05
2.5343e-05
2.70798e-05
2.84851e-05
2.90695e-05
2.93154e-05
2.93818e-05
2.90933e-05
2.8447e-05
2.75329e-05
2.64222e-05
2.51646e-05
2.38082e-05
2.24023e-05
2.09936e-05
1.96218e-05
1.83171e-05
1.71008e-05
1.59847e-05
1.49739e-05
1.40602e-05
1.32315e-05
1.24703e-05
1.17513e-05
1.10489e-05
1.03409e-05
9.60899e-06
8.84104e-06
8.02923e-06
7.16986e-06
6.26393e-06
5.31627e-06
4.33387e-06
3.326e-06
2.29649e-06
1.27383e-06
1.08066e-07
0.000455115
0.000454757
0.000453409
0.000451351
0.00044892
0.000446278
0.000443507
0.000440692
0.000437901
0.000435187
0.000432571
0.00043006
0.000427679
0.00042542
0.000423263
0.000421222
0.000419294
0.000417464
0.000415724
0.000414067
0.000412489
0.000410985
0.000409551
0.000408183
0.000406881
0.000405641
0.000404465
0.00040335
0.000402296
0.000401297
0.000400347
0.000399427
0.000398529
0.000397545
0.000396595
0.000395509
0.000393682
0.000390949
0.000387284
0.000382572
0.00037684
0.000369963
0.000362343
0.000354232
0.000345715
0.000336927
0.000327981
0.000318957
0.000310012
0.000301235
0.000292695
0.000284428
0.000276453
0.000268811
0.000261486
0.000254469
0.000247753
0.00024131
0.000235165
0.000229244
0.000223761
0.000218559
0.000213508
0.000209034
0.000205118
0.000201701
0.000198754
0.000196456
0.000194717
0.000193557
0.000192986
0.00019286
0.000193243
0.000194013
0.000195121
0.00019655
0.000198209
0.000200061
0.000202082
0.000204225
0.000206446
0.000208727
0.000211023
0.000213303
0.000215544
0.000217697
0.000219728
0.000221635
0.000223355
0.000224893
0.000226255
0.000227421
0.000228404
0.000229267
0.000229964
0.00023061
0.000231148
0.00023169
0.000232175
0.000232712
0.000233218
0.000233781
0.000234341
0.000234909
0.00023548
0.000235982
0.000236437
0.000236759
0.000236929
0.000236896
0.000236602
0.000236007
0.000235068
0.000233724
0.000231983
0.000229767
0.000227096
0.000223957
0.000220329
0.000216237
0.000211693
0.000206702
0.000201304
0.000195521
0.000189369
0.000182888
0.000176106
0.000169055
0.000161768
0.00015428
0.000146623
0.00013885
0.000130944
0.000123041
0.00011517
0.000107331
9.95742e-05
9.19876e-05
8.45844e-05
7.74055e-05
7.04868e-05
6.38369e-05
5.74747e-05
5.14018e-05
4.55887e-05
4.01497e-05
3.50175e-05
3.0108e-05
2.5539e-05
2.13738e-05
1.76887e-05
1.44131e-05
1.18689e-05
9.86057e-06
8.62299e-06
7.94839e-06
8.09809e-06
8.77581e-06
1.04756e-05
1.19911e-05
1.52512e-05
1.7616e-05
1.9787e-05
2.19554e-05
2.40674e-05
2.55597e-05
2.672e-05
2.71403e-05
2.7288e-05
2.73077e-05
2.70241e-05
2.64256e-05
2.55962e-05
2.46018e-05
2.34837e-05
2.22798e-05
2.1032e-05
1.97822e-05
1.85645e-05
1.74024e-05
1.63108e-05
1.52985e-05
1.4368e-05
1.35144e-05
1.27288e-05
1.19895e-05
1.12834e-05
1.05874e-05
9.88105e-06
9.15309e-06
8.39726e-06
7.60791e-06
6.78153e-06
5.91893e-06
5.02371e-06
4.10044e-06
3.1555e-06
2.18933e-06
1.2317e-06
1.08875e-07
0.000453868
0.000453573
0.000452459
0.000450702
0.000448546
0.000446127
0.000443532
0.000440844
0.000438136
0.00043546
0.000432853
0.000430332
0.000427913
0.000425603
0.000423397
0.000421296
0.000419296
0.000417391
0.000415572
0.000413832
0.000412162
0.000410561
0.000409022
0.000407539
0.000406109
0.000404728
0.000403394
0.000402104
0.000400854
0.000399639
0.000398446
0.000397255
0.000396058
0.000394776
0.000393476
0.000391996
0.000389836
0.000386836
0.000382955
0.00037812
0.000372381
0.000365683
0.000358377
0.000350687
0.00034273
0.000334632
0.000326484
0.000318364
0.000310392
0.000302624
0.000295107
0.000287857
0.00028088
0.000274171
0.000267722
0.000261496
0.00025548
0.000249648
0.000243983
0.000238488
0.000233233
0.000228185
0.000223147
0.00021848
0.000214305
0.000210482
0.00020706
0.000204167
0.000201743
0.000199834
0.000198491
0.000197597
0.000197199
0.000197232
0.000197654
0.00019844
0.00019952
0.000200858
0.000202425
0.000204168
0.000206061
0.000208071
0.000210144
0.000212249
0.000214364
0.000216435
0.000218422
0.000220318
0.000222051
0.00022362
0.00022502
0.000226227
0.000227241
0.000228129
0.000228832
0.000229474
0.000229988
0.000230499
0.000230938
0.000231427
0.000231874
0.000232376
0.000232862
0.000233344
0.000233809
0.000234181
0.000234474
0.000234601
0.000234535
0.000234231
0.000233631
0.000232705
0.000231413
0.000229713
0.00022762
0.000225077
0.000222113
0.000218726
0.000214909
0.000210693
0.000206097
0.000201138
0.000195848
0.000190247
0.000184353
0.000178203
0.000171823
0.000165236
0.000158473
0.000151564
0.000144537
0.000137429
0.000130266
0.000123117
0.00011601
0.000108961
0.000102014
9.52177e-05
8.85911e-05
8.21553e-05
7.59273e-05
6.9912e-05
6.41046e-05
5.85019e-05
5.30878e-05
4.78925e-05
4.2883e-05
3.79868e-05
3.3346e-05
2.89499e-05
2.48156e-05
2.10212e-05
1.78262e-05
1.51167e-05
1.2989e-05
1.14328e-05
1.06783e-05
1.05242e-05
1.14818e-05
1.239e-05
1.49592e-05
1.69342e-05
1.87556e-05
2.05783e-05
2.23582e-05
2.3569e-05
2.44605e-05
2.47321e-05
2.47962e-05
2.47732e-05
2.45076e-05
2.39856e-05
2.32797e-05
2.24452e-05
2.15104e-05
2.05011e-05
1.94526e-05
1.84021e-05
1.73768e-05
1.63898e-05
1.54468e-05
1.45532e-05
1.371e-05
1.29162e-05
1.21692e-05
1.14557e-05
1.07577e-05
1.00584e-05
9.3422e-06
8.60705e-06
7.8584e-06
7.09128e-06
6.30115e-06
5.48897e-06
4.65693e-06
3.80665e-06
2.94077e-06
2.05594e-06
1.17993e-06
1.27596e-07
0.000453247
0.000452979
0.00045197
0.000450355
0.000448333
0.000446025
0.000443519
0.000440896
0.000438228
0.000435572
0.000432966
0.000430433
0.00042799
0.000425645
0.000423399
0.00042125
0.000419194
0.000417226
0.000415338
0.000413522
0.00041177
0.000410075
0.000408431
0.000406832
0.000405272
0.000403745
0.000402246
0.000400771
0.000399313
0.000397875
0.000396432
0.000394952
0.000393442
0.00039185
0.000390197
0.000388328
0.000385856
0.000382623
0.00037858
0.000373682
0.000367995
0.000361525
0.000354571
0.000347338
0.000339966
0.00033257
0.000325218
0.000317983
0.000310937
0.000304125
0.00029756
0.000291239
0.00028516
0.000279286
0.000273616
0.000268095
0.000262706
0.000257432
0.000252223
0.00024713
0.000242097
0.000237218
0.000232372
0.000227731
0.000223372
0.000219241
0.0002155
0.000212187
0.000209212
0.000206673
0.000204672
0.000203078
0.000201931
0.000201232
0.00020095
0.000201043
0.000201466
0.000202205
0.000203238
0.000204454
0.000205901
0.000207535
0.000209279
0.0002111
0.000212977
0.000214864
0.000216714
0.000218516
0.000220194
0.000221738
0.000223131
0.000224348
0.000225375
0.000226277
0.000226984
0.000227622
0.000228116
0.000228596
0.000228987
0.000229419
0.000229791
0.000230207
0.000230587
0.000230944
0.000231259
0.000231453
0.000231534
0.000231418
0.000231076
0.000230471
0.000229547
0.000228288
0.000226664
0.000224652
0.000222275
0.0002195
0.000216359
0.000212854
0.000208983
0.00020478
0.000200272
0.000195494
0.000190447
0.000185145
0.000179619
0.000173897
0.000167996
0.000161935
0.00015574
0.000149438
0.000143053
0.000136617
0.000130162
0.000123727
0.000117336
0.000111016
0.000104796
9.8703e-05
9.27542e-05
8.6961e-05
8.13225e-05
7.58459e-05
7.05059e-05
6.5302e-05
6.02117e-05
5.52244e-05
5.0337e-05
4.54955e-05
4.07772e-05
3.62152e-05
3.17663e-05
2.75264e-05
2.37363e-05
2.03681e-05
1.743e-05
1.50517e-05
1.34115e-05
1.23885e-05
1.24792e-05
1.27902e-05
1.45059e-05
1.59838e-05
1.73929e-05
1.88058e-05
2.01871e-05
2.1098e-05
2.17237e-05
2.18771e-05
2.18868e-05
2.18422e-05
2.1615e-05
2.11932e-05
2.06516e-05
2.00327e-05
1.93289e-05
1.85478e-05
1.77283e-05
1.69092e-05
1.61094e-05
1.5327e-05
1.45526e-05
1.37878e-05
1.30364e-05
1.2289e-05
1.15651e-05
1.08709e-05
1.01763e-05
9.47632e-06
8.75054e-06
8.0031e-06
7.26183e-06
6.51877e-06
5.76785e-06
5.01131e-06
4.24982e-06
3.48161e-06
2.70477e-06
1.91175e-06
1.1283e-06
1.64149e-07
0.000453196
0.00045293
0.000451928
0.000450321
0.000448305
0.000446001
0.000443496
0.000440872
0.000438201
0.000435537
0.000432919
0.000430371
0.000427908
0.000425538
0.000423263
0.000421078
0.00041898
0.000416964
0.00041502
0.000413139
0.000411313
0.000409534
0.000407793
0.000406083
0.000404396
0.000402725
0.000401063
0.0003994
0.000397725
0.00039607
0.000394388
0.00039261
0.000390778
0.000388871
0.000386866
0.00038462
0.000381851
0.000378411
0.000374241
0.000369322
0.000363728
0.000357517
0.000350937
0.000344183
0.000337413
0.00033072
0.000324151
0.000317769
0.0003116
0.000305676
0.000299981
0.000294496
0.000289212
0.000284072
0.00027908
0.000274173
0.000269333
0.000264554
0.000259761
0.000255046
0.000250283
0.000245612
0.000240944
0.000236359
0.000231957
0.000227745
0.000223806
0.00022015
0.000216725
0.000213714
0.000211196
0.000209006
0.000207181
0.000205798
0.000204851
0.000204254
0.000203989
0.000204067
0.000204476
0.00020513
0.000206007
0.00020713
0.000208452
0.000209895
0.000211426
0.000213016
0.000214621
0.000216224
0.000217756
0.000219199
0.000220515
0.000221685
0.000222685
0.000223568
0.000224263
0.000224882
0.000225352
0.000225792
0.000226132
0.000226491
0.000226774
0.000227076
0.000227319
0.000227516
0.000227637
0.000227614
0.000227441
0.000227052
0.000226422
0.000225526
0.000224309
0.000222759
0.000220862
0.00021862
0.000216058
0.000213175
0.000209997
0.00020653
0.000202769
0.000198733
0.000194459
0.000189996
0.000185309
0.000180389
0.00017531
0.00017008
0.0001647
0.000159192
0.000153576
0.000147876
0.000142116
0.000136321
0.000130516
0.000124738
0.000118996
0.000113323
0.000107739
0.000102253
9.68817e-05
9.16318e-05
8.6486e-05
8.1458e-05
7.65043e-05
7.16311e-05
6.68045e-05
6.20026e-05
5.72337e-05
5.24424e-05
4.76596e-05
4.29449e-05
3.8271e-05
3.37612e-05
2.94685e-05
2.54626e-05
2.17724e-05
1.86491e-05
1.61613e-05
1.42635e-05
1.33945e-05
1.31762e-05
1.38906e-05
1.47515e-05
1.56832e-05
1.66314e-05
1.75661e-05
1.81788e-05
1.85744e-05
1.86579e-05
1.86596e-05
1.86523e-05
1.85018e-05
1.81694e-05
1.77994e-05
1.74535e-05
1.70395e-05
1.65147e-05
1.5936e-05
1.53656e-05
1.48075e-05
1.4232e-05
1.36252e-05
1.29929e-05
1.23437e-05
1.16776e-05
1.10042e-05
1.03219e-05
9.60722e-06
8.86407e-06
8.10556e-06
7.36112e-06
6.64645e-06
5.93756e-06
5.23073e-06
4.53317e-06
3.84558e-06
3.16277e-06
2.47763e-06
1.77514e-06
1.09097e-06
2.15173e-07
0.000453717
0.000453428
0.000452335
0.000450604
0.000448468
0.000446061
0.00044347
0.000440777
0.000438056
0.000435355
0.000432711
0.000430145
0.000427665
0.00042528
0.000422989
0.000420782
0.000418656
0.000416607
0.000414622
0.00041269
0.000410803
0.000408951
0.000407124
0.000405313
0.00040351
0.000401705
0.000399889
0.000398053
0.000396188
0.00039429
0.000392331
0.000390291
0.000388167
0.000385943
0.000383583
0.000380973
0.000377916
0.00037428
0.000370002
0.000365088
0.00035961
0.000353671
0.000347472
0.000341213
0.000335054
0.00032906
0.000323252
0.000317684
0.000312334
0.000307223
0.000302308
0.00029756
0.000292964
0.000288455
0.00028404
0.000279655
0.000275286
0.000270935
0.000266512
0.000262138
0.00025765
0.000253204
0.000248724
0.000244268
0.000239912
0.000235663
0.000231586
0.000227703
0.000224056
0.000220732
0.000217739
0.000215051
0.000212634
0.00021067
0.000209138
0.000207901
0.000206972
0.00020636
0.000206116
0.000206243
0.0002065
0.000206987
0.000207763
0.000208725
0.000209805
0.000210993
0.000212236
0.000213518
0.00021481
0.000216064
0.000217215
0.000218256
0.000219165
0.000219976
0.00022062
0.000221185
0.00022161
0.000221992
0.000222266
0.00022253
0.000222707
0.000222872
0.000222953
0.000222961
0.000222862
0.0002226
0.000222158
0.000221488
0.000220577
0.000219426
0.000217998
0.000216275
0.000214244
0.000211941
0.000209384
0.000206556
0.000203452
0.000200107
0.000196576
0.000192852
0.000188935
0.000184852
0.000180592
0.000176143
0.00017155
0.000166823
0.00016197
0.000157004
0.000151947
0.000146816
0.000141635
0.000136425
0.000131201
0.000126006
0.000120832
0.000115719
0.000110674
0.000105702
0.000100811
9.60121e-05
9.12699e-05
8.66095e-05
8.19695e-05
7.7368e-05
7.27574e-05
6.81186e-05
6.34566e-05
5.87203e-05
5.3917e-05
4.91228e-05
4.42618e-05
3.9492e-05
3.4744e-05
3.02451e-05
2.59794e-05
2.21557e-05
1.87719e-05
1.60149e-05
1.42014e-05
1.33077e-05
1.30548e-05
1.32527e-05
1.3657e-05
1.41048e-05
1.45561e-05
1.48677e-05
1.50924e-05
1.51759e-05
1.52084e-05
1.52425e-05
1.5222e-05
1.51277e-05
1.50136e-05
1.48979e-05
1.47431e-05
1.44878e-05
1.41552e-05
1.3844e-05
1.35412e-05
1.31771e-05
1.27329e-05
1.22242e-05
1.16683e-05
1.10676e-05
1.04251e-05
9.74443e-06
9.02655e-06
8.28347e-06
7.53289e-06
6.79439e-06
6.08004e-06
5.38813e-06
4.72151e-06
4.0832e-06
3.46972e-06
2.87202e-06
2.27944e-06
1.67623e-06
1.07194e-06
2.89163e-07
0.000454865
0.000454519
0.000453215
0.000451204
0.000448809
0.000446185
0.000443418
0.000440591
0.000437776
0.000435016
0.000432338
0.000429751
0.000427259
0.000424878
0.000422588
0.000420368
0.000418231
0.000416168
0.00041416
0.000412194
0.00041026
0.000408349
0.000406451
0.000404554
0.000402648
0.000400722
0.000398765
0.000396767
0.000394715
0.000392597
0.000390395
0.000388105
0.000385694
0.000383151
0.000380444
0.00037748
0.000374137
0.000370299
0.000365916
0.000361014
0.000355659
0.000349993
0.000344173
0.000338418
0.000332877
0.000327572