/*--------------------------------*- C++ -*----------------------------------*\
| =========                 |                                                 |
| \\      /  F ield         | OpenFOAM: The Open Source CFD Toolbox           |
|  \\    /   O peration     | Version:  2506                                  |
|   \\  /    A nd           | Website:  www.openfoam.com                      |
|    \\/     M anipulation  |                                                 |
\*---------------------------------------------------------------------------*/
FoamFile
{
    version     2.0;
    format      ascii;
    arch        "LSB;label=32;scalar=64";
    class       surfaceScalarField;
    location    "0.45";
    object      phi;
}
// * * * * * * * * * * * * * * * * * * * * * * * * * * * * * * * * * * * * * //

dimensions      [0 3 -1 0 0 0 0];

oriented        oriented;

internalField   nonuniform List<scalar> 
7780
(
1.39291e-09
3.06891e-10
1.10169e-09
2.91232e-10
9.12421e-10
1.89204e-10
7.96019e-10
1.16374e-10
7.2103e-10
7.49867e-11
6.68812e-10
5.22071e-11
6.30092e-10
3.87115e-11
6.00039e-10
3.00521e-11
5.75888e-10
2.4152e-11
5.55999e-10
1.98916e-11
5.39365e-10
1.66353e-11
5.25334e-10
1.40327e-11
5.13444e-10
1.18922e-11
5.03343e-10
1.01026e-11
4.94745e-10
8.5991e-12
4.874e-10
7.34664e-12
4.81079e-10
6.3218e-12
4.75553e-10
5.52709e-12
4.70602e-10
4.9521e-12
4.66013e-10
4.5902e-12
4.6158e-10
4.43403e-12
4.57104e-10
4.47712e-12
4.52389e-10
4.71583e-12
4.47239e-10
5.15068e-12
4.41453e-10
5.78685e-12
4.34822e-10
6.6327e-12
4.27122e-10
7.70193e-12
4.18098e-10
9.02716e-12
4.07439e-10
1.06639e-11
3.94748e-10
1.26979e-11
3.79497e-10
1.52593e-11
3.60936e-10
1.85722e-11
3.37874e-10
2.3074e-11
3.04816e-10
3.30707e-11
2.74999e-10
2.98235e-11
2.6214e-10
1.28435e-11
2.60719e-10
1.37791e-12
2.65032e-10
-4.37923e-12
2.75547e-10
-1.05895e-11
2.94428e-10
-1.89331e-11
3.29799e-10
-3.53646e-11
3.71861e-10
-4.19824e-11
4.11228e-10
-3.92246e-11
4.47727e-10
-3.6313e-11
4.79599e-10
-3.16615e-11
5.07925e-10
-2.81048e-11
5.34313e-10
-2.61653e-11
5.55389e-10
-2.08623e-11
5.75027e-10
-1.94397e-11
5.91802e-10
-1.6601e-11
6.05032e-10
-1.30852e-11
6.17388e-10
-1.22435e-11
6.24075e-10
-6.60655e-12
6.30038e-10
-5.90536e-12
6.29511e-10
5.66472e-13
6.26277e-10
3.2678e-12
6.17615e-10
8.69278e-12
6.03006e-10
1.4639e-11
5.87787e-10
1.52403e-11
5.63245e-10
2.45422e-11
5.39489e-10
2.37299e-11
5.12206e-10
2.72294e-11
4.83807e-10
2.83293e-11
4.56516e-10
2.72257e-11
4.28374e-10
2.81004e-11
4.03064e-10
2.53163e-11
3.77409e-10
2.57231e-11
3.55329e-10
2.22096e-11
3.34076e-10
2.14398e-11
3.14978e-10
1.93312e-11
2.97766e-10
1.74782e-11
2.81309e-10
1.67446e-11
2.66951e-10
1.4652e-11
2.5369e-10
1.35501e-11
2.41576e-10
1.23899e-11
2.30961e-10
1.08694e-11
2.21496e-10
9.69319e-12
2.13101e-10
8.59702e-12
2.05969e-10
7.30643e-12
1.99978e-10
6.13824e-12
1.95033e-10
5.06562e-12
1.91148e-10
3.98309e-12
1.88231e-10
2.9922e-12
1.86219e-10
2.0681e-12
1.85113e-10
1.14603e-12
1.8472e-10
4.21227e-13
1.84904e-10
-1.62312e-13
1.85802e-10
-8.81073e-13
1.87103e-10
-1.28514e-12
1.8867e-10
-1.5535e-12
1.90839e-10
-2.15696e-12
1.93179e-10
-2.32905e-12
1.95677e-10
-2.48859e-12
1.98815e-10
-3.13153e-12
2.01814e-10
-2.99318e-12
2.05823e-10
-4.00508e-12
2.09711e-10
-3.88413e-12
2.14821e-10
-5.1064e-12
2.1972e-10
-4.89474e-12
2.2705e-10
-7.32443e-12
2.3452e-10
-7.46362e-12
2.4374e-10
-9.21338e-12
2.53444e-10
-9.69585e-12
2.63409e-10
-9.95781e-12
2.74987e-10
-1.15722e-11
2.86237e-10
-1.1246e-11
2.98887e-10
-1.26486e-11
3.11091e-10
-1.22054e-11
3.23492e-10
-1.24041e-11
3.35453e-10
-1.19663e-11
3.47034e-10
-1.15863e-11
3.57873e-10
-1.08435e-11
3.68136e-10
-1.02641e-11
3.76397e-10
-8.25769e-12
3.84865e-10
-8.45834e-12
3.91543e-10
-6.66215e-12
3.97339e-10
-5.77126e-12
4.02707e-10
-5.33488e-12
4.06867e-10
-4.11651e-12
4.10442e-10
-3.5201e-12
4.13853e-10
-3.33981e-12
4.16647e-10
-2.70325e-12
4.19041e-10
-2.28069e-12
4.21624e-10
-2.44122e-12
4.24103e-10
-2.31014e-12
4.26728e-10
-2.42941e-12
4.29623e-10
-2.67142e-12
4.32738e-10
-2.86678e-12
4.36434e-10
-3.42278e-12
4.41148e-10
-4.41368e-12
4.45844e-10
-4.36973e-12
4.51508e-10
-5.30917e-12
4.58913e-10
-7.02024e-12
4.66204e-10
-6.87964e-12
4.74804e-10
-8.16448e-12
4.85878e-10
-1.06205e-11
4.95692e-10
-9.3532e-12
5.08245e-10
-1.20957e-11
5.20354e-10
-1.1671e-11
5.33157e-10
-1.24014e-11
5.45595e-10
-1.20913e-11
5.56781e-10
-1.09089e-11
5.65648e-10
-8.6698e-12
5.72498e-10
-6.73083e-12
5.72956e-10
-4.06558e-13
5.72465e-10
4.94289e-13
5.61994e-10
1.04563e-11
5.48674e-10
1.33056e-11
5.29414e-10
1.92641e-11
5.05167e-10
2.42723e-11
4.80096e-10
2.51118e-11
4.49024e-10
3.11253e-11
4.198e-10
2.92837e-11
3.86401e-10
3.34732e-11
3.54304e-10
3.21967e-11
3.19352e-10
3.50736e-11
2.85001e-10
3.44845e-11
2.48775e-10
3.63726e-11
2.13924e-10
3.49899e-11
1.82008e-10
3.2021e-11
1.70056e-10
1.1989e-11
1.61489e-10
8.58105e-12
1.57235e-10
4.2597e-12
1.58676e-10
-1.43672e-12
1.69526e-10
-1.08484e-11
1.8924e-10
-1.97108e-11
2.23214e-10
-3.39649e-11
2.63612e-10
-4.03825e-11
3.05003e-10
-4.13739e-11
3.4567e-10
-4.0649e-11
3.83553e-10
-3.78669e-11
4.17032e-10
-3.34651e-11
4.45128e-10
-2.80835e-11
4.67468e-10
-2.23306e-11
4.84175e-10
-1.66984e-11
4.95709e-10
-1.1528e-11
5.02777e-10
-7.06408e-12
5.06359e-10
-3.57848e-12
5.06834e-10
-4.72502e-13
5.05133e-10
1.70272e-12
5.01697e-10
3.43731e-12
4.97297e-10
4.4015e-12
4.92421e-10
4.87636e-12
4.87446e-10
4.97519e-12
4.82656e-10
4.7904e-12
4.78253e-10
4.40317e-12
4.7437e-10
3.88373e-12
4.71079e-10
3.29149e-12
4.68404e-10
2.67479e-12
4.66334e-10
2.07075e-12
4.64829e-10
1.50581e-12
4.63833e-10
9.96087e-13
4.63292e-10
5.41594e-13
4.63089e-10
2.03326e-13
4.63136e-10
-4.71653e-14
4.63324e-10
-1.87148e-13
4.635e-10
-1.76307e-13
4.63384e-10
1.15278e-13
4.62605e-10
7.78344e-13
2.24624e-12
1.78024e-09
2.26639e-10
1.72199e-09
3.49484e-10
1.60298e-09
3.08311e-10
1.47665e-09
2.42809e-10
1.36329e-09
1.88382e-10
1.26766e-09
1.47837e-10
1.1878e-09
1.18564e-10
1.12085e-09
9.69978e-11
1.06444e-09
8.05635e-11
1.01667e-09
6.76599e-11
9.76084e-10
5.72221e-11
9.41558e-10
4.85599e-11
9.12198e-10
4.12526e-11
8.87269e-10
3.50336e-11
8.66133e-10
2.97365e-11
8.48214e-10
2.52673e-11
8.3297e-10
2.15662e-11
8.19883e-10
1.86155e-11
8.08447e-10
1.63898e-11
7.98171e-10
1.48673e-11
7.88583e-10
1.40238e-11
7.79229e-10
1.38325e-11
7.69677e-10
1.42683e-11
7.59519e-10
1.53104e-11
7.48362e-10
1.69452e-11
7.35828e-10
1.91687e-11
7.21542e-10
2.19911e-11
7.05118e-10
2.5454e-11
6.8615e-10
2.96365e-11
6.64192e-10
3.46619e-11
6.38788e-10
4.06711e-11
6.09469e-10
4.79007e-11
5.75762e-10
5.67912e-11
5.35792e-10
7.30513e-11
5.02599e-10
6.30289e-11
4.91401e-10
2.40541e-11
4.98777e-10
-5.99409e-12
5.21305e-10
-2.6921e-11
5.58156e-10
-4.74784e-11
6.10483e-10
-7.13236e-11
6.82408e-10
-1.07369e-10
7.61401e-10
-1.21054e-10
8.37516e-10
-1.15405e-10
9.08317e-10
-1.07161e-10
9.71333e-10
-9.47105e-11
1.02747e-09
-8.4264e-11
1.07808e-09
-7.67939e-11
1.12087e-09
-6.36699e-11
1.15899e-09
-5.75573e-11
1.19122e-09
-4.88213e-11
1.21728e-09
-3.91173e-11
1.23849e-09
-3.34187e-11
1.25155e-09
-1.96226e-11
1.25914e-09
-1.34511e-11
1.25732e-09
2.43305e-12
1.24801e-09
1.26119e-11
1.23008e-09
2.66511e-11
1.20189e-09
4.28321e-11
1.16767e-09
4.94701e-11
1.12167e-09
7.05331e-11
1.072e-09
7.34004e-11
1.01646e-09
8.27699e-11
9.57774e-10
8.70135e-11
8.98575e-10
8.64263e-11
8.37996e-10
8.86801e-11
7.80271e-10
8.30461e-11
7.23204e-10
8.28016e-11
6.69817e-10
7.56116e-11
6.18839e-10
7.24371e-11
5.71183e-10
6.70146e-11
5.26871e-10
6.18257e-11
4.84988e-10
5.86679e-11
4.46507e-10
5.3175e-11
4.10775e-10
4.93248e-11
3.77752e-10
4.54506e-11
3.47731e-10
4.0924e-11
3.20498e-10
3.6955e-11
2.96008e-10
3.31102e-11
2.74371e-10
2.89616e-11
2.55525e-10
2.49964e-11
2.39389e-10
2.1207e-11
2.2595e-10
1.74233e-11
2.151e-10
1.38383e-11
2.06729e-10
1.04321e-11
2.00769e-10
7.09843e-12
1.97268e-10
3.91639e-12
1.95735e-10
1.36887e-12
1.96185e-10
-1.32933e-12
1.98404e-10
-3.49768e-12
2.02086e-10
-5.226e-12
2.07457e-10
-7.51651e-12
2.14389e-10
-9.24849e-12
2.22829e-10
-1.09164e-11
2.33061e-10
-1.33517e-11
2.44685e-10
-1.46068e-11
2.58408e-10
-1.77178e-11
2.73634e-10
-1.90999e-11
2.91206e-10
-2.26698e-11
3.10447e-10
-2.41274e-11
3.31898e-10
-2.87666e-11
3.54768e-10
-3.03258e-11
3.7976e-10
-3.41964e-11
4.06311e-10
-3.62372e-11
4.34075e-10
-3.77109e-11
4.63108e-10
-4.05948e-11
4.9172e-10
-3.98468e-11
5.20699e-10
-4.16174e-11
5.48462e-10
-3.9958e-11
5.75191e-10
-3.91232e-11
6.00292e-10
-3.70586e-11
6.23568e-10
-3.48564e-11
6.44626e-10
-3.18962e-11
6.64079e-10
-2.97148e-11
6.81134e-10
-2.53139e-11
6.97181e-10
-2.45093e-11
7.11084e-10
-2.05729e-11
7.23584e-10
-1.82849e-11
7.35136e-10
-1.69065e-11
7.45345e-10
-1.43538e-11
7.54819e-10
-1.30293e-11
7.63999e-10
-1.25626e-11
7.72623e-10
-1.13744e-11
7.81047e-10
-1.07537e-11
7.8981e-10
-1.12529e-11
7.98778e-10
-1.13247e-11
8.08251e-10
-1.19478e-11
8.18406e-10
-1.28693e-11
8.29329e-10
-1.38341e-11
8.4141e-10
-1.55498e-11
8.54942e-10
-1.79927e-11
8.69278e-10
-1.87536e-11
8.85258e-10
-2.13338e-11
9.03465e-10
-2.52652e-11
9.22351e-10
-2.5791e-11
9.43285e-10
-2.91062e-11
9.66531e-10
-3.38493e-11
9.89448e-10
-3.22233e-11
1.01441e-09
-3.69798e-11
1.0389e-09
-3.60359e-11
1.06291e-09
-3.62534e-11
1.0852e-09
-3.41884e-11
1.10398e-09
-2.94785e-11
1.11797e-09
-2.24304e-11
1.12585e-09
-1.43898e-11
1.12443e-09
1.20263e-12
1.11619e-09
8.88332e-12
1.09462e-09
3.21202e-11
1.06494e-09
4.30402e-11
1.02525e-09
5.89848e-11
9.7567e-10
7.38535e-11
9.20551e-10
8.02319e-11
8.5704e-10
9.46438e-11
7.9151e-10
9.4832e-11
7.20842e-10
1.04173e-10
6.49377e-10
1.03706e-10
5.74859e-10
1.09627e-10
5.00085e-10
1.09295e-10
4.24571e-10
1.1192e-10
3.52865e-10
1.06711e-10
2.88321e-10
9.65532e-11
2.45962e-10
5.43102e-11
2.16627e-10
3.78845e-11
2.02292e-10
1.85758e-11
2.05471e-10
-4.62394e-12
2.29032e-10
-3.44135e-11
2.75004e-10
-6.56857e-11
3.44347e-10
-1.03309e-10
4.27049e-10
-1.23082e-10
5.13549e-10
-1.27869e-10
5.9825e-10
-1.25344e-10
6.76691e-10
-1.163e-10
7.45697e-10
-1.02464e-10
8.03404e-10
-8.57834e-11
8.49093e-10
-6.8014e-11
8.82966e-10
-5.05651e-11
9.05899e-10
-3.4457e-11
9.19198e-10
-2.03586e-11
9.24119e-10
-8.49686e-12
9.2269e-10
9.59156e-13
9.16345e-10
8.04903e-12
9.06648e-10
1.31359e-11
8.9473e-10
1.63203e-11
8.81669e-10
1.79374e-11
8.68338e-10
1.83066e-11
8.55401e-10
1.77274e-11
8.43331e-10
1.64742e-11
8.32427e-10
1.47875e-11
8.22849e-10
1.28703e-11
8.14638e-10
1.08856e-11
8.07751e-10
8.95807e-12
8.0208e-10
7.17674e-12
7.97476e-10
5.60068e-12
7.93751e-10
4.26721e-12
7.90741e-10
3.21296e-12
7.88242e-10
2.45223e-12
7.86033e-10
2.02166e-12
7.83865e-10
1.99122e-12
7.81498e-10
2.48076e-12
7.7863e-10
3.64599e-12
5.53598e-12
1.77931e-09
1.47357e-10
1.82895e-09
2.99777e-10
1.81538e-09
3.21967e-10
1.75939e-09
2.98929e-10
1.68327e-09
2.64595e-10
1.60265e-09
2.28494e-10
1.52525e-09
1.95965e-10
1.45425e-09
1.67985e-10
1.39071e-09
1.44104e-10
1.33461e-09
1.23762e-10
1.28551e-09
1.06323e-10
1.24281e-09
9.12548e-11
1.20587e-09
7.81982e-11
1.17403e-09
6.68761e-11
1.14667e-09
5.70931e-11
1.1232e-09
4.8737e-11
1.10302e-09
4.1744e-11
1.08556e-09
3.60824e-11
1.07022e-09
3.17248e-11
1.05645e-09
2.86431e-11
1.04367e-09
2.68028e-11
1.03134e-09
2.61623e-11
1.01893e-09
2.66759e-11
1.00595e-09
2.82983e-11
9.91905e-10
3.09893e-11
9.76355e-10
3.47207e-11
9.58862e-10
3.94859e-11
9.39007e-10
4.53121e-11
9.16381e-10
5.22666e-11
8.90593e-10
6.04552e-11
8.61261e-10
7.00104e-11
8.28069e-10
8.11021e-11
7.90899e-10
9.39713e-11
7.4884e-10
1.15121e-10
7.14849e-10
9.70343e-11
7.05153e-10
3.37707e-11
7.19595e-10
-2.04206e-11
7.54832e-10
-6.21585e-11
8.08927e-10
-1.01603e-10
8.80252e-10
-1.42717e-10
9.67724e-10
-1.94946e-10
1.05923e-09
-2.12683e-10
1.14747e-09
-2.03769e-10
1.2292e-09
-1.88991e-10
1.30218e-09
-1.67771e-10
1.36699e-09
-1.49153e-10
1.42452e-09
-1.34398e-10
1.47359e-09
-1.12796e-10
1.51615e-09
-1.00161e-10
1.55146e-09
-8.41517e-11
1.57954e-09
-6.71891e-11
1.60076e-09
-5.46072e-11
1.61348e-09
-3.22941e-11
1.61874e-09
-1.86521e-11
1.61442e-09
6.81236e-12
1.60119e-09
2.58856e-11
1.57845e-09
4.94177e-11
1.54523e-09
7.60498e-11
1.50395e-09
9.07437e-11
1.45155e-09
1.22915e-10
1.3929e-09
1.32059e-10
1.32744e-09
1.48252e-10
1.25743e-09
1.57072e-10
1.18505e-09
1.58874e-10
1.11043e-09
1.6338e-10
1.03703e-09
1.56521e-10
9.64155e-10
1.55736e-10
8.93955e-10
1.45849e-10
8.26277e-10
1.40131e-10
7.61876e-10
1.31413e-10
7.01182e-10
1.22503e-10
6.4361e-10
1.16213e-10
5.89984e-10
1.06765e-10
5.39997e-10
9.92703e-11
4.93659e-10
9.17427e-11
4.51298e-10
8.32364e-11
4.1285e-10
7.53563e-11
3.78351e-10
6.75636e-11
3.47978e-10
5.92907e-11
3.2176e-10
5.11734e-11
2.99641e-10
4.32866e-11
2.8166e-10
3.53673e-11
2.67763e-10
2.77012e-11
2.5787e-10
2.02935e-11
2.5192e-10
1.30236e-11
2.49443e-10
6.37516e-12
2.5044e-10
3.61928e-13
2.54934e-10
-5.82638e-12
2.62473e-10
-1.10347e-11
2.73024e-10
-1.57711e-11
2.86681e-10
-2.1165e-11
3.03004e-10
-2.55633e-11
3.21809e-10
-2.97124e-11
3.43536e-10
-3.50707e-11
3.67238e-10
-3.83011e-11
3.93909e-10
-4.43822e-11
4.22304e-10
-4.74887e-11
4.53471e-10
-5.38312e-11
4.85934e-10
-5.65851e-11
5.20916e-10
-6.37432e-11
5.56577e-10
-6.59804e-11
5.93771e-10
-7.13834e-11
6.31296e-10
-7.37536e-11
6.68679e-10
-7.50852e-11
7.05965e-10
-7.787e-11
7.41545e-10
-7.54157e-11
7.76054e-10
-7.61146e-11
8.08239e-10
-7.21312e-11
8.38242e-10
-6.9115e-11
8.65816e-10
-6.46221e-11
8.90855e-10
-5.98855e-11
9.13412e-10
-5.4446e-11
9.33835e-10
-5.01319e-11
9.51881e-10
-4.33572e-11
9.68576e-10
-4.12053e-11
9.8337e-10
-3.53713e-11
9.9689e-10
-3.18161e-11
1.00952e-09
-2.95561e-11
1.0212e-09
-2.60595e-11
1.0324e-09
-2.42609e-11
1.04344e-09
-2.36577e-11
1.05431e-09
-2.22968e-11
1.06534e-09
-2.18525e-11
1.07685e-09
-2.28367e-11
1.08889e-09
-2.34421e-11
1.10169e-09
-2.48337e-11
1.11541e-09
-2.66819e-11
1.1302e-09
-2.87205e-11
1.1463e-09
-3.17621e-11
1.16384e-09
-3.56528e-11
1.18259e-09
-3.76379e-11
1.20295e-09
-4.18404e-11
1.22523e-09
-4.76965e-11
1.24836e-09
-4.90672e-11
1.27321e-09
-5.40947e-11
1.29932e-09
-6.00853e-11
1.32527e-09
-5.82722e-11
1.35175e-09
-6.35196e-11
1.37712e-09
-6.14268e-11
1.4006e-09
-5.96907e-11
1.42112e-09
-5.46033e-11
1.43672e-09
-4.49305e-11
1.44634e-09
-3.18554e-11
1.44838e-09
-1.6204e-11
1.44094e-09
8.85525e-12
1.42407e-09
2.59436e-11
1.39458e-09
6.1748e-11
1.35473e-09
8.29659e-11
1.30395e-09
1.0979e-10
1.24214e-09
1.35648e-10
1.17251e-09
1.49848e-10
1.0936e-09
1.7354e-10
1.00992e-09
1.78524e-10
9.20496e-10
1.93635e-10
8.28867e-10
1.95375e-10
7.33952e-10
2.04575e-10
6.38384e-10
2.04889e-10
5.43034e-10
2.07272e-10
4.52761e-10
1.96945e-10
3.69601e-10
1.79643e-10
3.11127e-10
1.12705e-10
2.73808e-10
7.51431e-11
2.59878e-10
3.24702e-11
2.72244e-10
-1.70083e-11
3.15133e-10
-7.73162e-11
3.87283e-10
-1.37849e-10
4.86402e-10
-2.0244e-10
5.9712e-10
-2.33809e-10
7.08352e-10
-2.39105e-10
8.14379e-10
-2.3137e-10
9.10919e-10
-2.12836e-10
9.95051e-10
-1.8659e-10
1.06513e-09
-1.55855e-10
1.12062e-09
-1.23493e-10
1.16186e-09
-9.17978e-11
1.18987e-09
-6.24623e-11
1.20612e-09
-3.65999e-11
1.21242e-09
-1.47945e-11
1.2107e-09
2.67884e-12
1.20279e-09
1.5966e-11
1.19052e-09
2.54103e-11
1.17542e-09
3.14197e-11
1.15884e-09
3.45178e-11
1.14188e-09
3.52677e-11
1.12539e-09
3.42231e-11
1.10996e-09
3.18992e-11
1.096e-09
2.87534e-11
1.0837e-09
2.51728e-11
1.07311e-09
2.14696e-11
1.06419e-09
1.78821e-11
1.05678e-09
1.45809e-11
1.05071e-09
1.16785e-11
1.04573e-09
9.24388e-12
1.04162e-09
7.31804e-12
1.03815e-09
5.92629e-12
1.03507e-09
5.10209e-12
1.03216e-09
4.90235e-12
1.02923e-09
5.40236e-12
1.02622e-09
6.66232e-12
8.56388e-12
1.75091e-09
9.63574e-11
1.8238e-09
2.26867e-10
1.86401e-09
2.81731e-10
1.86972e-09
2.93287e-10
1.85036e-09
2.84028e-10
1.81444e-09
2.64483e-10
1.76984e-09
2.40592e-10
1.72226e-09
2.15557e-10
1.67523e-09
1.91129e-10
1.63061e-09
1.68384e-10
1.58939e-09
1.47547e-10
1.55197e-09
1.28675e-10
1.51837e-09
1.11797e-10
1.48843e-09
9.68171e-11
1.46189e-09
8.36339e-11
1.43842e-09
7.22024e-11
1.41766e-09
6.2507e-11
1.39919e-09
5.45458e-11
1.3826e-09
4.8319e-11
1.36742e-09
4.38216e-11
1.35319e-09
4.10364e-11
1.33942e-09
3.9934e-11
1.32562e-09
4.04725e-11
1.31131e-09
4.26052e-11
1.29602e-09
4.62829e-11
1.27928e-09
5.14639e-11
1.26064e-09
5.81265e-11
1.23967e-09
6.62811e-11
1.21596e-09
7.5976e-11
1.18912e-09
8.72974e-11
1.15878e-09
1.00361e-10
1.12459e-09
1.15299e-10
1.08629e-09
1.32271e-10
1.04255e-09
1.58869e-10
1.006e-09
1.33595e-10
9.93089e-10
4.67061e-11
1.0048e-09
-3.21086e-11
1.03863e-09
-9.59725e-11
1.09232e-09
-1.55306e-10
1.16267e-09
-2.1312e-10
1.24647e-09
-2.78836e-10
1.33279e-09
-2.99127e-10
1.41668e-09
-2.87791e-10
1.49466e-09
-2.67082e-10
1.56462e-09
-2.37826e-10
1.62694e-09
-2.11567e-10
1.68227e-09
-1.89802e-10
1.72985e-09
-1.60443e-10
1.7709e-09
-1.41249e-10
1.80483e-09
-1.18116e-10
1.83175e-09
-9.41093e-11
1.8516e-09
-7.44301e-11
1.86361e-09
-4.42473e-11
1.86808e-09
-2.30657e-11
1.86381e-09
1.1142e-11
1.85097e-09
3.87758e-11
1.82915e-09
7.12697e-11
1.79764e-09
1.07562e-10
1.7578e-09
1.30564e-10
1.70772e-09
1.72975e-10
1.65036e-09
1.89405e-10
1.58551e-09
2.13126e-10
1.51493e-09
2.27706e-10
1.44025e-09
2.33641e-10
1.36226e-09
2.41472e-10
1.28358e-09
2.35302e-10
1.20443e-09
2.34958e-10
1.12682e-09
2.2351e-10
1.05113e-09
2.15846e-10
9.78268e-10
2.04265e-10
9.09058e-10
1.91682e-10
8.43119e-10
1.82101e-10
7.8153e-10
1.68289e-10
7.24122e-10
1.56605e-10
6.71024e-10
1.44762e-10
6.22735e-10
1.31447e-10
5.79214e-10
1.18802e-10
5.40544e-10
1.06164e-10
5.07015e-10
9.27553e-11
4.78745e-10
7.93855e-11
4.55661e-10
6.63179e-11
4.37865e-10
5.31158e-11
4.25291e-10
4.02327e-11
4.17866e-10
2.76819e-11
4.15583e-10
1.52782e-11
4.18074e-10
3.86484e-12
4.25171e-10
-6.74591e-12
4.37013e-10
-1.76712e-11
4.52914e-10
-2.69338e-11
4.72588e-10
-3.54402e-11
4.96186e-10
-4.47569e-11
5.22976e-10
-5.2348e-11
5.52505e-10
-5.9235e-11
5.85297e-10
-6.78586e-11
6.19816e-10
-7.28164e-11
6.57238e-10
-8.18005e-11
6.95644e-10
-8.58926e-11
7.36186e-10
-9.43709e-11
7.76803e-10
-9.7199e-11
8.18938e-10
-1.05875e-10
8.60214e-10
-1.07253e-10
9.01589e-10
-1.12753e-10
9.41621e-10
-1.1378e-10
9.79977e-10
-1.13434e-10
1.01674e-09
-1.14622e-10
1.05059e-09
-1.09256e-10
1.08219e-09
-1.07712e-10
1.11071e-09
-1.00631e-10
1.13635e-09
-9.47507e-11
1.15923e-09
-8.74905e-11
1.17936e-09
-8.00071e-11
1.19709e-09
-7.21656e-11
1.21274e-09
-6.57751e-11
1.22633e-09
-5.69425e-11
1.23877e-09
-5.36403e-11
1.24976e-09
-4.63577e-11
1.25986e-09
-4.19247e-11
1.26947e-09
-3.91823e-11
1.27861e-09
-3.52159e-11
1.28769e-09
-3.33613e-11
1.29703e-09
-3.30399e-11
1.30663e-09
-3.19444e-11
1.31682e-09
-3.20999e-11
1.32785e-09
-3.39264e-11
1.33977e-09
-3.54269e-11
1.35278e-09
-3.79166e-11
1.36699e-09
-4.09733e-11
1.3825e-09
-4.43292e-11
1.39948e-09
-4.88382e-11
1.41794e-09
-5.423e-11
1.43777e-09
-5.76042e-11
1.4591e-09
-6.33189e-11
1.48209e-09
-7.085e-11
1.5058e-09
-7.29407e-11
1.53081e-09
-7.92747e-11
1.55633e-09
-8.57721e-11
1.58154e-09
-8.36423e-11
1.60631e-09
-8.84078e-11
1.62954e-09
-8.47471e-11
1.65014e-09
-8.03239e-11
1.66732e-09
-7.17708e-11
1.67928e-09
-5.68124e-11
1.68533e-09
-3.77697e-11
1.6838e-09
-1.45e-11
1.67354e-09
1.93085e-11
1.65391e-09
4.57594e-11
1.62306e-09
9.27421e-11
1.58162e-09
1.24505e-10
1.52947e-09
1.61973e-10
1.46612e-09
1.98993e-10
1.39399e-09
2.21954e-10
1.31179e-09
2.55725e-10
1.22334e-09
2.66976e-10
1.12784e-09
2.89162e-10
1.02912e-09
2.94129e-10
9.26233e-10
3.07495e-10
8.22547e-10
3.08595e-10
7.19621e-10
3.10185e-10
6.23861e-10
2.92648e-10
5.35608e-10
2.67811e-10
4.79049e-10
1.69174e-10
4.49466e-10
1.04657e-10
4.48858e-10
3.30344e-11
4.79243e-10
-4.74209e-11
5.44397e-10
-1.42494e-10
6.39523e-10
-2.33001e-10
7.59541e-10
-3.22485e-10
8.84823e-10
-3.59115e-10
1.00466e-09
-3.58959e-10
1.11513e-09
-3.41853e-10
1.21348e-09
-3.11187e-10
1.29801e-09
-2.71109e-10
1.36791e-09
-2.25755e-10
1.4232e-09
-1.7877e-10
1.46448e-09
-1.3307e-10
1.49285e-09
-9.08234e-11
1.50976e-09
-5.34963e-11
1.5169e-09
-2.19257e-11
1.51603e-09
3.54805e-12
1.50896e-09
2.30481e-11
1.49739e-09
3.6984e-11
1.48287e-09
4.59457e-11
1.46673e-09
5.06576e-11
1.45009e-09
5.19133e-11
1.4338e-09
5.05084e-11
1.41851e-09
4.71933e-11
1.40462e-09
4.26405e-11
1.39237e-09
3.74237e-11
1.38183e-09
3.20084e-11
1.37296e-09
2.6752e-11
1.36563e-09
2.19107e-11
1.35966e-09
1.76539e-11
1.35482e-09
1.40822e-11
1.35089e-09
1.12477e-11
1.34764e-09
9.17389e-12
1.34486e-09
7.87646e-12
1.34239e-09
7.37588e-12
1.3401e-09
7.68632e-12
1.33798e-09
8.78374e-12
1.06609e-11
1.73224e-09
6.40164e-11
1.79563e-09
1.6338e-10
1.85573e-09
2.21563e-10
1.89917e-09
2.49886e-10
1.92402e-09
2.59256e-10
1.93232e-09
2.56253e-10
1.92808e-09
2.4486e-10
1.91552e-09
2.28123e-10
1.89776e-09
2.08888e-10
1.87708e-09
1.89059e-10
1.85528e-09
1.69341e-10
1.83345e-09
1.50509e-10
1.81217e-09
1.33074e-10
1.79183e-09
1.17163e-10
1.77261e-09
1.02847e-10
1.7546e-09
9.02175e-11
1.73775e-09
7.93489e-11
1.72199e-09
7.03044e-11
1.70717e-09
6.31412e-11
1.69309e-09
5.79061e-11
1.67949e-09
5.46294e-11
1.6661e-09
5.33281e-11
1.65257e-09
5.39965e-11
1.63855e-09
5.6623e-11
1.62366e-09
6.11809e-11
1.60748e-09
6.76411e-11
1.58962e-09
7.59882e-11
1.56966e-09
8.62329e-11
1.54722e-09
9.84207e-11
1.52189e-09
1.12633e-10
1.49326e-09
1.28984e-10
1.46096e-09
1.47609e-10
1.42454e-09
1.68689e-10
1.38241e-09
2.01002e-10
1.34511e-09
1.70901e-10
1.32694e-09
6.49027e-11
1.32995e-09
-3.5094e-11
1.35332e-09
-1.19318e-10
1.39523e-09
-1.97199e-10
1.45208e-09
-2.69997e-10
1.52041e-09
-3.47224e-10
1.59154e-09
-3.70358e-10
1.66248e-09
-3.58853e-10
1.72937e-09
-3.34082e-10
1.79003e-09
-2.98579e-10
1.84459e-09
-2.66205e-10
1.89345e-09
-2.38724e-10
1.93602e-09
-2.03068e-10
1.973e-09
-1.78263e-10
2.00388e-09
-1.49018e-10
2.02876e-09
-1.18986e-10
2.04737e-09
-9.30062e-11
2.05949e-09
-5.63252e-11
2.06495e-09
-2.84712e-11
2.06332e-09
1.2833e-11
2.05435e-09
4.77954e-11
2.03784e-09
8.7805e-11
2.01315e-09
1.32255e-10
1.98089e-09
1.62801e-10
1.93974e-09
2.14103e-10
1.89136e-09
2.37766e-10
1.83537e-09
2.69114e-10
1.77305e-09
2.90065e-10
1.70539e-09
3.01369e-10
1.63333e-09
3.13631e-10
1.55882e-09
3.09907e-10
1.48252e-09
3.11339e-10
1.40635e-09
2.99737e-10
1.33106e-09
2.91161e-10
1.25776e-09
2.77572e-10
1.18759e-09
2.61825e-10
1.12036e-09
2.49286e-10
1.05748e-09
2.31102e-10
9.98894e-10
2.15118e-10
9.44864e-10
1.98712e-10
8.96071e-10
1.8016e-10
8.52463e-10
1.62333e-10
8.14158e-10
1.44398e-10
7.81462e-10
1.25387e-10
7.54536e-10
1.06252e-10
7.33255e-10
8.75466e-11
7.17734e-10
6.85891e-11
7.07886e-10
5.00394e-11
7.0361e-10
3.19226e-11
7.04944e-10
1.39185e-11
7.1148e-10
-2.68781e-12
7.22872e-10
-1.81459e-11
7.39371e-10
-3.41718e-11
7.60071e-10
-4.76318e-11
7.8462e-10
-5.99847e-11
8.13084e-10
-7.32169e-11
8.44607e-10
-8.38686e-11
8.78472e-10
-9.30972e-11
9.15186e-10
-1.04571e-10
9.52887e-10
-1.10517e-10
9.9272e-10
-1.21634e-10
1.03253e-09
-1.25698e-10
1.07338e-09
-1.35225e-10
1.11314e-09
-1.36963e-10
1.15318e-09
-1.45907e-10
1.19122e-09
-1.45298e-10
1.22825e-09
-1.49775e-10
1.26298e-09
-1.48511e-10
1.29539e-09
-1.45833e-10
1.32554e-09
-1.44771e-10
1.3527e-09
-1.36404e-10
1.3774e-09
-1.32404e-10
1.39929e-09
-1.22508e-10
1.41855e-09
-1.13997e-10
1.4355e-09
-1.04438e-10
1.45016e-09
-9.46525e-11
1.46298e-09
-8.49729e-11
1.47415e-09
-7.69355e-11
1.48385e-09
-6.66372e-11
1.4927e-09
-6.24802e-11
1.50059e-09
-5.4254e-11
1.50796e-09
-4.92875e-11
1.51512e-09
-4.63532e-11
1.52215e-09
-4.22539e-11
1.52935e-09
-4.05832e-11
1.53704e-09
-4.07561e-11
1.54521e-09
-4.01533e-11
1.55418e-09
-4.11069e-11
1.56411e-09
-4.39077e-11
1.57509e-09
-4.64559e-11
1.58728e-09
-5.01624e-11
1.60076e-09
-5.45103e-11
1.61561e-09
-5.92395e-11
1.63191e-09
-6.52012e-11
1.64962e-09
-7.20248e-11
1.66873e-09
-7.68095e-11
1.68914e-09
-8.38385e-11
1.71092e-09
-9.27641e-11
1.73323e-09
-9.53883e-11
1.7565e-09
-1.02685e-10
1.77978e-09
-1.09198e-10
1.80271e-09
-1.06709e-10
1.82464e-09
-1.10467e-10
1.845e-09
-1.05211e-10
1.86259e-09
-9.79835e-11
1.87701e-09
-8.6218e-11
1.88667e-09
-6.6442e-11
1.89126e-09
-4.22807e-11
1.8892e-09
-1.23127e-11
1.88e-09
2.86682e-11
1.86258e-09
6.33419e-11
1.836e-09
1.19458e-10
1.79987e-09
1.6074e-10
1.75422e-09
2.07672e-10
1.69804e-09
2.55184e-10
1.63312e-09
2.86856e-10
1.5579e-09
3.30922e-10
1.47559e-09
3.49286e-10
1.38512e-09
3.7965e-10
1.29017e-09
3.89113e-10
1.19002e-09
4.07681e-10
1.08831e-09
4.10322e-10
9.87426e-10
4.11059e-10
8.96421e-10
3.83601e-10
8.1441e-10
3.49744e-10
7.7087e-10
2.12632e-10
7.57729e-10
1.1773e-10
7.75691e-10
1.50236e-11
8.24848e-10
-9.66141e-11
9.07733e-10
-2.25413e-10
1.01612e-09
-3.41426e-10
1.14317e-09
-4.49581e-10
1.26808e-09
-4.84068e-10
1.38209e-09
-4.72997e-10
1.48343e-09
-4.43221e-10
1.57113e-09
-3.98893e-10
1.64489e-09
-3.44872e-10
1.70496e-09
-2.85822e-10
1.752e-09
-2.25793e-10
1.78694e-09
-1.68003e-10
1.81097e-09
-1.1484e-10
1.82541e-09
-6.79245e-11
1.83168e-09
-2.81884e-11
1.83122e-09
4.01169e-12
1.82549e-09
2.87892e-11
1.81586e-09
4.66172e-11
1.80361e-09
5.82071e-11
1.78983e-09
6.44377e-11
1.77547e-09
6.62779e-11
1.76127e-09
6.47101e-11
1.7478e-09
6.06696e-11
1.73543e-09
5.5003e-11
1.72442e-09
4.84402e-11
1.71485e-09
4.15787e-11
1.70672e-09
3.48815e-11
1.69994e-09
2.86841e-11
1.69439e-09
2.32097e-11
1.68988e-09
1.85904e-11
1.68623e-09
1.48912e-11
1.68327e-09
1.21322e-11
1.68084e-09
1.03091e-11
1.67881e-09
9.40395e-12
1.67711e-09
9.37942e-12
1.67574e-09
1.01575e-11
1.19318e-11
1.72124e-09
4.26923e-11
1.77088e-09
1.1363e-10
1.83007e-09
1.62302e-10
1.88684e-09
1.93144e-10
1.93531e-09
2.10859e-10
1.97374e-09
2.17897e-10
2.00222e-09
2.16407e-10
2.02143e-09
2.08918e-10
2.03302e-09
1.97291e-10
2.03906e-09
1.83015e-10
2.04081e-09
1.67582e-10
2.03927e-09
1.52054e-10
2.0352e-09
1.37143e-10
2.02931e-09
1.23055e-10
2.02207e-09
1.10083e-10
2.01384e-09
9.84521e-11
2.00487e-09
8.83175e-11
1.99536e-09
7.98098e-11
1.98545e-09
7.30495e-11
1.97522e-09
6.8144e-11
1.96467e-09
6.51786e-11
1.95375e-09
6.42411e-11
1.94237e-09
6.53767e-11
1.93035e-09
6.86432e-11
1.91747e-09
7.40622e-11
1.90347e-09
8.1644e-11
1.88805e-09
9.14065e-11
1.87089e-09
1.03387e-10
1.85166e-09
1.17654e-10
1.82998e-09
1.34307e-10
1.80549e-09
1.53482e-10
1.77776e-09
1.75338e-10
1.74633e-09
2.00116e-10
1.70975e-09
2.37581e-10
1.67515e-09
2.055e-10
1.65286e-09
8.72183e-11
1.64619e-09
-2.83944e-11
1.6564e-09
-1.29498e-10
1.68254e-09
-2.23312e-10
1.72138e-09
-3.08833e-10
1.76994e-09
-3.95812e-10
1.82241e-09
-4.229e-10
1.87746e-09
-4.13986e-10
1.9307e-09
-3.87423e-10
1.97982e-09
-3.47768e-10
2.02462e-09
-3.11074e-10
2.0653e-09
-2.79445e-10
2.10137e-09
-2.3917e-10
2.13307e-09
-2.09988e-10
2.16002e-09
-1.7597e-10
2.1824e-09
-1.41355e-10
2.19973e-09
-1.10312e-10
2.2123e-09
-6.88452e-11
2.21962e-09
-3.57439e-11
2.22188e-09
1.06307e-11
2.21858e-09
5.11315e-11
2.20977e-09
9.66447e-11
2.19486e-09
1.47165e-10
2.17392e-09
1.83728e-10
2.1461e-09
2.41888e-10
2.11201e-09
2.71832e-10
2.07109e-09
3.10028e-10
2.02402e-09
3.37155e-10
1.97111e-09
3.54328e-10
1.91322e-09
3.71593e-10
1.85153e-09
3.71681e-10
1.78687e-09
3.76085e-10
1.72079e-09
3.6588e-10
1.65434e-09
3.57655e-10
1.58862e-09
3.43316e-10
1.52501e-09
3.25433e-10
1.46348e-09
3.10796e-10
1.40565e-09
2.88888e-10
1.3516e-09
2.69112e-10
1.30173e-09
2.48516e-10
1.25684e-09
2.24984e-10
1.21688e-09
2.02231e-10
1.18201e-09
1.79208e-10
1.15247e-09
1.54868e-10
1.12845e-09
1.30221e-10
1.10974e-09
1.0621e-10
1.09642e-09
8.18567e-11
1.08836e-09
5.80598e-11
1.08543e-09
3.48289e-11
1.08765e-09
1.16689e-11
1.09461e-09
-9.65744e-12
1.10588e-09
-2.94249e-11
1.12175e-09
-5.00446e-11
1.14123e-09
-6.71087e-11
1.16403e-09
-8.2779e-11
1.19005e-09
-9.92331e-11
1.21853e-09
-1.12351e-10
1.2486e-09
-1.23172e-10
1.28074e-09
-1.36709e-10
1.31308e-09
-1.42854e-10
1.34661e-09
-1.55169e-10
1.37932e-09
-1.58413e-10
1.41214e-09
-1.68044e-10
1.44321e-09
-1.68034e-10
1.4737e-09
-1.76399e-10
1.50183e-09
-1.73426e-10
1.52852e-09
-1.76463e-10
1.55285e-09
-1.72836e-10
1.57508e-09
-1.68065e-10
1.5953e-09
-1.64976e-10
1.61332e-09
-1.54417e-10
1.62948e-09
-1.48554e-10
1.64386e-09
-1.36881e-10
1.65651e-09
-1.26633e-10
1.66788e-09
-1.15798e-10
1.67786e-09
-1.0462e-10
1.68692e-09
-9.40214e-11
1.69505e-09
-8.5048e-11
1.7025e-09
-7.40789e-11
1.70951e-09
-6.94812e-11
1.71615e-09
-6.08839e-11
1.7226e-09
-5.57378e-11
1.7291e-09
-5.28562e-11
1.73573e-09
-4.88866e-11
1.74266e-09
-4.75286e-11
1.75014e-09
-4.82586e-11
1.75817e-09
-4.82147e-11
1.76702e-09
-4.9981e-11
1.77676e-09
-5.36891e-11
1.7875e-09
-5.72338e-11
1.79936e-09
-6.20621e-11
1.81238e-09
-6.75699e-11
1.82662e-09
-7.35185e-11
1.8421e-09
-8.07138e-11
1.85873e-09
-8.87106e-11
1.87666e-09
-9.47875e-11
1.89554e-09
-1.0279e-10
1.91539e-09
-1.12689e-10
1.93552e-09
-1.15606e-10
1.95626e-09
-1.23524e-10
1.97661e-09
-1.29652e-10
1.99662e-09
-1.26824e-10
2.01534e-09
-1.29288e-10
2.03269e-09
-1.22641e-10
2.04749e-09
-1.12847e-10
2.05973e-09
-9.84928e-11
2.0681e-09
-7.48005e-11
2.07267e-09
-4.68062e-11
2.07205e-09
-1.16082e-11
2.06634e-09
3.44912e-11
2.05422e-09
7.55898e-11
2.03558e-09
1.38216e-10
2.00926e-09
1.87164e-10
1.97545e-09
2.41546e-10
1.9327e-09
2.97952e-10
1.88224e-09
3.37322e-10
1.82221e-09
3.90945e-10
1.75496e-09
4.16533e-10
1.6791e-09
4.55527e-10
1.59775e-09
4.70489e-10
1.51009e-09
4.95382e-10
1.41957e-09
5.00864e-10
1.32943e-09
5.01207e-10
1.25165e-09
4.61345e-10
1.18422e-09
4.17109e-10
1.15776e-09
2.39033e-10
1.16222e-09
1.1321e-10
1.19676e-09
-1.95617e-11
1.25936e-09
-1.59256e-10
1.35079e-09
-3.16885e-10
1.46024e-09
-4.50929e-10
1.57985e-09
-5.69247e-10
1.69103e-09
-5.95294e-10
1.7877e-09
-5.69716e-10
1.86996e-09
-5.25519e-10
1.93829e-09
-4.67239e-10
1.99357e-09
-4.00157e-10
2.03693e-09
-3.29182e-10
2.06962e-09
-2.58477e-10
2.09292e-09
-1.91291e-10
2.10809e-09
-1.30003e-10
2.11637e-09
-7.61925e-11
2.11892e-09
-3.07288e-11
2.11683e-09
6.117e-12
2.1111e-09
3.45249e-11
2.10268e-09
5.50432e-11
2.09242e-09
6.84751e-11
2.08106e-09
7.58023e-11
2.06924e-09
7.81043e-11
2.05747e-09
7.6476e-11
2.04618e-09
7.19655e-11
2.03565e-09
6.55297e-11
2.02609e-09
5.80013e-11
2.0176e-09
5.00695e-11
2.01021e-09
4.22748e-11
2.00388e-09
3.50137e-11
1.99853e-09
2.85532e-11
1.99407e-09
2.30532e-11
1.99037e-09
1.85922e-11
1.98731e-09
1.51906e-11
1.98479e-09
1.28305e-11
1.98272e-09
1.1467e-11
1.98107e-09
1.10294e-11
1.97982e-09
1.14077e-11
1.29475e-11
1.71463e-09
2.79927e-11
1.75234e-09