/*--------------------------------*- C++ -*----------------------------------*\
| =========                 |                                                 |
| \\      /  F ield         | OpenFOAM: The Open Source CFD Toolbox           |
|  \\    /   O peration     | Version:  2506                                  |
|   \\  /    A nd           | Website:  www.openfoam.com                      |
|    \\/     M anipulation  |                                                 |
\*---------------------------------------------------------------------------*/
FoamFile
{
    version     2.0;
    format      ascii;
    arch        "LSB;label=32;scalar=64";
    class       volScalarField;
    location    "4.15";
    object      p;
}
// * * * * * * * * * * * * * * * * * * * * * * * * * * * * * * * * * * * * * //

dimensions      [0 2 -2 0 0 0 0];

internalField   nonuniform List<scalar> 
4000
(
0.000582492
0.000524583
0.000493224
0.000479676
0.00047149
0.000465816
0.0004619
0.000459004
0.00045664
0.000454567
0.000452666
0.000450864
0.000449122
0.000447419
0.000445749
0.000444111
0.000442511
0.000440955
0.000439449
0.000438
0.000436616
0.000435302
0.000434065
0.000432911
0.000431847
0.000430881
0.000430018
0.000429269
0.000428642
0.000428147
0.000427796
0.000427609
0.000427604
0.000427656
0.000428284
0.000429356
0.000430013
0.000430067
0.000429504
0.000428065
0.000425464
0.000420524
0.000413351
0.000404758
0.000394775
0.000383578
0.000371268
0.000357721
0.00034355
0.00032861
0.000313152
0.000297678
0.000281993
0.000267035
0.000252361
0.000238967
0.000226745
0.000215895
0.000207133
0.000199391
0.000194146
0.000190237
0.000187939
0.000187161
0.00018732
0.000188742
0.000190659
0.000193376
0.000196346
0.000199642
0.000203057
0.000206421
0.000209787
0.000212961
0.000215936
0.000218701
0.000221199
0.000223441
0.000225457
0.000227253
0.000228861
0.000230319
0.000231657
0.000232903
0.000234085
0.000235213
0.000236301
0.000237361
0.000238385
0.000239378
0.000240342
0.000241265
0.000242153
0.000243007
0.000243819
0.000244602
0.000245343
0.000246056
0.000246737
0.000247396
0.00024803
0.000248653
0.000249262
0.000249863
0.000250461
0.000251049
0.000251637
0.000252211
0.000252774
0.00025331
0.000253808
0.000254245
0.000254601
0.000254827
0.000254914
0.000254774
0.000254382
0.000253675
0.000252567
0.000251016
0.00024895
0.000246284
0.000242976
0.000238984
0.000234238
0.000228727
0.000222433
0.000215348
0.000207493
0.000198887
0.000189513
0.000179499
0.000168871
0.000157561
0.000145833
0.000133704
0.00012095
0.000108224
9.51064e-05
8.20469e-05
6.90617e-05
5.63767e-05
4.42112e-05
3.29269e-05
2.23981e-05
1.36394e-05
5.73016e-06
9.87229e-08
-4.10168e-06
-6.68694e-06
-7.42926e-06
-7.16954e-06
-5.22876e-06
-2.65712e-06
1.00433e-06
4.97147e-06
9.49065e-06
1.40063e-05
1.85245e-05
2.2741e-05
2.74684e-05
3.07607e-05
3.34183e-05
3.54936e-05
3.71083e-05
3.81273e-05
3.8693e-05
3.83148e-05
3.74357e-05
3.64531e-05
3.54561e-05
3.45056e-05
3.36306e-05
3.28213e-05
3.20415e-05
3.12424e-05
3.03752e-05
2.9399e-05
2.82866e-05
2.70269e-05
2.56238e-05
2.40937e-05
2.24621e-05
2.07596e-05
1.90192e-05
1.72736e-05
1.55522e-05
1.38811e-05
1.22818e-05
1.077e-05
9.35614e-06
8.04473e-06
6.83469e-06
5.71985e-06
4.68966e-06
3.73047e-06
2.82714e-06
1.96207e-06
1.1182e-06
3.27565e-07
0.000530838
0.000507708
0.000489798
0.000479999
0.000473135
0.000467598
0.000463368
0.000460133
0.000457504
0.000455237
0.000453199
0.000451305
0.000449501
0.000447757
0.000446058
0.0004444
0.000442786
0.000441218
0.000439704
0.00043825
0.000436863
0.000435548
0.000434311
0.00043316
0.000432101
0.00043114
0.000430287
0.000429549
0.000428937
0.00042846
0.000428131
0.000427965
0.000427983
0.000428036
0.000428528
0.000429336
0.000429607
0.000429177
0.000427981
0.000425713
0.000422098
0.000416228
0.000408438
0.000399429
0.000389175
0.00037783
0.000365501
0.000352124
0.000338261
0.000323789
0.000308956
0.00029421
0.000279385
0.000265343
0.000251714
0.000239285
0.000227881
0.000217668
0.000209284
0.000201846
0.000196571
0.000192544
0.000189963
0.000188811
0.00018857
0.000189545
0.00019106
0.000193382
0.000196032
0.000199047
0.000202259
0.000205478
0.000208754
0.0002119
0.00021489
0.000217705
0.000220284
0.000222619
0.000224728
0.000226611
0.00022829
0.0002298
0.00023117
0.000232431
0.000233615
0.000234737
0.000235815
0.000236868
0.000237889
0.000238885
0.000239859
0.000240802
0.000241714
0.000242598
0.000243443
0.00024426
0.00024504
0.000245795
0.000246517
0.000247221
0.000247897
0.000248559
0.000249201
0.000249829
0.000250449
0.000251052
0.000251647
0.000252216
0.00025276
0.000253261
0.000253703
0.000254058
0.000254301
0.00025438
0.000254279
0.000253906
0.000253235
0.000252199
0.000250715
0.000248741
0.000246208
0.000243042
0.000239211
0.000234679
0.000229392
0.000223353
0.000216557
0.000209009
0.000200744
0.000191792
0.00018215
0.000171967
0.000161257
0.000149977
0.000138359
0.000126406
0.000114003
0.00010167
8.91016e-05
7.66787e-05
6.44567e-05
5.26258e-05
4.13973e-05
3.10437e-05
2.15744e-05
1.36214e-05
6.51273e-06
1.34303e-06
-2.52432e-06
-4.97149e-06
-5.74749e-06
-5.60679e-06
-3.91923e-06
-1.62276e-06
1.72018e-06
5.39208e-06
9.63334e-06
1.39332e-05
1.83253e-05
2.23767e-05
2.70971e-05
3.04749e-05
3.32079e-05
3.53446e-05
3.69509e-05
3.78773e-05
3.82931e-05
3.78192e-05
3.6912e-05
3.59221e-05
3.49179e-05
3.396e-05
3.30853e-05
3.22883e-05
3.15335e-05
3.07716e-05
2.9952e-05
2.90311e-05
2.79789e-05
2.67809e-05
2.54382e-05
2.39645e-05
2.23834e-05
2.0724e-05
1.90185e-05
1.72988e-05
1.55947e-05
1.39332e-05
1.23367e-05
1.08226e-05
9.40282e-06
8.0834e-06
6.86488e-06
5.74248e-06
4.70686e-06
3.74506e-06
2.84169e-06
1.97948e-06
1.13914e-06
3.45849e-07
0.000506521
0.000498944
0.000488375
0.000480406
0.000474132
0.000469028
0.000464775
0.000461331
0.000458477
0.000456015
0.000453825
0.000451816
0.000449926
0.00044812
0.000446375
0.000444683
0.00044304
0.00044145
0.000439918
0.000438449
0.000437048
0.000435722
0.000434477
0.000433318
0.000432253
0.000431288
0.00043043
0.00042969
0.000429074
0.000428595
0.00042826
0.000428081
0.000428076
0.000428071
0.000428386
0.000428888
0.000428735
0.000427773
0.000425933
0.000422891
0.000418438
0.000411922
0.0004038
0.000394633
0.000384357
0.000373104
0.000361003
0.000348049
0.000334726
0.000320957
0.000306959
0.000293124
0.000279365
0.000266296
0.000253654
0.000242056
0.000231384
0.000221736
0.000213648
0.00020639
0.00020095
0.000196636
0.000193611
0.000191919
0.00019111
0.000191497
0.000192467
0.000194284
0.000196503
0.000199152
0.000202082
0.000205083
0.000208213
0.000211274
0.000214227
0.000217051
0.000219668
0.000222061
0.000224236
0.000226184
0.000227918
0.000229469
0.000230863
0.000232132
0.00023331
0.000234418
0.00023548
0.000236518
0.000237529
0.000238522
0.000239503
0.00024046
0.000241392
0.000242304
0.000243177
0.000244028
0.000244838
0.000245626
0.000246375
0.000247107
0.000247805
0.000248489
0.00024915
0.000249794
0.000250426
0.000251031
0.000251622
0.000252174
0.000252687
0.000253138
0.000253506
0.00025376
0.000253872
0.000253782
0.000253473
0.000252851
0.000251888
0.000250518
0.000248663
0.000246284
0.000243322
0.000239713
0.000235435
0.000230465
0.000224765
0.000218349
0.000211224
0.000203406
0.000194935
0.00018585
0.000176166
0.000166001
0.000155386
0.000144304
0.000132956
0.000121357
0.000109455
9.76669e-05
8.57767e-05
7.40975e-05
6.2708e-05
5.17561e-05
4.14302e-05
3.19424e-05
2.3229e-05
1.58659e-05
9.30372e-06
4.39118e-06
6.47673e-07
-1.87098e-06
-2.87323e-06
-3.04598e-06
-1.75987e-06
1.16576e-07
3.04884e-06
6.33437e-06
1.02464e-05
1.42717e-05
1.85139e-05
2.23389e-05
2.70817e-05
3.04181e-05
3.31499e-05
3.52893e-05
3.68439e-05
3.76263e-05
3.78722e-05
3.72669e-05
3.62969e-05
3.52794e-05
3.42558e-05
3.32879e-05
3.2421e-05
3.16511e-05
3.09401e-05
3.02348e-05
2.94803e-05
2.86288e-05
2.76463e-05
2.65154e-05
2.5235e-05
2.3817e-05
2.22839e-05
2.06642e-05
1.89896e-05
1.7292e-05
1.56025e-05
1.39487e-05
1.23544e-05
1.08384e-05
9.41429e-06
8.08963e-06
6.86633e-06
5.74072e-06
4.70428e-06
3.744e-06
2.84451e-06
1.98723e-06
1.1491e-06
3.51264e-07
0.000495538
0.00049275
0.000486299
0.000479814
0.000474508
0.000469964
0.000465866
0.000462442
0.00045947
0.000456853
0.00045452
0.000452377
0.000450378
0.000448488
0.000446677
0.000444931
0.000443244
0.000441617
0.000440053
0.000438554
0.000437127
0.000435775
0.000434504
0.000433319
0.000432227
0.000431234
0.000430347
0.000429573
0.00042892
0.000428394
0.000428003
0.000427747
0.000427638
0.000427498
0.0004276
0.000427792
0.000427244
0.000425797
0.0004234
0.000419759
0.000414742
0.000407867
0.000399621
0.000390457
0.00038032
0.00036934
0.000357659
0.000345313
0.000332739
0.000319832
0.000306804
0.00029402
0.000281413
0.000269403
0.00025786
0.000247084
0.000237152
0.00022806
0.000220215
0.000213071
0.000207383
0.000202675
0.000199091
0.000196717
0.000195201
0.000194844
0.000195117
0.000196278
0.000197925
0.000200078
0.000202605
0.000205283
0.000208171
0.000211062
0.000213906
0.000216675
0.000219278
0.000221685
0.000223893
0.000225881
0.000227651
0.000229229
0.000230636
0.000231903
0.000233067
0.000234152
0.000235186
0.0002362
0.000237192
0.000238174
0.000239157
0.000240124
0.000241075
0.000242015
0.000242917
0.000243804
0.000244646
0.000245468
0.000246245
0.000247007
0.000247726
0.000248431
0.000249107
0.00024976
0.000250397
0.000250995
0.000251572
0.000252094
0.000252561
0.000252945
0.000253221
0.000253353
0.000253311
0.000253027
0.000252488
0.000251595
0.000250322
0.000248608
0.000246377
0.000243601
0.000240231
0.000236213
0.00023154
0.000226199
0.000220169
0.000213475
0.000206134
0.000198172
0.000189635
0.000180567
0.000170994
0.000161013
0.000150683
0.000139994
0.000129099
0.000118051
0.000106832
9.57591e-05
8.46968e-05
7.38845e-05
6.34105e-05
5.33781e-05
4.39413e-05
3.52412e-05
2.72273e-05
2.03383e-05
1.41629e-05
9.32245e-06
5.49227e-06
2.69641e-06
1.25059e-06
5.72204e-07
1.26517e-06
2.56411e-06
4.94323e-06
7.73365e-06
1.12265e-05
1.49003e-05
1.89418e-05
2.25248e-05
2.72413e-05
3.05039e-05
3.31636e-05
3.52454e-05
3.67135e-05
3.73349e-05
3.74104e-05
3.6655e-05
3.55909e-05
3.45269e-05
3.34804e-05
3.25088e-05
3.16613e-05
3.09322e-05
3.02771e-05
2.96366e-05
2.89503e-05
2.81662e-05
2.72474e-05
2.61751e-05
2.49474e-05
2.35762e-05
2.20839e-05
2.04994e-05
1.88546e-05
1.7182e-05
1.55125e-05
1.38743e-05
1.22918e-05
1.07847e-05
9.36742e-06
8.04857e-06
6.83081e-06
5.71099e-06
4.68066e-06
3.72726e-06
2.83411e-06
1.9817e-06
1.14547e-06
3.45282e-07
0.000488819
0.000487492
0.000483519
0.00047883
0.000474508
0.000470451
0.000466743
0.000463447
0.000460394
0.000457701
0.00045527
0.000452987
0.000450866
0.000448877
0.000446982
0.000445163
0.000443417
0.000441737
0.000440125
0.000438582
0.000437111
0.000435716
0.0004344
0.000433169
0.000432028
0.000430981
0.000430034
0.000429193
0.000428463
0.000427848
0.000427348
0.000426959
0.000426681
0.000426348
0.000426191
0.000426047
0.000425109
0.000423219
0.000420341
0.000416234
0.000410828
0.00040376
0.000395511
0.000386464
0.000376592
0.000366028
0.000354916
0.000343329
0.000331576
0.000319638
0.000307751
0.000296117
0.000284715
0.000273825
0.00026337
0.000253552
0.000244413
0.000235936
0.000228403
0.000221441
0.000215569
0.000210514
0.000206385
0.000203301
0.000201027
0.00019982
0.000199273
0.000199621
0.000200538
0.000202032
0.000203997
0.000206206
0.000208718
0.000211319
0.000213949
0.000216574
0.000219088
0.000221449
0.000223643
0.000225635
0.000227416
0.000229004
0.000230411
0.000231667
0.00023281
0.000233865
0.000234864
0.000235847
0.000236811
0.000237777
0.000238759
0.000239735
0.000240707
0.000241682
0.000242619
0.000243551
0.000244432
0.000245297
0.000246107
0.000246903
0.000247643
0.000248368
0.000249052
0.000249704
0.000250334
0.000250907
0.00025145
0.000251915
0.000252307
0.000252589
0.000252734
0.000252703
0.000252461
0.000251939
0.000251127
0.000249921
0.000248304
0.00024622
0.000243601
0.000240427
0.000236664
0.000232271
0.000227253
0.000221611
0.000215338
0.000208469
0.00020103
0.000193055
0.000184594
0.000175695
0.000166388
0.000156759
0.000146902
0.000136764
0.000126461
0.000116123
0.000105725
9.54889e-05
8.53481e-05
7.54748e-05
6.59531e-05
5.68487e-05
4.82771e-05
4.03233e-05
3.29651e-05
2.64873e-05
2.06212e-05
1.57829e-05
1.1778e-05
8.62093e-06
6.62103e-06
5.32821e-06
5.27945e-06
5.86084e-06
7.52247e-06
9.67596e-06
1.26115e-05
1.58073e-05
1.95449e-05
2.284e-05
2.74321e-05
3.05614e-05
3.30809e-05
3.50449e-05
3.63918e-05
3.68377e-05
3.67397e-05
3.58318e-05
3.46725e-05
3.35705e-05
3.25158e-05
3.15556e-05
3.07394e-05
3.00583e-05
2.94612e-05
2.88827e-05
2.8258e-05
2.75329e-05
2.66698e-05
2.56501e-05
2.44725e-05
2.31497e-05
2.17044e-05
2.01659e-05
1.85655e-05
1.69353e-05
1.53055e-05
1.37035e-05
1.21532e-05
1.06743e-05
9.28123e-06
7.98291e-06
6.78237e-06
5.67673e-06
4.65779e-06
3.71294e-06
2.82553e-06
1.9757e-06
1.13986e-06
3.3428e-07
0.000484339
0.000483582
0.000481019
0.000477617
0.000474131
0.000470688
0.000467357
0.000464181
0.000461163
0.000458476
0.000455988
0.00045357
0.000451342
0.00044926
0.000447272
0.000445374
0.000443556
0.000441812
0.000440139
0.000438538
0.000437008
0.000435553
0.000434174
0.000432876
0.000431661
0.000430534
0.000429498
0.000428557
0.000427712
0.000426966
0.000426313
0.000425743
0.000425249
0.00042468
0.000424228
0.000423721
0.000422402
0.000420112
0.000416828
0.000412362
0.000406692
0.000399549
0.000391397
0.000382563
0.000373059
0.000363017
0.000352578
0.000341826
0.000330944
0.000320074
0.000309378
0.000298908
0.000288703
0.00027894
0.000269577
0.000260723
0.00025239
0.000244572
0.000237448
0.000230763
0.00022484
0.000219567
0.00021501
0.000211312
0.000208347
0.000206307
0.000204912
0.000204371
0.000204453
0.000205158
0.000206412
0.000208004
0.000209987
0.000212158
0.000214445
0.000216807
0.000219128
0.000221359
0.000223468
0.000225411
0.000227162
0.000228731
0.000230122
0.000231356
0.00023247
0.000233488
0.000234447
0.000235394
0.000236326
0.000237271
0.000238249
0.000239237
0.000240234
0.00024125
0.000242232
0.000243221
0.000244151
0.00024507
0.000245919
0.000246755
0.000247515
0.000248255
0.000248937
0.000249572
0.00025017
0.000250689
0.000251161
0.00025153
0.000251798
0.000251929
0.000251888
0.000251638
0.000251143
0.000250332
0.000249201
0.000247646
0.000245659
0.000243192
0.000240188
0.00023664
0.000232524
0.000227814
0.00022253
0.000216682
0.000210276
0.000203355
0.000195952
0.000188105
0.000179866
0.000171281
0.000162379
0.000153249
0.000143992
0.00013448
0.000124938
0.000115406
0.000105884
9.65345e-05
8.73364e-05
7.84046e-05
6.98094e-05
6.15895e-05
5.3824e-05
4.6559e-05
3.97866e-05
3.36706e-05
2.80682e-05
2.3221e-05
1.90196e-05
1.54965e-05
1.29293e-05
1.09967e-05
1.0142e-05
9.92755e-06
1.07518e-05
1.21444e-05
1.43945e-05
1.69808e-05
2.02737e-05
2.3207e-05
2.75295e-05
3.04531e-05
3.27666e-05
3.45536e-05
3.57461e-05
3.60105e-05
3.57459e-05
3.47066e-05
3.34788e-05
3.23667e-05
3.1331e-05
3.0403e-05
2.96294e-05
2.89981e-05
2.84524e-05
2.79229e-05
2.73437e-05
2.66616e-05
2.58413e-05
2.48673e-05
2.37402e-05
2.24731e-05
2.1089e-05
1.96169e-05
1.80865e-05
1.65273e-05
1.49672e-05
1.34314e-05
1.19421e-05
1.05171e-05
9.17031e-06
7.91032e-06
6.74011e-06
5.657e-06
4.65337e-06
3.7173e-06
2.83295e-06
1.98111e-06
1.14131e-06
3.20903e-07
0.000481334
0.000480846
0.000479066
0.000476494
0.000473634
0.00047066
0.000467649
0.000464675
0.000461803
0.000459095
0.000456523
0.000454066
0.000451775
0.000449607
0.000447524
0.000445545
0.000443654
0.000441839
0.000440097
0.000438427
0.000436826
0.000435296
0.000433838
0.000432454
0.000431145
0.000429912
0.000428759
0.000427687
0.000426695
0.00042578
0.000424935
0.000424145
0.000423398
0.000422562
0.000421789
0.000420905
0.000419221
0.000416579
0.000412964
0.000408233
0.000402403
0.000395285
0.000387314
0.000378775
0.000369716
0.000360269
0.000350562
0.000340675
0.000330773
0.000320987
0.000311395
0.000302056
0.000293002
0.000284325
0.000276001
0.000268066
0.000260519
0.000253362
0.000246716
0.000240383
0.000234542
0.000229197
0.000224344
0.000220186
0.000216685
0.000213932
0.000211752
0.000210344
0.000209573
0.000209431
0.000209879
0.000210742
0.000212063
0.000213666
0.000215475
0.000217442
0.000219447
0.000221439
0.000223371
0.000225188
0.00022685
0.000228357
0.000229701
0.000230894
0.000231969
0.000232945
0.000233859
0.000234766
0.000235663
0.000236586
0.000237558
0.000238557
0.000239579
0.000240643
0.000241676
0.000242731
0.00024372
0.000244701
0.000245595
0.000246471
0.000247246
0.00024799
0.00024865
0.000249242
0.000249776
0.0002502
0.000250553
0.000250771
0.000250859
0.000250779
0.000250494
0.00024997
0.000249169
0.000248027
0.000246543
0.00024462
0.00024226
0.000239425
0.000236069
0.000232197
0.000227798
0.000222861
0.000217415
0.000211478
0.000205067
0.000198228
0.000190998
0.000183417
0.000175531
0.000167384
0.000159006
0.000150507
0.000141853
0.00013308
0.00012438
0.000115685
0.000107038
9.85694e-05
9.02811e-05
8.22418e-05
7.45043e-05
6.70898e-05
6.00461e-05
5.33936e-05
4.71283e-05
4.13262e-05
3.59637e-05
3.11223e-05
2.67171e-05
2.28577e-05
1.97714e-05
1.72265e-05
1.55709e-05
1.45425e-05
1.44702e-05
1.50164e-05
1.64317e-05
1.83696e-05
2.10675e-05
2.35486e-05
2.7433e-05
3.00712e-05
3.21199e-05
3.36773e-05
3.46854e-05
3.47747e-05
3.4364e-05
3.32382e-05
3.19902e-05
3.09085e-05
2.99249e-05
2.90519e-05
2.83298e-05
2.7744e-05
2.72347e-05
2.67322e-05
2.61737e-05
2.55113e-05
2.47159e-05
2.37788e-05
2.27035e-05
2.15027e-05
2.01996e-05
1.88219e-05
1.73951e-05
1.59439e-05
1.44912e-05
1.30586e-05
1.16646e-05
1.03242e-05
9.04912e-06
7.84746e-06
6.72169e-06
5.66931e-06
4.68397e-06
3.75536e-06
2.8694e-06
2.00849e-06
1.15761e-06
3.06421e-07
0.000479339
0.000478981
0.000477636
0.000475581
0.000473158
0.000470525
0.000467769
0.000464972
0.000462206
0.000459521
0.000456937
0.00045446
0.000452104
0.00044986
0.000447713
0.000445662
0.000443698
0.000441812
0.000439997
0.000438251
0.000436572
0.000434958
0.000433409
0.000431923
0.000430502
0.000429145
0.000427852
0.000426623
0.000425454
0.000424342
0.000423275
0.000422234
0.000421206
0.000420081
0.00041897
0.0004177
0.000415673
0.00041273
0.000408852
0.000403939
0.000398036
0.000391026
0.000383307
0.000375128
0.000366572
0.000357769
0.000348827
0.000339823
0.000330907
0.000322156
0.000313628
0.000305365
0.000297385
0.000289713
0.000282341
0.000275259
0.000268467
0.000261954
0.000255753
0.000249784
0.000244194
0.000238911
0.000233864
0.000229392
0.000225547
0.000222253
0.000219409
0.00021723
0.000215656
0.000214683
0.000214303
0.000214381
0.000214953
0.000215883
0.000217098
0.00021855
0.000220104
0.00022174
0.000223388
0.000224985
0.000226479
0.000227861
0.000229111
0.000230231
0.000231246
0.000232168
0.00023303
0.000233893
0.00023475
0.000235645
0.000236604
0.000237609
0.000238651
0.000239759
0.00024084
0.000241958
0.000243004
0.000244043
0.000244976
0.000245884
0.000246661
0.000247388
0.000247999
0.000248513
0.000248939
0.000249221
0.000249402
0.000249416
0.000249266
0.000248921
0.000248341
0.000247499
0.000246358
0.000244863
0.000243018
0.000240739
0.000238034
0.000234878
0.000231236
0.000227123
0.000222542
0.000217493
0.00021201
0.000206115
0.000199833
0.00019321
0.000186282
0.000179088
0.000171668
0.000164062
0.000156307
0.000148456
0.000140469
0.000132512
0.000124605
0.000116726
0.000108928
0.000101299
9.38513e-05
8.66233e-05
7.96508e-05
7.29458e-05
6.65292e-05
6.04068e-05
5.45704e-05
4.90311e-05
4.38941e-05
3.90914e-05
3.44745e-05
3.03171e-05
2.67906e-05
2.36897e-05
2.12835e-05
1.94656e-05
1.84902e-05
1.81635e-05
1.86606e-05
1.98306e-05
2.18499e-05
2.37974e-05
2.70806e-05
2.93511e-05
3.10835e-05
3.23685e-05
3.3168e-05
3.30991e-05
3.25749e-05
3.14247e-05
3.02169e-05
2.92089e-05
2.83104e-05
2.75143e-05
2.68489e-05
2.62995e-05
2.58059e-05
2.53018e-05
2.47341e-05
2.40668e-05
2.32803e-05
2.23733e-05
2.13522e-05
2.02296e-05
1.90303e-05
1.77795e-05
1.64943e-05
1.51915e-05
1.38871e-05
1.2597e-05
1.1335e-05
1.01106e-05
8.93312e-06
7.80964e-06
6.7416e-06
5.72684e-06
4.76137e-06
3.83753e-06
2.9438e-06
2.06515e-06
1.19419e-06
2.92754e-07
0.000478098
0.000477804
0.000476692
0.000474941
0.000472792
0.000470382
0.000467799
0.000465126
0.000462435
0.000459782
0.000457199
0.000454704
0.000452307
0.000450011
0.00044781
0.000445699
0.000443671
0.000441718
0.000439834
0.000438012
0.000436252
0.000434549
0.000432901
0.000431305
0.000429761
0.000428265
0.000426817
0.000425412
0.000424048
0.000422718
0.000421407
0.000420091
0.000418763
0.000417335
0.000415876
0.00041422
0.00041187
0.00040867
0.00040459
0.000399566
0.000393662
0.000386828
0.000379415
0.000371647
0.000363636
0.000355506
0.000347345
0.000339227
0.000331261
0.0003235
0.000315978
0.000308711
0.000301705
0.000294944
0.000288425
0.000282113
0.000276002
0.00027008
0.000264331
0.000258768
0.000253408
0.000248281
0.000243244
0.000238596
0.000234485
0.000230757
0.000227432
0.000224653
0.00022239
0.000220665
0.000219498
0.000218798
0.000218593
0.000218793
0.000219332
0.000220192
0.00022118
0.000222346
0.000223595
0.000224866
0.000226102
0.000227279
0.000228369
0.000229364
0.000230281
0.000231125
0.000231918
0.000232721
0.000233526
0.000234379
0.000235309
0.000236302
0.000237344
0.000238472
0.000239579
0.000240738
0.000241819
0.000242896
0.000243845
0.000244759
0.00024551
0.000246187
0.000246713
0.00024711
0.000247383
0.000247478
0.000247438
0.000247202
0.000246773
0.000246128
0.000245225
0.00024405
0.000242567
0.000240734
0.000238559
0.000235973
0.00023299
0.000229593
0.000225762
0.000221518
0.00021688
0.000211854
0.000206467
0.000200747
0.000194724
0.00018844
0.000181928
0.000175218
0.000168345
0.000161342
0.000154245
0.000147039
0.000139808
0.000132612
0.000125457
0.000118351
0.000111341
0.000104478
9.77789e-05
9.12651e-05
8.4956e-05
7.88603e-05
7.29764e-05
6.73052e-05
6.18348e-05
5.65691e-05
5.15323e-05
4.67414e-05
4.20554e-05
3.76337e-05
3.36966e-05
3.01025e-05
2.70362e-05
2.44856e-05
2.26357e-05
2.14459e-05
2.10447e-05
2.13095e-05
2.25901e-05
2.3895e-05
2.64444e-05
2.82738e-05
2.96481e-05
3.06308e-05
3.12035e-05
3.10007e-05
3.04029e-05
2.92988e-05
2.81938e-05
2.72981e-05
2.651e-05
2.58076e-05
2.52067e-05
2.46857e-05
2.41911e-05
2.36599e-05
2.3051e-05
2.23471e-05
2.1556e-05
2.06878e-05
1.97325e-05
1.86986e-05
1.76233e-05
1.65302e-05
1.54221e-05
1.43043e-05
1.31849e-05
1.20723e-05
1.09745e-05
9.89318e-06
8.83504e-06
7.8065e-06
6.80611e-06
5.83241e-06
4.88663e-06
3.96455e-06
3.05681e-06
2.15161e-06
1.24917e-06
2.81961e-07
0.000477482
0.000477215
0.000476209
0.000474599
0.000472584
0.000470286
0.000467791
0.000465181
0.000462529
0.000459893
0.000457308
0.000454796
0.000452372
0.00045004
0.000447798
0.00044564
0.000443559
0.000441548
0.0004396
0.000437709
0.00043587
0.000434079
0.000432331
0.000430622
0.00042895
0.000427309
0.000425696
0.000424106
0.000422535
0.000420982
0.000419416
0.000417809
0.000416165
0.000414427
0.000412618
0.000410581
0.000407926
0.000404504
0.00040027
0.000395191
0.000389343
0.000382735
0.000375668
0.000368348
0.000360911
0.00035347
0.00034609
0.000338839
0.000331782
0.000324954
0.000318364
0.000312002
0.000305866
0.000299913
0.000294146
0.000288512
0.000283005
0.000277615
0.000272297
0.000267113
0.000261982
0.000257021
0.000252157
0.000247525
0.000243213
0.000239164
0.000235499
0.000232277
0.000229456
0.000227096
0.000225234
0.000223814
0.000222858
0.000222326
0.000222148
0.000222305
0.000222735
0.000223362
0.000224101
0.000224937
0.000225817
0.000226703
0.000227552
0.000228352
0.000229113
0.000229833
0.000230522
0.000231232
0.000231954
0.000232737
0.000233603
0.000234545
0.000235546
0.000236647
0.000237736
0.000238885
0.000239955
0.000241018
0.000241942
0.000242815
0.000243499
0.000244083
0.000244483
0.000244725
0.000244808
0.000244685
0.000244397
0.000243892
0.000243171
0.000242222
0.000241006
0.000239519
0.000237731
0.000235616
0.000233183
0.000230383
0.000227226
0.000223701
0.0002198
0.000215552
0.000210994
0.000206135
0.000200975
0.00019555
0.000189901
0.000184059
0.000178045
0.000171882
0.000165599
0.00015922
0.000152766
0.000146253
0.000139736
0.000133244
0.000126787
0.000120388
0.000114082
0.000107894
0.000101844
9.5944e-05
9.01979e-05
8.46157e-05
7.91767e-05
7.38832e-05
6.87161e-05
6.36624e-05
5.87368e-05
5.39284e-05
4.91986e-05
4.46442e-05
4.03233e-05
3.62848e-05
3.26546e-05
2.94351e-05
2.67575e-05
2.47364e-05
2.34251e-05
2.27855e-05
2.32136e-05
2.38305e-05
2.55499e-05
2.68652e-05
2.78439e-05
2.85047e-05
2.88388e-05
2.85281e-05
2.78988e-05
2.69105e-05
2.59709e-05
2.52248e-05
2.45688e-05
2.39635e-05
2.34171e-05
2.29316e-05
2.24496e-05
2.19016e-05
2.12481e-05
2.04498e-05
1.95999e-05
1.8781e-05
1.79234e-05
1.70004e-05
1.60707e-05
1.51598e-05
1.42528e-05
1.33442e-05
1.24335e-05
1.15207e-05
1.06089e-05
9.68528e-06
8.7594e-06
7.83782e-06
6.91207e-06
5.97811e-06
5.04831e-06
4.12547e-06
3.19987e-06
2.26164e-06
1.30832e-06
2.68384e-07
0.000477435
0.00047717
0.00047617
0.000474568
0.00047256
0.000470266
0.000467772
0.000465162
0.000462506
0.000459862
0.000457266
0.000454739
0.000452296
0.000449939
0.000447669
0.000445476
0.000443356
0.000441298
0.000439296
0.000437343
0.000435432
0.000433558
0.000431715
0.000429897
0.000428099
0.000426315
0.000424537
0.000422755
0.00042097
0.000419201
0.00041739
0.000415482
0.000413514
0.000411462
0.000409302
0.000406893
0.000403949
0.000400327
0.000395975
0.000390882
0.000385128
0.000378779
0.000372083
0.000365235
0.00035839
0.000351642
0.000345033
0.00033862
0.000332421
0.000326461
0.000320718
0.000315167
0.000309797
0.00030455
0.000299432
0.000294386
0.000289403
0.000284483
0.000279561
0.000274732
0.000269869
0.000265115
0.000260412
0.000255826
0.000251442
0.000247269
0.000243389
0.000239804
0.000236553
0.000233698
0.000231263
0.000229213
0.000227572
0.000226365
0.000225495
0.000224933
0.000224754
0.000224779
0.000224983
0.00022529
0.000225725
0.000226239
0.00022677
0.000227297
0.000227831
0.000228367
0.000228893
0.000229453
0.00023004
0.000230699
0.000231445
0.000232276
0.000233171
0.000234171
0.000235169
0.00023623
0.000237217
0.000238193
0.000239028
0.000239795
0.000240361
0.000240804
0.000241041
0.000241098
0.00024097
0.000240624
0.000240091
0.000239338
0.000238361
0.000237149
0.000235673
0.000233937
0.000231917
0.000229603
0.000227008
0.000224103
0.000220901
0.000217396
0.000213577
0.000209474
0.000205138
0.000200574
0.000195745
0.000190703
0.000185517
0.000180184
0.000174712
0.000169122
0.000163436
0.000157673
0.000151849
0.000145988
0.000140117
0.000134265
0.000128437
0.000122664
0.000116968
0.000111362
0.000105863
0.000100482
9.5205e-05
9.00495e-05
8.4977e-05
7.99961e-05
7.50772e-05
7.02e-05
6.53812e-05
6.05842e-05
5.5807e-05
5.11157e-05
4.65241e-05
4.21587e-05
3.80244e-05
3.41586e-05
3.07369e-05
2.79448e-05
2.57312e-05
2.41805e-05
2.36639e-05
2.35894e-05
2.44341e-05
2.51714e-05
2.57185e-05
2.60458e-05
2.61385e-05
2.57523e-05
2.5138e-05
2.43123e-05
2.35794e-05
2.30335e-05
2.25731e-05
2.20795e-05
2.15104e-05
2.10378e-05
2.06027e-05
2.00107e-05
1.93019e-05
1.85153e-05
1.77071e-05
1.69037e-05
1.60664e-05
1.52392e-05
1.44877e-05
1.37817e-05
1.30846e-05
1.23912e-05
1.16935e-05
1.09821e-05
1.0267e-05
9.49648e-06
8.69976e-06
7.87297e-06
7.0188e-06
6.13963e-06
5.23516e-06
4.30962e-06
3.36235e-06
2.38872e-06
1.38975e-06
2.69856e-07
0.000477957
0.000477669
0.000476579
0.000474853
0.000472725
0.000470328
0.000467749
0.000465072
0.000462369
0.000459692
0.000457074
0.000454533
0.000452076
0.000449707
0.000447422
0.000445211
0.000443064
0.000440973
0.00043893
0.000436925
0.000434952
0.000433004
0.000431074
0.000429155
0.00042724
0.000425321
0.00042339
0.000421438
0.000419458
0.00041744
0.000415353
0.000413177
0.000410916
0.000408551
0.000406039
0.000403266
0.000400039
0.000396226
0.000391773
0.000386689
0.000381054
0.000374978
0.000368666
0.000362304
0.00035606
0.000350002
0.000344145
0.000338532
0.000333136
0.00032797
0.000322985
0.000318146
0.000313437
0.000308795
0.000304227
0.000299681
0.000295147
0.000290634
0.000286066
0.000281559
0.000276963
0.000272428
0.000267895
0.000263417
0.000259059
0.000254835
0.000250811
0.000247
0.000243461
0.00024023
0.00023734
0.000234748
0.00023253
0.000230742
0.000229252
0.000228047
0.000227182
0.00022661
0.000226254
0.00022604
0.00022594
0.000225986
0.000226114
0.000226283
0.000226523
0.000226822
0.000227121
0.000227455
0.000227834
0.000228297
0.000228847
0.000229486
0.000230191
0.000230997
0.000231814
0.000232689
0.000233505
0.000234303
0.000234972
0.000235562
0.000235959
0.00023622
0.000236273
0.000236134
0.000235796
0.000235242
0.000234496
0.000233546
0.000232391
0.000231016
0.000229393
0.000227532
0.000225435
0.000223094
0.000220493
0.000217593
0.000214407
0.000210994
0.000207389
0.00020358
0.000199565
0.00019536
0.000190961
0.000186396
0.000181705
0.000176893
0.000171965
0.000166936
0.000161822
0.000156637
0.000151395
0.000146117
0.000140816
0.00013553
0.00013025
0.000125016
0.000119837
0.000114724
0.000109684
0.000104734
9.98431e-05
9.50384e-05
9.02651e-05
8.55419e-05
8.08261e-05
7.61013e-05
7.13768e-05
6.66118e-05
6.18034e-05
5.70222e-05
5.22225e-05
4.75619e-05
4.29615e-05
3.86048e-05
3.45692e-05
3.09976e-05
2.78711e-05
2.54503e-05
2.39782e-05
2.31438e-05
2.31046e-05
2.32279e-05
2.33154e-05
2.33049e-05
2.31662e-05
2.27681e-05
2.22604e-05
2.15934e-05
2.10128e-05
2.06968e-05
2.04416e-05
2.00862e-05
1.96651e-05
1.92392e-05
1.87579e-05
1.81412e-05
1.74229e-05
1.66489e-05
1.58579e-05
1.50824e-05
1.43367e-05
1.36505e-05
1.30452e-05
1.25006e-05
1.19911e-05
1.14994e-05
1.10035e-05
1.0494e-05
9.9402e-06
9.32219e-06
8.65215e-06
7.9238e-06
7.13818e-06
6.29928e-06
5.41254e-06
4.48439e-06
3.5229e-06
2.52852e-06
1.52876e-06
3.20615e-07
0.000479105
0.00047876
0.000477459
0.000475453
0.000473065
0.000470452
0.0004677
0.000464892
0.000462102
0.000459375
0.00045673
0.000454176
0.000451717
0.000449352
0.00044707
0.000444855
0.000442698
0.000440589
0.000438517
0.000436474
0.000434452
0.000432442
0.000430438
0.000428431
0.000426411
0.000424371
0.000422298
0.000420184
0.000418014
0.000415776
0.000413449
0.000411015
0.000408462
0.000405786
0.000402927
0.0003998
0.000396287
0.000392278
0.000387722
0.000382652
0.00037714
0.000371331
0.000365405
0.000359555
0.000353911
0.000348534