/*--------------------------------*- C++ -*----------------------------------*\
| =========                 |                                                 |
| \\      /  F ield         | OpenFOAM: The Open Source CFD Toolbox           |
|  \\    /   O peration     | Version:  2506                                  |
|   \\  /    A nd           | Website:  www.openfoam.com                      |
|    \\/     M anipulation  |                                                 |
\*---------------------------------------------------------------------------*/
FoamFile
{
    version     2.0;
    format      ascii;
    arch        "LSB;label=32;scalar=64";
    class       volScalarField;
    location    "6.44211e-05";
    object      s;
}
// * * * * * * * * * * * * * * * * * * * * * * * * * * * * * * * * * * * * * //

dimensions      [0 0 0 0 0 0 0];

internalField   nonuniform List<scalar> 
4000
(
0.00240883
3.07512e-09
-9.76062e-10
-1.34929e-12
-1.12495e-15
-9.18672e-19
1.47287e-19
2.96703e-22
-3.29452e-23
-8.70316e-26
2.32585e-27
8.70082e-30
-2.44817e-31
-9.42593e-34
4.79427e-36
2.68717e-38
-2.05515e-40
-6.67913e-43
-3.52394e-44
-1.6374e-46
-4.36974e-49
-8.68257e-52
-1.42612e-54
-2.04514e-57
-2.64615e-60
-3.15451e-63
-3.51373e-66
-3.69178e-69
-3.6818e-72
-3.49837e-75
-3.17147e-78
-2.74023e-81
-2.24776e-84
-1.73665e-87
-1.22996e-90
-8.05918e-94
-5.13409e-97
-3.31251e-100
-2.2088e-103
-1.56014e-106
-1.19603e-109
-9.98729e-113
-8.96177e-116
-8.54874e-119
-8.60104e-122
-9.06121e-125
-9.95646e-128
-1.13616e-130
-1.34154e-133
-1.63536e-136
-2.0515e-139
-2.64169e-142
-3.48448e-145
-4.69124e-148
-6.44138e-151
-8.98389e-154
-1.27104e-156
-1.81802e-159
-2.61937e-162
-3.80866e-165
-5.53426e-168
-8.05473e-171
-1.16872e-173
-1.68406e-176
-2.4116e-179
-3.4049e-182
-4.75589e-185
-6.51745e-188
-8.7833e-191
-1.15818e-193
-1.49177e-196
-1.87748e-199
-2.29585e-202
-2.7294e-205
-3.14833e-208
-3.51214e-211
-3.78708e-214
-3.94219e-217
-3.9506e-220
-3.8074e-223
-3.52496e-226
-3.12948e-229
-2.66121e-232
-2.16484e-235
-1.6819e-238
-1.24772e-241
-8.8292e-245
-5.94529e-248
-3.814e-251
-2.32978e-254
-1.35132e-257
-7.46364e-261
-3.92348e-264
-1.95979e-267
-9.34824e-271
-4.24251e-274
-1.84585e-277
-7.68883e-281
-3.09017e-284
-1.19994e-287
-4.54647e-291
-1.687e-294
-6.18977e-298
-2.26128e-301
-8.28759e-305
-3.07549e-308
-1.16333e-311
-4.51785e-315
-1.25572e-318
0
0
0
0
0
0
0
0
0
0
0
0
0
0
0
0
0
0
0
0
0
0
0
0
0
0
0
0
0
0
0
0
0
0
0
0
0
0
0
0
0
0
0
0
0
0
0
0
0
0
0
0
0
0
0
0
0
0
0
0
0
0
0
0
0
0
0
0
0
0
0
0
0
0
0
0
0
0
0
0
0
0
0
0
0
0
0
0
0
0
0
0.00241549
3.10314e-09
-9.85131e-10
-1.36629e-12
-1.14306e-15
-9.36703e-19
1.49885e-19
3.02934e-22
-3.36476e-23
-8.91628e-26
2.38076e-27
8.93477e-30
-2.51376e-31
-9.70787e-34
4.92947e-36
2.7734e-38
-2.12011e-40
-6.91349e-43
-3.64747e-44
-1.69929e-46
-4.54708e-49
-9.0596e-52
-1.4923e-54
-2.147e-57
-2.78739e-60
-3.33522e-63
-3.73055e-66
-3.93891e-69
-3.95143e-72
-3.78191e-75
-3.46094e-78
-3.02942e-81
-2.53179e-84
-2.01346e-87
-1.50947e-90
-1.0781e-93
-7.58988e-97
-5.33571e-100
-3.80274e-103
-2.79499e-106
-2.16925e-109
-1.77242e-112
-1.5162e-115
-1.35724e-118
-1.26757e-121
-1.23528e-124
-1.25479e-127
-1.32457e-130
-1.4516e-133
-1.648e-136
-1.93339e-139
-2.33995e-142
-2.91193e-145
-3.71761e-148
-4.8522e-151
-6.45229e-154
-8.71049e-157
-1.18983e-159
-1.63328e-162
-2.24756e-165
-3.08231e-168
-4.19772e-171
-5.65019e-174
-7.47856e-177
-9.71118e-180
-1.22935e-182
-1.51693e-185
-1.8139e-188
-2.10275e-191
-2.3558e-194
-2.54771e-197
-2.66259e-200
-2.68117e-203
-2.60527e-206
-2.44304e-209
-2.20885e-212
-1.92758e-215
-1.62464e-218
-1.32187e-221
-1.03883e-224
-7.88998e-228
-5.79107e-231
-4.10897e-234
-2.81878e-237
-1.86895e-240
-1.19851e-243
-7.43455e-247
-4.45529e-250
-2.58275e-253
-1.44885e-256
-7.852e-260
-4.11958e-263
-2.09292e-266
-1.02757e-269
-4.89812e-273
-2.25862e-276
-1.01412e-279
-4.42166e-283
-1.88616e-286
-7.85408e-290
-3.22227e-293
-1.30317e-296
-5.23297e-300
-2.09546e-303
-8.41997e-307
-3.4101e-310
-1.3987e-313
-5.79139e-317
0
0
0
0
0
0
0
0
0
0
0
0
0
0
0
0
0
0
0
0
0
0
0
0
0
0
0
0
0
0
0
0
0
0
0
0
0
0
0
0
0
0
0
0
0
0
0
0
0
0
0
0
0
0
0
0
0
0
0
0
0
0
0
0
0
0
0
0
0
0
0
0
0
0
0
0
0
0
0
0
0
0
0
0
0
0
0
0
0
0
0
0
0.00242219
3.13014e-09
-9.9375e-10
-1.38255e-12
-1.16037e-15
-9.53943e-19
1.52487e-19
3.09185e-22
-3.43489e-23
-9.1314e-26
2.43679e-27
9.17709e-30
-2.58213e-31
-1.00077e-33
5.07355e-36
2.86811e-38
-2.19324e-40
-7.18481e-43
-3.78902e-44
-1.77182e-46
-4.76044e-49
-9.52589e-52
-1.57645e-54
-2.27944e-57
-2.97572e-60
-3.58242e-63
-4.03459e-66
-4.29296e-69
-4.34541e-72
-4.2034e-75
-3.89635e-78
-3.46528e-81
-2.95675e-84
-2.4189e-87
-1.89031e-90
-1.42466e-93
-1.05903e-96
-7.89319e-100
-6.04582e-103
-4.84122e-106
-4.11467e-109
-3.67491e-112
-3.42426e-115
-3.3283e-118
-3.36108e-121
-3.52238e-124
-3.82296e-127
-4.27645e-130
-4.9298e-133
-5.83359e-136
-7.06659e-139
-8.74993e-142
-1.1025e-144
-1.41296e-147
-1.8339e-150
-2.40823e-153
-3.1906e-156
-4.25741e-159
-5.71574e-162
-7.70813e-165
-1.04087e-167
-1.40578e-170
-1.89459e-173
-2.54003e-176
-3.38388e-179
-4.4567e-182
-5.80192e-185
-7.42466e-188
-9.33505e-191
-1.14888e-193
-1.38075e-196
-1.62011e-199
-1.84847e-202
-2.05045e-205
-2.20857e-208
-2.30489e-211
-2.32963e-214
-2.27915e-217
-2.15492e-220
-1.96789e-223
-1.73498e-226
-1.47544e-229
-1.20968e-232
-9.55664e-236
-7.26839e-239
-5.32244e-242
-3.7516e-245
-2.54169e-248
-1.65652e-251
-1.03863e-254
-6.25497e-258
-3.62405e-261
-2.02064e-264
-1.08402e-267
-5.61072e-271
-2.80157e-274
-1.35431e-277
-6.34612e-281
-2.8953e-284
-1.28936e-287
-5.63515e-291
-2.42823e-294
-1.03758e-297
-4.42082e-301
-1.89016e-304
-8.1483e-308
-3.56775e-311
-1.59134e-314
-7.54829e-318
0
0
0
0
0
0
0
0
0
0
0
0
0
0
0
0
0
0
0
0
0
0
0
0
0
0
0
0
0
0
0
0
0
0
0
0
0
0
0
0
0
0
0
0
0
0
0
0
0
0
0
0
0
0
0
0
0
0
0
0
0
0
0
0
0
0
0
0
0
0
0
0
0
0
0
0
0
0
0
0
0
0
0
0
0
0
0
0
0
0
0
0.00242892
3.15619e-09
-1.00202e-09
-1.39798e-12
-1.17662e-15
-9.70039e-19
1.55086e-19
3.15362e-22
-3.50334e-23
-9.34087e-26
2.49237e-27
9.41565e-30
-2.64903e-31
-1.02999e-33
5.21525e-36
2.96047e-38
-2.26337e-40
-7.44221e-43
-3.92942e-44
-1.84424e-46
-4.97461e-49
-9.99674e-52
-1.66198e-54
-2.41515e-57
-3.17041e-60
-3.84062e-63
-4.35607e-66
-4.67302e-69
-4.77549e-72
-4.67225e-75
-4.3912e-78
-3.97292e-81
-3.4644e-84
-2.91506e-87
-2.36397e-90
-1.86467e-93
-1.45758e-96
-1.14641e-99
-9.23608e-103
-7.75208e-106
-6.8695e-109
-6.35076e-112
-6.07813e-115
-6.02418e-118
-6.16675e-121
-6.51616e-124
-7.09691e-127
-7.93586e-130
-9.10969e-133
-1.07e-135
-1.28276e-138
-1.56734e-141
-1.94421e-144
-2.44671e-147
-3.11215e-150
-3.99712e-153
-5.17108e-156
-6.72876e-159
-8.7954e-162
-1.15339e-164
-1.51399e-167
-1.98676e-170
-2.60084e-173
-3.38718e-176
-4.38389e-179
-5.61281e-182
-7.10719e-185
-8.85536e-188
-1.08509e-190
-1.30306e-193
-1.53006e-196
-1.75631e-199
-1.96333e-202
-2.1372e-205
-2.26283e-208
-2.32567e-211
-2.31961e-214
-2.24408e-217
-2.10301e-220
-1.9082e-223
-1.67594e-226
-1.42371e-229
-1.1694e-232
-9.28342e-236
-7.11752e-239
-5.2711e-242
-3.77015e-245
-2.60096e-248
-1.73229e-251
-1.11393e-254
-6.90684e-258
-4.13572e-261
-2.39245e-264
-1.33621e-267
-7.22783e-271
-3.7823e-274
-1.92277e-277
-9.49707e-281
-4.57946e-284
-2.15906e-287
-1.00097e-290
-4.57973e-294
-2.07962e-297
-9.4192e-301
-4.28027e-304
-1.96051e-307
-9.10608e-311
-4.30368e-314
-2.01475e-317
0
0
0
0
0
0
0
0
0
0
0
0
0
0
0
0
0
0
0
0
0
0
0
0
0
0
0
0
0
0
0
0
0
0
0
0
0
0
0
0
0
0
0
0
0
0
0
0
0
0
0
0
0
0
0
0
0
0
0
0
0
0
0
0
0
0
0
0
0
0
0
0
0
0
0
0
0
0
0
0
0
0
0
0
0
0
0
0
0
0
0
0.00243569
3.18269e-09
-1.01044e-09
-1.41375e-12
-1.19329e-15
-9.86632e-19
1.57753e-19
3.21735e-22
-3.5741e-23
-9.55854e-26
2.55017e-27
9.66519e-30
-2.71913e-31
-1.06081e-33
5.36516e-36
3.05892e-38
-2.33824e-40
-7.71961e-43
-4.08058e-44
-1.92279e-46
-5.20878e-49
-1.0516e-51
-1.75715e-54
-2.56766e-57
-3.39146e-60
-4.13694e-63
-4.72925e-66
-5.11949e-69
-5.28719e-72
-5.2376e-75
-4.99627e-78
-4.60252e-81
-4.103e-84
-3.54766e-87
-2.97547e-90
-2.44264e-93
-1.99511e-96
-1.64294e-99
-1.38558e-102
-1.2139e-105
-1.11752e-108
-1.06791e-111
-1.05146e-114
-1.06709e-117
-1.11365e-120
-1.19459e-123
-1.31533e-126
-1.48119e-129
-1.70551e-132
-2.00181e-135
-2.38936e-138
-2.89615e-141
-3.55211e-144
-4.40568e-147
-5.50782e-150
-6.93561e-153
-8.77989e-156
-1.1163e-158
-1.42421e-161
-1.82214e-164
-2.33445e-167
-2.99261e-170
-3.83281e-173
-4.89374e-176
-6.22391e-179
-7.85312e-182
-9.82761e-185
-1.21412e-187
-1.47965e-190
-1.77295e-193
-2.08365e-196
-2.40075e-199
-2.70172e-202
-2.96855e-205
-3.18045e-208
-3.31574e-211
-3.36216e-214
-3.31371e-217
-3.17019e-220
-2.94219e-223
-2.64796e-226
-2.30918e-229
-1.95049e-232
-1.59506e-235
-1.26192e-238
-9.65965e-242
-7.1532e-245
-5.11814e-248
-3.54131e-251
-2.36964e-254
-1.53167e-257
-9.57676e-261
-5.79487e-264
-3.39121e-267
-1.92518e-270
-1.05905e-273
-5.66835e-277
-2.95217e-280
-1.50303e-283
-7.49129e-287
-3.67525e-290
-1.7808e-293
-8.56816e-297
-4.11291e-300
-1.98072e-303
-9.61186e-307
-4.72662e-310
-2.36322e-313
-1.20997e-316
0
0
0
0
0
0
0
0
0
0
0
0
0
0
0
0
0
0
0
0
0
0
0
0
0
0
0
0
0
0
0
0
0
0
0
0
0
0
0
0
0
0
0
0
0
0
0
0
0
0
0
0
0
0
0
0
0
0
0
0
0
0
0
0
0
0
0
0
0
0
0
0
0
0
0
0
0
0
0
0
0
0
0
0
0
0
0
0
0
0
0
0.0024425
3.20957e-09
-1.01898e-09
-1.42979e-12
-1.21032e-15
-1.00364e-18
1.60484e-19
3.28288e-22
-3.64691e-23
-9.78345e-26
2.60993e-27
9.9244e-30
-2.79201e-31
-1.09301e-33
5.52193e-36
3.1625e-38
-2.41701e-40
-8.01317e-43
-4.24108e-44
-2.00672e-46
-5.46068e-49
-1.10786e-51
-1.8611e-54
-2.73565e-57
-3.63717e-60
-4.46958e-63
-5.15259e-66
-5.63172e-69
-5.88138e-72
-5.90256e-75
-5.71766e-78
-5.3639e-81
-4.88681e-84
-4.33619e-87
-3.75073e-90
-3.19063e-93
-2.70855e-96
-2.32105e-99
-2.03501e-102
-1.84862e-105
-1.757e-108
-1.72613e-111
-1.74059e-114
-1.80197e-117
-1.91103e-120
-2.07513e-123
-2.30428e-126
-2.60761e-129
-3.00652e-132
-3.5215e-135
-4.18083e-138
-5.02458e-141
-6.09282e-144
-7.45095e-147
-9.16286e-150
-1.13264e-152
-1.40519e-155
-1.74868e-158
-2.18176e-161
-2.7285e-164
-3.41738e-167
-4.28526e-170
-5.37419e-173
-6.72921e-176
-8.4076e-179
-1.0445e-181
-1.2899e-184
-1.57676e-187
-1.90624e-190
-2.27207e-193
-2.66342e-196
-3.06885e-199
-3.46285e-202
-3.82455e-205
-4.12859e-208
-4.34702e-211
-4.46161e-214
-4.46026e-217
-4.33723e-220
-4.09962e-223
-3.76502e-226
-3.35678e-229
-2.90416e-232
-2.43702e-235
-1.98207e-238
-1.56251e-241
-1.19374e-244
-8.82798e-248
-6.32448e-251
-4.38944e-254
-2.94831e-257
-1.91894e-260
-1.21085e-263
-7.40248e-267
-4.39723e-270
-2.53544e-273
-1.42453e-276
-7.80011e-280
-4.18054e-283
-2.19617e-286
-1.13672e-289
-5.8154e-293
-2.95571e-296
-1.49911e-299
-7.62761e-303
-3.90946e-306
-2.0292e-309
-1.07001e-312
-5.76533e-316
0
0
0
0
0
0
0
0
0
0
0
0
0
0
0
0
0
0
0
0
0
0
0
0
0
0
0
0
0
0
0
0
0
0
0
0
0
0
0
0
0
0
0
0
0
0
0
0
0
0
0
0
0
0
0
0
0
0
0
0
0
0
0
0
0
0
0
0
0
0
0
0
0
0
0
0
0
0
0
0
0
0
0
0
0
0
0
0
0
0
0
0.00244935
3.2368e-09
-1.02764e-09
-1.4461e-12
-1.22771e-15
-1.02107e-18
1.63279e-19
3.35022e-22
-3.72176e-23
-1.00156e-25
2.67165e-27
1.01933e-29
-2.86765e-31
-1.12658e-33
5.68543e-36
3.27116e-38
-2.49965e-40
-8.32293e-43
-4.41089e-44
-2.09603e-46
-5.73044e-49
-1.16852e-51
-1.97398e-54
-2.91949e-57
-3.90833e-60
-4.83998e-63
-5.62855e-66
-6.21361e-69
-6.5639e-72
-6.67554e-75
-6.56699e-78
-6.27259e-81
-5.83606e-84
-5.30645e-87
-4.72193e-90
-4.14739e-93
-3.64289e-96
-3.23166e-99
-2.9304e-102
-2.74565e-105
-2.68088e-108
-2.69602e-111
-2.77408e-114
-2.92045e-117
-3.13878e-120
-3.44214e-123
-3.84704e-126
-4.36748e-129
-5.03545e-132
-5.87961e-135
-6.93847e-138
-8.26549e-141
-9.90994e-144
-1.19545e-146
-1.44728e-149
-1.75815e-152
-2.14057e-155
-2.61133e-158
-3.19134e-161
-3.90766e-164
-4.79188e-167
-5.8852e-170
-7.23395e-173
-8.88774e-176
-1.09103e-178
-1.33408e-181
-1.62454e-184
-1.96249e-187
-2.34986e-190
-2.78071e-193
-3.24415e-196
-3.729e-199
-4.20806e-202
-4.6589e-205
-5.05309e-208
-5.35788e-211
-5.55e-214
-5.61136e-217
-5.53014e-220
-5.30829e-223
-4.96037e-226
-4.50857e-229
-3.98401e-232
-3.42098e-235
-2.85236e-238
-2.30934e-241
-1.81522e-244
-1.38369e-247
-1.02361e-250
-7.34863e-254
-5.1153e-257
-3.4563e-260
-2.26806e-263
-1.44456e-266
-8.95435e-270
-5.39696e-273
-3.17436e-276
-1.82237e-279
-1.02535e-282
-5.66167e-286
-3.08301e-289
-1.66064e-292
-8.89082e-296
-4.75109e-299
-2.54681e-302
-1.37478e-305
-7.5106e-309
-4.16508e-312
-2.35247e-315
-1.28702e-318
0
0
0
0
0
0
0
0
0
0
0
0
0
0
0
0
0
0
0
0
0
0
0
0
0
0
0
0
0
0
0
0
0
0
0
0
0
0
0
0
0
0
0
0
0
0
0
0
0
0
0
0
0
0
0
0
0
0
0
0
0
0
0
0
0
0
0
0
0
0
0
0
0
0
0
0
0
0
0
0
0
0
0
0
0
0
0
0
0
0
0.00245624
3.26438e-09
-1.03641e-09
-1.46268e-12
-1.24543e-15
-1.0389e-18
1.66138e-19
3.41937e-22
-3.79864e-23
-1.0255e-25
2.7353e-27
1.04717e-29
-2.94602e-31
-1.16152e-33
5.85549e-36
3.38482e-38
-2.58609e-40
-8.6487e-43
-4.5899e-44
-2.19068e-46
-6.01798e-49
-1.23358e-51
-2.09584e-54
-3.11939e-57
-4.20542e-60
-5.24915e-63
-6.15903e-66
-6.86842e-69
-7.33998e-72
-7.56442e-75
-7.55564e-78
-7.34449e-81
-6.97217e-84
-6.4864e-87
-5.92453e-90
-5.35661e-93
-4.85034e-96
-4.43609e-99
-4.14207e-102
-3.98586e-105
-3.98238e-108
-4.08525e-111
-4.27634e-114
-4.56617e-117
-4.96217e-120
-5.48505e-123
-6.15975e-126
-7.0058e-129
-8.06807e-132
-9.38361e-135
-1.10013e-137
-1.29879e-140
-1.53988e-143
-1.83322e-146
-2.18658e-149
-2.61306e-152
-3.12594e-155
-3.74327e-158
-4.48747e-161
-5.38757e-164
-6.47707e-167
-7.80012e-170
-9.40538e-173
-1.13449e-175
-1.3686e-178
-1.64686e-181
-1.97635e-184
-2.35724e-187
-2.79194e-190
-3.27489e-193
-3.79543e-196
-4.34309e-199
-4.89023e-202
-5.41416e-205
-5.88511e-208
-6.2676e-211
-6.53494e-214
-6.66424e-217
-6.63828e-220
-6.45327e-223
-6.11924e-226
-5.65484e-229
-5.09007e-232
-4.46053e-235
-3.80267e-238
-3.15363e-241
-2.54375e-244
-1.99348e-247
-1.51886e-250
-1.12502e-253
-8.0949e-257
-5.66355e-260
-3.85506e-263
-2.55144e-266
-1.64614e-269
-1.03444e-272
-6.3531e-276
-3.81413e-279
-2.24703e-282
-1.30075e-285
-7.43249e-289
-4.20413e-292
-2.36474e-295
-1.32792e-298
-7.47953e-302
-4.24101e-305
-2.43216e-308
-1.41473e-311
-8.37595e-315
-5.14975e-318
0
0
0
0
0
0
0
0
0
0
0
0
0
0
0
0
0
0
0
0
0
0
0
0
0
0
0
0
0
0
0
0
0
0
0
0
0
0
0
0
0
0
0
0
0
0
0
0
0
0
0
0
0
0
0
0
0
0
0
0
0
0
0
0
0
0
0
0
0
0
0
0
0
0
0
0
0
0
0
0
0
0
0
0
0
0
0
0
0
0
0.00246316
3.29229e-09
-1.04529e-09
-1.47952e-12
-1.2635e-15
-1.05713e-18
1.69061e-19
3.4903e-22
-3.87753e-23
-1.05015e-25
2.80085e-27
1.07596e-29
-3.02707e-31
-1.19781e-33
6.03193e-36
3.50339e-38
-2.67626e-40
-8.99018e-43
-4.7779e-44
-2.29057e-46
-6.32301e-49
-1.30298e-51
-2.22662e-54
-3.3353e-57
-4.52856e-60
-5.69759e-63
-6.74521e-66
-7.59848e-69
-8.21376e-72
-8.57598e-75
-8.69408e-78
-8.59488e-81
-8.31657e-84
-7.90498e-87
-7.39636e-90
-6.86622e-93
-6.38978e-96
-6.00485e-99
-5.75317e-102
-5.66644e-105
-5.7749e-108
-6.02598e-111
-6.40138e-114
-6.91783e-117
-7.58729e-120
-8.43982e-123
-9.51039e-126
-1.08239e-128
-1.24396e-131
-1.44017e-134
-1.67681e-137
-1.96164e-140
-2.30032e-143
-2.7038e-146
-3.17949e-149
-3.74122e-152
-4.40214e-155
-5.18072e-158
-6.09988e-161
-7.18952e-164
-8.48374e-167
-1.00281e-169
-1.18716e-172
-1.40665e-175
-1.66802e-178
-1.97512e-181
-2.33505e-184
-2.74784e-187
-3.21601e-190
-3.73436e-193
-4.29257e-196
-4.88117e-199
-5.4731e-202
-6.04653e-205
-6.57198e-208
-7.01337e-211
-7.34262e-214
-7.53384e-217
-7.566e-220
-7.43015e-223
-7.13135e-226
-6.68328e-229
-6.11246e-232
-5.4528e-235
-4.74112e-238
-4.01754e-241
-3.31721e-244
-2.66606e-247
-2.08701e-250
-1.59104e-253
-1.18048e-256
-8.53142e-260
-6.00915e-263
-4.1228e-266
-2.76189e-269
-1.80519e-272
-1.15485e-275
-7.23297e-279
-4.45102e-282
-2.69466e-285
-1.61175e-288
-9.55041e-292
-5.63004e-295
-3.31413e-298
-1.95661e-301
-1.16248e-304
-6.98099e-308
-4.24868e-311
-2.62912e-314
-1.67421e-317
0
0
0
0
0
0
0
0
0
0
0
0
0
0
0
0
0
0
0
0
0
0
0
0
0
0
0
0
0
0
0
0
0
0
0
0
0
0
0
0
0
0
0
0
0
0
0
0
0
0
0
0
0
0
0
0
0
0
0
0
0
0
0
0
0
0
0
0
0
0
0
0
0
0
0
0
0
0
0
0
0
0
0
0
0
0
0
0
0
0
0.00247013
3.32053e-09
-1.05427e-09
-1.49662e-12
-1.2819e-15
-1.07576e-18
1.72047e-19
3.563e-22
-3.9584e-23
-1.0755e-25
2.86827e-27
1.10568e-29
-3.11075e-31
-1.23541e-33
6.21455e-36
3.62673e-38
-2.77002e-40
-9.34691e-43
-4.97457e-44
-2.39552e-46
-6.64503e-49
-1.37661e-51
-2.36612e-54
-3.56696e-57
-4.87747e-60
-6.18512e-63
-7.38732e-66
-8.40487e-69
-9.18783e-72
-9.71519e-75
-9.9908e-78
-1.00372e-80
-9.88929e-84
-9.59056e-87
-9.17607e-90
-8.72711e-93
-8.32583e-96
-8.01755e-99
-7.85979e-102
-7.90186e-105
-8.19378e-108
-8.67767e-111
-9.33654e-114
-1.01941e-116
-1.12668e-119
-1.25952e-122
-1.42251e-125
-1.61851e-128
-1.85489e-131
-2.1365e-134
-2.46966e-137
-2.8628e-140
-3.32094e-143
-3.85555e-146
-4.47268e-149
-5.18611e-152
-6.00788e-155
-6.95588e-158
-8.0526e-161
-9.32764e-164
-1.08145e-166
-1.25586e-169
-1.46071e-172
-1.70106e-175
-1.98338e-178
-2.3111e-181
-2.69094e-184
-3.12263e-187
-3.60844e-190
-4.14344e-193
-4.71768e-196
-5.32279e-199
-5.9331e-202
-6.52844e-205
-7.08097e-208
-7.55591e-211
-7.9257e-214
-8.16349e-217
-8.24642e-220
-8.1618e-223
-7.91023e-226
-7.5002e-229
-6.9533e-232
-6.29948e-235
-5.57314e-238
-4.8141e-241
-4.0594e-244
-3.33816e-247
-2.67858e-250
-2.09689e-253
-1.60062e-256
-1.19219e-259
-8.66957e-263
-6.15201e-266
-4.26953e-269
-2.89597e-272
-1.92549e-275
-1.25526e-278
-8.0506e-282
-5.0857e-285
-3.17701e-288
-1.96761e-291
-1.21289e-294
-7.46729e-298
-4.61035e-301
-2.86357e-304
-1.79658e-307
-1.1414e-310
-7.36518e-314
-4.89543e-317
0
0
0
0
0
0
0
0
0
0
0
0
0
0
0
0
0
0
0
0
0
0
0
0
0
0
0
0
0
0
0
0
0
0
0
0
0
0
0
0
0
0
0
0
0
0
0
0
0
0
0
0
0
0
0
0
0
0
0
0
0
0
0
0
0
0
0
0
0
0
0
0
0
0
0
0
0
0
0
0
0
0
0
0
0
0
0
0
0
0
0.00247713
3.3491e-09
-1.06337e-09
-1.51397e-12
-1.30063e-15
-1.09479e-18
1.75095e-19
3.63745e-22
-4.04122e-23
-1.10155e-25
2.93751e-27
1.1363e-29
-3.19697e-31
-1.27429e-33
6.40309e-36
3.75466e-38
-2.86723e-40
-9.7183e-43
-5.17953e-44
-2.50532e-46
-6.98329e-49
-1.45431e-51
-2.51402e-54
-3.81382e-57
-5.25137e-60
-6.71082e-63
-8.08446e-66
-9.28708e-69
-1.02626e-71
-1.09844e-74
-1.14512e-77
-1.16815e-80
-1.1707e-83
-1.15687e-86
-1.13009e-89
-1.0991e-92
-1.07271e-95
-1.05618e-98
-1.05708e-101
-1.08248e-104
-1.13986e-107
-1.22307e-110
-1.33078e-113
-1.46602e-116
-1.63079e-119
-1.83016e-122
-2.06969e-125
-2.35228e-128
-2.68655e-131
-3.07722e-134
-3.53061e-137
-4.05512e-140
-4.65425e-143
-5.33918e-146
-6.11353e-149
-6.99019e-152
-7.97908e-155
-9.09663e-158
-1.0364e-160
-1.18094e-163
-1.34647e-166
-1.53738e-169
-1.75803e-172
-2.01317e-175
-2.30866e-178
-2.64743e-181
-3.03546e-184
-3.47205e-187
-3.95891e-190
-4.49134e-193
-5.05977e-196
-5.65694e-199
-6.25909e-202
-6.84827e-205
-7.3992e-208
-7.87988e-211
-8.26484e-214
-8.52806e-217
-8.6469e-220
-8.60661e-223
-8.40455e-226
-8.0446e-229
-7.54311e-232
-6.92486e-235
-6.21979e-238
-5.46471e-241
-4.69558e-244
-3.94215e-247
-3.2354e-250
-2.5952e-253
-2.03368e-256
-1.55777e-259
-1.16705e-262
-8.5473e-266
-6.13232e-269
-4.30744e-272
-2.9703e-275
-2.01134e-278
-1.34159e-281
-8.82491e-285
-5.74568e-288
-3.7115e-291
-2.38734e-294
-1.53398e-297
-9.88343e-301
-6.40395e-304
-4.18859e-307
-2.77188e-310
-1.86115e-313
-1.2758e-316
0
0
0
0
0
0
0
0
0
0
0
0
0
0
0
0
0
0
0
0
0
0
0
0
0
0
0
0
0
0
0
0
0
0
0
0
0
0
0
0
0
0
0
0
0
0
0
0
0
0
0
0
0
0
0
0
0
0
0
0
0
0
0
0
0
0
0
0
0
0
0
0
0
0
0
0
0
0
0
0
0
0
0
0
0
0
0
0
0
0
0.00248417
3.37801e-09
-1.07256e-09
-1.53158e-12
-1.31969e-15
-1.1142e-18
1.78204e-19
3.71363e-22
-4.12595e-23
-1.12828e-25
3.00853e-27
1.16781e-29
-3.28565e-31
-1.31441e-33
6.59728e-36
3.887e-38
-2.96772e-40
-1.01036e-42
-5.3923e-44
-2.61968e-46
-7.33685e-49
-1.53582e-51
-2.66982e-54
-4.07504e-57
-5.64897e-60
-7.27288e-63
-8.83435e-66
-1.02426e-68
-1.14358e-71
-1.23822e-74
-1.3076e-77
-1.35325e-80
-1.37806e-83
-1.38593e-86
-1.38032e-89
-1.37069e-92
-1.3663e-95
-1.37309e-98
-1.40067e-101
-1.45866e-104
-1.55754e-107
-1.69113e-110
-1.8587e-113
-2.06378e-116
-2.30838e-119
-2.59832e-122
-2.93982e-125
-3.33516e-128
-3.79382e-131
-4.3196e-134
-4.91805e-137
-5.59669e-140
-6.35647e-143
-7.20741e-146
-8.14967e-149
-9.19442e-152
-1.03486e-154
-1.16264e-157
-1.3047e-160
-1.46363e-163
-1.64236e-166
-1.84505e-169
-2.07556e-172
-2.33819e-175
-2.63804e-178
-2.97742e-181
-3.36131e-184
-3.78861e-187
-4.26025e-190
-4.77177e-193
-5.31397e-196
-5.88067e-199
-6.45039e-202
-7.00768e-205
-7.53038e-208
-7.99026e-211
-8.36498e-214
-8.63074e-217
-8.76679e-220
-8.75796e-223
-8.59978e-226
-8.29271e-229
-7.84828e-232
-7.28586e-235
-6.63001e-238
-5.91262e-241
-5.16633e-244
-4.41905e-247
-3.70197e-250
-3.03645e-253
-2.43781e-256
-1.91652e-259
-1.47629e-262
-1.1137e-265
-8.2441e-269
-5.98506e-272
-4.27204e-275
-2.99895e-278
-2.07636e-281
-1.41946e-284
-9.61346e-288
-6.46449e-291
-4.3305e-294
-2.89844e-297
-1.94502e-300
-1.31213e-303
-8.92935e-307
-6.14301e-310
-4.28312e-313
-3.02941e-316
0
0
0
0
0
0
0
0
0
0
0
0
0
0
0
0
0
0
0
0
0
0
0
0
0
0
0
0
0
0
0
0
0
0
0
0
0
0
0
0
0
0
0
0
0
0
0
0
0
0
0
0
0
0
0
0
0
0
0
0
0
0
0
0
0
0
0
0
0
0
0
0
0
0
0
0
0
0
0
0
0
0
0
0
0
0
0
0
0
0
0.00249126
3.40725e-09
-1.08187e-09
-1.54944e-12
-1.33908e-15
-1.13402e-18
1.81375e-19
3.79152e-22
-4.21257e-23
-1.15567e-25
3.08128e-27
1.20018e-29
-3.3767e-31
-1.35572e-33
6.79679e-36
4.0235e-38
-3.0713e-40
-1.05021e-42
-5.61232e-44
-2.73826e-46
-7.70457e-49
-1.62086e-51
-2.83293e-54
-4.34952e-57
-6.06843e-60
-7.86855e-63
-9.63321e-66
-1.12666e-68
-1.27018e-71
-1.39026e-74
-1.48602e-77
-1.55873e-80
-1.61119e-83
-1.64725e-86
-1.67059e-89
-1.69163e-92
-1.71992e-95
-1.762e-98
-1.82975e-101
-1.93575e-104
-2.09403e-107
-2.29877e-110
-2.5502e-113
-2.85183e-116
-3.20497e-119
-3.61555e-122
-4.08973e-125
-4.62828e-128
-5.24083e-131
-5.92923e-134
-6.69741e-137
-7.55101e-140
-8.48746e-143
-9.51472e-146
-1.06286e-148
-1.18379e-151
-1.31459e-154
-1.4564e-157
-1.6109e-160
-1.7804e-163
-1.96751e-166
-2.1761e-169
-2.40942e-172
-2.67132e-175
-2.96594e-178
-3.29506e-181
-3.66247e-184
-4.0668e-187
-4.50805e-190
-4.98211e-193
-5.48023e-196
-5.9972e-199
-6.51413e-202
-7.01807e-205
-7.49027e-208
-7.90675e-211
-8.24891e-214
-8.49603e-217
-8.63037e-220
-8.63766e-223
-8.51289e-226
-8.25437e-229
-7.8698e-232
-7.37359e-235
-6.78484e-238
-6.12971e-241
-5.43602e-244
-4.72821e-247
-4.03531e-250
-3.37813e-253
-2.7734e-256
-2.23361e-259
-1.76577e-262
-1.36959e-265
-1.04412e-268
-7.82027e-272
-5.7676e-275
-4.18987e-278
-3.00582e-281
-2.13179e-284
-1.49919e-287
-1.04758e-290
-7.29564e-294
-5.07737e-297
-3.54236e-300
-2.4836e-303
-1.75532e-306
-1.25307e-309
-9.0558e-313
-6.64109e-316
0
0
0
0
0
0
0
0
0
0
0
0
0
0
0
0
0
0
0
0
0
0
0
0
0
0
0
0
0
0
0
0
0
0
0
0
0
0
0
0
0
0
0
0
0
0
0
0
0
0
0
0
0
0
0
0
0
0
0
0
0
0
0
0
0
0
0
0
0
0
0
0
0
0
0
0
0
0
0
0
0
0
0
0
0
0
0
0
0
0
0.00249838
3.43684e-09
-1.09128e-09
-1.56756e-12
-1.35881e-15
-1.15422e-18
1.84606e-19
3.8711e-22
-4.30104e-23
-1.18372e-25
3.15569e-27
1.23337e-29
-3.47003e-31
-1.39816e-33
7.00128e-36
4.16391e-38
-3.17776e-40
-1.09128e-42
-5.83899e-44
-2.86069e-46
-8.0851e-49
-1.70909e-51
-3.00258e-54
-4.63582e-57
-6.50737e-60
-8.4941e-63
-1.04756e-65
-1.23516e-68
-1.40509e-71
-1.55341e-74
-1.67905e-77
-1.78328e-80
-1.86902e-83
-1.94033e-86
-2.00161e-89
-2.06453e-92
-2.13894e-95
-2.23188e-98
-2.35778e-101
-2.53256e-104
-2.77427e-107
-3.07797e-110
-3.44518e-113
-3.87831e-116
-4.37664e-119
-4.94492e-122
-5.58818e-125
-6.30437e-128
-7.10238e-131
-7.98103e-134
-8.9417e-137
-9.98717e-140
-1.11105e-142
-1.23168e-145
-1.35971e-148
-1.49571e-151
-1.63964e-154
-1.79233e-157
-1.9552e-160
-2.13022e-163
-2.31974e-166
-2.52726e-169
-2.75543e-172
-3.00765e-175
-3.28703e-178
-3.59496e-181
-3.93397e-184
-4.30261e-187
-4.69999e-190
-5.12248e-193
-5.56186e-196
-6.01391e-199
-6.46239e-202
-6.89683e-205
-7.30187e-208
-7.65795e-211
-7.95027e-214
-8.16166e-217
-8.27791e-220
-8.28656e-223
-8.18301e-226
-7.96456e-229
-7.63617e-232
-7.20813e-235
-6.69467e-238
-6.11616e-241
-5.49512e-244
-4.85154e-247
-4.21078e-250
-3.59135e-253
-3.00978e-256
-2.4789e-259
-2.00773e-262
-1.5984e-265
-1.25287e-268
-9.66492e-272
-7.35298e-275
-5.51865e-278
-4.09563e-281
-3.00858e-284
-2.19347e-287
-1.59019e-290
-1.14947e-293
-8.3047e-297
-6.01407e-300
-4.37504e-303
-3.20608e-306
-2.37097e-309
-1.77302e-312
-1.34284e-315
-1.31088e-318
0
0
0
0
0
0
0
0
0
0
0
0
0
0
0
0
0
0
0
0
0
0
0
0
0
0
0
0
0
0
0
0
0
0
0
0
0
0
0
0
0
0
0
0
0
0
0
0
0
0
0
0
0
0
0
0
0
0
0
0
0
0
0
0
0
0
0
0
0
0
0
0
0
0
0
0
0
0
0
0
0
0
0
0
0
0
0
0
0
0.00250555
3.46679e-09
-1.10081e-09
-1.58595e-12
-1.37887e-15
-1.17483e-18
1.87899e-19
3.95236e-22
-4.39134e-23
-1.21242e-25
3.23171e-27
1.26736e-29
-3.56553e-31
-1.44168e-33
7.21037e-36
4.30793e-38
-3.28688e-40
-1.13348e-42
-6.07164e-44
-2.98655e-46
-8.47696e-49
-1.8001e-51
-3.17791e-54
-4.93229e-57
-6.96286e-60
-9.14484e-63
-1.13545e-65
-1.34874e-68
-1.54694e-71
-1.72587e-74
-1.88449e-77
-2.02431e-80
-2.14876e-83
-2.26258e-86
-2.37156e-89
-2.48942e-92
-2.62638e-95
-2.79014e-98
-2.99795e-101
-3.26945e-104
-3.62705e-107
-4.06728e-110
-4.59293e-113
-5.20334e-116
-5.89328e-119
-6.66425e-122
-7.51855e-125
-8.44988e-128
-9.46548e-131
-1.056e-133
-1.17316e-136
-1.29793e-139
-1.42913e-142
-1.56694e-145
-1.70995e-148
-1.85845e-151
-2.012e-154
-2.17113e-157
-2.33702e-160
-2.51134e-163
-2.69618e-166
-2.8947e-169
-3.10897e-172
-3.34204e-175
-3.59601e-178
-3.87205e-181
-4.1715e-184
-4.49309e-187
-4.83515e-190
-5.19471e-193
-5.56421e-196
-5.94042e-199
-6.30977e-202
-6.66413e-205
-6.99137e-208
-7.27611e-211
-7.50726e-214
-7.67114e-217
-7.75717e-220
-7.75513e-223
-7.66141e-226
-7.47316e-229
-7.19353e-232
-6.82971e-235
-6.39187e-238
-5.8952e-241
-5.35702e-244
-4.79277e-247
-4.22327e-250
-3.66375e-253
-3.12922e-256
-2.63143e-259
-2.18008e-262
-1.77868e-265
-1.43122e-268
-1.13545e-271
-8.89766e-275
-6.8892e-278
-5.28138e-281
-4.01254e-284
-3.02849e-287
-2.27459e-290
-1.70414e-293
-1.27633e-296
-9.58012e-300
-7.22063e-303
-5.47821e-306
-4.19053e-309
-3.23762e-312
-2.53044e-315
-2.62084e-318
0
0
0
0
0
0
0
0
0
0
0
0
0
0
0
0
0
0
0
0
0
0
0
0
0
0
0
0
0
0
0
0
0
0
0
0
0
0
0
0
0
0
0
0
0
0
0
0
0
0
0
0
0
0
0
0
0
0
0
0
0
0
0
0
0
0
0
0
0
0
0
0
0
0
0
0
0
0
0
0
0
0
0
0
0
0
0
0
0
0.00251275
3.49713e-09
-1.11047e-09
-1.60463e-12
-1.3993e-15
-1.19585e-18
1.91253e-19
4.03531e-22
-4.48348e-23
-1.24174e-25
3.30929e-27
1.30211e-29
-3.66309e-31
-1.48622e-33
7.42357e-36
4.45525e-38
-3.39843e-40
-1.17669e-42
-6.30959e-44
-3.11542e-46
-8.87857e-49
-1.89347e-51
-3.35796e-54
-5.23704e-57
-7.43156e-60
-9.81524e-63
-1.22611e-65
-1.46615e-68
-1.69391e-71
-1.90517e-74
-2.09908e-77
-2.27771e-80
-2.44548e-83
-2.60846e-86
-2.77501e-89
-2.9621e-92
-3.18108e-95
-3.4408e-98
-3.76181e-101
-4.16779e-104
-4.68564e-107
-5.31375e-110
-6.05554e-113
-6.90328e-116
-7.84298e-119
-8.86986e-122
-9.98173e-125
-1.11668e-127
-1.24299e-130
-1.37608e-133
-1.51541e-136
-1.66045e-139
-1.80954e-142
-1.9625e-145
-2.11748e-148
-2.27447e-151
-2.43273e-154
-2.59249e-157
-2.75472e-160
-2.92089e-163
-3.09287e-166
-3.2736e-169
-3.46461e-172
-3.66878e-175
-3.8872e-178
-4.12119e-181
-4.37093e-184
-4.63572e-187
-4.91321e-190
-5.20137e-193
-5.4934e-196
-5.78706e-199
-6.07139e-202
-6.3404e-205
-6.5849e-208
-6.7933e-211
-6.95779e-214
-7.06793e-217
-7.11651e-220
-7.09557e-223
-7.00271e-226
-6.83549e-229
-6.59593e-232
-6.289e-235
-5.92178e-238
-5.5051e-241
-5.0517e-244
-4.57281e-247
-4.08464e-250
-3.59872e-253
-3.1278e-256
-2.68152e-259
-2.26916e-262
-1.89461e-265
-1.56284e-268
-1.27334e-271
-1.0264e-274
-8.18766e-278
-6.47542e-281
-5.08179e-284
-3.96561e-287
-3.08178e-290
-2.39009e-293
-1.85335e-296
-1.44007e-299
-1.12311e-302
-8.8102e-306
-6.9616e-309
-5.54929e-312
-4.46749e-315
-3.92988e-318
0
0
0
0
0
0
0
0
0
0
0
0
0
0
0
0
0
0
0
0
0
0
0
0
0
0
0
0
0
0
0
0
0
0
0
0
0
0
0
0
0
0
0
0
0
0
0
0
0
0
0
0
0
0
0
0
0
0
0
0
0
0
0
0
0
0
0
0
0
0
0
0
0
0
0
0
0
0
0
0
0
0
0
0
0
0
0
0
0
0.00252
3.52793e-09
-1.12028e-09
-1.62365e-12
-1.42013e-15
-1.21732e-18
1.94673e-19
4.12001e-22
-4.57746e-23
-1.2717e-25
3.38832e-27
1.33759e-29
-3.76257e-31
-1.53171e-33
7.64026e-36
4.60543e-38
-3.51218e-40
-1.22081e-42
-6.55209e-44
-3.24681e-46
-9.28822e-49
-1.98873e-51
-3.54168e-54
-5.548e-57
-7.90975e-60
-1.0499e-62
-1.31857e-65
-1.58585e-68
-1.8438e-71
-2.08818e-74
-2.31852e-77
-2.53773e-80
-2.75173e-83
-2.96879e-86
-3.20138e-89
-3.47194e-92
-3.79485e-95
-4.18161e-98
-4.657e-101
-5.2489e-104
-5.98852e-107
-6.87602e-110
-7.91304e-113
-9.07683e-116
-1.03375e-118
-1.16804e-121
-1.30979e-124
-1.45725e-127
-1.61066e-130
-1.76849e-133
-1.92986e-136
-2.09379e-139
-2.25824e-142
-2.42269e-145
-2.58495e-148
-2.7448e-151
-2.9013e-154
-3.05444e-157
-3.20488e-160
-3.35425e-163
-3.50414e-166
-3.65745e-169
-3.81535e-172
-3.98075e-175
-4.15374e-178
-4.3362e-181
-4.52726e-184
-4.7272e-187
-4.93311e-190
-5.14418e-193
-5.35437e-196
-5.56255e-199
-5.76012e-202
-5.94303e-205
-6.10462e-208
-6.23657e-211
-6.33389e-214
-6.38881e-217
-6.39712e-220
-6.3528e-223
-6.25475e-226
-6.10104e-229
-5.89317e-232
-5.63454e-235
-5.32996e-238
-4.98685e-241
-4.61421e-244
-4.21966e-247
-3.81523e-250
-3.40881e-253
-3.01066e-256
-2.62779e-259
-2.2683e-262
-1.93561e-265
-1.63476e-268
-1.36623e-271
-1.13146e-274
-9.2882e-278
-7.56972e-281
-6.12949e-284
-4.94006e-287
-3.96797e-290
-3.18218e-293
-2.55212e-296
-2.05067e-299
-1.65303e-302
-1.33921e-305
-1.09181e-308
-8.96855e-312
-7.43107e-315
-6.54751e-318
0
0
0
0
0
0
0
0
0
0
0
0
0
0
0
0
0
0
0
0
0
0
0
0
0
0
0
0
0
0
0
0
0
0
0
0
0
0
0
0
0
0
0
0
0
0
0
0
0
0
0
0
0
0
0
0
0
0
0
0
0
0
0
0
0
0
0
0
0
0
0
0
0
0
0
0
0
0
0
0
0
0
0
0
0
0
0
0
0
0.00252729
3.55931e-09
-1.13028e-09
-1.64284e-12
-1.44076e-15
-1.23866e-18
1.98104e-19
4.20536e-22
-4.67181e-23
-1.30196e-25
3.46872e-27
1.3738e-29
-3.86411e-31
-1.57829e-33
7.86143e-36
4.75948e-38
-3.62935e-40
-1.26645e-42
-6.8015e-44
-3.38212e-46
-9.71061e-49
-2.08702e-51
-3.73132e-54
-5.86891e-57
-8.40291e-60
-1.12033e-62
-1.41363e-65
-1.70867e-68
-1.99722e-71
-2.27506e-74
-2.54212e-77
-2.8023e-80
-3.0634e-83
-3.33678e-86
-3.64096e-89
-4.0073e-92
-4.45786e-95
-5.01033e-98
-5.69577e-101
-6.54571e-104
-7.59664e-107
-8.85013e-110
-1.03005e-112
-1.18932e-115
-1.35714e-118
-1.53097e-121
-1.70969e-124
-1.89104e-127
-2.07504e-130
-2.2596e-133
-2.44354e-136
-2.62531e-139
-2.80262e-142
-2.97464e-145
-3.1391e-148
-3.29567e-151
-3.44353e-154
-3.58254e-157
-3.71246e-160
-3.83677e-163
-3.95784e-166
-4.07846e-169
-4.19939e-172
-4.32453e-175
-4.45273e-178
-4.58777e-181
-4.72773e-184
-4.87501e-187
-5.02603e-190