/*--------------------------------*- C++ -*----------------------------------*\
| =========                 |                                                 |
| \\      /  F ield         | OpenFOAM: The Open Source CFD Toolbox           |
|  \\    /   O peration     | Version:  2506                                  |
|   \\  /    A nd           | Website:  www.openfoam.com                      |
|    \\/     M anipulation  |                                                 |
\*---------------------------------------------------------------------------*/
FoamFile
{
    version     2.0;
    format      ascii;
    arch        "LSB;label=32;scalar=64";
    class       surfaceScalarField;
    location    "2.15";
    object      phi;
}
// * * * * * * * * * * * * * * * * * * * * * * * * * * * * * * * * * * * * * //

dimensions      [0 3 -1 0 0 0 0];

oriented        oriented;

internalField   nonuniform List<scalar> 
7780
(
1.05869e-09
-1.05869e-09
1.85292e-09
-7.9423e-10
2.33237e-09
-4.79457e-10
2.66078e-09
-3.28407e-10
2.8924e-09
-2.3162e-10
3.05625e-09
-1.63854e-10
3.17662e-09
-1.20365e-10
3.26967e-09
-9.30485e-11
3.34475e-09
-7.50801e-11
3.40744e-09
-6.26934e-11
3.46131e-09
-5.38692e-11
3.50869e-09
-4.73755e-11
3.55112e-09
-4.24382e-11
3.58971e-09
-3.85818e-11
3.62522e-09
-3.55113e-11
3.65825e-09
-3.30363e-11
3.68928e-09
-3.10321e-11
3.7187e-09
-2.94174e-11
3.74684e-09
-2.81415e-11
3.77402e-09
-2.71767e-11
3.80053e-09
-2.65146e-11
3.8267e-09
-2.61644e-11
3.85285e-09
-2.61537e-11
3.87938e-09
-2.6531e-11
3.90676e-09
-2.73715e-11
3.93554e-09
-2.87867e-11
3.96648e-09
-3.0939e-11
4.00054e-09
-3.40614e-11
4.039e-09
-3.84534e-11
4.08322e-09
-4.42274e-11
4.11624e-09
-1.06761e-10
4.05403e-09
-4.57972e-10
3.88419e-09
-9.13485e-10
3.63096e-09
-1.33711e-09
3.31943e-09
-1.70971e-09
2.9965e-09
-2.06263e-09
2.69459e-09
-2.40777e-09
2.33233e-09
-2.82325e-09
1.95251e-09
-3.1063e-09
1.64845e-09
-3.25485e-09
1.41033e-09
-3.37084e-09
1.23215e-09
-3.4631e-09
1.10046e-09
-3.52882e-09
1.00434e-09
-3.57137e-09
9.33683e-10
-3.59185e-09
8.7822e-10
-3.58989e-09
8.35016e-10
-3.56687e-09
7.95078e-10
-3.52221e-09
7.51605e-10
-3.45367e-09
6.99565e-10
-3.35998e-09
6.41425e-10
-3.23781e-09
5.98203e-10
-3.08618e-09
5.65211e-10
-2.90593e-09
5.87314e-10
-2.68249e-09
6.8983e-10
-2.41183e-09
9.24865e-10
-2.06129e-09
1.29134e-09
-1.62186e-09
1.79455e-09
-1.0313e-09
2.3449e-09
-2.9556e-10
2.81717e-09
5.0649e-10
3.15344e-09
1.26779e-09
3.37462e-09
1.94227e-09
3.52138e-09
2.37699e-09
3.63623e-09
2.73904e-09
3.72979e-09
2.96816e-09
3.81593e-09
3.15026e-09
3.89754e-09
3.29176e-09
3.97486e-09
3.38989e-09
4.04949e-09
3.46489e-09
4.12121e-09
3.52196e-09
4.19104e-09
3.56433e-09
4.25879e-09
3.5897e-09
4.32484e-09
3.60098e-09
4.38969e-09
3.59978e-09
4.4536e-09
3.58621e-09
4.51689e-09
3.55961e-09
4.57962e-09
3.51866e-09
4.64179e-09
3.45231e-09
4.70368e-09
3.3715e-09
4.7648e-09
3.26765e-09
4.82595e-09
3.13155e-09
4.88393e-09
2.92536e-09
4.93976e-09
2.69711e-09
4.98893e-09
2.35504e-09
5.03025e-09
1.95493e-09
5.05492e-09
1.36895e-09
5.06098e-09
7.24454e-10
5.03902e-09
8.33779e-12
4.98421e-09
-7.34e-10
4.89156e-09
-1.38254e-09
4.76934e-09
-1.87705e-09
4.62221e-09
-2.30515e-09
4.47059e-09
-2.60345e-09
4.32777e-09
-2.87894e-09
4.21293e-09
-3.07855e-09
4.12604e-09
-3.24382e-09
4.06141e-09
-3.38382e-09
4.01286e-09
-3.47595e-09
3.97119e-09
-3.54034e-09
3.92807e-09
-3.58044e-09
3.87571e-09
-3.59868e-09
3.80716e-09
-3.59725e-09
3.71968e-09
-3.57923e-09
3.61295e-09
-3.54815e-09
3.48814e-09
-3.50565e-09
3.34735e-09
-3.45157e-09
3.19179e-09
-3.38334e-09
3.02262e-09
-3.29267e-09
2.84411e-09
-3.17637e-09
2.6548e-09
-3.03774e-09
2.45526e-09
-2.86452e-09
2.27575e-09
-2.62591e-09
2.11425e-09
-2.36644e-09
2.0345e-09
-2.01011e-09
2.04816e-09
-1.60573e-09
2.19744e-09
-1.08293e-09
2.46529e-09
-4.33163e-10
2.76258e-09
2.88255e-10
3.00809e-09
1.02421e-09
3.18124e-09
1.71864e-09
3.29245e-09
2.22011e-09
3.37019e-09
2.61276e-09
3.433e-09
2.87887e-09
3.49292e-09
3.10002e-09
3.55195e-09
3.24224e-09
3.6108e-09
3.35371e-09
3.67098e-09
3.44408e-09
3.73245e-09
3.5089e-09
3.79466e-09
3.55274e-09
3.85802e-09
3.58192e-09
3.92264e-09
3.598e-09
3.98896e-09
3.60144e-09
4.05717e-09
3.59233e-09
4.12732e-09
3.56792e-09
4.20066e-09
3.52957e-09
4.27674e-09
3.47659e-09
4.35654e-09
3.40524e-09
4.44061e-09
3.31286e-09
4.52774e-09
3.1721e-09
4.61948e-09
3.01119e-09
4.71451e-09
2.80829e-09
4.80938e-09
2.49462e-09
4.90337e-09
2.15238e-09
4.98716e-09
1.63789e-09
5.05748e-09
1.04314e-09
5.10357e-09
3.59105e-10
5.11691e-09
-3.89013e-10
5.08835e-09
-1.096e-09
5.0221e-09
-1.65528e-09
4.92182e-09
-2.12096e-09
4.80198e-09
-2.48289e-09
4.68003e-09
-2.76573e-09
4.57645e-09
-2.98837e-09
4.49348e-09
-3.19051e-09
4.43285e-09
-3.32894e-09
4.38779e-09
-3.4352e-09
4.35006e-09
-3.51211e-09
4.31007e-09
-3.56508e-09
4.25777e-09
-3.58728e-09
4.17186e-09
-3.57368e-09
4.03689e-09
-3.53235e-09
3.83848e-09
-3.46469e-09
3.51728e-09
-3.32556e-09
3.28952e-09
-2.71967e-09
3.09054e-09
-2.38538e-09
2.92031e-09
-2.10966e-09
2.81069e-09
-1.76722e-09
2.77943e-09
-1.39552e-09
2.84164e-09
-9.63341e-10
2.98885e-09
-4.98412e-10
3.14586e-09
-1.71714e-10
3.24264e-09
-9.67736e-11
3.30028e-09
-5.76397e-11
3.33435e-09
-3.40734e-11
3.35495e-09
-2.05981e-11
3.36847e-09
-1.35188e-11
3.37857e-09
-1.01018e-11
3.38712e-09
-8.55071e-12
3.39502e-09
-7.89643e-12
3.40257e-09
-7.5556e-12
3.40977e-09
-7.20151e-12
3.41644e-09
-6.66295e-12
3.4223e-09
-5.86469e-12
3.4271e-09
-4.79457e-12
3.43052e-09
-3.42617e-12
3.43222e-09
-1.702e-12
3.43171e-09
5.18597e-13
3.42878e-09
2.92714e-12
3.42278e-09
6.00388e-12
3.41304e-09
9.73017e-12
3.3987e-09
1.43443e-11
3.37841e-09
2.02925e-11
3.34988e-09
2.85235e-11
3.30868e-09
4.12017e-11
3.24525e-09
6.34297e-11
3.13785e-09
1.074e-10
2.93515e-09
2.02704e-10
2.51036e-09
4.24794e-10
1.56205e-09
9.48303e-10
1.56205e-09
-9.16914e-11
-9.66995e-10
1.68144e-10
-1.05407e-09
5.16605e-10
-8.27918e-10
8.23993e-10
-6.35794e-10
1.08196e-09
-4.89584e-10
1.29577e-09
-3.77666e-10
1.47236e-09
-2.96957e-10
1.61943e-09
-2.40112e-10
1.74363e-09
-1.99284e-10
1.85006e-09
-1.69124e-10
1.94251e-09
-1.46322e-10
2.02384e-09
-1.28704e-10
2.09621e-09
-1.14803e-10
2.16127e-09
-1.03641e-10
2.22032e-09
-9.45662e-11
2.27442e-09
-8.71327e-11
2.32442e-09
-8.10365e-11
2.37108e-09
-7.60722e-11
2.41504e-09
-7.21083e-11
2.45694e-09
-6.90721e-11
2.49736e-09
-6.69409e-11
2.53694e-09
-6.57395e-11
2.57633e-09
-6.55415e-11
2.61627e-09
-6.64761e-11
2.65764e-09
-6.87416e-11
2.70148e-09
-7.26281e-11
2.7491e-09
-7.85555e-11
2.80217e-09
-8.71289e-11
2.86298e-09
-9.92639e-11
2.93488e-09
-1.16124e-10
3.00529e-09
-1.7718e-10
3.00225e-09
-4.54923e-10
2.91667e-09
-8.27909e-10
2.77516e-09
-1.1956e-09
2.60271e-09
-1.53727e-09
2.42367e-09
-1.88359e-09
2.24658e-09
-2.23068e-09
2.03167e-09
-2.60834e-09
1.80225e-09
-2.87688e-09
1.6016e-09
-3.05419e-09
1.4325e-09
-3.20174e-09
1.29301e-09
-3.32361e-09
1.17666e-09
-3.41248e-09
1.07778e-09
-3.47248e-09
9.91029e-10
-3.50509e-09
9.11193e-10
-3.51004e-09
8.34577e-10
-3.49026e-09
7.55615e-10
-3.44327e-09
6.68642e-10
-3.3667e-09
5.7012e-10
-3.26145e-09
4.60231e-10
-3.12792e-09
3.45531e-10
-2.97147e-09
2.25085e-10
-2.78548e-09
1.18501e-10
-2.57591e-09
4.39058e-11
-2.33723e-09
4.21226e-11
-2.05951e-09
1.50924e-10
-1.73066e-09
4.38139e-10
-1.31852e-09
9.2977e-10
-7.87188e-10
1.56694e-09
-1.3068e-10
2.22523e-09
6.09509e-10
2.78319e-09
1.38431e-09
3.17626e-09
1.98392e-09
3.45014e-09
2.46514e-09
3.63103e-09
2.78722e-09
3.76077e-09
3.02047e-09
3.86461e-09
3.18788e-09
3.95373e-09
3.30076e-09
4.03492e-09
3.38372e-09
4.1108e-09
3.44614e-09
4.18361e-09
3.4916e-09
4.25352e-09
3.51984e-09
4.32115e-09
3.53337e-09
4.38716e-09
3.53373e-09
4.45191e-09
3.52141e-09
4.51585e-09
3.49565e-09
4.57906e-09
3.45544e-09
4.64136e-09
3.39e-09
4.70309e-09
3.30977e-09
4.7637e-09
3.20704e-09
4.82381e-09
3.07145e-09
4.87976e-09
2.86943e-09
4.93268e-09
2.6442e-09
4.97671e-09
2.31101e-09
5.00991e-09
1.92173e-09
5.02006e-09
1.3588e-09
5.00293e-09
7.41589e-10
4.95e-09
6.12702e-11
4.86082e-09
-6.44825e-10
4.74051e-09
-1.26223e-09
4.60811e-09
-1.74466e-09
4.47641e-09
-2.17346e-09
4.36297e-09
-2.49001e-09
4.27043e-09
-2.7864e-09
4.19853e-09
-3.00666e-09
4.14206e-09
-3.18734e-09
4.09278e-09
-3.33454e-09
4.04289e-09
-3.42606e-09
3.98552e-09
-3.48296e-09
3.91369e-09
-3.50862e-09
3.82198e-09
-3.50696e-09
3.71061e-09
-3.48587e-09
3.5818e-09
-3.45042e-09
3.43807e-09
-3.40443e-09
3.28118e-09
-3.34876e-09
3.11201e-09
-3.28239e-09
2.93041e-09
-3.20174e-09
2.73605e-09
-3.09832e-09
2.53034e-09
-2.97066e-09
2.31218e-09
-2.81958e-09
2.08462e-09
-2.63696e-09
1.86188e-09
-2.40318e-09
1.64702e-09
-2.15158e-09
1.47305e-09
-1.83614e-09
1.35955e-09
-1.49223e-09
1.35518e-09
-1.07856e-09
1.50764e-09
-5.85631e-10
1.81854e-09
-2.26416e-11
2.22996e-09
6.12791e-10
2.63743e-09
1.31117e-09
2.95504e-09
1.9025e-09
3.17816e-09
2.38964e-09
3.32648e-09
2.73054e-09
3.43243e-09
2.99406e-09
3.51541e-09
3.15924e-09
3.58754e-09
3.28157e-09
3.65551e-09
3.37611e-09
3.7219e-09
3.44253e-09
3.78737e-09
3.48731e-09
3.85286e-09
3.51644e-09
3.91891e-09
3.53196e-09
3.98618e-09
3.53417e-09
4.05495e-09
3.52356e-09
4.12531e-09
3.49755e-09
4.19856e-09
3.45631e-09
4.27427e-09
3.40087e-09
4.35339e-09
3.32612e-09
4.4364e-09
3.22984e-09
4.52174e-09
3.08676e-09
4.61101e-09
2.92194e-09
4.70255e-09
2.71675e-09
4.79175e-09
2.40543e-09
4.8776e-09
2.06653e-09
4.94747e-09
1.56802e-09
4.99567e-09
9.94939e-10
5.00979e-09
3.44983e-10
4.98364e-09
-3.62863e-10
4.91699e-09
-1.02935e-09
4.8269e-09
-1.56519e-09
4.72785e-09
-2.0219e-09
4.63851e-09
-2.39355e-09
4.5672e-09
-2.69441e-09
4.51477e-09
-2.93594e-09
4.47249e-09
-3.14823e-09
4.43526e-09
-3.29171e-09
4.39406e-09
-3.39399e-09
4.33878e-09
-3.45684e-09
4.25948e-09
-3.48578e-09
4.1497e-09
-3.4775e-09
3.99258e-09
-3.41657e-09
3.7796e-09
-3.31937e-09
3.51273e-09
-3.19783e-09
3.20282e-09
-3.01566e-09
2.95845e-09
-2.47531e-09
2.74048e-09
-2.1674e-09
2.53977e-09
-1.90894e-09
2.37143e-09
-1.59888e-09
2.25334e-09
-1.27743e-09
2.20396e-09
-9.13959e-10
2.2372e-09
-5.31653e-10
2.32037e-09
-2.54881e-10
2.38764e-09
-1.64044e-10
2.43468e-09
-1.04682e-10
2.46414e-09
-6.35275e-11
2.48091e-09
-3.73676e-11
2.48972e-09
-2.23347e-11
2.49406e-09
-1.44373e-11
2.4961e-09
-1.05934e-11
2.49696e-09
-8.75194e-12
2.49701e-09
-7.60475e-12
2.49616e-09
-6.3582e-12
2.49407e-09
-4.56637e-12
2.49022e-09
-2.02178e-12
2.48407e-09
1.36028e-12
2.47495e-09
5.68912e-12
2.46214e-09
1.11089e-11
2.44486e-09
1.78043e-11
2.42186e-09
2.59186e-11
2.392e-09
3.58724e-11
2.35366e-09
4.8064e-11
2.30482e-09
6.31815e-11
2.24264e-09
8.24755e-11
2.16272e-09
1.08447e-10
2.05744e-09
1.46481e-10
1.91228e-09
2.08587e-10
1.69831e-09
3.21369e-10
1.36112e-09
5.39894e-10
8.29117e-10
9.56801e-10
1.70956e-10
1.60646e-09
1.73301e-09
-2.16799e-10
-7.50195e-10
-2.41608e-10
-1.02926e-09
-1.27185e-10
-9.42341e-10
3.49759e-11
-7.97955e-10
2.06734e-10
-6.61343e-10
3.74016e-10
-5.44948e-10
5.29412e-10
-4.52353e-10
6.70398e-10
-3.81098e-10
7.97209e-10
-3.26095e-10
9.11139e-10
-2.83053e-10
1.01371e-09
-2.48897e-10
1.10642e-09
-2.21413e-10
1.19062e-09
-1.99004e-10
1.26751e-09
-1.80528e-10
1.33812e-09
-1.65175e-10
1.40335e-09
-1.52365e-10
1.464e-09
-1.4169e-10
1.5208e-09
-1.32869e-10
1.57441e-09
-1.25722e-10
1.62549e-09
-1.20152e-10
1.67469e-09
-1.16142e-10
1.7227e-09
-1.13745e-10
1.77025e-09
-1.13094e-10
1.81819e-09
-1.14413e-10
1.86748e-09
-1.1803e-10
1.91927e-09
-1.24416e-10
1.97494e-09
-1.34232e-10
2.03622e-09
-1.48403e-10
2.10522e-09
-1.68271e-10
2.18471e-09
-1.95613e-10
2.26756e-09
-2.60028e-10
2.30358e-09
-4.90937e-10
2.28093e-09
-8.05257e-10
2.21397e-09
-1.12864e-09
2.11743e-09
-1.44073e-09
2.00677e-09
-1.77292e-09
1.88615e-09
-2.11006e-09
1.73459e-09
-2.45678e-09
1.57394e-09
-2.71622e-09
1.43118e-09
-2.91143e-09
1.30727e-09
-3.07783e-09
1.20013e-09
-3.21647e-09
1.10593e-09
-3.31829e-09
1.02126e-09
-3.38781e-09
9.42493e-10
-3.42632e-09
8.65947e-10
-3.43349e-09
7.8747e-10
-3.41178e-09
7.02168e-10
-3.35798e-09
6.07104e-10
-3.27165e-09
4.99351e-10
-3.1537e-09
3.79011e-10
-3.00757e-09
2.48396e-10
-2.84085e-09
1.08865e-10
-2.64594e-09
-2.8992e-11
-2.43805e-09
-1.53164e-10
-2.21306e-09
-2.37509e-10
-1.97516e-09
-2.55964e-10
-1.71221e-09
-1.60591e-10
-1.41389e-09
9.74333e-11
-1.04521e-09
5.40831e-10
-5.74072e-10
1.13732e-09
1.30288e-11
1.80907e-09
7.12552e-10
2.41179e-09
1.38121e-09
2.90222e-09
1.9747e-09
3.26506e-09
2.42436e-09
3.52344e-09
2.76206e-09
3.70897e-09
3.00232e-09
3.84764e-09
3.16208e-09
3.9585e-09
3.27289e-09
4.05242e-09
3.35227e-09
4.13686e-09
3.4072e-09
4.21464e-09
3.44207e-09
4.28769e-09
3.46028e-09
4.35741e-09
3.46396e-09
4.42453e-09
3.45425e-09
4.48969e-09
3.43047e-09
4.55322e-09
3.39189e-09
4.6149e-09
3.32831e-09
4.67515e-09
3.24953e-09
4.73337e-09
3.14883e-09
4.78986e-09
3.01497e-09
4.84021e-09
2.81909e-09
4.8855e-09
2.59892e-09
4.919e-09
2.27752e-09
4.93855e-09
1.90217e-09
4.93158e-09
1.36577e-09
4.89575e-09
7.77418e-10
4.82577e-09
1.31244e-10
4.72644e-09
-5.45495e-10
4.60877e-09
-1.14456e-09
4.49371e-09
-1.6296e-09
4.39118e-09
-2.07092e-09
4.31082e-09
-2.40965e-09
4.24823e-09
-2.7238e-09
4.19846e-09
-2.95689e-09
4.15265e-09
-3.14155e-09
4.1021e-09
-3.28397e-09
4.03923e-09
-3.3632e-09
3.95861e-09
-3.40236e-09
3.85735e-09
-3.40736e-09
3.73696e-09
-3.38657e-09
3.60067e-09
-3.34957e-09
3.45103e-09
-3.30078e-09
3.29045e-09
-3.24384e-09
3.11989e-09
-3.1782e-09
2.93932e-09
-3.10181e-09
2.74812e-09
-3.01055e-09
2.54586e-09
-2.89606e-09
2.33362e-09
-2.75841e-09
2.11148e-09
-2.59744e-09
1.88277e-09
-2.40826e-09
1.65638e-09
-2.17678e-09
1.43462e-09
-1.92982e-09
1.2345e-09
-1.63602e-09
1.0699e-09
-1.32762e-09
9.72344e-10
-9.81006e-10
9.85165e-10
-5.98452e-10
1.14067e-09
-1.78144e-10
1.44885e-09
3.04608e-10
1.87265e-09
8.87374e-10
2.30576e-09
1.4694e-09
2.68356e-09
2.01184e-09
2.97548e-09
2.43862e-09
3.1922e-09
2.77733e-09
3.3494e-09
3.00204e-09
3.46869e-09
3.16225e-09
3.56642e-09
3.27838e-09
3.65168e-09
3.35727e-09
3.72955e-09
3.40943e-09
3.80346e-09
3.44252e-09
3.87524e-09
3.46016e-09
3.94631e-09
3.46309e-09
4.01739e-09
3.45245e-09
4.08883e-09
3.4261e-09
4.16205e-09
3.38308e-09
4.23677e-09
3.32615e-09
4.3139e-09
3.24899e-09
4.39384e-09
3.14991e-09
4.47451e-09
3.0061e-09
4.55745e-09
2.839e-09
4.64063e-09
2.63358e-09
4.71814e-09
2.32791e-09
4.78913e-09
1.99554e-09
4.84008e-09
1.51707e-09
4.86656e-09
9.68461e-10
4.85907e-09
3.52477e-10
4.81755e-09
-3.21347e-10
4.74948e-09
-9.61273e-10
4.67594e-09
-1.49165e-09
4.60949e-09
-1.95546e-09
4.5602e-09
-2.34425e-09
4.52625e-09
-2.66047e-09
4.50084e-09
-2.91052e-09
4.47246e-09
-3.11984e-09
4.43243e-09
-3.25169e-09
4.37178e-09
-3.33334e-09
4.28345e-09
-3.36851e-09
4.16309e-09
-3.36542e-09
4.00807e-09
-3.32249e-09
3.80752e-09
-3.21602e-09
3.56208e-09
-3.07394e-09
3.28593e-09
-2.9217e-09
3.00151e-09
-2.73125e-09
2.77088e-09
-2.24468e-09
2.56026e-09
-1.95679e-09
2.36274e-09
-1.71141e-09
2.18757e-09
-1.4237e-09
2.04739e-09
-1.13725e-09
1.95264e-09
-8.19202e-10
1.9139e-09
-4.92911e-10
1.91912e-09
-2.60105e-10
1.9312e-09
-1.76122e-10
1.94172e-09
-1.15206e-10
1.94805e-09
-6.98556e-11
1.9499e-09
-3.92183e-11
1.94822e-09
-2.06527e-11
1.94425e-09
-1.04654e-11
1.93895e-09
-5.29761e-12
1.9328e-09
-2.6067e-12
1.92587e-09
-6.65817e-13
1.91786e-09
1.64514e-12
1.90833e-09
4.96765e-12
1.89666e-09
9.64827e-12
1.88211e-09
1.59133e-11
1.86379e-09
2.40027e-11
1.84068e-09
3.42174e-11
1.81154e-09
4.69486e-11
1.77477e-09
6.26857e-11
1.72855e-09
8.20951e-11
1.67056e-09
1.06053e-10
1.59787e-09
1.35869e-10
1.5066e-09
1.73752e-10
1.39122e-09
2.23823e-10
1.24339e-09
2.94308e-10
1.04996e-09
4.02018e-10
7.91349e-10
5.79981e-10
4.47843e-10
8.83402e-10
4.54146e-11
1.35922e-09
-2.00939e-10
1.85282e-09
1.53207e-09
-1.78563e-10
-5.71633e-10
-2.89743e-10
-9.18077e-10
-2.92761e-10
-9.39322e-10
-2.33878e-10
-8.56838e-10
-1.42461e-10
-7.5276e-10
-3.43282e-11
-6.53081e-10
7.98149e-11
-5.66497e-10
1.92922e-10
-4.94206e-10
3.01417e-10
-4.34589e-10
4.03749e-10
-3.85386e-10
4.99416e-10
-3.44563e-10
5.88472e-10
-3.10469e-10
6.71265e-10
-2.81797e-10
7.48279e-10
-2.57542e-10
8.20048e-10
-2.36944e-10
8.87121e-10
-2.19438e-10
9.50041e-10
-2.0461e-10
1.00935e-09
-1.92174e-10
1.06558e-09
-1.81951e-10
1.11928e-09
-1.73857e-10
1.17104e-09
-1.67903e-10
1.22149e-09
-1.6419e-10
1.27131e-09
-1.62922e-10
1.32132e-09
-1.64419e-10
1.37243e-09
-1.69138e-10
1.42572e-09
-1.77711e-10
1.48249e-09
-1.90998e-10
1.54424e-09
-2.10158e-10
1.61276e-09
-2.36786e-10
1.69009e-09
-2.72948e-10
1.77167e-09
-3.41606e-10
1.82175e-09
-5.41017e-10
1.82858e-09
-8.12085e-10
1.79978e-09
-1.09984e-09
1.7451e-09
-1.38605e-09
1.67523e-09
-1.70305e-09
1.59327e-09
-2.0281e-09
1.48669e-09
-2.3502e-09
1.37346e-09
-2.60299e-09
1.27137e-09
-2.80934e-09
1.18004e-09
-2.9865e-09
1.09756e-09
-3.134e-09
1.02166e-09
-3.24238e-09
9.50089e-10
-3.31624e-09
8.80085e-10
-3.35632e-09
8.08555e-10
-3.36196e-09
7.31874e-10
-3.3351e-09
6.46476e-10
-3.27258e-09
5.50256e-10
-3.17543e-09
4.41867e-10
-3.04532e-09
3.21954e-10
-2.88766e-09
1.92135e-10
-2.71103e-09
5.53216e-11
-2.50913e-09
-8.15189e-11
-2.30121e-09
-2.10254e-10
-2.08433e-09
-3.16812e-10
-1.86861e-09
-3.84344e-10
-1.64468e-09
-3.87653e-10
-1.41058e-09
-2.92683e-10
-1.14018e-09
-5.85265e-11
-8.08225e-10
3.38731e-10
-3.84227e-10
8.92732e-10
1.5855e-10
1.51268e-09
7.61256e-10
2.11264e-09
1.37473e-09
2.62743e-09
1.90955e-09
3.03782e-09
2.35165e-09
3.34978e-09
2.69038e-09
3.58253e-09
2.92937e-09
3.75878e-09
3.0967e-09
3.89658e-09
3.21453e-09
4.01013e-09
3.29367e-09
4.1075e-09
3.34469e-09
4.19397e-09
3.37377e-09
4.27299e-09
3.3849e-09
4.34655e-09
3.38067e-09
4.41596e-09
3.36103e-09
4.48193e-09
3.32593e-09
4.54435e-09
3.26591e-09
4.60387e-09
3.19002e-09
4.66e-09
3.09273e-09
4.71294e-09
2.96204e-09
4.75811e-09
2.77392e-09
4.79667e-09
2.56035e-09
4.82159e-09
2.25259e-09
4.83115e-09
1.89261e-09
4.81337e-09
1.38355e-09
4.76867e-09
8.22118e-10
4.69533e-09
2.04584e-10
4.60196e-09
-4.52127e-10
4.50157e-09
-1.04416e-09
4.41274e-09
-1.54077e-09
4.34017e-09
-1.99836e-09
4.28673e-09
-2.35621e-09
4.24328e-09
-2.68034e-09
4.20218e-09
-2.91579e-09
4.15246e-09
-3.09183e-09
4.0864e-09
-3.21792e-09
3.99964e-09
-3.27642e-09
3.89157e-09
-3.2943e-09
3.76374e-09
-3.27953e-09
3.62005e-09
-3.24289e-09
3.46454e-09
-3.19408e-09
3.30026e-09
-3.1365e-09
3.12891e-09
-3.07249e-09
2.95052e-09
-2.99981e-09
2.76434e-09
-2.91564e-09
2.56971e-09
-2.81592e-09
2.36657e-09
-2.69291e-09
2.15642e-09
-2.54827e-09
1.94033e-09
-2.38135e-09
1.7211e-09
-2.18902e-09
1.50527e-09
-1.96096e-09
1.29435e-09
-1.71889e-09
1.09797e-09
-1.43964e-09
9.24099e-10
-1.15375e-09
7.90632e-10
-8.4754e-10
7.2504e-10
-5.3286e-10
7.5727e-10
-2.10374e-10
9.18307e-10
1.43574e-10
1.22483e-09
5.80856e-10
1.6252e-09
1.06903e-09
2.05165e-09
1.5854e-09
2.43968e-09
2.05059e-09
2.76415e-09
2.45285e-09
3.01701e-09
2.74918e-09
3.21112e-09
2.96815e-09
3.3633e-09
3.12619e-09
3.48669e-09
3.23388e-09
3.59097e-09
3.30516e-09
3.68325e-09
3.35024e-09
3.76789e-09
3.37552e-09
3.8479e-09
3.38308e-09
3.92504e-09
3.3753e-09
4.00023e-09
3.3509e-09
4.07524e-09
3.30807e-09
4.1501e-09
3.2513e-09
4.22579e-09
3.1733e-09
4.30275e-09
3.07297e-09
4.37865e-09
2.93021e-09
4.45506e-09
2.7626e-09
4.52989e-09
2.55875e-09
4.59684e-09
2.26096e-09
4.65563e-09
1.93675e-09
4.69346e-09
1.47923e-09
4.70854e-09
9.5338e-10
4.69602e-09
3.64997e-10
4.66054e-09
-2.85864e-10
4.61266e-09
-9.13387e-10
4.57115e-09
-1.45014e-09
4.54203e-09
-1.92634e-09
4.52649e-09
-2.32871e-09
4.51548e-09
-2.64946e-09
4.49908e-09
-2.89412e-09
4.4635e-09
-3.08426e-09
4.40123e-09
-3.18941e-09
4.30814e-09
-3.24026e-09
4.18113e-09
-3.2415e-09
4.02061e-09
-3.2049e-09
3.82856e-09
-3.13043e-09
3.60105e-09
-2.9885e-09
3.34507e-09
-2.81796e-09
3.07771e-09
-2.65434e-09
2.81863e-09
-2.47217e-09
2.60575e-09
-2.0318e-09
2.41127e-09
-1.7623e-09
2.23018e-09
-1.53032e-09
2.06893e-09
-1.26244e-09
1.93649e-09
-1.00481e-09
1.83766e-09
-7.20364e-10
1.77691e-09
-4.32163e-10
1.7469e-09
-2.30094e-10
1.72725e-09
-1.56472e-10
1.71248e-09
-1.00441e-10
1.69993e-09
-5.73001e-11
1.68789e-09
-2.71841e-11
1.67557e-09
-8.33127e-12
1.66277e-09
2.33279e-12
1.6495e-09
7.97197e-12
1.6357e-09
1.11941e-11
1.62119e-09
1.38431e-11
1.60563e-09
1.72063e-11
1.58855e-09
2.20531e-11
1.56931e-09
2.88852e-11
1.54712e-09
3.81077e-11
1.52095e-09
5.01654e-11
1.48957e-09
6.56059e-11
1.4514e-09
8.51142e-11
1.40455e-09
1.09534e-10
1.34671e-09
1.39935e-10
1.27505e-09
1.77713e-10
1.18607e-09
2.24854e-10
1.07534e-09
2.84482e-10
9.37192e-10
3.61967e-10
7.64441e-10
4.6706e-10
5.48997e-10
6.17462e-10
2.86418e-10
8.4256e-10
-7.88424e-12
1.1777e-09
-2.52517e-10
1.60386e-09
-2.58712e-10
1.85901e-09
1.27336e-09
-1.28241e-10
-4.43392e-10
-2.45963e-10
-8.00354e-10
-2.98708e-10
-8.86577e-10
-2.96529e-10
-8.59018e-10
-2.57732e-10
-7.91556e-10
-1.95502e-10
-7.15312e-10
-1.1945e-10
-6.42548e-10
-3.67752e-11
-5.76881e-10
4.78221e-11
-5.19187e-10
1.31491e-10
-4.69055e-10
2.12595e-10
-4.25667e-10
2.90258e-10
-3.88133e-10
3.6409e-10
-3.55628e-10
4.33997e-10
-3.2745e-10
5.00076e-10
-3.03023e-10
5.62535e-10
-2.81896e-10
6.21655e-10
-2.6373e-10
6.77773e-10
-2.48291e-10
7.31266e-10
-2.35444e-10
7.82557e-10
-2.25149e-10
8.32122e-10
-2.17467e-10
8.80497e-10
-2.12565e-10
9.28301e-10
-2.10727e-10
9.76254e-10
-2.12371e-10
1.0252e-09
-2.1808e-10
1.07612e-09
-2.28632e-10
1.13017e-09
-2.4505e-10
1.18868e-09
-2.68671e-10
1.25314e-09
-3.01243e-10
1.32514e-09
-3.44951e-10
1.40134e-09
-4.17808e-10
1.45534e-09
-5.95017e-10
1.47757e-09
-8.34309e-10
1.47286e-09
-1.09513e-09
1.448e-09
-1.36119e-09
1.40962e-09
-1.66467e-09
1.35936e-09
-1.97784e-09
1.28854e-09
-2.27938e-09
1.211e-09
-2.52546e-09
1.13897e-09
-2.73731e-09
1.07187e-09
-2.9194e-09
1.00808e-09
-3.07021e-09
9.46443e-10
-3.18074e-09
8.85469e-10
-3.25526e-09
8.22886e-10
-3.29374e-09
7.56042e-10
-3.29512e-09
6.82005e-10
-3.26106e-09
5.98351e-10
-3.18892e-09
5.03833e-10
-3.08092e-09
3.98233e-10
-2.93972e-09
2.82771e-10
-2.7722e-09
1.59321e-10
-2.58758e-09
3.15386e-11
-2.38134e-09
-9.55303e-11
-2.17414e-09
-2.16223e-10
-1.96364e-09
-3.22962e-10
-1.76187e-09
-4.06538e-10
-1.5611e-09
-4.51631e-10
-1.36549e-09
-4.39521e-10
-1.15229e-09
-3.41594e-10
-9.0615e-10
-1.24007e-10
-6.01816e-10
2.43184e-10
-2.08649e-10
7.35201e-10
2.69228e-10
1.30092e-09
8.08997e-10
1.86318e-09
1.34728e-09
2.37292e-09
1.84192e-09
2.80097e-09
2.26237e-09
3.14338e-09
2.58701e-09
3.41089e-09
2.82924e-09
3.61878e-09
3.00666e-09
3.78348e-09
3.12896e-09
3.91733e-09
3.2108e-09
4.02964e-09
3.26142e-09
4.12699e-09
3.28752e-09
4.21361e-09
3.29404e-09
4.29227e-09
3.28238e-09
4.36458e-09
3.25365e-09
4.43092e-09
3.19958e-09
4.49239e-09
3.12857e-09
4.54879e-09
3.03633e-09
4.60038e-09
2.91045e-09
4.64272e-09
2.73158e-09
4.67723e-09
2.52583e-09
4.69722e-09
2.2326e-09
4.70184e-09
1.88799e-09
4.68081e-09
1.40457e-09
4.63709e-09
8.65848e-10
4.57203e-09
2.69639e-10
4.49617e-09
-3.76263e-10
4.42137e-09
-9.69357e-10
4.36147e-09
-1.48088e-09
4.31526e-09
-1.95215e-09
4.28002e-09
-2.32097e-09
4.24361e-09
-2.64393e-09
4.19685e-09
-2.86903e-09
4.13052e-09
-3.02549e-09
4.04069e-09
-3.1281e-09
3.92678e-09
-3.16252e-09
3.79196e-09
-3.15947e-09
3.64088e-09
-3.12845e-09
3.47888e-09
-3.08088e-09
3.3102e-09
-3.0254e-09
3.13713e-09
-2.96343e-09
2.96019e-09
-2.89555e-09
2.77847e-09
-2.8181e-09
2.59101e-09
-2.72817e-09
2.39746e-09
-2.62237e-09
2.19836e-09
-2.49381e-09
1.9956e-09
-2.34551e-09
1.79051e-09
-2.17626e-09
1.58557e-09
-1.98408e-09
1.38494e-09
-1.76033e-09
1.18981e-09
-1.52376e-09
1.00626e-09
-1.2561e-09
8.39111e-10
-9.86598e-10
6.9858e-10
-7.07009e-10
6.00429e-10
-4.3471e-10
5.64441e-10
-1.74385e-10
6.17418e-10
9.0599e-11
7.91189e-10
4.07088e-10
1.08177e-09
7.78451e-10
1.4555e-09
1.21167e-09
1.85402e-09
1.65207e-09
2.2335e-09
2.07337e-09
2.5615e-09
2.42119e-09
2.83125e-09
2.69843e-09
3.04897e-09
2.90849e-09
3.22451e-09
3.05835e-09
3.36824e-09
3.16144e-09
3.48958e-09
3.22891e-09
3.59542e-09
3.26967e-09
3.69075e-09
3.28774e-09
3.77884e-09
3.28721e-09
3.86162e-09
3.26813e-09
3.94139e-09
3.2283e-09
4.01877e-09
3.17392e-09
4.09499e-09
3.09709e-09
4.17064e-09
2.99732e-09
4.24353e-09
2.85732e-09
4.31536e-09
2.69078e-09
4.38437e-09
2.48973e-09
4.44465e-09
2.20068e-09
4.49701e-09
1.88439e-09
4.53072e-09
1.44552e-09
4.54699e-09
9.37112e-10
4.54481e-09
3.67178e-10
4.53133e-09
-2.72385e-10
4.51585e-09
-8.9791e-10
4.51087e-09
-1.44516e-09
4.51428e-09
-1.92976e-09
4.51982e-09
-2.33424e-09
4.51471e-09
-2.64436e-09
4.48719e-09
-2.8666e-09
4.42644e-09
-3.02352e-09
4.33041e-09
-3.09339e-09
4.19871e-09
-3.10856e-09
4.03378e-09
-3.07657e-09
3.84049e-09
-3.01162e-09
3.62496e-09
-2.9149e-09
3.38771e-09
-2.75125e-09
3.13725e-09
-2.5675e-09
2.88847e-09
-2.40556e-09
2.65294e-09
-2.23663e-09
2.45873e-09
-1.83759e-09
2.28219e-09
-1.58577e-09
2.11966e-09
-1.36779e-09
1.97596e-09
-1.11874e-09
1.85801e-09
-8.86869e-10
1.76807e-09
-6.30425e-10
1.70728e-09
-3.71367e-10
1.66837e-09
-1.91184e-10
1.6376e-09
-1.25701e-10
1.61187e-09
-7.47142e-11
1.58936e-09
-3.47872e-11
1.56847e-09
-6.2945e-12
1.54805e-09
1.20881e-11
1.52746e-09
2.29222e-11
1.5064e-09
2.90274e-11
1.48475e-09
3.28508e-11
1.46233e-09
3.62569e-11
1.43896e-09
4.058e-11
1.41427e-09
4.67395e-11
1.38772e-09
5.54363e-11
1.35851e-09
6.73216e-11
1.32555e-09
8.31192e-11
1.28747e-09
1.03687e-10
1.24253e-09
1.30052e-10
1.18863e-09
1.63443e-10
1.12319e-09
2.05366e-10
1.04317e-09
2.57734e-10
9.44884e-10
3.23144e-10
8.23955e-10
4.05411e-10
6.75421e-10
5.10501e-10
4.94479e-10
6.48002e-10
2.7925e-10
8.32691e-10
3.85652e-11
1.08325e-09
-1.89849e-10
1.40612e-09
-3.10012e-10
1.72402e-09
-2.24565e-10
1.77357e-09
1.04879e-09
-8.85058e-11
-3.54886e-10
-1.9072e-10
-6.9814e-10
-2.57426e-10
-8.19872e-10
-2.84086e-10
-8.32357e-10
-2.77955e-10
-7.97687e-10
-2.4765e-10
-7.45617e-10
-2.01454e-10
-6.88744e-10
-1.45316e-10
-6.33018e-10
-8.36785e-11
-5.80825e-10
-1.96454e-11
-5.33088e-10
4.47021e-11
-4.90015e-10
1.08031e-10
-4.51462e-10
1.69536e-10
-4.17133e-10
2.28767e-10
-3.86681e-10
2.85523e-10
-3.59778e-10
3.39769e-10
-3.36142e-10
3.91591e-10
-3.15553e-10
4.41168e-10
-2.97868e-10
4.88748e-10
-2.83024e-10
5.3465e-10
-2.71051e-10
5.7926e-10
-2.62078e-10
6.23043e-10
-2.56348e-10
6.66552e-10
-2.54236e-10
7.10446e-10
-2.56265e-10
7.55503e-10
-2.63137e-10
8.02639e-10
-2.75768e-10
8.52913e-10
-2.95324e-10
9.07525e-10
-3.23283e-10
9.6778e-10
-3.61498e-10
1.03502e-09
-4.12193e-10
1.10679e-09
-4.89576e-10
1.16336e-09
-6.51589e-10
1.1974e-09
-8.68347e-10
1.21195e-09
-1.10969e-09
1.21108e-09
-1.36032e-09
1.19797e-09
-1.65156e-09
1.17287e-09
-1.95274e-09
1.12945e-09
-2.23596e-09
1.07838e-09
-2.47439e-09
1.02849e-09
-2.68741e-09
9.79486e-10
-2.8704e-09
9.30052e-10
-3.02078e-09
8.7976e-10
-3.13045e-09
8.2759e-10
-3.2031e-09
7.71514e-10
-3.23766e-09
7.0926e-10
-3.23286e-09
6.38524e-10
-3.19033e-09
5.57751e-10
-3.10815e-09
4.66474e-10
-2.98964e-09
3.65319e-10
-2.83856e-09
2.56036e-10
-2.66292e-09
1.40837e-10
-2.47238e-09
2.35985e-11
-2.2641e-09
-9.18511e-11
-2.05869e-09
-2.01419e-10
-1.85407e-09
-3.00885e-10
-1.6624e-09
-3.84964e-10
-1.47702e-09
-4.46226e-10
-1.30422e-09
-4.72311e-10
-1.1262e-09
-4.4584e-10
-9.32621e-10
-3.43413e-10
-7.04246e-10
-1.32466e-10
-4.19605e-10
1.97937e-10
-6.11825e-11
6.39156e-10
3.6776e-10
1.14374e-09
8.427e-10
1.6621e-09
1.32357e-09
2.14919e-09
1.77531e-09
2.57358e-09
2.16264e-09
2.92919e-09
2.47365e-09
3.21752e-09
2.71831e-09
3.4493e-09
2.89715e-09
3.63592e-09
3.02415e-09
3.78823e-09
3.1091e-09
3.9153e-09
3.16045e-09
4.02384e-09
3.1855e-09
4.11861e-09
3.18762e-09
4.20269e-09
3.16958e-09
4.27743e-09
3.12485e-09
4.34465e-09
3.06135e-09
4.40475e-09
2.97624e-09
4.45827e-09
2.85692e-09
4.50127e-09
2.68856e-09
4.53568e-09
2.49142e-09
4.55564e-09
2.21263e-09
4.56153e-09
1.88209e-09
4.54531e-09
1.42079e-09
4.51206e-09
8.99103e-10
4.46501e-09
3.16687e-10
4.41431e-09
-3.25555e-10
4.36815e-09
-9.23199e-10
4.33449e-09
-1.44722e-09
4.3066e-09
-1.92425e-09
4.27798e-09
-2.29236e-09
4.23509e-09
-2.60105e-09
4.1707e-09
-2.80463e-09
4.07956e-09
-2.93434e-09
3.96132e-09
-3.00985e-09
3.81974e-09
-3.02093e-09
3.66126e-09
-3.00099e-09
3.49235e-09
-2.95954e-09
3.31837e-09
-2.90691e-09
3.14254e-09
-2.84957e-09
2.96575e-09
-2.78665e-09
2.78736e-09
-2.71716e-09
2.60604e-09
-2.63678e-09
2.421e-09
-2.54313e-09
2.23243e-09
-2.4338e-09
2.04129e-09
-2.30267e-09
1.84944e-09
-2.15366e-09
1.65793e-09
-1.98475e-09
1.46853e-09
-1.79468e-09
1.28398e-09
-1.57578e-09
1.10518e-09
-1.34496e-09
9.36678e-10
-1.0876e-09
7.81986e-10
-8.31906e-10
6.47519e-10
-5.72542e-10
5.4217e-10
-3.2936e-10
4.76747e-10
-1.08963e-10
4.68654e-10
9.86933e-11
5.44851e-10
3.3089e-10
7.21346e-10
6.01953e-10
9.95934e-10
9.37079e-10
1.3366e-09
1.31139e-09
1.70549e-09
1.70449e-09
2.06105e-09
2.06562e-09
2.37992e-09
2.37956e-09
2.65346e-09
2.63495e-09
2.88209e-09
2.82972e-09
3.07137e-09
2.97216e-09
3.22942e-09
3.07086e-09
3.36381e-09
3.13528e-09
3.48084e-09
3.17071e-09
3.58516e-09
3.18288e-09
3.67987e-09
3.17341e-09
3.76804e-09
3.14014e-09
3.85108e-09
3.09089e-09
3.93061e-09
3.01757e-09
4.00764e-09
2.9203e-09
4.08042e-09
2.78454e-09
4.15098e-09
2.62022e-09
4.21831e-09
2.42238e-09
4.27759e-09
2.14141e-09
4.33109e-09
1.83089e-09
4.37086e-09
1.40575e-09
4.40071e-09
9.07266e-10
4.42174e-09
3.46146e-10
4.4404e-09
-2.91051e-10
4.46089e-09
-9.18391e-10
4.4875e-09
-1.47177e-09
4.51071e-09
-1.95297e-09
4.52007e-09
-2.34359e-09
4.50073e-09
-2.62502e-09
4.44509e-09
-2.81095e-09
4.34844e-09
-2.92688e-09
4.21318e-09
-2.95812e-09
4.04446e-09
-2.93984e-09
3.84925e-09
-2.88137e-09
3.63539e-09
-2.79776e-09
3.41072e-09
-2.69024e-09
3.17704e-09
-2.51756e-09
2.9411e-09
-2.33156e-09
2.71322e-09
-2.17767e-09
2.4992e-09
-2.0226e-09
2.32281e-09
-1.6612e-09
2.16355e-09
-1.4265e-09
2.01845e-09
-1.2227e-09
1.89131e-09
-9.91596e-10
1.78776e-09
-7.83317e-10
1.70903e-09
-5.51692e-10
1.65488e-09
-3.17222e-10
1.61765e-09
-1.53951e-10
1.58573e-09
-9.37824e-11
1.55709e-09
-4.60666e-11
1.53038e-09
-8.08624e-12
1.50437e-09
1.97236e-11
1.47805e-09
3.84028e-11
1.45091e-09
5.00623e-11
1.42279e-09
5.71458e-11
1.39375e-09
6.1896e-11
1.36387e-09
6.61347e-11
1.33318e-09
7.12698e-11
1.30151e-09
7.84111e-11
1.26842e-09
8.85258e-11
1.23316e-09
1.02579e-10
1.19465e-09
1.21631e-10
1.15145e-09
1.46883e-10
1.10179e-09
1.79719e-10
1.04349e-09
2.21743e-10
9.73989e-10
2.74864e-10
8.90284e-10
3.41438e-10
7.88908e-10