/*--------------------------------*- C++ -*----------------------------------*\
| =========                 |                                                 |
| \\      /  F ield         | OpenFOAM: The Open Source CFD Toolbox           |
|  \\    /   O peration     | Version:  2506                                  |
|   \\  /    A nd           | Website:  www.openfoam.com                      |
|    \\/     M anipulation  |                                                 |
\*---------------------------------------------------------------------------*/
FoamFile
{
    version     2.0;
    format      ascii;
    arch        "LSB;label=32;scalar=64";
    class       volScalarField;
    location    "2.15";
    object      s;
}
// * * * * * * * * * * * * * * * * * * * * * * * * * * * * * * * * * * * * * //

dimensions      [0 0 0 0 0 0 0];

internalField   nonuniform List<scalar> 
4000
(
6.01851e-12
6.8588e-12
9.02501e-12
1.22942e-11
1.67538e-11
2.26781e-11
3.04681e-11
4.07167e-11
5.43069e-11
7.25113e-11
9.71182e-11
1.30597e-10
1.76291e-10
2.38628e-10
3.23342e-10
4.37731e-10
5.91038e-10
7.95035e-10
1.065e-09
1.42121e-09
1.89126e-09
2.51318e-09
3.33979e-09
4.44412e-09
5.92585e-09
7.91882e-09
1.0597e-08
1.4189e-08
1.89609e-08
2.52973e-08
3.34711e-08
4.54114e-08
6.39971e-08
9.30451e-08
1.3899e-07
2.12628e-07
3.21589e-07
4.94454e-07
7.91857e-07
1.26746e-06
2.04552e-06
3.32643e-06
5.50768e-06
9.34904e-06
1.61851e-05
2.84131e-05
4.93317e-05
8.33063e-05
0.000134523
0.000206839
0.000312224
0.000451666
0.000649346
0.000779845
0.000779917
0.000701975
0.000601365
0.000499067
0.000424639
0.00032273
0.000187332
7.26018e-05
1.62525e-05
3.62064e-06
1.04649e-06
3.22243e-07
7.66095e-08
1.47664e-08
4.11246e-09
8.32636e-10
-3.97852e-10
-4.07933e-10
-3.31304e-10
-2.78241e-10
-2.13341e-10
-1.53474e-10
-1.05321e-10
-6.97794e-11
-4.48721e-11
-2.81424e-11
-1.72974e-11
-1.05374e-11
-6.36966e-12
-3.90065e-12
-2.45658e-12
-1.69155e-12
-1.39167e-12
-1.88907e-12
-6.63354e-12
-3.28529e-11
-9.38912e-11
-3.26483e-10
-2.88443e-09
-2.7709e-08
-1.16706e-07
-4.03243e-07
-1.12581e-06
-4.76357e-06
-9.19084e-06
-3.58143e-05
-0.00014394
-0.000564969
-0.000591054
0.00845212
0.00529738
-0.0560267
-0.282075
-0.775208
-1.46063
-2.14944
-2.93897
-3.46115
-3.69912
-3.64937
-3.44846
-3.12679
-2.75238
-2.24169
-1.45838
-0.66113
-0.180178
-0.0310643
-0.00600379
-0.0013622
2.3236e-06
0.000138227
7.78425e-05
3.61998e-05
1.4164e-05
5.34335e-06
2.11938e-06
8.65548e-07
3.55855e-07
1.42787e-07
5.42763e-08
1.90685e-08
5.94941e-09
1.40889e-09
-1.68782e-11
-3.43637e-10
-3.30365e-10
-2.46507e-10
-1.66861e-10
-1.11949e-10
-7.82758e-11
-5.98376e-11
-5.10264e-11
-1.08018e-10
-1.22808e-09
-5.42805e-09
-4.13241e-11
1.09257e-07
3.50992e-07
3.29186e-06
6.04607e-06
-5.1513e-06
-4.22937e-05
-5.32273e-05
-1.65211e-05
5.94628e-05
2.06644e-05
-0.00228182
0.0246004
0.104532
0.276
0.494136
0.746401
0.862382
0.841324
0.759212
0.655345
0.560653
0.474743
0.374868
0.228524
0.0291357
-0.241545
-0.558415
-0.759031
-0.860642
-0.912924
-0.929371
-0.917498
-0.881676
-0.824909
-0.750735
-0.662954
-0.563595
-0.442956
-0.273742
-0.083698
0.126322
0.369052
0.663591
1.03799
1.53363
2.18295
2.65353
3.15257
2.2628
9.26249e-16
1.45901e-15
4.04491e-15
8.28444e-15
1.60922e-14
2.99979e-14
5.38219e-14
9.35649e-14
1.58756e-13
2.64229e-13
4.32718e-13
6.98789e-13
1.11474e-12
1.75936e-12
2.75082e-12
4.26551e-12
6.56543e-12
1.00376e-11
1.52489e-11
2.30333e-11
3.46631e-11
5.21634e-11
7.87828e-11
1.19605e-10
1.82298e-10
2.77985e-10
4.22196e-10
6.35844e-10
9.4503e-10
1.38632e-09
1.95176e-09
2.14128e-09
1.76444e-09
1.15715e-09
6.37166e-10
3.02336e-10
1.27959e-10
5.34492e-11
3.20006e-11
3.48047e-11
5.20473e-11
8.50988e-11
1.43739e-10
2.49294e-10
4.40941e-10
7.86654e-10
1.38074e-09
2.34754e-09
3.82047e-09
5.96436e-09
9.18535e-09
1.36544e-08
1.98259e-08
2.43886e-08
2.67562e-08
2.71549e-08
2.99768e-08
8.9826e-08
1.55438e-06
0.000144925
0.000275469
0.00022837
0.000123342
4.55978e-05
9.58233e-06
1.36582e-06
2.74719e-07
6.50653e-08
6.49346e-09
-9.88427e-09
-1.09506e-08
-9.01223e-09
-6.70277e-09
-4.44239e-09
-2.85956e-09
-1.80439e-09
-1.12168e-09
-6.89408e-10
-4.18908e-10
-2.51835e-10
-1.50183e-10
-8.97717e-11
-5.39287e-11
-3.33086e-11
-2.16418e-11
-1.59564e-11
-1.48378e-11
-2.18641e-11
-5.39056e-11
-1.60174e-10
-3.15001e-10
-3.21117e-10
-4.25201e-09
-4.13457e-08
-1.50576e-07
-5.16535e-07
-2.23278e-06
-5.19169e-06
-1.69982e-05
-0.000110486
-0.000249528
-0.00017287
-0.000119512
-0.000858409
-0.0532994
-0.197456
-0.391581
-0.532014
-0.596185
-0.588453
-0.528791
-0.455723
-0.390697
-0.342345
-0.315458
-0.300839
-0.294577
-0.554259
-1.35252
-1.33362
-0.871969
-0.357104
-0.0853856
-0.00790406
-0.000955161
0.000432643
0.000372984
0.000171934
7.30288e-05
2.84918e-05
1.14598e-05
4.68896e-06
1.88082e-06
7.21809e-07
2.68687e-07
9.61575e-08
3.03963e-08
7.92524e-09
9.40883e-10
-7.50254e-10
-8.96729e-10
-7.00858e-10
-4.90625e-10
-3.42111e-10
-2.44264e-10
-1.49135e-10
-4.83912e-11
-2.02398e-10
-5.08596e-09
-2.36328e-08
-4.02283e-08
-7.03434e-08
4.1856e-08
-7.0955e-07
-1.83906e-05
-5.58407e-05
-7.11356e-05
-2.97239e-05
1.61796e-05
-4.34005e-05
-0.00014464
0.0204428
0.0961543
0.187937
0.269459
0.295495
0.278521
0.233129
0.172979
0.116029
0.0695643
0.0231907
-0.0305711
-0.10523
-0.205019
-0.324669
-0.450401
-0.562041
-0.639806
-0.670534
-0.651082
-0.58792
-0.486104
-0.35816
-0.278287
-0.226486
-0.158345
-0.0784647
0.000387846
0.0749314
0.130367
0.173304
0.218322
0.283737
0.407961
0.653303
1.15553
2.26123
3.66041
4.18521
-3.70273e-16
-3.41326e-16
-1.78901e-16
-1.83524e-17
1.2864e-18
2.96557e-19
-8.40289e-19
2.12118e-17
1.02409e-16
2.98555e-16
6.9416e-16
1.40918e-15
2.60584e-15
4.52861e-15
7.79252e-15
1.32465e-14
2.22077e-14
3.67152e-14
5.98696e-14
9.63065e-14
1.52824e-13
2.39155e-13
3.68795e-13
5.59742e-13
8.34882e-13
1.22175e-12
1.75069e-12
2.44988e-12
3.33575e-12
4.39886e-12
5.36707e-12
5.04077e-12
3.55439e-12
1.91325e-12
7.39493e-13
9.94429e-14
-1.09283e-13
-1.16163e-13
-8.4572e-14
-5.70837e-14
-3.63757e-14
-2.13581e-14
-1.01747e-14
-7.7031e-16
-8.84949e-15
1.65321e-14
-3.91728e-13
-3.83469e-13
-3.39141e-12
-4.64831e-12
-2.05347e-11
-3.17185e-11
-9.8093e-11
-1.49814e-10
-3.39984e-10
-4.14362e-10
-3.26914e-10
8.51176e-08
1.71409e-06
9.43545e-06
0.000147667
0.000236533
0.000205455
0.000129298
5.74445e-05
1.72522e-05
2.21041e-06
-2.92844e-07
-2.93121e-07
-1.95181e-07
-1.17444e-07
-7.12579e-08
-4.31177e-08
-2.61088e-08
-1.57407e-08
-9.45046e-09
-5.66413e-09
-3.40399e-09
-2.05408e-09
-1.24684e-09
-7.64239e-10
-4.78712e-10
-3.07829e-10
-2.08596e-10
-1.52807e-10
-1.30522e-10
-1.40163e-10
-2.14989e-10
-4.58485e-10
-1.07974e-09
-1.81556e-09
-3.13851e-10
-5.51678e-09
-7.40908e-08
-2.98337e-07
-1.33033e-06
-5.37483e-06
-1.22119e-05
-8.53535e-05
-0.000263579
-0.000312958
-6.5706e-05
-0.000400469
-0.0401389
-0.177038
-0.386611
-0.591852
-0.712195
-0.710717
-0.654484
-0.539384
-0.422633
-0.333938
-0.28103
-0.252553
-0.23391
-0.236129
-0.140236
-0.61478
-1.17774
-1.19725
-0.851967
-0.389354
-0.105256
-0.00692195
0.000521072
0.000871924
0.000546534
0.000251754
0.000107362
4.07984e-05
1.437e-05
4.74074e-06
1.48227e-06
4.41064e-07
1.10376e-07
4.53616e-09
-1.86679e-08
-1.8703e-08
-1.40175e-08
-9.51469e-09
-6.19676e-09
-3.95403e-09
-2.34662e-09
-1.05141e-09
6.4144e-12
5.53533e-10
-4.14767e-10
-3.09677e-08
-1.2398e-07
-3.69178e-07
-1.07848e-06
-5.61289e-06
-3.17738e-05
-7.59964e-05
-0.000117603
-9.57937e-05
-2.2548e-05
-5.57573e-05
-0.000162231
0.0216734
0.0921244
0.203778
0.300495
0.343807
0.333455
0.281726
0.189005
0.0868232
0.00329332
-0.0573761
-0.117309
-0.190731
-0.285674
-0.402889
-0.534002
-0.661955
-0.765135
-0.82347
-0.823717
-0.77045
-0.666436
-0.528155
-0.375545
-0.224692
-0.0852563
0.0399443
0.134537
0.163893
0.16938
0.166979
0.156026
0.12478
0.0785729
0.0502242
0.0702399
0.366294
1.95667
4.0967
4.29994
5.09328e-17
4.29387e-17
7.91311e-18
2.77469e-18
3.49986e-18
6.37544e-20
-1.53334e-17
-4.83734e-17
-1.01022e-16
-1.70208e-16
-2.39517e-16
-2.81259e-16
-2.26697e-16
-7.53723e-17
-2.68829e-17
-7.49007e-18
2.48788e-18
1.32506e-17
3.81052e-17
9.44161e-17
2.06404e-16
4.08952e-16
7.38991e-16
1.21081e-15
1.71306e-15
1.4047e-15
-1.9399e-15
-1.26815e-14
-3.93199e-14
-9.68892e-14
-2.07578e-13
-3.5218e-13
-4.33423e-13
-4.30314e-13
-3.8738e-13
-3.17553e-13
-1.76319e-13
-5.62057e-14
-5.02808e-15
-8.49288e-16
-1.94181e-16
-2.61739e-17
4.15269e-17
2.06393e-16
-5.83067e-17
-2.12533e-17
-1.06683e-16
-1.1363e-17
-7.25641e-17
-1.28633e-16
-6.55295e-16
-9.89022e-16
-1.59954e-14
-1.33054e-12
-3.29182e-11
-1.49106e-10
2.32514e-10
1.00563e-07
7.15108e-07
1.76987e-06
9.05738e-06
0.000117566
0.000166447
0.000150048
0.000100829
5.18036e-05
1.92735e-05
4.58394e-06
-2.53619e-08
-7.16741e-07
-6.04349e-07
-3.59437e-07
-1.98971e-07
-1.13827e-07
-6.78824e-08
-4.14643e-08
-2.56513e-08
-1.60566e-08
-1.01753e-08
-6.54457e-09
-4.29393e-09
-2.911e-09
-2.04822e-09
-1.53419e-09
-1.2474e-09
-1.17019e-09
-1.32387e-09
-1.95401e-09
-3.65537e-09
-7.24214e-09
-1.04688e-08
2.7578e-09
2.5921e-08
-5.86063e-08
-5.69752e-07
-3.80816e-06
-1.18157e-05
-5.67424e-05
-0.000253162
-0.000378735
-0.000124932
7.07174e-05
-0.0343524
-0.165864
-0.381206
-0.601934
-0.740653
-0.753671
-0.687095
-0.551763
-0.411267
-0.302026
-0.22622
-0.17637
-0.14035
-0.11008
-0.0826594
-0.0459507
-0.0916142
-0.673342
-1.08403
-1.05234
-0.731142
-0.34004
-0.0912852
-0.00453065
0.00084464
0.000920833
0.00051048
0.000239851
0.000104671
4.09814e-05
1.40142e-05
3.9748e-06
7.40747e-07
-1.07391e-07
-1.99359e-07
-1.48196e-07
-9.86085e-08
-6.89118e-08
-4.59331e-08
-2.54393e-08
-9.69856e-09
3.63204e-10
4.47568e-09
6.7109e-09
5.84091e-09
-1.37593e-08
-1.93139e-07
-8.79151e-07
-3.28032e-06
-1.6674e-05
-5.34359e-05
-0.000113348
-0.000151688
-0.00015514
-8.84208e-05
-7.96888e-05
-0.00017728
0.0242064
0.0985038
0.209936
0.319094
0.363841
0.344268
0.263623
0.130402
-0.0208662
-0.156901
-0.255955
-0.321401
-0.381877
-0.454399
-0.547487
-0.659276
-0.776376
-0.87662
-0.934754
-0.934056
-0.877556
-0.750947
-0.578741
-0.38798
-0.202057
-0.038394
0.0910016
0.156015
0.161969
0.156346
0.137971
0.106288
0.0724544
0.0403258
0.0159398
0.00647312
0.00526685
0.0951918
1.98688
4.13865
4.22261
-5.93337e-18
-3.50998e-18
-1.30634e-18
-1.04421e-18
1.00796e-18
6.632e-18
1.56105e-17
2.6176e-17
3.57666e-17
4.16579e-17
4.06786e-17
3.2133e-17
1.79158e-17
8.08259e-18
4.72311e-18
6.36638e-19
-9.60366e-18
-3.0007e-17
-6.30642e-17
-1.08931e-16
-1.65609e-16
-2.21036e-16
-2.73723e-16
-2.93068e-16
-2.12126e-16
-1.42862e-16
-3.61e-16
-2.20423e-15
-6.83086e-15
-1.62659e-14
-3.54564e-14
-5.21139e-14
-4.60585e-14
-2.67767e-14
-1.17959e-14
-4.2372e-15
-1.17242e-15
-1.87836e-16
2.14643e-16
7.21787e-17
2.75979e-17
3.42813e-18
-6.64428e-18
-1.29117e-17
1.976e-17
4.39326e-17
4.52408e-17
5.41683e-17
4.88816e-17
5.34391e-17
1.18969e-16
1.53064e-16
-5.31748e-15
-4.9193e-13
-1.76444e-11
-8.74875e-11
1.9637e-10
5.23051e-08
5.88338e-07
1.10926e-06
-3.18969e-06
-1.14213e-05
2.41139e-05
5.49925e-05
5.91426e-05
4.06174e-05
2.20128e-05
7.3849e-06
4.76096e-07
-1.53669e-06
-1.66864e-06
-1.16892e-06
-7.18471e-07
-4.29965e-07
-2.64078e-07
-1.68266e-07
-1.10621e-07
-7.47487e-08
-5.16748e-08
-3.64551e-08
-2.62806e-08
-1.95517e-08
-1.50276e-08
-1.22072e-08
-1.06273e-08
-1.04302e-08
-1.18956e-08
-1.66947e-08
-2.80593e-08
-4.84541e-08
-6.02507e-08
-7.58097e-09
2.3883e-07
1.55792e-07
-2.07453e-06
-1.02081e-05
-3.88901e-05
-0.00021492
-0.000425558
-0.000326618
0.00018764
-0.0305097
-0.158252
-0.378158
-0.611673
-0.768647
-0.794058
-0.727008
-0.581603
-0.422576
-0.289752
-0.193275
-0.122216
-0.068991
-0.0271684
0.00647402
0.037106
0.0590085
0.119135
-0.125387
-0.663316
-0.945524
-0.86793
-0.569151
-0.257956
-0.0651815
-0.00195247
0.00101291
0.000700837
0.000322154
0.000122094
4.10481e-05
1.21869e-05
1.9625e-06
-1.0664e-06
-1.37592e-06
-9.64962e-07
-5.99852e-07
-3.54828e-07
-1.47883e-07
-3.72753e-09
5.17784e-08
6.35918e-08
6.406e-08
6.254e-08
6.59188e-08
3.93574e-08
-3.23459e-07
-1.36379e-06
-9.01342e-06
-3.61036e-05
-8.49582e-05
-0.000149044
-0.000186417
-0.000173215
-0.000149
-6.97922e-05
-0.000163169
0.0272027
0.109867
0.224406
0.332194
0.380104
0.348623
0.243556
0.0744003
-0.113332
-0.290225
-0.435148
-0.538016
-0.607359
-0.670057
-0.740213
-0.821642
-0.907316
-0.981156
-1.01844
-1.00947
-0.951817
-0.818049
-0.62937
-0.413979
-0.20104
-0.0166827
0.115063
0.153736
0.150854
0.133805
0.0987574
0.060732
0.0308873
0.0131491
0.00503446
0.00183271
0.000615402
0.00145181
0.0739224
1.82609
3.97804
3.69207
-4.54937e-19
5.13984e-19
2.57728e-19
-4.66743e-19
-2.09886e-18
-4.31826e-18
-6.35828e-18
-7.60998e-18
-7.77836e-18
-6.96657e-18
-5.37717e-18
-3.47271e-18
-1.49914e-18
7.71831e-19
4.43196e-18
1.02471e-17
1.81086e-17
2.71242e-17
3.5808e-17
4.25053e-17
4.58561e-17
4.29987e-17
2.9224e-17
5.35794e-18
-9.12478e-18
1.70715e-17
4.53847e-17
-6.47131e-17
-4.56479e-16
-9.1266e-16
-1.19377e-15
-8.42734e-16
-3.20331e-16
-4.55039e-17
6.07101e-17
1.53236e-16
2.91566e-16
1.52401e-16
2.99266e-17
-1.66342e-17
-1.01361e-17
-1.31797e-18
1.44547e-18
-1.39601e-19
-5.29917e-18
-1.12324e-17
-2.07007e-17
-3.39003e-17
-4.58526e-17
-3.72281e-17
-5.28745e-17
-4.66342e-17
-4.91579e-16
-2.41275e-14
-4.65933e-13
-1.63178e-11
-9.93179e-11
2.63608e-10
5.70796e-08
6.28062e-07
1.5262e-06
-1.25422e-05
-6.60508e-05
-9.07353e-05
-8.16133e-05
-5.41563e-05
-3.16008e-05
-1.96345e-05
-1.34969e-05
-9.45213e-06
-6.3997e-06
-4.25209e-06
-2.77351e-06
-1.81459e-06
-1.21385e-06
-8.35668e-07
-5.9044e-07
-4.27198e-07
-3.15093e-07
-2.36312e-07
-1.80571e-07
-1.41937e-07
-1.14844e-07
-9.76721e-08
-8.82807e-08
-8.85894e-08
-1.00992e-07
-1.36664e-07
-2.12418e-07
-3.27566e-07
-3.72649e-07
-1.19039e-08
1.02915e-06
-7.03005e-07
-1.02213e-05
-3.05094e-05
-0.000191635
-0.000493347
-0.000502674
-0.000116727
-0.0281765
-0.154963
-0.380683
-0.623966
-0.794781
-0.831347
-0.764094
-0.609026
-0.431724
-0.279254
-0.165537
-0.0827475
-0.0154396
0.0407294
0.0866718
0.122212
0.150984
0.168876
0.196695
0.184911
-0.126026
-0.564689
-0.755064
-0.657959
-0.415344
-0.184084
-0.0450341
-0.000992164
0.000827607
0.000354796
4.80073e-05
-4.56811e-05
-5.36978e-05
-3.47852e-05
-1.6917e-05
-7.07316e-06
-2.87542e-06
-7.48152e-07
5.07412e-07
1.01382e-06
9.54392e-07
8.21793e-07
6.96119e-07
6.04679e-07
5.44631e-07
5.21611e-07
5.62143e-07
-2.14015e-06
-1.0875e-05
-4.71957e-05
-0.000111551
-0.000170378
-0.000208728
-0.000195526
-0.000129975
0.000157132
-7.77441e-05
0.0302078
0.124594
0.246627
0.349012
0.39361
0.34618
0.215082
0.0185395
-0.196623
-0.392013
-0.556093
-0.6856
-0.781567
-0.85252
-0.917049
-0.983011
-1.03919
-1.06212
-1.06361
-1.04919
-0.988197
-0.856888
-0.666092
-0.439429
-0.208626
-0.00797877
0.123247
0.146034
0.138003
0.108118
0.0668286
0.0311226
0.00990485
0.00283143
0.000869322
0.000203162
9.67673e-05
-6.63046e-05
0.000915236
0.0478044
1.44308
3.5863
2.0131
1.32154e-18
-7.00545e-20
1.92777e-19
6.21799e-19
1.16692e-18
1.5847e-18
1.7279e-18
1.62074e-18
1.3465e-18
9.9432e-19
5.42815e-19
-1.0594e-19
-1.11054e-18
-2.54523e-18
-4.32208e-18
-6.15634e-18
-7.68748e-18
-8.6024e-18
-8.71118e-18
-8.06426e-18
-6.56758e-18
-4.14771e-18
-1.618e-18
-3.60581e-18
8.51398e-18
1.8545e-17
3.08464e-17
7.37225e-17
1.77517e-16
2.98616e-16
3.80795e-16
4.08156e-16
3.18597e-16
1.62891e-16
4.02955e-17
-2.5696e-17
-8.13351e-17
-6.5785e-17
-2.31707e-17
-5.61876e-19
2.13041e-18
2.39039e-19
-4.90744e-19
3.29246e-19
1.09859e-18
2.19129e-18
4.67176e-18
1.02433e-17
1.7049e-17
1.30834e-17
1.31057e-17
1.26777e-17
3.77e-17
-3.97461e-15
-8.14527e-14
-1.17405e-12
-2.13861e-11
-1.32239e-10
1.63776e-09
1.20781e-07
8.86662e-07
1.7682e-06
-4.06683e-05
-0.000159488
-0.000260817
-0.00027995
-0.000218759
-0.000135775
-7.9009e-05
-4.71617e-05
-2.93718e-05
-1.90636e-05
-1.28012e-05
-8.85233e-06
-6.29073e-06
-4.58319e-06
-3.40951e-06
-2.5869e-06
-1.99446e-06
-1.55906e-06
-1.23912e-06
-1.0108e-06
-8.47141e-07
-7.44155e-07
-6.91951e-07
-7.08325e-07
-8.13606e-07
-1.08709e-06
-1.61687e-06
-2.32367e-06
-2.53656e-06
-6.77449e-07
1.3669e-07
-1.72586e-05
-5.07714e-05
-0.000174194
-0.000589081
-0.000698522
-0.000389225
-0.0279329
-0.155714
-0.390609
-0.641292
-0.819455
-0.864458
-0.796836
-0.632998
-0.440002
-0.271095
-0.146234
-0.0572636
0.0130311
0.0783183
0.137779
0.18632
0.219712
0.239804
0.247088
0.244508
0.233807
0.171461
-0.115195
-0.427452
-0.549144
-0.467791
-0.294196
-0.132343
-0.0345962
-0.00227935
0.000426259
7.08659e-05
-0.00013574
-0.000155091
-0.000128139
-7.40784e-05
-3.20349e-05
-7.64279e-06
4.4277e-06
9.23248e-06
8.73806e-06
7.51195e-06
6.37992e-06
5.49006e-06
4.96477e-06
4.72491e-06
4.73686e-06
6.24072e-06
-4.20128e-07
-3.33091e-05
-0.000100674
-0.000169091
-0.00018981
-0.000143161
-3.44176e-05
0.000179717
0.0023456
0.0375726
0.141064
0.27624
0.369221
0.404293
0.353333
0.184385
-0.0332983
-0.262181
-0.456366
-0.609252
-0.727088
-0.82089
-0.902105
-0.971294
-1.03086
-1.07296
-1.07929
-1.07299
-1.05168
-0.995409
-0.870287
-0.68219
-0.453251
-0.215233
-0.00514457
0.125227
0.139806
0.126742
0.0884622
0.0449359
0.0138422
0.0026793
0.000527875
3.48788e-05
-5.39356e-05
-4.11446e-05
-3.78056e-05
-8.95147e-05
0.000478837
0.023203
1.04167
2.76448
-0.865056
-5.12488e-19
-1.16487e-19
-2.03181e-19
-3.30814e-19
-4.21449e-19
-4.29549e-19
-3.73298e-19
-2.8992e-19
-1.89005e-19
-5.21245e-20
1.65027e-19
4.90633e-19
9.0631e-19
1.3323e-18
1.67171e-18
1.84951e-18
1.8427e-18
1.67241e-18
1.39223e-18
1.06709e-18
7.02483e-19
3.82642e-19
1.3554e-19
8.43092e-20
-1.2502e-18
-1.16155e-18
3.45591e-18
1.18871e-17
1.01082e-17
-7.18889e-18
-2.95295e-17
-5.9228e-17
-7.31322e-17
-5.49883e-17
-2.33326e-17
9.71687e-20
1.92664e-17
2.12854e-17
1.03754e-17
1.71457e-18
-5.75084e-19
-3.16138e-19
-1.50091e-20
-1.02843e-19
-2.07771e-19
-3.5699e-19
-8.25525e-19
-2.11002e-18
-4.21775e-18
-3.32132e-18
-2.75782e-18
-2.38344e-18
4.52781e-18
1.21516e-16
-4.0843e-15
-7.11066e-14
-1.22477e-12
-1.4631e-11
-7.80578e-11
2.88759e-09
1.6027e-07
9.14354e-07
1.0475e-06
-9.46337e-05
-0.000330638
-0.000581947
-0.000689188
-0.000581669
-0.00038418
-0.000236737
-0.000150804
-0.000100134
-6.90844e-05
-4.93414e-05
-3.62324e-05
-2.71865e-05
-2.07453e-05
-1.61027e-05
-1.26881e-05
-1.01361e-05
-8.24143e-06
-6.88279e-06
-5.91392e-06
-5.32797e-06
-5.0801e-06
-5.31449e-06
-6.20232e-06
-8.3238e-06
-1.21266e-05
-1.66848e-05
-1.86361e-05
-1.76494e-05
-5.26881e-05
-0.000166071
-0.000312657
-0.000727981
-0.00103807
-0.000699484
-0.0305617
-0.16234
-0.407493
-0.666984
-0.843375
-0.891927
-0.822907
-0.651267
-0.44486
-0.263018
-0.130426
-0.0413583
0.0243587
0.0855434
0.151331
0.215148
0.264837
0.29141
0.296491
0.284192
0.255951
0.224816
0.210842
0.132299
-0.084147
-0.293988
-0.372327
-0.319841
-0.207407
-0.0998788
-0.031872
-0.0055648
-0.000260023
-0.000167866
-6.4682e-05
-1.95796e-05
7.50336e-06
3.92359e-05
6.08103e-05
6.80679e-05
6.43414e-05
5.73939e-05
4.99981e-05
4.43687e-05
4.06415e-05
3.96269e-05
4.16189e-05
4.74108e-05
5.12403e-05
4.10879e-05
-7.72433e-05
-9.94318e-05
0.000107457
0.000553386
0.000759912
0.000874765
0.00794166
0.0519945
0.160954
0.305618
0.391197
0.409649
0.342923
0.163401
-0.0888755
-0.311119
-0.490239
-0.607663
-0.690329
-0.744936
-0.791237
-0.854563
-0.932972
-0.9791
-1.00976
-1.02179
-1.00412
-0.942404
-0.826702
-0.656291
-0.443098
-0.213523
-0.00559917
0.125867
0.137795
0.12028
0.0761363
0.0316203
0.00590087
0.000572484
-6.74452e-05
-0.000101455
-6.24756e-05
-3.95094e-05
-2.94341e-05
-4.87899e-05
-8.42384e-05
8.34437e-06
0.0092633
0.714575
1.74976
-3.84885
9.41691e-20
9.45567e-20
1.01896e-19
1.20932e-19
1.17938e-19
9.59062e-20
6.84614e-20
3.87237e-20
-2.75711e-21
-6.75067e-20
-1.59697e-19
-2.6644e-19
-3.61073e-19
-4.16938e-19
-4.23955e-19
-3.87498e-19
-3.24484e-19
-2.51759e-19
-1.81697e-19
-1.17766e-19
-6.29504e-20
-4.07358e-20
-7.7063e-20
-3.60582e-19
-1.17108e-18
-2.01831e-18
-3.64738e-18
-6.23918e-18
-7.8153e-18
-6.65889e-18
-3.29714e-18
3.35462e-18
1.05126e-17
1.18867e-17
7.17033e-18
1.54149e-18
-3.93445e-18
-5.76192e-18
-3.50333e-18
-8.85063e-19
1.45229e-19
1.96712e-19
8.59818e-20
5.44786e-20
5.08584e-20
5.7914e-20
1.15713e-19
3.23534e-19
7.52521e-19
6.17055e-19
4.50978e-19
3.23004e-19
1.78212e-18
-7.89923e-17
-2.63085e-15
1.59324e-14
1.68552e-13
-2.88673e-13
-3.48787e-11
-1.79879e-10
4.82362e-09
2.35241e-07
9.76935e-07
3.84903e-07
-0.0001763
-0.000634413
-0.00122037
-0.00161252
-0.00155436
-0.00115762
-0.000781453
-0.000536472
-0.000382089
-0.000279114
-0.000207754
-0.000157451
-0.000121397
-9.53882e-05
-7.62503e-05
-6.19152e-05
-5.12918e-05
-4.37227e-05
-3.84383e-05
-3.54845e-05
-3.47014e-05
-3.71179e-05
-4.40109e-05
-5.93237e-05
-8.50189e-05
-0.00011285
-0.000143661
-0.000230451
-0.000618994
-0.00103349
-0.00129566
-0.0018145
-0.00134056
-0.0378133
-0.17673
-0.431957
-0.699804
-0.866887
-0.910928
-0.840165
-0.660871
-0.443947
-0.252856
-0.116396
-0.0301424
0.0257539
0.0737369
0.130932
0.201617
0.272028
0.319981
0.333956
0.320729
0.284342
0.232068
0.181362
0.158134
0.153106
0.0928559
-0.0489995
-0.182116
-0.237577
-0.21108
-0.146294
-0.0792673
-0.0330801
-0.00983598
-0.00191769
3.72827e-05
0.000579211
0.000537814
0.000474095
0.000447843
0.00041545
0.000377644
0.000341061
0.000309909
0.000292093
0.000287804
0.000304742
0.000351841
0.000444539
0.000514592
0.000458837
0.000718135
0.00306081
0.00510794
0.00560816
0.0042516
0.0182888
0.0753957
0.190511
0.334087
0.416737
0.41488
0.325842
0.121595
-0.128058
-0.351729
-0.492819
-0.571602
-0.623428
-0.613189
-0.59859
-0.600145
-0.632384
-0.69207
-0.755207
-0.802569
-0.819102
-0.792184
-0.713277
-0.580137
-0.40049
-0.195315
-0.00112875
0.12706
0.139911
0.118465
0.0697863
0.024476
0.00254087
-9.63613e-05
-0.000199604
-0.000124609
-6.59722e-05
-3.71871e-05
-2.0942e-05
-1.56386e-05
-2.79059e-05
-0.000115131
-0.000578953
0.00267905
0.467581
0.893747
-4.56795
-8.14479e-21
-3.73468e-20
-3.5701e-20
-3.46895e-20
-2.76091e-20
-1.82313e-20
-9.03498e-21
2.59146e-21
2.0343e-20
4.47412e-20
7.15051e-20
9.28195e-20
1.01981e-19
9.76323e-20
8.3858e-20
6.59854e-20
4.85846e-20
3.37023e-20
2.14458e-20
1.19128e-20
9.79878e-21
2.00104e-20
3.5921e-20
4.41955e-20
2.8049e-20
-1.11167e-19
-2.56479e-19
-1.00441e-19
3.46595e-19
7.75755e-19
8.18791e-19
1.30858e-19
-1.31485e-18
-2.28889e-18
-1.84919e-18
-6.90554e-19
6.88653e-19
1.36644e-18
9.81033e-19
3.0775e-19
-3.50397e-20
-8.31022e-20
-4.88703e-20
-2.54722e-20
-1.54057e-20
-1.10638e-20
-1.44638e-20
-3.88924e-20
-1.0413e-19
-9.10097e-20
-6.33503e-20
-2.16688e-20
-6.93572e-19
1.5503e-17
3.00836e-16
-5.32871e-16
3.63297e-14
8.53451e-13
1.24171e-12
-1.38578e-10
-8.6978e-10
3.18236e-09
3.49755e-07
1.40145e-06
-2.89161e-06
-0.000278816
-0.00107363
-0.00239902
-0.00354958
-0.00396117
-0.00355499
-0.00272546
-0.00200004
-0.00148856
-0.00112903
-0.000868
-0.00067544
-0.000534433
-0.000430839
-0.000354046
-0.000298034
-0.000258817
-0.000232351
-0.000219177
-0.000218986
-0.000238411
-0.000286145
-0.000385354
-0.000538459
-0.000689582
-0.00121098
-0.00222779
-0.00322189
-0.00323753
-0.00378118
-0.00329325
-0.0518175
-0.20424
-0.463464
-0.739149
-0.890766
-0.923419
-0.848521
-0.660044
-0.434127
-0.238359
-0.102349
-0.0215204
0.0238643
0.0553478
0.0934323
0.153672
0.235065
0.313171
0.351197
0.348554
0.316311
0.250165
0.175342
0.114958
0.0804964
0.0854538
0.0915041
0.059017
-0.0208293
-0.101455
-0.141698
-0.133902
-0.101876
-0.0626132
-0.0318516
-0.0130455
-0.00378692
0.000214771
0.00184219
0.00236676
0.00231046
0.00214723
0.00199154
0.0018744
0.00179951
0.00180437
0.00189507
0.00212947
0.00261473
0.00344306
0.00423039
0.00792314
0.0163408
0.0226169
0.0222057
0.0190901
0.0386258
0.113124
0.234929
0.367492
0.441925
0.422402
0.304557
0.068442
-0.176515
-0.375991
-0.479438
-0.524744
-0.496146
-0.435677
-0.377098
-0.33191
-0.313477
-0.333151
-0.387277
-0.452097
-0.507857
-0.535134
-0.51739
-0.445134
-0.319293
-0.155346
0.0129378
0.131091
0.14511
0.120755
0.0682005
0.0213138
0.00121125
-0.000310319
-0.000227475
-0.000129322
-5.72971e-05
-2.1641e-05
-1.00152e-05
-6.02681e-06
-4.58431e-06
-1.78742e-05
-0.000236732
-0.00285336
0.00254499
0.27907
0.120314
-4.29581
-2.88082e-22
9.54988e-21
9.71583e-21
8.27855e-21
5.51976e-21
2.55528e-21
-6.71646e-22
-5.2485e-21
-1.14807e-20
-1.8214e-20
-2.33544e-20
-2.51211e-20
-2.32432e-20
-1.9043e-20
-1.4289e-20
-1.00696e-20
-6.80634e-21
-4.38132e-21
-2.61289e-21
-1.66695e-21
-1.76015e-21
-7.53371e-22
6.83545e-21
2.85336e-20
6.78526e-20
1.23693e-19
1.93688e-19
2.25089e-19
1.73704e-19
5.1364e-20
-4.61752e-20
-2.85909e-20
1.99004e-19
4.69045e-19
4.71137e-19
2.34966e-19
-9.59333e-20
-2.93446e-19
-2.41367e-19
-8.75544e-20
7.41914e-21
2.70309e-20
1.81907e-20
9.20468e-21
4.55025e-21
2.35776e-21
1.69678e-21
3.51101e-21
1.0915e-20
9.95216e-21
6.12127e-21
-4.46141e-21
1.13087e-19
-8.38017e-19
-4.13725e-17
-4.43923e-17
1.43713e-15
1.15166e-13
2.68688e-12
6.70922e-12
-2.52895e-10
-1.61291e-09
-5.38194e-10
3.59734e-07
1.78422e-06
-1.07836e-05
-0.000365419
-0.00170676
-0.00408098
-0.00681996
-0.00894202
-0.00961565
-0.00881015
-0.00720546
-0.005608
-0.00435457
-0.00341633
-0.00273084
-0.00222895
-0.00185783
-0.0015909
-0.00140959
-0.00129501
-0.00125011
-0.0012747
-0.0014032
-0.00168285
-0.00217964
-0.00295885
-0.00474177
-0.00731787
-0.00902862
-0.00863917
-0.00756246
-0.0139052
-0.0764063
-0.24986
-0.507736
-0.778
-0.916243
-0.929425
-0.845264
-0.644798
-0.412154
-0.216589
-0.0865044
-0.0144757
0.0209792
0.0388998
0.0566743
0.0936232
0.164579
0.261164
0.34123
0.359621
0.343332
0.279862
0.187865
0.104206
0.0491012
0.0210316
0.0185075
0.0371543
0.050074
0.0372003
-0.00262689
-0.0485121
-0.0764712
-0.0779933
-0.0622881
-0.041275
-0.0218397
-0.00761329
0.00147356
0.00708793
0.00923006
0.00966475
0.0095508
0.00937755
0.00935134
0.00953345
0.0101578
0.0113107
0.0133974
0.0169581
0.0225642
0.0345609
0.0535773
0.0662867
0.0629243
0.0583058
0.0828816
0.162689
0.297249
0.407299
0.462016
0.42048
0.267145
0.0209721
-0.237059
-0.382943
-0.4617
-0.434689
-0.369492
-0.288025
-0.209959
-0.146196
-0.0957783
-0.0665297
-0.0705601
-0.111333
-0.173002
-0.234345
-0.271253
-0.263596
-0.201435
-0.090886
0.0403668
0.140395
0.153484
0.126594
0.0701783
0.020856
0.000817986
-0.000371345
-0.000233953
-0.000115617
-3.50209e-05
-7.35906e-06
-1.54439e-06
-5.04374e-07
-3.74838e-07
-1.28152e-06
-1.82784e-05
-0.000435282
-0.00774811
-0.0290323
-0.0674227
-1.03329
-3.00909
2.11431e-22
-1.64177e-21
-2.11338e-21
-1.65261e-21
-8.45306e-22
7.60843e-23
1.23231e-21
2.78124e-21
4.48611e-21
5.80812e-21
6.26386e-21
5.748e-21
4.59268e-21
3.31098e-21
2.24549e-21
1.47246e-21
9.4694e-22
5.88594e-22
3.54489e-22
1.9788e-22
-9.91939e-23
-8.89621e-22
-1.90709e-21
-2.05727e-21
-3.26304e-22
1.94528e-21
-2.19647e-21
-1.55869e-20
-2.63433e-20
-2.02498e-20
-5.4341e-21
-1.71975e-21
-4.01391e-20
-1.06224e-19
-1.23142e-19
-7.29632e-20
6.17133e-21
5.84208e-20
5.4502e-20
2.21104e-20
-1.24286e-21
-7.31936e-21
-5.34902e-21
-2.69219e-21
-1.17922e-21
-4.7045e-22
-1.41444e-22
-9.61779e-23
-6.36502e-22
-4.03258e-22
2.19834e-22
2.96262e-21
-1.02799e-20
-7.26639e-20
4.32054e-19
-4.92315e-17
-1.03106e-16
2.99339e-15
3.39694e-13
4.53094e-12
8.17287e-12
-2.86782e-10
-3.36404e-09
-8.5227e-09
4.20098e-07
2.14965e-06
-2.13737e-05
-0.000397337
-0.00216993
-0.0060085
-0.0116286
-0.0172372
-0.02118
-0.0227302
-0.021802
-0.0191429
-0.0158412
-0.0128049
-0.0104478
-0.00875597
-0.0076207
-0.00690809
-0.00651147
-0.00644147
-0.00670689
-0.00746591
-0.00892763
-0.0112254
-0.0153908
-0.0208427
-0.022892
-0.0222728
-0.0179238
-0.0365051
-0.118447
-0.310748
-0.56842
-0.815689
-0.940245
-0.931269
-0.825341
-0.609855
-0.374528
-0.186122
-0.0677941
-0.0082204
0.0171158
0.0263634
0.0309076
0.0446641
0.0878077
0.175249
0.286199
0.35649
0.354702
0.31258
0.217176
0.11457
0.0413447
0.00670052
6.84304e-05
-0.00010703
0.00307029
0.0150834
0.0258333
0.0237679
0.00701377
-0.013409
-0.0270781
-0.0287907
-0.0198436
-0.00563819
0.00888975
0.0208864
0.0292705
0.0340974
0.036554
0.0378385
0.0390223
0.0409384
0.0438954
0.0489661
0.0567039
0.0687451
0.0873397
0.11389
0.142947
0.155236
0.142972
0.126074
0.152343
0.232075
0.3575
0.448892
0.468846
0.4028
0.2095
-0.0431827
-0.264477
-0.394311
-0.404252
-0.359776
-0.268282
-0.179871
-0.106974
-0.0475043
0.00340629
0.050535
0.0870651
0.0983571
0.0739529
0.0226876
-0.0342106
-0.0700818
-0.0631267
-0.00674393
0.0815666
0.156526
0.16538
0.135439
0.0751149
0.0222678
0.00088312
-0.000375451
-0.000227943
-9.93778e-05
-1.9375e-05
-1.77976e-06
-1.49857e-07
5.11561e-08
5.02341e-08
2.44567e-08
-1.38345e-06
-3.25829e-05
-0.000747064
-0.0268575
-0.172709
-0.815748
-2.6199
-1.0393
-3.813e-23
1.47598e-22
3.41024e-22
2.41146e-22
1.92847e-23
-2.72654e-22
-6.49283e-22
-1.07868e-21
-1.43214e-21
-1.57481e-21
-1.46344e-21
-1.1695e-21
-8.25357e-22
-5.3858e-22
-3.41068e-22
-2.1429e-22
-1.33605e-22
-8.00311e-23
-4.15173e-23
-2.58739e-24
4.77596e-23
3.76249e-23
-2.41216e-22
-1.00898e-21
-2.3485e-21
-3.99369e-21
-4.93892e-21
-3.45547e-21
-3.40134e-23
2.02705e-21
1.41431e-21
1.13178e-21
8.84468e-21
2.50774e-20
3.22084e-20
2.14296e-20
2.39645e-21
-1.09643e-20
-1.17457e-20
-5.273e-21
7.89355e-23
1.72199e-21
1.33928e-21
6.6957e-22
2.63696e-22
7.43902e-23
-1.99667e-23
-7.86106e-23
-9.87693e-23
-2.04522e-22
-3.50834e-22
-9.13021e-22
9.64327e-23
1.17535e-20
9.53942e-19
9.21376e-19
-9.74809e-17
6.01668e-17
5.5626e-15
1.92654e-13
5.14002e-12
1.7109e-11
-2.63863e-11
-4.35955e-09
-1.7625e-08
1.6132e-07
2.41869e-06
-2.39482e-06
-0.000307245
-0.00227137
-0.0077253
-0.0167911
-0.0276973
-0.0381215
-0.0456623
-0.0499029
-0.0501258
-0.0472759
-0.0426341
-0.0374151
-0.0329911
-0.0299654
-0.0284256
-0.0284698
-0.0299818
-0.0332409
-0.0383278
-0.0447683
-0.0509804
-0.0527543
-0.0489679
-0.0478985
-0.0793506
-0.185738
-0.392495
-0.648196
-0.857314
-0.956361
-0.920162
-0.77969
-0.549996
-0.320404
-0.147279
-0.0481941
-0.00462925
0.0112505
0.017738
0.0160078
0.0174426
0.0331637
0.0864452
0.192066
0.309758
0.354783
0.334842
0.25491
0.142086
0.0496478
0.00506298
-0.000480627
-0.000520295
-0.000444489
-0.000302703
0.0006048
0.00609481
0.0128633
0.0147357
0.0109448
0.00891791
0.0108443
0.0213732
0.038646
0.0591165
0.0792932
0.0971538
0.112056
0.123779
0.132992
0.141966
0.153319
0.168093
0.189041
0.21594