/*--------------------------------*- C++ -*----------------------------------*\
| =========                 |                                                 |
| \\      /  F ield         | OpenFOAM: The Open Source CFD Toolbox           |
|  \\    /   O peration     | Version:  2506                                  |
|   \\  /    A nd           | Website:  www.openfoam.com                      |
|    \\/     M anipulation  |                                                 |
\*---------------------------------------------------------------------------*/
FoamFile
{
    version     2.0;
    format      ascii;
    arch        "LSB;label=32;scalar=64";
    class       volVectorField;
    location    "2.15";
    object      U;
}
// * * * * * * * * * * * * * * * * * * * * * * * * * * * * * * * * * * * * * //

dimensions      [0 1 -1 0 0 0 0];

internalField   nonuniform List<vector> 
4000
(
(0.00435277 -0.00196557 7.00673e-23)
(0.00593318 -0.00164983 0)
(0.00819914 -0.00085941 7.75551e-24)
(0.00992588 -0.00044869 2.84597e-24)
(0.0109661 -0.000271773 -1.02424e-24)
(0.0116354 -0.000170149 0)
(0.012109 -0.00010721 -6.71119e-24)
(0.012454 -7.06281e-05 -8.75951e-24)
(0.012711 -4.9166e-05 0)
(0.0129093 -3.57986e-05 0)
(0.0130671 -2.71029e-05 -2.63522e-22)
(0.0131956 -2.1264e-05 5.25476e-22)
(0.0133019 -1.71998e-05 -2.58333e-22)
(0.0133911 -1.4276e-05 3.36673e-22)
(0.0134668 -1.21296e-05 -3.35324e-22)
(0.0135316 -1.05462e-05 -2.3672e-23)
(0.0135877 -9.39334e-06 -4.38217e-22)
(0.0136367 -8.58837e-06 4.36621e-22)
(0.01368 -8.08039e-06 -3.06003e-23)
(0.0137189 -7.83978e-06 0)
(0.0137545 -7.85244e-06 0)
(0.013788 -8.11705e-06 3.89732e-23)
(0.0138206 -8.64463e-06 4.21296e-23)
(0.0138535 -9.46018e-06 0)
(0.0138883 -1.06055e-05 4.90164e-23)
(0.0139267 -1.21447e-05 5.27427e-23)
(0.0139711 -1.41766e-05 0)
(0.0140243 -1.68725e-05 0)
(0.0140891 -2.02563e-05 -2.17271e-21)
(0.0141754 -2.41411e-05 2.2323e-21)
(0.0143032 -4.02059e-05 0)
(0.0142724 -0.000108354 5.06632e-21)
(0.0139597 -0.0002804 -7.8288e-21)
(0.0133948 -0.00061138 1.11144e-22)
(0.0126738 -0.00113702 3.10896e-21)
(0.011855 -0.00191527 -4.95234e-20)
(0.0111617 -0.0028876 4.4813e-23)
(0.0104081 -0.0043128 9.69553e-21)
(0.00945887 -0.00609341 0)
(0.00849873 -0.00775444 -3.40304e-21)
(0.00773065 -0.0091318 3.47924e-21)
(0.0071346 -0.010241 -2.7957e-20)
(0.006667 -0.0111071 0)
(0.00630846 -0.0117377 -2.40609e-20)
(0.00603351 -0.0121493 1.00134e-20)
(0.00580679 -0.0123686 -1.36507e-20)
(0.00560802 -0.0124055 0)
(0.00542762 -0.0122929 1.2517e-20)
(0.00523089 -0.0120735 1.23676e-20)
(0.00499022 -0.0117394 8.51524e-21)
(0.0046847 -0.0112853 0)
(0.00438463 -0.0106424 0)
(0.0041205 -0.00984941 7.10919e-22)
(0.00397641 -0.00877303 -5.0979e-21)
(0.0041304 -0.00739239 -9.266e-22)
(0.00484455 -0.00565834 1.41365e-21)
(0.00620648 -0.00381345 -1.60104e-22)
(0.00828486 -0.00199947 4.8983e-22)
(0.0108944 -0.000565101 0)
(0.0133198 0.000209109 -6.71482e-22)
(0.0150276 0.000456756 -2.27808e-21)
(0.015959 0.000347912 1.52745e-22)
(0.0163919 0.000187339 7.84869e-21)
(0.0165661 5.8988e-05 -8.11334e-21)
(0.0166232 -1.80837e-05 0)
(0.0166283 -5.9184e-05 0)
(0.0166209 -7.97915e-05 0)
(0.0166124 -9.00082e-05 -1.24207e-21)
(0.0166027 -9.02393e-05 -1.82165e-20)
(0.0165948 -8.66467e-05 -9.98048e-21)
(0.016588 -8.50313e-05 0)
(0.016582 -8.38086e-05 8.73015e-21)
(0.0165761 -8.22411e-05 -8.67462e-21)
(0.0165705 -8.02466e-05 -8.90164e-22)
(0.0165653 -7.78798e-05 9.36512e-21)
(0.0165605 -7.51939e-05 -8.25086e-21)
(0.0165557 -7.21937e-05 -9.17881e-21)
(0.0165518 -6.90207e-05 -8.59847e-21)
(0.0165479 -6.55519e-05 0)
(0.0165444 -6.17665e-05 0)
(0.016541 -5.7568e-05 2.22679e-22)
(0.0165393 -5.3053e-05 6.59409e-21)
(0.0165366 -4.78895e-05 0)
(0.0165354 -4.30408e-05 -5.1479e-21)
(0.016533 -3.6354e-05 4.25021e-21)
(0.0165309 -2.82461e-05 0)
(0.0165247 -1.87415e-05 0)
(0.0165102 -8.3987e-06 2.91969e-23)
(0.0164621 1.042e-06 -3.37249e-23)
(0.016357 -6.03236e-07 4.3637e-22)
(0.0161842 -3.78295e-05 -6.39984e-23)
(0.0159377 -0.000140693 8.86149e-24)
(0.0156465 -0.000328548 2.36848e-22)
(0.0153615 -0.000604177 0)
(0.015148 -0.000935123 -6.12893e-21)
(0.0150249 -0.00122061 -6.93705e-21)
(0.0149844 -0.00143512 -7.64566e-21)
(0.0150075 -0.00156999 -5.36561e-22)
(0.0150683 -0.00163277 -8.58201e-21)
(0.0151337 -0.00164816 -9.28095e-21)
(0.0151827 -0.00165279 1.49767e-22)
(0.0151756 -0.00167598 -9.67074e-21)
(0.0150961 -0.00174547 -1.81426e-20)
(0.0149327 -0.00188036 -4.24409e-22)
(0.0146835 -0.00208752 -8.05622e-21)
(0.014353 -0.00236103 0)
(0.013944 -0.00268481 7.57837e-21)
(0.0134569 -0.00303445 6.70785e-21)
(0.0129014 -0.00337726 4.66174e-22)
(0.0122868 -0.00368397 0)
(0.0115944 -0.0039202 5.65973e-21)
(0.0109015 -0.00399864 -5.07685e-21)
(0.010274 -0.00388108 0)
(0.00988191 -0.00345469 -7.27888e-21)
(0.00992235 -0.00275414 -1.21241e-21)
(0.0105503 -0.0018302 -1.11035e-21)
(0.0118809 -0.000843179 0)
(0.0135481 -0.000112729 5.92293e-22)
(0.0150044 0.000243546 -1.59844e-22)
(0.0159363 0.000228649 -5.41701e-23)
(0.0164098 0.000133469 1.97057e-22)
(0.0166091 3.09421e-05 -8.08652e-21)
(0.0166679 -3.79888e-05 9.33515e-21)
(0.0166722 -7.50635e-05 6.19593e-22)
(0.0166635 -9.45489e-05 8.9331e-21)
(0.0166498 -0.00010336 -1.95574e-20)
(0.0166362 -0.000104223 9.91547e-21)
(0.0166254 -9.88638e-05 -1.0942e-20)
(0.0166165 -9.45121e-05 4.29281e-22)
(0.0166084 -9.17611e-05 -9.76087e-21)
(0.0166013 -8.90258e-05 0)
(0.0165948 -8.58635e-05 1.07903e-20)
(0.0165889 -8.22497e-05 -1.70925e-21)
(0.0165838 -7.82967e-05 1.18101e-20)
(0.016579 -7.40334e-05 0)
(0.0165746 -6.94362e-05 0)
(0.0165705 -6.4457e-05 -9.54999e-21)
(0.0165663 -5.89044e-05 8.78621e-21)
(0.0165632 -5.28838e-05 0)
(0.0165596 -4.62386e-05 0)
(0.0165555 -3.87925e-05 7.24047e-21)
(0.0165532 -3.04648e-05 -1.50775e-21)
(0.0165483 -2.13164e-05 6.8985e-21)
(0.0165439 -1.16741e-05 0)
(0.016536 -1.50688e-06 -2.80629e-21)
(0.0165232 8.68998e-06 -1.29553e-21)
(0.0164885 1.6026e-05 5.49515e-22)
(0.0164081 1.70618e-05 -2.22513e-22)
(0.0162599 -4.38504e-06 0)
(0.0160445 -7.73886e-05 -5.36779e-22)
(0.0157596 -0.000229242 -2.1499e-22)
(0.0154508 -0.000472545 5.21074e-21)
(0.015184 -0.000796481 -9.77226e-22)
(0.0149991 -0.00112422 -1.52068e-23)
(0.0148994 -0.00139481 -4.31816e-21)
(0.0148745 -0.00159266 -1.55291e-21)
(0.014898 -0.00172176 0)
(0.0149503 -0.00180153 0)
(0.0149802 -0.00186401 0)
(0.0149542 -0.00194369 1.42217e-20)
(0.0148274 -0.00206547 -1.72397e-21)
(0.0145623 -0.00224375 -6.37277e-21)
(0.0138799 -0.00249689 -4.94467e-21)
(0.0129338 -0.00266614 0)
(0.0123815 -0.00262156 7.44373e-21)
(0.0119824 -0.00248145 1.16069e-20)
(0.0116988 -0.00220965 1.1067e-22)
(0.0116723 -0.00179862 1.59427e-21)
(0.0119848 -0.00128416 4.08715e-21)
(0.0126629 -0.000754931 1.31895e-21)
(0.0134833 -0.00035249 0)
(0.0140459 -0.000157532 1.32373e-23)
(0.0143367 -7.12182e-05 0)
(0.0144744 -3.35689e-05 1.04134e-23)
(0.0145371 -1.48476e-05 9.51884e-24)
(0.0145593 -5.28421e-06 5.64116e-22)
(0.0145597 -7.52508e-07 -5.6282e-22)
(0.0145498 1.66756e-06 -2.52311e-22)
(0.014536 2.82926e-06 2.59695e-22)
(0.0145206 3.36448e-06 -2.33084e-22)
(0.0145041 3.83022e-06 4.86409e-22)
(0.0144859 4.3981e-06 -2.30891e-22)
(0.0144651 5.15311e-06 0)
(0.0144405 6.11751e-06 7.63719e-24)
(0.014411 7.27743e-06 -7.86984e-24)
(0.0143753 8.56675e-06 2.77166e-22)
(0.0143316 1.00492e-05 -2.60047e-22)
(0.0142786 1.22644e-05 3.07073e-22)
(0.0142146 1.48908e-05 -2.96815e-22)
(0.0141372 1.78727e-05 1.94843e-22)
(0.0140433 2.14247e-05 -1.71642e-22)
(0.0139286 2.59779e-05 1.3605e-23)
(0.0137863 3.24765e-05 1.53867e-23)
(0.013604 4.31415e-05 0)
(0.0133557 6.3294e-05 2.0483e-23)
(0.0129839 0.000105693 2.44426e-23)
(0.01235 0.000202793 3.21344e-22)
(0.0111112 0.000457059 -3.35125e-22)
(0.00856545 0.00126243 0)
(0.00644559 0.00234525 9.69561e-23)
(-5.34726e-05 -0.00378159 -4.01556e-23)
(-0.000101632 -0.00352387 1.35716e-24)
(0.00131687 -0.00248391 -9.34135e-24)
(0.00270455 -0.00179544 1.28617e-23)
(0.00381405 -0.00130079 1.20926e-23)
(0.00469814 -0.000937417 2.77033e-23)
(0.0054196 -0.000689909 -3.71394e-23)
(0.00600925 -0.000525979 2.90807e-23)
(0.00649381 -0.000414279 2.32702e-23)
(0.00689749 -0.000335171 2.77203e-23)
(0.00723851 -0.000277414 4.89661e-23)
(0.00752992 -0.000234045 3.50983e-22)
(0.00778152 -0.000200579 -3.33527e-22)
(0.00800081 -0.000174153 3.84359e-22)
(0.00819364 -0.000152931 -7.5379e-22)
(0.00836464 -0.000135701 9.60355e-22)
(0.00851758 -0.000121653 -3.98328e-22)
(0.00865562 -0.000110245 6.08467e-22)
(0.00878151 -0.000101129 7.45022e-22)
(0.00889774 -9.41054e-05 -1.09904e-21)
(0.00900665 -8.90943e-05 8.18042e-23)
(0.00911056 -8.61292e-05 1.53715e-21)
(0.00921186 -8.53575e-05 -1.53502e-21)
(0.00931316 -8.70561e-05 -1.632e-21)
(0.00941739 -9.16635e-05 1.66892e-21)
(0.00952801 -9.98335e-05 5.80788e-23)
(0.00964921 -0.000112528 2.14214e-21)
(0.00978629 -0.000131141 2.23434e-23)
(0.00994532 -0.000157776 -4.70691e-21)
(0.0101395 -0.000194381 -2.45327e-22)
(0.0103969 -0.000247269 2.55413e-21)
(0.010549 -0.000381883 2.76774e-21)
(0.0104818 -0.000653668 8.37244e-21)
(0.0102406 -0.00108608 1.71854e-20)
(0.00992981 -0.00168415 1.18729e-20)
(0.00961334 -0.00246365 1.22973e-20)
(0.00934393 -0.00342459 -2.80919e-21)
(0.00902584 -0.00463364 -9.00212e-21)
(0.00856352 -0.00596834 2.98563e-21)
(0.00804297 -0.0072294 8.93923e-21)
(0.00758934 -0.00836246 1.19348e-20)
(0.00719355 -0.00935012 1.21834e-20)
(0.00683808 -0.0101715 0)
(0.00651585 -0.0108185 2.40809e-20)
(0.00621326 -0.0112942 -1.18452e-20)
(0.00591437 -0.0116059 1.20892e-20)
(0.00560557 -0.0117695 -1.15808e-20)
(0.00527354 -0.0117988 0)
(0.00489392 -0.0116861 -1.01928e-21)
(0.00444445 -0.0114752 -8.93122e-21)
(0.00391558 -0.0111549 7.78429e-21)
(0.00332145 -0.010708 -8.59847e-22)
(0.00268513 -0.0101558 -5.24865e-21)
(0.00201914 -0.00942656 9.23615e-22)
(0.00144193 -0.00849846 -3.06628e-21)
(0.00108562 -0.00728051 0)
(0.00114334 -0.00580573 4.77904e-22)
(0.00189389 -0.00406851 -7.89755e-22)
(0.00365705 -0.00225812 -2.87072e-22)
(0.00633656 -0.000674994 9.13051e-22)
(0.00946283 0.00035335 2.81874e-21)
(0.0122634 0.00084053 6.98206e-21)
(0.0141909 0.000758394 9.1183e-21)
(0.0153625 0.00051913 9.31734e-21)
(0.015999 0.000285894 -1.19328e-21)
(0.0162972 0.000110233 1.15938e-21)
(0.0164351 -2.87242e-06 0)
(0.0165021 -6.98613e-05 0)
(0.0165341 -0.000116123 2.04145e-20)
(0.0165501 -0.000146974 -9.86498e-21)
(0.0165587 -0.000163449 -1.28983e-21)
(0.0165631 -0.000172394 1.24752e-20)
(0.0165645 -0.000176345 8.59192e-21)
(0.0165637 -0.000176861 1.1712e-20)
(0.0165617 -0.000175008 -6.66293e-22)
(0.0165591 -0.00017079 -6.25977e-22)
(0.0165559 -0.000163686 -1.03269e-20)
(0.0165525 -0.000154581 9.37279e-21)
(0.0165481 -0.000143734 5.53378e-22)
(0.016543 -0.000131221 8.18944e-21)
(0.0165368 -0.000116913 -7.63914e-21)
(0.0165295 -0.000100126 0)
(0.0165192 -8.04339e-05 0)
(0.0165047 -5.62646e-05 0)
(0.0164821 -2.92025e-05 -4.47918e-21)
(0.0164455 2.89504e-06 1.25494e-22)
(0.0163799 3.84661e-05 -1.13661e-22)
(0.0162715 8.05499e-05 1.22705e-22)
(0.0161092 0.000117174 3.12302e-23)
(0.0158902 0.000120225 -1.07013e-21)
(0.0156391 5.74947e-05 1.56317e-22)
(0.0153918 -9.27089e-05 -5.84584e-23)
(0.0151943 -0.000330028 -3.78547e-21)
(0.0150731 -0.000626882 4.90924e-21)
(0.0150266 -0.000926984 -5.66066e-21)
(0.0150372 -0.00117985 6.27051e-21)
(0.0150829 -0.00135745 -6.41037e-21)
(0.0151311 -0.0014554 -7.32e-21)
(0.01516 -0.00149377 8.08691e-21)
(0.0151456 -0.00150939 8.1078e-21)
(0.0150571 -0.00152922 0)
(0.01488 -0.00159388 -7.5845e-21)
(0.0146231 -0.00172677 8.179e-21)
(0.0142896 -0.00193589 -2.29769e-22)
(0.0138849 -0.00221673 9.41566e-22)
(0.0134119 -0.00255342 0)
(0.0128674 -0.00292262 -1.34756e-20)
(0.0122474 -0.00329659 -1.31656e-20)
(0.0115521 -0.00364746 -5.64483e-21)
(0.0107804 -0.00394957 -4.88236e-21)
(0.00992899 -0.00416536 -5.44502e-21)
(0.0090364 -0.00423665 9.40311e-21)
(0.00815217 -0.00417284 -2.62498e-22)
(0.00734734 -0.00389433 3.58474e-21)
(0.00677065 -0.00339348 -2.14631e-22)
(0.00658216 -0.00265258 5.17391e-22)
(0.00706676 -0.00171178 -3.50851e-23)
(0.00836061 -0.000736306 -9.19343e-22)
(0.0103659 6.30743e-05 -1.94271e-22)
(0.0125573 0.000526487 1.78988e-22)
(0.0142729 0.00055972 0)
(0.0153859 0.000419884 8.90021e-21)
(0.016006 0.000238009 2.97626e-22)
(0.0163091 8.5049e-05 -9.14096e-22)
(0.016453 -1.43765e-05 -1.00573e-20)
(0.0165195 -7.5555e-05 1.10083e-20)
(0.0165501 -0.000119009 1.02759e-20)
(0.0165655 -0.000150724 2.18898e-20)
(0.016573 -0.000168634 2.21218e-20)
(0.0165755 -0.000177442 1.0166e-20)
(0.0165751 -0.000180974 1.37954e-21)
(0.016573 -0.000181019 1.06214e-20)
(0.0165698 -0.000178499 -2.18044e-20)
(0.0165658 -0.000173452 2.64456e-21)
(0.0165613 -0.000165979 7.44007e-21)
(0.0165561 -0.000156317 0)
(0.0165505 -0.000144616 0)
(0.0165439 -0.000130925 -6.2735e-22)
(0.0165367 -0.000114986 -2.07367e-21)
(0.0165273 -9.68394e-05 -5.61837e-21)
(0.0165151 -7.67396e-05 -1.70512e-21)
(0.0164995 -5.34096e-05 2.08863e-22)
(0.016476 -2.69923e-05 2.33113e-21)
(0.0164408 3.2129e-06 -2.27559e-21)
(0.0163811 3.71289e-05 2.88199e-21)
(0.0162848 7.27604e-05 0)
(0.0161356 0.000110588 1.93331e-22)
(0.0159244 0.0001262 -1.88361e-22)
(0.0156657 8.17813e-05 -4.03977e-22)
(0.0153936 -5.10863e-05 0)
(0.0151525 -0.000281802 0)
(0.0149803 -0.000591134 0)
(0.0148877 -0.000929551 0)
(0.0148623 -0.00123897 -1.04617e-20)
(0.0148729 -0.00147771 -2.51587e-21)
(0.0148983 -0.00163731 -1.36499e-21)
(0.0149087 -0.00173455 1.51871e-21)
(0.0148581 -0.00180288 8.74338e-21)
(0.0147098 -0.00188061 -2.82454e-21)
(0.0144401 -0.00200115 -6.46239e-21)
(0.0140213 -0.0021766 -5.81458e-23)
(0.0134181 -0.00237917 4.65081e-21)
(0.0125664 -0.00253866 -1.47283e-21)
(0.0116892 -0.00251016 3.4102e-23)
(0.0110604 -0.00245719 7.45759e-21)
(0.0105024 -0.00239583 -6.33219e-21)
(0.00996731 -0.0022512 0)
(0.00956305 -0.00199002 0)
(0.00937777 -0.00161631 -1.58362e-21)
(0.00949001 -0.00117135 -1.14158e-21)
(0.00987495 -0.000760956 1.09423e-21)
(0.0102667 -0.000473195 -1.53162e-23)
(0.0105253 -0.000277685 8.21371e-22)
(0.01067 -0.000148036 -8.06856e-22)
(0.0107407 -6.91614e-05 -3.24196e-23)
(0.0107631 -2.58259e-05 -6.42691e-22)
(0.0107559 -4.04737e-06 3.8549e-23)
(0.0107331 6.0026e-06 3.29545e-22)
(0.0107032 1.0401e-05 2.63602e-22)
(0.0106696 1.28083e-05 2.70123e-22)
(0.010633 1.51729e-05 -2.69986e-22)
(0.0105925 1.86418e-05 8.59786e-24)
(0.010546 2.37169e-05 -2.82291e-22)
(0.0104915 3.0463e-05 2.90937e-22)
(0.0104265 3.90413e-05 9.16352e-24)
(0.0103481 4.96109e-05 2.87176e-22)
(0.0102533 6.25316e-05 -3.46188e-22)
(0.0101383 7.8709e-05 3.62066e-22)
(0.0099982 9.83039e-05 -3.97384e-22)
(0.00982761 0.000121993 1.79038e-22)
(0.00961952 0.000151229 -2.32208e-22)
(0.00936463 0.000188687 1.62596e-23)
(0.00904935 0.00023991 -5.45479e-23)
(0.00865148 0.000317325 -3.60311e-22)
(0.00813036 0.000449836 3.86183e-22)
(0.00740685 0.000705451 -8.60735e-23)
(0.00632804 0.00124173 -3.61627e-23)
(0.00463687 0.00239552 1.35476e-22)
(0.00196132 0.00459661 0)
(0.000249263 0.00610876 -2.42495e-22)
(-0.000386441 -0.00313809 0)
(-0.00107628 -0.00372433 -6.51233e-23)
(-0.000766574 -0.0031605 2.5956e-23)
(-0.000154074 -0.00255726 1.06711e-24)
(0.000526022 -0.00203564 -1.00528e-23)
(0.00119268 -0.00161301 -3.92259e-23)
(0.00181241 -0.00129269 3.8879e-23)
(0.00237315 -0.0010555 -1.97732e-23)
(0.00287242 -0.000877788 -2.48639e-23)
(0.00331494 -0.000742104 -8.55317e-23)
(0.00370743 -0.000636663 -3.41853e-23)
(0.00405644 -0.000553277 -1.12584e-22)
(0.00436795 -0.000486214 3.57835e-22)
(0.00464723 -0.000431512 -8.42239e-22)
(0.00489887 -0.000386424 3.39819e-22)
(0.00512681 -0.00034903 -5.3195e-22)
(0.00533451 -0.000317985 2.87312e-22)
(0.00552504 -0.000292362 -2.00273e-22)
(0.00570117 -0.000271559 -1.29386e-21)
(0.00586555 -0.000255228 1.13217e-21)
(0.00602075 -0.000243252 -8.6688e-23)
(0.00616935 -0.000235725 -2.75669e-22)
(0.0063141 -0.000232961 1.66187e-21)
(0.006458 -0.000235525 -1.76033e-21)
(0.00660446 -0.00024429 -1.92054e-21)
(0.00675742 -0.000260532 1.53854e-21)
(0.00692162 -0.000286087 2.20117e-21)
(0.00710285 -0.000323595 -2.04132e-21)
(0.00730765 -0.000377027 0)
(0.00754729 -0.000451624 0)
(0.00784559 -0.000556997 0)
(0.00809711 -0.000753649 0)
(0.00821337 -0.00108442 -1.13727e-20)
(0.00820905 -0.00156024 -1.46811e-20)
(0.00814813 -0.00218262 1.48479e-20)
(0.0080649 -0.00296411 -2.78122e-21)
(0.00798346 -0.00391009 1.54917e-20)
(0.00783592 -0.00503211 -3.05416e-21)
(0.00757546 -0.0062251 -1.20456e-20)
(0.00727531 -0.00736906 2.7775e-21)
(0.0070031 -0.00841863 -2.40456e-20)
(0.00674443 -0.00934524 0)
(0.00648879 -0.0101261 1.13401e-20)
(0.00623471 -0.0107499 1.10042e-20)
(0.00597387 -0.0112137 -1.33431e-21)
(0.00569465 -0.0115197 -8.24706e-21)
(0.00538486 -0.0116761 1.85636e-20)
(0.00502886 -0.0116961 7.73331e-21)
(0.00460932 -0.01159 1.27474e-21)
(0.00411193 -0.0113696 -1.32421e-22)
(0.00352923 -0.0110376 -2.40431e-21)
(0.00286759 -0.0105978 1.40975e-21)
(0.00213832 -0.0100595 3.68955e-22)
(0.00135412 -0.00938895 -1.70764e-22)
(0.000583757 -0.00856899 -2.18915e-21)
(-9.30562e-05 -0.00754838 2.50866e-22)
(-0.000519173 -0.00632713 -7.20251e-22)
(-0.000553211 -0.00488449 8.89134e-22)
(0.0001064 -0.00328917 2.928e-22)
(0.001644 -0.00168141 0)
(0.00403529 -0.000258266 1.11881e-21)
(0.00706371 0.000765029 -9.92088e-22)
(0.00992829 0.00128718 5.55882e-22)
(0.0122418 0.00126822 -9.51515e-21)
(0.0138876 0.00107398 8.60106e-21)
(0.0149406 0.000799501 -8.73116e-21)
(0.0155689 0.000538409 0)
(0.0159324 0.000340785 0)
(0.0161408 0.000200969 -1.90611e-20)
(0.0162629 0.000103693 1.92315e-20)
(0.0163379 3.83724e-05 0)
(0.0163863 -5.13792e-06 -8.80244e-21)
(0.0164178 -3.38083e-05 -6.60644e-22)
(0.016438 -5.15895e-05 8.03019e-21)
(0.0164503 -6.11159e-05 -1.02822e-20)
(0.0164566 -6.45132e-05 -8.33906e-21)
(0.0164583 -6.27811e-05 1.8447e-20)
(0.0164562 -5.58023e-05 -5.4838e-22)
(0.0164498 -4.43783e-05 -5.01392e-22)
(0.0164395 -2.90619e-05 -1.48254e-20)
(0.016425 -9.9207e-06 1.42564e-20)
(0.0164037 1.47224e-05 1.96438e-22)
(0.0163731 4.33085e-05 -2.34557e-23)
(0.0163299 7.84859e-05 -1.73676e-22)
(0.0162695 0.000118623 4.38291e-21)
(0.0161816 0.000166875 0)
(0.0160559 0.00021999 -5.66436e-22)
(0.0158855 0.000266533 -4.89379e-24)
(0.0156716 0.000286569 -4.52421e-23)
(0.0154337 0.000249931 9.46016e-22)
(0.015212 0.000129756 9.45096e-23)
(0.0150449 -8.18849e-05 5.8371e-21)
(0.0149579 -0.000366442 3.82435e-21)
(0.01495 -0.000684322 -9.11101e-21)
(0.0149967 -0.000984702 -1.50606e-22)
(0.0150679 -0.00122484 6.13521e-21)
(0.0151284 -0.00138472 1.29475e-20)
(0.0151531 -0.00147031 7.13421e-21)
(0.015112 -0.00150886 0)
(0.0149898 -0.00153477 -7.08084e-21)
(0.0147801 -0.00158248 0)
(0.0144928 -0.00168105 7.70037e-21)
(0.0141366 -0.00184758 -1.11159e-22)
(0.0137173 -0.00208389 -6.68565e-21)
(0.0132392 -0.00237939 7.14782e-21)
(0.0127019 -0.00271473 0)
(0.0120994 -0.00306536 1.2594e-20)
(0.0114275 -0.00340519 6.22661e-21)
(0.0106859 -0.00370946 5.32347e-22)
(0.00987531 -0.0039539 5.40887e-21)
(0.00899707 -0.00411388 0)
(0.00808367 -0.00414141 -4.34038e-21)
(0.00716132 -0.00404484 0)
(0.00626739 -0.00378632 2.2725e-21)
(0.00548375 -0.00336893 -1.17082e-22)
(0.00491234 -0.00277122 0)
(0.00475685 -0.00199164 0)
(0.00523049 -0.00110202 9.76484e-22)
(0.00645806 -0.000199143 0)
(0.00843399 0.000558461 -2.36652e-22)
(0.0106267 0.000989695 4.76454e-22)
(0.0125579 0.00108061 -2.40829e-22)
(0.0139931 0.000959409 0)
(0.0149604 0.000738606 0)
(0.0155557 0.000520832 -9.68521e-21)
(0.0159037 0.000348274 1.05665e-20)
(0.0161083 0.000221353 -2.06094e-20)
(0.0162331 0.000128833 -1.05964e-20)
(0.016311 6.45113e-05 -1.45245e-21)
(0.0163603 2.12219e-05 -9.34773e-21)
(0.016392 -7.45414e-06 1.29821e-21)
(0.0164122 -2.51643e-05 -1.07147e-20)
(0.016424 -3.43891e-05 -1.83226e-21)
(0.0164295 -3.68597e-05 1.76524e-23)
(0.0164299 -3.36237e-05 -1.84665e-21)
(0.0164258 -2.56749e-05 2.40483e-21)
(0.0164177 -1.35161e-05 -8.81556e-21)
(0.0164055 2.33535e-06 -1.7312e-20)
(0.0163882 2.30948e-05 0)
(0.0163635 4.81245e-05 7.74833e-21)
(0.0163311 7.62799e-05 8.16474e-21)
(0.0162865 0.000110986 -1.60032e-21)
(0.0162246 0.000149654 -4.18973e-21)
(0.0161385 0.000194658 -2.12436e-21)
(0.016017 0.000243562 1.84112e-21)
(0.0158514 0.000288565 4.3847e-22)
(0.0156382 0.000310952 -1.12809e-22)
(0.0153908 0.00027946 -1.6959e-22)
(0.0151465 0.000162025 4.09945e-22)
(0.0149475 -5.53054e-05 2.32995e-21)
(0.0148234 -0.000358199 -1.27912e-21)
(0.0147793 -0.000706946 7.33408e-22)
(0.0147978 -0.00104964 3.90724e-21)
(0.0148382 -0.00133897 9.04371e-21)
(0.0148763 -0.00154849 5.13568e-21)
(0.0148636 -0.00168394 0)
(0.0147802 -0.00177027 5.39807e-21)
(0.0145935 -0.00184243 -1.60063e-20)
(0.0142847 -0.00193285 -9.29879e-22)
(0.0138435 -0.00206096 0)
(0.0132661 -0.0022173 -5.43836e-21)
(0.0125616 -0.00236407 0)
(0.0117296 -0.00239292 0)
(0.0109685 -0.00234287 -4.17341e-21)
(0.0103663 -0.00229811 -7.50755e-21)
(0.00979509 -0.00224039 0)
(0.0092363 -0.0021074 0)
(0.00875893 -0.00188095 2.39106e-21)
(0.00841094 -0.00157225 -2.39014e-21)
(0.00823638 -0.0012073 1.13621e-22)
(0.00825166 -0.000847056 1.80894e-22)
(0.00834454 -0.000561988 9.59606e-22)
(0.00841676 -0.000346023 -2.62723e-23)
(0.00845223 -0.000189524 4.59196e-23)
(0.00845736 -8.66047e-05 6.52299e-23)
(0.00843802 -2.58107e-05 6.44792e-22)
(0.00840122 6.76082e-06 1.29188e-23)
(0.00835441 2.27816e-05 -6.37395e-22)
(0.00830254 3.05962e-05 1.86015e-23)
(0.00824755 3.5622e-05 -2.89527e-22)
(0.00818927 4.13395e-05 3.07011e-22)
(0.00812627 4.96659e-05 -1.80858e-23)
(0.00805633 6.15095e-05 0)
(0.00797668 7.73503e-05 -1.86578e-23)
(0.00788395 9.77027e-05 -3.83663e-23)
(0.00777429 0.00012325 3.5195e-22)
(0.00764318 0.000154906 -3.1044e-22)
(0.00748497 0.000193665 3.81517e-22)
(0.00729284 0.000241139 -7.73631e-22)
(0.00705867 0.000299466 6.74499e-22)
(0.00677225 0.000371932 -2.30555e-22)
(0.00642049 0.000464313 -1.01731e-22)
(0.00598559 0.000587935 3.84584e-23)
(0.00544155 0.000766627 0)
(0.00474772 0.00105207 -1.51655e-22)
(0.00384086 0.00155421 6.02206e-23)
(0.00264047 0.00248325 0)
(0.00111773 0.00412301 -9.02395e-23)
(-0.000633188 0.00633985 1.81697e-22)
(-0.000545835 0.0060077 3.37693e-22)
(-0.000280302 -0.0022988 -4.14589e-23)
(-0.00103589 -0.0034066 0)
(-0.00117289 -0.00332385 0)
(-0.00101664 -0.00293259 -9.01003e-24)
(-0.000691751 -0.00250383 -2.86965e-24)
(-0.000286115 -0.00211472 -3.88529e-23)
(0.00015462 -0.00178972 3.91314e-23)
(0.000595382 -0.00152746 -3.62126e-23)
(0.0010184 -0.00131678 0)
(0.00141539 -0.00114653 5.7882e-23)
(0.00178351 -0.00100773 0)
(0.00212273 -0.000893446 3.13306e-24)
(0.00243444 -0.00079843 0)
(0.0027207 -0.000718765 9.54519e-23)
(0.00298384 -0.00065157 0)
(0.00322624 -0.000594731 0)
(0.00345024 -0.00054672 1.25965e-22)
(0.00365813 -0.000506466 7.02022e-22)
(0.00385214 -0.000473273 -1.78728e-21)
(0.00403452 -0.000446771 1.21819e-21)
(0.00420757 -0.000426887 0)
(0.00437372 -0.000413843 -1.36136e-21)
(0.0045356 -0.000408173 1.5401e-21)
(0.00469614 -0.000410764 2.11841e-22)
(0.00485872 -0.000422935 0)
(0.00502726 -0.000446552 2.07481e-21)
(0.00520639 -0.00048421 -2.05075e-21)
(0.00540162 -0.0005395 0)
(0.00561907 -0.000617526 -2.49827e-21)
(0.00586807 -0.000724985 2.4732e-21)
(0.00616669 -0.000872223 -2.76954e-21)
(0.00644586 -0.00110744 5.43936e-21)
(0.00663913 -0.00146675 8.73212e-21)
(0.00674741 -0.00196196 3.09047e-21)
(0.00681321 -0.0025969 -4.10774e-22)
(0.00685671 -0.0033827 4.16877e-22)
(0.00689116 -0.0043183 9.01485e-21)
(0.00686207 -0.00538655 3.37983e-23)
(0.00674279 -0.00649445 -2.57669e-21)
(0.00658971 -0.00755857 5.63139e-21)
(0.00644013 -0.00854186 -2.41437e-21)
(0.00627806 -0.00941501 2.92905e-21)
(0.00609712 -0.0101529 -2.23921e-20)
(0.00589816 -0.0107418 -8.51399e-21)
(0.00567483 -0.0111754 -2.65647e-21)
(0.00541709 -0.011453 0)
(0.00511432 -0.0115802 -8.12877e-22)
(0.00475275 -0.0115659 -1.70826e-20)
(0.00431904 -0.0114185 -7.2725e-21)
(0.0038062 -0.0111495 -9.30991e-22)
(0.00321253 -0.0107686 -1.21931e-20)
(0.0025451 -0.0102866 0)
(0.00181552 -0.00971227 4.79942e-21)
(0.00104137 -0.00903548 -1.53431e-22)
(0.000270342 -0.00825428 -1.48123e-22)
(-0.000448366 -0.00735086 -2.2784e-22)
(-0.00102998 -0.006322 4.62537e-22)
(-0.00136347 -0.00514579 -1.58471e-21)
(-0.00133338 -0.00383931 4.10657e-22)
(-0.000722092 -0.00243383 8.65858e-22)
(0.000612322 -0.0010069 -3.56595e-21)
(0.00279323 0.000313339 -1.03711e-21)
(0.00547237 0.00125564 -1.06497e-20)
(0.00819032 0.00175954 1.04482e-20)
(0.0105463 0.0018401 -1.67896e-20)
(0.0123733 0.00169291 -1.56104e-21)
(0.0136827 0.00142511 9.67794e-21)
(0.0145657 0.00114134 1.13822e-21)
(0.0151392 0.000893337 9.41168e-21)
(0.0155073 0.000695682 -1.16972e-20)
(0.0157459 0.000546133 -7.64644e-21)
(0.0159037 0.000436311 0)
(0.0160102 0.000356851 -9.41712e-21)
(0.016083 0.00030013 -8.20794e-21)
(0.0161326 0.000260613 -1.11657e-21)
(0.0161655 0.000234401 1.74489e-20)
(0.0161855 0.000218739 -9.8096e-21)
(0.0161943 0.000212955 1.04248e-21)
(0.0161927 0.000215304 -7.60883e-21)
(0.0161819 0.000224445 7.63108e-21)
(0.016162 0.000239849 -7.11017e-21)
(0.0161296 0.000263539 6.152e-21)
(0.0160825 0.000293091 -5.50769e-21)
(0.0160168 0.000330513 0)
(0.0159281 0.000372801 -1.13682e-22)
(0.0158066 0.000420525 -5.30726e-23)
(0.0156467 0.000464696 7.42691e-22)
(0.0154526 0.000488737 0)
(0.0152385 0.000467288 -1.56109e-23)
(0.0150366 0.000369785 -5.69923e-22)
(0.0148885 0.000178162 2.45796e-22)
(0.0148205 -0.000100788 -3.26632e-21)
(0.0148355 -0.000433841 -3.40726e-21)
(0.0149103 -0.000773579 4.50485e-21)
(0.0150069 -0.00107088 2.40163e-22)
(0.0150875 -0.00129257 -5.43956e-21)
(0.0151102 -0.00143033 -6.29886e-21)
(0.0150567 -0.00150002 -3.95649e-22)
(0.0149136 -0.00153319 -6.38784e-21)
(0.0146812 -0.00156594 1.36912e-20)
(0.0143686 -0.00163007 0)
(0.0139898 -0.00174868 0)
(0.013557 -0.00193184 0)
(0.0130764 -0.00217526 6.74528e-21)
(0.0125495 -0.00246384 4.02837e-22)
(0.0119724 -0.00277583 -1.99912e-22)
(0.0113382 -0.00308645 -5.45614e-22)
(0.0106446 -0.00337139 5.3074e-21)
(0.00989367 -0.00360826 5.46933e-21)
(0.00908994 -0.00377529 0)
(0.00823889 -0.00384908 0)
(0.00736569 -0.00381319 0)
(0.006487 -0.00366419 0)
(0.00562522 -0.00339576 -1.33214e-21)
(0.00482235 -0.00301714 -3.63013e-22)
(0.00413551 -0.00252519 0)
(0.00368119 -0.00191386 6.30808e-23)
(0.00361929 -0.00119169 0)
(0.00410252 -0.000373456 0)
(0.00532716 0.000479371 0)
(0.00715721 0.00117202 0)
(0.00922602 0.00157685 2.73455e-22)
(0.0111303 0.00168598 -8.25697e-21)
(0.0126803 0.00157572 -2.66449e-22)
(0.0138186 0.00136139 9.44001e-21)
(0.0145972 0.00112729 -1.02294e-20)
(0.0151153 0.000914869 1.03907e-20)
(0.0154584 0.000739504 0)
(0.0156863 0.000603623 -1.00778e-20)
(0.0158396 0.000502006 8.91031e-21)
(0.0159443 0.000427177 -6.97878e-21)
(0.0160165 0.000373114 9.39157e-21)
(0.0160654 0.000335294 -5.17678e-22)
(0.0160971 0.000310701 -1.17653e-21)
(0.0161148 0.00029727 5.2427e-22)
(0.0161209 0.00029281 6.46111e-21)
(0.016117 0.000296084 2.7848e-21)
(0.0161037 0.000305825 8.45951e-21)
(0.0160794 0.000323311 1.84901e-21)
(0.0160417 0.000347249 -8.66493e-21)
(0.0159912 0.000375404 -1.28083e-20)
(0.0159214 0.000411 -6.77074e-21)
(0.0158283 0.000449488 1.31723e-21)
(0.0157053 0.000490668 1.02933e-21)
(0.0155454 0.000526979 -7.08389e-22)
(0.0153506 0.000542626 2.73058e-22)
(0.0151326 0.000512877 4.80117e-23)
(0.0149196 0.000405336 -3.69639e-23)
(0.014753 0.000197775 0)
(0.0146629 -0.000105233 -2.35941e-21)
(0.0146542 -0.000469999 -2.03254e-21)
(0.014705 -0.000845451 0)
(0.0147759 -0.00118059 -2.88461e-21)
(0.014827 -0.00143961 -5.49388e-21)
(0.0148106 -0.00161265 3.40085e-21)
(0.0147072 -0.0017165 -3.65667e-21)
(0.0144963 -0.0017819 -6.78235e-21)
(0.0141667 -0.00184059 6.90495e-21)
(0.0137126 -0.00191489 5.59605e-21)
(0.0131455 -0.00201074 -6.4938e-21)
(0.0124877 -0.00210964 6.97767e-21)
(0.0117693 -0.0021697 -5.16116e-21)
(0.0110029 -0.00214632 -1.32077e-21)
(0.0103402 -0.00208335 7.1462e-21)
(0.00978885 -0.00202902 0)
(0.00926331 -0.00195281 -4.75853e-21)
(0.00876232 -0.0018147 -1.16579e-21)
(0.00832606 -0.00160972 -2.34399e-21)
(0.00797642 -0.00135171 2.17077e-21)
(0.00772916 -0.0010601 -9.72009e-22)
(0.00759212 -0.000768267 9.89411e-22)
(0.00752067 -0.000518069 0)
(0.00746533 -0.000315314 4.79767e-23)
(0.0074098 -0.000160776 6.65108e-22)
(0.00735011 -5.44194e-05 -7.57551e-22)
(0.00728356 1.09531e-05 -6.42919e-22)
(0.00721019 4.70407e-05 5.64515e-22)
(0.00713213 6.52952e-05 -3.0156e-22)
(0.00705121 7.48163e-05 3.01474e-22)
(0.00696799 8.20631e-05 0)
(0.00688188 9.1181e-05 -3.29435e-22)
(0.0067914 0.000104624 2.9255e-22)
(0.00669437 0.000123816 -3.37221e-22)
(0.00658785 0.000149775 3.00291e-22)
(0.00646812 0.000183585 3.94549e-23)
(0.00633059 0.000226617 -4.08565e-23)
(0.00616959 0.000280618 0)
(0.0059782 0.000347742 0)
(0.005748 0.000430906 -5.04517e-23)
(0.00546883 0.000533923 0)
(0.00512826 0.000662367 0)
(0.00471091 0.000825425 1.38645e-22)
(0.00419733 0.00103976 0)
(0.00356259 0.00133755 0)
(0.00277568 0.0017817 4.22102e-22)
(0.00180607 0.00248778 -2.19027e-22)
(0.000655448 0.00362496 0)
(-0.000537707 0.005256 0)
(-0.00133996 0.00655735 -2.84186e-23)
(-0.000514378 0.00496892 -2.02514e-22)
(-0.00018332 -0.00174443 2.7827e-23)
(-0.000788704 -0.00299992 -2.42539e-23)
(-0.00108352 -0.0032177 -1.05919e-23)
(-0.00114974 -0.00303722 1.95804e-23)
(-0.00103869 -0.0027391 2.96513e-23)
(-0.000821578 -0.00242675 -2.01455e-23)
(-0.000538253 -0.00214039 0)
(-0.000222845 -0.00189021 3.6213e-23)
(0.000102872 -0.00167597 0)
(0.000425367 -0.00149355 2.94507e-22)
(0.000736904 -0.0013382 -2.3872e-22)
(0.00103335 -0.00120555 7.50396e-23)
(0.00131283 -0.00109185 3.50364e-22)
(0.0015749 -0.000994076 -2.58109e-22)
(0.00181996 -0.000909817 9.93425e-23)
(0.00204892 -0.000837229 0)
(0.002263 -0.000774931 1.19371e-22)
(0.00246363 -0.000721952 -4.26982e-22)
(0.00265239 -0.000677683 1.76373e-21)
(0.00283103 -0.000641855 -1.20254e-21)
(0.00300144 -0.000614538 -1.25222e-21)
(0.00316573 -0.000596143 1.40952e-21)
(0.0033263 -0.000587464 0)
(0.00348588 -0.000589729 -2.1721e-22)
(0.00364766 -0.000604687 0)
(0.00381538 -0.000634731 2.50211e-22)
(0.00399342 -0.000683074 2.18013e-21)
(0.00418691 -0.000753999 1.601e-22)