/*--------------------------------*- C++ -*----------------------------------*\
| =========                 |                                                 |
| \\      /  F ield         | OpenFOAM: The Open Source CFD Toolbox           |
|  \\    /   O peration     | Version:  2506                                  |
|   \\  /    A nd           | Website:  www.openfoam.com                      |
|    \\/     M anipulation  |                                                 |
\*---------------------------------------------------------------------------*/
FoamFile
{
    version     2.0;
    format      ascii;
    arch        "LSB;label=32;scalar=64";
    class       volVectorField;
    location    "2.55";
    object      vorticityField;
}
// * * * * * * * * * * * * * * * * * * * * * * * * * * * * * * * * * * * * * //

dimensions      [0 0 -1 0 0 0 0];

internalField   nonuniform List<vector> 
4000
(
(5.07962e-19 1.27311e-19 41.6656)
(8.53489e-20 9.189e-20 45.272)
(1.83087e-19 5.52225e-19 39.6299)
(6.04184e-19 8.22839e-19 34.3656)
(-7.97908e-19 9.79493e-19 31.0159)
(5.53196e-20 1.14122e-20 28.6861)
(5.21948e-19 1.03607e-18 26.8691)
(-8.08032e-20 1.16663e-18 25.4135)
(-1.01201e-19 3.86178e-20 24.222)
(-6.15455e-20 -5.84338e-19 23.2193)
(5.1453e-19 2.75548e-17 22.3572)
(-2.11446e-18 -5.04177e-17 21.6044)
(1.37734e-18 2.34631e-17 20.9388)
(-1.37551e-18 -2.56069e-17 20.3438)
(2.07174e-18 2.48294e-17 19.8066)
(-1.58924e-18 1.2253e-18 19.3176)
(1.31294e-18 2.63422e-17 18.8684)
(-1.69831e-18 -2.49515e-17 18.4523)
(-9.70283e-19 6.92058e-19 18.0632)
(1.62337e-18 5.01791e-20 17.6953)
(-1.2389e-19 5.19044e-20 17.3433)
(-2.21866e-18 -1.30569e-18 17.0013)
(2.07248e-18 -1.40139e-18 16.6634)
(2.23559e-18 1.85605e-20 16.3226)
(-2.36498e-18 -1.30907e-18 15.971)
(-1.54745e-19 -1.44206e-18 15.5985)
(-2.9497e-18 -8.26949e-20 15.192)
(3.64721e-19 -3.07954e-18 14.7344)
(9.38337e-18 5.54185e-17 14.2016)
(-3.30177e-18 -5.03549e-17 13.5207)
(-4.55757e-18 5.04202e-18 12.5855)
(-1.16302e-17 -1.30876e-16 11.8374)
(6.76985e-18 1.38554e-16 11.7725)
(-1.63043e-17 -6.42469e-17 12.4696)
(1.08873e-17 -2.51057e-16 13.8292)
(1.49761e-16 9.94755e-16 15.7705)
(3.11584e-17 3.77734e-17 17.9854)
(-6.61982e-17 -1.56061e-16 21.904)
(-6.62541e-19 -4.58683e-17 28.1142)
(1.92315e-17 5.46179e-17 34.8542)
(-6.41665e-17 -1.85927e-16 41.4279)
(2.43983e-16 6.45988e-16 47.484)
(-2.55287e-18 1.37218e-17 52.8979)
(4.21974e-16 3.76963e-16 57.6112)
(-1.9948e-16 -9.82169e-17 61.5531)
(6.56053e-18 4.0983e-16 64.725)
(2.88279e-17 1.41088e-16 67.0319)
(-4.95043e-17 -4.50074e-16 68.6212)
(-3.4915e-16 -2.63711e-16 69.5943)
(-2.28694e-16 -1.91333e-16 70.1473)
(-3.7458e-17 -7.40277e-17 70.4046)
(4.44309e-18 8.39626e-18 70.1093)
(1.58342e-17 -2.58011e-17 69.8349)
(3.48694e-17 4.36618e-16 68.9896)
(-1.09669e-16 4.15585e-16 67.5752)
(-1.95168e-17 -3.77998e-16 64.8737)
(-5.5819e-17 -8.24818e-17 61.0145)
(1.17007e-17 1.28413e-17 55.408)
(-1.47193e-18 3.22654e-18 47.9497)
(2.67241e-18 -3.65213e-17 39.8999)
(1.25293e-17 -7.80313e-17 32.3797)
(3.05635e-17 1.6252e-16 25.7904)
(-2.36284e-17 4.53832e-16 20.3567)
(4.37102e-17 -3.98793e-16 16.3439)
(5.93346e-19 1.27704e-17 13.2311)
(-2.53858e-18 2.2213e-18 10.9705)
(3.95784e-19 -3.55755e-18 9.25567)
(1.00055e-17 -1.17523e-16 7.93791)
(2.1838e-17 -9.34469e-16 6.93283)
(4.30809e-17 -4.9774e-16 6.13679)
(-1.46973e-18 5.41103e-17 5.48664)
(-4.72806e-17 4.55634e-16 4.9404)
(9.20619e-19 -4.46903e-16 4.47789)
(-1.06852e-17 4.37571e-17 4.07945)
(-3.30521e-17 4.34448e-16 3.72996)
(2.05766e-17 -4.58421e-16 3.41879)
(4.06625e-17 -4.65205e-16 3.13886)
(8.47417e-18 -3.62985e-16 2.88645)
(-1.8122e-18 2.44207e-17 2.66585)
(-1.57686e-17 1.52189e-17 2.46631)
(1.33989e-17 1.37384e-17 2.28628)
(-1.13025e-17 3.25376e-16 2.13161)
(3.95473e-19 -2.37425e-17 2.01514)
(7.76979e-18 -2.7757e-16 1.9268)
(4.65223e-19 2.72711e-16 1.88547)
(-4.78481e-20 -6.5176e-18 1.89871)
(4.9173e-20 -1.23732e-19 1.99263)
(5.21825e-20 1.20759e-17 2.14998)
(3.47182e-19 4.93843e-17 2.36198)
(2.24111e-18 -1.02908e-16 2.63891)
(-1.29724e-19 -2.53494e-18 2.97586)
(9.21496e-18 -1.91232e-17 3.37715)
(9.35469e-18 -1.12878e-17 3.75227)
(-1.23007e-17 -3.09778e-17 4.06406)
(3.1214e-17 3.45852e-16 4.17068)
(1.76562e-17 3.42249e-16 4.07846)
(3.38441e-17 4.22997e-16 3.83587)
(2.0906e-17 4.18182e-17 3.5596)
(1.32396e-17 3.56177e-16 3.35689)
(1.48417e-17 4.50039e-16 3.37065)
(-7.93524e-19 -1.02373e-17 3.7229)
(5.09807e-17 4.40657e-16 4.47167)
(5.19032e-17 9.54983e-16 5.62544)
(3.64356e-18 6.12758e-17 7.15854)
(6.1288e-17 4.5119e-16 9.01887)
(2.0712e-18 7.10811e-17 11.1566)
(-2.62806e-17 -3.63879e-16 13.5547)
(-2.98611e-17 -3.87259e-16 16.208)
(1.89141e-17 -3.48731e-17 19.1059)
(2.49683e-17 4.5151e-17 22.3091)
(-8.30917e-17 -3.64206e-16 25.8532)
(5.72762e-17 2.64062e-16 29.2832)
(7.09506e-19 -8.27512e-18 32.8355)
(9.03214e-17 6.6504e-16 35.5155)
(8.23041e-18 2.13195e-16 37.2233)
(2.74886e-17 3.16721e-16 37.3847)
(4.65738e-20 7.65907e-18 35.5529)
(-1.85807e-19 9.62736e-17 32.0118)
(1.06918e-18 -1.02433e-17 27.6954)
(7.058e-21 -1.32599e-19 23.1582)
(-1.5985e-18 -2.03364e-18 19.1162)
(3.94119e-17 -3.44707e-16 15.8618)
(-2.13457e-17 4.88304e-16 13.3058)
(-2.36211e-19 2.76605e-17 11.2906)
(-3.15392e-17 3.38628e-16 9.67684)
(4.90469e-17 -8.76767e-16 8.43679)
(-4.44728e-17 5.04179e-16 7.44692)
(-7.19189e-19 -4.60269e-16 6.62904)
(-2.80504e-17 8.37494e-17 5.9525)
(1.91677e-17 -4.04188e-16 5.38739)
(1.05014e-18 5.73899e-17 4.9044)
(-4.58996e-17 4.85254e-16 4.48409)
(3.4226e-17 -1.2267e-16 4.11257)
(-2.94798e-17 5.01961e-16 3.78164)
(-1.77092e-17 -1.35177e-17 3.48647)
(-2.42847e-18 -2.30251e-17 3.21974)
(1.98571e-17 -3.682e-16 2.97659)
(-2.23511e-17 3.78801e-16 2.75174)
(1.42086e-18 -2.28668e-17 2.55288)
(1.14346e-17 6.61747e-18 2.38564)
(-9.23957e-18 3.06663e-16 2.2323)
(2.11242e-18 -7.27758e-17 2.11601)
(-1.90536e-17 3.34523e-16 2.03881)
(1.31441e-18 -1.60679e-17 2.01097)
(1.29361e-18 -1.8122e-16 2.06107)
(1.51882e-18 -1.13304e-16 2.19248)
(1.02431e-18 8.78489e-17 2.40608)
(-1.10135e-18 -6.03299e-17 2.70465)
(2.16989e-18 -1.91753e-18 3.08038)
(4.26248e-18 6.67173e-17 3.57262)
(3.27341e-18 2.41992e-17 4.09709)
(-2.45757e-17 -4.93111e-16 4.57294)
(5.09695e-18 5.98139e-17 4.89684)
(8.38389e-18 3.43855e-17 5.06056)
(1.37855e-17 3.09124e-16 5.00073)
(1.45561e-17 1.2251e-16 4.84972)
(-3.67876e-18 1.66689e-18 4.73812)
(-2.59821e-17 -2.85262e-17 4.83269)
(1.64931e-17 7.30672e-17 5.29018)
(-5.04541e-17 -9.62425e-16 6.25509)
(6.16715e-19 2.58119e-17 7.8984)
(4.53523e-17 4.51082e-16 10.2778)
(1.77074e-17 4.71361e-16 13.8461)
(7.13211e-18 4.22027e-17 15.1606)
(-3.48403e-17 -3.98782e-16 17.085)
(-4.77398e-17 -6.33203e-16 18.7835)
(-6.83218e-18 -2.82039e-17 20.2723)
(-9.39886e-18 -6.15091e-17 21.3054)
(-1.17616e-17 -2.27195e-16 21.5634)
(-4.875e-18 -6.74087e-17 20.7396)
(-2.16442e-18 -1.85365e-18 19.2856)
(-5.43542e-21 -8.81142e-19 18.2481)
(-1.08249e-18 -8.38278e-21 17.7932)
(1.04316e-18 -8.70061e-19 17.6253)
(6.93296e-20 -5.77599e-19 17.5343)
(1.39714e-20 -6.46771e-17 17.4589)
(1.22945e-19 6.38065e-17 17.3896)
(-1.37293e-19 3.18868e-17 17.3277)
(-3.81603e-20 -3.22001e-17 17.282)
(-2.80024e-20 3.01959e-17 17.2627)
(2.09824e-19 -6.31851e-17 17.2791)
(-1.53268e-19 3.04391e-17 17.3373)
(-3.87428e-19 -1.43063e-19 17.4402)
(3.98295e-19 -8.26811e-19 17.5899)
(-4.24208e-20 3.78055e-19 17.7851)
(1.23419e-18 -3.05568e-17 18.0246)
(-1.28013e-18 2.91064e-17 18.3109)
(1.64962e-18 -2.94613e-17 18.6486)
(-1.6756e-18 2.89132e-17 19.0449)
(9.83893e-19 -1.54642e-17 19.5118)
(-1.03399e-18 1.40591e-17 20.0671)
(6.65926e-20 -1.13752e-18 20.7358)
(-8.82476e-20 -6.87002e-19 21.5562)
(-9.21206e-19 -1.25981e-20 22.5905)
(1.05541e-18 -7.05269e-19 23.9511)
(-1.33623e-19 -1.16565e-18 25.8587)
(8.57322e-19 -5.5984e-18 28.8081)
(-6.87146e-19 6.74079e-18 34.0278)
(-7.97897e-21 -7.52489e-19 42.1741)
(-2.42342e-20 -5.57353e-20 39.7494)
(-9.68236e-20 -3.22473e-19 -1.95096)
(1.36389e-20 -1.16516e-19 12.4453)
(-7.38649e-20 -8.97159e-19 15.4623)
(1.16321e-18 1.91097e-18 15.8312)
(-2.19475e-18 -6.48997e-18 15.4605)
(8.16277e-19 -1.99788e-18 14.8201)
(1.29254e-19 4.09509e-18 14.1367)
(-1.8276e-19 -1.75092e-18 13.4931)
(-5.75486e-20 -1.26933e-18 12.904)
(1.55042e-19 -1.28699e-18 12.367)
(-7.37176e-19 -2.0038e-18 11.8778)
(9.74619e-19 -1.73876e-17 11.4321)
(-8.35389e-19 1.62124e-17 11.0256)
(1.99539e-18 -1.65032e-17 10.6543)
(-7.1746e-19 3.13081e-17 10.3148)
(7.4839e-20 -3.52114e-17 10.0037)
(-8.86733e-19 1.40736e-17 9.71843)
(5.15509e-19 -1.72918e-17 9.45625)
(1.80337e-18 -2.32116e-17 9.21475)
(-1.11828e-18 3.16681e-17 8.99159)
(-3.26088e-19 1.64498e-18 8.78446)
(1.51916e-19 -3.849e-17 8.59094)
(-1.20153e-18 3.27547e-17 8.40839)
(2.35414e-18 3.86775e-17 8.23377)
(1.84251e-18 -3.26615e-17 8.06344)
(-2.14633e-18 -5.82644e-21 7.89297)
(-3.75639e-18 -3.77045e-17 7.71675)
(4.04478e-18 -7.96195e-18 7.52754)
(-1.04607e-18 7.64819e-17 7.31557)
(2.03881e-18 1.27227e-17 7.06603)
(-2.23675e-18 -3.47089e-17 6.72367)
(3.39973e-18 -2.97815e-17 6.18249)
(-1.11413e-17 -1.0098e-16 5.60507)
(-7.8751e-18 -2.4866e-16 5.11277)
(-4.54153e-17 -2.03071e-16 4.71589)
(-1.15337e-16 -3.10303e-16 4.3626)
(1.56993e-17 -6.37191e-17 4.06927)
(8.60869e-17 2.02648e-16 3.88621)
(-1.71141e-17 3.31846e-17 3.81631)
(-1.49046e-16 -1.13026e-16 3.90592)
(-1.27714e-16 -8.36433e-17 4.26329)
(-2.71051e-16 -3.31401e-16 4.82616)
(-3.91298e-17 8.55388e-18 5.51701)
(-5.84079e-16 -5.60625e-16 6.29005)
(3.00284e-16 1.92182e-16 7.11107)
(-3.56749e-16 -2.00035e-16 7.94314)
(2.88102e-16 5.80007e-17 8.76978)
(7.20968e-18 5.72498e-17 9.5951)
(9.79648e-18 4.33876e-17 10.4335)
(3.00322e-16 2.50187e-16 11.2459)
(-3.20298e-16 -7.91105e-17 12.019)
(3.45634e-17 -6.62312e-17 12.7875)
(2.86874e-16 9.24949e-17 13.7302)
(-9.62554e-17 -3.94841e-17 14.9842)
(2.24757e-16 1.06709e-16 16.5629)
(1.35861e-17 2.45823e-17 18.5461)
(6.28607e-17 5.10198e-17 20.7985)
(-2.55629e-17 -1.4295e-17 23.2746)
(-4.98487e-19 -7.14837e-18 25.2004)
(-3.32639e-18 1.55951e-17 25.7541)
(-1.44273e-17 1.08621e-16 24.7407)
(-3.39786e-17 2.68826e-16 22.3355)
(-6.99535e-17 2.59762e-16 19.2324)
(-4.56977e-17 3.74566e-16 16.4592)
(-5.34355e-18 -5.22137e-17 13.731)
(9.50634e-18 3.74945e-17 11.5491)
(3.16898e-19 -2.61953e-18 9.80753)
(-9.1125e-18 6.24676e-17 8.40866)
(-7.88127e-17 8.67086e-16 7.31159)
(-1.31743e-17 -4.25502e-16 6.44484)
(-1.31301e-18 1.13686e-17 5.75159)
(-1.11324e-17 5.34248e-16 5.18095)
(-5.31976e-17 3.96103e-16 4.70449)
(-3.81717e-17 4.90361e-16 4.29899)
(2.79193e-17 -1.01746e-16 3.94657)
(3.39221e-18 -5.45466e-17 3.63397)
(-2.94149e-17 -3.49653e-16 3.35436)
(-2.8486e-17 4.35308e-16 3.09411)
(1.83302e-19 1.77722e-17 2.86053)
(8.46545e-18 3.0722e-16 2.64438)
(-7.21736e-18 -3.34499e-16 2.44575)
(1.07017e-17 9.47295e-18 2.24863)
(5.17028e-20 -3.44258e-20 2.07801)
(-7.53076e-18 -3.28659e-18 1.90035)
(1.01782e-17 -2.61528e-16 1.73195)
(-3.44887e-19 1.47666e-17 1.52871)
(7.63049e-19 -1.46628e-17 1.28467)
(-3.93e-19 1.54386e-17 0.958978)
(-9.2711e-19 -2.02875e-17 0.557229)
(5.40506e-19 2.51923e-16 0.145199)
(-1.30467e-18 -9.64905e-18 -0.191411)
(-1.26462e-17 -5.63732e-18 -0.387811)
(5.5132e-18 2.9495e-16 -0.454262)
(4.92618e-18 -3.13741e-16 -0.427952)
(3.62421e-18 3.38069e-16 -0.368817)
(-4.91765e-17 -3.74135e-16 -0.23236)
(-3.53799e-17 2.58534e-16 -0.0585515)
(-6.47314e-18 4.22604e-16 0.0544668)
(-3.53247e-17 -3.69955e-16 0.130912)
(-1.61912e-17 -4.34565e-16 0.207378)
(6.39486e-19 -5.95162e-17 0.284926)
(-3.11815e-17 3.94338e-16 0.400302)
(-7.79387e-17 -4.62954e-16 0.563834)
(2.28097e-17 6.92533e-18 0.796314)
(-4.97647e-17 -8.55929e-17 1.11586)
(-2.19636e-18 -6.79745e-17 1.5314)
(9.02991e-17 7.33084e-16 2.03988)
(1.38202e-16 8.50885e-16 2.62578)
(7.90867e-17 3.97928e-16 3.28268)
(5.36299e-17 2.90433e-16 4.02397)
(1.1319e-16 4.27796e-16 4.85046)
(-1.78309e-16 -5.66353e-16 5.72997)
(3.75741e-18 -9.92829e-18 6.7027)
(-1.31372e-16 -2.77325e-16 8.00635)
(7.07637e-19 8.61364e-18 9.76876)
(-3.17023e-17 -1.00557e-16 11.9305)
(-2.34867e-18 -1.34832e-17 14.3969)
(1.41322e-18 -3.49218e-17 16.5736)
(8.75357e-19 -5.9795e-18 17.7563)
(-1.00658e-18 6.61576e-18 17.6548)
(2.84631e-19 1.53181e-17 16.4406)
(-5.66695e-17 3.62439e-16 14.7826)
(1.81722e-17 -2.22731e-17 12.9453)
(5.61132e-18 -5.9595e-17 11.325)
(7.24951e-17 -3.99362e-16 9.87371)
(-9.62318e-17 5.38241e-16 8.66538)
(1.29851e-17 3.54639e-16 7.67298)
(-7.74027e-17 8.70618e-16 6.84576)
(-6.9661e-17 8.05444e-16 6.15502)
(-2.13025e-17 3.24146e-16 5.57759)
(-6.559e-18 5.64089e-17 5.08768)
(2.31395e-18 2.8412e-16 4.66466)
(5.03932e-17 -8.17326e-16 4.2934)
(2.48276e-17 1.46296e-16 3.96102)
(-2.12969e-17 2.64017e-16 3.66161)
(-6.60387e-18 -1.36595e-17 3.38838)
(-9.36371e-19 -6.45629e-20 3.13489)
(3.50757e-17 -6.18481e-17 2.90008)
(2.25573e-18 -9.01306e-17 2.67291)
(1.36791e-18 -2.09076e-16 2.46633)
(2.32507e-18 -5.83946e-17 2.27176)
(9.94759e-19 7.40006e-18 2.07244)
(5.18489e-18 1.04797e-16 1.88852)
(6.50674e-18 -1.20966e-16 1.68306)
(-8.63695e-18 1.79757e-16 1.45733)
(-1.99607e-18 -4.06629e-18 1.16544)
(1.81949e-19 5.63877e-17 0.774814)
(-1.623e-18 -6.05515e-17 0.35828)
(1.34224e-18 1.20437e-16 -0.0275568)
(-1.0119e-17 -2.43828e-18 -0.266751)
(3.65576e-18 2.28434e-18 -0.359686)
(1.47715e-17 1.09043e-17 -0.337479)
(-1.7508e-17 -5.07342e-17 -0.281561)
(2.10852e-17 7.55411e-16 -0.159889)
(-1.26606e-17 1.97903e-16 -0.00605965)
(2.64648e-18 1.08926e-16 0.117995)
(-1.58755e-17 -7.51877e-17 0.222311)
(1.55964e-17 -5.92667e-16 0.335685)
(6.21343e-18 1.46211e-16 0.4918)
(6.98334e-17 5.05721e-16 0.729854)
(1.68891e-17 6.78927e-17 1.08638)
(-5.26921e-17 -3.70076e-16 1.58218)
(-8.19348e-18 6.30572e-17 1.8908)
(1.62721e-17 2.96751e-17 1.68041)
(-1.24061e-17 -3.64321e-16 2.00933)
(6.61808e-17 2.85489e-16 2.44523)
(3.83771e-18 1.6188e-17 3.02056)
(-1.78652e-18 -2.87444e-18 3.77151)
(1.76126e-17 6.4185e-17 4.62618)
(5.35186e-18 5.44444e-17 5.56138)
(-2.53375e-18 -4.51182e-17 6.26896)
(-1.57655e-18 3.18736e-19 6.59189)
(-4.0072e-19 -5.17372e-17 6.70364)
(9.97248e-20 4.92792e-17 6.76238)
(3.38513e-20 2.84332e-18 6.8051)
(1.13232e-19 4.98534e-17 6.84392)
(-1.73888e-19 -3.92004e-19 6.8787)
(1.13693e-19 -2.58043e-17 6.91197)
(-1.81309e-20 -2.20955e-17 6.94877)
(-5.65951e-21 -2.30249e-17 6.99286)
(-1.38126e-19 2.3427e-17 7.04955)
(1.79052e-19 -3.39168e-19 7.1234)
(-1.46857e-19 2.30045e-17 7.21879)
(5.67592e-20 -2.40669e-17 7.33745)
(-6.21377e-20 -1.00551e-18 7.48133)
(3.74886e-19 -1.95408e-17 7.65176)
(-3.45979e-19 2.40726e-17 7.85104)
(4.52114e-19 -2.11497e-17 8.08319)
(-1.42958e-18 2.3604e-17 8.35511)
(1.27535e-18 -8.41593e-18 8.67512)
(-3.18364e-19 1.11575e-17 9.05805)
(-2.65933e-19 -6.9844e-19 9.5241)
(7.64234e-21 2.52977e-18 10.1061)
(-5.30063e-19 7.19731e-18 10.8578)
(1.44491e-19 -8.87263e-18 11.8695)
(-8.97244e-20 2.20118e-18 13.2858)
(-7.65356e-19 1.23845e-19 15.2685)
(1.03769e-18 -8.15025e-19 17.5033)
(3.9255e-19 6.22399e-19 16.2961)
(-4.27801e-19 -1.98317e-19 -2.74594)
(-2.99984e-19 3.81024e-19 -8.51952)
(-1.90874e-18 2.06819e-19 1.55182)
(9.90632e-19 -7.45846e-19 5.13237)
(-1.1852e-19 2.97333e-19 6.52618)
(1.19674e-19 -4.93643e-19 7.08068)
(1.87689e-18 2.01858e-18 7.24163)
(-2.3694e-18 -1.48824e-18 7.21774)
(5.99759e-19 5.53457e-19 7.10662)
(2.72996e-19 1.05207e-18 6.95151)
(5.38953e-19 2.83112e-18 6.77465)
(2.59202e-19 1.43788e-18 6.58934)
(1.26292e-18 4.19623e-18 6.40378)
(-1.68151e-18 -1.15923e-17 6.22293)
(2.80246e-18 2.32329e-17 6.04977)
(-2.27303e-18 -8.38375e-18 5.88605)
(2.50296e-18 1.34236e-17 5.73273)
(-1.37085e-18 -6.8204e-18 5.59019)
(3.62319e-19 2.27596e-18 5.45843)
(4.88831e-18 2.9608e-17 5.33717)
(-4.79684e-18 -2.21403e-17 5.226)
(3.82494e-19 -9.83463e-21 5.12432)
(4.00262e-18 7.32253e-18 5.03135)
(-5.15191e-18 -2.9947e-17 4.946)
(-7.65223e-19 2.51518e-17 4.86682)
(2.9574e-18 3.32478e-17 4.79185)
(-4.39875e-18 -1.80676e-17 4.71862)
(4.85665e-18 -3.46359e-17 4.64388)
(1.92616e-18 2.48103e-17 4.56337)
(-3.6003e-18 2.68822e-18 4.47124)
(-3.88149e-18 -4.77248e-20 4.36051)
(7.7704e-18 1.88722e-19 4.21006)
(-4.19302e-19 -1.85171e-17 3.95785)
(2.61801e-17 1.12616e-16 3.63791)
(5.64871e-17 2.27574e-16 3.28311)
(-3.46365e-17 -1.3407e-16 2.88282)
(4.77535e-17 2.85388e-17 2.41452)
(-1.1135e-16 -2.18467e-16 1.89891)
(2.02557e-17 -4.78948e-17 1.43893)
(1.60704e-16 1.75569e-16 1.08231)
(-3.31231e-17 -4.67142e-17 0.855011)
(4.42436e-16 3.57081e-16 0.827325)
(9.63068e-18 1.46891e-16 0.979065)
(-2.03762e-16 -4.39032e-17 1.27683)
(-1.75456e-16 -8.22324e-17 1.69189)
(1.76499e-17 -8.5868e-17 2.19508)
(2.56183e-16 2.46901e-16 2.74251)
(-6.38361e-16 -2.5336e-16 3.27532)
(-2.04969e-16 -1.12739e-16 3.81301)
(-5.52638e-17 -1.68117e-17 4.32961)
(-3.28922e-17 -5.09178e-17 4.85175)
(1.77309e-16 1.51311e-16 5.31853)
(-7.71325e-17 -8.30888e-18 5.72836)
(-7.288e-17 -8.68035e-17 6.10784)
(1.59525e-17 -1.92209e-17 6.57405)
(1.85627e-16 -8.75184e-18 7.21422)
(-7.18837e-17 4.93518e-17 8.07274)
(-8.64014e-17 2.16495e-18 9.2036)
(3.65324e-17 -2.29543e-17 10.6397)
(4.68028e-18 5.78832e-18 12.5377)
(2.31069e-19 6.53059e-19 14.3772)
(-7.14153e-18 9.59228e-18 15.765)
(1.48639e-17 -1.52978e-17 16.3018)
(5.33752e-18 -9.56552e-17 15.8975)
(1.124e-16 -2.05142e-16 14.5915)
(-7.82339e-17 2.24154e-16 12.9251)
(1.0789e-16 -3.14088e-16 11.317)
(-2.18201e-17 3.53355e-17 9.81766)
(2.84265e-18 -5.13013e-17 8.49082)
(1.60922e-16 -7.81614e-16 7.39229)
(-1.27686e-16 8.79128e-16 6.50045)
(2.17114e-17 -9.92255e-17 5.78267)
(6.51982e-17 -4.14047e-16 5.19714)
(1.88694e-17 -1.59908e-17 4.71323)
(-1.09566e-18 2.6959e-16 4.30511)
(3.84526e-17 -4.86692e-16 3.95233)
(-4.15172e-19 -2.31488e-16 3.63867)
(-7.2515e-17 8.07246e-16 3.35552)
(2.0779e-17 -9.38795e-17 3.08347)
(1.9321e-17 -7.51283e-17 2.82725)
(4.88119e-17 -6.03081e-16 2.57791)
(-4.67335e-17 6.66381e-16 2.33424)
(-1.12674e-17 -1.61424e-17 2.07155)
(9.71604e-18 -7.08893e-18 1.81282)
(3.86654e-19 -7.52635e-19 1.51879)
(-1.67918e-17 2.57447e-16 1.20131)
(3.42202e-19 -7.71941e-18 0.818827)
(1.22431e-18 -5.6077e-17 0.384971)
(3.34532e-20 8.02445e-20 -0.074222)
(8.81717e-19 -3.70782e-17 -0.503746)
(-7.46059e-18 -2.37082e-16 -0.805639)
(-1.29971e-18 -1.2756e-18 -0.951639)
(-1.84434e-17 -5.19987e-16 -0.932914)
(-1.57387e-17 -3.35932e-16 -0.762499)
(3.85359e-17 6.05721e-16 -0.502925)
(-1.57939e-17 6.10595e-17 -0.190754)
(1.09237e-17 -3.00029e-16 0.0783289)
(-2.98338e-17 -7.25272e-16 0.270753)
(-3.03323e-17 -4.40843e-16 0.384961)
(3.94454e-17 -1.05979e-17 0.444499)
(-4.6986e-18 3.78724e-16 0.45323)
(-2.2339e-19 5.74934e-17 0.408284)
(-4.34714e-17 -4.4183e-16 0.345993)
(2.62018e-17 -2.47065e-17 0.325756)
(1.06752e-17 4.05372e-16 0.36676)
(-4.0266e-17 -3.82686e-16 0.481763)
(1.83805e-18 2.69709e-17 0.666558)
(-1.7295e-16 -7.98478e-16 0.900939)
(-1.50748e-16 -5.11342e-16 1.15623)
(-5.24723e-17 -7.06747e-17 1.40826)
(-1.07633e-16 -3.54927e-16 1.64707)
(-3.05074e-17 -6.69898e-17 1.86711)
(1.37633e-16 2.98896e-16 2.11379)
(8.04765e-19 3.03593e-17 2.36565)
(-3.86866e-17 -1.7844e-16 2.69836)
(5.9124e-18 1.49546e-19 3.28253)
(5.87361e-18 1.68229e-18 4.20661)
(5.71093e-19 9.62312e-20 5.52435)
(-1.39493e-18 3.45936e-17 7.2265)
(-2.72193e-19 -2.47001e-19 9.09452)
(2.19306e-18 -4.90805e-18 10.7862)
(-4.38326e-18 1.20358e-17 11.6309)
(2.09512e-17 -1.9336e-17 11.5734)
(1.52803e-17 -1.07026e-17 10.9538)
(-2.45426e-18 -1.90007e-17 10.1876)
(5.58567e-17 -2.72247e-16 9.19402)
(-5.21435e-17 3.06452e-16 8.24694)
(1.44032e-16 -8.2372e-16 7.39859)
(1.06267e-16 -4.07963e-16 6.65331)
(5.3316e-17 -1.29833e-16 6.00938)
(6.68421e-17 -3.49467e-16 5.4596)
(1.15692e-17 2.45288e-17 4.98864)
(4.03008e-17 -4.05844e-16 4.57977)
(-1.31195e-17 1.78122e-18 4.21895)
(7.5815e-18 -8.71121e-18 3.89139)
(3.35522e-18 -6.95556e-17 3.58868)
(-2.37077e-17 8.23685e-17 3.3041)
(2.71785e-17 -3.68712e-16 3.02946)
(4.17899e-17 -6.04355e-16 2.76409)
(-5.48379e-19 6.18172e-17 2.48886)
(-1.03229e-17 3.07873e-16 2.21396)
(-1.18419e-17 3.06664e-16 1.93452)
(1.31935e-17 -9.43298e-17 1.62095)
(9.79319e-18 -1.89648e-16 1.2921)
(2.51266e-18 -1.04731e-16 0.908892)
(-6.67269e-19 1.13584e-16 0.477931)
(-1.72401e-18 2.47215e-17 0.0161852)
(-2.41451e-20 1.54514e-18 -0.432972)
(4.09736e-19 -1.69254e-16 -0.770387)
(-5.59218e-18 -1.15747e-16 -0.937019)
(-1.22298e-17 -3.36385e-16 -0.965086)
(1.41937e-17 1.39062e-16 -0.821696)
(-3.35505e-18 -5.71795e-17 -0.579601)
(-1.07548e-17 -2.94538e-16 -0.266647)
(-5.59866e-17 -7.11514e-16 0.0117787)
(-3.97883e-17 -4.19411e-16 0.221627)
(6.65336e-18 7.70792e-18 0.355892)
(-7.42898e-19 -4.37819e-16 0.427929)
(5.58089e-17 1.10911e-15 0.441969)
(-1.33175e-17 1.34743e-16 0.411519)
(-3.82309e-18 -2.12946e-17 0.382847)
(1.1374e-17 3.81957e-16 0.401427)
(3.49978e-17 5.67399e-17 0.480053)
(-3.29417e-18 -1.40668e-17 0.472318)
(1.60074e-18 2.01662e-16 0.460263)
(6.98043e-17 3.88862e-16 0.434822)
(-2.35088e-18 1.61814e-17 0.461503)
(3.4356e-18 5.27147e-18 0.525561)
(-4.63615e-18 -1.1436e-16 0.605908)
(-5.09915e-19 9.8535e-17 0.729099)
(-7.85745e-19 2.68885e-18 0.943534)
(-6.69166e-19 -2.85758e-18 1.14015)
(-8.37614e-19 -4.70608e-17 1.24356)
(8.2943e-19 3.67797e-19 1.29629)
(-1.71711e-18 -2.77977e-18 1.34763)
(7.81648e-19 -4.01648e-18 1.41957)
(-1.38797e-19 -4.48098e-17 1.51224)
(-1.97165e-19 -3.12971e-18 1.61734)
(2.68873e-19 4.57815e-17 1.72545)
(6.24221e-20 -1.15564e-18 1.83453)
(-2.46107e-19 2.15437e-17 1.94322)
(-1.67151e-20 -2.29401e-17 2.05052)
(2.27099e-19 1.53207e-18 2.15939)
(-6.57177e-20 7.18519e-21 2.27342)
(-8.14813e-22 1.42418e-18 2.39566)
(-8.06932e-20 1.87067e-18 2.52873)
(-6.40275e-20 -2.03013e-17 2.67581)
(1.84687e-19 1.7931e-17 2.84048)
(-5.72725e-20 -1.72187e-17 3.02689)
(-7.64416e-19 3.38151e-17 3.24061)
(8.69047e-19 -2.80074e-17 3.48927)
(1.8284e-19 9.90174e-18 3.78404)
(-1.57989e-20 2.31095e-18 4.14326)
(2.03876e-19 -1.21918e-18 4.59578)
(9.3897e-19 4.04861e-19 5.18792)
(-5.52267e-19 1.88907e-18 5.98629)
(-1.51643e-19 -1.00856e-18 7.05126)
(8.9e-20 2.88697e-19 8.26564)
(-7.12614e-19 -4.04148e-20 8.62014)
(1.44709e-18 -5.44286e-19 3.95442)
(1.91647e-18 1.03374e-18 -12.6715)
(-9.87761e-19 4.41824e-19 -7.78561)
(3.97289e-20 -3.19456e-19 -1.58467)
(-5.15985e-19 2.60431e-19 1.13512)
(-1.08909e-18 2.45239e-19 2.46306)
(6.5066e-19 -1.05642e-18 3.19889)
(2.01782e-18 1.0764e-18 3.63711)
(-1.52458e-18 -1.13112e-19 3.90475)
(6.07129e-19 -9.1585e-20 4.06666)
(-1.22535e-19 3.82582e-19 4.15897)
(-1.80638e-18 -1.5242e-18 4.20422)
(7.06097e-19 -1.69853e-19 4.21785)
(-2.8565e-19 -7.21636e-19 4.21056)
(-2.85628e-20 1.7289e-19 4.18973)
(-1.45063e-18 -2.25181e-18 4.16049)
(4.80693e-19 -1.72063e-19 4.1264)
(-9.16497e-19 1.81645e-19 4.08997)
(-5.67479e-20 -1.58991e-18 4.05288)
(-7.29625e-19 -1.49913e-17 4.01621)
(-1.48661e-18 2.99344e-17 3.98064)
(1.14051e-18 -1.71286e-17 3.94652)
(2.04584e-18 -3.49304e-18 3.91391)
(-9.76646e-19 2.06214e-17 3.88258)
(2.00585e-19 -1.94459e-17 3.85189)
(-2.12069e-18 -4.53569e-18 3.82076)
(-2.92081e-18 2.40728e-18 3.7876)
(1.45548e-19 -2.70528e-17 3.75026)
(2.46525e-18 2.08573e-17 3.70587)
(-2.89684e-18 -7.76369e-19 3.65059)
(1.83284e-18 2.88851e-17 3.57908)
(2.87378e-20 -2.59656e-17 3.48461)
(3.81414e-18 3.16919e-17 3.35448)
(-5.06186e-18 -3.27498e-17 3.15323)
(-3.31301e-17 -9.56364e-17 2.86906)
(-2.62755e-17 -5.6507e-17 2.48556)
(5.09628e-17 4.11777e-17 1.9903)
(-2.39459e-17 -1.56367e-17 1.39771)
(-1.44706e-17 -5.70478e-17 0.769962)
(9.26071e-18 -2.69698e-17 0.223239)
(-1.13787e-17 -2.65999e-17 -0.19247)
(-3.53489e-17 -3.77565e-18 -0.454969)
(-1.1315e-17 -5.84055e-17 -0.52358)
(-3.26699e-17 -9.04934e-17 -0.419375)
(5.70055e-16 2.8985e-16 -0.174805)
(2.11175e-16 1.93971e-16 0.180776)
(5.75667e-17 5.32195e-17 0.620563)
(1.06897e-18 7.96695e-18 1.12855)
(7.81829e-17 1.28078e-17 1.60245)
(6.74008e-16 2.4891e-16 2.05055)
(2.80233e-16 1.83688e-16 2.4704)
(3.5115e-17 -2.52651e-17 2.82815)
(5.50417e-16 1.33114e-16 3.12151)
(-2.48533e-18 1.01272e-16 3.35074)
(-2.82428e-16 -4.52708e-17 3.52918)
(-3.40482e-19 -3.29319e-17 3.70337)
(-3.65279e-17 -4.75435e-17 3.91339)
(1.18748e-16 -1.21323e-17 4.21856)
(5.63095e-17 9.7852e-18 4.70671)
(-6.23325e-17 2.92106e-17 5.35738)
(1.1592e-17 -1.31627e-17 6.32429)
(-2.95066e-18 1.41183e-18 7.56264)
(3.65151e-18 1.20804e-17 8.9328)
(6.34494e-18 -1.15568e-17 10.2533)
(9.28053e-17 -1.30831e-16 10.9281)
(-1.18706e-16 1.95269e-16 11.0278)
(1.99449e-16 -4.03333e-16 10.5801)
(-2.96972e-18 8.16881e-17 9.63056)
(-1.21516e-16 3.04374e-16 8.65233)
(-1.47057e-17 5.02301e-17 7.64134)
(-1.41152e-16 4.0729e-16 6.71098)
(1.47112e-16 -5.81031e-16 5.89615)
(5.31389e-17 -2.65039e-16 5.21302)
(-2.30792e-17 1.81223e-17 4.64725)
(6.29292e-17 -4.29431e-16 4.17878)
(6.00881e-17 -3.39604e-16 3.78547)
(-3.7679e-17 7.40052e-17 3.44713)
(-1.01545e-16 7.17478e-16 3.14554)
(8.81919e-17 -5.02626e-16 2.86963)
(-8.11547e-18 5.23198e-17 2.59764)
(2.70881e-17 -2.97404e-16 2.3295)
(-5.83979e-17 3.54312e-16 2.05639)
(6.67045e-17 -3.48373e-16 1.77486)
(-1.9384e-17 2.8225e-16 1.46214)
(1.66715e-17 -2.78678e-16 1.13427)
(-8.10296e-18 1.55157e-17 0.763722)
(6.88186e-18 -1.04125e-17 0.364689)
(1.92778e-19 -6.30346e-18 -0.0765095)
(-3.11565e-18 7.05535e-17 -0.5186)
(1.25627e-19 -1.66939e-18 -0.903872)
(1.42857e-18 6.84869e-17 -1.16539)
(7.86359e-18 1.22023e-16 -1.25929)
(-3.66939e-18 -4.06091e-17 -1.16652)
(3.39544e-17 3.02064e-16 -0.919995)
(1.01371e-17 2.96293e-16 -0.580778)
(-3.30624e-17 -3.08823e-16 -0.19181)
(-1.19791e-17 -4.06139e-17 0.172837)
(3.16018e-17 3.16292e-16 0.45049)
(3.26297e-17 3.9674e-16 0.642031)
(1.96027e-17 4.06283e-17 0.752543)
(-2.60737e-17 3.88575e-16 0.763179)
(-2.59114e-17 -7.50366e-16 0.702502)
(3.70736e-19 -5.20597e-17 0.621232)
(2.37671e-17 2.56649e-17 0.534311)
(-3.05237e-20 2.8333e-17 0.498095)
(-5.64812e-17 -4.12949e-16 0.528676)
(2.30013e-17 -2.67361e-17 0.625122)
(1.33728e-18 7.3582e-18 0.768585)
(5.67578e-17 9.63502e-17 0.927416)
(-1.34935e-17 -2.62571e-16 1.06813)
(-7.20783e-17 -3.53879e-16 1.1652)
(6.69606e-18 -1.76988e-17 1.20884)
(0 -0 1.19869)
(-8.99088e-18 -6.15477e-18 1.17129)
(-1.20259e-17 -1.28204e-17 1.11603)
(5.45865e-17 9.69328e-17 1.11279)
(1.76162e-17 8.11924e-17 1.1787)
(1.50615e-18 3.41164e-18 1.40202)
(6.99131e-20 3.71374e-18 1.84325)
(-1.48822e-20 6.30319e-20 2.61969)
(1.36059e-19 -3.55303e-20 3.71582)
(-5.85999e-19 2.36242e-19 5.15541)
(9.84852e-18 -4.66814e-18 6.47248)
(-3.78214e-18 -6.10138e-18 7.32712)
(8.17067e-17 -1.90299e-16 7.76054)
(4.59614e-18 2.50457e-17 7.64584)
(-1.163e-16 3.08905e-16 7.24952)
(1.19815e-16 -3.73635e-16 6.75067)
(-1.36672e-16 4.44327e-16 6.19897)
(-2.61531e-17 -2.72634e-17 5.6434)
(8.9901e-17 -3.65493e-16 5.12455)
(-6.08491e-17 3.41447e-16 4.65973)
(4.42558e-17 -2.42896e-16 4.24858)
(-7.277e-17 3.71729e-16 3.88337)
(1.42798e-17 -4.78394e-17 3.55466)
(-1.10404e-17 -2.23403e-17 3.24949)
(4.59201e-19 2.96562e-17 2.95788)
(-2.38223e-17 2.30643e-16 2.6734)
(-3.00911e-17 1.23536e-16 2.38715)
(-6.63522e-17 3.38795e-16 2.09708)
(-2.57795e-17 4.51163e-17 1.78513)
(4.99889e-17 -3.83505e-16 1.45587)
(4.53656e-17 -5.21419e-16 1.10932)
(1.81652e-17 -2.7524e-16 0.722619)
(-6.18818e-18 7.5037e-17 0.315965)
(-5.74738e-18 5.38456e-17 -0.120971)
(3.18249e-18 -5.79041e-17 -0.555985)
(-8.07288e-20 2.81731e-17 -0.940044)
(-1.26872e-18 -3.62135e-18 -1.20215)
(6.94106e-18 2.34148e-16 -1.30845)
(2.75198e-18 -5.16338e-18 -1.22524)
(2.80033e-17 3.31825e-16 -0.984805)
(3.34296e-18 2.2234e-16 -0.637393)
(1.70656e-18 -1.4974e-18 -0.254116)
(3.49775e-17 2.43332e-16 0.114584)
(5.54528e-17 4.86303e-16 0.407752)
(2.00213e-17 -2.36205e-16 0.604252)
(3.24402e-18 2.35905e-16 0.717989)
(3.78439e-17 5.43443e-16 0.72808)
(-6.4177e-17 -4.97429e-16 0.662859)
(-1.41071e-17 -4.45488e-16 0.558989)
(1.63595e-17 4.71906e-16 0.461486)
(-5.95686e-17 -5.07922e-16 0.408855)
(1.10853e-17 3.28848e-16 0.412774)
(2.83167e-17 1.45949e-16 0.39663)
(-6.42274e-17 -3.9921e-16 0.468121)
(-2.2637e-17 -3.95961e-17 0.426653)
(9.16222e-18 2.49756e-16 0.380312)
(2.58893e-18 6.41542e-17 0.319791)
(1.38666e-17 1.17057e-16 0.205965)
(-8.04174e-18 -1.0405e-16 0.0580351)
(6.17712e-19 4.72201e-17 -0.105784)
(1.62058e-19 -4.72213e-17 -0.266345)
(2.19759e-18 -1.23123e-18 -0.408304)
(-8.00975e-19 -2.40969e-18 -0.488814)
(2.6493e-19 -4.35517e-17 -0.507624)
(-3.12914e-19 4.76043e-17 -0.459226)
(4.49634e-19 4.56923e-17 -0.359677)
(1.01715e-19 -3.87935e-17 -0.227488)
(-5.13796e-19 2.17106e-17 -0.0807521)
(1.05963e-19 -2.18818e-17 0.0686098)
(-2.37556e-20 1.97646e-19 0.21438)
(-4.63801e-19 2.35919e-17 0.352917)
(6.47368e-19 -2.08715e-17 0.484197)
(-9.79501e-19 2.26922e-17 0.609905)
(2.12265e-19 -2.06331e-17 0.733804)
(6.62036e-19 -2.09112e-18 0.859296)
(-9.22846e-19 2.38596e-18 0.991077)
(4.37767e-19 -6.09286e-20 1.13402)
(-1.55774e-18 8.39611e-20 1.29254)
(2.61541e-18 2.08073e-18 1.47058)
(-1.91966e-18 -1.14275e-19 1.67493)
(2.63919e-19 -2.8819e-19 1.91324)
(6.80787e-19 -3.45665e-18 2.20023)
(-1.25583e-18 2.75576e-19 2.55778)
(1.18269e-18 -8.53978e-19 3.01636)
(2.15074e-18 -3.56801e-18 3.60185)
(-1.46455e-18 2.67568e-18 4.27263)
(5.82536e-19 -4.4151e-19 4.71237)
(-3.91589e-19 3.3836e-20 3.76688)
(-6.58607e-19 3.32231e-19 -1.30749)
(-1.87493e-18 -5.07744e-19 -13.1122)
(1.25337e-18 1.445e-19 -6.57446)
(-1.52338e-18 8.05593e-19 -2.46565)
(-2.19173e-18 -3.72688e-19 -0.402777)
(3.49756e-18 -3.35571e-19 0.704391)
(-6.15613e-18 1.52124e-18 1.40954)
(1.82057e-18 -1.64612e-18 1.90905)
(4.82483e-19 6.77659e-19 2.27672)
(-1.15283e-18 -3.70571e-19 2.55255)
(-4.06119e-20 7.10526e-19 2.76142)
(-3.67122e-18 -3.63122e-18 2.92088)
(3.60877e-18 1.81785e-18 3.04384)
(-1.07524e-18 2.28974e-19 3.13966)
(-2.72528e-18 -5.31202e-18 3.21512)
(3.29765e-18 3.09168e-18 3.27509)
(-8.15859e-19 -5.77024e-19 3.32309)
(-4.19866e-19 2.64908e-21 3.36163)
(7.69638e-19 -1.93283e-18 3.39251)
(1.73793e-18 7.96502e-18 3.41691)
(-4.4498e-18 -2.27912e-17 3.43558)
(3.86634e-18 1.0399e-17 3.44887)
(2.57749e-18 1.79704e-17 3.45679)
(-4.71314e-18 -1.4226e-17 3.45893)
(2.38898e-18 -2.17265e-18 3.45444)
(5.56965e-19 2.48663e-18 3.44194)
(5.14095e-19 6.26972e-19 3.41947)
(2.10563e-18 3.42909e-19 3.38446)
(-2.13816e-18 -1.90009e-17 3.33355)
(-2.90903e-18 -2.91821e-18 3.26243)
(-6.90468e-18 -6.16488e-18 3.16535)
(6.91799e-18 1.71909e-17 3.03513)
(2.85016e-19 -5.18484e-18 2.8594)