/*--------------------------------*- C++ -*----------------------------------*\
| =========                 |                                                 |
| \\      /  F ield         | OpenFOAM: The Open Source CFD Toolbox           |
|  \\    /   O peration     | Version:  2506                                  |
|   \\  /    A nd           | Website:  www.openfoam.com                      |
|    \\/     M anipulation  |                                                 |
\*---------------------------------------------------------------------------*/
FoamFile
{
    version     2.0;
    format      ascii;
    arch        "LSB;label=32;scalar=64";
    class       volVectorField;
    location    "3.8";
    object      vorticityField;
}
// * * * * * * * * * * * * * * * * * * * * * * * * * * * * * * * * * * * * * //

dimensions      [0 0 -1 0 0 0 0];

internalField   nonuniform List<vector> 
4000
(
(2.02403e-20 -6.86056e-18 -23.001)
(7.18956e-18 7.80373e-18 -23.5146)
(-7.64311e-18 2.06126e-17 -20.2293)
(-3.04133e-17 -3.70906e-17 -15.9438)
(6.27543e-17 1.38886e-18 -12.4979)
(-3.23091e-17 2.89875e-17 -9.86403)
(2.62717e-19 -1.48416e-17 -7.78673)
(-3.26714e-17 -0 -6.13757)
(3.22786e-17 2.94978e-17 -4.82169)
(-6.3809e-17 -2.92201e-17 -3.76228)
(6.3849e-17 2.84798e-17 -2.90041)
(5.30349e-18 -2.79308e-17 -2.19382)
(-2.61078e-18 -5.89152e-17 -1.61095)
(-6.87903e-17 5.80886e-17 -1.12607)
(3.24118e-19 -0 -0.718418)
(1.30432e-16 5.64421e-17 -0.370557)
(-1.24224e-16 -5.52442e-17 -0.0686987)
(6.32673e-17 -5.75971e-17 0.199163)
(-2.99504e-18 5.63992e-17 0.442236)
(0 -0 0.668763)
(0 -0 0.88479)
(0 -0 1.09525)
(-7.35929e-18 1.08455e-16 1.30366)
(-1.00943e-16 -2.13294e-16 1.51268)
(2.31508e-16 -6.62684e-18 1.7239)
(-1.31473e-16 2.19237e-16 1.93826)
(8.26671e-18 -1.07771e-16 2.15589)
(0 -0 2.37589)
(0 -0 2.59639)
(9.22916e-18 -1.04276e-16 2.81395)
(2.26725e-16 1.00846e-16 3.02211)
(-1.21942e-16 1.07686e-16 3.20554)
(-2.4505e-16 -1.42902e-17 3.34052)
(4.93705e-19 1.0498e-16 3.39437)
(7.32882e-17 -5.98454e-16 3.33613)
(2.38838e-16 -4.86751e-16 3.19495)
(8.50817e-16 8.79077e-16 2.99092)
(1.35357e-17 -8.12867e-18 2.6808)
(-6.85262e-16 -1.47425e-15 2.20796)
(5.72015e-16 9.80748e-16 1.51064)
(-3.29422e-16 1.92682e-15 0.388837)
(-9.68125e-16 -1.86537e-15 -1.20179)
(2.60698e-16 -8.3835e-16 -3.04206)
(-2.31881e-16 8.82411e-16 -4.94196)
(-1.11534e-15 -7.78775e-16 -6.75864)
(1.28215e-15 -1.27382e-16 -8.43903)
(1.02948e-15 -1.49794e-16 -9.99983)
(9.84314e-16 9.46216e-16 -11.3355)
(1.20831e-15 1.0418e-15 -12.4785)
(4.8478e-16 1.23973e-15 -13.4057)
(-5.88897e-16 1.48573e-16 -14.0593)
(3.99486e-17 -4.9608e-16 -14.4954)
(6.43701e-16 1.16202e-15 -14.5942)
(-6.04867e-16 -1.89333e-16 -14.4293)
(9.42806e-17 -1.10155e-15 -13.9204)
(3.03561e-16 3.3516e-17 -13.0878)
(-2.824e-16 1.83618e-16 -11.9503)
(-8.97699e-17 4.81477e-17 -10.4536)
(-1.65318e-16 -2.86345e-17 -8.73815)
(7.62265e-17 4.82871e-17 -6.73609)
(-7.72167e-17 3.06149e-17 -4.54592)
(-3.31343e-16 -3.93293e-18 -2.29013)
(1.57195e-16 6.47451e-17 0.0181836)
(1.12962e-16 6.40709e-16 2.2809)
(2.0242e-17 1.79387e-18 4.45173)
(1.177e-16 -7.91521e-16 6.49119)
(-6.32511e-16 2.16029e-16 8.35224)
(-1.70711e-17 3.91012e-16 10.0361)
(-2.79287e-16 -6.17666e-16 11.5171)
(7.15772e-16 -7.39352e-16 12.8017)
(1.70195e-16 5.48123e-16 13.8888)
(2.71079e-17 1.80632e-16 14.7865)
(1.95601e-19 -2.2904e-18 15.4835)
(9.01901e-16 -5.72069e-16 16.0073)
(8.6672e-16 -6.14455e-16 16.3475)
(3.32702e-17 -7.01032e-16 16.5132)
(7.05642e-16 -4.5315e-16 16.5307)
(-8.35231e-17 7.26657e-16 16.407)
(7.75147e-16 -3.8703e-16 16.1519)
(-6.67205e-16 -2.02681e-16 15.7968)
(1.25606e-15 -3.55361e-16 15.3583)
(1.61968e-16 6.84793e-16 14.8529)
(-3.60229e-17 8.59518e-17 14.3028)
(6.49273e-17 -2.19718e-17 13.7245)
(-6.02611e-16 -9.55879e-16 13.1331)
(1.04687e-15 -1.37628e-15 12.544)
(-3.66068e-17 1.2419e-15 11.9586)
(6.62385e-17 6.66145e-16 11.3815)
(9.71856e-18 -1.19387e-15 10.8284)
(4.28845e-16 -2.76846e-16 10.2878)
(-1.53917e-18 1.30603e-18 9.76024)
(4.20134e-16 -7.71822e-16 9.26304)
(2.00875e-16 9.45306e-16 8.77856)
(-1.44833e-16 3.372e-16 8.31314)
(-8.51765e-18 -5.08349e-16 7.87888)
(-5.97658e-17 5.39264e-16 7.46061)
(-1.77464e-16 9.48366e-17 7.08274)
(-2.28961e-17 -2.5589e-17 6.7271)
(2.69042e-16 5.85979e-17 6.41315)
(-4.41359e-17 -2.20583e-16 6.13356)
(-4.7577e-17 1.56872e-19 5.90399)
(-1.63067e-17 4.88143e-17 5.71165)
(8.11026e-18 -1.41618e-16 5.57332)
(2.09579e-17 -3.87083e-17 5.46922)
(3.11666e-17 1.54699e-17 5.40669)
(5.64522e-19 5.12468e-17 5.36969)
(-3.05529e-18 -4.10268e-16 5.36211)
(1.602e-16 1.6354e-17 5.37171)
(1.95121e-16 6.94527e-16 5.38529)
(-3.66597e-16 1.00874e-16 5.39304)
(1.89634e-16 -1.33361e-16 5.38414)
(-8.33636e-18 -4.61353e-16 5.34305)
(1.92717e-16 9.10878e-17 5.26391)
(1.92653e-16 3.56467e-16 5.12694)
(5.71045e-18 4.83301e-16 4.93177)
(-3.80069e-16 -2.51168e-16 4.663)
(-3.33549e-18 -9.54262e-16 4.31594)
(-6.83037e-17 -5.32466e-17 3.88645)
(-4.19491e-16 -3.07516e-16 3.37267)
(4.08575e-16 3.06806e-16 2.77723)
(5.54671e-16 1.42195e-15 2.09977)
(-5.11405e-16 -3.42475e-16 1.34607)
(-1.72028e-17 -1.11012e-15 0.527191)
(4.65223e-16 3.51125e-16 -0.353034)
(9.79707e-17 1.17063e-15 -1.27915)
(-9.60576e-16 -6.80328e-16 -2.24013)
(3.50195e-16 -3.32559e-16 -3.2242)
(-4.90464e-16 8.89015e-17 -4.21395)
(-5.18479e-16 -7.50645e-16 -5.20013)
(-1.2264e-16 -5.984e-16 -6.18495)
(6.68962e-18 -4.57835e-16 -7.12584)
(3.59852e-16 3.22379e-16 -8.02618)
(1.82923e-16 5.69224e-16 -8.90179)
(1.03437e-15 7.13295e-16 -9.68537)
(-5.62433e-16 2.10569e-16 -10.3921)
(7.35587e-17 4.00376e-17 -11.0624)
(-7.57825e-17 -4.10804e-17 -11.5579)
(9.59988e-17 6.45283e-18 -11.9862)
(-8.53014e-17 -8.83691e-17 -12.2442)
(1.17485e-16 -9.43376e-17 -12.3515)
(-1.92232e-16 -3.0936e-17 -12.2681)
(4.575e-16 2.04891e-16 -11.9576)
(-2.54258e-16 -3.60458e-17 -11.3782)
(6.09439e-17 -2.32984e-17 -10.5555)
(1.4054e-16 1.12337e-16 -9.38496)
(3.23565e-17 1.23411e-16 -8.00778)
(2.86189e-17 -4.22386e-17 -6.27105)
(0 -0 -4.30558)
(6.2734e-17 -4.19715e-17 -2.16753)
(-7.15184e-17 4.30318e-17 0.117034)
(-2.91092e-17 1.93063e-16 2.42071)
(5.03315e-17 9.28417e-17 4.72075)
(-1.62397e-16 -1.00521e-16 6.90856)
(-9.23735e-17 -2.50018e-16 8.95404)
(1.79266e-16 -6.99483e-17 10.8052)
(-1.81335e-16 1.85149e-16 12.4348)
(2.56213e-16 7.75646e-17 13.8072)
(-3.58474e-16 1.9624e-16 14.8637)
(7.68432e-17 3.14695e-16 15.2743)
(-2.31884e-16 1.83493e-16 14.8018)
(2.28567e-16 -7.24448e-16 13.9825)
(-1.8433e-16 1.29291e-16 13.5763)
(4.54123e-17 9.24075e-17 13.0082)
(-3.15131e-17 7.34633e-18 12.3196)
(-2.94363e-17 4.5272e-18 11.6047)
(-2.79996e-17 2.32633e-18 10.9379)
(2.72975e-17 1.99329e-17 10.3329)
(-2.24428e-17 5.54782e-18 9.551)
(-1.47809e-18 -2.14073e-17 8.4803)
(-2.63821e-18 -1.89087e-17 7.31793)
(2.25532e-17 -4.56664e-18 6.22783)
(4.94818e-18 3.62217e-17 5.28071)
(8.89023e-19 -1.30026e-17 4.50746)
(-5.36266e-18 -2.07403e-17 3.91537)
(2.87164e-18 1.72033e-17 3.48916)
(-1.99055e-17 -5.63218e-19 3.20511)
(3.65126e-17 -1.38449e-17 3.03274)
(-2.0007e-17 1.02865e-17 2.93787)
(4.20617e-18 1.75097e-17 2.89059)
(-9.54709e-19 -1.39049e-17 2.86692)
(-9.02337e-18 -5.3411e-18 2.84789)
(1.41554e-17 -1.37666e-18 2.81995)
(1.1211e-18 1.06477e-17 2.77497)
(3.71989e-19 1.48053e-18 2.71011)
(-5.86156e-18 -5.35002e-18 2.62729)
(-5.51777e-18 -1.64588e-20 2.53193)
(6.15404e-18 1.83567e-20 2.43164)
(-5.26738e-18 2.06321e-19 2.3353)
(8.93033e-18 8.1898e-20 2.25162)
(-5.65508e-18 -2.38413e-19 2.18814)
(1.91e-18 5.69729e-21 2.15065)
(4.28579e-19 1.07042e-18 2.14189)
(-1.18674e-18 -2.32582e-19 2.1622)
(3.16546e-19 -1.90146e-18 2.21085)
(1.13534e-18 1.15366e-18 2.28585)
(-1.45571e-19 2.85224e-19 2.38338)
(1.21455e-19 2.0143e-19 2.49853)
(1.58807e-19 -5.15994e-19 2.6307)
(8.08211e-20 -7.09512e-20 2.79777)
(2.56973e-20 7.58924e-20 2.97281)
(0 -0 2.98726)
(8.28651e-20 -0 -5.45229)
(9.08461e-20 1.44428e-17 -10.718)
(1.61618e-18 -3.15474e-17 -12.7288)
(-1.74967e-17 4.36843e-18 -13.2344)
(1.58148e-17 2.77626e-17 -12.9688)
(-3.66852e-19 1.56171e-17 -12.441)
(1.0556e-18 -3.30783e-17 -11.8445)
(3.02343e-17 2.45826e-18 -11.2595)
(-2.99366e-17 -1.7693e-18 -10.7179)
(-5.96528e-17 -9.19369e-17 -10.2304)
(1.213e-16 9.62373e-17 -9.79794)
(-4.14512e-18 1.2262e-16 -9.41645)
(-6.01099e-17 -6.47147e-17 -9.08055)
(8.07769e-18 -1.87055e-16 -8.78402)
(5.9113e-17 6.54719e-17 -8.52098)
(-7.03519e-17 1.23561e-16 -8.285)
(5.33217e-18 -6.24384e-17 -8.0707)
(0 -0 -7.87243)
(0 -0 -7.68585)
(0 -0 -7.50674)
(0 -0 -7.33146)
(0 -0 -7.15649)
(2.3897e-16 -0 -6.97887)
(-3.547e-16 -0 -6.79591)
(1.15432e-16 -0 -6.60542)
(0 -0 -6.40548)
(0 -0 -6.19413)
(0 -0 -5.96974)
(1.03303e-17 -1.16717e-16 -5.73086)
(8.89668e-18 -8.44758e-19 -5.47661)
(-4.20574e-17 3.47313e-16 -5.20685)
(1.01294e-17 -9.76987e-17 -4.92378)
(1.22613e-16 -3.46907e-16 -4.59819)
(6.40743e-17 4.42811e-16 -4.27729)
(-2.68669e-16 -3.92669e-16 -4.07882)
(-8.63946e-16 -6.85154e-16 -4.04723)
(-7.3989e-17 1.72606e-15 -4.17644)
(4.67209e-16 6.82302e-16 -4.48624)
(-8.8582e-16 -1.83651e-15 -5.02879)
(2.69019e-16 -1.09301e-16 -5.91229)
(7.43734e-16 1.35977e-15 -7.09583)
(8.01292e-17 -5.81487e-17 -8.43602)
(-1.66554e-17 2.31747e-16 -9.84073)
(1.35331e-15 -5.27284e-16 -11.236)
(-1.18235e-15 -1.65829e-15 -12.5983)
(-2.29424e-15 -1.44457e-16 -13.9148)
(-9.74918e-16 -1.07012e-15 -15.1304)
(-1.21066e-15 -5.90305e-16 -16.2676)
(-6.03143e-16 2.22045e-16 -17.2839)
(1.77513e-15 7.25177e-16 -18.1637)
(3.81457e-17 -4.69963e-16 -18.9147)
(-6.03801e-16 -5.84978e-16 -19.4741)
(5.2475e-16 6.96786e-16 -19.8777)
(-6.59204e-16 3.04351e-16 -20.0563)
(-6.44148e-16 1.24559e-16 -20.0307)
(-3.90907e-16 -2.17292e-17 -19.7686)
(-1.4839e-16 -1.20757e-16 -19.2444)
(8.84655e-17 -9.3126e-17 -18.4948)
(9.10862e-17 -1.1057e-16 -17.4671)
(4.64994e-17 2.47205e-16 -16.217)
(3.28457e-16 -1.84913e-16 -14.7614)
(-2.60233e-16 -3.78596e-16 -13.1405)
(2.04161e-16 -6.06415e-16 -11.4161)
(-2.93323e-16 2.05996e-16 -9.62502)
(-1.54938e-17 1.22769e-15 -7.83095)
(-2.66225e-16 1.30232e-16 -6.07651)
(3.30597e-16 -6.96604e-16 -4.41781)
(3.33368e-16 5.69985e-17 -2.88504)
(-9.24586e-16 3.79066e-16 -1.49524)
(2.50501e-17 -1.25398e-16 -0.270745)
(1.37712e-15 -6.68084e-16 0.803057)
(-7.69068e-16 -3.84323e-16 1.70228)
(5.77604e-18 -9.48893e-16 2.43277)
(-1.00277e-15 1.37884e-15 3.0144)
(-1.45701e-16 8.71432e-16 3.44615)
(1.90951e-16 -1.21936e-16 3.7465)
(3.87816e-17 -7.43297e-16 3.93809)
(6.55634e-16 9.74382e-17 4.02694)
(1.45849e-15 -8.6084e-16 4.03162)
(-1.90784e-15 -2.75652e-16 3.97123)
(-2.1451e-16 8.06004e-16 3.85774)
(6.41114e-16 -4.24878e-16 3.70558)
(-1.35187e-16 5.81861e-16 3.52714)
(4.20245e-17 1.22993e-16 3.32771)
(-1.10321e-15 6.1784e-16 3.11875)
(-4.4919e-16 4.48803e-16 2.90681)
(-5.9773e-16 -3.95766e-16 2.68645)
(-4.6914e-16 9.42545e-16 2.46824)
(-9.38032e-16 5.95907e-16 2.25692)
(-2.94834e-19 -1.87125e-17 2.04164)
(-4.25868e-16 5.22195e-16 1.83358)
(-1.68066e-16 -1.68687e-16 1.63358)
(3.8378e-16 -2.40069e-16 1.4352)
(-1.73168e-16 4.74529e-16 1.2533)
(-4.89079e-18 -2.46178e-16 1.07581)
(3.79357e-16 -1.95512e-16 0.913506)
(-1.81139e-16 -4.70284e-16 0.761032)
(-2.29817e-17 -1.40727e-16 0.625242)
(9.90399e-17 5.97452e-16 0.501527)
(4.84946e-17 -2.05918e-17 0.39235)
(5.87254e-17 -1.26542e-16 0.298264)
(2.43382e-17 9.38599e-17 0.213845)
(-2.13319e-17 1.18074e-17 0.139309)
(-4.18691e-17 1.14771e-17 0.0702103)
(-8.85954e-17 -2.44884e-17 0.000818933)
(1.63433e-18 2.1946e-16 -0.0668691)
(-5.19922e-16 -3.31435e-16 -0.145382)
(-4.56084e-18 -4.60527e-18 -0.23061)
(3.49554e-16 -1.05232e-16 -0.335263)
(2.37193e-19 -2.63244e-16 -0.464753)
(1.40839e-17 4.72391e-16 -0.625023)
(-1.88082e-16 -3.38742e-16 -0.819719)
(-1.92524e-16 -1.00372e-16 -1.05254)
(2.07077e-16 3.64756e-16 -1.32832)
(3.79632e-16 2.19746e-16 -1.65993)
(-1.50116e-17 5.49332e-16 -2.04069)
(7.13937e-17 5.85267e-16 -2.47957)
(3.76463e-16 -3.44101e-16 -2.97538)
(-8.53686e-16 -1.74307e-15 -3.52697)
(4.56851e-16 4.06374e-16 -4.137)
(4.71405e-16 9.05516e-16 -4.80022)
(-4.06231e-16 -3.48905e-16 -5.51307)
(-5.53216e-16 -3.96632e-16 -6.27423)
(-4.72395e-16 2.00708e-16 -7.07549)
(1.54219e-15 5.86292e-16 -7.91107)
(-5.22344e-16 -2.14975e-16 -8.77278)
(4.64119e-16 6.87714e-16 -9.65077)
(9.64164e-17 -7.56948e-17 -10.54)
(-1.05257e-15 -7.56674e-16 -11.4375)
(-4.43763e-16 -2.45151e-16 -12.3171)
(-9.95195e-16 -7.8549e-16 -13.1863)
(-6.61185e-16 -1.38188e-15 -14.0445)
(-1.1309e-15 4.35662e-17 -14.8475)
(1.56084e-16 4.07451e-16 -15.6208)
(-1.40588e-16 -5.08858e-16 -16.3627)
(-2.05431e-16 -1.19614e-16 -16.998)
(-5.68062e-17 -7.41133e-17 -17.6049)
(7.83574e-17 2.31894e-17 -18.0925)
(-1.09677e-16 1.87075e-16 -18.4938)
(6.60109e-17 -2.39537e-16 -18.7712)
(-1.77405e-16 3.69238e-17 -18.9048)
(-7.26054e-17 1.98206e-16 -18.8714)
(-3.43353e-17 -2.19569e-16 -18.6692)
(7.57559e-17 -6.58366e-17 -18.2307)
(5.37774e-17 -6.76853e-17 -17.6221)
(-1.26742e-16 5.08741e-17 -16.7224)
(7.96419e-17 -2.23479e-17 -15.6127)
(-5.20193e-17 1.04566e-16 -14.2688)
(1.38755e-16 9.01116e-18 -12.7062)
(7.84984e-17 -2.75431e-16 -11.0017)
(-3.67663e-17 -1.77163e-17 -9.13945)
(-5.90572e-17 2.24708e-16 -7.23272)
(1.18793e-16 7.66324e-18 -5.30847)
(-4.3107e-16 2.75744e-16 -3.46199)
(1.98515e-16 -2.01728e-16 -1.71221)
(-1.22033e-17 -4.78993e-17 -0.148085)
(4.07774e-16 -2.29003e-18 1.13909)
(-1.29461e-16 -3.57165e-16 2.04557)
(6.62459e-16 -6.42195e-16 2.49887)
(-2.35756e-16 5.62272e-16 2.2736)
(3.72904e-17 2.36082e-16 1.84535)
(2.8962e-19 -2.4934e-16 1.35209)
(7.3326e-17 4.97884e-17 0.814317)
(7.06332e-19 8.71068e-18 0.251226)
(5.17921e-17 -4.14793e-17 -0.339679)
(-5.67089e-17 -3.34831e-17 -0.982483)
(2.59198e-17 2.06513e-17 -1.73115)
(4.26669e-19 2.77638e-18 -2.46724)
(1.66126e-18 2.05244e-19 -3.15214)
(2.50557e-18 -2.52367e-18 -3.77762)
(-3.22222e-18 -1.92828e-17 -4.33167)
(2.24718e-17 1.93819e-17 -4.80717)
(-1.75486e-17 1.97788e-17 -5.20093)
(-1.01768e-18 -3.21999e-18 -5.51676)
(-2.42669e-17 -2.98234e-17 -5.7635)
(2.15199e-17 1.27407e-17 -5.95385)
(2.63918e-18 1.79939e-17 -6.10235)
(-4.76625e-18 -3.308e-17 -6.22261)
(1.64443e-18 2.43401e-17 -6.32607)
(5.24767e-19 -6.9362e-18 -6.42146)
(-6.57663e-18 -8.9291e-18 -6.51467)
(6.17156e-18 1.71452e-18 -6.60875)
(5.95872e-18 5.47922e-18 -6.70404)
(-6.28367e-18 1.10726e-17 -6.7988)
(-1.87014e-18 -1.03316e-17 -6.88981)
(-6.24846e-19 -1.42715e-19 -6.97297)
(4.65096e-19 -2.93311e-18 -7.0438)
(2.78154e-19 2.14215e-19 -7.09818)
(-2.59261e-19 6.82217e-18 -7.13287)
(-1.7902e-18 -5.49601e-18 -7.14568)
(1.27728e-18 1.98661e-18 -7.13576)
(2.44078e-18 1.12947e-18 -7.10444)
(-2.69752e-18 -7.74493e-19 -7.05339)
(-3.38113e-20 -7.26718e-19 -6.98532)
(-1.35373e-19 8.88833e-19 -6.90374)
(-1.17005e-19 -9.72058e-20 -6.81224)
(-2.47071e-19 3.38946e-19 -6.71369)
(4.92348e-21 -2.36016e-20 -6.61001)
(-4.24958e-20 1.50093e-19 -6.52773)
(2.062e-20 -6.98926e-18 5.10079)
(-4.06904e-19 8.41745e-18 1.69783)
(2.02325e-19 1.9332e-17 -2.04947)
(1.74739e-18 -2.3807e-17 -5.28412)
(-1.74692e-17 -1.09186e-17 -7.69035)
(1.58443e-17 1.39654e-17 -9.18407)
(0 -0 -10.1388)
(3.34122e-17 -2.8836e-17 -10.703)
(-3.52416e-17 6.22538e-17 -10.9992)
(3.25788e-17 4.99764e-17 -11.1273)
(-2.94689e-17 -1.20267e-16 -11.1517)
(-5.56783e-18 -8.05944e-17 -11.1101)
(2.85799e-18 1.24109e-16 -11.0273)
(1.24034e-16 5.23812e-17 -10.9206)
(-1.1366e-16 -1.17766e-16 -10.8017)
(-7.99633e-17 1.23073e-16 -10.6783)
(1.26585e-16 -1.07488e-17 -10.5552)
(-5.36421e-17 -1.12468e-16 -10.4354)
(-3.12712e-18 5.88862e-17 -10.3199)
(0 -0 -10.2092)
(-1.17106e-16 -0 -10.1027)
(1.17411e-16 -0 -9.99924)
(7.83744e-18 -1.15502e-16 -9.89707)
(1.07438e-16 1.2358e-16 -9.79413)
(-1.24103e-16 1.07704e-16 -9.68818)
(8.53968e-18 -1.15783e-16 -9.57693)
(0 -0 -9.4581)
(-1.15069e-16 -0 -9.32926)
(5.86057e-19 -0 -9.18787)
(1.25265e-16 -1.13678e-16 -9.03113)
(-2.12511e-17 1.18945e-16 -8.85594)
(-2.38436e-16 1.08826e-16 -8.65822)
(3.71516e-16 -1.06984e-16 -8.4364)
(-2.14682e-16 9.61925e-19 -8.17684)
(1.79527e-17 -2.34079e-16 -7.89274)
(4.27499e-16 5.23381e-16 -7.62854)
(-6.24065e-16 6.87679e-17 -7.4291)
(-3.13289e-16 -1.56074e-15 -7.34097)
(6.71298e-16 3.89103e-16 -7.39943)
(1.67008e-16 1.02653e-15 -7.63164)
(1.02454e-16 2.10643e-16 -8.0782)
(1.30536e-15 -1.07961e-16 -8.68163)
(-3.09166e-16 -2.15853e-16 -9.42355)
(-9.77507e-16 -7.00672e-16 -10.2783)
(1.22182e-15 2.01232e-15 -11.1939)
(-1.46233e-15 1.21627e-15 -12.1548)
(7.55793e-16 -8.58454e-16 -13.1374)
(4.82622e-17 -5.60511e-16 -14.1082)
(6.31966e-17 -1.29087e-16 -15.0823)
(4.22668e-17 -1.41783e-15 -16.0168)
(-6.5928e-16 -1.49422e-17 -16.9081)
(-1.76503e-16 1.27605e-15 -17.7529)
(6.86646e-17 4.33343e-16 -18.5254)
(-9.29425e-17 -1.73672e-16 -19.2381)
(6.56343e-16 -2.84238e-16 -19.8504)
(3.26803e-16 -2.07522e-16 -20.3732)
(4.359e-16 -1.22389e-16 -20.7716)
(3.87469e-17 -2.82714e-16 -21.033)
(1.10768e-16 -1.63111e-16 -21.1369)
(-1.60783e-16 7.38442e-17 -21.0504)
(-5.83124e-17 -1.268e-16 -20.773)
(3.11442e-16 1.99114e-16 -20.2734)
(-4.82539e-16 2.69322e-16 -19.5754)
(-4.07296e-16 7.42719e-16 -18.6866)
(3.05561e-17 -1.09804e-16 -17.6387)
(4.98787e-16 -9.0323e-16 -16.4631)
(9.03952e-16 -4.58103e-16 -15.2103)
(-1.34038e-16 -4.77883e-17 -13.9276)
(-2.41829e-17 2.31818e-16 -12.6634)
(6.75824e-16 -4.31205e-16 -11.4475)
(-7.22099e-18 -1.29366e-15 -10.3057)
(-1.26117e-15 1.44531e-15 -9.25654)
(1.0231e-15 6.25979e-16 -8.30674)
(-1.88149e-15 1.27733e-15 -7.47385)
(-7.96576e-16 6.92616e-16 -6.73547)
(1.64947e-16 -1.77547e-15 -6.09371)
(-8.24841e-16 3.73281e-16 -5.54539)
(-6.13596e-17 1.05337e-16 -5.07373)
(-1.42122e-15 -6.41557e-16 -4.66993)
(-2.73828e-16 2.12532e-15 -4.32672)
(-6.23506e-16 2.92682e-15 -4.03118)
(9.82771e-17 -2.10092e-15 -3.77285)
(-6.27895e-16 2.78955e-16 -3.54567)
(-5.58441e-16 1.26952e-15 -3.34313)
(5.5648e-16 -4.21439e-16 -3.16207)
(-1.05027e-15 8.2911e-16 -3.00043)
(1.6162e-15 -4.10197e-16 -2.8543)
(1.16215e-15 7.49791e-17 -2.72392)
(5.38724e-16 -8.92305e-16 -2.61014)
(2.51921e-17 -5.06507e-16 -2.50643)
(-9.73313e-18 -6.17742e-16 -2.4148)
(-2.01501e-17 -2.7111e-16 -2.33602)
(2.14677e-16 -1.53572e-16 -2.26339)
(-2.30063e-16 3.5189e-16 -2.19778)
(-6.81922e-18 2.75133e-17 -2.14277)
(7.09889e-17 -2.40064e-16 -2.09191)
(-2.85184e-17 1.87565e-16 -2.05281)
(1.60048e-17 4.69995e-16 -2.0178)
(-6.07539e-16 -2.63186e-17 -1.99504)
(-5.14833e-17 -3.00186e-16 -1.97851)
(4.28575e-17 7.75087e-18 -1.97735)
(-6.41472e-17 8.19548e-17 -1.98567)
(-5.93503e-19 -4.42825e-17 -2.01092)
(8.24008e-19 4.1773e-17 -2.05086)
(7.55861e-19 9.47289e-17 -2.10835)
(8.80184e-17 1.64616e-17 -2.1841)
(9.68926e-17 1.29173e-16 -2.27753)
(3.50502e-16 8.96105e-17 -2.39242)
(-5.54461e-16 -5.94062e-16 -2.52621)
(3.79497e-16 3.45e-16 -2.68144)
(-3.73413e-16 9.10359e-17 -2.85958)
(4.91046e-18 -2.37845e-16 -3.06113)
(-1.02086e-17 2.53812e-16 -3.28968)
(-9.37689e-18 -2.68982e-16 -3.54355)
(-1.06599e-17 -2.53861e-16 -3.82884)
(3.46673e-18 2.8093e-16 -4.14361)
(-1.86769e-16 -6.54205e-16 -4.49113)
(-1.93368e-16 -5.79671e-16 -4.87446)
(8.73801e-16 1.61293e-15 -5.29281)
(4.30299e-16 1.79406e-16 -5.7502)
(-1.01276e-15 -1.12584e-15 -6.24734)
(-2.74235e-16 8.76753e-16 -6.78082)
(3.89826e-16 2.50055e-16 -7.35298)
(5.40518e-16 4.399e-16 -7.96378)
(3.42894e-16 -1.19889e-15 -8.60656)
(3.40122e-16 5.15067e-16 -9.28263)
(-2.93526e-16 4.28013e-16 -9.98672)
(5.33048e-16 2.45693e-16 -10.7132)
(7.10594e-16 1.39939e-15 -11.4593)
(1.07896e-15 4.17104e-16 -12.2217)
(4.58871e-16 -4.92601e-16 -12.9825)
(5.78069e-16 3.91431e-16 -13.7506)
(6.70073e-16 6.34641e-16 -14.5196)
(-5.41341e-16 -1.0184e-15 -15.2573)
(7.03025e-16 -5.96423e-17 -15.9921)
(4.01977e-17 2.18334e-16 -16.7067)
(1.24506e-16 -6.52756e-17 -17.3576)
(2.59553e-16 -1.99556e-16 -18.0083)
(-3.56566e-18 3.08369e-17 -18.5826)
(2.49518e-16 -8.81536e-17 -19.1185)
(-2.81343e-16 6.43285e-17 -19.5912)
(-8.95266e-16 -3.49067e-17 -19.9919)
(9.48501e-17 -7.04083e-17 -20.3136)
(-3.95096e-17 -1.60695e-16 -20.5502)
(1.23989e-16 1.78337e-16 -20.6639)
(-2.78618e-17 2.68793e-16 -20.6875)
(-6.8922e-17 -1.04392e-16 -20.5258)
(9.62288e-17 -1.64703e-17 -20.2298)
(-1.38242e-16 -7.27381e-17 -19.7281)
(2.34008e-16 -7.86849e-17 -19.0263)
(-7.20046e-17 3.30231e-16 -18.1427)
(-2.07543e-16 2.78648e-16 -17.0399)
(1.79238e-16 -3.56496e-16 -15.788)
(-5.27219e-17 1.78826e-17 -14.389)
(2.01669e-16 -1.73523e-16 -12.9425)
(1.95574e-16 -3.57014e-16 -11.4631)
(-4.19854e-16 1.91267e-16 -10.0463)
(2.0148e-16 -7.83722e-17 -8.76555)
(6.92779e-18 1.48073e-17 -7.71253)
(-5.12541e-16 3.21864e-16 -6.97689)
(-1.48113e-16 1.679e-16 -6.73482)
(2.73077e-16 -2.95415e-16 -6.85195)
(-3.06153e-17 2.99368e-17 -7.01493)
(-3.12732e-17 1.99414e-17 -7.17347)
(3.12337e-17 -6.35811e-19 -7.31019)
(3.50843e-17 2.66534e-17 -7.45057)
(6.19341e-18 6.04387e-17 -7.61367)
(-3.16811e-17 -4.76015e-17 -7.8113)
(-2.57625e-17 -4.90429e-18 -7.98745)
(-2.4031e-18 -2.26769e-17 -8.15702)
(2.6179e-17 4.08355e-18 -8.34589)
(-2.24036e-18 2.15806e-17 -8.55375)
(-4.36881e-17 -2.75559e-18 -8.77289)
(4.48168e-17 1.51896e-18 -8.99748)
(2.0897e-18 1.99427e-17 -9.21598)
(2.04214e-17 -2.5558e-17 -9.4193)
(-4.00394e-17 -2.85545e-17 -9.60177)
(2.30717e-17 4.00373e-17 -9.76142)
(-1.63602e-18 9.03784e-18 -9.89839)
(-1.16322e-18 -1.69847e-17 -10.0143)
(1.05124e-17 2.41145e-19 -10.1117)
(-8.39889e-18 -4.28038e-18 -10.1937)
(-2.41403e-18 3.52203e-18 -10.2629)
(-1.15622e-17 1.11605e-17 -10.3219)
(1.13101e-17 -2.69354e-18 -10.3725)
(6.52394e-18 -6.90352e-18 -10.4159)
(-7.43308e-18 -2.01088e-18 -10.4524)
(5.26852e-18 -3.05435e-19 -10.4818)
(-5.3695e-18 9.35595e-19 -10.5033)
(1.93403e-18 1.23921e-18 -10.5157)
(-2.75049e-18 -3.53532e-18 -10.5176)
(-1.83131e-18 -9.31539e-19 -10.5076)
(1.35516e-18 4.4722e-18 -10.4847)
(-9.97744e-20 -1.02228e-18 -10.449)
(-1.47906e-19 -1.17801e-18 -10.4012)
(4.58211e-19 -4.37152e-19 -10.3423)
(-8.57967e-20 -1.04447e-18 -10.274)
(-1.44012e-19 -8.33183e-19 -10.1984)
(-2.26396e-19 3.65454e-19 -10.1166)
(-6.89529e-21 -7.09638e-20 -10.0403)
(0 -0 3.25586)
(-7.4449e-18 -0 2.8766)
(7.26461e-18 1.37652e-17 1.62156)
(8.35229e-19 -1.69196e-17 -0.284646)
(-7.7842e-19 -1.05802e-17 -2.12868)
(-2.02602e-19 1.37346e-17 -3.79893)
(-2.87165e-17 -0 -5.24125)
(2.87276e-17 -0 -6.39402)
(-2.17556e-18 -0 -7.24005)
(4.82892e-18 -0 -7.88265)
(6.13283e-17 -5.5519e-17 -8.36186)
(-6.56816e-17 6.65362e-17 -8.70522)
(-6.12513e-17 -1.08121e-17 -8.94476)
(2.75497e-18 6.5801e-17 -9.10668)
(1.95909e-18 -2.00593e-17 -9.2119)
(5.79789e-17 -1.57518e-16 -9.2756)
(6.2423e-17 1.21035e-16 -9.30993)
(-6.49432e-17 4.63658e-17 -9.32444)
(2.96483e-18 -5.58302e-17 -9.32619)
(-6.27577e-17 1.10449e-16 -9.32033)
(6.4167e-17 -1.2761e-16 -9.31051)
(5.90768e-18 -9.35752e-17 -9.2989)
(2.5024e-19 1.1268e-18 -9.28644)
(-2.05711e-17 1.25579e-16 -9.27319)
(-1.0575e-16 9.39133e-17 -9.25846)
(1.19188e-16 -1.09882e-16 -9.24113)
(1.01548e-16 1.08527e-16 -9.21974)
(5.46009e-19 -1.44693e-17 -9.19261)
(-2.01462e-16 -2.16669e-16 -9.15782)
(1.18308e-16 -9.39914e-17 -9.11319)
(-4.25064e-17 3.37133e-16 -9.0561)
(1.23617e-16 -2.4266e-17 -8.98316)
(-9.99437e-17 -1.03462e-16 -8.89265)
(-9.98575e-17 -9.34331e-18 -8.7866)
(1.2972e-16 -1.95895e-16 -8.64955)
(-2.63901e-16 1.95418e-16 -8.45133)
(8.71605e-16 6.40745e-16 -8.20731)
(8.3856e-16 6.76193e-16 -7.99285)
(-9.39533e-16 -7.03904e-16 -7.85783)
(-3.74988e-16 -9.10786e-16 -7.82267)
(1.09369e-16 -1.17899e-15 -7.90308)
(-1.09977e-15 8.46498e-16 -8.06619)
(-2.189e-16 1.84947e-15 -8.35034)
(1.18217e-15 -9.89379e-16 -8.75549)
(-5.26381e-16 -1.20973e-15 -9.2521)
(1.07017e-15 2.75247e-16 -9.82881)
(6.13655e-16 3.61138e-16 -10.4626)
(4.50128e-16 2.44899e-16 -11.1338)
(5.70271e-16 5.13497e-16 -11.854)
(4.67011e-16 1.16231e-15 -12.585)
(-1.12805e-15 -6.43209e-16 -13.3261)
(6.38172e-16 -7.79174e-16 -14.074)
(-1.40498e-16 -2.12179e-16 -14.8266)
(7.146e-16 4.77453e-16 -15.5851)
(-4.41073e-18 3.33501e-16 -16.3363)
(-2.76664e-17 4.6728e-16 -17.0823)
(5.05608e-16 3.25579e-16 -17.8051)
(1.53021e-16 9.05116e-17 -18.5034)
(-8.59733e-18 4.63481e-18 -19.1417)
(-8.11926e-17 -3.21815e-17 -19.7157)
(1.48406e-16 -1.0881e-16 -20.1864)
(-3.31361e-16 1.88549e-16 -20.5144)
(4.48729e-16 -1.64836e-16 -20.687)
(-1.63056e-16 -8.5897e-16 -20.6728)
(8.88507e-16 -4.46568e-16 -20.4858)
(-7.14815e-16 9.55365e-16 -20.1161)
(2.32906e-16 3.44073e-16 -19.6006)
(-1.58798e-16 1.6671e-16 -18.9417)
(5.46543e-16 -6.59438e-16 -18.1911)
(-3.43799e-16 2.3443e-16 -17.377)
(-2.67275e-16 1.52955e-15 -16.5286)
(-6.86239e-16 -6.34492e-16 -15.6847)
(6.36785e-16 -4.48222e-16 -14.8456)
(1.23459e-17 1.02258e-15 -14.0415)
(9.35432e-16 -1.48418e-15 -13.2697)
(-4.5258e-17 7.53731e-16 -12.531)
(-7.01645e-16 6.47472e-16 -11.8323)
(-4.14495e-17 6.82796e-17 -11.1675)
(-1.47567e-15 1.75556e-15 -10.53)
(-1.26671e-15 2.267e-16 -9.92026)
(2.7325e-15 -3.39026e-15 -9.33483)
(5.97701e-16 1.98586e-16 -8.76836)
(-6.24746e-16 1.25624e-15 -8.22284)
(6.41921e-16 -1.12614e-15 -7.69866)
(-2.62249e-18 6.91134e-16 -7.19639)
(1.16232e-15 -2.05401e-15 -6.72177)
(-1.19715e-15 -2.08988e-15 -6.2755)
(1.18522e-16 3.25551e-16 -5.85598)
(4.37063e-16 1.62036e-15 -5.47117)
(1.50812e-15 -2.35401e-16 -5.11549)
(2.4655e-16 -1.34923e-16 -4.78611)
(-1.45168e-17 -8.64914e-18 -4.48795)
(-2.32428e-16 9.52075e-17 -4.21524)
(3.48174e-17 2.72652e-16 -3.9645)
(4.11403e-16 -1.81201e-16 -3.74478)
(1.85776e-17 -2.42977e-16 -3.54329)
(-1.93364e-16 1.02091e-16 -3.37366)
(6.16472e-16 2.14032e-17 -3.22406)
(3.34662e-16 -9.76241e-17 -3.10622)
(1.86508e-17 -1.84466e-16 -3.00999)
(-9.02348e-17 1.81135e-17 -2.94589)
(9.00942e-17 -6.67027e-17 -2.9056)
(-5.58432e-17 1.74176e-17 -2.89453)
(1.58301e-20 1.3137e-17 -2.90891)
(-1.15173e-18 -9.61167e-17 -2.94837)
(1.92405e-16 -1.14931e-16 -3.01246)
(2.1003e-18 -1.07743e-16 -3.09814)
(1.83511e-16 6.114e-16 -3.20514)
(1.71202e-16 4.48997e-17 -3.33097)
(-3.53981e-16 -5.80321e-16 -3.47473)
(5.77975e-18 2.27524e-16 -3.63538)
(-5.74674e-18 1.31233e-17 -3.81193)
(-1.9995e-18 -2.39532e-16 -4.00534)
(1.996e-16 1.08455e-16 -4.21235)
(-3.77587e-16 7.69504e-17 -4.43963)
(-8.80601e-18 1.97912e-16 -4.68047)
(6.09718e-16 1.07566e-15 -4.94223)
(-2.50681e-16 -9.73156e-16 -5.22511)
(-8.79082e-16 -1.7244e-15 -5.52773)
(4.52246e-16 1.41118e-15 -5.85604)
(-7.9166e-16 4.04382e-16 -6.21084)
(7.98826e-16 -6.75659e-16 -6.59033)
(3.20727e-16 -7.35693e-16 -6.99939)
(3.25604e-17 2.50368e-16 -7.43904)
(4.34328e-16 1.07467e-15 -7.90522)
(-1.45031e-15 -5.02413e-16 -8.4014)
(8.97511e-17 3.2229e-17 -8.9248)
(-4.19538e-16 -7.69696e-16 -9.47258)
(1.71193e-16 -1.20825e-16 -10.0435)
(4.91643e-16 6.94399e-16 -10.6348)
(1.72542e-16 8.15354e-16 -11.2348)
(5.08881e-17 -6.74572e-17 -11.8502)
(3.43709e-16 5.80318e-16 -12.4751)
(6.11899e-16 6.73362e-16 -13.0863)
(-8.17475e-17 -6.11066e-18 -13.707)
(7.61694e-17 2.51986e-16 -14.3176)
(5.14576e-16 -1.03783e-17 -14.8964)
(1.6339e-18 2.58639e-16 -15.4862)
(-1.18346e-16 -7.96825e-17 -16.0374)
(-2.05998e-16 5.69618e-16 -16.5786)
(-4.7535e-17 1.946e-16 -17.1001)
(4.5675e-16 -4.9171e-16 -17.6002)
(1.77125e-16 -5.44345e-16 -18.0838)
(-2.36837e-16 -2.72347e-16 -18.5489)
(-3.53741e-16 1.92598e-17 -18.983)
(-1.12291e-16 5.83017e-17 -19.4025)
(1.24285e-16 -8.88376e-17 -19.7534)
(-8.67181e-17 8.81067e-17 -20.0618)
(6.66325e-17 -4.71881e-17 -20.2578)
(-2.93909e-16 1.51312e-16 -20.3281)
(-4.69959e-17 4.50914e-17 -20.2553)
(3.01625e-16 -3.37264e-16 -19.9914)
(9.42668e-17 1.23483e-16 -19.5671)
(-1.04528e-16 3.88751e-17 -18.9293)
(2.44652e-16 -1.76575e-16 -18.142)
(-1.13163e-16 4.0365e-16 -17.2087)
(2.62999e-16 -1.66634e-16 -16.2052)
(-3.27622e-16 -3.40172e-17 -15.1751)
(2.82136e-17 2.06752e-16 -14.2273)
(2.77582e-17 3.66801e-17 -13.4412)
(1.59332e-16 -2.39042e-16 -12.922)
(-1.42346e-16 4.69454e-17 -12.6224)
(-2.79119e-17 6.45318e-17 -12.3785)
(-1.28654e-16 3.94494e-17 -12.0868)
(2.30544e-17 -5.9676e-17 -11.7455)
(-3.30433e-17 -2.64534e-17 -11.3771)
(8.73339e-17 2.31791e-17 -11.0044)
(-5.09236e-19 4.41812e-17 -10.6505)
(-1.27828e-17 -2.5518e-17 -10.335)
(-2.69259e-17 -4.55726e-17 -10.0748)
(5.98264e-18 8.99606e-18 -9.89016)
(7.44304e-18 3.6682e-17 -9.79154)
(1.49825e-18 -3.24553e-17 -9.77388)
(-1.45648e-18 -8.07376e-18 -9.82262)
(-4.11385e-18 1.8015e-17 -9.91838)
(4.37902e-17 3.77121e-18 -10.0413)
(-3.63714e-17 1.6151e-17 -10.1733)
(-1.87179e-17 -2.91287e-17 -10.2999)
(1.37673e-17 8.32715e-20 -10.4106)
(4.50897e-18 1.28915e-17 -10.4987)
(-9.32623e-18 2.25014e-18 -10.5615)
(6.80625e-18 3.08873e-18 -10.5991)
(-9.22946e-19 2.76916e-18 -10.6143)
(-5.55706e-18 -1.43901e-17 -10.6112)
(1.20641e-17 1.55513e-18 -10.595)
(-7.54168e-19 7.62644e-18 -10.5711)
(1.76848e-18 -1.32021e-18 -10.5443)
(1.30874e-18 -4.49891e-18 -10.5184)
(-3.42953e-18 1.16208e-17 -10.4958)
(4.23208e-18 -3.96582e-18 -10.4775)
(3.94061e-18 -4.70721e-18 -10.463)
(-3.8701e-18 -6.13983e-18 -10.4509)
(1.0741e-18 3.81534e-18 -10.4379)
(1.48264e-18 -3.73786e-18 -10.4216)
(-2.0727e-19 2.78386e-18 -10.3992)
(-8.11642e-19 2.13345e-18 -10.3688)
(5.89251e-19 2.44793e-18 -10.3292)
(1.26187e-19 -5.61972e-19 -10.2798)
(-6.41615e-20 -3.46994e-18 -10.2181)
(1.09507e-19 -1.89895e-19 -10.1384)
(0 -0 2.06067)
(0 -0 2.33306)
(-1.23461e-19 1.39492e-17 2.14279)
(4.11291e-19 -1.69953e-17 1.53904)
(-1.91078e-19 -1.07906e-17 0.750709)
(-6.84873e-19 4.09963e-17 -0.293814)
(-2.72108e-17 -3.39866e-17 -1.31948)
(5.75347e-17 -4.73361e-17 -2.27533)
(-3.16264e-17 8.80454e-17 -3.14809)
(1.8716e-18 -1.37064e-17 -3.91569)
(7.47659e-19 -4.72329e-17 -4.58978)
(-5.98526e-17 2.70569e-17 -5.1115)
(1.13276e-16 5.37616e-17 -5.54374)
(-1.14136e-16 -1.32218e-17 -5.89765)
(1.25461e-16 -1.61108e-16 -6.18639)
(-6.37701e-17 7.94496e-17 -6.41653)
(-8.03463e-18 9.49258e-17 -6.60142)
(6.63582e-18 -5.38074e-17 -6.75234)
(-2.98163e-18 5.31916e-17 -6.87707)
(-5.09132e-17 -6.52217e-17 -6.98236)
(6.55461e-17 -4.1285e-17 -7.07404)
(-1.17383e-17 5.33152e-17 -7.15635)
(1.15373e-16 -1.05163e-16 -7.23239)
(-1.33195e-16 2.32634e-16 -7.30429)
(1.17687e-17 -4.43481e-17 -7.37324)
(2.21299e-17 -2.92403e-16 -7.43974)
(-9.57579e-18 1.26799e-16 -7.50372)
(-1.64509e-17 3.11598e-16 -7.56477)
(1.17863e-16 -1.45462e-16 -7.62222)
(-9.01073e-17 -2.90794e-16 -7.67515)
(-2.05098e-17 1.23568e-16 -7.72243)
(1.44788e-19 2.05984e-16 -7.76224)
(-1.80651e-17 8.38653e-17 -7.79445)
(1.29753e-16 -2.24633e-16 -7.82838)
(-1.06776e-16 -8.97217e-17 -7.83312)