/*--------------------------------*- C++ -*----------------------------------*\
| =========                 |                                                 |
| \\      /  F ield         | OpenFOAM: The Open Source CFD Toolbox           |
|  \\    /   O peration     | Version:  2506                                  |
|   \\  /    A nd           | Website:  www.openfoam.com                      |
|    \\/     M anipulation  |                                                 |
\*---------------------------------------------------------------------------*/
FoamFile
{
    version     2.0;
    format      ascii;
    arch        "LSB;label=32;scalar=64";
    class       surfaceScalarField;
    location    "0.5";
    object      phi;
}
// * * * * * * * * * * * * * * * * * * * * * * * * * * * * * * * * * * * * * //

dimensions      [0 3 -1 0 0 0 0];

oriented        oriented;

internalField   nonuniform List<scalar> 
7780
(
2.08108e-09
4.18588e-10
1.64727e-09
4.33926e-10
1.34961e-09
2.97527e-10
1.16551e-09
1.84019e-10
1.05548e-09
1.10009e-10
9.87493e-10
6.7978e-11
9.42375e-10
4.51043e-11
9.1006e-10
3.23086e-11
8.85313e-10
2.47445e-11
8.65378e-10
1.99347e-11
8.48768e-10
1.66098e-11
8.34632e-10
1.41363e-11
8.22426e-10
1.22051e-11
8.1177e-10
1.06564e-11
8.0237e-10
9.39946e-12
7.93988e-10
8.3819e-12
7.86417e-10
7.56971e-12
7.7945e-10
6.96628e-12
7.7288e-10
6.56868e-12
7.66504e-10
6.37492e-12
7.60113e-10
6.3901e-12
7.5349e-10
6.62125e-12
7.4641e-10
7.07848e-12
7.38632e-10
7.77698e-12
7.29893e-10
8.73814e-12
7.19901e-10
9.99093e-12
7.08323e-10
1.1577e-11
6.94744e-10
1.35779e-11
6.78656e-10
1.60867e-11
6.59378e-10
1.92772e-11
6.35909e-10
2.34662e-11
6.06628e-10
2.92768e-11
5.68921e-10
3.76966e-11
5.11882e-10
5.70236e-11
4.60472e-10
5.13917e-11
4.39425e-10
2.1038e-11
4.35645e-10
3.78767e-12
4.38366e-10
-2.69208e-12
4.49241e-10
-1.08289e-11
4.72044e-10
-2.27512e-11
5.20469e-10
-4.83873e-11
5.77182e-10
-5.6705e-11
6.28214e-10
-5.10532e-11
6.75387e-10
-4.72094e-11
7.16803e-10
-4.14558e-11
7.54413e-10
-3.76473e-11
7.90436e-10
-3.60599e-11
8.19841e-10
-2.94401e-11
8.48322e-10
-2.85032e-11
8.73385e-10
-2.50771e-11
8.93532e-10
-2.01598e-11
9.12915e-10
-1.93841e-11
9.23909e-10
-1.09806e-11
9.34312e-10
-1.03757e-11
9.34737e-10
-3.89944e-13
9.31236e-10
3.5363e-12
9.19718e-10
1.15486e-11
8.9861e-10
2.11329e-11
8.7698e-10
2.16534e-11
8.40417e-10
3.65934e-11
8.05903e-10
3.45596e-11
7.66106e-10
3.98637e-11
7.24987e-10
4.12072e-11
6.8661e-10
3.848e-11
6.46213e-10
4.05055e-11
6.11951e-10
3.43635e-11
5.77136e-10
3.49047e-11
5.48143e-10
2.90694e-11
5.20481e-10
2.77253e-11
4.96287e-10
2.42462e-11
4.75451e-10
2.08788e-11
4.55324e-10
2.01651e-11
4.38731e-10
1.66311e-11
4.23442e-10
1.53328e-11
4.0942e-10
1.40761e-11
3.97536e-10
1.19528e-11
3.86927e-10
1.06935e-11
3.77323e-10
9.70562e-12
3.69351e-10
8.08937e-12
3.62718e-10
6.76234e-12
3.57212e-10
5.64198e-12
3.53015e-10
4.33535e-12
3.5e-10
3.14983e-12
3.48122e-10
2.00572e-12
3.47591e-10
6.51858e-13
3.47965e-10
-2.61647e-13
3.49125e-10
-1.05582e-12
3.5171e-10
-2.48986e-12
3.54835e-10
-3.0391e-12
3.5827e-10
-3.36167e-12
3.63156e-10
-4.82482e-12
3.68216e-10
-5.00985e-12
3.73441e-10
-5.18729e-12
3.80104e-10
-6.63378e-12
3.85889e-10
-5.76399e-12
3.93658e-10
-7.7547e-12
4.00201e-10
-6.53285e-12
4.09272e-10
-9.06481e-12
4.16694e-10
-7.41882e-12
4.27507e-10
-1.08099e-11
4.36852e-10
-9.34409e-12
4.48397e-10
-1.15436e-11
4.59914e-10
-1.15164e-11
4.70943e-10
-1.10268e-11
4.84089e-10
-1.31419e-11
4.95759e-10
-1.16641e-11
5.09414e-10
-1.36468e-11
5.21886e-10
-1.24611e-11
5.34623e-10
-1.27224e-11
5.46711e-10
-1.20689e-11
5.5845e-10
-1.17164e-11
5.68918e-10
-1.04395e-11
5.79107e-10
-1.01564e-11
5.86529e-10
-7.38411e-12
5.94996e-10
-8.42182e-12
6.01028e-10
-5.98e-12
6.06189e-10
-5.10265e-12
6.11186e-10
-4.93317e-12
6.14639e-10
-3.38486e-12
6.17567e-10
-2.85796e-12
6.20603e-10
-2.96578e-12
6.22925e-10
-2.2533e-12
6.24862e-10
-1.86902e-12
6.27338e-10
-2.40658e-12
6.29806e-10
-2.39352e-12
6.32656e-10
-2.76573e-12
6.36063e-10
-3.30795e-12
6.39923e-10
-3.74539e-12
6.44802e-10
-4.75363e-12
6.51389e-10
-6.4575e-12
6.57968e-10
-6.46121e-12
6.66172e-10
-8.112e-12
6.77211e-10
-1.09919e-11
6.88022e-10
-1.08215e-11
7.00955e-10
-1.30071e-11
7.17854e-10
-1.70377e-11
7.32616e-10
-1.49549e-11
7.51886e-10
-1.95034e-11
7.70407e-10
-1.87719e-11
7.90137e-10
-1.99747e-11
8.09396e-10
-1.94678e-11
8.26857e-10
-1.76112e-11
8.40937e-10
-1.4156e-11
8.52304e-10
-1.13647e-11
8.53977e-10
-1.60548e-12
8.54823e-10
-7.33304e-13
8.39992e-10
1.4965e-11
8.22045e-10
1.80835e-11
7.9542e-10
2.67513e-11
7.61213e-10
3.4322e-11
7.26833e-10
3.44858e-11
6.83221e-10
4.37175e-11
6.43796e-10
3.95298e-11
5.98542e-10
4.53539e-11
5.57859e-10
4.07646e-11
5.12981e-10
4.49327e-11
4.70982e-10
4.20255e-11
4.26118e-10
4.48571e-11
3.82398e-10
4.368e-11
3.38827e-10
4.35312e-11
3.39044e-10
-2.41573e-13
3.40586e-10
-1.54144e-12
3.43842e-10
-3.24109e-12
3.50613e-10
-6.75764e-12
3.68859e-10
-1.82456e-11
3.97529e-10
-2.86826e-11
4.47173e-10
-4.96671e-11
4.98349e-10
-5.11957e-11
5.44911e-10
-4.65765e-11
5.89116e-10
-4.42139e-11
6.30596e-10
-4.14834e-11
6.6833e-10
-3.7734e-11
7.01362e-10
-3.30305e-11
7.29087e-10
-2.77215e-11
7.51302e-10
-2.2212e-11
7.68159e-10
-1.68546e-11
7.80119e-10
-1.19574e-11
7.87837e-10
-7.71677e-12
7.9211e-10
-4.27325e-12
7.9349e-10
-1.38134e-12
7.92746e-10
7.4363e-13
7.9044e-10
2.30363e-12
7.87108e-10
3.33018e-12
7.83295e-10
3.81121e-12
7.79371e-10
3.92199e-12
7.75617e-10
3.75151e-12
7.7224e-10
3.37553e-12
7.69379e-10
2.85895e-12
7.67121e-10
2.256e-12
7.65513e-10
1.60726e-12
7.646e-10
9.1186e-13
7.64268e-10
3.30453e-13
7.64498e-10
-2.3093e-13
7.65235e-10
-7.37206e-13
7.66336e-10
-1.10215e-12
7.67768e-10
-1.43228e-12
7.69389e-10
-1.62156e-12
7.70994e-10
-1.60638e-12
7.72186e-10
-1.19372e-12
3.18527e-13
2.63516e-09
2.83498e-10
2.58951e-09
4.79678e-10
2.44535e-09
4.41744e-10
2.28174e-09
3.47683e-10
2.13575e-09
2.55988e-10
2.01935e-09
1.84368e-10
1.9287e-09
1.35734e-10
1.85663e-09
1.04378e-10
1.79779e-09
8.35896e-11
1.74871e-09
6.90065e-11
1.70713e-09
5.81906e-11
1.6715e-09
4.97677e-11
1.64073e-09
4.29767e-11
1.614e-09
3.73922e-11
1.59064e-09
3.27598e-11
1.57009e-09
2.89272e-11
1.55186e-09
2.58008e-11
1.53547e-09
2.33569e-11
1.52046e-09
2.15826e-11
1.50636e-09
2.04771e-11
1.4927e-09
2.00498e-11
1.479e-09
2.03164e-11
1.46478e-09
2.12988e-11
1.44953e-09
2.30275e-11
1.43273e-09
2.55452e-11
1.41381e-09
2.89126e-11
1.39216e-09
3.32194e-11
1.36712e-09
3.86198e-11
1.33789e-09
4.532e-11
1.30351e-09
5.36582e-11
1.26278e-09
6.41919e-11
1.21418e-09
7.78745e-11
1.15545e-09
9.64209e-11
1.08095e-09
1.31518e-10
1.01318e-09
1.19147e-10
9.79419e-10
5.47906e-11
9.71935e-10
1.12619e-11
9.84047e-10
-1.48045e-11
1.01553e-09
-4.2293e-11
1.07075e-09
-7.79152e-11
1.15804e-09
-1.356e-10
1.25735e-09
-1.55948e-10
1.35443e-09
-1.48107e-10
1.44669e-09
-1.39477e-10
1.53059e-09
-1.25395e-10
1.60758e-09
-1.14688e-10
1.6795e-09
-1.08044e-10
1.74166e-09
-9.16708e-11
1.79968e-09
-8.65991e-11
1.85092e-09
-7.63815e-11
1.89434e-09
-6.36385e-11
1.93208e-09
-5.71755e-11
1.95891e-09
-3.78542e-11
1.97902e-09
-3.05147e-11
1.98536e-09
-6.74961e-12
1.9814e-09
7.49682e-12
1.96478e-09
2.81763e-11
1.93302e-09
5.2901e-11
1.89238e-09
6.23109e-11
1.8332e-09
9.5807e-11
1.76859e-09
9.92074e-11
1.6947e-09
1.138e-10
1.61595e-09
1.20031e-10
1.53666e-09
1.17832e-10
1.45496e-09
1.22249e-10
1.37826e-09
1.11082e-10
1.30228e-09
1.10886e-10
1.23299e-09
9.83217e-11
1.16725e-09
9.34077e-11
1.1071e-09
8.43294e-11
1.0523e-09
7.55982e-11
1.00068e-09
7.17179e-11
9.54327e-10
6.29175e-11
9.11592e-10
5.80206e-11
8.72106e-10
5.35334e-11
8.36531e-10
4.75194e-11
8.04171e-10
4.30628e-11
7.74699e-10
3.92025e-11
7.48516e-10
3.43092e-11
7.25506e-10
2.98176e-11
7.0543e-10
2.57651e-11
6.88404e-10
2.14066e-11
6.74315e-10
1.72786e-11
6.63087e-10
1.32666e-11
6.5486e-10
8.90584e-12
6.49348e-10
5.27376e-12
6.46383e-10
1.92969e-12
6.46167e-10
-2.25345e-12
6.47908e-10
-4.76243e-12
6.51433e-10
-6.87092e-12
6.57311e-10
-1.069e-11
6.64979e-10
-1.2667e-11
6.74251e-10
-1.44508e-11
6.859e-10
-1.82755e-11
6.98649e-10
-1.8508e-11
7.14129e-10
-2.32301e-11
7.30787e-10
-2.3188e-11
7.49842e-10
-2.81168e-11
7.70147e-10
-2.77211e-11
7.93266e-10
-3.39263e-11
8.17461e-10
-3.35371e-11
8.44138e-10
-3.82179e-11
8.72245e-10
-3.9621e-11
9.01664e-10
-4.04432e-11
9.32915e-10
-4.43901e-11
9.63431e-10
-4.21786e-11
9.94971e-10
-4.51833e-11
1.02507e-09
-4.25617e-11
1.05432e-09
-4.19663e-11
1.08184e-09
-3.95868e-11
1.10738e-09
-3.72406e-11
1.13066e-09
-3.37172e-11
1.15225e-09
-3.1738e-11
1.17083e-09
-2.59496e-11
1.18867e-09
-2.62493e-11
1.20374e-09
-2.1034e-11
1.21721e-09
-1.85526e-11
1.22972e-09
-1.74256e-11
1.24049e-09
-1.41381e-11
1.25049e-09
-1.28291e-11
1.26036e-09
-1.28197e-11
1.26958e-09
-1.14584e-11
1.27871e-09
-1.09849e-11
1.2886e-09
-1.22914e-11
1.29897e-09
-1.27678e-11
1.31031e-09
-1.41207e-11
1.32289e-09
-1.59062e-11
1.33685e-09
-1.77214e-11
1.35283e-09
-2.07512e-11
1.37131e-09
-2.49376e-11
1.39125e-09
-2.63999e-11
1.41409e-09
-3.09334e-11
1.44074e-09
-3.76223e-11
1.46872e-09
-3.87988e-11
1.50035e-09
-4.46599e-11
1.53606e-09
-5.27908e-11
1.57172e-09
-5.06952e-11
1.61134e-09
-5.92419e-11
1.65091e-09
-5.8482e-11
1.6907e-09
-5.99139e-11
1.72887e-09
-5.77949e-11
1.76283e-09
-5.17086e-11
1.7908e-09
-4.22329e-11
1.81115e-09
-3.17717e-11
1.81842e-09
-8.87813e-12
1.81638e-09
1.3616e-12
1.79554e-09
3.58857e-11
1.76347e-09
5.02505e-11
1.71689e-09
7.34438e-11
1.65597e-09
9.53284e-11
1.58752e-09
1.03026e-10
1.50589e-09
1.25407e-10
1.42248e-09
1.23001e-10
1.33101e-09
1.36849e-10
1.24082e-09
1.30972e-10
1.14532e-09
1.40418e-10
1.05098e-09
1.36349e-10
9.5518e-10
1.40627e-10
8.64289e-10
1.34533e-10
7.79937e-10
1.27867e-10
7.45912e-10
3.37919e-11
7.27913e-10
1.64741e-11
7.22347e-10
2.33937e-12
7.308e-10
-1.52021e-11
7.61284e-10
-4.87304e-11
8.15888e-10
-8.32955e-11
8.99444e-10
-1.33238e-10
9.93481e-10
-1.45249e-10
1.08799e-09
-1.41106e-10
1.18054e-09
-1.3677e-10
1.26822e-09
-1.29179e-10
1.34831e-09
-1.17823e-10
1.41862e-09
-1.03349e-10
1.47781e-09
-8.69151e-11
1.52536e-09
-6.97568e-11
1.56146e-09
-5.2955e-11
1.58692e-09
-3.74104e-11
1.60288e-09
-2.36753e-11
1.61069e-09
-1.20716e-11
1.61173e-09
-2.42215e-12
1.60796e-09
4.51767e-12
1.60055e-09
9.71802e-12
1.59079e-09
1.30882e-11
1.5797e-09
1.49051e-11
1.56815e-09
1.5474e-11
1.55683e-09
1.50727e-11
1.54625e-09
1.39547e-11
1.53676e-09
1.23453e-11
1.52858e-09
1.04379e-11
1.5218e-09
8.39084e-12
1.51638e-09
6.33161e-12
1.51232e-09
4.38562e-12
1.50949e-09
2.59709e-12
1.50773e-09
1.02343e-12
1.50686e-09
-2.3134e-13
1.50672e-09
-1.2922e-12
1.50705e-09
-1.95415e-12
1.50759e-09
-2.14169e-12
1.50805e-09
-1.65956e-12
8.02826e-14
2.61173e-09
1.71912e-10
2.71292e-09
3.78485e-10
2.73129e-09
4.23502e-10
2.68715e-09
3.91966e-10
2.61188e-09
3.31313e-10
2.52544e-09
2.70811e-10
2.44177e-09
2.19374e-10
2.36626e-09
1.79876e-10
2.2996e-09
1.5025e-10
2.24114e-09
1.27476e-10
2.18991e-09
1.09422e-10
2.145e-09
9.4676e-11
2.1056e-09
8.23816e-11
2.07097e-09
7.20228e-11
2.04046e-09
6.3268e-11
2.01348e-09
5.59094e-11
1.98946e-09
4.98243e-11
1.96785e-09
4.4961e-11
1.94813e-09
4.13038e-11
1.92975e-09
3.88592e-11
1.91215e-09
3.76468e-11
1.89477e-09
3.76965e-11
1.87702e-09
3.90477e-11
1.8583e-09
4.17491e-11
1.83798e-09
4.58635e-11
1.81542e-09
5.14779e-11
1.78992e-09
5.87195e-11
1.76076e-09
6.77806e-11
1.72714e-09
7.89419e-11
1.68817e-09
9.26263e-11
1.64289e-09
1.09477e-10
1.59027e-09
1.30488e-10
1.52938e-09
1.57305e-10
1.45807e-09
2.02819e-10
1.39333e-09
1.83883e-10
1.35835e-09
8.97551e-11
1.35453e-09
1.50621e-11
1.3786e-09
-3.88953e-11
1.42946e-09
-9.31727e-11
1.50682e-09
-1.55264e-10
1.61075e-09
-2.39478e-10
1.72468e-09
-2.69798e-10
1.83856e-09
-2.61916e-10
1.94726e-09
-2.48117e-10
2.04707e-09
-2.25171e-10
2.13851e-09
-2.06116e-10
2.2225e-09
-1.92041e-10
2.29638e-09
-1.65564e-10
2.36419e-09
-1.54431e-10
2.42347e-09
-1.35676e-10
2.47371e-09
-1.13894e-10
2.51595e-09
-9.94292e-11
2.5475e-09
-6.94248e-11
2.56958e-09
-5.26119e-11
2.57912e-09
-1.6308e-11
2.57662e-09
9.98554e-12
2.56083e-09
4.39708e-11
2.5302e-09
8.3539e-11
2.48791e-09
1.04613e-10
2.42895e-09
1.54788e-10
2.3603e-09
1.67876e-10
2.28082e-09
1.93321e-10
2.19384e-09
2.07042e-10
2.10242e-09
2.0929e-10
2.0074e-09
2.17296e-10
1.91346e-09
2.05033e-10
1.81981e-09
2.04531e-10
1.73025e-09
1.8786e-10
1.64416e-09
1.79461e-10
1.56281e-09
1.6563e-10
1.48679e-09
1.51568e-10
1.41475e-09
1.43709e-10
1.34807e-09
1.29564e-10
1.28587e-09
1.20208e-10
1.22783e-09
1.11566e-10
1.17439e-09
1.00976e-10
1.12515e-09
9.23296e-11
1.07995e-09
8.4444e-11
1.03898e-09
7.53154e-11
1.00233e-09
6.65165e-11
9.69861e-10
5.82809e-11
9.41695e-10
4.96083e-11
9.17811e-10
4.11891e-11
8.98189e-10
3.29049e-11
8.82884e-10
2.42179e-11
8.71537e-10
1.66239e-11
8.63861e-10
9.60578e-12
8.60166e-10
1.43938e-12
8.60167e-10
-4.76585e-12
8.63493e-10
-1.01995e-11
8.70465e-10
-1.76657e-11
8.80499e-10
-2.27046e-11
8.93304e-10
-2.7259e-11
9.09611e-10
-3.4586e-11
9.28167e-10
-3.70661e-11
9.50377e-10
-4.54419e-11
9.74721e-10
-4.75337e-11
1.00255e-09
-5.59459e-11
1.03231e-09
-5.74862e-11
1.06569e-09
-6.73006e-11
1.10068e-09
-6.85313e-11
1.13842e-09
-7.59575e-11
1.17761e-09
-7.88039e-11
1.21788e-09
-8.07132e-11
1.25929e-09
-8.57947e-11
1.30003e-09
-8.29206e-11
1.34073e-09
-8.58894e-11
1.37988e-09
-8.17066e-11
1.4174e-09
-7.94926e-11
1.45289e-09
-7.5073e-11
1.48596e-09
-7.03145e-11
1.51661e-09
-6.43596e-11
1.54493e-09
-6.00624e-11
1.57056e-09
-5.15757e-11
1.59456e-09
-5.02464e-11
1.6162e-09
-4.26673e-11
1.63617e-09
-3.85087e-11
1.65488e-09
-3.61305e-11
1.67226e-09
-3.1508e-11
1.68889e-09
-2.94422e-11
1.70521e-09
-2.91136e-11
1.72119e-09
-2.74131e-11
1.73733e-09
-2.71046e-11
1.75407e-09
-2.90073e-11
1.77153e-09
-3.02138e-11
1.79009e-09
-3.26683e-11
1.81001e-09
-3.58274e-11
1.83157e-09
-3.92852e-11
1.8552e-09
-4.43926e-11
1.88115e-09
-5.08746e-11
1.90916e-09
-5.43749e-11
1.93994e-09
-6.16491e-11
1.974e-09
-7.16005e-11
2.0098e-09
-7.44952e-11
2.04882e-09
-8.35697e-11
2.09046e-09
-9.43258e-11
2.13275e-09
-9.29035e-11
2.17686e-09
-1.03307e-10
2.22051e-09
-1.02123e-10
2.26269e-09
-1.02112e-10
2.302e-09
-9.7169e-11
2.3357e-09
-8.54897e-11
2.36241e-09
-6.90438e-11
2.37961e-09
-4.90568e-11
2.38465e-09
-1.39868e-11
2.3781e-09
7.87487e-12
2.354e-09
5.99837e-11
2.31608e-09
8.8194e-11
2.263e-09
1.26573e-10
2.19418e-09
1.64208e-10
2.11414e-09
1.83121e-10
2.0198e-09
2.1979e-10
1.91855e-09
2.24279e-10
1.80768e-09
2.47725e-10
1.69332e-09
2.4533e-10
1.57298e-09
2.60734e-10
1.45092e-09
2.58404e-10
1.32811e-09
2.63392e-10
1.21264e-09
2.4997e-10
1.10533e-09
2.35162e-10
1.03973e-09
9.94081e-11
9.99803e-10
5.64251e-11
9.82899e-10
1.92577e-11
9.9064e-10
-2.29358e-11
1.02995e-09
-8.80465e-11
1.10071e-09
-1.54066e-10
1.20278e-09
-2.35322e-10
1.31827e-09
-2.60766e-10
1.43603e-09
-2.58882e-10
1.55124e-09
-2.52002e-10
1.65987e-09
-2.37825e-10
1.75867e-09
-2.16633e-10
1.84526e-09
-1.89948e-10
1.91821e-09
-1.59864e-10
1.97695e-09
-1.285e-10
2.02172e-09
-9.77216e-11
2.05335e-09
-6.90293e-11
2.07314e-09
-4.34595e-11
2.08271e-09
-2.16348e-11
2.08408e-09
-3.78634e-12
2.07868e-09
9.91859e-12
2.06848e-09
1.99262e-11
2.05501e-09
2.65603e-11
2.03964e-09
3.02818e-11
2.02351e-09
3.16044e-11
2.00754e-09
3.10388e-11
1.99243e-09
2.9066e-11
1.97866e-09
2.61216e-11
1.96651e-09
2.25842e-11
1.95613e-09
1.877e-11
1.94753e-09
1.49332e-11
1.94065e-09
1.12705e-11
1.93533e-09
7.91627e-12
1.93138e-09
4.96776e-12
1.92865e-09
2.4994e-12
1.92682e-09
5.33348e-13
1.92571e-09
-8.4172e-13
1.92509e-09
-1.52077e-12
1.92486e-09
-1.43259e-12
-1.54593e-13
2.56398e-09
1.07871e-10
2.6703e-09
2.7223e-10
2.74702e-09
3.4683e-10
2.78025e-09
3.58842e-10
2.7743e-09
3.37285e-10
2.74489e-09
3.00244e-10
2.70183e-09
2.62419e-10
2.65315e-09
2.28523e-10
2.60433e-09
1.99057e-10
2.55778e-09
1.74031e-10
2.51448e-09
1.52728e-10
2.47481e-09
1.34354e-10
2.43876e-09
1.18427e-10
2.40616e-09
1.04628e-10
2.3767e-09
9.27223e-11
2.35006e-09
8.25566e-11
2.32584e-09
7.4044e-11
2.30365e-09
6.71513e-11
2.28307e-09
6.18846e-11
2.26365e-09
5.82763e-11
2.24492e-09
5.63704e-11
2.22639e-09
5.62257e-11
2.20753e-09
5.79153e-11
2.18776e-09
6.15188e-11
2.16649e-09
6.71281e-11
2.14311e-09
7.48596e-11
2.11696e-09
8.48712e-11
2.08735e-09
9.73844e-11
2.05358e-09
1.12712e-10
2.01491e-09
1.31298e-10
1.97062e-09
1.53773e-10
1.92007e-09
1.81029e-10
1.86297e-09
2.14404e-10
1.79825e-09
2.67527e-10
1.73952e-09
2.42607e-10
1.70647e-09
1.2279e-10
1.70395e-09
1.75568e-11
1.73148e-09
-6.64608e-11
1.78746e-09
-1.49191e-10
1.86844e-09
-2.36271e-10
1.97033e-09
-3.41368e-10
2.07985e-09
-3.79274e-10
2.19054e-09
-3.7254e-10
2.29654e-09
-3.54038e-10
2.39434e-09
-3.22906e-10
2.48398e-09
-2.95713e-10
2.56601e-09
-2.74039e-10
2.63867e-09
-2.38191e-10
2.70523e-09
-2.20985e-10
2.76287e-09
-1.93296e-10
2.81243e-09
-1.63433e-10
2.85347e-09
-1.40456e-10
2.88507e-09
-1.01018e-10
2.90716e-09
-7.47081e-11
2.91859e-09
-2.77407e-11
2.91889e-09
9.68006e-12
2.90749e-09
5.53691e-11
2.88327e-09
1.07766e-10
2.84758e-09
1.40309e-10
2.79801e-09
2.04381e-10
2.73764e-09
2.28258e-10
2.66615e-09
2.64815e-10
2.58574e-09
2.8745e-10
2.49834e-09
2.96684e-10
2.40545e-09
3.10167e-10
2.31012e-09
3.00332e-10
2.21324e-09
3.01386e-10
2.11743e-09
2.83637e-10
2.02349e-09
2.7336e-10
1.93258e-09
2.56506e-10
1.84589e-09
2.38229e-10
1.76283e-09
2.26748e-10
1.68464e-09
2.07743e-10
1.61097e-09
1.93885e-10
1.54177e-09
1.80793e-10
1.47746e-09
1.65309e-10
1.41789e-09
1.51948e-10
1.36305e-09
1.39321e-10
1.31315e-09
1.25262e-10
1.26838e-09
1.11331e-10
1.22869e-09
9.80134e-11
1.19426e-09
8.40571e-11
1.16514e-09
7.03186e-11
1.14136e-09
5.66883e-11
1.12304e-09
4.25206e-11
1.10998e-09
2.96682e-11
1.10197e-09
1.76039e-11
1.09946e-09
3.92736e-12
1.10171e-09
-7.02656e-12
1.10857e-09
-1.70784e-11
1.12015e-09
-2.92594e-11
1.13588e-09
-3.8448e-11
1.15524e-09
-4.66338e-11
1.17887e-09
-5.82252e-11
1.20529e-09
-6.34838e-11
1.23573e-09
-7.58875e-11
1.26838e-09
-8.01896e-11
1.30447e-09
-9.2039e-11
1.34204e-09
-9.50682e-11
1.38267e-09
-1.07924e-10
1.42402e-09
-1.09881e-10
1.4671e-09
-1.1904e-10
1.51039e-09
-1.221e-10
1.55357e-09
-1.23892e-10
1.59652e-09
-1.2874e-10
1.63785e-09
-1.24253e-10
1.67795e-09
-1.25986e-10
1.71584e-09
-1.19598e-10
1.75143e-09
-1.15087e-10
1.78471e-09
-1.08362e-10
1.81543e-09
-1.01035e-10
1.84386e-09
-9.27963e-11
1.8701e-09
-8.63121e-11
1.89418e-09
-7.5658e-11
1.91684e-09
-7.29154e-11
1.93782e-09
-6.36512e-11
1.95764e-09
-5.83301e-11
1.9767e-09
-5.51999e-11
1.99507e-09
-4.98744e-11
2.01317e-09
-4.75433e-11
2.03142e-09
-4.73542e-11
2.04983e-09
-4.58122e-11
2.06885e-09
-4.61049e-11
2.08877e-09
-4.8904e-11
2.10972e-09
-5.11487e-11
2.132e-09
-5.49392e-11
2.1558e-09
-5.9628e-11
2.18135e-09
-6.4834e-11
2.20889e-09
-7.19446e-11
2.23847e-09
-8.0461e-11
2.27017e-09
-8.60509e-11
2.3042e-09
-9.56326e-11
2.34076e-09
-1.08068e-10
2.37878e-09
-1.12379e-10
2.41912e-09
-1.23754e-10
2.46071e-09
-1.3575e-10
2.50277e-09
-1.34797e-10
2.54491e-09
-1.45286e-10
2.58597e-09
-1.43062e-10
2.62438e-09
-1.40437e-10
2.6593e-09
-1.32052e-10
2.68825e-09
-1.14443e-10
2.71041e-09
-9.12532e-11
2.72334e-09
-6.20623e-11
2.72595e-09
-1.66834e-11
2.71696e-09
1.6788e-11
2.69401e-09
8.28768e-11
2.65737e-09
1.24807e-10
2.6069e-09
1.77047e-10
2.54126e-09
2.29872e-10
2.46325e-09
2.61164e-10
2.37077e-09
3.12287e-10
2.26843e-09
3.26631e-10
2.15481e-09
3.6133e-10
2.03406e-09
3.66054e-10
1.9062e-09
3.88571e-10
1.77396e-09
3.9062e-10
1.64071e-09
3.96591e-10
1.51654e-09
3.74111e-10
1.40062e-09
3.51087e-10
1.32187e-09
1.78188e-10
1.27347e-09
1.04843e-10
1.25553e-09
3.72192e-11
1.26958e-09
-3.69829e-11
1.32118e-09
-1.39641e-10
1.40672e-09
-2.39619e-10
1.52231e-09
-3.5094e-10
1.64868e-09
-3.87166e-10
1.7747e-09
-3.84931e-10
1.89562e-09
-3.72948e-10
2.00775e-09
-3.49977e-10
2.1084e-09
-3.173e-10
2.19579e-09
-2.77341e-10
2.26894e-09
-2.33025e-10
2.32766e-09
-1.87212e-10
2.37234e-09
-1.42397e-10
2.4039e-09
-1.00578e-10
2.42364e-09
-6.31946e-11
2.43316e-09
-3.11451e-11
2.43423e-09
-4.84315e-12
2.42849e-09
1.56631e-11
2.41771e-09
3.07136e-11
2.40346e-09
4.08209e-11
2.38712e-09
4.6621e-11
2.3699e-09
4.88314e-11
2.35275e-09
4.81894e-11
2.33641e-09
4.5404e-11
2.32141e-09
4.11256e-11
2.30807e-09
3.59248e-11
2.29656e-09
3.02819e-11
2.28691e-09
2.45825e-11
2.27906e-09
1.91212e-11
2.27287e-09
1.41069e-11
2.26815e-09
9.68067e-12
2.26472e-09
5.93357e-12
2.26233e-09
2.91887e-12
2.2608e-09
6.88426e-13
2.25998e-09
-7.03488e-13
2.25979e-09
-1.24221e-12
-6.192e-13
2.53706e-09
7.07251e-11
2.61753e-09
1.91719e-10
2.69994e-09
2.64382e-10
2.76388e-09
2.9494e-10
2.80388e-09
2.97268e-10
2.82075e-09
2.83421e-10
2.82042e-09
2.62778e-10
2.8093e-09
2.39601e-10
2.79159e-09
2.1674e-10
2.77023e-09
1.95399e-10
2.74729e-09
1.75672e-10
2.72408e-09
1.57569e-10
2.7013e-09
1.41207e-10
2.67934e-09
1.26587e-10
2.65838e-09
1.13687e-10
2.63843e-09
1.02501e-10
2.61944e-09
9.30368e-11
2.60127e-09
8.53261e-11
2.58372e-09
7.94254e-11
2.56658e-09
7.54166e-11
2.54957e-09
7.33792e-11
2.53238e-09
7.34167e-11
2.51464e-09
7.56578e-11
2.49593e-09
8.02285e-11
2.47579e-09
8.72638e-11
2.45373e-09
9.69212e-11
2.4292e-09
1.09396e-10
2.40165e-09
1.24938e-10
2.37048e-09
1.43878e-10
2.33512e-09
1.66656e-10
2.29504e-09
1.93852e-10
2.24985e-09
2.26223e-10
2.19942e-09
2.64826e-10
2.14306e-09
3.23883e-10
2.09135e-09
2.94314e-10
2.05998e-09
1.54151e-10
2.05487e-09
2.26413e-11
2.07757e-09
-8.91945e-11
2.12651e-09
-1.98188e-10
2.19703e-09
-3.06839e-10
2.28384e-09
-4.28225e-10
2.37707e-09
-4.7251e-10
2.47306e-09
-4.68493e-10
2.56561e-09
-4.46536e-10
2.6514e-09
-4.08637e-10
2.7302e-09
-3.74462e-10
2.80233e-09
-3.4612e-10
2.86746e-09
-3.03277e-10
2.9257e-09
-2.792e-10
2.97666e-09
-2.44238e-10
3.02117e-09
-2.07909e-10
3.05791e-09
-1.77182e-10
3.08709e-09
-1.30176e-10
3.10797e-09
-9.55818e-11
3.12056e-09
-4.03275e-11
3.124e-09
6.23052e-12
3.11824e-09
6.11318e-11
3.10242e-09
1.236e-10
3.07676e-09
1.65984e-10
3.04034e-09
2.40815e-10
2.99388e-09
2.74727e-10
2.93719e-09
3.21508e-10
2.87148e-09
3.53138e-10
2.79753e-09
3.70606e-10
2.71689e-09
3.90759e-10
2.63125e-09
3.85927e-10
2.54217e-09
3.90418e-10
2.45143e-09
3.74334e-10
2.36056e-09
3.642e-10
2.27068e-09
3.46359e-10
2.1834e-09
3.255e-10
2.09872e-09
3.11423e-10
2.01803e-09
2.88442e-10
1.94139e-09
2.70553e-10
1.86903e-09
2.53181e-10
1.80155e-09
2.32818e-10
1.73894e-09
2.14598e-10
1.6814e-09
1.96904e-10
1.62914e-09
1.77561e-10
1.58245e-09
1.58049e-10
1.54131e-09
1.39179e-10
1.50595e-09
1.1942e-10
1.47643e-09
9.98256e-11
1.4528e-09
8.02953e-11
1.43524e-09
6.00523e-11
1.42355e-09
4.13281e-11
1.4175e-09
2.36162e-11
1.4175e-09
3.89576e-12
1.42277e-09
-1.23241e-11
1.43316e-09
-2.74856e-11
1.44864e-09
-4.47665e-11
1.46863e-09
-5.8449e-11
1.49235e-09
-7.03725e-11
1.52039e-09
-8.62784e-11
1.55096e-09
-9.4063e-11
1.5852e-09
-1.10144e-10
1.62103e-09
-1.16025e-10
1.65952e-09
-1.30538e-10
1.69854e-09
-1.34088e-10
1.73944e-09
-1.48831e-10
1.77989e-09
-1.50331e-10
1.82081e-09
-1.59966e-10
1.86074e-09
-1.62026e-10
1.89956e-09
-1.6271e-10
1.93708e-09
-1.66266e-10
1.97248e-09
-1.59651e-10
2.006e-09
-1.59508e-10
2.03723e-09
-1.50829e-10
2.06608e-09
-1.43939e-10
2.09288e-09
-1.35166e-10
2.11741e-09
-1.2558e-10
2.1402e-09
-1.1559e-10
2.16126e-09
-1.07387e-10
2.18089e-09
-9.52997e-11
2.19954e-09
-9.15773e-11
2.21725e-09
-8.1373e-11
2.23437e-09
-7.54654e-11
2.25126e-09
-7.21059e-11
2.26805e-09
-6.6674e-11
2.28503e-09
-6.45382e-11
2.30255e-09
-6.48916e-11
2.32066e-09
-6.39221e-11
2.33971e-09
-6.5154e-11
2.35986e-09
-6.906e-11
2.38127e-09
-7.2555e-11
2.40414e-09
-7.78066e-11
2.42857e-09
-8.40702e-11
2.45473e-09
-9.10045e-11
2.48271e-09
-9.9943e-11
2.51234e-09
-1.10116e-10
2.54403e-09
-1.17755e-10
2.5776e-09
-1.29209e-10
2.61282e-09
-1.43247e-10
2.64907e-09
-1.48532e-10
2.68681e-09
-1.61363e-10
2.72473e-09
-1.7351e-10
2.76279e-09
-1.72676e-10
2.79972e-09
-1.8204e-10
2.83522e-09
-1.78393e-10
2.86754e-09
-1.72617e-10
2.89637e-09
-1.6078e-10
2.91963e-09
-1.37653e-10
2.93709e-09
-1.08704e-10
2.94658e-09
-7.15962e-11
2.94802e-09
-1.81857e-11
2.93936e-09
2.53651e-11
2.92039e-09
1.01784e-10
2.8895e-09
1.55647e-10
2.84715e-09
2.19385e-10
2.79141e-09
2.85618e-10
2.72381e-09
3.28778e-10
2.64256e-09
3.93549e-10
2.55026e-09
4.18932e-10
2.44572e-09
4.65849e-10
2.33198e-09
4.79761e-10
2.20933e-09
5.11178e-10
2.08046e-09
5.19436e-10
1.94962e-09
5.27392e-10
1.82959e-09
4.94131e-10
1.71848e-09
4.62221e-10
1.64338e-09
2.53327e-10
1.60095e-09
1.47295e-10
1.59283e-09
4.53602e-11
1.61997e-09
-6.41142e-11
1.6861e-09
-2.05773e-10
1.78389e-09
-3.37418e-10
1.90655e-09
-4.73622e-10
2.03419e-09
-5.14845e-10
2.1569e-09
-5.07672e-10
2.27109e-09
-4.87181e-10
2.37423e-09
-4.53142e-10
2.46471e-09
-4.07803e-10
2.54171e-09
-3.54362e-10
2.60507e-09
-2.96388e-10
2.65512e-09
-2.37261e-10
2.69261e-09
-1.7988e-10
2.7186e-09
-1.26553e-10
2.73437e-09
-7.89501e-11
2.74135e-09
-3.81148e-11
2.74105e-09
-4.52973e-12
2.73494e-09
2.1783e-11
2.72447e-09
4.11908e-11
2.71098e-09
5.43123e-11
2.69568e-09
6.19285e-11
2.67959e-09
6.4926e-11
2.66356e-09
6.42284e-11
2.64823e-09
6.07348e-11
2.63408e-09
5.52755e-11
2.62142e-09
4.85852e-11
2.61042e-09
4.12866e-11
2.60112e-09
3.38825e-11
2.59348e-09
2.6757e-11
2.5874e-09
2.01842e-11
2.58274e-09
1.43465e-11
2.57931e-09
9.35509e-12
2.57696e-09
5.26896e-12
2.57553e-09
2.11672e-12
2.57492e-09
-8.84177e-14
2.57506e-09
-1.39177e-12
-1.47855e-12
2.52316e-09
4.75028e-11
2.58133e-09
1.3348e-10
2.65293e-09
1.92709e-10
2.72243e-09
2.25421e-10
2.78128e-09
2.38441e-10
2.82641e-09
2.38336e-10
2.85874e-09
2.30455e-10
2.87994e-09
2.18389e-10
2.89234e-09
2.04334e-10
2.89838e-09
1.89347e-10
2.89988e-09
1.74179e-10
2.89797e-09
1.59483e-10
2.89353e-09
1.45657e-10
2.88724e-09
1.32876e-10
2.87957e-09
1.21355e-10
2.87083e-09
1.11245e-10
2.8612e-09
1.02663e-10
2.85081e-09
9.57148e-11
2.83972e-09
9.05182e-11
2.82791e-09
8.72266e-11
2.81535e-09
8.59343e-11
2.80196e-09
8.68027e-11
2.78758e-09
9.00353e-11
2.772e-09
9.58083e-11
2.75496e-09
1.04308e-10
2.73614e-09
1.15741e-10
2.71518e-09
1.30349e-10
2.6917e-09
1.48419e-10
2.66528e-09
1.70302e-10
2.6355e-09
1.96432e-10
2.602e-09
2.27347e-10
2.56454e-09
2.63684e-10
2.52307e-09
3.06296e-10
2.47712e-09
3.69829e-10
2.43376e-09
3.37669e-10
2.40389e-09
1.84014e-10
2.39395e-09
3.25616e-11
2.40726e-09
-1.02527e-10
2.44273e-09
-2.33711e-10
2.49566e-09
-3.59836e-10
2.56111e-09
-4.93733e-10
2.6327e-09
-5.44148e-10
2.70898e-09
-5.44778e-10
2.78345e-09
-5.20985e-10
2.85284e-09
-4.7799e-10
2.91673e-09
-4.3831e-10
2.97529e-09
-4.04639e-10
3.02923e-09
-3.57174e-10
3.07642e-09
-3.2634e-10
3.1184e-09
-2.862e-10
3.15525e-09
-2.44728e-10
3.18591e-09
-2.0783e-10
3.21115e-09
-1.554e-10
3.22989e-09
-1.14319e-10
3.24293e-09
-5.33667e-11
3.24925e-09
-8.99276e-14
3.24916e-09
6.12333e-11
3.24205e-09
1.30726e-10
3.22747e-09
1.80583e-10
3.20547e-09
2.62832e-10
3.17528e-09
3.04936e-10
3.13665e-09
3.60142e-10
3.09006e-09
3.9972e-10
3.03523e-09
4.25403e-10
2.97354e-09
4.52409e-10
2.90541e-09
4.54005e-10
2.83261e-09
4.63174e-10
2.75605e-09
4.50861e-10
2.67755e-09
4.42681e-10
2.59808e-09
4.25824e-10
2.51943e-09
4.04157e-10
2.442e-09
3.88864e-10
2.36734e-09
3.63137e-10
2.29581e-09
3.42117e-10
2.22792e-09
3.21104e-10
2.16445e-09
2.96331e-10
2.1055e-09
2.73587e-10
2.05144e-09
2.50997e-10
2.00249e-09
2.26545e-10
1.95899e-09
2.01558e-10
1.92089e-09
1.77283e-10
1.88842e-09
1.51881e-10
1.86158e-09
1.26636e-10
1.84039e-09
1.01447e-10
1.82501e-09
7.5388e-11
1.81522e-09
5.10771e-11
1.81073e-09
2.80566e-11
1.81194e-09
2.64343e-12
1.818e-09
-1.84192e-11
1.82881e-09
-3.83241e-11
1.8442e-09
-6.01839e-11
1.86365e-09
-7.7921e-11
1.88623e-09
-9.29742e-11
1.9125e-09
-1.12563e-10
1.94056e-09
-1.22144e-10
1.97145e-09
-1.41047e-10
2.00307e-09
-1.47652e-10
2.03635e-09
-1.6382e-10
2.06926e-09
-1.67003e-10
2.10296e-09
-1.8254e-10
2.13542e-09
-1.8279e-10
2.1675e-09
-1.92053e-10
2.19799e-09
-1.92515e-10
2.22707e-09
-1.91792e-10
2.25454e-09
-1.9373e-10
2.28015e-09
-1.85268e-10
2.30401e-09
-1.83363e-10
2.3262e-09
-1.73028e-10
2.34658e-09
-1.64325e-10
2.3657e-09
-1.54294e-10
2.38332e-09
-1.43205e-10
2.40004e-09
-1.32319e-10
2.41575e-09
-1.2311e-10
2.43089e-09
-1.10451e-10
2.44556e-09
-1.0627e-10
2.46002e-09
-9.5852e-11
2.47442e-09
-8.98836e-11
2.48902e-09
-8.67247e-11
2.50396e-09
-8.16473e-11
2.51942e-09
-8.00231e-11
2.53567e-09
-8.11575e-11
2.55271e-09
-8.09934e-11
2.57086e-09
-8.33187e-11
2.59016e-09
-8.83678e-11
2.61073e-09
-9.31427e-11
2.63272e-09
-9.98017e-11
2.65615e-09
-1.07511e-10
2.6811e-09
-1.1598e-10
2.70754e-09
-1.26411e-10
2.73524e-09
-1.37846e-10
2.76486e-09
-1.47413e-10
2.7954e-09
-1.59793e-10
2.82713e-09
-1.74977e-10
2.85933e-09
-1.80704e-10
2.89229e-09
-1.94244e-10
2.92459e-09
-2.05693e-10
2.95674e-09
-2.04672e-10
2.98702e-09
-2.1216e-10
3.01577e-09
-2.06967e-10
3.04128e-09
-1.97974e-10
3.06371e-09
-1.83092e-10
3.08145e-09
-1.55304e-10
3.09474e-09
-1.21958e-10
3.10178e-09
-7.86479e-11
3.10326e-09
-1.97025e-11
3.09684e-09
3.17215e-11
3.08363e-09
1.14934e-10
3.06111e-09
1.78115e-10
3.03006e-09
2.50411e-10
2.98822e-09
3.27465e-10
2.93624e-09
3.80776e-10
2.87241e-09
4.57396e-10
2.79781e-09
4.93531e-10
2.71114e-09
5.52501e-10
2.61438e-09
5.76499e-10
2.50717e-09
6.18336e-10
2.39259e-09
6.3395e-10
2.27493e-09
6.45029e-10
2.16977e-09
5.99301e-10
2.07445e-09
5.57575e-10
2.01408e-09
3.13728e-10
1.98672e-09
1.74677e-10
1.99419e-09
3.79137e-11
2.03631e-09
-1.06228e-10
2.11466e-09
-2.84112e-10
2.21851e-09
-4.41281e-10
2.33906e-09
-5.94196e-10
2.45799e-09
-6.33806e-10
2.5675e-09
-6.1723e-10
2.66555e-09
-5.85271e-10
2.75089e-09
-5.38524e-10
2.8231e-09
-4.80033e-10
2.88232e-09
-4.13602e-10
2.92919e-09
-3.43263e-10
2.96463e-09
-2.727e-10
2.98976e-09
-2.05001e-10
3.00581e-09
-1.42597e-10
3.01409e-09
-8.72124e-11
3.01587e-09
-3.98846e-11
3.0124e-09
-1.0451e-12
3.00483e-09
2.93623e-11
2.99425e-09
5.17845e-11
2.98164e-09
6.69367e-11
2.96785e-09
7.57181e-11
2.95364e-09
7.91444e-11
2.9396e-09
7.82739e-11
2.9262e-09
7.41375e-11
2.91379e-09
6.76875e-11
2.90261e-09
5.97708e-11
2.89278e-09
5.1111e-11
2.88437e-09
4.22957e-11
2.87735e-09
3.37745e-11
2.87167e-09
2.58693e-11
2.86722e-09
1.87943e-11
2.8639e-09
1.26768e-11
2.86158e-09
7.57792e-12
2.86019e-09
3.51063e-12
2.85964e-09
4.62588e-13
2.85989e-09
-1.6516e-12
-2.51866e-12
2.51584e-09
3.16294e-11
2.55898e-09
9.02812e-11
2.61795e-09
1.33681e-10