/*--------------------------------*- C++ -*----------------------------------*\
| =========                 |                                                 |
| \\      /  F ield         | OpenFOAM: The Open Source CFD Toolbox           |
|  \\    /   O peration     | Version:  2506                                  |
|   \\  /    A nd           | Website:  www.openfoam.com                      |
|    \\/     M anipulation  |                                                 |
\*---------------------------------------------------------------------------*/
FoamFile
{
    version     2.0;
    format      ascii;
    arch        "LSB;label=32;scalar=64";
    class       surfaceScalarField;
    location    "3.55";
    object      phi;
}
// * * * * * * * * * * * * * * * * * * * * * * * * * * * * * * * * * * * * * //

dimensions      [0 3 -1 0 0 0 0];

oriented        oriented;

internalField   nonuniform List<scalar> 
7780
(
2.79771e-09
5.02288e-10
2.22431e-09
5.73392e-10
1.80723e-09
4.17076e-10
1.53378e-09
2.73455e-10
1.36506e-09
1.6871e-10
1.26263e-09
1.02431e-10
1.19895e-09
6.36784e-11
1.15753e-09
4.14251e-11
1.12878e-09
2.87401e-11
1.10724e-09
2.15432e-11
1.0899e-09
1.73398e-11
1.07518e-09
1.47209e-11
1.06221e-09
1.29675e-11
1.05048e-09
1.17289e-11
1.03964e-09
1.08355e-11
1.02944e-09
1.02036e-11
1.01964e-09
9.79021e-12
1.01007e-09
9.57619e-12
1.00051e-09
9.55476e-12
9.90783e-10
9.72639e-12
9.80688e-10
1.00942e-11
9.7002e-10
1.06666e-11
9.5856e-10
1.14585e-11
9.46068e-10
1.24909e-11
9.32275e-10
1.37923e-11
9.16871e-10
1.54028e-11
8.99489e-10
1.7381e-11
8.79674e-10
1.98152e-11
8.56831e-10
2.28436e-11
8.30138e-10
2.66939e-11
7.98366e-10
3.1773e-11
7.59473e-10
3.88953e-11
7.10212e-10
4.92644e-11
6.36607e-10
7.36072e-11
5.72571e-10
6.40364e-11
5.5047e-10
2.20967e-11
5.50402e-10
6.34182e-14
5.57789e-10
-7.38154e-12
5.73903e-10
-1.6092e-11
6.04563e-10
-3.06178e-11
6.67774e-10
-6.31611e-11
7.40321e-10
-7.25167e-11
8.04713e-10
-6.43957e-11
8.64651e-10
-5.99742e-11
9.18325e-10
-5.37318e-11
9.6849e-10
-5.02305e-11
1.01795e-09
-4.95186e-11
1.05919e-09
-4.12897e-11
1.09972e-09
-4.05648e-11
1.13606e-09
-3.63531e-11
1.16574e-09
-2.96906e-11
1.19349e-09
-2.77451e-11
1.20896e-09
-1.54612e-11
1.22261e-09
-1.36414e-11
1.22151e-09
1.11213e-12
1.21385e-09
7.66867e-12
1.19419e-09
1.96655e-11
1.16045e-09
3.37287e-11
1.12532e-09
3.51148e-11
1.06934e-09
5.59501e-11
1.01642e-09
5.28869e-11
9.56852e-10
5.95142e-11
8.96407e-10
6.04011e-11
8.40706e-10
5.56769e-11
7.83775e-10
5.69383e-11
7.36607e-10
4.72157e-11
6.89834e-10
4.68576e-11
6.52223e-10
3.77232e-11
6.17336e-10
3.50117e-11
5.88015e-10
2.94411e-11
5.63446e-10
2.46707e-11
5.40268e-10
2.32511e-11
5.22e-10
1.83024e-11
5.05533e-10
1.64603e-11
4.90475e-10
1.50097e-11
4.77813e-10
1.25746e-11
4.66219e-10
1.14797e-11
4.55215e-10
1.08774e-11
4.45627e-10
9.46672e-12
4.37069e-10
8.46028e-12
4.29295e-10
7.71055e-12
4.22613e-10
6.65832e-12
4.16919e-10
5.70518e-12
4.12199e-10
4.75717e-12
4.08728e-10
3.52384e-12
4.05924e-10
2.86596e-12
4.03628e-10
2.36178e-12
4.02628e-10
1.06683e-12
4.01819e-10
8.75076e-13
4.00901e-10
9.79354e-13
4.01125e-10
-1.66918e-13
4.01012e-10
1.63253e-13
4.0058e-10
4.75317e-13
4.01189e-10
-5.72524e-13
4.00436e-10
7.82712e-13
4.01213e-10
-7.54349e-13
4.00482e-10
7.50082e-13
4.01257e-10
-7.61324e-13
4.00501e-10
7.66352e-13
4.01948e-10
-1.4397e-12
4.02062e-10
-1.08828e-13
4.0368e-10
-1.61536e-12
4.05649e-10
-1.96689e-12
4.07474e-10
-1.82415e-12
4.11281e-10
-3.80849e-12
4.14859e-10
-3.57979e-12
4.20759e-10
-5.90266e-12
4.27177e-10
-6.42233e-12
4.35378e-10
-8.20519e-12
4.44988e-10
-9.61399e-12
4.56401e-10
-1.1416e-11
4.69334e-10
-1.29343e-11
4.84627e-10
-1.52921e-11
5.00531e-10
-1.58999e-11
5.19558e-10
-1.90192e-11
5.3938e-10
-1.98078e-11
5.60769e-10
-2.13701e-11
5.83945e-10
-2.31496e-11
6.07445e-10
-2.34662e-11
6.31562e-10
-2.4075e-11
6.56419e-10
-2.4805e-11
6.80671e-10
-2.41919e-11
7.04143e-10
-2.3401e-11
7.27443e-10
-2.32186e-11
7.49533e-10
-2.19992e-11
7.70551e-10
-2.09181e-11
7.90485e-10
-1.98241e-11
8.09053e-10
-1.84516e-11
8.26931e-10
-1.77554e-11
8.45082e-10
-1.80291e-11
8.61305e-10
-1.61125e-11
8.77901e-10
-1.65075e-11
8.96704e-10
-1.87539e-11
9.13755e-10
-1.70604e-11
9.32495e-10
-1.88209e-11
9.55582e-10
-2.32447e-11
9.74614e-10
-1.92579e-11
9.99052e-10
-2.47077e-11
1.02159e-09
-2.28154e-11
1.04505e-09
-2.37108e-11
1.0671e-09
-2.22447e-11
1.08596e-09
-1.89574e-11
1.09945e-09
-1.35159e-11
1.10857e-09
-9.07214e-12
1.10374e-09
4.90803e-12
1.09798e-09
5.85293e-12
1.0696e-09
2.84571e-11
1.03794e-09
3.17093e-11
9.95165e-10
4.27867e-11
9.42787e-10
5.23716e-11
8.91381e-10
5.13885e-11
8.28977e-10
6.23878e-11
7.74081e-10
5.4891e-11
7.13541e-10
6.05566e-11
6.61341e-10
5.22425e-11
6.06519e-10
5.48869e-11
5.57723e-10
4.88722e-11
5.0707e-10
5.0724e-11
4.59685e-10
4.74342e-11
4.12895e-10
4.68071e-11
4.28769e-10
-1.58802e-11
4.45227e-10
-1.64688e-11
4.60576e-10
-1.53564e-11
4.76011e-10
-1.54366e-11
5.02074e-10
-2.60612e-11
5.36666e-10
-3.4589e-11
5.9268e-10
-5.60144e-11
6.42449e-10
-4.97711e-11
6.81265e-10
-3.88184e-11
7.16305e-10
-3.50422e-11
7.50069e-10
-3.37658e-11
7.83015e-10
-3.29462e-11
8.14671e-10
-3.16543e-11
8.44236e-10
-2.95626e-11
8.70903e-10
-2.66635e-11
8.9404e-10
-2.31337e-11
9.13279e-10
-1.92354e-11
9.28486e-10
-1.52041e-11
9.39926e-10
-1.14378e-11
9.47895e-10
-7.96722e-12
9.52915e-10
-5.01951e-12
9.55613e-10
-2.69831e-12
9.56321e-10
-7.08625e-13
9.55774e-10
5.45781e-13
9.54478e-10
1.29471e-12
9.52911e-10
1.56567e-12
9.51477e-10
1.43191e-12
9.50492e-10
9.82929e-13
9.50185e-10
3.05594e-13
9.50716e-10
-5.31658e-13
9.5206e-10
-1.3461e-12
9.54205e-10
-2.14545e-12
9.57092e-10
-2.88757e-12
9.60576e-10
-3.48489e-12
9.64463e-10
-3.88768e-12
9.68526e-10
-4.06366e-12
9.72498e-10
-3.97252e-12
9.76044e-10
-3.54557e-12
9.78626e-10
-2.58195e-12
1.45813e-13
3.48935e-09
3.12936e-10
3.46429e-09
5.98444e-10
3.29844e-09
5.82924e-10
3.08957e-09
4.82321e-10
2.88855e-09
3.69728e-10
2.72422e-09
2.66765e-10
2.59967e-09
1.88222e-10
2.50638e-09
1.34718e-10
2.43516e-09
9.99569e-11
2.37894e-09
7.77657e-11
2.33283e-09
6.34428e-11
2.29369e-09
5.38664e-11
2.25951e-09
4.71401e-11
2.22904e-09
4.22026e-11
2.20138e-09
3.84961e-11
2.17585e-09
3.57259e-11
2.15191e-09
3.37344e-11
2.12904e-09
3.24387e-11
2.1068e-09
3.1798e-11
2.08472e-09
3.17966e-11
2.06238e-09
3.2434e-11
2.03932e-09
3.37243e-11
2.01508e-09
3.56973e-11
1.98917e-09
3.8399e-11
1.96107e-09
4.18968e-11
1.93018e-09
4.62875e-11
1.89585e-09
5.17108e-11
1.85729e-09
5.83724e-11
1.81355e-09
6.65813e-11
1.76343e-09
7.68175e-11
1.70534e-09
8.98579e-11
1.63721e-09
1.07027e-10
1.55578e-09
1.30691e-10
1.45309e-09
1.76296e-10
1.36017e-09
1.56959e-10
1.31357e-09
6.86896e-11
1.30171e-09
1.19094e-11
1.31339e-09
-1.90912e-11
1.34881e-09
-5.15463e-11
1.41382e-09
-9.56483e-11
1.52032e-09
-1.69646e-10
1.64308e-09
-1.95238e-10
1.7649e-09
-1.86177e-10
1.88334e-09
-1.78384e-10
1.99406e-09
-1.64437e-10
2.09876e-09
-1.54946e-10
2.19931e-09
-1.50083e-10
2.28845e-09
-1.30451e-10
2.37378e-09
-1.25913e-10
2.45067e-09
-1.13258e-10
2.51679e-09
-9.58147e-11
2.57488e-09
-8.58399e-11
2.61745e-09
-5.80315e-11
2.64989e-09
-4.60823e-11
2.66255e-09
-1.15451e-11
2.65932e-09
1.08975e-11
2.63749e-09
4.1489e-11
2.59335e-09
7.78697e-11
2.53553e-09
9.29165e-11
2.45096e-09
1.40514e-10
2.35791e-09
1.45919e-10
2.25166e-09
1.6576e-10
2.13885e-09
1.73219e-10
2.02595e-09
1.6858e-10
1.91091e-09
1.72e-10
1.80419e-09
1.53954e-10
1.70014e-09
1.50926e-10
1.60688e-09
1.3098e-10
1.52001e-09
1.21875e-10
1.44193e-09
1.07487e-10
1.37252e-09
9.40462e-11
1.30798e-09
8.77362e-11
1.25103e-09
7.51986e-11
1.19879e-09
6.86398e-11
1.15031e-09
6.3432e-11
1.10612e-09
5.67234e-11
1.06487e-09
5.26905e-11
1.02584e-09
4.98947e-11
9.89442e-10
4.58652e-11
9.55495e-10
4.24291e-11
9.23718e-10
3.95206e-11
8.94374e-10
3.60384e-11
8.67447e-10
3.26636e-11
8.42964e-10
2.92599e-11
8.21138e-10
2.53583e-11
8.01482e-10
2.25214e-11
7.83704e-10
2.01327e-11
7.68224e-10
1.65353e-11
7.54072e-10
1.50131e-11
7.4086e-10
1.41745e-11
7.29095e-10
1.15809e-11
7.17869e-10
1.13713e-11
7.06967e-10
1.13597e-11
6.9719e-10
9.18831e-12
6.87316e-10
1.06426e-11
6.78941e-10
7.60882e-12
6.70805e-10
8.8769e-12
6.64545e-10
5.49157e-12
6.59084e-10
6.22246e-12
6.56528e-10
1.11311e-12
6.55654e-10
7.6381e-13
6.57767e-10
-3.72924e-12
6.62478e-10
-6.67815e-12
6.70773e-10
-1.0119e-11
6.834e-10
-1.64345e-11
6.99263e-10
-1.94426e-11
7.20172e-10
-2.68127e-11
7.4499e-10
-3.12414e-11
7.74562e-10
-3.77798e-11
8.08641e-10
-4.36977e-11
8.47284e-10
-5.00651e-11
8.90145e-10
-5.58025e-11
9.37524e-10
-6.26817e-11
9.87714e-10
-6.61022e-11
1.04249e-09
-7.38087e-11
1.09911e-09
-7.64427e-11
1.15784e-09
-8.01287e-11
1.21843e-09
-8.37535e-11
1.27887e-09
-8.39328e-11
1.33918e-09
-8.4419e-11
1.3991e-09
-8.47494e-11
1.45714e-09
-8.227e-11
1.51303e-09
-7.93261e-11
1.56696e-09
-7.71909e-11
1.61814e-09
-7.32258e-11
1.66675e-09
-6.95718e-11
1.7129e-09
-6.60247e-11
1.75673e-09
-6.23284e-11
1.79916e-09
-6.02172e-11
1.84102e-09
-5.9909e-11
1.88127e-09
-5.63666e-11
1.92207e-09
-5.72705e-11
1.9651e-09
-6.1726e-11
2.00755e-09
-5.94183e-11
2.05289e-09
-6.40468e-11
2.10191e-09
-7.2164e-11
2.14931e-09
-6.65618e-11
2.20092e-09
-7.62646e-11
2.25134e-09
-7.32313e-11
2.30121e-09
-7.36044e-11
2.34812e-09
-6.92154e-11
2.38862e-09
-5.9535e-11
2.42043e-09
-4.54e-11
2.44141e-09
-3.01019e-11
2.44359e-09
2.69409e-12
2.43382e-09
1.56172e-11
2.39811e-09
6.4172e-11
2.3471e-09
8.27352e-11
2.27667e-09
1.13217e-10
2.1877e-09
1.41329e-10
2.08991e-09
1.49173e-10
1.97578e-09
1.76505e-10
1.86165e-09
1.69013e-10
1.73932e-09
1.82893e-10
1.62169e-09
1.69871e-10
1.50156e-09
1.75001e-10
1.38627e-09
1.64152e-10
1.27202e-09
1.64946e-10
1.16725e-09
1.52163e-10
1.07293e-09
1.41094e-10
1.05345e-09
3.57274e-12
1.05486e-09
-1.78827e-11
1.066e-09
-2.64985e-11
1.08499e-09
-3.4422e-11
1.1214e-09
-6.24707e-11
1.17619e-09
-8.93697e-11
1.2565e-09
-1.36326e-10
1.33932e-09
-1.3259e-10
1.41743e-09
-1.16925e-10
1.49383e-09
-1.1144e-10
1.56943e-09
-1.09368e-10
1.64354e-09
-1.07056e-10
1.71451e-09
-1.0263e-10
1.78045e-09
-9.54951e-11
1.83961e-09
-8.5823e-11
1.8907e-09
-7.4224e-11
1.93298e-09
-6.15148e-11
1.96629e-09
-4.85185e-11
1.99102e-09
-3.61609e-11
2.0079e-09
-2.48536e-11
2.01801e-09
-1.51297e-11
2.0225e-09
-7.19139e-12
2.02276e-09
-9.64074e-13
2.0203e-09
3.00289e-12
2.01616e-09
5.42963e-12
2.01144e-09
6.28895e-12
2.00701e-09
5.86156e-12
2.00354e-09
4.44487e-12
2.00146e-09
2.38997e-12
2.00106e-09
-1.35524e-13
2.00245e-09
-2.73033e-12
2.00545e-09
-5.15239e-12
2.00979e-09
-7.2312e-12
2.01511e-09
-8.7959e-12
2.02096e-09
-9.73833e-12
2.02689e-09
-9.99699e-12
2.03244e-09
-9.52766e-12
2.03715e-09
-8.25194e-12
2.04056e-09
-5.99309e-12
-1.44551e-12
3.43081e-09
1.82123e-10
3.58602e-09
4.43232e-10
3.64295e-09
5.25988e-10
3.6151e-09
5.10173e-10
3.54093e-09
4.43891e-10
3.44317e-09
3.64521e-10
3.34132e-09
2.90071e-10
3.2487e-09
2.27344e-10
3.16873e-09
1.79919e-10
3.10044e-09
1.46057e-10
3.0418e-09
1.22083e-10
2.99072e-09
1.04942e-10
2.94553e-09
9.23301e-11
2.90497e-09
8.27656e-11
2.86806e-09
7.53991e-11
2.83404e-09
6.97491e-11
2.80222e-09
6.55456e-11
2.77202e-09
6.26425e-11
2.74285e-09
6.09619e-11
2.71418e-09
6.04682e-11
2.68546e-09
6.11564e-11
2.65613e-09
6.30464e-11
2.62565e-09
6.61801e-11
2.59342e-09
7.06259e-11
2.55883e-09
7.64861e-11
2.52121e-09
8.39075e-11
2.47982e-09
9.30983e-11
2.43383e-09
1.04356e-10
2.3823e-09
1.18109e-10
2.32413e-09
1.34991e-10
2.25804e-09
1.55949e-10
2.18262e-09
1.82442e-10
2.0964e-09
2.16915e-10
1.99598e-09
2.7671e-10
1.90312e-09
2.4982e-10
1.84786e-09
1.23949e-10
1.8317e-09
2.80502e-11
1.85047e-09
-3.78854e-11
1.90347e-09
-1.04588e-10
1.99134e-09
-1.83547e-10
2.11557e-09
-2.93891e-10
2.25614e-09
-3.35781e-10
2.40086e-09
-3.30846e-10
2.54304e-09
-3.20518e-10
2.67747e-09
-2.9883e-10
2.80423e-09
-2.81694e-10
2.92388e-09
-2.6974e-10
3.03157e-09
-2.38152e-10
3.13368e-09
-2.28039e-10
3.22511e-09
-2.04709e-10
3.30484e-09
-1.75554e-10
3.37394e-09
-1.5495e-10
3.42853e-09
-1.12627e-10
3.46996e-09
-8.75162e-11
3.49386e-09
-3.5441e-11
3.50038e-09
4.37703e-12
3.48788e-09
5.39838e-11
3.45369e-09
1.12056e-10
3.40202e-09
1.44569e-10
3.32579e-09
2.16737e-10
3.2345e-09
2.37204e-10
3.12647e-09
2.73788e-10
3.0067e-09
2.93002e-10
2.88009e-09
2.95206e-10
2.74776e-09
3.04347e-10
2.61708e-09
2.84644e-10
2.48716e-09
2.80859e-10
2.36377e-09
2.54352e-10
2.24609e-09
2.39537e-10
2.13596e-09
2.17576e-10
2.03415e-09
1.95813e-10
1.93826e-09
1.83574e-10
1.84994e-09
1.63459e-10
1.76737e-09
1.51151e-10
1.68962e-09
1.41136e-10
1.61674e-09
1.29569e-10
1.54764e-09
1.21769e-10
1.48166e-09
1.15876e-10
1.41878e-09
1.08765e-10
1.35894e-09
1.02309e-10
1.30194e-09
9.65587e-11
1.24806e-09
8.99669e-11
1.19739e-09
8.336e-11
1.15009e-09
7.65792e-11
1.10639e-09
6.90703e-11
1.06607e-09
6.28362e-11
1.02889e-09
5.72977e-11
9.94954e-10
5.04568e-11
9.63578e-10
4.63695e-11
9.34408e-10
4.3324e-11
9.07297e-10
3.86712e-11
8.81854e-10
3.67949e-11
8.57763e-10
3.5432e-11
8.35356e-10
3.15785e-11
8.14344e-10
3.16407e-11
7.95497e-10
2.64443e-11
7.78782e-10
2.55824e-11
7.65138e-10
1.91277e-11
7.54741e-10
1.66143e-11
7.48708e-10
7.14167e-12
7.4723e-10
2.23951e-12
7.51687e-10
-8.18741e-12
7.62201e-10
-1.71928e-11
7.79309e-10
-2.72276e-11
8.03734e-10
-4.08596e-11
8.35192e-10
-5.09007e-11
8.74433e-10
-6.60549e-11
9.20918e-10
-7.77275e-11
9.74671e-10
-9.15355e-11
1.03537e-09
-1.04397e-10
1.10245e-09
-1.17155e-10
1.17536e-09
-1.28724e-10
1.25352e-09
-1.40848e-10
1.33568e-09
-1.48276e-10
1.42192e-09
-1.6006e-10
1.51003e-09
-1.64569e-10
1.59946e-09
-1.69584e-10
1.68944e-09
-1.73754e-10
1.7784e-09
-1.7292e-10
1.86575e-09
-1.71793e-10
1.95087e-09
-1.69909e-10
2.03259e-09
-1.64018e-10
2.11063e-09
-1.574e-10
2.18495e-09
-1.51547e-10
2.25515e-09
-1.43459e-10
2.32146e-09
-1.35929e-10
2.38417e-09
-1.28773e-10
2.44368e-09
-1.2189e-10
2.50085e-09
-1.17435e-10
2.5564e-09
-1.15489e-10
2.61035e-09
-1.10339e-10
2.66398e-09
-1.10888e-10
2.71879e-09
-1.16503e-10
2.77335e-09
-1.13903e-10
2.8298e-09
-1.20386e-10
2.88789e-09
-1.30126e-10
2.94543e-09
-1.23973e-10
3.00432e-09
-1.35051e-10
3.06178e-09
-1.30633e-10
3.11671e-09
-1.28525e-10
3.16749e-09
-1.20036e-10
3.21055e-09
-1.0267e-10
3.24425e-09
-7.91773e-11
3.26527e-09
-5.12037e-11
3.27008e-09
-2.17293e-12
3.25909e-09
2.65688e-11
3.22513e-09
9.81288e-11
3.17249e-09
1.35372e-10
3.09946e-09
1.86255e-10
3.0054e-09
2.35387e-10
2.89682e-09
2.57747e-10
2.7694e-09
3.03924e-10
2.634e-09
3.04403e-10
2.48674e-09
3.30156e-10
2.33697e-09
3.19633e-10
2.18255e-09
3.29408e-10
2.02781e-09
3.18879e-10
1.87492e-09
3.17801e-10
1.73542e-09
2.91632e-10
1.60887e-09
2.67619e-10
1.54393e-09
6.84914e-11
1.51046e-09
1.55867e-11
1.49876e-09
-1.48012e-11
1.50559e-09
-4.12426e-11
1.53758e-09
-9.44589e-11
1.59433e-09
-1.46114e-10
1.67847e-09
-2.20469e-10
1.77277e-09
-2.26886e-10
1.86944e-09
-2.13592e-10
1.96751e-09
-2.09514e-10
2.06553e-09
-2.07383e-10
2.16144e-09
-2.02969e-10
2.25285e-09
-1.94043e-10
2.33738e-09
-1.80019e-10
2.41296e-09
-1.61405e-10
2.47809e-09
-1.39356e-10
2.53193e-09
-1.15348e-10
2.57432e-09
-9.09119e-11
2.60564e-09
-6.74828e-11
2.62691e-09
-4.61249e-11
2.63945e-09
-2.76657e-11
2.64484e-09
-1.25863e-11
2.64496e-09
-1.07634e-12
2.64118e-09
6.78069e-12
2.63525e-09
1.13531e-11
2.62854e-09
1.29952e-11
2.6222e-09
1.2205e-11
2.61709e-09
9.55257e-12
2.61384e-09
5.63456e-12
2.61269e-09
1.01394e-12
2.61369e-09
-3.73408e-12
2.61667e-09
-8.12813e-12
2.62123e-09
-1.17918e-11
2.62687e-09
-1.44409e-11
2.63304e-09
-1.5904e-11
2.63916e-09
-1.61131e-11
2.6447e-09
-1.50735e-11
2.64925e-09
-1.28049e-11
2.65258e-09
-9.32177e-12
-3.46638e-12
3.36913e-09
1.1299e-10
3.50697e-09
3.05388e-10
3.62366e-09
4.09299e-10
3.69434e-09
4.39491e-10
3.71543e-09
4.22794e-10
3.69916e-09
3.80791e-10
3.66095e-09
3.28281e-10
3.61044e-09
2.77855e-10
3.55555e-09
2.34806e-10
3.50223e-09
1.99374e-10
3.45253e-09
1.71781e-10
3.40674e-09
1.50735e-10
3.36463e-09
1.34435e-10
3.32578e-09
1.21611e-10
3.2897e-09
1.11482e-10
3.25588e-09
1.03562e-10
3.22386e-09
9.75719e-11
3.19313e-09
9.33635e-11
3.16324e-09
9.08587e-11
3.13368e-09
9.00259e-11
3.10396e-09
9.0873e-11
3.07357e-09
9.34376e-11
3.04196e-09
9.77811e-11
3.00859e-09
1.03998e-10
2.97285e-09
1.12226e-10
2.9341e-09
1.22653e-10
2.89166e-09
1.35539e-10
2.84477e-09
1.5124e-10
2.79263e-09
1.70248e-10
2.73438e-09
1.93246e-10
2.66913e-09
2.21198e-10
2.59611e-09
2.55461e-10
2.5149e-09
2.98117e-10
2.4241e-09
3.6751e-10
2.33944e-09
3.34489e-10
2.28495e-09
1.78436e-10
2.26814e-09
4.48542e-11
2.28994e-09
-5.97086e-11
2.34949e-09
-1.64168e-10
2.44343e-09
-2.77539e-10
2.56761e-09
-4.181e-10
2.70611e-09
-4.74281e-10
2.85067e-09
-4.75372e-10
2.993e-09
-4.62802e-10
3.12783e-09
-4.33615e-10
3.25446e-09
-4.08292e-10
3.37296e-09
-3.88226e-10
3.48088e-09
-3.46068e-10
3.58147e-09
-3.28643e-10
3.67132e-09
-2.94576e-10
3.75122e-09
-2.55463e-10
3.82028e-09
-2.24022e-10
3.87719e-09
-1.69548e-10
3.92151e-09
-1.3184e-10
3.95157e-09
-6.5504e-11
3.96693e-09
-1.09835e-11
3.96592e-09
5.49848e-11
3.94709e-09
1.30884e-10
3.9118e-09
1.79852e-10
3.8566e-09
2.71925e-10
3.78503e-09
3.08778e-10
3.69625e-09
3.62567e-10
3.59321e-09
3.96057e-10
3.47861e-09
4.09816e-10
3.35453e-09
4.28445e-10
3.2255e-09
4.13685e-10
3.09298e-09
4.13376e-10
2.96107e-09
3.86244e-10
2.8311e-09
3.6948e-10
2.7049e-09
3.43739e-10
2.58417e-09
3.16507e-10
2.46794e-09
2.99757e-10
2.35774e-09
2.73612e-10
2.25268e-09
2.56164e-10
2.15228e-09
2.41504e-10
2.0566e-09
2.2523e-10
1.96485e-09
2.13517e-10
1.87659e-09
2.04144e-10
1.79167e-09
1.9372e-10
1.7101e-09
1.83921e-10
1.63177e-09
1.74935e-10
1.55701e-09
1.64766e-10
1.48608e-09
1.54324e-10
1.41927e-09
1.43407e-10
1.35698e-09
1.31356e-10
1.29928e-09
1.20527e-10
1.24611e-09
1.10458e-10
1.19769e-09
9.8859e-11
1.15345e-09
9.05914e-11
1.11311e-09
8.36393e-11
1.07648e-09
7.52803e-11
1.04315e-09
7.01153e-11
1.01265e-09
6.59127e-11
9.85434e-10
5.87805e-11
9.60869e-10
5.61935e-11
9.40045e-10
4.72592e-11
9.225e-10
4.31196e-11
9.0964e-10
3.1981e-11
9.01164e-10
2.50855e-11
8.98949e-10
9.35295e-12
9.02552e-10
-1.3665e-12
9.13854e-10
-1.94912e-11
9.32778e-10
-3.61183e-11
9.59987e-10
-5.44367e-11
9.96307e-10
-7.71807e-11
1.04122e-09
-9.58164e-11
1.09554e-09
-1.2037e-10
1.15845e-09
-1.40647e-10
1.22978e-09
-1.62863e-10
1.30896e-09
-1.83584e-10
1.39505e-09
-2.03241e-10
1.4872e-09
-2.20887e-10
1.5844e-09
-2.38055e-10
1.68514e-09
-2.49022e-10
1.78891e-09
-2.63844e-10
1.89362e-09
-2.69295e-10
1.99836e-09
-2.74339e-10
2.10214e-09
-2.7755e-10
2.20353e-09
-2.74339e-10
2.30185e-09
-2.70135e-10
2.39652e-09
-2.64601e-10
2.48661e-09
-2.5414e-10
2.57204e-09
-2.42853e-10
2.65279e-09
-2.32314e-10
2.72878e-09
-2.19479e-10
2.8004e-09
-2.07583e-10
2.86807e-09
-1.9647e-10
2.93235e-09
-1.86211e-10
2.99402e-09
-1.79147e-10
3.05371e-09
-1.75227e-10
3.11194e-09
-1.68599e-10
3.16905e-09
-1.68007e-10
3.22694e-09
-1.74387e-10
3.28458e-09
-1.71502e-10
3.34267e-09
-1.78395e-10
3.40087e-09
-1.88222e-10
3.45859e-09
-1.81567e-10
3.51553e-09
-1.91878e-10
3.57059e-09
-1.85604e-10
3.62187e-09
-1.79759e-10
3.66857e-09
-1.66738e-10
3.70756e-09
-1.41713e-10
3.738e-09
-1.09689e-10
3.75667e-09
-6.99529e-11
3.76273e-09
-8.30053e-12
3.75339e-09
3.58557e-11
3.72644e-09
1.25057e-10
3.68159e-09
1.80215e-10
3.61851e-09
2.4934e-10
3.53522e-09
3.1868e-10
3.43546e-09
3.57511e-10
3.31612e-09
4.2326e-10
3.1836e-09
4.36923e-10
3.03574e-09
4.7802e-10
2.87903e-09
4.76338e-10
2.71288e-09
4.95553e-10
2.54136e-09
4.9038e-10
2.36991e-09
4.89228e-10
2.2128e-09
4.48719e-10
2.06764e-09
4.12768e-10
1.97123e-09
1.64892e-10
1.90905e-09
7.77648e-11
1.87672e-09
1.75298e-11
1.87222e-09
-3.67418e-11
1.90047e-09
-1.22706e-10
1.95862e-09
-2.04262e-10
2.04614e-09
-3.07987e-10
2.14712e-09
-3.27863e-10
2.25321e-09
-3.19677e-10
2.36153e-09
-3.17835e-10
2.46926e-09
-3.15114e-10
2.57363e-09
-3.07344e-10
2.67201e-09
-2.92423e-10
2.76205e-09
-2.70051e-10
2.84183e-09
-2.41186e-10
2.91005e-09
-2.07569e-10
2.96602e-09
-1.71325e-10
3.00976e-09
-1.34645e-10
3.04181e-09
-9.95318e-11
3.06328e-09
-6.75909e-11
3.07561e-09
-4.00029e-11
3.08052e-09
-1.74974e-11
3.07984e-09
-4.00048e-13
3.0753e-09
1.13217e-11
3.06861e-09
1.80446e-11
3.06123e-09
2.0368e-11
3.05439e-09
1.90475e-11
3.049e-09
1.49442e-11
3.04566e-09
8.96357e-12
3.04468e-09
2.00058e-12
3.04605e-09
-5.10429e-12
3.04953e-09
-1.16174e-11
3.0547e-09
-1.69595e-11
3.06098e-09
-2.07218e-11
3.06775e-09
-2.26753e-11
3.0744e-09
-2.27636e-11
3.0804e-09
-2.1074e-11
3.08538e-09
-1.77792e-11
3.08918e-09
-1.31258e-11
-5.9557e-12
3.33908e-09
7.39063e-11
3.43465e-09
2.09821e-10
3.54261e-09
3.01337e-10
3.63562e-09
3.46476e-10
3.7018e-09
3.56613e-10
3.74038e-09
3.42212e-10
3.75417e-09
3.14483e-10
3.74982e-09
2.82211e-10
3.7346e-09
2.50023e-10
3.71265e-09
2.21315e-10
3.68724e-09
1.97194e-10
3.66055e-09
1.77419e-10
3.6338e-09
1.61184e-10
3.60747e-09
1.47946e-10
3.5817e-09
1.37243e-10
3.5565e-09
1.28765e-10
3.53173e-09
1.22342e-10
3.50718e-09
1.17912e-10
3.48259e-09
1.15444e-10
3.45767e-09
1.14946e-10
3.43207e-09
1.16472e-10
3.4054e-09
1.20099e-10
3.37726e-09
1.2592e-10
3.34719e-09
1.34068e-10
3.3147e-09
1.4472e-10
3.27924e-09
1.58107e-10
3.24025e-09
1.74531e-10
3.1971e-09
1.94384e-10
3.14917e-09
2.18182e-10
3.09581e-09
2.46601e-10
3.03647e-09
2.8054e-10
2.97076e-09
3.21165e-10
2.89874e-09
3.70139e-10
2.81987e-09
4.46386e-10
2.74598e-09
4.08381e-10
2.69586e-09
2.28559e-10
2.67889e-09
6.18192e-11
2.69888e-09
-7.97086e-11
2.75495e-09
-2.20268e-10
2.84182e-09
-3.64442e-10
2.95309e-09
-5.29421e-10
3.0765e-09
-5.97713e-10
3.20675e-09
-6.05619e-10
3.33491e-09
-5.90933e-10
3.45591e-09
-5.54571e-10
3.56883e-09
-5.21175e-10
3.67368e-09
-4.93051e-10
3.77101e-09
-4.4338e-10
3.85855e-09
-4.16182e-10
3.93719e-09
-3.73221e-10
4.00804e-09
-3.26327e-10
4.06934e-09
-2.85332e-10
4.12139e-09
-2.21608e-10
4.16297e-09
-1.73424e-10
4.19423e-09
-9.67719e-11
4.21402e-09
-3.07673e-11
4.22185e-09
4.71422e-11
4.21658e-09
1.36156e-10
4.19809e-09
1.98331e-10
4.16528e-09
3.04725e-10
4.1179e-09
3.56153e-10
4.05535e-09
4.25122e-10
3.9789e-09
4.72524e-10
3.88912e-09
4.99603e-10
3.78795e-09
5.29626e-10
3.67727e-09
5.24371e-10
3.55937e-09
5.31272e-10
3.43664e-09
5.08959e-10
3.31141e-09
4.94681e-10
3.18533e-09
4.69781e-10
3.06069e-09
4.41117e-10
2.93762e-09
4.22787e-10
2.81787e-09
3.93333e-10
2.70142e-09
3.72585e-10
2.58841e-09
3.54496e-10
2.47925e-09
3.34389e-10
2.37356e-09
3.19222e-10
2.27127e-09
3.06461e-10
2.17228e-09
2.92752e-10
2.07675e-09
2.79488e-10
1.98464e-09
2.67089e-10
1.89636e-09
2.53089e-10
1.81223e-09
2.38472e-10
1.73269e-09
2.22955e-10
1.65831e-09
2.05724e-10
1.58937e-09
1.89456e-10
1.52602e-09
1.73795e-10
1.46879e-09
1.56069e-10
1.41718e-09
1.42176e-10
1.37112e-09
1.29687e-10
1.33049e-09
1.15896e-10
1.29482e-09
1.05776e-10
1.26347e-09
9.72413e-11
1.23707e-09
8.5179e-11
1.21442e-09
7.8832e-11
1.19698e-09
6.46948e-11
1.18362e-09
5.64669e-11
1.17619e-09
3.94115e-11
1.17371e-09
2.75545e-11
1.17867e-09
4.38831e-12
1.19006e-09
-1.27585e-11
1.20997e-09
-3.93953e-11
1.23808e-09
-6.42374e-11
1.27515e-09
-9.15016e-11
1.32203e-09
-1.24063e-10
1.37785e-09
-1.51639e-10
1.44349e-09
-1.86013e-10
1.51781e-09
-2.14963e-10
1.60037e-09
-2.45429e-10
1.69045e-09
-2.73659e-10
1.78667e-09
-2.99469e-10
1.88806e-09
-3.22273e-10
1.99322e-09
-3.4322e-10
2.10046e-09
-3.56274e-10
2.20908e-09
-3.7247e-10
2.31699e-09
-3.77212e-10
2.42322e-09
-3.80584e-10
2.52684e-09
-3.81184e-10
2.62662e-09
-3.74132e-10
2.72198e-09
-3.65519e-10
2.81259e-09
-3.55228e-10
2.89784e-09
-3.39409e-10
2.97791e-09
-3.22946e-10
3.05297e-09
-3.07395e-10
3.12329e-09
-2.89812e-10
3.1894e-09
-2.73719e-10
3.25185e-09
-2.58942e-10
3.31131e-09
-2.45697e-10
3.36847e-09
-2.36348e-10
3.42389e-09
-2.30693e-10
3.47822e-09
-2.22964e-10
3.53099e-09
-2.20805e-10
3.58513e-09
-2.2855e-10
3.63793e-09
-2.24299e-10
3.69096e-09
-2.31389e-10
3.74306e-09
-2.40251e-10
3.79457e-09
-2.3298e-10
3.844e-09
-2.412e-10
3.89133e-09
-2.32839e-10
3.93444e-09
-2.2279e-10
3.97321e-09
-2.05478e-10
4.00514e-09
-1.73654e-10
4.03013e-09
-1.34728e-10
4.04548e-09
-8.53611e-11
4.05148e-09
-1.43693e-11
4.04486e-09
4.24265e-11
4.02601e-09
1.43879e-10
3.99214e-09
2.14066e-10
3.94369e-09
2.97795e-10
3.87786e-09
3.84513e-10
3.79629e-09
4.39091e-10
3.69632e-09
5.23232e-10
3.58083e-09
5.52413e-10
3.44814e-09
6.10706e-10
3.30214e-09
6.22336e-10
3.1415e-09
6.56186e-10
2.97249e-09
6.59383e-10
2.79959e-09
6.62111e-10
2.64029e-09
6.08006e-10
2.49138e-09
5.61673e-10
2.38183e-09
2.74441e-10
2.30649e-09
1.53108e-10
2.26547e-09
5.855e-11
2.25868e-09
-2.99507e-11
2.29031e-09
-1.54325e-10
2.35468e-09
-2.68636e-10
2.44837e-09
-4.01672e-10
2.5549e-09
-4.34393e-10
2.66557e-09
-4.30349e-10
2.7769e-09
-4.29165e-10
2.88568e-09
-4.23895e-10
2.98912e-09
-4.10784e-10
3.08484e-09
-3.88137e-10
3.17089e-09
-3.56103e-10
3.24586e-09
-3.16152e-10
3.30888e-09
-2.70588e-10
3.35968e-09
-2.22125e-10
3.39856e-09
-1.73525e-10
3.42632e-09
-1.2729e-10
3.44417e-09
-8.54397e-11
3.45361e-09
-4.94417e-11
3.45633e-09
-2.02133e-11
3.45408e-09
1.84945e-12
3.44857e-09
1.6827e-11
3.44139e-09
2.52175e-11
3.43393e-09
2.78255e-11
3.42732e-09
2.56652e-11
3.42237e-09
1.98861e-11
3.41964e-09
1.16936e-11
3.41936e-09
2.28198e-12
3.42149e-09
-7.24008e-12
3.42578e-09
-1.5903e-11
3.43176e-09
-2.29436e-11
3.43887e-09
-2.78347e-11
3.44649e-09
-3.02981e-11
3.45403e-09
-3.02965e-11
3.46096e-09
-2.8009e-11
3.46695e-09
-2.37685e-11
3.47189e-09
-1.80604e-11
-9.55855e-12
3.32422e-09
4.96866e-11
3.38926e-09
1.44782e-10
3.47466e-09
2.15935e-10
3.56225e-09
2.58889e-10
3.6406e-09
2.78256e-10
3.70331e-09
2.79503e-10
3.74923e-09
2.68562e-10
3.78038e-09
2.51057e-10
3.79913e-09
2.31269e-10
3.80822e-09
2.12229e-10
3.81052e-09
1.94887e-10
3.80839e-09
1.79549e-10
3.80304e-09
1.66535e-10
3.79529e-09
1.55688e-10
3.78577e-09
1.4677e-10
3.77481e-09
1.39723e-10
3.7626e-09
1.34547e-10
3.74921e-09
1.31296e-10
3.73462e-09
1.3004e-10
3.71875e-09
1.30809e-10
3.70146e-09
1.33765e-10
3.68253e-09
1.39026e-10
3.66172e-09
1.46729e-10
3.63873e-09
1.57055e-10
3.61322e-09
1.70231e-10
3.58479e-09
1.86532e-10
3.55302e-09
2.06299e-10
3.51745e-09
2.29953e-10
3.47762e-09
2.58016e-10
3.43308e-09
2.91134e-10
3.38351e-09
3.30115e-10
3.32874e-09
3.75934e-10
3.26898e-09
4.29895e-10
3.20415e-09
5.11216e-10
3.14259e-09
4.69945e-10
3.09789e-09
2.73267e-10
3.07987e-09
7.98378e-11
3.09412e-09
-9.39563e-11
3.13991e-09
-2.66068e-10
3.21131e-09
-4.35871e-10
3.30167e-09
-6.19828e-10
3.40233e-09
-6.98408e-10
3.51044e-09
-7.13747e-10
3.6167e-09
-6.97182e-10
3.71627e-09
-6.54119e-10
3.80833e-09
-6.13193e-10
3.89306e-09
-5.77752e-10
3.97174e-09
-5.22044e-10
4.04135e-09
-4.85785e-10
4.10407e-09
-4.35938e-10
4.16045e-09
-3.8271e-10
4.20929e-09
-3.34178e-10
4.25184e-09
-2.64168e-10
4.2866e-09
-2.08193e-10
4.31488e-09
-1.25055e-10
4.33525e-09
-5.11366e-11
4.34808e-09
3.43131e-11
4.35251e-09
1.31714e-10
4.34776e-09
2.03081e-10
4.33417e-09
3.18301e-10
4.30935e-09
3.80976e-10
4.27291e-09
4.61565e-10
4.22501e-09
5.20431e-10
4.1645e-09
5.60113e-10
4.09289e-09
6.01245e-10
4.00979e-09
6.07469e-10
3.91751e-09
6.23548e-10
3.8167e-09
6.09749e-10
3.70989e-09
6.01477e-10
3.59817e-09
5.81468e-10
3.48394e-09
5.55326e-10
3.36795e-09
5.38757e-10
3.25205e-09
5.09209e-10
3.13693e-09
4.87694e-10
3.02328e-09
4.6814e-10
2.91195e-09
4.45729e-10
2.80303e-09
4.28169e-10
2.69688e-09
4.12644e-10
2.59358e-09
3.96093e-10
2.49352e-09
3.79589e-10
2.39671e-09
3.63939e-10
2.30361e-09
3.4621e-10
2.2146e-09
3.27494e-10
2.13013e-09
3.07423e-10
2.05088e-09
2.84961e-10
1.97723e-09
2.63089e-10
1.90949e-09
2.4152e-10
1.84853e-09
2.17014e-10
1.79393e-09
1.96758e-10
1.7459e-09
1.77706e-10
1.70448e-09
1.57306e-10
1.66928e-09
1.40968e-10
1.63952e-09
1.26993e-10
1.61602e-09
1.08671e-10
1.59709e-09
9.77536e-11
1.58448e-09
7.72941e-11
1.57647e-09
6.44735e-11
1.57521e-09
4.06734e-11
1.57915e-09
2.36122e-11
1.59124e-09
-7.70419e-12
1.6098e-09
-3.13183e-11
1.63736e-09
-6.69646e-11
1.6732e-09
-1.00073e-10
1.7181e-09
-1.36406e-10
1.77278e-09
-1.78747e-10
1.83613e-09
-2.14987e-10
1.90883e-09
-2.58715e-10
1.9895e-09
-2.95631e-10
2.07734e-09
-3.33267e-10
2.17148e-09
-3.67802e-10
2.27016e-09
-3.98148e-10
2.37231e-09
-4.24426e-10
2.47626e-09
-4.47163e-10
2.58031e-09
-4.60331e-10
2.68363e-09
-4.75794e-10
2.78432e-09
-4.77897e-10
2.88148e-09
-4.77757e-10
2.9744e-09
-4.74108e-10
3.06214e-09
-4.61887e-10
3.14439e-09
-4.47777e-10
3.22111e-09
-4.31966e-10
3.29208e-09
-4.10398e-10
3.35783e-09
-3.88708e-10
3.41875e-09
-3.68328e-10
3.4754e-09
-3.46481e-10
3.5285e-09
-3.26826e-10
3.57865e-09
-3.09113e-10
3.62659e-09
-2.9366e-10
3.67294e-09
-2.82724e-10
3.71809e-09
-2.75879e-10
3.76262e-09
-2.67539e-10
3.8068e-09
-2.6502e-10
3.85113e-09
-2.72912e-10
3.89421e-09
-2.67401e-10
3.93787e-09
-2.75042e-10
3.97988e-09
-2.82231e-10
4.02135e-09
-2.74394e-10
4.06007e-09
-2.7984e-10
4.09685e-09
-2.69527e-10
4.12956e-09
-2.55428e-10
4.15867e-09
-2.34533e-10
4.18225e-09
-1.97218e-10
4.20084e-09
-1.53331e-10
4.2122e-09
-9.67554e-11
4.21761e-09
-1.98287e-11
4.21358e-09
4.64087e-11
4.20233e-09
1.55098e-10
4.17978e-09
2.36606e-10
4.14678e-09
3.30785e-10
4.10032e-09
4.30976e-10
4.04061e-09
4.98814e-10
3.96519e-09
5.98652e-10
3.87439e-09
6.43214e-10
3.76648e-09
7.18621e-10
3.64295e-09
7.45866e-10
3.50228e-09
7.9685e-10
3.34989e-09
8.11767e-10
3.19023e-09
8.21764e-10
3.043e-09
7.5523e-10
2.90449e-09
7.00178e-10
2.79825e-09
3.80692e-10
2.72514e-09
2.26218e-10
2.68816e-09
9.55419e-11
2.68855e-09
-3.03446e-11
2.72983e-09
-1.956e-10
2.80337e-09
-3.42177e-10
2.90295e-09
-5.01254e-10
3.01201e-09
-5.43449e-10
3.12217e-09
-5.40512e-10
3.23007e-09
-5.3706e-10
3.33275e-09
-5.26582e-10
3.4279e-09
-5.05929e-10
3.51372e-09
-4.73955e-10
3.58893e-09
-4.31309e-10
3.65273e-09
-3.79957e-10
3.70484e-09
-3.22691e-10
3.74543e-09
-2.62715e-10
3.77518e-09
-2.03267e-10
3.79512e-09
-1.47235e-10
3.80659e-09
-9.69081e-11
3.81108e-09
-5.39265e-11
3.81017e-09
-1.93048e-11
3.80546e-09
6.55065e-12
3.79849e-09
2.37966e-11
3.79063e-09
3.30784e-11
3.78305e-09
3.54035e-11
3.77668e-09
3.20314e-11
3.77219e-09
2.43743e-11
3.76998e-09
1.39029e-11
3.7702e-09
2.06209e-12
3.77276e-09
-9.80836e-12
3.77741e-09
-2.05454e-11
3.7837e-09
-2.92343e-11
3.79111e-09
-3.52516e-11
3.7991e-09
-3.82814e-11
3.80711e-09
-3.83097e-11
3.8147e-09
-3.56008e-11
3.82156e-09
-3.06294e-11
3.82761e-09
-2.41091e-11
-1.43922e-11
3.31649e-09