/*--------------------------------*- C++ -*----------------------------------*\
| =========                 |                                                 |
| \\      /  F ield         | OpenFOAM: The Open Source CFD Toolbox           |
|  \\    /   O peration     | Version:  2506                                  |
|   \\  /    A nd           | Website:  www.openfoam.com                      |
|    \\/     M anipulation  |                                                 |
\*---------------------------------------------------------------------------*/
FoamFile
{
    version     2.0;
    format      ascii;
    arch        "LSB;label=32;scalar=64";
    class       volVectorField;
    location    "1.15";
    object      vorticityField;
}
// * * * * * * * * * * * * * * * * * * * * * * * * * * * * * * * * * * * * * //

dimensions      [0 0 -1 0 0 0 0];

internalField   nonuniform List<vector> 
4000
(
(1.27119e-20 -4.30876e-18 -56.9486)
(4.3385e-18 6.67843e-18 -59.8081)
(-4.71175e-18 1.16972e-17 -56.1066)
(-1.90553e-17 -2.6912e-17 -49.5341)
(3.98201e-17 5.48425e-18 -43.6834)
(-2.07312e-17 1.7403e-17 -39.1771)
(1.7776e-19 -1.00421e-17 -35.8336)
(-2.01706e-17 -0 -33.3745)
(1.99224e-17 2.03589e-17 -31.5778)
(-4.16908e-17 -2.3421e-17 -30.263)
(4.1817e-17 2.31433e-17 -29.2892)
(-1.44472e-18 -2.58437e-17 -28.5527)
(3.5221e-18 -3.48049e-17 -27.979)
(-4.26364e-17 4.05674e-17 -27.5152)
(2.2217e-19 -0 -27.123)
(8.00902e-17 3.96386e-17 -26.7753)
(-8.14317e-17 -4.497e-17 -26.4527)
(4.4481e-17 -3.43396e-17 -26.142)
(-2.10671e-18 3.9671e-17 -25.8338)
(0 -0 -25.521)
(0 -0 -25.1977)
(0 -0 -24.8587)
(-5.19942e-18 7.66247e-17 -24.4986)
(-7.12363e-17 -1.6245e-16 -24.1118)
(1.63623e-16 1.8479e-17 -23.6919)
(-9.30529e-17 1.43696e-16 -23.2317)
(5.85654e-18 -7.63501e-17 -22.7228)
(0 -0 -22.1555)
(0 -0 -21.5181)
(6.56342e-18 -7.41568e-17 -20.7956)
(1.50353e-16 8.17028e-17 -19.9679)
(-8.69091e-17 6.68127e-17 -19.0127)
(-1.54966e-16 -1.01252e-17 -17.9023)
(-7.56968e-18 6.91284e-17 -16.3102)
(4.51002e-17 -4.35445e-16 -14.5103)
(1.91846e-16 -3.22498e-16 -13.6892)
(5.74087e-16 6.20282e-16 -14.241)
(3.19519e-18 -1.27976e-17 -15.7478)
(-4.18376e-16 -9.34428e-16 -18.0234)
(3.58099e-16 8.42359e-16 -21.1599)
(-2.23037e-16 1.32933e-15 -25.7385)
(-6.58702e-16 -1.27708e-15 -31.1582)
(2.28192e-16 -5.44623e-16 -36.3784)
(-1.50485e-16 6.11209e-16 -41.1527)
(-7.0184e-16 -4.94302e-16 -45.4636)
(8.14523e-16 -1.28664e-16 -49.4758)
(5.89531e-16 1.34548e-16 -53.3758)
(6.99295e-16 6.50454e-16 -56.8841)
(8.80175e-16 5.78127e-16 -60.1744)
(3.47307e-16 8.87425e-16 -63.1847)
(-3.5871e-16 -5.24033e-17 -65.7483)
(2.89745e-17 -3.59797e-16 -68.0036)
(4.16605e-16 8.55449e-16 -69.5766)
(-4.45664e-16 -3.4569e-16 -70.7299)
(7.0246e-17 -8.20658e-16 -71.1039)
(2.09632e-16 1.15204e-16 -70.7928)
(-2.00524e-16 2.47564e-16 -69.8239)
(-6.37398e-17 5.60569e-17 -67.955)
(-1.13789e-16 1.18283e-18 -65.6489)
(5.41216e-17 3.87026e-17 -62.5121)
(-6.04243e-17 3.59716e-17 -58.8234)
(-2.2542e-16 -8.0082e-18 -54.9012)
(1.06208e-16 5.67483e-17 -50.6972)
(4.51862e-17 5.16959e-16 -46.5189)
(-1.35542e-16 -7.96892e-17 -42.4065)
(7.3114e-17 -6.59695e-16 -38.477)
(-3.92185e-16 2.8404e-16 -34.8785)
(-3.36665e-17 3.1511e-16 -31.5284)
(-2.23666e-16 -4.95865e-16 -28.5981)
(5.93452e-16 -6.27289e-16 -25.9515)
(1.39299e-16 4.69865e-16 -23.6789)
(-8.68878e-17 -2.99607e-17 -21.7102)
(2.62578e-19 -3.07468e-18 -19.9546)
(6.94089e-16 -4.40255e-16 -18.4793)
(6.6768e-16 -4.74642e-16 -17.1772)
(3.16424e-17 -5.55486e-16 -16.0274)
(5.57856e-16 -3.6474e-16 -15.0331)
(-6.50587e-17 5.79202e-16 -14.1383)
(4.96695e-16 -4.2243e-16 -13.3145)
(-5.12332e-16 -1.71114e-16 -12.5666)
(9.66704e-16 -2.69661e-16 -11.8692)
(3.15948e-17 4.36176e-16 -11.2069)
(-2.70965e-17 6.01097e-17 -10.5798)
(3.91402e-17 -1.11961e-17 -9.98176)
(-3.79443e-16 -6.39719e-16 -9.41189)
(7.87761e-16 -1.03869e-15 -8.87588)
(-1.99317e-17 9.35885e-16 -8.36366)
(-1.67366e-17 4.22981e-16 -7.87755)
(7.55099e-18 -8.95631e-16 -7.43398)
(3.2061e-16 -2.06927e-16 -7.01421)
(-1.08537e-18 4.46371e-18 -6.62003)
(3.12046e-16 -5.6909e-16 -6.27171)
(1.50095e-16 6.9523e-16 -5.94504)
(-1.26368e-16 2.18438e-16 -5.6481)
(1.236e-17 -3.40541e-16 -5.39561)
(-4.39849e-17 3.90885e-16 -5.16237)
(-1.40444e-16 3.84998e-17 -4.97974)
(-1.71662e-17 -2.19884e-17 -4.82336)
(1.80779e-16 1.65353e-17 -4.71693)
(-3.62767e-17 -1.74742e-16 -4.65215)
(-3.19918e-17 3.38734e-18 -4.65118)
(-1.41228e-17 2.59396e-17 -4.70102)
(5.72915e-18 -1.01775e-16 -4.82459)
(1.45968e-17 -2.602e-17 -5.00857)
(2.21031e-17 1.09323e-17 -5.28014)
(3.9637e-19 3.59821e-17 -5.63392)
(-2.11627e-18 -2.84176e-16 -6.08998)
(1.08871e-16 4.46018e-17 -6.64958)
(1.2853e-16 4.79056e-16 -7.32315)
(-2.4484e-16 7.0126e-17 -8.11689)
(1.29532e-16 -1.35638e-16 -9.04225)
(-5.32371e-18 -3.14308e-16 -10.0958)
(1.29739e-16 6.23846e-17 -11.3045)
(1.42597e-16 1.89671e-16 -12.6249)
(3.81558e-18 3.22903e-16 -14.1273)
(-2.54033e-16 -1.67858e-16 -15.7467)
(-3.47154e-18 -6.34654e-16 -17.5019)
(-8.61772e-17 9.77045e-17 -19.401)
(-2.51906e-16 -1.82252e-16 -21.3975)
(2.71107e-16 2.0451e-16 -23.4978)
(4.24346e-16 7.75531e-16 -25.7018)
(-3.33745e-16 -2.24123e-16 -27.9656)
(-1.1544e-17 -7.49241e-16 -30.2713)
(3.04854e-16 2.48763e-16 -32.6297)
(6.66817e-17 7.78032e-16 -34.9954)
(-6.20037e-16 -4.37893e-16 -37.3679)
(2.23645e-16 -2.56302e-16 -39.7333)
(-3.15156e-16 1.01779e-16 -42.0668)
(-3.6047e-16 -5.26689e-16 -44.3722)
(-1.93924e-16 -1.94316e-16 -46.6831)
(-7.77214e-18 -3.23313e-16 -48.8816)
(1.53585e-16 4.72587e-16 -51.0448)
(1.16891e-16 4.1723e-16 -53.2424)
(7.38106e-16 5.0837e-16 -55.2839)
(-5.35396e-16 4.42749e-16 -57.2792)
(5.20683e-17 2.99594e-17 -59.3437)
(-5.31273e-17 -2.81773e-17 -61.0569)
(1.39069e-16 -1.46947e-16 -62.8298)
(-6.24514e-17 -7.00287e-17 -64.2926)
(8.15939e-17 -5.82459e-17 -65.5741)
(-1.73387e-16 1.24583e-16 -66.5351)
(3.46341e-16 1.84983e-16 -67.1057)
(-2.13106e-16 9.67629e-17 -67.1538)
(4.63908e-17 2.13933e-18 -66.7613)
(1.29659e-16 1.25657e-16 -65.4979)
(3.41187e-17 -2.14827e-18 -63.8862)
(2.19739e-17 -3.7739e-17 -61.2682)
(0 -0 -58.0704)
(4.93521e-17 -3.9061e-17 -54.3876)
(-4.52806e-17 5.93778e-17 -50.1282)
(-3.09445e-17 1.64534e-16 -45.7288)
(1.23928e-17 9.85535e-17 -41.0135)
(-1.64451e-16 -9.4419e-17 -36.3556)
(-8.27245e-17 -2.42767e-16 -31.7916)
(1.72054e-16 -6.71343e-17 -27.4807)
(-1.55457e-16 1.70716e-16 -23.4821)
(1.91363e-16 -3.51962e-18 -19.8344)
(-3.28778e-16 1.67201e-16 -16.6106)
(7.36809e-17 2.8658e-16 -13.7055)
(-2.96295e-16 2.91813e-17 -11.0772)
(1.95005e-16 -6.42075e-16 -9.71287)
(-1.23433e-16 1.73321e-16 -10.0486)
(3.72706e-17 7.98948e-17 -10.6971)
(-2.50903e-17 5.84904e-18 -11.5208)
(-2.25578e-17 3.46932e-18 -12.6732)
(-2.09006e-17 1.73651e-18 -14.2656)
(2.01522e-17 1.56795e-17 -16.5473)
(-1.79588e-17 -8.44276e-18 -19.0877)
(-1.17474e-18 -1.71661e-17 -21.0784)
(-2.05055e-18 -1.5075e-17 -22.4222)
(1.7742e-17 9.66726e-18 -23.3386)
(3.78196e-18 2.85711e-17 -23.9899)
(-1.29701e-18 -2.34735e-17 -24.475)
(-2.03963e-18 -3.32289e-18 -24.8634)
(2.08771e-18 1.29453e-17 -25.2044)
(-1.387e-17 -4.42071e-19 -25.5274)
(2.52076e-17 -1.0994e-17 -25.8449)
(-1.20245e-17 2.14669e-17 -26.1574)
(1.29241e-18 6.24985e-19 -26.457)
(-7.56723e-19 -1.10214e-17 -26.7317)
(-6.19368e-18 -4.21152e-18 -26.9685)
(1.03097e-17 5.0435e-18 -27.1559)
(7.8719e-19 8.44066e-18 -27.2849)
(-4.24483e-19 -5.67205e-18 -27.3505)
(-4.00599e-18 -4.21691e-18 -27.3528)
(-3.75342e-18 -1.1196e-20 -27.2954)
(4.18406e-18 1.24805e-20 -27.1836)
(-3.60021e-18 1.66569e-19 -27.027)
(6.08994e-18 -6.29277e-19 -26.837)
(-3.88497e-18 -1.88506e-19 -26.6255)
(1.31595e-18 3.92533e-21 -26.4025)
(3.00527e-19 8.70682e-19 -26.1768)
(-9.67064e-19 -3.44418e-18 -25.9559)
(3.50925e-19 1.6973e-18 -25.7454)
(7.99949e-19 9.39187e-19 -25.5493)
(-1.12659e-19 -4.25476e-19 -25.3704)
(5.64141e-20 -1.44528e-18 -25.2086)
(1.3141e-19 3.76011e-19 -25.0606)
(6.73106e-20 7.44577e-19 -24.9141)
(1.77377e-20 6.23985e-20 -24.7745)
(0 -0 4.43918)
(-6.94328e-20 -0 -7.98348)
(2.9925e-19 8.71437e-18 -17.9297)
(2.3734e-18 -2.39787e-17 -23.7076)
(-1.36299e-17 1.21966e-17 -26.3433)
(1.11251e-17 1.22384e-17 -27.0848)
(-2.28367e-19 9.74793e-18 -26.8169)
(8.73298e-19 -2.84475e-17 -26.0865)
(1.80859e-17 9.55586e-18 -25.2396)
(-1.54103e-17 -8.71393e-18 -24.4418)
(-3.89693e-17 -4.9301e-17 -23.7441)
(7.90226e-17 7.43699e-17 -23.155)
(-8.27852e-18 6.09438e-17 -22.6646)
(-3.6284e-17 -5.46529e-17 -22.2564)
(4.97826e-18 -1.15194e-16 -21.9136)
(3.55104e-17 6.93156e-17 -21.6206)
(-3.6379e-17 6.16258e-17 -21.3638)
(-2.87522e-18 -3.84207e-17 -21.1318)
(0 -0 -20.916)
(0 -0 -20.7092)
(0 -0 -20.5059)
(0 -0 -20.3016)
(0 -0 -20.092)
(1.5557e-16 -0 -19.873)
(-2.37532e-16 -0 -19.6404)
(8.1778e-17 -0 -19.3896)
(0 -0 -19.1152)
(0 -0 -18.8111)
(0 -0 -18.4696)
(6.45588e-18 -7.29417e-17 -18.0812)
(-8.42091e-18 2.3444e-17 -17.6336)
(-1.33121e-17 2.17945e-16 -17.1093)
(8.69097e-18 -1.07169e-16 -16.4892)
(8.46641e-17 -2.00701e-16 -15.7242)
(4.61399e-17 3.06277e-16 -14.819)
(-2.10982e-16 -3.26498e-16 -14.0421)
(-5.93282e-16 -3.56433e-16 -13.7355)
(-4.68533e-17 1.12203e-15 -14.0961)
(3.2702e-16 2.03777e-16 -15.1451)
(-6.26512e-16 -1.1955e-15 -16.8577)
(1.7369e-16 -6.40414e-17 -19.2603)
(5.46721e-16 8.63662e-16 -21.9392)
(1.0665e-16 -3.26047e-16 -24.7624)
(1.00416e-17 1.15031e-16 -27.6828)
(1.03109e-15 -7.00833e-16 -30.526)
(-9.39008e-16 -6.5704e-16 -33.3052)
(-1.57306e-15 3.25374e-17 -36.0053)
(-6.89698e-16 -7.18901e-16 -38.5645)
(-8.78177e-16 -2.50931e-16 -41.0607)
(-4.28925e-16 1.2069e-16 -43.3821)
(1.20314e-15 3.82847e-16 -45.5532)
(2.4991e-17 -3.07898e-16 -47.5839)
(-4.83295e-16 -1.07436e-16 -49.3612)
(4.1411e-16 6.74124e-16 -50.9651)
(-4.23001e-16 2.04135e-16 -52.268)
(-4.61461e-16 1.36228e-16 -53.3079)
(-2.45345e-16 -1.06924e-16 -54.0132)
(-9.65839e-17 -8.25521e-17 -54.3565)
(5.95357e-17 -1.23038e-16 -54.317)
(5.32289e-17 -6.12896e-17 -53.8717)
(3.97863e-17 1.67858e-16 -52.9756)
(2.00972e-16 -2.67139e-16 -51.6446)
(-1.57561e-16 -1.79368e-16 -49.9341)
(1.803e-16 -3.21072e-16 -47.8797)
(4.43486e-17 3.72082e-16 -45.6161)
(1.77615e-17 9.12891e-16 -43.1461)
(-2.55755e-16 -6.84052e-17 -40.6569)
(2.57259e-16 -4.6131e-16 -38.1188)
(2.77085e-16 2.84418e-17 -35.6805)
(-7.60088e-16 2.72006e-16 -33.3291)
(1.89774e-17 -4.63684e-17 -31.1039)
(8.63158e-16 -6.15245e-16 -29.0566)
(-5.28148e-16 -3.35152e-16 -27.12)
(1.90401e-16 -4.24387e-16 -25.3428)
(-5.31774e-16 1.31733e-15 -23.6997)
(-1.1945e-16 6.56384e-16 -22.1597)
(9.00045e-17 -3.61842e-17 -20.7312)
(2.08348e-17 -5.79322e-16 -19.3998)
(5.6009e-16 2.25191e-16 -18.1397)
(8.97854e-16 -8.2734e-16 -16.9523)
(-1.25232e-15 -2.19323e-17 -15.832)
(-3.78773e-17 7.02262e-16 -14.7675)
(4.50821e-16 -3.0977e-16 -13.759)
(6.37029e-17 6.00905e-16 -12.8047)
(-3.81728e-17 6.6426e-19 -11.8991)
(-6.98704e-16 6.14914e-16 -11.0494)
(-4.45093e-16 1.85661e-16 -10.254)
(-3.44802e-16 -2.36592e-16 -9.50126)
(-3.2929e-16 6.90503e-16 -8.80598)
(-6.82185e-16 4.28839e-16 -8.1649)
(-2.16842e-19 -1.37625e-17 -7.56332)
(-3.15634e-16 3.8279e-16 -7.0185)
(-1.62703e-16 -1.73343e-16 -6.52427)
(3.01813e-16 -1.38983e-16 -6.06892)
(-1.43148e-16 3.11778e-16 -5.67459)
(-7.27154e-18 -1.88411e-16 -5.31531)
(2.61994e-16 -1.57788e-16 -5.01744)
(-1.23564e-16 -3.33862e-16 -4.75886)
(1.33209e-17 -1.59728e-17 -4.56113)
(7.36579e-17 4.30391e-16 -4.40652)
(2.71885e-17 -3.54962e-17 -4.31558)
(4.58194e-17 -7.0704e-17 -4.27832)
(1.57503e-17 6.54396e-17 -4.30328)
(-1.46257e-17 1.05541e-17 -4.3915)
(-2.93341e-17 5.29897e-18 -4.5443)
(-5.72437e-17 -1.63066e-17 -4.7663)
(1.08579e-18 1.45801e-16 -5.06337)
(-3.4169e-16 -2.51913e-16 -5.43428)
(-1.67977e-17 4.86184e-17 -5.88891)
(2.44845e-16 -1.23513e-16 -6.42578)
(-2.04628e-17 -6.69763e-17 -7.05188)
(9.09221e-18 3.04706e-16 -7.7695)
(-1.27929e-16 -2.14346e-16 -8.58757)
(-1.33761e-16 -1.30191e-17 -9.48974)
(1.18873e-16 2.22275e-16 -10.5126)
(2.53741e-16 1.46875e-16 -11.6128)
(-9.39549e-18 3.29774e-16 -12.8263)
(8.00131e-17 2.04595e-16 -14.1406)
(3.35065e-16 -4.15835e-16 -15.5349)
(-5.27502e-16 -1.05015e-15 -17.0284)
(1.53693e-16 4.02405e-16 -18.6067)
(3.36358e-16 5.17411e-16 -20.2454)
(-2.5506e-16 -1.75552e-16 -21.9515)
(-3.55129e-16 -2.77278e-16 -23.7189)
(-3.01284e-16 1.64453e-16 -25.5133)
(1.16999e-15 6.31877e-17 -27.3423)
(-5.07247e-16 1.68126e-16 -29.1882)
(5.34489e-16 5.77631e-17 -31.035)
(9.45417e-17 -2.06896e-17 -32.8834)
(-5.72673e-16 -6.79112e-16 -34.7273)
(-2.86278e-16 -1.49477e-16 -36.5102)
(-5.61701e-16 -7.93999e-16 -38.2929)
(-4.65502e-16 -8.79434e-16 -40.053)
(-1.01079e-15 4.02529e-16 -41.6963)
(2.57609e-16 8.88699e-18 -43.3389)
(-1.21832e-16 -2.97576e-16 -44.9454)
(-1.13142e-16 -1.31905e-16 -46.3447)
(-1.90915e-17 -9.45119e-17 -47.7963)
(7.97208e-17 -3.97172e-17 -49.0242)
(-1.05392e-16 1.96743e-16 -50.1732)
(1.00331e-16 -4.1477e-16 -51.1504)
(-2.38061e-16 3.68841e-16 -51.9464)
(-8.24389e-18 -8.61594e-17 -52.5334)
(-3.48801e-17 -1.69434e-16 -52.915)
(4.28265e-17 -1.38036e-16 -52.963)
(4.82092e-17 -2.64152e-17 -52.8178)
(-9.78688e-17 7.59536e-17 -52.2213)
(6.01156e-17 -1.80214e-17 -51.3425)
(-3.6292e-17 1.51429e-16 -50.0312)
(8.3319e-17 -1.21929e-16 -48.3217)
(6.81754e-17 -2.24237e-16 -46.2677)
(5.99684e-17 2.14006e-16 -43.8258)
(1.32043e-17 2.15212e-16 -41.1282)
(7.71087e-17 -3.49622e-17 -38.1834)
(-3.58282e-16 2.33803e-16 -35.1236)
(8.16208e-17 -3.51707e-16 -32.0016)
(2.24789e-17 5.21276e-17 -28.8993)
(2.78458e-16 -1.58753e-16 -25.8682)
(-1.10322e-16 -3.10148e-16 -22.938)
(6.51259e-16 -4.24858e-16 -20.1792)
(-1.28293e-16 6.19193e-16 -17.799)
(-6.40456e-17 1.72283e-18 -16.244)
(5.21957e-18 -1.83481e-16 -15.2962)
(4.64201e-17 1.65984e-17 -14.7554)
(-4.06428e-18 -2.0012e-17 -14.5552)
(3.21086e-17 -6.27723e-17 -14.7283)
(-3.57157e-17 -2.47028e-18 -15.2735)
(2.03528e-17 1.72132e-17 -16.1099)
(1.99135e-19 1.99413e-18 -17.0515)
(9.53473e-19 -1.97643e-18 -17.9328)
(-1.39802e-18 -1.80687e-18 -18.6775)
(-2.20508e-18 -1.14715e-17 -19.2913)
(1.75663e-17 4.36253e-17 -19.801)
(-1.41137e-17 -1.81322e-17 -20.2326)
(-6.05162e-19 5.07e-19 -20.6074)
(-1.63549e-17 -5.11037e-17 -20.9415)
(1.45897e-17 6.75458e-17 -21.245)
(-7.18204e-19 -4.90552e-17 -21.5221)
(-8.48183e-19 1.02899e-17 -21.773)
(1.12872e-18 1.67053e-17 -21.9954)
(2.42295e-19 -2.28718e-17 -22.1844)
(-5.05999e-18 1.04381e-17 -22.3336)
(4.08625e-18 3.46445e-18 -22.4395)
(4.70539e-18 1.96765e-17 -22.5005)
(-4.0881e-18 -6.09594e-18 -22.5159)
(-1.17723e-18 -2.28277e-17 -22.487)
(-4.88265e-19 1.79327e-17 -22.4172)
(4.10227e-19 -1.98325e-17 -22.3116)
(3.7474e-20 3.17811e-17 -22.177)
(-5.41025e-20 -1.61525e-17 -22.0206)
(-1.25338e-18 3.83665e-18 -21.8498)
(8.45293e-19 3.51794e-18 -21.6713)
(1.81796e-18 7.89967e-19 -21.491)
(-1.98307e-18 -5.8427e-18 -21.3136)
(-4.51929e-20 6.8773e-18 -21.1424)
(-8.22715e-20 -3.06476e-19 -20.9795)
(-5.18302e-20 3.59324e-18 -20.8256)
(-1.91966e-19 2.39921e-19 -20.6802)
(-7.60243e-21 -1.62959e-20 -20.5381)
(-2.75629e-20 2.17329e-18 -20.4109)
(1.26133e-20 -4.27534e-18 6.76626)
(-5.24919e-19 7.66225e-18 4.3266)
(4.00586e-19 9.20641e-18 -0.137616)
(1.47747e-18 -1.98116e-17 -4.5476)
(-1.10876e-17 -1.20893e-18 -8.37865)
(9.67129e-18 8.42725e-18 -11.4833)
(0 -0 -13.3809)
(2.062e-17 -1.7466e-17 -14.5182)
(-2.21461e-17 4.78785e-17 -15.1089)
(2.08015e-17 1.01735e-17 -15.3156)
(-1.82029e-17 -8.25871e-17 -15.2762)
(-4.34647e-18 -2.91608e-17 -15.1255)
(2.12493e-18 9.43896e-17 -14.9313)
(7.6299e-17 1.24811e-17 -14.7299)
(-6.92294e-17 -7.11367e-17 -14.5412)
(-4.97705e-17 9.29945e-17 -14.3736)
(7.76965e-17 -4.39828e-17 -14.2281)
(-3.27213e-17 -4.90318e-17 -14.102)
(-1.88244e-18 3.5448e-17 -13.9908)
(0 -0 -13.8902)
(-7.07703e-17 -0 -13.7964)
(7.09319e-17 -0 -13.7059)
(4.69068e-18 -6.91274e-17 -13.6163)
(6.41898e-17 1.09677e-16 -13.5253)
(-7.41537e-17 2.87592e-17 -13.431)
(5.11196e-18 -6.9309e-17 -13.3311)
(0 -0 -13.2236)
(-6.89886e-17 -0 -13.1057)
(4.4308e-19 -0 -12.9743)
(7.49503e-17 -6.76999e-17 -12.8255)
(-1.78126e-17 1.02855e-16 -12.6541)
(-1.40316e-16 3.28806e-17 -12.4525)
(2.30372e-16 -6.3807e-17 -12.2137)
(-1.31727e-16 -1.36332e-18 -11.9491)
(5.03621e-18 -1.42246e-16 -11.5889)
(2.66586e-16 3.67385e-16 -11.0913)
(-3.76489e-16 -5.44839e-17 -10.6231)
(-1.95124e-16 -9.54447e-16 -10.4391)
(3.48674e-16 4.7811e-16 -10.6679)
(9.98471e-17 6.5897e-16 -11.3104)
(4.18841e-17 1.64705e-16 -12.2913)
(8.11609e-16 -1.03308e-16 -13.4225)
(-3.4581e-16 1.81646e-16 -14.7417)
(-5.91088e-16 -4.29056e-16 -16.2373)
(5.36545e-16 1.64888e-15 -17.8161)
(-6.92238e-16 3.26243e-16 -19.4479)
(6.93273e-16 -9.63169e-16 -21.0553)
(2.94277e-17 -3.41663e-16 -22.6959)
(1.48498e-16 -3.61839e-16 -24.2859)
(2.68345e-17 -8.83325e-16 -25.8437)
(-6.34942e-16 5.51583e-16 -27.4013)
(-1.10617e-16 8.00155e-16 -28.903)
(1.06671e-16 3.01788e-17 -30.3725)
(3.2315e-17 -4.92514e-16 -31.8042)
(5.0499e-16 -5.27672e-16 -33.2041)
(2.41517e-16 -2.82941e-16 -34.5586)
(3.19554e-16 -2.59229e-16 -35.8428)
(3.68126e-17 -2.58031e-16 -37.072)
(7.30109e-17 -6.438e-17 -38.1291)
(-1.06718e-16 1.10197e-16 -39.0955)
(-3.68215e-17 -8.24684e-17 -39.8007)
(2.25755e-16 2.70907e-16 -40.2262)
(-3.34087e-16 3.70731e-17 -40.3388)
(-2.77534e-16 4.84369e-16 -40.0617)
(-1.70146e-16 -6.37014e-16 -39.4871)
(3.04972e-16 -5.79367e-16 -38.5175)
(6.17187e-16 -3.83973e-16 -37.3276)
(-7.73229e-17 4.05591e-17 -35.854)
(-1.58739e-17 1.52192e-16 -34.2515)
(4.16382e-16 -3.40597e-16 -32.5301)
(1.08047e-17 -8.22573e-16 -30.7356)
(-5.27623e-16 1.47332e-15 -28.9691)
(4.28346e-16 7.60283e-17 -27.1859)
(-1.25076e-15 1.01184e-15 -25.4546)
(-7.95048e-16 2.40772e-16 -23.7847)
(1.07108e-16 -1.28094e-15 -22.1624)
(-3.06616e-16 6.08362e-16 -20.6091)
(-3.49653e-17 6.71857e-17 -19.1313)
(-7.998e-16 -1.48918e-16 -17.7161)
(2.19435e-16 1.97524e-15 -16.37)
(-7.96011e-16 1.6445e-15 -15.0973)
(-1.74533e-16 -1.73435e-15 -13.8931)
(-2.42375e-16 4.32717e-16 -12.7602)
(-5.51482e-16 7.34608e-16 -11.6993)
(4.16249e-16 -3.15493e-16 -10.7044)
(-8.48768e-16 4.23558e-16 -9.78194)
(1.09199e-15 -3.19409e-16 -8.93266)
(5.09244e-16 -2.74368e-16 -8.14266)
(2.60633e-16 -7.85976e-16 -7.42291)
(-7.8867e-17 -5.29506e-16 -6.77261)
(-6.86038e-18 -4.35414e-16 -6.17682)
(-1.35757e-17 -1.89624e-16 -5.64677)
(1.84999e-16 -5.34575e-17 -5.1794)
(-1.66257e-16 2.48595e-16 -4.76127)
(9.79189e-18 2.14525e-17 -4.40855)
(4.6595e-17 -1.72715e-16 -4.09866)
(-1.19259e-18 1.76389e-16 -3.84849)
(-6.46902e-18 2.662e-16 -3.63831)
(-4.30682e-16 -5.67007e-17 -3.48104)
(-3.87981e-17 -2.09924e-16 -3.35844)
(3.62803e-17 2.63021e-17 -3.2821)
(-4.71694e-17 4.49553e-17 -3.24057)
(2.6919e-19 -2.00285e-17 -3.23721)
(-2.32667e-19 2.46334e-17 -3.27083)
(1.15049e-18 6.10603e-17 -3.338)
(5.58422e-17 -1.82498e-17 -3.44335)
(5.86666e-17 7.94369e-17 -3.58555)
(2.31036e-16 -6.06789e-18 -3.76716)
(-3.38974e-16 -3.56144e-16 -3.99166)
(2.17545e-16 2.65414e-16 -4.26064)
(-2.20363e-16 -9.37781e-18 -4.57807)
(1.97178e-18 -1.41893e-16 -4.9475)
(-6.1459e-18 1.47641e-16 -5.37452)
(2.04535e-17 -2.51328e-16 -5.85634)
(-4.95694e-17 -4.97181e-17 -6.40959)
(1.96799e-18 1.61014e-16 -7.01806)
(-1.0239e-16 -3.79271e-16 -7.70321)
(-2.27735e-16 -7.6049e-17 -8.46114)
(3.94987e-16 1.11993e-15 -9.28549)
(3.95718e-16 -1.55329e-16 -10.1894)
(-7.65408e-16 -3.68275e-16 -11.1668)
(-1.70266e-16 5.28272e-16 -12.2072)
(4.17705e-16 -1.53301e-16 -13.3172)
(3.45952e-16 2.28117e-16 -14.4917)
(4.63002e-16 -1.1148e-15 -15.7119)
(-2.98881e-16 1.07778e-15 -16.98)
(6.16233e-17 -1.15461e-16 -18.2836)
(1.43928e-16 4.49166e-16 -19.611)
(6.51178e-16 5.43161e-16 -20.9551)
(1.03654e-15 -2.76388e-16 -22.3057)
(5.11066e-16 -6.64932e-16 -23.6345)
(4.1686e-16 2.08087e-16 -24.9639)
(6.92214e-16 -3.01105e-17 -26.2647)
(-8.13178e-17 -1.16118e-15 -27.4922)
(4.44969e-16 3.71245e-17 -28.7117)
(5.92019e-17 8.13769e-17 -29.8798)
(1.92058e-16 -2.6611e-16 -30.9359)
(2.25852e-16 -2.64223e-16 -32.0008)
(-2.91254e-17 9.83845e-17 -32.9457)
(1.9899e-16 -1.4119e-16 -33.8439)
(-2.87753e-16 3.84707e-16 -34.6663)
(-6.44562e-16 -5.22546e-17 -35.4192)
(8.17354e-17 -5.02833e-17 -36.1149)
(-4.74563e-17 -4.02607e-17 -36.753)
(4.61419e-17 4.50537e-16 -37.3239)
(-2.42319e-17 2.01986e-16 -37.8354)
(-4.63246e-17 -2.39379e-16 -38.2431)
(6.91459e-17 9.01753e-17 -38.5552)
(-1.09951e-16 -1.23936e-16 -38.6666)
(2.01726e-16 1.48186e-16 -38.57)
(-4.11131e-17 3.3516e-16 -38.1969)
(-2.17074e-16 -2.88963e-17 -37.5269)
(4.66393e-17 -6.28847e-16 -36.5227)
(2.33277e-18 1.38319e-16 -35.1877)
(5.01665e-17 -4.57892e-16 -33.5314)
(2.33838e-16 -9.31322e-17 -31.6155)
(-3.05305e-16 1.95784e-16 -29.4697)
(2.37462e-16 8.46416e-17 -27.1627)
(-1.45788e-17 -3.5766e-17 -24.7338)
(-3.27764e-16 4.37475e-16 -22.3402)
(-1.82236e-16 2.06754e-17 -19.7546)
(2.64402e-16 -1.56963e-16 -17.422)
(-1.11246e-17 5.93377e-17 -15.5341)
(5.5289e-18 8.72821e-17 -14.0977)
(2.41951e-17 1.26485e-18 -13.0376)
(3.48136e-17 8.24084e-17 -12.3544)
(-5.78494e-18 -2.58073e-17 -11.9829)
(-1.92753e-17 -3.49872e-17 -11.9387)
(-1.58103e-17 -3.95845e-18 -12.1707)
(-1.05878e-18 -1.32492e-17 -12.564)
(1.76165e-17 4.06746e-17 -13.0074)
(-1.58761e-18 1.19059e-17 -13.4358)
(-3.00614e-17 -1.8297e-18 -13.8194)
(3.07091e-17 3.16401e-18 -14.1473)
(1.3248e-18 1.11144e-17 -14.4196)
(1.36395e-17 -6.16103e-17 -14.6428)
(-2.71724e-17 2.26046e-17 -14.8259)
(1.69197e-17 6.68038e-17 -14.9779)
(-2.22836e-18 -3.6454e-17 -15.1064)
(-7.6623e-19 -1.11878e-17 -15.2169)
(7.14752e-18 2.43788e-18 -15.3122)
(-5.71309e-18 -2.79337e-18 -15.3923)
(-1.55768e-18 2.08296e-17 -15.4564)
(-7.80777e-18 7.33865e-18 -15.5026)
(7.57738e-18 -2.47825e-17 -15.5287)
(4.45858e-18 -9.93551e-18 -15.5325)
(-5.01798e-18 -3.59114e-18 -15.5125)
(3.58472e-18 2.04629e-18 -15.4687)
(-3.72667e-18 6.22152e-19 -15.4021)
(1.4018e-18 -1.36504e-18 -15.3152)
(-1.78625e-18 -1.21698e-17 -15.2111)
(-1.33511e-18 6.96094e-18 -15.0935)
(8.53612e-19 1.26426e-17 -14.9661)
(2.35651e-20 -1.23921e-17 -14.8327)
(-1.15591e-19 -8.02257e-19 -14.6966)
(3.34265e-19 -2.60512e-18 -14.5604)
(-5.17791e-20 -5.4116e-18 -14.4263)
(-9.94402e-20 -2.91108e-18 -14.2955)
(-1.5787e-19 2.5812e-18 -14.1659)
(-5.9823e-21 -2.12528e-18 -14.031)
(0 -0 4.1868)
(-4.55405e-18 -0 4.06799)
(4.40869e-18 8.47199e-18 3.1942)
(7.78776e-19 -1.56436e-17 1.87617)
(-7.10421e-19 -1.24838e-18 -0.0857338)
(-1.24204e-19 8.41994e-18 -2.02843)
(-1.77701e-17 -0 -3.7895)
(1.77635e-17 -0 -5.31256)
(-9.61767e-19 -0 -6.55514)
(2.26109e-18 -0 -7.39763)
(3.75077e-17 -3.38689e-17 -7.98872)
(-4.02996e-17 6.18236e-17 -8.37601)
(-3.66062e-17 -2.77873e-17 -8.59834)
(6.76034e-19 6.09142e-17 -8.71408)
(1.80912e-18 -5.38818e-17 -8.77287)
(3.61572e-17 -7.49893e-17 -8.80282)
(3.65839e-17 9.40845e-17 -8.82)
(-3.88369e-17 7.57512e-18 -8.83286)
(1.79865e-18 -3.38701e-17 -8.84494)
(-3.84152e-17 6.67472e-17 -8.85704)
(3.99152e-17 -1.1737e-16 -8.86862)
(2.90527e-18 -1.62769e-17 -8.87881)
(1.38739e-19 8.64063e-19 -8.88683)
(-1.1911e-17 1.15122e-16 -8.89211)
(-6.49441e-17 1.71018e-17 -8.89431)
(7.25691e-17 -6.61882e-17 -8.8932)
(6.18003e-17 6.50668e-17 -8.88858)
(1.73035e-18 -4.66962e-17 -8.8801)
(-1.22002e-16 -1.29253e-16 -8.86726)
(6.98109e-17 -1.85613e-17 -8.84925)
(-2.69234e-17 2.37274e-16 -8.82491)
(7.88402e-17 -8.55999e-17 -8.79198)
(-6.28377e-17 -2.68662e-17 -8.7497)
(-5.55185e-17 -3.65899e-17 -8.70964)
(7.32073e-17 -8.37646e-17 -8.62187)
(-1.66989e-16 1.48925e-16 -8.40208)
(5.42008e-16 3.59015e-16 -8.08007)
(5.45798e-16 3.07569e-16 -7.81132)
(-5.12147e-16 -5.92752e-16 -7.71081)
(-2.14254e-16 -5.72699e-16 -7.81092)
(4.78903e-17 -6.71242e-16 -8.06386)
(-8.63918e-16 9.35791e-16 -8.414)
(8.48892e-17 6.66095e-16 -8.90252)
(9.54534e-16 -1.08977e-15 -9.51913)
(-3.77738e-16 -6.22491e-16 -10.2305)
(6.99101e-16 7.79446e-17 -11.0151)
(2.42773e-16 5.18728e-16 -11.7879)
(2.77399e-16 1.48457e-16 -12.7551)
(2.15199e-16 6.29505e-16 -13.6357)
(3.05054e-16 6.82606e-16 -14.3973)
(-5.86814e-16 -7.05331e-16 -15.3078)
(4.12189e-16 -5.28549e-16 -16.2936)
(-2.17744e-16 3.01527e-16 -17.2743)
(3.70533e-16 5.92758e-16 -18.2649)
(-8.62541e-17 5.61675e-16 -19.3182)
(-5.443e-17 4.87934e-16 -20.4197)
(3.20522e-16 2.46389e-16 -21.5794)
(1.05061e-16 1.11904e-17 -22.8229)
(-2.2536e-18 -4.35596e-17 -24.068)
(-5.16734e-17 -9.51365e-17 -25.3879)
(9.40562e-17 -1.20573e-16 -26.635)
(-2.14572e-16 1.20219e-16 -27.8012)
(2.69852e-16 -3.03101e-16 -28.8265)
(-1.03977e-16 -5.45435e-16 -29.6043)
(7.0131e-16 3.35678e-16 -30.1614)
(-3.72494e-16 9.78255e-16 -30.3609)
(1.72814e-16 3.0319e-16 -30.2999)
(-1.03289e-16 1.06828e-16 -29.8903)
(3.44099e-16 -4.15388e-16 -29.2335)
(-9.0307e-17 4.55506e-16 -28.3336)
(-1.74357e-16 9.63697e-16 -27.2251)
(-7.85835e-16 -9.24423e-16 -26.008)
(7.16757e-16 1.81291e-16 -24.6623)
(-2.38636e-16 2.03537e-16 -23.2627)
(6.5346e-16 -9.68971e-16 -21.8374)
(-2.4181e-17 4.83431e-16 -20.3941)
(-7.00405e-16 1.60343e-16 -18.9669)
(-5.38426e-17 3.88571e-18 -17.5757)
(-1.16303e-15 8.6972e-16 -16.2234)
(-1.10416e-15 -8.60572e-17 -14.9245)
(1.77103e-15 -2.27895e-15 -13.6911)
(5.98687e-16 3.58235e-16 -12.5257)
(-6.02764e-16 6.12893e-16 -11.4357)
(4.54208e-16 -7.63998e-16 -10.4246)
(-4.03605e-18 4.55386e-16 -9.48904)
(6.24725e-16 -1.59718e-15 -8.6337)
(-4.86013e-16 -1.00541e-15 -7.859)
(5.06183e-16 7.44524e-16 -7.15303)
(4.15056e-16 1.24432e-15 -6.52219)
(9.67337e-16 -1.72124e-16 -5.96367)
(1.5345e-16 -8.49241e-17 -5.46602)
(-1.13782e-17 -1.09455e-17 -5.03458)
(-1.58896e-16 7.13715e-17 -4.6656)
(2.20818e-17 1.81641e-16 -4.3477)
(2.27917e-16 -1.84449e-16 -4.09012)
(1.5914e-17 -1.53801e-16 -3.87375)
(-1.36085e-16 6.17785e-17 -3.70802)
(3.95339e-16 8.28052e-18 -3.57501)
(2.02266e-16 -1.25503e-16 -3.48105)
(1.41654e-17 -1.14364e-16 -3.4088)
(-6.33106e-17 -1.7662e-18 -3.36388)
(5.85499e-17 -3.60841e-17 -3.33361)
(-3.54864e-17 1.23198e-17 -3.31917)
(8.15196e-19 1.18187e-17 -3.31713)
(-7.50059e-19 -6.24067e-17 -3.32377)
(1.15818e-16 -4.13272e-17 -3.3428)
(-1.62243e-18 -2.62312e-17 -3.37071)
(1.06144e-16 4.23259e-16 -3.41181)
(1.23796e-16 -1.11797e-16 -3.46655)
(-2.25841e-16 -2.63722e-16 -3.53815)
(9.56417e-18 1.36677e-16 -3.62924)
(-4.35536e-18 1.01222e-17 -3.74364)
(-1.92695e-19 -1.38003e-16 -3.88534)
(7.85024e-17 1.53342e-16 -4.05645)
(-2.13336e-16 4.83945e-17 -4.26588)
(-4.63278e-18 1.1263e-16 -4.50996)
(3.99525e-16 5.01401e-16 -4.80057)
(5.67419e-17 -9.31277e-16 -5.13946)
(-6.5165e-16 -7.01405e-16 -5.52676)
(1.01495e-16 1.07595e-15 -5.97117)
(-2.7466e-16 -7.11318e-17 -6.47272)
(6.54355e-16 -6.98041e-16 -7.02875)
(-2.21231e-18 -1.38643e-16 -7.64425)
(-2.36031e-16 5.54785e-16 -8.31722)
(4.20612e-17 9.62364e-16 -9.03939)
(-8.53023e-16 -3.18912e-16 -9.81081)
(1.7162e-17 6.94181e-17 -10.624)
(-2.55907e-16 -4.74542e-16 -11.4713)
(-2.03736e-16 4.017e-16 -12.3412)
(2.61101e-17 8.71333e-16 -13.2338)
(-1.40932e-16 9.12421e-16 -14.1244)
(3.17243e-17 -5.03737e-17 -15.0168)
(-1.06811e-16 9.4614e-16 -15.8862)
(4.38948e-16 3.67242e-16 -16.732)
(-1.67767e-16 2.19743e-16 -17.5768)
(1.34787e-17 2.40685e-16 -18.3721)
(3.52236e-16 -3.52537e-17 -19.1019)
(-1.62985e-16 5.62394e-16 -19.8197)
(-4.98274e-17 -1.40198e-16 -20.4995)
(-2.87411e-16 8.34956e-16 -21.1454)
(2.04314e-16 -6.33709e-16 -21.7621)
(5.15001e-16 -1.04269e-15 -22.3625)
(2.08908e-16 -7.55408e-16 -22.9666)
(-1.73039e-16 -1.97e-16 -23.5771)
(-2.74782e-16 1.17023e-16 -24.2238)
(-8.1597e-17 4.42193e-17 -24.8869)
(9.45807e-17 -1.14481e-16 -25.6011)
(-6.63941e-17 2.261e-16 -26.3324)
(4.94023e-17 -1.25129e-16 -27.0344)
(-2.08252e-16 2.93978e-16 -27.6891)
(-5.59576e-17 -1.28113e-16 -28.2139)
(2.26552e-16 -2.50214e-16 -28.5913)
(1.5534e-16 4.66712e-16 -28.7275)
(-1.15174e-16 -1.24269e-16 -28.6024)
(2.59435e-16 1.41495e-16 -28.1561)
(-6.8642e-17 3.62401e-16 -27.4073)
(6.71698e-17 -4.55211e-16 -26.3372)
(-2.17965e-16 4.41178e-17 -24.9776)
(2.40248e-17 1.41431e-16 -23.3376)
(-9.71337e-17 -1.93794e-16 -21.5685)
(1.24744e-16 -1.69415e-16 -19.3941)
(-1.03759e-16 3.60493e-17 -17.1374)
(-1.94414e-17 4.36971e-17 -15.0688)
(-1.06543e-16 -4.61884e-17 -13.3282)
(1.69104e-17 -3.93736e-17 -11.9263)
(-2.30983e-17 -1.83971e-17 -10.8855)
(6.13419e-17 5.55811e-17 -10.1573)
(-3.66549e-18 -7.40309e-18 -9.75103)
(-9.56016e-18 -5.80508e-17 -9.62287)
(-1.72975e-17 -3.55253e-17 -9.69285)
(5.20249e-18 4.78691e-17 -9.87474)
(4.90656e-18 1.891e-17 -10.0993)
(6.56712e-19 -6.43131e-17 -10.3191)
(-5.63221e-19 3.70542e-17 -10.5049)
(-2.71611e-18 1.75379e-17 -10.6423)
(2.9471e-17 7.69254e-18 -10.7292)
(-2.43078e-17 1.07072e-17 -10.7713)
(-1.34606e-17 -6.3831e-17 -10.7786)
(1.01182e-17 4.44599e-17 -10.7629)
(2.99988e-18 8.52406e-18 -10.7355)
(-6.05451e-18 7.29971e-18 -10.7056)
(4.51737e-18 2.02656e-18 -10.6794)
(-6.01652e-19 -4.05086e-18 -10.6604)
(-3.67779e-18 -3.24363e-17 -10.649)
(7.93855e-18 2.39277e-17 -10.6432)
(-5.68755e-19 1.04551e-17 -10.6398)
(1.26761e-18 -6.6369e-18 -10.6345)
(8.98175e-19 -3.01359e-18 -10.6231)
(-2.72011e-18 2.97947e-17 -10.6023)
(3.2573e-18 -2.45728e-17 -10.5697)
(2.79855e-18 -8.64622e-18 -10.5238)
(-2.50103e-18 -1.47845e-17 -10.4645)
(6.10048e-19 1.31734e-17 -10.3927)
(1.1114e-18 -1.2967e-17 -10.31)
(-2.42485e-19 1.22652e-17 -10.2184)
(-5.98416e-19 6.39628e-18 -10.1202)
(3.973e-19 6.78909e-18 -10.018)
(9.77629e-20 -2.92779e-18 -9.91377)
(-3.94072e-20 -1.00572e-17 -9.80968)
(7.53367e-20 -1.31806e-19 -9.68128)
(0 -0 2.65461)
(0 -0 2.8383)
(-7.65315e-20 8.64691e-18 2.86462)
(5.18638e-19 -1.56239e-17 2.57822)
(-3.449e-19 -1.58951e-18 1.97833)
(-4.23869e-19 2.53731e-17 1.27589)
(-1.62957e-17 -3.17202e-17 0.295304)
(3.51561e-17 -1.85732e-17 -0.667791)
(-2.01555e-17 6.52584e-17 -1.56514)
(2.06095e-18 -3.01483e-17 -2.37253)
(4.60496e-20 -1.83366e-17 -3.09072)
(-3.65193e-17 1.67133e-17 -3.70585)
(6.97596e-17 3.31525e-17 -4.1451)
(-6.98129e-17 -2.96237e-17 -4.49239)
(7.63738e-17 -9.91604e-17 -4.76633)
(-3.95771e-17 9.15716e-17 -4.98028)
(-3.78174e-18 3.71679e-17 -5.15475)
(3.27689e-18 -3.31079e-17 -5.3031)
(-1.82781e-18 3.26076e-17 -5.43356)
(-3.11407e-17 -6.09257e-17 -5.55105)
(3.84704e-17 -4.3498e-18 -5.65798)
(-5.56986e-18 3.26679e-17 -5.75568)
(7.11696e-17 -6.41828e-17 -5.84503)
(-8.15676e-17 1.82971e-16 -5.92677)
(8.02291e-18 -1.08864e-16 -6.0017)
(1.2198e-17 -1.37294e-16 -6.07071)
(-7.49137e-18 1.17491e-16 -6.13472)
(-1.1731e-17 1.88643e-16 -6.19467)
(7.61421e-17 -1.67321e-16 -6.25142)
(-5.59785e-17 -1.36588e-16 -6.30572)
(-1.40798e-17 1.13109e-16 -6.35818)