/*--------------------------------*- C++ -*----------------------------------*\
| =========                 |                                                 |
| \\      /  F ield         | OpenFOAM: The Open Source CFD Toolbox           |
|  \\    /   O peration     | Version:  2506                                  |
|   \\  /    A nd           | Website:  www.openfoam.com                      |
|    \\/     M anipulation  |                                                 |
\*---------------------------------------------------------------------------*/
FoamFile
{
    version     2.0;
    format      ascii;
    arch        "LSB;label=32;scalar=64";
    class       volVectorField;
    location    "2.8";
    object      vorticityField;
}
// * * * * * * * * * * * * * * * * * * * * * * * * * * * * * * * * * * * * * //

dimensions      [0 0 -1 0 0 0 0];

internalField   nonuniform List<vector> 
4000
(
(1.86898e-20 -6.33502e-18 -22.9891)
(6.62954e-18 7.24493e-18 -23.5268)
(-7.03012e-18 1.89195e-17 -20.2328)
(-2.79628e-17 -3.41242e-17 -15.9372)
(5.76087e-17 1.32567e-18 -12.4863)
(-2.96224e-17 2.65818e-17 -9.8468)
(2.40965e-19 -1.36127e-17 -7.7633)
(-2.98708e-17 -0 -6.10791)
(2.94806e-17 2.70158e-17 -4.78579)
(-5.8333e-17 -2.67435e-17 -3.72011)
(5.83534e-17 2.60788e-17 -2.85228)
(4.55104e-18 -2.55247e-17 -2.14016)
(-2.04747e-18 -5.4052e-17 -1.55228)
(-6.2666e-17 5.32257e-17 -1.06325)
(2.9503e-19 -0 -0.652065)
(1.18711e-16 5.17343e-17 -0.301249)
(-1.13429e-16 -5.05249e-17 0.0028929)
(5.79955e-17 -5.29073e-17 0.272607)
(-2.74539e-18 5.1698e-17 0.517116)
(0 -0 0.74477)
(0 -0 0.961773)
(0 -0 1.17304)
(-6.74796e-18 9.94459e-17 1.38226)
(-9.25637e-17 -1.95303e-16 1.59208)
(2.123e-16 -6.63818e-18 1.80425)
(-1.20569e-16 2.01324e-16 2.01959)
(7.58074e-18 -9.88281e-17 2.23816)
(0 -0 2.459)
(0 -0 2.68026)
(8.46519e-18 -9.56439e-17 2.89842)
(2.06868e-16 9.21778e-17 3.10659)
(-1.11853e-16 9.90943e-17 3.28925)
(-2.22675e-16 -1.31044e-17 3.42238)
(-4.60554e-19 9.65491e-17 3.47226)
(6.61783e-17 -5.48663e-16 3.40786)
(2.22129e-16 -4.4729e-16 3.26254)
(7.77361e-16 8.05829e-16 3.05795)
(1.15201e-17 -9.42487e-18 2.74867)
(-6.19886e-16 -1.3579e-15 2.27695)
(5.33712e-16 9.07614e-16 1.5804)
(-3.0581e-16 1.78785e-15 0.458926)
(-8.99765e-16 -1.73537e-15 -1.13467)
(2.48267e-16 -7.76167e-16 -2.98131)
(-2.15103e-16 8.22162e-16 -4.88892)
(-1.03287e-15 -7.21623e-16 -6.71326)
(1.18918e-15 -1.23657e-16 -8.40009)
(9.59262e-16 -1.36655e-16 -9.96563)
(9.19294e-16 8.83125e-16 -11.3041)
(1.12624e-15 9.68858e-16 -12.448)
(4.52935e-16 1.15822e-15 -13.3742)
(-5.491e-16 1.3631e-16 -14.0246)
(3.7324e-17 -4.63488e-16 -14.4561)
(5.97564e-16 1.08419e-15 -14.5494)
(-5.67798e-16 -1.80738e-16 -14.3786)
(8.80576e-17 -1.02884e-15 -13.8637)
(2.8312e-16 3.2486e-17 -13.0247)
(-2.61928e-16 1.72874e-16 -11.8804)
(-8.33631e-17 4.53985e-17 -10.3767)
(-1.53299e-16 -2.64675e-17 -8.65331)
(7.08829e-17 4.51414e-17 -6.6427)
(-7.21192e-17 2.85382e-17 -4.44401)
(-3.07023e-16 -4.00478e-18 -2.1798)
(1.45552e-16 6.09345e-17 0.136702)
(1.02526e-16 6.01622e-16 2.40751)
(9.02565e-18 5.67017e-18 4.58717)
(1.08763e-16 -7.40922e-16 6.63361)
(-5.86749e-16 1.97573e-16 8.50343)
(-1.73175e-17 3.68383e-16 10.1983)
(-2.62555e-16 -5.80901e-16 11.6906)
(6.74119e-16 -6.94848e-16 12.9855)
(1.58553e-16 5.1521e-16 14.0828)
(2.89173e-17 1.75414e-16 14.9907)
(1.8475e-19 -2.16334e-18 15.6971)
(8.39821e-16 -5.32692e-16 16.2283)
(8.06974e-16 -5.72439e-16 16.5733)
(3.14368e-17 -6.58164e-16 16.7401)
(6.61715e-16 -4.24501e-16 16.7563)
(-7.79642e-17 6.81387e-16 16.6279)
(7.25041e-16 -3.52454e-16 16.3649)
(-6.19452e-16 -1.92076e-16 15.9999)
(1.16939e-15 -3.29465e-16 15.5497)
(1.50645e-16 6.48852e-16 15.0316)
(-3.33115e-17 7.84829e-17 14.469)
(5.65782e-17 -1.76046e-17 13.8789)
(-5.60721e-16 -8.97045e-16 13.2767)
(9.69104e-16 -1.27521e-15 12.6782)
(-3.08471e-17 1.14972e-15 12.0848)
(6.1791e-17 6.24883e-16 11.5013)
(8.87226e-18 -1.10413e-15 10.9432)
(3.96073e-16 -2.55676e-16 10.3986)
(-1.39097e-18 2.83901e-18 9.86719)
(3.86682e-16 -7.09813e-16 9.3668)
(1.85711e-16 8.68338e-16 8.8795)
(-1.32858e-16 3.13279e-16 8.41127)
(-7.98456e-18 -4.69276e-16 7.97438)
(-5.4374e-17 4.93519e-16 7.55311)
(-1.61344e-16 8.86785e-17 7.17261)
(-2.08475e-17 -2.36314e-17 6.81415)
(2.44027e-16 5.55314e-17 6.4978)
(-4.01988e-17 -1.99706e-16 6.21599)
(-4.29971e-17 -4.46663e-19 5.9848)
(-1.50881e-17 4.51105e-17 5.79121)
(7.3716e-18 -1.28648e-16 5.65273)
(1.90015e-17 -3.52766e-17 5.5489)
(2.83719e-17 1.40619e-17 5.48716)
(5.13116e-19 4.65801e-17 5.45207)
(-2.78282e-18 -3.7368e-16 5.44646)
(1.47162e-16 1.3357e-17 5.45836)
(1.77072e-16 6.32779e-16 5.4748)
(-3.33737e-16 9.27218e-17 5.48553)
(1.7067e-16 -1.20784e-16 5.47937)
(-7.64827e-18 -4.22366e-16 5.44119)
(1.76682e-16 8.34654e-17 5.36454)
(1.7483e-16 3.27765e-16 5.22932)
(5.26e-18 4.45177e-16 5.03609)
(-3.50087e-16 -2.31376e-16 4.76788)
(-3.04542e-18 -8.80353e-16 4.42075)
(-5.81444e-17 -4.87582e-17 3.99031)
(-3.84475e-16 -2.83525e-16 3.47467)
(3.78586e-16 2.84252e-16 2.87616)
(5.09243e-16 1.31734e-15 2.19467)
(-4.74451e-16 -3.17656e-16 1.43617)
(-1.65136e-17 -1.03311e-15 0.611011)
(4.33656e-16 3.2719e-16 -0.27608)
(9.08829e-17 1.09135e-15 -1.21006)
(-8.93169e-16 -6.32431e-16 -2.17991)
(3.24145e-16 -3.12607e-16 -3.17401)
(-4.5469e-16 8.6599e-17 -4.17444)
(-4.85541e-16 -7.03326e-16 -5.17077)
(-1.12847e-16 -5.56116e-16 -6.16594)
(6.1212e-18 -4.30384e-16 -7.11842)
(3.4011e-16 3.07772e-16 -8.03087)
(1.71132e-16 5.33595e-16 -8.91863)
(9.6825e-16 6.67942e-16 -9.71384)
(-5.26485e-16 2.03873e-16 -10.4311)
(6.86194e-17 3.7319e-17 -11.1105)
(-7.069e-17 -3.83343e-17 -11.6128)
(9.07404e-17 3.62828e-18 -12.0451)
(-7.95941e-17 -8.27535e-17 -12.3037)
(1.09727e-16 -8.85733e-17 -12.4081)
(-1.78519e-16 -2.58643e-17 -12.3177)
(4.26455e-16 1.9166e-16 -11.9956)
(-2.36191e-16 -3.11253e-17 -11.4003)
(5.70445e-17 -2.1516e-17 -10.5615)
(1.31982e-16 1.05241e-16 -9.37485)
(2.99817e-17 1.14669e-16 -7.98047)
(2.64728e-17 -3.95022e-17 -6.22695)
(0 -0 -4.24554)
(5.79997e-17 -3.91519e-17 -2.09264)
(-6.5599e-17 3.97454e-17 0.206152)
(-2.71262e-17 1.80591e-16 2.52393)
(4.43432e-17 8.73874e-17 4.83697)
(-1.523e-16 -9.37095e-17 7.03815)
(-8.57662e-17 -2.3381e-16 9.096)
(1.67552e-16 -6.53777e-17 10.9603)
(-1.67764e-16 1.72292e-16 12.6032)
(2.39161e-16 7.56091e-17 13.991)
(-3.3346e-16 1.83331e-16 15.0643)
(7.14612e-17 2.93033e-16 15.4845)
(-2.14965e-16 1.80207e-16 15.0092)
(2.11201e-16 -6.7487e-16 14.1822)
(-1.70347e-16 1.15986e-16 13.7806)
(4.18909e-17 8.58794e-17 13.2115)
(-2.89531e-17 6.74953e-18 12.5157)
(-2.70123e-17 4.1544e-18 11.7908)
(-2.56734e-17 2.13306e-18 11.1139)
(2.50366e-17 1.84035e-17 10.5008)
(-2.07196e-17 5.67534e-18 9.7065)
(-1.36719e-18 -1.98085e-17 8.61678)
(-2.42063e-18 -1.74828e-17 7.43334)
(2.07925e-17 -4.67068e-18 6.32427)
(4.54854e-18 3.33895e-17 5.36253)
(6.25731e-19 -1.16269e-17 4.58055)
(-4.72884e-18 -1.9461e-17 3.98604)
(2.62661e-18 1.58563e-17 3.56316)
(-1.81446e-17 -5.18184e-19 3.28763)
(3.32608e-17 -1.27486e-17 3.12769)
(-1.80669e-17 9.14039e-18 3.04749)
(3.69119e-18 1.64496e-17 3.01504)
(-8.78863e-19 -1.28003e-17 3.00435)
(-8.21904e-18 -4.91539e-18 2.99525)
(1.29434e-17 -1.43635e-18 2.97512)
(1.02335e-18 9.7961e-18 2.93504)
(2.81462e-19 1.54124e-18 2.8706)
(-5.336e-18 -4.92204e-18 2.7841)
(-5.01863e-18 -1.497e-20 2.6817)
(5.59643e-18 1.66935e-20 2.57137)
(-4.78792e-18 1.8971e-19 2.46291)
(8.11311e-18 8.21858e-20 2.36731)
(-5.13794e-18 -2.18868e-19 2.29335)
(1.73512e-18 5.17566e-21 2.24709)
(3.8948e-19 9.82267e-19 2.23202)
(-1.08861e-18 -1.34216e-19 2.24862)
(2.981e-19 -1.8237e-18 2.29609)
(1.03064e-18 1.05846e-18 2.37244)
(-1.32738e-19 2.68539e-19 2.47352)
(1.0814e-19 2.26596e-19 2.59372)
(1.4548e-19 -4.93516e-19 2.73199)
(7.39491e-20 -8.64908e-20 2.90605)
(2.31907e-20 6.9612e-20 3.08949)
(0 -0 3.01022)
(7.42018e-20 -0 -5.44649)
(6.50271e-20 1.32856e-17 -10.7176)
(1.4636e-18 -2.91335e-17 -12.7308)
(-1.60613e-17 4.27018e-18 -13.2351)
(1.45336e-17 2.53522e-17 -12.9677)
(-3.34767e-19 1.42424e-17 -12.4384)
(9.91028e-19 -3.03837e-17 -11.8406)
(2.77606e-17 2.36556e-18 -11.2545)
(-2.75455e-17 -1.69187e-18 -10.7117)
(-5.47179e-17 -8.37182e-17 -10.2231)
(1.11171e-16 8.78803e-17 -9.78908)
(-3.74525e-18 1.11561e-16 -9.40604)
(-5.50552e-17 -5.90778e-17 -9.06845)
(7.3517e-18 -1.70282e-16 -8.77029)
(5.4096e-17 5.97564e-17 -8.50575)
(-6.42362e-17 1.12396e-16 -8.26822)
(4.74837e-18 -5.68224e-17 -8.05246)
(0 -0 -7.85283)
(0 -0 -7.6651)
(0 -0 -7.48504)
(0 -0 -7.30873)
(0 -0 -7.1327)
(2.18709e-16 -0 -6.95401)
(-3.24812e-16 -0 -6.77015)
(1.05854e-16 -0 -6.57879)
(0 -0 -6.37786)
(0 -0 -6.16545)
(0 -0 -5.94013)
(9.38409e-18 -1.06026e-16 -5.70056)
(7.53501e-18 -9.87255e-19 -5.44577)
(-3.7637e-17 3.15552e-16 -5.17582)
(9.20871e-18 -8.82938e-17 -4.89337)
(1.12231e-16 -3.15493e-16 -4.56905)
(5.91734e-17 4.02302e-16 -4.25011)
(-2.48376e-16 -3.57636e-16 -4.05377)
(-7.90462e-16 -6.24637e-16 -4.02359)
(-6.65289e-17 1.575e-15 -4.15281)
(4.24848e-16 6.24085e-16 -4.46135)
(-8.21931e-16 -1.68248e-15 -5.00217)
(2.48749e-16 -9.78183e-17 -5.88456)
(6.93149e-16 1.26038e-15 -7.06919)
(7.23323e-17 -6.04903e-17 -8.41148)
(-1.54037e-17 2.15695e-16 -9.81854)
(1.26085e-15 -4.94187e-16 -11.2165)
(-1.10435e-15 -1.52998e-15 -12.5812)
(-2.14045e-15 -1.34663e-16 -13.8999)
(-9.1066e-16 -9.9652e-16 -15.1172)
(-1.13071e-15 -5.48539e-16 -16.2554)
(-5.6327e-16 2.04423e-16 -17.272)
(1.6574e-15 6.7309e-16 -18.1511)
(3.54142e-17 -4.36311e-16 -18.9007)
(-5.6549e-16 -5.37122e-16 -19.4577)
(4.90681e-16 6.51178e-16 -19.8582)
(-6.14447e-16 2.81898e-16 -20.0332)
(-6.01346e-16 1.16948e-16 -20.0031)
(-3.64248e-16 -2.16409e-17 -19.7359)
(-1.38459e-16 -1.11584e-16 -19.2058)
(8.25052e-17 -8.71876e-17 -18.4497)
(8.4748e-17 -1.02461e-16 -17.4144)
(4.36353e-17 2.29058e-16 -16.1561)
(3.06e-16 -1.73302e-16 -14.6914)
(-2.426e-16 -3.49287e-16 -13.0608)
(1.90311e-16 -5.62254e-16 -11.3264)
(-2.67287e-16 1.89328e-16 -9.52508)
(-1.31668e-17 1.13767e-15 -7.72035)
(-2.47488e-16 1.23871e-16 -5.95625)
(3.08042e-16 -6.47788e-16 -4.28816)
(3.13426e-16 5.13142e-17 -2.74622)
(-8.66902e-16 3.57236e-16 -1.34838)
(2.14912e-17 -1.1684e-16 -0.117025)
(1.28061e-15 -6.20162e-16 0.962009)
(-7.14639e-16 -3.5874e-16 1.86425)
(-2.82929e-19 -8.91381e-16 2.59568)
(-9.38264e-16 1.27469e-15 3.17631)
(-1.35509e-16 8.12098e-16 3.60447)
(1.71051e-16 -1.09778e-16 3.89997)
(3.64456e-17 -6.90066e-16 4.08508)
(6.03648e-16 8.37429e-17 4.16634)
(1.35893e-15 -7.89087e-16 4.16267)
(-1.77905e-15 -2.62153e-16 4.09365)
(-1.99284e-16 7.37977e-16 3.97172)
(5.93374e-16 -3.91056e-16 3.81174)
(-1.26754e-16 5.26268e-16 3.626)
(4.28142e-17 1.20931e-16 3.41993)
(-1.02571e-15 5.63045e-16 3.20511)
(-4.12021e-16 4.2441e-16 2.98813)
(-5.50131e-16 -3.72756e-16 2.76342)
(-4.31087e-16 8.66772e-16 2.54124)
(-8.6304e-16 5.4856e-16 2.3262)
(-2.70672e-19 -1.7179e-17 2.10743)
(-3.92034e-16 4.78917e-16 1.89603)
(-1.54044e-16 -1.49692e-16 1.69265)
(3.50841e-16 -2.23437e-16 1.49071)
(-1.57801e-16 4.35644e-16 1.30541)
(-4.0402e-18 -2.23789e-16 1.1245)
(3.45824e-16 -1.77576e-16 0.958941)
(-1.64359e-16 -4.26734e-16 0.803174)
(-2.15914e-17 -1.33178e-16 0.664483)
(9.00761e-17 5.41158e-16 0.538308)
(4.39031e-17 -1.72802e-17 0.427078)
(5.34894e-17 -1.15764e-16 0.331477)
(2.19714e-17 8.49817e-17 0.246051)
(-1.93284e-17 1.0537e-17 0.171039)
(-3.80665e-17 1.05216e-17 0.101938)
(-8.01436e-17 -2.21573e-17 0.0329773)
(1.48119e-18 1.98896e-16 -0.03379)
(-4.73039e-16 -2.99031e-16 -0.111232)
(-3.43411e-18 -5.75339e-18 -0.19497)
(3.17192e-16 -9.40196e-17 -0.297904)
(3.01992e-18 -2.4198e-16 -0.425709)
(1.28326e-17 4.29297e-16 -0.584387)
(-1.72413e-16 -3.09362e-16 -0.777638)
(-1.74362e-16 -9.28614e-17 -1.00913)
(1.88637e-16 3.32476e-16 -1.28373)
(3.49684e-16 2.02411e-16 -1.61472)
(-1.38209e-17 5.03046e-16 -1.9951)
(6.13915e-17 5.37073e-16 -2.43407)
(3.44784e-16 -3.14434e-16 -2.93062)
(-7.88151e-16 -1.60325e-15 -3.48341)
(4.22214e-16 3.73375e-16 -4.09517)
(4.37488e-16 8.35199e-16 -4.76079)
(-3.75491e-16 -3.22125e-16 -5.4766)
(-5.15036e-16 -3.69503e-16 -6.24146)
(-4.38101e-16 1.8599e-16 -7.04692)
(1.43643e-15 5.42348e-16 -7.88756)
(-4.8765e-16 -1.93966e-16 -8.75493)
(4.3474e-16 6.32321e-16 -9.63912)
(9.22504e-17 -6.75588e-17 -10.5349)
(-9.82469e-16 -7.08719e-16 -11.4393)
(-4.14379e-16 -2.28415e-16 -12.3262)
(-9.32072e-16 -7.39308e-16 -13.2029)
(-6.1826e-16 -1.28814e-15 -14.0686)
(-1.06438e-15 4.64106e-17 -14.8789)
(1.4803e-16 3.75998e-16 -15.6588)
(-1.3178e-16 -4.73784e-16 -16.4068)
(-1.91713e-16 -1.12805e-16 -17.0471)
(-5.21491e-17 -7.17482e-17 -17.6578)
(7.37224e-17 2.07223e-17 -18.1476)
(-1.03359e-16 1.75014e-16 -18.5497)
(6.23467e-17 -2.26791e-16 -18.8254)
(-1.68331e-16 4.11823e-17 -18.9546)
(-6.73835e-17 1.80946e-16 -18.914)
(-3.21813e-17 -2.04416e-16 -18.7026)
(7.05029e-17 -6.32157e-17 -18.2532)
(5.03444e-17 -6.28156e-17 -17.6322)
(-1.18146e-16 4.77866e-17 -16.7188)
(7.41318e-17 -2.06435e-17 -15.5951)
(-4.85462e-17 9.75614e-17 -14.2367)
(1.28808e-16 7.0373e-18 -12.659)
(7.33464e-17 -2.54544e-16 -10.9393)
(-3.32564e-17 -1.59594e-17 -9.06113)
(-5.35041e-17 2.06609e-16 -7.13907)
(1.10197e-16 7.52908e-18 -5.19957)
(-4.00266e-16 2.55795e-16 -3.33889)
(1.85158e-16 -1.8403e-16 -1.57607)
(-1.33178e-17 -4.73082e-17 -0.00171097)
(3.81595e-16 9.38821e-19 1.29107)
(-1.20161e-16 -3.30624e-16 2.19645)
(6.13818e-16 -6.03822e-16 2.642)
(-2.21314e-16 5.13761e-16 2.4017)
(3.73898e-17 2.27933e-16 1.96041)
(-1.61552e-19 -2.31027e-16 1.45413)
(6.76499e-17 4.69679e-17 0.903296)
(7.53413e-19 9.07236e-18 0.328784)
(4.73358e-17 -3.71452e-17 -0.271174)
(-5.19451e-17 -3.16324e-17 -0.921182)
(2.3931e-17 1.88872e-17 -1.67738)
(3.83114e-19 2.54125e-18 -2.41993)
(1.50075e-18 2.11392e-19 -3.1098)
(2.10627e-18 -2.30692e-18 -3.73882)
(-2.93632e-18 -1.76067e-17 -4.29495)
(2.07271e-17 1.73907e-17 -4.7705)
(-1.62292e-17 1.83388e-17 -5.16238)
(-9.25524e-19 -2.95323e-18 -5.47426)
(-2.22003e-17 -2.69651e-17 -5.71528)
(1.96875e-17 1.11709e-17 -5.89876)
(2.34279e-18 1.68332e-17 -6.04005)
(-4.28373e-18 -3.03478e-17 -6.15381)
(1.49752e-18 2.21655e-17 -6.25195)
(4.88127e-19 -6.19788e-18 -6.3438)
(-6.05205e-18 -8.26034e-18 -6.43547)
(5.65327e-18 1.56774e-18 -6.53016)
(5.4838e-18 4.87392e-18 -6.62827)
(-5.75889e-18 1.01922e-17 -6.72775)
(-1.71545e-18 -9.30512e-18 -6.82497)
(-5.64086e-19 -2.14457e-19 -6.91525)
(4.17877e-19 -2.60372e-18 -6.99351)
(2.68573e-19 5.31921e-20 -7.05491)
(-2.45926e-19 6.30302e-18 -7.0956)
(-1.63252e-18 -5.0198e-18 -7.11302)
(1.16711e-18 1.82144e-18 -7.10599)
(2.23421e-18 1.02545e-18 -7.07581)
(-2.46732e-18 -6.61031e-19 -7.02425)
(-3.25583e-20 -6.85053e-19 -6.95424)
(-1.23187e-19 8.30084e-19 -6.86959)
(-1.07387e-19 -1.04559e-19 -6.77423)
(-2.26228e-19 3.07566e-19 -6.67153)
(4.11871e-21 -2.12946e-20 -6.56357)
(-4.08171e-20 1.44382e-19 -6.47714)
(1.9034e-20 -6.45168e-18 5.09845)
(-4.03501e-19 7.88779e-18 1.6974)
(2.14603e-19 1.77351e-17 -2.05208)
(1.60255e-18 -2.2197e-17 -5.29135)
(-1.60088e-17 -9.85977e-18 -7.70093)
(1.4523e-17 1.28856e-17 -9.1972)
(0 -0 -10.1549)
(3.05513e-17 -2.64989e-17 -10.723)
(-3.22468e-17 5.7487e-17 -11.0231)
(2.98171e-17 4.52598e-17 -11.1551)
(-2.68284e-17 -1.1061e-16 -11.1827)
(-4.57191e-18 -7.33147e-17 -11.1437)
(1.96983e-18 1.14238e-16 -11.0626)
(1.13562e-16 4.75012e-17 -10.9569)
(-1.04568e-16 -1.07829e-16 -10.8384)
(-7.22964e-17 1.13042e-16 -10.715)
(1.15802e-16 -1.06434e-17 -10.5916)
(-4.93462e-17 -1.02498e-16 -10.471)
(-2.86053e-18 5.38661e-17 -10.3546)
(0 -0 -10.2429)
(-1.07549e-16 -0 -10.1354)
(1.07808e-16 -0 -10.0311)
(7.16022e-18 -1.05521e-16 -9.92807)
(9.86097e-17 1.13476e-16 -9.82441)
(-1.13814e-16 9.78021e-17 -9.71788)
(7.80022e-18 -1.05757e-16 -9.60615)
(0 -0 -9.48682)
(-1.05531e-16 -0 -9.35739)
(5.37169e-19 -0 -9.21538)
(1.14781e-16 -1.03689e-16 -9.05809)
(-1.84676e-17 1.08797e-16 -8.88228)
(-2.18362e-16 9.89257e-17 -8.68401)
(3.38452e-16 -9.7557e-17 -8.46188)
(-1.95829e-16 8.43439e-19 -8.202)
(1.70324e-17 -2.13151e-16 -7.91776)
(3.89206e-16 4.77091e-16 -7.65386)
(-5.6888e-16 6.26444e-17 -7.45433)
(-2.87087e-16 -1.42846e-15 -7.36456)
(6.09151e-16 3.56943e-16 -7.41974)
(1.51684e-16 9.4198e-16 -7.64771)
(9.47775e-17 1.95765e-16 -8.09037)
(1.21194e-15 -1.00635e-16 -8.69089)
(-2.94444e-16 -1.98623e-16 -9.43076)
(-9.11149e-16 -6.54998e-16 -10.2843)
(1.12855e-15 1.87786e-15 -11.1994)
(-1.35271e-15 1.1243e-15 -12.1605)
(7.09921e-16 -8.07475e-16 -13.1439)
(4.48923e-17 -5.21356e-16 -14.1158)
(6.6484e-17 -1.26817e-16 -15.0913)
(3.91999e-17 -1.32163e-15 -16.0274)
(-6.22515e-16 8.37484e-19 -16.9203)
(-1.64757e-16 1.18949e-15 -17.7664)
(7.05647e-17 4.0023e-16 -18.5398)
(-7.89193e-17 -1.71918e-16 -19.2528)
(6.16705e-16 -2.74877e-16 -19.865)
(3.06461e-16 -1.96468e-16 -20.3866)
(4.06173e-16 -1.19402e-16 -20.7832)
(3.57004e-17 -2.6503e-16 -21.0418)
(1.01995e-16 -1.51111e-16 -21.1423)
(-1.5022e-16 7.00038e-17 -21.0513)
(-5.46461e-17 -1.18054e-16 -20.7686)
(2.88388e-16 1.87255e-16 -20.2628)
(-4.49784e-16 2.49705e-16 -19.5577)
(-3.77677e-16 6.90794e-16 -18.6612)
(3.7331e-17 -1.10172e-16 -17.6048)
(4.67066e-16 -8.41619e-16 -16.4199)
(8.40081e-16 -4.25702e-16 -15.159)
(-1.24699e-16 -4.44605e-17 -13.869)
(-2.24607e-17 2.15307e-16 -12.5984)
(6.30177e-16 -4.00937e-16 -11.3781)
(-7.35482e-18 -1.20236e-15 -10.2325)
(-1.17939e-15 1.33644e-15 -9.18115)
(9.54521e-16 5.84607e-16 -8.23194)
(-1.74738e-15 1.19038e-15 -7.40086)
(-7.35719e-16 6.52994e-16 -6.66536)
(1.53744e-16 -1.64937e-15 -6.02747)
(-7.70018e-16 3.3816e-16 -5.48428)
(-5.66933e-17 9.83953e-17 -5.01818)
(-1.32346e-15 -6.02417e-16 -4.62003)
(-2.62823e-16 1.95308e-15 -4.28246)
(-5.67533e-16 2.72849e-15 -3.99202)
(9.41995e-17 -1.93656e-15 -3.73809)
(-5.84477e-16 2.48155e-16 -3.51462)
(-5.1079e-16 1.18246e-15 -3.31517)
(5.14153e-16 -3.90798e-16 -3.13663)
(-9.62484e-16 7.71457e-16 -2.9772)
(1.4858e-15 -3.79647e-16 -2.83301)
(1.07321e-15 8.31462e-17 -2.70446)
(4.97203e-16 -8.15622e-16 -2.5928)
(2.67234e-17 -4.59247e-16 -2.4912)
(-8.92846e-18 -5.66671e-16 -2.40149)
(-1.8402e-17 -2.47702e-16 -2.32485)
(1.9461e-16 -1.43417e-16 -2.25441)
(-2.10015e-16 3.21495e-16 -2.19091)
(-5.95775e-18 2.44964e-17 -2.13785)
(6.47383e-17 -2.17797e-16 -2.08885)
(-2.68908e-17 1.67424e-16 -2.05141)
(1.51685e-17 4.29083e-16 -2.01785)
(-5.50348e-16 -2.1824e-17 -1.99654)
(-4.66394e-17 -2.71769e-16 -1.98141)
(3.87204e-17 5.71701e-18 -1.98142)
(-5.80618e-17 7.48423e-17 -1.99071)
(-5.22194e-19 -4.04535e-17 -2.01714)
(7.21589e-19 3.79231e-17 -2.05795)
(7.03578e-19 8.56963e-17 -2.11614)
(7.92824e-17 1.56923e-17 -2.19323)
(8.7558e-17 1.17025e-16 -2.28726)
(3.1661e-16 8.25001e-17 -2.40258)
(-5.02017e-16 -5.37476e-16 -2.53698)
(3.44847e-16 3.11201e-16 -2.69263)
(-3.40279e-16 8.3979e-17 -2.87078)
(4.49375e-18 -2.15896e-16 -3.07256)
(-9.29927e-18 2.30959e-16 -3.30084)
(-9.13912e-18 -2.44796e-16 -3.55442)
(-9.09178e-18 -2.30901e-16 -3.83972)
(3.15969e-18 2.55982e-16 -4.15392)
(-1.71446e-16 -6e-16 -4.50112)
(-1.79101e-16 -5.31423e-16 -4.88412)
(8.03993e-16 1.48154e-15 -5.30208)
(3.97632e-16 1.60455e-16 -5.7592)
(-9.34531e-16 -1.03251e-15 -6.25628)
(-2.54462e-16 8.08965e-16 -6.78986)
(3.63817e-16 2.26364e-16 -7.36234)
(5.01975e-16 4.09117e-16 -7.9738)
(3.22966e-16 -1.12092e-15 -8.6175)
(3.07694e-16 4.92974e-16 -9.29492)
(-2.69029e-16 3.91251e-16 -10.0008)
(4.9256e-16 2.33213e-16 -10.7294)
(6.67978e-16 1.29585e-15 -11.4781)
(1.01399e-15 3.75469e-16 -12.2434)
(4.34714e-16 -4.68759e-16 -13.0073)
(5.39368e-16 3.63967e-16 -13.7788)
(6.34413e-16 5.81253e-16 -14.5513)
(-4.99224e-16 -9.6192e-16 -15.2925)
(6.5562e-16 -5.44685e-17 -16.0311)
(3.87779e-17 2.02722e-16 -16.7492)
(1.19496e-16 -6.8095e-17 -17.4035)
(2.46087e-16 -1.91475e-16 -18.0578)
(-4.50955e-18 3.05948e-17 -18.6355)
(2.3517e-16 -8.38882e-17 -19.1747)
(-2.69121e-16 6.90126e-17 -19.6507)
(-8.37225e-16 -3.0666e-17 -20.0538)
(8.64237e-17 -6.62434e-17 -20.3763)
(-3.73946e-17 -1.47859e-16 -20.6121)
(1.13918e-16 1.73897e-16 -20.7231)
(-2.56667e-17 2.50591e-16 -20.7419)
(-6.36596e-17 -1.00412e-16 -20.5729)
(8.96691e-17 -1.33376e-17 -20.2682)
(-1.28352e-16 -6.83029e-17 -19.7566)
(2.16996e-16 -7.09363e-17 -19.0439)
(-6.74504e-17 3.08428e-16 -18.1488)
(-1.90876e-16 2.57349e-16 -17.0329)
(1.68201e-16 -3.34354e-16 -15.7682)
(-4.99081e-17 1.63982e-17 -14.3556)
(1.88728e-16 -1.61708e-16 -12.8973)
(1.79498e-16 -3.32894e-16 -11.4071)
(-3.89692e-16 1.76315e-16 -9.98345)
(1.84174e-16 -7.66938e-17 -8.70155)
(7.03883e-18 1.46713e-17 -7.65372)
(-4.76148e-16 2.94084e-16 -6.92912)
(-1.34354e-16 1.60144e-16 -6.70568)
(2.50112e-16 -2.75864e-16 -6.84489)
(-2.85534e-17 2.65647e-17 -7.02689)
(-2.87053e-17 1.6669e-17 -7.19863)
(2.86735e-17 -4.89983e-19 -7.34358)
(3.22836e-17 2.26035e-17 -7.48643)
(5.36646e-18 5.66532e-17 -7.64838)
(-2.90857e-17 -4.37257e-17 -7.84256)
(-2.36369e-17 -4.66522e-18 -8.01305)
(-2.17106e-18 -2.09123e-17 -8.17649)
(2.42326e-17 3.66238e-18 -8.36001)
(-2.06592e-18 1.97319e-17 -8.56351)
(-4.00003e-17 -2.52045e-18 -8.78001)
(4.10234e-17 1.39127e-18 -9.0035)
(1.92692e-18 1.82463e-17 -9.22181)
(1.86241e-17 -2.38488e-17 -9.42536)
(-3.64948e-17 -2.57644e-17 -9.60819)
(2.08595e-17 3.70125e-17 -9.76808)
(-1.31057e-18 7.90733e-18 -9.90559)
(-1.06495e-18 -1.55498e-17 -10.0217)
(9.58795e-18 2.24112e-19 -10.1188)
(-7.64737e-18 -3.92002e-18 -10.201)
(-2.20882e-18 3.40591e-18 -10.2707)
(-1.05713e-17 1.02311e-17 -10.3302)
(1.03383e-17 -2.66705e-18 -10.3817)
(5.93968e-18 -6.42247e-18 -10.4265)
(-6.77351e-18 -1.84948e-18 -10.4649)
(4.7904e-18 -2.68876e-19 -10.4968)
(-4.8417e-18 8.56135e-19 -10.5212)
(1.71835e-18 1.11806e-18 -10.5365)
(-2.50855e-18 -3.37643e-18 -10.5414)
(-1.67486e-18 -7.20979e-19 -10.534)
(1.24022e-18 4.23157e-18 -10.513)
(-9.56061e-20 -1.09495e-18 -10.4785)
(-1.24814e-19 -1.07581e-18 -10.431)
(4.22563e-19 -4.63358e-19 -10.3717)
(-7.06092e-20 -1.02005e-18 -10.3022)
(-1.29336e-19 -7.90417e-19 -10.2249)
(-2.10267e-19 3.63315e-19 -10.1408)
(-3.87659e-21 -7.2042e-20 -10.0608)
(0 -0 3.25579)
(-6.87227e-18 -0 2.8779)
(6.70975e-18 1.27197e-17 1.62287)
(8.23035e-19 -1.58791e-17 -0.287104)
(-7.51746e-19 -9.5341e-18 -2.13492)
(-1.87244e-19 1.26935e-17 -3.80938)
(-2.65481e-17 -0 -5.25599)
(2.65567e-17 -0 -6.41585)
(-1.84735e-18 -0 -7.26719)
(4.09834e-18 -0 -7.91527)
(5.64545e-17 -5.11354e-17 -8.3998)
(-6.03225e-17 6.20961e-17 -8.74789)
(-5.60397e-17 -1.07498e-17 -8.99122)
(2.05003e-18 6.12825e-17 -9.15599)
(1.92381e-18 -1.99855e-17 -9.26332)
(5.38555e-17 -1.44086e-16 -9.32859)
(5.66339e-17 1.12001e-16 -9.36398)
(-5.93715e-17 4.1885e-17 -9.37905)
(2.72469e-18 -5.13082e-17 -9.38088)
(-5.78221e-17 1.01435e-16 -9.37475)
(5.91781e-17 -1.18521e-16 -9.36449)
(5.35434e-18 -8.45931e-17 -9.35243)
(2.27159e-19 1.07314e-18 -9.33963)
(-1.80655e-17 1.16495e-16 -9.32622)
(-9.82325e-17 8.49474e-17 -9.31154)
(1.09727e-16 -1.00836e-16 -9.29441)
(9.35246e-17 9.95316e-17 -9.27332)
(5.81864e-19 -1.43765e-17 -9.24649)
(-1.8548e-16 -1.98616e-16 -9.21198)
(1.08747e-16 -8.50634e-17 -9.16756)
(-3.81292e-17 3.09891e-16 -9.11062)
(1.12893e-16 -2.40622e-17 -9.03764)
(-9.20064e-17 -9.39284e-17 -8.947)
(-9.18011e-17 -9.19859e-18 -8.84078)
(1.18998e-16 -1.78404e-16 -8.70342)
(-2.40489e-16 1.79725e-16 -8.50444)
(7.97715e-16 5.86334e-16 -8.2585)
(7.72458e-16 6.19454e-16 -8.04072)
(-8.61021e-16 -6.48348e-16 -7.90104)
(-3.47968e-16 -8.38935e-16 -7.86029)
(1.01992e-16 -1.09311e-15 -7.93517)
(-1.02906e-15 7.99788e-16 -8.09333)
(-1.93071e-16 1.70828e-15 -8.37354)
(1.10966e-15 -9.36145e-16 -8.77592)
(-4.87593e-16 -1.12037e-15 -9.27091)
(9.96264e-16 2.51366e-16 -9.84708)
(5.64232e-16 3.45374e-16 -10.4813)
(4.21434e-16 2.28767e-16 -11.1535)
(5.27442e-16 4.88557e-16 -11.8753)
(4.38196e-16 1.08584e-15 -12.6086)
(-1.04784e-15 -6.08997e-16 -13.3525)
(5.98434e-16 -7.2957e-16 -14.1036)
(-1.39327e-16 -1.84162e-16 -14.8589)
(6.63803e-16 4.5422e-16 -15.6203)
(-1.00166e-17 3.20975e-16 -16.3741)
(-2.91011e-17 4.43318e-16 -17.1222)
(4.72564e-16 3.04301e-16 -17.8466)
(1.42895e-16 8.32166e-17 -18.5458)
(-7.38918e-18 3.24611e-18 -19.1847)
(-7.52223e-17 -3.21725e-17 -19.7586)
(1.39415e-16 -1.03541e-16 -20.229)
(-3.08725e-16 1.76255e-16 -20.5562)
(4.18975e-16 -1.59307e-16 -20.7272)
(-1.53534e-16 -8.03179e-16 -20.7107)
(8.24206e-16 -4.03854e-16 -20.5204)
(-6.70228e-16 9.02222e-16 -20.1473)
(2.175e-16 3.22944e-16 -19.6275)
(-1.47646e-16 1.55463e-16 -18.965)
(5.11917e-16 -6.15792e-16 -18.2114)
(-3.22926e-16 2.23597e-16 -17.3955)
(-2.48552e-16 1.42407e-15 -16.5466)
(-6.32147e-16 -5.92448e-16 -15.7032)
(5.87171e-16 -4.23021e-16 -14.8657)
(1.62127e-17 9.5572e-16 -14.064)
(8.69418e-16 -1.37793e-15 -13.2954)
(-4.1948e-17 6.98203e-16 -12.5596)
(-6.47069e-16 6.07335e-16 -11.8646)
(-3.78827e-17 6.33836e-17 -11.2026)
(-1.36305e-15 1.63312e-15 -10.5672)
(-1.16944e-15 2.19109e-16 -9.95883)
(2.52562e-15 -3.13915e-15 -9.37376)
(5.48463e-16 1.74423e-16 -8.80657)
(-5.7295e-16 1.1679e-15 -8.25954)
(5.93052e-16 -1.03964e-15 -7.73303)
(-2.35289e-18 6.35872e-16 -7.22808)
(1.07096e-15 -1.88386e-15 -6.75082)
(-1.10311e-15 -1.93129e-15 -6.30214)
(1.03017e-16 2.81747e-16 -5.88066)
(3.97727e-16 1.48053e-15 -5.49457)
(1.3775e-15 -2.15902e-16 -5.13802)
(2.24757e-16 -1.23052e-16 -4.80803)
(-1.31395e-17 -7.74772e-18 -4.50961)
(-2.12372e-16 8.68223e-17 -4.23678)
(3.16385e-17 2.48105e-16 -3.98576)
(3.7397e-16 -1.62723e-16 -3.76565)
(1.68138e-17 -2.21386e-16 -3.56375)
(-1.75667e-16 9.30455e-17 -3.3937)
(5.58022e-16 1.85295e-17 -3.24362)
(3.03239e-16 -8.6882e-17 -3.12555)
(1.68765e-17 -1.67389e-16 -3.02935)
(-8.16724e-17 1.68749e-17 -2.96547)
(8.13907e-17 -6.05277e-17 -2.92573)
(-5.04302e-17 1.58453e-17 -2.91561)
(6.59588e-20 1.17757e-17 -2.93124)
(-1.06075e-18 -8.67366e-17 -2.97225)
(1.7408e-16 -1.04675e-16 -3.0382)
(2.21978e-18 -9.78079e-17 -3.12584)
(1.66791e-16 5.51599e-16 -3.23484)
(1.53856e-16 4.19159e-17 -3.36272)
(-3.20589e-16 -5.252e-16 -3.50841)
(4.79834e-18 2.05737e-16 -3.67081)
(-5.19795e-18 1.19297e-17 -3.8489)
(-1.84673e-18 -2.18604e-16 -4.0436)
(1.82362e-16 9.8606e-17 -4.25159)
(-3.45374e-16 7.14612e-17 -4.47962)
(-8.0809e-18 1.81681e-16 -4.7208)
(5.61182e-16 9.87251e-16 -4.98267)
(-2.28924e-16 -8.99362e-16 -5.26539)
(-8.11013e-16 -1.58171e-15 -5.56758)
(4.15805e-16 1.30516e-15 -5.89524)
(-7.30339e-16 3.69163e-16 -6.2492)
(7.44341e-16 -6.32607e-16 -6.62772)
(2.94286e-16 -6.77635e-16 -7.03569)
(2.5107e-17 2.42729e-16 -7.47423)
(3.99249e-16 1.00431e-15 -7.9393)
(-1.34957e-15 -4.64333e-16 -8.43451)
(8.10593e-17 3.01851e-17 -8.95712)
(-3.90414e-16 -7.17926e-16 -9.50438)
(1.52298e-16 -1.01642e-16 -10.0751)
(4.51709e-16 6.58697e-16 -10.6664)
(1.54543e-16 7.71887e-16 -11.2668)
(4.74244e-17 -6.38462e-17 -11.8828)
(3.12419e-16 5.58799e-16 -12.5086)
(5.72971e-16 6.27652e-16 -13.1211)
(-8.02532e-17 2.42688e-18 -13.7434)
(7.01104e-17 2.38462e-16 -14.3557)
(4.83631e-16 -1.25801e-17 -14.9364)
(-3.56153e-18 2.53852e-16 -15.5289)
(-1.09807e-16 -7.72582e-17 -16.0835)
(-1.9931e-16 5.48812e-16 -16.6289)
(-3.53002e-17 1.57638e-16 -17.1554)
(4.35265e-16 -4.8322e-16 -17.6612)
(1.69785e-16 -5.22874e-16 -18.1506)
(-2.21819e-16 -2.55056e-16 -18.6212)
(-3.31157e-16 2.27304e-17 -19.0597)
(-1.05364e-16 5.49188e-17 -19.4823)
(1.15885e-16 -8.45368e-17 -19.8341)
(-8.12273e-17 8.67315e-17 -20.1418)
(6.22174e-17 -4.63576e-17 -20.3355)
(-2.74205e-16 1.46324e-16 -20.4025)
(-4.33536e-17 3.94451e-17 -20.3257)
(2.8046e-16 -3.14102e-16 -20.0567)
(8.49501e-17 1.19877e-16 -19.6263)
(-9.64344e-17 3.42525e-17 -18.9817)
(2.25115e-16 -1.62312e-16 -18.1877)
(-1.0419e-16 3.74837e-16 -17.2482)
(2.4657e-16 -1.58101e-16 -16.2407)
(-3.04239e-16 -3.14502e-17 -15.2101)
(2.58895e-17 1.90866e-16 -14.2682)
(2.87729e-17 3.74671e-17 -13.4938)
(1.46912e-16 -2.20379e-16 -12.9902)
(-1.31168e-16 4.32245e-17 -12.7112)
(-2.58212e-17 5.90619e-17 -12.4843)
(-1.18114e-16 3.77673e-17 -12.2008)
(2.10936e-17 -5.47724e-17 -11.8596)
(-3.03152e-17 -2.47533e-17 -11.4848)
(8.0482e-17 2.13252e-17 -11.1012)
(-7.96104e-19 4.05141e-17 -10.7339)
(-1.21171e-17 -2.38678e-17 -10.4042)
(-2.48014e-17 -4.21134e-17 -10.1304)
(6.03718e-18 8.88039e-18 -9.93447)
(6.80709e-18 3.35463e-17 -9.82776)
(1.25694e-18 -3.07558e-17 -9.80582)
(-1.19421e-18 -6.48586e-18 -9.85399)
(-3.80405e-18 1.6723e-17 -9.9523)
(4.02482e-17 3.55252e-18 -10.08)
(-3.34173e-17 1.48536e-17 -10.218)
(-1.71097e-17 -2.78308e-17 -10.351)
(1.25383e-17 1.11287e-18 -10.4675)
(4.16095e-18 1.18566e-17 -10.5603)
(-8.60993e-18 2.24118e-18 -10.6258)
(6.28625e-18 2.84235e-18 -10.6644)
(-8.10599e-19 2.37547e-18 -10.6787)
(-5.1526e-18 -1.37762e-17 -10.6734)
(1.11072e-17 1.96566e-18 -10.6538)
(-7.02735e-19 7.11046e-18 -10.6261)
(1.61802e-18 -1.4011e-18 -10.5955)
(1.21276e-18 -4.13408e-18 -10.5666)
(-3.14109e-18 1.1304e-17 -10.5421)
(3.87618e-18 -4.26985e-18 -10.5234)
(3.61595e-18 -4.52926e-18 -10.5099)
(-3.55441e-18 -5.96464e-18 -10.4999)
(9.97651e-19 3.82964e-18 -10.4899)
(1.36376e-18 -3.75495e-18 -10.4768)
(-2.01044e-19 2.87936e-18 -10.4577)
(-7.54893e-19 2.06864e-18 -10.43)
(5.30631e-19 2.39832e-18 -10.3923)
(1.19754e-19 -5.93834e-19 -10.3439)
(-4.1929e-20 -3.44582e-18 -10.282)
(1.00106e-19 -1.7414e-19 -10.198)
(0 -0 2.06291)
(0 -0 2.33591)
(-1.14016e-19 1.28821e-17 2.14556)
(4.44375e-19 -1.59453e-17 1.54097)
(-2.33227e-19 -9.72267e-18 0.75163)
(-6.33069e-19 3.78946e-17 -0.295608)
(-2.50628e-17 -3.19367e-17 -1.32422)
(5.31029e-17 -4.32378e-17 -2.28293)
(-2.93139e-17 8.18927e-17 -3.15961)
(1.86894e-18 -1.3698e-17 -3.9317)
(6.24571e-19 -4.31235e-17 -4.6104)
(-5.51293e-17 2.49945e-17 -5.13697)
(1.04494e-16 4.9619e-17 -5.57292)
(-1.05176e-16 -1.32132e-17 -5.92985)
(1.15415e-16 -1.48626e-16 -6.22144)
(-5.8793e-17 7.52664e-17 -6.45406)
(-7.06779e-18 8.6577e-17 -6.64114)
(5.83463e-18 -4.96231e-17 -6.79383)
(-2.74816e-18 4.90265e-17 -6.91988)
(-4.69873e-17 -6.10452e-17 -7.02603)
(5.98687e-17 -3.71137e-17 -7.1182)
(-1.02048e-17 4.91323e-17 -7.20086)
(1.06527e-16 -9.68674e-17 -7.27725)
(-1.22411e-16 2.16028e-16 -7.3496)
(1.04081e-17 -4.43349e-17 -7.4192)
(2.02728e-17 -2.67522e-16 -7.48653)
(-8.93239e-18 1.18439e-16 -7.55153)
(-1.58075e-17 2.86778e-16 -7.6137)
(1.08996e-16 -1.37117e-16 -7.67231)
(-8.26331e-17 -2.65987e-16 -7.72639)
(-1.83108e-17 1.15221e-16 -7.77473)
(-1.28616e-18 1.89394e-16 -7.81548)
(-1.5745e-17 7.56105e-17 -7.84847)
(1.19003e-16 -2.07781e-16 -7.88319)
(-9.77698e-17 -8.11127e-17 -7.88836)