/*--------------------------------*- C++ -*----------------------------------*\
| =========                 |                                                 |
| \\      /  F ield         | OpenFOAM: The Open Source CFD Toolbox           |
|  \\    /   O peration     | Version:  2506                                  |
|   \\  /    A nd           | Website:  www.openfoam.com                      |
|    \\/     M anipulation  |                                                 |
\*---------------------------------------------------------------------------*/
FoamFile
{
    version     2.0;
    format      ascii;
    arch        "LSB;label=32;scalar=64";
    class       volScalarField;
    location    "4";
    object      s;
}
// * * * * * * * * * * * * * * * * * * * * * * * * * * * * * * * * * * * * * //

dimensions      [0 0 0 0 0 0 0];

internalField   nonuniform List<scalar> 
4000
(
-1.0348e-21
4.1677e-21
-1.08324e-20
5.68135e-21
1.15919e-19
-8.47941e-19
5.10886e-18
-2.40232e-17
-4.20615e-18
9.80703e-16
3.26737e-15
-6.70281e-14
-1.49986e-12
-2.81388e-11
-2.85695e-10
-1.35914e-09
-5.91035e-09
-1.91251e-08
1.25604e-07
3.77179e-06
4.66759e-05
0.000534271
0.00550102
0.0263426
0.0706831
0.123089
0.155047
0.160307
0.157584
0.142068
0.102611
0.0476468
0.0113364
0.00291473
0.00322714
0.00397526
0.0055536
0.0082551
0.0117479
0.0154344
0.0185083
0.0209524
0.0230392
0.0254334
0.0278266
0.0300471
0.0320787
0.0343242
0.0366294
0.0390065
0.0415329
0.0439253
0.0464453
0.0487032
0.0509152
0.0526675
0.0539688
0.0548699
0.0553962
0.0555747
0.0554255
0.0549581
0.0542167
0.05309
0.050894
0.0445638
0.0334083
0.0204268
0.0104507
0.00636836
0.00398257
0.00235673
0.0013249
0.000716863
0.000376476
0.000191956
9.46155e-05
4.50448e-05
2.08814e-05
9.69082e-06
4.62483e-06
2.2631e-06
1.11216e-06
5.37938e-07
2.52797e-07
1.15221e-07
5.10035e-08
2.18628e-08
9.0648e-09
3.60619e-09
1.35748e-09
4.827e-10
1.54563e-10
3.52704e-11
-1.17543e-11
-5.27295e-11
-1.27487e-10
-2.25808e-10
-3.0102e-10
-3.01906e-10
-3.61359e-10
-1.05817e-09
-4.68095e-09
-1.78951e-08
-5.01194e-08
-1.27375e-07
-2.57411e-07
-4.57048e-07
-6.95262e-07
-9.85766e-07
-1.34944e-06
-1.78732e-06
-2.17433e-06
-2.55179e-06
-2.82609e-06
-2.92415e-06
-2.6921e-06
-2.14362e-06
-1.28664e-06
-1.53827e-07
1.24041e-06
2.84971e-06
6.36259e-06
2.58844e-05
5.42826e-05
8.59324e-05
0.000116582
0.000142124
0.000163541
0.000184435
0.000192501
0.000199597
0.000214438
0.000212525
0.000214128
0.000232381
0.000217008
0.000226123
0.000215132
0.00020316
0.000180843
0.000147705
0.000107049
7.18685e-05
4.37058e-05
3.24233e-05
2.63146e-05
2.14567e-05
1.68133e-05
1.2384e-05
8.48779e-06
5.3671e-06
3.12893e-06
1.68935e-06
8.53041e-07
4.03995e-07
1.63243e-07
1.17807e-08
-1.16597e-07
-2.52918e-07
-4.84791e-07
-9.03146e-07
-1.43028e-06
-2.01356e-06
-2.93994e-06
-4.29158e-06
-5.40983e-06
-5.92507e-06
-6.43633e-06
-6.84573e-06
-7.01779e-06
-6.87456e-06
-6.58599e-06
-6.24012e-06
-5.76211e-06
-5.16141e-06
-4.53295e-06
-3.9102e-06
-3.28302e-06
-2.66439e-06
-2.09578e-06
-1.61189e-06
-1.22467e-06
-9.23682e-07
-6.8784e-07
-4.79044e-07
-3.27971e-07
-2.15451e-07
-1.37152e-07
-8.68947e-08
-5.78623e-08
-3.81086e-08
-2.39735e-08
-1.3823e-08
-7.29562e-09
-4.30573e-09
-2.72042e-09
-1.76849e-09
-1.14632e-09
-6.34158e-10
-3.43821e-22
1.83801e-22
3.75875e-21
-2.55962e-20
1.10918e-19
-3.864e-19
9.11437e-19
2.15918e-18
-4.07095e-17
1.16683e-16
7.72364e-16
-1.8086e-14
-2.70975e-13
-3.02056e-12
-2.92987e-11
-2.09712e-10
-1.81523e-09
-1.57666e-08
-2.82173e-08
3.70341e-07
5.79691e-06
4.99504e-05
0.0002781
0.000933029
0.00234943
0.00478468
0.00823231
0.012085
0.0160557
0.0196316
0.0224128
0.0233554
0.0220448
0.0199431
0.0177786
0.0161362
0.0147112
0.013421
0.0122899
0.0115402
0.0103138
0.00906704
0.00811096
0.00740971
0.00693271
0.00664534
0.0064572
0.00637499
0.00633595
0.0063468
0.00643129
0.00656459
0.00685213
0.00728391
0.0080041
0.00910023
0.0107379
0.0131268
0.0161797
0.0202764
0.0246812
0.0293597
0.0341052
0.0386764
0.0425937
0.044721
0.044811
0.0446221
0.0443294
0.0441547
0.0439095
0.0432413
0.0419811
0.0390197
0.0323986
0.0223885
0.0123492
0.00593923
0.00329128
0.00192393
0.00114064
0.00066936
0.000377295
0.00020223
0.000103624
5.13919e-05
2.48179e-05
1.16555e-05
5.32444e-06
2.356e-06
1.00703e-06
4.18235e-07
1.68231e-07
6.47238e-08
2.27679e-08
4.88808e-09
-4.48124e-09
-1.62096e-08
-5.27406e-08
-9.822e-08
-1.56922e-07
-2.80722e-07
-5.46157e-07
-9.65708e-07
-1.62036e-06
-2.63053e-06
-3.84812e-06
-4.80828e-06
-5.03893e-06
-3.14796e-06
4.52008e-06
3.8747e-05
0.000336932
0.000913525
0.00178801
0.00296923
0.00446982
0.00623315
0.0081468
0.0101496
0.0121816
0.0141228
0.0159344
0.0176698
0.0192301
0.0206033
0.0217969
0.022804
0.0236518
0.0244306
0.0250421
0.0255351
0.0260726
0.0264648
0.0267768
0.0272375
0.0274126
0.0276721
0.027745
0.0276746
0.0273707
0.0267073
0.0255454
0.0239416
0.0215189
0.0189278
0.0159986
0.0131543
0.010404
0.0078543
0.00568834
0.00389666
0.00255259
0.00157392
0.000911896
0.000489798
0.000246612
0.000116479
5.19942e-05
2.1234e-05
5.94966e-06
-2.32768e-06
-6.58521e-06
-7.80118e-06
-5.30425e-06
2.45878e-06
2.1397e-05
0.000230514
0.000460326
0.000628687
0.000759671
0.000937845
0.00128703
0.00175506
0.0021736
0.00237011
0.00226874
0.00193124
0.00149791
0.0010852
0.000752733
0.000517687
0.000343104
0.000207242
0.000109617
5.01697e-05
1.91816e-05
4.88058e-06
-9.73252e-07
-2.85372e-06
-2.92961e-06
-2.21811e-06
-1.2247e-06
-2.28541e-07
6.11895e-07
1.22065e-06
1.57979e-06
1.70663e-06
1.62123e-06
1.29732e-06
5.1734e-23
-5.92363e-22
2.1747e-21
-4.73397e-21
4.55399e-21
1.97251e-20
-1.89176e-19
9.95235e-19
-1.33991e-18
-3.12129e-17
2.07528e-16
-9.39949e-16
-1.68886e-14
-1.28328e-13
-7.502e-13
-7.46317e-12
-8.25869e-11
-5.77254e-10
-4.61231e-09
9.6045e-09
6.6281e-08
7.96226e-08
1.07288e-07
2.68937e-07
6.54226e-07
1.25474e-06
2.42095e-06
4.33175e-06
8.4897e-06
2.49985e-05
0.000142395
0.00100926
0.00238894
0.0039799
0.00516938
0.00528393
0.00469383
0.00395205
0.00324771
0.00258163
0.00195351
0.00148384
0.00118316
0.000993781
0.000877971
0.000806148
0.000758382
0.00073277
0.000716669
0.00070926
0.000710896
0.00071621
0.000733003
0.000753585
0.000788534
0.000831234
0.000881639
0.000979368
0.00123532
0.00190453
0.00308832
0.00502047
0.00795277
0.0122413
0.0178271
0.0241626
0.0302229
0.0352999
0.0393848
0.042057
0.0437222
0.0455851
0.0479975
0.0504448
0.0504739
0.0493771
0.0473893
0.0444935
0.0398027
0.032237
0.0226048
0.0132449
0.00732195
0.00445169
0.00276961
0.00175022
0.00111107
0.000681297
0.000396998
0.000220311
0.000118086
6.24093e-05
3.242e-05
1.64347e-05
8.12235e-06
3.82437e-06
1.65834e-06
5.04445e-07
-1.85226e-07
-6.5356e-07
-9.436e-07
-8.01626e-07
7.26649e-07
6.70478e-06
2.64184e-05
8.78425e-05
0.00031004
0.00115825
0.00277028
0.00536902
0.00908234
0.0138853
0.019504
0.0252546
0.0311076
0.0367614
0.0418469
0.0463534
0.050347
0.0539515
0.0571864
0.0599874
0.0623865
0.0644458
0.0661901
0.0676967
0.0690289
0.0702266
0.0713249
0.0723578
0.0733172
0.0742222
0.0750959
0.0759109
0.0766855
0.0774401
0.0781341
0.0788003
0.0794045
0.0799395
0.0803779
0.0806707
0.0807324
0.0804683
0.0795628
0.0778913
0.0745961
0.0695077
0.0623393
0.053649
0.0442522
0.0342035
0.0245068
0.0156355
0.00927351
0.00547097
0.00321178
0.00186704
0.00113738
0.000807119
0.000806415
0.00108414
0.00181636
0.00326727
0.00625255
0.0111626
0.0173483
0.0225141
0.0253287
0.0259057
0.0247712
0.0227873
0.0209893
0.0202142
0.0208931
0.0231821
0.0268051
0.0311075
0.0352207
0.0383374
0.0399926
0.0401187
0.038843
0.0363087
0.0326577
0.0281813
0.0233538
0.0190902
0.0156515
0.0127738
0.0103707
0.00846723
0.00708157
0.00614673
0.00552213
0.00505331
0.00461992
0.00416544
0.00367616
0.00292539
-1.95238e-24
9.08971e-23
-8.71402e-22
4.3496e-21
-1.4955e-20
4.19066e-20
-8.7976e-20
-2.50833e-20
1.47416e-18
-7.22323e-18
2.36317e-18
-1.7888e-17
-9.98589e-17
-1.13922e-15
-6.81761e-15
-2.22789e-14
-3.1189e-13
-1.57387e-11
8.01327e-11
-1.53312e-11
8.58677e-12
-1.48652e-09
-4.65098e-09
-5.47356e-09
-1.80429e-10
1.60389e-08
3.44399e-08
5.33875e-08
7.33134e-08
1.14894e-07
-1.13869e-07
-1.00383e-06
-4.09447e-07
1.20868e-06
4.38209e-05
6.70458e-05
5.71636e-05
5.49525e-05
5.40453e-05
4.92681e-05
4.0695e-05
3.27779e-05
2.69949e-05
2.30228e-05
2.05579e-05
1.91208e-05
1.83525e-05
1.82625e-05
1.85424e-05
1.92194e-05
2.03237e-05
2.1741e-05
2.37632e-05
2.61731e-05
2.9404e-05
3.31916e-05
3.75241e-05
4.27702e-05
4.85552e-05
5.55069e-05
6.30854e-05
8.20145e-05
0.000228146
0.00083425
0.00225451
0.00470562
0.0087106
0.0141133
0.0201228
0.0259449
0.030847
0.0350412
0.0390405
0.0429514
0.0462356
0.0482401
0.0495462
0.0513962
0.0537452
0.0538888
0.0529475
0.0513279
0.0491671
0.0461387
0.0404135
0.031917
0.0220273
0.0130686
0.00774369
0.00487423
0.00319626
0.00221119
0.00153876
0.00102355
0.000632714
0.000366961
0.000217765
0.000136622
9.85168e-05
0.000107095
0.0002128
0.000554037
0.00127946
0.00260108
0.00487086
0.00864477
0.0145813
0.0220506
0.0302941
0.0389528
0.0468322
0.0539205
0.0602782
0.0652053
0.0686226
0.0706676
0.0718797
0.0730408
0.0742277
0.0752169
0.075767
0.0762363
0.076445
0.0765851
0.0767163
0.0768659
0.0770526
0.0772883
0.0775634
0.0778584
0.0782021
0.0785553
0.0788714
0.0792355
0.079576
0.0798738
0.080276
0.080654
0.081141
0.0817341
0.0824793
0.0834508
0.0846652
0.086109
0.087711
0.0890952
0.0902144
0.090779
0.0904482
0.0887893
0.0855054
0.080138
0.0732269
0.0623517
0.048416
0.0344168
0.0223326
0.0131188
0.00797598
0.00603469
0.00678138
0.0103804
0.0186112
0.0307502
0.045449
0.0594578
0.0698695
0.0749537
0.0762531
0.0751104
0.0724217
0.0688498
0.0644284
0.0591223
0.0538808
0.0496729
0.0477876
0.0493645
0.0551853
0.0649147
0.0769381
0.0885858
0.0952719
0.0990359
0.101381
0.102637
0.102796
0.101502
0.0985364
0.0936621
0.0862233
0.0762991
0.0651954
0.0540256
0.0442687
0.0375057
0.0349411
0.0367941
0.042207
0.0531293
-3.4239e-23
1.93326e-22
-6.85007e-22
1.79728e-21
-3.45566e-21
4.36652e-21
4.75566e-21
-8.16151e-20
3.3204e-19
3.38717e-20
-6.62907e-18
1.21409e-17
4.1476e-17
5.43626e-17
4.27567e-16
1.17076e-14
-6.92254e-14
1.42272e-12
6.38967e-12
7.77374e-13
-3.30501e-11
-5.54656e-11
-1.24329e-10
-3.24594e-10
-7.68364e-10
-1.4473e-09
-2.62718e-09
-5.58138e-09
-7.44849e-09
-3.02281e-08
-8.11853e-08
-1.11885e-07
-1.89509e-07
-3.7982e-07
-2.53766e-07
-1.37031e-07
-1.1514e-07
-1.46311e-07
-1.88498e-07
-2.16174e-07
-2.22762e-07
-2.18916e-07
-2.11197e-07
-2.02038e-07
-1.9321e-07
-1.84905e-07
-1.77005e-07
-1.70199e-07
-1.63725e-07
-1.57797e-07
-1.52383e-07
-1.47097e-07
-1.42362e-07
-1.37515e-07
-1.33212e-07
-1.2909e-07
-1.1981e-07
-7.33294e-08
8.65839e-08
7.07857e-07
2.0996e-06
5.69011e-06
8.68071e-06
8.73757e-06
5.05152e-06
4.54245e-05
0.00046434
0.00166231
0.00382869
0.00713304
0.011408
0.0159575
0.0203978
0.0246252
0.0288904
0.0330684
0.0365898
0.0398878
0.0433871
0.046561
0.049195
0.0510148
0.0528562
0.0553454
0.0577657
0.0589394
0.05847
0.0571841
0.0551128
0.0525463
0.0487584
0.0426496
0.034888
0.0263154
0.0184633
0.0137194
0.0123004
0.0128159
0.0143511
0.0165347
0.019681
0.0234024
0.0277667
0.0328708
0.0388479
0.045676
0.0532101
0.0603215
0.066279
0.0699941
0.0720272
0.0739316
0.0750762
0.0746401
0.0732372
0.0711635
0.0686216
0.0657375
0.0624852
0.0589832
0.0555349
0.0524245
0.0497404
0.047424
0.0454827
0.0438777
0.042561
0.0414925
0.0406173
0.0398643
0.0392584
0.0387503
0.0382249
0.0378081
0.0374242
0.0369949
0.0367429
0.0365115
0.0364583
0.0366332
0.0371217
0.0380984
0.0397213
0.0420987
0.0456429
0.0502142
0.0562403
0.0629747
0.0699122
0.0768344
0.0818289
0.0837028
0.0845883
0.0838003
0.0803128
0.0737158
0.0639463
0.0506057
0.0381149
0.0295367
0.0299149
0.0387528
0.0537744
0.0707039
0.0850352
0.0917474
0.0926638
0.0918912
0.0894296
0.0855956
0.0821794
0.0804338
0.07992
0.0798097
0.0795092
0.0786401
0.0772134
0.07555
0.0738825
0.0732321
0.075058
0.079321
0.0868964
0.0953218
0.103211
0.109661
0.114118
0.116143
0.1162
0.11571
0.114673
0.113055
0.110968
0.108467
0.105441
0.101737
0.0973271
0.0926619
0.0869515
0.0797988
-5.66343e-24
2.54192e-23
-3.2869e-23
-1.09607e-22
7.1025e-22
-2.2152e-21
5.14923e-21
-9.07605e-21
-1.60216e-20
2.20824e-19
-9.31162e-19
1.47652e-18
-4.70192e-18
7.16949e-17
-3.13794e-16
3.15263e-15
-5.17405e-14
2.00525e-13
1.5745e-13
2.41367e-13
7.3569e-16
1.02646e-12
3.84143e-12
1.05988e-11
2.64958e-11
5.80378e-11
1.00897e-10
1.21137e-10
1.25668e-10
-2.19355e-10
-6.41014e-10
-5.70026e-10
-8.55552e-09
-4.10612e-08
-7.13715e-08
-5.16265e-08
-3.17342e-08
-2.40798e-08
-2.3711e-08
-2.35262e-08
-2.10258e-08
-1.7658e-08
-1.45444e-08
-1.19994e-08
-1.00917e-08
-8.67276e-09
-7.60475e-09
-6.87901e-09
-6.37239e-09
-6.08117e-09
-6.00005e-09
-6.10255e-09
-6.48906e-09
-7.19117e-09
-8.49032e-09
-1.08584e-08
-1.632e-08
-2.31605e-08
-2.76777e-08
-1.8758e-09
8.70299e-08
1.40286e-08
-7.34437e-07
-2.84204e-06
-2.2985e-06
3.41011e-06
3.20312e-06
-6.21691e-07
-1.34318e-06
0.000222232
0.000993009
0.00237048
0.00429783
0.00670588
0.00950999
0.0124875
0.015447
0.018297
0.0211348
0.0240007
0.0272667
0.0307413
0.0341077
0.0377178
0.0419833
0.0461776
0.0501423
0.0537788
0.0565571
0.0593174
0.0616716
0.0638221
0.0661056
0.0675399
0.0681544
0.0681276
0.0680861
0.0681707
0.0683267
0.0685145
0.068414
0.068415
0.0688234
0.0697339
0.0710979
0.0728399
0.0740232
0.0741961
0.0728467
0.0703149
0.0667308
0.062159
0.056273
0.0499304
0.0436578
0.0378441
0.0326211
0.0280201
0.0240869
0.0207819
0.0180333
0.0157886
0.0139683
0.0125098
0.0113727
0.0104832
0.00978132
0.00922365
0.00877109
0.00839013
0.00807931
0.00781502
0.00756386
0.0073619
0.0071806
0.0070073
0.00689421
0.00680173
0.00677059
0.0068142
0.00695673
0.00725437
0.00776716
0.00856583
0.00991921
0.0119878
0.0154778
0.0208216
0.0278515
0.0369741
0.0478142
0.0588437
0.0684592
0.0763535
0.0804132
0.0817371
0.0817661
0.0791681
0.0745199
0.0689506
0.0681125
0.0724943
0.0808358
0.0909827
0.0960454
0.0949226
0.0901673
0.0812627
0.0702818
0.060375
0.0531888
0.0494029
0.0490559
0.0519162
0.0575951
0.0655103
0.0729408
0.07829
0.0827634
0.0867263
0.089894
0.0918713
0.0935936
0.0957816
0.098462
0.101208
0.103428
0.104577
0.104273
0.102437
0.0993594
0.0956408
0.0920746
0.089702
0.089755
0.0928205
0.0963738
0.099233
0.10137
0.10356
2.57036e-24
-1.30067e-23
4.75078e-23
-1.31394e-22
2.5069e-22
-2.80641e-22
-2.11615e-22
3.37045e-21
-1.71182e-20
4.05043e-20
-3.02746e-20
1.71537e-19
-1.11147e-18
-1.36381e-18
1.90485e-17
-6.87254e-18
4.1675e-16
-2.14786e-15
-3.51927e-15
-1.6976e-14
-2.16684e-14
6.99579e-14
4.35161e-13
8.62699e-13
2.01939e-12
4.51562e-12
8.99131e-12
1.52797e-11
2.2578e-11
4.71255e-11
6.38473e-11
1.54274e-10
3.68302e-10
-7.71932e-10
-5.729e-09
-5.64716e-09
-3.66361e-09
-2.20478e-09
-1.31478e-09
-7.57323e-10
-3.87417e-10
-1.40851e-10
3.04253e-11
1.4545e-10
2.20203e-10
2.67941e-10
2.99184e-10
3.21294e-10
3.36867e-10
3.479e-10
3.54503e-10
3.55699e-10
3.50223e-10
3.34921e-10
3.0522e-10
2.40588e-10
7.58508e-11
-2.35149e-10
-6.93939e-10
9.30276e-11
1.67321e-09
-3.13042e-08
-7.32857e-08
-1.67209e-07
4.22892e-08
2.04308e-07
-3.45368e-06
-6.04079e-06
-5.66981e-06
-9.07782e-06
-1.04966e-05
-7.40682e-06
9.98518e-06
0.000109503
0.00043956
0.00098712
0.00173186
0.00262175
0.00361011
0.00467744
0.00590124
0.00738641
0.00917717
0.0113364
0.0139604
0.0170432
0.02073
0.0253675
0.0304241
0.0356445
0.0405796
0.0451874
0.0493486
0.0527941
0.0556732
0.0585662
0.0623061
0.0653666
0.0671923
0.0677707
0.0676106
0.066796
0.0654045
0.0636374
0.0611366
0.0574716
0.0521566
0.0459367
0.0394809
0.0332771
0.0275828
0.0225031
0.0180828
0.0143777
0.011301
0.00889707
0.0070759
0.0057033
0.00467108
0.00388515
0.00327806
0.00280861
0.00244249
0.00215336
0.00192465
0.00174196
0.00159466
0.00147484
0.0013755
0.00129114
0.00122095
0.00116049
0.00110499
0.00105981
0.00101985
0.000984213
0.000959325
0.00094012
0.000931873
0.000936387
0.000955908
0.000997433
0.00106602
0.00117072
0.00132149
0.00151342
0.00186492
0.00270337
0.00440496
0.0075357
0.0126951
0.0211162
0.0314048
0.0437967
0.0563051
0.0669579
0.0748205
0.0789235
0.0803047
0.0810737
0.0823749
0.0847702
0.0878932
0.0892015
0.0871693
0.0798547
0.0670683
0.0521644
0.038587
0.0278688
0.0203735
0.0159607
0.0141102
0.0144362
0.0167333
0.0212329
0.0281554
0.037391
0.0484285
0.060495
0.0725772
0.0827217
0.0886765
0.092276
0.0946179
0.0960926
0.0966945
0.0961142
0.0938691
0.0898121
0.0842561
0.0776459
0.0705302
0.0634962
0.0571323
0.0521441
0.0492
0.0495559
0.0512932
0.0633161
4.19761e-25
-1.9818e-24
4.62289e-24
-3.12057e-24
-1.85194e-23
7.91271e-23
-1.88682e-22
4.49239e-22
-9.32607e-22
-7.24294e-22
6.69667e-21
7.3212e-21
4.4052e-20
-1.96284e-18
1.058e-17
-2.61869e-17
6.8896e-17
-5.56358e-17
-4.48338e-16
-1.79781e-15
1.64942e-15
4.01924e-15
3.7124e-15
2.74624e-15
6.76962e-14
2.08421e-13
4.62212e-13
8.66329e-13
1.36174e-12
3.48145e-12
6.19761e-12
1.20284e-11
3.80637e-11
1.01637e-11
-2.53593e-10
-2.99919e-10
-2.62545e-10
-2.22582e-10
-1.68746e-10
-1.03604e-10
-4.11832e-11
5.83095e-12
3.92614e-11
5.38419e-11
5.65874e-11
5.57921e-11
5.50516e-11
5.6121e-11
5.89584e-11
6.3907e-11
7.13809e-11
8.18153e-11
9.71355e-11
1.17014e-10
1.42159e-10
1.73983e-10
1.97059e-10
2.07407e-10
2.84279e-10
8.27104e-10
2.48409e-09
6.34637e-09
2.73558e-08
5.44425e-08
1.13108e-07
1.67584e-07
-3.67393e-08
-3.60499e-07
-9.11937e-07
-4.85951e-06
-8.03842e-06
-1.04807e-05
-1.30131e-05
-1.72099e-05
-1.93245e-05
-1.81831e-05
-1.15399e-05
1.92321e-06
2.09579e-05
4.28872e-05
6.50058e-05
8.44145e-05
0.000122978
0.000251898
0.000515766
0.000987632
0.00177227
0.00299393
0.00474044
0.0070432
0.00989239
0.0134493
0.0173669
0.0210897
0.0243359
0.0267027
0.0283297
0.0287934
0.0282175
0.0267559
0.0249859
0.022876
0.0205333
0.018005
0.0152788
0.0126415
0.0102649
0.00824929
0.00657827
0.00521862
0.00413206
0.00327139
0.00259187
0.00206194
0.00164373
0.00131902
0.00106576
0.000867698
0.00071409
0.000594458
0.000500523
0.000426877
0.000368542
0.000321672
0.000283805
0.000252776
0.000227022
0.000205392
0.000186893
0.000170811
0.000157012
0.000144887
0.000133898
0.000124717
0.000116644
0.000109665
0.000104413
0.000100349
9.79926e-05
9.75755e-05
9.92911e-05
0.000103998
0.00011221
0.000125116
0.000143549
0.000167232
0.000199804
0.000242043
0.000295292
0.000345981
0.000652189
0.0021444
0.00530254
0.0110524
0.0202502
0.0316802
0.0442934
0.056653
0.0658499
0.0724173
0.0757463
0.0772097
0.0770226
0.0735439
0.0649302
0.0520188
0.0370367
0.0236517
0.014016
0.00792533
0.00461011
0.00320187
0.00269528
0.00271252
0.00317888
0.00417047
0.0058621
0.0085015
0.0123921
0.0179824
0.0257319
0.0347693
0.0441132
0.0527528
0.0598951
0.0650269
0.0678789
0.0683945
0.0667488
0.0632954
0.0584977
0.0528592
0.0468589
0.0409107
0.0353312
0.030398
0.0261777
0.0233777
0.0207914
0.0234248
-6.58503e-26
3.20942e-25
-1.17089e-24
3.29859e-24
-6.13703e-24
4.83866e-24
1.13215e-23
-7.19537e-23
3.07095e-22
-9.6897e-22
2.1457e-21
-6.18574e-21
1.3433e-20
3.03942e-20
-1.59056e-19
1.02212e-18
-2.22911e-18
8.4634e-18
-5.39531e-18
1.19328e-17
1.05932e-16
1.47359e-16
1.21956e-16
-5.89358e-17
1.0025e-15
4.5291e-15
1.33838e-14
3.48602e-14
8.84605e-14
2.39472e-13
4.57043e-13
1.00654e-12
2.98704e-12
2.22197e-12
-1.27927e-11
-1.40512e-11
-9.74592e-12
-5.3711e-12
-1.08677e-12
2.71405e-12
5.21278e-12
6.10446e-12
5.83105e-12
5.30229e-12
4.80079e-12
4.232e-12
3.6085e-12
3.02241e-12
2.43562e-12
1.86592e-12
1.32067e-12
8.22092e-13
4.96315e-13
4.07639e-13
8.57713e-13
2.42818e-12
8.27767e-12
1.88878e-11
3.24698e-11
7.52271e-11
1.53799e-10
8.66189e-10
3.59687e-09
8.79865e-09
2.23084e-08
5.73635e-08
1.16261e-07
1.44671e-07
8.01181e-08
-4.1083e-07
-1.37424e-06
-3.30255e-06
-6.80581e-06
-1.04293e-05
-1.36434e-05
-1.65126e-05
-1.86159e-05
-2.06676e-05
-2.26571e-05
-2.41324e-05
-2.4728e-05
-2.41441e-05
-2.10902e-05
-1.61122e-05
-1.0337e-05
-4.41965e-06
1.20215e-06
5.89406e-06
1.06739e-05
2.21191e-05
8.6924e-05
0.00038199
0.000932516
0.00167085
0.00252726
0.00330594
0.00388903
0.00408335
0.00390958
0.00346142
0.00291621
0.0023693
0.00189724
0.00151426
0.00120821
0.000968831
0.000776723
0.000623896
0.000501648
0.000403756
0.00032588
0.000263831
0.000214344
0.000175216
0.000143659
0.000118612
9.85425e-05
8.23227e-05
6.92782e-05
5.86817e-05
4.99637e-05
4.27909e-05
3.68077e-05
3.17488e-05
2.74397e-05
2.37077e-05
2.04264e-05
1.75063e-05
1.48738e-05
1.24868e-05
1.03468e-05
8.42113e-06
6.68069e-06
5.19339e-06
3.90269e-06
2.82063e-06
1.98218e-06
1.34793e-06
9.43189e-07
7.791e-07
8.60673e-07
1.24849e-06
1.97794e-06
3.15185e-06
4.82818e-06
7.03034e-06
1.03739e-05
1.57465e-05
2.47983e-05
4.05649e-05
5.20568e-05
5.35756e-05
3.59541e-05
0.000191815
0.00173427
0.00537333
0.0116233
0.0212183
0.0311442
0.0407723
0.0463143
0.0479694
0.045822
0.0395931
0.0298396
0.0194346
0.0106821
0.00503181
0.00241599
0.00126657
0.000718784
0.000457879
0.000353768
0.000346184
0.000419074
0.000589062
0.000901865
0.00143399
0.00229459
0.00361417
0.00549437
0.00799969
0.0111128
0.014726
0.0185775
0.0219824
0.0244418
0.025725
0.0257807
0.0247421
0.0228739
0.0204913
0.0178941
0.0153238
0.0129442
0.0108678
0.00913078
0.00784731
0.00678757
0.00676752
-4.85787e-27
2.20281e-26
-5.50933e-26
3.55804e-26
2.69977e-25
-1.12829e-24
2.47501e-24
-5.46641e-24
1.6302e-23
-4.46275e-23
1.60188e-22
-7.13566e-22
-2.40596e-23
1.92309e-20
-1.00948e-19
3.76949e-19
-6.20376e-19
3.16955e-19
2.80116e-18
1.41664e-17
4.21369e-18
-1.75276e-17
-3.24578e-17
-2.49392e-17
1.04556e-17
1.21441e-16
4.50235e-16
1.22985e-15
3.32324e-15
9.87829e-15
2.1468e-14
6.68887e-14
1.65486e-13
1.85839e-13
-7.58633e-13
-1.23683e-12
-1.17153e-12
-7.85035e-13
-5.34497e-14
7.88626e-13
1.34021e-12
1.48601e-12
1.13601e-12
4.99171e-13
-9.70874e-14
-1.59465e-12
-3.3592e-12
-4.91658e-12
-6.26337e-12
-7.42638e-12
-8.54033e-12
-9.65885e-12
-1.07268e-11
-1.16853e-11
-1.23928e-11
-1.27252e-11
-1.25673e-11
-1.2027e-11
-1.05172e-11
-4.82944e-12
9.1119e-12
1.19814e-10
4.40148e-10
1.31878e-09
3.82638e-09
1.05235e-08
2.03158e-08
3.27263e-08
5.95524e-08
8.74094e-08
5.84838e-08
-2.56051e-07
-1.09018e-06
-2.356e-06
-4.00115e-06
-6.17173e-06
-8.16409e-06
-9.861e-06
-1.11139e-05
-1.1858e-05
-1.2098e-05
-1.18211e-05
-1.09744e-05
-9.59497e-06
-7.95183e-06
-5.82746e-06
-3.6142e-06
-1.49383e-06
3.81075e-07
2.00141e-06
2.65007e-06
2.19945e-06
8.94069e-07
-1.19853e-06
-3.93625e-06
-6.96201e-06
-9.96821e-06
-1.27381e-05
-1.51416e-05
-1.70356e-05
-1.83573e-05
-1.91694e-05
-1.95626e-05
-1.96201e-05
-1.93897e-05
-1.88541e-05
-1.79603e-05
-1.66821e-05
-1.5066e-05
-1.31738e-05
-1.11115e-05
-9.06302e-06
-7.15787e-06
-5.47555e-06
-4.06319e-06
-2.9308e-06
-2.06837e-06
-1.45439e-06
-1.0535e-06
-8.31832e-07
-7.53011e-07
-7.89551e-07
-9.1676e-07
-1.1342e-06
-1.42179e-06
-1.77174e-06
-2.18356e-06
-2.62984e-06
-3.09454e-06
-3.56043e-06
-4.01095e-06
-4.43049e-06
-4.8037e-06
-5.12588e-06
-5.38688e-06
-5.58757e-06
-5.7334e-06
-5.82702e-06
-5.87732e-06
-5.89294e-06
-5.8752e-06
-5.82883e-06
-5.74652e-06
-5.62462e-06
-5.43835e-06
-5.16002e-06
-4.75696e-06
-4.15145e-06
-3.11086e-06
-9.67438e-07
1.19222e-06
1.07856e-06
6.74759e-06
1.44052e-05
-3.27931e-07
-2.07307e-05
0.000153329
0.00184996
0.00486973
0.00927579
0.0123587
0.0132602
0.0113443
0.00776607
0.00448105
0.00234161
0.00114781
0.000543969
0.000245029
0.000100684
3.51113e-05
7.69462e-06
-6.00122e-07
2.52211e-06
1.53821e-05
4.11458e-05
8.81096e-05
0.000169093
0.000305254
0.000523856
0.000847228
0.00128846
0.00184411
0.00248588
0.0031538
0.00375013
0.00418606
0.00441646
0.00444325
0.00430504
0.00405979
0.0037682
0.00349005
0.00325822
0.00307187
0.00291857
0.00278997
0.00268739
0.00261446
0.00260833
2.81201e-28
-1.98704e-27
8.98227e-27
-2.38614e-26
3.25372e-26
7.19437e-27
-6.89495e-26
-6.06316e-27
-6.29566e-26
1.9152e-24
-8.00154e-24
1.99076e-23
-2.36977e-23
-6.81691e-23
2.36333e-22
1.19934e-21
5.43035e-21
-1.33114e-20
9.08195e-20
2.41905e-19
-2.4531e-19
-1.28564e-18
-2.39241e-18
-3.63496e-18
-3.71362e-18
-2.92945e-18
-1.28194e-17
1.03295e-17
1.05093e-16
3.91235e-16
6.34855e-16
5.92469e-15
5.97689e-15
-1.49947e-14
-8.23351e-14
-1.07716e-13
-7.67471e-14
-1.80413e-15
1.01996e-13
2.21331e-13
3.97217e-13
1.21868e-12
1.65093e-12
1.36968e-12
-2.80807e-12
-1.20206e-11
-2.11193e-11
-2.78468e-11
-3.22676e-11
-3.46738e-11
-3.6111e-11
-3.69789e-11
-3.75375e-11
-3.80037e-11
-3.81625e-11
-3.76576e-11
-3.61344e-11
-3.36054e-11
-3.06007e-11
-2.68645e-11
-2.21564e-11
-1.24657e-11
2.02496e-11
1.06736e-10
3.29378e-10
8.57489e-10
1.75032e-09
4.29883e-09
1.01457e-08
1.39345e-08
1.53216e-08
1.63173e-08
3.9e-09
-3.65563e-08
-1.75174e-07
-5.21311e-07
-1.04214e-06
-1.67742e-06
-2.31648e-06
-2.86698e-06
-3.26771e-06
-3.47153e-06
-3.45326e-06
-3.28371e-06
-2.95849e-06
-2.52877e-06
-2.01382e-06
-1.41931e-06
-7.95345e-07
-2.34213e-07
1.27514e-07
1.83937e-07
-7.18353e-08
-6.80722e-07
-1.71748e-06
-3.40757e-06
-5.71917e-06
-8.4031e-06
-1.15567e-05
-1.49018e-05
-1.74277e-05
-1.9062e-05
-2.00587e-05
-2.05083e-05
-2.04686e-05
-1.99868e-05
-1.90196e-05
-1.75421e-05
-1.55631e-05
-1.31493e-05
-1.05661e-05
-8.25001e-06
-6.29237e-06
-4.72326e-06
-3.51875e-06
-2.63191e-06
-1.99995e-06
-1.56501e-06
-1.28344e-06
-1.11696e-06
-1.05666e-06
-1.07458e-06
-1.13548e-06
-1.22054e-06
-1.36846e-06
-1.5387e-06
-1.6708e-06
-1.81803e-06
-1.96169e-06
-2.09168e-06
-2.20386e-06
-2.29658e-06
-2.36301e-06
-2.414e-06
-2.44531e-06
-2.46178e-06
-2.47126e-06
-2.47244e-06
-2.46598e-06
-2.45576e-06
-2.44191e-06
-2.43975e-06
-2.45745e-06
-2.50086e-06
-2.58884e-06
-2.73068e-06
-2.90962e-06
-3.0691e-06
-3.10377e-06
-2.87419e-06
-2.54583e-06
-1.83212e-06
-1.86706e-07
-3.66306e-06
-1.21696e-05
-1.67039e-05
-2.96826e-05
-3.11405e-05
-1.96592e-05
3.10351e-05
0.000111878
0.000134901
8.6729e-05
4.16126e-05
9.45687e-06
-8.66706e-06
-1.74366e-05
-2.43291e-05
-3.22979e-05
-3.5986e-05
-3.75487e-05
-3.78814e-05
-3.58527e-05
-3.10331e-05
-2.43053e-05
-1.67469e-05
-6.6075e-06
9.08457e-06
2.58216e-05
4.86903e-05
8.15015e-05
0.000125236
0.000178636
0.000239257
0.000304669
0.000374171
0.000449228
0.000529461
0.00061177
0.000702784
0.000808786
0.000960435
0.00133369
0.00169816
0.00204164
0.00236966
0.00265747
0.00287708
0.00302815
0.0031225
-1.41813e-27
2.8864e-27
1.89878e-26
-1.63016e-25
5.2056e-25
-6.06931e-25
-1.26641e-24
5.54976e-24
-8.88178e-24
7.63684e-24
5.57913e-24
1.16449e-23
-2.27646e-22
-9.35167e-24
9.02915e-22
2.01395e-21
4.68481e-21
3.9125e-21
-9.60136e-22
-3.39246e-20
-3.81759e-20
5.77197e-20
1.22437e-19
7.6027e-20
5.85202e-20
4.30916e-20
-4.72125e-19
-4.42021e-18
1.09867e-17
-2.53162e-17
2.21543e-17
2.60169e-16
-7.29736e-16
-6.02572e-15
-1.36105e-14
-1.20556e-14
3.03916e-15
2.21375e-14
4.90406e-14
1.82522e-13
5.49231e-13
6.00291e-12
1.73375e-11
1.7406e-11
-1.5212e-11
-7.36033e-11
-1.34598e-10
-1.82339e-10
-2.18264e-10
-2.42769e-10
-2.64282e-10
-2.85774e-10
-3.03326e-10
-3.14272e-10
-3.14205e-10
-3.01723e-10
-2.76061e-10
-2.38352e-10
-1.95919e-10
-1.52496e-10
-1.13082e-10
-7.78411e-11
-4.42491e-11
-8.8842e-12
3.98565e-11
1.02775e-10
2.00618e-10
2.94127e-10
4.1051e-10
3.35872e-10
7.12478e-10
8.75532e-11
-1.15882e-09
-4.53759e-09
-9.69241e-09
-2.05889e-08
-3.74605e-08
-6.12208e-08
-9.03597e-08
-1.20941e-07
-1.50713e-07
-1.85282e-07
-2.15234e-07
-2.40147e-07
-2.58423e-07
-2.71813e-07
-2.77304e-07
-2.65598e-07
-2.27166e-07
-1.57165e-07
-7.18129e-08
4.40401e-09
2.87101e-08
-2.31804e-08
-1.63652e-07
-4.50787e-07
-9.21463e-07
-1.55636e-06
-2.37747e-06
-3.34156e-06
-4.43972e-06
-5.59842e-06
-6.63368e-06
-7.36367e-06
-7.6602e-06
-7.48288e-06
-6.85811e-06
-5.91047e-06
-4.81111e-06
-3.71086e-06
-2.71526e-06
-1.9015e-06
-1.30688e-06
-8.98343e-07
-6.21532e-07
-4.35182e-07
-3.09194e-07
-2.21451e-07
-1.60552e-07
-1.20776e-07
-9.65615e-08
-8.39229e-08
-8.05083e-08
-8.4696e-08
-9.65218e-08
-1.16008e-07
-1.43298e-07
-1.78159e-07
-2.20805e-07
-2.72723e-07
-3.31828e-07
-3.98196e-07
-4.74265e-07
-5.629e-07
-6.63948e-07
-7.76779e-07
-9.05204e-07
-1.0369e-06
-1.1477e-06
-1.21611e-06
-1.24561e-06
-1.24747e-06
-1.2323e-06
-1.20647e-06
-1.1714e-06
-1.13581e-06
-1.12452e-06
-1.15437e-06
-1.22291e-06
-1.33884e-06
-1.42502e-06
-1.37401e-06
-1.19144e-06
-1.36533e-06
-2.09761e-06
-3.27636e-06
-1.16491e-05
-2.18383e-05
-3.28643e-05
-5.07364e-05
-5.87662e-05
-5.89901e-05
-5.427e-05
-4.72205e-05
-3.85998e-05
-3.91508e-05
-4.0593e-05
-4.59551e-05
-5.76691e-05
-5.06805e-05
-2.93125e-05
8.16226e-06
4.78648e-05
7.33595e-05
7.75844e-05
6.52571e-05
4.66703e-05
3.01699e-05
1.89509e-05
1.23483e-05
8.88617e-06
7.84396e-06
1.01221e-05
1.95621e-05
4.56433e-05
0.000106361
0.000230627
0.000462295
0.000857865
0.001475
0.00244677
0.00399955
0.00628358
0.00931088
0.0130267
0.0173181
0.0217387
0.0251554
0.0276437
0.0272002
-9.17252e-28
9.22337e-26
-6.64905e-25
1.95257e-24
-3.15691e-24
1.33762e-24
-1.13505e-25
2.18451e-23
-8.9496e-23
1.48945e-22
1.69814e-22
-1.29543e-21
1.29423e-21
-2.18455e-22
-7.7767e-22
1.27901e-20
2.6016e-20
8.39667e-21
-2.1159e-20
-3.90106e-20
-4.40034e-20
-3.68919e-20
-2.49585e-20
-8.5846e-22
2.87148e-20
7.92521e-20
5.00313e-19
2.76139e-19
2.30506e-18
-7.57517e-18
2.80749e-17
-5.51374e-17
-1.74215e-16
-9.79847e-16
-1.54712e-15
3.94654e-16
4.87812e-15
2.94673e-15
1.67283e-13
2.78137e-12
-1.32011e-11
1.54604e-11
1.39033e-10
1.38382e-10
-9.16296e-11
-3.76447e-10
-7.46258e-10
-1.08563e-09
-1.3653e-09
-1.58082e-09
-1.94079e-09
-2.95518e-09
-4.19576e-09
-5.23426e-09
-5.66945e-09
-5.46216e-09
-4.89734e-09
-4.40079e-09
-3.95938e-09
-3.48283e-09
-2.99833e-09
-2.4934e-09
-2.00392e-09
-1.55066e-09
-1.15193e-09
-8.19275e-10
-5.66405e-10
-3.99535e-10
-2.83126e-10
-2.70562e-10
-3.54164e-10
-5.64265e-10
-9.20616e-10
-1.48745e-09
-2.28575e-09
-3.25155e-09
-3.91421e-09
-4.19693e-09
-4.15469e-09
-3.91423e-09
-3.66935e-09
-3.56231e-09
-3.19388e-09
-2.58115e-09
-1.88137e-09
-1.25439e-09
-9.65423e-10
-1.34649e-09
-4.01973e-09
-7.01526e-09
-6.52817e-09
-1.20381e-09
6.41835e-09
1.79455e-08
3.4697e-08
3.95275e-08
3.15188e-08
2.80821e-09
-5.58724e-08
-1.48569e-07
-2.74087e-07
-4.16196e-07
-5.54359e-07
-6.62279e-07
-7.20763e-07
-7.25779e-07
-6.84694e-07
-6.14525e-07
-5.31933e-07
-4.48926e-07
-3.7779e-07
-3.2336e-07
-2.77681e-07
-2.3514e-07
-1.94862e-07
-1.60491e-07
-1.33471e-07
-1.08198e-07
-8.59171e-08
-6.75955e-08
-5.83553e-08
-5.62022e-08
-6.26109e-08
-8.1186e-08
-1.16541e-07
-1.70798e-07