/*--------------------------------*- C++ -*----------------------------------*\
| =========                 |                                                 |
| \\      /  F ield         | OpenFOAM: The Open Source CFD Toolbox           |
|  \\    /   O peration     | Version:  2506                                  |
|   \\  /    A nd           | Website:  www.openfoam.com                      |
|    \\/     M anipulation  |                                                 |
\*---------------------------------------------------------------------------*/
FoamFile
{
    version     2.0;
    format      ascii;
    arch        "LSB;label=32;scalar=64";
    class       volVectorField;
    location    "4";
    object      U;
}
// * * * * * * * * * * * * * * * * * * * * * * * * * * * * * * * * * * * * * //

dimensions      [0 1 -1 0 0 0 0];

internalField   nonuniform List<vector> 
4000
(
(0.00798526 0.000743038 0)
(0.00720998 0.0008726 -4.76988e-21)
(0.00604292 0.000504829 4.94825e-21)
(0.00498412 0.000237671 1.00028e-20)
(0.004379 0.00011924 -2.02821e-20)
(0.00404463 6.73583e-05 1.0215e-20)
(0.00382821 4.32803e-05 0)
(0.00367453 3.21892e-05 0)
(0.00356018 2.72993e-05 0)
(0.00347029 2.53064e-05 2.02512e-20)
(0.00339612 2.46636e-05 -2.02888e-20)
(0.00333299 2.46874e-05 4.02542e-20)
(0.00327816 2.50849e-05 -4.03076e-20)
(0.00322972 2.57185e-05 0)
(0.00318625 2.65183e-05 0)
(0.00314662 2.745e-05 0)
(0.00310985 2.84946e-05 3.95114e-20)
(0.00307509 2.96513e-05 -3.95421e-20)
(0.00304156 3.09269e-05 0)
(0.00300849 3.23298e-05 0)
(0.00297517 3.38696e-05 0)
(0.00294088 3.55563e-05 0)
(0.0029049 3.73972e-05 0)
(0.00286651 3.94043e-05 7.6835e-20)
(0.00282489 4.15944e-05 -1.53442e-19)
(0.00277918 4.39918e-05 7.66134e-20)
(0.00272834 4.66376e-05 0)
(0.00267114 4.96026e-05 0)
(0.00260601 5.30043e-05 0)
(0.00253084 5.70456e-05 0)
(0.00244263 6.21246e-05 -7.51003e-20)
(0.00233703 6.91087e-05 7.52629e-20)
(0.00221013 7.83806e-05 0)
(0.00201952 9.59051e-05 6.5484e-20)
(0.00179474 0.000154837 7.4815e-20)
(0.00165094 0.000266242 -3.77062e-19)
(0.00160825 0.000404261 -3.02143e-19)
(0.00161404 0.000546797 7.57917e-20)
(0.00164999 0.000694493 -3.01986e-19)
(0.00172664 0.000854525 -6.75945e-19)
(0.0018868 0.00103734 7.46868e-20)
(0.00215394 0.00123167 5.90123e-19)
(0.00244967 0.00140165 -5.84964e-19)
(0.00273029 0.0015421 0)
(0.0030049 0.00166041 0)
(0.00326989 0.00175718 -3.5409e-20)
(0.0035362 0.00183362 -5.27057e-19)
(0.00379555 0.00188066 -5.23353e-19)
(0.00403795 0.001898 -3.11315e-19)
(0.00427793 0.0018847 -2.73071e-19)
(0.00449759 0.00183394 2.69613e-19)
(0.00470224 0.00175002 0)
(0.00487978 0.00162319 -3.27701e-20)
(0.00502563 0.00146378 5.54316e-19)
(0.00513514 0.00126409 0)
(0.00519188 0.00103587 -1.27347e-19)
(0.00520485 0.000781985 -3.12357e-20)
(0.0051456 0.000512856 -1.64344e-23)
(0.00505122 0.000248488 -4.43697e-22)
(0.00488586 -2.02094e-05 -1.55504e-20)
(0.00467376 -0.000261237 2.97478e-20)
(0.00443923 -0.000476715 0)
(0.00417384 -0.000659195 0)
(0.00391162 -0.000806184 5.73458e-20)
(0.00363943 -0.000920864 3.9857e-19)
(0.00338621 -0.00100309 5.59077e-20)
(0.0031406 -0.00105967 -5.62612e-20)
(0.00291756 -0.00109223 5.44809e-20)
(0.00271113 -0.00110687 1.61841e-19)
(0.00252223 -0.00110461 -3.73781e-19)
(0.00235612 -0.00109149 -5.29559e-20)
(0.00219857 -0.00106876 1.12042e-21)
(0.00205797 -0.00103845 0)
(0.00193007 -0.00100348 0)
(0.0018098 -0.000963946 0)
(0.00170135 -0.000921747 -2.48214e-20)
(0.00160244 -0.000878543 -3.70051e-19)
(0.00151027 -0.000834628 0)
(0.00142724 -0.000791133 1.02992e-21)
(0.00135278 -0.000749089 2.39272e-20)
(0.00128554 -0.000708737 -3.81041e-19)
(0.00122577 -0.000670421 3.43171e-19)
(0.00117278 -0.000634222 7.45886e-23)
(0.00112574 -0.00059981 3.77341e-19)
(0.00108479 -0.000567148 2.07113e-21)
(0.00104793 -0.000535818 -3.62532e-19)
(0.00101391 -0.000505021 -3.65191e-19)
(0.000984234 -0.000474782 3.68468e-19)
(0.000956285 -0.000444884 -5.58131e-21)
(0.000928731 -0.000414616 -3.53217e-19)
(0.000904243 -0.000384241 0)
(0.000880035 -0.000353856 -3.57815e-19)
(0.0008559 -0.000323035 -3.33114e-19)
(0.000834507 -0.000292298 3.4092e-19)
(0.00081198 -0.000261609 -1.90097e-19)
(0.000793029 -0.000230897 2.09447e-20)
(0.000773774 -0.000200699 1.65919e-19)
(0.000758217 -0.000170603 2.04938e-20)
(0.000743232 -0.000141203 1.42619e-19)
(0.000732664 -0.000111609 1.00999e-19)
(0.000724294 -8.28555e-05 -4.01214e-20)
(0.000719678 -5.37412e-05 9.97211e-20)
(0.000719161 -2.46833e-05 -9.9354e-21)
(0.000721835 4.36295e-06 -9.89638e-21)
(0.000729199 3.43678e-05 -3.94178e-20)
(0.000741662 6.49171e-05 0)
(0.000758566 9.72319e-05 0)
(0.000782122 0.000130883 -3.09496e-19)
(0.000810659 0.000166761 -9.83093e-21)
(0.000846046 0.000205547 1.62272e-19)
(0.000887935 0.000247728 1.57167e-19)
(0.000937038 0.000293874 4.90547e-21)
(0.00099355 0.000344713 -1.62149e-19)
(0.00105837 0.00040051 -2.8926e-22)
(0.00112976 0.000461865 0)
(0.00121201 0.000529141 3.12346e-19)
(0.0012998 0.000601561 -9.69323e-21)
(0.00139557 0.000679847 -2.89505e-19)
(0.00149936 0.000762837 -9.65583e-21)
(0.00160793 0.000848856 -3.05955e-19)
(0.00172229 0.00093782 -1.06051e-21)
(0.00184179 0.0010282 3.01191e-19)
(0.00196287 0.00111818 1.85597e-20)
(0.00208584 0.00120709 -3.3244e-19)
(0.00221153 0.00129341 1.83723e-20)
(0.00233731 0.00137533 2.89e-19)
(0.00246355 0.0014519 3.54388e-20)
(0.00258994 0.0015218 -3.54638e-20)
(0.00271587 0.00158427 2.77877e-19)
(0.00284463 0.0016393 -2.38273e-19)
(0.00297588 0.00168442 -3.39976e-20)
(0.00310465 0.00171942 -4.96174e-19)
(0.00324098 0.00174603 -3.29185e-20)
(0.00338424 0.00175983 -2.56269e-19)
(0.00352496 0.00176073 1.66199e-21)
(0.00367948 0.0017508 0)
(0.00384114 0.00172107 0)
(0.00399864 0.00167511 -7.79903e-22)
(0.0041684 0.00160766 0)
(0.00433222 0.0015166 -2.77999e-20)
(0.00449308 0.00139917 -8.14886e-20)
(0.00464032 0.00125261 -2.63842e-20)
(0.00476178 0.00107669 -5.16734e-20)
(0.00485606 0.000874297 -2.58046e-20)
(0.00489897 0.000644818 -7.35211e-20)
(0.00490036 0.00040438 2.42222e-20)
(0.00483923 0.000144899 0)
(0.00470804 -0.000100499 0)
(0.00453891 -0.000331968 0)
(0.00431245 -0.0005352 -2.08261e-20)
(0.00406782 -0.000703999 2.08969e-20)
(0.0037891 -0.000841985 7.97892e-20)
(0.00350794 -0.000939107 7.75746e-20)
(0.00322062 -0.00100412 0)
(0.00294477 -0.00103502 -7.33276e-20)
(0.00267053 -0.00103668 0)
(0.00240653 -0.00101 -1.68394e-20)
(0.00214598 -0.000959296 8.48157e-20)
(0.00188332 -0.000879473 -1.63204e-20)
(0.00160388 -0.000747396 2.7573e-19)
(0.00149331 -0.000611934 -6.38523e-20)
(0.00147496 -0.000505948 -6.27796e-20)
(0.00145173 -0.000410812 0)
(0.00143688 -0.00032103 0)
(0.00145481 -0.000235743 0)
(0.00151468 -0.000161256 0)
(0.00163917 -0.000102356 0)
(0.00181492 -7.55113e-05 1.32184e-20)
(0.00198303 -6.91972e-05 -3.58649e-22)
(0.00213975 -6.80694e-05 -3.69755e-22)
(0.00229408 -6.72764e-05 -1.24263e-20)
(0.00244269 -6.56641e-05 0)
(0.00257997 -6.29576e-05 1.11587e-20)
(0.00270126 -5.92475e-05 -1.112e-20)
(0.00280346 -5.47856e-05 3.26569e-22)
(0.00288514 -4.98718e-05 0)
(0.00294637 -4.47246e-05 0)
(0.00298851 -3.95131e-05 -8.9212e-21)
(0.00301387 -3.46848e-05 8.90809e-21)
(0.00302548 -3.01779e-05 0)
(0.00302583 -2.6632e-05 0)
(0.00301763 -2.38464e-05 -3.35881e-21)
(0.00300394 -2.14569e-05 2.09992e-22)
(0.00298734 -1.95306e-05 3.37361e-21)
(0.00297002 -1.79505e-05 0)
(0.00295375 -1.66699e-05 0)
(0.00293984 -1.56429e-05 0)
(0.00292912 -1.48437e-05 0)
(0.00292205 -1.42704e-05 1.39855e-22)
(0.00291847 -1.39507e-05 0)
(0.0029179 -1.35835e-05 0)
(0.00291978 -1.30124e-05 0)
(0.00292334 -1.22105e-05 6.76083e-22)
(0.00292767 -1.11806e-05 -6.75196e-22)
(0.00293182 -9.92122e-06 0)
(0.00293486 -8.35614e-06 5.39837e-23)
(0.00293591 -6.47916e-06 1.4376e-22)
(0.0029337 -4.16876e-06 -9.58494e-23)
(0.00292473 -6.89011e-07 -4.76974e-23)
(0.00290552 8.05554e-06 0)
(0.00987757 0.00142199 0)
(0.0104347 0.00199213 0)
(0.0101849 0.00163272 0)
(0.00947739 0.00114024 9.83443e-21)
(0.00878014 0.00074836 -2.00329e-20)
(0.00824992 0.000489552 1.01612e-20)
(0.00784212 0.000334525 0)
(0.00751568 0.000243938 2.04763e-20)
(0.0072508 0.000188823 -2.0631e-20)
(0.00703195 0.000152975 2.05579e-20)
(0.00684688 0.000128031 -2.06614e-20)
(0.00668751 0.000109622 -4.11046e-20)
(0.00654847 9.5478e-05 4.12558e-20)
(0.00642575 8.43876e-05 4.09954e-20)
(0.00631617 7.56508e-05 -1.95536e-22)
(0.0062171 6.88485e-05 -8.18442e-20)
(0.00612625 6.37311e-05 4.09179e-20)
(0.0060416 6.01369e-05 0)
(0.00596128 5.79908e-05 0)
(0.00588356 5.72272e-05 0)
(0.0058068 5.77941e-05 0)
(0.00572941 5.96776e-05 0)
(0.00564987 6.28975e-05 0)
(0.00556663 6.75093e-05 0)
(0.00547813 7.3614e-05 0)
(0.0053827 8.13905e-05 0)
(0.00527854 9.11362e-05 0)
(0.00516359 0.000103232 0)
(0.00503545 0.000118306 0)
(0.00489116 0.000137349 0)
(0.00472701 0.000161985 -7.86984e-20)
(0.00453817 0.000195118 3.2451e-22)
(0.00432178 0.000242195 1.57657e-19)
(0.00404631 0.000311683 -6.91442e-20)
(0.00374347 0.00044234 -7.9052e-20)
(0.00353604 0.000659648 2.39591e-19)
(0.00346874 0.00094037 -3.21828e-19)
(0.0035019 0.00125468 -8.07085e-20)
(0.0036188 0.00159546 8.09301e-19)
(0.00383354 0.00196299 2.42988e-19)
(0.00419257 0.00235488 0)
(0.00470311 0.00274769 7.88124e-20)
(0.00526775 0.00310563 4.68052e-19)
(0.00583093 0.00341896 7.75501e-20)
(0.00639176 0.00368758 6.09761e-19)
(0.00694373 0.00390866 -6.02431e-19)
(0.00749382 0.00407826 2.22219e-21)
(0.00803036 0.00418329 0)
(0.00854289 0.0042215 -2.91198e-19)
(0.00904037 0.00418731 0)
(0.00950423 0.00407386 -8.04003e-22)
(0.00993394 0.00388407 0)
(0.0103122 0.00360652 -2.76421e-19)
(0.0106311 0.0032563 -2.73523e-19)
(0.0108759 0.00282571 0)
(0.0110292 0.00233466 4.96006e-24)
(0.0110918 0.00179238 1.31941e-19)
(0.0110349 0.00121399 3.22987e-20)
(0.010888 0.000633955 6.4135e-20)
(0.0106142 4.78827e-05 -1.61457e-20)
(0.010244 -0.000498203 0)
(0.00980054 -0.000996915 1.25886e-19)
(0.00928969 -0.0014336 -6.29772e-20)
(0.00875196 -0.00180071 -1.2398e-19)
(0.00818306 -0.00209364 -3.69268e-19)
(0.00762518 -0.00231665 -6.14904e-20)
(0.0070719 -0.00247724 3.02705e-19)
(0.00654772 -0.00257838 -6.05935e-20)
(0.00605053 -0.00263078 0)
(0.00558446 -0.00263971 5.90602e-20)
(0.00515646 -0.00261395 -5.91106e-20)
(0.00475291 -0.00255959 2.34383e-21)
(0.0043816 -0.00248241 0)
(0.0040385 -0.00238758 -4.59231e-19)
(0.00371767 -0.00227906 -4.55004e-19)
(0.003422 -0.00216127 2.80003e-20)
(0.00314929 -0.00203796 -2.79676e-20)
(0.00289614 -0.00191222 2.74947e-20)
(0.00266414 -0.00178728 -4.36594e-19)
(0.00245277 -0.0016655 4.07288e-19)
(0.00226042 -0.00154835 -4.30425e-19)
(0.00208687 -0.00143709 -4.37672e-19)
(0.00193093 -0.00133235 2.63401e-20)
(0.00179106 -0.00123342 -4.31193e-19)
(0.00166654 -0.00113991 4.0898e-19)
(0.00155454 -0.00105115 -4.06435e-19)
(0.0014527 -0.000966203 4.05351e-19)
(0.00136105 -0.000884189 -3.99498e-19)
(0.00127602 -0.000804346 -1.23418e-20)
(0.00119638 -0.000726922 1.22703e-20)
(0.00112253 -0.000651515 0)
(0.00105202 -0.000578388 0)
(0.000984928 -0.000508153 1.89464e-19)
(0.000922863 -0.000441074 -2.1008e-19)
(0.000863159 -0.000378032 1.84816e-19)
(0.000809971 -0.000319293 4.56986e-20)
(0.000760593 -0.000265612 2.30947e-22)
(0.000719054 -0.0002169 -8.85707e-23)
(0.000683838 -0.000173445 -3.98458e-19)
(0.00065834 -0.000134063 -6.56823e-20)
(0.000641736 -9.87314e-05 8.70155e-20)
(0.000636875 -6.58158e-05 -8.63471e-20)
(0.000643456 -3.4573e-05 0)
(0.000662768 -2.90677e-06 -1.06527e-20)
(0.000695944 3.14369e-05 1.06529e-20)
(0.000744239 6.99942e-05 0)
(0.000807464 0.000115164 0)
(0.000887651 0.000168451 1.69405e-19)
(0.000984108 0.000232174 -1.69067e-19)
(0.00109808 0.000308003 1.7424e-19)
(0.0012297 0.000397563 -3.3811e-19)
(0.00137933 0.000502253 -2.45949e-23)
(0.00154687 0.000623259 -5.28107e-21)
(0.00173258 0.000761688 -1.68468e-19)
(0.00193419 0.000917671 0)
(0.00215432 0.00109138 0)
(0.00238717 0.001282 0)
(0.00263379 0.001489 3.41792e-19)
(0.00289242 0.00170766 3.1733e-19)
(0.00315887 0.00193679 0)
(0.0034335 0.00217461 -3.65e-19)
(0.00371458 0.00241631 6.02421e-20)
(0.00399806 0.00265802 -3.97305e-20)
(0.00428379 0.00289625 1.97794e-20)
(0.00457209 0.00312704 -3.86947e-20)
(0.00486062 0.00334652 3.0722e-19)
(0.00514991 0.00355143 -2.64741e-19)
(0.0054402 0.00373866 3.36493e-19)
(0.00573196 0.00390569 -5.83528e-22)
(0.00602874 0.00405054 2.57287e-19)
(0.00633045 0.00416981 0)
(0.00663423 0.00426242 2.85262e-19)
(0.00694975 0.00432757 -3.44688e-20)
(0.00727579 0.00435998 -2.37617e-19)
(0.00760513 0.00435878 2.7018e-19)
(0.00795129 0.00432263 -3.24591e-20)
(0.0083055 0.00424089 3.25596e-20)
(0.00865724 0.00411664 -3.24773e-20)
(0.00901567 0.00394028 3.10901e-20)
(0.00936181 0.00370996 -2.9466e-20)
(0.0096907 0.00342082 1.46703e-19)
(0.00998595 0.00307068 -1.40823e-19)
(0.0102288 0.00266069 1.38761e-19)
(0.0104098 0.00219802 0)
(0.0104977 0.00168499 2.63914e-20)
(0.0104975 0.00115096 -2.49976e-20)
(0.0103817 0.000590209 -1.22517e-20)
(0.0101484 4.86117e-05 0)
(0.00982183 -0.000464721 -2.31753e-20)
(0.0093904 -0.00092751 4.51266e-20)
(0.00889625 -0.00132186 0)
(0.00832974 -0.00165102 -8.58798e-20)
(0.00773666 -0.00189379 -2.06366e-20)
(0.00711688 -0.00206254 2.07629e-20)
(0.00650444 -0.00215385 0)
(0.00588945 -0.00217251 7.86721e-20)
(0.00528976 -0.0021234 -7.64863e-20)
(0.00470219 -0.00201344 7.55499e-20)
(0.00413471 -0.00184453 0)
(0.00356643 -0.00160373 -1.44379e-19)
(0.00322178 -0.001329 -8.93182e-20)
(0.00303828 -0.00107063 1.57345e-19)
(0.00290767 -0.00084362 -1.68621e-20)
(0.00282678 -0.00065162 1.67886e-20)
(0.00282365 -0.00049099 1.59566e-20)
(0.00291329 -0.000366305 1.52798e-20)
(0.00311833 -0.000282536 -1.34061e-20)
(0.00341647 -0.000248996 -9.11385e-22)
(0.00374155 -0.000242925 0)
(0.0040716 -0.000242312 8.46078e-22)
(0.00440155 -0.000236959 0)
(0.00471925 -0.000223005 -7.80659e-22)
(0.00501184 -0.000200536 -1.17831e-20)
(0.00526934 -0.000171581 1.24203e-20)
(0.00548538 -0.000138798 -1.02992e-21)
(0.00565709 -0.000104806 1.02797e-20)
(0.00578474 -7.1842e-05 -1.94135e-20)
(0.00587124 -4.16779e-05 1.90918e-20)
(0.00592134 -1.54602e-05 -9.86909e-21)
(0.00594075 5.99352e-06 0)
(0.00593578 2.19673e-05 4.48039e-21)
(0.0059136 3.31824e-05 -4.20767e-21)
(0.00588063 3.98351e-05 -4.53175e-22)
(0.00584213 4.24505e-05 -3.30176e-21)
(0.00580273 4.17478e-05 2.90067e-21)
(0.00576617 3.84741e-05 2.86839e-21)
(0.00573499 3.34118e-05 -3.21011e-21)
(0.00571068 2.7406e-05 2.76111e-21)
(0.00569373 2.11557e-05 -4.81825e-21)
(0.00568373 1.51312e-05 2.97527e-21)
(0.00567947 1.00244e-05 -1.00997e-21)
(0.00567913 6.37026e-06 -2.13589e-22)
(0.00568062 4.34541e-06 0)
(0.00568184 4.00565e-06 4.38648e-22)
(0.00568079 5.30464e-06 -6.00212e-22)
(0.00567573 8.19712e-06 3.12397e-23)
(0.00566525 1.27748e-05 -1.9937e-22)
(0.00564799 1.95093e-05 0)
(0.0056212 2.95917e-05 0)
(0.00557927 4.63916e-05 -1.34105e-23)
(0.00987729 0.000895546 0)
(0.0105628 0.00168233 -4.78806e-21)
(0.0110096 0.00172623 4.76242e-21)
(0.0108836 0.00150457 9.47425e-21)
(0.0105982 0.00119398 -9.58304e-21)
(0.0102521 0.000919021 0)
(0.00990117 0.000708839 0)
(0.00957546 0.000559753 0)
(0.00928438 0.0004554 -1.95201e-20)
(0.00902808 0.000380326 3.92345e-20)
(0.00880233 0.000324209 1.95065e-20)
(0.00860256 0.000280747 -3.94169e-20)
(0.00842494 0.000246271 -3.92312e-20)
(0.00826605 0.000218631 3.93984e-20)
(0.0081228 0.000196488 0)
(0.00799239 0.00017898 -3.91184e-20)
(0.00787228 0.000165543 7.82897e-20)
(0.0077601 0.00015578 -3.91605e-20)
(0.00765366 0.000149416 0)
(0.00755085 0.000146255 0)
(0.0074497 0.000146152 0)
(0.00734828 0.00014902 0)
(0.00724473 0.000154832 0)
(0.00713717 0.000163629 -7.68259e-20)
(0.00702375 0.00017554 7.69996e-20)
(0.00690254 0.000190804 0)
(0.00677152 0.000209813 0)
(0.00662851 0.000233175 0)
(0.0064711 0.000261796 0)
(0.00629659 0.000297022 0)
(0.00610191 0.000340875 -7.58642e-20)
(0.00588356 0.000396535 7.61356e-20)
(0.00564147 0.000469542 0)
(0.00535558 0.00056727 4.74182e-21)
(0.0050548 0.000716066 0)
(0.00484997 0.000942015 -1.54098e-19)
(0.00480112 0.00123822 3.1144e-19)
(0.00488973 0.00158857 0)
(0.00510264 0.00198563 -6.21383e-19)
(0.00544588 0.00242314 6.66631e-22)
(0.00594582 0.0028858 -7.57691e-20)
(0.00658509 0.00334263 7.5134e-20)
(0.00727618 0.00376636 -5.91767e-19)
(0.00797131 0.00414742 0)
(0.0086635 0.00447944 -6.48007e-19)
(0.00934589 0.00475533 6.04929e-19)
(0.0100205 0.00496679 5.9653e-19)
(0.0106767 0.00510132 0)
(0.0113058 0.00515474 2.72813e-19)
(0.0119107 0.00511933 0)
(0.0124758 0.0049905 -5.32961e-19)
(0.0129965 0.00476878 0)
(0.0134568 0.00444702 2.28159e-19)
(0.0138484 0.00403701 2.8978e-19)
(0.014155 0.00353678 2.55103e-19)
(0.0143627 0.00296421 1.26127e-19)
(0.0144656 0.00233206 1.24541e-19)
(0.0144408 0.00165292 6.13438e-20)
(0.0143065 0.000959329 -3.05676e-20)
(0.0140342 0.000256649 -4.5164e-20)
(0.013646 -0.000414039 0)
(0.0131567 -0.00103825 -1.17822e-19)
(0.012577 -0.00159868 1.17012e-19)
(0.0119407 -0.00208009 0)
(0.011252 -0.00248052 4.63749e-19)
(0.0105513 -0.00279293 0)
(0.00983996 -0.00302666 5.71688e-20)
(0.00914482 -0.00317649 -5.75115e-20)
(0.00847079 -0.0032613 0)
(0.00782517 -0.00328537 5.64261e-20)
(0.00721769 -0.00325704 -5.66668e-20)
(0.00664067 -0.00318517 -6.16605e-19)
(0.00610077 -0.00307778 3.91175e-19)
(0.00559612 -0.00294218 -2.02088e-21)
(0.00512227 -0.00278533 4.39747e-19)
(0.00468085 -0.00261371 2.72688e-20)
(0.00427033 -0.00243321 -4.63518e-19)
(0.00388792 -0.00224927 0)
(0.00353435 -0.00206663 -4.30491e-19)
(0.00320934 -0.00188899 -8.26806e-19)
(0.00291163 -0.00171913 8.07709e-19)
(0.00264088 -0.00155891 4.3476e-19)
(0.00239599 -0.00140924 -4.31419e-19)
(0.00217532 -0.0012699 4.26575e-19)
(0.00197775 -0.00114007 0)
(0.00180046 -0.00101874 4.06732e-19)
(0.00164055 -0.000904902 4.49732e-21)
(0.00149677 -0.000797357 8.10554e-19)
(0.00136556 -0.000695398 3.71918e-19)
(0.00124464 -0.000599114 4.0498e-19)
(0.00113361 -0.000508398 0)
(0.00102999 -0.000423784 0)
(0.000933266 -0.000346387 -1.8969e-19)
(0.00084449 -0.000276848 0)
(0.00076206 -0.000216118 -2.31784e-20)
(0.000688846 -0.000165054 2.30213e-20)
(0.000623919 -0.000123855 -1.81733e-19)
(0.000570319 -9.2971e-05 1.80058e-19)
(0.000528037 -7.1528e-05 1.55903e-19)
(0.000500084 -5.88413e-05 2.21132e-20)
(0.00048727 -5.27709e-05 -8.75364e-20)
(0.000491417 -5.19411e-05 4.34252e-20)
(0.000514787 -5.34432e-05 -3.23106e-20)
(0.000558931 -5.3836e-05 1.07264e-20)
(0.000625124 -5.0016e-05 0)
(0.000714652 -3.80446e-05 8.4735e-20)
(0.000828059 -1.48917e-05 0)
(0.000967097 2.32056e-05 1.68159e-19)
(0.00113119 7.93104e-05 2.63559e-22)
(0.00132084 0.000156252 -1.62056e-19)
(0.00153649 0.000256455 1.66626e-19)
(0.00177665 0.000381775 -5.19162e-21)
(0.00204097 0.000533405 0)
(0.00232781 0.000712515 1.63695e-19)
(0.0026349 0.000918857 -1.6266e-19)
(0.00296227 0.00115178 0)
(0.00330437 0.00140985 9.99561e-21)
(0.00366087 0.0016904 -3.27557e-19)
(0.004029 0.00198991 -2.96616e-19)
(0.00440425 0.00230471 2.91958e-19)
(0.00478603 0.00263022 -3.0836e-19)
(0.0051723 0.00296128 -1.90279e-20)
(0.00555968 0.00329258 2.83023e-19)
(0.00594794 0.00361873 3.76095e-20)
(0.00633708 0.00393416 3.31171e-19)
(0.0067257 0.00423379 -6.5683e-19)
(0.00711454 0.00451292 3.25635e-19)
(0.00750433 0.00476719 -2.50217e-19)
(0.00789611 0.00499287 2.0873e-19)
(0.00829279 0.00518655 3.43311e-19)
(0.00869462 0.00534437 2.02187e-19)
(0.00910045 0.00546442 3.36424e-20)
(0.00951691 0.00554387 2.2811e-19)
(0.00994245 0.0055776 2.90644e-19)
(0.0103721 0.00556455 -3.10905e-20)
(0.0108131 0.00550102 3.11278e-20)
(0.0112566 0.00537845 9.01457e-20)
(0.0116943 0.00519881 2.86841e-20)
(0.0121271 0.00495361 -2.82901e-20)
(0.0125393 0.00464198 2.83523e-20)
(0.0129213 0.00426113 -1.08662e-19)
(0.0132567 0.0038112 2.6777e-20)
(0.013527 0.00329612 -7.92074e-22)
(0.0137198 0.00272469 -2.55826e-20)
(0.0138095 0.00210392 -9.82708e-20)
(0.0137962 0.001461 0)
(0.0136537 0.000799587 4.58661e-20)
(0.0133823 0.000156251 -2.84568e-20)
(0.0129958 -0.000455051 2.18169e-20)
(0.0124882 -0.00101328 -6.3391e-20)
(0.0118928 -0.00149656 -2.05366e-20)
(0.0112052 -0.00190003 8.07971e-20)
(0.0104668 -0.00220635 9.91655e-20)
(0.00968246 -0.00241918 -3.88629e-20)
(0.00888789 -0.00253992 9.58755e-20)
(0.00808093 -0.00255459 -7.45539e-20)
(0.00728497 -0.00249051 -1.81565e-20)
(0.00650203 -0.0023486 -7.15782e-20)
(0.00575167 -0.00213257 1.80358e-20)
(0.00501401 -0.00184938 -7.03895e-20)
(0.00447503 -0.00152589 6.9328e-20)
(0.00412218 -0.00121771 -5.12246e-20)
(0.00387539 -0.00096019 -1.68825e-20)
(0.00372555 -0.000766163 -3.26162e-20)
(0.00369868 -0.00063395 0)
(0.00380862 -0.000554804 -3.03002e-20)
(0.00406954 -0.000526376 2.74597e-20)
(0.00444508 -0.000534674 5.08815e-22)
(0.0048623 -0.00055202 -3.79391e-22)
(0.00528919 -0.000559392 -1.19995e-21)
(0.0057121 -0.000547466 -1.26902e-20)
(0.00611477 -0.000513694 7.50266e-22)
(0.00648207 -0.000460632 0)
(0.0068029 -0.000393497 -6.88348e-22)
(0.00707042 -0.000318317 6.58554e-22)
(0.00728184 -0.000240902 1.10954e-20)
(0.00743796 -0.000166265 -1.04101e-20)
(0.00754262 -9.83298e-05 -8.93564e-21)
(0.00760189 -3.98329e-05 9.46686e-21)
(0.00762325 7.66996e-06 0)
(0.00761528 4.38059e-05 -4.90726e-22)
(0.00758643 6.91389e-05 0)
(0.00754429 8.39984e-05 -2.94548e-21)
(0.007496 8.95955e-05 2.08392e-22)
(0.00744748 8.76214e-05 3.55183e-21)
(0.00740323 7.99266e-05 7.12907e-22)
(0.00736637 6.84431e-05 3.31954e-22)
(0.00733854 5.51838e-05 -3.06426e-22)
(0.0073199 4.19387e-05 0)
(0.00730952 3.01995e-05 2.55634e-22)
(0.00730556 2.11272e-05 8.72128e-22)
(0.00730548 1.5463e-05 -6.6463e-22)
(0.00730645 1.35813e-05 -6.75112e-22)
(0.00730564 1.55039e-05 8.30546e-22)
(0.00730052 2.09577e-05 0)
(0.00728901 2.95419e-05 1.31807e-22)
(0.00726976 4.09496e-05 1.91768e-22)
(0.00724199 5.51848e-05 4.78426e-23)
(0.00720497 7.27171e-05 -4.7772e-23)
(0.00715031 9.59376e-05 1.28841e-23)
(0.00979411 0.000518824 0)
(0.010354 0.00120188 0)
(0.0108898 0.00146868 0)
(0.0111177 0.00146081 9.43609e-21)
(0.0111151 0.00132845 -9.45637e-21)
(0.0110422 0.00114673 0)
(0.0108885 0.000970775 0)
(0.010694 0.000822001 0)
(0.0104907 0.000701797 0)
(0.0102926 0.000605646 0)
(0.0101056 0.000528141 0)
(0.00993143 0.000464742 -3.79913e-20)
(0.00977056 0.000412459 3.81684e-20)
(0.00962221 0.000369352 -3.79655e-20)
(0.00948505 0.000334083 7.60386e-20)
(0.00935747 0.000305723 -3.80593e-20)
(0.00923775 0.000283616 -3.78169e-20)
(0.00912412 0.000267276 3.79253e-20)
(0.00901477 0.00025634 0)
(0.00890792 0.000250528 0)
(0.00880181 0.000249631 7.49791e-20)
(0.00869468 0.000253517 -7.51471e-20)
(0.00858474 0.000262129 0)
(0.00847023 0.000275502 -7.44147e-20)
(0.0083493 0.00029378 7.45777e-20)
(0.00822009 0.000317249 0)
(0.00808064 0.000346379 0)
(0.00792889 0.000381877 7.37267e-20)
(0.00776267 0.000424766 -3.32251e-22)
(0.00757972 0.000476502 -7.3786e-20)
(0.00737771 0.000539131 -7.33508e-20)
(0.00715421 0.000615558 1.46829e-19)
(0.00691091 0.000710277 -7.34788e-20)
(0.00663102 0.000827889 6.8458e-20)
(0.0063428 0.000983469 -7.36429e-20)
(0.00615262 0.00119929 -7.42735e-20)
(0.00612445 0.00148177 7.55214e-20)
(0.00624982 0.00182518 2.25682e-19)
(0.00651747 0.00222294 3.73911e-19)
(0.00692638 0.00266461 7.42682e-20)
(0.00748739 0.00313058 -7.28901e-20)
(0.00816711 0.00359239 -6.42924e-19)
(0.0088892 0.00402773 6.34321e-19)
(0.00961493 0.00442506 6.25509e-19)
(0.010336 0.00477426 -1.37559e-19)
(0.0110468 0.00506528 1.02092e-19)
(0.0117471 0.00528803 -3.01903e-19)
(0.0124284 0.00543334 0)
(0.0130834 0.00548907 -2.95243e-19)
(0.0137108 0.00545287 3.26037e-20)
(0.0142993 0.00532765 2.5677e-19)
(0.0148424 0.00510061 3.15315e-20)
(0.0153259 0.00477383 -3.14242e-19)
(0.0157419 0.00435603 -2.17606e-19)
(0.0160758 0.00384915 -2.46908e-19)
(0.0163159 0.00326688 -1.22464e-19)
(0.0164546 0.00262208 -2.97253e-20)
(0.0164736 0.0019278 2.98815e-20)
(0.0163823 0.00121116 2.92964e-20)
(0.0161588 0.000481666 4.32354e-20)
(0.0158168 -0.00022765 2.85762e-20)
(0.0153633 -0.000899585 0)
(0.0148073 -0.00151637 1.12712e-19)
(0.0141743 -0.00206061 0)
(0.0134706 -0.00252536 -3.8903e-19)
(0.0127307 -0.00290141 -2.22296e-19)
(0.0119604 -0.00319097 -5.53415e-20)
(0.0111868 -0.0033938 0)
(0.0104198 -0.0035172 0)
(0.00967004 -0.00356861 -2.18629e-19)
(0.0089502 -0.00355601 0)
(0.00825823 -0.00348863 4.87257e-19)
(0.00760216 -0.0033759 -4.85154e-19)
(0.0069828 -0.00322651 4.56003e-19)
(0.00639784 -0.00304931 -2.25314e-22)
(0.00584924 -0.00285268 -2.19729e-22)
(0.00533634 -0.0026442 3.70702e-19)
(0.00485697 -0.00243108 5.28481e-20)
(0.00441166 -0.00221949 3.93487e-19)
(0.00400046 -0.00201425 4.17866e-19)
(0.00362234 -0.00181893 1.63597e-21)
(0.00327708 -0.00163598 -4.00608e-19)
(0.00296395 -0.00146651 3.98223e-19)
(0.00268157 -0.00131045 0)
(0.00242902 -0.00116691 6.33307e-21)
(0.00220388 -0.00103445 3.97923e-19)
(0.00200302 -0.000911619 -7.97643e-19)
(0.00182511 -0.000797147 -1.19329e-18)
(0.00166655 -0.000689891 -4.04991e-19)
(0.00152392 -0.000589603 1.33112e-20)
(0.00139649 -0.000496588 0)
(0.00128156 -0.000411166 1.18959e-20)
(0.00117717 -0.000334279 -1.18296e-20)
(0.00108458 -0.000267256 0)
(0.00100157 -0.000210372 1.84903e-19)
(0.000930745 -0.000165165 -2.27781e-20)
(0.000871246 -0.000131238 2.26449e-20)
(0.000825817 -0.000109214 2.3451e-22)
(0.000794519 -9.74076e-05 1.77161e-19)
(0.000780804 -9.56951e-05 -2.18738e-20)
(0.000785647 -0.00010109 4.34733e-20)
(0.000811018 -0.00011212 -2.1568e-20)
(0.000859986 -0.000124587 -7.47096e-25)
(0.000932933 -0.000135214 -1.05511e-20)
(0.00103309 -0.00014051 1.05161e-20)
(0.0011611 -0.000135402 -8.34064e-20)
(0.00131792 -0.000116571 -8.79843e-20)
(0.00150531 -7.90899e-05 -1.59673e-19)
(0.00172192 -1.94373e-05 3.2753e-19)
(0.00196847 6.57697e-05 -1.57548e-19)
(0.00224367 0.000179377 -5.06733e-21)
(0.00254578 0.000323722 -5.00697e-21)
(0.00287348 0.00050004 4.99845e-21)
(0.00322338 0.000709265 -1.58503e-19)
(0.00359324 0.000950656 1.03422e-20)
(0.00398137 0.00122316 -6.61655e-23)
(0.00438206 0.00152447 1.34555e-19)
(0.00479432 0.00185109 4.68023e-19)
(0.00521503 0.00219879 -3.01552e-19)
(0.00564013 0.0025628 -3.00115e-19)
(0.00606888 0.00293754 3.15416e-19)
(0.00649953 0.00331698 2.73504e-19)
(0.00692965 0.00369496 -2.72616e-19)
(0.00735953 0.00406523 -3.20901e-19)
(0.00778955 0.00442153 -2.66079e-19)
(0.00821926 0.00475821 3.69583e-20)
(0.00864981 0.00506989 -3.46803e-20)
(0.00908233 0.00535162 0)
(0.00951816 0.00559902 -3.02104e-19)
(0.0099597 0.00580811 -2.64209e-19)
(0.0104073 0.0059749 -2.27818e-19)
(0.0108603 0.00609669 0)
(0.0113229 0.00616982 -2.82218e-19)
(0.0117931 0.00619015 3.09919e-20)
(0.0122665 0.00615616 -8.99571e-20)
(0.0127457 0.00606365 -2.97375e-20)
(0.0132224 0.00590655 -9.33744e-22)
(0.0136891 0.00568586 -1.40592e-19)
(0.0141424 0.00539593 2.78054e-20)
(0.014569 0.00503683 -1.33285e-19)
(0.0149582 0.00460838 2.3568e-19)
(0.0152953 0.00411283 2.04147e-19)
(0.0155645 0.00355598 9.94794e-20)
(0.0157537 0.00294737 0)
(0.0158425 0.00229671 -2.33645e-20)
(0.0158284 0.00162415 3.44684e-22)
(0.01569 0.000939311 1.08392e-20)
(0.0154264 0.000271463 -3.80023e-20)
(0.015044 -0.000363397 2.14137e-20)
(0.014538 -0.000946301 -4.11035e-20)
(0.0139322 -0.00145661 3.99057e-20)
(0.0132233 -0.00188602 0)
(0.0124452 -0.00221832 -9.49921e-20)
(0.0116037 -0.00245211 3.73863e-20)
(0.0107307 -0.00258479 -7.3698e-20)
(0.00983258 -0.00260489 -1.82605e-20)
(0.008936 -0.0025438 8.85899e-20)
(0.00804511 -0.00238988 -1.76744e-20)
(0.00719185 -0.00216205 0)
(0.00635818 -0.00187218 8.45781e-20)
(0.0057051 -0.00155647 -4.00046e-22)
(0.00525497 -0.00126257 -3.97905e-22)
(0.00494844 -0.00103088 -3.89064e-22)
(0.00477542 -0.000879893 3.14594e-20)
(0.00476238 -0.000809636 -3.71172e-22)
(0.00491663 -0.000801321 -1.91016e-22)
(0.00524485 -0.000840471 -1.39305e-20)
(0.00569099 -0.000893736 1.2026e-20)
(0.00617031 -0.000931285 1.28094e-20)
(0.00664785 -0.000939135 1.18617e-21)
(0.00710967 -0.000911301 -1.21478e-20)
(0.00754048 -0.000848059 1.43181e-21)
(0.00792665 -0.000755158 1.08061e-20)
(0.00825893 -0.000641299 -1.07428e-20)
(0.00853225 -0.00051597 -1.26048e-21)
(0.00874529 -0.000388169 -1.21066e-21)
(0.00890004 -0.000265661 0)
(0.00900127 -0.000154546 8.61391e-21)
(0.00905581 -5.90761e-05 -8.60888e-21)
(0.00907189 1.83106e-05 0)
(0.00905852 7.68025e-05 -9.44816e-22)
(0.00902458 0.00011659 0)
(0.00897816 0.000139179 8.40221e-22)
(0.00892674 0.000146808 3.06212e-21)
(0.0088764 0.00014226 -3.05991e-21)
(0.00883171 0.000128667 -6.91114e-22)
(0.0087957 0.00010932 6.38927e-22)
(0.00876981 8.7396e-05 0)
(0.00875398 6.58869e-05 -2.07076e-21)
(0.00874692 4.74258e-05 2.06617e-21)
(0.00874636 3.39498e-05 4.435e-22)
(0.00874938 2.65535e-05 7.46293e-22)
(0.00875275 2.57494e-05 -7.44794e-22)
(0.00875333 3.14054e-05 5.5762e-22)
(0.00874829 4.28344e-05 -5.56768e-22)
(0.00873546 5.90118e-05 -2.08899e-22)
(0.0087136 7.88539e-05 -1.39015e-22)
(0.00868232 0.000101443 9.2593e-23)
(0.00864231 0.000126116 1.15288e-22)
(0.00858288 0.000154741 0)
(0.00976234 0.000328376 0)
(0.0101853 0.000851803 0)
(0.010665 0.00114682 0)
(0.0109627 0.00125487 9.50895e-21)
(0.0111418 0.00123909 -9.47342e-21)
(0.0112595 0.00115585 0)
(0.0112852 0.00104953 1.86966e-20)
(0.0112583 0.000941051 -1.87498e-20)
(0.0111942 0.000839402 -1.86341e-20)
(0.0111097 0.000749002 3.73145e-20)
(0.011015 0.000670093 -1.86804e-20)
(0.0109161 0.000601428 0)
(0.0108167 0.000542252 0)
(0.0107187 0.000491896 3.70251e-20)
(0.010623 0.000449774 -1.76316e-22)
(0.0105296 0.000415407 -7.39404e-20)
(0.0104382 0.000388397 3.69752e-20)
(0.0103482 0.000368413 0)
(0.0102586 0.00035518 0)
(0.0101685 0.000348468 3.6517e-20)
(0.0100766 0.000348118 -3.65873e-20)
(0.0099818 0.000354034 0)
(0.0098827 0.000366196 0)
(0.0097779 0.000384689 -7.21906e-20)
(0.00966587 0.000409708 1.44296e-19)
(0.00954501 0.000441595 -7.21062e-20)
(0.0094136 0.000480877 -7.15686e-20)
(0.00926984 0.000528312 3.28938e-22)
(0.00911186 0.000584947 1.42704e-19)
(0.00893775 0.000652194 -7.13351e-20)
(0.00874575 0.000731928 -7.08499e-20)
(0.00853396 0.00082661 3.09616e-22)
(0.00830493 0.000939727 7.08417e-20)
(0.00804234 0.00107348 7.03152e-20)
(0.00777311 0.00123744 -7.08999e-20)
(0.0075991 0.00145033 0)
(0.00758247 0.00172225 -2.91108e-19)
(0.00771899 0.00205201 -5.80051e-19)