# Region type : patch outlet
# Faces       : 20
# Area        : 5.000000e-06
# Scale factor: 1.000000e+00
# Time        	areaAverage(s)
0.000311429   	0.000000e+00
0.00223581    	0.000000e+00
0.0141289     	3.935430e-187
0.0803498     	7.506457e-68
