/*--------------------------------*- C++ -*----------------------------------*\
| =========                 |                                                 |
| \\      /  F ield         | OpenFOAM: The Open Source CFD Toolbox           |
|  \\    /   O peration     | Version:  2506                                  |
|   \\  /    A nd           | Website:  www.openfoam.com                      |
|    \\/     M anipulation  |                                                 |
\*---------------------------------------------------------------------------*/
FoamFile
{
    version     2.0;
    format      ascii;
    arch        "LSB;label=32;scalar=64";
    class       surfaceScalarField;
    location    "3.5";
    object      phi;
}
// * * * * * * * * * * * * * * * * * * * * * * * * * * * * * * * * * * * * * //

dimensions      [0 3 -1 0 0 0 0];

oriented        oriented;

internalField   nonuniform List<scalar> 
7780
(
2.08107e-09
4.18594e-10
1.64721e-09
4.3398e-10
1.34948e-09
2.97597e-10
1.16529e-09
1.84105e-10
1.05516e-09
1.10121e-10
9.87027e-10
6.81158e-11
9.41744e-10
4.52675e-11
9.09234e-10
3.25039e-11
8.84251e-10
2.49803e-11
8.64027e-10
2.02225e-11
8.47061e-10
1.6966e-11
8.32479e-10
1.45819e-11
8.19713e-10
1.27649e-11
8.08356e-10
1.13567e-11
7.9809e-10
1.02656e-11
7.88653e-10
9.43557e-12
7.7982e-10
8.83155e-12
7.71388e-10
8.43066e-12
7.63163e-10
8.22329e-12
7.54962e-10
8.19925e-12
7.46608e-10
8.35269e-12
7.37923e-10
8.68316e-12
7.28726e-10
9.19481e-12
7.18826e-10
9.89763e-12
7.08015e-10
1.08088e-11
6.96057e-10
1.19563e-11
6.82667e-10
1.33881e-11
6.67498e-10
1.51674e-11
6.50098e-10
1.73987e-11
6.29845e-10
2.0251e-11
6.05823e-10
2.40184e-11
5.7655e-10
2.92675e-11
5.39632e-10
3.69077e-11
4.84985e-10
5.46315e-11
4.35618e-10
4.93505e-11
4.14256e-10
2.13526e-11
4.0876e-10
5.5025e-12
4.09882e-10
-1.09713e-12
4.18949e-10
-9.02589e-12
4.39878e-10
-2.08859e-11
4.8552e-10
-4.56119e-11
5.40588e-10
-5.50648e-11
5.92092e-10
-5.15248e-11
6.41336e-10
-4.92742e-11
6.86064e-10
-4.47569e-11
7.27709e-10
-4.16684e-11
7.68103e-10
-4.04167e-11
8.02037e-10
-3.39541e-11
8.34651e-10
-3.26237e-11
8.63622e-10
-2.89767e-11
8.87378e-10
-2.37581e-11
9.09696e-10
-2.23119e-11
9.22964e-10
-1.32484e-11
9.34941e-10
-1.19454e-11
9.36271e-10
-1.2936e-12
9.32961e-10
3.34734e-12
9.21029e-10
1.19636e-11
8.98982e-10
2.20719e-11
8.75983e-10
2.30248e-11
8.37706e-10
3.83095e-11
8.01285e-10
3.64723e-11
7.59498e-10
4.18622e-11
7.1642e-10
4.31787e-11
6.76165e-10
4.0367e-11
6.34199e-10
4.20947e-11
5.98417e-10
3.59047e-11
5.62427e-10
3.61026e-11
5.32249e-10
3.0284e-11
5.03598e-10
2.87489e-11
4.78391e-10
2.52891e-11
4.56502e-10
2.19579e-11
4.35306e-10
2.12559e-11
4.17328e-10
1.80321e-11
4.00408e-10
1.69734e-11
3.84476e-10
1.59923e-11
3.70279e-10
1.42682e-11
3.57062e-10
1.33039e-11
3.44639e-10
1.25284e-11
3.33586e-10
1.11769e-11
3.23701e-10
1.00228e-11
3.14851e-10
9.00027e-12
3.07159e-10
7.84649e-12
3.00521e-10
6.791e-12
2.9482e-10
5.84845e-12
2.90074e-10
4.88516e-12
2.85853e-10
4.35213e-12
2.81975e-10
3.99927e-12
2.78742e-10
3.34322e-12
2.75507e-10
3.33506e-12
2.72083e-10
3.51057e-12
2.69065e-10
3.09149e-12
2.65751e-10
3.37377e-12
2.62173e-10
3.62664e-12
2.58985e-10
3.22599e-12
2.5521e-10
3.80487e-12
2.52191e-10
3.04172e-12
2.48732e-10
3.47606e-12
2.46195e-10
2.54862e-12
2.43407e-10
2.79801e-12
2.41995e-10
1.41784e-12
2.40606e-10
1.3944e-12
2.40496e-10
1.13321e-13
2.41132e-10
-6.33115e-13
2.42447e-10
-1.31219e-12
2.45377e-10
-2.92678e-12
2.48991e-10
-3.61066e-12
2.54447e-10
-5.45052e-12
2.60951e-10
-6.49683e-12
2.69111e-10
-8.14974e-12
2.78749e-10
-9.62452e-12
2.90062e-10
-1.12952e-11
3.02901e-10
-1.28145e-11
3.17713e-10
-1.4781e-11
3.33541e-10
-1.57888e-11
3.51798e-10
-1.82072e-11
3.70918e-10
-1.90613e-11
3.91275e-10
-2.02887e-11
4.1285e-10
-2.14937e-11
4.34737e-10
-2.17986e-11
4.57141e-10
-2.23094e-11
4.79934e-10
-2.2693e-11
5.01993e-10
-2.1958e-11
5.23146e-10
-2.10517e-11
5.43782e-10
-2.05337e-11
5.63162e-10
-1.92758e-11
5.81374e-10
-1.81015e-11
5.98418e-10
-1.69267e-11
6.14119e-10
-1.5575e-11
6.29006e-10
-1.47546e-11
6.43841e-10
-1.47009e-11
6.57059e-10
-1.30929e-11
6.70387e-10
-1.32258e-11
6.85241e-10
-1.47928e-11
6.98723e-10
-1.34787e-11
7.13381e-10
-1.47238e-11
7.31255e-10
-1.80142e-11
7.46231e-10
-1.51857e-11
7.65221e-10
-1.92535e-11
7.82949e-10
-1.80185e-11
8.01499e-10
-1.88377e-11
8.19223e-10
-1.79744e-11
8.34836e-10
-1.57978e-11
8.46797e-10
-1.20629e-11
8.55842e-10
-9.06072e-12
8.54949e-10
9.49983e-13
8.53477e-10
1.57914e-12
8.3593e-10
1.76808e-11
8.15697e-10
2.03709e-11
7.87129e-10
2.86972e-11
7.51378e-10
3.58689e-11
7.15824e-10
3.56636e-11
6.71723e-10
4.42095e-11
6.32161e-10
3.9671e-11
5.87311e-10
4.49562e-11
5.47275e-10
4.01208e-11
5.03091e-10
4.42426e-11
4.6184e-10
4.12792e-11
4.17672e-10
4.41541e-11
3.74267e-10
4.33633e-11
3.30993e-10
4.32401e-11
3.28464e-10
2.50575e-12
3.26537e-10
1.93119e-12
3.2571e-10
8.46525e-13
3.27299e-10
-1.56988e-12
3.3887e-10
-1.15683e-11
3.59009e-10
-2.01541e-11
3.96847e-10
-3.78659e-11
4.36525e-10
-3.97051e-11
4.73631e-10
-3.71263e-11
5.10341e-10
-3.67237e-11
5.46325e-10
-3.59915e-11
5.80506e-10
-3.41836e-11
6.11737e-10
-3.12307e-11
6.39123e-10
-2.73827e-11
6.62125e-10
-2.29996e-11
6.80575e-10
-1.84466e-11
6.94608e-10
-1.40304e-11
7.0461e-10
-1.00016e-11
7.11162e-10
-6.55142e-12
7.14955e-10
-3.7947e-12
7.16504e-10
-1.55084e-12
7.16431e-10
7.07096e-14
7.15378e-10
1.05026e-12
7.13888e-10
1.48572e-12
7.12414e-10
1.47107e-12
7.11305e-10
1.10571e-12
7.10808e-10
4.93811e-13
7.1106e-10
-2.54732e-13
7.1216e-10
-1.1028e-12
7.13938e-10
-1.78029e-12
7.16339e-10
-2.40241e-12
7.19211e-10
-2.87379e-12
7.22363e-10
-3.15268e-12
7.25584e-10
-3.2217e-12
7.28661e-10
-3.07784e-12
7.31375e-10
-2.71509e-12
7.33481e-10
-2.10687e-12
7.34656e-10
-1.17616e-12
7.34272e-10
3.82242e-13
3.64625e-12
2.63514e-09
2.83524e-10
2.58942e-09
4.79803e-10
2.44512e-09
4.41956e-10
2.28129e-09
3.47981e-10
2.135e-09
2.56406e-10
2.0182e-09
1.84898e-10
1.92707e-09
1.36382e-10
1.8544e-09
1.0517e-10
1.79483e-09
8.45566e-11
1.74486e-09
7.01931e-11
1.70217e-09
5.96551e-11
1.66517e-09
5.15823e-11
1.63271e-09
4.5224e-11
1.60391e-09
4.01596e-11
1.57804e-09
3.6132e-11
1.5545e-09
3.29751e-11
1.53275e-09
3.05794e-11
1.51232e-09
2.88685e-11
1.49274e-09
2.77959e-11
1.47362e-09
2.73243e-11
1.45454e-09
2.74278e-11
1.43513e-09
2.80929e-11
1.41501e-09
2.93186e-11
1.39379e-09
3.11181e-11
1.37107e-09
3.35232e-11
1.34644e-09
3.65903e-11
1.31941e-09
4.04147e-11
1.28945e-09
4.51317e-11
1.2559e-09
5.095e-11
1.21796e-09
5.81891e-11
1.17463e-09
6.73504e-11
1.12463e-09
7.92633e-11
1.0661e-09
9.54285e-11
9.94185e-10
1.26538e-10
9.29382e-10
1.14144e-10
8.96282e-10
5.4442e-11
8.88268e-10
1.35085e-11
8.99285e-10
-1.21131e-11
9.29839e-10
-3.95591e-11
9.84171e-10
-7.51686e-11
1.07076e-09
-1.32133e-10
1.17138e-09
-1.55628e-10
1.27246e-09
-1.5258e-10
1.37094e-09
-1.47769e-10
1.46283e-09
-1.36684e-10
1.54884e-09
-1.27729e-10
1.63019e-09
-1.21825e-10
1.70205e-09
-1.0588e-10
1.76906e-09
-9.97058e-11
1.82856e-09
-8.85291e-11
1.8794e-09
-7.46643e-11
1.92353e-09
-6.64823e-11
1.95554e-09
-4.53e-11
1.97954e-09
-3.59689e-11
1.98864e-09
-1.04048e-11
1.98593e-09
6.06207e-12
1.96942e-09
2.84798e-11
1.93656e-09
5.49517e-11
1.89375e-09
6.58527e-11
1.83141e-09
1.00679e-10
1.76284e-09
1.05084e-10
1.68436e-09
1.20398e-10
1.60055e-09
1.27052e-10
1.5159e-09
1.25074e-10
1.42875e-09
1.29296e-10
1.34648e-09
1.18209e-10
1.26517e-09
1.17405e-10
1.19022e-09
1.05198e-10
1.11887e-09
1.00046e-10
1.053e-09
9.10822e-11
9.92166e-10
8.2709e-11
9.34199e-10
7.91424e-11
8.80855e-10
7.13059e-11
8.3045e-10
6.73253e-11
7.82556e-10
6.38551e-11
7.37665e-10
5.91509e-11
6.95175e-10
5.5806e-11
6.54898e-10
5.28351e-11
6.1724e-10
4.88794e-11
5.82205e-10
4.51126e-11
5.49713e-10
4.15518e-11
5.19871e-10
3.77457e-11
4.92581e-10
3.41331e-11
4.67697e-10
3.07768e-11
4.45067e-10
2.75518e-11
4.2423e-10
2.52207e-11
4.04822e-10
2.34337e-11
3.86701e-10
2.14888e-11
3.69328e-10
2.07295e-11
3.5247e-10
2.03866e-11
3.36087e-10
1.94883e-11
3.19979e-10
1.9493e-11
3.0418e-10
1.94342e-11
2.88913e-10
1.84991e-11
2.74274e-10
1.84489e-11
2.60646e-10
1.6674e-11
2.48335e-10
1.57898e-11
2.37752e-10
1.31346e-11
2.29371e-10
1.11819e-11
2.23549e-10
7.2429e-12
2.20804e-10
4.1431e-12
2.21647e-10
-7.26125e-13
2.25811e-10
-4.79298e-12
2.34181e-10
-9.67899e-12
2.46938e-10
-1.56792e-11
2.64058e-10
-2.0727e-11
2.85923e-10
-2.73126e-11
3.12329e-10
-3.28991e-11
3.43412e-10
-3.92291e-11
3.79018e-10
-4.52254e-11
4.19027e-10
-5.12985e-11
4.63139e-10
-5.69199e-11
5.11282e-10
-6.29165e-11
5.62382e-10
-6.68798e-11
6.17007e-10
-7.28206e-11
6.73387e-10
-7.54273e-11
7.31258e-10
-7.81431e-11
7.90183e-10
-8.0401e-11
8.48683e-10
-8.02798e-11
9.06426e-10
-8.00293e-11
9.63014e-10
-7.92546e-11
1.01739e-09
-7.63041e-11
1.0692e-09
-7.28368e-11
1.11853e-09
-6.98454e-11
1.16483e-09
-6.5561e-11
1.20824e-09
-6.15062e-11
1.24892e-09
-5.76014e-11
1.28703e-09
-5.36966e-11
1.32334e-09
-5.10753e-11
1.35857e-09
-4.99391e-11
1.39204e-09
-4.6563e-11
1.42543e-09
-4.66059e-11
1.46007e-09
-4.94174e-11
1.49384e-09
-4.72446e-11
1.5294e-09
-5.02864e-11
1.56745e-09
-5.60856e-11
1.60401e-09
-5.18064e-11
1.64341e-09
-5.87585e-11
1.68172e-09
-5.6466e-11
1.71937e-09
-5.66512e-11
1.75462e-09
-5.33981e-11
1.78494e-09
-4.62765e-11
1.80864e-09
-3.58837e-11
1.82418e-09
-2.46673e-11
1.82574e-09
-6.25179e-13
1.81839e-09
8.97857e-12
1.79175e-09
4.43981e-11
1.75388e-09
5.83441e-11
1.7017e-09
8.09864e-11
1.63562e-09
1.02046e-10
1.56257e-09
1.08801e-10
1.47712e-09
1.2972e-10
1.39058e-09
1.26273e-10
1.29685e-09
1.38718e-10
1.2051e-09
1.3188e-10
1.10807e-09
1.41265e-10
1.01265e-09
1.36668e-10
9.15756e-10
1.41012e-10
8.23134e-10
1.35947e-10
7.36691e-10
1.29671e-10
6.95651e-10
4.35593e-11
6.68035e-10
2.95697e-11
6.50686e-10
1.82136e-11
6.45594e-10
3.5326e-12
6.5921e-10
-2.51841e-11
6.93866e-10
-5.48189e-11
7.54103e-10
-9.81192e-11
8.25824e-10
-1.11445e-10
9.01341e-10
-1.12661e-10
9.78571e-10
-1.13969e-10
1.0547e-09
-1.12137e-10
1.12681e-09
-1.06298e-10
1.19236e-09
-9.67813e-11
1.24951e-09
-8.45349e-11
1.29721e-09
-7.07003e-11
1.33515e-09
-5.63858e-11
1.36367e-09
-4.25396e-11
1.38358e-09
-2.99124e-11
1.39604e-09
-1.90081e-11
1.40235e-09
-1.00943e-11
1.40389e-09
-3.09446e-12
1.40236e-09
1.60144e-12
1.39895e-09
4.46634e-12
1.39477e-09
5.669e-12
1.39076e-09
5.48188e-12
1.38762e-09
4.24142e-12
1.38579e-09
2.32941e-12
1.38549e-09
4.48668e-14
1.38677e-09
-2.38777e-12
1.38947e-09
-4.48001e-12
1.39321e-09
-6.13925e-12
1.39755e-09
-7.21536e-12
1.40203e-09
-7.63455e-12
1.40619e-09
-7.38357e-12
1.40961e-09
-6.49344e-12
1.41191e-09
-5.02182e-12
1.41278e-09
-2.97312e-12
1.4119e-09
-3.043e-13
1.40902e-09
3.26067e-12
8.54593e-12
2.6117e-09
1.7196e-10
2.71283e-09
3.78677e-10
2.73105e-09
4.2386e-10
2.68668e-09
3.92499e-10
2.61102e-09
3.32118e-10
2.52405e-09
2.71867e-10
2.43971e-09
2.20696e-10
2.36335e-09
1.81518e-10
2.29564e-09
1.52269e-10
2.23588e-09
1.29959e-10
2.18306e-09
1.12479e-10
2.1362e-09
9.84399e-11
2.09442e-09
8.70031e-11
2.05692e-09
7.76625e-11
2.02297e-09
7.00843e-11
1.99191e-09
6.40375e-11
1.96312e-09
5.93602e-11
1.93606e-09
5.59346e-11
1.91018e-09
5.36765e-11
1.88498e-09
5.25215e-11
1.85998e-09
5.24231e-11
1.83472e-09
5.33522e-11
1.80874e-09
5.52987e-11
1.78159e-09
5.8274e-11
1.75279e-09
6.23168e-11
1.72188e-09
6.75015e-11
1.68835e-09
7.39488e-11
1.65164e-09
8.18397e-11
1.61115e-09
9.14397e-11
1.56621e-09
1.03134e-10
1.51607e-09
1.17485e-10
1.46001e-09
1.35325e-10
1.3974e-09
1.58027e-10
1.3266e-09
1.97331e-10
1.26366e-09
1.77076e-10
1.23016e-09
8.79341e-11
1.22755e-09
1.60988e-11
1.25296e-09
-3.75454e-11
1.30571e-09
-9.23246e-11
1.38579e-09
-1.55227e-10
1.49361e-09
-2.39908e-10
1.61344e-09
-2.75392e-10
1.73525e-09
-2.74323e-10
1.8536e-09
-2.66078e-10
1.96436e-09
-2.47418e-10
2.06744e-09
-2.30813e-10
2.16329e-09
-2.17679e-10
2.24913e-09
-1.91729e-10
2.32759e-09
-1.78179e-10
2.39701e-09
-1.57963e-10
2.45642e-09
-1.34093e-10
2.50654e-09
-1.16622e-10
2.54463e-09
-8.34039e-11
2.5719e-09
-6.3247e-11
2.58509e-09
-2.36062e-11
2.58493e-09
6.21594e-12
2.56998e-09
4.34341e-11
2.53875e-09
8.61883e-11
2.49449e-09
1.10128e-10
2.43215e-09
1.63036e-10
2.35885e-09
1.78412e-10
2.2735e-09
2.05789e-10
2.17959e-09
2.20993e-10
2.08035e-09
2.24359e-10
1.97667e-09
2.32993e-10
1.87351e-09
2.21389e-10
1.77013e-09
2.20782e-10
1.67038e-09
2.04924e-10
1.57364e-09
1.96747e-10
1.48115e-09
1.83509e-10
1.39337e-09
1.7042e-10
1.30895e-09
1.63508e-10
1.22897e-09
1.5124e-10
1.15246e-09
1.43799e-10
1.07903e-09
1.37276e-10
1.00892e-09
1.29275e-10
9.41769e-10
1.22983e-10
8.77529e-10
1.17117e-10
8.16463e-10
1.09995e-10
7.58773e-10
1.02857e-10
7.04525e-10
9.58521e-11
6.53927e-10
8.83893e-11
6.06987e-10
8.1108e-11
5.6365e-10
7.41364e-11
5.2378e-10
6.7433e-11
4.87004e-10
6.2e-11
4.52895e-10
5.75429e-11
4.21123e-10
5.32586e-11
3.9117e-10
5.06789e-11
3.62709e-10
4.8842e-11
3.35522e-10
4.66699e-11
3.09488e-10
4.55218e-11
2.84595e-10
4.43225e-11
2.61095e-10
4.19944e-11
2.39201e-10
4.03397e-11
2.19424e-10
3.64486e-11
2.02186e-10
3.30268e-11
1.88162e-10
2.71574e-11
1.77842e-10
2.15031e-11
1.72052e-10
1.3034e-11
1.71271e-10
4.92668e-12
1.76024e-10
-5.47637e-12
1.87319e-10
-1.60845e-11
2.05218e-10
-2.7576e-11
2.30209e-10
-4.06668e-11
2.62273e-10
-5.27893e-11
3.01804e-10
-6.68426e-11
3.4848e-10
-7.95745e-11
4.02192e-10
-9.29418e-11
4.62598e-10
-1.05632e-10
5.29169e-10
-1.1787e-10
6.01231e-10
-1.28983e-10
6.78115e-10
-1.39803e-10
7.58578e-10
-1.47344e-10
8.42277e-10
-1.5652e-10
9.27458e-10
-1.60609e-10
1.01333e-09
-1.64016e-10
1.09907e-09
-1.66141e-10
1.18318e-09
-1.6438e-10
1.26491e-09
-1.61752e-10
1.34374e-09
-1.58078e-10
1.41873e-09
-1.51269e-10
1.48959e-09
-1.43676e-10
1.5563e-09
-1.36529e-10
1.6186e-09
-1.27835e-10
1.67674e-09
-1.19627e-10
1.73102e-09
-1.11867e-10
1.78187e-09
-1.04533e-10
1.83002e-09
-9.92222e-11
1.87612e-09
-9.60283e-11
1.92026e-09
-9.06824e-11
1.96359e-09
-8.98817e-11
2.00717e-09
-9.29279e-11
2.04986e-09
-8.98304e-11
2.09352e-09
-9.38227e-11
2.13785e-09
-1.00294e-10
2.18114e-09
-9.4981e-11
2.22487e-09
-1.02408e-10
2.26691e-09
-9.84594e-11
2.30638e-09
-9.61374e-11
2.34204e-09
-8.91125e-11
2.37119e-09
-7.55124e-11
2.39253e-09
-5.73395e-11
2.40359e-09
-3.58217e-11
2.40205e-09
8.30192e-13
2.38786e-09
2.31336e-11
2.35605e-09
7.62008e-11
2.30999e-09
1.04431e-10
2.24858e-09
1.42435e-10
2.17146e-09
1.79224e-10
2.08335e-09
1.96968e-10
1.9813e-09
2.31806e-10
1.87292e-09
2.34687e-10
1.75564e-09
2.56e-10
1.63569e-09
2.51831e-10
1.50975e-09
2.67173e-10
1.38312e-09
2.63266e-10
1.25568e-09
2.68409e-10
1.13494e-09
2.56668e-10
1.02162e-09
2.42987e-10
9.44952e-10
1.20249e-10
8.9058e-10
8.3969e-11
8.56293e-10
5.25198e-11
8.44185e-10
1.56501e-11
8.60638e-10
-4.16381e-11
9.06454e-10
-1.00645e-10
9.82394e-10
-1.74078e-10
1.07404e-09
-2.03116e-10
1.17175e-09
-2.10393e-10
1.27096e-09
-2.13205e-10
1.36756e-09
-2.08752e-10
1.45795e-09
-1.96702e-10
1.5393e-09
-1.78136e-10
1.60965e-09
-1.54891e-10
1.66796e-09
-1.29014e-10
1.71404e-09
-1.02454e-10
1.74839e-09
-7.68852e-11
1.7721e-09
-5.36179e-11
1.78666e-09
-3.3556e-11
1.79378e-09
-1.7209e-11
1.79544e-09
-4.75078e-12
1.79325e-09
3.79781e-12
1.78891e-09
8.81381e-12
1.78384e-09
1.07401e-11
1.77919e-09
1.0137e-11
1.77579e-09
7.64522e-12
1.77418e-09
3.93215e-12
1.77457e-09
-3.42983e-13
1.7768e-09
-4.61315e-12
1.78062e-09
-8.3042e-12
1.78552e-09
-1.10438e-11
1.79091e-09
-1.26005e-11
1.79614e-09
-1.28686e-11
1.80062e-09
-1.18626e-11
1.80383e-09
-9.70401e-12
1.80537e-09
-6.56444e-12
1.805e-09
-2.6072e-12
1.80263e-09
2.06018e-12
1.79845e-09
7.43685e-12
1.40749e-11
2.56396e-09
1.07931e-10
2.67025e-09
2.72465e-10
2.74684e-09
3.47314e-10
2.77983e-09
3.5961e-10
2.77355e-09
3.38427e-10
2.74364e-09
3.01786e-10
2.69991e-09
2.64417e-10
2.65036e-09
2.3104e-10
2.60045e-09
2.02165e-10
2.55255e-09
1.77866e-10
2.50759e-09
1.57439e-10
2.4659e-09
1.40127e-10
2.42744e-09
1.25466e-10
2.39195e-09
1.13158e-10
2.35906e-09
1.02971e-10
2.32838e-09
9.47243e-11
2.29946e-09
8.82796e-11
2.27186e-09
8.3527e-11
2.24516e-09
8.0381e-11
2.2189e-09
7.87732e-11
2.19267e-09
7.8654e-11
2.16603e-09
7.99932e-11
2.13855e-09
8.27816e-11
2.10978e-09
8.70358e-11
2.0793e-09
9.28034e-11
2.04663e-09
1.00171e-10
2.0113e-09
1.09278e-10
1.97281e-09
1.20323e-10
1.93066e-09
1.33591e-10
1.88432e-09
1.49473e-10
1.83331e-09
1.68501e-10
1.77722e-09
1.91406e-10
1.71599e-09
2.19257e-10
1.64873e-09
2.64586e-10
1.58937e-09
2.36425e-10
1.55753e-09
1.19758e-10
1.55762e-09
1.59858e-11
1.58899e-09
-6.89452e-11
1.65017e-09
-1.5354e-10
1.73795e-09
-2.43037e-10
1.84854e-09
-3.50492e-10
1.9683e-09
-3.9512e-10
2.09024e-09
-3.96198e-10
2.20823e-09
-3.84004e-10
2.31838e-09
-3.57516e-10
2.42037e-09
-3.32767e-10
2.51444e-09
-3.11717e-10
2.5992e-09
-2.76469e-10
2.67572e-09
-2.5468e-10
2.74325e-09
-2.2547e-10
2.80146e-09
-1.9229e-10
2.85003e-09
-1.6518e-10
2.88794e-09
-1.2131e-10
2.91512e-09
-9.04281e-11
2.93028e-09
-3.87727e-11
2.93312e-09
3.37019e-12
2.9229e-09
5.36518e-11
2.89851e-09
1.10593e-10
2.8613e-09
1.47352e-10
2.80871e-09
2.15638e-10
2.74386e-09
2.43278e-10
2.66635e-09
2.83303e-10
2.57843e-09
3.08917e-10
2.48206e-09
3.20716e-10
2.37879e-09
3.36251e-10
2.27185e-09
3.28304e-10
2.16195e-09
3.30654e-10
2.05223e-09
3.146e-10
1.94326e-09
3.0567e-10
1.83627e-09
2.90457e-10
1.73241e-09
2.74235e-10
1.6311e-09
2.64778e-10
1.53345e-09
2.48869e-10
1.43901e-09
2.38223e-10
1.34765e-09
2.28644e-10
1.25966e-09
2.17293e-10
1.17484e-09
2.07838e-10
1.09328e-09
1.98719e-10
1.01527e-09
1.88059e-10
9.4114e-10
1.77038e-10
8.71069e-10
1.65966e-10
8.05421e-10
1.54069e-10
7.44374e-10
1.42171e-10
6.88031e-10
1.30481e-10
6.36449e-10
1.19005e-10
5.89366e-10
1.09067e-10
5.46416e-10
1.00474e-10
5.07413e-10
9.22431e-11
4.71682e-10
8.63928e-11
4.38812e-10
8.16959e-11
4.08636e-10
7.68315e-11
3.80775e-10
7.337e-11
3.55061e-10
7.00263e-11
3.31962e-10
6.50841e-11
3.11145e-10
6.11501e-11
2.93686e-10
5.39029e-11
2.79321e-10
4.73885e-11
2.69391e-10
3.70852e-11
2.63703e-10
2.71897e-11
2.63975e-10
1.27622e-11
2.69813e-10
-9.09443e-13
2.82803e-10
-1.84655e-11
3.03056e-10
-3.63356e-11
3.31061e-10
-5.558e-11
3.6767e-10
-7.72742e-11
4.12318e-10
-9.74377e-11
4.65879e-10
-1.20404e-10
5.27515e-10
-1.41212e-10
5.97125e-10
-1.62555e-10
6.74069e-10
-1.82581e-10
7.57449e-10
-2.01255e-10
8.46315e-10
-2.17857e-10
9.39633e-10
-2.33129e-10
1.03575e-09
-2.43473e-10
1.13414e-09
-2.54919e-10
1.23275e-09
-2.5923e-10
1.33066e-09
-2.61944e-10
1.42689e-09
-2.62384e-10
1.52003e-09
-2.57538e-10
1.60942e-09
-2.5115e-10
1.69457e-09
-2.43235e-10
1.77474e-09
-2.31448e-10
1.84992e-09
-2.18842e-10
1.92016e-09
-2.06763e-10
1.98551e-09
-1.93166e-10
2.04637e-09
-1.80462e-10
2.10315e-09
-1.68639e-10
2.15643e-09
-1.57798e-10
2.20689e-09
-1.49682e-10
2.25513e-09
-1.44259e-10
2.30154e-09
-1.37067e-10
2.34678e-09
-1.35083e-10
2.39181e-09
-1.37879e-10
2.43579e-09
-1.33692e-10
2.47993e-09
-1.37814e-10
2.52348e-09
-1.43656e-10
2.56591e-09
-1.37208e-10
2.60708e-09
-1.4339e-10
2.64601e-09
-1.37224e-10
2.68125e-09
-1.31251e-10
2.71206e-09
-1.19862e-10
2.736e-09
-9.94587e-11
2.75235e-09
-7.37375e-11
2.75869e-09
-4.22434e-11
2.75412e-09
5.30138e-12
2.73698e-09
4.01977e-11
2.70533e-09
1.07786e-10
2.65933e-09
1.50398e-10
2.59892e-09
2.02851e-10
2.52286e-09
2.55299e-10
2.43413e-09
2.85718e-10
2.33076e-09
3.35199e-10
2.21758e-09
3.47878e-10
2.09336e-09
3.80198e-10
1.96224e-09
3.82919e-10
1.8246e-09
4.04781e-10
1.68335e-09
4.04458e-10
1.54102e-09
4.10692e-10
1.40737e-09
3.90296e-10
1.28107e-09
3.69297e-10
1.1879e-09
2.13451e-10
1.12191e-09
1.49982e-10
1.08354e-09
9.09174e-11
1.07505e-09
2.41471e-11
1.10255e-09
-6.91354e-11
1.16413e-09
-1.62237e-10
1.25755e-09
-2.67516e-10
1.3653e-09
-3.10897e-10
1.47659e-09
-3.21714e-10
1.5865e-09
-3.23147e-10
1.69096e-09
-3.13235e-10
1.78673e-09
-2.92497e-10
1.87147e-09
-2.62887e-10
1.94371e-09
-2.27136e-10
2.00283e-09
-1.8814e-10
2.049e-09
-1.48614e-10
2.083e-09
-1.10878e-10
2.10614e-09
-7.6749e-11
2.12008e-09
-4.74882e-11
2.1267e-09
-2.38212e-11
2.12796e-09
-6.00132e-12
2.12568e-09
6.09319e-12
2.12156e-09
1.29388e-11
2.11706e-09
1.52418e-11
2.11334e-09
1.38706e-11
2.11119e-09
9.7948e-12
2.1111e-09
4.02464e-12
2.1132e-09
-2.44155e-12
2.11731e-09
-8.72088e-12
2.12303e-09
-1.40249e-11
2.12977e-09
-1.77881e-11
2.13685e-09
-1.96811e-11
2.14355e-09
-1.95727e-11
2.14921e-09
-1.75258e-11
2.15327e-09
-1.377e-11
2.15535e-09
-8.64916e-12
2.15529e-09
-2.5407e-12
2.15314e-09
4.20455e-12
2.14929e-09
1.12817e-11
1.92259e-11
2.53705e-09
7.07901e-11
2.6175e-09
1.9198e-10
2.69984e-09
2.64931e-10
2.76363e-09
2.95862e-10
2.80341e-09
2.98639e-10
2.81988e-09
2.8535e-10
2.819e-09
2.65323e-10
2.80723e-09
2.42776e-10
2.78867e-09
2.20698e-10
2.76623e-09
2.00307e-10
2.74198e-09
1.8169e-10
2.7172e-09
1.64917e-10
2.69256e-09
1.50111e-10
2.6684e-09
1.37312e-10
2.64486e-09
1.26511e-10
2.62191e-09
1.17676e-10
2.59942e-09
1.10765e-10
2.57722e-09
1.05732e-10
2.55506e-09
1.02536e-10
2.5327e-09
1.01138e-10
2.50984e-09
1.01513e-10
2.48617e-09
1.03656e-10
2.46138e-09
1.07576e-10
2.4351e-09
1.13313e-10
2.40697e-09
1.20934e-10
2.37659e-09
1.30547e-10
2.34356e-09
1.42306e-10
2.30746e-09
1.56426e-10
2.26786e-09
1.73191e-10
2.22436e-09
1.92972e-10
2.17661e-09
2.16244e-10
2.1244e-09
2.43612e-10
2.06775e-09
2.75905e-10
2.00587e-09
3.26464e-10
1.95076e-09
2.91523e-10
1.91953e-09
1.50986e-10
1.9175e-09
1.79841e-11
1.94565e-09
-9.71292e-11
2.00228e-09
-2.10213e-10
2.08266e-09
-3.23475e-10
2.18157e-09
-4.49438e-10
2.2878e-09
-5.01358e-10
2.39677e-09
-5.0514e-10
2.50201e-09
-4.89204e-10
2.59988e-09
-4.55335e-10
2.69004e-09
-4.22883e-10
2.77275e-09
-3.94394e-10
2.84752e-09
-3.51202e-10
2.91455e-09
-3.21692e-10
2.97324e-09
-2.84131e-10
3.02439e-09
-2.43408e-10
3.06692e-09
-2.07685e-10
3.1009e-09
-1.55282e-10
3.12566e-09
-1.15178e-10
3.14112e-09
-5.42345e-11
3.14649e-09
-2.00498e-12
3.14166e-09
5.8489e-11
3.12568e-09
1.2658e-10
3.09879e-09
1.74259e-10
3.05987e-09
2.5458e-10
3.00953e-09
2.9363e-10
2.94741e-09
3.45423e-10
2.87466e-09
3.81652e-10
2.79195e-09
4.03398e-10
2.70072e-09
4.27436e-10
2.6027e-09
4.26275e-10
2.49933e-09
4.33967e-10
2.39264e-09
4.21246e-10
2.28405e-09
4.14216e-10
2.17476e-09
3.99704e-10
2.06641e-09
3.82563e-10
1.95901e-09
3.72154e-10
1.85399e-09
3.53891e-10
1.75135e-09
3.40859e-10
1.65132e-09
3.2869e-10
1.55442e-09
3.14223e-10
1.46059e-09
3.01698e-10
1.37008e-09
2.89275e-10
1.2832e-09
2.74975e-10
1.2004e-09
2.59875e-10
1.12187e-09
2.44516e-10
1.04811e-09
2.27848e-10
9.79388e-10
2.10884e-10
9.15968e-10
1.93881e-10
8.58126e-10
1.76818e-10
8.05724e-10
1.61438e-10
7.58521e-10
1.47645e-10
7.16634e-10
1.341e-10
6.79245e-10
1.23755e-10
6.45949e-10
1.14968e-10
6.1667e-10
1.06091e-10
5.90772e-10
9.92509e-11
5.67835e-10
9.29476e-11
5.48571e-10
8.43359e-11
5.31987e-10
7.7725e-11
5.19728e-10
6.6154e-11
5.10784e-10
5.63268e-11
5.07121e-10
4.07447e-11
5.07843e-10
2.64657e-11
5.15508e-10
5.09553e-12
5.28996e-10
-1.43982e-11
5.50488e-10
-3.99575e-11
5.79681e-10
-6.55282e-11
6.17221e-10
-9.31197e-11
6.64108e-10
-1.24163e-10
7.19304e-10
-1.52635e-10
7.83842e-10
-1.84944e-10
8.56401e-10
-2.13776e-10
9.36669e-10
-2.42829e-10
1.02374e-09
-2.69655e-10
1.11629e-09
-2.93818e-10
1.21315e-09
-3.1473e-10
1.31298e-09
-3.3297e-10
1.4139e-09
-3.4441e-10
1.51532e-09
-3.56362e-10
1.61509e-09
-3.5902e-10
1.71234e-09
-3.59216e-10
1.80617e-09
-3.56248e-10
1.89542e-09
-3.46812e-10
1.97964e-09
-3.35406e-10
2.05865e-09
-3.22271e-10
2.13202e-09
-3.04847e-10
2.20005e-09
-2.86897e-10
2.26305e-09
-2.69773e-10
2.32132e-09
-2.51437e-10
2.37543e-09
-2.34569e-10
2.42592e-09
-2.19128e-10
2.47343e-09
-2.05309e-10
2.51861e-09
-1.94872e-10
2.56197e-09
-1.87621e-10
2.60393e-09
-1.79042e-10
2.64483e-09
-1.75979e-10
2.68559e-09
-1.78599e-10
2.72526e-09
-1.73288e-10
2.76465e-09
-1.77079e-10
2.80277e-09
-1.81615e-10
2.8398e-09
-1.74043e-10
2.87467e-09
-1.78047e-10
2.90718e-09
-1.6953e-10
2.93568e-09
-1.59572e-10
2.95995e-09
-1.43995e-10
2.97793e-09
-1.17368e-10
2.98944e-09
-8.52395e-11
2.99234e-09
-4.51783e-11
2.98656e-09
1.10088e-11
2.96994e-09
5.6737e-11
2.94225e-09
1.35401e-10
2.90187e-09
1.9073e-10
2.84916e-09
2.5554e-10
2.7822e-09
3.22261e-10
2.70262e-09
3.65312e-10
2.60861e-09
4.29221e-10
2.50299e-09
4.53487e-10
2.3847e-09
4.98466e-10
2.25686e-09
5.10704e-10
2.12068e-09
5.40917e-10
1.97817e-09
5.46907e-10
1.83397e-09
5.54847e-10
1.70026e-09
5.2399e-10
1.57478e-09
4.94794e-10
1.48313e-09
3.05135e-10
1.42207e-09
2.11069e-10
1.39354e-09
1.19466e-10
1.39944e-09
1.82659e-11
1.44497e-09
-1.14658e-10
1.52476e-09
-2.42039e-10
1.6339e-09
-3.76674e-10
1.75236e-09
-4.2939e-10
1.86943e-09
-4.38831e-10
1.981e-09
-4.34755e-10
2.08382e-09
-4.16089e-10
2.17558e-09
-3.84295e-10
2.25485e-09
-3.42174e-10
2.32094e-09
-2.93237e-10
2.37388e-09
-2.41087e-10
2.41431e-09
-1.89036e-10
2.44334e-09
-1.39898e-10
2.46246e-09
-9.58575e-11
2.4734e-09
-5.84142e-11
2.47801e-09
-2.84101e-11
2.47812e-09
-6.1045e-12
2.47548e-09
8.74329e-12
2.47166e-09
1.67729e-11
2.46797e-09
1.89462e-11
2.46541e-09
1.64316e-11
2.46469e-09
1.05195e-11
2.46617e-09
2.54891e-12
2.46991e-09
-6.18094e-12
2.47569e-09
-1.4496e-11
2.48305e-09
-2.13926e-11
2.49141e-09
-2.61477e-11
2.50006e-09
-2.83359e-11
2.50829e-09
-2.78051e-11
2.51543e-09
-2.4667e-11
2.52092e-09
-1.92683e-11
2.5244e-09
-1.21285e-11
2.52571e-09
-3.85801e-12
2.52499e-09
4.92556e-12
2.52264e-09
1.36284e-11
2.29457e-11
2.52316e-09
4.75702e-11
2.58131e-09
1.33753e-10
2.65288e-09
1.93292e-10
2.72231e-09
2.26418e-10
2.78102e-09
2.39948e-10
2.82596e-09
2.40447e-10
2.85803e-09
2.3324e-10
2.87885e-09
2.21968e-10
2.89076e-09
2.08802e-10
2.89623e-09
1.94813e-10
2.89701e-09
1.80902e-10
2.89426e-09
1.6767e-10
2.88887e-09
1.55508e-10
2.8815e-09
1.44683e-10
2.8726e-09
1.35414e-10
2.86244e-09
1.2783e-10
2.8512e-09
1.22011e-10
2.83892e-09
1.18001e-10
2.82562e-09
1.15835e-10
2.81125e-09
1.15512e-10
2.79569e-09
1.17071e-10
2.7788e-09
1.20544e-10
2.7604e-09
1.25977e-10
2.74026e-09
1.33452e-10
2.71812e-09
1.43073e-10
2.69369e-09
1.54974e-10
2.66666e-09
1.69337e-10
2.63669e-09
1.86394e-10
2.60344e-09
2.06433e-10
2.56661e-09
2.298e-10
2.52594e-09
2.56919e-10
2.48126e-09
2.88286e-10
2.43259e-09
3.24574e-10
2.3792e-09
3.79845e-10
2.33028e-09
3.40442e-10
2.29916e-09
1.82105e-10
2.29184e-09
2.52802e-11
2.31091e-09
-1.16232e-10
2.35496e-09
-2.54306e-10
2.4189e-09
-3.87485e-10
2.49754e-09
-5.28139e-10
2.58261e-09
-5.86468e-10
2.67158e-09
-5.94116e-10
2.75762e-09
-5.75225e-10
2.83721e-09
-5.34901e-10
2.91007e-09
-4.95709e-10
2.97655e-09
-4.60834e-10
3.03642e-09
-4.11047e-10
3.09e-09
-3.75249e-10
3.13664e-09
-3.30746e-10
3.17738e-09
-2.84117e-10
3.21127e-09
-2.41559e-10
3.23907e-09
-1.83064e-10
3.2598e-09
-1.35894e-10
3.27422e-09
-6.86551e-11
3.28131e-09
-9.1015e-12
3.28143e-09
5.8377e-11
3.27384e-09
1.34191e-10
3.25812e-09
1.90004e-10
3.23409e-09
2.7863e-10
3.20079e-09
3.26953e-10
3.15778e-09
3.88443e-10
3.10537e-09
4.34056e-10
3.04306e-09
4.65676e-10
2.97197e-09
4.98474e-10
2.89246e-09
5.05734e-10
2.80606e-09
5.2032e-10
2.71373e-09
5.13539e-10
2.61718e-09
5.10735e-10
2.51742e-09
4.99441e-10
2.41628e-09
4.837e-10
2.31415e-09
4.74291e-10
2.2127e-09
4.55355e-10
2.11235e-09
4.41225e-10
2.01366e-09
4.27407e-10
1.91741e-09
4.10497e-10
1.82372e-09
3.95427e-10
1.73296e-09
3.80068e-10
1.64549e-09
3.62466e-10
1.56183e-09
3.43556e-10
1.48213e-09
3.24224e-10
1.40691e-09
3.03062e-10
1.33649e-09
2.81285e-10
1.27117e-09
2.59154e-10
1.21143e-09
2.36517e-10
1.15724e-09
2.15579e-10
1.10852e-09
1.96322e-10
1.06575e-09
1.76837e-10
1.02807e-09
1.61396e-10
9.95255e-10
1.47754e-10
9.67298e-10
1.34021e-10
9.435e-10
1.23026e-10
9.23196e-10
1.13232e-10
9.07324e-10
1.00191e-10
8.94346e-10
9.06903e-11
8.86329e-10
7.41609e-11
8.81727e-10
6.0921e-11
8.82981e-10
3.94844e-11
8.88713e-10
2.07295e-11
9.02138e-10
-8.33218e-12
9.21606e-10
-3.38688e-11
9.49775e-10
-6.81272e-11
9.85982e-10
-1.01737e-10
1.03094e-09
-1.38075e-10
1.08548e-09
-1.78706e-10
1.14825e-09
-2.15415e-10
1.22006e-09
-2.56759e-10
1.29925e-09
-2.92962e-10
1.38505e-09
-3.28638e-10
1.47634e-09
-3.60958e-10
1.57136e-09
-3.88846e-10
1.6688e-09
-4.12192e-10
1.76704e-09
-4.31227e-10
1.86422e-09
-4.4161e-10
1.95968e-09
-4.51841e-10
2.05142e-09
-4.50793e-10
2.13874e-09
-4.46563e-10
2.22099e-09
-4.38537e-10
2.29736e-09
-4.2322e-10
2.36775e-09
-4.05838e-10
2.43235e-09
-3.86908e-10
2.49112e-09
-3.63668e-10
2.54473e-09
-3.40545e-10
2.59369e-09
-3.18766e-10
2.63857e-09
-2.96334e-10
2.68006e-09
-2.76083e-10
2.71881e-09
-2.57884e-10
2.75547e-09
-2.41987e-10
2.79065e-09
-2.30063e-10
2.8247e-09
-2.21688e-10
2.85795e-09
-2.12314e-10
2.89064e-09
-2.08692e-10
2.92353e-09
-2.11502e-10
2.95532e-09
-2.0505e-10
2.98681e-09
-2.08498e-10
3.0168e-09
-2.11496e-10
3.04592e-09
-2.03019e-10
3.07257e-09
-2.04519e-10
3.09715e-09
-1.93916e-10
3.11801e-09
-1.80241e-10
3.13537e-09
-1.61195e-10
3.1476e-09
-1.29488e-10
3.15499e-09
-9.25838e-11
3.15571e-09
-4.58926e-11
3.15045e-09
1.62237e-11
3.13675e-09
7.03827e-11
3.11559e-09
1.56495e-10
3.08437e-09
2.21892e-10
3.0437e-09
2.96196e-10
2.99116e-09
3.748e-10
2.92742e-09
4.29066e-10
2.85061e-09
5.06047e-10
2.76195e-09
5.4214e-10
2.6601e-09
6.00299e-10
2.54728e-09
6.23481e-10
2.42386e-09
6.64286e-10
2.29228e-09
6.78438e-10
2.15791e-09
6.89183e-10
2.03578e-09
6.46115e-10
1.92315e-09
6.07447e-10
1.84564e-09
3.82677e-10
1.80079e-09
2.55946e-10
1.79081e-09
1.29471e-10
1.81654e-09
-7.44222e-12
1.88147e-09
-1.79571e-10
1.97657e-09
-3.37145e-10
2.09457e-09
-4.94698e-10
2.21532e-09
-5.50177e-10
2.32949e-09
-5.53048e-10
2.43421e-09
-5.39533e-10
2.5274e-09
-5.09332e-10
2.60787e-09
-4.64804e-10
2.67516e-09
-4.09488e-10
2.72942e-09
-3.47516e-10
2.77133e-09
-2.83004e-10
2.80197e-09
-2.19676e-10
2.82275e-09
-1.60665e-10
2.83527e-09
-1.08365e-10
2.84125e-09
-6.43748e-11
2.84239e-09
-2.9534e-11
2.84035e-09
-4.03981e-12
2.83658e-09
1.25221e-11
2.83242e-09
2.0949e-11
2.82893e-09
2.24549e-11
2.82689e-09
1.84763e-11
2.82683e-09
1.05849e-11
2.82899e-09
3.96572e-13
2.83334e-09
-1.05333e-11
2.83965e-09
-2.08e-11
2.84748e-09
-2.92243e-11
2.85628e-09
-3.49516e-11
2.86541e-09
-3.74765e-11
2.87423e-09
-3.66304e-11
2.88213e-09
-3.25689e-11
2.8886e-09
-2.57411e-11
2.89329e-09
-1.68235e-11
2.89606e-09
-6.63277e-12
2.89701e-09
3.97339e-12
2.89649e-09
1.41457e-11
2.48438e-11
2.51583e-09
3.16977e-11
2.55897e-09
9.05592e-11
2.61794e-09
1.34272e-10
2.68243e-09