/*--------------------------------*- C++ -*----------------------------------*\
| =========                 |                                                 |
| \\      /  F ield         | OpenFOAM: The Open Source CFD Toolbox           |
|  \\    /   O peration     | Version:  2506                                  |
|   \\  /    A nd           | Website:  www.openfoam.com                      |
|    \\/     M anipulation  |                                                 |
\*---------------------------------------------------------------------------*/
FoamFile
{
    version     2.0;
    format      ascii;
    arch        "LSB;label=32;scalar=64";
    class       volVectorField;
    location    "3.5";
    object      U;
}
// * * * * * * * * * * * * * * * * * * * * * * * * * * * * * * * * * * * * * //

dimensions      [0 1 -1 0 0 0 0];

internalField   nonuniform List<vector> 
4000
(
(0.00799083 0.000752327 0)
(0.0072199 0.000878072 -4.1499e-21)
(0.00604814 0.000505113 4.2841e-21)
(0.00498969 0.000236756 8.62942e-21)
(0.00438881 0.000118312 -1.74563e-20)
(0.00405864 6.64539e-05 8.77878e-21)
(0.00384554 4.25633e-05 0)
(0.00369421 3.16674e-05 0)
(0.00358137 2.68814e-05 0)
(0.00349244 2.49215e-05 1.73615e-20)
(0.00341894 2.42733e-05 -1.73889e-20)
(0.00335634 2.42702e-05 3.44925e-20)
(0.00330196 2.46299e-05 -3.45313e-20)
(0.00325393 2.52219e-05 0)
(0.00321084 2.59793e-05 0)
(0.00317153 2.68696e-05 0)
(0.00313505 2.78745e-05 3.38289e-20)
(0.00310056 2.89935e-05 -3.38513e-20)
(0.00306725 3.02351e-05 0)
(0.00303439 3.16073e-05 0)
(0.00300124 3.31206e-05 0)
(0.0029671 3.47853e-05 0)
(0.00293126 3.66091e-05 0)
(0.00289297 3.86047e-05 6.57329e-20)
(0.00285144 4.07902e-05 -1.31254e-19)
(0.00280579 4.319e-05 6.55259e-20)
(0.00275497 4.58467e-05 0)
(0.00269774 4.88339e-05 0)
(0.00263251 5.22731e-05 0)
(0.00255715 5.63757e-05 0)
(0.0024686 6.15557e-05 -6.41672e-20)
(0.00236241 6.87062e-05 6.42864e-20)
(0.00223461 7.82345e-05 0)
(0.00204221 9.61979e-05 5.58905e-20)
(0.0018148 0.000156238 6.37845e-20)
(0.00166858 0.000269577 -3.21408e-19)
(0.00162375 0.000410067 -2.58196e-19)
(0.00162773 0.000555471 6.50565e-20)
(0.00166253 0.000705245 -2.60741e-19)
(0.00173818 0.00086612 -5.87761e-19)
(0.00189728 0.00104932 6.54629e-20)
(0.00216358 0.00124398 5.19798e-19)
(0.00245854 0.0014142 -5.16515e-19)
(0.00273848 0.00155473 0)
(0.00301263 0.00167306 0)
(0.0032774 0.00176977 -3.14191e-20)
(0.00354365 0.00184604 -4.68252e-19)
(0.00380307 0.0018929 -4.65335e-19)
(0.00404564 0.00190993 -2.77038e-19)
(0.00428586 0.0018966 -2.43123e-19)
(0.00450624 0.00184609 2.40097e-19)
(0.0047122 0.00176161 0)
(0.0048911 0.00163375 -2.91856e-20)
(0.00503853 0.00147316 4.93654e-19)
(0.00514986 0.00127201 0)
(0.00520858 0.00104206 -1.13359e-19)
(0.00522347 0.000785825 -2.78014e-20)
(0.00516594 0.000514793 -1.46904e-23)
(0.00507348 0.000248872 -3.94986e-22)
(0.00490996 -2.16849e-05 -1.38459e-20)
(0.00469943 -0.000264775 2.64944e-20)
(0.00446621 -0.00048239 0)
(0.00420177 -0.000667019 0)
(0.00394004 -0.000816078 5.11716e-20)
(0.0036682 -0.000932827 3.55981e-19)
(0.00341497 -0.00101686 4.99577e-20)
(0.00316886 -0.00107516 -5.03184e-20)
(0.00294517 -0.00110943 4.87349e-20)
(0.00273845 -0.00112571 1.44831e-19)
(0.00254836 -0.00112579 -3.3449e-19)
(0.00238106 -0.00111392 -4.73797e-20)
(0.00222269 -0.00109192 1.0177e-21)
(0.00208156 -0.00106214 0)
(0.00195326 -0.00102755 0)
(0.0018326 -0.000988277 0)
(0.00172379 -0.000946247 -2.2115e-20)
(0.00162452 -0.000903142 -3.29204e-19)
(0.00153194 -0.000859266 0)
(0.00144846 -0.000815722 9.27996e-22)
(0.00137358 -0.000773563 2.11653e-20)
(0.00130592 -0.00073303 -3.3631e-19)
(0.00124574 -0.000694416 3.02175e-19)
(0.00119234 -0.000657842 6.54811e-23)
(0.0011449 -0.000622988 3.30526e-19)
(0.00110361 -0.000589819 1.79489e-21)
(0.00106645 -0.000557921 -3.15737e-19)
(0.00103214 -0.000526515 -3.17105e-19)
(0.00100227 -0.000495654 3.18925e-19)
(0.000974222 -0.000465103 -4.81524e-21)
(0.000946616 -0.000434115 -3.03751e-19)
(0.000922223 -0.000403002 0)
(0.000898177 -0.00037183 -3.05588e-19)
(0.000874265 -0.000340113 -2.83528e-19)
(0.000853212 -0.000308379 2.8914e-19)
(0.000831046 -0.000276565 -1.60706e-19)
(0.000812565 -0.000244643 1.76447e-20)
(0.000793743 -0.000213129 1.39365e-19)
(0.000778638 -0.00018154 1.71615e-20)
(0.000764058 -0.000150494 1.19136e-19)
(0.000753903 -0.000119116 8.41701e-20)
(0.000745866 -8.85088e-05 -3.33796e-20)
(0.000741504 -5.74116e-05 8.28585e-20)
(0.000741206 -2.63141e-05 -8.25005e-21)
(0.000743988 4.72828e-06 -8.21731e-21)
(0.000751382 3.66676e-05 -3.27503e-20)
(0.00076376 6.90993e-05 0)
(0.000780464 0.00010323 0)
(0.000803763 0.000138585 -2.5848e-19)
(0.000831914 0.000176106 -8.23289e-21)
(0.000866847 0.000216367 1.36307e-19)
(0.000908226 0.000259886 1.32455e-19)
(0.000956741 0.000307254 4.14873e-21)
(0.00101257 0.000359133 -1.37648e-19)
(0.00107667 0.000415876 -2.50822e-22)
(0.00114724 0.000477978 0)
(0.00122863 0.000545886 2.68155e-19)
(0.00131548 0.000618795 -8.35328e-21)
(0.00141022 0.000697421 -2.50418e-19)
(0.00151277 0.00078088 -8.38228e-21)
(0.00162011 0.00086755 -2.66539e-19)
(0.0017337 0.000956967 -9.43756e-22)
(0.00185259 0.00104745 2.64135e-19)
(0.00197294 0.00113731 1.6326e-20)
(0.00209514 0.00122603 -2.93306e-19)
(0.00222007 0.00131215 1.6254e-20)
(0.00234507 0.0013939 2.5633e-19)
(0.00247052 0.00147036 3.15071e-20)
(0.00259613 0.00154021 -3.15981e-20)
(0.00272132 0.0016027 2.48085e-19)
(0.00284947 0.00165777 -2.13097e-19)
(0.0029803 0.00170293 -3.04537e-20)
(0.00310893 0.00173792 -4.45063e-19)
(0.0032455 0.00176442 -2.95666e-20)
(0.00338936 0.00177801 -2.30358e-19)
(0.00353096 0.00177853 1.52375e-21)
(0.00368662 0.00176808 0)
(0.00384951 0.00173773 0)
(0.00400821 0.00169107 -7.13871e-22)
(0.00417912 0.0016229 0)
(0.00434399 0.00153112 -2.49939e-20)
(0.00450591 0.00141297 -7.31887e-20)
(0.0046543 0.00126563 -2.36733e-20)
(0.00477714 0.00108878 -4.62962e-20)
(0.00487319 0.00088523 -2.30925e-20)
(0.00491807 0.000654255 -6.56916e-20)
(0.0049219 0.000411616 2.16128e-20)
(0.00486318 0.000148901 0)
(0.00473412 -9.93365e-05 0)
(0.00456695 -0.000333488 0)
(0.0043422 -0.000539023 -1.85004e-20)
(0.00409919 -0.00071004 1.8549e-20)
(0.00382146 -0.000850325 7.07861e-20)
(0.00354094 -0.000949753 6.87792e-20)
(0.00325367 -0.00101685 0)
(0.00297751 -0.00104969 -6.49529e-20)
(0.00270243 -0.00105273 0)
(0.00243727 -0.00102723 -1.48987e-20)
(0.0021753 -0.000977169 7.50018e-20)
(0.00191082 -0.000897374 -1.44131e-20)
(0.00162893 -0.000764121 2.42891e-19)
(0.00151778 -0.000627155 -5.58089e-20)
(0.00150042 -0.000519178 -5.46258e-20)
(0.00147802 -0.000421637 0)
(0.00146385 -0.0003292 0)
(0.00148294 -0.000241049 0)
(0.00154417 -0.000164323 0)
(0.00167041 -0.000103588 0)
(0.00184794 -7.57112e-05 1.1395e-20)
(0.00201676 -6.89628e-05 -3.09957e-22)
(0.00217334 -6.76055e-05 -3.19532e-22)
(0.00232708 -6.66572e-05 -1.07146e-20)
(0.00247479 -6.49353e-05 0)
(0.00261098 -6.21519e-05 9.62147e-21)
(0.00273111 -5.83926e-05 -9.58832e-21)
(0.00283219 -5.39072e-05 2.81551e-22)
(0.00291289 -4.89942e-05 0)
(0.00297337 -4.38642e-05 0)
(0.00301503 -3.86905e-05 -7.68743e-21)
(0.00304018 -3.38826e-05 7.67405e-21)
(0.00305178 -2.93765e-05 0)
(0.00305254 -2.56467e-05 0)
(0.00304505 -2.29098e-05 -2.89103e-21)
(0.00303206 -2.06533e-05 1.80536e-22)
(0.00301624 -1.88335e-05 2.90172e-21)
(0.0029997 -1.73294e-05 0)
(0.00298415 -1.6102e-05 0)
(0.00297083 -1.51114e-05 0)
(0.0029605 -1.43414e-05 0)
(0.00295362 -1.38349e-05 1.20093e-22)
(0.00295 -1.35975e-05 0)
(0.00294914 -1.32754e-05 0)
(0.00295054 -1.27223e-05 0)
(0.00295349 -1.19436e-05 5.79785e-22)
(0.00295712 -1.09409e-05 -5.7887e-22)
(0.00296057 -9.70023e-06 0)
(0.00296297 -8.18137e-06 4.62474e-23)
(0.00296348 -6.3462e-06 1.23109e-22)
(0.00296093 -4.08594e-06 -8.20581e-23)
(0.00295194 -7.0913e-07 -4.08191e-23)
(0.00293307 7.8529e-06 0)
(0.00987615 0.00143531 0)
(0.0104318 0.00199212 0)
(0.0101838 0.00162937 0)
(0.00948075 0.001134 8.50821e-21)
(0.0087905 0.000740733 -1.72802e-20)
(0.00826745 0.000482227 8.74309e-21)
(0.00786622 0.000328765 0)
(0.0075449 0.000239991 1.75574e-20)
(0.00728363 0.000186188 -1.76692e-20)
(0.00706729 0.000151088 1.75899e-20)
(0.00688406 0.000126522 -1.76647e-20)
(0.00672614 0.000108284 -3.51198e-20)
(0.00658832 9.42101e-05 3.5229e-20)
(0.0064667 8.31499e-05 3.49893e-20)
(0.00635812 7.44337e-05 -1.66815e-22)
(0.00625994 6.76507e-05 -6.97952e-20)
(0.00616989 6.25504e-05 3.48816e-20)
(0.00608596 5.89667e-05 0)
(0.00600628 5.6835e-05 0)
(0.00592914 5.60798e-05 0)
(0.0058529 5.6653e-05 0)
(0.00577598 5.85436e-05 0)
(0.00569686 6.17735e-05 0)
(0.00561401 6.64007e-05 0)
(0.00552585 7.25302e-05 0)
(0.00543072 8.03406e-05 0)
(0.00532681 9.01488e-05 0)
(0.00521205 0.000102344 0)
(0.005084 0.000117565 0)
(0.00493967 0.000136829 0)
(0.00477529 0.000161806 -6.67738e-20)
(0.00458594 0.000195475 2.75204e-22)
(0.00436866 0.00024341 1.3361e-19)
(0.00409161 0.000314233 -5.85659e-20)
(0.00378637 0.000447455 -6.68591e-20)
(0.00357616 0.000668871 2.02427e-19)
(0.00350604 0.000954436 -2.72345e-19)
(0.00353586 0.00127347 -6.85756e-20)
(0.003649 0.00161749 6.91565e-19)
(0.00386061 0.00198643 2.09104e-19)
(0.00421747 0.00237869 0)
(0.00472662 0.00277129 6.87378e-20)
(0.00529018 0.0031287 4.09459e-19)
(0.00585245 0.00344134 6.8011e-20)
(0.00641259 0.00370929 5.35823e-19)
(0.00696413 0.00392968 -5.30359e-19)
(0.0075141 0.00409853 1.96891e-21)
(0.00805072 0.00420282 0)
(0.00856369 0.00424015 -2.57398e-19)
(0.00906201 0.00420537 0)
(0.00952678 0.00409141 -7.15577e-22)
(0.00995769 0.00390029 0)
(0.0103377 0.00362097 -2.44782e-19)
(0.0106591 0.00326883 -2.42239e-19)
(0.0109067 0.0028359 0)
(0.0110629 0.00234227 4.16142e-24)
(0.0111291 0.00179729 1.16809e-19)
(0.0110765 0.00121625 2.85931e-20)
(0.010934 0.000633573 5.6769e-20)
(0.0106644 4.43698e-05 -1.42935e-20)
(0.0102983 -0.000505207 0)
(0.00985862 -0.00100771 1.11432e-19)
(0.00935116 -0.0014484 -5.5747e-20)
(0.00881623 -0.00181925 -1.09734e-19)
(0.0082496 -0.0021173 -3.26884e-19)
(0.00769323 -0.00234367 -5.44168e-20)
(0.0071407 -0.00250809 2.67893e-19)
(0.0066167 -0.00261306 -5.36014e-20)
(0.00611905 -0.00266896 0)
(0.00565213 -0.00268189 5.22017e-20)
(0.00522374 -0.00265916 -5.22062e-20)
(0.00481936 -0.00260694 2.07949e-21)
(0.00444717 -0.00253132 0)
(0.00410317 -0.00243765 -4.04333e-19)
(0.00378138 -0.00232998 -4.00062e-19)
(0.00348471 -0.00221277 2.45778e-20)
(0.00321098 -0.0020898 -2.45052e-20)
(0.00295675 -0.00196424 2.4045e-20)
(0.00272366 -0.0018392 -3.80972e-19)
(0.00251118 -0.00171697 3.54599e-19)
(0.00231772 -0.00159921 -3.73854e-19)
(0.00214299 -0.0014869 -3.79179e-19)
(0.0019858 -0.00138081 2.27611e-20)
(0.00184459 -0.00128035 -3.71586e-19)
(0.00171868 -0.00118517 3.51428e-19)
(0.00160525 -0.00109451 -3.48248e-19)
(0.00150198 -0.00100766 3.46302e-19)
(0.00140899 -0.000923761 -3.40219e-19)
(0.00132275 -0.000842028 -1.04785e-20)
(0.00124184 -0.000762708 1.03854e-20)
(0.0011672 -0.000685395 0)
(0.00109584 -0.000610313 0)
(0.00102812 -0.000538073 1.58793e-19)
(0.00096561 -0.000468894 -1.75476e-19)
(0.000905564 -0.000403647 1.53902e-19)
(0.000852199 -0.000342523 3.79315e-20)
(0.000802679 -0.000286332 1.92391e-22)
(0.000761159 -0.000234871 -7.31191e-23)
(0.000725831 -0.000188528 -3.28102e-19)
(0.000700568 -0.000146098 -5.39659e-20)
(0.00068406 -0.000107616 7.13828e-20)
(0.000679342 -7.14711e-05 -7.07514e-20)
(0.00068596 -3.69341e-05 0)
(0.000705217 -1.94765e-06 -8.7255e-21)
(0.000738363 3.57228e-05 8.73238e-21)
(0.000786644 7.75377e-05 0)
(0.0008498 0.000125892 0)
(0.000929869 0.000182299 1.39641e-19)
(0.00102609 0.000248972 -1.39758e-19)
(0.00113978 0.000327522 1.44492e-19)
(0.00127095 0.000419664 -2.81368e-19)
(0.00142 0.000526705 -2.05912e-23)
(0.00158678 0.000649811 -4.42832e-21)
(0.0017716 0.00079008 -1.41814e-19)
(0.00197215 0.000947602 0)
(0.00219114 0.00112259 0)
(0.0024227 0.00131424 0)
(0.00266798 0.00152201 2.92397e-19)
(0.00292534 0.00174189 2.72482e-19)
(0.00319037 0.00197133 0)
(0.00346349 0.00220918 -3.1573e-19)
(0.0037432 0.0024507 5.22822e-20)
(0.00402548 0.00269185 -3.45907e-20)
(0.00431015 0.00292936 1.72738e-20)
(0.00459748 0.00315937 -3.38866e-20)
(0.00488506 0.0033781 2.69768e-19)
(0.0051734 0.00358235 -2.33029e-19)
(0.00546272 0.00376903 2.96829e-19)
(0.00575352 0.00393563 -5.16507e-22)
(0.00604942 0.00408013 2.27864e-19)
(0.00635046 0.00419907 0)
(0.00665386 0.00429132 2.53395e-19)
(0.00696947 0.004356 -3.06566e-20)
(0.00729611 0.00438777 -2.11527e-19)
(0.00762653 0.00438575 2.40752e-19)
(0.00797421 0.00434856 -2.89427e-20)
(0.00833024 0.00426558 2.90345e-20)
(0.00868387 0.00413994 -2.89793e-20)
(0.00904422 0.00396209 2.77279e-20)
(0.00939221 0.00373025 -2.62714e-20)
(0.00972294 0.00343952 1.3073e-19)
(0.0100202 0.0030877 -1.25379e-19)
(0.0102654 0.00267581 1.23412e-19)
(0.0104492 0.00221084 0)
(0.0105402 0.00169476 2.34116e-20)
(0.0105432 0.00115761 -2.21527e-20)
(0.0104319 0.000593154 -1.08438e-20)
(0.0102038 4.74209e-05 0)
(0.00988241 -0.000470367 -2.04636e-20)
(0.00945587 -0.000937587 3.98007e-20)
(0.00896606 -0.0013363 0)
(0.00840292 -0.00166997 -7.5574e-20)
(0.00781251 -0.00191752 -1.81363e-20)
(0.00719427 -0.00209038 1.82279e-20)
(0.00658276 -0.00218575 0)
(0.00596749 -0.00220754 6.88949e-20)
(0.00536661 -0.00216125 -6.68754e-20)
(0.00477709 -0.00205292 6.59636e-20)
(0.00420692 -0.00188454 0)
(0.00363461 -0.00164246 -1.25376e-19)
(0.00328858 -0.00136391 -7.6926e-20)
(0.00310594 -0.00110069 1.34878e-19)
(0.00297599 -0.000868079 -1.43998e-20)
(0.00289547 -0.000670262 1.42941e-20)
(0.00289273 -0.000503606 1.35631e-20)
(0.00298262 -0.000373787 1.29846e-20)
(0.00318829 -0.000285897 -1.14066e-20)
(0.00348691 -0.00024982 -7.76223e-22)
(0.00381152 -0.000242332 0)
(0.00414023 -0.000240814 7.21803e-22)
(0.00446826 -0.000234843 0)
(0.00478365 -0.000220488 -6.67039e-22)
(0.00507371 -0.00019782 -1.00741e-20)
(0.00532868 -0.000168856 1.06244e-20)
(0.00554237 -0.000136237 -8.81269e-22)
(0.00571211 -0.000102558 8.79736e-21)
(0.00583832 -7.00044e-05 -1.66148e-20)
(0.00592398 -4.03299e-05 1.63381e-20)
(0.00597385 -1.45764e-05 -8.44402e-21)
(0.00599366 6.44863e-06 0)
(0.00598958 2.21758e-05 3.83126e-21)
(0.00596849 3.30542e-05 -3.59704e-21)
(0.00593688 3.95207e-05 -3.87307e-22)
(0.00589991 4.20493e-05 -2.82097e-21)
(0.00586197 4.13582e-05 2.47728e-21)
(0.0058266 3.81975e-05 2.44899e-21)
(0.00579621 3.33381e-05 -2.73972e-21)
(0.00577216 2.76096e-05 2.3558e-21)
(0.00575496 2.174e-05 -4.10991e-21)
(0.00574427 1.60325e-05 2.53734e-21)
(0.00573888 1.12147e-05 -8.61145e-22)
(0.00573701 7.77086e-06 -1.82081e-22)
(0.00573674 5.85816e-06 0)
(0.00573611 5.51941e-06 3.7373e-22)
(0.00573327 6.70351e-06 -5.11296e-22)
(0.00572665 9.37032e-06 2.65954e-23)
(0.00571494 1.36316e-05 -1.69726e-22)
(0.00569688 1.99691e-05 0)
(0.00566989 2.95256e-05 0)
(0.00562835 4.56876e-05 -1.12364e-23)
(0.00987673 0.000895129 0)
(0.0105619 0.00167962 -4.16511e-21)
(0.0110077 0.00171985 4.14596e-21)
(0.0108819 0.00149515 8.24176e-21)
(0.0105987 0.00118151 -8.32414e-21)
(0.0102557 0.00090602 0)
(0.00990854 0.000697756 0)
(0.00958672 0.0005516 0)
(0.00929895 0.00044975 -1.68514e-20)
(0.00904531 0.00037635 3.38332e-20)
(0.00882171 0.000321223 1.68053e-20)
(0.00862372 0.000278319 -3.39311e-20)
(0.00844766 0.000244168 -3.37471e-20)
(0.00829019 0.00021675 3.38695e-20)
(0.00814825 0.000194796 0)
(0.00801905 0.000177466 -3.35929e-20)
(0.00790005 0.000164197 6.72002e-20)
(0.00778889 0.000154587 -3.35994e-20)
(0.00768337 0.000148361 0)
(0.00758142 0.000145321 0)
(0.00748105 0.000145325 0)
(0.00738035 0.000148288 0)
(0.00727746 0.000154184 0)
(0.00717053 0.000163059 -6.57774e-20)
(0.0070577 0.000175049 6.59037e-20)
(0.00693705 0.000190403 0)
(0.00680656 0.000209528 0)
(0.00666405 0.000233046 0)
(0.00650709 0.000261884 0)
(0.00633294 0.000297415 0)
(0.00613853 0.00034171 -6.47675e-20)
(0.0059203 0.00039802 6.49639e-20)
(0.0056781 0.000472003 0)
(0.00539206 0.0005712 4.04203e-21)
(0.00509075 0.000722521 0)
(0.00488452 0.000952158 -1.30969e-19)
(0.00483376 0.00125216 2.6498e-19)
(0.00492035 0.00160551 0)
(0.00513117 0.00200468 -5.3404e-19)
(0.0054726 0.00244339 5.76332e-22)
(0.00597108 0.00290616 -6.61234e-20)
(0.00660931 0.00336204 6.59271e-20)
(0.00729969 0.00378423 -5.20908e-19)
(0.00799424 0.00416369 0)
(0.00868598 0.00449425 -5.73076e-19)
(0.00936803 0.00476885 5.35997e-19)
(0.0100425 0.00497913 5.29484e-19)
(0.0106986 0.00511259 0)
(0.0113279 0.00516485 2.42744e-19)
(0.0119334 0.00512833 0)
(0.0124993 0.0049982 -4.74905e-19)
(0.0130207 0.00477519 0)
(0.0134822 0.0044522 2.03417e-19)
(0.0138753 0.004041 2.58393e-19)
(0.014184 0.00353941 2.27401e-19)
(0.0143943 0.00296544 1.12434e-19)
(0.0145004 0.0023323 1.11046e-19)
(0.0144795 0.00165169 5.47074e-20)
(0.0143495 0.000956138 -2.72606e-20)
(0.0140821 0.000251081 -4.02907e-20)
(0.013699 -0.000422239 0)
(0.0132149 -0.00104948 -1.05098e-19)
(0.0126403 -0.00161333 1.04366e-19)
(0.0120089 -0.00209838 0)
(0.0113245 -0.00250292 4.13448e-19)
(0.0106274 -0.00281936 0)
(0.00991909 -0.00305727 5.09171e-20)
(0.00922634 -0.00321093 -5.11766e-20)
(0.00855392 -0.00329954 0)
(0.00790956 -0.0033268 5.0122e-20)
(0.00730293 -0.00330159 -5.02738e-20)
(0.00672615 -0.00323237 -5.46422e-19)
(0.00618606 -0.00312698 3.46087e-19)
(0.00568089 -0.00299288 -1.7774e-21)
(0.00520624 -0.00283712 3.87763e-19)
(0.0047638 -0.0026662 2.39955e-20)
(0.00435208 -0.00248603 -4.0701e-19)
(0.00396834 -0.00230212 0)
(0.00361333 -0.00211909 -3.76238e-19)
(0.0032868 -0.00194062 -7.20749e-19)
(0.00298745 -0.00176955 7.02231e-19)
(0.0027149 -0.00160768 3.76927e-19)
(0.00246803 -0.00145593 -3.72955e-19)
(0.00224518 -0.00131423 3.67685e-19)
(0.00204521 -0.00118184 0)
(0.00186535 -0.00105781 3.48441e-19)
(0.00170277 -0.000941234 3.8355e-21)
(0.00155632 -0.000830995 6.89975e-19)
(0.0014225 -0.000726436 3.15586e-19)
(0.00129902 -0.000627713 3.42546e-19)
(0.00118564 -0.000534698 0)
(0.00107987 -0.000447925 0)
(0.000981219 -0.000368421 -1.58871e-19)
(0.000890745 -0.000296825 0)
(0.000806824 -0.000234078 -1.92876e-20)
(0.000732351 -0.000180987 1.90948e-20)
(0.000666336 -0.00013781 -1.50316e-19)
(0.000611842 -0.000104914 1.48509e-19)
(0.00056885 -8.14333e-05 1.28291e-19)
(0.000540346 -6.66861e-05 1.81573e-20)
(0.000527078 -5.85261e-05 -7.17669e-20)
(0.000531019 -5.55936e-05 3.55646e-20)
(0.000554339 -5.50207e-05 -2.64552e-20)
(0.000598592 -5.3192e-05 8.78559e-21)
(0.00066499 -4.70505e-05 0)
(0.000754773 -3.2714e-05 6.95831e-20)
(0.000868465 -7.1577e-06 0)
(0.0010078 3.33341e-05 1.38769e-19)
(0.00117213 9.18207e-05 2.17965e-22)
(0.00136201 0.000171111 -1.34633e-19)
(0.0015776 0.000273587 1.38961e-19)
(0.00181768 0.000401036 -4.34717e-21)
(0.00208168 0.000554618 0)
(0.00236805 0.000735445 1.38225e-19)
(0.00267451 0.000943272 -1.37967e-19)
(0.0030011 0.00117741 0)
(0.00334232 0.00143644 8.54958e-21)
(0.00369787 0.00171769 -2.81339e-19)
(0.00406513 0.00201767 -2.55756e-19)
(0.00443959 0.00233241 2.527e-19)
(0.0048205 0.0026575 -2.67882e-19)
(0.00520598 0.00298788 -1.65862e-20)
(0.00559273 0.00331831 2.47503e-19)
(0.00598049 0.00364345 3.2991e-20)
(0.00636922 0.00395779 2.91318e-19)
(0.00675745 0.00425631 -5.79289e-19)
(0.00714587 0.00453438 2.87877e-19)
(0.00753515 0.00478768 -2.21687e-19)
(0.0079263 0.0050125 1.85325e-19)
(0.00832224 0.00520542 3.05389e-19)
(0.00872331 0.00536253 1.80134e-19)
(0.00912849 0.00548187 3.00184e-20)
(0.00954452 0.00556054 2.03828e-19)
(0.00997004 0.00559339 2.59958e-19)
(0.0104001 0.00557933 -2.78381e-20)
(0.010842 0.00551465 2.78952e-20)
(0.0112868 0.00539079 8.08086e-20)
(0.0117261 0.00520977 2.5731e-20)
(0.0121606 0.00496312 -2.53726e-20)
(0.0125744 0.00464999 2.54243e-20)
(0.012958 0.00426763 -9.74005e-20)
(0.0132949 0.00381615 2.39756e-20)
(0.0135669 0.00329944 -7.08862e-22)
(0.0137616 0.00272613 -2.28677e-20)
(0.0138538 0.00210288 -8.77268e-20)
(0.0138439 0.00145813 0)
(0.0137056 0.000795085 4.08766e-20)
(0.013439 0.00014923 -2.5336e-20)
(0.0130578 -0.000465364 1.94053e-20)
(0.0125559 -0.00102746 -5.63279e-20)
(0.0119659 -0.00151484 -1.82277e-20)
(0.0112835 -0.00192261 7.16341e-20)
(0.0105496 -0.00223317 8.77936e-20)
(0.00976874 -0.00245008 -3.43634e-20)
(0.00897697 -0.0025755 8.46316e-20)
(0.00817144 -0.00259221 -6.57143e-20)
(0.00737593 -0.00253153 -1.59732e-20)
(0.00659242 -0.00239103 -6.28522e-20)
(0.00584048 -0.00217532 1.57928e-20)
(0.00509992 -0.00189078 -6.14134e-20)
(0.00455879 -0.001562 5.99672e-20)
(0.00420415 -0.00124756 -4.40824e-20)
(0.00395552 -0.000983637 -1.44682e-20)
(0.00380375 -0.000783679 -2.78612e-20)
(0.00377518 -0.000645719 0)
(0.00388348 -0.000561556 -2.58562e-20)
(0.00414278 -0.000529098 2.3475e-20)
(0.00451655 -0.000534823 4.34994e-22)
(0.00493171 -0.000550545 -3.25899e-22)
(0.00535611 -0.000556714 -1.03048e-21)
(0.00577611 -0.000543885 -1.09024e-20)
(0.00617555 -0.000509526 6.45117e-22)
(0.00653945 -0.000456226 0)
(0.00685692 -0.000389224 -5.92583e-22)
(0.00712136 -0.000314531 5.67103e-22)
(0.00733018 -0.000237902 9.55564e-21)
(0.00748437 -0.000164255 -8.96528e-21)
(0.00758785 -9.74097e-05 -7.69408e-21)
(0.00764669 -3.99956e-05 8.14919e-21)
(0.00766836 6.52716e-06 0)
(0.00766128 4.17926e-05 -4.22112e-22)
(0.0076338 6.64647e-05 0)
(0.0075933 8.10782e-05 -2.5326e-21)
(0.00754664 8.67202e-05 1.78953e-22)
(0.00749956 8.50454e-05 3.05171e-21)
(0.0074564 7.78882e-05 6.12327e-22)
(0.0074201 6.71465e-05 2.85012e-22)
(0.00739225 5.47636e-05 -2.63004e-22)
(0.00737291 4.25374e-05 0)
(0.00736109 3.17709e-05 2.19336e-22)
(0.00735513 2.35005e-05 7.48184e-22)
(0.00735262 1.84222e-05 -5.70111e-22)
(0.00735089 1.68637e-05 -5.78945e-22)
(0.00734732 1.88209e-05 7.12117e-22)
(0.00733959 2.40285e-05 0)
(0.00732581 3.2116e-05 1.12943e-22)
(0.00730479 4.28037e-05 1.6426e-22)
(0.00727583 5.61523e-05 4.09585e-23)
(0.00723831 7.26567e-05 -4.08887e-23)
(0.00718385 9.46912e-05 1.08734e-23)
(0.00979431 0.000519501 0)
(0.0103542 0.00120147 0)
(0.0108884 0.0014653 0)
(0.0111126 0.00145269 8.21614e-21)
(0.0111079 0.00131654 -8.23248e-21)
(0.0110338 0.00113273 0)
(0.0108794 0.000957632 0)
(0.0106855 0.000811378 0)
(0.0104833 0.000693725 0)
(0.0102866 0.000599549 0)
(0.010101 0.000523324 0)
(0.00992815 0.000460692 -3.28784e-20)
(0.00976853 0.000408872 3.30098e-20)
(0.00962141 0.000366084 -3.28146e-20)
(0.00948545 0.000331089 6.56862e-20)
(0.00935902 0.000302987 -3.28613e-20)
(0.0092404 0.000281126 -3.26371e-20)
(0.0091278 0.000265019 3.27169e-20)
(0.00901943 0.000254298 0)
(0.0089135 0.000248679 0)
(0.00880825 0.000247953 6.4611e-20)
(0.00870192 0.000251988 -6.47343e-20)
(0.00859275 0.00026073 0)
(0.00847896 0.000274217 -6.40621e-20)
(0.00835874 0.000292601 6.41817e-20)
(0.00823022 0.000316181 0)
(0.00809144 0.000345446 0)
(0.00794036 0.000381121 6.33833e-20)
(0.00777481 0.000424255 -2.85601e-22)
(0.00759251 0.000476334 -6.33842e-20)
(0.00739116 0.000539447 -6.2983e-20)
(0.0071683 0.000616562 1.26018e-19)
(0.00692562 0.00071226 -6.30349e-20)
(0.0066466 0.000831296 5.87108e-20)
(0.0063593 0.000988988 -6.3063e-20)
(0.00616931 0.00120752 -6.34914e-20)
(0.0061407 0.00149268 6.45926e-20)
(0.00626551 0.00183817 1.93874e-19)
(0.00653261 0.00223735 3.23117e-19)
(0.00694101 0.00267973 6.46343e-20)
(0.00750138 0.00314544 -6.39402e-20)
(0.00818042 0.00360609 -5.66961e-19)
(0.00890192 0.0040398 5.61141e-19)
(0.00962706 0.00443549 5.54725e-19)
(0.0103476 0.00478321 -1.22226e-19)
(0.0110577 0.00507294 9.08724e-20)
(0.0117576 0.00529452 -2.69164e-19)
(0.0124385 0.00543904 0)
(0.0130933 0.00549304 -2.63819e-19)
(0.0137206 0.00545565 2.91568e-20)
(0.0143092 0.00532988 2.29748e-19)
(0.0148525 0.00510163 2.82264e-20)
(0.0153364 0.00477376 -2.81307e-19)
(0.015753 0.00435494 -1.94815e-19)
(0.0160878 0.00384712 -2.20973e-19)
(0.0163295 0.00326386 -1.09606e-19)
(0.0164703 0.00261791 -2.66159e-20)
(0.0164918 0.00192235 2.67679e-20)
(0.0164037 0.00120432 2.62496e-20)
(0.0161841 0.000473314 3.87604e-20)
(0.0158466 -0.000237604 2.56198e-20)
(0.015398 -0.000911413 0)
(0.014847 -0.00153039 1.01073e-19)
(0.0142193 -0.00207709 0)
(0.0135207 -0.00254482 -3.48715e-19)
(0.0127854 -0.00292396 -1.99122e-19)
(0.0120194 -0.00321673 -4.95472e-20)
(0.0112498 -0.00342295 0)
(0.0104861 -0.00354965 0)
(0.00973905 -0.00360398 -1.95098e-19)
(0.00902137 -0.00359412 0)
(0.00833093 -0.00352916 4.33547e-19)
(0.00767578 -0.00341837 -4.30867e-19)
(0.0070568 -0.00327046 4.04223e-19)
(0.00647179 -0.00309433 -1.9936e-22)
(0.00592275 -0.00289842 -1.93938e-22)
(0.00540908 -0.00269028 3.26432e-19)
(0.00492874 -0.00247714 4.64228e-20)
(0.00448227 -0.00226512 3.44726e-19)
(0.00406976 -0.00205896 3.65066e-19)
(0.00369017 -0.0018623 1.42768e-21)
(0.00334322 -0.00167758 -3.47947e-19)
(0.00302817 -0.00150595 3.44818e-19)
(0.00274364 -0.00134746 0)
(0.0024887 -0.00120132 5.44909e-21)
(0.00226095 -0.00106619 3.41293e-19)
(0.00205736 -0.000940731 -6.81946e-19)
(0.00187671 -0.000823752 -1.01681e-18)
(0.00171545 -0.00071418 -3.43987e-19)
(0.00157023 -0.000611822 1.12713e-20)
(0.00144044 -0.000516947 0)
(0.0013234 -0.00042986 1.00061e-20)
(0.00121721 -0.000351492 -9.91889e-21)
(0.00112311 -0.000283024 0)
(0.0010389 -0.000224812 1.5407e-19)
(0.00096716 -0.000178214 -1.89205e-20)
(0.000906961 -0.000142904 1.87589e-20)
(0.00086104 -0.000119428 1.93813e-22)
(0.000829406 -0.000106115 1.46037e-19)
(0.000815529 -0.000102797 -1.79937e-20)
(0.000820333 -0.000106484 3.57095e-20)
(0.000845768 -0.000115689 -1.77039e-20)
(0.000894858 -0.000126253 -6.19116e-25)
(0.000967957 -0.000134889 -8.66637e-21)
(0.00106825 -0.000138119 8.64887e-21)
(0.00119637 -0.000130877 -6.8723e-20)
(0.00135322 -0.000109869 -7.26774e-20)
(0.00154056 -7.02075e-05 -1.3228e-19)
(0.00175699 -8.39883e-06 2.72266e-19)
(0.00200321 7.89204e-05 -1.31455e-19)
(0.00227791 0.000194583 -4.24512e-21)
(0.00257937 0.000340808 -4.21207e-21)
(0.00290625 0.000518803 4.2233e-21)
(0.00325519 0.000729461 -1.34491e-19)
(0.00362395 0.000972034 8.81726e-21)
(0.00401088 0.00124545 -5.67469e-23)
(0.00441031 0.00154741 1.15641e-19)
(0.00482132 0.00187441 4.03881e-19)
(0.00524084 0.00222222 -2.61205e-19)
(0.00566488 0.00258598 -2.60922e-19)
(0.00609264 0.00296021 2.75194e-19)
(0.00652244 0.00333894 2.39396e-19)
(0.00695193 0.00371604 -2.39352e-19)
(0.00738136 0.00408528 -2.82572e-19)
(0.00781108 0.00444044 -2.34922e-19)
(0.00824059 0.00477594 3.27065e-20)
(0.00867092 0.00508646 -3.07674e-20)
(0.00910316 0.00536708 0)
(0.00953854 0.00561348 -2.69106e-19)
(0.00997941 0.00582165 -2.35781e-19)
(0.0104262 0.0059876 -2.03618e-19)
(0.0108782 0.00610855 0)
(0.0113398 0.00618079 -2.52984e-19)
(0.0118093 0.00620016 2.78091e-20)
(0.0122823 0.00616508 -8.08031e-20)
(0.0127615 0.00607139 -2.67366e-20)
(0.0132387 0.00591303 -8.42845e-22)
(0.0137064 0.005691 -1.26527e-19)
(0.0141609 0.00539971 2.50244e-20)
(0.0145888 0.00503925 -1.19947e-19)
(0.0149793 0.00460946 2.12017e-19)
(0.0153177 0.00411258 1.83527e-19)
(0.015588 0.0035544 8.93533e-20)
(0.0157782 0.00294441 0)
(0.0158687 0.00229233 -2.09428e-20)
(0.015857 0.00161832 3.08647e-22)
(0.0157215 0.000931566 9.70353e-21)
(0.0154614 0.000261455 -3.39952e-20)
(0.0150834 -0.000375941 1.91422e-20)
(0.0145823 -0.000961656 -3.67169e-20)
(0.0139817 -0.00147487 3.56104e-20)
(0.0132782 -0.00190732 0)
(0.0125054 -0.00224262 -8.45801e-20)
(0.0116685 -0.00247935 3.32497e-20)
(0.0107994 -0.00261508 -6.54295e-20)
(0.00990449 -0.00263643 -1.61871e-20)
(0.0090104 -0.00257833 7.83738e-20)
(0.00812107 -0.00242558 -1.56028e-20)
(0.00726814 -0.00219746 0)
(0.00643378 -0.001906 7.41526e-20)
(0.00577876 -0.00158519 -3.47056e-22)
(0.00532547 -0.00128507 -3.43521e-22)
(0.00501576 -0.00104736 -3.34629e-22)
(0.00483964 -0.000891556 2.69857e-20)
(0.00482365 -0.000816712 -3.18158e-22)
(0.00497522 -0.000804552 -1.64058e-22)
(0.00530067 -0.000840638 -1.19798e-20)
(0.00574398 -0.000891726 1.03614e-20)
(0.00622059 -0.000927602 1.10509e-20)
(0.00669526 -0.000934006 1.02396e-21)
(0.00715387 -0.00090499 -1.05048e-20)
(0.00758114 -0.000840957 1.23911e-21)
(0.00796361 -0.000747769 9.35667e-21)
(0.0082922 -0.000634191 -9.30538e-21)
(0.00856212 -0.0005097 -1.09191e-21)
(0.00877225 -0.000383205 -1.04868e-21)
(0.00892478 -0.000262322 0)
(0.00902457 -0.000152979 7.45725e-21)
(0.00907851 -5.92508e-05 -7.44978e-21)
(0.00909477 1.6579e-05 0)
(0.00908221 7.38026e-05 -8.16855e-22)
(0.00904954 0.000112739 0)
(0.00900472 0.000134896 7.26183e-22)
(0.0089549 0.000142596 2.6458e-21)
(0.00890596 0.000138607 -2.64283e-21)
(0.00886228 0.000126006 -5.96716e-22)
(0.00882668 0.000107986 5.51469e-22)
(0.00880052 8.76167e-05 0)
(0.00878368 6.76885e-05 -1.78658e-21)
(0.00877484 5.07257e-05 1.78246e-21)
(0.00877186 3.85028e-05 3.82568e-22)
(0.00877197 3.20179e-05 6.43651e-22)
(0.00877216 3.16766e-05 -6.42288e-22)
(0.00876947 3.73027e-05 4.80721e-22)
(0.00876134 4.82241e-05 -4.79892e-22)
(0.00874579 6.34761e-05 -1.7998e-22)
(0.00872177 8.20502e-05 -1.19711e-22)
(0.00868902 0.000103127 7.9711e-23)
(0.00864827 0.00012615 9.92077e-23)
(0.0085889 0.000152935 0)
(0.00976251 0.000329366 0)
(0.0101852 0.000852965 0)
(0.0106639 0.00114622 0)
(0.0109586 0.00125062 8.27352e-21)
(0.0111338 0.00123051 -8.24777e-21)
(0.0112486 0.00114469 0)
(0.0112698 0.00103821 1.62781e-20)
(0.0112415 0.000930902 -1.63187e-20)
(0.0111763 0.000830958 -1.62106e-20)
(0.0110915 0.000742225 3.24451e-20)
(0.0109969 0.000664463 -1.62346e-20)
(0.0108983 0.000596493 0)
(0.0107993 0.000537705 0)
(0.0107019 0.000487625 3.21332e-20)
(0.0106068 0.000445764 -1.52948e-22)
(0.0105142 0.000411663 -6.41207e-20)
(0.0104235 0.000384921 3.20533e-20)
(0.0103342 0.000365199 0)
(0.0102454 0.000352219 0)
(0.0101559 0.000345741 3.16265e-20)
(0.0100647 0.000345602 -3.16786e-20)
(0.00997057 0.000351704 0)
(0.00987212 0.000364028 0)
(0.00976794 0.00038266 -6.24567e-20)
(0.00965653 0.000407802 1.24808e-19)
(0.00953628 0.000439805 -6.2352e-20)
(0.00940548 0.000479215 -6.18707e-20)
(0.00926235 0.000526811 2.84363e-22)
(0.00910501 0.000583666 1.23298e-19)
(0.0089316 0.000651219 -6.16159e-20)
(0.00874033 0.000731382 -6.11775e-20)
(0.00852937 0.000826665 2.67324e-22)
(0.00830124 0.000940607 6.11306e-20)
(0.0080399 0.00107553 6.06676e-20)
(0.00777218 0.00124105 -6.10847e-20)
(0.00759933 0.00145569 0)
(0.00758341 0.00172923 -2.50327e-19)
(0.00772046 0.00206024 -5.01e-19)