/*--------------------------------*- C++ -*----------------------------------*\
| =========                 |                                                 |
| \\      /  F ield         | OpenFOAM: The Open Source CFD Toolbox           |
|  \\    /   O peration     | Version:  2506                                  |
|   \\  /    A nd           | Website:  www.openfoam.com                      |
|    \\/     M anipulation  |                                                 |
\*---------------------------------------------------------------------------*/
FoamFile
{
    version     2.0;
    format      ascii;
    arch        "LSB;label=32;scalar=64";
    class       surfaceScalarField;
    location    "3.45";
    object      phi;
}
// * * * * * * * * * * * * * * * * * * * * * * * * * * * * * * * * * * * * * //

dimensions      [0 3 -1 0 0 0 0];

oriented        oriented;

internalField   nonuniform List<scalar> 
7780
(
1.39302e-09
3.06981e-10
1.10169e-09
2.9133e-10
9.12328e-10
1.89362e-10
7.95754e-10
1.16574e-10
7.20568e-10
7.51863e-11
6.68151e-10
5.2416e-11
6.29205e-10
3.8945e-11
5.98877e-10
3.03275e-11
5.74389e-10
2.44875e-11
5.54077e-10
2.03118e-11
5.36904e-10
1.71721e-11
5.22182e-10
1.47226e-11
5.09409e-10
1.27729e-11
4.98199e-10
1.12089e-11
4.88243e-10
9.9564e-12
4.79275e-10
8.96736e-12
4.71066e-10
8.20871e-12
4.6341e-10
7.65484e-12
4.56123e-10
7.28721e-12
4.49032e-10
7.08973e-12
4.41983e-10
7.04859e-12
4.34828e-10
7.15436e-12
4.27425e-10
7.40219e-12
4.19633e-10
7.79169e-12
4.11305e-10
8.32797e-12
4.0228e-10
9.02409e-12
3.92378e-10
9.90228e-12
3.81381e-10
1.09965e-11
3.69025e-10
1.23564e-11
3.54978e-10
1.40484e-11
3.38825e-10
1.61536e-11
3.2003e-10
1.87964e-11
2.9782e-10
2.2211e-11
2.67918e-10
2.99026e-11
2.41416e-10
2.64991e-11
2.29402e-10
1.2011e-11
2.27491e-10
1.91349e-12
2.31028e-10
-3.525e-12
2.40667e-10
-9.61008e-12
2.58264e-10
-1.75579e-11
2.91265e-10
-3.29666e-11
3.31958e-10
-4.06845e-11
3.72057e-10
-4.01236e-11
4.10903e-10
-3.88987e-11
4.46392e-10
-3.55557e-11
4.79011e-10
-3.26891e-11
5.09855e-10
-3.09083e-11
5.35784e-10
-2.59823e-11
5.60057e-10
-2.4313e-11
5.81007e-10
-2.09752e-11
5.97875e-10
-1.68773e-11
6.13213e-10
-1.53353e-11
6.22229e-10
-9.00491e-12
6.29849e-10
-7.60265e-12
6.30219e-10
-3.51967e-13
6.27325e-10
2.90873e-12
6.18382e-10
8.95238e-12
6.02955e-10
1.54296e-11
5.86486e-10
1.6464e-11
5.6034e-10
2.61334e-11
5.34765e-10
2.55608e-11
5.05547e-10
2.92091e-11
4.75197e-10
3.0358e-11
4.45979e-10
2.92564e-11
4.16006e-10
3.00458e-11
3.89017e-10
2.70914e-11
3.61771e-10
2.73668e-11
3.37848e-10
2.40408e-11
3.14872e-10
2.30706e-11
2.93875e-10
2.10532e-11
2.74512e-10
1.93752e-11
2.55728e-10
1.87525e-11
2.38587e-10
1.70749e-11
2.22194e-10
1.63034e-11
2.06651e-10
1.54438e-11
1.92234e-10
1.43179e-11
1.78778e-10
1.33662e-11
1.66316e-10
1.23853e-11
1.54985e-10
1.12715e-11
1.44743e-10
1.01996e-11
1.35522e-10
9.19452e-12
1.27271e-10
8.23805e-12
1.19845e-10
7.42402e-12
1.13072e-10
6.77862e-12
1.06731e-10
6.35245e-12
1.00643e-10
6.10216e-12
9.46718e-11
5.98709e-12
8.85497e-11
6.13893e-12
8.22959e-11
6.27038e-12
7.59217e-11
6.38961e-12
6.91569e-11
6.77866e-12
6.23016e-11
6.86725e-12
5.54339e-11
6.87776e-12
4.83019e-11
7.14022e-12
4.1682e-11
6.62671e-12
3.49716e-11
6.7158e-12
2.92364e-11
5.73953e-12
2.38174e-11
5.42236e-12
1.98651e-11
3.95504e-12
1.64136e-11
3.45374e-12
1.47211e-11
1.69423e-12
1.4042e-11
6.80488e-13
1.50715e-11
-1.02833e-12
1.75609e-11
-2.48823e-12
2.12191e-11
-3.65694e-12
2.67971e-11
-5.57637e-12
3.37402e-11
-6.94082e-12
4.24594e-11
-8.71596e-12
5.2727e-11
-1.0263e-11
6.45954e-11
-1.1862e-11
7.80193e-11
-1.34155e-11
9.29966e-11
-1.49666e-11
1.09464e-10
-1.64539e-11
1.27249e-10
-1.77688e-11
1.4647e-10
-1.92017e-11
1.66718e-10
-2.02251e-11
1.87845e-10
-2.11029e-11
2.0975e-10
-2.18778e-11
2.3187e-10
-2.20912e-11
2.54062e-10
-2.21619e-11
2.76247e-10
-2.21549e-11
2.97885e-10
-2.16068e-11
3.18497e-10
-2.05805e-11
3.38214e-10
-1.96868e-11
3.56628e-10
-1.8384e-11
3.73743e-10
-1.70883e-11
3.89551e-10
-1.57856e-11
4.0396e-10
-1.43943e-11
4.17307e-10
-1.33462e-11
4.30096e-10
-1.28063e-11
4.4143e-10
-1.13772e-11
4.52378e-10
-1.10221e-11
4.63875e-10
-1.16105e-11
4.74184e-10
-1.04653e-11
4.84871e-10
-1.08869e-11
4.97268e-10
-1.26342e-11
5.07627e-10
-1.06166e-11
5.20174e-10
-1.28067e-11
5.31704e-10
-1.1766e-11
5.43471e-10
-1.19528e-11
5.54456e-10
-1.11012e-11
5.63824e-10
-9.40436e-12
5.70558e-10
-6.69587e-12
5.74953e-10
-4.29809e-12
5.73018e-10
2.06065e-12
5.70133e-10
3.01216e-12
5.56982e-10
1.32554e-11
5.41386e-10
1.56686e-11
5.20157e-10
2.12707e-11
4.94296e-10
2.58787e-11
4.67883e-10
2.64183e-11
4.35969e-10
3.19145e-11
4.06058e-10
2.99117e-11
3.72306e-10
3.37558e-11
3.39827e-10
3.24826e-11
3.04362e-10
3.54645e-11
2.68931e-10
3.54169e-11
2.31598e-10
3.73027e-11
1.95916e-10
3.56364e-11
1.64016e-10
3.18531e-11
1.48972e-10
1.50199e-11
1.36926e-10
1.20351e-11
1.28797e-10
8.12663e-12
1.25333e-10
3.4643e-12
1.29126e-10
-3.79239e-12
1.40185e-10
-1.10587e-11
1.61439e-10
-2.12561e-11
1.89189e-10
-2.77519e-11
2.20184e-10
-3.09972e-11
2.52788e-10
-3.26053e-11
2.84954e-10
-3.21679e-11
3.14876e-10
-2.99231e-11
3.41262e-10
-2.63869e-11
3.63375e-10
-2.21127e-11
3.80958e-10
-1.7583e-11
3.94131e-10
-1.31738e-11
4.03282e-10
-9.15044e-12
4.09021e-10
-5.73835e-12
4.12103e-10
-3.08191e-12
4.12871e-10
-7.67029e-13
4.12213e-10
6.57718e-13
4.10693e-10
1.52071e-12
4.08845e-10
1.8471e-12
4.07124e-10
1.72127e-12
4.05848e-10
1.27605e-12
4.0522e-10
6.27423e-13
4.05341e-10
-1.20649e-13
4.06204e-10
-8.63729e-13
4.07693e-10
-1.48919e-12
4.09587e-10
-1.89466e-12
4.11717e-10
-2.13036e-12
4.13867e-10
-2.15047e-12
4.15831e-10
-1.96415e-12
4.17406e-10
-1.57467e-12
4.18484e-10
-1.07843e-12
4.18827e-10
-3.43575e-13
4.18168e-10
6.59486e-13
4.16308e-10
1.8598e-12
4.12538e-10
3.76976e-12
6.96048e-12
1.78028e-09
2.26696e-10
1.72193e-09
3.49681e-10
1.60267e-09
3.08629e-10
1.47592e-09
2.43322e-10
1.36205e-09
1.8905e-10
1.26583e-09
1.48636e-10
1.18525e-09
1.19525e-10
1.11741e-09
9.81653e-11
1.0599e-09
8.20034e-11
1.01075e-09
6.94574e-11
9.68441e-10
5.9482e-11
9.31765e-10
5.13993e-11
8.99748e-10
4.47894e-11
8.71582e-10
3.93754e-11
8.46572e-10
3.49654e-11
8.24116e-10
3.14231e-11
8.03678e-10
2.8646e-11
7.84782e-10
2.65504e-11
7.67e-10
2.50693e-11
7.49943e-10
2.4146e-11
7.33261e-10
2.37299e-11
7.16637e-10
2.37779e-11
6.99781e-10
2.4257e-11
6.82426e-10
2.51462e-11
6.64314e-10
2.64391e-11
6.45193e-10
2.81446e-11
6.24808e-10
3.02872e-11
6.02896e-10
3.29079e-11
5.79185e-10
3.60679e-11
5.53396e-10
3.98377e-11
5.25277e-10
4.42726e-11
4.94734e-10
4.93398e-11
4.61821e-10
5.51246e-11
4.2583e-10
6.58933e-11
3.97515e-10
5.48131e-11
3.8891e-10
2.06082e-11
3.97416e-10
-6.60616e-12
4.20681e-10
-2.68086e-11
4.58073e-10
-4.7014e-11
5.10941e-10
-7.04185e-11
5.8324e-10
-1.05234e-10
6.64663e-10
-1.22062e-10
7.46061e-10
-1.21478e-10
8.24473e-10
-1.17281e-10
8.96887e-10
-1.07954e-10
9.63401e-10
-9.91986e-11
1.02478e-09
-9.22867e-11
1.07806e-09
-7.92769e-11
1.12601e-09
-7.22703e-11
1.16728e-09
-6.22564e-11
1.20129e-09
-5.08973e-11
1.22919e-09
-4.32401e-11
1.24764e-09
-2.74589e-11
1.25936e-09
-1.93231e-11
1.25998e-09
-9.72153e-13
1.25201e-09
1.08899e-11
1.23405e-09
2.69169e-11
1.20456e-09
4.49168e-11
1.16788e-09
5.31484e-11
1.11835e-09
7.56565e-11
1.06425e-09
7.96685e-11
1.00354e-09
8.99211e-11
9.39133e-10
9.47812e-11
8.73772e-10
9.46381e-11
8.06776e-10
9.70621e-11
7.42289e-10
9.15899e-11
6.78417e-10
9.12331e-11
6.17829e-10
8.4604e-11
5.59432e-10
8.14262e-11
5.03885e-10
7.65509e-11
4.51072e-10
7.21383e-11
4.00151e-10
6.96334e-11
3.51748e-10
6.54536e-11
3.05299e-10
6.27465e-11
2.60813e-10
5.99419e-11
2.18491e-10
5.66667e-11
1.78339e-10
5.35558e-11
1.40532e-10
5.02361e-11
1.05192e-10
4.66566e-11
7.23614e-11
4.30735e-11
4.20591e-11
3.9536e-11
1.41738e-11
3.61567e-11
-1.14648e-11
3.30891e-11
-3.51238e-11
3.04574e-11
-5.72328e-11
2.84751e-11
-7.80661e-11
2.69442e-11
-9.79411e-11
2.58673e-11
-1.17462e-10
2.56624e-11
-1.36617e-10
2.54254e-11
-1.55422e-10
2.51941e-11
-1.74361e-10
2.57158e-11
-1.92963e-10
2.54681e-11
-2.10989e-10
2.4902e-11
-2.28772e-10
2.4921e-11
-2.45062e-10
2.29163e-11
-2.60626e-10
2.22788e-11
-2.73806e-10
1.89191e-11
-2.85367e-10
1.69842e-11
-2.93535e-10
1.21233e-11
-2.99447e-10
9.36666e-12
-3.00903e-10
3.15181e-12
-2.99012e-10
-1.20936e-12
-2.93248e-10
-6.79161e-12
-2.8272e-10
-1.30153e-11
-2.67991e-10
-1.8385e-11
-2.48054e-10
-2.55126e-11
-2.23887e-10
-3.11085e-11
-1.94747e-10
-3.78561e-11
-1.61152e-10
-4.38596e-11
-1.23123e-10
-4.98935e-11
-8.09657e-11
-5.55752e-11
-3.48813e-11
-6.10541e-11
1.47835e-11
-6.61224e-11
6.76282e-11
-7.06173e-11
1.2298e-10
-7.45576e-11
1.80141e-10
-7.73891e-11
2.38364e-10
-7.93297e-11
2.97009e-10
-8.05248e-11
3.55127e-10
-8.02111e-11
4.1212e-10
-7.91555e-11
4.67456e-10
-7.74903e-11
5.20268e-10
-7.44162e-11
5.70366e-10
-7.06718e-11
6.17596e-10
-6.69075e-11
6.61581e-10
-6.23542e-11
7.0236e-10
-5.78458e-11
7.40037e-10
-5.34341e-11
7.74766e-10
-4.90847e-11
8.07061e-10
-4.55903e-11
8.37446e-10
-4.31279e-11
8.65586e-10
-3.94408e-11
8.92566e-10
-3.79126e-11
9.19296e-10
-3.82409e-11
9.44503e-10
-3.55707e-11
9.69843e-10
-3.61309e-11
9.95843e-10
-3.85552e-11
1.01998e-09
-3.47021e-11
1.04493e-09
-3.77337e-11
1.06821e-09
-3.50692e-11
1.09001e-09
-3.37946e-11
1.10915e-09
-3.03161e-11
1.12396e-09
-2.42896e-11
1.13318e-09
-1.59717e-11
1.13549e-09
-6.64733e-12
1.12847e-09
9.07627e-12
1.11398e-09
1.7522e-11
1.08624e-09
4.10287e-11
1.05024e-09
5.17035e-11
1.00439e-09
6.71554e-11
9.49005e-10
8.12821e-11
8.88507e-10
8.69271e-11
8.20249e-10
1.00179e-10
7.50392e-10
9.97718e-11
6.75866e-10
1.08285e-10
6.00796e-10
1.07552e-10
5.22528e-10
1.13729e-10
4.43432e-10
1.14504e-10
3.63411e-10
1.17316e-10
2.87258e-10
1.11788e-10
2.19201e-10
9.99277e-11
1.68102e-10
6.61436e-11
1.28081e-10
5.20741e-11
1.00971e-10
3.52475e-11
8.9548e-11
1.48913e-11
9.54486e-11
-9.6923e-12
1.19676e-10
-3.52868e-11
1.63182e-10
-6.47622e-11
2.2134e-10
-8.59102e-11
2.87519e-10
-9.71761e-11
3.56317e-10
-1.01403e-10
4.23111e-10
-9.89616e-11
4.84336e-10
-9.11484e-11
5.37615e-10
-7.96651e-11
5.81676e-10
-6.61732e-11
6.16175e-10
-5.20809e-11
6.4149e-10
-3.84885e-11
6.58537e-10
-2.61974e-11
6.68558e-10
-1.57588e-11
6.72885e-10
-7.4078e-12
6.73037e-10
-9.192e-13
6.70748e-10
2.94674e-12
6.67055e-10
5.21414e-12
6.63063e-10
5.83973e-12
6.59605e-10
5.17911e-12
6.57266e-10
3.61463e-12
6.56322e-10
1.57167e-12
6.56854e-10
-6.53785e-13
6.58717e-10
-2.72614e-12
6.61527e-10
-4.29979e-12
6.64856e-10
-5.22414e-12
6.68179e-10
-5.45311e-12
6.70983e-10
-4.95487e-12
6.72796e-10
-3.77779e-12
6.73244e-10
-2.02272e-12
6.72067e-10
9.84625e-14
6.69091e-10
2.63191e-12
6.64222e-10
5.52842e-12
6.57236e-10
8.8463e-12
6.48086e-10
1.29196e-11
1.78051e-11
1.77932e-09
1.47377e-10
1.8289e-09
3.00103e-10
1.81502e-09
3.22508e-10
1.75852e-09
2.99819e-10
1.68171e-09
2.65859e-10
1.60025e-09
2.3009e-10
1.52183e-09
1.97953e-10
1.44955e-09
1.70444e-10
1.3844e-09
1.47149e-10
1.32631e-09
1.27547e-10
1.27476e-09
1.11038e-10
1.22904e-09
9.71111e-11
1.18842e-09
8.54093e-11
1.15216e-09
7.56372e-11
1.11957e-09
6.75558e-11
1.09001e-09
6.09831e-11
1.06289e-09
5.5772e-11
1.03764e-09
5.17926e-11
1.01378e-09
4.89298e-11
9.90844e-10
4.70823e-11
9.68414e-10
4.61598e-11
9.46109e-10
4.60821e-11
9.23582e-10
4.67829e-11
9.00516e-10
4.82114e-11
8.76618e-10
5.03368e-11
8.51612e-10
5.31499e-11
8.2524e-10
5.66584e-11
7.97262e-10
6.08853e-11
7.67462e-10
6.58681e-11
7.35659e-10
7.16408e-11
7.01741e-10
7.8191e-11
6.65682e-10
8.53994e-11
6.27752e-10
9.3055e-11
5.87542e-10
1.06104e-10
5.56982e-10
8.53727e-11
5.5045e-10
2.71338e-11
5.67835e-10
-2.40051e-11
6.06269e-10
-6.52633e-11
6.64145e-10
-1.0491e-10
7.40165e-10
-1.46447e-10
8.33559e-10
-1.9861e-10
9.3319e-10
-2.21652e-10
1.03173e-09
-2.19972e-10
1.12552e-09
-2.11026e-10
1.21174e-09
-1.94152e-10
1.29034e-09
-1.77779e-10
1.36163e-09
-1.63572e-10
1.42388e-09
-1.41538e-10
1.47871e-09
-1.27101e-10
1.52515e-09
-1.08707e-10
1.563e-09
-8.87562e-11
1.5925e-09
-7.27545e-11
1.61191e-09
-4.68803e-11
1.62225e-09
-2.96628e-11
1.62158e-09
-3.08009e-13
1.61021e-09
2.22619e-11
1.58777e-09
4.93678e-11
1.55322e-09
7.94722e-11
1.50902e-09
9.73463e-11
1.45211e-09
1.32567e-10
1.38747e-09
1.4431e-10
1.31465e-09
1.62751e-10
1.23604e-09
1.73401e-10
1.15399e-09
1.76708e-10
1.06881e-09
1.82252e-10
9.83956e-10
1.76438e-10
8.99014e-10
1.76155e-10
8.16054e-10
1.67526e-10
7.34927e-10
1.62506e-10
6.56316e-10
1.55113e-10
5.80493e-10
1.47919e-10
5.06938e-10
1.43162e-10
4.36173e-10
1.3621e-10
3.67931e-10
1.31e-10
3.02239e-10
1.25661e-10
2.39341e-10
1.19603e-10
1.79345e-10
1.13596e-10
1.22508e-10
1.0712e-10
6.90957e-11
1.00113e-10
1.92639e-11
9.29446e-11
-2.68675e-11
8.57006e-11
-6.93007e-11
7.8616e-11
-1.08144e-10
7.19514e-11
-1.43647e-10
6.59731e-11
-1.76194e-10
6.10293e-11
-2.06188e-10
5.69412e-11
-2.34055e-10
5.37348e-11
-2.60325e-10
5.19304e-11
-2.85272e-10
5.03701e-11
-3.0911e-10
4.903e-11
-3.32026e-10
4.86288e-11
-3.53922e-10
4.73624e-11
-3.74563e-10
4.55406e-11
-3.93856e-10
4.42126e-11
-4.11221e-10
4.02802e-11
-4.26477e-10
3.75348e-11
-4.38942e-10
3.13847e-11
-4.48351e-10
2.63931e-11
-4.54033e-10
1.78062e-11
-4.55604e-10
1.09389e-11
-4.52645e-10
1.94057e-13
-4.44627e-10
-9.2266e-12
-4.30669e-10
-2.07488e-11
-4.10728e-10
-3.29551e-11
-3.84464e-10
-4.46491e-11
-3.51732e-10
-5.82442e-11
-3.123e-10
-7.05409e-11
-2.66268e-10
-8.38884e-11
-2.137e-10
-9.64293e-11
-1.54984e-10
-1.08611e-10
-9.05133e-11
-1.20049e-10
-2.09845e-11
-1.30586e-10
5.29671e-11
-1.40078e-10
1.30212e-10
-1.47867e-10
2.10135e-10
-1.54486e-10
2.91301e-10
-1.58562e-10
3.72817e-10
-1.60852e-10
4.53774e-10
-1.61488e-10
5.32946e-10
-1.5939e-10
6.09583e-10
-1.558e-10
6.83027e-10
-1.50941e-10
7.52461e-10
-1.43855e-10
8.176e-10
-1.35814e-10
8.78392e-10
-1.277e-10
9.3462e-10
-1.1858e-10
9.86459e-10
-1.09677e-10
1.03415e-09
-1.01106e-10
1.07802e-09
-9.29294e-11
1.11862e-09
-8.61613e-11
1.15646e-09
-8.09177e-11
1.19164e-09
-7.45518e-11
1.22498e-09
-7.1165e-11
1.2572e-09
-7.03679e-11
1.28756e-09
-6.58096e-11
1.3173e-09
-6.57563e-11
1.34627e-09
-6.74184e-11
1.37324e-09
-6.1581e-11
1.3992e-09
-6.36272e-11
1.42262e-09
-5.84724e-11
1.44288e-09
-5.40729e-11
1.45902e-09
-4.65061e-11
1.46915e-09
-3.45032e-11
1.47236e-09
-1.92635e-11
1.46742e-09
-1.76739e-12
1.45175e-09
2.4708e-11
1.4263e-09
4.2956e-11
1.38779e-09
7.95611e-11
1.33854e-09
1.00987e-10
1.27813e-09
1.27592e-10
1.20667e-09
1.52766e-10
1.1275e-09
1.66113e-10
1.03939e-09
1.88295e-10
9.46854e-10
1.9231e-10
8.49062e-10
2.06078e-10
7.493e-10
2.07312e-10
6.46463e-10
2.16562e-10
5.42833e-10
2.18127e-10
4.39264e-10
2.20882e-10
3.40238e-10
2.1082e-10
2.48243e-10
1.91942e-10
1.75706e-10
1.38702e-10
1.21333e-10
1.06461e-10
8.79493e-11
6.86385e-11
7.86383e-11
2.42045e-11
9.64647e-11
-2.75194e-11
1.41441e-10
-8.02643e-11
2.12384e-10
-1.35706e-10
2.98054e-10
-1.71581e-10
3.88871e-10
-1.87993e-10
4.79021e-10
-1.91554e-10
5.63858e-10
-1.838e-10
6.39993e-10
-1.67284e-10
7.05277e-10
-1.44949e-10
7.58676e-10
-1.19572e-10
8.00123e-10
-9.3527e-11
8.30328e-10
-6.86941e-11
8.50582e-10
-4.64509e-11
8.62522e-10
-2.76975e-11
8.67992e-10
-1.28774e-11
8.6905e-10
-1.97652e-12
8.67197e-10
4.79947e-12
8.64136e-10
8.27583e-12
8.61119e-10
8.85655e-12
8.59095e-10
7.20381e-12
8.58657e-10
4.05262e-12
8.60093e-10
1.34987e-13
8.63312e-10
-3.87286e-12
8.67949e-10
-7.36283e-12
8.73491e-10
-9.84209e-12
8.79257e-10
-1.09909e-11
8.8457e-10
-1.07658e-11
8.88755e-10
-9.14063e-12
8.91233e-10
-6.25543e-12
8.91544e-10
-2.33467e-12
8.89452e-10
2.19011e-12
8.8485e-10
7.23369e-12
8.77821e-10
1.25583e-11
8.68594e-10
1.80722e-11
8.5773e-10
2.37843e-11
2.95992e-11
1.75096e-09
9.64167e-11
1.82382e-09
2.27245e-10
1.86377e-09
2.82557e-10
1.86898e-09
2.94603e-10
1.84899e-09
2.85848e-10
1.81225e-09
2.6683e-10
1.76661e-09
2.43594e-10
1.71775e-09
2.19311e-10
1.6691e-09
1.95797e-10
1.62248e-09
1.74163e-10
1.57882e-09
1.54698e-10
1.53845e-09
1.37486e-10
1.5013e-09
1.2256e-10
1.46712e-09
1.09811e-10
1.43559e-09
9.9088e-11
1.40632e-09
9.02579e-11
1.37889e-09
8.31954e-11
1.35291e-09
7.77731e-11
1.32797e-09
7.38661e-11
1.3037e-09
7.13575e-11
1.27972e-09
7.0139e-11
1.25569e-09
7.011e-11
1.23128e-09
7.1188e-11
1.20619e-09
7.33027e-11
1.18012e-09
7.64045e-11
1.15281e-09
8.04673e-11
1.12398e-09
8.5481e-11
1.09342e-09
9.14461e-11
1.06092e-09
9.83706e-11
1.0263e-09
1.06254e-10
9.89442e-10
1.15054e-10
9.50209e-10
1.24633e-10
9.0852e-10
1.34745e-10
8.6307e-10
1.51555e-10
8.26885e-10
1.21559e-10
8.16497e-10
3.75181e-11
8.32431e-10
-3.99506e-11
8.71958e-10
-1.0481e-10
9.32998e-10
-1.65976e-10
1.0126e-09
-2.26064e-10
1.10782e-09
-2.93838e-10
1.20731e-09
-3.21112e-10
1.30535e-09
-3.17976e-10
1.39809e-09
-3.03727e-10
1.48294e-09
-2.78968e-10
1.55989e-09
-2.5471e-10
1.62924e-09
-2.32918e-10
1.6899e-09
-2.02191e-10
1.74288e-09
-1.8009e-10
1.78756e-09
-1.53395e-10
1.82383e-09
-1.25039e-10
1.8516e-09
-1.00531e-10
1.87001e-09
-6.52988e-11
1.87937e-09
-3.90357e-11
1.87861e-09
4.54274e-13
1.86767e-09
3.32062e-11
1.84619e-09
7.08505e-11
1.81338e-09
1.12277e-10
1.7706e-09
1.40128e-10
1.71578e-09
1.8739e-10
1.65193e-09
2.08163e-10
1.57877e-09
2.35924e-10
1.4981e-09
2.54078e-10
1.41164e-09
2.63179e-10
1.32027e-09
2.73626e-10
1.22673e-09
2.69972e-10
1.1313e-09
2.71561e-10
1.03625e-09
2.62541e-10
9.41809e-10
2.56908e-10
8.49015e-10
2.47869e-10
7.5861e-10
2.38298e-10
6.70258e-10
2.31501e-10
5.84886e-10
2.21586e-10
5.0233e-10
2.13574e-10
4.22715e-10
2.05305e-10
3.46516e-10
1.95838e-10
2.73836e-10
1.86314e-10
2.04931e-10
1.76061e-10
1.4022e-10
1.64855e-10
7.9971e-11
1.53219e-10
2.4288e-11
1.41403e-10
-2.66879e-11
1.29606e-10
-7.29634e-11
1.18236e-10
-1.14659e-10
1.07673e-10
-1.52e-10
9.83697e-11
-1.85471e-10
9.04105e-11
-2.15562e-10
8.3823e-11
-2.42609e-10
7.89729e-11
-2.67261e-10
7.50189e-11
-2.89941e-10
7.17068e-11
-3.10608e-10
6.92939e-11
-3.29625e-10
6.63775e-11
-3.46914e-10
6.2828e-11
-3.61974e-10
5.92718e-11
-3.75058e-10
5.33644e-11
-3.85092e-10
4.7569e-11
-3.92412e-10
3.87052e-11
-3.95718e-10
2.96996e-11
-3.95349e-10
1.74379e-11
-3.89624e-10
5.21537e-12
-3.79231e-10
-1.01981e-11
-3.62525e-10
-2.59316e-11
-3.39564e-10
-4.37097e-11
-3.09956e-10
-6.25621e-11
-2.7272e-10
-8.18843e-11
-2.28541e-10
-1.02423e-10
-1.76375e-10
-1.22707e-10
-1.17113e-10
-1.43151e-10
-5.06817e-11
-1.62862e-10
2.22454e-11
-1.8154e-10
1.00993e-10
-1.98799e-10
1.84513e-10
-2.1411e-10
2.71876e-10
-2.27445e-10
3.61358e-10
-2.37353e-10
4.52616e-10
-2.45749e-10
5.43597e-10
-2.49549e-10
6.3347e-10
-2.50732e-10
7.21296e-10
-2.49323e-10
8.05764e-10
-2.43867e-10
8.86289e-10
-2.36335e-10
9.62411e-10
-2.27073e-10
1.03348e-09
-2.14932e-10
1.09944e-09
-2.0179e-10
1.16042e-09
-1.88691e-10
1.21642e-09
-1.74593e-10
1.2678e-09
-1.61062e-10
1.31492e-09
-1.48233e-10
1.35823e-09
-1.36246e-10
1.39833e-09
-1.26244e-10
1.43567e-09
-1.18243e-10
1.47052e-09
-1.09369e-10
1.50347e-09
-1.04056e-10
1.53513e-09
-1.01964e-10
1.56487e-09
-9.54606e-11
1.59366e-09
-9.44427e-11
1.62099e-09
-9.46344e-11
1.64624e-09
-8.67314e-11
1.66952e-09
-8.68299e-11
1.68988e-09
-7.87887e-11
1.70635e-09
-7.05314e-11
1.71828e-09
-5.84616e-11
1.72392e-09
-4.01968e-11
1.72271e-09
-1.81318e-11
1.71305e-09
7.81511e-12
1.69365e-09
4.40612e-11
1.66416e-09
7.24151e-11
1.62268e-09
1.21047e-10
1.56993e-09
1.53762e-10
1.50583e-09
1.91715e-10
1.43e-09
2.28622e-10
1.34502e-09
2.51112e-10
1.24974e-09
2.83582e-10
1.14816e-09
2.93891e-10
1.03974e-09
3.14497e-10
9.28104e-10
3.18951e-10
8.12831e-10
3.3183e-10
6.96975e-10
3.33977e-10
5.81913e-10
3.35943e-10
4.73151e-10
3.19588e-10
3.71103e-10
2.94006e-10
2.96683e-10
2.13138e-10
2.46259e-10
1.56894e-10
2.22471e-10
9.24296e-11
2.28259e-10
1.84152e-11
2.67768e-10
-6.70298e-11
3.38191e-10
-1.5069e-10
4.36207e-10
-2.33723e-10
5.43861e-10
-2.79236e-10
6.50202e-10
-2.94336e-10
7.50797e-10
-2.9215e-10
8.42286e-10
-2.7529e-10
9.22372e-10
-2.47372e-10
9.89793e-10
-2.12371e-10
1.04422e-09
-1.73998e-10
1.0861e-09
-1.35411e-10
1.11652e-09
-9.91178e-11
1.13703e-09
-6.69518e-11
1.14943e-09
-4.00978e-11
1.15569e-09
-1.91446e-11
1.15788e-09
-4.16112e-12
1.1576e-09
5.07789e-12
1.15655e-09
9.332e-12
1.15596e-09
9.44596e-12
1.15674e-09
6.41804e-12
1.15941e-09
1.38351e-12
1.16414e-09
-4.59019e-12
1.17074e-09
-1.04758e-11
1.17877e-09
-1.53945e-11
1.18761e-09
-1.86762e-11
1.1964e-09
-1.9787e-11
1.20447e-09
-1.88365e-11
1.21102e-09
-1.56837e-11
1.21538e-09
-1.06214e-11
1.21714e-09
-4.09649e-12
1.21598e-09
3.35319e-12
1.21192e-09
1.12955e-11
1.20518e-09
1.9291e-11
1.19627e-09
2.6986e-11
1.18595e-09
3.41079e-11
4.08071e-11
1.73229e-09
6.41267e-11
1.79567e-09
1.63862e-10
1.85567e-09
2.22553e-10
1.89883e-09
2.51448e-10
1.92318e-09
2.61491e-10
1.93084e-09
2.59178e-10
1.92585e-09
2.48579e-10
1.91235e-09
2.32809e-10
1.89341e-09
2.14736e-10
1.8713e-09
1.96276e-10
1.84777e-09
1.78232e-10
1.82386e-09
1.61399e-10
1.80012e-09
1.46292e-10
1.77688e-09
1.33051e-10
1.75427e-09
1.21702e-10
1.73228e-09
1.1225e-10
1.71082e-09
1.04653e-10
1.68975e-09
9.88411e-11
1.66889e-09
9.47246e-11
1.64804e-09
9.22122e-11
1.62696e-09
9.12142e-11
1.60544e-09
9.16318e-11
1.58322e-09
9.34021e-11
1.56007e-09
9.64559e-11
1.53573e-09
1.00745e-10
1.50995e-09
1.06245e-10
1.48249e-09
1.12943e-10
1.4531e-09
1.20831e-10
1.42157e-09
1.29905e-10
1.38767e-09
1.40154e-10
1.35118e-09
1.51537e-10
1.31186e-09
1.63961e-10
1.26932e-09
1.77278e-10
1.2217e-09
1.99183e-10
1.18121e-09
1.62047e-10
1.16396e-09
5.47665e-11
1.17139e-09
-4.739e-11
1.20196e-09
-1.35395e-10
1.25368e-09
-2.17719e-10
1.3229e-09
-2.95313e-10
1.40615e-09
-3.77102e-10
1.49316e-09
-4.08121e-10
1.5798e-09
-4.04594e-10
1.66184e-09
-3.85726e-10
1.73671e-09
-3.5381e-10
1.80446e-09
-3.22439e-10
1.86544e-09
-2.9388e-10
1.91887e-09
-2.55627e-10
1.96542e-09
-2.26642e-10
2.00491e-09
-1.9289e-10
2.03705e-09
-1.57185e-10
2.06172e-09
-1.2521e-10
2.07869e-09
-8.22765e-11
2.08785e-09
-4.81985e-11
2.08874e-09
-4.37861e-13
2.08107e-09
4.08711e-11
2.06461e-09
8.73132e-11
2.03861e-09
1.38281e-10
2.00362e-09
1.75119e-10
1.95808e-09
2.32935e-10
1.9036e-09
2.62645e-10
1.8396e-09
2.99932e-10
1.76725e-09
3.26444e-10
1.68748e-09
3.42952e-10
1.60117e-09
3.59937e-10
1.51037e-09
3.60763e-10
1.41572e-09
3.66192e-10
1.31936e-09
3.58874e-10
1.22197e-09
3.54265e-10
1.12481e-09
3.45001e-10
1.0291e-09
3.33995e-10
9.34689e-10
3.25917e-10
8.43011e-10
3.13275e-10
7.53981e-10
3.02626e-10
6.67856e-10
2.91457e-10
5.85332e-10
2.78391e-10
5.06446e-10
2.65227e-10
4.31464e-10
2.51064e-10
3.60886e-10
2.3545e-10
2.9505e-10
2.19067e-10
2.341e-10
2.0236e-10
1.78336e-10
1.85373e-10
1.27788e-10
1.68783e-10
8.24367e-11
1.53021e-10
4.22751e-11
1.38526e-10
6.82054e-12
1.25859e-10
-2.43963e-11
1.15034e-10
-5.14182e-11
1.0599e-10
-7.51973e-11
9.8794e-11
-9.62449e-11
9.27514e-11
-1.14416e-10
8.74629e-11
-1.30444e-10
8.24038e-11
-1.44496e-10
7.688e-11
-1.55717e-10
7.04924e-11
-1.65038e-10
6.26865e-11
-1.70643e-10
5.31741e-11
-1.73562e-10
4.16256e-11
-1.71718e-10
2.78558e-11
-1.66099e-10
1.18201e-11
-1.54159e-10
-6.72381e-12
-1.37056e-10
-2.73008e-11
-1.12668e-10
-5.03179e-11
-8.13333e-11
-7.50441e-11
-4.25509e-11
-1.01344e-10
4.80181e-12
-1.29237e-10
5.94572e-11
-1.57078e-10
1.2263e-10
-1.85881e-10
1.92809e-10
-2.1333e-10
2.69844e-10
-2.39898e-10
3.52746e-10
-2.64443e-10
4.40304e-10
-2.86359e-10
5.3126e-10
-3.05068e-10
6.24413e-10
-3.20601e-10
7.17801e-10
-3.30745e-10
8.111e-10
-3.39053e-10
9.02082e-10
-3.40537e-10
9.90041e-10
-3.38698e-10
1.0742e-09
-3.33486e-10
1.15343e-09
-3.23107e-10
1.22746e-09
-3.10373e-10
1.29616e-09
-2.95787e-10
1.35918e-09
-2.77964e-10
1.41681e-09
-2.59433e-10
1.46939e-09
-2.41296e-10
1.5172e-09
-2.2242e-10
1.56076e-09
-2.04645e-10
1.60057e-09
-1.8806e-10
1.63716e-09
-1.72854e-10
1.67111e-09
-1.60211e-10
1.70286e-09
-1.50005e-10
1.7327e-09
-1.39201e-10
1.76099e-09
-1.32334e-10
1.7883e-09
-1.29235e-10
1.81394e-09
-1.21054e-10
1.8387e-09
-1.19128e-10
1.86185e-09
-1.17701e-10
1.88322e-09
-1.08007e-10
1.90236e-09
-1.05879e-10
1.91879e-09
-9.516e-11
1.93144e-09
-8.31334e-11
1.93999e-09
-6.70102e-11
1.9429e-09
-4.31325e-11
1.93994e-09
-1.52207e-11
1.92951e-09
1.81795e-11
1.91106e-09
6.24582e-11
1.88361e-09
9.98334e-11
1.84611e-09
1.58538e-10
1.79817e-09
2.01712e-10
1.73974e-09
2.50163e-10
1.6698e-09
2.9859e-10
1.59025e-09
3.30679e-10
1.49954e-09
3.74307e-10
1.40112e-09
3.92306e-10
1.29412e-09
4.21504e-10
1.18242e-09
4.30641e-10
1.06575e-09
4.48502e-10
9.4791e-10
4.51812e-10
8.31087e-10
4.52766e-10
7.23406e-10
4.27276e-10
6.23701e-10
3.93722e-10
5.60541e-10
2.76306e-10
5.26027e-10
1.91412e-10
5.21676e-10
9.678e-11
5.48705e-10
-8.6159e-12
6.11521e-10
-1.2985e-10
7.03692e-10
-2.42864e-10
8.20312e-10
-3.50345e-10
9.39409e-10
-3.98334e-10
1.05062e-09
-4.05548e-10
1.15134e-09
-3.92875e-10
1.23983e-09
-3.63774e-10
1.31515e-09
-3.22699e-10
1.37714e-09
-2.74359e-10
1.42626e-09
-2.2312e-10
1.46351e-09
-1.72663e-10
1.49028e-09
-1.25888e-10
1.50823e-09
-8.49031e-11
1.51918e-09
-5.10488e-11
1.525e-09
-2.49617e-11
1.5275e-09
-6.66722e-12
1.52829e-09
4.29168e-12
1.52879e-09
8.82911e-12
1.53012e-09
8.12138e-12
1.53304e-09
3.49577e-12
1.53796e-09
-3.53077e-12
1.54497e-09
-1.15996e-11
1.55385e-09
-1.93628e-11
1.56416e-09
-2.56994e-11
1.57525e-09
-2.97673e-11
1.58626e-09
-3.07944e-11
1.59651e-09
-2.90953e-11
1.6052e-09
-2.43698e-11
1.61165e-09
-1.70751e-11
1.61539e-09
-7.82999e-12
1.61611e-09
2.62653e-12
1.61384e-09
1.3571e-11
1.60883e-09
2.43012e-11
1.60162e-09
3.41968e-11
1.59298e-09
4.27479e-11
5.04112e-11
1.72129e-09
4.28346e-11
1.77097e-09
1.14177e-10
1.83015e-09
1.63375e-10
1.88677e-09
1.94826e-10
1.93501e-09
2.1325e-10
1.97312e-09
2.21067e-10
2.00122e-09
2.20478e-10
2.02002e-09
2.14014e-10
2.03113e-09
2.03625e-10
2.03656e-09
1.90844e-10
2.0376e-09
1.772e-10
2.03523e-09
1.63763e-10
2.03026e-09
1.51263e-10
2.02334e-09
1.39968e-10
2.01492e-09
1.30125e-10
2.00529e-09
1.21883e-10
1.99464e-09
1.15304e-10
1.98308e-09
1.10394e-10
1.97068e-09
1.0713e-10
1.95741e-09
1.05477e-10
1.94323e-09
1.05391e-10
1.92808e-09
1.06786e-10
1.91181e-09
1.09668e-10
1.89429e-09
1.13978e-10
1.87534e-09
1.19697e-10
1.85476e-09
1.26827e-10
1.83233e-09
1.35371e-10
1.80782e-09
1.45337e-10
1.78099e-09
1.56731e-10
1.75159e-09
1.69559e-10
1.71932e-09
1.8381e-10
1.68383e-09
1.99449e-10
1.64464e-09
2.16467e-10
1.59987e-09
2.43958e-10
1.55912e-09
2.02791e-10
1.53569e-09
7.82001e-11
1.53242e-09
-4.41202e-11
1.5497e-09
-1.52682e-10
1.58611e-09
-2.54155e-10
1.638e-09
-3.4723e-10
1.70205e-09
-4.4119e-10
1.77025e-09
-4.76328e-10
1.83998e-09
-4.74317e-10
1.90649e-09
-4.52207e-10
1.96716e-09
-4.14459e-10
2.022e-09
-3.77254e-10
2.07135e-09
-3.43216e-10
2.11474e-09
-2.99007e-10
2.15241e-09
-2.6432e-10
2.18479e-09
-2.25271e-10
2.21133e-09
-1.83736e-10
2.23201e-09
-1.4589e-10
2.2471e-09
-9.73704e-11
2.25623e-09
-5.73296e-11
2.25952e-09
-3.73897e-12
2.25653e-09
4.38658e-11
2.24721e-09
9.66298e-11
2.23091e-09
1.54589e-10
2.20758e-09
1.98449e-10
2.17615e-09
2.64371e-10
2.13706e-09
3.01735e-10
2.08947e-09
3.47534e-10
2.03382e-09
3.82093e-10
1.97025e-09
4.06529e-10
1.89939e-09
4.30794e-10
1.8224e-09
4.37749e-10
1.73994e-09
4.48636e-10
1.65372e-09
4.45071e-10
1.56471e-09
4.43261e-10
1.47413e-09
4.35564e-10
1.38352e-09
4.24604e-10
1.29289e-09
4.1655e-10
1.20409e-09
4.02097e-10
1.11717e-09
3.89561e-10
1.03256e-09
3.76093e-10
9.51117e-10
3.59852e-10
8.72857e-10
3.43502e-10
7.98048e-10
3.25883e-10
7.27189e-10
3.06313e-10
6.60646e-10
2.8561e-10
5.98462e-10
2.64543e-10
5.4101e-10
2.42821e-10
4.88396e-10
2.2139e-10
4.40708e-10
2.007e-10
3.98174e-10
1.81051e-10
3.60435e-10
1.63589e-10
3.27137e-10
1.48324e-10
2.98585e-10
1.34537e-10
2.7369e-10
1.23686e-10
2.52017e-10
1.14422e-10
2.33759e-10
1.0572e-10
2.18054e-10
9.81078e-11
2.04482e-10
9.04517e-11
1.94191e-10
8.07845e-11
1.85766e-10
7.11123e-11
1.81593e-10
5.73472e-11
1.80214e-10
4.3006e-11
1.84314e-10
2.37565e-11
1.92551e-10
3.58387e-12
2.08266e-10
-2.24377e-11
2.29761e-10
-4.87955e-11
2.59681e-10
-8.02371e-11
2.97343e-10
-1.12706e-10
3.43262e-10
-1.47261e-10
3.98348e-10
-1.84323e-10
4.60942e-10
-2.19671e-10
5.31951e-10
-2.56889e-10
6.0942e-10
-2.90799e-10
6.92724e-10
-3.23203e-10
7.80545e-10
-3.52265e-10
8.71195e-10
-3.7701e-10
9.6327e-10
-3.97145e-10
1.05529e-09
-4.12627e-10
1.14533e-09
-4.20786e-10
1.233e-09
-4.26728e-10
1.31627e-09
-4.23804e-10
1.3946e-09
-4.1704e-10
1.46752e-09
-4.06413e-10
1.53429e-09
-3.89883e-10
1.59499e-09
-3.7108e-10
1.64989e-09
-3.50693e-10
1.699e-09
-3.27082e-10
1.74294e-09
-3.03392e-10
1.78229e-09
-2.80661e-10
1.81754e-09
-2.57687e-10
1.84935e-09
-2.36483e-10
1.87831e-09
-2.17042e-10
1.90498e-09
-1.99562e-10
1.92992e-09
-1.85175e-10
1.95345e-09
-1.73564e-10
1.97582e-09
-1.61591e-10
1.99726e-09
-1.53793e-10
2.0182e-09
-1.50172e-10
2.0379e-09
-1.40742e-10
2.05702e-09
-1.3821e-10
2.0747e-09
-1.35328e-10
2.09114e-09
-1.24374e-10
2.10549e-09
-1.20156e-10
2.11776e-09
-1.07361e-10
2.12685e-09
-9.21586e-11
2.1328e-09
-7.2939e-11
2.13433e-09
-4.46535e-11
2.13155e-09
-1.24632e-11
2.123e-09
2.66879e-11
2.10872e-09
7.66922e-11
2.08739e-09
1.21131e-10
2.05874e-09
1.87171e-10
2.02149e-09
2.38972e-10
1.97564e-09
2.96029e-10
1.91962e-09
3.54631e-10
1.85466e-09
3.95655e-10
1.77874e-09
4.50236e-10
1.69448e-09
4.76575e-10
1.60047e-09
5.15512e-10
1.5003e-09
5.30813e-10
1.39341e-09
5.55383e-10
1.28383e-09
5.61393e-10
1.17474e-09
5.61856e-10
1.07767e-09
5.24347e-10
9.90326e-10
4.81077e-10
9.44814e-10
3.21822e-10
9.3062e-10
2.05607e-10
9.47597e-10
7.9801e-11
9.95122e-10
-5.61448e-11
1.07615e-09
-2.10881e-10
1.18121e-09
-3.47931e-10
1.30369e-09
-4.72822e-10
1.42177e-09
-5.16419e-10
1.52701e-09
-5.10795e-10
1.61849e-09
-4.84355e-10
1.69587e-09
-4.41152e-10
1.75947e-09
-3.86301e-10
1.8101e-09
-3.24991e-10
1.84893e-09
-2.61959e-10
1.87742e-09
-2.01145e-10
1.89714e-09
-1.45613e-10
1.90979e-09
-9.75551e-11
1.91707e-09
-5.83244e-11
1.92061e-09
-2.85034e-11
1.92194e-09
-7.99851e-12
1.92239e-09
3.8381e-12
1.9231e-09
8.12803e-12
1.92491e-09
6.30707e-12
1.92839e-09
1.64163e-14
1.93387e-09
-9.00522e-12
1.94134e-09
-1.90732e-11
1.9506e-09
-2.86225e-11
1.96123e-09
-3.63244e-11
1.97259e-09
-4.11365e-11
1.98408e-09
-4.22817e-11
1.99491e-09
-3.99255e-11
2.00441e-09
-3.38708e-11
2.01196e-09
-2.46218e-11
2.01707e-09
-1.2941e-11
2.01945e-09
2.48887e-13
2.01904e-09
1.39735e-11
2.01606e-09
2.72825e-11
2.01095e-09
3.93131e-11
2.00434e-09
4.93504e-11