/*--------------------------------*- C++ -*----------------------------------*\
| =========                 |                                                 |
| \\      /  F ield         | OpenFOAM: The Open Source CFD Toolbox           |
|  \\    /   O peration     | Version:  2506                                  |
|   \\  /    A nd           | Website:  www.openfoam.com                      |
|    \\/     M anipulation  |                                                 |
\*---------------------------------------------------------------------------*/
FoamFile
{
    version     2.0;
    format      ascii;
    arch        "LSB;label=32;scalar=64";
    class       volVectorField;
    location    "2.4";
    object      U;
}
// * * * * * * * * * * * * * * * * * * * * * * * * * * * * * * * * * * * * * //

dimensions      [0 1 -1 0 0 0 0];

internalField   nonuniform List<vector> 
4000
(
(0.00262977 0.000336775 0)
(0.00238932 0.000330912 -4.39871e-21)
(0.00181709 0.000179462 4.47721e-21)
(0.00133417 0.000102277 8.95653e-21)
(0.00101075 6.63757e-05 -1.80257e-20)
(0.00077355 4.56869e-05 9.04841e-21)
(0.000591021 3.3567e-05 0)
(0.000446759 2.64885e-05 0)
(0.000329934 2.21317e-05 0)
(0.00023325 1.92791e-05 1.79072e-20)
(0.000152294 1.73216e-05 -1.79455e-20)
(8.37735e-05 1.59384e-05 3.56011e-20)
(2.53763e-05 1.49932e-05 -3.56551e-20)
(-2.47505e-05 1.43843e-05 0)
(-6.80908e-05 1.40304e-05 0)
(-0.000105896 1.38845e-05 0)
(-0.000139218 1.39257e-05 3.46924e-20)
(-0.000168974 1.41287e-05 -3.46665e-20)
(-0.000195958 1.44698e-05 0)
(-0.000220851 1.49272e-05 0)
(-0.000244227 1.54843e-05 0)
(-0.000266573 1.61335e-05 0)
(-0.000288249 1.6854e-05 0)
(-0.000309559 1.76201e-05 6.67121e-20)
(-0.000330756 1.83707e-05 -1.33017e-19)
(-0.00035204 1.90924e-05 6.63043e-20)
(-0.000373546 1.98104e-05 0)
(-0.000395338 2.05527e-05 0)
(-0.000417303 2.1289e-05 0)
(-0.000439065 2.18028e-05 0)
(-0.000459898 2.15799e-05 -6.4234e-20)
(-0.00047807 2.02432e-05 6.42065e-20)
(-0.000488765 1.71023e-05 0)
(-0.000471863 7.72195e-06 5.54521e-20)
(-0.000423448 -2.13847e-05 6.29931e-20)
(-0.000373398 -6.62011e-05 -3.16525e-19)
(-0.000327509 -0.000109064 -2.53324e-19)
(-0.000270214 -0.000139379 6.36471e-20)
(-0.000198584 -0.000153212 -2.54426e-19)
(-0.000116045 -0.000149069 -5.724e-19)
(-2.54087e-05 -0.000126501 6.37027e-20)
(7.83017e-05 -8.09918e-05 5.06621e-19)
(0.000197942 -1.5851e-05 -5.04225e-19)
(0.000323823 5.59648e-05 0)
(0.000448188 0.000125446 0)
(0.000565427 0.000187892 -3.09226e-20)
(0.000674841 0.000240883 -4.62133e-19)
(0.000773706 0.000282232 -4.60523e-19)
(0.000859288 0.000311026 -2.75055e-19)
(0.000934074 0.000326213 -2.42533e-19)
(0.00099286 0.000327786 2.40657e-19)
(0.00103696 0.000317471 0)
(0.00106382 0.000295105 -2.95411e-20)
(0.00107103 0.000262941 5.01032e-19)
(0.00105837 0.00022391 0)
(0.00102352 0.000181877 -1.15828e-19)
(0.000970783 0.000139213 -2.8492e-20)
(0.000896564 9.88959e-05 -5.9002e-24)
(0.000808199 6.55004e-05 -3.65918e-22)
(0.000704161 4.18358e-05 -1.421e-20)
(0.000590573 3.08247e-05 2.71746e-20)
(0.000474467 3.37114e-05 0)
(0.000357522 4.8619e-05 0)
(0.0002446 7.45181e-05 5.19217e-20)
(0.000136727 0.000109522 3.59789e-19)
(3.64719e-05 0.000151599 5.022e-20)
(-5.75275e-05 0.000199143 -5.03725e-20)
(-0.000143322 0.000249978 4.83324e-20)
(-0.000223363 0.000303403 1.42726e-19)
(-0.000296657 0.000357115 -3.27667e-19)
(-0.00036603 0.000411502 -4.61825e-20)
(-0.000430289 0.000464549 1.03714e-21)
(-0.000489625 0.000515679 0)
(-0.000546213 0.000564709 0)
(-0.000597196 0.000609615 0)
(-0.000644129 0.00065029 -2.10809e-20)
(-0.000687185 0.000686274 -3.13189e-19)
(-0.000724056 0.000716162 0)
(-0.000755748 0.000740082 8.50853e-22)
(-0.000783522 0.000758604 2.00282e-20)
(-0.000806824 0.000771512 -3.1813e-19)
(-0.000826445 0.000779168 2.85631e-19)
(-0.000843348 0.000782177 6.9748e-23)
(-0.000858125 0.000780902 3.12458e-19)
(-0.000872487 0.000776287 1.75693e-21)
(-0.000886754 0.000768596 -2.98717e-19)
(-0.000900335 0.000757274 -3.00208e-19)
(-0.000916045 0.000743382 3.02115e-19)
(-0.000933709 0.000727134 -4.5681e-21)
(-0.000950458 0.000706757 -2.88338e-19)
(-0.000969801 0.000683129 0)
(-0.000990705 0.000656423 -2.90715e-19)
(-0.0010096 0.000624607 -2.70041e-19)
(-0.0010306 0.000588686 2.75681e-19)
(-0.00104968 0.000547907 -1.53382e-19)
(-0.00106856 0.000501799 1.68713e-20)
(-0.0010857 0.000451187 1.33326e-19)
(-0.00110031 0.000395118 1.64347e-20)
(-0.00111105 0.000334834 1.14201e-19)
(-0.00111917 0.000269829 8.07499e-20)
(-0.00112465 0.00020245 -3.20498e-20)
(-0.00112447 0.000131946 7.95776e-20)
(-0.00112282 6.09305e-05 -7.92533e-21)
(-0.00111387 -9.9266e-06 -7.89048e-21)
(-0.00110222 -7.97955e-05 -3.14155e-20)
(-0.00108557 -0.000146648 0)
(-0.00106296 -0.000210566 0)
(-0.00103763 -0.00026915 -2.47108e-19)
(-0.00100503 -0.000321544 -7.86045e-21)
(-0.000968688 -0.000367202 1.29979e-19)
(-0.000926762 -0.000405071 1.26187e-19)
(-0.00087917 -0.000434464 3.94746e-21)
(-0.000826299 -0.000455166 -1.30915e-19)
(-0.000767256 -0.000466362 -1.9801e-22)
(-0.000702119 -0.000468823 0)
(-0.000633652 -0.000462129 2.55117e-19)
(-0.000558067 -0.000445851 -7.95451e-21)
(-0.000478515 -0.000421812 -2.38877e-19)
(-0.000395207 -0.000390101 -8.0031e-21)
(-0.000308032 -0.000351424 -2.55004e-19)
(-0.000219187 -0.000307629 -7.00443e-22)
(-0.000129655 -0.000259518 2.53881e-19)
(-3.99582e-05 -0.000208177 1.57377e-20)
(4.84043e-05 -0.000155178 -2.82681e-19)
(0.00013455 -0.000101816 1.56373e-20)
(0.000217714 -4.92201e-05 2.46599e-19)
(0.000297199 1.5067e-06 3.03341e-20)
(0.000372467 4.94341e-05 -3.03671e-20)
(0.000443238 9.36903e-05 2.3883e-19)
(0.000510163 0.000133677 -2.05685e-19)
(0.000573386 0.000167957 -2.93677e-20)
(0.00063115 0.000196718 -4.31099e-19)
(0.000685378 0.000220053 -2.86576e-20)
(0.000736418 0.000237267 -2.24525e-19)
(0.000781915 0.000248588 1.13818e-21)
(0.000824895 0.000254276 0)
(0.000864645 0.00025293 0)
(0.00089717 0.000245644 -5.44655e-22)
(0.000925972 0.00023139 0)
(0.00094549 0.000210526 -2.53898e-20)
(0.000956283 0.000183392 -7.49871e-20)
(0.000955338 0.000150527 -2.44805e-20)
(0.0009395 0.000112763 -4.82575e-20)
(0.000907007 7.26328e-05 -2.4166e-20)
(0.000854466 3.3434e-05 -6.95728e-20)
(0.00078348 -2.83172e-07 2.29851e-20)
(0.00069435 -2.71032e-05 0)
(0.000587724 -4.26308e-05 0)
(0.000471256 -4.57702e-05 0)
(0.000346458 -3.52068e-05 -1.99983e-20)
(0.000219156 -1.124e-05 2.00402e-20)
(9.30087e-05 2.66037e-05 7.61872e-20)
(-2.92745e-05 7.50318e-05 7.34577e-20)
(-0.000146735 0.000134801 0)
(-0.0002603 0.00020123 -6.77789e-20)
(-0.000372857 0.00027598 0)
(-0.000486432 0.00035425 -1.513e-20)
(-0.000597819 0.000432722 7.54537e-20)
(-0.000681522 0.000486009 -1.43343e-20)
(-0.000706684 0.000476789 2.40473e-19)
(-0.000765148 0.000425778 -5.4944e-20)
(-0.000871925 0.000390261 -5.36423e-20)
(-0.000940237 0.000336582 0)
(-0.000980049 0.000264987 0)
(-0.00100167 0.000181536 0)
(-0.00101451 9.89231e-05 0)
(-0.00103113 2.93609e-05 0)
(-0.00103166 -7.62211e-06 1.12666e-20)
(-0.00097134 -2.27371e-05 -2.9665e-22)
(-0.000873005 -3.04102e-05 -3.10883e-22)
(-0.000762868 -3.423e-05 -1.0773e-20)
(-0.000654964 -3.50046e-05 0)
(-0.000558394 -3.36889e-05 9.78911e-21)
(-0.000478386 -3.11957e-05 -9.79969e-21)
(-0.000416995 -2.81685e-05 2.88981e-22)
(-0.000374201 -2.49484e-05 0)
(-0.000348251 -2.1396e-05 0)
(-0.000336126 -1.78478e-05 -7.94376e-21)
(-0.000335181 -1.48953e-05 7.93628e-21)
(-0.000342487 -1.21849e-05 0)
(-0.000354596 -9.98062e-06 0)
(-0.000368849 -8.40406e-06 -2.9988e-21)
(-0.000383003 -7.4242e-06 1.8352e-22)
(-0.000395305 -6.95006e-06 3.01283e-21)
(-0.000404564 -6.84774e-06 0)
(-0.000410137 -6.92008e-06 0)
(-0.000411988 -6.85849e-06 0)
(-0.000410605 -6.84298e-06 0)
(-0.000406918 -6.87663e-06 1.25875e-22)
(-0.00040203 -6.79741e-06 0)
(-0.000397108 -6.53619e-06 0)
(-0.000393326 -6.057e-06 0)
(-0.000391727 -5.22101e-06 6.117e-22)
(-0.000393053 -4.12653e-06 -6.10964e-22)
(-0.000397815 -2.90486e-06 0)
(-0.000406378 -1.53696e-06 4.88378e-23)
(-0.000418896 -3.48591e-08 1.2969e-22)
(-0.000437014 1.8306e-06 -8.65697e-23)
(-0.00046662 5.96711e-06 -4.28203e-23)
(-0.000502883 1.35589e-05 0)
(0.0034433 0.000727316 0)
(0.00359603 0.000975603 0)
(0.00319765 0.000816049 0)
(0.0026552 0.000632771 9.54536e-21)
(0.00215918 0.000487093 -1.93366e-20)
(0.00172436 0.000378648 9.77594e-21)
(0.00135021 0.000299703 0)
(0.00103238 0.000242155 1.9679e-20)
(0.000762704 0.000199252 -1.98455e-20)
(0.000532597 0.000166249 1.979e-20)
(0.000336105 0.000140175 -1.99114e-20)
(0.000167121 0.000119173 -3.96374e-20)
(2.13372e-05 0.000102017 3.97751e-20)
(-0.000104838 8.79421e-05 3.93679e-20)
(-0.000214499 7.64436e-05 -1.93828e-22)
(-0.000310691 6.71603e-05 -7.7757e-20)
(-0.000395923 5.97887e-05 3.8699e-20)
(-0.000472413 5.40587e-05 0)
(-0.000542072 4.97285e-05 0)
(-0.000606541 4.65773e-05 0)
(-0.000667213 4.44004e-05 0)
(-0.000725241 4.30103e-05 0)
(-0.000781378 4.22375e-05 0)
(-0.000836526 4.1902e-05 0)
(-0.000890981 4.18021e-05 0)
(-0.000944923 4.18097e-05 0)
(-0.000998463 4.18012e-05 0)
(-0.0010515 4.15607e-05 0)
(-0.00110319 4.06888e-05 0)
(-0.0011526 3.83598e-05 0)
(-0.00119769 3.29259e-05 -7.03674e-20)
(-0.00123471 2.09831e-05 3.15895e-22)
(-0.00125714 -3.05027e-06 1.39665e-19)
(-0.00125081 -4.86187e-05 -6.0948e-20)
(-0.00120607 -0.000136779 -6.90711e-20)
(-0.00112571 -0.000257731 2.07735e-19)
(-0.0010105 -0.000371534 -2.78392e-19)
(-0.000860719 -0.000450831 -7.01083e-20)
(-0.000679242 -0.000481356 7.09951e-19)
(-0.000473085 -0.000458141 2.15931e-19)
(-0.000243063 -0.000377645 0)
(7.60391e-06 -0.000240862 7.28356e-20)
(0.000270283 -7.10079e-05 4.36576e-19)
(0.000531629 0.000105671 7.26845e-20)
(0.000782037 0.000273934 5.75691e-19)
(0.00101513 0.000424222 -5.72506e-19)
(0.00123063 0.00055123 1.62599e-21)
(0.00142298 0.000650624 0)
(0.00158866 0.000719978 -2.82387e-19)
(0.00172936 0.000758795 0)
(0.00183866 0.000767014 -6.85999e-22)
(0.00191685 0.000747101 0)
(0.00195742 0.000699884 -2.75599e-19)
(0.00195844 0.000631172 -2.74192e-19)
(0.00191733 0.000546499 0)
(0.0018296 0.000452306 9.7798e-23)
(0.00169881 0.00035534 1.34004e-19)
(0.00152062 0.000262953 3.30244e-20)
(0.00130696 0.000183726 6.55606e-20)
(0.00105615 0.000126416 -1.65399e-20)
(0.000778511 9.48009e-05 0)
(0.000487725 9.514e-05 1.28627e-19)
(0.000188952 0.000125877 -6.4171e-20)
(-0.000106462 0.000185481 -1.2524e-19)
(-0.000392807 0.000271862 -3.67307e-19)
(-0.000664039 0.000378831 -6.01257e-20)
(-0.000917815 0.000504403 2.90847e-19)
(-0.00115275 0.000640569 -5.72968e-20)
(-0.00136823 0.000786156 0)
(-0.00156569 0.000935243 5.40413e-20)
(-0.00174706 0.00108617 -5.34112e-20)
(-0.00191163 0.00123502 2.26074e-21)
(-0.0020611 0.00137813 0)
(-0.00219737 0.00151429 -3.9908e-19)
(-0.00231823 0.00163962 -3.90986e-19)
(-0.00242549 0.00175213 2.37815e-20)
(-0.00251977 0.00185002 -2.35502e-20)
(-0.00259883 0.00193122 2.29137e-20)
(-0.0026637 0.00199539 -3.60951e-19)
(-0.00271613 0.00204331 3.34053e-19)
(-0.00275625 0.00207513 -3.50469e-19)
(-0.00278543 0.00209171 -3.53957e-19)
(-0.00280545 0.00209466 2.11688e-20)
(-0.00281794 0.00208549 -3.44603e-19)
(-0.00282582 0.00206614 3.25122e-19)
(-0.00283066 0.00203772 -3.21502e-19)
(-0.00283298 0.00200044 3.19186e-19)
(-0.00283635 0.00195539 -3.13195e-19)
(-0.00284159 0.00190285 -9.63042e-21)
(-0.00284679 0.00184135 9.54399e-21)
(-0.0028549 0.00177083 0)
(-0.00286532 0.00169116 0)
(-0.00287518 0.00160057 1.45661e-19)
(-0.00288702 0.00149903 -1.60976e-19)
(-0.00289784 0.0013862 1.41224e-19)
(-0.00290833 0.00126062 3.47963e-20)
(-0.00291685 0.00112395 1.03407e-22)
(-0.00292233 0.000973938 -7.73835e-23)
(-0.00292328 0.000813546 -3.01467e-19)
(-0.00291988 0.000644299 -4.96165e-20)
(-0.00291115 0.000469169 6.56609e-20)
(-0.00289474 0.000288169 -6.5122e-20)
(-0.00287208 0.00010605 0)
(-0.00283944 -7.49697e-05 -8.03878e-21)
(-0.00279908 -0.000252032 8.05847e-21)
(-0.00274886 -0.00042094 0)
(-0.00268729 -0.000580342 0)
(-0.00261588 -0.000725069 1.2932e-19)
(-0.00253157 -0.000852169 -1.29705e-19)
(-0.00243584 -0.000960507 1.3448e-19)
(-0.00232744 -0.00104854 -2.62801e-19)
(-0.00220716 -0.00111453 -2.07248e-23)
(-0.00207474 -0.00115756 -4.17623e-21)
(-0.00193027 -0.00117631 -1.34455e-19)
(-0.00177397 -0.00117147 0)
(-0.00160873 -0.00114306 0)
(-0.00143269 -0.00109209 0)
(-0.0012505 -0.00102077 2.85804e-19)
(-0.00106408 -0.000931203 2.68955e-19)
(-0.000874101 -0.000825112 0)
(-0.00068301 -0.000705973 -3.1726e-19)
(-0.000493038 -0.000576652 5.30677e-20)
(-0.000306003 -0.00044072 -3.54509e-20)
(-0.000123791 -0.000301681 1.78582e-20)
(5.22324e-05 -0.000162798 -3.52714e-20)
(0.000220831 -2.69684e-05 2.80893e-19)
(0.000381196 0.000103175 -2.42937e-19)
(0.000532666 0.000225342 3.09807e-19)
(0.000674757 0.000337631 -4.54652e-22)
(0.000808431 0.000438436 2.38389e-19)
(0.000933328 0.000525888 0)
(0.0010489 0.000599816 2.67028e-19)
(0.00115738 0.000660077 -3.25763e-20)
(0.00125785 0.000705701 -2.2589e-19)
(0.00134833 0.000736682 2.58102e-19)
(0.00143225 0.000753219 -3.13925e-20)
(0.00150591 0.000753777 3.1606e-20)
(0.00156598 0.000738704 -3.17528e-20)
(0.00161324 0.000707325 3.07715e-20)
(0.0016402 0.000661606 -2.96286e-20)
(0.00164555 0.000602607 1.48365e-19)
(0.001623 0.000532157 -1.44078e-19)
(0.00156697 0.000452953 1.43088e-19)
(0.00147497 0.000370157 0)
(0.00134028 0.00029007 2.7562e-20)
(0.00116567 0.000219898 -2.64922e-20)
(0.000948086 0.000165917 -1.30463e-20)
(0.000691968 0.000133834 0)
(0.000408936 0.000129641 -2.48927e-20)
(0.000103761 0.000156485 4.8466e-20)
(-0.000210695 0.000213642 0)
(-0.00052656 0.000304277 -8.97709e-20)
(-0.000833884 0.000420083 -2.11017e-20)
(-0.00112783 0.000565133 2.0891e-20)
(-0.00140631 0.000727584 0)
(-0.00166688 0.000909889 7.53246e-20)
(-0.00191419 0.00109762 -7.15028e-20)
(-0.00214251 0.00127719 6.90077e-20)
(-0.0023287 0.00139967 0)
(-0.00244961 0.00141288 -1.27174e-19)
(-0.00260884 0.00130349 -7.63078e-20)
(-0.00279658 0.0011686 1.32898e-19)
(-0.0029314 0.000974736 -1.4107e-20)
(-0.0030046 0.0007398 1.40036e-20)
(-0.00301947 0.000484023 1.32956e-20)
(-0.00298428 0.000243197 1.27696e-20)
(-0.00290384 4.44692e-05 -1.13293e-20)
(-0.0027676 -7.93855e-05 -7.77917e-22)
(-0.00255039 -0.000147946 0)
(-0.00229277 -0.000179809 7.41402e-22)
(-0.00203007 -0.000184791 0)
(-0.00178618 -0.000171341 -7.03928e-22)
(-0.00157506 -0.00014706 -1.07535e-20)
(-0.00140376 -0.000117897 1.14537e-20)
(-0.00127384 -8.78619e-05 -9.57822e-22)
(-0.00118301 -5.96257e-05 9.61949e-21)
(-0.00112671 -3.46268e-05 -1.82465e-20)
(-0.00109859 -1.40407e-05 1.79942e-20)
(-0.00109136 1.07801e-06 -9.31112e-21)
(-0.00109824 1.13163e-05 0)
(-0.00111305 1.68652e-05 4.22825e-21)
(-0.0011301 1.82341e-05 -3.96774e-21)
(-0.00114492 1.6221e-05 -4.27601e-22)
(-0.0011544 1.18487e-05 -3.12004e-21)
(-0.00115677 6.14366e-06 2.73909e-21)
(-0.00115142 1.44891e-07 2.7163e-21)
(-0.00113935 -5.45496e-06 -3.03867e-21)
(-0.00112241 -9.64102e-06 2.62137e-21)
(-0.00110305 -1.20783e-05 -4.57988e-21)
(-0.00108381 -1.25023e-05 2.83312e-21)
(-0.00106743 -1.0882e-05 -9.63284e-22)
(-0.00105633 -7.4141e-06 -2.04215e-22)
(-0.00105227 -2.40939e-06 0)
(-0.00105681 3.79769e-06 4.19914e-22)
(-0.00107072 1.07281e-05 -5.74311e-22)
(-0.00109396 1.82091e-05 2.9757e-23)
(-0.00112601 2.64688e-05 -1.90185e-22)
(-0.00116823 3.63919e-05 0)
(-0.0012263 4.92741e-05 0)
(-0.00128273 6.20035e-05 -1.31185e-23)
(0.00348353 0.000566132 0)
(0.00386461 0.00103802 -4.64833e-21)
(0.00382831 0.00109737 4.6455e-21)
(0.00360183 0.00102534 9.25345e-21)
(0.00328354 0.000903995 -9.34814e-21)
(0.00293137 0.00077386 0)
(0.0025821 0.000655756 0)
(0.00225502 0.000555247 0)
(0.00195792 0.000471586 -1.90351e-20)
(0.00169246 0.000402114 3.83066e-20)
(0.00145747 0.000344245 1.90622e-20)
(0.00125068 0.000295904 -3.85746e-20)
(0.00106869 0.000255444 -3.84218e-20)
(0.000908163 0.000221667 3.86224e-20)
(0.000765924 0.000193692 0)
(0.000638993 0.000170816 -3.83832e-20)
(0.000524673 0.000152396 7.68519e-20)
(0.00042051 0.000137844 -3.84538e-20)
(0.000324322 0.000126622 0)
(0.000234192 0.000118233 0)
(0.000148461 0.000112199 0)
(6.5713e-05 0.000108062 0)
(-1.51784e-05 0.000105416 0)
(-9.51316e-05 0.00010386 -7.50224e-20)
(-0.000174812 0.000103 7.48545e-20)
(-0.000254563 0.000102477 0)
(-0.000334518 0.00010188 0)
(-0.000414523 0.000100614 0)
(-0.000493987 9.78885e-05 0)
(-0.000571855 9.25092e-05 0)
(-0.000646477 8.22697e-05 -7.1436e-20)
(-0.000715073 6.28238e-05 7.133e-20)
(-0.000773768 2.70987e-05 0)
(-0.000826417 -3.56782e-05 4.39961e-21)
(-0.000856311 -0.000146428 0)
(-0.000817256 -0.000292551 -1.39497e-19)
(-0.000698188 -0.000425211 2.80265e-19)
(-0.000520991 -0.00051216 0)
(-0.000296929 -0.000534423 -5.70963e-19)
(-3.31742e-05 -0.000482257 4.48867e-22)
(0.000275514 -0.000351826 -7.20648e-20)
(0.000616799 -0.000154046 7.19057e-20)
(0.000961348 7.6313e-05 -5.69757e-19)
(0.0012946 0.000310144 0)
(0.00161002 0.000531056 -6.32238e-19)
(0.00190253 0.000727686 5.94244e-19)
(0.00217352 0.000893937 5.90537e-19)
(0.00241645 0.00102461 0)
(0.00262836 0.00111681 2.74177e-19)
(0.00280966 0.00117095 0)
(0.00295292 0.00118592 -5.4348e-19)
(0.00305819 0.00116388 0)
(0.00311773 0.00110707 2.35732e-19)
(0.00312973 0.00102178 3.00338e-19)
(0.00308871 0.000913189 2.64709e-19)
(0.00298977 0.000788046 1.31479e-19)
(0.00283501 0.000655953 1.30447e-19)
(0.00261701 0.000526325 6.47395e-20)
(0.0023488 0.000409121 -3.23382e-20)
(0.00202412 0.000316259 -4.80501e-20)
(0.00165485 0.000251942 0)
(0.00125655 0.000226902 -1.25805e-19)
(0.000834569 0.000242301 1.24906e-19)
(0.000406396 0.000297991 0)
(-1.92384e-05 0.000393799 4.90814e-19)
(-0.000432729 0.000521587 0)
(-0.000826766 0.000680005 5.81846e-20)
(-0.00119784 0.000857848 -5.73358e-20)
(-0.00154145 0.00105261 0)
(-0.00185968 0.00125567 5.38711e-20)
(-0.00215015 0.0014621 -5.31321e-20)
(-0.00241345 0.00166688 -5.67103e-19)
(-0.00265129 0.00186314 3.53311e-19)
(-0.0028638 0.00204832 -1.96253e-21)
(-0.00305221 0.00221817 3.84369e-19)
(-0.0032171 0.00236818 2.34662e-20)
(-0.00335846 0.00249477 -3.93691e-19)
(-0.00347652 0.00259692 0)
(-0.00357272 0.00267434 -3.5652e-19)
(-0.00364833 0.0027281 -6.76944e-19)
(-0.00370452 0.00275905 6.5446e-19)
(-0.003743 0.00276833 3.4894e-19)
(-0.00376571 0.00275818 -3.43216e-19)
(-0.00377499 0.00273098 3.36607e-19)
(-0.00377395 0.00268967 0)
(-0.00376501 0.00263618 3.16466e-19)
(-0.00375039 0.00257132 3.50392e-21)
(-0.00373332 0.00249666 6.23272e-19)
(-0.00371528 0.00241261 2.84508e-19)
(-0.00369682 0.00231767 3.08331e-19)
(-0.00367974 0.00221204 0)
(-0.00366358 0.00209565 0)
(-0.00364754 0.00196735 -1.42624e-19)
(-0.00363231 0.00182636 0)
(-0.00361594 0.00167304 -1.73033e-20)
(-0.00359918 0.00150629 1.71432e-20)
(-0.00357985 0.00132783 -1.35028e-19)
(-0.00355853 0.00113712 1.33429e-19)
(-0.00353271 0.000937024 1.15478e-19)
(-0.00350343 0.000727474 1.63604e-20)
(-0.00346849 0.000512487 -6.47143e-20)
(-0.00342744 0.000292957 3.21055e-20)
(-0.00337746 7.31508e-05 -2.39096e-20)
(-0.00331824 -0.000144391 7.96172e-21)
(-0.0032487 -0.00035626 0)
(-0.00316665 -0.000557724 6.33724e-20)
(-0.00307125 -0.000746252 0)
(-0.00296111 -0.000916638 1.2741e-19)
(-0.00283501 -0.00106602 2.45327e-22)
(-0.00269218 -0.00119131 -1.25071e-19)
(-0.00253235 -0.00129039 1.30013e-19)
(-0.00235609 -0.00135926 -4.10077e-21)
(-0.00216408 -0.00139819 0)
(-0.00195781 -0.00140685 1.32925e-19)
(-0.00173867 -0.00138542 -1.34175e-19)
(-0.00150892 -0.00133233 0)
(-0.00127136 -0.00125044 8.51803e-21)
(-0.00102832 -0.00114187 -2.83962e-19)
(-0.000781106 -0.00100979 -2.61398e-19)
(-0.000533508 -0.000858255 2.61909e-19)
(-0.000288023 -0.000691235 -2.81351e-19)
(-4.64558e-05 -0.000512772 -1.76069e-20)
(0.000188751 -0.000327928 2.63718e-19)
(0.000416517 -0.000140961 3.51197e-20)
(0.000635711 4.40739e-05 3.10734e-19)
(0.000845013 0.000223331 -6.18227e-19)
(0.00104405 0.000393525 3.07531e-19)
(0.00123242 0.000551764 -2.37292e-19)
(0.00141007 0.000695703 1.99313e-19)
(0.00157783 0.000823759 3.29502e-19)
(0.00173502 0.000934519 1.95237e-19)
(0.0018813 0.00102709 3.26181e-20)
(0.00201961 0.00110128 2.23239e-19)
(0.00214817 0.00115584 2.86216e-19)
(0.00226502 0.00119056 -3.09714e-20)
(0.00237403 0.00120577 3.1165e-20)
(0.00246896 0.00119977 9.12253e-20)
(0.0025468 0.00117325 2.93302e-20)
(0.0026082 0.00112655 -2.93243e-20)
(0.00264517 0.00106172 2.95379e-20)
(0.00265428 0.000980496 -1.1446e-19)
(0.00262799 0.00088548 2.86863e-20)
(0.00255949 0.000780811 -7.13336e-22)
(0.00244561 0.000672107 -2.7536e-20)
(0.00227663 0.000565872 -1.06517e-19)
(0.00205617 0.000469089 0)
(0.00177697 0.000391606 5.06646e-20)
(0.00144299 0.000338793 -3.158e-20)
(0.00106702 0.000320357 2.44255e-20)
(0.000651072 0.000341484 -7.12002e-20)
(0.000214655 0.000401768 -2.29106e-20)
(-0.00023537 0.000507368 8.96733e-20)
(-0.000684281 0.000647196 1.0703e-19)
(-0.00112009 0.0008273 -4.09852e-20)
(-0.00153698 0.00103297 9.8259e-20)
(-0.0019263 0.00126501 -7.44091e-20)
(-0.00228986 0.00150205 -1.75285e-20)
(-0.00261826 0.00172415 -6.73682e-20)
(-0.00290191 0.00187074 1.6591e-20)
(-0.00313331 0.0019102 -6.30394e-20)
(-0.00336079 0.00175993 5.99713e-20)
(-0.00354142 0.00153505 -4.35966e-20)
(-0.00365744 0.0012296 -1.42121e-20)
(-0.00369431 0.00087165 -2.72563e-20)
(-0.00363623 0.000494031 0)
(-0.00348575 0.000145607 -2.56602e-20)
(-0.00324207 -0.000137951 2.36439e-20)
(-0.00291475 -0.000320038 4.58475e-22)
(-0.00254498 -0.000418003 -3.2417e-22)
(-0.00216915 -0.000452571 -1.07809e-21)
(-0.0018128 -0.000439612 -1.17334e-20)
(-0.00149322 -0.000394702 7.0612e-22)
(-0.00121919 -0.000331392 0)
(-0.000998271 -0.000260396 -6.6665e-22)
(-0.00083042 -0.000189702 6.44387e-22)
(-0.000711465 -0.000124968 1.09431e-20)
(-0.000634478 -6.99183e-05 -1.03207e-20)
(-0.000591192 -2.65487e-05 -8.88694e-21)
(-0.000572427 4.526e-06 9.42583e-21)
(-0.000568983 2.37864e-05 0)
(-0.000573142 3.25239e-05 -4.87957e-22)
(-0.000578135 3.24518e-05 0)
(-0.000578814 2.56666e-05 -2.9339e-21)
(-0.000571768 1.4535e-05 2.03388e-22)
(-0.000555458 1.3662e-06 3.54136e-21)
(-0.00053027 -1.1562e-05 7.1201e-22)
(-0.000497729 -2.25985e-05 3.32135e-22)
(-0.00046036 -2.97862e-05 -3.07145e-22)
(-0.000421861 -3.22028e-05 0)
(-0.000385861 -2.96651e-05 2.57685e-22)
(-0.000355919 -2.23883e-05 8.82041e-22)
(-0.000335248 -1.10682e-05 -6.72889e-22)
(-0.000326127 3.24611e-06 -6.85409e-22)
(-0.000329845 1.95716e-05 8.42824e-22)
(-0.000347113 3.68898e-05 0)
(-0.000377402 5.44788e-05 1.33548e-22)
(-0.00041911 7.20983e-05 1.93659e-22)
(-0.000471571 8.98156e-05 4.79825e-23)
(-0.000538653 0.000107994 -4.77998e-23)
(-0.000605047 0.000125128 1.31221e-23)
(0.00346032 0.000367972 0)
(0.00386454 0.000843889 0)
(0.00405911 0.00106902 0)
(0.00411739 0.00114057 9.12211e-21)
(0.00406557 0.00111151 -9.1388e-21)
(0.00393241 0.00103377 0)
(0.00375123 0.000931187 0)
(0.00354855 0.00082534 0)
(0.00334134 0.000725325 0)
(0.00313975 0.000634712 0)
(0.00294922 0.00055445 0)
(0.00277226 0.00048438 -3.67914e-20)
(0.00260952 0.000423976 3.69999e-20)
(0.00246046 0.000372529 -3.68237e-20)
(0.00232391 0.000329257 7.38051e-20)
(0.0021984 0.000293421 -3.69643e-20)
(0.00208233 0.000264281 -3.6738e-20)
(0.00197406 0.000241091 3.68626e-20)
(0.00187201 0.000223127 0)
(0.0017747 0.000209693 0)
(0.00168073 0.000200112 7.29036e-20)
(0.00158887 0.000193721 -7.30867e-20)
(0.00149802 0.00018989 0)
(0.00140724 0.000187991 -7.23529e-20)
(0.00131579 0.000187415 7.25217e-20)
(0.0012231 0.000187569 0)
(0.00112881 0.000187794 0)
(0.00103276 0.000187246 7.16207e-20)
(0.000935086 0.00018483 -3.47547e-22)
(0.000836195 0.000179022 -7.16468e-20)
(0.000736704 0.000167363 -7.1169e-20)
(0.000637662 0.000145856 1.42457e-19)
(0.000541015 0.000108159 -7.13215e-20)
(0.000429347 4.51745e-05 6.65635e-20)
(0.000321603 -5.56884e-05 -7.12325e-20)
(0.000297661 -0.000180862 -7.05712e-20)
(0.000380291 -0.000287223 7.0721e-20)
(0.000536527 -0.000344696 2.11346e-19)
(0.000751656 -0.00033455 3.51752e-19)
(0.0010197 -0.000246408 7.02872e-20)
(0.00134909 -7.81575e-05 -6.99203e-20)
(0.00172072 0.000154128 -6.22219e-19)
(0.00209284 0.000413874 6.17543e-19)
(0.00245065 0.000674175 6.13037e-19)
(0.00278989 0.000918937 -1.35616e-19)
(0.00310672 0.00113681 1.01302e-19)
(0.00340375 0.00132158 -3.01814e-19)
(0.00367475 0.0014675 0)
(0.00391687 0.00157157 -2.99211e-19)
(0.00413019 0.00163315 3.3229e-20)
(0.0043071 0.00165073 2.63712e-19)
(0.00444721 0.00162658 3.26279e-20)
(0.0045421 0.00156292 -3.26097e-19)
(0.00458971 0.00146456 -2.26404e-19)
(0.00458337 0.00133608 -2.56481e-19)
(0.00451757 0.0011846 -1.27078e-19)
(0.00439221 0.00101934 -3.13292e-20)
(0.00419695 0.00084951 3.14056e-20)
(0.00394335 0.000686424 3.09826e-20)
(0.00361981 0.000541367 4.59449e-20)
(0.00323741 0.000422083 3.04047e-20)
(0.00280861 0.000340101 0)
(0.00233744 0.000300442 1.20674e-19)
(0.00184316 0.000305512 0)
(0.00133268 0.000357726 -4.17182e-19)
(0.000824099 0.000451407 -2.37796e-19)
(0.000325403 0.000585586 -5.91628e-20)
(-0.000155173 0.000750012 0)
(-0.000608528 0.000940285 0)
(-0.00103386 0.00114694 -2.21158e-19)
(-0.001425 0.00136217 0)
(-0.00178347 0.00157997 4.71193e-19)
(-0.002109 0.0017917 -4.59148e-19)
(-0.00239992 0.00199163 4.22908e-19)
(-0.0026585 0.00217465 -2.42284e-22)
(-0.0028847 0.00233541 -2.30588e-22)
(-0.00307946 0.00246989 3.25721e-19)
(-0.00324531 0.0025775 4.57225e-20)
(-0.00338322 0.00265768 3.35345e-19)
(-0.00349422 0.0027111 3.51265e-19)
(-0.00358024 0.00273954 1.41865e-21)
(-0.00364316 0.00274456 -3.2862e-19)
(-0.00368494 0.0027286 3.23152e-19)
(-0.00370826 0.00269474 0)
(-0.00371589 0.00264584 5.04144e-21)
(-0.00371079 0.0025846 3.14373e-19)
(-0.0036964 0.00251284 -6.25621e-19)
(-0.00367529 0.0024314 -9.29653e-19)
(-0.00364972 0.00234111 -3.13686e-19)
(-0.00362241 0.00224182 1.02408e-20)
(-0.00359427 0.00213196 0)
(-0.00356564 0.00201039 9.079e-21)
(-0.00353756 0.00187832 -9.00177e-21)
(-0.00350903 0.00173402 0)
(-0.00347934 0.0015777 1.39748e-19)
(-0.00344841 0.00140865 -1.71648e-20)
(-0.00341413 0.00122813 1.70492e-20)
(-0.00337692 0.00103635 1.07879e-22)
(-0.00333453 0.000835464 1.33011e-19)
(-0.00328688 0.000625965 -1.64034e-20)
(-0.00323027 0.00041137 3.25822e-20)
(-0.00316587 0.000193453 -1.62022e-20)
(-0.00308983 -2.4127e-05 8.1589e-24)
(-0.00300214 -0.000238284 -7.98119e-21)
(-0.00289998 -0.000445566 8.007e-21)
(-0.00278169 -0.000641266 -6.3933e-20)
(-0.00264691 -0.000821971 -6.80021e-20)
(-0.00249311 -0.000982467 -1.24658e-19)
(-0.00232124 -0.00111934 2.58594e-19)
(-0.00213008 -0.00122888 -1.25975e-19)
(-0.0019209 -0.00130846 -4.11026e-21)
(-0.00169482 -0.00135451 -4.12325e-21)
(-0.00145317 -0.00136755 4.18574e-21)
(-0.00119907 -0.00134535 -1.35014e-19)
(-0.000934703 -0.0012893 8.92767e-21)
(-0.000662149 -0.00119979 -5.61277e-23)
(-0.000386338 -0.00107983 1.21254e-19)
(-0.000108137 -0.000932174 4.29092e-19)
(0.000169019 -0.000760617 -2.79219e-19)
(0.00044157 -0.000569721 -2.78496e-19)
(0.000708995 -0.000364072 2.93665e-19)
(0.000969391 -0.000148818 2.55763e-19)
(0.00122058 7.0616e-05 -2.55525e-19)
(0.00146259 0.00028963 -3.02346e-19)
(0.00169498 0.000503785 -2.51421e-19)
(0.00191694 0.000708921 3.47681e-20)
(0.00212881 0.000901556 -3.30595e-20)
(0.00233063 0.00107868 0)
(0.00252272 0.00123802 -2.91207e-19)
(0.00270633 0.00137806 -2.56254e-19)
(0.00288092 0.00149716 -2.22303e-19)
(0.00304598 0.00159436 0)
(0.00320466 0.00166954 -2.7954e-19)
(0.003355 0.00172127 3.08907e-20)
(0.00349484 0.00174937 -9.05764e-20)
(0.00362758 0.00175452 -3.01708e-20)
(0.00374692 0.00173505 -9.56082e-22)
(0.00384979 0.00169268 -1.45762e-19)
(0.00393596 0.00162812 2.90302e-20)
(0.00399759 0.00154236 -1.40654e-19)
(0.00403107 0.00143731 2.50439e-19)
(0.00402859 0.00131591 2.18295e-19)
(0.00398265 0.00118236 1.06756e-19)
(0.00388918 0.0010423 0)
(0.00373669 0.000901855 -2.51095e-20)
(0.00352818 0.000768601 3.92608e-22)
(0.00325306 0.000651652 1.19269e-20)
(0.00291225 0.000557859 -4.20849e-20)
(0.0025172 0.000496859 2.38637e-20)
(0.00206511 0.000475954 -4.59619e-20)
(0.00157628 0.000496482 4.49412e-20)
(0.00105517 0.000566484 0)
(0.000519899 0.000677563 -1.06951e-19)
(-1.50648e-05 0.000835631 4.16133e-20)
(-0.000538178 0.00102708 -8.00613e-20)
(-0.00103446 0.00124982 -1.928e-20)
(-0.00150055 0.00148046 9.0277e-20)
(-0.00192446 0.00169475 -1.75554e-20)
(-0.00230296 0.00183754 0)
(-0.00263487 0.00187804 7.91904e-20)
(-0.00290076 0.0017225 -4.27596e-22)
(-0.00303895 0.0014452 -3.97062e-22)
(-0.00310101 0.00107767 -3.68397e-22)
(-0.00306136 0.000655644 2.74206e-20)
(-0.00290692 0.000220822 -3.28278e-22)
(-0.00263193 -0.000171393 -1.70276e-22)
(-0.00224102 -0.00048309 -1.26508e-20)
(-0.00177164 -0.00068044 1.11438e-20)
(-0.00130561 -0.00077409 1.21514e-20)
(-0.000868325 -0.000786327 1.16356e-21)
(-0.000470119 -0.000738023 -1.20309e-20)
(-0.000122118 -0.000649548 1.44439e-21)
(0.000169468 -0.000538507 1.09843e-20)
(0.000402999 -0.000419276 -1.09436e-20)
(0.000581128 -0.000303296 -1.28678e-21)
(0.000709304 -0.000198816 -1.2365e-21)
(0.000795142 -0.00011122 0)
(0.000847459 -4.33004e-05 8.80832e-21)
(0.000875659 4.44871e-06 -8.8002e-21)
(0.000889005 3.28309e-05 0)
(0.000895813 4.40827e-05 -9.62452e-22)
(0.000902894 4.13306e-05 0)
(0.000915358 2.82413e-05 8.56616e-22)
(0.000936418 8.7999e-06 3.12409e-21)
(0.000967325 -1.30613e-05 -3.11533e-21)
(0.00100762 -3.35827e-05 -7.03486e-22)
(0.0010554 -4.94582e-05 6.4968e-22)
(0.00110762 -5.84675e-05 0)
(0.00116027 -5.92705e-05 -2.10862e-21)
(0.00120925 -5.16371e-05 2.10289e-21)
(0.00125056 -3.59782e-05 4.52554e-22)
(0.00128059 -1.36027e-05 7.63135e-22)
(0.00129656 1.3718e-05 -7.62066e-22)
(0.00129693 4.39008e-05 5.71061e-22)
(0.0012812 7.49432e-05 -5.69807e-22)
(0.00125009 0.000105222 -2.13608e-22)
(0.00120577 0.000133638 -1.41967e-22)
(0.00115055 0.000159312 9.47128e-23)
(0.00108194 0.000181855 1.17307e-22)
(0.00100884 0.000201965 0)
(0.00344232 0.000232847 0)
(0.00380611 0.000614623 0)
(0.00405259 0.000877578 0)
(0.00425441 0.00102936 9.12158e-21)
(0.00440076 0.00108663 -9.07953e-21)
(0.00447288 0.0010754 0)
(0.00448261 0.00102653 1.78785e-20)
(0.00445157 0.000950677 -1.79232e-20)
(0.00439046 0.000865325 -1.78068e-20)
(0.0043103 0.000779621 3.56652e-20)
(0.00421949 0.000697929 -1.78619e-20)
(0.00412374 0.000622608 0)