/*--------------------------------*- C++ -*----------------------------------*\
| =========                 |                                                 |
| \\      /  F ield         | OpenFOAM: The Open Source CFD Toolbox           |
|  \\    /   O peration     | Version:  2506                                  |
|   \\  /    A nd           | Website:  www.openfoam.com                      |
|    \\/     M anipulation  |                                                 |
\*---------------------------------------------------------------------------*/
FoamFile
{
    version     2.0;
    format      ascii;
    arch        "LSB;label=32;scalar=64";
    class       volVectorField;
    location    "4.3";
    object      U;
}
// * * * * * * * * * * * * * * * * * * * * * * * * * * * * * * * * * * * * * //

dimensions      [0 1 -1 0 0 0 0];

internalField   nonuniform List<vector> 
4000
(
(0.00276176 -0.00119759 5.33778e-23)
(0.00377523 -0.000967321 0)
(0.00528232 -0.000476365 1.15695e-23)
(0.00638456 -0.000245802 7.2978e-24)
(0.00704996 -0.000147864 4.58904e-24)
(0.0074875 -9.0855e-05 0)
(0.00780028 -5.6542e-05 1.8523e-24)
(0.00803002 -3.70457e-05 1.24584e-24)
(0.00820337 -2.56903e-05 0)
(0.00833877 -1.86441e-05 0)
(0.00844748 -1.40426e-05 1.22937e-24)
(0.0085364 -1.08884e-05 -3.41812e-25)
(0.00861 -8.60703e-06 -6.39187e-25)
(0.00867135 -6.87484e-06 2.76691e-24)
(0.00872263 -5.51231e-06 -2.75709e-24)
(0.00876542 -4.41713e-06 -1.57549e-25)
(0.00880091 -3.52939e-06 -7.60762e-24)
(0.00883008 -2.81412e-06 7.58313e-24)
(0.00885375 -2.25201e-06 -6.11772e-25)
(0.00887264 -1.83455e-06 0)
(0.00888743 -1.56154e-06 0)
(0.00889882 -1.44019e-06 1.34769e-24)
(0.00890756 -1.48551e-06 1.65587e-24)
(0.00891448 -1.72242e-06 0)
(0.00892062 -2.19131e-06 2.33472e-24)
(0.00892726 -2.9599e-06 2.6822e-24)
(0.00893611 -4.14612e-06 0)
(0.00894951 -5.97281e-06 0)
(0.00897041 -8.74797e-06 -1.12073e-22)
(0.00900677 -1.33429e-05 1.1521e-22)
(0.00907109 -2.71871e-05 0)
(0.00908677 -6.89876e-05 1.1999e-22)
(0.00899805 -0.000158041 -1.33515e-22)
(0.00881291 -0.00030335 -7.82292e-23)
(0.00856321 -0.000514046 -2.0399e-22)
(0.00827315 -0.0008016 1.8424e-21)
(0.00801691 -0.00116948 -2.34686e-22)
(0.00773101 -0.00169705 -7.80951e-22)
(0.00732498 -0.00237106 0)
(0.00688306 -0.00303249 3.9364e-22)
(0.00653494 -0.00359213 -3.99178e-22)
(0.00627547 -0.00404313 2.94612e-21)
(0.00608229 -0.00438883 0)
(0.00594739 -0.00462767 2.20796e-21)
(0.0058596 -0.00476653 -8.71581e-22)
(0.00580241 -0.00481867 1.2188e-21)
(0.00576452 -0.00479379 0)
(0.00574068 -0.00470522 -1.1364e-21)
(0.00571496 -0.00456879 -1.31515e-21)
(0.00567408 -0.00439125 -1.07461e-21)
(0.00560149 -0.00417749 0)
(0.00551738 -0.00390532 0)
(0.00542886 -0.00358715 -1.53085e-22)
(0.0053506 -0.00318406 1.19228e-21)
(0.00535177 -0.00268106 9.5059e-23)
(0.00552859 -0.00205516 -6.39465e-22)
(0.00594778 -0.0013613 -3.13718e-22)
(0.00665616 -0.000673217 2.7197e-23)
(0.00759048 -0.000134254 0)
(0.00850039 0.000151629 8.69504e-23)
(0.00918574 0.000234636 1.74119e-22)
(0.00961225 0.000189463 -1.17912e-22)
(0.00983323 0.000121451 -4.81145e-22)
(0.00993365 6.57318e-05 3.47734e-22)
(0.00997624 3.24635e-05 0)
(0.00999055 1.4965e-05 0)
(0.00999533 7.03232e-06 0)
(0.00999717 3.74914e-06 2.17066e-23)
(0.00999796 2.25217e-06 3.20787e-22)
(0.00999862 1.40786e-06 1.70963e-22)
(0.00999926 8.12367e-07 0)
(0.00999979 3.21478e-07 -1.48703e-22)
(0.0100002 -9.44493e-08 1.47597e-22)
(0.0100006 -4.28219e-07 2.14098e-23)
(0.010001 -6.76857e-07 -1.65957e-22)
(0.0100012 -8.7575e-07 1.41478e-22)
(0.0100015 -1.04506e-06 1.58687e-22)
(0.0100017 -1.1876e-06 1.56895e-22)
(0.0100019 -1.30305e-06 0)
(0.0100021 -1.39711e-06 0)
(0.0100023 -1.47371e-06 -4.40873e-24)
(0.0100027 -1.55224e-06 -1.34526e-22)
(0.0100031 -1.62017e-06 0)
(0.0100036 -1.68717e-06 1.25688e-22)
(0.0100044 -1.72901e-06 -1.20766e-22)
(0.0100056 -1.73795e-06 0)
(0.0100072 -1.60914e-06 0)
(0.0100087 -1.2525e-06 -5.64046e-24)
(0.0100093 -8.66621e-07 -1.82481e-23)
(0.0100066 -8.42753e-07 3.93675e-23)
(0.00999518 -2.6534e-06 1.30432e-24)
(0.00997045 -9.91073e-06 -7.88522e-24)
(0.00992946 -2.75243e-05 2.44247e-24)
(0.00987564 -5.90986e-05 0)
(0.00981895 -0.00010498 -6.09746e-23)
(0.00978142 -0.000151775 -1.72888e-22)
(0.00976923 -0.000184193 -2.31798e-22)
(0.00979159 -0.000185846 -2.40634e-23)
(0.00985078 -0.00015427 -5.19124e-22)
(0.00995476 -8.7189e-05 -6.18565e-22)
(0.0100827 2.24571e-05 1.02205e-23)
(0.0102178 0.000152175 -6.26983e-22)
(0.0103424 0.000281915 -8.40353e-22)
(0.0104358 0.000393589 -9.55761e-24)
(0.0104803 0.000468004 1.20181e-22)
(0.0104877 0.00048321 0)
(0.0104516 0.000450749 -6.42523e-22)
(0.0103727 0.000375119 -7.94045e-22)
(0.0102533 0.000269239 -5.84248e-23)
(0.0100879 0.000132004 0)
(0.00988855 -1.91698e-05 -1.05805e-21)
(0.00966569 -0.000159993 9.70637e-22)
(0.00942883 -0.000271397 0)
(0.00921019 -0.000327186 1.27542e-21)
(0.00905373 -0.000308761 1.90216e-22)
(0.0090081 -0.000220083 1.40511e-22)
(0.00911934 -8.97547e-05 0)
(0.00934491 1.89768e-05 -6.86456e-23)
(0.00958621 7.74092e-05 1.02753e-23)
(0.00977811 7.54095e-05 -7.17246e-25)
(0.00989501 5.58559e-05 -8.98638e-24)
(0.00995547 3.35654e-05 1.93324e-22)
(0.00998274 1.78603e-05 -1.5016e-22)
(0.00999329 8.96743e-06 -6.17337e-24)
(0.00999678 4.86943e-06 -8.37309e-23)
(0.0099975 3.19338e-06 1.55077e-22)
(0.00999767 2.52547e-06 -7.30502e-23)
(0.00999775 2.23085e-06 8.34847e-23)
(0.00999781 2.04701e-06 -1.17918e-24)
(0.00999794 1.86765e-06 8.02036e-23)
(0.00999815 1.66406e-06 0)
(0.00999839 1.44047e-06 -9.45519e-23)
(0.00999864 1.20682e-06 1.33906e-23)
(0.0099989 9.72013e-07 -1.11904e-22)
(0.00999916 7.39051e-07 0)
(0.00999942 5.06337e-07 0)
(0.0099997 2.69869e-07 1.01171e-22)
(0.01 1.37147e-08 -1.00455e-22)
(0.0100004 -2.39423e-07 0)
(0.0100008 -4.92451e-07 0)
(0.0100012 -7.60099e-07 -9.14863e-23)
(0.0100018 -1.05243e-06 2.11643e-23)
(0.0100025 -1.3515e-06 -1.04605e-22)
(0.0100035 -1.6222e-06 0)
(0.0100046 -1.84654e-06 5.39648e-23)
(0.0100059 -2.07165e-06 3.04571e-23)
(0.0100068 -2.49037e-06 -1.84799e-23)
(0.0100046 -3.54877e-06 1.07954e-23)
(0.00999499 -6.31848e-06 0)
(0.00997175 -1.36206e-05 6.55003e-24)
(0.00993085 -3.03594e-05 4.47401e-24)
(0.00986991 -6.19214e-05 -7.23674e-23)
(0.00979863 -0.000111227 1.07717e-23)
(0.0097345 -0.000170259 6.09646e-23)
(0.00969379 -0.000228565 -7.05189e-23)
(0.0096835 -0.000264761 -4.88693e-23)
(0.00971127 -0.000263864 0)
(0.00977523 -0.000226833 0)
(0.00988157 -0.000158173 0)
(0.010009 -4.84294e-05 1.54811e-21)
(0.0101416 7.75825e-05 -1.74692e-22)
(0.0102719 0.000197091 -4.75745e-22)
(0.0103986 0.000302869 -2.65141e-22)
(0.0105048 0.000337257 0)
(0.010482 0.000301819 -1.63987e-22)
(0.0103966 0.00023892 -3.4237e-22)
(0.010279 0.00016698 -8.30304e-24)
(0.0101269 9.77952e-05 -4.658e-23)
(0.00997892 4.54831e-05 -2.67427e-23)
(0.00986542 1.77911e-05 6.66046e-24)
(0.00980228 9.84642e-06 0)
(0.00976489 7.03767e-06 1.47485e-24)
(0.00973193 6.01429e-06 0)
(0.00969949 5.85776e-06 2.41039e-24)
(0.00966678 6.11014e-06 2.91044e-24)
(0.00963266 6.57701e-06 2.35642e-22)
(0.00959657 7.21724e-06 -2.36012e-22)
(0.00955866 7.79449e-06 -1.54116e-22)
(0.00951926 8.2316e-06 1.59216e-22)
(0.00947887 8.53563e-06 -1.91538e-22)
(0.00943793 8.73834e-06 4.25122e-22)
(0.00939667 8.88865e-06 -2.13673e-22)
(0.00935505 9.04385e-06 0)
(0.00931272 9.25583e-06 9.05106e-24)
(0.00926907 9.56154e-06 -9.95839e-24)
(0.00922331 9.98305e-06 3.73773e-22)
(0.00917454 1.0537e-05 -3.50663e-22)
(0.00912176 1.12502e-05 4.31937e-22)
(0.00906379 1.21811e-05 -4.17515e-22)
(0.00899914 1.34515e-05 2.70884e-22)
(0.00892559 1.5301e-05 -2.38648e-22)
(0.00883949 1.81911e-05 1.82014e-23)
(0.00873448 2.30256e-05 1.98419e-23)
(0.00859882 3.16547e-05 0)
(0.00840996 4.80701e-05 2.4047e-23)
(0.00812295 8.10803e-05 2.70435e-23)
(0.00764063 0.000151354 3.09003e-22)
(0.0067319 0.000325181 -3.18209e-22)
(0.00502241 0.0008258 0)
(0.00355986 0.00137557 6.86149e-23)
(-1.27805e-05 -0.00243612 -2.66571e-23)
(6.67574e-05 -0.00235546 7.9449e-24)
(0.00114412 -0.00168834 -1.34372e-23)
(0.00219536 -0.00120962 4.09137e-23)
(0.00303496 -0.000870889 -7.63628e-23)
(0.0037111 -0.000631004 1.26922e-23)
(0.00426176 -0.000468595 2.51931e-23)
(0.00471054 -0.000359457 -6.27656e-24)
(0.00507879 -0.000284028 -3.60363e-24)
(0.00538466 -0.000230024 -2.72128e-24)
(0.00564159 -0.000190016 -2.51698e-24)
(0.00585921 -0.000159323 -9.15585e-24)
(0.00604461 -0.000134954 7.6606e-24)
(0.00620309 -0.000115007 -2.98097e-24)
(0.00633868 -9.82637e-05 3.16297e-24)
(0.0064545 -8.39287e-05 7.2112e-25)
(0.00655302 -7.1478e-05 -1.52221e-24)
(0.00663628 -6.05685e-05 7.96909e-24)
(0.00670599 -5.09856e-05 1.65208e-23)
(0.00676371 -4.2614e-05 -2.08728e-23)
(0.00681088 -3.54231e-05 2.01108e-24)
(0.00684894 -2.94624e-05 5.23989e-23)
(0.00687941 -2.48673e-05 -5.28978e-23)
(0.00690401 -2.18739e-05 -7.10366e-23)
(0.00692472 -2.08503e-05 7.23057e-23)
(0.00694397 -2.23538e-05 2.77069e-24)
(0.0069648 -2.72365e-05 1.11216e-22)
(0.00699115 -3.68431e-05 2.09171e-24)
(0.00702769 -5.34516e-05 -2.44919e-22)
(0.00708414 -8.07897e-05 -4.16688e-24)
(0.00717619 -0.000126741 1.24029e-22)
(0.00721535 -0.000218562 7.79054e-23)
(0.00712474 -0.000380674 1.63957e-22)
(0.00691528 -0.000627445 9.35164e-23)
(0.00664024 -0.000971134 -1.90447e-22)
(0.00634375 -0.00142883 -6.85945e-22)
(0.00607925 -0.00201187 -1.33069e-22)
(0.0057975 -0.00275599 8.77668e-22)
(0.00542843 -0.00359121 -2.70751e-22)
(0.00505067 -0.00438473 -6.54963e-22)
(0.00476256 -0.00507586 -9.99699e-22)
(0.00454263 -0.00564959 -1.37834e-21)
(0.00436957 -0.00609516 0)
(0.00423813 -0.00641136 -2.54263e-21)
(0.00413716 -0.00660843 1.21085e-21)
(0.0040515 -0.00669827 -1.18243e-21)
(0.00396948 -0.00669142 1.20489e-21)
(0.0038837 -0.00660332 0)
(0.00377688 -0.0064493 1.70026e-23)
(0.00363552 -0.00623497 1.24675e-21)
(0.00345065 -0.00596402 -1.46096e-21)
(0.00323279 -0.00562651 1.69832e-22)
(0.002997 -0.005231 1.50098e-21)
(0.00275321 -0.0047447 -3.24524e-22)
(0.00257389 -0.00415342 1.28951e-21)
(0.00253638 -0.00343421 0)
(0.00273956 -0.00262092 3.35767e-22)
(0.00328424 -0.0017263 -9.34216e-23)
(0.00425199 -0.000858806 -9.99142e-24)
(0.00553731 -0.000168076 -4.33113e-23)
(0.0068957 0.000238477 -2.66798e-22)
(0.00807996 0.00040578 -5.52371e-22)
(0.00891657 0.000371297 -3.91401e-22)
(0.00943492 0.000270142 -4.01587e-22)
(0.00972579 0.000171036 3.62508e-23)
(0.00987129 9.80421e-05 -3.54153e-23)
(0.00993835 5.31293e-05 0)
(0.00996882 2.87161e-05 0)
(0.00998253 1.60924e-05 -3.89161e-22)
(0.00998946 9.39559e-06 1.92197e-22)
(0.00999367 5.48879e-06 2.40535e-23)
(0.00999637 2.93003e-06 -2.38827e-22)
(0.00999821 1.03572e-06 -1.66665e-22)
(0.00999967 -5.399e-07 -2.11417e-22)
(0.0100009 -1.80018e-06 -1.66965e-24)
(0.0100019 -2.78004e-06 1.16847e-23)
(0.0100028 -3.54485e-06 2.02859e-22)
(0.0100036 -4.15804e-06 -1.73272e-22)
(0.0100042 -4.64782e-06 -1.07679e-23)
(0.0100049 -5.02474e-06 -1.72196e-22)
(0.0100055 -5.29644e-06 1.66928e-22)
(0.0100062 -5.52915e-06 0)
(0.0100069 -5.70908e-06 0)
(0.0100079 -5.79511e-06 0)
(0.0100087 -5.63201e-06 1.43232e-22)
(0.0100091 -5.03748e-06 -4.20454e-24)
(0.0100086 -3.54302e-06 7.57042e-24)
(0.0100057 -6.17419e-07 -8.21769e-24)
(0.00999676 4.23858e-06 6.19473e-24)
(0.00997538 1.0377e-05 -9.92012e-23)
(0.00993832 1.36339e-05 4.35338e-24)
(0.00988528 6.23186e-06 -2.69839e-23)
(0.00982444 -2.04649e-05 -8.29046e-23)
(0.00977356 -6.93553e-05 1.14014e-22)
(0.00974611 -0.000133325 -1.63902e-22)
(0.00975546 -0.000194395 1.67189e-22)
(0.00981047 -0.000227894 -3.14413e-22)
(0.00991558 -0.000215556 -4.30802e-22)
(0.0100577 -0.00015482 5.2316e-22)
(0.0102173 -3.60411e-05 5.79246e-22)
(0.0103691 0.00012367 0)
(0.010496 0.000298737 -3.37882e-22)
(0.0105739 0.000460545 3.64614e-22)
(0.0106032 0.000583078 2.82434e-24)
(0.0105908 0.000636856 1.64791e-22)
(0.0105221 0.000626207 0)
(0.0103934 0.000560679 1.32605e-21)
(0.0102134 0.00042957 1.73583e-21)
(0.00998739 0.000257433 9.12012e-22)
(0.00972102 6.34948e-05 8.69244e-22)
(0.00941812 -0.000131442 1.07657e-21)
(0.0090908 -0.00030373 -1.85528e-21)
(0.00875333 -0.000432098 5.30492e-23)
(0.00843758 -0.000491612 -6.64579e-22)
(0.00818872 -0.000472317 4.52199e-23)
(0.00805324 -0.00038635 -8.18109e-23)
(0.00809384 -0.000232076 -2.67559e-24)
(0.0083241 -6.05783e-05 3.29013e-23)
(0.00869047 7.46515e-05 7.93425e-24)
(0.00910573 0.000152035 -7.65261e-24)
(0.00945585 0.000150855 0)
(0.00969914 0.000119905 -2.13805e-22)
(0.00984557 8.15132e-05 -4.53196e-24)
(0.00992446 5.01996e-05 1.175e-23)
(0.00996263 3.04692e-05 9.47265e-23)
(0.00997891 1.95467e-05 -9.10753e-23)
(0.00998609 1.38391e-05 -8.65118e-23)
(0.00998956 1.09124e-05 -1.74796e-22)
(0.00999129 9.27839e-06 -1.80661e-22)
(0.00999232 8.13215e-06 -8.41465e-23)
(0.00999317 7.13414e-06 -1.20493e-23)
(0.00999397 6.18102e-06 -1.01513e-22)
(0.00999474 5.25223e-06 2.12784e-22)
(0.00999547 4.35543e-06 -2.75629e-23)
(0.00999616 3.49567e-06 -8.28476e-23)
(0.00999681 2.67061e-06 0)
(0.00999743 1.87606e-06 0)
(0.00999799 1.16196e-06 -9.78241e-25)
(0.00999854 5.02361e-07 2.68301e-23)
(0.00999907 -1.38509e-07 7.98569e-23)
(0.0099996 -7.44714e-07 2.48849e-23)
(0.0100001 -1.23456e-06 -1.09375e-24)
(0.0100004 -1.58397e-06 -4.93692e-23)
(0.0100002 -1.64485e-06 4.22505e-23)
(0.00999886 -1.23071e-06 -5.82277e-23)
(0.00999468 2.73394e-08 0)
(0.00998384 2.73192e-06 -1.23481e-23)
(0.00996025 6.80525e-06 1.21415e-23)
(0.00991802 8.51819e-06 -1.6572e-23)
(0.00985511 -6.43838e-07 0)
(0.00977756 -3.05748e-05 0)
(0.00969848 -8.80749e-05 0)
(0.00964398 -0.000169288 0)
(0.00962335 -0.000258255 -3.04335e-22)
(0.00964046 -0.000329967 -1.65048e-22)
(0.0097102 -0.000353873 -8.09965e-23)
(0.00982818 -0.000332186 1.48767e-22)
(0.00998072 -0.00025212 9.2673e-22)
(0.0101457 -0.000114812 -2.98931e-22)
(0.0103016 5.71969e-05 -7.50756e-22)
(0.0104333 0.000231507 -3.51842e-23)
(0.0105361 0.000373693 3.96877e-22)
(0.0105864 0.00045247 -1.53147e-23)
(0.010598 0.000446682 4.18928e-23)
(0.0105134 0.000403855 -1.35505e-22)
(0.0103619 0.000334924 1.82245e-22)
(0.0101854 0.000259904 0)
(0.0099941 0.000189532 0)
(0.00980591 0.000131548 2.25752e-23)
(0.00964335 9.14995e-05 -6.38489e-23)
(0.00952173 6.78902e-05 5.91113e-23)
(0.00942599 5.4858e-05 -1.6344e-24)
(0.00933759 4.92857e-05 1.64866e-22)
(0.00925065 4.83334e-05 -1.62871e-22)
(0.00916313 4.98569e-05 -1.00232e-23)
(0.00907305 5.25302e-05 -2.73848e-22)
(0.00897926 5.55369e-05 -3.67099e-23)
(0.00888177 5.81543e-05 1.44065e-22)
(0.00878142 6.00378e-05 1.59769e-22)
(0.0086792 6.11832e-05 2.19563e-22)
(0.00857592 6.1826e-05 -2.18408e-22)
(0.00847192 6.23642e-05 8.57616e-24)
(0.0083669 6.32653e-05 -3.11219e-22)
(0.00825989 6.49673e-05 3.21683e-22)
(0.00814935 6.78115e-05 1.11334e-23)
(0.00803336 7.20277e-05 3.75551e-22)
(0.00790971 7.77773e-05 -4.53113e-22)
(0.00777604 8.52526e-05 4.91206e-22)
(0.00762966 9.48331e-05 -5.39567e-22)
(0.00746725 0.000107322 2.38578e-22)
(0.00728411 0.000124328 -3.10053e-22)
(0.00707286 0.000148956 2.09103e-23)
(0.00682107 0.000187173 -6.76112e-23)
(0.00650701 0.00025068 -4.16568e-22)
(0.00609177 0.000362974 4.45512e-22)
(0.00550645 0.00057176 -9.20829e-23)
(0.00463408 0.000972234 -3.56502e-23)
(0.00329499 0.00173736 1.24824e-22)
(0.00135746 0.00300743 0)
(0.000180117 0.0035184 -1.84699e-22)
(-0.000238436 -0.00208964 0)
(-0.000638969 -0.00257806 -7.2856e-23)
(-0.000323501 -0.00226361 3.17397e-23)
(0.000225353 -0.00185494 1.52262e-23)
(0.000818325 -0.00148615 -3.43689e-23)
(0.00138636 -0.00118511 3.73916e-23)
(0.00190605 -0.000954312 -3.70614e-23)
(0.00236891 -0.00078029 5.0519e-24)
(0.00277586 -0.000647902 3.76073e-24)
(0.00313216 -0.000545422 1.07769e-23)
(0.00344388 -0.000464451 2.17208e-24)
(0.00371654 -0.000399012 6.81737e-24)
(0.003955 -0.000344906 -1.23559e-23)
(0.00416335 -0.00029922 2.49134e-23)
(0.00434503 -0.000259936 -8.64461e-24)
(0.00450289 -0.000225651 3.62705e-24)
(0.00463934 -0.000195389 -2.45535e-24)
(0.00475649 -0.000168484 -4.3975e-25)
(0.00485616 -0.000144504 -1.66707e-23)
(0.00494007 -0.000123214 1.41695e-23)
(0.00500986 -0.000104547 -2.08823e-24)
(0.00506721 -8.8604e-05 -7.55787e-24)
(0.00511395 -7.5661e-05 6.00384e-23)
(0.00515212 -6.6197e-05 -6.41135e-23)
(0.00518412 -6.09423e-05 -8.71239e-23)
(0.00521285 -6.09645e-05 6.93102e-23)
(0.00524189 -6.78121e-05 1.13422e-22)
(0.00527564 -8.37614e-05 -1.05451e-22)
(0.00531914 -0.00011235 0)
(0.00538135 -0.000158923 0)
(0.00547684 -0.000232162 0)
(0.00553162 -0.000360664 0)
(0.00547626 -0.000569758 -3.70926e-22)
(0.00532231 -0.00087372 -3.09413e-22)
(0.00512401 -0.00128472 2.68006e-22)
(0.00492149 -0.00181896 -1.93312e-22)
(0.00474764 -0.00248506 -4.22955e-22)
(0.00456346 -0.00328262 1.43658e-22)
(0.00432418 -0.004125 5.67797e-22)
(0.00409157 -0.00491389 1.36666e-22)
(0.00392086 -0.00561019 1.76889e-21)
(0.00378709 -0.0061954 0)
(0.00367472 -0.00665603 -8.61354e-22)
(0.0035817 -0.00698951 -8.92261e-22)
(0.0034994 -0.00720043 1.23319e-22)
(0.00341489 -0.00730124 8.11659e-22)
(0.00331819 -0.00730003 -1.96076e-21)
(0.00320076 -0.0072131 -9.17187e-22)
(0.00304967 -0.00705208 -2.18369e-22)
(0.00285372 -0.00683288 -5.52973e-24)
(0.00261077 -0.00654155 4.12075e-22)
(0.00232968 -0.00618406 -3.25731e-22)
(0.00202471 -0.00576512 -1.19595e-22)
(0.00171025 -0.00526479 1.32607e-23)
(0.00144183 -0.0046788 1.23436e-21)
(0.00127452 -0.00399459 -4.71257e-22)
(0.00128662 -0.00323063 -4.81881e-22)
(0.00156237 -0.00238737 2.40038e-22)
(0.00221011 -0.00152169 1.02006e-23)
(0.00324651 -0.000725412 0)
(0.00457115 -9.52744e-05 -1.66042e-23)
(0.00602061 0.000310515 1.55192e-23)
(0.00731175 0.000486064 1.45605e-22)
(0.00831678 0.000466098 2.65283e-22)
(0.00901299 0.000375611 -2.3771e-22)
(0.009453 0.000266596 2.34117e-22)
(0.00970887 0.000173135 0)
(0.00984724 0.000106475 0)
(0.00991772 6.345e-05 3.92352e-22)
(0.00995333 3.73998e-05 -3.86966e-22)
(0.00997244 2.19547e-05 0)
(0.00998343 1.2579e-05 1.68363e-22)
(0.00999015 6.61556e-06 7.43076e-26)
(0.00999463 2.44924e-06 -1.67257e-22)
(0.00999782 -6.71223e-07 1.9984e-22)
(0.0100003 -3.0865e-06 1.75501e-22)
(0.0100024 -4.88248e-06 -3.76866e-22)
(0.010004 -6.21414e-06 1.12893e-23)
(0.0100054 -7.19084e-06 1.07832e-23)
(0.0100065 -7.95299e-06 3.23283e-22)
(0.0100074 -8.30884e-06 -3.23568e-22)
(0.0100082 -8.33967e-06 -4.89062e-24)
(0.0100086 -8.02122e-06 1.59199e-25)
(0.0100086 -7.1728e-06 4.69827e-24)
(0.010008 -5.504e-06 -1.39511e-22)
(0.0100059 -2.5619e-06 0)
(0.0100001 2.56484e-06 3.33063e-23)
(0.0099877 1.12041e-05 4.77832e-25)
(0.00996415 2.39087e-05 2.26985e-23)
(0.00992555 3.79255e-05 1.03743e-22)
(0.00987355 4.57312e-05 6.14514e-24)
(0.00981551 3.67516e-05 1.81989e-22)
(0.00977066 2.41867e-06 8.33909e-23)
(0.00975257 -5.68091e-05 -2.60219e-22)
(0.00977781 -0.000128325 -5.68114e-23)
(0.00985344 -0.000191379 2.78347e-22)
(0.00997653 -0.00022084 6.58704e-22)
(0.0101305 -0.000199267 4.18849e-22)
(0.0102942 -0.000121324 0)
(0.0104406 9.48959e-06 -3.75391e-22)
(0.0105491 0.000173097 0)
(0.0106075 0.000342061 3.38962e-22)
(0.0106186 0.000488036 5.80969e-25)
(0.0105763 0.00058655 1.98505e-22)
(0.0104737 0.000620008 -2.85038e-22)
(0.0103132 0.000583408 0)
(0.0101072 0.000485493 -1.37949e-21)
(0.00986259 0.000337517 -8.41066e-22)
(0.00958272 0.000159759 -1.17749e-22)
(0.00927238 -2.81525e-05 -9.48895e-22)
(0.00893464 -0.000207363 0)
(0.00858301 -0.000358268 8.2363e-22)
(0.00823242 -0.000465255 0)
(0.00790939 -0.000516116 -4.25431e-22)
(0.00764942 -0.000498488 2.34916e-23)
(0.00748449 -0.000426414 0)
(0.00745846 -0.000298412 0)
(0.00760095 -0.000140449 -3.35287e-23)
(0.00790597 1.55296e-05 0)
(0.00834078 0.000136076 5.45906e-24)
(0.00880477 0.000200217 -1.05699e-23)
(0.0092109 0.000196974 5.13131e-24)
(0.00951509 0.000166649 0)
(0.00971881 0.000125262 0)
(0.0098429 8.84037e-05 1.03368e-22)
(0.00991073 6.13311e-05 -9.95433e-23)
(0.00994597 4.33824e-05 1.76796e-22)
(0.00996417 3.22295e-05 8.6699e-23)
(0.00997372 2.5372e-05 9.14667e-24)
(0.00997902 2.08988e-05 8.42436e-23)
(0.00998233 1.76613e-05 -1.23459e-23)
(0.00998472 1.50801e-05 1.01511e-22)
(0.00998662 1.28832e-05 2.37738e-23)
(0.00998822 1.09589e-05 4.4404e-25)
(0.00998957 9.25739e-06 1.53433e-23)
(0.00999072 7.74842e-06 -2.7667e-23)
(0.00999169 6.42548e-06 1.12483e-22)
(0.00999245 5.26681e-06 2.23877e-22)
(0.00999294 4.32275e-06 0)
(0.00999313 3.63267e-06 -1.07048e-22)
(0.00999292 3.22137e-06 -1.32307e-22)
(0.00999197 3.33569e-06 2.56058e-23)
(0.00998976 4.10958e-06 7.05206e-23)
(0.00998524 6.16736e-06 4.50926e-23)
(0.00997629 1.03534e-05 -4.58262e-23)
(0.00995967 1.76065e-05 -1.00804e-23)
(0.00993017 2.85095e-05 3.09566e-24)
(0.0098822 4.07069e-05 4.66904e-23)
(0.00981516 4.59349e-05 1.6667e-23)
(0.00973764 3.1586e-05 6.96721e-23)
(0.00966513 -1.31543e-05 -2.70249e-23)
(0.00961998 -9.01828e-05 1.60703e-23)
(0.00961515 -0.000187642 1.74763e-22)
(0.00965641 -0.000282603 4.41523e-22)
(0.00975398 -0.000348279 2.94994e-22)
(0.00989713 -0.000358543 0)
(0.0100634 -0.000315123 5.19059e-22)
(0.0102325 -0.000204531 -1.64154e-21)
(0.0103797 -4.70788e-05 -1.59518e-23)
(0.0104934 0.000128956 0)
(0.0105625 0.000289788 -3.02423e-22)
(0.0105951 0.000404938 0)
(0.0105482 0.000457758 0)
(0.0104526 0.000441883 3.13528e-23)
(0.0102983 0.000405945 1.28534e-22)
(0.0101203 0.000362393 0)
(0.0099368 0.000313313 0)
(0.00975159 0.000263971 3.86704e-23)
(0.00957329 0.000220014 -7.47199e-23)
(0.00941403 0.000184432 -2.87746e-23)
(0.00927916 0.00015826 -2.32049e-23)
(0.00915584 0.000142082 1.08891e-22)
(0.00903313 0.000134811 -4.66473e-24)
(0.00890895 0.000134264 1.19887e-23)
(0.00878234 0.000137976 2.106e-23)
(0.00865176 0.000143771 2.81797e-22)
(0.00851631 0.000149905 6.07768e-23)
(0.00837622 0.00015522 -3.34452e-22)
(0.00823243 0.000159116 1.20922e-23)
(0.00808598 0.000161591 -2.33702e-22)
(0.00793764 0.000163183 2.49669e-22)
(0.00778756 0.000164811 -1.70444e-23)
(0.00763509 0.000167542 0)
(0.00747874 0.000172379 -2.08896e-23)
(0.00731634 0.000180116 -4.64604e-23)
(0.00714521 0.000191297 4.49974e-22)
(0.00696237 0.000206307 -3.97657e-22)
(0.00676457 0.000225595 5.05932e-22)
(0.0065482 0.000250017 -1.02483e-21)
(0.0063088 0.000281367 8.8751e-22)
(0.0060403 0.000323197 -3.00435e-22)
(0.00573346 0.000382239 -1.27546e-22)
(0.00537343 0.000471054 4.63394e-23)
(0.00493578 0.00061304 0)
(0.0043807 0.000851355 -1.6732e-22)
(0.00364862 0.00126168 6.28314e-23)
(0.00267006 0.00195762 0)
(0.0014172 0.00303253 -8.26167e-23)
(2.47987e-05 0.00421731 1.67977e-22)
(-0.000263526 0.00360935 2.8719e-22)
(-0.000179753 -0.00155401 -5.48096e-23)
(-0.000669175 -0.00241555 0)
(-0.000715886 -0.00244172 0)
(-0.000545297 -0.00220722 -3.46124e-23)
(-0.000233253 -0.0019091 2.81231e-23)
(0.000140483 -0.00162339 4.10766e-23)
(0.000527566 -0.00137808 -4.09353e-23)
(0.000905175 -0.00117578 1.45107e-23)
(0.00126053 -0.00101036 0)
(0.00158818 -0.000874438 -8.17056e-24)
(0.00188657 -0.000761491 0)
(0.00215598 -0.0006663 1.28646e-24)
(0.00239765 -0.000584851 0)
(0.00261323 -0.00051414 -3.42788e-24)
(0.00280448 -0.000451945 0)
(0.00297309 -0.000396636 0)
(0.0031207 -0.000347036 -9.74084e-25)
(0.00324884 -0.000302322 8.03975e-27)
(0.00335897 -0.000261962 -9.26922e-24)
(0.00345257 -0.00022568 9.17727e-24)
(0.00353112 -0.000193442 0)
(0.00359624 -0.000165457 -3.82386e-23)
(0.00364975 -0.0001422 4.30193e-23)
(0.00369378 -0.000124444 7.63253e-24)
(0.00373086 -0.000113329 0)
(0.00376408 -0.000110456 1.01237e-22)
(0.00379721 -0.000118052 -1.00333e-22)
(0.00383484 -0.000139213 0)
(0.00388209 -0.000178392 -1.3833e-22)
(0.00394734 -0.000241718 1.37541e-22)
(0.0040434 -0.00033798 -1.43852e-22)
(0.00411379 -0.000494185 2.84465e-22)
(0.00410381 -0.000734454 3.33702e-22)
(0.00402653 -0.00107336 6.05508e-23)
(0.00393037 -0.00152259 1.28219e-22)
(0.00384529 -0.00209513 -1.51861e-22)
(0.00378666 -0.00279055 7.50355e-23)
(0.00372039 -0.00358523 4.74123e-23)
(0.00361623 -0.00439609 -6.6816e-23)
(0.00351763 -0.00515313 -3.66341e-23)
(0.00345088 -0.00582719 -1.33542e-23)
(0.00339405 -0.00639725 -1.72422e-22)
(0.00333732 -0.00684843 1.60049e-21)
(0.00328063 -0.00717747 6.8897e-22)
(0.0032174 -0.00738778 2.14423e-22)
(0.0031373 -0.00748479 0)
(0.0030326 -0.00747718 7.68778e-23)
(0.00289539 -0.00738928 2.06379e-21)
(0.00271742 -0.00721644 9.9395e-22)
(0.00249207 -0.00697245 1.4132e-22)
(0.00222108 -0.00666138 2.37814e-21)
(0.00191466 -0.00628845 0)
(0.00158685 -0.00585815 -1.40267e-21)
(0.00125473 -0.00536365 1.19967e-23)
(0.000958102 -0.00480754 3.42834e-24)
(0.000734109 -0.00418777 5.83754e-22)
(0.000634995 -0.00351604 2.93499e-22)
(0.000717008 -0.00278877 -3.83492e-22)
(0.00106721 -0.00202579 7.22558e-23)
(0.00174668 -0.00126737 3.47445e-23)
(0.00275241 -0.000572992 -1.53255e-22)
(0.00405849 -1.37787e-06 -1.30565e-23)
(0.00545269 0.000371737 1.98971e-22)
(0.00675211 0.000540473 -2.58561e-22)
(0.00781748 0.00053687 3.68902e-22)
(0.0086095 0.000459337 -4.69131e-24)
(0.00915529 0.000351206 -2.23064e-22)
(0.00950424 0.000248477 -2.52748e-23)
(0.00971351 0.000166344 -1.98129e-22)
(0.00983397 0.000107131 2.43786e-22)
(0.00990226 6.72456e-05 1.67749e-22)
(0.00994114 4.13052e-05 0)
(0.00996386 2.44809e-05 1.93009e-22)
(0.00997782 1.338e-05 1.68295e-22)
(0.00998693 5.86118e-06 2.39367e-23)
(0.00999317 5.54139e-07 -3.78424e-22)
(0.00999767 -3.17488e-06 2.0817e-22)
(0.010001 -5.81026e-06 -2.30171e-23)
(0.0100036 -7.52569e-06 1.80243e-22)
(0.0100054 -8.36816e-06 -1.72167e-22)
(0.0100067 -8.45523e-06 1.6694e-22)
(0.0100072 -8.00263e-06 -1.6547e-22)
(0.0100071 -6.76464e-06 1.59981e-22)
(0.0100058 -4.22344e-06 0)
(0.0100022 3.03921e-07 4.48773e-24)
(0.00999505 7.80959e-06 4.12274e-24)
(0.00998154 1.9645e-05 -4.21349e-23)
(0.00995835 3.67108e-05 0)
(0.00992223 5.8119e-05 -3.71194e-23)
(0.00987422 7.81442e-05 -5.45047e-23)
(0.00982207 8.6174e-05 1.43454e-23)
(0.00978085 6.95588e-05 -1.2016e-22)
(0.00977357 2.20059e-05 -1.39778e-22)
(0.00980887 -5.11836e-05 1.5265e-22)
(0.00989873 -0.00013289 -1.97824e-23)
(0.0100327 -0.00019871 -2.45584e-22)
(0.0101928 -0.00022426 -3.2946e-22)
(0.0103553 -0.000194975 -2.14855e-23)
(0.0104941 -0.000108583 -3.03061e-22)
(0.0105796 2.34567e-05 6.18344e-22)
(0.0106154 0.000178848 0)
(0.0105947 0.00032978 0)
(0.010514 0.000450723 0)
(0.0103727 0.000520836 -1.90649e-22)
(0.0101856 0.000527811 -2.64177e-23)
(0.00996088 0.000472861 1.57751e-23)
(0.00970564 0.000366681 4.12893e-23)
(0.00942531 0.000223988 -7.0112e-22)
(0.00912258 6.32135e-05 -8.21446e-22)
(0.00880086 -9.8282e-05 0)
(0.0084633 -0.000244692 0)
(0.00812381 -0.000361889 0)
(0.00779632 -0.000440962 0)
(0.00750124 -0.000475122 2.41013e-22)
(0.00726271 -0.000463608 1.18296e-22)
(0.00710092 -0.000410836 0)
(0.0070407 -0.00031781 2.0931e-24)
(0.00710658 -0.000193289 0)
(0.00731125 -5.12705e-05 0)
(0.00766442 8.7559e-05 0)
(0.00811696 0.000190513 0)
(0.00859234 0.000243515 -3.73202e-24)
(0.00901588 0.000241708 9.68432e-23)
(0.00935118 0.000212652 3.39104e-24)
(0.0095905 0.000171456 -9.84489e-23)
(0.00974615 0.000131466 9.41421e-23)
(0.00984122 9.8745e-05 -9.01189e-23)
(0.00989697 7.46004e-05 0)
(0.00992887 5.77517e-05 8.63153e-23)
(0.00994722 4.61273e-05 -7.89774e-23)
(0.00995824 3.7895e-05 6.81772e-23)
(0.00996533 3.18008e-05 -9.74706e-23)
(0.00997025 2.70772e-05 1.01047e-23)
(0.00997388 2.33069e-05 1.35881e-23)
(0.00997663 2.02683e-05 -1.23807e-23)
(0.0099787 1.78268e-05 -8.35785e-23)
(0.00998017 1.59461e-05 -2.77634e-23)
(0.00998105 1.46109e-05 -1.13014e-22)
(0.00998115 1.39349e-05 -2.8088e-23)
(0.00998026 1.40077e-05 1.40264e-22)
(0.00997817 1.49702e-05 2.17527e-22)
(0.00997407 1.73817e-05 1.33373e-22)
(0.00996695 2.16425e-05 -2.57528e-23)
(0.0099549 2.88836e-05 -2.66206e-23)
(0.00993476 4.0277e-05 2.05629e-23)
(0.00990275 5.64958e-05 -1.03272e-23)
(0.00985471 7.65419e-05 3.53602e-24)
(0.00978983 9.41438e-05 -7.35194e-23)
(0.00971633 9.59696e-05 0)
(0.00965302 6.74142e-05 -8.13995e-23)
(0.00961703 1.00076e-06 -1.00628e-22)
(0.00962963 -9.74768e-05 0)
(0.00969275 -0.000209365 -1.12463e-22)
(0.00981366 -0.000307686 -3.21445e-22)
(0.00997217 -0.000364465 2.72646e-22)
(0.0101463 -0.000358769 -3.31005e-22)
(0.0103089 -0.00029437 -6.42005e-22)
(0.0104421 -0.000169285 6.68238e-22)
(0.010523 -1.14365e-05 5.12584e-22)
(0.0105636 0.000150015 -3.53421e-22)
(0.0105493 0.000285866 3.78227e-22)
(0.010483 0.000374985 -6.97595e-23)
(0.0103353 0.000410628 6.05791e-24)
(0.0101626 0.000408964 -5.6156e-23)
(0.00998309 0.00039589 0)
(0.00980627 0.000377452 -1.37808e-23)
(0.00963556 0.000352643 -1.82866e-23)
(0.00947089 0.0003252 -5.8874e-23)
(0.00931516 0.000299408 9.51154e-23)
(0.00917382 0.00027606 -9.09968e-23)
(0.00904561 0.000256167 9.14056e-23)
(0.00891693 0.000243615 0)
(0.00878096 0.000239667 1.03782e-23)
(0.00863877 0.000242923 2.02393e-22)
(0.0084911 0.000250986 -2.28901e-22)
(0.00833743 0.000261346 -2.90483e-22)
(0.0081775 0.000271816 2.5194e-22)
(0.00801178 0.000280845 -1.88866e-22)
(0.00784113 0.000287682 1.89074e-22)
(0.00766638 0.000292487 0)
(0.007488 0.000296244 -2.97717e-22)
(0.00730579 0.0003005 2.66735e-22)
(0.00711877 0.000307006 -3.65801e-22)
(0.00692514 0.000317387 3.27339e-22)
(0.00672241 0.000332916 4.6993e-23)
(0.00650757 0.000354473 -5.17545e-23)
(0.00627728 0.000382698 0)
(0.00602791 0.00041835 0)
(0.0057554 0.000462874 -6.7189e-23)
(0.00545478 0.000519234 0)
(0.00511942 0.000593173 0)
(0.0047396 0.000695294 1.72573e-22)
(0.00430057 0.000844617 0)
(0.00377996 0.00107446 0)
(0.00314595 0.0014403 4.57118e-22)
(0.0023621 0.00202289 -2.34219e-22)
(0.00141529 0.00289883 0)
(0.000389775 0.00400129 0)
(-0.000449535 0.00472427 -1.88864e-23)
(-0.000247865 0.00321112 -1.77729e-22)
(-0.000120826 -0.00118342 2.62789e-23)
(-0.000542755 -0.00214761 -5.1109e-23)
(-0.000741679 -0.00239785 -3.55568e-23)
(-0.000759631 -0.00232534 6.99566e-23)
(-0.000651697 -0.00213202 -1.02078e-22)
(-0.00045017 -0.00190474 4.90861e-23)
(-0.000201729 -0.00168399 0)
(6.73052e-05 -0.00148556 -1.46832e-23)
(0.000339436 -0.00131199 0)
(0.00060388 -0.00116123 -4.83217e-23)
(0.000854397 -0.00103 3.76457e-23)
(0.00108757 -0.000915035 -6.73211e-24)
(0.00130176 -0.000813466 -2.25736e-23)
(0.00149644 -0.000722928 1.70275e-23)
(0.00167172 -0.000641535 -4.5021e-24)
(0.00182808 -0.000567822 0)
(0.00196622 -0.000500694 -2.63382e-24)