/*--------------------------------*- C++ -*----------------------------------*\
| =========                 |                                                 |
| \\      /  F ield         | OpenFOAM: The Open Source CFD Toolbox           |
|  \\    /   O peration     | Version:  2506                                  |
|   \\  /    A nd           | Website:  www.openfoam.com                      |
|    \\/     M anipulation  |                                                 |
\*---------------------------------------------------------------------------*/
FoamFile
{
    version     2.0;
    format      ascii;
    arch        "LSB;label=32;scalar=64";
    class       volScalarField;
    location    "1.55679";
    object      s;
}
// * * * * * * * * * * * * * * * * * * * * * * * * * * * * * * * * * * * * * //

dimensions      [0 0 0 0 0 0 0];

internalField   nonuniform List<scalar> 
4000
(
-1.91754e-17
2.36658e-16
-3.13703e-15
-2.42142e-12
-1.51493e-10
-1.15512e-08
6.59136e-08
3.82574e-06
6.74208e-05
0.00103704
0.00869471
0.050302
0.156428
0.273194
0.29283
0.274385
0.214049
0.111081
0.0303847
0.0039156
0.00283487
0.00231855
0.00172153
0.0012142
0.000844578
0.000594496
0.000426672
0.00030812
0.000218193
0.000142449
8.1653e-05
4.18021e-05
2.12869e-05
1.3003e-05
1.0226e-05
8.96223e-06
7.5675e-06
6.31673e-06
6.34301e-06
8.56278e-06
1.59812e-05
0.000598611
0.00165308
0.00258262
0.00302322
0.00308169
0.00295277
0.00244482
0.00197122
0.00145821
0.000939981
0.000555028
0.000237896
8.39626e-05
2.93967e-05
1.03298e-05
2.88635e-06
-1.47684e-07
-1.21543e-06
-1.36576e-06
-1.1087e-06
-7.41632e-07
-4.17938e-07
-1.95149e-07
-7.21598e-08
-1.71145e-08
6.27129e-10
3.22157e-09
1.75019e-09
3.36097e-10
-2.68649e-10
-3.41585e-10
-2.38826e-10
-1.29446e-10
-5.91622e-11
-2.35015e-11
-8.37092e-12
-2.69884e-12
-7.89219e-13
-2.10602e-13
-5.17822e-14
-1.19074e-14
-2.61943e-15
-5.63881e-16
-1.19404e-16
-1.63575e-17
2.24654e-18
2.53577e-18
1.65099e-18
1.15987e-18
8.34159e-19
3.62513e-19
2.04094e-20
-2.24708e-20
-2.49572e-21
-4.75017e-21
-4.46839e-20
-1.74743e-19
-2.89217e-19
-4.12734e-19
-6.14851e-19
-7.12968e-19
-1.88246e-18
-6.63563e-18
-1.82989e-17
-4.35872e-17
-7.57402e-17
-8.34433e-17
1.49917e-16
1.91262e-15
6.03911e-15
2.36825e-14
3.77523e-14
4.7715e-14
6.72101e-14
7.8956e-14
8.35689e-14
8.29092e-14
7.21116e-14
5.98007e-14
4.73824e-14
3.39678e-14
2.30042e-14
1.5526e-14
9.87327e-15
6.31978e-15
4.188e-15
2.79291e-15
1.72893e-15
8.99075e-16
2.53116e-16
-1.70193e-17
-1.02262e-16
-8.89428e-17
-7.34411e-17
-5.53968e-17
-2.39792e-17
-8.81189e-18
-3.63637e-18
-3.28943e-18
-4.69027e-18
-3.98215e-18
-3.49645e-18
-2.97588e-18
-1.94539e-18
-7.80522e-19
-8.37222e-20
1.1152e-19
1.09434e-19
8.0316e-20
4.62285e-20
2.34504e-20
6.33598e-21
2.95115e-22
3.53985e-22
1.58333e-21
1.80319e-21
1.35149e-21
7.03738e-22
3.25113e-22
-1.07779e-21
-3.58881e-22
-2.33134e-23
1.86128e-23
-4.34076e-23
-4.19544e-22
3.11998e-21
1.25059e-20
2.08191e-20
2.5667e-20
2.61253e-20
2.27023e-20
1.71285e-20
1.1345e-20
6.62957e-21
3.40845e-21
1.52398e-21
5.788e-22
1.81021e-22
4.34863e-23
6.8201e-24
2.31061e-25
-1.81642e-25
-3.27456e-26
1.51105e-27
1.34246e-27
2.08277e-28
6.85738e-30
-1.27808e-30
9.51162e-31
6.99726e-30
1.27816e-29
1.53332e-29
1.40099e-29
1.02223e-29
6.05237e-30
2.89189e-30
1.07936e-30
2.84199e-31
1.55278e-32
-4.61901e-17
1.48748e-16
-2.92779e-16
-2.21977e-13
-8.77561e-12
-2.04365e-09
-1.15817e-09
1.38647e-07
2.32928e-06
4.43035e-05
0.000440758
0.00222893
0.00647806
0.0132061
0.0205783
0.0271388
0.0317895
0.0348261
0.0378745
0.0425383
0.0518132
0.0675399
0.0938949
0.136253
0.1942
0.259779
0.305386
0.305253
0.288601
0.239672
0.156176
0.0747742
0.0263169
0.0157444
0.0145931
0.0161298
0.017792
0.0206848
0.0259611
0.0347894
0.052546
0.0740403
0.0935661
0.108696
0.118451
0.123484
0.125372
0.123667
0.119973
0.114515
0.106868
0.0981632
0.0866713
0.0738565
0.0577775
0.0425342
0.0302874
0.0209789
0.0142491
0.00933988
0.0059799
0.00370942
0.00222852
0.00129493
0.00072182
0.000387211
0.000198237
9.68064e-05
4.46606e-05
1.92812e-05
7.66593e-06
2.73059e-06
8.26312e-07
1.8255e-07
6.63379e-09
-2.18466e-08
-1.58891e-08
-7.73129e-09
-3.04241e-09
-1.02289e-09
-3.0177e-10
-7.94145e-11
-1.89368e-11
-4.16784e-12
-8.59888e-13
-1.69716e-13
-3.23472e-14
-5.93095e-15
-1.07399e-15
-1.96803e-16
-3.37882e-17
1.72932e-17
2.21419e-17
9.79105e-18
-8.75117e-19
-1.44501e-17
-3.5512e-17
-1.2181e-17
2.94272e-18
1.40961e-17
3.4683e-17
1.09912e-16
8.4377e-16
7.35761e-15
4.50225e-14
1.38823e-13
3.81681e-13
6.39901e-13
1.11734e-12
2.13572e-12
3.0771e-12
8.08991e-12
1.97599e-11
2.86613e-11
3.59124e-11
4.00556e-11
4.22749e-11
4.26609e-11
4.02838e-11
3.59978e-11
3.05828e-11
2.46657e-11
1.91566e-11
1.43593e-11
1.01866e-11
6.90494e-12
4.46636e-12
2.70476e-12
1.51371e-12
7.71663e-13
3.26571e-13
1.24522e-13
5.44634e-14
2.92056e-14
1.98498e-14
1.81278e-14
1.49597e-14
1.29307e-14
9.06285e-15
5.59602e-15
3.02625e-15
1.4009e-15
5.3955e-16
1.69608e-16
3.78786e-17
6.35989e-18
-2.80489e-18
-1.00807e-17
-2.15591e-17
-1.9437e-17
-1.28066e-17
-6.83282e-18
-2.49961e-18
-3.77952e-19
1.67348e-19
4.62517e-20
-1.29247e-19
-1.73686e-19
-1.22665e-19
-6.12869e-20
-1.27624e-20
8.01394e-21
4.92873e-21
9.76785e-22
-5.54779e-22
5.93101e-21
4.47382e-20
8.22075e-20
7.24981e-20
2.80888e-21
-9.63973e-20
-1.76802e-19
-2.05548e-19
-1.81696e-19
-1.2863e-19
-7.39477e-20
-3.41725e-20
-1.21407e-20
-2.87682e-21
-1.35145e-22
2.47088e-22
1.28082e-22
3.18375e-23
2.277e-24
-1.41825e-24
-6.57744e-25
-1.41849e-25
-9.71703e-27
4.95094e-27
2.09718e-27
-9.3654e-29
-4.77301e-28
-3.0792e-28
-9.87175e-29
3.50182e-29
8.4587e-29
7.68856e-29
4.74612e-29
2.11812e-29
4.00352e-30
-1.51497e-17
7.53753e-18
1.72936e-16
-2.20781e-14
-7.7977e-13
-8.37774e-11
-7.31621e-10
3.66286e-09
1.01778e-07
4.44029e-07
1.02239e-06
1.78028e-06
2.82315e-06
4.59047e-06
8.29587e-06
1.88914e-05
0.000121298
0.000620171
0.00171639
0.00332983
0.00561598
0.00891982
0.0139472
0.0218829
0.0339858
0.0506371
0.0703752
0.0944989
0.122466
0.151592
0.175803
0.193723
0.221929
0.241772
0.245488
0.249876
0.250873
0.246976
0.240571
0.237383
0.241832
0.247067
0.252579
0.257535
0.261218
0.264419
0.267501
0.270971
0.274513
0.278123
0.281597
0.284584
0.28676
0.28789
0.287624
0.284752
0.277355
0.261896
0.237261
0.204529
0.169151
0.132295
0.0954872
0.0629389
0.0407248
0.0267084
0.0173454
0.0110796
0.00680996
0.00395025
0.00215938
0.00111761
0.000552396
0.000259547
0.000115262
4.83383e-05
1.91593e-05
7.18522e-06
2.54935e-06
8.53911e-07
2.69006e-07
7.92811e-08
2.16958e-08
5.45892e-09
1.24671e-09
2.53877e-10
4.47266e-11
6.33855e-12
5.4144e-13
-4.52679e-14
-3.98077e-14
-1.41274e-14
-4.0632e-15
-9.27691e-16
2.25083e-16
1.35953e-15
2.74663e-15
5.86366e-15
1.25289e-14
3.03259e-14
8.15412e-14
2.41071e-13
6.25539e-13
1.44336e-12
2.9113e-12
5.31594e-12
1.18165e-11
2.82861e-11
5.6978e-11
1.03529e-10
1.55288e-10
2.01519e-10
2.54481e-10
3.05749e-10
3.83227e-10
4.43507e-10
4.73612e-10
4.64608e-10
4.1995e-10
3.57848e-10
2.95971e-10
2.42903e-10
2.01073e-10
1.65943e-10
1.31363e-10
1.00647e-10
7.52237e-11
5.48578e-11
3.94891e-11
2.86973e-11
2.00754e-11
1.45602e-11
1.08557e-11
8.01881e-12
5.87331e-12
4.29717e-12
2.91203e-12
1.98685e-12
1.24435e-12
7.52639e-13
4.43648e-13
2.51471e-13
1.35975e-13
7.02018e-14
3.63037e-14
1.89304e-14
9.79382e-15
5.02853e-15
2.54117e-15
1.24718e-15
5.88958e-16
2.55977e-16
9.02792e-17
4.25121e-18
-2.10187e-17
-1.15961e-17
-6.32699e-19
4.07472e-18
4.131e-18
2.59545e-18
9.82803e-19
2.2027e-19
-1.75805e-20
-2.99554e-20
-1.03488e-20
-9.1896e-21
-2.68862e-19
-9.83502e-19
-2.07207e-18
-3.24707e-18
-4.12262e-18
-4.43228e-18
-4.13425e-18
-3.39022e-18
-2.4609e-18
-1.58373e-18
-9.00474e-19
-4.47924e-19
-1.91177e-19
-6.7268e-20
-1.76552e-20
-2.16823e-21
8.9976e-22
7.68582e-22
3.37496e-22
1.1111e-22
2.97133e-23
6.57456e-24
1.17153e-24
1.39118e-25
-1.04868e-26
-3.25398e-26
-3.84597e-26
-3.59521e-26
-2.74869e-26
-1.748e-26
-9.28921e-27
-4.07268e-27
-1.42186e-27
-2.17353e-28
1.24998e-17
-9.40992e-17
4.12002e-16
-2.27531e-15
-3.88665e-13
1.07032e-11
-6.38945e-11
2.14166e-10
4.38343e-09
1.85847e-08
-8.28797e-09
-1.13176e-07
-1.20766e-07
-9.63212e-08
-1.36807e-07
-1.9002e-07
-2.60183e-07
-3.75677e-07
4.37655e-08
1.07984e-06
3.12135e-06
7.18923e-06
1.58037e-05
3.51856e-05
8.03549e-05
0.000218676
0.000827675
0.00309986
0.00823683
0.0177789
0.0323581
0.0540957
0.0880439
0.129622
0.169923
0.206029
0.240713
0.266202
0.272518
0.266371
0.249218
0.227257
0.20818
0.190818
0.17714
0.16867
0.164597
0.165678
0.170362
0.178863
0.191629
0.208082
0.229914
0.253846
0.27657
0.299419
0.321702
0.34333
0.369156
0.38343
0.380701
0.369453
0.34959
0.318304
0.267628
0.21132
0.154885
0.103587
0.0611136
0.0349807
0.0206542
0.0121671
0.00689359
0.00364934
0.00182588
0.000884064
0.000417237
0.000191253
8.50543e-05
3.6732e-05
1.53831e-05
6.21722e-06
2.40655e-06
8.84792e-07
3.06379e-07
9.89534e-08
2.94665e-08
7.95834e-09
1.89206e-09
3.72994e-10
5.03071e-11
-1.21506e-12
-3.8243e-12
-1.75507e-12
-5.44437e-13
-1.48933e-13
7.82589e-15
1.17217e-13
2.87862e-13
6.40186e-13
1.15465e-12
1.3866e-12
5.64687e-13
-2.20639e-12
-1.36341e-11
-2.79797e-11
-3.85713e-11
-2.57059e-12
7.49914e-11
2.11024e-10
4.24301e-10
6.44003e-10
3.66595e-10
-7.13186e-10
-2.53221e-09
-4.61506e-09
-6.20966e-09
-7.3779e-09
-8.48526e-09
-9.1554e-09
-8.49506e-09
-6.59728e-09
-4.43292e-09
-2.67886e-09
-1.59267e-09
-8.89767e-10
-4.44003e-10
-1.72454e-10
-1.79549e-11
6.30209e-11
9.18131e-11
9.25062e-11
8.13746e-11
6.59734e-11
5.14644e-11
3.95031e-11
2.94428e-11
2.25367e-11
1.67301e-11
1.26456e-11
9.52032e-12
6.96061e-12
4.84707e-12
3.14691e-12
1.76259e-12
9.3292e-13
4.68648e-13
2.26504e-13
1.05027e-13
4.64944e-14
1.97339e-14
7.92514e-15
3.03041e-15
1.09219e-15
3.43087e-16
4.5205e-17
-9.54967e-17
-1.26332e-16
-8.94322e-17
-5.16696e-17
-2.31951e-17
-7.79933e-18
-1.74722e-18
-1.22244e-20
-1.29969e-21
-7.0202e-19
-2.03017e-18
-3.90709e-18
-5.76551e-18
-6.327e-18
-5.05881e-18
-2.55279e-18
-4.19026e-20
1.5255e-18
1.88761e-18
1.43912e-18
7.47183e-19
2.06121e-19
-6.39076e-20
-1.26441e-19
-9.44148e-20
-4.75496e-20
-1.68144e-20
-3.57124e-21
2.42555e-22
6.91897e-22
4.19627e-22
1.79637e-22
6.1931e-23
1.78108e-23
4.89961e-24
1.71405e-24
8.05325e-25
3.66208e-25
1.04956e-25
-2.22732e-26
-5.78106e-26
-4.86269e-26
-2.86311e-26
-9.10339e-27
9.94054e-18
-4.04552e-17
8.4037e-17
-1.84543e-16
-4.21267e-13
9.09811e-12
-2.03617e-11
6.46345e-11
8.80624e-10
-1.99115e-09
-8.54414e-09
-1.3997e-08
-1.91762e-08
-3.12514e-08
-6.70425e-08
-1.47463e-07
-2.63115e-07
-3.47609e-07
-3.24355e-07
-1.86681e-07
-4.25597e-08
2.32667e-07
8.58652e-07
1.84017e-06
3.46272e-06
6.12717e-06
9.67878e-06
1.49108e-05
2.74601e-05
6.01346e-05
0.000176727
0.00143171
0.00603182
0.0169366
0.0341488
0.0524539
0.065658
0.0693006
0.0651435
0.056647
0.0458737
0.0367272
0.0302869
0.0260172
0.0234777
0.0222033
0.0218682
0.0226185
0.0242069
0.0268372
0.0307781
0.0361293
0.0436931
0.0536527
0.0674607
0.0865798
0.114909
0.152714
0.198217
0.250472
0.305005
0.351503
0.380234
0.400589
0.402135
0.391355
0.368951
0.330613
0.270795
0.204529
0.141593
0.0869369
0.047046
0.0257903
0.0146299
0.00825084
0.00446502
0.00234359
0.00122243
0.000639072
0.000332156
0.000169659
8.42991e-05
4.03807e-05
1.84783e-05
7.99406e-06
3.23793e-06
1.21775e-06
4.20886e-07
1.31881e-07
3.65066e-08
8.4232e-09
1.34827e-09
-2.74673e-11
-1.38649e-10
-7.53617e-11
-3.00095e-11
-1.17984e-11
-8.19597e-12
-1.49487e-11
-8.15106e-11
-2.89018e-10
-8.47698e-10
-1.58705e-09
-2.90253e-09
-4.76892e-09
-7.59994e-09
-1.14272e-08
-1.74014e-08
-2.59065e-08
-3.70918e-08
-6.36491e-08
-1.8199e-07
-3.5129e-07
-5.24135e-07
-6.39498e-07
-6.78956e-07
-6.71516e-07
-6.12708e-07
-5.29412e-07
-4.37177e-07
-3.45997e-07
-2.62437e-07
-1.9084e-07
-1.32688e-07
-8.91775e-08
-5.74728e-08
-3.51198e-08
-2.01751e-08
-1.09927e-08
-5.8932e-09
-3.11143e-09
-1.60485e-09
-7.88231e-10
-3.52245e-10
-1.27111e-10
-1.82069e-11
2.91193e-11
4.36971e-11
4.29858e-11
3.60925e-11
2.75734e-11
1.98265e-11
1.36429e-11
9.14415e-12
5.96428e-12
3.7323e-12
2.26341e-12
1.32966e-12
7.56995e-13
4.17732e-13
2.22935e-13
1.14244e-13
5.62543e-14
2.58938e-14
1.02286e-14
3.70171e-15
1.3099e-15
5.80288e-16
3.20613e-16
1.68328e-16
7.04569e-17
2.19936e-17
3.24813e-18
-5.69319e-19
4.20291e-18
1.45835e-17
2.6287e-17
3.85228e-17
5.5499e-17
7.6791e-17
9.65026e-17
1.05739e-16
1.01928e-16
8.63754e-17
6.48554e-17
4.2858e-17
2.48641e-17
1.25753e-17
5.44739e-18
1.93499e-18
4.94129e-19
3.27434e-20
-5.70248e-20
-4.55656e-20
-2.34397e-20
-9.7226e-21
-3.45237e-21
-1.0686e-21
-2.83625e-22
-5.45896e-23
6.17006e-24
1.8603e-23
1.6977e-23
1.192e-23
7.12617e-24
3.70436e-24
1.66344e-24
6.30524e-25
1.17631e-25
2.04805e-18
-4.67701e-18
7.31189e-19
-1.2604e-17
-1.90985e-13
3.45543e-12
-1.50919e-11
3.67003e-11
8.19152e-11
-4.64124e-10
-4.71628e-10
-8.1977e-11
4.0624e-10
8.96974e-10
5.66164e-10
-3.41023e-09
-8.14156e-09
-8.74125e-09
-8.08894e-09
-6.36055e-09
1.18525e-10
9.4163e-09
2.30371e-08
5.15721e-08
1.09858e-07
2.36195e-07
5.56038e-07
1.25583e-06
2.93919e-06
7.0249e-06
1.71239e-05
2.89887e-05
4.89554e-05
8.88801e-05
0.000195497
0.00053978
0.00107249
0.0016091
0.00207256
0.00232998
0.00230634
0.00216858
0.00202333
0.00191121
0.00186334
0.00188512
0.00197854
0.00217877
0.00248787
0.00295149
0.00362958
0.00458027
0.00596456
0.00790528
0.01075
0.0148509
0.0208825
0.0307116
0.0455357
0.0688843
0.105938
0.159173
0.219455
0.280229
0.335024
0.377466
0.407089
0.419479
0.412739
0.393002
0.355751
0.294887
0.224281
0.156213
0.0978532
0.0542562
0.0302541
0.0179073
0.0109356
0.00668532
0.00405794
0.00246186
0.00149383
0.000898019
0.000527239
0.000297868
0.000160205
8.15702e-05
3.9074e-05
1.75354e-05
7.34913e-06
2.86419e-06
1.03241e-06
3.41295e-07
1.0129e-07
2.56604e-08
4.38471e-09
-9.06222e-10
-2.34793e-09
-4.46197e-09
-1.37267e-08
-4.6813e-08
-8.89717e-08
-1.14074e-07
-1.6144e-07
-2.51802e-07
-4.12932e-07
-6.56476e-07
-1.00333e-06
-1.41879e-06
-1.92671e-06
-2.5612e-06
-3.29971e-06
-3.73384e-06
-3.87381e-06
-3.6545e-06
-3.22775e-06
-2.70484e-06
-2.26763e-06
-1.82618e-06
-1.45053e-06
-1.159e-06
-9.33867e-07
-7.59497e-07
-6.23607e-07
-5.08926e-07
-4.06227e-07
-3.13826e-07
-2.31829e-07
-1.6053e-07
-1.01046e-07
-6.29815e-08
-3.92424e-08
-2.42722e-08
-1.50245e-08
-9.3691e-09
-5.87097e-09
-3.72708e-09
-2.39364e-09
-1.55281e-09
-1.01339e-09
-6.54763e-10
-4.14064e-10
-2.53205e-10
-1.47165e-10
-8.3597e-11
-4.61116e-11
-2.47035e-11
-1.27713e-11
-6.32567e-12
-2.9976e-12
-1.31826e-12
-5.31144e-13
-1.86362e-13
-4.74843e-14
-1.76305e-15
5.02166e-15
2.91236e-15
7.41005e-16
-1.0522e-16
-2.87867e-16
-2.03585e-16
-5.80376e-17
-6.05765e-19
3.92056e-17
6.84799e-17
9.63717e-17
1.51641e-16
1.87414e-16
2.34177e-16
2.92478e-16
3.42394e-16
3.31459e-16
3.05638e-16
2.57494e-16
2.11165e-16
1.49258e-16
9.40805e-17
5.36528e-17
2.77519e-17
1.2887e-17
5.21899e-18
1.71717e-18
3.63221e-19
-4.76239e-20
-1.12772e-19
-8.385e-20
-4.71133e-20
-2.26588e-20
-9.76096e-21
-3.91314e-21
-1.49129e-21
-5.31119e-22
-1.59152e-22
-2.23855e-23
1.96228e-23
2.50265e-23
1.8781e-23
1.13331e-23
4.43464e-24
3.21221e-18
-1.99256e-17
6.49249e-17
-1.79437e-16
-6.01796e-15
-3.71741e-14
-3.46064e-13
1.11907e-12
-1.02387e-11
-3.95637e-12
-1.10984e-12
2.38224e-11
9.58845e-11
1.70777e-10
2.29168e-10
2.51912e-10
2.96759e-10
4.34502e-10
6.0896e-10
7.46713e-10
7.79706e-10
5.49959e-10
7.2832e-10
1.43748e-09
3.34504e-09
8.23395e-09
2.24659e-08
6.15404e-08
1.89369e-07
4.67088e-07
1.13297e-06
2.78149e-06
6.42304e-06
1.4912e-05
2.84081e-05
4.02156e-05
5.59787e-05
7.91169e-05
0.000103187
0.000121128
0.000127582
0.000129355
0.000131628
0.000137435
0.000150022
0.000171628
0.000204786
0.000256286
0.000331702
0.000443159
0.000608298
0.000849046
0.00120782
0.00172901
0.00250196
0.00364097
0.00531824
0.00782581
0.0114174
0.0167584
0.0260244
0.0426704
0.069271
0.110469
0.166037
0.229134
0.293719
0.350423
0.393284
0.424236
0.437146
0.430241
0.4102
0.371843
0.311458
0.241861
0.174981
0.118475
0.0743242
0.0459066
0.030185
0.0208331
0.0147192
0.0104443
0.00732927
0.00503256
0.00335896
0.00216956
0.00134373
0.000792511
0.000443726
0.000235489
0.00011853
5.68066e-05
2.59074e-05
1.12973e-05
4.70283e-06
1.87044e-06
6.96778e-07
1.71351e-07
-1.09302e-07
-3.44176e-07
-6.6627e-07
-1.37983e-06
-2.37899e-06
-3.49965e-06
-4.82097e-06
-6.24262e-06
-7.70773e-06
-8.93595e-06
-9.93621e-06
-1.063e-05
-1.02881e-05
-9.42724e-06
-7.86026e-06
-6.53566e-06
-5.39981e-06
-4.27273e-06
-3.19221e-06
-2.30457e-06
-1.66573e-06
-1.25616e-06
-1.02829e-06
-9.16082e-07
-8.13007e-07
-7.5104e-07
-7.14121e-07
-6.77943e-07
-6.29883e-07
-5.68579e-07
-4.71938e-07
-3.79211e-07
-2.96949e-07
-2.26575e-07
-1.6962e-07
-1.25386e-07
-9.1233e-08
-6.55401e-08
-4.62286e-08
-3.18507e-08
-2.13756e-08
-1.38662e-08
-8.6475e-09
-5.15018e-09
-2.89475e-09
-1.53219e-09
-7.53428e-10
-3.39031e-10
-1.36336e-10
-4.66569e-11
-1.17138e-11
-4.7527e-13
1.89736e-12
1.60197e-12
1.0562e-12
5.52273e-13
2.65883e-13
1.24053e-13
5.56364e-14
2.41826e-14
1.0557e-14
4.52372e-15
1.7272e-15
6.2351e-16
2.19188e-16
1.53475e-17
-8.34089e-17
-1.25129e-16
-6.99874e-17
1.39632e-17
6.3261e-17
5.33373e-17
2.21239e-17
-2.83983e-17
-6.8605e-17
-9.91185e-17
-9.73014e-17
-7.3709e-17
-4.37378e-17
-1.96454e-17
-5.42257e-18
6.85882e-19
2.15973e-18
1.78091e-18
1.03473e-18
4.71606e-19
1.60264e-19
2.50521e-20
-1.79788e-20
-2.32385e-20
-1.76039e-20
-1.1144e-20
-6.40763e-21
-3.42912e-21
-1.70808e-21
-7.79696e-22
-3.1505e-22
-1.03727e-22
-1.98935e-23
9.88261e-24
3.33473e-18
-1.45201e-17
4.24314e-17
-1.12759e-16
2.3381e-16
-1.75983e-14
1.76816e-14
-2.77014e-13
-6.49217e-13
-7.70495e-13
1.51192e-12
4.83225e-12
5.39086e-12
6.06843e-12
1.37184e-11
2.35849e-11
3.55093e-11
5.2035e-11
7.04581e-11
8.6136e-11
9.8802e-11
8.95731e-11
7.55239e-11
7.06446e-11
1.15443e-10
2.97264e-10
9.35549e-10
2.9711e-09
9.62783e-09
2.72744e-08
7.3994e-08
2.08027e-07
5.6181e-07
1.60267e-06
3.08247e-06
4.34058e-06
5.60234e-06
7.28089e-06
9.17165e-06
1.09701e-05
1.22563e-05
1.35118e-05
1.52194e-05
1.79105e-05
2.24262e-05
2.98466e-05
4.13551e-05
5.92741e-05
8.73937e-05
0.000131939
0.000202013
0.000309983
0.000476233
0.000721943
0.00108261
0.00161305
0.00238964
0.00352723
0.00515224
0.00751123
0.0110339
0.0159648
0.0229282
0.035091
0.0558747
0.0885051
0.136619
0.194888
0.258149
0.320967
0.375599
0.413254
0.442103
0.457704
0.451586
0.43331
0.401036
0.349494
0.289772
0.230161
0.177444
0.134459
0.101116
0.075535
0.0570877
0.043758
0.0334723
0.0252094
0.0184575
0.0130642
0.0089434
0.005914
0.00375549
0.00229087
0.0013397
0.000757906
0.000415721
0.000223374
0.000117093
5.91326e-05
2.77348e-05
1.02999e-05
4.43592e-07
-5.46797e-06
-9.54491e-06
-1.25803e-05
-1.53973e-05
-1.81218e-05
-2.07286e-05
-2.32882e-05
-2.4018e-05
-2.20364e-05
-1.74393e-05
-1.10028e-05
-3.32929e-06
7.30488e-06
3.51943e-05
6.09504e-05
7.59275e-05
7.90632e-05
7.29768e-05
6.11843e-05
4.72604e-05
3.38529e-05
2.21818e-05
1.32982e-05
7.182e-06
3.29733e-06
1.01708e-06
-1.96955e-07
-7.47523e-07
-9.13365e-07
-8.78939e-07
-7.54078e-07
-6.04323e-07
-4.62182e-07
-3.4021e-07
-2.4291e-07
-1.68528e-07
-1.13567e-07
-7.42743e-08
-4.69373e-08
-2.85417e-08
-1.65933e-08
-9.12855e-09
-4.70598e-09
-2.22353e-09
-9.23834e-10
-3.03646e-10
-4.61698e-11
3.70155e-11
4.82513e-11
3.52738e-11
2.15822e-11
1.20714e-11
6.15624e-12
2.84301e-12
1.18254e-12
4.54823e-13
1.65848e-13
5.84562e-14
1.45848e-14
-1.7582e-15
-4.74732e-15
-5.18639e-15
-4.90145e-15
-4.46118e-15
-3.71963e-15
-2.9678e-15
-2.65772e-15
-2.94161e-15
-3.51917e-15
-3.9968e-15
-4.11505e-15
-3.81593e-15
-3.18997e-15
-2.36998e-15
-1.57577e-15
-9.49628e-16
-5.19666e-16
-2.56616e-16
-1.12156e-16
-4.13255e-17
-1.09398e-17
-9.59267e-20
2.53455e-18
2.3385e-18
1.53347e-18
8.4719e-19
4.1251e-19
1.78325e-19
6.63581e-20
1.85753e-20
1.01251e-21
-3.78314e-21
-3.92747e-21
-2.82685e-21
-1.71538e-21
-9.35891e-22
-3.46367e-22
-5.39163e-20
1.44057e-18
-1.29575e-17
7.39268e-17
-3.10159e-16
8.58401e-16
6.41803e-16
-5.50222e-15
-5.53727e-15
1.1703e-14
8.96964e-14
1.03479e-13
1.12772e-13
1.21658e-13
1.35636e-13
1.50659e-13
1.91417e-13
3.08835e-13
5.29386e-13
8.30308e-13
1.31106e-12
2.10896e-12
2.5965e-12
2.8161e-12
2.74154e-12
8.27012e-12
3.7345e-11
1.4973e-10
5.43681e-10
1.74698e-09
5.30471e-09
1.63785e-08
4.88445e-08
1.4995e-07
3.08576e-07
4.48044e-07
5.95577e-07
8.00171e-07
1.06563e-06
1.39353e-06
1.76186e-06
2.25949e-06
2.99335e-06
4.14804e-06
6.18415e-06
9.87314e-06
1.60445e-05
2.52634e-05
4.08549e-05
6.88252e-05
0.000115224
0.000189468
0.000305932
0.000484526
0.000754325
0.00115379
0.00173822
0.00257033
0.00372731
0.00531958
0.00749305
0.010453
0.01436
0.0194626
0.026894
0.037991
0.0553826
0.0818806
0.122148
0.17341
0.232112
0.291978
0.3492
0.400166
0.436767
0.457132
0.479764
0.48174
0.472323
0.453546
0.423352
0.382232
0.339136
0.297114
0.258027
0.222716
0.190896
0.162169
0.135543
0.110748
0.0873523
0.0645748
0.045361
0.031055
0.0208666
0.0138803
0.00911653
0.00593196
0.00376411
0.00232944
0.00141524
0.00085442
0.000515602
0.000311079
0.000187547
0.000113192
7.134e-05
5.26374e-05
5.19154e-05
6.41222e-05
0.000217934
0.000461239
0.000722322
0.000941942
0.00109119
0.00115234
0.00110359
0.000972013
0.000798224
0.000617732
0.000453832
0.000317578
0.00021211
0.00013523
8.20048e-05
4.69158e-05
2.4888e-05
1.1761e-05
4.40227e-06
5.9487e-07
-1.14093e-06
-1.73921e-06
-1.76612e-06
-1.54062e-06
-1.23709e-06
-9.40069e-07
-6.84324e-07
-4.80798e-07
-3.26957e-07
-2.15262e-07
-1.37085e-07
-8.41498e-08
-4.95405e-08
-2.77439e-08
-1.4575e-08
-6.98859e-09
-2.86761e-09
-8.06884e-10
9.09258e-11
3.79827e-10
3.90184e-10
2.97682e-10
1.9391e-10
1.11764e-10
5.6656e-11
2.57839e-11
1.1011e-11
4.40009e-12
1.61753e-12
4.39853e-13
1.78836e-14
-1.03828e-13
-1.15974e-13
-9.95897e-14
-8.38132e-14
-7.11699e-14
-6.00864e-14
-5.077e-14
-4.4171e-14
-4.033e-14
-3.75768e-14
-3.42471e-14
-2.9645e-14
-2.40503e-14
-1.82263e-14
-1.29189e-14
-8.58713e-15
-5.36387e-15
-3.1495e-15
-1.73385e-15
-8.88741e-16
-4.18088e-16
-1.7516e-16
-6.04225e-17
-1.22605e-17
4.30571e-18
7.61524e-18
6.39081e-18
4.28105e-18
2.5234e-18
1.35285e-18
6.65702e-19
2.9799e-19
1.17202e-19
3.63543e-20
4.65842e-21
-5.05466e-21
-6.15743e-21
-4.74375e-21
-2.50682e-21
-6.2065e-20
3.17291e-19
-1.10634e-18
3.67052e-18
-1.11793e-17
2.2764e-17
-1.68383e-17
-1.24467e-16
6.46765e-17
1.18866e-15
1.40866e-15
1.66157e-15
1.96987e-15
2.39076e-15
2.73531e-15
2.2035e-15
4.03277e-16
-2.9007e-15
-8.95807e-15
-1.96262e-14
-3.29271e-14
-3.84177e-14
-3.34487e-14
-7.38112e-15
1.48158e-13
5.29604e-13
2.41462e-12
1.00617e-11
3.85332e-11
1.33572e-10
4.40171e-10
1.45649e-09
4.66267e-09
1.51976e-08
3.32407e-08
5.16845e-08
7.56792e-08
1.14719e-07
1.75837e-07
2.70967e-07
4.19673e-07
6.74939e-07
1.11572e-06
1.76794e-06
2.97939e-06
5.50535e-06
1.02689e-05
1.89294e-05
3.38014e-05
5.83604e-05
9.80369e-05
0.000160886
0.000259481
0.000411509
0.000643266
0.000989887
0.0015009
0.00223472
0.00326069
0.0046641
0.00652976
0.00898767
0.0121501
0.0159716
0.0207351
0.0270473
0.0349165
0.0452802
0.0619354
0.0858559
0.118949
0.16278
0.213083
0.268352
0.32412
0.374386
0.419613
0.457798
0.478409
0.494679
0.514575
0.521752
0.519168
0.510515
0.495972
0.474937
0.447797
0.418072
0.386141
0.352177
0.316276
0.27805
0.23808
0.198565
0.16039
0.125719
0.0945042
0.0670057
0.0452473
0.031828
0.0233868
0.0178474
0.013911
0.0110928
0.00919727
0.00803288
0.00749286
0.00738504
0.00752627
0.00778439
0.00789394
0.0077206
0.00723705
0.00648362
0.00556359
0.00457168
0.00360418
0.00273235
0.00199382
0.00140189
0.000950627
0.000621463
0.0003912
0.000236429
0.000136357
7.42062e-05
3.72548e-05
1.63479e-05
5.25242e-06
-1.21937e-07
-2.33832e-06
-2.91893e-06
-2.74357e-06
-2.27633e-06
-1.75395e-06
-1.28248e-06
-8.98821e-07
-6.06841e-07
-3.95379e-07
-2.48436e-07
-1.50071e-07
-8.66715e-08
-4.73355e-08
-2.39519e-08
-1.07215e-08
-3.67489e-09
-2.47699e-10
1.17898e-09
1.56423e-09
1.45734e-09
1.16858e-09
8.4757e-10
5.69583e-10
3.55576e-10
2.05534e-10
1.08332e-10
5.14045e-11
2.13821e-11
6.96908e-12
1.59171e-12
8.95105e-14
-2.97527e-13
-3.73904e-13
-3.39365e-13
-2.83015e-13
-2.36681e-13
-2.01261e-13
-1.73032e-13
-1.51794e-13
-1.33621e-13
-1.1458e-13
-9.3795e-14
-7.26384e-14
-5.31141e-14
-3.67292e-14
-2.4089e-14
-1.50265e-14
-8.93029e-15
-5.05377e-15
-2.71279e-15
-1.36874e-15
-6.37146e-16
-2.62347e-16
-8.49674e-17
-1.0419e-17
1.4652e-17
1.85495e-17
1.50911e-17
1.02865e-17
6.28213e-18
3.51993e-18
1.82016e-18
8.62416e-19
3.65275e-19
1.2924e-19
2.92777e-20
-5.95522e-21
-1.37575e-20
-1.21806e-20
-7.18418e-21
-6.53319e-21
3.64403e-20
-1.71357e-19
7.97063e-19
-2.4965e-18
2.53693e-18
-6.29526e-18
-1.62113e-17
2.62334e-17
1.64822e-16
1.82058e-16
1.26586e-16
7.38311e-17
3.87354e-17
3.57904e-17
-1.27118e-16
-3.92266e-16
-7.01492e-16
-1.5176e-15
-3.67531e-15
-6.19573e-15
-6.71206e-15
-4.50576e-15
1.18326e-14
8.04828e-14
2.88093e-13
8.1938e-13
2.09456e-12
6.25852e-12
1.93492e-11
5.94915e-11
1.89326e-10
5.96245e-10
1.93174e-09
4.59596e-09
8.47446e-09
1.52202e-08
2.8241e-08
5.18536e-08
9.31948e-08
1.73395e-07
3.51789e-07
7.04488e-07
1.38309e-06
2.69247e-06
5.13633e-06
9.43633e-06
1.67525e-05
2.88688e-05
4.86491e-05
8.08603e-05
0.000132932
0.000216538
0.000348679
0.000553949
0.000865395
0.00132895
0.00200369
0.00295827
0.00427605
0.00604824
0.0083795
0.0113864
0.0151521
0.0197371
0.0252584
0.0316319
0.0388964
0.0480136
0.0596837
0.0752648
0.0971587
0.126003
0.162038
0.20466
0.2513
0.299549
0.349138
0.393731
0.433461
0.468855
0.499171
0.518419
0.533617
0.549131
0.565805
0.57021
0.568435
0.561989
0.550307
0.53292
0.508725
0.475358
0.436153
0.392413
0.346769
0.300089
0.254973
0.212313
0.174423
0.141602
0.114709
0.0932512
0.0766592
0.0641483
0.0546495
0.047341
0.0414048
0.0362388
0.0314925
0.0269499
0.022585
0.0184508
0.0146431
0.0112755
0.00841249
0.00607945
0.00425581
0.00288478
0.00189263
0.00120096
0.000735783
0.000433588
0.000244114
0.000129808
6.37028e-05
2.72838e-05
8.56122e-06
-1.00743e-07
-3.46336e-06
-4.25357e-06
-3.84134e-06
-3.23637e-06
-2.43882e-06
-1.73682e-06
-1.18319e-06
-7.74159e-07
-4.86776e-07
-2.93581e-07
-1.68882e-07
-9.15157e-08
-4.59528e-08
-2.0464e-08
-6.89953e-09
-1.5774e-10
2.51811e-09
3.02521e-09
2.8675e-09
2.54094e-09
2.086e-09
1.61407e-09
1.19043e-09
8.40899e-10
5.67941e-10
3.65805e-10
2.2271e-10
1.27024e-10
6.70812e-11
3.25127e-11
1.40851e-11
5.52007e-12
1.74301e-12
1.18093e-13
-2.96466e-13
-3.41222e-13
-3.20744e-13
-3.16807e-13
-3.05727e-13
-2.81792e-13
-2.43602e-13
-1.96002e-13
-1.47157e-13
-1.03603e-13
-6.87458e-14
-4.31967e-14
-2.58008e-14
-1.46908e-14
-7.97837e-15
-4.11557e-15
-1.99239e-15
-8.80463e-16
-3.30744e-16
-8.03562e-17
1.87724e-17
4.69216e-17
4.56216e-17
3.49389e-17
2.3562e-17
1.45195e-17
8.28939e-18
4.39202e-18
2.14256e-18
9.41853e-19
3.53497e-19
9.43585e-20
-2.8532e-21
-2.86824e-20
-2.77439e-20
-2.01062e-20
-1.0512e-20
-1.15183e-19
8.3337e-19
-3.56003e-18
9.37794e-18
-3.33416e-18
-7.29025e-17
5.86186e-16
-2.56885e-15
-1.44174e-15
3.18779e-15
1.34259e-14
1.64252e-14
1.17492e-14
8.16572e-15
6.15332e-15
6.08598e-15
8.17805e-15
1.04792e-14
1.0346e-14
4.8518e-15
-7.39009e-15
-2.38908e-14
-3.75662e-14
-4.89944e-14
-2.83511e-14
1.23741e-13
6.92524e-13
1.93746e-12
3.98569e-12
8.39961e-12
2.24737e-11
5.89864e-11
1.61068e-10
4.52163e-10
1.11907e-09
2.69434e-09
6.07497e-09
1.42564e-08
3.34095e-08
7.63488e-08
1.69433e-07
3.78306e-07
8.49784e-07
1.92213e-06
4.12901e-06
7.78568e-06
1.37811e-05
2.35447e-05
3.96737e-05
6.64579e-05
0.000110677
0.00018322
0.000300731
0.000485494
0.000765316
0.00117544
0.00175867
0.00255761
0.00362216
0.00498935
0.00674298
0.00907709
0.0120382
0.0157516
0.0203421
0.0259232
0.0325543
0.0402044
0.0488593
0.058603
0.0697643
0.0830997
0.0996028
0.120168
0.145588
0.175945
0.210746
0.249339
0.290382
0.332042
0.372661
0.412158
0.447826
0.479566
0.508464
0.533367
0.552718
0.567329
0.579334
0.587455
0.58767
0.584037
0.575276
0.560209
0.538103
0.509337
0.473407
0.430634
0.384764
0.339
0.294716
0.253642
0.21641
0.183464
0.154796
0.129944
0.108449
0.0897539
0.0734033
0.0591123
0.0466868
0.0360412
0.0271154
0.0198369
0.014093
0.00971544
0.00649428
0.00420479
0.00263379
0.00159344
0.000928465
0.000517679
0.000272384
0.000133003
5.82297e-05
2.02998e-05
2.07962e-06
-4.47518e-06
-5.38811e-06
-4.95629e-06
-4.23923e-06
-3.28028e-06
-2.36245e-06
-1.60863e-06
-1.04086e-06
-6.41187e-07
-3.76398e-07
-2.09741e-07
-1.09715e-07
-5.17745e-08
-2.00303e-08
-6.10419e-09
-4.92722e-10
1.6887e-09
2.56256e-09
2.80149e-09
2.55734e-09
2.25805e-09
1.8769e-09
1.49518e-09
1.16584e-09
8.95267e-10
6.73246e-10
4.94606e-10
3.52294e-10
2.41782e-10
1.5854e-10
9.84123e-11
5.77711e-11
3.18875e-11
1.68146e-11
8.41651e-12
3.96578e-12
1.68754e-12
5.37277e-13
-4.25587e-14
-3.07896e-13
-3.78466e-13
-3.40685e-13
-2.89318e-13
-2.13238e-13
-1.43655e-13
-8.97103e-14
-5.22751e-14
-2.84273e-14
-1.44099e-14
-6.79196e-15
-2.91545e-15
-1.05011e-15
-2.25726e-16
8.94038e-17
1.72543e-16
1.62805e-16
1.25122e-16
8.63226e-17
5.5263e-17
3.32353e-17
1.88244e-17
1.00021e-17
4.93252e-18
2.20965e-18
8.57006e-19
2.48635e-19
1.25981e-20
-5.55052e-20
-5.85575e-20
-4.30226e-20
-2.67983e-20
-1.51811e-20
-6.23285e-21
5.77767e-19
-3.98353e-18
2.27835e-17
-1.15186e-16
5.45557e-16
-5.56993e-16
2.19817e-14
-1.65929e-14
-3.37362e-13
-3.77116e-13
-6.72357e-14
5.37882e-13
5.9964e-13
6.09125e-13
6.68341e-13
9.66597e-13
1.55465e-12
1.86069e-12
1.9088e-12
1.81365e-12
1.61421e-12
1.32028e-12
8.30044e-13
5.21484e-14
1.32568e-14
1.35288e-12
5.04918e-12
1.08705e-11
1.60143e-11
2.12277e-11
6.63744e-11
1.74827e-10
4.08677e-10
8.9906e-10
1.90408e-09
3.96016e-09
8.35335e-09
1.83382e-08
4.19513e-08
1.08443e-07
3.28661e-07
1.0317e-06
2.75883e-06
7.24131e-06
1.59566e-05
2.75484e-05
4.42859e-05
7.00784e-05
0.000112211
0.000182753
0.000298482
0.000488883
0.000800222
0.00127549
0.00196387
0.00292113
0.00420833
0.00584947
0.00789385
0.0103035
0.0131803
0.0165294
0.0204397
0.0250059
0.0303361
0.036574
0.043818
0.0521408
0.0615625
0.0720901
0.0838443
0.0972181
0.111959
0.127382
0.145376
0.166295
0.190241
0.217267
0.247321
0.279916
0.314282
0.349676
0.385251
0.420066
0.4533
0.48419
0.512162
0.536693
0.557352
0.57327
0.584201
0.589238
0.589008
0.585119
0.573979
0.555745
0.530447
0.498907
0.462241
0.421916
0.379101
0.335389
0.29208
0.250355
0.211114