/*--------------------------------*- C++ -*----------------------------------*\
| =========                 |                                                 |
| \\      /  F ield         | OpenFOAM: The Open Source CFD Toolbox           |
|  \\    /   O peration     | Version:  2506                                  |
|   \\  /    A nd           | Website:  www.openfoam.com                      |
|    \\/     M anipulation  |                                                 |
\*---------------------------------------------------------------------------*/
FoamFile
{
    version     2.0;
    format      ascii;
    arch        "LSB;label=32;scalar=64";
    class       volScalarField;
    location    "2.64017e-05";
    object      s;
}
// * * * * * * * * * * * * * * * * * * * * * * * * * * * * * * * * * * * * * //

dimensions      [0 0 0 0 0 0 0];

internalField   nonuniform List<scalar> 
4000
(
0.000987082
7.64759e-10
-2.45183e-10
-2.47797e-13
-1.87642e-16
-1.16904e-19
2.65282e-21
4.00479e-24
-6.99231e-25
-9.81505e-28
-3.72727e-29
-7.2219e-32
-8.84884e-35
-8.70213e-38
-7.50005e-41
-5.91555e-44
-4.37653e-47
-3.08428e-50
-2.09168e-53
-1.37472e-56
-8.79976e-60
-5.50567e-63
-3.37539e-66
-2.03123e-69
-1.20109e-72
-6.982e-76
-3.98969e-79
-2.23962e-82
-1.23344e-85
-6.65035e-89
-3.49846e-92
-1.78614e-95
-8.80149e-99
-4.14431e-102
-1.8113e-105
-7.38585e-109
-2.95922e-112
-1.21677e-115
-5.25398e-119
-2.43785e-122
-1.24532e-125
-7.02128e-129
-4.29284e-132
-2.80449e-135
-1.93716e-138
-1.4048e-141
-1.06458e-144
-8.38633e-148
-6.83916e-151
-5.7569e-154
-4.98337e-157
-4.42388e-160
-4.01758e-163
-3.71975e-166
-3.50774e-169
-3.35642e-172
-3.25586e-175
-3.19518e-178
-3.16037e-181
-3.1591e-184
-3.16281e-187
-3.18012e-190
-3.19837e-193
-3.20664e-196
-3.20813e-199
-3.17859e-202
-3.12922e-205
-3.03605e-208
-2.90877e-211
-2.73775e-214
-2.52602e-217
-2.28464e-220
-2.01347e-223
-1.72912e-226
-1.44359e-229
-1.16736e-232
-9.13402e-236
-6.90424e-239
-5.02585e-242
-3.51817e-245
-2.36492e-248
-1.5234e-251
-9.39031e-255
-5.53036e-258
-3.10609e-261
-1.66293e-264
-8.47627e-268
-4.10282e-271
-1.8876e-274
-8.2493e-278
-3.4146e-281
-1.34222e-284
-5.00759e-288
-1.77047e-291
-5.96189e-295
-1.90594e-298
-5.82966e-302
-1.70317e-305
-4.79605e-309
-1.30156e-312
-3.44586e-316
0
0
0
0
0
0
0
0
0
0
0
0
0
0
0
0
0
0
0
0
0
0
0
0
0
0
0
0
0
0
0
0
0
0
0
0
0
0
0
0
0
0
0
0
0
0
0
0
0
0
0
0
0
0
0
0
0
0
0
0
0
0
0
0
0
0
0
0
0
0
0
0
0
0
0
0
0
0
0
0
0
0
0
0
0
0
0
0
0
0
0
0
0
0
0
0
0
0
0
0.000989811
7.7123e-10
-2.47287e-10
-2.50665e-13
-1.90356e-16
-1.18946e-19
2.69874e-21
4.08621e-24
-7.13453e-25
-1.0042e-27
-3.81445e-29
-7.41053e-32
-9.10383e-35
-8.97582e-38
-7.7552e-41
-6.1316e-44
-4.54704e-47
-3.21177e-50
-2.18301e-53
-1.43789e-56
-9.22414e-60
-5.78374e-63
-3.55373e-66
-2.14347e-69
-1.27056e-72
-7.40569e-76
-4.24469e-79
-2.3913e-82
-1.32277e-85
-7.17289e-89
-3.80441e-92
-1.9681e-95
-9.87459e-99
-4.77583e-102
-2.20076e-105
-9.73818e-109
-4.2731e-112
-1.89134e-115
-8.61268e-119
-4.10729e-122
-2.08917e-125
-1.12688e-128
-6.40461e-132
-3.83608e-135
-2.41322e-138
-1.5914e-141
-1.09784e-144
-7.89075e-148
-5.90383e-151
-4.58437e-154
-3.68455e-157
-3.05975e-160
-2.61505e-163
-2.29584e-166
-2.0619e-169
-1.8886e-172
-1.75718e-175
-1.6542e-178
-1.56815e-181
-1.49217e-184
-1.4158e-187
-1.3351e-190
-1.24512e-193
-1.14258e-196
-1.02945e-199
-9.04861e-203
-7.7603e-206
-6.4555e-209
-5.21193e-212
-4.07109e-215
-3.07313e-218
-2.24423e-221
-1.58065e-224
-1.07528e-227
-7.06444e-231
-4.47769e-234
-2.74063e-237
-1.62061e-240
-9.25211e-244
-5.10197e-247
-2.71865e-250
-1.39961e-253
-6.96296e-257
-3.3476e-260
-1.55468e-263
-6.979e-267
-3.02836e-270
-1.26846e-273
-5.13534e-277
-2.00991e-280
-7.58995e-284
-2.77131e-287
-9.78503e-291
-3.33604e-294
-1.10261e-297
-3.52351e-301
-1.09462e-304
-3.30152e-308
-9.72594e-312
-2.79831e-315
-8.3422e-319
0
0
0
0
0
0
0
0
0
0
0
0
0
0
0
0
0
0
0
0
0
0
0
0
0
0
0
0
0
0
0
0
0
0
0
0
0
0
0
0
0
0
0
0
0
0
0
0
0
0
0
0
0
0
0
0
0
0
0
0
0
0
0
0
0
0
0
0
0
0
0
0
0
0
0
0
0
0
0
0
0
0
0
0
0
0
0
0
0
0
0
0
0
0
0
0
0
0
0
0.000992556
7.77655e-10
-2.49347e-10
-2.53465e-13
-1.93024e-16
-1.20957e-19
2.74216e-21
4.16486e-24
-7.27518e-25
-1.02705e-27
-3.90166e-29
-7.6027e-32
-9.36881e-35
-9.26644e-38
-8.03251e-41
-6.37231e-44
-4.74211e-47
-3.36179e-50
-2.29372e-53
-1.5169e-56
-9.77255e-60
-6.15558e-63
-3.80079e-66
-2.30473e-69
-1.37415e-72
-8.06147e-76
-4.65427e-79
-2.64386e-82
-1.47661e-85
-8.09866e-89
-4.35457e-92
-2.29014e-95
-1.17413e-98
-5.84965e-102
-2.81623e-105
-1.31996e-108
-6.16243e-112
-2.91858e-115
-1.42941e-118
-7.36889e-122
-4.06432e-125
-2.37294e-128
-1.45185e-131
-9.29897e-135
-6.21275e-138
-4.32193e-141
-3.1238e-144
-2.33537e-147
-1.80429e-150
-1.43572e-153
-1.17317e-156
-9.82709e-160
-8.40376e-163
-7.32743e-166
-6.48875e-169
-5.8255e-172
-5.28684e-175
-4.83891e-178
-4.45543e-181
-4.11939e-184
-3.81159e-187
-3.52251e-190
-3.24221e-193
-2.96168e-196
-2.68111e-199
-2.39282e-202
-2.10476e-205
-1.81494e-208
-1.53361e-211
-1.26556e-214
-1.01777e-217
-7.97755e-221
-6.07216e-224
-4.48896e-227
-3.22031e-230
-2.23761e-233
-1.50579e-236
-9.811e-240
-6.18115e-243
-3.7642e-246
-2.2153e-249
-1.25904e-252
-6.90813e-256
-3.65782e-259
-1.86763e-262
-9.19726e-266
-4.36783e-269
-1.99761e-272
-8.80644e-276
-3.74292e-279
-1.53144e-282
-6.04219e-286
-2.2997e-289
-8.4368e-293
-2.99337e-296
-1.02575e-299
-3.41024e-303
-1.10007e-306
-3.46076e-310
-1.06338e-313
-3.26085e-317
0
0
0
0
0
0
0
0
0
0
0
0
0
0
0
0
0
0
0
0
0
0
0
0
0
0
0
0
0
0
0
0
0
0
0
0
0
0
0
0
0
0
0
0
0
0
0
0
0
0
0
0
0
0
0
0
0
0
0
0
0
0
0
0
0
0
0
0
0
0
0
0
0
0
0
0
0
0
0
0
0
0
0
0
0
0
0
0
0
0
0
0
0
0
0
0
0
0
0
0.000995315
7.84166e-10
-2.51435e-10
-2.56311e-13
-1.95745e-16
-1.23014e-19
2.78757e-21
4.24666e-24
-7.4199e-25
-1.05058e-27
-3.99166e-29
-7.80134e-32
-9.64324e-35
-9.56803e-38
-8.32089e-41
-6.62322e-44
-4.94596e-47
-3.51902e-50
-2.41013e-53
-1.60029e-56
-1.03539e-59
-6.55172e-63
-4.06554e-66
-2.47871e-69
-1.4868e-72
-8.78127e-76
-5.1087e-79
-2.92758e-82
-1.6519e-85
-9.1708e-89
-5.00378e-92
-2.67929e-95
-1.40537e-98
-7.21223e-102
-3.61032e-105
-1.77559e-108
-8.73943e-112
-4.37348e-115
-2.26367e-118
-1.23069e-121
-7.1223e-125
-4.33373e-128
-2.74534e-131
-1.80962e-134
-1.23753e-137
-8.76835e-141
-6.42462e-144
-4.84738e-147
-3.76338e-150
-2.99643e-153
-2.43983e-156
-2.02818e-159
-1.71447e-162
-1.47225e-165
-1.2796e-168
-1.12424e-171
-9.96005e-175
-8.8831e-178
-7.96196e-181
-7.16267e-184
-6.45315e-187
-5.81431e-190
-5.22809e-193
-4.67812e-196
-4.16063e-199
-3.66114e-202
-3.18609e-205
-2.72842e-208
-2.29758e-211
-1.89613e-214
-1.52999e-217
-1.20683e-220
-9.27121e-224
-6.93581e-227
-5.04728e-230
-3.56594e-233
-2.44523e-236
-1.62666e-239
-1.04845e-242
-6.5443e-246
-3.95477e-249
-2.31208e-252
-1.30725e-255
-7.14524e-259
-3.77267e-262
-1.92454e-265
-9.48406e-269
-4.50908e-272
-2.07009e-275
-9.1781e-279
-3.92479e-282
-1.62121e-285
-6.47156e-289
-2.49463e-292
-9.31538e-296
-3.36564e-299
-1.18158e-302
-4.03121e-306
-1.34305e-309
-4.37595e-313
-1.40788e-316
0
0
0
0
0
0
0
0
0
0
0
0
0
0
0
0
0
0
0
0
0
0
0
0
0
0
0
0
0
0
0
0
0
0
0
0
0
0
0
0
0
0
0
0
0
0
0
0
0
0
0
0
0
0
0
0
0
0
0
0
0
0
0
0
0
0
0
0
0
0
0
0
0
0
0
0
0
0
0
0
0
0
0
0
0
0
0
0
0
0
0
0
0
0
0
0
0
0
0
0.00099809
7.90764e-10
-2.53553e-10
-2.59207e-13
-1.98524e-16
-1.25123e-19
2.83458e-21
4.3314e-24
-7.5693e-25
-1.07497e-27
-4.08501e-29
-8.00825e-32
-9.93037e-35
-9.88506e-38
-8.62555e-41
-6.88971e-44
-5.1637e-47
-3.68796e-50
-2.53602e-53
-1.69109e-56
-1.09917e-59
-6.98982e-63
-4.36087e-66
-2.67461e-69
-1.61494e-72
-9.60913e-76
-5.63762e-79
-3.26209e-82
-1.86146e-85
-1.04718e-88
-5.80432e-92
-3.16755e-95
-1.70058e-98
-8.98101e-102
-4.65778e-105
-2.38893e-108
-1.2311e-111
-6.46125e-115
-3.50529e-118
-1.99233e-121
-1.1995e-124
-7.55173e-128
-4.92499e-131
-3.3257e-134
-2.3191e-137
-1.66812e-140
-1.23553e-143
-9.38554e-147
-7.3073e-150
-5.81214e-153
-4.71013e-156
-3.8828e-159
-3.2439e-162
-2.74432e-165
-2.34318e-168
-2.0174e-171
-1.74791e-174
-1.52227e-177
-1.33113e-180
-1.16783e-183
-1.02646e-186
-9.03107e-190
-7.94142e-193
-6.96365e-196
-6.08346e-199
-5.27325e-202
-4.5335e-205
-3.84769e-208
-3.22114e-211
-2.6511e-214
-2.1399e-217
-1.69326e-220
-1.30861e-223
-9.87411e-227
-7.26509e-230
-5.20194e-233
-3.62309e-236
-2.4531e-239
-1.61253e-242
-1.0285e-245
-6.36289e-249
-3.81525e-252
-2.21637e-255
-1.24691e-258
-6.78852e-262
-3.57696e-265
-1.82388e-268
-8.98844e-272
-4.2849e-275
-1.97607e-278
-8.80578e-282
-3.79696e-285
-1.58494e-288
-6.40019e-292
-2.50775e-295
-9.5237e-299
-3.51975e-302
-1.26609e-305
-4.45309e-309
-1.53366e-312
-5.1992e-316
0
0
0
0
0
0
0
0
0
0
0
0
0
0
0
0
0
0
0
0
0
0
0
0
0
0
0
0
0
0
0
0
0
0
0
0
0
0
0
0
0
0
0
0
0
0
0
0
0
0
0
0
0
0
0
0
0
0
0
0
0
0
0
0
0
0
0
0
0
0
0
0
0
0
0
0
0
0
0
0
0
0
0
0
0
0
0
0
0
0
0
0
0
0
0
0
0
0
0
0.00100088
7.97448e-10
-2.55699e-10
-2.62151e-13
-2.01361e-16
-1.27282e-19
2.88297e-21
4.41886e-24
-7.72323e-25
-1.10019e-27
-4.18164e-29
-8.22333e-32
-1.02301e-34
-1.02176e-37
-8.94665e-41
-7.172e-44
-5.3956e-47
-3.86893e-50
-2.67169e-53
-1.7896e-56
-1.16884e-59
-7.47201e-63
-4.68857e-66
-2.89389e-69
-1.75973e-72
-1.05541e-75
-6.248e-79
-3.6527e-82
-2.1093e-85
-1.20317e-88
-6.77835e-92
-3.77103e-95
-2.07151e-98
-1.12422e-101
-6.02238e-105
-3.20619e-108
-1.72022e-111
-9.40972e-115
-5.31425e-118
-3.1359e-121
-1.95122e-124
-1.26385e-127
-8.44598e-131
-5.82002e-134
-4.12478e-137
-3.0035e-140
-2.24337e-143
-1.71225e-146
-1.33462e-149
-1.05905e-152
-8.5341e-156
-6.9731e-159
-5.75755e-162
-4.80067e-165
-4.03027e-168
-3.40467e-171
-2.88951e-174
-2.46186e-177
-2.10428e-180
-1.8039e-183
-1.54953e-186
-1.33319e-189
-1.14765e-192
-9.86699e-196
-8.46681e-199
-7.22548e-202
-6.12997e-205
-5.14804e-208
-4.27584e-211
-3.50127e-214
-2.81959e-217
-2.23175e-220
-1.72993e-223
-1.31248e-226
-9.73314e-230
-7.04061e-233
-4.96498e-236
-3.41076e-239
-2.27949e-242
-1.48109e-245
-9.35212e-249
-5.73413e-252
-3.41249e-255
-1.97029e-258
-1.10287e-261
-5.98521e-265
-3.14875e-268
-1.60395e-271
-7.91725e-275
-3.7871e-278
-1.75366e-281
-7.87101e-285
-3.42594e-288
-1.44513e-291
-5.92447e-295
-2.35814e-298
-9.14801e-302
-3.45935e-305
-1.28073e-308
-4.64866e-312
-1.66267e-315
-8.34383e-319
0
0
0
0
0
0
0
0
0
0
0
0
0
0
0
0
0
0
0
0
0
0
0
0
0
0
0
0
0
0
0
0
0
0
0
0
0
0
0
0
0
0
0
0
0
0
0
0
0
0
0
0
0
0
0
0
0
0
0
0
0
0
0
0
0
0
0
0
0
0
0
0
0
0
0
0
0
0
0
0
0
0
0
0
0
0
0
0
0
0
0
0
0
0
0
0
0
0
0.00100369
8.04217e-10
-2.57873e-10
-2.65144e-13
-2.04254e-16
-1.29493e-19
2.93264e-21
4.50891e-24
-7.88158e-25
-1.12624e-27
-4.28151e-29
-8.44651e-32
-1.05425e-34
-1.05656e-37
-9.28428e-41
-7.47028e-44
-5.64188e-47
-4.06217e-50
-2.8174e-53
-1.89604e-56
-1.24461e-59
-8.00012e-63
-5.05018e-66
-3.13784e-69
-1.92221e-72
-1.16246e-75
-6.94656e-79
-4.1047e-82
-2.39952e-85
-1.38818e-88
-7.94981e-92
-4.50778e-95
-2.53173e-98
-1.40973e-101
-7.77959e-105
-4.28271e-108
-2.3811e-111
-1.35017e-114
-7.89566e-118
-4.81054e-121
-3.07745e-124
-2.04155e-127
-1.39267e-130
-9.76136e-134
-7.01168e-137
-5.15625e-140
-3.8759e-143
-2.96731e-146
-2.31229e-149
-1.82866e-152
-1.46428e-155
-1.18554e-158
-9.67504e-162
-7.9546e-165
-6.57167e-168
-5.45349e-171
-4.54007e-174
-3.79024e-177
-3.17217e-180
-2.66161e-183
-2.2378e-186
-1.88526e-189
-1.59027e-192
-1.34131e-195
-1.13068e-198
-9.49641e-202
-7.94401e-205
-6.59331e-208
-5.42431e-211
-4.41042e-214
-3.53549e-217
-2.79232e-220
-2.16515e-223
-1.64713e-226
-1.22761e-229
-8.94516e-233
-6.36819e-236
-4.42559e-239
-2.99835e-242
-1.97886e-245
-1.27166e-248
-7.95023e-252
-4.83329e-255
-2.85599e-258
-1.63908e-261
-9.13659e-265
-4.94583e-268
-2.59703e-271
-1.32379e-274
-6.5502e-278
-3.14341e-281
-1.46466e-284
-6.62967e-288
-2.91336e-291
-1.24629e-294
-5.18514e-298
-2.10565e-301
-8.34802e-305
-3.24432e-308
-1.23765e-311
-4.65688e-315
-1.67311e-318
0
0
0
0
0
0
0
0
0
0
0
0
0
0
0
0
0
0
0
0
0
0
0
0
0
0
0
0
0
0
0
0
0
0
0
0
0
0
0
0
0
0
0
0
0
0
0
0
0
0
0
0
0
0
0
0
0
0
0
0
0
0
0
0
0
0
0
0
0
0
0
0
0
0
0
0
0
0
0
0
0
0
0
0
0
0
0
0
0
0
0
0
0
0
0
0
0
0
0.00100651
8.11068e-10
-2.60074e-10
-2.68184e-13
-2.07204e-16
-1.31754e-19
2.98353e-21
4.60145e-24
-8.04429e-25
-1.15311e-27
-4.38457e-29
-8.6777e-32
-1.08674e-34
-1.09291e-37
-9.63845e-41
-7.78459e-44
-5.90265e-47
-4.26781e-50
-2.97329e-53
-2.01056e-56
-1.32664e-59
-8.57555e-63
-5.44695e-66
-3.40752e-69
-2.1033e-72
-1.28281e-75
-7.73947e-79
-4.62308e-82
-2.73612e-85
-1.60541e-88
-9.34363e-92
-5.39722e-95
-3.09623e-98
-1.76609e-101
-1.00163e-104
-5.68357e-108
-3.26184e-111
-1.90912e-114
-1.15077e-117
-7.20679e-121
-4.72059e-124
-3.19569e-127
-2.21833e-130
-1.57727e-133
-1.14564e-136
-8.49145e-140
-6.41284e-143
-4.91758e-146
-3.82679e-149
-3.01369e-152
-2.39672e-155
-1.92244e-158
-1.55091e-161
-1.25794e-164
-1.02348e-167
-8.35202e-171
-6.82914e-174
-5.5943e-177
-4.59119e-180
-3.77596e-183
-3.11158e-186
-2.56978e-189
-2.12601e-192
-1.76019e-195
-1.45796e-198
-1.20493e-201
-9.93311e-205
-8.13986e-208
-6.62448e-211
-5.33962e-214
-4.25269e-217
-3.34431e-220
-2.58799e-223
-1.96927e-226
-1.47128e-229
-1.07706e-232
-7.71999e-236
-5.41268e-239
-3.70733e-242
-2.47854e-245
-1.61659e-248
-1.02775e-251
-6.36572e-255
-3.83938e-258
-2.25327e-261
-1.28673e-264
-7.14842e-268
-3.85936e-271
-2.02627e-274
-1.0345e-277
-5.1319e-281
-2.47606e-284
-1.16257e-287
-5.30878e-291
-2.36371e-294
-1.02531e-297
-4.34754e-301
-1.80242e-304
-7.33432e-308
-2.93309e-311
-1.15806e-314
-4.1937e-318
0
0
0
0
0
0
0
0
0
0
0
0
0
0
0
0
0
0
0
0
0
0
0
0
0
0
0
0
0
0
0
0
0
0
0
0
0
0
0
0
0
0
0
0
0
0
0
0
0
0
0
0
0
0
0
0
0
0
0
0
0
0
0
0
0
0
0
0
0
0
0
0
0
0
0
0
0
0
0
0
0
0
0
0
0
0
0
0
0
0
0
0
0
0
0
0
0
0
0.00100935
8.18001e-10
-2.62302e-10
-2.71272e-13
-2.10208e-16
-1.34065e-19
3.03558e-21
4.69643e-24
-8.21128e-25
-1.18077e-27
-4.49076e-29
-8.91679e-32
-1.12047e-34
-1.13079e-37
-1.00091e-40
-8.11489e-44
-6.17791e-47
-4.48589e-50
-3.13942e-53
-2.13326e-56
-1.41501e-59
-9.19919e-63
-5.87974e-66
-3.70372e-69
-2.3037e-72
-1.4171e-75
-8.632e-79
-5.21227e-82
-3.1228e-85
-1.85788e-88
-1.09846e-91
-6.45924e-95
-3.78084e-98
-2.20577e-101
-1.28294e-104
-7.48337e-108
-4.41907e-111
-2.66033e-114
-1.64686e-117
-1.05633e-120
-7.06117e-124
-4.86377e-127
-3.42691e-130
-2.46629e-133
-1.80795e-136
-1.34842e-139
-1.02168e-142
-7.83823e-146
-6.08565e-149
-4.76934e-152
-3.76564e-155
-2.99212e-158
-2.38662e-161
-1.91059e-164
-1.53202e-167
-1.23053e-170
-9.89315e-174
-7.96203e-177
-6.4158e-180
-5.17869e-183
-4.18763e-186
-3.39391e-189
-2.75615e-192
-2.2412e-195
-1.82455e-198
-1.48369e-201
-1.20488e-204
-9.74158e-208
-7.83441e-211
-6.25184e-214
-4.93911e-217
-3.86034e-220
-2.97534e-223
-2.25962e-226
-1.68843e-229
-1.23882e-232
-8.91794e-236
-6.29234e-239
-4.3461e-242
-2.93583e-245
-1.93853e-248
-1.25008e-251
-7.86852e-255
-4.83186e-258
-2.89258e-261
-1.688e-264
-9.60048e-268
-5.31618e-271
-2.86791e-274
-1.5071e-277
-7.70981e-281
-3.84265e-284
-1.86703e-287
-8.83817e-291
-4.08602e-294
-1.84349e-297
-8.14242e-301
-3.52165e-304
-1.49683e-307
-6.26016e-311
-2.58721e-314
-1.00912e-317
0
0
0
0
0
0
0
0
0
0
0
0
0
0
0
0
0
0
0
0
0
0
0
0
0
0
0
0
0
0
0
0
0
0
0
0
0
0
0
0
0
0
0
0
0
0
0
0
0
0
0
0
0
0
0
0
0
0
0
0
0
0
0
0
0
0
0
0
0
0
0
0
0
0
0
0
0
0
0
0
0
0
0
0
0
0
0
0
0
0
0
0
0
0
0
0
0
0
0.0010122
8.25016e-10
-2.64556e-10
-2.74406e-13
-2.13268e-16
-1.36426e-19
3.08875e-21
4.79378e-24
-8.38246e-25
-1.20923e-27
-4.60002e-29
-9.16362e-32
-1.15541e-34
-1.17018e-37
-1.03959e-40
-8.46099e-44
-6.46751e-47
-4.71632e-50
-3.31576e-53
-2.26411e-56
-1.50974e-59
-9.87133e-63
-6.34892e-66
-4.02687e-69
-2.52384e-72
-1.56572e-75
-9.62802e-79
-5.87579e-82
-3.56264e-85
-2.14828e-88
-1.28955e-91
-7.71307e-95
-4.60148e-98
-2.74174e-101
-1.63235e-104
-9.76511e-108
-5.9177e-111
-3.65384e-114
-2.31608e-117
-1.51725e-120
-1.03233e-123
-7.2183e-127
-5.1517e-130
-3.74611e-133
-2.76723e-136
-2.07396e-139
-1.57472e-142
-1.2075e-145
-9.34653e-149
-7.28544e-152
-5.70912e-155
-4.49354e-158
-3.54449e-161
-2.80177e-164
-2.21556e-167
-1.75303e-170
-1.38715e-173
-1.09796e-176
-8.69655e-180
-6.89709e-183
-5.47854e-186
-4.36128e-189
-3.4792e-192
-2.7802e-195
-2.2252e-198
-1.7805e-201
-1.42398e-204
-1.13529e-207
-9.01495e-211
-7.1143e-214
-5.56773e-217
-4.31828e-220
-3.30915e-223
-2.50347e-226
-1.86707e-229
-1.37003e-232
-9.88323e-236
-7.0017e-239
-4.86536e-242
-3.31297e-245
-2.20937e-248
-1.44169e-251
-9.20002e-255
-5.73833e-258
-3.49584e-261
-2.07984e-264
-1.20818e-267
-6.84594e-271
-3.78602e-274
-2.04317e-277
-1.0754e-280
-5.52433e-284
-2.7713e-287
-1.35691e-290
-6.49913e-294
-3.04301e-297
-1.39692e-300
-6.28886e-304
-2.78582e-307
-1.21575e-310
-5.24756e-314
-2.19217e-317
0
0
0
0
0
0
0
0
0
0
0
0
0
0
0
0
0
0
0
0
0
0
0
0
0
0
0
0
0
0
0
0
0
0
0
0
0
0
0
0
0
0
0
0
0
0
0
0
0
0
0
0
0
0
0
0
0
0
0
0
0
0
0
0
0
0
0
0
0
0
0
0
0
0
0
0
0
0
0
0
0
0
0
0
0
0
0
0
0
0
0
0
0
0
0
0
0
0
0.00101507
8.32112e-10
-2.66837e-10
-2.77586e-13
-2.16382e-16
-1.38836e-19
3.14301e-21
4.89346e-24
-8.55775e-25
-1.23846e-27
-4.71227e-29
-9.41801e-32
-1.19154e-34
-1.21105e-37
-1.07986e-40
-8.82259e-44
-6.7712e-47
-4.95889e-50
-3.50215e-53
-2.40301e-56
-1.61075e-59
-1.05916e-62
-6.85433e-66
-4.37695e-69
-2.76381e-72
-1.72884e-75
-1.07295e-78
-6.61576e-82
-4.0578e-85
-2.47865e-88
-1.50951e-91
-9.17555e-95
-5.57293e-98
-3.38666e-101
-2.06052e-104
-1.26175e-107
-7.82974e-111
-4.94694e-114
-3.20348e-117
-2.13858e-120
-1.47806e-123
-1.04726e-126
-7.55909e-130
-5.546e-133
-4.12312e-136
-3.10179e-139
-2.35778e-142
-1.80556e-145
-1.3924e-148
-1.07901e-151
-8.39001e-155
-6.54106e-158
-5.1033e-161
-3.98467e-164
-3.10918e-167
-2.42518e-170
-1.89032e-173
-1.47293e-176
-1.14788e-179
-8.95339e-183
-6.99252e-186
-5.47214e-189
-4.2912e-192
-3.37143e-195
-2.65374e-198
-2.08952e-201
-1.64551e-204
-1.29311e-207
-1.01318e-210
-7.9001e-214
-6.11779e-217
-4.70226e-220
-3.57726e-223
-2.69139e-226
-1.99977e-229
-1.46474e-232
-1.05674e-235
-7.50108e-239
-5.23276e-242
-3.58391e-245
-2.40857e-248
-1.58686e-251
-1.02435e-254
-6.47522e-258
-4.00542e-261
-2.42412e-264
-1.43511e-267
-8.30285e-271
-4.69693e-274
-2.59745e-277
-1.40361e-280
-7.41563e-284
-3.83279e-287
-1.93698e-290
-9.59144e-294
-4.65085e-297
-2.21437e-300
-1.03552e-303
-4.77082e-307
-2.16802e-310
-9.75316e-314
-4.39587e-317
0
0
0
0
0
0
0
0
0
0
0
0
0
0
0
0
0
0
0
0
0
0
0
0
0
0
0
0
0
0
0
0
0
0
0
0
0
0
0
0
0
0
0
0
0
0
0
0
0
0
0
0
0
0
0
0
0
0
0
0
0
0
0
0
0
0
0
0
0
0
0
0
0
0
0
0
0
0
0
0
0
0
0
0
0
0
0
0
0
0
0
0
0
0
0
0
0
0
0.00101796
8.3929e-10
-2.69144e-10
-2.80812e-13
-2.19549e-16
-1.41295e-19
3.19833e-21
4.99538e-24
-8.73707e-25
-1.26845e-27
-4.82742e-29
-9.67975e-32
-1.22883e-34
-1.25335e-37
-1.12167e-40
-9.19925e-44
-7.08859e-47
-5.21329e-50
-3.69833e-53
-2.54976e-56
-1.7179e-59
-1.13588e-62
-7.3952e-66
-4.75347e-69
-3.02333e-72
-1.90632e-75
-1.19361e-78
-7.43252e-82
-4.60905e-85
-2.85005e-88
-1.75956e-91
-1.08591e-94
-6.70721e-98
-4.15178e-101
-2.57765e-104
-1.61303e-107
-1.02319e-110
-6.60329e-114
-4.36077e-117
-2.96178e-120
-2.07628e-123
-1.48876e-126
-1.08551e-129
-8.02719e-133
-6.00015e-136
-4.52669e-139
-3.44188e-142
-2.63035e-145
-2.01977e-148
-1.55538e-151
-1.19977e-154
-9.26481e-158
-7.15064e-161
-5.5169e-164
-4.24977e-167
-3.26986e-170
-2.51248e-173
-1.92876e-176
-1.48019e-179
-1.13643e-182
-8.73341e-186
-6.72349e-189
-5.18604e-192
-4.00785e-195
-3.10336e-198
-2.40482e-201
-1.86458e-204
-1.44382e-207
-1.11566e-210
-8.5887e-214
-6.575e-217
-5.00259e-220
-3.77319e-223
-2.81903e-226
-2.08351e-229
-1.5207e-232
-1.09522e-235
-7.77484e-239
-5.43433e-242
-3.73619e-245
-2.52521e-248
-1.67633e-251
-1.09235e-254
-6.98346e-258
-4.3771e-261
-2.68918e-264
-1.6191e-267
-9.54478e-271
-5.51192e-274
-3.11719e-277
-1.72591e-280
-9.35939e-284
-4.97412e-287
-2.5895e-290
-1.32306e-293
-6.6311e-297
-3.26825e-300
-1.58451e-303
-7.57795e-307
-3.57907e-310
-1.67491e-313
-7.79782e-317
0
0
0
0
0
0
0
0
0
0
0
0
0
0
0
0
0
0
0
0
0
0
0
0
0
0
0
0
0
0
0
0
0
0
0
0
0
0
0
0
0
0
0
0
0
0
0
0
0
0
0
0
0
0
0
0
0
0
0
0
0
0
0
0
0
0
0
0
0
0
0
0
0
0
0
0
0
0
0
0
0
0
0
0
0
0
0
0
0
0
0
0
0
0
0
0
0
0
0.00102086
8.46549e-10
-2.71476e-10
-2.84083e-13
-2.22769e-16
-1.43801e-19
3.25465e-21
5.09948e-24
-8.9203e-25
-1.29917e-27
-4.9454e-29
-9.94859e-32
-1.26723e-34
-1.29704e-37
-1.16497e-40
-9.59045e-44
-7.4192e-47
-5.47907e-50
-3.90392e-53
-2.70405e-56
-1.83094e-59
-1.21712e-62
-7.97011e-66
-5.1554e-69
-3.30164e-72
-2.09765e-75
-1.32445e-78
-8.32409e-82
-5.21541e-85
-3.2622e-88
-2.03987e-91
-1.27688e-94
-8.01149e-98
-5.04523e-101
-3.19221e-104
-2.03865e-107
-1.3201e-110
-8.69064e-114
-5.84573e-117
-4.03493e-120
-2.86627e-123
-2.07808e-126
-1.52943e-129
-1.13905e-132
-8.5538e-136
-6.46655e-139
-4.91458e-142
-3.74558e-145
-2.86221e-148
-2.18945e-151
-1.67504e-154
-1.28112e-157
-9.78266e-161
-7.45997e-164
-5.67555e-167
-4.30996e-170
-3.26663e-173
-2.47235e-176
-1.86978e-179
-1.41405e-182
-1.07004e-185
-8.10909e-189
-6.15554e-192
-4.68125e-195
-3.5668e-198
-2.72043e-201
-2.07662e-204
-1.58409e-207
-1.20663e-210
-9.16546e-214
-6.93076e-217
-5.2149e-220
-3.89527e-223
-2.88629e-226
-2.11893e-229
-1.53876e-232
-1.10453e-235
-7.82812e-239
-5.47254e-242
-3.76994e-245
-2.55774e-248
-1.70755e-251
-1.12107e-254
-7.23438e-258
-4.58558e-261
-2.85435e-264
-1.7444e-267
-1.0458e-270
-6.1532e-274
-3.55194e-277
-2.01122e-280
-1.11739e-283
-6.09496e-287
-3.26259e-290
-1.7169e-293
-8.87829e-297
-4.52165e-300
-2.26872e-303
-1.12433e-306
-5.50936e-310
-2.67735e-313
-1.29174e-316
0
0
0
0
0
0
0
0
0
0
0
0
0
0
0
0
0
0
0
0
0
0
0
0
0
0
0
0
0
0
0
0
0
0
0
0
0
0
0
0
0
0
0
0
0
0
0
0
0
0
0
0
0
0
0
0
0
0
0
0
0
0
0
0
0
0
0
0
0
0
0
0
0
0
0
0
0
0
0
0
0
0
0
0
0
0
0
0
0
0
0
0
0
0
0
0
0
0
0.00102378
8.5389e-10
-2.73835e-10
-2.874e-13
-2.26041e-16
-1.46356e-19
3.31192e-21
5.20566e-24
-9.10736e-25
-1.33062e-27
-5.06609e-29
-1.02243e-31
-1.3067e-34
-1.34205e-37
-1.20971e-40
-9.99557e-44
-7.76243e-47
-5.7557e-50
-4.11846e-53
-2.86549e-56
-1.94954e-59
-1.30261e-62
-8.57699e-66
-5.58111e-69
-3.59754e-72
-2.30192e-75
-1.46481e-78
-9.28583e-82
-5.87372e-85
-3.71308e-88
-2.34931e-91
-1.48996e-94
-9.48534e-98
-6.06991e-101
-3.90934e-104
-2.5451e-107
-1.68064e-110
-1.12768e-113
-7.72051e-117
-5.4126e-120
-3.8944e-123
-2.85382e-126
-2.11917e-129
-1.58874e-132
-1.19789e-135
-9.06822e-139
-6.88368e-142
-5.22848e-145
-3.97382e-148
-3.01829e-151
-2.28964e-154
-1.7343e-157
-1.31033e-160
-9.87843e-164
-7.42526e-167
-5.56771e-170
-4.16478e-173
-3.10953e-176
-2.31891e-179
-1.72855e-182
-1.28877e-185
-9.61925e-189
-7.18937e-192
-5.38226e-195
-4.03631e-198
-3.0304e-201
-2.27731e-204
-1.71101e-207
-1.2843e-210
-9.62068e-214
-7.18117e-217
-5.33903e-220
-3.94552e-223
-2.89622e-226
-2.10935e-229
-1.52202e-232
-1.08728e-235
-7.68148e-239
-5.36234e-242
-3.69518e-245
-2.51227e-248
-1.68373e-251
-1.11177e-254
-7.22874e-258
-4.62537e-261
-2.91174e-264
-1.80297e-267
-1.09727e-270
-6.56607e-274
-3.8619e-277
-2.23238e-280
-1.26845e-283
-7.0892e-287
-3.89535e-290
-2.10777e-293
-1.12271e-296
-5.89879e-300
-3.05808e-303
-1.56793e-306
-7.95848e-310
-4.00985e-313
-2.01092e-316
0
0
0
0
0
0
0
0
0
0
0
0
0
0
0
0
0
0
0
0
0
0
0
0
0
0
0
0
0
0
0
0
0
0
0
0
0
0
0
0
0
0
0
0
0
0
0
0
0
0
0
0
0
0
0
0
0
0
0
0
0
0
0
0
0
0
0
0
0
0
0
0
0
0
0
0
0
0
0
0
0
0
0
0
0
0
0
0
0
0
0
0
0
0
0
0
0
0
0.00102671
8.61315e-10
-2.76221e-10
-2.90763e-13
-2.29365e-16
-1.48957e-19
3.37005e-21
5.31381e-24
-9.29814e-25
-1.36277e-27
-5.18941e-29
-1.05066e-31
-1.34721e-34
-1.38835e-37
-1.25581e-40
-1.04139e-43
-8.11762e-47
-6.04257e-50
-4.3414e-53
-3.0336e-56
-2.07331e-59
-1.39201e-62
-9.21317e-66
-6.02848e-69
-3.90933e-72
-2.51782e-75
-1.61367e-78
-1.03101e-81
-6.57832e-85
-4.19859e-88
-2.68501e-91
-1.72327e-94
-1.11176e-97
-7.2206e-101
-4.72844e-104
-3.13517e-107
-2.10981e-110
-1.44225e-113
-1.00485e-116
-7.15533e-120
-5.21511e-123
-3.86301e-126
-2.89413e-129
-2.1835e-132
-1.65213e-135
-1.25151e-138
-9.4817e-142
-7.17216e-145
-5.41836e-148
-4.08454e-151
-3.07144e-154
-2.30375e-157
-1.72225e-160
-1.28382e-163
-9.5368e-167
-7.06371e-170
-5.21715e-173
-3.84456e-176
-2.82864e-179
-2.07935e-182
-1.52826e-185
-1.12399e-188
-8.27451e-192
-6.10004e-195
-4.50348e-198
-3.32862e-201
-2.4625e-204
-1.82196e-207
-1.34723e-210
-9.94827e-214
-7.3256e-217
-5.3777e-220
-3.9284e-223
-2.85389e-226
-2.05976e-229
-1.47496e-232
-1.04724e-235
-7.36497e-239
-5.12652e-242
-3.52841e-245
-2.40011e-248
-1.61224e-251
-1.0689e-254
-6.99099e-258
-4.50796e-261
-2.86513e-264
-1.7945e-267
-1.10678e-270
-6.72459e-274
-4.02322e-277
-2.37032e-280
-1.37523e-283
-7.86253e-287
-4.42784e-290
-2.45978e-293
-1.34755e-296
-7.29338e-300
-3.90106e-303
-2.06633e-306
-1.08488e-309
-5.65929e-313
-2.93897e-316
0
0
0
0
0
0
0
0
0
0
0
0
0
0
0
0
0
0
0
0
0
0
0
0
0
0
0
0
0
0
0
0
0
0
0
0
0
0
0
0
0
0
0
0
0
0
0
0
0
0
0
0
0
0
0
0
0
0
0
0
0
0
0
0
0
0
0
0
0
0
0
0
0
0
0
0
0
0
0
0
0
0
0
0
0
0
0
0
0
0
0
0
0
0
0
0
0
0
0.00102967
8.68826e-10
-2.78634e-10
-2.94174e-13
-2.32742e-16
-1.51607e-19
3.42891e-21
5.42373e-24
-9.49252e-25
-1.3956e-27
-5.31525e-29
-1.07952e-31
-1.3887e-34
-1.43586e-37
-1.3032e-40
-1.08448e-43
-8.48407e-47
-6.339e-50
-4.57214e-53
-3.20785e-56
-2.20179e-59
-1.48495e-62
-9.87539e-66
-6.49485e-69
-4.23487e-72
-2.74363e-75
-1.76969e-78
-1.13862e-81
-7.32091e-85
-4.71233e-88
-3.04213e-91
-1.97322e-94
-1.28829e-97
-8.48061e-101
-5.64011e-104
-3.80545e-107
-2.60874e-110
-1.81697e-113
-1.28885e-116
-9.32811e-120
-6.89198e-123
-5.16355e-126
-3.90419e-129
-2.96394e-132
-2.24932e-135
-1.70364e-138
-1.28706e-141
-9.6875e-145
-7.26977e-148
-5.43624e-151
-4.05085e-154
-3.0082e-157
-2.22518e-160
-1.64028e-163
-1.20446e-166
-8.81495e-170
-6.43083e-173
-4.67922e-176
-3.39812e-179
-2.46454e-182
-1.78638e-185
-1.29511e-188
-9.39426e-192
-6.82156e-195
-4.95875e-198
-3.60847e-201
-2.62793e-204
-1.91447e-207
-1.3942e-210
-1.01443e-213
-7.36543e-217
-5.33529e-220
-3.84966e-223
-2.76541e-226
-1.97593e-229
-1.40266e-232
-9.88685e-236
-6.91285e-239
-4.79152e-242
-3.28927e-245
-2.23536e-248
-1.50276e-251
-9.98853e-255
-6.56121e-258
-4.25701e-261
-2.72736e-264
-1.72512e-267
-1.07659e-270
-6.63115e-274
-4.0294e-277
-2.41589e-280
-1.42909e-283
-8.34603e-287
-4.81028e-290
-2.73966e-293
-1.54156e-296
-8.58327e-300
-4.73054e-303
-2.58531e-306
-1.40226e-309
-7.56404e-313
-4.06044e-316
0
0
0
0
0
0
0
0
0
0
0
0
0
0
0
0
0
0
0
0
0
0
0
0
0
0
0
0
0
0
0
0
0
0
0
0
0
0
0
0
0
0
0
0
0
0
0
0
0
0
0
0
0
0
0
0
0
0
0
0
0
0
0
0
0
0
0
0
0
0
0
0
0
0
0
0
0
0
0
0
0
0
0
0
0
0
0
0
0
0
0
0
0
0
0
0
0
0
0.00103264
8.76434e-10
-2.81078e-10
-2.97637e-13
-2.36171e-16
-1.54304e-19
3.48822e-21
5.5351e-24
-9.69039e-25
-1.42908e-27
-5.4435e-29
-1.10899e-31
-1.43113e-34
-1.48452e-37
-1.35183e-40
-1.12875e-43
-8.86103e-47
-6.6443e-50
-4.81002e-53
-3.38766e-56
-2.33446e-59
-1.58098e-62
-1.056e-65
-6.97716e-69
-4.57164e-72
-2.97729e-75
-1.93119e-78
-1.25007e-81
-8.09062e-85
-5.24562e-88
-3.41373e-91
-2.23435e-94
-1.47388e-97
-9.81822e-101
-6.6222e-104
-4.54248e-107
-3.17173e-110
-2.25222e-113
-1.62849e-116
-1.19972e-119
-8.99891e-123
-6.82762e-126
-5.21376e-129
-3.9827e-132
-3.02931e-135
-2.29164e-138
-1.72447e-141
-1.29032e-144
-9.61088e-148
-7.12522e-151
-5.25937e-154
-3.86609e-157
-2.82945e-160
-2.06266e-163
-1.49742e-166
-1.08313e-169
-7.8073e-173
-5.61115e-176
-4.02359e-179
-2.88017e-182
-2.05957e-185
-1.47238e-188
-1.05262e-191
-7.5304e-195
-5.39065e-198
-3.86233e-201
-2.76886e-204
-1.98584e-207
-1.42393e-210
-1.02053e-213
-7.30264e-217
-5.21671e-220
-3.71543e-223
-2.63705e-226
-1.86372e-229
-1.31026e-232
-9.15874e-236
-6.35935e-239
-4.38396e-242
-2.99784e-245
-2.03272e-248
-1.36573e-251
-9.08806e-255
-5.98702e-258
-3.9028e-261
-2.51681e-264
-1.60533e-267
-1.01221e-270
-6.31123e-274
-3.88944e-277
-2.36983e-280
-1.42731e-283
-8.50328e-287
-5.00924e-290
-2.92128e-293
-1.68625e-296
-9.64745e-300
-5.47243e-303
-3.08238e-306
-1.72533e-309
-9.61354e-313
-5.3425e-316
0
0
0
0
0
0
0
0
0
0
0
0
0
0
0
0
0
0
0
0
0
0
0
0
0
0
0
0
0
0
0
0
0
0
0
0
0
0
0
0
0
0
0
0
0
0
0
0
0
0
0
0
0
0
0
0
0
0
0
0
0
0
0
0
0
0
0
0
0
0
0
0
0
0
0
0
0
0
0
0
0
0
0
0
0
0
0
0
0
0
0
0
0
0
0
0
0
0
0.00103562
8.84157e-10
-2.83558e-10
-3.01161e-13
-2.39627e-16
-1.57037e-19
3.54746e-21
5.64726e-24
-9.89157e-25
-1.46318e-27
-5.57406e-29
-1.13903e-31
-1.47446e-34
-1.53429e-37
-1.40161e-40
-1.17413e-43
-9.24776e-47
-6.95775e-50
-5.05438e-53
-3.57242e-56
-2.47079e-59
-1.67964e-62
-1.1263e-65
-7.47208e-69
-4.91685e-72
-3.2165e-75
-2.09626e-78
-1.36379e-81
-8.8745e-85
-5.78775e-88
-3.79096e-91
-2.49932e-94
-1.66246e-97
-1.11839e-100
-7.63562e-104
-5.31757e-107
-3.78163e-110
-2.74156e-113
-2.02503e-116
-1.52241e-119
-1.16209e-122
-8.9467e-126
-6.9079e-129
-5.30883e-132
-4.04241e-135
-3.04968e-138
-2.28265e-141
-1.69593e-144
-1.25273e-147
-9.20195e-151
-6.72554e-154
-4.89254e-157
-3.54236e-160
-2.55386e-163
-1.83318e-166
-1.31079e-169
-9.33728e-173
-6.63038e-176
-4.696e-179
-3.31872e-182
-2.34195e-185
-1.65135e-188
-1.16382e-191
-8.20394e-195
-5.78397e-198
-4.08033e-201
-2.87929e-204
-2.03267e-207
-1.43473e-210
-1.01249e-213
-7.13727e-217
-5.02536e-220
-3.53059e-223
-2.47403e-226
-1.72804e-229
-1.20206e-232
-8.32422e-236
-5.73366e-239
-3.92669e-242
-2.67155e-245
-1.80512e-248
-1.21054e-251
-8.05374e-255
-5.31376e-258
-3.47547e-261
-2.25278e-264
-1.44699e-267
-9.20539e-271
-5.80217e-274
-3.62159e-277
-2.23949e-280
-1.37155e-283
-8.32514e-287
-5.00676e-290
-2.98635e-293
-1.76647e-296
-1.03741e-299
-6.05067e-303
-3.50923e-306
-2.02525e-309
-1.16468e-312
-6.68312e-316
0
0
0
0
0
0
0
0
0
0
0
0
0
0
0
0
0
0
0
0
0
0
0
0
0
0
0
0
0
0
0
0
0
0
0
0
0
0
0
0
0
0
0
0
0
0
0
0
0
0
0
0
0
0
0
0
0
0
0
0
0
0
0
0
0
0
0
0
0
0
0
0
0
0
0
0
0
0
0
0
0
0
0
0
0
0
0
0
0
0
0
0
0
0
0
0
0
0
0.00103863
8.92054e-10
-2.86091e-10
-3.04761e-13
-2.43053e-16
-1.59781e-19
3.60176e-21
5.75425e-24
-1.00946e-24
-1.49757e-27
-5.70572e-29
-1.1693e-31
-1.51807e-34
-1.58429e-37
-1.45153e-40
-1.21952e-43
-9.63349e-47
-7.26929e-50
-5.29629e-53
-3.75449e-56
-2.60445e-59
-1.77581e-62
-1.19438e-65
-7.9479e-69
-5.24612e-72
-3.44269e-75
-2.25087e-78
-1.4692e-81
-9.59312e-85
-6.27889e-88
-4.1285e-91
-2.73346e-94
-1.8272e-97
-1.23668e-100
-8.51325e-104
-5.99685e-107
-4.33943e-110
-3.21914e-113
-2.43752e-116
-1.87732e-119
-1.46228e-122
-1.14365e-125
-8.91457e-129
-6.85813e-132
-5.19307e-135
-3.88159e-138
-2.87323e-141
-2.10913e-144
-1.53866e-147
-1.11598e-150
-8.05478e-154
-5.78682e-157
-4.13925e-160
-2.94864e-163
-2.09197e-166
-1.47869e-169
-1.04102e-172
-7.30521e-176
-5.11059e-179
-3.56451e-182