/*--------------------------------*- C++ -*----------------------------------*\
| =========                 |                                                 |
| \\      /  F ield         | OpenFOAM: The Open Source CFD Toolbox           |
|  \\    /   O peration     | Version:  2506                                  |
|   \\  /    A nd           | Website:  www.openfoam.com                      |
|    \\/     M anipulation  |                                                 |
\*---------------------------------------------------------------------------*/
FoamFile
{
    version     2.0;
    format      ascii;
    arch        "LSB;label=32;scalar=64";
    class       volVectorField;
    location    "4.1";
    object      U;
}
// * * * * * * * * * * * * * * * * * * * * * * * * * * * * * * * * * * * * * //

dimensions      [0 1 -1 0 0 0 0];

internalField   nonuniform List<vector> 
4000
(
(0.00816099 0.00079878 0)
(0.00705369 0.000967237 -4.93637e-22)
(0.00556778 0.000582647 5.12043e-22)
(0.00429115 0.000293148 9.85985e-22)
(0.00350997 0.000153092 -1.99457e-21)
(0.00303799 8.22856e-05 1.00226e-21)
(0.00273071 4.48861e-05 0)
(0.00252618 2.5682e-05 0)
(0.00238802 1.5983e-05 0)
(0.00229065 1.11157e-05 1.97983e-21)
(0.0022178 8.68948e-06 -1.98317e-21)
(0.00215985 7.53082e-06 3.93933e-21)
(0.00211115 7.02661e-06 -3.94346e-21)
(0.00206836 6.84389e-06 0)
(0.00202954 6.81622e-06 0)
(0.00199349 6.86519e-06 0)
(0.00195943 6.95697e-06 3.88088e-21)
(0.00192674 7.08102e-06 -3.88334e-21)
(0.00189493 7.23765e-06 0)
(0.00186352 7.43149e-06 0)
(0.00183203 7.66884e-06 0)
(0.00179999 7.95623e-06 0)
(0.00176689 8.29974e-06 0)
(0.0017322 8.70536e-06 7.62562e-21)
(0.00169536 9.17984e-06 -1.52427e-20)
(0.00165579 9.7323e-06 7.61744e-21)
(0.00161283 1.03775e-05 0)
(0.00156572 1.11418e-05 0)
(0.00151357 1.20742e-05 0)
(0.00145521 1.32773e-05 0)
(0.00138894 1.50117e-05 -7.58272e-21)
(0.00131249 1.78682e-05 7.5932e-21)
(0.00122439 2.1613e-05 0)
(0.00109157 3.19209e-05 6.6704e-21)
(0.000937658 6.81221e-05 7.67497e-21)
(0.00085821 0.000137527 -3.85046e-20)
(0.000863815 0.000229252 -3.10616e-20)
(0.000904567 0.000331234 7.82253e-21)
(0.000965211 0.000444216 -3.14203e-20)
(0.00105229 0.00057532 -7.08029e-20)
(0.00120966 0.000734709 7.89222e-21)
(0.00144819 0.000909541 6.22862e-20)
(0.0017016 0.00106423 -6.13119e-20)
(0.00193938 0.00119145 0)
(0.00216898 0.00129733 0)
(0.00238934 0.00138386 -3.52685e-21)
(0.00261234 0.00145342 -5.16829e-20)
(0.00282723 0.00149775 -5.04834e-20)
(0.00302741 0.0015171 -2.94102e-20)
(0.00322289 0.00151034 -2.48824e-20)
(0.00339672 0.00147151 2.36605e-20)
(0.00355472 0.00140348 0)
(0.00368174 0.00129959 -2.63743e-21)
(0.0037774 0.00116514 4.37885e-20)
(0.0038325 0.000996164 0)
(0.00383416 0.000802405 -9.32195e-21)
(0.00379137 0.000592543 -2.19251e-21)
(0.00368055 0.000374268 -7.10275e-24)
(0.00353632 0.000163555 -8.69591e-23)
(0.00332997 -4.10022e-05 -1.0509e-21)
(0.00308519 -0.000217126 1.91224e-21)
(0.00282886 -0.000364442 0)
(0.00255494 -0.000479306 0)
(0.00229296 -0.000562256 3.75189e-21)
(0.00203712 -0.000616546 2.62992e-20)
(0.00180603 -0.000646513 3.78797e-21)
(0.00159631 -0.000657066 -3.79648e-21)
(0.00141137 -0.000653332 3.86037e-21)
(0.00125242 -0.000639592 1.16457e-20)
(0.00111288 -0.000618707 -2.73851e-20)
(0.000996625 -0.000594296 -3.93053e-21)
(0.000893986 -0.00056661 -4.95372e-23)
(0.000805307 -0.000537271 0)
(0.000730012 -0.000507297 0)
(0.000661428 -0.000476198 0)
(0.000600505 -0.000444626 -2.0706e-21)
(0.000545861 -0.000412959 -3.10851e-20)
(0.000494349 -0.000380899 0)
(0.000446368 -0.000348939 -3.18214e-23)
(0.000402128 -0.000317697 2.09745e-21)
(0.000360704 -0.000287471 -3.35082e-20)
(0.000322399 -0.000258742 3.03874e-20)
(0.000287612 -0.000231951 -5.28487e-24)
(0.000256386 -0.000207353 3.41091e-20)
(0.00022915 -0.00018524 2.92816e-22)
(0.000205713 -0.000165584 -3.32902e-20)
(0.000185494 -0.000148086 -3.37722e-20)
(0.000168911 -0.000132765 3.41929e-20)
(0.000155488 -0.000119373 -5.20163e-22)
(0.00014401 -0.000107338 -3.32621e-20)
(0.000134956 -9.6611e-05 0)
(0.000127837 -8.70045e-05 -3.40229e-20)
(0.000121561 -7.80435e-05 -3.18081e-20)
(0.00011687 -6.97739e-05 3.26328e-20)
(0.000112948 -6.19893e-05 -1.8257e-20)
(0.00010994 -5.46042e-05 2.0133e-21)
(0.000107828 -4.74862e-05 1.60321e-20)
(0.000106496 -4.06404e-05 1.99492e-21)
(0.000105933 -3.38688e-05 1.38759e-20)
(0.000106315 -2.71926e-05 9.86426e-21)
(0.000107736 -2.03865e-05 -3.93361e-21)
(0.000110062 -1.33221e-05 9.81013e-21)
(0.00011406 -5.90471e-06 -9.80093e-22)
(0.000119291 2.06227e-06 -9.81515e-22)
(0.000126895 1.07732e-05 -3.94433e-21)
(0.000136878 2.05203e-05 0)
(0.000149879 3.16336e-05 0)
(0.000166906 4.46729e-05 -3.16774e-20)
(0.000188077 6.00889e-05 -1.01464e-21)
(0.000214597 7.86464e-05 1.68975e-20)
(0.000247041 0.000100948 1.6539e-20)
(0.000285894 0.00012775 5.2212e-22)
(0.000332407 0.000159675 -1.73743e-20)
(0.000385886 0.000197307 -1.46772e-23)
(0.000447667 0.000241164 0)
(0.000518525 0.000291681 3.44042e-20)
(0.000596048 0.000348363 -1.07838e-21)
(0.000682197 0.000411682 -3.2384e-20)
(0.000775766 0.000480852 -1.08543e-21)
(0.000874644 0.000554932 -3.46023e-20)
(0.000979822 0.000633587 -1.85843e-22)
(0.00109 0.00071532 3.42154e-20)
(0.00120224 0.000798364 2.0999e-21)
(0.00131677 0.000881878 -3.76042e-20)
(0.00143307 0.000964317 2.07479e-21)
(0.00154895 0.00104382 3.22018e-20)
(0.00166428 0.00111917 3.86623e-21)
(0.0017782 0.0011889 -3.87723e-21)
(0.00189008 0.00125194 2.95261e-20)
(0.00200287 0.00130799 -2.44571e-20)
(0.0021149 0.00135479 -3.48241e-21)
(0.00222306 0.00139125 -4.81395e-20)
(0.00233592 0.00141937 -3.15659e-21)
(0.00245058 0.00143554 -2.3025e-20)
(0.00256085 0.00143991 5.23424e-22)
(0.00268224 0.00143469 0)
(0.00280362 0.00141249 0)
(0.00292147 0.0013761 -2.32911e-22)
(0.00304476 0.00132204 0)
(0.00316015 0.00124831 -1.48536e-21)
(0.00326896 0.00115317 -3.8379e-21)
(0.00336164 0.00103449 -1.04015e-21)
(0.00342688 0.000892662 -1.75338e-21)
(0.00346515 0.000730104 -8.34269e-22)
(0.00345162 0.000547419 -1.5304e-21)
(0.0034002 0.000358758 4.58054e-22)
(0.00328851 0.000162912 0)
(0.00311815 -1.62767e-05 0)
(0.00291738 -0.000178556 0)
(0.00267074 -0.000313265 1.27906e-23)
(0.00241445 -0.000417415 -1.28312e-23)
(0.00213928 -0.000490384 -6.45682e-23)
(0.00187195 -0.000531613 8.00422e-23)
(0.0016164 -0.000546975 0)
(0.00138263 -0.000541103 -5.42143e-22)
(0.00117168 -0.000519208 0)
(0.000985324 -0.000485667 -3.18663e-22)
(0.000823516 -0.000443956 1.79848e-21)
(0.000676999 -0.000393068 -4.78484e-22)
(0.000537881 -0.000318988 8.6721e-21)
(0.000496038 -0.000261567 -2.36115e-21)
(0.000539723 -0.000225142 -2.54903e-21)
(0.000570993 -0.000190589 0)
(0.00059956 -0.000152538 0)
(0.000639821 -0.000112509 0)
(0.000698381 -7.1532e-05 0)
(0.000794407 -3.70953e-05 0)
(0.00091303 -1.78672e-05 7.08566e-22)
(0.00100985 -1.11859e-05 -1.02071e-23)
(0.00109094 -9.69477e-06 -9.38033e-24)
(0.00117234 -1.01247e-05 -6.88541e-22)
(0.00125838 -1.13596e-05 0)
(0.00134878 -1.27305e-05 6.57742e-22)
(0.00144116 -1.37684e-05 -6.55712e-22)
(0.001532 -1.41918e-05 1.9738e-23)
(0.00161744 -1.38973e-05 0)
(0.00169392 -1.29235e-05 0)
(0.00175874 -1.14022e-05 -5.59849e-22)
(0.00181023 -9.51224e-06 5.58603e-22)
(0.00184783 -7.4403e-06 0)
(0.00187192 -5.35207e-06 0)
(0.00188368 -3.35421e-06 -2.01257e-22)
(0.00188478 -1.54663e-06 1.72285e-23)
(0.00187727 -8.40139e-08 1.97453e-22)
(0.00186329 1.11012e-06 0)
(0.00184495 2.00921e-06 0)
(0.00182422 2.60905e-06 0)
(0.00180285 2.9199e-06 0)
(0.00178232 2.96601e-06 6.87273e-24)
(0.0017638 2.78271e-06 0)
(0.00174814 2.41606e-06 0)
(0.00173583 1.92041e-06 0)
(0.00172703 1.35906e-06 2.94475e-23)
(0.00172157 8.0544e-07 -2.94077e-23)
(0.00171899 3.21872e-07 0)
(0.0017186 -1.3566e-08 2.28488e-24)
(0.00171948 -1.21296e-07 6.00169e-24)
(0.00172034 7.07413e-08 -4.03774e-24)
(0.00171835 1.12556e-06 -1.95218e-24)
(0.00171172 5.16024e-06 0)
(0.0101621 0.00148617 0)
(0.0105621 0.00233055 0)
(0.0101587 0.00198185 0)
(0.00930518 0.00147452 9.60805e-22)
(0.0084241 0.00102665 -1.95266e-21)
(0.00771019 0.00068928 9.89217e-22)
(0.00715407 0.000459182 0)
(0.00672861 0.000310498 1.98526e-21)
(0.00640706 0.000216867 -2.00233e-21)
(0.00616184 0.000158759 1.99571e-21)
(0.00596942 0.000122811 -2.0054e-21)
(0.00581272 0.000100442 -3.99214e-21)
(0.00568024 8.62063e-05 4.00453e-21)
(0.00556448 7.67656e-05 3.98305e-21)
(0.00546064 7.02178e-05 -1.54534e-23)
(0.00536558 6.55295e-05 -7.95499e-21)
(0.00527709 6.21635e-05 3.9775e-21)
(0.00519344 5.98591e-05 0)
(0.00511321 5.85027e-05 0)
(0.00503506 5.80559e-05 0)
(0.00495771 5.85199e-05 0)
(0.0048799 5.99177e-05 0)
(0.00480031 6.22855e-05 0)
(0.00471762 6.56722e-05 0)
(0.00463042 7.01438e-05 0)
(0.00453723 7.57927e-05 0)
(0.00443644 8.27561e-05 0)
(0.00432625 9.12479e-05 0)
(0.00420459 0.000101618 0)
(0.00406894 0.000114471 0)
(0.00391608 0.000130939 -7.86682e-21)
(0.00374178 0.000153251 2.74616e-24)
(0.00354438 0.000185372 1.58309e-20)
(0.00328618 0.00023398 -6.9525e-21)
(0.00300115 0.000323534 -8.00877e-21)
(0.00282696 0.000478426 2.42651e-20)
(0.00280097 0.000696926 -3.27147e-20)
(0.00286718 0.000960109 -8.2494e-21)
(0.0030026 0.00125782 8.31961e-20)
(0.00321875 0.00158855 2.53184e-20)
(0.00356941 0.0019537 0)
(0.00404835 0.00232828 8.14445e-21)
(0.00456432 0.00266918 4.80372e-20)
(0.0050756 0.00296286 7.971e-21)
(0.0055823 0.00321058 6.11294e-20)
(0.00608104 0.00341324 -5.93891e-20)
(0.00658113 0.00357091 7.79884e-22)
(0.0070669 0.00367165 0)
(0.00753115 0.00371413 -2.70573e-20)
(0.007979 0.0036926 0)
(0.00839069 0.0035998 -2.34211e-22)
(0.0087677 0.00343863 0)
(0.00908581 0.00319893 -2.24671e-20)
(0.00934211 0.0028912 -2.14973e-20)
(0.0095169 0.00251152 0)
(0.00959694 0.00207719 -6.20716e-23)
(0.00958265 0.0016025 9.30861e-21)
(0.0094428 0.00110135 2.14118e-21)
(0.00921469 0.000603613 4.26967e-21)
(0.00886001 0.000113465 -1.0764e-21)
(0.00841474 -0.000333985 0)
(0.00790685 -0.000728648 8.22666e-21)
(0.007345 -0.00105947 -4.13183e-21)
(0.00677206 -0.00132217 -8.10204e-21)
(0.00618943 -0.00151864 -2.44182e-20)
(0.00563421 -0.00165444 -4.09147e-21)
(0.00510604 -0.00173666 2.07262e-20)
(0.00462106 -0.00177589 -4.17809e-21)
(0.00418153 -0.0017804 0)
(0.00378431 -0.00175832 4.34536e-21)
(0.00343458 -0.0017177 -4.3426e-21)
(0.00311973 -0.00166139 -6.51461e-23)
(0.00283904 -0.0015949 0)
(0.00259059 -0.00152052 -3.60834e-20)
(0.00236464 -0.00143929 -3.63606e-20)
(0.00216001 -0.00135352 2.29885e-21)
(0.00197419 -0.00126427 -2.28886e-21)
(0.00180163 -0.00117224 2.31549e-21)
(0.00164132 -0.00107919 -3.70148e-20)
(0.00149308 -0.000986792 3.47145e-20)
(0.00135527 -0.000896447 -3.70314e-20)
(0.00122774 -0.000809869 -3.82179e-20)
(0.0011109 -0.000728442 2.31115e-21)
(0.00100473 -0.000653129 -3.8042e-20)
(0.000909796 -0.000584678 3.6565e-20)
(0.000825782 -0.000523082 -3.63936e-20)
(0.000751508 -0.000467884 3.65459e-20)
(0.000687195 -0.000418779 -3.6445e-20)
(0.000631882 -0.000374842 -1.13443e-21)
(0.000583293 -0.000335055 1.12369e-21)
(0.000541366 -0.000298951 0)
(0.000505062 -0.00026578 0)
(0.000472509 -0.000234958 1.76437e-20)
(0.000444093 -0.000206421 -1.97162e-20)
(0.000418754 -0.00017978 1.73866e-20)
(0.000396727 -0.000155208 4.30795e-21)
(0.00037796 -0.000132454 -7.654e-24)
(0.000362734 -0.000111708 5.64915e-24)
(0.000351434 -9.26338e-05 -3.79495e-20)
(0.000344995 -7.52591e-05 -6.29014e-21)
(0.000344227 -5.89502e-05 8.34472e-21)
(0.000349529 -4.33637e-05 -8.32015e-21)
(0.000362505 -2.76772e-05 0)
(0.000383332 -1.09683e-05 -1.04125e-21)
(0.000414046 7.72358e-06 1.04223e-21)
(0.000455265 2.98751e-05 0)
(0.00050826 5.67149e-05 0)
(0.000574608 9.00834e-05 1.7019e-20)
(0.000654709 0.000131602 -1.71668e-20)
(0.000750177 0.000183178 1.7866e-20)
(0.000861684 0.000246585 -3.4981e-20)
(0.000989705 0.00032358 6.41625e-25)
(0.00113539 0.000415634 -5.5613e-22)
(0.00129743 0.000524109 -1.79477e-20)
(0.00147703 0.000649617 0)
(0.00167395 0.000792858 0)
(0.00188465 0.000953079 0)
(0.00211046 0.00112978 3.76976e-20)
(0.00234868 0.00132129 3.51357e-20)
(0.00259608 0.00152521 0)
(0.0028529 0.00173919 -4.07893e-20)
(0.00311638 0.00195976 6.72305e-21)
(0.00338265 0.00218293 -4.41973e-21)
(0.00365161 0.00240528 2.19971e-21)
(0.00392205 0.00262276 -4.22316e-21)
(0.0041915 0.00283116 3.32321e-20)
(0.00445981 0.00302689 -2.80858e-20)
(0.00472623 0.00320641 3.51036e-20)
(0.00499101 0.00336681 -1.59087e-22)
(0.00525787 0.00350599 2.61235e-20)
(0.00552447 0.00362022 0)
(0.00578962 0.00370777 2.7207e-20)
(0.00606371 0.00376901 -3.03945e-21)
(0.0063423 0.00379907 -2.00953e-20)
(0.00662137 0.0037976 2.24812e-20)
(0.00691573 0.00376487 -2.40811e-21)
(0.00721036 0.00369114 2.41766e-21)
(0.00750322 0.00357936 -2.35515e-21)
(0.00779725 0.00342236 1.96073e-21)
(0.00807705 0.00321852 -1.49068e-21)
(0.00833711 0.00296446 7.18062e-21)
(0.00856128 0.00265877 -5.62111e-21)
(0.00873099 0.00230305 4.90779e-21)
(0.00883904 0.00190431 0)
(0.00885145 0.00146654 6.65552e-22)
(0.00878258 0.00101375 -3.19139e-22)
(0.00859511 0.000549272 -1.43238e-22)
(0.00829661 0.000108815 0)
(0.00791081 -0.00029806 -1.11302e-22)
(0.0074276 -0.000652503 1.2276e-22)
(0.00689558 -0.000943745 0)
(0.00630575 -0.00116735 -1.68932e-22)
(0.00570613 -0.0013207 -7.16167e-23)
(0.00510234 -0.00140935 7.20574e-23)
(0.00452485 -0.00144183 0)
(0.0039755 -0.00142609 9.94495e-22)
(0.00346849 -0.00137202 -1.27895e-21)
(0.00300457 -0.00128584 1.65201e-21)
(0.00258602 -0.00117395 0)
(0.00219258 -0.00102018 -4.53758e-21)
(0.00199054 -0.000887258 -3.28837e-21)
(0.00197397 -0.000768247 6.285e-21)
(0.00199421 -0.000644977 -7.50517e-22)
(0.00203157 -0.00052111 7.42495e-22)
(0.00210662 -0.00040311 7.77389e-22)
(0.00222946 -0.000295847 7.80899e-22)
(0.00242529 -0.000212453 -6.75838e-22)
(0.00266645 -0.000160944 -4.71728e-23)
(0.00289292 -0.000137055 0)
(0.00310634 -0.000132121 4.51184e-23)
(0.00332423 -0.000136887 0)
(0.0035509 -0.000143849 -4.33843e-23)
(0.0037833 -0.000148291 -6.82375e-22)
(0.00401509 -0.000147582 7.19565e-22)
(0.00423836 -0.000140625 -6.13659e-23)
(0.00444494 -0.000127554 6.27812e-22)
(0.00462767 -0.000109406 -1.19003e-21)
(0.00478117 -8.77612e-05 1.17725e-21)
(0.00490234 -6.43981e-05 -6.09012e-22)
(0.00499037 -4.10204e-05 0)
(0.00504651 -1.907e-05 2.70625e-22)
(0.00507372 3.64931e-07 -2.5367e-22)
(0.00507608 1.65702e-05 -2.65736e-23)
(0.00505849 2.92424e-05 -1.86415e-22)
(0.00502618 3.82513e-05 1.63963e-22)
(0.00498418 4.37296e-05 1.52149e-22)
(0.00493717 4.60017e-05 -1.69949e-22)
(0.00488926 4.5507e-05 1.37136e-22)
(0.0048438 4.27615e-05 -2.35162e-22)
(0.00480336 3.83331e-05 1.41481e-22)
(0.00476962 3.28158e-05 -4.69873e-23)
(0.00474344 2.68046e-05 -9.52696e-24)
(0.00472489 2.08783e-05 0)
(0.0047133 1.5562e-05 1.86588e-23)
(0.00470745 1.13124e-05 -2.55805e-23)
(0.00470567 8.5363e-06 1.29119e-24)
(0.00470598 7.62999e-06 -8.34789e-24)
(0.00470611 9.09233e-06 0)
(0.00470246 1.38837e-05 0)
(0.00469287 2.39083e-05 -4.99872e-25)
(0.010155 0.000930086 0)
(0.010718 0.00187011 -4.79504e-22)
(0.0111775 0.00205439 4.75471e-22)
(0.0111191 0.00188914 9.23772e-22)
(0.0108454 0.00158477 -9.32985e-22)
(0.0104447 0.00124882 0)
(0.0100182 0.000949869 0)
(0.00962296 0.000711546 0)
(0.00927906 0.00053593 -1.87789e-21)
(0.00898864 0.000412666 3.77628e-21)
(0.00874471 0.000328442 1.87826e-21)
(0.00853776 0.000271744 -3.79335e-21)
(0.00835883 0.000233304 -3.77729e-21)
(0.00820082 0.000206536 3.79107e-21)
(0.00805857 0.000187277 0)
(0.00792833 0.000173058 -3.76891e-21)
(0.0078073 0.000162499 7.54321e-21)
(0.00769323 0.000154876 -3.77353e-21)
(0.0075842 0.000149836 0)
(0.00747844 0.000147224 0)
(0.00737424 0.000147 0)
(0.00726991 0.000149186 0)
(0.0071637 0.000153844 0)
(0.00705384 0.000161071 -7.47274e-21)
(0.00693845 0.000171008 7.48787e-21)
(0.00681558 0.000183851 0)
(0.00668308 0.000199886 0)
(0.00653866 0.000219539 0)
(0.0063797 0.000243463 0)
(0.00620322 0.000272699 0)
(0.00600572 0.000308971 -7.51433e-21)
(0.0057828 0.000355271 7.53971e-21)
(0.00553434 0.000416872 0)
(0.00523008 0.000499503 4.73956e-22)
(0.0049017 0.000625882 0)
(0.00468179 0.000827142 -1.55264e-20)
(0.00462732 0.00110899 3.14914e-20)
(0.00470399 0.00145488 0)
(0.00489354 0.0018492 -6.34585e-20)
(0.00520364 0.00228067 2.1759e-22)
(0.0056728 0.00273839 -7.78942e-21)
(0.00627665 0.00319276 7.77435e-21)
(0.00692873 0.00361048 -6.07239e-20)
(0.00758858 0.00397948 0)
(0.0082486 0.0042959 -6.47598e-20)
(0.00890274 0.00455695 5.96086e-20)
(0.00955486 0.00475883 5.75523e-20)
(0.0101902 0.00488966 0)
(0.0108024 0.00494674 2.49115e-20)
(0.0113915 0.00492135 0)
(0.0119411 0.0048072 -4.60628e-20)
(0.012448 0.00460589 0)
(0.0128898 0.0043082 1.84969e-20)
(0.0132618 0.00392539 2.28662e-20)
(0.0135424 0.0034555 1.94773e-20)
(0.0137183 0.00291621 9.18798e-21)
(0.0137834 0.00231907 8.95666e-21)
(0.0137094 0.00167805 4.21474e-21)
(0.0135217 0.00102476 -2.10136e-21)
(0.0131838 0.000368198 -3.01583e-21)
(0.0127255 -0.000255267 0)
(0.0121639 -0.000828763 -7.62898e-21)
(0.0115124 -0.00133573 7.57375e-21)
(0.010812 -0.00176422 0)
(0.0100697 -0.00211095 3.06806e-20)
(0.0093298 -0.00237618 0)
(0.00859734 -0.00256422 3.92054e-21)
(0.00789877 -0.0026847 -3.94453e-21)
(0.00724111 -0.00274607 0)
(0.00662878 -0.00275868 4.10942e-21)
(0.00607072 -0.00273266 -4.12183e-21)
(0.00555733 -0.00267364 -4.62796e-20)
(0.0050898 -0.00259036 2.99014e-20)
(0.00466626 -0.00248706 1.59476e-23)
(0.0042776 -0.00236736 3.49198e-20)
(0.00392178 -0.00223569 2.21077e-21)
(0.00359552 -0.00209468 -3.76673e-20)
(0.00329253 -0.00194681 0)
(0.00301055 -0.0017955 -3.58264e-20)
(0.0027485 -0.00164379 -6.96568e-20)
(0.00250417 -0.00149444 6.86931e-20)
(0.00227681 -0.00135044 3.71903e-20)
(0.00206655 -0.00121419 -3.7212e-20)
(0.00187326 -0.00108744 3.72326e-20)
(0.00169758 -0.00097138 0)
(0.00153936 -0.000866098 3.60223e-20)
(0.00139732 -0.000771102 2.31033e-22)
(0.00127163 -0.000685798 7.24125e-20)
(0.00116124 -0.000608718 3.3427e-20)
(0.00106332 -0.000538565 3.66188e-20)
(0.000977323 -0.00047457 0)
(0.000901842 -0.00041562 0)
(0.000834284 -0.000361203 -1.74804e-20)
(0.000774692 -0.000311409 0)
(0.000721869 -0.00026583 -2.15795e-21)
(0.000675711 -0.000225188 2.13471e-21)
(0.000636618 -0.00018926 -1.69988e-20)
(0.000604941 -0.000158613 1.68693e-20)
(0.000581778 -0.000132713 1.46811e-20)
(0.000568545 -0.000111696 2.08275e-21)
(0.000566993 -9.43108e-05 -8.30946e-21)
(0.00057816 -7.9891e-05 4.14059e-21)
(0.000604715 -6.64988e-05 -3.10174e-21)
(0.000647183 -5.20744e-05 1.03252e-21)
(0.00070844 -3.45555e-05 0)
(0.000789142 -1.08432e-05 8.31279e-21)
(0.000890908 2.12788e-05 0)
(0.00101508 6.50549e-05 1.68028e-20)
(0.00116177 0.000123049 8.54975e-24)
(0.00133211 0.000197986 -1.65016e-20)
(0.00152613 0.000292292 1.71494e-20)
(0.00174348 0.000408138 -5.38618e-22)
(0.00198457 0.000547146 0)
(0.00224688 0.000710765 1.73809e-20)
(0.00253103 0.000899256 -1.74331e-20)
(0.00283524 0.00111283 0)
(0.00315553 0.00135035 1.08972e-21)
(0.00349206 0.00161013 -3.58538e-20)
(0.00384132 0.00188959 -3.27139e-20)
(0.00419982 0.00218524 3.21534e-20)
(0.00456694 0.00249312 -3.39758e-20)
(0.00493958 0.0028084 -2.09255e-21)
(0.00531417 0.00312578 3.09895e-20)
(0.00569041 0.00344006 4.12801e-21)
(0.006067 0.00374556 3.56028e-20)
(0.00644213 0.00403678 -7.01655e-20)
(0.00681584 0.00430864 3.45074e-20)
(0.00718797 0.00455628 -2.6097e-20)
(0.0075593 0.0047757 2.07873e-20)
(0.00793295 0.00496344 3.34027e-20)
(0.00830764 0.00511509 1.89562e-20)
(0.00868313 0.00522898 3.14051e-21)
(0.00906765 0.00530309 1.98761e-20)
(0.00945753 0.00533221 2.46745e-20)
(0.00985053 0.00531603 -2.38966e-21)
(0.0102562 0.00525241 2.39598e-21)
(0.0106608 0.00513312 6.27198e-21)
(0.0110626 0.00496019 1.77622e-21)
(0.0114588 0.00472667 -1.56706e-21)
(0.0118357 0.00443176 1.57114e-21)
(0.0121839 0.00407332 -5.07741e-21)
(0.0124862 0.00365153 9.42689e-22)
(0.0127237 0.00317001 -1.81639e-22)
(0.012886 0.00263722 -7.99182e-22)
(0.0129411 0.00206112 -2.24895e-21)
(0.012897 0.0014638 0)
(0.0127171 0.000852321 5.53342e-22)
(0.0124078 0.000259407 -3.12675e-22)
(0.0119818 -0.000299275 1.03808e-22)
(0.0114307 -0.000802747 -1.91931e-22)
(0.0107969 -0.00123454 -1.39182e-22)
(0.0100712 -0.00158614 1.57382e-22)
(0.00930424 -0.00185028 5.8469e-22)
(0.00850104 -0.00202811 -2.59329e-22)
(0.00770172 -0.00212577 9.58843e-22)
(0.00691122 -0.00214963 -9.34616e-22)
(0.00615451 -0.00210988 -3.56984e-22)
(0.00543714 -0.00201292 -1.64056e-21)
(0.00478108 -0.00187247 4.38323e-22)
(0.00416161 -0.00167547 -2.20447e-21)
(0.00377205 -0.00148344 2.51604e-21)
(0.0036185 -0.00128848 -2.01802e-21)
(0.00355946 -0.00108357 -6.94137e-22)
(0.00355553 -0.000882155 -1.46906e-21)
(0.00362217 -0.000700432 0)
(0.00376496 -0.000547538 -1.49097e-21)
(0.00400522 -0.000438257 1.37489e-21)
(0.00430752 -0.000374614 3.37004e-23)
(0.0046108 -0.000348089 -1.18146e-23)
(0.00491067 -0.000347765 -5.3216e-23)
(0.00521877 -0.000360345 -6.75628e-22)
(0.00553608 -0.000373601 4.14875e-23)
(0.00585695 -0.000379102 0)
(0.00617301 -0.000372083 -3.97462e-23)
(0.00647455 -0.000350766 3.87652e-23)
(0.00675183 -0.000315794 6.63529e-22)
(0.00699629 -0.000269613 -6.22434e-22)
(0.00720152 -0.000215779 -5.42487e-22)
(0.00736374 -0.000158291 5.73618e-22)
(0.00748194 -0.000101018 0)
(0.0075577 -4.72941e-05 -2.94214e-23)
(0.00759474 3.06137e-07 0)
(0.00759845 4.00377e-05 -1.68508e-22)
(0.0075752 7.10429e-05 1.64201e-23)
(0.00753177 9.3004e-05 1.97873e-22)
(0.00747504 0.000106253 3.79561e-23)
(0.00741136 0.000111616 1.71145e-23)
(0.00734626 0.000110234 -1.52701e-23)
(0.00728431 0.000103452 0)
(0.00722892 9.27339e-05 1.19356e-23)
(0.00718233 7.95913e-05 3.9051e-23)
(0.00714564 6.55048e-05 -2.99241e-23)
(0.00711885 5.18453e-05 -2.89421e-23)
(0.00710104 3.98252e-05 3.55358e-23)
(0.00709055 3.04477e-05 0)
(0.0070852 2.44951e-05 5.49955e-24)
(0.00708252 2.25711e-05 7.97715e-24)
(0.00707998 2.52219e-05 1.97401e-24)
(0.00707434 3.31953e-05 -1.97042e-24)
(0.00706288 4.82987e-05 4.75037e-25)
(0.010075 0.000515773 0)
(0.0104754 0.0012763 0)
(0.0110083 0.00166005 0)
(0.0113624 0.00175438 9.21366e-22)
(0.0115368 0.00166186 -9.20662e-22)
(0.0115007 0.00146785 0)
(0.0113793 0.00123519 0)
(0.0111877 0.00100929 0)
(0.0109682 0.000817472 0)
(0.0107508 0.000664775 0)
(0.0105472 0.000548985 0)
(0.0103615 0.000464647 -3.64372e-21)
(0.0101927 0.000403791 3.65943e-21)
(0.0100388 0.000359408 -3.64175e-21)
(0.00989718 0.000326447 7.29264e-21)
(0.00976552 0.00030158 -3.64964e-21)
(0.00964169 0.000282799 -3.63112e-21)
(0.00952383 0.000268987 3.64012e-21)
(0.00941025 0.000259572 0)
(0.0092993 0.000254296 0)
(0.00918934 0.000253091 7.22702e-21)
(0.00907871 0.000255995 -7.24149e-21)
(0.00896565 0.000263111 0)
(0.00884835 0.000274604 -7.20685e-21)
(0.00872486 0.000290703 7.22103e-21)
(0.00859313 0.000311719 0)
(0.00845093 0.000338088 0)
(0.00829588 0.000370425 7.20444e-21)
(0.00812533 0.000409623 -1.09697e-23)
(0.0079364 0.000457004 -7.22898e-21)
(0.00772594 0.000514588 -7.23323e-21)
(0.00749019 0.000585519 1.45045e-20)
(0.00723021 0.000675026 -7.27219e-21)
(0.00692264 0.000786975 6.8299e-21)
(0.00659499 0.000939427 -7.34274e-21)
(0.00636563 0.001162 -7.45488e-21)
(0.00629957 0.00146411 7.58574e-21)
(0.00638327 0.0018347 2.27344e-20)
(0.00660564 0.00225839 3.80827e-20)
(0.00696881 0.0027184 7.73639e-21)
(0.00749427 0.00319682 -7.4973e-21)
(0.00814602 0.00366552 -6.54747e-20)
(0.00884779 0.0041005 6.41326e-20)
(0.00956307 0.00449099 6.24117e-20)
(0.0102807 0.00482972 -1.35727e-20)
(0.0109937 0.00511044 9.9327e-21)
(0.0117024 0.00532667 -2.86815e-20)
(0.0123945 0.00546786 0)
(0.0130649 0.00553046 -2.67937e-20)
(0.0137109 0.00550196 2.92118e-21)
(0.0143195 0.00538085 2.20552e-20)
(0.0148855 0.00516865 2.59497e-21)
(0.0153914 0.00485529 -2.55864e-20)
(0.0158312 0.00445081 -1.69779e-20)
(0.0161867 0.00395587 -1.87188e-20)
(0.0164456 0.00338443 -9.16742e-21)
(0.0165979 0.00274785 -1.9051e-21)
(0.0166204 0.00205845 2.1276e-21)
(0.0165269 0.00134383 1.9918e-21)
(0.0162864 0.000613874 2.92766e-21)
(0.0159172 -9.8537e-05 1.95851e-21)
(0.0154262 -0.000775221 0)
(0.0148225 -0.00139722 7.53755e-21)
(0.0141383 -0.00194762 0)
(0.0133806 -0.00241859 -2.58099e-20)
(0.0125912 -0.00280299 -1.49738e-20)
(0.0117786 -0.00310095 -3.72456e-21)
(0.0109736 -0.00331653 0)
(0.010188 -0.00345602 0)
(0.00943322 -0.00352815 -1.56115e-20)
(0.00872318 -0.00354265 0)
(0.00805379 -0.00350665 3.6104e-20)
(0.00743058 -0.00343009 -3.65645e-20)
(0.00685379 -0.0033193 3.50541e-20)
(0.00631728 -0.00318011 2.15036e-23)
(0.00582015 -0.00301897 2.01599e-23)
(0.00535967 -0.00284053 2.98336e-20)
(0.00493009 -0.00264927 4.29364e-21)
(0.00452887 -0.0024504 3.24315e-20)
(0.00415443 -0.00224862 3.47637e-20)
(0.00380412 -0.00204829 -1.65888e-23)
(0.0034767 -0.00185379 -3.39132e-20)
(0.00317194 -0.00166872 3.39938e-20)
(0.00288958 -0.0014958 0)
(0.00263035 -0.00133687 5.50348e-22)
(0.00239439 -0.00119236 3.45751e-20)
(0.00218068 -0.00106184 -6.99753e-20)
(0.00198981 -0.000944617 -1.05515e-19)
(0.00182104 -0.000838835 -3.61208e-20)
(0.00167146 -0.000742842 1.03529e-21)
(0.00154053 -0.000655593 0)
(0.00142672 -0.000575674 1.08386e-21)
(0.00132675 -0.000502365 -1.07437e-21)
(0.00124055 -0.000435893 0)
(0.00116638 -0.000375725 1.70175e-20)
(0.00110392 -0.000322923 -2.11694e-21)
(0.0010534 -0.000277136 2.09809e-21)
(0.00101513 -0.000239244 -6.53797e-24)
(0.000990138 -0.000208315 1.66131e-20)
(0.000980363 -0.000184711 -2.06887e-21)
(0.000987814 -0.000166366 4.11422e-21)
(0.00101373 -0.00015237 -2.04635e-21)
(0.00106144 -0.00013993 4.32318e-25)
(0.00113113 -0.000126171 -1.02219e-21)
(0.00122665 -0.000108266 1.02051e-21)
(0.00134808 -8.18901e-05 -8.18821e-21)
(0.00149726 -4.41369e-05 -8.72391e-21)
(0.00167513 9.24468e-06 -1.59737e-20)
(0.00188111 8.14516e-05 3.31056e-20)
(0.00211578 0.00017573 -1.60928e-20)
(0.00237826 0.000294882 -5.21372e-22)
(0.00266715 0.000441216 -5.23396e-22)
(0.00298203 0.000616326 5.24934e-22)
(0.00331902 0.000821434 -1.68431e-20)
(0.00367815 0.00105643 1.12671e-21)
(0.00405631 0.00132091 -4.34849e-24)
(0.00444917 0.00161322 1.45987e-20)
(0.00485609 0.00193077 5.11351e-20)
(0.00527323 0.00227015 -3.29485e-20)
(0.00569719 0.00262707 -3.30095e-20)
(0.0061271 0.00299652 3.4673e-20)
(0.00656012 0.00337272 2.97197e-20)
(0.00699345 0.00374957 -2.97707e-20)
(0.00742704 0.00412079 -3.43723e-20)
(0.00786007 0.00447974 -2.85105e-20)
(0.00829167 0.00482021 4.26273e-21)
(0.00872235 0.0051362 -3.61347e-21)
(0.00915258 0.00542211 0)
(0.00958355 0.00567309 -2.99607e-20)
(0.010018 0.00588481 -2.54457e-20)
(0.0104554 0.00605275 -2.13012e-20)
(0.0108956 0.00617447 0)
(0.0113448 0.00624634 -2.43306e-20)
(0.0118002 0.00626396 2.59563e-21)
(0.0122595 0.00622716 -6.97951e-21)
(0.0127274 0.00613235 -2.23643e-21)
(0.0131926 0.00597373 -1.27202e-22)
(0.0136526 0.00575265 -8.81685e-21)
(0.0141017 0.00546406 1.67902e-21)
(0.0145278 0.00510807 -6.96589e-21)
(0.0149207 0.00468457 1.11548e-20)
(0.0152647 0.00419545 8.47582e-21)
(0.0155434 0.00364583 3.71347e-21)
(0.0157456 0.00304474 0)
(0.0158454 0.00240077 -7.13358e-22)
(0.0158452 0.00173394 6.93564e-24)
(0.0157146 0.00105285 1.63676e-22)
(0.0154559 0.000385322 -5.16615e-22)
(0.015074 -0.000251667 2.49946e-22)
(0.0145589 -0.000838763 -4.39111e-22)
(0.0139415 -0.00135727 2.05621e-22)
(0.0132108 -0.0017971 0)
(0.0124098 -0.00214614 -6.04272e-22)
(0.0115405 -0.00240215 3.40193e-22)
(0.0106426 -0.00256552 -7.13798e-22)
(0.00972253 -0.00264034 -2.35475e-22)
(0.00881105 -0.00263333 1.7117e-21)
(0.00791821 -0.00254896 -3.59699e-22)
(0.00708443 -0.00240479 0)
(0.00628688 -0.00219331 2.66916e-21)
(0.00572566 -0.00196424 6.46952e-23)
(0.0054176 -0.0017177 4.30131e-23)
(0.00524877 -0.00145606 3.06249e-23)
(0.00517582 -0.00120118 1.44285e-21)
(0.00521036 -0.000979126 8.85268e-24)
(0.00535045 -0.000803721 -4.52481e-24)
(0.00561013 -0.000688765 -6.92309e-22)
(0.00594488 -0.000629075 6.02175e-22)
(0.00629131 -0.000610731 6.55219e-22)
(0.00663974 -0.000620177 6.99123e-23)
(0.00699655 -0.000641413 -6.33996e-22)
(0.00735961 -0.000659083 7.60639e-23)
(0.00772159 -0.000662099 6.0127e-22)
(0.00807346 -0.000644167 -5.96372e-22)
(0.00840556 -0.000603168 -7.16255e-23)
(0.00870839 -0.000540449 -7.11134e-23)
(0.00897366 -0.000459991 0)
(0.00919518 -0.000367447 5.14311e-22)
(0.00936934 -0.000269185 -5.12715e-22)
(0.00949529 -0.000171433 0)
(0.00957477 -7.96439e-05 -5.53712e-23)
(0.00961179 1.88028e-06 0)
(0.0096121 7.01493e-05 4.78502e-23)
(0.00958261 0.000123439 1.69287e-22)
(0.00953076 0.000161264 -1.68956e-22)
(0.00946406 0.000184167 -3.65654e-23)
(0.00938953 0.000193513 3.25099e-23)
(0.00931335 0.000191255 0)
(0.00924063 0.000179734 -9.7497e-23)
(0.00917521 0.00016151 9.74444e-23)
(0.00911962 0.000139215 1.99049e-23)
(0.00907511 0.000115414 3.23924e-23)
(0.00904172 9.24583e-05 -3.23575e-23)
(0.00901846 7.23934e-05 2.34328e-23)
(0.00900351 5.68526e-05 -2.33821e-23)
(0.00899447 4.70163e-05 -8.67373e-24)
(0.00898872 4.36192e-05 -5.78007e-24)
(0.00898366 4.70467e-05 3.85168e-24)
(0.00897643 5.75211e-05 4.76907e-24)
(0.00896342 7.69924e-05 0)
(0.0100413 0.000316939 0)
(0.0102857 0.000871562 0)
(0.0107091 0.00123938 0)
(0.0111252 0.00142108 9.30518e-22)
(0.011442 0.00145868 -9.24961e-22)
(0.0116428 0.00139339 0)
(0.0117625 0.0012627 1.80396e-21)
(0.0117697 0.00110706 -1.80849e-21)
(0.0117315 0.000953746 -1.79232e-21)
(0.0116554 0.000815961 3.58884e-21)
(0.0115571 0.0007011 -1.79641e-21)
(0.011452 0.000610906 0)
(0.0113456 0.000541442 0)
(0.0112411 0.000488309 3.56001e-21)
(0.0111397 0.000447514 -1.50192e-23)
(0.0110413 0.000416075 -7.11081e-21)
(0.0109455 0.000392078 3.55591e-21)
(0.0108515 0.000374395 0)
(0.0107583 0.00036244 0)
(0.010665 0.000355964 3.52356e-21)
(0.0105704 0.000354958 -3.5296e-21)
(0.0104733 0.000359535 0)
(0.0103721 0.000369885 0)
(0.0102656 0.000386275 -7.00638e-21)
(0.0101518 0.000409052 1.40165e-20)
(0.0100291 0.000438661 -7.01027e-21)
(0.00989545 0.000475678 -6.98957e-21)
(0.00974864 0.000520878 1.36835e-23)
(0.00958635 0.000575309 1.39892e-20)
(0.00940605 0.000640419 -7.00204e-21)
(0.00920517 0.000718261 -6.99763e-21)
(0.0089807 0.000811746 6.71718e-24)
(0.00873438 0.000925431 7.02074e-21)
(0.00844746 0.00106171 7.01876e-21)
(0.0081441 0.0012343 -7.07217e-21)