/*--------------------------------*- C++ -*----------------------------------*\
| =========                 |                                                 |
| \\      /  F ield         | OpenFOAM: The Open Source CFD Toolbox           |
|  \\    /   O peration     | Version:  2506                                  |
|   \\  /    A nd           | Website:  www.openfoam.com                      |
|    \\/     M anipulation  |                                                 |
\*---------------------------------------------------------------------------*/
FoamFile
{
    version     2.0;
    format      ascii;
    arch        "LSB;label=32;scalar=64";
    class       volScalarField;
    location    "0.4";
    object      p;
}
// * * * * * * * * * * * * * * * * * * * * * * * * * * * * * * * * * * * * * //

dimensions      [0 2 -2 0 0 0 0];

internalField   nonuniform List<scalar> 
4000
(
-3.87717e-05
-2.10663e-05
-1.41645e-05
-1.20347e-05
-1.15357e-05
-1.19584e-05
-1.29273e-05
-1.41777e-05
-1.55804e-05
-1.71006e-05
-1.87274e-05
-2.04501e-05
-2.2278e-05
-2.42257e-05
-2.63093e-05
-2.85457e-05
-3.09531e-05
-3.35509e-05
-3.63595e-05
-3.94001e-05
-4.26959e-05
-4.62747e-05
-5.01645e-05
-5.43858e-05
-5.89786e-05
-6.39841e-05
-6.94648e-05
-7.54828e-05
-8.21172e-05
-8.94813e-05
-9.77494e-05
-0.000106949
-0.000116639
-0.000126224
-0.000135309
-0.000143632
-0.000151001
-0.000157107
-0.000161044
-0.000162825
-0.000163166
-0.000162244
-0.000160152
-0.000156967
-0.000152734
-0.000147488
-0.000141269
-0.000134155
-0.000126143
-0.000117185
-0.000107176
-9.60048e-05
-8.36529e-05
-6.97717e-05
-5.4437e-05
-3.75969e-05
-1.97584e-05
-1.34597e-06
1.64988e-05
3.23268e-05
4.56602e-05
5.61813e-05
6.44781e-05
7.10484e-05
7.70367e-05
8.24772e-05
8.78269e-05
9.31047e-05
9.80321e-05
0.000102466
0.000106251
0.000109257
0.00011136
0.000112485
0.000112587
0.000111632
0.000109597
0.000106446
0.000102141
9.66929e-05
9.00789e-05
8.22278e-05
7.30963e-05
6.27146e-05
5.10551e-05
3.82273e-05
2.44212e-05
1.00767e-05
-4.30457e-06
-1.8233e-05
-3.14803e-05
-4.38713e-05
-5.55421e-05
-6.64141e-05
-7.6596e-05
-8.59138e-05
-9.41611e-05
-0.000101274
-0.000107124
-0.000111612
-0.000114739
-0.00011655
-0.000117078
-0.000116377
-0.000114479
-0.000111384
-0.000107054
-0.000101431
-9.44804e-05
-8.6152e-05
-7.62855e-05
-6.47436e-05
-5.17053e-05
-3.6856e-05
-2.07643e-05
-3.61295e-06
1.36464e-05
2.97851e-05
4.39485e-05
5.55662e-05
6.47138e-05
7.17508e-05
7.78283e-05
8.33164e-05
8.8761e-05
9.40924e-05
9.92127e-05
0.000104103
0.000108503
0.000112212
0.000115111
0.000117111
0.000118138
0.000118137
0.000117057
0.000114875
0.00011157
0.000107114
0.000101458
9.45392e-05
8.63886e-05
7.69511e-05
6.61853e-05
5.42044e-05
4.11162e-05
2.72775e-05
1.31672e-05
-6.8216e-07
-1.39166e-05
-2.63345e-05
-3.79219e-05
-4.87423e-05
-5.88345e-05
-6.79929e-05
-7.61734e-05
-8.31305e-05
-8.86944e-05
-9.26966e-05
-9.5047e-05
-9.56688e-05
-9.44177e-05
-9.09992e-05
-8.5032e-05
-7.73843e-05
-6.97204e-05
-6.18325e-05
-5.34905e-05
-4.50086e-05
-3.67596e-05
-2.94513e-05
-2.39193e-05
-2.02003e-05
-1.74911e-05
-1.54209e-05
-1.3792e-05
-1.24922e-05
-1.14092e-05
-1.04805e-05
-9.67938e-06
-8.98548e-06
-8.37993e-06
-7.85011e-06
-7.38778e-06
-6.98683e-06
-6.64209e-06
-6.34862e-06
-6.10064e-06
-5.89013e-06
-5.70443e-06
-5.52362e-06
-5.31394e-06
-5.00863e-06
-4.50825e-06
-3.68251e-06
-2.29936e-06
-5.26838e-08
3.46145e-06
9.03969e-06
1.91251e-05
3.90969e-05
-2.64679e-05
-1.85942e-05
-1.46475e-05
-1.301e-05
-1.25747e-05
-1.28915e-05
-1.36879e-05
-1.47593e-05
-1.59861e-05
-1.73617e-05
-1.88781e-05
-2.0504e-05
-2.2246e-05
-2.41159e-05
-2.61264e-05
-2.82917e-05
-3.06277e-05
-3.31514e-05
-3.58809e-05
-3.88365e-05
-4.20392e-05
-4.55109e-05
-4.92776e-05
-5.33792e-05
-5.78471e-05
-6.27223e-05
-6.80431e-05
-7.38654e-05
-8.02546e-05
-8.72826e-05
-9.50237e-05
-0.000103527
-0.00011232
-0.000120968
-0.00012914
-0.00013662
-0.000143168
-0.000148347
-0.000151395
-0.000152563
-0.000152498
-0.000151276
-0.000148917
-0.000145505
-0.000141099
-0.000135734
-0.000129458
-0.00012233
-0.000114344
-0.000105465
-9.56308e-05
-8.48094e-05
-7.29993e-05
-6.00836e-05
-4.62315e-05
-3.15909e-05
-1.65686e-05
-1.52886e-06
1.28954e-05
2.62572e-05
3.79406e-05
4.7633e-05
5.56025e-05
6.20207e-05
6.77435e-05
7.28355e-05
7.77895e-05
8.27444e-05
8.7472e-05
9.18772e-05
9.58044e-05
9.90981e-05
0.000101608
0.000103228
0.000103887
0.000103535
0.000102131
9.96332e-05
9.59886e-05
9.11994e-05
8.52421e-05
7.80588e-05
6.9582e-05
5.98586e-05
4.88528e-05
3.67089e-05
2.35906e-05
9.93131e-06
-3.80225e-06
-1.72068e-05
-3.0037e-05
-4.20979e-05
-5.34373e-05
-6.39253e-05
-7.35547e-05
-8.22147e-05
-8.97465e-05
-9.59968e-05
-0.000100909
-0.000104527
-0.000106856
-0.000107935
-0.00010781
-0.000106514
-0.000104072
-0.000100475
-9.56978e-05
-8.97129e-05
-8.25103e-05
-7.40648e-05
-6.43099e-05
-5.32666e-05
-4.1133e-05
-2.79173e-05
-1.40915e-05
5.65414e-08
1.39409e-05
2.69811e-05
3.86928e-05
4.87155e-05
5.69616e-05
6.35164e-05
6.92282e-05
7.43521e-05
7.9324e-05
8.42819e-05
8.90439e-05
9.36893e-05
9.79969e-05
0.000101765
0.000104845
0.000107122
0.000108496
0.000108896
0.000108259
0.000106547
0.000103731
9.97779e-05
9.46483e-05
8.82696e-05
8.06679e-05
7.18133e-05
6.16419e-05
5.03091e-05
3.79096e-05
2.48036e-05
1.14121e-05
-1.78921e-06
-1.4494e-05
-2.64783e-05
-3.7674e-05
-4.80499e-05
-5.75107e-05
-6.59004e-05
-7.31396e-05
-7.89719e-05
-8.32436e-05
-8.59108e-05
-8.69054e-05
-8.61685e-05
-8.36284e-05
-7.91277e-05
-7.28249e-05
-6.54959e-05
-5.87214e-05
-5.20491e-05
-4.52303e-05
-3.85681e-05
-3.2374e-05
-2.70281e-05
-2.28107e-05
-1.96677e-05
-1.72281e-05
-1.52955e-05
-1.37398e-05
-1.24669e-05
-1.13921e-05
-1.0463e-05
-9.66143e-06
-8.96913e-06
-8.36483e-06
-7.83625e-06
-7.37545e-06
-6.97631e-06
-6.63363e-06
-6.34232e-06
-6.09647e-06
-5.88789e-06
-5.70365e-06
-5.52166e-06
-5.30455e-06
-4.99014e-06
-4.44484e-06
-3.52428e-06
-2.00242e-06
4.41574e-07
4.10347e-06
9.19881e-06
1.62449e-05
2.58149e-05
-1.9506e-05
-1.67363e-05
-1.4783e-05
-1.37004e-05
-1.3393e-05
-1.36584e-05
-1.43158e-05
-1.52311e-05
-1.6325e-05
-1.75723e-05
-1.89607e-05
-2.0476e-05
-2.21192e-05
-2.38972e-05
-2.58201e-05
-2.78995e-05
-3.01494e-05
-3.25847e-05
-3.52219e-05
-3.80793e-05
-4.11764e-05
-4.45351e-05
-4.81811e-05
-5.2143e-05
-5.64514e-05
-6.11408e-05
-6.62492e-05
-7.1822e-05
-7.79088e-05
-8.45525e-05
-9.17882e-05
-9.96366e-05
-0.000107651
-0.000115454
-0.000122777
-0.00012945
-0.00013519
-0.000139564
-0.000141941
-0.000142679
-0.000142321
-0.000140859
-0.000138284
-0.000134699
-0.000130173
-0.000124742
-0.000118458
-0.000111369
-0.000103476
-9.47655e-05
-8.52257e-05
-7.48836e-05
-6.37877e-05
-5.19651e-05
-3.96353e-05
-2.6993e-05
-1.43399e-05
-1.88845e-06
1.00887e-05
2.13613e-05
3.15775e-05
4.04877e-05
4.79365e-05
5.422e-05
5.95665e-05
6.42346e-05
6.87634e-05
7.33522e-05
7.77992e-05
8.2088e-05
8.60404e-05
8.94958e-05
9.2297e-05
9.43126e-05
9.54469e-05
9.56272e-05
9.47926e-05
9.28967e-05
8.98691e-05
8.57053e-05
8.03798e-05
7.38438e-05
6.60179e-05
5.69611e-05
4.66265e-05
3.51553e-05
2.26879e-05
9.62691e-06
-3.5843e-06
-1.65503e-05
-2.89929e-05
-4.06891e-05
-5.15969e-05
-6.15933e-05
-7.05431e-05
-7.83613e-05
-8.49978e-05
-9.03822e-05
-9.44638e-05
-9.73121e-05
-9.89558e-05
-9.94265e-05
-9.87571e-05
-9.69752e-05
-9.40965e-05
-9.01192e-05
-8.50343e-05
-7.8842e-05
-7.15667e-05
-6.32287e-05
-5.38527e-05
-4.35539e-05
-3.25746e-05
-2.10407e-05
-9.33321e-06
2.33235e-06
1.3663e-05
2.44041e-05
3.42706e-05
4.30089e-05
5.03773e-05
5.64185e-05
6.17288e-05
6.63285e-05
7.0726e-05
7.52977e-05
7.96411e-05
8.40333e-05
8.82064e-05
9.1968e-05
9.51522e-05
9.76385e-05
9.93021e-05
0.000100056
9.98215e-05
9.85407e-05
9.61823e-05
9.27031e-05
8.8072e-05
8.22106e-05
7.51431e-05
6.68635e-05
5.72943e-05
4.65972e-05
3.48468e-05
2.23666e-05
9.58702e-06
-3.08757e-06
-1.53175e-05
-2.68409e-05
-3.75241e-05
-4.73005e-05
-5.59512e-05
-6.33146e-05
-6.93609e-05
-7.39824e-05
-7.70348e-05
-7.84984e-05
-7.83354e-05
-7.65428e-05
-7.31687e-05
-6.82698e-05
-6.22358e-05
-5.55531e-05
-4.9843e-05
-4.43656e-05
-3.88688e-05
-3.36649e-05
-2.89543e-05
-2.49008e-05
-2.1584e-05
-1.89669e-05
-1.68083e-05
-1.50339e-05
-1.35701e-05
-1.23428e-05
-1.12931e-05
-1.03837e-05
-9.59335e-06
-8.90455e-06
-8.30235e-06
-7.77637e-06
-7.31868e-06
-6.92323e-06
-6.58496e-06
-6.29924e-06
-6.06093e-06
-5.86309e-06
-5.6947e-06
-5.53672e-06
-5.35565e-06
-5.09023e-06
-4.62591e-06
-3.80036e-06
-2.37491e-06
-4.96422e-08
3.38337e-06
7.76374e-06
1.24905e-05
1.70902e-05
-1.60924e-05
-1.51248e-05
-1.42864e-05
-1.37586e-05
-1.36694e-05
-1.39793e-05
-1.45893e-05
-1.54196e-05
-1.64202e-05
-1.75688e-05
-1.88551e-05
-2.02731e-05
-2.18231e-05
-2.35105e-05
-2.53435e-05
-2.73323e-05
-2.94891e-05
-3.18271e-05
-3.43613e-05
-3.71083e-05
-4.00859e-05
-4.33139e-05
-4.6815e-05
-5.06138e-05
-5.47374e-05
-5.92155e-05
-6.40809e-05
-6.93698e-05
-7.51201e-05
-8.13589e-05
-8.80971e-05
-9.53282e-05
-0.000102629
-0.000109669
-0.000116248
-0.000122206
-0.000127256
-0.000130985
-0.000132876
-0.000133301
-0.000132703
-0.00013104
-0.000128293
-0.000124586
-0.000119992
-0.00011455
-0.000108315
-0.000101333
-9.36193e-05
-8.51861e-05
-7.60612e-05
-6.63149e-05
-5.60381e-05
-4.53255e-05
-3.44014e-05
-2.34391e-05
-1.26563e-05
-2.14882e-06
7.97723e-06
1.76274e-05
2.66058e-05
3.47881e-05
4.17974e-05
4.78422e-05
5.279e-05
5.71426e-05
6.13463e-05
6.54813e-05
6.95189e-05
7.35511e-05
7.73775e-05
8.084e-05
8.37843e-05
8.6056e-05
8.75399e-05
8.81435e-05
8.7786e-05
8.64102e-05
8.39304e-05
8.0332e-05
7.55853e-05
6.96417e-05
6.24211e-05
5.39802e-05
4.42728e-05
3.34281e-05
2.15783e-05
9.09697e-06
-3.59292e-06
-1.60924e-05
-2.80769e-05
-3.93286e-05
-4.96862e-05
-5.90132e-05
-6.72204e-05
-7.42425e-05
-8.0063e-05
-8.46383e-05
-8.79997e-05
-9.0201e-05
-9.12726e-05
-9.12388e-05
-9.01254e-05
-8.7959e-05
-8.47572e-05
-8.05305e-05
-7.52898e-05
-6.90628e-05
-6.19088e-05
-5.38927e-05
-4.51012e-05
-3.56925e-05
-2.59241e-05
-1.59261e-05
-5.99755e-06
3.7508e-06
1.31881e-05
2.22154e-05
3.06613e-05
3.83948e-05
4.50992e-05
5.07798e-05
5.55859e-05
5.96214e-05
6.37306e-05
6.77851e-05
7.16236e-05
7.57049e-05
7.96454e-05
8.33081e-05
8.64877e-05
8.90796e-05
9.09337e-05
9.19466e-05
9.20288e-05
9.11031e-05
8.91318e-05
8.60617e-05
8.1861e-05
7.64536e-05
6.98588e-05
6.20798e-05
5.30455e-05
4.29085e-05
3.17462e-05
1.98611e-05
7.64856e-06
-4.48657e-06
-1.61703e-05
-2.7144e-05
-3.71635e-05
-4.6066e-05
-5.37535e-05
-6.00803e-05
-6.50088e-05
-6.84888e-05
-7.04623e-05
-7.09264e-05
-6.98777e-05
-6.73837e-05
-6.36328e-05
-5.88271e-05
-5.33592e-05
-4.74859e-05
-4.27659e-05
-3.82889e-05
-3.38424e-05
-2.97347e-05
-2.6061e-05
-2.28835e-05
-2.0223e-05
-1.80545e-05
-1.61754e-05
-1.45802e-05
-1.32318e-05
-1.20771e-05
-1.10757e-05
-1.02005e-05
-9.43365e-06
-8.76086e-06
-8.17076e-06
-7.65461e-06
-7.20553e-06
-6.81816e-06
-6.48815e-06
-6.21181e-06
-5.98555e-06
-5.80496e-06
-5.66382e-06
-5.5495e-06
-5.43685e-06
-5.27718e-06
-4.9772e-06
-4.38193e-06
-3.25653e-06
-1.31967e-06
1.59005e-06
5.1868e-06
8.55972e-06
1.1144e-05
-1.40111e-05
-1.37996e-05
-1.35558e-05
-1.34206e-05
-1.35353e-05
-1.39151e-05
-1.45182e-05
-1.5303e-05
-1.62398e-05
-1.73144e-05
-1.85207e-05
-1.98563e-05
-2.13226e-05
-2.29246e-05
-2.46695e-05
-2.65665e-05
-2.86265e-05
-3.08614e-05
-3.32848e-05
-3.59114e-05
-3.87574e-05
-4.18406e-05
-4.51806e-05
-4.87988e-05
-5.27184e-05
-5.69648e-05
-6.15646e-05
-6.65462e-05
-7.19392e-05
-7.77627e-05
-8.40149e-05
-9.06495e-05
-9.72867e-05
-0.000103645
-0.000109556
-0.000114873
-0.000119313
-0.000122488
-0.000123979
-0.000124137
-0.000123324
-0.000121483
-0.000118597
-0.000114804
-0.000110184
-0.000104779
-9.86469e-05
-9.18383e-05
-8.43837e-05
-7.63204e-05
-6.77057e-05
-5.86389e-05
-4.92357e-05
-3.96179e-05
-2.99901e-05
-2.04915e-05
-1.1275e-05
-2.36717e-06
6.20828e-06
1.44557e-05
2.22659e-05
2.96274e-05
3.60884e-05
4.18217e-05
4.65701e-05
5.07128e-05
5.44372e-05
5.79446e-05
6.17204e-05
6.54277e-05
6.90313e-05
7.23993e-05
7.54064e-05
7.7848e-05
7.9603e-05
8.05647e-05
8.06345e-05
7.97419e-05
7.7786e-05
7.47367e-05
7.05591e-05
6.52003e-05
5.85823e-05
5.07537e-05
4.16736e-05
3.14563e-05
2.0231e-05
8.35198e-06
-3.77124e-06
-1.57512e-05
-2.7206e-05
-3.78551e-05
-4.755e-05
-5.6154e-05
-6.35704e-05
-6.98033e-05
-7.48633e-05
-7.8709e-05
-8.14313e-05
-8.30676e-05
-8.36393e-05
-8.31702e-05
-8.16857e-05
-7.92158e-05
-7.57854e-05
-7.14205e-05
-6.61528e-05
-6.00361e-05
-5.316e-05
-4.56219e-05
-3.75451e-05
-2.91001e-05
-2.05277e-05
-1.19322e-05
-3.53693e-06
4.62429e-06
1.25078e-05
2.01038e-05
2.73176e-05
3.41113e-05
4.01418e-05
4.53938e-05
4.97762e-05
5.36088e-05
5.71201e-05
6.03889e-05
6.40803e-05
6.77844e-05
7.14246e-05
7.4946e-05
7.80658e-05
8.07078e-05
8.26984e-05
8.39194e-05
8.42763e-05
8.36732e-05
8.20629e-05
7.93817e-05
7.55934e-05
7.06263e-05
6.44937e-05
5.72014e-05
4.86935e-05
3.91074e-05
2.85295e-05
1.72444e-05
5.63776e-06
-5.9129e-06
-1.69641e-05
-2.71771e-05
-3.63628e-05
-4.43209e-05
-5.09654e-05
-5.62397e-05
-6.01167e-05
-6.25639e-05
-6.36128e-05
-6.32806e-05
-6.1606e-05
-5.87265e-05
-5.49386e-05
-5.05003e-05
-4.57146e-05
-4.07254e-05
-3.68611e-05
-3.32067e-05
-2.9621e-05
-2.63679e-05
-2.34673e-05
-2.09424e-05
-1.87928e-05
-1.69878e-05
-1.53673e-05
-1.3955e-05
-1.27333e-05
-1.16672e-05
-1.07301e-05
-9.90311e-06
-9.17263e-06
-8.52778e-06
-7.95976e-06
-7.46155e-06
-7.02748e-06
-6.65309e-06
-6.33489e-06
-6.0702e-06
-5.85696e-06
-5.69347e-06
-5.57662e-06
-5.49981e-06
-5.44687e-06
-5.38146e-06
-5.22727e-06
-4.84447e-06
-4.01417e-06
-2.48061e-06
-1.166e-07
2.769e-06
5.12135e-06
6.33891e-06
-1.25987e-05
-1.27288e-05
-1.28128e-05
-1.29057e-05
-1.31469e-05
-1.35731e-05
-1.41757e-05
-1.49272e-05
-1.58142e-05
-1.68283e-05
-1.79671e-05
-1.92303e-05
-2.06199e-05
-2.21404e-05
-2.37988e-05
-2.56033e-05
-2.75639e-05
-2.96913e-05
-3.19977e-05
-3.44963e-05
-3.72015e-05
-4.01291e-05
-4.32962e-05
-4.6721e-05
-5.0423e-05
-5.44232e-05
-5.8743e-05
-6.34047e-05
-6.84312e-05
-7.38374e-05
-7.96157e-05
-8.56834e-05
-9.17067e-05
-9.74417e-05
-0.000102747
-0.000107483
-0.000111377
-0.000114067
-0.000115215
-0.000115138
-0.000114137
-0.000112149
-0.000109158
-0.000105318
-0.000100716
-9.53966e-05
-8.94222e-05
-8.28504e-05
-7.57263e-05
-6.81058e-05
-6.00674e-05
-5.17262e-05
-4.32071e-05
-3.46367e-05
-2.61905e-05
-1.79751e-05
-1.00936e-05
-2.53539e-06
4.71868e-06
1.17279e-05
1.84421e-05
2.49275e-05
3.07733e-05
3.61103e-05
4.06105e-05
4.44876e-05
4.78641e-05
5.10267e-05
5.42156e-05
5.74599e-05
6.08293e-05
6.40455e-05
6.70834e-05
6.96513e-05
7.1639e-05
7.29054e-05
7.33509e-05
7.28999e-05
7.14431e-05
6.89263e-05
6.53081e-05
6.05286e-05
5.45127e-05
4.72972e-05
3.88494e-05
2.92681e-05
1.8686e-05
7.43984e-06
-4.07059e-06
-1.54204e-05
-2.62252e-05
-3.61955e-05
-4.51426e-05
-5.29729e-05
-5.96072e-05
-6.50926e-05
-6.94466e-05
-7.26566e-05
-7.48183e-05
-7.59576e-05
-7.60952e-05
-7.52583e-05
-7.34762e-05
-7.07849e-05
-6.72197e-05
-6.28224e-05
-5.76442e-05
-5.1761e-05
-4.52841e-05
-3.83296e-05
-3.1036e-05
-2.35667e-05
-1.61273e-05
-8.7931e-06
-1.72111e-06
5.10158e-06
1.16787e-05
1.80496e-05
2.41676e-05
3.00561e-05
3.54046e-05
4.01822e-05
4.41868e-05
4.76901e-05
5.06829e-05
5.35802e-05
5.67715e-05
5.99525e-05
6.33395e-05
6.66866e-05
6.97943e-05
7.24592e-05
7.45588e-05
7.59482e-05
7.65437e-05
7.62367e-05
7.49679e-05
7.26606e-05
6.92719e-05
6.47357e-05
5.90592e-05
5.2246e-05
4.42614e-05
3.52267e-05
2.52454e-05
1.45722e-05
3.61049e-06
-7.2054e-06
-1.74761e-05
-2.68379e-05
-3.50678e-05
-4.20114e-05
-4.76242e-05
-5.19024e-05
-5.4807e-05
-5.63978e-05
-5.67153e-05
-5.58057e-05
-5.37593e-05
-5.07663e-05
-4.71789e-05
-4.32445e-05
-3.91587e-05
-3.50211e-05
-3.18617e-05
-2.88802e-05
-2.59974e-05
-2.34106e-05
-2.10969e-05
-1.90704e-05
-1.73233e-05
-1.58128e-05
-1.44231e-05
-1.31848e-05
-1.20912e-05
-1.11213e-05
-1.02585e-05
-9.49025e-06
-8.80654e-06
-8.19932e-06
-7.66192e-06
-7.18881e-06
-6.77544e-06
-6.41817e-06
-6.11419e-06
-5.86155e-06
-5.65912e-06
-5.50613e-06
-5.40125e-06
-5.34073e-06
-5.31294e-06
-5.28859e-06
-5.20275e-06
-4.93209e-06
-4.28594e-06
-3.05576e-06
-1.18004e-06
9.63967e-07
2.36903e-06
2.64042e-06
-1.15823e-05
-1.18449e-05
-1.20829e-05
-1.23046e-05
-1.26227e-05
-1.30673e-05
-1.36451e-05
-1.43597e-05
-1.52007e-05
-1.61603e-05
-1.72365e-05
-1.8431e-05
-1.97458e-05
-2.11852e-05
-2.27558e-05
-2.44653e-05
-2.63226e-05
-2.83374e-05
-3.05206e-05
-3.28838e-05
-3.544e-05
-3.82028e-05
-4.1187e-05
-4.4408e-05
-4.78823e-05
-5.16267e-05
-5.56582e-05
-5.99942e-05
-6.46521e-05
-6.96443e-05
-7.496e-05
-8.04919e-05
-8.59438e-05
-9.11034e-05
-9.58539e-05
-0.000100062
-0.000103465
-0.000105732
-0.000106586
-0.000106306
-0.00010515
-0.00010305
-9.99923e-05
-9.61476e-05
-9.1609e-05
-8.6426e-05
-8.06641e-05
-7.43874e-05
-6.76526e-05
-6.05289e-05
-5.31067e-05
-4.55064e-05
-3.78514e-05
-3.02604e-05
-2.28782e-05
-1.57837e-05
-9.04308e-06
-2.62606e-06
3.50749e-06
9.44059e-06
1.51606e-05
2.0766e-05
2.59475e-05
3.07949e-05
3.49792e-05
3.85884e-05
4.17001e-05
4.44775e-05
4.71167e-05
4.99907e-05
5.2974e-05
5.59051e-05
5.87251e-05
6.13414e-05
6.36072e-05
6.51717e-05
6.5975e-05
6.59236e-05
6.49387e-05
6.2933e-05
5.98595e-05
5.56511e-05
5.02364e-05
4.36365e-05
3.58304e-05
2.69022e-05
1.69936e-05
6.4307e-06
-4.39321e-06
-1.50313e-05
-2.50926e-05
-3.42999e-05
-4.24588e-05
-4.95112e-05
-5.54034e-05
-6.02019e-05
-6.39143e-05
-6.6566e-05
-6.82361e-05
-6.89428e-05
-6.87121e-05
-6.75776e-05
-6.5574e-05
-6.27451e-05
-5.91371e-05
-5.48065e-05
-4.98203e-05
-4.42702e-05
-3.82794e-05
-3.19698e-05
-2.54793e-05
-1.89522e-05
-1.25538e-05
-6.33299e-06
-3.93706e-07
5.30264e-06
1.07846e-05
1.61144e-05
2.12732e-05
2.63109e-05
3.09809e-05
3.52505e-05
3.8872e-05
4.20394e-05
4.46737e-05
4.71502e-05
4.96937e-05
5.249e-05
5.55289e-05
5.85428e-05
6.14475e-05
6.41482e-05
6.64368e-05
6.80168e-05
6.88423e-05
6.88113e-05
6.78687e-05
6.59201e-05
6.29175e-05
5.88032e-05
5.35781e-05
4.72406e-05
3.97835e-05
3.13112e-05
2.19455e-05
1.19642e-05
1.74189e-06
-8.26936e-06
-1.76398e-05
-2.60413e-05
-3.32657e-05
-3.92025e-05
-4.38514e-05
-4.72336e-05
-4.93163e-05
-5.02251e-05
-5.00024e-05
-4.87246e-05
-4.65261e-05
-4.36221e-05
-4.03741e-05
-3.69852e-05
-3.35571e-05
-3.01706e-05
-2.75848e-05
-2.51565e-05
-2.28422e-05
-2.07751e-05
-1.89152e-05
-1.72766e-05
-1.58467e-05
-1.45773e-05
-1.33886e-05
-1.23092e-05
-1.13388e-05
-1.04664e-05
-9.68226e-06
-8.97823e-06
-8.34741e-06
-7.78393e-06
-7.28273e-06
-6.83951e-06
-6.45061e-06
-6.11293e-06
-5.824e-06
-5.58218e-06
-5.38626e-06
-5.23532e-06
-5.12783e-06
-5.05973e-06
-5.01987e-06
-4.98111e-06
-4.88671e-06
-4.63317e-06
-4.07024e-06
-3.06707e-06
-1.64316e-06
-2.15715e-07
4.38696e-07
9.1965e-08
-1.07804e-05
-1.1073e-05
-1.13663e-05
-1.16465e-05
-1.1994e-05
-1.2442e-05
-1.30022e-05
-1.36774e-05
-1.44646e-05
-1.53632e-05
-1.63734e-05
-1.74959e-05
-1.87326e-05
-2.00881e-05
-2.15678e-05
-2.31782e-05
-2.49271e-05
-2.68232e-05
-2.88763e-05
-3.10967e-05
-3.34958e-05
-3.60853e-05
-3.88778e-05
-4.18864e-05
-4.51246e-05
-4.8606e-05
-5.23441e-05
-5.63521e-05
-6.06432e-05
-6.52274e-05
-7.00918e-05
-7.51163e-05
-8.00341e-05
-8.46601e-05
-8.89011e-05
-9.2632e-05
-9.55959e-05
-9.74945e-05
-9.80958e-05
-9.76488e-05
-9.63721e-05
-9.4196e-05
-9.11118e-05
-8.73052e-05
-8.28762e-05
-7.78778e-05
-7.23784e-05
-6.64465e-05
-6.01467e-05
-5.35557e-05
-4.67682e-05
-3.99023e-05
-3.30735e-05
-2.63858e-05
-1.99569e-05
-1.38418e-05
-8.08054e-06
-2.63289e-06
2.55081e-06
7.56044e-06
1.24069e-05
1.71894e-05
2.16972e-05
2.59886e-05
2.97967e-05
3.3112e-05
3.59545e-05
3.83918e-05
4.06069e-05
4.29183e-05
4.53874e-05
4.80242e-05
5.0662e-05
5.31841e-05
5.5393e-05
5.71991e-05
5.84045e-05
5.8756e-05
5.82548e-05
5.67537e-05
5.42176e-05
5.05791e-05
4.577e-05
3.97949e-05
3.26482e-05
2.44001e-05
1.52056e-05
5.38425e-06
-4.67949e-06
-1.4528e-05
-2.37798e-05
-3.21776e-05
-3.95425e-05
-4.58419e-05
-5.10411e-05
-5.52096e-05
-5.83541e-05
-6.05119e-05
-6.17488e-05
-6.20835e-05
-6.15497e-05
-6.01874e-05
-5.80376e-05
-5.51521e-05
-5.15869e-05
-4.741e-05
-4.26998e-05
-3.75568e-05
-3.21065e-05
-2.64666e-05
-2.07642e-05
-1.51189e-05
-9.65817e-06
-4.40881e-06
5.64515e-07
5.31334e-06
9.87805e-06
1.4329e-05
1.86632e-05
2.29349e-05
2.69587e-05
3.07027e-05
3.39285e-05
3.67555e-05
3.90596e-05
4.11195e-05
4.31476e-05
4.53723e-05
4.78841e-05
5.0585e-05
5.33306e-05
5.59401e-05
5.82199e-05
6.00028e-05
6.10916e-05
6.13473e-05
6.07432e-05
5.91523e-05
5.65325e-05
5.28407e-05
4.80729e-05
4.22199e-05
3.53086e-05
2.74297e-05
1.87293e-05
9.49872e-06
1.00059e-07
-9.00718e-06
-1.74039e-05
-2.48033e-05
-3.10364e-05
-3.60317e-05
-3.9817e-05
-4.24162e-05
-4.38519e-05
-4.42409e-05
-4.36474e-05
-4.21789e-05
-3.99937e-05
-3.73058e-05
-3.44564e-05
-3.15948e-05
-2.87527e-05
-2.59996e-05
-2.38855e-05
-2.19145e-05
-2.00586e-05
-1.8401e-05
-1.68977e-05
-1.55656e-05
-1.43894e-05
-1.33213e-05
-1.23062e-05
-1.13693e-05
-1.05141e-05
-9.73613e-06
-9.03039e-06
-8.392e-06
-7.81636e-06
-7.29926e-06
-6.8369e-06
-6.42589e-06
-6.06321e-06
-5.7457e-06
-5.4716e-06
-5.23877e-06
-5.04552e-06
-4.88988e-06
-4.76882e-06
-4.67643e-06
-4.60005e-06
-4.51352e-06
-4.36905e-06
-4.08745e-06
-3.56777e-06
-2.77069e-06
-1.77696e-06
-9.27867e-07
-8.02119e-07
-1.47244e-06
-1.00752e-05
-1.0352e-05
-1.06503e-05
-1.09483e-05
-1.13003e-05
-1.17348e-05
-1.2265e-05
-1.28962e-05
-1.36301e-05
-1.44693e-05
-1.54117e-05
-1.64576e-05
-1.76118e-05
-1.88778e-05
-2.02602e-05
-2.17649e-05
-2.33986e-05
-2.5169e-05
-2.70845e-05
-2.91544e-05
-3.13882e-05
-3.37962e-05
-3.63892e-05
-3.91779e-05
-4.21735e-05
-4.53868e-05
-4.88284e-05
-5.25085e-05
-5.64368e-05
-6.06209e-05
-6.50463e-05
-6.95888e-05
-7.40066e-05
-7.81384e-05
-8.19137e-05
-8.5215e-05
-8.77886e-05
-8.93664e-05
-8.97548e-05
-8.91735e-05
-8.78105e-05
-8.55946e-05
-8.25234e-05
-7.87968e-05
-7.45211e-05
-6.97517e-05
-6.4558e-05
-5.9011e-05
-5.31789e-05
-4.71408e-05
-4.09906e-05
-3.48386e-05
-2.8789e-05
-2.29289e-05
-1.73532e-05
-1.20969e-05
-7.1823e-06
-2.56398e-06
1.81095e-06
6.03105e-06
1.01221e-05
1.41712e-05
1.80441e-05
2.17726e-05
2.51617e-05
2.81548e-05
3.07303e-05
3.28815e-05
3.47361e-05
3.65409e-05
3.84504e-05
4.05622e-05
4.27918e-05
4.5151e-05
4.73802e-05
4.92856e-05
5.06222e-05
5.13506e-05
5.13479e-05
5.03569e-05
4.8367e-05
4.53127e-05
4.11237e-05
3.57923e-05
2.93319e-05
2.18004e-05
1.33679e-05
4.34766e-06
-4.89033e-06
-1.38889e-05
-2.22921e-05
-2.98668e-05
-3.64566e-05
-4.20431e-05
-4.66022e-05
-5.01908e-05
-5.28321e-05
-5.45498e-05
-5.54073e-05
-5.54291e-05
-5.46558e-05
-5.31336e-05
-5.09095e-05
-4.80421e-05
-4.45952e-05
-4.06447e-05
-3.6275e-05
-3.15882e-05
-2.6705e-05
-2.17318e-05
-1.67797e-05
-1.19428e-05
-7.31649e-06
-2.91008e-06
1.23954e-06
5.18928e-06
8.98401e-06
1.26944e-05
1.63266e-05
1.99298e-05
2.33674e-05
2.66063e-05
2.94389e-05
3.19288e-05
3.39337e-05
3.56361e-05
3.72202e-05
3.88978e-05
4.08497e-05
4.30701e-05
4.54289e-05
4.78899e-05
5.02063e-05
5.20471e-05
5.32584e-05
5.38138e-05
5.35658e-05
5.23427e-05
5.01153e-05
4.68597e-05
4.2567e-05
3.72212e-05
3.08868e-05
2.36453e-05
1.56663e-05
7.25251e-06
-1.25017e-06
-9.39028e-06
-1.67874e-05
-2.32002e-05
-2.85023e-05
-3.26493e-05
-3.56818e-05
-3.76328e-05
-3.85605e-05
-3.85731e-05
-3.77546e-05
-3.62326e-05
-3.41698e-05
-3.17627e-05
-2.93184e-05
-2.69366e-05
-2.46015e-05
-2.23737e-05
-2.06522e-05
-1.90604e-05
-1.75751e-05
-1.62447e-05
-1.50266e-05
-1.39401e-05
-1.29704e-05
-1.20719e-05
-1.1207e-05
-1.0397e-05
-9.64782e-06
-8.95913e-06
-8.32913e-06
-7.75526e-06
-7.23463e-06
-6.76432e-06
-6.34145e-06
-5.96326e-06
-5.62673e-06
-5.32996e-06
-5.0702e-06
-4.84521e-06
-4.65249e-06
-4.48888e-06
-4.34978e-06
-4.22761e-06
-4.10893e-06
-3.97076e-06
-3.77889e-06
-3.48461e-06
-3.03643e-06
-2.43477e-06
-1.80237e-06
-1.40266e-06
-1.59712e-06
-2.32872e-06
-9.39749e-06
-9.64024e-06
-9.91916e-06
-1.02112e-05
-1.05516e-05
-1.09625e-05
-1.14565e-05
-1.20406e-05
-1.27183e-05
-1.3492e-05
-1.43619e-05
-1.53292e-05
-1.63969e-05
-1.75684e-05
-1.88481e-05
-2.02409e-05
-2.17528e-05
-2.33905e-05
-2.51613e-05
-2.70731e-05
-2.91342e-05
-3.13535e-05
-3.37398e-05
-3.63024e-05
-3.90501e-05
-4.19917e-05
-4.51355e-05
-4.84893e-05
-5.20602e-05
-5.58535e-05
-5.98538e-05
-6.39385e-05
-6.78881e-05
-7.15636e-05
-7.49153e-05
-7.78312e-05
-8.00594e-05
-8.13595e-05
-8.15713e-05
-8.08876e-05
-7.94709e-05
-7.72501e-05
-7.42297e-05
-7.06225e-05
-6.65401e-05
-6.20385e-05
-5.71864e-05
-5.20547e-05
-4.67115e-05
-4.12347e-05
-3.57129e-05
-3.02462e-05
-2.49259e-05
-1.98224e-05
-1.50112e-05
-1.05121e-05
-6.33476e-06
-2.43163e-06
1.24986e-06
4.79326e-06
8.23319e-06
1.16425e-05
1.49414e-05
1.81431e-05
2.11106e-05
2.37702e-05
2.60789e-05
2.79915e-05
2.95611e-05
3.09689e-05
3.23664e-05
3.39253e-05
3.56795e-05
3.76097e-05
3.95488e-05
4.13906e-05
4.29391e-05
4.3978e-05
4.42704e-05
4.37319e-05
4.23007e-05
3.98507e-05
3.63033e-05
3.16441e-05
2.59048e-05
1.91342e-05
1.15147e-05
3.3519e-06
-5.00714e-06
-1.31175e-05
-2.06581e-05
-2.74201e-05
-3.32665e-05
-3.8184e-05
-4.21503e-05
-4.52104e-05
-4.73961e-05
-4.87222e-05
-4.92529e-05
-4.90192e-05
-4.8068e-05
-4.64502e-05
-4.42182e-05
-4.14355e-05
-3.8171e-05
-3.45041e-05
-3.052e-05
-2.6317e-05
-2.20052e-05
-1.76767e-05
-1.34241e-05
-9.31846e-06
-5.42898e-06
-1.75229e-06
1.69375e-06
4.96706e-06
8.11265e-06
1.11978e-05
1.42337e-05
1.72618e-05
2.01826e-05
2.29616e-05
2.54265e-05
2.75995e-05
2.93404e-05
3.07542e-05
3.19692e-05
3.31694e-05
3.4561e-05
3.62319e-05
3.8164e-05
4.02782e-05
4.23412e-05
4.4166e-05
4.55559e-05
4.6353e-05
4.63615e-05
4.54915e-05
4.36761e-05
4.08787e-05
3.70878e-05
3.22836e-05
2.65661e-05
2.00129e-05
1.28114e-05
5.27042e-06
-2.28846e-06
-9.43934e-06
-1.58542e-05
-2.13348e-05
-2.57894e-05
-2.91883e-05
-3.15785e-05
-3.30101e-05
-3.35474e-05
-3.3302e-05
-3.23722e-05
-3.08912e-05
-2.90124e-05
-2.69072e-05
-2.4845e-05
-2.28861e-05
-2.09836e-05
-1.91905e-05
-1.77983e-05
-1.65213e-05
-1.53374e-05
-1.4272e-05
-1.32857e-05
-1.23989e-05
-1.15992e-05
-1.08451e-05
-1.01105e-05
-9.4135e-06
-8.76127e-06
-8.15603e-06
-7.59804e-06
-7.08637e-06
-6.61939e-06
-6.19513e-06
-5.81139e-06
-5.46574e-06
-5.15597e-06
-4.8797e-06
-4.63445e-06
-4.41752e-06
-4.22578e-06
-4.05526e-06
-3.90052e-06
-3.75358e-06
-3.60238e-06
-3.43036e-06
-3.22131e-06
-2.94673e-06
-2.57629e-06
-2.16705e-06
-1.83344e-06
-1.72706e-06
-2.0509e-06
-2.70247e-06
-8.70852e-06
-8.9119e-06
-9.16035e-06
-9.43255e-06
-9.75075e-06
-1.0131e-05
-1.05843e-05
-1.11181e-05
-1.17367e-05
-1.24426e-05
-1.3237e-05
-1.41215e-05
-1.50984e-05
-1.61708e-05
-1.73425e-05
-1.86177e-05
-2.00018e-05
-2.15004e-05
-2.31198e-05
-2.48669e-05
-2.67487e-05
-2.87728e-05
-3.09467e-05
-3.32779e-05
-3.57739e-05
-3.84416e-05
-4.12876e-05
-4.43178e-05
-4.75376e-05
-5.09505e-05
-5.45406e-05
-5.81906e-05
-6.17028e-05
-6.4958e-05
-6.79264e-05
-7.04978e-05
-7.24212e-05
-7.3482e-05
-7.35501e-05
-7.27936e-05
-7.13538e-05
-6.91609e-05
-6.62266e-05
-6.27748e-05
-5.89212e-05
-5.47206e-05
-5.0239e-05
-4.55445e-05
-4.07026e-05
-3.57867e-05
-3.08777e-05
-2.60639e-05
-2.14236e-05
-1.70118e-05
-1.28882e-05
-9.06037e-06
-5.52973e-06
-2.24821e-06
8.34146e-07
3.79439e-06
6.67129e-06
9.52559e-06
1.23136e-05
1.50398e-05
1.76081e-05
1.9945e-05
2.19974e-05
2.3703e-05
2.50612e-05
2.6186e-05
2.71807e-05
2.82291e-05
2.94347e-05
3.08405e-05
3.23945e-05
3.40044e-05
3.54742e-05
3.65735e-05
3.7148e-05
3.70586e-05
3.61242e-05
3.42311e-05
3.1335e-05
2.73772e-05
2.23957e-05
1.64314e-05
9.67258e-06
2.41324e-06
-5.03005e-06
-1.22347e-05
-1.89183e-05
-2.48913e-05
-3.00307e-05
-3.43195e-05
-3.77337e-05
-4.03134e-05
-4.20844e-05
-4.30637e-05
-4.33184e-05
-4.28843e-05
-4.18131e-05
-4.01595e-05
-3.79793e-05
-3.53388e-05
-3.23085e-05
-2.89675e-05
-2.53974e-05
-2.16876e-05
-1.79357e-05
-1.42172e-05
-1.06073e-05
-7.15719e-06
-3.91553e-06
-8.70228e-07
1.9734e-06
4.67167e-06
7.26713e-06
9.82193e-06
1.23498e-05
1.48848e-05
1.73549e-05
1.97259e-05
2.18586e-05
2.37472e-05
2.52637e-05
2.64539e-05
2.73944e-05
2.82222e-05
2.91272e-05
3.0243e-05
3.16365e-05
3.3272e-05
3.50142e-05
3.66984e-05
3.80681e-05
3.89726e-05
3.92181e-05
3.86892e-05
3.72858e-05
3.49466e-05
3.16826e-05
2.74589e-05
2.23998e-05
1.65834e-05
1.0205e-05
3.57119e-06
-3.02899e-06
-9.20696e-06
-1.46894e-05
-1.9313e-05
-2.30093e-05
-2.57568e-05
-2.76096e-05
-2.86236e-05
-2.88684e-05
-2.84599e-05
-2.75014e-05
-2.61205e-05
-2.44533e-05
-2.26451e-05
-2.09299e-05
-1.9338e-05
-1.78033e-05
-1.63713e-05
-1.52566e-05
-1.42414e-05
-1.33044e-05
-1.24561e-05
-1.16602e-05
-1.09378e-05
-1.02795e-05
-9.64918e-06
-9.02812e-06
-8.43188e-06
-7.86813e-06
-7.34048e-06
-6.85049e-06
-6.39831e-06
-5.98321e-06
-5.6039e-06
-5.25867e-06
-4.94559e-06
-4.66264e-06
-4.40759e-06
-4.17793e-06
-3.97081e-06
-3.78286e-06
-3.60993e-06
-3.44671e-06
-3.28626e-06
-3.11963e-06
-2.93655e-06
-2.72924e-06
-2.49225e-06
-2.23303e-06
-1.99689e-06
-1.85675e-06
-1.90371e-06
-2.24149e-06
-2.76583e-06
-7.98744e-06
-8.15152e-06
-8.36513e-06
-8.60983e-06
-8.89891e-06
-9.24353e-06
-9.65289e-06
-1.0134e-05
-1.06913e-05
-1.13273e-05
-1.20437e-05
-1.2842e-05
-1.37244e-05
-1.46934e-05
-1.57524e-05
-1.6905e-05
-1.81558e-05
-1.95096e-05
-2.09718e-05
-2.25484e-05
-2.42453e-05
-2.60688e-05
-2.80254e-05
-3.01215e-05
-3.23629e-05
-3.47556e-05
-3.73047e-05
-4.00149e-05
-4.28901e-05
-4.59332e-05
-4.91284e-05
-5.23657e-05
-5.54693e-05
-5.83379e-05
-6.09601e-05
-6.32241e-05
-6.48795e-05
-6.5735e-05
-6.56889e-05
-6.48862e-05
-6.34518e-05
-6.13173e-05
-5.85014e-05
-5.52378e-05
-5.16446e-05
-4.77734e-05
-4.36856e-05
-3.94442e-05
-3.51095e-05
-3.07486e-05
-2.64329e-05
-2.22389e-05
-1.8232e-05
-1.44539e-05
-1.09512e-05
-7.72186e-06
-4.76222e-06
-2.02495e-06
5.35945e-07
2.99042e-06
5.37773e-06
7.74961e-06
1.00855e-05
1.23845e-05
1.45836e-05
1.66163e-05
1.84286e-05
1.99541e-05
2.11582e-05
2.20999e-05
2.28345e-05
2.35056e-05
2.42323e-05
2.51077e-05
2.61632e-05
2.73554e-05
2.85674e-05
2.95959e-05
3.02896e-05
3.04709e-05
2.99388e-05
2.85777e-05
2.63131e-05
2.30626e-05
1.88606e-05
1.37372e-05
7.87403e-06
1.54676e-06
-4.96394e-06
-1.12655e-05
-1.71119e-05
-2.23265e-05
-2.67946e-05
-3.04914e-05
-3.33908e-05
-3.55262e-05
-3.69218e-05
-3.75989e-05
-3.76269e-05
-3.70449e-05
-3.59079e-05
-3.42728e-05
-3.21969e-05
-2.97467e-05
-2.6991e-05
-2.40046e-05
-2.08623e-05
-1.76418e-05
-1.44268e-05
-1.1277e-05
-8.25134e-06
-5.38541e-06