/*--------------------------------*- C++ -*----------------------------------*\
| =========                 |                                                 |
| \\      /  F ield         | OpenFOAM: The Open Source CFD Toolbox           |
|  \\    /   O peration     | Version:  2506                                  |
|   \\  /    A nd           | Website:  www.openfoam.com                      |
|    \\/     M anipulation  |                                                 |
\*---------------------------------------------------------------------------*/
FoamFile
{
    version     2.0;
    format      ascii;
    arch        "LSB;label=32;scalar=64";
    class       surfaceScalarField;
    location    "0.4";
    object      phi;
}
// * * * * * * * * * * * * * * * * * * * * * * * * * * * * * * * * * * * * * //

dimensions      [0 3 -1 0 0 0 0];

oriented        oriented;

internalField   nonuniform List<scalar> 
7780
(
2.37289e-10
-2.3729e-10
4.44099e-10
-2.0681e-10
5.87042e-10
-1.42943e-10
6.91895e-10
-1.04853e-10
7.69483e-10
-7.75877e-11
8.26593e-10
-5.71108e-11
8.68913e-10
-4.23194e-11
9.00905e-10
-3.1992e-11
9.25782e-10
-2.4877e-11
9.45709e-10
-1.99269e-11
9.62079e-10
-1.63707e-11
9.75854e-10
-1.37749e-11
9.87652e-10
-1.17979e-11
9.97896e-10
-1.02443e-11
1.00688e-09
-8.9846e-12
1.01485e-09
-7.96492e-12
1.02194e-09
-7.09083e-12
1.02827e-09
-6.3382e-12
1.03398e-09
-5.70472e-12
1.03909e-09
-5.11047e-12
1.04369e-09
-4.60034e-12
1.04783e-09
-4.1427e-12
1.05151e-09
-3.68139e-12
1.05488e-09
-3.36346e-12
1.05795e-09
-3.06966e-12
1.06083e-09
-2.88652e-12
1.06347e-09
-2.63457e-12
1.06578e-09
-2.31463e-12
1.06762e-09
-1.8443e-12
1.06883e-09
-1.20302e-12
1.06845e-09
-1.58066e-11
1.06201e-09
-1.0775e-10
1.04493e-09
-2.20726e-10
1.0156e-09
-3.1977e-10
9.74161e-10
-4.02252e-10
9.27379e-10
-4.76881e-10
8.80984e-10
-5.48417e-10
8.30156e-10
-6.48436e-10
7.78039e-10
-7.13134e-10
7.33994e-10
-7.37182e-10
6.9749e-10
-7.55712e-10
6.68673e-10
-7.70493e-10
6.45007e-10
-7.79865e-10
6.25091e-10
-7.85146e-10
6.08417e-10
-7.87294e-10
5.94481e-10
-7.86265e-10
5.83147e-10
-7.81123e-10
5.7353e-10
-7.72322e-10
5.64658e-10
-7.58798e-10
5.5549e-10
-7.39815e-10
5.45509e-10
-7.13523e-10
5.35648e-10
-6.77082e-10
5.2542e-10
-6.34902e-10
5.18552e-10
-5.7712e-10
5.18967e-10
-5.07338e-10
5.33456e-10
-4.15377e-10
5.65368e-10
-3.07485e-10
6.167e-10
-1.67258e-10
6.80944e-10
-8.31481e-12
7.43166e-10
1.5263e-10
7.94563e-10
3.00713e-10
8.2787e-10
4.416e-10
8.49632e-10
5.32236e-10
8.58373e-10
6.17732e-10
8.6371e-10
6.66761e-10
8.65387e-10
7.08769e-10
8.66573e-10
7.39326e-10
8.69979e-10
7.57696e-10
8.75532e-10
7.7142e-10
8.83121e-10
7.81275e-10
8.92839e-10
7.88032e-10
9.04419e-10
7.9127e-10
9.1741e-10
7.91957e-10
9.31409e-10
7.90422e-10
9.46108e-10
7.8654e-10
9.61371e-10
7.80007e-10
9.77062e-10
7.70469e-10
9.93335e-10
7.55198e-10
1.00988e-09
7.37126e-10
1.02662e-09
7.13969e-10
1.04377e-09
6.83681e-10
1.06139e-09
6.37264e-10
1.07876e-09
5.86934e-10
1.09626e-09
5.10254e-10
1.11305e-09
4.21409e-10
1.12983e-09
2.89142e-10
1.14601e-09
1.44179e-10
1.16197e-09
-1.89493e-11
1.17887e-09
-1.90061e-10
1.19574e-09
-3.40686e-10
1.20978e-09
-4.52912e-10
1.22049e-09
-5.49021e-10
1.22237e-09
-6.06655e-10
1.21605e-09
-6.56997e-10
1.19813e-09
-6.83068e-10
1.16934e-09
-7.02339e-10
1.13289e-09
-7.20535e-10
1.09097e-09
-7.31764e-10
1.04681e-09
-7.42145e-10
1.00271e-09
-7.51327e-10
9.60325e-10
-7.59077e-10
9.20523e-10
-7.64895e-10
8.83307e-10
-7.67685e-10
8.48229e-10
-7.67224e-10
8.14785e-10
-7.63495e-10
7.82517e-10
-7.56308e-10
7.51101e-10
-7.45422e-10
7.2007e-10
-7.28893e-10
6.89655e-10
-7.06026e-10
6.59466e-10
-6.78193e-10
6.29614e-10
-6.42747e-10
6.03462e-10
-5.89672e-10
5.81896e-10
-5.33343e-10
5.72892e-10
-4.49744e-10
5.80407e-10
-3.56995e-10
6.09794e-10
-2.34336e-10
6.59413e-10
-8.59095e-11
7.17266e-10
7.06819e-11
7.69986e-10
2.26001e-10
8.05901e-10
3.79361e-10
8.27508e-10
4.90153e-10
8.33587e-10
5.84529e-10
8.31951e-10
6.47381e-10
8.2444e-10
7.01167e-10
8.17626e-10
7.31491e-10
8.12877e-10
7.53844e-10
8.1047e-10
7.71628e-10
8.11731e-10
7.82475e-10
8.16646e-10
7.88613e-10
8.24676e-10
7.92151e-10
8.35221e-10
7.93442e-10
8.47867e-10
7.92469e-10
8.62199e-10
7.89199e-10
8.78003e-10
7.82794e-10
8.95282e-10
7.73603e-10
9.1378e-10
7.61358e-10
9.3368e-10
7.45111e-10
9.55014e-10
7.24336e-10
9.78162e-10
6.92293e-10
1.0028e-09
6.565e-10
1.02865e-09
6.11457e-10
1.05649e-09
5.40588e-10
1.08458e-09
4.65014e-10
1.11347e-09
3.49045e-10
1.1423e-09
2.15586e-10
1.16998e-09
6.12716e-11
1.19791e-09
-1.10402e-10
1.22508e-09
-2.74022e-10
1.24905e-09
-4.0187e-10
1.26807e-09
-5.06614e-10
1.27987e-09
-5.83135e-10
1.28127e-09
-6.35271e-10
1.27017e-09
-6.67611e-10
1.24921e-09
-6.97598e-10
1.21748e-09
-7.12305e-10
1.17858e-09
-7.25061e-10
1.13563e-09
-7.36298e-10
1.09149e-09
-7.47248e-10
1.04769e-09
-7.55173e-10
1.00165e-09
-7.57347e-10
9.53033e-10
-7.5647e-10
9.03942e-10
-7.55076e-10
8.54337e-10
-7.50934e-10
8.06623e-10
-5.99266e-10
7.69627e-10
-5.30268e-10
7.40049e-10
-4.70852e-10
7.20284e-10
-3.92204e-10
7.15317e-10
-3.0822e-10
7.26437e-10
-2.08925e-10
7.50954e-10
-1.01611e-10
7.7934e-10
-3.16144e-11
8.0377e-10
-2.44319e-11
8.24482e-10
-2.0714e-11
8.41908e-10
-1.7427e-11
8.56435e-10
-1.45274e-11
8.68598e-10
-1.21633e-11
8.78877e-10
-1.02789e-11
8.87678e-10
-8.80182e-12
8.9534e-10
-7.66166e-12
9.0213e-10
-6.79049e-12
9.08272e-10
-6.14168e-12
9.13928e-10
-5.65538e-12
9.19208e-10
-5.28082e-12
9.24187e-10
-4.97873e-12
9.28905e-10
-4.718e-12
9.33363e-10
-4.45792e-12
9.37514e-10
-4.15102e-12
9.41233e-10
-3.71847e-12
9.44264e-10
-3.03079e-12
9.46113e-10
-1.84926e-12
9.45853e-10
2.60297e-13
9.41983e-10
3.86961e-12
9.32049e-10
9.9344e-12
9.12146e-10
1.99033e-11
8.76003e-10
3.61436e-11
8.14318e-10
6.16845e-11
7.13064e-10
1.01254e-10
5.49677e-10
1.63387e-10
2.93247e-10
2.5643e-10
2.93247e-10
1.19843e-11
-2.49274e-10
1.38044e-10
-3.32869e-10
2.98481e-10
-3.0338e-10
4.4868e-10
-2.55053e-10
5.77778e-10
-2.06685e-10
6.84651e-10
-1.63984e-10
7.71352e-10
-1.2902e-10
8.4094e-10
-1.01581e-10
8.96616e-10
-8.05523e-11
9.4139e-10
-6.47013e-11
9.77755e-10
-5.2736e-11
1.00743e-09
-4.34519e-11
1.03174e-09
-3.61011e-11
1.05166e-09
-3.01679e-11
1.06795e-09
-2.52759e-11
1.08119e-09
-2.12002e-11
1.09181e-09
-1.77171e-11
1.10018e-09
-1.47109e-11
1.10654e-09
-1.20588e-11
1.11115e-09
-9.72025e-12
1.11419e-09
-7.645e-12
1.11585e-09
-5.79937e-12
1.11636e-09
-4.19642e-12
1.11582e-09
-2.81853e-12
1.1144e-09
-1.65506e-12
1.11219e-09
-6.73425e-13
1.10934e-09
2.20073e-13
1.10589e-09
1.13242e-12
1.10181e-09
2.23156e-12
1.09697e-09
3.64014e-12
1.08905e-09
-7.89108e-12
1.06692e-09
-8.56186e-11
1.0268e-09
-1.806e-10
9.71218e-10
-2.64188e-10
9.05357e-10
-3.36389e-10
8.39517e-10
-4.11039e-10
7.79548e-10
-4.88447e-10
7.19124e-10
-5.8801e-10
6.61726e-10
-6.55735e-10
6.1517e-10
-6.90625e-10
5.78147e-10
-7.18687e-10
5.49816e-10
-7.42161e-10
5.2825e-10
-7.58298e-10
5.12479e-10
-7.69375e-10
5.01929e-10
-7.76743e-10
4.95768e-10
-7.80103e-10
4.93114e-10
-7.78469e-10
4.92337e-10
-7.71545e-10
4.91814e-10
-7.58275e-10
4.90224e-10
-7.38226e-10
4.87209e-10
-7.1051e-10
4.84022e-10
-6.73896e-10
4.81843e-10
-6.32724e-10
4.85614e-10
-5.80892e-10
5.01202e-10
-5.22928e-10
5.36848e-10
-4.51023e-10
5.98843e-10
-3.6948e-10
6.91237e-10
-2.59651e-10
8.07242e-10
-1.24318e-10
9.31582e-10
2.82927e-11
1.04555e-09
1.86749e-10
1.13125e-09
3.55907e-10
1.18662e-09
4.76871e-10
1.20833e-09
5.96018e-10
1.20831e-09
6.66785e-10
1.19068e-09
7.26389e-10
1.16332e-09
7.66668e-10
1.13472e-09
7.86284e-10
1.10919e-09
7.96942e-10
1.08877e-09
8.01701e-10
1.07465e-09
8.02162e-10
1.06695e-09
7.98972e-10
1.06516e-09
7.93748e-10
1.06834e-09
7.87237e-10
1.07544e-09
7.79439e-10
1.08562e-09
7.69824e-10
1.09825e-09
7.57843e-10
1.11336e-09
7.40079e-10
1.13029e-09
7.20201e-10
1.14867e-09
6.95585e-10
1.16896e-09
6.63395e-10
1.19188e-09
6.14346e-10
1.21662e-09
5.62194e-10
1.24455e-09
4.8233e-10
1.27506e-09
3.90902e-10
1.31008e-09
2.54119e-10
1.3484e-09
1.05859e-10
1.38818e-09
-5.87344e-11
1.4291e-09
-2.30975e-10
1.46594e-09
-3.77529e-10
1.49301e-09
-4.79982e-10
1.50632e-09
-5.62327e-10
1.50021e-09
-6.00547e-10
1.47491e-09
-6.31698e-10
1.43102e-09
-6.39183e-10
1.37288e-09
-6.4419e-10
1.30731e-09
-6.54966e-10
1.2377e-09
-6.6215e-10
1.16775e-09
-6.72183e-10
1.10097e-09
-6.84539e-10
1.03895e-09
-6.9706e-10
9.81914e-10
-7.07856e-10
9.29206e-10
-7.14972e-10
8.80199e-10
-7.18214e-10
8.34237e-10
-7.17533e-10
7.90941e-10
-7.13013e-10
7.50041e-10
-7.04525e-10
7.11311e-10
-6.90166e-10
6.75189e-10
-6.69908e-10
6.41823e-10
-6.44833e-10
6.12445e-10
-6.13375e-10
5.91254e-10
-5.68486e-10
5.81371e-10
-5.23462e-10
5.9126e-10
-4.59632e-10
6.26685e-10
-3.92418e-10
6.93655e-10
-3.01306e-10
7.91169e-10
-1.83423e-10
9.07211e-10
-4.53591e-11
1.02554e-09
1.07677e-10
1.12324e-09
2.81664e-10
1.19027e-09
4.23121e-10
1.22309e-09
5.51709e-10
1.22564e-09
6.44834e-10
1.20332e-09
7.23481e-10
1.16839e-09
7.66417e-10
1.12947e-09
7.9275e-10
1.09131e-09
8.09795e-10
1.05929e-09
8.14501e-10
1.03572e-09
8.12186e-10
1.02085e-09
8.07028e-10
1.01379e-09
8.00506e-10
1.01346e-09
7.92792e-10
1.01868e-09
7.83981e-10
1.02855e-09
7.72922e-10
1.04249e-09
7.59666e-10
1.05956e-09
7.44287e-10
1.07962e-09
7.25045e-10
1.10259e-09
7.0137e-10
1.12921e-09
6.65674e-10
1.15891e-09
6.26795e-10
1.19144e-09
5.78927e-10
1.22879e-09
5.03237e-10
1.26907e-09
4.2474e-10
1.31398e-09
3.04133e-10
1.36245e-09
1.67111e-10
1.41279e-09
1.09334e-11
1.46301e-09
-1.60622e-10
1.50917e-09
-3.20181e-10
1.54514e-09
-4.37837e-10
1.5658e-09
-5.27279e-10
1.56735e-09
-5.84692e-10
1.54708e-09
-6.15008e-10
1.50749e-09
-6.2803e-10
1.45364e-09
-6.43741e-10
1.39014e-09
-6.48784e-10
1.32251e-09
-6.5739e-10
1.25415e-09
-6.67894e-10
1.18849e-09
-6.81559e-10
1.12708e-09
-6.9373e-10
1.06617e-09
-6.96416e-10
1.00508e-09
-6.95387e-10
9.46044e-10
-6.96081e-10
8.85731e-10
-6.90702e-10
8.33463e-10
-5.47057e-10
7.89251e-10
-4.86068e-10
7.54437e-10
-4.36032e-10
7.3431e-10
-3.72067e-10
7.34093e-10
-3.07991e-10
7.5546e-10
-2.30284e-10
7.95669e-10
-1.41815e-10
8.43552e-10
-7.94966e-11
8.88109e-10
-6.89888e-11
9.27617e-10
-6.02217e-11
9.61823e-10
-5.16342e-11
9.90986e-10
-4.36909e-11
1.01553e-09
-3.67047e-11
1.03603e-09
-3.07779e-11
1.05315e-09
-2.59299e-11
1.06758e-09
-2.20853e-11
1.07988e-09
-1.90957e-11
1.09049e-09
-1.67481e-11
1.09971e-09
-1.48734e-11
1.10777e-09
-1.33433e-11
1.11484e-09
-1.20519e-11
1.12103e-09
-1.09032e-11
1.12636e-09
-9.7869e-12
1.13077e-09
-8.56533e-12
1.13407e-09
-7.01428e-12
1.13579e-09
-4.75452e-12
1.13506e-09
-1.12208e-12
1.1303e-09
5.0225e-12
1.11859e-09
1.55808e-11
1.09471e-09
3.38118e-11
1.05036e-09
6.42592e-11
9.73455e-10
1.13045e-10
8.47515e-10
1.87625e-10
6.54622e-10
2.94147e-10
3.8966e-10
4.28349e-10
1.07611e-10
5.3848e-10
4.00858e-10
-3.42665e-11
-2.15007e-10
1.55597e-12
-3.68692e-10
9.10429e-11
-3.92867e-10
2.00146e-10
-3.64156e-10
3.09196e-10
-3.15735e-10
4.09513e-10
-2.64301e-10
4.9773e-10
-2.17237e-10
5.7332e-10
-1.7717e-10
6.37124e-10
-1.44356e-10
6.90442e-10
-1.1802e-10
7.3469e-10
-9.69833e-11
7.71276e-10
-8.00381e-11
8.0141e-10
-6.62354e-11
8.26096e-10
-5.48542e-11
8.46165e-10
-4.53443e-11
8.62277e-10
-3.73128e-11
8.75003e-10
-3.04426e-11
8.84805e-10
-2.45132e-11
8.92102e-10
-1.93557e-11
8.97241e-10
-1.48597e-11
9.00543e-10
-1.09465e-11
9.02314e-10
-7.57043e-12
9.02832e-10
-4.71449e-12
9.02375e-10
-2.36179e-12
9.01218e-10
-4.98259e-13
8.99654e-10
8.90474e-13
8.98005e-10
1.86863e-12
8.96599e-10
2.53783e-12
8.95783e-10
3.04767e-12
8.95873e-10
3.5501e-12
8.93697e-10
-5.71467e-12
8.73579e-10
-6.55e-11
8.34385e-10
-1.41405e-10
7.8337e-10
-2.13172e-10
7.28159e-10
-2.81176e-10
6.76422e-10
-3.59301e-10
6.3067e-10
-4.42693e-10
5.82767e-10
-5.40106e-10
5.36906e-10
-6.09873e-10
4.99926e-10
-6.53643e-10
4.7093e-10
-6.89689e-10
4.49556e-10
-7.20784e-10
4.35062e-10
-7.43803e-10
4.26977e-10
-7.61288e-10
4.24535e-10
-7.743e-10
4.26422e-10
-7.81988e-10
4.31048e-10
-7.83094e-10
4.36354e-10
-7.76849e-10
4.40562e-10
-7.6248e-10
4.42542e-10
-7.40203e-10
4.42317e-10
-7.10282e-10
4.41439e-10
-6.73015e-10
4.41849e-10
-6.33131e-10
4.48262e-10
-5.87301e-10
4.65896e-10
-5.40559e-10
5.0177e-10
-4.86896e-10
5.61947e-10
-4.29655e-10
6.53166e-10
-3.50869e-10
7.77131e-10
-2.48281e-10
9.27732e-10
-1.22309e-10
1.09107e-09
2.34054e-11
1.24723e-09
1.99741e-10
1.37927e-09
3.44829e-10
1.47223e-09
5.03046e-10
1.52322e-09
6.15767e-10
1.53761e-09
7.11961e-10
1.52144e-09
7.82821e-10
1.48602e-09
8.21683e-10
1.44107e-09
8.41879e-10
1.39445e-09
8.48307e-10
1.35232e-09
8.44292e-10
1.31788e-09
8.33406e-10
1.29265e-09
8.18974e-10
1.2766e-09
8.0328e-10
1.26869e-09
7.87348e-10
1.26767e-09
7.70841e-10
1.2723e-09
7.53211e-10
1.28215e-09
7.3022e-10
1.29607e-09
7.06284e-10
1.31321e-09
6.78444e-10
1.33382e-09
6.42789e-10
1.35844e-09
5.89725e-10
1.38625e-09
5.34393e-10
1.41839e-09
4.50184e-10
1.45414e-09
3.55151e-10
1.49468e-09
2.13581e-10
1.53798e-09
6.25569e-11
1.58069e-09
-1.01447e-10
1.61994e-09
-2.70219e-10
1.64832e-09
-4.05911e-10
1.66021e-09
-4.91861e-10
1.65104e-09
-5.53152e-10
1.61966e-09
-5.69169e-10
1.5682e-09
-5.80245e-10
1.50004e-09
-5.71027e-10
1.42078e-09
-5.64925e-10
1.33697e-09
-5.7115e-10
1.25265e-09
-5.77828e-10
1.17253e-09
-5.92056e-10
1.09825e-09
-6.10256e-10
1.02995e-09
-6.28753e-10
9.67035e-10
-6.44933e-10
9.08718e-10
-6.56649e-10
8.54492e-10
-6.63981e-10
8.03973e-10
-6.67008e-10
7.57001e-10
-6.66037e-10
7.13474e-10
-6.60994e-10
6.73314e-10
-6.50001e-10
6.37024e-10
-6.33615e-10
6.05023e-10
-6.12829e-10
5.78911e-10
-5.8726e-10
5.62749e-10
-5.52321e-10
5.59325e-10
-5.20034e-10
5.75627e-10
-4.75929e-10
6.15913e-10
-4.32699e-10
6.86139e-10
-3.71529e-10
7.89576e-10
-2.86858e-10
9.22429e-10
-1.7821e-10
1.0751e-09
-4.49932e-11
1.23147e-09
1.25293e-10
1.37052e-09
2.84065e-10
1.47752e-09
4.44707e-10
1.54311e-09
5.79233e-10
1.56312e-09
7.03451e-10
1.54858e-09
7.80945e-10
1.51053e-09
8.30783e-10
1.45744e-09
8.62879e-10
1.40099e-09
8.7094e-10
1.3489e-09
8.64278e-10
1.306e-09
8.49926e-10
1.27404e-09
8.32462e-10
1.25316e-09
8.13661e-10
1.24222e-09
7.94917e-10
1.23992e-09
7.7522e-10
1.24526e-09
7.54326e-10
1.25655e-09
7.32993e-10
1.27315e-09
7.08442e-10
1.29452e-09
6.80002e-10
1.32113e-09
6.39066e-10
1.35239e-09
5.95536e-10
1.38774e-09
5.43576e-10
1.42901e-09
4.61966e-10
1.47425e-09
3.79496e-10
1.52441e-09
2.53979e-10
1.57771e-09
1.13804e-10
1.62996e-09
-4.13089e-11
1.67791e-09
-2.08575e-10
1.71422e-09
-3.5649e-10
1.73229e-09
-4.55901e-10
1.72687e-09
-5.21863e-10
1.69765e-09
-5.55478e-10
1.64687e-09
-5.64237e-10
1.57932e-09
-5.6049e-10
1.50053e-09
-5.64966e-10
1.41737e-09
-5.65621e-10
1.33441e-09
-5.74411e-10
1.25577e-09
-5.89211e-10
1.18319e-09
-6.08933e-10
1.11629e-09
-6.2678e-10
1.05005e-09
-6.30137e-10
9.82617e-10
-6.27929e-10
9.14032e-10
-6.2749e-10
8.40333e-10
-6.17027e-10
7.80438e-10
-4.87208e-10
7.29692e-10
-4.35354e-10
6.89471e-10
-3.95822e-10
6.64436e-10
-3.47026e-10
6.57868e-10
-3.01412e-10
6.71987e-10
-2.44393e-10
7.07162e-10
-1.76984e-10
7.54339e-10
-1.26672e-10
7.99699e-10
-1.14348e-10
8.41222e-10
-1.01744e-10
8.78158e-10
-8.85698e-11
9.10356e-10
-7.5889e-11
9.3799e-10
-6.4339e-11
9.61448e-10
-5.4236e-11
9.81206e-10
-4.56883e-11
9.97737e-10
-3.86162e-11
1.01147e-09
-3.2832e-11
1.02282e-09
-2.80921e-11
1.03211e-09
-2.41643e-11
1.03961e-09
-2.08475e-11
1.04553e-09
-1.79678e-11
1.04999e-09
-1.53598e-11
1.05304e-09
-1.28403e-11
1.05464e-09
-1.01708e-11
1.0546e-09
-6.97172e-12
1.05246e-09
-2.61292e-12
1.04728e-09
4.06135e-12
1.03732e-09
1.49762e-11
1.01938e-09
3.35277e-11
9.87892e-10
6.5296e-11
9.3379e-10
1.1836e-10
8.43941e-10
2.02894e-10
7.03183e-10
3.28384e-10
5.0258e-10
4.9475e-10
2.60516e-10
6.70413e-10
5.42501e-11
7.44746e-10
4.55108e-10
-4.17727e-11
-1.73234e-10
-6.02522e-11
-3.50212e-10
-3.77766e-11
-4.15343e-10
1.29415e-11
-4.14874e-10
7.71082e-11
-3.79902e-10
1.44762e-10
-3.31955e-10
2.10176e-10
-2.82651e-10
2.70403e-10
-2.37397e-10
3.24191e-10
-1.98144e-10
3.71223e-10
-1.65051e-10
4.1172e-10
-1.3748e-10
4.46208e-10
-1.14527e-10
4.75314e-10
-9.53413e-11
4.99665e-10
-7.92051e-11
5.19854e-10
-6.55335e-11
5.36414e-10
-5.38726e-11
5.49836e-10
-4.38642e-11
5.60562e-10
-3.52401e-11
5.69008e-10
-2.78011e-11
5.75552e-10
-2.14036e-11
5.80556e-10
-1.59508e-11
5.84372e-10
-1.13865e-11
5.87341e-10
-7.68372e-12
5.89819e-10
-4.84013e-12
5.92179e-10
-2.8583e-12
5.94825e-10
-1.756e-12
5.98217e-10
-1.5228e-12
6.02879e-10
-2.12459e-12
6.09448e-10
-3.52209e-12
6.18649e-10
-5.65068e-12
6.27915e-10
-1.49812e-11
6.22573e-10
-6.01573e-11
6.02573e-10
-1.21403e-10
5.75157e-10
-1.85755e-10
5.46356e-10
-2.52373e-10
5.1946e-10
-3.32403e-10
4.94532e-10
-4.17763e-10
4.64137e-10
-5.0971e-10
4.33043e-10
-5.78779e-10
4.07769e-10
-6.2837e-10
3.8856e-10
-6.7048e-10
3.75804e-10
-7.08027e-10
3.69578e-10
-7.37577e-10
3.69471e-10
-7.6118e-10
3.74289e-10
-7.79118e-10
3.82191e-10
-7.89889e-10
3.91104e-10
-7.92006e-10
3.98859e-10
-7.84602e-10
4.03852e-10
-7.67472e-10
4.05333e-10
-7.41681e-10
4.03687e-10
-7.08635e-10
4.00611e-10
-6.69936e-10
3.98076e-10
-6.30594e-10
3.99905e-10
-5.89127e-10
4.09918e-10
-5.50569e-10
4.3337e-10
-5.10346e-10
4.75127e-10
-4.7141e-10
5.42952e-10
-4.18693e-10
6.43596e-10
-3.48925e-10
7.79613e-10
-2.58327e-10
9.4853e-10
-1.45515e-10
1.13939e-09
8.87358e-12
1.32954e-09
1.54685e-10
1.50383e-09
3.2875e-10
1.64306e-09
4.76505e-10
1.73903e-09
6.15973e-10
1.78795e-09
7.33882e-10
1.79438e-09
8.1526e-10
1.76941e-09
8.66842e-10
1.7243e-09
8.93417e-10
1.67063e-09
8.97961e-10
1.6166e-09
8.87436e-10
1.56845e-09
8.67111e-10
1.52975e-09
8.41982e-10
1.50154e-09
8.15557e-10
1.48352e-09
7.88857e-10
1.47458e-09
7.62155e-10
1.474e-09
7.30794e-10
1.48023e-09
7.00055e-10
1.4919e-09
6.6678e-10
1.50884e-09
6.25842e-10
1.5309e-09
5.67666e-10
1.55714e-09
5.08154e-10
1.58799e-09
4.19331e-10
1.62229e-09
3.2085e-10
1.6596e-09
1.7627e-10
1.69686e-09
2.52966e-11
1.72886e-09
-1.33451e-10
1.75098e-09
-2.92328e-10
1.75518e-09
-4.1011e-10
1.73814e-09
-4.74818e-10
1.6979e-09
-5.1291e-10
1.63668e-09
-5.07941e-10
1.55788e-09
-5.01453e-10
1.46854e-09
-4.81688e-10
1.37543e-09
-4.71817e-10
1.28352e-09
-4.79241e-10
1.19638e-09
-4.90685e-10
1.11628e-09
-5.11958e-10
1.04295e-09
-5.36915e-10
9.7534e-10
-5.61145e-10
9.12537e-10
-5.82128e-10
8.53979e-10
-5.98089e-10
7.995e-10
-6.09499e-10
7.49026e-10
-6.16532e-10
7.02518e-10
-6.19527e-10
6.5985e-10
-6.18324e-10
6.20909e-10
-6.11059e-10
5.86094e-10
-5.98799e-10
5.55776e-10
-5.82509e-10
5.31296e-10
-5.62779e-10
5.15946e-10
-5.36969e-10
5.11266e-10
-5.15352e-10
5.2237e-10
-4.87029e-10
5.5181e-10
-4.62136e-10
6.05284e-10
-4.24999e-10
6.88869e-10
-3.70442e-10
8.05261e-10
-2.94601e-10
9.54478e-10
-1.9421e-10
1.13073e-09
-5.09569e-11
1.31532e-09
9.94675e-11
1.48856e-09
2.71463e-10
1.63551e-09
4.32264e-10
1.74204e-09
5.96919e-10
1.79961e-09
7.23368e-10
1.81018e-09
8.20211e-10
1.78516e-09
8.87888e-10
1.73738e-09
9.18727e-10
1.67843e-09
9.23222e-10
1.61899e-09
9.0937e-10
1.56602e-09
8.85425e-10
1.52389e-09
8.55793e-10
1.4937e-09
8.25098e-10
1.47516e-09
7.93759e-10
1.46764e-09
7.61843e-10
1.46912e-09
7.31518e-10
1.47857e-09
6.98988e-10
1.49494e-09
6.63634e-10
1.51799e-09
6.16009e-10
1.54703e-09
5.66496e-10
1.58103e-09
5.09576e-10
1.62095e-09
4.22045e-10
1.66459e-09
3.35858e-10
1.71107e-09
2.07495e-10
1.75742e-09
6.74543e-11
1.79751e-09
-8.13975e-11
1.82595e-09
-2.3701e-10
1.83432e-09
-3.64861e-10
1.81865e-09
-4.40225e-10
1.77744e-09
-4.80648e-10
1.71354e-09
-4.91584e-10
1.63174e-09
-4.82443e-10
1.54001e-09
-4.6877e-10
1.44568e-09
-4.70659e-10
1.35412e-09
-4.74078e-10
1.26874e-09
-4.89032e-10
1.19095e-09
-5.11409e-10
1.11953e-09
-5.37485e-10
1.05213e-09
-5.59336e-10
9.83247e-10
-5.61219e-10
9.10491e-10
-5.55138e-10
8.33234e-10
-5.5021e-10
7.49853e-10
-5.33644e-10
6.84565e-10
-4.21943e-10
6.29465e-10
-3.80288e-10
5.84252e-10
-3.50629e-10
5.51995e-10
-3.14773e-10
5.34269e-10
-2.83682e-10
5.33688e-10
-2.43805e-10
5.5265e-10
-1.95942e-10
5.84945e-10
-1.58965e-10
6.17556e-10
-1.46958e-10
6.48678e-10
-1.32866e-10
6.77416e-10
-1.17307e-10
7.033e-10
-1.01773e-10
7.26122e-10
-8.71616e-11
7.45863e-10
-7.39769e-11
7.62615e-10
-6.24401e-11
7.7654e-10
-5.25417e-11
7.87839e-10
-4.41305e-11
7.96726e-10
-3.69795e-11
8.03408e-10
-3.08455e-11
8.08058e-10
-2.54981e-11
8.10813e-10
-2.07222e-11
8.11755e-10
-1.63026e-11
8.10909e-10
-1.19942e-11
8.0821e-10
-7.47103e-12
8.03462e-10
-2.22366e-12
7.96231e-10
4.61738e-12
7.85711e-10
1.45815e-11
7.70282e-10
3.04051e-11
7.46971e-10
5.68389e-11
7.10714e-10
1.01553e-10
6.53632e-10
1.75442e-10
5.65528e-10
2.90997e-10
4.37884e-10
4.56027e-10
2.74302e-10
6.58333e-10
1.07488e-10
8.37227e-10
4.02479e-12
8.48209e-10
4.59132e-10
-3.90648e-11
-1.34169e-10
-8.11022e-11
-3.08175e-10
-9.88011e-11
-3.97644e-10
-9.27112e-11
-4.20964e-10
-6.92835e-11
-4.0333e-10
-3.59312e-11
-3.65308e-10
1.73265e-12
-3.20315e-10
4.01401e-11
-2.75805e-10
7.7108e-11
-2.35112e-10
1.11395e-10
-1.99339e-10
1.42396e-10
-1.6848e-10
1.6992e-10
-1.42051e-10
1.94031e-10
-1.19452e-10
2.14928e-10
-1.00103e-10
2.32889e-10
-8.34938e-11
2.48219e-10
-6.92025e-11
2.61243e-10
-5.68885e-11
2.72291e-10
-4.6288e-11
2.81693e-10
-3.72037e-11
2.89783e-10
-2.94933e-11
2.96895e-10
-2.30626e-11
3.03366e-10
-1.78582e-11
3.09548e-10
-1.38657e-11
3.15808e-10
-1.11003e-11
3.22548e-10
-9.59885e-12
3.30208e-10
-9.41546e-12
3.39291e-10
-1.06058e-11
3.50394e-10
-1.32281e-11
3.64238e-10
-1.73664e-11
3.81671e-10
-2.30842e-11
4.01187e-10
-3.44971e-11
4.11856e-10
-7.08259e-11
4.13238e-10
-1.22785e-10
4.09881e-10
-1.82397e-10
4.0484e-10
-2.47331e-10
3.9835e-10
-3.25911e-10
3.89544e-10
-4.08956e-10
3.73197e-10
-4.93362e-10
3.54503e-10
-5.60084e-10
3.39681e-10
-6.13548e-10
3.29875e-10
-6.60674e-10
3.25821e-10
-7.03973e-10
3.27757e-10
-7.39513e-10
3.3491e-10
-7.68334e-10
3.45548e-10
-7.89756e-10
3.57411e-10
-8.01754e-10
3.68232e-10
-8.02828e-10
3.76014e-10
-7.92385e-10
3.7954e-10
-7.71e-10
3.78522e-10
-7.40664e-10
3.7367e-10
-7.03784e-10
3.66683e-10
-6.6295e-10
3.5932e-10
-6.23232e-10
3.54438e-10
-5.84244e-10
3.54589e-10
-5.50719e-10
3.63396e-10
-5.19152e-10
3.84323e-10
-4.92337e-10
4.24252e-10
-4.58621e-10
4.90922e-10
-4.15596e-10
5.91027e-10
-3.58433e-10
7.29453e-10
-2.83941e-10
9.07901e-10
-1.69575e-10
1.11225e-09
-4.9658e-11
1.32997e-09
1.11021e-10
1.53722e-09
2.69258e-10
1.71726e-09
4.35933e-10
1.85771e-09
5.93435e-10
1.94969e-09
7.2328e-10
1.99282e-09
8.23731e-10
1.99261e-09
8.93642e-10
1.96302e-09
9.27555e-10
1.91517e-09
9.35293e-10
1.86005e-09
9.22237e-10
1.80631e-09
8.95731e-10
1.75963e-09
8.62241e-10
1.72292e-09
8.25576e-10
1.69686e-09
7.88223e-10
1.68152e-09
7.46132e-10
1.67562e-09
7.05956e-10
1.67752e-09
6.64881e-10
1.6867e-09
6.16661e-10
1.70205e-09
5.52322e-10
1.72234e-09
4.87857e-10
1.74687e-09
3.94801e-10
1.77378e-09
2.93935e-10
1.80062e-09
1.49432e-10
1.82315e-09
2.76841e-12
1.8346e-09
-1.4491e-10
1.82946e-09
-2.87185e-10
1.80171e-09
-3.8235e-10
1.75074e-09
-4.23851e-10
1.67696e-09
-4.39127e-10
1.58678e-09
-4.1775e-10
1.48642e-09
-4.01091e-10
1.38415e-09
-3.79419e-10
1.28572e-09
-3.73392e-10
1.19376e-09
-3.87286e-10
1.11043e-09
-4.07355e-10
1.03511e-09
-4.36638e-10
9.66126e-10
-4.67931e-10
9.02003e-10
-4.97022e-10
8.41984e-10
-5.22109e-10
7.85942e-10
-5.42047e-10
7.34045e-10
-5.57604e-10
6.86358e-10
-5.68846e-10
6.42756e-10
-5.75926e-10
6.0292e-10
-5.7849e-10
5.66584e-10
-5.74726e-10
5.33934e-10
-5.66151e-10
5.05163e-10
-5.53741e-10
4.81189e-10
-5.38808e-10
4.64356e-10
-5.2014e-10
4.55168e-10
-5.06167e-10
4.57116e-10
-4.88978e-10
4.71588e-10
-4.76607e-10
5.03524e-10
-4.56933e-10
5.59492e-10
-4.26409e-10
6.45128e-10
-3.80238e-10
7.65588e-10
-3.1467e-10
9.24441e-10
-2.09811e-10
1.11255e-09
-8.8639e-11
1.31742e-09
6.65873e-11
1.51905e-09
2.30635e-10
1.69871e-09
4.17262e-10
1.84259e-09
5.79496e-10
1.93866e-09
7.24149e-10
1.98463e-09
8.4193e-10
1.98603e-09
9.17335e-10
1.95637e-09
9.5289e-10
1.90764e-09
9.58112e-10
1.85145e-09
9.4162e-10
1.79781e-09
9.09432e-10
1.75242e-09
8.70494e-10
1.71802e-09
8.28157e-10
1.69596e-09
7.83908e-10
1.68495e-09
7.42529e-10
1.68421e-09
6.99722e-10
1.69243e-09
6.55413e-10
1.70861e-09
5.99833e-10
1.73179e-09
5.43319e-10
1.76028e-09
4.81085e-10
1.79373e-09
3.88597e-10
1.82942e-09
3.00165e-10
1.86421e-09
1.72703e-10
1.89381e-09
3.78525e-11
1.91033e-09
-9.79167e-11
1.90735e-09
-2.3403e-10
1.87867e-09
-3.36169e-10
1.82362e-09
-3.85174e-10
1.74399e-09
-4.0101e-10
1.64733e-09
-3.94928e-10
1.54233e-09
-3.77446e-10
1.43793e-09
-3.64379e-10
1.33934e-09
-3.72082e-10
1.24925e-09
-3.84018e-10
1.16908e-09
-4.08881e-10
1.09641e-09
-4.38744e-10
1.02783e-09
-4.68903e-10
9.60016e-10
-4.91497e-10
8.88363e-10
-4.89535e-10
8.11434e-10
-4.78173e-10
7.29719e-10
-4.68467e-10
6.44491e-10
-4.48409e-10
5.79162e-10
-3.56627e-10
5.23711e-10
-3.24859e-10
4.76434e-10
-3.03372e-10
4.39239e-10
-2.7759e-10
4.12697e-10
-2.57144e-10
3.99195e-10
-2.30303e-10
4.01438e-10
-1.98182e-10
4.15448e-10
-1.72973e-10
4.31162e-10
-1.62672e-10
4.47336e-10
-1.49039e-10
4.63272e-10
-1.33242e-10
4.78394e-10
-1.16895e-10
4.92253e-10
-1.0102e-10
5.04522e-10
-8.62465e-11
5.14983e-10
-7.29006e-11
5.23507e-10
-6.10653e-11
5.30037e-10
-5.06609e-11
5.3457e-10
-4.15122e-11
5.37128e-10
-3.34035e-11
5.37739e-10
-2.61088e-11
5.36415e-10
-1.93984e-11
5.33139e-10
-1.30263e-11
5.27844e-10
-6.69924e-12
5.20389e-10
-1.60658e-14
5.10518e-10
7.64689e-12
4.97775e-10
1.73603e-11
4.81325e-10
3.10316e-11
4.59672e-10
5.20578e-11
4.30264e-10
8.62475e-11
3.89111e-10
1.42706e-10
3.30912e-10
2.33641e-10
2.50802e-10
3.71108e-10
1.49489e-10
5.5734e-10
4.23394e-11
7.65482e-10
-3.3769e-11
9.13335e-10
-4.02236e-11
8.54664e-10
4.18908e-10
-3.22784e-11
-1.01891e-10
-7.99625e-11
-2.60491e-10
-1.16697e-10
-3.6091e-10
-1.35708e-10
-4.01952e-10
-1.39202e-10
-3.99836e-10
-1.3145e-10
-3.73059e-10
-1.16247e-10
-3.35518e-10
-9.68171e-11
-2.95235e-10
-7.55294e-11
-2.564e-10
-5.39467e-11
-2.20922e-10
-3.30411e-11
-1.89386e-10
-1.33773e-11
-1.61715e-10
4.75421e-12
-1.37583e-10
2.12473e-11
-1.16596e-10
3.61189e-11
-9.83654e-11
4.9469e-11
-8.25526e-11
6.14553e-11
-6.88749e-11
7.22758e-11
-5.71085e-11
8.21564e-11
-4.70843e-11
9.13469e-11
-3.86839e-11
1.00117e-10
-3.18331e-11
1.08758e-10
-2.64988e-11
1.1758e-10
-2.26884e-11
1.26923e-10
-2.04431e-11
1.37162e-10
-1.98376e-11
1.48713e-10
-2.09665e-11
1.62056e-10
-2.39495e-11
1.77755e-10
-2.89274e-11
1.96464e-10
-3.60758e-11
2.18969e-10
-4.55892e-11
2.4456e-10
-6.0088e-11
2.65988e-10
-9.22545e-11
2.8201e-10
-1.38807e-10
2.9438e-10
-1.94766e-10
3.03909e-10
-2.56858e-10
3.09542e-10
-3.31543e-10
3.10567e-10
-4.0998e-10
3.03982e-10
-4.86775e-10
2.95052e-10
-5.51155e-10
2.89441e-10
-6.07937e-10
2.88577e-10
-6.59811e-10
2.92995e-10
-7.08391e-10
3.02596e-10
-7.49114e-10
3.1603e-10
-7.81768e-10
3.31078e-10
-8.04806e-10
3.45269e-10
-8.15946e-10
3.56407e-10
-8.13967e-10
3.62874e-10
-7.98853e-10
3.63947e-10
-7.72075e-10
3.59804e-10
-7.36523e-10
3.51423e-10
-6.95405e-10
3.40444e-10
-6.51973e-10
3.28378e-10
-6.11167e-10
3.17294e-10
-5.73162e-10
3.0882e-10
-5.42246e-10
3.05304e-10
-5.15636e-10
3.08969e-10
-4.96002e-10
3.25016e-10
-4.74669e-10
3.59981e-10
-4.50561e-10
4.21062e-10
-4.19514e-10
5.15747e-10
-3.78624e-10
6.52636e-10
-3.06463e-10
8.27757e-10
-2.2478e-10
1.03914e-09
-1.00357e-10
1.26944e-09
3.89622e-11
1.50212e-09
2.03254e-10
1.7165e-09
3.79057e-10
1.89435e-09
5.45435e-10
2.02708e-09
6.91028e-10
2.10871e-09
8.12017e-10
2.14313e-09
8.93151e-10
2.14038e-09
9.38039e-10
2.11044e-09
9.52196e-10
2.06424e-09
9.41939e-10
2.01333e-09
9.13161e-10
1.96537e-09
8.73551e-10
1.92482e-09
8.28778e-10
1.89419e-09
7.76761e-10
1.87388e-09
7.26271e-10
1.86283e-09
6.75929e-10
1.86061e-09
6.18884e-10
1.86526e-09
5.47663e-10
1.8753e-09
4.77826e-10
1.88857e-09
3.8152e-10
1.90241e-09
2.80094e-10
1.91222e-09
1.39624e-10
1.91291e-09
2.07722e-12
1.89702e-09
-1.29017e-10
1.85954e-09
-2.49699e-10
1.79659e-09
-3.19405e-10
1.71129e-09
-3.38549e-10
1.60815e-09
-3.35976e-10
1.49639e-09
-3.05996e-10
1.38321e-09
-2.87901e-10
1.27644e-09
-2.72656e-10
1.17962e-09
-2.7657e-10
1.09305e-09
-3.0072e-10
1.01638e-09
-3.30689e-10
9.47277e-10
-3.67534e-10
8.83489e-10
-4.04144e-10
8.23754e-10
-4.37286e-10
7.67802e-10
-4.66156e-10
7.15919e-10
-4.90163e-10
6.68404e-10
-5.10089e-10
6.25202e-10
-5.25644e-10
5.85914e-10
-5.36639e-10
5.49942e-10
-5.42519e-10
5.16831e-10
-5.41617e-10
4.86559e-10
-5.35881e-10
4.59162e-10
-5.26347e-10
4.35192e-10
-5.14842e-10
4.16192e-10
-5.01143e-10
4.02064e-10
-4.92044e-10
3.95111e-10
-4.82028e-10
3.96005e-10
-4.77502e-10
4.0865e-10
-4.69577e-10
4.3872e-10
-4.56478e-10
4.92244e-10
-4.33763e-10
5.76064e-10
-3.98491e-10
6.98367e-10
-3.32114e-10
8.57937e-10
-2.48209e-10
1.05204e-09
-1.27519e-10
1.26765e-09
1.5024e-11
1.49004e-09
1.94874e-10
1.69702e-09
3.72521e-10
1.86991e-09
5.51268e-10
1.99938e-09
7.12475e-10
2.0783e-09
8.38421e-10
2.11127e-09
9.19932e-10
2.10839e-09
9.61004e-10
2.07914e-09
9.70876e-10
2.03515e-09
9.53423e-10
1.98842e-09
9.17237e-10
1.9461e-09
8.70485e-10
1.91304e-09
8.16975e-10
1.89022e-09
7.65347e-10
1.87822e-09
7.11717e-10
1.87618e-09
6.57455e-10
1.88263e-09
5.93384e-10
1.89644e-09
5.29509e-10
1.91519e-09
4.62337e-10
1.93692e-09
3.66866e-10
1.95831e-09
2.78779e-10
1.97382e-09
1.57191e-10
1.97809e-09
3.35801e-11
1.96302e-09
-8.28404e-11
1.92271e-09
-1.93723e-10
1.85331e-09
-2.66763e-10
1.75941e-09
-2.91274e-10
1.64807e-09
-2.8967e-10
1.52978e-09
-2.76629e-10
1.41401e-09
-2.61679e-10
1.3083e-09
-2.58679e-10
1.21403e-09
-2.77816e-10
1.1318e-09
-3.01813e-10
1.05905e-09
-3.36154e-10
9.91363e-10
-3.71072e-10
9.24564e-10
-4.02112e-10
8.55701e-10
-4.22626e-10
7.82154e-10
-4.15966e-10
7.04219e-10
-4.0021e-10
6.23731e-10
-3.8795e-10
5.43479e-10
-3.68139e-10
4.82391e-10
-2.95538e-10
4.29755e-10
-2.72231e-10
3.83415e-10
-2.57047e-10
3.44671e-10
-2.38859e-10
3.13572e-10
-2.26053e-10
2.91931e-10
-2.08665e-10
2.8182e-10
-1.88071e-10
2.80712e-10
-1.71863e-10
2.81741e-10
-1.637e-10
2.84323e-10
-1.51621e-10
2.88052e-10
-1.36971e-10
2.92418e-10
-1.21262e-10
2.96915e-10
-1.05517e-10
3.01084e-10
-9.04153e-11
3.04534e-10
-7.63507e-11
3.0695e-10
-6.34816e-11
3.0809e-10
-5.18007e-11
3.07772e-10
-4.1194e-11
3.05856e-10
-3.14877e-11
3.02223e-10
-2.24758e-11
2.96753e-10
-1.39279e-11
2.89302e-10
-5.57611e-12
2.79686e-10
2.91755e-12
2.67641e-10
1.20289e-11
2.52783e-10
2.25049e-11
2.34528e-10
3.56155e-11
2.11969e-10