/*--------------------------------*- C++ -*----------------------------------*\
| =========                 |                                                 |
| \\      /  F ield         | OpenFOAM: The Open Source CFD Toolbox           |
|  \\    /   O peration     | Version:  2506                                  |
|   \\  /    A nd           | Website:  www.openfoam.com                      |
|    \\/     M anipulation  |                                                 |
\*---------------------------------------------------------------------------*/
FoamFile
{
    version     2.0;
    format      ascii;
    arch        "LSB;label=32;scalar=64";
    class       volVectorField;
    location    "0.4";
    object      vorticityField;
}
// * * * * * * * * * * * * * * * * * * * * * * * * * * * * * * * * * * * * * //

dimensions      [0 0 -1 0 0 0 0];

internalField   nonuniform List<vector> 
4000
(
(-2.67756e-20 9.07572e-18 -10.9887)
(-9.71654e-18 -8.85824e-18 -12.2349)
(1.0185e-17 -2.80288e-17 -10.3911)
(4.06344e-17 4.62028e-17 -8.10258)
(-8.317e-17 5.35355e-19 -6.34053)
(4.25319e-17 -3.77054e-17 -4.94675)
(-3.32408e-19 1.87786e-17 -3.80916)
(4.40908e-17 -0 -2.87602)
(-4.35174e-17 -3.72271e-17 -2.10571)
(8.32023e-17 3.72001e-17 -1.46378)
(-8.33887e-17 -3.66973e-17 -0.927921)
(-1.11403e-17 3.675e-17 -0.4803)
(7.47693e-18 7.40613e-17 -0.107655)
(9.15599e-17 -7.4087e-17 0.200388)
(-4.33604e-19 -0 0.451766)
(-1.72081e-16 -7.20692e-17 0.655053)
(1.60992e-16 7.22713e-17 0.817765)
(-8.07852e-17 7.18306e-17 0.947003)
(3.82525e-18 -7.20327e-17 1.04957)
(0 -0 1.1324)
(0 -0 1.20175)
(0 -0 1.26262)
(9.42624e-18 -1.38916e-16 1.3193)
(1.29216e-16 2.77769e-16 1.37579)
(-2.96495e-16 -6.64397e-19 1.43535)
(1.68445e-16 -2.76333e-16 1.50011)
(-1.05966e-17 1.38145e-16 1.57153)
(0 -0 1.65035)
(0 -0 1.73619)
(-1.18561e-17 1.33956e-16 1.82685)
(-2.9173e-16 -1.34861e-16 1.91896)
(1.56442e-16 -1.32997e-16 2.00481)
(3.16891e-16 1.82425e-17 2.06153)
(-1.94206e-18 -1.30594e-16 2.03037)
(-9.64142e-17 7.73595e-16 1.89386)
(-2.99522e-16 6.10253e-16 1.73848)
(-1.09626e-15 -1.12847e-15 1.57555)
(-1.97203e-17 5.09562e-18 1.33272)
(8.95493e-16 1.84529e-15 0.964494)
(-6.88766e-16 -1.23022e-15 0.431602)
(4.0334e-16 -2.3653e-15 -0.331655)
(1.17935e-15 2.25282e-15 -1.37334)
(-2.65116e-16 1.04932e-15 -2.56874)
(2.86198e-16 -1.05208e-15 -3.77809)
(1.40131e-15 9.73743e-16 -4.91471)
(-1.59944e-15 9.82406e-17 -5.93448)
(-1.26413e-15 2.76321e-16 -6.83585)
(-1.15473e-15 -1.11949e-15 -7.57721)
(-1.43369e-15 -1.31102e-15 -8.16806)
(-5.65957e-16 -1.44787e-15 -8.61362)
(7.15863e-16 -2.46051e-16 -8.89427)
(-4.64322e-17 5.76597e-16 -9.03685)
(-7.99736e-16 -1.35529e-15 -9.00495)
(6.67141e-16 1.22578e-16 -8.82558)
(-1.08508e-16 1.26781e-15 -8.48203)
(-3.55949e-16 -4.75652e-18 -7.98161)
(3.44856e-16 -1.71508e-16 -7.34556)
(1.07617e-16 -4.53957e-17 -6.55737)
(2.00461e-16 3.96754e-17 -5.6724)
(-8.99499e-17 -5.38929e-17 -4.67319)
(8.73391e-17 -3.38516e-17 -3.59523)
(3.97317e-16 1.40624e-18 -2.48857)
(-1.87721e-16 -7.2201e-17 -1.35886)
(-1.3983e-16 -7.24822e-16 -0.242978)
(-4.07312e-17 1.4846e-17 0.85221)
(-1.35661e-16 9.13057e-16 1.89413)
(7.22606e-16 -2.93588e-16 2.88852)
(1.9983e-17 -4.37554e-16 3.80562)
(3.15999e-16 6.98637e-16 4.65802)
(-8.11195e-16 8.55118e-16 5.41668)
(-2.0363e-16 -6.35495e-16 6.09273)
(4.24056e-17 -8.47986e-17 6.68383)
(-1.92244e-19 2.2511e-18 7.16509)
(-1.06507e-15 6.75563e-16 7.56639)
(-1.02641e-15 7.26661e-16 7.86515)
(-4.10885e-17 8.10254e-16 8.06365)
(-8.20107e-16 5.35002e-16 8.17956)
(9.89117e-17 -8.47013e-16 8.20822)
(-8.36562e-16 6.07079e-16 8.15222)
(8.10204e-16 2.36064e-16 8.03026)
(-1.51116e-15 4.31874e-16 7.8475)
(-1.27329e-16 -6.79493e-16 7.61127)
(4.4548e-17 -1.14504e-16 7.33388)
(-9.37782e-17 3.81933e-17 7.02282)
(6.70739e-16 1.03627e-15 6.68662)
(-1.29743e-15 1.70381e-15 6.33524)
(5.89339e-17 -1.54171e-15 5.97095)
(-2.92556e-17 -7.06322e-16 5.59959)
(-1.32349e-17 1.49057e-15 5.23423)
(-5.39248e-16 3.48212e-16 4.86921)
(2.1138e-18 7.89138e-18 4.50737)
(-5.36771e-16 9.86731e-16 4.16251)
(-2.50365e-16 -1.21471e-15 3.82527)
(1.99015e-16 -3.84853e-16 3.49975)
(-7.6568e-19 6.10505e-16 3.19292)
(8.12812e-17 -7.01721e-16 2.89318)
(2.45858e-16 -8.88932e-17 2.61671)
(3.11189e-17 3.40836e-17 2.35296)
(-3.66282e-16 -4.42183e-17 2.10943)
(5.97392e-17 3.13161e-16 1.88065)
(6.65841e-17 -7.94012e-18 1.67027)
(1.89717e-17 -5.46236e-17 1.47604)
(-1.09053e-17 1.91756e-16 1.29778)
(-2.87999e-17 5.08294e-17 1.1272)
(-4.15022e-17 -2.08174e-17 0.964125)
(-7.61418e-19 -6.91208e-17 0.802771)
(4.10536e-18 5.51272e-16 0.644878)
(-1.99249e-16 -4.29645e-17 0.485213)
(-2.70907e-16 -9.35294e-16 0.322835)
(4.99016e-16 -1.29829e-16 0.155405)
(-2.7782e-16 1.92825e-16 -0.0170221)
(1.08206e-17 6.10715e-16 -0.19603)
(-2.53356e-16 -1.20502e-16 -0.382713)
(-2.67448e-16 -4.5461e-16 -0.574599)
(-7.343e-18 -6.21443e-16 -0.773763)
(4.88808e-16 3.22887e-16 -0.97795)
(4.64757e-18 1.21782e-15 -1.18506)
(1.07395e-16 5.85251e-17 -1.39815)
(5.34541e-16 3.80931e-16 -1.6139)
(-5.09948e-16 -3.83261e-16 -1.83276)
(-6.96936e-16 -1.76722e-15 -2.05737)
(6.30649e-16 4.22852e-16 -2.28592)
(1.90997e-17 1.35342e-15 -2.51866)
(-5.62357e-16 -4.24433e-16 -2.75912)
(-1.20418e-16 -1.41026e-15 -3.00592)
(1.17221e-15 8.31548e-16 -3.25976)
(-4.38723e-16 3.78933e-16 -3.52195)
(6.12518e-16 -7.2555e-17 -3.79203)
(6.05314e-16 8.73084e-16 -4.07157)
(1.3924e-16 7.82027e-16 -4.36392)
(-1.07773e-17 5.25029e-16 -4.65936)
(-4.17666e-16 -2.71749e-16 -4.96042)
(-2.18443e-16 -6.5978e-16 -5.27227)
(-1.21677e-15 -8.37526e-16 -5.57472)
(6.29045e-16 -1.18954e-16 -5.86852)
(-8.83739e-17 -4.77098e-17 -6.16289)
(9.1238e-17 4.9612e-17 -6.4136)
(-8.71146e-17 -6.63016e-17 -6.63918)
(1.01006e-16 1.00424e-16 -6.81225)
(-1.3833e-16 1.0736e-16 -6.92304)
(2.23775e-16 9.73961e-17 -6.95648)
(-5.33297e-16 -2.29216e-16 -6.89105)
(2.95794e-16 9.16659e-17 -6.70366)
(-6.82322e-17 2.94805e-17 -6.39061)
(-1.46316e-16 -1.16662e-16 -5.91183)
(-3.55738e-17 -1.5847e-16 -5.29844)
(-3.3392e-17 4.54588e-17 -4.51441)
(0 -0 -3.58842)
(-7.15279e-17 4.54187e-17 -2.55384)
(8.30478e-17 -5.01871e-17 -1.4202)
(3.2221e-17 -2.05808e-16 -0.232145)
(-6.03918e-17 -9.88982e-17 0.994616)
(1.74429e-16 1.09076e-16 2.21915)
(1.0101e-16 2.68932e-16 3.43166)
(-1.92518e-16 7.51192e-17 4.60498)
(1.99335e-16 -2.01152e-16 5.74898)
(-2.53061e-16 -3.34252e-17 6.81705)
(3.91782e-16 -2.00803e-16 7.77087)
(-8.83588e-17 -3.50363e-16 8.33556)
(3.20311e-16 -4.63611e-17 8.31589)
(-2.53405e-16 7.84156e-16 8.01646)
(1.82505e-16 -2.11347e-16 8.06672)
(-5.09894e-17 -1.01075e-16 7.8806)
(3.58694e-17 -8.36187e-18 7.52597)
(3.40457e-17 -5.23611e-18 7.08773)
(3.27533e-17 -2.72129e-18 6.62474)
(-3.18386e-17 -2.33722e-17 6.13961)
(2.63793e-17 2.90458e-18 5.44906)
(1.87393e-18 2.39468e-17 4.47308)
(3.36662e-18 2.17574e-17 3.38188)
(-2.69506e-17 -1.94011e-18 2.32687)
(-5.99351e-18 -4.36214e-17 1.38962)
(-1.57998e-18 2.0793e-17 0.614175)
(7.04158e-18 2.01555e-17 0.0190054)
(-3.53013e-18 -2.07778e-17 -0.397301)
(2.4386e-17 6.83046e-19 -0.649678)
(-4.46427e-17 1.6623e-17 -0.760281)
(2.45816e-17 -1.62133e-17 -0.758853)
(-5.24861e-18 -1.71931e-17 -0.671903)
(1.14751e-18 1.67131e-17 -0.522503)
(1.09113e-17 6.37821e-18 -0.332416)
(-1.70887e-17 -4.00778e-19 -0.120533)
(-1.33521e-18 -1.27678e-17 0.0979471)
(-4.62166e-19 3.97804e-19 0.31114)
(7.03648e-18 6.38432e-18 0.511104)
(6.60788e-18 1.97105e-20 0.692723)
(-7.35721e-18 -2.19457e-20 0.85341)
(6.29271e-18 -2.45812e-19 0.992574)
(-1.06582e-17 -6.07546e-21 1.11111)
(6.74725e-18 2.84127e-19 1.21092)
(-2.27894e-18 -6.7978e-21 1.29455)
(-5.1212e-19 -1.27911e-18 1.36486)
(1.42728e-18 1.4502e-18 1.42483)
(-3.87578e-19 1.10438e-18 1.47739)
(-1.35884e-18 -1.37935e-18 1.52548)
(1.76971e-19 -2.33232e-19 1.57188)
(-1.42321e-19 3.81461e-19 1.61943)
(-1.91917e-19 3.13054e-19 1.67456)
(-9.81755e-20 -2.32641e-19 1.75077)
(-3.08811e-20 -8.98278e-20 1.82724)
(0 -0 1.48963)
(-5.78393e-19 -0 -2.84828)
(5.50676e-19 -1.99341e-17 -4.77929)
(3.65442e-19 3.95262e-17 -5.28113)
(1.90078e-17 1.13007e-18 -5.15646)
(-1.93681e-17 -4.12116e-17 -4.80481)
(4.91342e-19 -2.08648e-17 -4.3824)
(-8.56582e-19 4.10443e-17 -3.95935)
(-4.24476e-17 3.93769e-19 -3.5654)
(4.55716e-17 -1.54705e-19 -3.21247)
(7.85323e-17 1.25533e-16 -2.90225)
(-1.61252e-16 -1.25652e-16 -2.63369)
(-3.23694e-19 -1.66942e-16 -2.40373)
(8.31513e-17 8.44611e-17 -2.20821)
(-1.07404e-17 2.47928e-16 -2.04283)
(-8.19196e-17 -8.29975e-17 -1.90376)
(1.02314e-16 -1.6423e-16 -1.7874)
(-1.28416e-17 8.19703e-17 -1.69024)
(0 -0 -1.60882)
(0 -0 -1.53955)
(0 -0 -1.47911)
(0 -0 -1.4245)
(0 -0 -1.37296)
(-3.16096e-16 -0 -1.32206)
(4.64204e-16 -0 -1.2697)
(-1.47966e-16 -0 -1.2143)
(0 -0 -1.15475)
(0 -0 -1.09059)
(0 -0 -1.02228)
(-1.33192e-17 1.50488e-16 -0.951541)
(-1.93821e-17 -2.75275e-18 -0.882072)
(6.18514e-17 -4.49094e-16 -0.819992)
(-1.30563e-17 1.35525e-16 -0.77339)
(-1.575e-16 4.45055e-16 -0.724809)
(-8.09146e-17 -5.7989e-16 -0.670986)
(3.31734e-16 5.13276e-16 -0.642241)
(1.13359e-15 8.90151e-16 -0.647834)
(9.8568e-17 -2.21684e-15 -0.68724)
(-6.55923e-16 -8.90926e-16 -0.78879)
(1.0902e-15 2.35977e-15 -0.995187)
(-3.39774e-16 1.42553e-16 -1.38083)
(-8.83642e-16 -1.68497e-15 -1.95763)
(-1.47075e-16 -1.00046e-16 -2.62836)
(2.56789e-17 -3.00575e-16 -3.32728)
(-1.64872e-15 4.4712e-16 -4.00327)
(1.41233e-15 2.31719e-15 -4.63334)
(2.78023e-15 2.92141e-16 -5.20716)
(1.14265e-15 1.29688e-15 -5.69527)
(1.45225e-15 7.88586e-16 -6.10894)
(7.07516e-16 -3.00238e-16 -6.43079)
(-2.17603e-15 -9.85116e-16 -6.65526)
(-4.72497e-17 5.82123e-16 -6.79103)
(7.02806e-16 8.94764e-16 -6.81304)
(-5.39097e-16 -7.43243e-16 -6.74193)
(8.40566e-16 -3.70287e-16 -6.55342)
(7.69453e-16 -1.10601e-16 -6.2612)
(4.95026e-16 -4.70058e-18 -5.86194)
(1.87014e-16 1.60446e-16 -5.35043)
(-1.09438e-16 9.22029e-17 -4.74881)
(-1.20353e-16 1.37104e-16 -4.0448)
(-5.06584e-17 -2.96996e-16 -3.26491)
(-4.08281e-16 1.8179e-16 -2.43242)
(3.26354e-16 4.7424e-16 -1.56179)
(-2.37685e-16 7.07965e-16 -0.681816)
(4.2902e-16 -2.56587e-16 0.193465)
(1.78416e-17 -1.43834e-15 1.03592)
(3.32729e-16 -1.08349e-16 1.83159)
(-3.88319e-16 8.01162e-16 2.56505)
(-3.81126e-16 -7.09498e-17 3.22745)
(1.06897e-15 -4.13682e-16 3.80937)
(-3.97168e-17 1.29787e-16 4.30278)
(-1.56308e-15 7.83544e-16 4.71549)
(8.87724e-16 4.65474e-16 5.02926)
(-1.24398e-16 9.57724e-16 5.25389)
(1.04645e-15 -1.79457e-15 5.39347)
(1.79235e-16 -1.01897e-15 5.44496)
(-2.40357e-16 1.36833e-16 5.42082)
(-3.82084e-17 9.08348e-16 5.32941)
(-8.75652e-16 -2.67111e-16 5.17434)
(-1.62032e-15 1.209e-15 4.9659)
(2.15741e-15 1.78655e-16 4.71405)
(1.73406e-16 -1.12084e-15 4.42563)
(-7.74729e-16 5.37509e-16 4.10942)
(5.70065e-17 -9.04834e-16 3.77413)
(2.76159e-17 -2.52503e-17 3.42407)
(1.26241e-15 -9.22682e-16 3.06791)
(6.49425e-16 -3.97914e-16 2.71357)
(6.99021e-16 3.85916e-16 2.35994)
(5.94894e-16 -1.20345e-15 2.01413)
(1.19566e-15 -7.54002e-16 1.68184)
(3.79168e-19 2.4065e-17 1.36257)
(5.42971e-16 -6.76792e-16 1.06124)
(2.35763e-16 2.85936e-16 0.777942)
(-5.18719e-16 2.58174e-16 0.510488)
(2.41431e-16 -5.87464e-16 0.265221)
(1.25609e-17 3.40448e-16 0.0420033)
(-5.06829e-16 2.68158e-16 -0.160266)
(2.48967e-16 6.42278e-16 -0.338177)
(1.97657e-17 1.07486e-16 -0.495555)
(-1.33457e-16 -8.30835e-16 -0.629092)
(-6.86226e-17 4.72796e-17 -0.745636)
(-7.70562e-17 1.58632e-16 -0.840831)
(-3.4563e-17 -1.30095e-16 -0.924324)
(2.94083e-17 -1.85948e-17 -0.995663)
(5.62785e-17 -1.40804e-17 -1.06041)
(1.21818e-16 3.3974e-17 -1.12298)
(-2.28333e-18 -3.06608e-16 -1.18362)
(6.94163e-16 4.81129e-16 -1.24775)
(1.55585e-17 -1.04153e-17 -1.31446)
(-4.76725e-16 1.62482e-16 -1.38662)
(1.7346e-17 3.28276e-16 -1.46473)
(-1.86866e-17 -6.49309e-16 -1.54782)
(2.47702e-16 4.50488e-16 -1.63776)
(2.56678e-16 1.12269e-16 -1.7293)
(-2.63338e-16 -4.80669e-16 -1.82861)
(-4.88248e-16 -2.82617e-16 -1.92887)
(1.89293e-17 -7.0669e-16 -2.03189)
(-1.04419e-16 -7.29601e-16 -2.13862)
(-4.73659e-16 4.14783e-16 -2.24528)
(1.07624e-15 2.19868e-15 -2.35412)
(-5.79723e-16 -5.11964e-16 -2.4668)
(-5.80194e-16 -1.1322e-15 -2.58117)
(5.18702e-16 4.49339e-16 -2.69851)
(6.75251e-16 4.80456e-16 -2.82177)
(6.02549e-16 -2.28921e-16 -2.94895)
(-1.86886e-15 -8.49941e-16 -3.08238)
(6.03376e-16 4.02091e-16 -3.2224)
(-5.05057e-16 -1.01548e-15 -3.36848)
(-7.29805e-17 1.26968e-16 -3.52255)
(1.32237e-15 8.74969e-16 -3.68684)
(5.54604e-16 3.11159e-16 -3.85262)
(1.20137e-15 8.38407e-16 -4.02647)
(8.08185e-16 1.71133e-15 -4.20981)
(1.24749e-15 1.39202e-16 -4.3854)
(-1.35044e-16 -5.95981e-16 -4.56332)
(1.61717e-16 6.39967e-16 -4.74339)
(2.65691e-16 1.26193e-16 -4.89225)
(9.25075e-17 4.00576e-17 -5.03833)
(-8.53955e-17 -5.3122e-17 -5.14396)
(1.18442e-16 -1.97252e-16 -5.21662)
(-7.39977e-17 1.85752e-16 -5.23843)
(1.54258e-16 1.20779e-16 -5.19745)
(9.76734e-17 -3.17735e-16 -5.07939)
(3.1662e-17 2.55913e-16 -4.87937)
(-1.07733e-16 2.83956e-17 -4.56759)
(-5.72057e-17 8.16028e-17 -4.16761)
(1.49977e-16 -4.5471e-17 -3.63747)
(-9.53338e-17 2.50792e-17 -3.00809)
(6.01299e-17 -1.00263e-16 -2.27805)
(-1.64535e-16 -3.58537e-17 -1.45718)
(-8.89354e-17 3.06834e-16 -0.578408)
(4.56343e-17 3.18498e-17 0.35416)
(7.22356e-17 -2.60451e-16 1.29243)
(-1.25633e-16 9.41465e-20 2.23014)
(4.63321e-16 -2.98691e-16 3.11823)
(-1.77276e-16 2.69483e-16 3.94273)
(-1.71087e-17 -5.40596e-18 4.64523)
(-3.8744e-16 7.32361e-17 5.16784)
(1.40035e-16 3.93322e-16 5.39541)
(-7.83946e-16 5.61835e-16 5.35879)
(1.99139e-16 -7.37015e-16 4.92058)
(3.33117e-17 -7.83848e-17 4.43924)
(-6.02049e-18 2.55583e-16 3.93927)
(-7.56954e-17 -3.47201e-17 3.43172)
(1.10304e-18 1.01379e-17 2.92055)
(-6.08863e-17 6.49608e-17 2.41113)
(6.46844e-17 2.18863e-17 1.89469)
(-2.98723e-17 -2.48642e-17 1.28133)
(-4.57012e-19 -3.31615e-18 0.654608)
(-2.13481e-18 1.40657e-19 0.0553052)
(-3.19361e-18 3.07359e-18 -0.504054)
(4.1076e-18 2.3779e-17 -1.00451)
(-2.63248e-17 -2.72418e-17 -1.43264)
(2.01803e-17 -2.1341e-17 -1.78021)
(1.33743e-18 4.32918e-18 -2.04427)
(2.94455e-17 3.71976e-17 -2.22689)
(-2.60861e-17 -1.70117e-17 -2.33459)
(-3.53248e-18 -2.11082e-17 -2.3773)
(6.03921e-18 4.01907e-17 -2.36802)
(-1.99687e-18 -2.95549e-17 -2.31873)
(-5.29311e-19 8.46869e-18 -2.24117)
(7.76324e-18 1.03238e-17 -2.14605)
(-7.55491e-18 -1.80938e-18 -2.04227)
(-7.15246e-18 -7.17309e-18 -1.937)
(7.79869e-18 -1.23994e-17 -1.83557)
(2.32398e-18 1.30181e-17 -1.74157)
(7.36597e-19 -1.51394e-19 -1.65708)
(-5.59604e-19 3.84453e-18 -1.58294)
(-3.7502e-19 -1.6567e-18 -1.51908)
(3.66959e-19 -6.84378e-18 -1.46472)
(2.22949e-18 6.22076e-18 -1.41864)
(-1.61718e-18 -2.07953e-18 -1.37937)
(-3.00348e-18 -1.35067e-18 -1.34537)
(3.35246e-18 1.63707e-18 -1.31499)
(5.78043e-21 4.36291e-19 -1.28655)
(1.79667e-19 -6.59651e-19 -1.25844)
(1.42718e-19 -1.45199e-19 -1.22933)
(3.0071e-19 -4.05593e-19 -1.1984)
(-1.21648e-20 2.83337e-20 -1.16815)
(2.19759e-20 -2.57882e-21 -1.15759)
(-2.85786e-20 9.68687e-18 3.01377)
(-1.43039e-19 -8.92909e-18 0.464979)
(4.28089e-19 -2.97318e-17 -1.76803)
(-1.05969e-18 2.78463e-17 -3.3237)
(2.24006e-17 2.06417e-17 -4.32774)
(-2.15978e-17 -1.95139e-17 -4.93131)
(0 -0 -5.26633)
(-4.51144e-17 3.99252e-17 -5.43868)
(4.64316e-17 -7.89599e-17 -5.51279)
(-4.17267e-17 -8.26986e-17 -5.52933)
(3.99415e-17 1.60551e-16 -5.51071)
(2.83991e-18 1.23056e-16 -5.47139)
(-1.56599e-18 -1.60604e-16 -5.41987)
(-1.67509e-16 -8.24973e-17 -5.3609)
(1.57826e-16 1.61939e-16 -5.29656)
(1.0104e-16 -1.60327e-16 -5.22975)
(-1.69434e-16 -2.24076e-18 -5.16265)
(7.38742e-17 1.62633e-16 -5.09706)
(4.28961e-18 -8.0777e-17 -5.0343)
(0 -0 -4.97518)
(1.61897e-16 -0 -4.91997)
(-1.62123e-16 -0 -4.86851)
(-1.06774e-17 1.57355e-16 -4.82017)
(-1.4893e-16 -1.56161e-16 -4.77395)
(1.71375e-16 -1.5868e-16 -4.72861)
(-1.16155e-17 1.57485e-16 -4.68283)
(0 -0 -4.63532)
(1.57644e-16 -0 -4.585)
(-7.58063e-19 -0 -4.53121)
(-1.7088e-16 1.53311e-16 -4.47381)
(1.86535e-17 -1.53248e-16 -4.41349)
(3.25471e-16 -1.53648e-16 -4.35201)
(-4.88552e-16 1.44068e-16 -4.2899)
(2.84866e-16 -1.97695e-18 -4.20053)
(-3.04875e-17 3.1061e-16 -4.07253)
(-5.57294e-16 -6.95101e-16 -3.93781)
(8.08586e-16 -9.4806e-17 -3.81101)
(4.15124e-16 2.05755e-15 -3.6898)
(-8.29468e-16 -4.17763e-16 -3.60031)
(-2.15064e-16 -1.29418e-15 -3.5827)
(-1.39436e-16 -2.56448e-16 -3.70237)
(-1.69455e-15 1.10735e-16 -3.96001)
(3.90812e-16 4.41344e-16 -4.31237)
(1.28398e-15 9.17432e-16 -4.72793)
(-1.64985e-15 -2.34676e-15 -5.17254)
(1.9635e-15 -1.82286e-15 -5.63118)
(-8.57148e-16 8.34713e-16 -6.08975)
(-6.22615e-17 7.23146e-16 -6.52344)
(-1.74064e-17 -7.333e-17 -6.93718)
(-5.26261e-17 1.8223e-15 -7.30878)
(6.92628e-16 4.30481e-16 -7.63329)
(2.27724e-16 -1.63589e-15 -7.91096)
(-7.43179e-17 -7.09371e-16 -8.12215)
(1.76672e-16 -8.01351e-17 -8.28113)
(-7.74819e-16 9.50331e-17 -8.36321)
(-4.03131e-16 1.81338e-16 -8.37779)
(-5.14079e-16 2.91487e-17 -8.31239)
(-3.64937e-17 3.23779e-16 -8.15977)
(-1.33449e-16 2.3234e-16 -7.92823)
(2.0147e-16 -6.3857e-17 -7.59775)
(7.63606e-17 1.57489e-16 -7.1882)
(-3.74175e-16 -2.07354e-16 -6.69886)
(6.05684e-16 -3.70116e-16 -6.14554)
(4.82888e-16 -9.03282e-16 -5.54776)
(-1.33448e-16 2.38138e-17 -4.92142)
(-6.42731e-16 1.1222e-15 -4.28408)
(-1.06333e-15 5.36808e-16 -3.66096)
(1.52525e-16 5.95478e-17 -3.07471)
(2.78792e-17 -2.67209e-16 -2.54114)
(-8.08035e-16 5.25204e-16 -2.06105)
(2.18844e-18 1.47735e-15 -1.65266)
(1.36087e-15 -1.82981e-15 -1.31436)
(-1.11553e-15 -6.574e-16 -1.04936)
(2.21302e-15 -1.42748e-15 -0.862963)
(1.0679e-15 -6.46377e-16 -0.742158)
(-1.85857e-16 2.09212e-15 -0.685419)
(8.42832e-16 -5.8008e-16 -0.688645)
(6.98846e-17 -1.12478e-16 -0.735959)
(1.58067e-15 6.25579e-16 -0.821614)
(7.61691e-17 -2.85744e-15 -0.944847)
(9.84239e-16 -3.21515e-15 -1.09346)
(2.56153e-18 2.68617e-15 -1.25769)
(6.59218e-16 -5.01194e-16 -1.43225)
(8.10335e-16 -1.38843e-15 -1.6107)
(-6.93983e-16 5.13236e-16 -1.78902)
(1.41291e-15 -8.81988e-16 -1.96291)
(-2.04869e-15 4.76384e-16 -2.12608)
(-1.32522e-15 1.29562e-16 -2.27757)
(-6.29897e-16 1.21926e-15 -2.4197)
(2.51291e-17 7.51515e-16 -2.54281)
(1.24976e-17 7.93199e-16 -2.64472)
(2.64757e-17 3.57269e-16 -2.73084)
(-3.09717e-16 1.47991e-16 -2.79603)
(3.05037e-16 -4.63841e-16 -2.8412)
(9.59358e-18 -4.39423e-17 -2.87256)
(-9.33208e-17 3.32639e-16 -2.87676)
(2.41072e-17 -3.01631e-16 -2.87212)
(-1.73962e-17 -6.15811e-16 -2.84435)
(8.34329e-16 7.17535e-17 -2.81006)
(7.23936e-17 4.20756e-16 -2.75837)
(-6.30014e-17 -2.85406e-17 -2.70675)
(9.05461e-17 -1.06529e-16 -2.6485)
(1.61993e-18 5.8693e-17 -2.59661)
(-5.17514e-19 -5.68803e-17 -2.55169)
(-1.99049e-18 -1.30098e-16 -2.51858)
(-1.18368e-16 -1.76484e-17 -2.50178)
(-1.25597e-16 -1.71945e-16 -2.50301)
(-4.78098e-16 -1.17664e-16 -2.52346)
(7.27268e-16 8.13001e-16 -2.56408)
(-4.94007e-16 -4.72451e-16 -2.62322)
(5.03538e-16 -1.02111e-16 -2.70065)
(-5.87772e-18 3.14425e-16 -2.79298)
(1.33864e-17 -3.26109e-16 -2.90062)
(2.47149e-17 3.28379e-16 -3.01537)
(1.16345e-17 3.51384e-16 -3.14439)
(-4.39837e-18 -3.56952e-16 -3.27502)
(2.39933e-16 8.29886e-16 -3.41276)
(2.24276e-16 8.2605e-16 -3.55473)
(-1.1238e-15 -2.02901e-15 -3.69632)
(-5.14076e-16 -3.41156e-16 -3.84049)
(1.23411e-15 1.56148e-15 -3.98664)
(3.59181e-16 -1.10424e-15 -4.13201)
(-4.34503e-16 -4.7953e-16 -4.27853)
(-6.94564e-16 -5.85254e-16 -4.42786)
(-3.34098e-16 1.30944e-15 -4.57758)
(-6.23107e-16 -2.79739e-16 -4.73071)
(4.43881e-16 -7.07058e-16 -4.88718)
(-7.26895e-16 -1.80366e-16 -5.04682)
(-7.91083e-16 -2.00405e-15 -5.21173)
(-1.16199e-15 -8.68082e-16 -5.38441)
(-4.49489e-16 3.70507e-16 -5.558)
(-6.90301e-16 -5.09181e-16 -5.7395)
(-6.86323e-16 -1.11761e-15 -5.93053)
(8.0528e-16 1.00862e-15 -6.11672)
(-8.81155e-16 1.27071e-16 -6.31043)
(-3.39792e-17 -3.12836e-16 -6.5101)
(-7.34581e-17 -8.30719e-17 -6.69138)
(-2.76833e-16 1.15502e-16 -6.8818)
(-9.52584e-18 9.65852e-18 -7.04849)
(-2.98933e-16 5.68554e-17 -7.2032)
(2.93813e-16 1.64134e-16 -7.33222)
(1.07505e-15 8.53705e-17 -7.42809)
(-9.36452e-17 9.21115e-17 -7.48185)
(3.55327e-17 2.38946e-16 -7.48895)
(-1.84714e-16 -4.06887e-17 -7.42439)
(2.98479e-17 -3.23808e-16 -7.30701)
(9.18205e-17 5.13233e-17 -7.09088)
(-1.24218e-16 6.68684e-17 -6.80098)
(1.64686e-16 6.60629e-17 -6.41688)
(-2.7968e-16 1.40733e-16 -5.94007)
(8.6641e-17 -3.45888e-16 -5.39343)
(2.39855e-16 -3.31623e-16 -4.76624)
(-2.03758e-16 3.36535e-16 -4.09878)
(5.71204e-17 -1.06061e-17 -3.39946)
(-2.08042e-16 1.71815e-16 -2.71713)
(-2.52087e-16 3.36265e-16 -2.0746)
(4.48694e-16 -2.24704e-16 -1.52971)
(-2.68966e-16 7.69497e-18 -1.15103)
(5.37469e-18 3.07581e-18 -0.975046)
(5.07112e-16 -4.13378e-16 -1.02416)
(2.10986e-16 -9.09974e-17 -1.41196)
(-3.35856e-16 2.56789e-16 -1.9738)
(2.71449e-17 -5.43172e-17 -2.50088)
(2.9338e-17 -5.28246e-17 -2.94531)
(-3.55659e-17 2.20164e-18 -3.29815)
(-3.82472e-17 -6.40123e-17 -3.59025)
(-1.29381e-17 -4.49129e-17 -3.82051)
(3.6391e-17 5.13038e-17 -4.04222)
(3.1099e-17 2.05425e-18 -4.20285)
(3.69573e-18 2.36578e-17 -4.32285)
(-2.74906e-17 -4.86596e-18 -4.44015)
(2.63786e-18 -2.59496e-17 -4.5677)
(5.38502e-17 3.36748e-18 -4.70671)
(-5.51944e-17 -1.67407e-18 -4.85318)
(-2.61708e-18 -2.46424e-17 -4.99883)
(-2.56924e-17 1.79124e-17 -5.13327)
(4.94622e-17 4.62578e-17 -5.24879)
(-2.79984e-17 -3.72971e-17 -5.33958)
(1.85815e-18 -2.29921e-17 -5.40574)
(1.41991e-18 2.07325e-17 -5.44819)
(-1.27671e-17 4.35897e-20 -5.46886)
(1.01795e-17 5.22757e-18 -5.47068)
(2.81047e-18 1.00022e-18 -5.45705)
(1.41176e-17 -1.36973e-17 -5.4312)
(-1.36825e-17 -2.60901e-18 -5.39674)
(-7.84272e-18 6.10827e-18 -5.35678)
(8.96345e-18 2.17638e-18 -5.31392)
(-6.29803e-18 6.92936e-19 -5.27019)
(6.13511e-18 -1.17279e-18 -5.22705)
(-2.02057e-18 -1.87352e-18 -5.18545)
(3.40366e-18 1.60834e-18 -5.14591)
(2.25941e-18 3.70361e-18 -5.10856)
(-1.81837e-18 -2.87405e-18 -5.07328)
(3.01616e-19 -1.76923e-18 -5.03972)
(9.16696e-20 1.49031e-18 -5.00736)
(-5.39368e-19 -7.09227e-19 -4.97567)
(1.41853e-19 3.36642e-20 -4.94458)
(2.22655e-19 4.49344e-19 -4.91556)
(2.50557e-19 1.3992e-19 -4.89256)
(3.87189e-20 -9.86599e-20 -4.89123)
(0 -0 2.37827)
(1.03184e-17 -0 1.45201)
(-1.01418e-17 -1.90431e-17 0.123963)
(-1.66995e-19 1.74779e-17 -1.20956)
(5.41248e-20 2.06455e-17 -2.41598)
(2.81458e-19 -1.90803e-17 -3.4063)
(3.95518e-17 -0 -4.17378)
(-3.96612e-17 -0 -4.75925)
(3.10806e-18 -0 -5.20165)
(-6.66833e-18 -0 -5.5328)
(-8.4742e-17 7.71765e-17 -5.77869)
(8.85505e-17 -7.33155e-17 -5.95728)
(8.63919e-17 -4.2015e-18 -6.08164)
(-4.81329e-18 -7.3398e-17 -6.16235)
(3.68704e-20 -7.38604e-18 -6.20777)
(-8.21696e-17 2.35883e-16 -6.22494)
(-8.59542e-17 -1.51485e-16 -6.22024)
(9.0081e-17 -8.06445e-17 -6.19956)
(-4.10871e-18 7.73704e-17 -6.1682)
(8.6798e-17 -1.52693e-16 -6.13078)
(-8.73017e-17 1.46567e-16 -6.09106)
(-9.55789e-18 1.59033e-16 -6.05192)
(-3.22229e-19 -1.89937e-18 -6.01525)
(2.48281e-17 -1.45186e-16 -5.98204)
(1.4935e-16 -1.56972e-16 -5.95249)
(-1.64061e-16 1.51151e-16 -5.92618)
(-1.39708e-16 -1.48682e-16 -5.90226)
(8.73009e-19 -4.65129e-18 -5.87967)
(2.76533e-16 2.9724e-16 -5.8573)
(-1.63751e-16 1.51683e-16 -5.83415)
(5.37601e-17 -4.3802e-16 -5.80938)
(-1.62828e-16 -9.19702e-18 -5.78238)
(1.34625e-16 1.61519e-16 -5.75242)
(1.37948e-16 -4.72835e-18 -5.70844)
(-1.77964e-16 2.82164e-16 -5.62671)
(3.49748e-16 -2.47698e-16 -5.49405)
(-1.16301e-15 -8.72902e-16 -5.31679)
(-1.11476e-15 -9.79595e-16 -5.11805)
(1.24027e-15 8.5399e-16 -4.92874)
(4.8989e-16 1.23505e-15 -4.78207)
(-1.52874e-16 1.5689e-15 -4.72629)
(1.33712e-15 -7.34441e-16 -4.76003)
(4.00543e-16 -2.83944e-15 -4.89368)
(-1.37934e-15 8.3534e-16 -5.11931)
(6.18146e-16 1.66004e-15 -5.41123)
(-1.34161e-15 -4.24893e-16 -5.75758)
(-8.97176e-16 -1.69946e-16 -6.14149)
(-5.9307e-16 -3.22451e-16 -6.54203)
(-8.47532e-16 -4.07823e-16 -6.96043)
(-6.0117e-16 -1.55521e-15 -7.37368)
(1.54793e-15 5.81575e-16 -7.77647)
(-8.23861e-16 9.73542e-16 -8.1648)
(5.59937e-17 6.97834e-16 -8.52547)
(-9.85985e-16 -3.86422e-16 -8.868)
(-5.56367e-17 -1.58741e-16 -9.17236)
(9.66872e-19 -4.26508e-16 -9.44492)
(-6.49138e-16 -4.2981e-16 -9.66988)
(-1.87405e-16 -1.5577e-16 -9.84246)
(1.23719e-17 -3.64843e-17 -9.9601)
(1.06214e-16 -1.33658e-17 -10.0062)
(-1.91808e-16 9.5991e-17 -9.98781)
(4.15538e-16 -2.40799e-16 -9.88822)
(-5.66763e-16 7.04415e-17 -9.71844)
(2.15425e-16 1.09344e-15 -9.48179)
(-1.05166e-15 8.53566e-16 -9.19162)
(9.37881e-16 -1.0109e-15 -8.85295)
(-2.84185e-16 -4.05412e-16 -8.49092)
(1.85493e-16 -2.03584e-16 -8.11988)
(-6.929e-16 8.15686e-16 -7.76392)
(4.5755e-16 -2.038e-16 -7.42349)
(3.12312e-16 -1.81431e-15 -7.11699)
(7.76229e-16 7.38892e-16 -6.85273)
(-8.0832e-16 4.61232e-16 -6.62188)
(7.37808e-17 -1.07881e-15 -6.43966)
(-1.08907e-15 1.71182e-15 -6.29246)
(5.61355e-17 -8.76327e-16 -6.17665)
(9.18847e-16 -6.34203e-16 -6.09327)
(6.23448e-17 -8.13476e-17 -6.02877)
(1.8774e-15 -1.95892e-15 -5.97844)
(1.62829e-15 -1.36892e-16 -5.9403)
(-3.34844e-15 3.98102e-15 -5.90505)
(-8.26345e-16 -3.87366e-16 -5.86527)
(8.59372e-16 -1.38363e-15 -5.81982)
(-7.89416e-16 1.37526e-15 -5.765)
(4.30158e-18 -8.56589e-16 -5.69818)
(-1.41202e-15 2.62378e-15 -5.6204)
(1.38714e-15 2.46207e-15 -5.52879)
(-3.26707e-16 -6.63485e-16 -5.42053)
(-6.20458e-16 -2.15535e-15 -5.30265)
(-1.94158e-15 2.35228e-16 -5.16885)
(-3.09406e-16 1.67937e-16 -5.01699)
(1.90778e-17 1.40451e-17 -4.85642)
(3.04634e-16 -1.27197e-16 -4.68207)
(-4.44072e-17 -3.678e-16 -4.49127)
(-5.1689e-16 2.41664e-16 -4.30034)
(-2.55277e-17 3.24325e-16 -4.09238)
(2.63717e-16 -1.35562e-16 -3.88994)
(-8.08326e-16 -5.79265e-17 -3.67655)
(-4.477e-16 1.33631e-16 -3.47373)
(-2.56554e-17 2.46787e-16 -3.26832)
(1.25174e-16 -2.25995e-17 -3.08041)
(-1.19087e-16 8.78596e-17 -2.90338)
(7.52909e-17 -2.09052e-17 -2.74866)
(-1.15119e-18 -1.73677e-17 -2.61873)
(1.07548e-18 1.25359e-16 -2.51615)
(-2.47486e-16 1.45236e-16 -2.4453)
(1.16754e-18 1.44779e-16 -2.40723)
(-2.41516e-16 -7.88239e-16 -2.4012)
(-2.27613e-16 -8.55143e-17 -2.42842)
(4.63452e-16 7.70432e-16 -2.48555)
(-1.67925e-17 -2.90986e-16 -2.57117)
(7.54667e-18 -1.56214e-17 -2.68152)
(2.52754e-18 3.03393e-16 -2.81532)
(-2.55675e-16 -1.19063e-16 -2.96469)
(4.75666e-16 -6.74203e-17 -3.13478)
(1.17685e-17 -2.54545e-16 -3.31187)
(-7.77763e-16 -1.45634e-15 -3.50203)
(3.62547e-16 1.0793e-15 -3.70009)
(1.07261e-15 2.40379e-15 -3.90108)
(-6.22692e-16 -1.71079e-15 -4.10771)
(1.08885e-15 -6.65825e-16 -4.31743)
(-9.55991e-16 6.47454e-16 -4.52683)
(-4.80741e-16 1.11291e-15 -4.73803)
(-1.96638e-16 -2.39649e-17 -4.95095)
(-6.50302e-16 -1.2109e-15 -5.16245)
(1.8376e-15 7.0923e-16 -5.37543)
(-1.15496e-16 8.13843e-18 -5.58903)
(5.33863e-16 9.91429e-16 -5.80297)
(-3.93844e-16 4.75623e-16 -6.01898)
(-7.89322e-16 -5.9814e-16 -6.23865)
(-3.63205e-16 -7.82412e-16 -6.45676)
(-6.43706e-17 8.34592e-17 -6.68041)
(-6.51647e-16 -3.33603e-16 -6.90995)
(-7.38109e-16 -9.09545e-16 -7.13305)
(-8.91423e-19 2.13729e-16 -7.3651)
(-1.24795e-16 -2.59651e-16 -7.60119)
(-6.1943e-16 -6.50621e-17 -7.8249)
(-1.24473e-16 -3.95457e-17 -8.06315)
(1.74884e-16 3.06052e-17 -8.28635)
(1.2405e-16 -3.23957e-16 -8.51016)
(2.64123e-16 -8.68657e-16 -8.72499)
(-3.98941e-16 5.28514e-17 -8.92756)
(-1.35203e-16 3.51027e-16 -9.11587)
(2.93353e-16 3.37681e-16 -9.2868)
(4.09194e-16 8.975e-17 -9.42361)
(1.40069e-16 -6.10279e-17 -9.54193)
(-1.44371e-16 7.29704e-17 -9.6004)
(9.201e-17 -1.05858e-18 -9.62206)
(-7.36776e-17 -1.3977e-19 -9.57391)
(3.45699e-16 -5.79729e-17 -9.45429)
(5.87401e-17 -1.16098e-16 -9.27085)
(-3.53737e-16 4.01231e-16 -9.00138)
(-1.03434e-16 -5.36684e-17 -8.67254)
(1.1932e-16 -9.25417e-17 -8.27975)
(-2.81768e-16 2.26331e-16 -7.86405)
(1.08606e-16 -4.36906e-16 -7.44226)
(-2.88339e-16 1.30638e-16 -7.06527)
(3.54866e-16 3.66972e-17 -6.78385)
(-2.63803e-17 -2.19888e-16 -6.64475)
(1.6953e-17 4.03202e-17 -6.68033)
(-1.77074e-16 2.56173e-16 -6.89439)
(1.5458e-16 -5.17229e-17 -7.2895)
(2.78645e-17 -7.16786e-17 -7.61737)
(1.47109e-16 -1.48662e-17 -7.80437)
(-2.99536e-17 6.31353e-17 -7.82344)
(3.35725e-17 2.09458e-17 -7.7068)
(-9.36972e-17 -2.538e-17 -7.49236)
(-6.05311e-18 -5.26716e-17 -7.23418)
(7.07162e-18 1.9336e-17 -6.93826)
(3.20337e-17 4.8864e-17 -6.64529)
(-3.92474e-19 3.7149e-18 -6.39805)
(-9.93634e-18 -4.82388e-17 -6.21893)
(-5.69613e-18 1.71574e-17 -6.11344)
(5.62213e-18 3.26155e-17 -6.07725)
(5.44974e-18 -1.80716e-17 -6.09937)
(-5.37655e-17 -2.33367e-18 -6.16518)
(4.48655e-17 -1.99123e-17 -6.25959)
(2.29516e-17 8.63946e-18 -6.36831)
(-1.68379e-17 2.70625e-17 -6.47824)
(-5.55697e-18 -1.58933e-17 -6.57996)
(1.13986e-17 1.58045e-18 -6.66652)
(-8.40729e-18 -3.79684e-18 -6.73384)
(1.12274e-18 -7.76617e-18 -6.78023)
(7.07052e-18 4.24889e-18 -6.80587)
(-1.51102e-17 1.16091e-17 -6.81243)
(9.42961e-19 -7.07818e-18 -6.80251)
(-2.18612e-18 -2.70976e-18 -6.77916)
(-1.66347e-18 5.67913e-18 -6.74551)
(4.2362e-18 -9.03293e-19 -6.70454)
(-5.25696e-18 -8.75325e-18 -6.65883)
(-4.94788e-18 1.57028e-18 -6.61049)
(5.0656e-18 9.65719e-19 -6.56114)
(-1.53613e-18 1.974e-18 -6.51194)
(-1.6882e-18 -1.96868e-18 -6.46361)
(7.87727e-20 3.17728e-18 -6.41657)
(9.67144e-19 -4.15823e-19 -6.37103)
(-8.78428e-19 1.00057e-19 -6.32744)
(-1.00917e-19 -9.14634e-19 -6.28751)
(3.14373e-19 -1.2067e-18 -6.25453)
(-1.38189e-19 2.41373e-19 -6.24334)
(0 -0 1.65895)
(0 -0 1.4703)
(1.69016e-19 -1.90962e-17 0.990464)
(3.0062e-19 1.73031e-17 0.25936)
(-5.40185e-19 2.07915e-17 -0.603425)
(9.42416e-19 -5.64058e-17 -1.44077)
(3.9352e-17 3.40009e-17 -2.21658)
(-8.08379e-17 7.82002e-17 -2.91017)
(4.13997e-17 -1.08791e-16 -3.48372)
(9.8273e-19 -6.64293e-18 -3.96062)
(-2.71683e-18 7.80741e-17 -4.35513)
(8.31948e-17 -3.74337e-17 -4.67577)
(-1.56392e-16 -7.43942e-17 -4.9299)
(1.59576e-16 -5.8382e-18 -5.1273)
(-1.74378e-16 2.23333e-16 -5.27543)
(8.51914e-17 -6.27769e-17 -5.38113)
(1.33513e-17 -1.54793e-16 -5.45113)
(-9.79305e-18 7.44687e-17 -5.49206)
(4.12399e-18 -7.3571e-17 -5.51041)
(7.10869e-17 6.80826e-17 -5.51238)
(-9.20131e-17 7.91898e-17 -5.50363)
(1.67259e-17 -7.37015e-17 -5.48913)
(-1.58797e-16 1.4508e-16 -5.47293)
(1.81426e-16 -2.79009e-16 -5.45811)
(-1.20237e-17 -2.17298e-17 -5.44677)
(-3.26118e-17 4.43615e-16 -5.44007)
(1.08198e-17 -1.35051e-16 -5.43841)
(2.28081e-17 -4.28643e-16 -5.44163)
(-1.56589e-16 1.23098e-16 -5.44917)
(1.20278e-16 4.36282e-16 -5.46029)
(2.44858e-17 -1.33627e-16 -5.47409)
(1.29433e-18 -2.82718e-16 -5.48969)