/*--------------------------------*- C++ -*----------------------------------*\
| =========                 |                                                 |
| \\      /  F ield         | OpenFOAM: The Open Source CFD Toolbox           |
|  \\    /   O peration     | Version:  2506                                  |
|   \\  /    A nd           | Website:  www.openfoam.com                      |
|    \\/     M anipulation  |                                                 |
\*---------------------------------------------------------------------------*/
FoamFile
{
    version     2.0;
    format      ascii;
    arch        "LSB;label=32;scalar=64";
    class       volVectorField;
    location    "0.4";
    object      vorticityField;
}
// * * * * * * * * * * * * * * * * * * * * * * * * * * * * * * * * * * * * * //

dimensions      [0 0 -1 0 0 0 0];

internalField   nonuniform List<vector> 
4000
(
(-2.12937e-20 7.2176e-18 -10.8649)
(-7.73641e-18 -6.91852e-18 -12.2984)
(8.07058e-18 -2.22636e-17 -10.4922)
(3.18457e-17 3.62845e-17 -8.23605)
(-6.49687e-17 7.01317e-19 -6.50755)
(3.31349e-17 -2.97754e-17 -5.13399)
(-2.61169e-19 1.47541e-17 -4.01157)
(3.38612e-17 -0 -3.09072)
(-3.33272e-17 -2.91404e-17 -2.32988)
(6.43313e-17 2.90111e-17 -1.69554)
(-6.43995e-17 -2.85775e-17 -1.16588)
(-6.95703e-18 2.86154e-17 -0.723385)
(3.96788e-18 5.80608e-17 -0.355341)
(6.98145e-17 -5.79694e-17 -0.0517132)
(-3.30128e-19 -0 0.196338)
(-1.31258e-16 -5.66072e-17 0.397046)
(1.2454e-16 5.66823e-17 0.558182)
(-6.34678e-17 5.65096e-17 0.686871)
(3.0049e-18 -5.65847e-17 0.789907)
(0 -0 0.873869)
(0 -0 0.944728)
(0 -0 1.00782)
(7.40758e-18 -1.09167e-16 1.06753)
(1.01561e-16 2.18175e-16 1.12709)
(-2.33048e-16 -3.00785e-19 1.18934)
(1.32405e-16 -2.17281e-16 1.25665)
(-8.32829e-18 1.08574e-16 1.33065)
(0 -0 1.41218)
(0 -0 1.5012)
(-9.322e-18 1.05325e-16 1.59638)
(-2.26126e-16 -1.06001e-16 1.69366)
(1.2302e-16 -1.0461e-16 1.78442)
(2.42751e-16 1.4325e-17 1.84653)
(1.27232e-18 -1.02689e-16 1.82217)
(-7.27096e-17 6.08325e-16 1.69303)
(-2.44954e-16 4.80219e-16 1.54158)
(-8.52857e-16 -8.86074e-16 1.37602)
(-1.29883e-17 1.1823e-17 1.12446)
(6.80579e-16 1.471e-15 0.742196)
(-5.69248e-16 -9.9747e-16 0.188811)
(3.29547e-16 -1.93092e-15 -0.599062)
(9.67926e-16 1.85666e-15 -1.66677)
(-2.43081e-16 8.48217e-16 -2.88424)
(2.33057e-16 -8.72687e-16 -4.11196)
(1.13174e-15 7.88256e-16 -5.26809)
(-1.29849e-15 1.03973e-16 -6.31249)
(-1.05784e-15 2.39498e-16 -7.24175)
(-9.63326e-16 -9.33319e-16 -8.01031)
(-1.17752e-15 -1.08921e-15 -8.62779)
(-4.72699e-16 -1.2091e-15 -9.10202)
(6.00012e-16 -2.11206e-16 -9.41072)
(-3.87695e-17 4.81441e-16 -9.5804)
(-6.48765e-16 -1.12318e-15 -9.57841)
(5.77546e-16 1.01635e-16 -9.42733)
(-9.04912e-17 1.05732e-15 -9.10745)
(-2.97162e-16 -1.04529e-18 -8.62733)
(2.76598e-16 -1.41025e-16 -8.01523)
(8.70236e-17 -3.79091e-17 -7.25179)
(1.61682e-16 3.35019e-17 -6.39158)
(-7.36387e-17 -4.49535e-17 -5.41587)
(7.2838e-17 -2.76841e-17 -4.35936)
(3.20866e-16 2.59578e-18 -3.27026)
(-1.51412e-16 -6.16073e-17 -2.15189)
(-1.06789e-16 -6.11822e-16 -1.03905)
(-6.99069e-18 2.68235e-18 0.0594228)
(-1.09829e-16 7.64932e-16 1.10843)
(5.88956e-16 -2.38334e-16 2.11479)
(2.10521e-17 -3.72843e-16 3.04421)
(2.67953e-16 5.93101e-16 3.91228)
(-6.91985e-16 7.26985e-16 4.68932)
(-1.69322e-16 -5.40975e-16 5.38541)
(3.79868e-17 -7.09871e-17 5.99951)
(-1.79429e-19 2.10104e-18 6.50521)
(-8.79235e-16 5.57692e-16 6.93248)
(-8.46789e-16 6.00525e-16 7.25946)
(-3.59772e-17 6.83949e-16 7.48778)
(-6.90064e-16 4.50038e-16 7.63406)
(8.21492e-17 -7.13364e-16 7.69435)
(-6.80645e-16 5.00537e-16 7.67081)
(6.62404e-16 2.06328e-16 7.58184)
(-1.24417e-15 3.5097e-16 7.43178)
(-8.67706e-17 -5.73757e-16 7.22655)
(3.58999e-17 -8.88778e-17 6.97858)
(-6.36674e-17 2.19456e-17 6.69682)
(5.34008e-16 8.54952e-16 6.38917)
(-1.04797e-15 1.38043e-15 6.06573)
(3.66524e-17 -1.24566e-15 5.72738)
(-9.43812e-18 -5.77554e-16 5.37936)
(-1.03712e-17 1.19989e-15 5.03562)
(-4.32203e-16 2.79037e-16 4.69061)
(1.58014e-18 2.36928e-19 4.34641)
(-4.25425e-16 7.79114e-16 4.01779)
(-2.01544e-16 -9.55216e-16 3.69536)
(1.61557e-16 -3.06353e-16 3.38296)
(-5.4701e-18 4.78932e-16 3.08873)
(6.21598e-17 -5.44326e-16 2.80156)
(1.90518e-16 -6.68484e-17 2.53401)
(2.40066e-17 2.81467e-17 2.2757)
(-2.72045e-16 -3.41387e-17 2.03682)
(4.70477e-17 2.39828e-16 1.81162)
(4.88687e-17 -5.24231e-18 1.60422)
(1.61822e-17 -4.14521e-17 1.41174)
(-8.26395e-18 1.45541e-16 1.23449)
(-2.15976e-17 3.85322e-17 1.06448)
(-3.17123e-17 -1.57959e-17 0.901571)
(-5.77459e-19 -5.24212e-17 0.739626)
(3.13586e-18 4.21088e-16 0.58048)
(-1.56269e-16 -3.39037e-17 0.418682)
(-2.03191e-16 -7.15199e-16 0.253335)
(3.79526e-16 -1.02497e-16 0.0814751)
(-2.05941e-16 1.513e-16 -0.0969777)
(8.40541e-18 4.746e-16 -0.283109)
(-1.97691e-16 -9.40162e-17 -0.477424)
(-2.0531e-16 -3.54056e-16 -0.67851)
(-5.83568e-18 -4.93883e-16 -0.88812)
(3.88455e-16 2.56687e-16 -1.10499)
(3.70101e-18 9.73107e-16 -1.32737)
(7.41212e-17 4.2669e-17 -1.55798)
(4.20988e-16 3.06134e-16 -1.79144)
(-4.14281e-16 -3.11077e-16 -2.02788)
(-5.53706e-16 -1.43686e-15 -2.27114)
(5.15009e-16 3.44903e-16 -2.51955)
(1.75183e-17 1.11667e-15 -2.7729)
(-4.66651e-16 -3.51789e-16 -3.03483)
(-9.82295e-17 -1.17087e-15 -3.30436)
(9.63584e-16 6.82986e-16 -3.58199)
(-3.542e-16 3.24435e-16 -3.86863)
(4.96912e-16 -7.44664e-17 -4.16341)
(5.10147e-16 7.36844e-16 -4.46727)
(1.00566e-16 6.55014e-16 -4.78278)
(-9.12303e-18 4.4798e-16 -5.10034)
(-3.74248e-16 -2.35451e-16 -5.42252)
(-1.83465e-16 -5.56062e-16 -5.75453)
(-1.01929e-15 -7.02784e-16 -6.07759)
(5.13867e-16 -1.0357e-16 -6.39228)
(-7.29503e-17 -3.91112e-17 -6.70742)
(7.53226e-17 4.1081e-17 -6.98176)
(-7.01107e-17 -5.98655e-17 -7.23182)
(8.34304e-17 8.40865e-17 -7.42971)
(-1.15343e-16 9.28686e-17 -7.5624)
(1.76581e-16 8.19025e-17 -7.61444)
(-4.39331e-16 -1.89341e-16 -7.56537)
(2.36964e-16 7.67443e-17 -7.39372)
(-5.76019e-17 2.5442e-17 -7.09653)
(-1.25017e-16 -9.7068e-17 -6.63318)
(-2.74015e-17 -1.36167e-16 -6.02871)
(-2.6745e-17 3.80772e-17 -5.25051)
(0 -0 -4.32821)
(-5.73219e-17 3.75673e-17 -3.29796)
(6.48202e-17 -4.02753e-17 -2.16754)
(2.66227e-17 -1.71467e-16 -0.980387)
(-4.37771e-17 -8.36154e-17 0.250942)
(1.46207e-16 8.99382e-17 1.48389)
(8.25379e-17 2.24075e-16 2.71172)
(-1.60351e-16 6.25678e-17 3.90474)
(1.61139e-16 -1.65445e-16 5.0748)
(-2.05301e-16 -2.87368e-17 6.17182)
(3.22327e-16 -1.65327e-16 7.15814)
(-7.34041e-17 -2.89752e-16 7.76835)
(2.75658e-16 -3.86437e-17 7.8175)
(-2.03509e-16 6.45319e-16 7.56819)
(1.40945e-16 -1.73564e-16 7.64782)
(-4.07292e-17 -8.25603e-17 7.48553)
(2.82967e-17 -6.59651e-18 7.15245)
(2.67728e-17 -4.11756e-18 6.73041)
(2.57059e-17 -2.13576e-18 6.27958)
(-2.50049e-17 -1.87276e-17 5.80409)
(2.11291e-17 2.46276e-18 5.12148)
(1.49433e-18 1.90939e-17 4.16241)
(2.6442e-18 1.72591e-17 3.09017)
(-2.14572e-17 -1.50856e-18 2.05321)
(-4.73208e-18 -3.47334e-17 1.13152)
(-6.72133e-19 1.62107e-17 0.368215)
(4.96891e-18 1.62841e-17 -0.21938)
(-2.74325e-18 -1.64747e-17 -0.631303)
(1.87582e-17 5.39176e-19 -0.882978)
(-3.42902e-17 1.31453e-17 -0.999746)
(1.84575e-17 -1.24372e-17 -1.00644)
(-3.65577e-18 -1.39658e-17 -0.925385)
(9.06652e-19 1.3205e-17 -0.782532)
(8.37566e-18 5.02821e-18 -0.599615)
(-1.32475e-17 -1.66105e-19 -0.394605)
(-1.03067e-18 -1.00789e-17 -0.18212)
(-2.052e-19 1.68443e-19 0.0265187)
(5.40543e-18 5.03572e-18 0.223281)
(5.06926e-18 1.5121e-20 0.403133)
(-5.64336e-18 -1.68335e-20 0.563376)
(4.82572e-18 -1.94375e-19 0.703245)
(-8.1652e-18 -5.34375e-21 0.823401)
(5.17212e-18 2.23737e-19 0.925518)
(-1.74633e-18 -5.20909e-21 1.01192)
(-3.92986e-19 -1.0073e-18 1.08526)
(1.12283e-18 1.10421e-18 1.14836)
(-3.25096e-19 9.06947e-19 1.20404)
(-1.04039e-18 -1.0856e-18 1.25512)
(1.37807e-19 -1.8166e-19 1.30434)
(-1.02679e-19 2.84893e-19 1.35451)
(-1.50617e-19 2.53967e-19 1.41216)
(-7.7111e-20 -1.7591e-19 1.49069)
(-2.2753e-20 -7.05342e-20 1.5686)
(0 -0 1.48116)
(-3.73586e-19 -0 -2.74707)
(3.88089e-19 -1.55219e-17 -4.59545)
(2.73834e-19 3.04376e-17 -5.06772)
(1.49485e-17 1.38527e-18 -4.93566)
(-1.519e-17 -3.213e-17 -4.58437)
(3.75693e-19 -1.59306e-17 -4.16469)
(-6.19062e-19 3.12662e-17 -3.74438)
(-3.2947e-17 6.19653e-19 -3.35372)
(3.49061e-17 -3.39143e-19 -3.00452)
(6.10475e-17 9.59085e-17 -2.69862)
(-1.25234e-16 -9.56634e-17 -2.43407)
(7.77819e-19 -1.27332e-16 -2.20738)
(6.39371e-17 6.42913e-17 -2.01444)
(-8.19685e-18 1.89137e-16 -1.85134)
(-6.28642e-17 -6.33967e-17 -1.71427)
(7.68988e-17 -1.25316e-16 -1.5995)
(-8.29384e-18 6.25838e-17 -1.50354)
(0 -0 -1.42294)
(0 -0 -1.35421)
(0 -0 -1.29409)
(0 -0 -1.23963)
(0 -0 -1.18821)
(-2.44797e-16 -0 -1.13753)
(3.61174e-16 -0 -1.08568)
(-1.16292e-16 -0 -1.03115)
(0 -0 -0.972952)
(0 -0 -0.910708)
(0 -0 -0.844915)
(-1.02005e-17 1.1525e-16 -0.777419)
(-1.14597e-17 -2.48847e-18 -0.712317)
(4.3914e-17 -3.4404e-16 -0.656085)
(-9.98829e-18 1.04682e-16 -0.617026)
(-1.23224e-16 3.40598e-16 -0.578065)
(-6.46679e-17 -4.44926e-16 -0.533331)
(2.68677e-16 3.97987e-16 -0.508869)
(8.82196e-16 6.86112e-16 -0.513158)
(7.40158e-17 -1.72156e-15 -0.546764)
(-4.99705e-16 -6.91215e-16 -0.638798)
(8.87896e-16 1.85984e-15 -0.833078)
(-2.73304e-16 1.05151e-16 -1.20403)
(-7.33542e-16 -1.37093e-15 -1.76406)
(-9.41042e-17 -7.28746e-17 -2.41766)
(2.15277e-17 -2.47899e-16 -3.0999)
(-1.33374e-15 3.47273e-16 -3.76055)
(1.1456e-15 1.89081e-15 -4.37661)
(2.28516e-15 2.62788e-16 -4.93692)
(9.54506e-16 1.068e-15 -5.41208)
(1.19678e-15 6.56541e-16 -5.8143)
(5.89724e-16 -2.36076e-16 -6.12553)
(-1.78796e-15 -8.12378e-16 -6.33997)
(-3.83141e-17 4.72034e-16 -6.46647)
(5.72497e-16 7.36539e-16 -6.48065)
(-4.68294e-16 -6.0541e-16 -6.4034)
(6.8553e-16 -2.99042e-16 -6.21046)
(6.33e-16 -8.58845e-17 -5.91557)
(4.05378e-16 -6.15864e-18 -5.51482)
(1.52319e-16 1.29614e-16 -5.00515)
(-8.88508e-17 7.29626e-17 -4.40807)
(-9.69989e-17 1.11023e-16 -3.71177)
(-4.31401e-17 -2.39786e-16 -2.94242)
(-3.31962e-16 1.45039e-16 -2.12176)
(2.65641e-16 3.84813e-16 -1.26507)
(-1.97422e-16 5.80122e-16 -0.398763)
(3.20753e-16 -1.96437e-16 0.460454)
(1.11083e-17 -1.17445e-15 1.28685)
(2.76255e-16 -9.04014e-17 2.0714)
(-3.22201e-16 6.58416e-16 2.7921)
(-3.23883e-16 -5.35571e-17 3.44291)
(9.03624e-16 -3.51713e-16 4.01649)
(-2.9902e-17 1.04512e-16 4.50227)
(-1.28656e-15 6.51386e-16 4.90821)
(7.31954e-16 3.84972e-16 5.21685)
(-1.08644e-16 7.81456e-16 5.43757)
(8.55806e-16 -1.48941e-15 5.57458)
(1.49131e-16 -8.40844e-16 5.62517)
(-1.81538e-16 1.00827e-16 5.60008)
(-3.08828e-17 7.44114e-16 5.50941)
(-7.20825e-16 -2.21551e-16 5.35492)
(-1.31577e-15 9.93061e-16 5.14726)
(1.76189e-15 1.257e-16 4.89583)
(1.23747e-16 -9.08251e-16 4.6071)
(-6.25544e-16 4.2971e-16 4.28994)
(2.61567e-17 -7.27439e-16 3.95289)
(2.62846e-17 -2.12544e-17 3.60095)
(1.01308e-15 -7.48606e-16 3.24232)
(5.33138e-16 -3.20826e-16 2.88394)
(5.38943e-16 3.11733e-16 2.52552)
(4.68534e-16 -9.51876e-16 2.17424)
(9.46868e-16 -5.96819e-16 1.83586)
(2.97681e-19 1.88931e-17 1.5095)
(4.30384e-16 -5.29299e-16 1.20183)
(1.91847e-16 2.18307e-16 0.91193)
(-4.0773e-16 2.02815e-16 0.637303)
(1.89947e-16 -4.50828e-16 0.384783)
(9.34897e-18 2.6143e-16 0.154395)
(-3.87078e-16 2.05057e-16 -0.0544841)
(1.86625e-16 4.82845e-16 -0.238657)
(1.05603e-17 7.78213e-17 -0.401562)
(-1.02185e-16 -6.23634e-16 -0.539909)
(-5.00479e-17 3.51157e-17 -0.660474)
(-5.95538e-17 1.18157e-16 -0.758758)
(-2.542e-17 -9.6922e-17 -0.844323)
(2.20722e-17 -1.38737e-17 -0.916807)
(4.26701e-17 -1.0333e-17 -0.981506)
(9.08563e-17 2.52844e-17 -1.04302)
(-1.70472e-18 -2.28913e-16 -1.10174)
(5.26817e-16 3.62126e-16 -1.16284)
(1.2072e-17 -8.51897e-18 -1.22573)
(-3.64152e-16 1.22549e-16 -1.29324)
(1.03234e-17 2.47311e-16 -1.36572)
(-1.434e-17 -4.90685e-16 -1.44255)
(1.93384e-16 3.4744e-16 -1.52565)
(1.98068e-16 8.7635e-17 -1.61004)
(-2.04317e-16 -3.702e-16 -1.70194)
(-3.88009e-16 -2.24595e-16 -1.79484)
(1.50614e-17 -5.54129e-16 -1.89045)
(-7.3328e-17 -5.72847e-16 -1.98973)
(-3.71573e-16 3.18624e-16 -2.08895)
(8.63902e-16 1.74906e-15 -2.19044)
(-4.64388e-16 -4.04241e-16 -2.296)
(-4.74174e-16 -9.10146e-16 -2.40342)
(4.15957e-16 3.60553e-16 -2.51392)
(5.57709e-16 3.97062e-16 -2.63047)
(4.86846e-16 -1.86425e-16 -2.75117)
(-1.52606e-15 -7.05164e-16 -2.87833)
(4.85743e-16 3.29562e-16 -3.01227)
(-4.05455e-16 -8.35321e-16 -3.1524)
(-7.28214e-17 9.1504e-17 -3.30065)
(1.10119e-15 7.21342e-16 -3.45904)
(4.58277e-16 2.55611e-16 -3.61886)
(1.02014e-15 7.01059e-16 -3.78694)
(6.6855e-16 1.41372e-15 -3.96425)
(1.04001e-15 1.34106e-16 -4.13383)
(-1.07698e-16 -5.00588e-16 -4.30577)
(1.33023e-16 5.30023e-16 -4.47924)
(2.20621e-16 1.03219e-16 -4.62143)
(7.70837e-17 3.32574e-17 -4.76089)
(-6.9928e-17 -4.56e-17 -4.859)
(9.91312e-17 -1.59264e-16 -4.92364)
(-5.39689e-17 1.46411e-16 -4.93677)
(1.25997e-16 1.09826e-16 -4.88741)
(8.52046e-17 -2.66512e-16 -4.7619)
(2.75459e-17 2.09769e-16 -4.55574)
(-8.29546e-17 2.16822e-17 -4.2395)
(-4.81802e-17 6.71378e-17 -3.83697)
(1.21831e-16 -3.61225e-17 -3.30678)
(-7.7347e-17 2.00562e-17 -2.68046)
(4.86262e-17 -7.94166e-17 -1.95614)
(-1.31112e-16 -3.04525e-17 -1.14453)
(-7.31167e-17 2.47102e-16 -0.277048)
(3.04862e-17 2.78868e-17 0.637622)
(5.27498e-17 -2.08612e-16 1.56318)
(-1.01223e-16 2.64524e-19 2.48203)
(3.79321e-16 -2.43597e-16 3.35196)
(-1.41226e-16 2.21639e-16 4.159)
(-1.43375e-17 -6.45563e-18 4.84274)
(-3.15392e-16 6.67113e-17 5.34631)
(1.14264e-16 3.17808e-16 5.55321)
(-6.50543e-16 4.54419e-16 5.4999)
(1.58182e-16 -6.00228e-16 5.05937)
(3.39634e-17 -5.23679e-17 4.5778)
(-5.08841e-18 2.02226e-16 4.07837)
(-5.93515e-17 -2.5845e-17 3.57562)
(1.01796e-18 9.56782e-18 3.0715)
(-4.7983e-17 5.24031e-17 2.57311)
(5.0708e-17 1.5973e-17 2.06958)
(-2.38911e-17 -1.95592e-17 1.47072)
(-3.4209e-19 -2.58871e-18 0.85547)
(-1.65964e-18 1.40652e-19 0.26648)
(-1.86864e-18 2.38806e-18 -0.283401)
(3.19259e-18 1.83589e-17 -0.775688)
(-2.07683e-17 -2.09831e-17 -1.19694)
(1.59605e-17 -1.65126e-17 -1.53952)
(1.0337e-18 3.39636e-18 -1.80027)
(2.28019e-17 2.83445e-17 -1.98172)
(-2.01896e-17 -1.25782e-17 -2.09049)
(-2.42088e-18 -1.67675e-17 -2.1358)
(4.35323e-18 3.11803e-17 -2.13027)
(-1.53293e-18 -2.26879e-17 -2.08579)
(-3.9413e-19 6.37553e-18 -2.01346)
(6.09231e-18 8.00669e-18 -1.9236)
(-5.84288e-18 -1.35559e-18 -1.8248)
(-5.65858e-18 -5.49011e-18 -1.724)
(6.02369e-18 -9.50695e-18 -1.62634)
(1.80178e-18 1.00153e-17 -1.53542)
(5.48702e-19 -1.30554e-19 -1.45328)
(-4.15653e-19 2.9981e-18 -1.3808)
(-3.16373e-19 -1.40735e-18 -1.31804)
(2.94176e-19 -5.11997e-18 -1.26435)
(1.70389e-18 4.72359e-18 -1.21864)
(-1.24001e-18 -1.58959e-18 -1.17954)
(-2.3296e-18 -1.03424e-18 -1.14557)
(2.59673e-18 1.31724e-18 -1.11516)
(1.46199e-21 2.71588e-19 -1.08668)
(1.34826e-19 -4.72876e-19 -1.05853)
(1.00859e-19 -1.45836e-19 -1.02941)
(2.33856e-19 -3.10157e-19 -0.998555)
(-7.09549e-21 2.08607e-20 -0.96859)
(1.40239e-20 -7.35204e-21 -0.958439)
(-2.24879e-20 7.62237e-18 2.94988)
(-1.53277e-19 -6.87221e-18 0.452176)
(3.77409e-19 -2.35312e-17 -1.73793)
(-5.42664e-19 2.15779e-17 -3.26296)
(1.70218e-17 1.6499e-17 -4.24786)
(-1.6682e-17 -1.52959e-17 -4.83907)
(0 -0 -5.16558)
(-3.46542e-17 3.09508e-17 -5.33131)
(3.55189e-17 -6.07561e-17 -5.40118)
(-3.17546e-17 -6.45659e-17 -5.41557)
(3.04926e-17 1.23737e-16 -5.39605)
(6.0659e-19 9.52722e-17 -5.35655)
(1.97473e-19 -1.23197e-16 -5.30487)
(-1.28821e-16 -6.38543e-17 -5.24543)
(1.22657e-16 1.24302e-16 -5.18131)
(7.60437e-17 -1.22565e-16 -5.11508)
(-1.3026e-16 -2.33585e-18 -5.04902)
(5.72769e-17 1.24863e-16 -4.98475)
(3.28461e-18 -6.18519e-17 -4.92346)
(0 -0 -4.86576)
(1.25253e-16 -0 -4.81181)
(-1.25388e-16 -0 -4.76135)
(-8.16071e-18 1.20266e-16 -4.71372)
(-1.15263e-16 -1.19031e-16 -4.66795)
(1.32391e-16 -1.21577e-16 -4.62289)
(-8.87601e-18 1.20343e-16 -4.5773)
(0 -0 -4.52999)
(1.21763e-16 -0 -4.48)
(-5.84218e-19 -0 -4.42672)
(-1.31782e-16 1.16966e-16 -4.37013)
(1.32921e-17 -1.16791e-16 -4.31114)
(2.50943e-16 -1.17294e-16 -4.25168)
(-3.74959e-16 1.09866e-16 -4.19235)
(2.1887e-16 -1.54562e-18 -4.1058)
(-2.3684e-17 2.37033e-16 -3.97912)
(-4.27423e-16 -5.33166e-16 -3.84453)
(6.21667e-16 -7.04913e-17 -3.71558)
(3.2325e-16 1.59525e-15 -3.58793)
(-6.39555e-16 -3.19614e-16 -3.48729)
(-1.69004e-16 -1.00368e-15 -3.45492)
(-1.12186e-16 -2.05375e-16 -3.55911)
(-1.3704e-15 8.95569e-17 -3.80285)
(3.24992e-16 3.71378e-16 -4.14092)
(1.04826e-15 7.5459e-16 -4.54208)
(-1.34111e-15 -1.89283e-15 -4.97173)
(1.59895e-15 -1.4994e-15 -5.41404)
(-6.95249e-16 6.62134e-16 -5.85596)
(-5.06906e-17 5.88722e-16 -6.27308)
(-1.68558e-17 -7.44194e-17 -6.67045)
(-4.25114e-17 1.48821e-15 -7.02646)
(5.60867e-16 3.7329e-16 -7.33546)
(1.86459e-16 -1.33566e-15 -7.59814)
(-6.76394e-17 -5.9008e-16 -7.79526)
(1.39968e-16 -8.10286e-17 -7.94136)
(-6.33417e-16 6.47788e-17 -8.0119)
(-3.30206e-16 1.43533e-16 -8.0165)
(-4.15621e-16 1.85785e-17 -7.94158)
(-2.80495e-17 2.62e-16 -7.78167)
(-1.06779e-16 1.90424e-16 -7.54499)
(1.64538e-16 -5.0664e-17 -7.21034)
(6.2836e-17 1.28042e-16 -6.79812)
(-3.02258e-16 -1.66821e-16 -6.30919)
(4.94561e-16 -3.03062e-16 -5.75798)
(3.92066e-16 -7.34938e-16 -5.16484)
(-1.14447e-16 1.63942e-17 -4.54294)
(-5.26679e-16 9.1384e-16 -3.9133)
(-8.71555e-16 4.40412e-16 -3.30428)
(1.25068e-16 4.81851e-17 -2.72957)
(2.29014e-17 -2.19508e-16 -2.20663)
(-6.6152e-16 4.31834e-16 -1.73822)
(1.30434e-18 1.21718e-15 -1.34236)
(1.10886e-15 -1.51448e-15 -1.01583)
(-9.08584e-16 -5.39094e-16 -0.762515)
(1.81954e-15 -1.17358e-15 -0.587969)
(8.87365e-16 -5.24024e-16 -0.477542)
(-1.52462e-16 1.72209e-15 -0.43172)
(6.80337e-16 -4.84824e-16 -0.445002)
(5.68972e-17 -9.52944e-17 -0.501857)
(1.28211e-15 4.9964e-16 -0.597797)
(4.23915e-17 -2.34641e-15 -0.73061)
(8.16029e-16 -2.59855e-15 -0.889279)
(1.41662e-17 2.18787e-15 -1.06389)
(5.21624e-16 -4.0748e-16 -1.24898)
(6.60393e-16 -1.11075e-15 -1.43777)
(-5.57113e-16 4.17645e-16 -1.62618)
(1.13202e-15 -6.93276e-16 -1.81074)
(-1.62416e-15 3.83386e-16 -1.98453)
(-1.02991e-15 1.14326e-16 -2.14643)
(-4.89443e-16 9.73938e-16 -2.29804)
(2.2717e-17 5.98432e-16 -2.43094)
(9.79551e-18 6.21701e-16 -2.54289)
(2.04057e-17 2.75644e-16 -2.63812)
(-2.4087e-16 1.11202e-16 -2.71178)
(2.34571e-16 -3.5785e-16 -2.76484)
(5.4209e-18 -3.28559e-17 -2.80372)
(-7.08735e-17 2.51408e-16 -2.81571)
(1.76256e-17 -2.28626e-16 -2.81701)
(-1.36227e-17 -4.62964e-16 -2.79493)
(6.27223e-16 5.57438e-17 -2.76578)
(5.40963e-17 3.14194e-16 -2.71885)
(-4.67639e-17 -2.15598e-17 -2.67122)
(6.72255e-17 -7.90036e-17 -2.61596)
(1.33117e-18 4.37109e-17 -2.56636)
(-5.24265e-19 -4.22227e-17 -2.52329)
(-1.35912e-18 -9.70835e-17 -2.49142)
(-8.9334e-17 -1.43707e-17 -2.47504)
(-9.48387e-17 -1.29964e-16 -2.47576)
(-3.59475e-16 -9.11392e-17 -2.49508)
(5.4966e-16 6.15534e-16 -2.53384)
(-3.73999e-16 -3.5786e-16 -2.59037)
(3.80525e-16 -7.88462e-17 -2.66426)
(-4.5537e-18 2.39271e-16 -2.75224)
(1.02771e-17 -2.51693e-16 -2.8547)
(1.82377e-17 2.49935e-16 -2.96356)
(7.44633e-18 2.75293e-16 -3.08595)
(-3.41618e-18 -2.77141e-16 -3.20938)
(1.88981e-16 6.53046e-16 -3.3391)
(1.76476e-16 6.63959e-16 -3.47236)
(-8.91384e-16 -1.59969e-15 -3.60462)
(-4.04803e-16 -2.76009e-16 -3.73877)
(9.79091e-16 1.25294e-15 -3.87435)
(2.89104e-16 -8.82514e-16 -4.00865)
(-3.45035e-16 -3.96212e-16 -4.14352)
(-5.61842e-16 -4.78862e-16 -4.28071)
(-2.64429e-16 1.05232e-15 -4.41797)
(-5.18775e-16 -2.11059e-16 -4.5583)
(3.67051e-16 -5.79881e-16 -4.70172)
(-5.98106e-16 -1.43419e-16 -4.84806)
(-6.4432e-16 -1.65465e-15 -4.99947)
(-9.4681e-16 -7.31224e-16 -5.15855)
(-3.65387e-16 2.92174e-16 -5.31853)
(-5.67937e-16 -4.2233e-16 -5.48631)
(-5.61923e-16 -9.3824e-16 -5.66381)
(6.72117e-16 8.21195e-16 -5.83697)
(-7.29728e-16 1.06507e-16 -6.01768)
(-2.76802e-17 -2.60769e-16 -6.20508)
(-5.74088e-17 -7.53729e-17 -6.37515)
(-2.28853e-16 9.05737e-17 -6.55472)
(-8.08458e-18 1.02567e-17 -6.71155)
(-2.47892e-16 4.39387e-17 -6.8569)
(2.43444e-16 1.46709e-16 -6.97718)
(8.85726e-16 7.08863e-17 -7.06503)
(-7.36182e-17 7.64993e-17 -7.11156)
(2.8503e-17 1.97196e-16 -7.11282)
(-1.52668e-16 -2.53967e-17 -7.04351)
(2.39018e-17 -2.64163e-16 -6.92259)
(7.51621e-17 3.83857e-17 -6.70462)
(-1.01901e-16 5.64813e-17 -6.41426)
(1.33405e-16 5.2033e-17 -6.03262)
(-2.26445e-16 1.15841e-16 -5.56037)
(7.04862e-17 -2.77487e-16 -5.02006)
(1.94022e-16 -2.68034e-16 -4.4012)
(-1.63328e-16 2.70166e-16 -3.74982)
(4.50402e-17 -9.97202e-18 -3.06609)
(-1.64704e-16 1.40779e-16 -2.40103)
(-2.0644e-16 2.68819e-16 -1.7777)
(3.62084e-16 -1.82869e-16 -1.25407)
(-2.21608e-16 1.07396e-18 -0.901408)
(5.36768e-18 3.63415e-18 -0.750045)
(4.0525e-16 -3.39012e-16 -0.821831)
(1.72297e-16 -6.79124e-17 -1.22844)
(-2.69631e-16 2.00319e-16 -1.80278)
(2.06978e-17 -4.56303e-17 -2.33741)
(2.24099e-17 -4.49475e-17 -2.7857)
(-2.79984e-17 1.48113e-18 -3.13853)
(-2.98221e-17 -5.31624e-17 -3.43173)
(-1.0513e-17 -3.2863e-17 -3.66728)
(2.8337e-17 3.99716e-17 -3.89101)
(2.42982e-17 1.26253e-18 -4.05592)
(2.91881e-18 1.79842e-17 -4.17975)
(-2.11898e-17 -3.96901e-18 -4.29982)
(2.0623e-18 -2.01185e-17 -4.42887)
(4.19196e-17 2.61469e-18 -4.56823)
(-4.2891e-17 -1.27893e-18 -4.7132)
(-2.07878e-18 -1.91477e-17 -4.85725)
(-1.98559e-17 1.28821e-17 -4.9899)
(3.80956e-17 3.67374e-17 -5.10382)
(-2.12633e-17 -2.80402e-17 -5.19357)
(1.1426e-18 -1.87151e-17 -5.25923)
(1.09997e-18 1.6061e-17 -5.30216)
(-9.82786e-18 6.43395e-20 -5.32399)
(7.80211e-18 4.03432e-18 -5.32753)
(2.14273e-18 1.07796e-18 -5.31607)
(1.09222e-17 -1.05888e-17 -5.2929)
(-1.0538e-17 -2.33117e-18 -5.26124)
(-6.02098e-18 4.57037e-18 -5.22405)
(6.89458e-18 1.66109e-18 -5.18383)
(-4.83267e-18 5.4348e-19 -5.14252)
(4.65777e-18 -9.00611e-19 -5.10153)
(-1.50265e-18 -1.44206e-18 -5.06179)
(2.6272e-18 1.145e-18 -5.02384)
(1.7372e-18 2.91942e-18 -4.98786)
(-1.4148e-18 -2.12237e-18 -4.95376)
(2.50726e-19 -1.43221e-18 -4.92123)
(5.99911e-20 1.13991e-18 -4.88979)
(-4.13573e-19 -6.11517e-19 -4.85893)
(1.09811e-19 -6.42351e-21 -4.82865)
(1.74032e-19 3.29047e-19 -4.80055)
(1.91168e-19 1.21408e-19 -4.7786)
(3.07445e-20 -6.99331e-20 -4.77784)
(0 -0 2.34732)
(8.11929e-18 -0 1.41372)
(-7.98224e-18 -1.50229e-17 0.0891728)
(2.39947e-20 1.34536e-17 -1.24033)
(-1.73722e-19 1.66162e-17 -2.4416)
(2.2196e-19 -1.50469e-17 -3.42077)
(3.12572e-17 -0 -4.18026)
(-3.13262e-17 -0 -4.75727)
(1.85681e-18 -0 -5.19234)
(-3.96921e-18 -0 -5.51701)
(-6.60599e-17 6.01797e-17 -5.75658)
(6.81172e-17 -5.61648e-17 -5.92954)
(6.66113e-17 -4.35572e-18 -6.04942)
(-2.42882e-18 -5.60251e-17 -6.12675)
(2.03172e-19 -7.52283e-18 -6.16972)
(-6.59099e-17 1.83935e-16 -6.18548)
(-6.44808e-17 -1.16702e-16 -6.18045)
(6.90686e-17 -6.32909e-17 -6.16039)
(-3.18345e-18 5.9947e-17 -6.1304)
(6.78126e-17 -1.18133e-16 -6.09481)
(-6.81141e-17 1.11971e-16 -6.05709)
(-7.45612e-18 1.24422e-16 -6.0198)
(-2.45506e-19 -1.52366e-18 -5.98464)
(1.64157e-17 -1.10913e-16 -5.95246)
(1.19457e-16 -1.22646e-16 -5.92343)
(-1.28028e-16 1.16823e-16 -5.89716)
(-1.09182e-16 -1.14841e-16 -5.87289)
(7.59552e-19 -4.7591e-18 -5.84965)
(2.16043e-16 2.29557e-16 -5.82642)
(-1.27743e-16 1.18168e-16 -5.80231)
(3.87076e-17 -3.36877e-16 -5.77653)
(-1.23963e-16 -9.23477e-18 -5.74852)
(1.04922e-16 1.25688e-16 -5.71773)
(1.07679e-16 -4.74221e-18 -5.67248)
(-1.38153e-16 2.18053e-16 -5.58883)
(2.67203e-16 -1.90532e-16 -5.45495)
(-8.99201e-16 -6.77745e-16 -5.27734)
(-8.75847e-16 -7.76521e-16 -5.0776)
(9.66662e-16 6.59371e-16 -4.8858)
(3.92614e-16 9.79876e-16 -4.73518)
(-1.25469e-16 1.26829e-15 -4.67558)
(1.08535e-15 -5.75081e-16 -4.70645)
(3.19774e-16 -2.33568e-15 -4.83678)
(-1.12162e-15 6.52326e-16 -5.05825)
(4.92621e-16 1.35218e-15 -5.34452)
(-1.08906e-15 -3.45815e-16 -5.68358)
(-7.31756e-16 -1.20299e-16 -6.05925)
(-4.89133e-16 -2.6491e-16 -6.45085)
(-6.98244e-16 -3.21357e-16 -6.85978)
(-4.96157e-16 -1.28041e-15 -7.26367)
(1.26881e-15 4.63223e-16 -7.65683)
(-6.79632e-16 7.97301e-16 -8.03553)
(4.69286e-17 5.9526e-16 -8.38647)
(-8.09216e-16 -3.06292e-16 -8.71944)
(-4.0308e-17 -1.1681e-16 -9.01394)
(3.4966e-18 -3.4192e-16 -9.27692)
(-5.32151e-16 -3.53665e-16 -9.49325)
(-1.52183e-16 -1.29423e-16 -9.65708)
(8.98093e-18 -3.1222e-17 -9.76629)
(8.60348e-17 -1.30886e-17 -9.80355)
(-1.58663e-16 7.70562e-17 -9.77634)
(3.38199e-16 -1.973e-16 -9.67075)
(-4.63509e-16 5.22988e-17 -9.49575)
(1.79484e-16 8.96711e-16 -9.25591)
(-8.49413e-16 7.06444e-16 -8.96145)
(7.75339e-16 -8.24417e-16 -8.61989)
(-2.34071e-16 -3.3131e-16 -8.26326)
(1.52092e-16 -1.66889e-16 -7.896)
(-5.71268e-16 6.69233e-16 -7.54452)
(3.75852e-16 -1.65935e-16 -7.21085)
(2.56585e-16 -1.48699e-15 -6.91238)
(6.48745e-16 6.0588e-16 -6.65567)
(-6.74725e-16 3.72746e-16 -6.43221)
(6.81359e-17 -8.75846e-16 -6.25797)
(-8.96981e-16 1.40605e-15 -6.11827)
(4.5191e-17 -7.15548e-16 -6.01042)
(7.63351e-16 -5.12376e-16 -5.93401)
(5.11312e-17 -6.17479e-17 -5.87719)
(1.53159e-15 -1.57911e-15 -5.83455)
(1.33663e-15 -1.03537e-16 -5.80453)
(-2.70482e-15 3.21034e-15 -5.77761)
(-6.77421e-16 -3.17176e-16 -5.74658)
(7.00854e-16 -1.10633e-15 -5.70996)
(-6.35261e-16 1.10551e-15 -5.6637)
(3.48794e-18 -6.79932e-16 -5.60518)
(-1.11727e-15 2.07978e-15 -5.53586)
(1.08204e-15 1.93275e-15 -5.45234)
(-2.77064e-16 -5.42997e-16 -5.35168)
(-4.92375e-16 -1.70178e-15 -5.24065)
(-1.51743e-15 1.76139e-16 -5.11374)
(-2.39844e-16 1.30409e-16 -4.9682)
(1.47403e-17 1.07777e-17 -4.81394)
(2.35011e-16 -9.82288e-17 -4.64549)
(-3.40333e-17 -2.79121e-16 -4.45992)
(-3.97593e-16 1.83704e-16 -4.27358)
(-1.92621e-17 2.46326e-16 -4.06998)
(1.99106e-16 -1.02499e-16 -3.8716)
(-6.13417e-16 -4.45033e-17 -3.66189)
(-3.39058e-16 9.80953e-17 -3.46236)
(-1.89343e-17 1.85782e-16 -3.25997)
(9.27031e-17 -1.73274e-17 -3.07467)
(-8.90251e-17 6.6107e-17 -2.89979)
(5.63308e-17 -1.53565e-17 -2.74684)
(-6.08137e-19 -1.28652e-17 -2.61831)
(7.64075e-19 9.42572e-17 -2.51682)
(-1.86026e-16 1.10744e-16 -2.44668)
(9.60435e-19 1.12701e-16 -2.40893)
(-1.81261e-16 -5.95438e-16 -2.40292)
(-1.73486e-16 -7.14877e-17 -2.42987)
(3.52505e-16 5.91183e-16 -2.48642)
(-1.0449e-17 -2.21036e-16 -2.57113)
(5.72325e-18 -1.19005e-17 -2.68023)
(2.00732e-18 2.35557e-16 -2.81248)
(-1.98715e-16 -8.83133e-17 -2.95995)
(3.70018e-16 -4.97127e-17 -3.12781)
(9.27576e-18 -2.00536e-16 -3.30227)
(-6.11886e-16 -1.15707e-15 -3.48934)
(2.92e-16 8.37705e-16 -3.68381)
(8.44165e-16 1.92084e-15 -3.88068)
(-5.00152e-16 -1.35436e-15 -4.08262)
(8.77504e-16 -5.42931e-16 -4.28711)
(-7.63056e-16 5.04675e-16 -4.4907)
(-3.91901e-16 9.08176e-16 -4.69551)
(-1.69346e-16 9.93451e-19 -4.90153)
(-5.32553e-16 -9.7119e-16 -5.1057)
(1.49413e-15 5.82241e-16 -5.31096)
(-9.25914e-17 1.00781e-17 -5.51652)
(4.36541e-16 8.1405e-16 -5.72207)
(-3.31079e-16 4.07131e-16 -5.92941)
(-6.56054e-16 -4.76776e-16 -6.1402)
(-3.04797e-16 -6.33029e-16 -6.34917)
(-5.28658e-17 7.10385e-17 -6.56345)
(-5.47737e-16 -2.59366e-16 -6.78363)
(-6.0879e-16 -7.54673e-16 -6.9976)
(-5.44779e-18 1.85762e-16 -7.2205)
(-1.04579e-16 -2.13157e-16 -7.44812)
(-5.13703e-16 -5.7612e-17 -7.66426)
(-1.08002e-16 -2.14405e-17 -7.89579)
(1.46143e-16 2.22857e-17 -8.11329)
(9.8873e-17 -2.51964e-16 -8.33218)
(2.25962e-16 -7.45057e-16 -8.54283)
(-3.24218e-16 2.15265e-17 -8.74174)
(-1.09069e-16 2.76845e-16 -8.92645)
(2.42214e-16 2.78709e-16 -9.09401)
(3.34213e-16 7.84026e-17 -9.22717)
(1.15871e-16 -4.95101e-17 -9.34199)
(-1.17064e-16 5.83195e-17 -9.39716)
(7.39539e-17 3.36103e-18 -9.41546)
(-5.93104e-17 -2.61855e-18 -9.36517)
(2.80474e-16 -4.19434e-17 -9.24404)
(4.7672e-17 -9.64518e-17 -9.0605)
(-2.86292e-16 3.25036e-16 -8.7882)
(-8.2282e-17 -4.20938e-17 -8.46492)
(9.71826e-17 -7.62314e-17 -8.07664)
(-2.30119e-16 1.82011e-16 -7.6676)
(8.73911e-17 -3.52847e-16 -7.25548)
(-2.2985e-16 1.06096e-16 -6.88959)
(2.86429e-16 2.86347e-17 -6.6227)
(-2.16603e-17 -1.7719e-16 -6.49617)
(2.07314e-17 3.90631e-17 -6.54243)
(-1.41761e-16 2.06163e-16 -6.76806)
(1.22603e-16 -4.11068e-17 -7.17111)
(2.18947e-17 -5.64898e-17 -7.50327)
(1.15684e-16 -8.57286e-18 -7.69416)
(-2.36462e-17 4.93708e-17 -7.71731)
(2.60783e-17 1.55137e-17 -7.60901)
(-7.298e-17 -2.00526e-17 -7.40555)
(-5.22226e-18 -4.08178e-17 -7.16083)
(4.91166e-18 1.45639e-17 -6.87734)
(2.52904e-17 3.7782e-17 -6.59592)
(-3.05149e-19 3.73247e-18 -6.35862)
(-7.88871e-18 -3.81006e-17 -6.18717)
(-4.87885e-18 1.19358e-17 -6.08682)
(4.74879e-18 2.71426e-17 -6.05291)
(4.38839e-18 -1.39031e-17 -6.07507)
(-4.21385e-17 -1.66928e-18 -6.13896)
(3.51084e-17 -1.55971e-17 -6.22998)
(1.78421e-17 4.87049e-18 -6.33469)
(-1.30019e-17 2.3083e-17 -6.44032)
(-4.38524e-18 -1.24479e-17 -6.53797)
(8.97173e-18 1.5374e-18 -6.62127)
(-6.63777e-18 -2.96868e-18 -6.68637)
(7.89953e-19 -6.35092e-18 -6.73163)
(5.64331e-18 2.47825e-18 -6.75721)
(-1.1824e-17 9.88543e-18 -6.7646)
(7.6233e-19 -5.38219e-18 -6.75618)
(-1.68813e-18 -2.3767e-18 -6.73476)
(-1.32094e-18 4.41059e-18 -6.70325)
(3.28425e-18 3.60994e-20 -6.66442)
(-4.0688e-18 -7.52661e-18 -6.62072)
(-3.83113e-18 9.69412e-19 -6.57417)
(3.95381e-18 4.00362e-19 -6.52634)
(-1.24416e-18 1.87626e-18 -6.47838)
(-1.27371e-18 -1.86168e-18 -6.43105)
(4.83042e-20 2.79412e-18 -6.3848)
(7.5593e-19 -2.23129e-19 -6.33988)
(-6.84823e-19 2.39186e-19 -6.29681)
(-7.37425e-20 -7.88086e-19 -6.25744)
(2.56185e-19 -1.23964e-18 -6.22507)
(-1.04317e-19 1.86283e-19 -6.21403)
(0 -0 1.64897)
(0 -0 1.44473)
(1.33371e-19 -1.50689e-17 0.961766)
(3.03086e-19 1.33185e-17 0.222811)
(-5.27841e-19 1.67597e-17 -0.642003)
(7.44706e-19 -4.45718e-17 -1.48049)
(3.12911e-17 2.61334e-17 -2.25414)
(-6.41416e-17 6.2482e-17 -2.94374)
(3.26455e-17 -8.51258e-17 -3.51148)
(1.01319e-18 -6.69546e-18 -3.98281)
(-2.25311e-18 6.22561e-17 -4.37125)
(6.48823e-17 -2.94877e-17 -4.68577)
(-1.22697e-16 -5.84326e-17 -4.93439)
(1.25214e-16 -5.88262e-18 -5.12678)
(-1.35551e-16 1.7524e-16 -5.27063)
(6.59394e-17 -4.66421e-17 -5.37305)
(9.44206e-18 -1.2263e-16 -5.44097)
(-6.54216e-18 5.83467e-17 -5.48108)
(3.22558e-18 -5.75435e-17 -5.49978)
(5.61145e-17 5.20319e-17 -5.50307)
(-7.02004e-17 6.31332e-17 -5.4963)
(1.08123e-17 -5.76215e-17 -5.48405)
(-1.25009e-16 1.13335e-16 -5.47005)
(1.40336e-16 -2.15635e-16 -5.45709)
(-6.96244e-18 -2.15489e-17 -5.44708)
(-2.55603e-17 3.487e-16 -5.4411)
(8.34256e-18 -1.03275e-16 -5.43956)
(2.00402e-17 -3.3463e-16 -5.44236)
(-1.22931e-16 9.17815e-17 -5.44904)
(9.24038e-17 3.42557e-16 -5.45894)
(1.66723e-17 -1.02252e-16 -5.47121)
(5.62835e-18 -2.20479e-16 -5.48505)