/*--------------------------------*- C++ -*----------------------------------*\
| =========                 |                                                 |
| \\      /  F ield         | OpenFOAM: The Open Source CFD Toolbox           |
|  \\    /   O peration     | Version:  2506                                  |
|   \\  /    A nd           | Website:  www.openfoam.com                      |
|    \\/     M anipulation  |                                                 |
\*---------------------------------------------------------------------------*/
FoamFile
{
    version     2.0;
    format      ascii;
    arch        "LSB;label=32;scalar=64";
    class       volScalarField;
    location    "2.93143";
    object      s;
}
// * * * * * * * * * * * * * * * * * * * * * * * * * * * * * * * * * * * * * //

dimensions      [0 0 0 0 0 0 0];

internalField   nonuniform List<scalar> 
4000
(
1.40474e-19
-6.63444e-19
2.51566e-18
-5.76373e-18
-1.8818e-18
1.31586e-15
3.77984e-15
-5.05094e-13
-2.03934e-11
-2.13199e-10
-9.14008e-10
-3.4886e-09
1.03399e-08
4.09979e-07
6.77265e-06
7.58392e-05
0.000717981
0.010375
0.0455822
0.110689
0.172313
0.196356
0.196878
0.186711
0.149939
0.0874728
0.0300852
0.0049044
0.00119415
0.00120982
0.0013078
0.00161187
0.00234554
0.00391558
0.00678417
0.0119554
0.019238
0.0269597
0.0352593
0.0436963
0.0519945
0.0571896
0.0585738
0.0582637
0.0572377
0.0560387
0.0549913
0.0537601
0.0528087
0.0519724
0.0512179
0.0507312
0.0502817
0.0499166
0.0494176
0.0486205
0.0472619
0.0450996
0.0419533
0.0375564
0.031865
0.0251972
0.0184542
0.0125083
0.00785055
0.00458089
0.0025018
0.0013016
0.000659088
0.000331029
0.000165601
8.08275e-05
3.79373e-05
1.74579e-05
8.357e-06
4.26108e-06
2.21597e-06
1.12948e-06
5.53998e-07
2.59755e-07
1.16515e-07
5.02866e-08
2.09353e-08
8.39201e-09
3.23078e-09
1.19372e-09
4.2042e-10
1.38262e-10
4.1977e-11
1.0463e-11
1.11129e-12
-6.6794e-13
-8.07032e-13
-6.2275e-13
-4.52566e-13
-5.36892e-13
-8.30832e-13
-1.22664e-12
-1.17003e-12
-2.0154e-13
8.89247e-15
3.90132e-14
-1.41769e-12
-1.42975e-11
-6.84535e-11
-2.33577e-10
-4.66582e-10
-8.47217e-10
-1.44367e-09
-4.27454e-09
-3.44028e-08
-1.27325e-07
-2.86062e-07
-5.30861e-07
-8.19355e-07
-1.21559e-06
-1.65478e-06
-2.16955e-06
-2.70187e-06
-3.22584e-06
-3.75132e-06
-4.24821e-06
-4.71567e-06
-5.19615e-06
-5.5376e-06
-5.75265e-06
-5.83179e-06
-5.75556e-06
-5.58068e-06
-5.36961e-06
-5.03913e-06
-4.73266e-06
-4.50295e-06
-4.17426e-06
-3.91698e-06
-3.78512e-06
-3.49069e-06
-3.35003e-06
-3.13793e-06
-2.92695e-06
-2.68554e-06
-2.40111e-06
-2.07562e-06
-1.71282e-06
-1.32682e-06
-9.48111e-07
-6.12545e-07
-3.54796e-07
-1.84216e-07
-8.71149e-08
-3.93795e-08
-1.83682e-08
-9.16878e-09
-4.59772e-09
-1.94473e-09
-5.69398e-10
-1.89999e-10
-1.91896e-10
-3.1046e-10
-5.36638e-10
-9.34546e-10
-1.57144e-09
-2.84062e-09
-5.44249e-09
-9.95226e-09
-1.56745e-08
-2.32584e-08
-1.14686e-07
-1.89596e-07
-2.05217e-07
-1.3661e-07
-6.82238e-08
-1.96264e-08
-5.64049e-09
-1.66244e-09
-3.60466e-10
5.87523e-11
1.40153e-10
1.27787e-10
9.44448e-11
6.34526e-11
4.05419e-11
2.56747e-11
1.59862e-11
8.8043e-12
3.61816e-12
7.53705e-13
-4.42382e-13
-6.09941e-13
-3.65218e-13
-1.58761e-13
-9.41162e-14
-7.36285e-14
-4.4325e-14
-2.00616e-14
-8.42482e-15
-3.37451e-15
-1.26863e-15
-4.27114e-16
-1.13082e-16
6.87979e-20
-2.00789e-19
2.7716e-19
1.38599e-18
-2.45608e-17
2.12782e-16
-6.82046e-16
-9.62337e-14
-2.47941e-12
-3.23209e-11
-2.23799e-10
-2.27363e-09
-1.37129e-08
-2.56718e-09
1.06032e-06
1.47327e-05
9.5467e-05
0.000419746
0.00129517
0.00301447
0.00564214
0.00879602
0.0116463
0.0141931
0.016119
0.0175021
0.0178633
0.0177612
0.0178552
0.0179944
0.0181597
0.0185036
0.019237
0.0211151
0.0260478
0.0355463
0.0488777
0.0639692
0.077794
0.0853574
0.0853258
0.0825774
0.0811448
0.080676
0.0808302
0.0810303
0.0808618
0.0807172
0.0800747
0.0791392
0.0780047
0.0764229
0.0747229
0.0729424
0.0713301
0.0699989
0.0690938
0.0686341
0.0686263
0.0687252
0.0688914
0.0691388
0.0697645
0.0709284
0.0721516
0.0732371
0.0734782
0.0722702
0.0674369
0.0549182
0.0367909
0.0190007
0.00939556
0.00497172
0.00276999
0.00162757
0.000950804
0.000529499
0.000279657
0.000140604
6.78135e-05
3.16198e-05
1.42438e-05
6.1827e-06
2.58385e-06
1.04369e-06
4.08297e-07
1.54925e-07
5.75297e-08
2.08426e-08
7.31821e-09
2.4861e-09
7.866e-10
2.0449e-10
1.13254e-12
-1.06884e-10
-2.51636e-10
-5.16964e-10
-7.33999e-10
-8.84023e-10
-1.3885e-09
-3.79793e-09
-1.3004e-08
-4.73205e-08
-1.52243e-07
-4.06869e-07
-8.96166e-07
-1.72249e-06
-2.78164e-06
-4.15545e-06
-6.07929e-06
-8.49179e-06
-1.17863e-05
-1.60984e-05
-2.08819e-05
-2.54992e-05
-2.65013e-05
-2.74508e-05
-2.79541e-05
-2.79522e-05
-2.80239e-05
-2.81386e-05
-2.82956e-05
-2.85078e-05
-2.85794e-05
-2.84846e-05
-2.8215e-05
-2.77793e-05
-2.71709e-05
-2.6358e-05
-2.5507e-05
-2.45705e-05
-2.34648e-05
-2.24382e-05
-2.14029e-05
-2.02519e-05
-1.93284e-05
-1.83937e-05
-1.7649e-05
-1.7081e-05
-1.67249e-05
-1.65926e-05
-1.66249e-05
-1.67584e-05
-1.6941e-05
-1.71324e-05
-1.71573e-05
-1.69625e-05
-1.63727e-05
-1.5244e-05
-1.34531e-05
-1.10055e-05
-8.07943e-06
-5.05124e-06
-2.31934e-06
-4.6054e-07
-1.17218e-07
-2.01336e-07
-3.29131e-07
-5.01929e-07
-7.03628e-07
-1.19406e-06
-2.14553e-06
-3.42209e-06
-5.03959e-06
-7.44496e-06
-1.04014e-05
-1.45056e-05
-1.59992e-05
-1.42708e-05
-1.05627e-05
-6.68622e-06
-3.85595e-06
-1.8714e-06
-8.63987e-07
-5.43202e-07
-3.87178e-07
-2.65612e-07
-1.79642e-07
-1.37509e-07
-1.08522e-07
-8.11684e-08
-5.54771e-08
-3.45272e-08
-2.13652e-08
-1.48545e-08
-1.01719e-08
-6.71168e-09
-4.20717e-09
-2.50108e-09
-1.35608e-09
-6.83095e-10
-3.30529e-10
-1.53217e-10
-6.69263e-11
-2.81254e-11
-1.16481e-11
-4.76588e-12
-1.88073e-12
-6.17205e-13
-8.3404e-21
5.8554e-20
-3.23903e-19
1.26268e-18
-4.62623e-18
1.06492e-17
-1.31243e-16
-6.12748e-15
-9.45995e-14
-8.83661e-13
-7.11791e-12
-1.00184e-10
-6.75626e-10
-1.41839e-09
1.43168e-08
6.27754e-08
3.3983e-08
8.74372e-08
2.70177e-07
6.87896e-07
1.46067e-06
2.55883e-06
3.99817e-06
6.53173e-06
1.66297e-05
8.08368e-05
0.000565823
0.00141188
0.00215889
0.00294346
0.00384067
0.00494667
0.00630507
0.00797291
0.00940738
0.0100153
0.0100516
0.00996259
0.00977277
0.00927268
0.00826761
0.0073544
0.00682594
0.0065741
0.00655086
0.00666816
0.00684423
0.00714022
0.00747211
0.00786199
0.00837566
0.00907472
0.0103194
0.012019
0.0145766
0.0179179
0.0221092
0.0269888
0.0320407
0.0378338
0.043747
0.0497982
0.0559911
0.062147
0.0674076
0.0715994
0.0757243
0.0800656
0.083391
0.0841207
0.082357
0.0789045
0.0731099
0.0638121
0.0520157
0.0375106
0.0226907
0.0132406
0.00789073
0.00470269
0.00285312
0.00175215
0.00103949
0.000586728
0.00031598
0.000164548
8.40238e-05
4.19137e-05
2.04221e-05
9.64079e-06
4.38939e-06
1.93843e-06
8.25404e-07
3.37032e-07
1.31885e-07
4.65663e-08
1.06266e-08
-1.11518e-08
-6.70674e-08
-1.45175e-07
-2.65615e-07
-4.44541e-07
-7.5752e-07
-1.34094e-06
-2.53528e-06
-4.87228e-06
-8.88792e-06
-1.49992e-05
-2.21317e-05
-2.58524e-05
-2.67684e-05
-2.39599e-05
-1.67478e-05
-5.76011e-06
1.01436e-05
5.31188e-05
0.000447221
0.00120862
0.00223534
0.0034802
0.00489013
0.00636461
0.00779723
0.00914464
0.0103319
0.011346
0.0121795
0.0128179
0.0133037
0.01371
0.0139261
0.0140354
0.014184
0.0141099
0.0139598
0.0138924
0.0134709
0.013086
0.0124869
0.0117122
0.0107178
0.00949858
0.0081383
0.00682398
0.00548429
0.00423886
0.0030751
0.00211998
0.00137399
0.000830623
0.000467206
0.000238881
0.000111601
4.65594e-05
1.64651e-05
2.76734e-06
-3.20682e-06
-5.13486e-06
-5.41198e-06
-5.25854e-06
-5.48289e-06
-7.18515e-06
-1.33898e-05
-2.90902e-05
-4.77283e-05
-6.58787e-05
-7.87718e-05
-8.39048e-05
-7.84607e-05
-6.9491e-05
-6.15924e-05
-5.55668e-05
-4.82593e-05
-2.80633e-05
-1.56642e-05
-1.05886e-05
-1.00174e-05
-1.17574e-05
-1.41047e-05
-1.65688e-05
-1.86132e-05
-1.9851e-05
-2.00039e-05
-1.89227e-05
-1.67004e-05
-1.38929e-05
-1.10045e-05
-8.29215e-06
-5.96453e-06
-4.01667e-06
-2.26995e-06
-1.10008e-06
-5.02537e-07
-2.20757e-07
-9.164e-08
-3.57988e-08
-1.40982e-08
-5.91304e-09
-2.57502e-09
-1.02463e-09
-1.54052e-20
5.76383e-20
-1.45986e-19
2.979e-19
-3.86847e-19
-3.54298e-19
-4.16726e-17
1.29045e-16
-1.21833e-14
3.47701e-14
1.41415e-13
-1.04066e-12
-4.48995e-12
-6.14936e-11
-1.02196e-10
-6.01058e-10
-1.80019e-09
-7.2998e-09
-2.06995e-08
-4.51264e-08
-7.13269e-08
-8.94824e-08
-9.455e-08
-8.19251e-08
-4.60229e-08
1.75276e-08
2.50275e-07
5.07978e-07
7.55592e-07
1.03321e-06
1.45614e-06
1.12914e-05
9.59014e-05
0.000309816
0.0005749
0.000724308
0.000758129
0.00070989
0.000616621
0.000506089
0.000392221
0.000307766
0.00025531
0.000223246
0.000205221
0.00019574
0.000191289
0.00019251
0.00019664
0.000204354
0.000216075
0.000230462
0.000249748
0.000271589
0.000298169
0.000372984
0.000719038
0.00156664
0.00301604
0.00553441
0.00919343
0.0144756
0.0212006
0.0288948
0.0376031
0.0463005
0.0546992
0.062674
0.0701895
0.075927
0.0792266
0.0814061
0.0842189
0.0871905
0.088268
0.0877318
0.0858952
0.0824122
0.0756508
0.0633512
0.0481283
0.0317659
0.0188618
0.0114241
0.0069093
0.00424648
0.00269791
0.00168365
0.00101264
0.000582957
0.000322594
0.000174825
9.25613e-05
4.76703e-05
2.39553e-05
1.14943e-05
5.18954e-06
1.91667e-06
6.61139e-08
-1.23751e-06
-2.45673e-06
-3.66322e-06
-4.82328e-06
-5.44156e-06
-4.49004e-06
-7.39946e-08
1.11961e-05
4.05635e-05
0.000143125
0.000750702
0.00233708
0.00500134
0.00891685
0.0142151
0.0208568
0.0283747
0.0361761
0.0438248
0.0509452
0.0575324
0.0635907
0.0688967
0.0734333
0.0773494
0.080654
0.0833969
0.085644
0.0874811
0.0890576
0.090558
0.091868
0.0930872
0.0944639
0.0957022
0.0969151
0.0983358
0.0993336
0.100271
0.100702
0.100487
0.0993519
0.0968752
0.092705
0.0867197
0.0782325
0.0681646
0.0559578
0.0429738
0.0304259
0.0203329
0.0131293
0.00808066
0.00483417
0.00277983
0.00156829
0.000874312
0.000489669
0.000289881
0.000194977
0.000154099
0.000129015
0.000111687
8.67351e-05
6.52459e-05
8.53437e-05
0.000308728
0.00220545
0.00501555
0.00664942
0.00615431
0.00406363
0.00179228
0.000448239
0.000114462
6.89247e-06
-2.0561e-05
-2.15726e-05
-1.84812e-05
-1.92695e-05
-2.50038e-05
-3.42702e-05
-4.62132e-05
-5.74991e-05
-6.55077e-05
-6.78516e-05
-6.76533e-05
-6.56359e-05
-6.05941e-05
-5.21633e-05
-4.02319e-05
-2.75177e-05
-1.87887e-05
-1.17336e-05
-6.27564e-06
-2.49879e-06
-8.00999e-07
-3.68927e-07
-2.43413e-07
-1.4972e-07
-8.6004e-08
-1.53086e-21
7.91989e-21
-1.68767e-20
1.15203e-19
-8.88963e-19
6.62178e-18
-5.2689e-17
4.2212e-16
-2.85083e-15
1.8431e-14
3.29704e-14
2.37013e-14
3.16699e-14
-2.72724e-13
-1.52362e-11
-1.04462e-10
-2.52784e-10
-8.89302e-10
-2.47161e-09
-4.52781e-09
-6.21893e-09
-7.16159e-09
-7.5999e-09
-7.53706e-09
-6.2272e-09
-3.35503e-09
-1.68201e-08
-3.50176e-08
-5.6121e-08
-7.09132e-08
-8.20186e-08
-3.81514e-08
2.05748e-08
1.2102e-07
2.52171e-07
4.62045e-07
7.2191e-07
9.49969e-07
1.08595e-06
1.10996e-06
1.02739e-06
9.25985e-07
8.44287e-07
7.84965e-07
7.49673e-07
7.317e-07
7.2528e-07
7.35069e-07
7.53507e-07
7.84101e-07
8.28781e-07
8.82773e-07
9.34409e-07
9.24301e-07
7.64202e-07
4.98541e-07
7.13518e-07
2.24857e-06
6.56228e-06
1.70679e-05
3.77279e-05
0.000337216
0.00143739
0.00361325
0.00736887
0.0129514
0.0203616
0.0284178
0.0368135
0.0452269
0.0532259
0.0598842
0.0653418
0.0708231
0.0754639
0.0793854
0.0826149
0.0863706
0.0921912
0.09722
0.098581
0.0976612
0.094466
0.0895515
0.0786683
0.0634954
0.0472499
0.0309626
0.0189476
0.0117263
0.00738856
0.00494758
0.00337177
0.00227475
0.00149436
0.00092074
0.00054995
0.00032887
0.000197817
0.000124075
0.000105258
0.000197546
0.000485315
0.00115677
0.00253111
0.00504161
0.00919825
0.0155927
0.0246851
0.0361124
0.0487232
0.0621539
0.075679
0.0884297
0.100329
0.110809
0.119855
0.127587
0.133969
0.138949
0.142579
0.145068
0.146658
0.147577
0.147962
0.147958
0.147737
0.147486
0.147366
0.147507
0.148019
0.148973
0.150365
0.152167
0.154353
0.1569
0.159762
0.162917
0.166279
0.16977
0.1733
0.176618
0.179387
0.181021
0.180368
0.177009
0.168715
0.15481
0.13567
0.112329
0.0874034
0.0623513
0.0406032
0.0248491
0.0152831
0.00926028
0.00560475
0.00348591
0.00240883
0.00202441
0.00220866
0.00283131
0.00384399
0.00625116
0.0149451
0.0330959
0.0579904
0.0804255
0.0942583
0.097573
0.0905996
0.0751427
0.0542571
0.0328547
0.0169564
0.00723003
0.00254521
0.000843235
0.000283096
9.63698e-05
2.84112e-05
-3.06506e-07
-1.61983e-05
-2.84238e-05
-3.98574e-05
-5.05791e-05
-5.92791e-05
-6.12383e-05
-3.39412e-05
5.76441e-05
0.000138936
0.000140723
8.36827e-05
3.20661e-05
8.06405e-06
-1.13473e-06
-3.88315e-06
-4.11304e-06
-3.50923e-06
-2.76064e-06
7.93999e-22
-2.49771e-21
-6.75856e-23
5.83483e-20
-4.63653e-19
2.6315e-18
-1.22011e-17
4.96332e-17
-5.53097e-17
5.69784e-16
-2.75975e-16
1.48359e-15
3.81045e-15
1.01286e-14
-2.32708e-13
-1.58191e-12
5.89162e-13
3.38026e-12
-2.24228e-12
-1.4973e-11
-3.03785e-11
-4.49647e-11
-5.59448e-11
-6.32355e-11
-1.13519e-10
-2.33867e-10
-1.47392e-09
-2.92841e-09
-4.43446e-09
-5.91721e-09
-7.64244e-09
-9.14364e-09
-1.43788e-08
-1.67946e-08
-3.00058e-09
1.37362e-08
3.76634e-08
6.53913e-08
8.89294e-08
1.01133e-07
9.88215e-08
8.95568e-08
7.90522e-08
6.96091e-08
6.22217e-08
5.65746e-08
5.21602e-08
4.91201e-08
4.68546e-08
4.53995e-08
4.47227e-08
4.46114e-08
4.50249e-08
4.37225e-08
3.49755e-08
1.36095e-08
-7.31147e-08
-2.10712e-07
-5.09543e-07
-1.1167e-06
-4.34664e-06
-8.31056e-06
-5.52375e-06
1.0834e-05
5.42765e-05
0.000282592
0.00146138
0.00371594
0.00723807
0.012162
0.0181832
0.0244631
0.0302455
0.0355789
0.040516
0.0452493
0.0501825
0.0546481
0.0598307
0.0666682
0.0734766
0.0810942
0.0886116
0.0966077
0.104105
0.107372
0.107402
0.104746
0.100271
0.0936028
0.0841585
0.0737181
0.0627322
0.0507865
0.0378417
0.0266434
0.0214576
0.0212948
0.0236552
0.0267269
0.0296649
0.0326621
0.0366213
0.0425241
0.0509341
0.0616221
0.0743577
0.0884286
0.103276
0.1175
0.129682
0.139263
0.14633
0.151512
0.155606
0.15883
0.16127
0.16296
0.163875
0.164068
0.163529
0.162479
0.160944
0.159007
0.156798
0.154468
0.152208
0.150186
0.148495
0.147157
0.146228
0.145632
0.145286
0.145406
0.145914
0.146854
0.148575
0.150934
0.154153
0.158265
0.163272
0.169043
0.174956
0.180924
0.187406
0.194354
0.201823
0.208051
0.212044
0.209345
0.201264
0.184428
0.15753
0.124281
0.0916983
0.0626583
0.0400101
0.0255101
0.0178615
0.0139451
0.0141765
0.0176211
0.0260397
0.046563
0.0830937
0.127349
0.172351
0.209682
0.235029
0.24747
0.247884
0.237022
0.21545
0.184463
0.146939
0.107368
0.0695646
0.0384975
0.0203063
0.011005
0.00623425
0.00386221
0.00286846
0.00278732
0.00347015
0.00500256
0.00762033
0.0114483
0.016305
0.0217681
0.0266346
0.0295977
0.029914
0.0273076
0.0223087
0.0167238
0.0119475
0.00832389
0.00572898
0.00362764
-1.8563e-23
-2.58098e-22
-1.37595e-22
3.31848e-21
-1.18898e-20
-2.88806e-20
9.44428e-19
-9.21904e-18
5.12436e-17
1.32645e-17
-8.31868e-17
-1.25828e-16
-2.4258e-17
1.05227e-15
-1.96008e-15
-1.97071e-14
8.21196e-14
3.28687e-13
5.62449e-13
7.19236e-13
7.84679e-13
7.88263e-13
7.8941e-13
8.46709e-13
4.44625e-13
3.99702e-12
-5.28648e-12
-1.9558e-11
-4.982e-11
-1.15498e-10
-2.1859e-10
-5.36591e-10
-1.20647e-09
-2.10184e-09
-1.50513e-09
3.57669e-10
4.55466e-09
9.63764e-09
1.36374e-08
1.50272e-08
1.37428e-08
1.14909e-08
9.35094e-09
7.6605e-09
6.44778e-09
5.5865e-09
4.95863e-09
4.53105e-09
4.22185e-09
4.0137e-09
3.89091e-09
3.82749e-09
3.83501e-09
3.85947e-09
3.58589e-09
2.89732e-09
-6.18353e-09
-4.01658e-08
-1.74758e-07
-7.67656e-07
-2.13679e-06
-3.84308e-06
-5.99203e-06
-8.32891e-06
-1.39356e-05
-2.10868e-05
-1.76553e-05
7.48502e-06
6.82368e-05
0.000221913
0.000989951
0.00240802
0.00432928
0.00659308
0.00907451
0.0116098
0.0141348
0.0165857
0.0190726
0.0221342
0.025958
0.0307559
0.037492
0.0457836
0.0561554
0.0679649
0.0804831
0.0933596
0.103407
0.108444
0.111368
0.113599
0.11507
0.115369
0.11573
0.116347
0.116624
0.116582
0.116124
0.115485
0.114893
0.114741
0.115645
0.118159
0.12242
0.128078
0.134694
0.141464
0.146883
0.1506
0.152637
0.153289
0.152899
0.151656
0.149322
0.146215
0.14248
0.13824
0.133735
0.129129
0.12441
0.119641
0.114828
0.109931
0.104998
0.100064
0.0951966
0.0904892
0.0860473
0.0818441
0.0780135
0.0746258
0.0716101
0.0692608
0.0674842
0.0662421
0.0658676
0.0662099
0.0675559
0.0701623
0.0742537
0.080403
0.089039
0.100195
0.113943
0.129451
0.147236
0.166939
0.186197
0.20248
0.212333
0.22151
0.22819
0.223753
0.211305
0.188262
0.156502
0.123156
0.0964836
0.0771317
0.0735191
0.0827065
0.105822
0.146121
0.197315
0.244073
0.281337
0.30848
0.324395
0.332583
0.336679
0.337543
0.334298
0.325011
0.306916
0.276815
0.238116
0.195053
0.152351
0.114134
0.0831657
0.0603697
0.0459338
0.0395192
0.038648
0.0417594
0.0485403
0.0585585
0.0704993
0.0828233
0.0938609
0.10206
0.106242
0.105726
0.100383
0.0907166
0.0779524
0.0634116
0.0502694
0.031419
-3.05417e-23
7.48205e-23
1.05512e-22
-3.31192e-21
2.65646e-20
-1.49275e-19
6.58155e-19
-2.27296e-18
5.00991e-18
-4.56924e-18
-1.65952e-18
-3.05606e-17
-5.55673e-17
-2.59543e-17
-6.02947e-17
-6.37605e-16
2.01769e-15
9.88249e-15
2.03632e-14
3.10835e-14
3.98385e-14
4.74701e-14
5.59067e-14
6.71557e-14
7.26871e-14
3.26244e-13
5.13319e-13
8.70598e-13
5.56751e-14
-4.32459e-12
-1.22682e-11
-2.77848e-11
-3.97e-11
-1.1048e-10
-1.38251e-10
5.8012e-11
7.31787e-10
1.43389e-09
1.7706e-09
1.7238e-09
1.44212e-09
1.13605e-09
8.85619e-10
7.02523e-10
5.76893e-10
4.90642e-10
4.30073e-10
3.90124e-10
3.626e-10
3.45167e-10
3.35793e-10
3.32129e-10
3.35493e-10
3.424e-10
3.32012e-10
2.24946e-10
-7.1623e-11
2.88541e-10
-2.70689e-09
-4.35548e-08
-1.41328e-07
-4.3152e-07
-1.29983e-06
-3.14936e-06
-6.51792e-06
-1.04819e-05
-1.52798e-05
-2.18805e-05
-3.02428e-05
-4.10067e-05
-3.92284e-05
-2.06124e-05
1.68276e-05
7.10324e-05
0.000136993
0.00020537
0.000345092
0.000521091
0.000713996
0.00095339
0.00134422
0.00199089
0.00318593
0.00525168
0.00855144
0.0134522
0.0201866
0.0301276
0.0432754
0.0579927
0.0725939
0.0862055
0.0976299
0.105198
0.1091
0.111271
0.113214
0.115202
0.117114
0.118434
0.119213
0.119412
0.119479
0.119583
0.118962
0.116648
0.112229
0.106088
0.0990378
0.0918927
0.0851126
0.0788518
0.0731084
0.0680618
0.0635071
0.059569
0.0561493
0.0530986
0.0503802
0.0478732
0.0454407
0.0430547
0.0406513
0.0381729
0.0356356
0.033052
0.0304588
0.0279089
0.0254407
0.0231044
0.0210268
0.0192439
0.0177217
0.0165318
0.0156058
0.0149261
0.0145576
0.0144493
0.01467
0.0152943
0.0164121
0.0182847
0.0212721
0.0258232
0.0327103
0.0426498
0.0565073
0.0744134
0.0965739
0.124081
0.151301
0.178544
0.203163
0.221622
0.232468
0.240924
0.243913
0.237096
0.225441
0.209675
0.206146
0.216608
0.240511
0.271501
0.296807
0.312279
0.324081
0.332858
0.338855
0.342811
0.34693
0.351686
0.357272
0.362169
0.363617
0.361774
0.355452
0.340478
0.314837
0.282844
0.24962
0.219014
0.193824
0.175689
0.165165
0.161898
0.164828
0.172352
0.182523
0.193275
0.202645
0.209047
0.211387
0.209042
0.201856
0.189997
0.174118
0.154248
0.135487
0.101062
6.92944e-24
-1.31527e-23
4.42769e-23
-2.85255e-22
1.79811e-21
-8.54458e-21
2.47104e-20
-2.89943e-21
-2.30492e-19
-3.23803e-19
1.31515e-18
1.53245e-18
-4.74191e-19
-1.43397e-17
-5.78794e-18
1.80569e-17
1.24066e-16
2.30887e-16
4.74911e-16
1.01669e-15
1.43356e-15
1.82775e-15
2.11031e-15
2.90421e-15
5.81031e-15
1.36035e-14
5.07001e-14
1.02182e-13
1.47131e-14
-3.37686e-13
-5.4837e-13
-9.31202e-13
-2.11083e-12
-4.21398e-12
1.74243e-11
5.84013e-11
1.2088e-10
1.50804e-10
1.4982e-10
1.33264e-10
1.09731e-10
8.8041e-11
7.06596e-11
5.78468e-11
4.89261e-11
4.28783e-11
3.92791e-11
3.76928e-11
3.72183e-11
3.74215e-11
3.83751e-11
4.05373e-11
4.41774e-11
4.87718e-11
5.32064e-11
5.56194e-11
5.14326e-11
4.17935e-11
9.62397e-11
-2.14047e-10
-2.81602e-09
-1.75111e-08
-5.30314e-08
-2.86435e-07
-9.66945e-07
-2.00979e-06
-4.31805e-06
-7.45885e-06
-1.24537e-05
-1.77226e-05
-2.37595e-05
-2.9871e-05
-3.68156e-05
-4.46958e-05
-5.24563e-05
-5.894e-05
-5.76304e-05
-5.14259e-05
-4.26554e-05
-3.23788e-05
-2.00068e-05
-4.81689e-06
1.45309e-05
4.00343e-05
8.18427e-05
0.000173687
0.000405633
0.00150439
0.00396824
0.00815827
0.0141867
0.0224692
0.0337306
0.0459267
0.0573315
0.0662501
0.0721315
0.0743535
0.0733046
0.0693129
0.0634394
0.0561204
0.0477883
0.0393219
0.0316145
0.0256868
0.0214931
0.0184973
0.0162705
0.0145558
0.0132153
0.0121453
0.0112771
0.0105927
0.010019
0.00956285
0.00918991
0.00886702
0.00858594
0.00832071
0.00804539
0.00775743
0.00744442
0.00709776
0.00672346
0.00632573
0.0059138
0.00549899
0.0050896
0.00469391
0.00432531
0.00398761
0.0036791
0.00342287
0.00321273
0.0030549
0.00296474
0.00293633
0.00298222
0.00311565
0.00334718
0.00370367
0.00420099
0.00487566
0.0058358
0.00754909
0.0107685
0.0163298
0.0252148
0.0396939
0.0601235
0.0861964
0.116007
0.149606
0.180112
0.208934
0.231711
0.244412
0.25438
0.262856
0.271163
0.28138
0.292908
0.302217
0.310044
0.309497
0.302726
0.293326
0.2866
0.285617
0.290749
0.301456
0.316168
0.332917
0.350085
0.366209
0.379755
0.387368
0.387851
0.384948
0.377051
0.364612
0.350712
0.338082
0.328589
0.323013
0.321125
0.321926
0.324015
0.325887
0.32604
0.323304
0.316991
0.30673
0.292577
0.275069
0.255411
0.233437
0.214442
0.175473
4.41489e-25
-1.33168e-24
1.90876e-24
2.83024e-23
-3.06107e-22
1.8319e-21
-7.6326e-21
2.20259e-20
-3.19037e-20
-1.63857e-20
1.57173e-20
2.65376e-19
5.53974e-19
6.9544e-20
-3.66353e-19
1.5976e-18
1.54299e-18
7.54024e-18
1.75408e-17
3.39118e-17
5.04475e-17
4.66317e-17
9.17848e-17
1.21835e-16
2.34695e-16
5.85752e-16
7.30239e-15
4.11603e-15
-1.3339e-14
-5.31624e-14
-1.00823e-13
-5.23678e-15
-5.95969e-14
7.76734e-13
7.31718e-12
1.21325e-11
1.30374e-11
1.27471e-11
1.19758e-11
1.08139e-11
9.26959e-12
7.78691e-12
6.57515e-12
5.7568e-12
5.58116e-12
6.48735e-12
7.99425e-12
9.98587e-12
1.19363e-11
1.36164e-11
1.63873e-11
2.1425e-11
2.83287e-11
3.63998e-11
4.44439e-11
5.16372e-11
5.74638e-11
6.23088e-11
3.73812e-11
-8.23763e-11
-5.32629e-10
-2.51676e-09
-7.29472e-09
-2.20421e-08
-5.47837e-08
-1.30678e-07
-3.3426e-07
-9.59186e-07
-2.23393e-06
-3.89022e-06
-6.65416e-06
-9.72762e-06
-1.30939e-05
-1.63342e-05
-1.94162e-05
-2.22203e-05
-2.37376e-05
-2.39936e-05
-2.34977e-05
-2.21275e-05
-1.998e-05
-1.67288e-05
-1.22451e-05
-7.0462e-06
-1.35326e-06
6.47151e-06
1.80008e-05
3.41888e-05
6.04606e-05
0.000124793
0.000310307
0.000908333
0.00246902
0.00502046
0.00847476
0.0123331
0.0162907
0.0196517
0.0217388
0.0215676
0.0193039
0.0154061
0.0108482
0.00709944
0.00468492
0.00323325
0.00234685
0.00179942
0.0014563
0.00123842
0.00110138
0.00101601
0.000965004
0.00093933
0.000928346
0.000930207
0.000940094
0.000953863
0.000970412
0.000986748
0.000999652
0.00100873
0.00101184
0.00100725
0.000994961
0.000974582
0.000946667
0.000911927
0.000871134
0.000826702
0.00078256
0.00074148
0.000705101
0.000680057
0.000666256
0.000664374
0.000677275
0.000711223
0.000779034
0.00088681
0.00103544
0.00122338
0.00144828
0.00173519
0.00210693
0.0025964
0.00325236
0.00412295
0.00522259
0.00733974
0.0120338
0.0209093
0.0346839
0.0561438
0.0834344
0.114781
0.149861
0.182173
0.208125
0.230339
0.24556
0.254765
0.25761
0.253729
0.242257
0.226197
0.208682
0.199029
0.198119
0.20481
0.218166
0.236062
0.256036
0.279789
0.304833
0.330126
0.354463
0.376562
0.395282
0.410408
0.419925
0.423024
0.424751
0.425418
0.425099
0.424039
0.422125
0.418673
0.412681
0.404186
0.395179
0.385562
0.371335
0.352241
0.33084
0.308096
0.285006
0.260989
0.241149
0.204164
-6.05908e-26
2.22666e-25
-4.27628e-25
2.62836e-25
-5.87776e-25
2.50651e-23
-2.28962e-22
1.09455e-21
-2.74625e-21
2.20949e-21
7.01791e-21
9.81318e-21
1.12772e-20
3.83994e-20
-4.78951e-20
-9.22807e-20
-3.71077e-20
-4.93569e-20
-3.53857e-19
-9.146e-19
-1.54133e-18
-3.07476e-18
7.09387e-18
1.79772e-18
-2.89846e-17
1.24634e-16
-2.72491e-17
-1.92609e-15
-3.612e-15
-1.82812e-15
-8.95106e-16
1.26752e-14
5.42681e-14
1.52255e-13
3.01169e-13
4.31155e-13
6.02994e-13
7.6931e-13
8.72156e-13
8.96979e-13
8.75655e-13
9.43681e-13
1.30224e-12
1.94513e-12
3.30041e-12
7.15898e-12
1.26728e-11
1.91018e-11
2.68891e-11
3.73112e-11
5.17938e-11
7.3468e-11
1.10097e-10
1.78544e-10
3.01938e-10
5.00912e-10
7.83812e-10
1.11992e-09
1.47315e-09
1.78742e-09
2.02659e-09
2.04859e-09
1.3629e-09
-6.42282e-10
-4.84652e-09
-1.46157e-08
-3.90501e-08
-9.03179e-08
-1.8184e-07
-3.16954e-07
-5.68164e-07
-1.14173e-06
-2.06304e-06
-3.25011e-06
-4.49591e-06
-5.7073e-06
-6.71324e-06
-7.33126e-06
-7.58223e-06
-7.54352e-06
-7.19635e-06
-6.58407e-06
-5.51482e-06
-4.22962e-06
-2.36731e-06
-3.25531e-07
1.60755e-06
3.75449e-06
7.12098e-06
1.27344e-05
1.97108e-05
2.37189e-05
2.41063e-05
2.14381e-05
2.13006e-05
4.05349e-05
0.000100745
0.000184715
0.000257191
0.000289844
0.000278518
0.000232255
0.000171517
0.000112395
6.45429e-05
3.12791e-05
1.10097e-05
7.55146e-07
-2.6222e-06
-1.52437e-06
2.39951e-06
7.89133e-06
1.41718e-05
2.08082e-05
2.74854e-05
3.42768e-05
4.11809e-05
4.81778e-05
5.53432e-05
6.2587e-05
6.97847e-05
7.70194e-05
8.42037e-05
9.12458e-05
9.81423e-05
0.000104823
0.000110779
0.000116001
0.000122147
0.000130624
0.000142397
0.000158906
0.000180316
0.000204983
0.0002325
0.000260082
0.000285522
0.000348868
0.000473214
0.000628214
0.000816756
0.00104985
0.00133902
0.00168884
0.00210392
0.00258918
0.00314782
0.00379109
0.00453986
0.00538631
0.00629826
0.00789641
0.0102739
0.014801
0.0232531
0.0366548
0.0555004
0.0813468
0.106725
0.131194
0.147087
0.154405
0.15327
0.147131
0.138618
0.132278
0.136728
0.145286
0.158253
0.176315
0.196705
0.218178
0.240312
0.263008
0.286222
0.309961
0.333992
0.357699
0.380219
0.400511
0.417543
0.430817
0.440142
0.445151
0.446383
0.446077
0.444665
0.440108
0.430993
0.416507
0.396506
0.371161
0.343452
0.316596
0.288304
0.261677
0.237675
0.215644
0.198674
0.171202
2.25565e-25
-8.18912e-25
-4.21599e-24
3.34117e-23
-1.06179e-22
1.04884e-22
9.418e-23
3.48155e-21
-2.97694e-20
6.66605e-20
2.23073e-19
3.6244e-19
2.45219e-19
-1.4788e-19
3.42522e-20
4.76443e-19
1.07361e-18
1.58372e-18
1.4913e-18
9.5186e-19
3.06055e-19
8.73223e-20
-4.32806e-19
-7.78954e-19
-2.73788e-18
1.73228e-17
-8.67837e-17
-2.52792e-16
-3.43674e-16
-3.85209e-17
2.18891e-15
3.31028e-15
6.85167e-15
9.95922e-15
2.04701e-14
3.08068e-14
4.64268e-14
6.41733e-14
7.74878e-14
1.20754e-13
3.40869e-13
1.39257e-12
3.77833e-12
7.72733e-12
1.79297e-11
3.87537e-11
7.51301e-11
1.27894e-10
1.94029e-10
2.73718e-10
3.7944e-10
5.58862e-10
8.92577e-10
1.4826e-09
2.40838e-09
3.73153e-09
5.53805e-09
7.81383e-09
1.04415e-08
1.28737e-08
1.48174e-08
1.6101e-08
1.67312e-08
1.66531e-08
1.62729e-08
1.54231e-08
1.2159e-08
5.35911e-09
-6.55096e-09
-2.54731e-08
-5.59553e-08
-1.0778e-07
-1.81981e-07
-2.74871e-07
-3.74021e-07
-4.69401e-07
-5.49471e-07
-6.17367e-07
-6.65795e-07
-6.97986e-07
-7.22509e-07
-7.59619e-07
-8.32852e-07
-8.43823e-07
-7.43049e-07
-4.62133e-07
-3.94828e-08
3.66994e-07
7.44214e-07
1.27379e-06
2.05072e-06
3.0633e-06
4.08968e-06
4.62284e-06
4.40845e-06
2.6955e-06
-5.153e-06
-1.30719e-05
-2.03979e-05
-2.69973e-05
-3.25529e-05
-3.67728e-05
-3.95709e-05
-4.09698e-05
-4.11758e-05
-4.04903e-05
-3.90822e-05
-3.71288e-05
-3.45202e-05
-3.08633e-05
-2.68371e-05
-2.27082e-05
-1.87034e-05
-1.49155e-05
-1.16809e-05
-8.84877e-06
-6.25129e-06
-3.74542e-06
-1.28575e-06
1.11332e-06
3.51098e-06
6.15342e-06
9.21559e-06
1.29375e-05
1.74648e-05
2.29307e-05
2.83709e-05
3.3916e-05
5.23148e-05
7.35407e-05
9.68949e-05
0.000126685
0.000167451
0.000224735
0.000307858
0.000436915
0.000653288
0.00101228
0.00157334
0.00239317
0.00343959
0.00463959
0.00597801
0.00735369
0.00867468
0.00986387
0.0108333
0.0115858
0.0121882
0.0126587
0.0130891
0.013385
0.0140573
0.0155179
0.0173967
0.0196346
0.0232645
0.0308615
0.0409464
0.0525663
0.0615354
0.0676638
0.0735497
0.079786
0.0878296
0.104781
0.128386
0.15508
0.180002
0.202725
0.223489
0.242807
0.26129
0.279678
0.298099
0.316436
0.335068
0.354281
0.373919
0.393574
0.411944
0.424377
0.430404
0.433233
0.432285
0.427406
0.418021
0.403046
0.380503
0.350594
0.316427
0.280565
0.245391
0.212766
0.183977
0.159714
0.140137
0.124449
0.11346
0.0990946
6.35058e-24
-2.41275e-23
6.51978e-23
-1.37683e-22
3.56122e-22
-3.21809e-21
2.9459e-20
-1.66933e-19
5.46192e-19
-6.90072e-19
-1.97648e-18
-2.77267e-18
-6.47532e-19
-3.11101e-18
1.9937e-17
1.57498e-17
6.77409e-18
3.63806e-18
4.36984e-18
5.18552e-18
5.45855e-18
6.29629e-18
7.97898e-18
1.0361e-17
1.255e-17
1.07839e-17
5.20216e-18
1.07201e-17
1.44435e-17
2.12252e-17
1.50705e-16
1.02202e-16
1.44963e-16
2.89696e-16
1.22023e-15
2.35438e-15
3.93933e-15
5.42888e-15
1.8192e-14
2.66582e-13
2.28765e-12
1.18699e-11
2.68057e-11
4.81896e-11
1.08088e-10
2.49975e-10
4.98817e-10
8.2107e-10
1.20447e-09
1.88041e-09
3.31273e-09
5.94866e-09
9.14946e-09
1.23925e-08
1.55808e-08
1.9493e-08
2.40437e-08
2.95337e-08
3.55885e-08
4.03746e-08
4.45196e-08
4.81303e-08
5.10517e-08
5.30646e-08
5.41657e-08
5.45937e-08
5.42782e-08
5.38227e-08
5.33857e-08
5.30837e-08
5.07494e-08
4.61223e-08
3.94106e-08
3.10796e-08
2.23722e-08
1.45191e-08
8.39083e-09
3.87596e-09
1.4615e-09
1.3766e-09
3.38871e-09
7.36784e-09
1.09568e-08
1.227e-08
3.6736e-10
-9.22991e-09
7.26903e-09
6.67852e-08
1.38089e-07
2.13231e-07
3.09353e-07
4.24026e-07
5.67861e-07
7.23984e-07
7.79721e-07
3.81987e-07
-9.27636e-07
-2.61973e-06
-4.77562e-06
-7.28914e-06
-9.86319e-06
-1.20711e-05
-1.36963e-05
-1.45587e-05
-1.45894e-05
-1.42088e-05
-1.3371e-05
-1.22532e-05
-1.10262e-05
-9.71035e-06
-8.27651e-06
-6.74569e-06
-5.15416e-06
-3.56611e-06
-1.95481e-06
-1.56907e-07
1.91311e-06
4.18468e-06
6.56714e-06
9.42465e-06
1.43752e-05
2.23557e-05
3.12862e-05
3.957e-05
4.7043e-05
5.77306e-05
8.14826e-05
0.000143197
0.000300901
0.000661847
0.00137901
0.00266614
0.0046335
0.00725662
0.010611
0.0146244
0.0192557
0.0244474
0.0303122
0.0366328
0.0429355
0.0486278
0.0537248
0.0578436
0.0608826
0.0627758
0.0633788
0.0627416
0.0612146
0.0586118
0.0557145
0.0521011
0.0485155
0.0446743
0.0417864
0.0398515
0.0386168
0.0392439
0.0429907
0.0479937
0.0548064
0.0643802
0.0787158
0.0992646
0.127968
0.15933
0.188261
0.210295
0.224236
0.236697
0.248418
0.259958
0.271312
0.284149
0.300515
0.316024
0.327152
0.336897
0.34792
0.359345
0.368679
0.374174
0.374621
0.369047
0.356595
0.336871
0.310271
0.278122
0.242542
0.205963
0.17064
0.138496
0.1108
0.088074
0.0703629
0.0572141
0.0479625
0.041771
0.0381363
0.0350129
-2.57323e-23
1.0435e-22
9.73511e-23
-1.60025e-21
7.26862e-21