/*--------------------------------*- C++ -*----------------------------------*\
| =========                 |                                                 |
| \\      /  F ield         | OpenFOAM: The Open Source CFD Toolbox           |
|  \\    /   O peration     | Version:  2506                                  |
|   \\  /    A nd           | Website:  www.openfoam.com                      |
|    \\/     M anipulation  |                                                 |
\*---------------------------------------------------------------------------*/
FoamFile
{
    version     2.0;
    format      ascii;
    arch        "LSB;label=32;scalar=64";
    class       volScalarField;
    location    "2.7";
    object      p;
}
// * * * * * * * * * * * * * * * * * * * * * * * * * * * * * * * * * * * * * //

dimensions      [0 2 -2 0 0 0 0];

internalField   nonuniform List<scalar> 
4000
(
-6.99228e-05
-8.74341e-06
9.99433e-06
1.34697e-05
1.58701e-05
1.76098e-05
1.85521e-05
1.92579e-05
1.99879e-05
2.08202e-05
2.17862e-05
2.29129e-05
2.42202e-05
2.57235e-05
2.74373e-05
2.9377e-05
3.15579e-05
3.39956e-05
3.67058e-05
3.97041e-05
4.30057e-05
4.66251e-05
5.05775e-05
5.48754e-05
5.95287e-05
6.45437e-05
6.99225e-05
7.56618e-05
8.1753e-05
8.82215e-05
9.50083e-05
0.000101314
0.000107587
0.00011376
0.000119069
0.000123043
0.000126155
0.000126319
0.000126653
0.000129088
0.000130852
0.000132147
0.000133031
0.000133202
0.000132433
0.000130515
0.00012747
0.000122996
0.000117205
0.000110137
0.000101979
9.33609e-05
8.34452e-05
7.38902e-05
6.37896e-05
5.42229e-05
4.34265e-05
3.18733e-05
1.77944e-05
3.92152e-07
-2.02719e-05
-4.37658e-05
-6.49324e-05
-8.18834e-05
-9.55999e-05
-0.000105668
-0.000113567
-0.000119323
-0.000123573
-0.00012654
-0.000128427
-0.000129292
-0.000129136
-0.000127992
-0.000125904
-0.000122886
-0.000118918
-0.000113948
-0.000107974
-0.000100976
-9.29068e-05
-8.36405e-05
-7.32177e-05
-6.15339e-05
-4.86613e-05
-3.45803e-05
-1.96307e-05
-4.23475e-06
1.10926e-05
2.56368e-05
3.86391e-05
4.99896e-05
6.02142e-05
6.94852e-05
7.79341e-05
8.60542e-05
9.39018e-05
0.000101206
0.000107341
0.000111775
0.000114289
0.000114828
0.000113409
0.000110157
0.00010565
0.000100545
9.50432e-05
8.94272e-05
8.36489e-05
7.76095e-05
7.13701e-05
6.53864e-05
5.83478e-05
5.12818e-05
4.24654e-05
3.2052e-05
1.89825e-05
2.56428e-06
-1.66338e-05
-3.78324e-05
-5.80882e-05
-7.6021e-05
-9.07359e-05
-0.000102367
-0.000111348
-0.00011818
-0.000123538
-0.000127566
-0.000130435
-0.000132275
-0.0001331
-0.000132937
-0.000131815
-0.000129732
-0.000126685
-0.000122663
-0.000117642
-0.000111589
-0.000104397
-9.60846e-05
-8.66224e-05
-7.58518e-05
-6.38787e-05
-5.06223e-05
-3.63265e-05
-2.13285e-05
-6.13548e-06
8.609e-06
2.20874e-05
3.38541e-05
4.41192e-05
5.3359e-05
6.16975e-05
6.94219e-05
7.68451e-05
8.38181e-05
8.98231e-05
9.4248e-05
9.65401e-05
9.65207e-05
9.42173e-05
8.94704e-05
8.20399e-05
7.7131e-05
7.19525e-05
6.62209e-05
6.09795e-05
5.58055e-05
5.03908e-05
4.47394e-05
3.91365e-05
3.41416e-05
3.0186e-05
2.70031e-05
2.44828e-05
2.25569e-05
2.11609e-05
2.02152e-05
1.96396e-05
1.93658e-05
1.93533e-05
1.95782e-05
2.00281e-05
2.07026e-05
2.16078e-05
2.27609e-05
2.41617e-05
2.58202e-05
2.77605e-05
3.00143e-05
3.26304e-05
3.56932e-05
3.93553e-05
4.39032e-05
4.98966e-05
5.84712e-05
7.20493e-05
9.54673e-05
0.000140865
0.000233488
-2.72279e-05
-2.71802e-06
7.14397e-06
1.09786e-05
1.34205e-05
1.51705e-05
1.64239e-05
1.74779e-05
1.85e-05
1.95608e-05
2.07021e-05
2.19595e-05
2.33616e-05
2.49314e-05
2.66895e-05
2.86548e-05
3.08456e-05
3.32792e-05
3.59726e-05
3.89421e-05
4.22035e-05
4.57719e-05
4.96614e-05
5.38843e-05
5.84507e-05
6.33677e-05
6.86385e-05
7.42602e-05
8.02232e-05
8.65467e-05
9.31971e-05
9.9329e-05
0.000105324
0.00011112
0.000116239
0.0001203
0.000123362
0.000124353
0.000125128
0.000126508
0.000127248
0.000127486
0.000127231
0.000126236
0.000124329
0.000121385
0.000117396
0.00011229
0.000106012
9.86745e-05
9.05025e-05
8.18965e-05
7.26333e-05
6.35277e-05
5.41588e-05
4.49227e-05
3.49004e-05
2.44955e-05
1.24326e-05
-1.62128e-06
-1.74341e-05
-3.39524e-05
-5.10616e-05
-6.70612e-05
-8.08123e-05
-9.14861e-05
-0.000100114
-0.000106781
-0.000111935
-0.00011565
-0.000118211
-0.000119734
-0.000120214
-0.000119668
-0.000118157
-0.000115718
-0.000112335
-0.000107954
-0.000102568
-9.61619e-05
-8.8702e-05
-8.0065e-05
-7.02751e-05
-5.92484e-05
-4.70453e-05
-3.36739e-05
-1.94196e-05
-4.74722e-06
9.65522e-06
2.32374e-05
3.55986e-05
4.65942e-05
5.65297e-05
6.5657e-05
7.41209e-05
8.21515e-05
8.95933e-05
9.59219e-05
0.00010083
0.000104044
0.000105282
0.000104718
0.000102561
9.91458e-05
9.48509e-05
9.00895e-05
8.49776e-05
7.9664e-05
7.41948e-05
6.84321e-05
6.24169e-05
5.63281e-05
4.9408e-05
4.2235e-05
3.37659e-05
2.4165e-05
1.29622e-05
-3.36541e-07
-1.54205e-05
-3.11817e-05
-4.77632e-05
-6.39539e-05
-7.76016e-05
-8.87375e-05
-9.81285e-05
-0.000105537
-0.000111493
-0.000116052
-0.000119389
-0.000121691
-0.000122962
-0.000123224
-0.000122524
-0.000120864
-0.000118238
-0.000114638
-0.000110046
-0.000104442
-9.77196e-05
-8.98781e-05
-8.09237e-05
-7.07207e-05
-5.93453e-05
-4.67596e-05
-3.31688e-05
-1.89196e-05
-4.67011e-06
8.96518e-06
2.14799e-05
3.255e-05
4.23537e-05
5.12006e-05
5.93861e-05
6.69645e-05
7.4026e-05
8.01228e-05
8.46564e-05
8.73432e-05
8.78728e-05
8.62314e-05
8.26463e-05
7.74953e-05
7.09312e-05
6.68454e-05
6.21435e-05
5.72856e-05
5.29745e-05
4.86433e-05
4.42608e-05
3.99638e-05
3.58002e-05
3.17525e-05
2.84468e-05
2.57902e-05
2.36647e-05
2.20326e-05
2.08525e-05
2.00562e-05
1.95777e-05
1.93732e-05
1.94147e-05
1.96861e-05
2.01817e-05
2.09042e-05
2.18592e-05
2.30456e-05
2.44791e-05
2.61767e-05
2.81563e-05
3.04458e-05
3.30903e-05
3.61659e-05
3.98077e-05
4.42661e-05
5.00264e-05
5.8049e-05
7.01486e-05
8.92048e-05
0.000118298
0.000160627
-6.00549e-06
1.5245e-06
6.3627e-06
9.41276e-06
1.15934e-05
1.33286e-05
1.4762e-05
1.60278e-05
1.72275e-05
1.84283e-05
1.96786e-05
2.10176e-05
2.24776e-05
2.40855e-05
2.58648e-05
2.7837e-05
3.00216e-05
3.24372e-05
3.51014e-05
3.80311e-05
4.12425e-05
4.47511e-05
4.857e-05
5.27115e-05
5.7186e-05
6.2001e-05
6.71598e-05
7.266e-05
7.84904e-05
8.46616e-05
9.11572e-05
9.73144e-05
0.000103328
0.000109067
0.000114128
0.000118139
0.000121097
0.000122422
0.000123165
0.000123726
0.000123632
0.000122984
0.000121781
0.00011985
0.000117088
0.000113478
0.000108923
0.000103415
9.69288e-05
8.95683e-05
8.16855e-05
7.34677e-05
6.4875e-05
5.62471e-05
4.73676e-05
3.83414e-05
2.87082e-05
1.87223e-05
7.89827e-06
-3.84685e-06
-1.66227e-05
-2.94951e-05
-4.32383e-05
-5.6324e-05
-6.85442e-05
-7.93145e-05
-8.83211e-05
-9.55139e-05
-0.000101195
-0.000105429
-0.000108476
-0.000110549
-0.000111622
-0.000111639
-0.000110651
-0.000108747
-0.00010591
-0.000102082
-9.72531e-05
-9.14077e-05
-8.45226e-05
-7.64901e-05
-6.73133e-05
-5.69381e-05
-4.54029e-05
-3.27691e-05
-1.92826e-05
-5.40184e-06
8.314e-06
2.13161e-05
3.33064e-05
4.41487e-05
5.40033e-05
6.29975e-05
7.12152e-05
7.86926e-05
8.52715e-05
9.05816e-05
9.43855e-05
9.65399e-05
9.70547e-05
9.60504e-05
9.38216e-05
9.0582e-05
8.66908e-05
8.23427e-05
7.76296e-05
7.26445e-05
6.73981e-05
6.18252e-05
5.59268e-05
4.97727e-05
4.29328e-05
3.56952e-05
2.74992e-05
1.8499e-05
8.51109e-06
-2.69937e-06
-1.50269e-05
-2.77348e-05
-4.14505e-05
-5.4669e-05
-6.69249e-05
-7.77008e-05
-8.70142e-05
-9.45155e-05
-0.000100659
-0.000105524
-0.00010912
-0.000111766
-0.000113431
-0.000114069
-0.000113746
-0.000112478
-0.000110254
-0.000107059
-0.00010288
-9.77073e-05
-9.14472e-05
-8.40787e-05
-7.56186e-05
-6.59856e-05
-5.52088e-05
-4.33317e-05
-3.05359e-05
-1.71955e-05
-3.83463e-06
9.00109e-06
2.08875e-05
3.1599e-05
4.12056e-05
4.9873e-05
5.77369e-05
6.48091e-05
7.0909e-05
7.57162e-05
7.87809e-05
8.00455e-05
7.94402e-05
7.70814e-05
7.33898e-05
6.87734e-05
6.33557e-05
5.98776e-05
5.56324e-05
5.13763e-05
4.75557e-05
4.37139e-05
3.98845e-05
3.63012e-05
3.29189e-05
2.95931e-05
2.68352e-05
2.46127e-05
2.28269e-05
2.14509e-05
2.04551e-05
1.9788e-05
1.94015e-05
1.92644e-05
1.93578e-05
1.96732e-05
2.02086e-05
2.09675e-05
2.19557e-05
2.31796e-05
2.46515e-05
2.6384e-05
2.83928e-05
3.07015e-05
3.33473e-05
3.63889e-05
3.9924e-05
4.4126e-05
4.93187e-05
5.61266e-05
6.56485e-05
7.90873e-05
9.5373e-05
0.000113864
2.36056e-06
4.90085e-06
7.24047e-06
9.38103e-06
1.1096e-05
1.25696e-05
1.39072e-05
1.5156e-05
1.63652e-05
1.75834e-05
1.88502e-05
2.01998e-05
2.16618e-05
2.32624e-05
2.50247e-05
2.69699e-05
2.91177e-05
3.14866e-05
3.40942e-05
3.69572e-05
4.00915e-05
4.35123e-05
4.7233e-05
5.12656e-05
5.56203e-05
6.03039e-05
6.53197e-05
7.0664e-05
7.63254e-05
8.23075e-05
8.85931e-05
9.46793e-05
0.000100569
0.000106075
0.00011089
0.000114691
0.000117463
0.000118795
0.00011929
0.000119262
0.000118586
0.000117321
0.000115451
0.000112889
0.000109592
0.000105526
0.000100653
9.49234e-05
8.84669e-05
8.14142e-05
7.39802e-05
6.62893e-05
5.83614e-05
5.03426e-05
4.21138e-05
3.36897e-05
2.48259e-05
1.56177e-05
5.82915e-06
-4.61271e-06
-1.5869e-05
-2.70828e-05
-3.88761e-05
-4.99527e-05
-6.07411e-05
-7.03507e-05
-7.87182e-05
-8.60772e-05
-9.22679e-05
-9.6996e-05
-0.000100306
-0.000102666
-0.000104165
-0.000104635
-0.000104059
-0.000102593
-0.000100205
-9.6836e-05
-9.24714e-05
-8.71008e-05
-8.07059e-05
-7.31878e-05
-6.45401e-05
-5.47237e-05
-4.37862e-05
-3.18408e-05
-1.90593e-05
-5.85217e-06
7.23643e-06
1.97191e-05
3.13106e-05
4.18525e-05
5.14206e-05
6.00866e-05
6.78504e-05
7.4699e-05
8.0486e-05
8.48564e-05
8.77653e-05
8.9232e-05
8.92814e-05
8.80514e-05
8.58319e-05
8.28127e-05
7.9216e-05
7.5165e-05
7.07212e-05
6.59583e-05
6.0887e-05
5.54859e-05
4.97434e-05
4.37203e-05
3.71569e-05
3.02317e-05
2.26465e-05
1.45198e-05
5.70872e-06
-3.96536e-06
-1.45735e-05
-2.56324e-05
-3.74653e-05
-4.90449e-05
-5.99377e-05
-6.9689e-05
-7.83865e-05
-8.58572e-05
-9.2124e-05
-9.70778e-05
-0.000100762
-0.000103582
-0.000105508
-0.000106404
-0.000106355
-0.000105385
-0.000103483
-0.000100622
-9.6786e-05
-9.19625e-05
-8.60761e-05
-7.91042e-05
-7.10636e-05
-6.18959e-05
-5.16503e-05
-4.04107e-05
-2.82837e-05
-1.56343e-05
-2.96769e-06
9.21428e-06
2.0548e-05
3.08234e-05
4.0025e-05
4.82657e-05
5.55631e-05
6.18339e-05
6.69442e-05
7.05093e-05
7.24184e-05
7.27221e-05
7.1458e-05
6.88451e-05
6.53842e-05
6.13483e-05
5.6704e-05
5.35844e-05
4.9771e-05
4.6042e-05
4.26842e-05
3.93779e-05
3.61234e-05
3.31479e-05
3.03691e-05
2.76626e-05
2.53679e-05
2.3489e-05
2.19713e-05
2.07992e-05
1.99521e-05
1.93939e-05
1.909e-05
1.9018e-05
1.91654e-05
1.95276e-05
2.01049e-05
2.09019e-05
2.19246e-05
2.3181e-05
2.46804e-05
2.64335e-05
2.8454e-05
3.07611e-05
3.33822e-05
3.63558e-05
3.97393e-05
4.36253e-05
4.81794e-05
5.37192e-05
6.07972e-05
6.99174e-05
7.95287e-05
8.84942e-05
6.56037e-06
7.34851e-06
8.38194e-06
9.73276e-06
1.1045e-05
1.22648e-05
1.34288e-05
1.4569e-05
1.5713e-05
1.68873e-05
1.81199e-05
1.94375e-05
2.08656e-05
2.24275e-05
2.41445e-05
2.60369e-05
2.81232e-05
3.04213e-05
3.29481e-05
3.57199e-05
3.8752e-05
4.2059e-05
4.56538e-05
4.95481e-05
5.37513e-05
5.82697e-05
6.31056e-05
6.82548e-05
7.37052e-05
7.94555e-05
8.54826e-05
9.13872e-05
9.70454e-05
0.000102245
0.000106757
0.000110307
0.00011286
0.000114078
0.00011431
0.000113854
0.000112757
0.000111033
0.000108668
0.000105644
0.000101955
9.75624e-05
9.2505e-05
8.67784e-05
8.05094e-05
7.38233e-05
6.68607e-05
5.97252e-05
5.24433e-05
4.50809e-05
3.7576e-05
2.99191e-05
2.19801e-05
1.3766e-05
5.11341e-06
-4.08951e-06
-1.40698e-05
-2.41311e-05
-3.46792e-05
-4.45645e-05
-5.41775e-05
-6.29491e-05
-7.07545e-05
-7.7651e-05
-8.34174e-05
-8.82211e-05
-9.20294e-05
-9.4871e-05
-9.67253e-05
-9.75121e-05
-9.73318e-05
-9.62854e-05
-9.43273e-05
-9.14079e-05
-8.75028e-05
-8.26039e-05
-7.66829e-05
-6.96922e-05
-6.16137e-05
-5.23927e-05
-4.2063e-05
-3.07484e-05
-1.86277e-05
-6.09663e-06
6.36098e-06
1.83045e-05
2.94323e-05
3.95624e-05
4.87537e-05
5.69695e-05
6.41827e-05
7.03959e-05
7.53697e-05
7.89497e-05
8.11855e-05
8.21555e-05
8.18934e-05
8.05718e-05
7.84113e-05
7.55666e-05
7.21769e-05
6.83296e-05
6.40738e-05
5.94855e-05
5.45849e-05
4.93765e-05
4.38581e-05
3.80996e-05
3.19442e-05
2.55371e-05
1.87104e-05
1.15269e-05
3.85309e-06
-4.48028e-06
-1.36455e-05
-2.33584e-05
-3.37416e-05
-4.41312e-05
-5.39884e-05
-6.29048e-05
-7.11209e-05
-7.79733e-05
-8.36888e-05
-8.86073e-05
-9.26527e-05
-9.57206e-05
-9.77015e-05
-9.87551e-05
-9.90051e-05
-9.83439e-05
-9.67379e-05
-9.41829e-05
-9.06587e-05
-8.61625e-05
-8.06749e-05
-7.41245e-05
-6.65073e-05
-5.782e-05
-4.8085e-05
-3.74083e-05
-2.59235e-05
-1.39736e-05
-2.01525e-06
9.50207e-06
2.02353e-05
2.99599e-05
3.86473e-05
4.62962e-05
5.28623e-05
5.82892e-05
6.23636e-05
6.48936e-05
6.59746e-05
6.56502e-05
6.39862e-05
6.13861e-05
5.82538e-05
5.46966e-05
5.06312e-05
4.7812e-05
4.44395e-05
4.12e-05
3.83102e-05
3.5471e-05
3.27527e-05
3.02888e-05
2.80071e-05
2.58121e-05
2.39142e-05
2.23332e-05
2.1049e-05
2.00565e-05
1.93436e-05
1.88862e-05
1.86615e-05
1.86544e-05
1.88573e-05
1.92678e-05
1.98876e-05
2.07212e-05
2.17745e-05
2.30546e-05
2.45694e-05
2.63284e-05
2.83433e-05
3.06291e-05
3.32041e-05
3.60897e-05
3.93098e-05
4.28932e-05
4.68862e-05
5.13794e-05
5.65215e-05
6.25396e-05
6.81915e-05
7.24032e-05
8.78153e-06
8.836e-06
9.24235e-06
1.00835e-05
1.10419e-05
1.20293e-05
1.30403e-05
1.40668e-05
1.51255e-05
1.62326e-05
1.74076e-05
1.86708e-05
2.00443e-05
2.15478e-05
2.32007e-05
2.50214e-05
2.70275e-05
2.92358e-05
3.16621e-05
3.4322e-05
3.723e-05
4.03997e-05
4.38436e-05
4.75724e-05
5.15948e-05
5.59161e-05
6.05378e-05
6.54544e-05
7.06538e-05
7.61312e-05
8.1858e-05
8.74997e-05
9.28597e-05
9.77181e-05
0.000101906
0.000105188
0.000107509
0.00010857
0.000108566
0.000107794
0.000106384
0.000104314
0.000101582
9.82288e-05
9.42752e-05
8.97013e-05
8.46055e-05
7.89984e-05
7.2995e-05
6.67046e-05
6.02285e-05
5.36521e-05
4.69951e-05
4.02916e-05
3.35149e-05
2.66538e-05
1.96375e-05
1.24369e-05
4.92878e-06
-3.03131e-06
-1.16649e-05
-2.05971e-05
-3.00517e-05
-3.91735e-05
-4.80253e-05
-5.61511e-05
-6.34178e-05
-6.97762e-05
-7.54047e-05
-8.02004e-05
-8.40485e-05
-8.69066e-05
-8.88704e-05
-9.00357e-05
-9.03848e-05
-8.97997e-05
-8.82784e-05
-8.58102e-05
-8.2361e-05
-7.79296e-05
-7.24932e-05
-6.60231e-05
-5.84762e-05
-4.98477e-05
-4.01415e-05
-2.94801e-05
-1.80341e-05
-6.17488e-06
5.65005e-06
1.70335e-05
2.76091e-05
3.72932e-05
4.60032e-05
5.36847e-05
6.03114e-05
6.58638e-05
7.01177e-05
7.30152e-05
7.4763e-05
7.53699e-05
7.49185e-05
7.3554e-05
7.1453e-05
6.87277e-05
6.54764e-05
6.17731e-05
5.76697e-05
5.32503e-05
4.85443e-05
4.3576e-05
3.83582e-05
3.29683e-05
2.73127e-05
2.15159e-05
1.54674e-05
9.19712e-06
2.57693e-06
-4.5539e-06
-1.23923e-05
-2.08356e-05
-2.99713e-05
-3.92774e-05
-4.83783e-05
-5.66004e-05
-6.41456e-05
-7.05668e-05
-7.61441e-05
-8.09593e-05
-8.48115e-05
-8.77292e-05
-8.97822e-05
-9.11056e-05
-9.16155e-05
-9.12367e-05
-8.992e-05
-8.76628e-05
-8.44626e-05
-8.03179e-05
-7.51996e-05
-6.90347e-05
-6.18478e-05
-5.36571e-05
-4.44482e-05
-3.4367e-05
-2.35469e-05
-1.23021e-05
-1.05573e-06
9.77819e-06
1.98567e-05
2.8981e-05
3.70432e-05
4.39653e-05
4.97479e-05
5.43122e-05
5.74673e-05
5.92212e-05
5.96985e-05
5.89544e-05
5.71176e-05
5.46548e-05
5.18403e-05
4.86689e-05
4.50835e-05
4.25436e-05
3.95925e-05
3.67983e-05
3.43277e-05
3.19188e-05
2.96569e-05
2.76257e-05
2.57614e-05
2.39836e-05
2.24256e-05
2.11102e-05
2.00371e-05
1.92098e-05
1.86229e-05
1.82626e-05
1.81155e-05
1.81726e-05
1.84297e-05
1.8886e-05
1.95436e-05
2.04065e-05
2.14799e-05
2.27697e-05
2.42826e-05
2.60266e-05
2.80111e-05
3.02467e-05
3.27437e-05
3.55086e-05
3.8538e-05
4.18115e-05
4.52875e-05
4.89001e-05
5.25418e-05
5.61295e-05
5.86822e-05
6.02181e-05
9.84704e-06
9.62162e-06
9.72697e-06
1.02559e-05
1.09711e-05
1.17704e-05
1.26343e-05
1.35558e-05
1.45278e-05
1.55602e-05
1.66672e-05
1.7865e-05
1.91712e-05
2.06034e-05
2.21787e-05
2.39139e-05
2.58252e-05
2.7928e-05
3.02372e-05
3.27673e-05
3.55317e-05
3.85433e-05
4.18134e-05
4.5352e-05
4.91665e-05
5.32616e-05
5.76375e-05
6.22881e-05
6.7201e-05
7.23693e-05
7.77607e-05
8.30849e-05
8.81055e-05
9.26079e-05
9.64695e-05
9.94877e-05
0.000101582
0.000102479
0.00010228
0.000101275
9.96344e-05
9.7312e-05
9.43195e-05
9.07498e-05
8.66443e-05
8.20139e-05
7.69882e-05
7.15819e-05
6.58971e-05
6.00257e-05
5.40436e-05
4.80206e-05
4.19693e-05
3.59121e-05
2.98429e-05
2.37542e-05
1.76063e-05
1.13546e-05
4.89642e-06
-1.88607e-06
-9.21344e-06
-1.69528e-05
-2.52444e-05
-3.35425e-05
-4.17908e-05
-4.94847e-05
-5.64487e-05
-6.26599e-05
-6.80306e-05
-7.2539e-05
-7.62997e-05
-7.9296e-05
-8.15422e-05
-8.29703e-05
-8.35411e-05
-8.3256e-05
-8.20954e-05
-8.00315e-05
-7.70129e-05
-7.30456e-05
-6.81208e-05
-6.21874e-05
-5.51847e-05
-4.71482e-05
-3.8065e-05
-2.80601e-05
-1.7289e-05
-6.1041e-06
5.07014e-06
1.58173e-05
2.587e-05
3.50429e-05
4.31924e-05
5.02975e-05
5.63452e-05
6.12312e-05
6.47989e-05
6.72462e-05
6.86104e-05
6.89349e-05
6.83308e-05
6.69369e-05
6.48722e-05
6.22177e-05
5.90604e-05
5.54756e-05
5.15227e-05
4.72935e-05
4.28235e-05
3.81511e-05
3.33011e-05
2.83507e-05
2.32458e-05
1.80872e-05
1.27919e-05
7.36824e-06
1.69436e-06
-4.37597e-06
-1.10275e-05
-1.82727e-05
-2.62134e-05
-3.44894e-05
-4.28406e-05
-5.05692e-05
-5.77096e-05
-6.38547e-05
-6.91254e-05
-7.36056e-05
-7.72918e-05
-8.02412e-05
-8.24527e-05
-8.38787e-05
-8.4477e-05
-8.42463e-05
-8.31601e-05
-8.11744e-05
-7.82926e-05
-7.44877e-05
-6.97271e-05
-6.39611e-05
-5.72127e-05
-4.95145e-05
-4.08396e-05
-3.13551e-05
-2.11928e-05
-1.06478e-05
-1.18114e-07
1.00063e-05
1.94086e-05
2.78569e-05
3.51897e-05
4.13564e-05
4.63972e-05
5.01513e-05
5.24971e-05
5.3679e-05
5.37065e-05
5.27086e-05
5.08398e-05
4.85543e-05
4.60168e-05
4.31702e-05
4.00084e-05
3.77345e-05
3.51766e-05
3.27861e-05
3.06944e-05
2.86708e-05
2.67964e-05
2.51294e-05
2.36126e-05
2.21738e-05
2.09027e-05
1.98203e-05
1.89363e-05
1.82595e-05
1.77902e-05
1.75225e-05
1.74498e-05
1.75675e-05
1.78737e-05
1.83689e-05
1.9055e-05
1.99352e-05
2.10134e-05
2.22942e-05
2.37826e-05
2.54844e-05
2.74059e-05
2.95529e-05
3.19274e-05
3.45221e-05
3.73099e-05
4.02297e-05
4.31715e-05
4.59598e-05
4.83885e-05
5.02691e-05
5.11331e-05
5.10484e-05
1.02271e-05
9.92165e-06
9.89159e-06
1.0231e-05
1.07704e-05
1.14295e-05
1.21764e-05
1.2997e-05
1.38835e-05
1.48395e-05
1.58742e-05
1.69999e-05
1.82312e-05
1.95831e-05
2.10709e-05
2.27096e-05
2.45139e-05
2.64981e-05
2.86758e-05
3.10603e-05
3.3664e-05
3.64986e-05
3.95744e-05
4.29002e-05
4.64827e-05
5.03254e-05
5.44279e-05
5.87838e-05
6.33808e-05
6.82111e-05
7.32409e-05
7.82134e-05
8.28734e-05
8.70198e-05
9.05683e-05
9.33386e-05
9.52227e-05
9.59648e-05
9.56105e-05
9.44366e-05
9.26302e-05
9.01322e-05
8.69691e-05
8.32739e-05
7.9104e-05
7.45344e-05
6.96637e-05
6.45124e-05
5.91814e-05
5.37443e-05
4.82581e-05
4.27793e-05
3.73156e-05
3.18852e-05
2.6493e-05
2.11343e-05
1.57849e-05
1.03977e-05
4.88306e-06
-8.75263e-07
-7.02011e-06
-1.35794e-05
-2.06761e-05
-2.79933e-05
-3.54665e-05
-4.27022e-05
-4.93942e-05
-5.55653e-05
-6.08822e-05
-6.5359e-05
-6.90878e-05
-7.21034e-05
-7.4398e-05
-7.59441e-05
-7.67117e-05
-7.66921e-05
-7.5857e-05
-7.41797e-05
-7.15902e-05
-6.80842e-05
-6.36491e-05
-5.82264e-05
-5.17629e-05
-4.4307e-05
-3.584e-05
-2.64872e-05
-1.63929e-05
-5.89217e-06
4.59151e-06
1.47132e-05
2.42182e-05
3.27885e-05
4.03553e-05
4.68907e-05
5.2317e-05
5.65592e-05
5.96187e-05
6.1683e-05
6.27144e-05
6.28069e-05
6.20821e-05
6.06534e-05
5.85934e-05
5.59775e-05
5.28976e-05
4.94342e-05
4.56536e-05
4.16506e-05
3.74631e-05
3.31375e-05
2.87048e-05
2.42358e-05
1.9699e-05
1.51708e-05
1.05818e-05
5.92592e-06
1.08856e-06
-4.05926e-06
-9.67909e-06
-1.58338e-05
-2.2634e-05
-2.9869e-05
-3.73674e-05
-4.4565e-05
-5.13575e-05
-5.73252e-05
-6.24326e-05
-6.67555e-05
-7.03223e-05
-7.31914e-05
-7.53681e-05
-7.68211e-05
-7.75091e-05
-7.74268e-05
-7.65501e-05
-7.48134e-05
-7.22199e-05
-6.87285e-05
-6.43166e-05
-5.89403e-05
-5.26181e-05
-4.53997e-05
-3.72571e-05
-2.83639e-05
-1.88581e-05
-9.01939e-06
7.86255e-07
1.0186e-05
1.88603e-05
2.65605e-05
3.31247e-05
3.86242e-05
4.2924e-05
4.58343e-05
4.76182e-05
4.83304e-05
4.80503e-05
4.69308e-05
4.51011e-05
4.29872e-05
4.06861e-05
3.81289e-05
3.53551e-05
3.33371e-05
3.11427e-05
2.91191e-05
2.73683e-05
2.56845e-05
2.41404e-05
2.27791e-05
2.1551e-05
2.03893e-05
1.93586e-05
1.84771e-05
1.7759e-05
1.72166e-05
1.68546e-05
1.66723e-05
1.66676e-05
1.6839e-05
1.71864e-05
1.77105e-05
1.84128e-05
1.92955e-05
2.0361e-05
2.16118e-05
2.30507e-05
2.46806e-05
2.65042e-05
2.85214e-05
3.0726e-05
3.30977e-05
3.55898e-05
3.81116e-05
4.05114e-05
4.25679e-05
4.40616e-05
4.48181e-05
4.50325e-05
4.43979e-05
1.0187e-05
9.88112e-06
9.79669e-06
1.00216e-05
1.04395e-05
1.09878e-05
1.16362e-05
1.23676e-05
1.31735e-05
1.40536e-05
1.50137e-05
1.60633e-05
1.72141e-05
1.8479e-05
1.98714e-05
2.14047e-05
2.30921e-05
2.49464e-05
2.69801e-05
2.92052e-05
3.1633e-05
3.42739e-05
3.71372e-05
4.02308e-05
4.35604e-05
4.71288e-05
5.09353e-05
5.49736e-05
5.92324e-05
6.3704e-05
6.83552e-05
7.2957e-05
7.72498e-05
8.10501e-05
8.43051e-05
8.6848e-05
8.85413e-05
8.91439e-05
8.86696e-05
8.73777e-05
8.54606e-05
8.28527e-05
7.95931e-05
7.58467e-05
7.17042e-05
6.72938e-05
6.26223e-05
5.77646e-05
5.28135e-05
4.78208e-05
4.2829e-05
3.7884e-05
3.29894e-05
2.81621e-05
2.34112e-05
1.87331e-05
1.41107e-05
9.4984e-06
4.8208e-06
-3.38141e-08
-5.18221e-06
-1.06679e-05
-1.66159e-05
-2.28976e-05
-2.94199e-05
-3.59873e-05
-4.23055e-05
-4.82198e-05
-5.35032e-05
-5.80131e-05
-6.18733e-05
-6.50039e-05
-6.74034e-05
-6.90808e-05
-7.00369e-05
-7.02511e-05
-6.96951e-05
-6.83522e-05
-6.61414e-05
-6.30511e-05
-5.90712e-05
-5.41405e-05
-4.82058e-05
-4.13207e-05
-3.34655e-05
-2.4762e-05
-1.53451e-05
-5.553e-06
4.26308e-06
1.37598e-05
2.25897e-05
3.05152e-05
3.75409e-05
4.34822e-05
4.82692e-05
5.19405e-05
5.46044e-05
5.62963e-05
5.70412e-05
5.69501e-05
5.61288e-05
5.46394e-05
5.256e-05
4.99749e-05
4.69812e-05
4.36629e-05
4.00895e-05
3.63531e-05
3.24909e-05
2.85513e-05
2.4566e-05
2.05954e-05
1.66199e-05
1.26935e-05
8.75425e-06
4.78612e-06
6.82974e-07
-3.66684e-06
-8.4018e-06
-1.35972e-05
-1.93561e-05
-2.55712e-05
-3.21398e-05
-3.86655e-05
-4.49896e-05
-5.07248e-05
-5.57307e-05
-5.99985e-05
-6.35209e-05
-6.63451e-05
-6.84905e-05
-6.99656e-05
-7.0735e-05
-7.07806e-05
-7.00811e-05
-6.85586e-05
-6.62231e-05
-6.30272e-05
-5.89496e-05
-5.39505e-05
-4.80478e-05
-4.13027e-05
-3.36942e-05
-2.5387e-05
-1.65504e-05
-7.41428e-06
1.65386e-06
1.0302e-05
1.82069e-05
2.51221e-05
3.10219e-05
3.57677e-05
3.92334e-05
4.15544e-05
4.28983e-05
4.32586e-05
4.27796e-05
4.16058e-05
3.98314e-05
3.78679e-05
3.57765e-05
3.34918e-05
3.10809e-05
2.93093e-05
2.74498e-05
2.57586e-05
2.43117e-05
2.29253e-05
2.16629e-05
2.05581e-05
1.95696e-05
1.86362e-05
1.78062e-05
1.70957e-05
1.65211e-05
1.60967e-05
1.58298e-05
1.57233e-05
1.57778e-05
1.5994e-05
1.63724e-05
1.69139e-05
1.76192e-05
1.8489e-05
1.95237e-05
2.07238e-05
2.20893e-05
2.362e-05
2.5314e-05
2.71658e-05
2.91611e-05
3.12694e-05
3.34307e-05
3.55402e-05
3.74346e-05
3.89006e-05
3.97682e-05
4.00399e-05
3.99309e-05
3.92548e-05
9.87217e-06
9.59363e-06
9.49305e-06
9.64835e-06
9.98018e-06
1.04415e-05
1.10063e-05
1.16579e-05
1.23874e-05
1.31927e-05
1.40769e-05
1.50472e-05
1.6113e-05
1.72853e-05
1.85756e-05
1.99957e-05
2.15575e-05
2.32723e-05
2.51514e-05
2.72053e-05
2.94443e-05
3.18775e-05
3.45133e-05
3.73585e-05
4.04183e-05
4.36952e-05
4.71884e-05
5.08924e-05
5.47977e-05
5.88975e-05
6.31609e-05
6.73831e-05
7.13108e-05
7.47791e-05
7.77619e-05
8.00976e-05
8.16193e-05
8.20995e-05
8.15361e-05
8.01685e-05
7.81887e-05
7.55283e-05
7.22356e-05
6.85084e-05
6.44824e-05
6.02676e-05
5.58377e-05
5.13141e-05
4.67637e-05
4.22216e-05
3.77207e-05
3.32981e-05
2.89541e-05
2.47036e-05
2.05564e-05
1.65083e-05
1.25452e-05
8.62437e-06
4.68219e-06
6.1945e-07
-3.66533e-06
-8.23536e-06
-1.31721e-05
-1.84489e-05
-2.40157e-05
-2.97366e-05
-3.54267e-05
-4.09252e-05
-4.60192e-05
-5.05006e-05
-5.44338e-05
-5.76778e-05
-6.0277e-05
-6.21489e-05
-6.33292e-05
-6.37836e-05
-6.34991e-05
-6.24686e-05
-6.06119e-05
-5.79145e-05
-5.43728e-05
-4.99209e-05
-4.4508e-05
-3.81871e-05
-3.09416e-05
-2.28883e-05
-1.41581e-05
-5.0575e-06
4.08123e-06
1.28772e-05
2.10333e-05
2.83363e-05
3.46892e-05
4.00122e-05
4.42385e-05
4.74591e-05
4.97354e-05
5.10944e-05
5.15929e-05
5.13405e-05
5.04025e-05
4.88368e-05
4.67394e-05
4.42008e-05
4.13207e-05
3.8183e-05
3.48558e-05
3.14235e-05
2.79201e-05
2.43913e-05
2.08657e-05
1.73918e-05
1.39553e-05
1.05912e-05
7.24217e-06
3.88656e-06
4.26727e-07
-3.23251e-06
-7.21007e-06
-1.15761e-05
-1.64211e-05
-2.16934e-05
-2.73352e-05
-3.30922e-05
-3.88089e-05
-4.41657e-05
-4.89808e-05
-5.31681e-05
-5.66691e-05
-5.95032e-05
-6.1678e-05
-6.32009e-05
-6.40503e-05
-6.42147e-05
-6.36805e-05
-6.23598e-05
-6.0269e-05
-5.73589e-05
-5.3607e-05
-4.89801e-05
-4.34951e-05
-3.72208e-05
-3.01596e-05
-2.24419e-05
-1.4251e-05
-5.8326e-06
2.48069e-06
1.03522e-05
1.74691e-05
2.366e-05
2.87795e-05
3.27171e-05
3.55806e-05
3.74633e-05
3.84088e-05
3.84974e-05
3.78847e-05
3.66684e-05
3.49543e-05
3.31296e-05
3.12366e-05
2.92188e-05
2.71495e-05
2.56141e-05
2.40614e-05
2.26695e-05
2.1491e-05
2.03634e-05
1.93412e-05
1.84516e-05
1.76621e-05
1.69177e-05
1.62551e-05
1.56893e-05
1.52376e-05
1.49151e-05
1.47306e-05
1.4689e-05
1.47928e-05
1.50436e-05
1.54423e-05
1.59893e-05
1.66842e-05
1.75261e-05
1.85135e-05
1.96445e-05
2.09163e-05
2.23256e-05
2.38663e-05
2.55278e-05
2.72897e-05
2.91147e-05
3.0938e-05
3.26552e-05
3.41173e-05
3.51492e-05
3.56378e-05
3.57087e-05
3.54558e-05
3.49141e-05
9.36609e-06
9.12134e-06
9.02151e-06
9.13333e-06
9.40227e-06
9.79356e-06
1.0286e-05
1.08648e-05
1.15211e-05
1.2252e-05
1.30588e-05
1.39468e-05
1.49235e-05
1.5998e-05
1.71804e-05
1.84807e-05
1.99093e-05
2.14763e-05
2.31916e-05
2.50645e-05
2.7104e-05
2.93182e-05
3.17147e-05
3.42993e-05
3.70769e-05
4.00498e-05
4.32178e-05
4.65765e-05
5.01185e-05
5.38389e-05
5.77104e-05
6.15502e-05
6.51182e-05
6.82688e-05
7.09983e-05
7.31443e-05
7.45116e-05
7.48867e-05
7.42622e-05
7.28564e-05
7.08578e-05
6.81973e-05
6.49307e-05
6.12926e-05
5.74359e-05
5.34406e-05
4.93022e-05
4.51436e-05
4.10072e-05
3.69194e-05
3.29049e-05
2.89928e-05
2.51799e-05
2.14791e-05
1.78978e-05
1.44307e-05
1.10647e-05
7.76048e-06
4.46366e-06
1.08678e-06
-2.45259e-06
-6.22676e-06
-1.02961e-05
-1.46762e-05
-1.93379e-05
-2.42024e-05
-2.9151e-05
-3.40615e-05
-3.87768e-05
-4.30949e-05
-4.69405e-05
-5.02044e-05
-5.28813e-05
-5.49656e-05
-5.64123e-05
-5.7144e-05
-5.71617e-05
-5.64573e-05
-5.49594e-05
-5.26504e-05
-4.95382e-05
-4.55563e-05
-4.06625e-05
-3.49032e-05
-2.82681e-05
-2.08683e-05
-1.28349e-05
-4.42672e-06
3.9812e-06
1.20636e-05
1.95303e-05
2.61636e-05
3.18769e-05
3.65854e-05
4.02956e-05
4.31275e-05
4.50118e-05
4.60699e-05
4.63437e-05
4.59155e-05
4.48474e-05
4.32153e-05
4.11221e-05
3.86619e-05
3.59336e-05
3.30152e-05
2.99708e-05
2.68729e-05
2.37502e-05
2.06432e-05
1.75752e-05
1.4583e-05
1.16539e-05
8.80762e-06
5.99105e-06
3.17961e-06
2.84168e-07
-2.7752e-06
-6.10144e-06
-9.75365e-06
-1.38097e-05
-1.82446e-05
-2.30273e-05
-2.79987e-05
-3.30309e-05
-3.78782e-05
-4.2365e-05
-4.63672e-05
-4.97879e-05
-5.26106e-05
-5.48252e-05
-5.6421e-05
-5.73689e-05
-5.76602e-05
-5.72957e-05
-5.61793e-05
-5.43297e-05
-5.17025e-05
-4.82756e-05
-4.40227e-05
-3.8956e-05
-3.314e-05
-2.66209e-05
-1.95264e-05
-1.19863e-05
-4.29645e-06
3.25026e-06
1.03314e-05
1.66631e-05
2.20671e-05
2.6398e-05
2.97017e-05
3.21044e-05
3.35324e-05
3.41408e-05
3.40126e-05
3.32854e-05
3.20567e-05
3.04151e-05
2.87273e-05
2.70312e-05
2.52775e-05
2.35282e-05
2.22183e-05
2.09449e-05
1.98199e-05
1.88763e-05
1.79731e-05
1.71551e-05
1.6446e-05
1.58217e-05
1.52345e-05
1.47116e-05
1.4268e-05
1.39209e-05
1.36853e-05
1.35708e-05
1.35832e-05
1.37259e-05
1.4001e-05
1.44091e-05
1.49499e-05
1.56218e-05
1.64222e-05
1.73478e-05
1.83945e-05
1.95572e-05
2.08297e-05
2.22028e-05
2.36617e-05
2.51822e-05
2.67248e-05
2.82267e-05
2.95954e-05
3.07102e-05
3.14441e-05
3.17311e-05
3.17283e-05
3.14536e-05
3.10302e-05
8.71955e-06
8.50662e-06
8.41391e-06
8.49704e-06
8.71784e-06
9.05068e-06
9.47871e-06
9.98939e-06
1.05746e-05
1.12308e-05
1.19583e-05
1.27609e-05
1.36445e-05
1.46167e-05
1.56856e-05
1.68601e-05
1.81491e-05
1.95614e-05
2.11054e-05
2.27893e-05
2.46211e-05
2.66079e-05
2.87561e-05
3.10714e-05
3.3558e-05
3.62187e-05
3.90537e-05
4.20604e-05
4.52333e-05
4.85701e-05
5.20477e-05
5.55041e-05
5.87177e-05
6.15618e-05
6.40524e-05
6.60225e-05
6.72503e-05
6.75379e-05
6.68786e-05
6.54694e-05
6.3494e-05
6.08825e-05
5.76984e-05
5.42075e-05
5.05663e-05
4.68148e-05
4.30089e-05
3.92359e-05
3.55241e-05
3.18931e-05
2.83599e-05
2.49462e-05
2.16445e-05
1.84655e-05
1.5413e-05
1.24805e-05
9.65497e-06
6.90116e-06
4.17227e-06
1.39242e-06
-1.50578e-06
-4.59442e-06
-7.91627e-06
-1.15094e-05
-1.53619e-05
-1.94263e-05
-2.36257e-05
-2.78726e-05
-3.20531e-05
-3.60146e-05
-3.96593e-05
-4.28579e-05
-4.55307e-05
-4.77124e-05
-4.9284e-05
-5.0243e-05
-5.0571e-05
-5.02178e-05
-4.91142e-05
-4.72187e-05
-4.45474e-05
-4.10397e-05
-3.66692e-05
-3.14763e-05
-2.54572e-05
-1.87181e-05
-1.13886e-05
-3.71791e-06
3.94507e-06
1.12941e-05
1.80465e-05
2.39981e-05
2.90838e-05
3.32284e-05
3.64774e-05
3.88815e-05
4.04098e-05
4.1185e-05
4.12293e-05
4.06198e-05
3.94361e-05
3.77648e-05
3.5712e-05
3.33716e-05
3.08352e-05
2.81756e-05
2.54441e-05
2.27009e-05
1.99696e-05
1.72838e-05
1.46608e-05
1.21264e-05
9.66814e-06
7.29444e-06
4.95587e-06
2.62749e-06
2.2843e-07
-2.30732e-06
-5.06936e-06
-8.10456e-06
-1.14803e-05
-1.51845e-05
-1.92002e-05
-2.34268e-05
-2.77675e-05
-3.20369e-05
-3.6088e-05
-3.97911e-05
-4.30364e-05
-4.57671e-05
-4.79403e-05
-4.95695e-05
-5.06388e-05
-5.10685e-05
-5.08829e-05
-4.99869e-05
-4.83855e-05
-4.60447e-05
-4.29451e-05
-3.90756e-05
-3.44459e-05
-2.91153e-05
-2.31236e-05
-1.66438e-05
-9.7953e-06
-2.83556e-06
3.93187e-06
1.02075e-05
1.57345e-05
2.03696e-05
2.4019e-05
2.68218e-05
2.87162e-05
2.97555e-05
3.00749e-05
2.9765e-05
2.89455e-05
2.77294e-05
2.6175e-05
2.46286e-05
2.31326e-05
2.16342e-05
2.01866e-05
1.90927e-05
1.80708e-05
1.71808e-05
1.64411e-05
1.57314e-05
1.50866e-05
1.45286e-05
1.40417e-05
1.35854e-05
1.31795e-05
1.28389e-05
1.25804e-05
1.24183e-05
1.23622e-05
1.24181e-05
1.25898e-05
1.2879e-05
1.3286e-05
1.38094e-05
1.44465e-05
1.51934e-05
1.6045e-05
1.69958e-05
1.80388e-05
1.91659e-05