/*--------------------------------*- C++ -*----------------------------------*\
| =========                 |                                                 |
| \\      /  F ield         | OpenFOAM: The Open Source CFD Toolbox           |
|  \\    /   O peration     | Version:  2506                                  |
|   \\  /    A nd           | Website:  www.openfoam.com                      |
|    \\/     M anipulation  |                                                 |
\*---------------------------------------------------------------------------*/
FoamFile
{
    version     2.0;
    format      ascii;
    arch        "LSB;label=32;scalar=64";
    class       surfaceScalarField;
    location    "2.7";
    object      phi;
}
// * * * * * * * * * * * * * * * * * * * * * * * * * * * * * * * * * * * * * //

dimensions      [0 3 -1 0 0 0 0];

oriented        oriented;

internalField   nonuniform List<scalar> 
7780
(
9.0141e-10
-9.0141e-10
1.60802e-09
-7.06608e-10
2.04929e-09
-4.41271e-10
2.35615e-09
-3.06863e-10
2.5764e-09
-2.20252e-10
2.7348e-09
-1.58394e-10
2.85198e-09
-1.17179e-10
2.94222e-09
-9.02393e-11
3.01441e-09
-7.21949e-11
3.07407e-09
-5.96625e-11
3.12473e-09
-5.06517e-11
3.16866e-09
-4.39319e-11
3.20739e-09
-3.87293e-11
3.24195e-09
-3.45631e-11
3.27308e-09
-3.11324e-11
3.30133e-09
-2.82434e-11
3.32709e-09
-2.57677e-11
3.35071e-09
-2.36199e-11
3.37246e-09
-2.17438e-11
3.39256e-09
-2.01055e-11
3.41125e-09
-1.86883e-11
3.42873e-09
-1.74814e-11
3.44524e-09
-1.65085e-11
3.46104e-09
-1.58021e-11
3.47645e-09
-1.54095e-11
3.49185e-09
-1.53972e-11
3.50771e-09
-1.58605e-11
3.52465e-09
-1.69361e-11
3.54345e-09
-1.88011e-11
3.56502e-09
-2.15758e-11
3.57892e-09
-7.32598e-11
3.53002e-09
-3.6978e-10
3.40398e-09
-7.45898e-10
3.20857e-09
-1.08463e-09
2.95681e-09
-1.37509e-09
2.68477e-09
-1.64804e-09
2.42471e-09
-1.92091e-09
2.12359e-09
-2.26283e-09
1.8138e-09
-2.49611e-09
1.56811e-09
-2.61879e-09
1.38047e-09
-2.71714e-09
1.24536e-09
-2.79569e-09
1.15032e-09
-2.85124e-09
1.08545e-09
-2.88701e-09
1.0426e-09
-2.90502e-09
1.01353e-09
-2.90498e-09
9.95549e-10
-2.88768e-09
9.81321e-10
-2.85287e-09
9.66247e-10
-2.7997e-09
9.45458e-10
-2.72548e-09
9.18642e-10
-2.62602e-09
9.00494e-10
-2.50063e-09
8.86925e-10
-2.3519e-09
9.10265e-10
-2.16462e-09
9.89436e-10
-1.93788e-09
1.16317e-09
-1.64364e-09
1.43577e-09
-1.28304e-09
1.80758e-09
-7.96862e-10
2.20851e-09
-1.95859e-10
2.54026e-09
4.56033e-10
2.77064e-09
1.06068e-09
2.91417e-09
1.59778e-09
2.99618e-09
1.9493e-09
3.04978e-09
2.24341e-09
3.0928e-09
2.42129e-09
3.14093e-09
2.55679e-09
3.19101e-09
2.66508e-09
3.24382e-09
2.73789e-09
3.29743e-09
2.79529e-09
3.35047e-09
2.83944e-09
3.40317e-09
2.87234e-09
3.45499e-09
2.89193e-09
3.50604e-09
2.90039e-09
3.55667e-09
2.8989e-09
3.60693e-09
2.88761e-09
3.65698e-09
2.86596e-09
3.70686e-09
2.83272e-09
3.75675e-09
2.77886e-09
3.80667e-09
2.71355e-09
3.85627e-09
2.62966e-09
3.90633e-09
2.51967e-09
3.95504e-09
2.3525e-09
4.0028e-09
2.16801e-09
4.04748e-09
1.89041e-09
4.08826e-09
1.56595e-09
4.12117e-09
1.08879e-09
4.14527e-09
5.63866e-10
4.1558e-09
-2.14872e-11
4.15002e-09
-6.29126e-10
4.12115e-09
-1.15848e-09
4.06854e-09
-1.55656e-09
3.99059e-09
-1.89584e-09
3.8927e-09
-2.1196e-09
3.78169e-09
-2.32114e-09
3.67252e-09
-2.46111e-09
3.57868e-09
-2.58696e-09
3.50745e-09
-2.70436e-09
3.45777e-09
-2.78712e-09
3.42357e-09
-2.84888e-09
3.39827e-09
-2.89123e-09
3.37467e-09
-2.91505e-09
3.34461e-09
-2.92047e-09
3.30131e-09
-2.90797e-09
3.24128e-09
-2.88171e-09
3.16455e-09
-2.84534e-09
3.07228e-09
-2.79912e-09
2.96666e-09
-2.74273e-09
2.84925e-09
-2.66893e-09
2.72358e-09
-2.57457e-09
2.59111e-09
-2.46491e-09
2.45336e-09
-2.32846e-09
2.32815e-09
-2.13283e-09
2.21618e-09
-1.92272e-09
2.15488e-09
-1.6208e-09
2.1557e-09
-1.28225e-09
2.24114e-09
-8.36909e-10
2.39729e-09
-2.89203e-10
2.56614e-09
3.02438e-10
2.70359e-09
8.84535e-10
2.79377e-09
1.43247e-09
2.83969e-09
1.83051e-09
2.85809e-09
2.14713e-09
2.8733e-09
2.35249e-09
2.89509e-09
2.52156e-09
2.92485e-09
2.62737e-09
2.96107e-09
2.71045e-09
3.00157e-09
2.77999e-09
3.0454e-09
2.82987e-09
3.09153e-09
2.86347e-09
3.13954e-09
2.88598e-09
3.18923e-09
2.89825e-09
3.24086e-09
2.90045e-09
3.29447e-09
2.89267e-09
3.35008e-09
2.87258e-09
3.40862e-09
2.84136e-09
3.46969e-09
2.79841e-09
3.53407e-09
2.74066e-09
3.60224e-09
2.66594e-09
3.6738e-09
2.55171e-09
3.74959e-09
2.42169e-09
3.82869e-09
2.25771e-09
3.90988e-09
2.00302e-09
3.99189e-09
1.72604e-09
4.07007e-09
1.30756e-09
4.14252e-09
8.23752e-10
4.2031e-09
2.65549e-10
4.2471e-09
-3.46366e-10
4.26659e-09
-9.24624e-10
4.2588e-09
-1.37783e-09
4.22044e-09
-1.74947e-09
4.15533e-09
-2.02977e-09
4.0695e-09
-2.23839e-09
3.97553e-09
-2.39466e-09
3.88638e-09
-2.5456e-09
3.8151e-09
-2.6569e-09
3.7644e-09
-2.7505e-09
3.72896e-09
-2.82176e-09
3.70169e-09
-2.87437e-09
3.67611e-09
-2.90384e-09
3.63358e-09
-2.903e-09
3.56244e-09
-2.88061e-09
3.46202e-09
-2.84795e-09
3.30908e-09
-2.78226e-09
3.17794e-09
-2.24119e-09
3.04659e-09
-1.94874e-09
2.92137e-09
-1.70979e-09
2.82469e-09
-1.41394e-09
2.77691e-09
-1.10059e-09
2.78849e-09
-7.36878e-10
2.855e-09
-3.49185e-10
2.93611e-09
-9.29381e-11
2.99304e-09
-5.69317e-11
3.03128e-09
-3.82341e-11
3.05664e-09
-2.53608e-11
3.07319e-09
-1.65572e-11
3.08406e-09
-1.08656e-11
3.09149e-09
-7.42773e-12
3.09698e-09
-5.49081e-12
3.10146e-09
-4.48495e-12
3.10537e-09
-3.90836e-12
3.10884e-09
-3.47103e-12
3.11182e-09
-2.97499e-12
3.11413e-09
-2.31545e-12
3.11556e-09
-1.42465e-12
3.11574e-09
-1.82312e-13
3.11461e-09
1.1273e-12
3.11196e-09
2.65363e-12
3.10749e-09
4.46967e-12
3.10088e-09
6.60907e-12
3.09163e-09
9.24851e-12
3.07891e-09
1.27175e-11
3.06128e-09
1.76386e-11
3.03604e-09
2.52399e-11
2.99799e-09
3.80496e-11
2.9365e-09
6.14844e-11
2.82894e-09
1.07558e-10
2.62519e-09
2.03758e-10
2.21354e-09
4.11645e-10
1.3487e-09
8.6484e-10
1.3487e-09
-5.74811e-11
-8.43929e-10
1.95409e-10
-9.59497e-10
5.37415e-10
-7.83277e-10
8.45419e-10
-6.14867e-10
1.10547e-09
-4.80306e-10
1.32202e-09
-3.7494e-10
1.50129e-09
-2.96453e-10
1.65042e-09
-2.3937e-10
1.77565e-09
-1.97417e-10
1.88191e-09
-1.65928e-10
1.97304e-09
-1.41779e-10
2.05194e-09
-1.2283e-10
2.12081e-09
-1.07606e-10
2.18135e-09
-9.51013e-11
2.23485e-09
-8.4636e-11
2.28235e-09
-7.57407e-11
2.32467e-09
-6.80891e-11
2.36251e-09
-6.14549e-11
2.39645e-09
-5.56856e-11
2.42703e-09
-5.0686e-11
2.45475e-09
-4.64087e-11
2.48011e-09
-4.28381e-11
2.50362e-09
-4.00223e-11
2.52587e-09
-3.80494e-11
2.54751e-09
-3.70532e-11
2.56935e-09
-3.72309e-11
2.59235e-09
-3.88611e-11
2.61774e-09
-4.23321e-11
2.64716e-09
-4.82164e-11
2.68279e-09
-5.72043e-11
2.71319e-09
-1.03661e-10
2.67705e-09
-3.33642e-10
2.56525e-09
-6.34097e-10
2.40117e-09
-9.20558e-10
2.20962e-09
-1.18353e-09
2.0173e-09
-1.45572e-09
1.83578e-09
-1.73938e-09
1.63063e-09
-2.05768e-09
1.4224e-09
-2.28789e-09
1.24897e-09
-2.44536e-09
1.11028e-09
-2.57845e-09
1.00234e-09
-2.68774e-09
9.18988e-10
-2.7679e-09
8.55272e-10
-2.82331e-09
8.06061e-10
-2.85581e-09
7.65218e-10
-2.86414e-09
7.28404e-10
-2.85086e-09
6.90759e-10
-2.81522e-09
6.47241e-10
-2.75618e-09
5.95104e-10
-2.67333e-09
5.34724e-10
-2.56564e-09
4.72291e-10
-2.4382e-09
4.07875e-10
-2.28748e-09
3.59253e-10
-2.116e-09
3.42766e-10
-1.92139e-09
3.93937e-10
-1.69481e-09
5.40689e-10
-1.42979e-09
8.29639e-10
-1.08581e-09
1.27207e-09
-6.38293e-10
1.80489e-09
-7.67856e-11
2.31263e-09
5.52942e-10
2.71219e-09
1.19822e-09
2.97373e-09
1.68776e-09
3.13587e-09
2.08127e-09
3.2295e-09
2.32767e-09
3.28678e-09
2.4995e-09
3.32889e-09
2.62295e-09
3.36799e-09
2.6988e-09
3.40849e-09
2.75479e-09
3.45093e-09
2.797e-09
3.4958e-09
2.82747e-09
3.54197e-09
2.84577e-09
3.58895e-09
2.85344e-09
3.63669e-09
2.85118e-09
3.68514e-09
2.83919e-09
3.73423e-09
2.81689e-09
3.78389e-09
2.78309e-09
3.83426e-09
2.7285e-09
3.88538e-09
2.66244e-09
3.9368e-09
2.57825e-09
3.98931e-09
2.46715e-09
4.04105e-09
2.30077e-09
4.09248e-09
2.11658e-09
4.1408e-09
1.84209e-09
4.1845e-09
1.52226e-09
4.21657e-09
1.05673e-09
4.23249e-09
5.47945e-10
4.22362e-09
-1.26176e-11
4.18558e-09
-5.91087e-10
4.11472e-09
-1.08762e-09
4.01858e-09
-1.46041e-09
3.90449e-09
-1.78175e-09
3.78892e-09
-2.00403e-09
3.68361e-09
-2.21583e-09
3.60003e-09
-2.37753e-09
3.53816e-09
-2.52508e-09
3.49322e-09
-2.65942e-09
3.46029e-09
-2.75419e-09
3.43238e-09
-2.82096e-09
3.40074e-09
-2.85959e-09
3.35701e-09
-2.87132e-09
3.2965e-09
-2.85996e-09
3.21723e-09
-2.82871e-09
3.12104e-09
-2.78554e-09
3.00945e-09
-2.73377e-09
2.88526e-09
-2.67495e-09
2.75034e-09
-2.60781e-09
2.60615e-09
-2.52473e-09
2.45582e-09
-2.42423e-09
2.29962e-09
-2.3087e-09
2.14102e-09
-2.16984e-09
1.99286e-09
-1.98468e-09
1.85905e-09
-1.78891e-09
1.76518e-09
-1.52693e-09
1.72479e-09
-1.24186e-09
1.76721e-09
-8.79331e-10
1.9175e-09
-4.3949e-10
2.16272e-09
5.72161e-11
2.44772e-09
5.99538e-10
2.70202e-09
1.17818e-09
2.8845e-09
1.64803e-09
2.99792e-09
2.03371e-09
3.05448e-09
2.29593e-09
3.0795e-09
2.49652e-09
3.09505e-09
2.61181e-09
3.11311e-09
2.69239e-09
3.13721e-09
2.75588e-09
3.1678e-09
2.79929e-09
3.20393e-09
2.82735e-09
3.24457e-09
2.84536e-09
3.2888e-09
2.85404e-09
3.33642e-09
2.85285e-09
3.38718e-09
2.84192e-09
3.44093e-09
2.81884e-09
3.49854e-09
2.78377e-09
3.55943e-09
2.73753e-09
3.62434e-09
2.67576e-09
3.69371e-09
2.59657e-09
3.76718e-09
2.47826e-09
3.84566e-09
2.34321e-09
3.92808e-09
2.17529e-09
4.01263e-09
1.91848e-09
4.09767e-09
1.64101e-09
4.17614e-09
1.2291e-09
4.24303e-09
7.56856e-10
4.28703e-09
2.21554e-10
4.30074e-09
-3.60079e-10
4.27641e-09
-9.00293e-10
4.21823e-09
-1.31964e-09
4.13318e-09
-1.66443e-09
4.03691e-09
-1.9335e-09
3.94389e-09
-2.14538e-09
3.86894e-09
-2.31971e-09
3.81457e-09
-2.49123e-09
3.77701e-09
-2.61934e-09
3.74922e-09
-2.7227e-09
3.72365e-09
-2.79618e-09
3.69243e-09
-2.84314e-09
3.64639e-09
-2.85779e-09
3.5668e-09
-2.82339e-09
3.4467e-09
-2.7605e-09
3.28937e-09
-2.69063e-09
3.09405e-09
-2.58696e-09
2.92639e-09
-2.07355e-09
2.77037e-09
-1.79275e-09
2.62633e-09
-1.56575e-09
2.50711e-09
-1.29473e-09
2.42794e-09
-1.02141e-09
2.40092e-09
-7.0985e-10
2.43248e-09
-3.8075e-10
2.49845e-09
-1.58906e-10
2.55578e-09
-1.14256e-10
2.59942e-09
-8.1879e-11
2.62903e-09
-5.49657e-11
2.64687e-09
-3.43957e-11
2.65593e-09
-1.993e-11
2.65899e-09
-1.04837e-11
2.65818e-09
-4.6877e-12
2.65493e-09
-1.22751e-12
2.64997e-09
1.04803e-12
2.64352e-09
2.98081e-12
2.6354e-09
5.14652e-12
2.62521e-09
7.86639e-12
2.6125e-09
1.12882e-11
2.59687e-09
1.54476e-11
2.57775e-09
2.02471e-11
2.55466e-09
2.57472e-11
2.52707e-09
3.20594e-11
2.49427e-09
3.94078e-11
2.45524e-09
4.82802e-11
2.40838e-09
5.95775e-11
2.35107e-09
7.49514e-11
2.27873e-09
9.75736e-11
2.18292e-09
1.33859e-10
2.04718e-09
1.97222e-10
1.83926e-09
3.15486e-10
1.50098e-09
5.42038e-10
9.55713e-10
9.56907e-10
2.59481e-10
1.56107e-09
1.60818e-09
-1.86635e-10
-6.57294e-10
-1.97264e-10
-9.48868e-10
-8.01369e-11
-9.00405e-10
8.45995e-11
-7.79603e-10
2.58811e-10
-6.54518e-10
4.27117e-10
-5.43246e-10
5.82881e-10
-4.52216e-10
7.23748e-10
-3.80237e-10
8.49784e-10
-3.23453e-10
9.62093e-10
-2.78237e-10
1.06209e-09
-2.41778e-10
1.15122e-09
-2.11955e-10
1.2308e-09
-1.87185e-10
1.302e-09
-1.66307e-10
1.36585e-09
-1.48482e-10
1.42321e-09
-1.331e-10
1.47484e-09
-1.19722e-10
1.52142e-09
-1.08032e-10
1.56355e-09
-9.78174e-11
1.60181e-09
-8.89474e-11
1.63676e-09
-8.13633e-11
1.669e-09
-7.50728e-11
1.69914e-09
-7.01593e-11
1.72787e-09
-6.6782e-11
1.756e-09
-6.51848e-11
1.78449e-09
-6.57181e-11
1.8145e-09
-6.88698e-11
1.84748e-09
-7.53118e-11
1.88527e-09
-8.60083e-11
1.93025e-09
-1.02186e-10
1.97504e-09
-1.48448e-10
1.97267e-09
-3.31271e-10
1.91575e-09
-5.77179e-10
1.82235e-09
-8.27164e-10
1.7101e-09
-1.07127e-09
1.59418e-09
-1.33981e-09
1.47804e-09
-1.62325e-09
1.34106e-09
-1.92069e-09
1.20196e-09
-2.14879e-09
1.0837e-09
-2.3271e-09
9.85968e-10
-2.48072e-09
9.06152e-10
-2.60792e-09
8.41122e-10
-2.70287e-09
7.87748e-10
-2.76993e-09
7.4219e-10
-2.81026e-09
7.01117e-10
-2.82308e-09
6.59921e-10
-2.80967e-09
6.14845e-10
-2.77014e-09
5.62158e-10
-2.70349e-09
4.99178e-10
-2.61035e-09
4.2695e-10
-2.49341e-09
3.48265e-10
-2.35951e-09
2.65201e-10
-2.20441e-09
1.88258e-10
-2.03905e-09
1.28786e-10
-1.86192e-09
1.08197e-10
-1.67422e-09
1.47827e-10
-1.46942e-09
2.87639e-10
-1.22563e-09
5.63293e-10
-9.13948e-10
9.91953e-10
-5.05446e-10
1.53401e-09
1.08784e-11
2.10223e-09
6.29999e-10
2.58518e-09
1.20481e-09
2.94294e-09
1.72352e-09
3.17561e-09
2.09499e-09
3.31637e-09
2.35873e-09
3.40492e-09
2.53442e-09
3.46546e-09
2.63826e-09
3.51222e-09
2.70801e-09
3.55219e-09
2.75702e-09
3.59184e-09
2.78779e-09
3.63286e-09
2.80475e-09
3.67535e-09
2.81097e-09
3.71931e-09
2.80725e-09
3.76482e-09
2.79368e-09
3.81161e-09
2.77011e-09
3.85941e-09
2.7353e-09
3.90822e-09
2.6797e-09
3.95803e-09
2.61262e-09
4.00833e-09
2.52794e-09
4.05964e-09
2.41583e-09
4.10932e-09
2.25109e-09
4.15765e-09
2.06824e-09
4.20055e-09
1.7992e-09
4.23547e-09
1.48735e-09
4.25294e-09
1.03926e-09
4.24828e-09
5.52597e-10
4.21274e-09
2.29253e-11
4.14527e-09
-5.23611e-10
4.04885e-09
-9.91202e-10
3.93855e-09
-1.35011e-09
3.82539e-09
-1.66859e-09
3.7253e-09
-1.90394e-09
3.6457e-09
-2.13623e-09
3.58861e-09
-2.32044e-09
3.54816e-09
-2.48462e-09
3.5183e-09
-2.62956e-09
3.48889e-09
-2.72477e-09
3.45232e-09
-2.78438e-09
3.40142e-09
-2.8087e-09
3.33101e-09
-2.80091e-09
3.24088e-09
-2.76983e-09
3.13403e-09
-2.72185e-09
3.01377e-09
-2.66529e-09
2.88288e-09
-2.60289e-09
2.74351e-09
-2.53559e-09
2.59708e-09
-2.4614e-09
2.44449e-09
-2.37214e-09
2.28795e-09
-2.26769e-09
2.12836e-09
-2.14909e-09
1.96954e-09
-2.011e-09
1.82035e-09
-1.83547e-09
1.68438e-09
-1.65294e-09
1.57581e-09
-1.41837e-09
1.50266e-09
-1.16872e-09
1.48509e-09
-8.61757e-10
1.54984e-09
-5.04244e-10
1.71662e-09
-1.09564e-10
1.98502e-09
3.3114e-10
2.3152e-09
8.47993e-10
2.62737e-09
1.33586e-09
2.87437e-09
1.78671e-09
3.03735e-09
2.13294e-09
3.13446e-09
2.39941e-09
3.19122e-09
2.55504e-09
3.22694e-09
2.65667e-09
3.25443e-09
2.7284e-09
3.28062e-09
2.7731e-09
3.31045e-09
2.79752e-09
3.34527e-09
2.81056e-09
3.38457e-09
2.81476e-09
3.42819e-09
2.80923e-09
3.47569e-09
2.79443e-09
3.52674e-09
2.7678e-09
3.58214e-09
2.72836e-09
3.64126e-09
2.67841e-09
3.7047e-09
2.61231e-09
3.77258e-09
2.52868e-09
3.84395e-09
2.40689e-09
3.91973e-09
2.26742e-09
3.99849e-09
2.09654e-09
4.07693e-09
1.84004e-09
4.15263e-09
1.56531e-09
4.21562e-09
1.16612e-09
4.26024e-09
7.12237e-10
4.27476e-09
2.07025e-10
4.2533e-09
-3.38613e-10
4.19525e-09
-8.42244e-10
4.11494e-09
-1.23933e-09
4.02526e-09
-1.57475e-09
3.94311e-09
-1.85135e-09
3.87948e-09
-2.08175e-09
3.83838e-09
-2.27861e-09
3.81187e-09
-2.46472e-09
3.79278e-09
-2.60026e-09
3.77207e-09
-2.70199e-09
3.73905e-09
-2.76315e-09
3.68655e-09
-2.79064e-09
3.60713e-09
-2.77836e-09
3.48915e-09
-2.7054e-09
3.33213e-09
-2.60346e-09
3.14511e-09
-2.50361e-09
2.93733e-09
-2.37919e-09
2.76301e-09
-1.89924e-09
2.60302e-09
-1.63277e-09
2.45507e-09
-1.41782e-09
2.3264e-09
-1.16606e-09
2.22747e-09
-9.22487e-10
2.16583e-09
-6.48199e-10
2.14856e-09
-3.63481e-10
2.1639e-09
-1.74246e-10
2.18215e-09
-1.32501e-10
2.198e-09
-9.77375e-11
2.20902e-09
-6.59787e-11
2.21451e-09
-3.98868e-11
2.21498e-09
-2.04009e-11
2.21141e-09
-6.91457e-12
2.20476e-09
1.96107e-12
2.19568e-09
7.85277e-12
2.18443e-09
1.23016e-11
2.17087e-09
1.65378e-11
2.15461e-09
2.14115e-11
2.13507e-09
2.74042e-11
2.11164e-09
3.47148e-11
2.08372e-09
4.33656e-11
2.05066e-09
5.33142e-11
2.0118e-09
6.46081e-11
1.96639e-09
7.7465e-11
1.91343e-09
9.23723e-11
1.85145e-09
1.10251e-10
1.77832e-09
1.32708e-10
1.69072e-09
1.6256e-10
1.58332e-09
2.04965e-10
1.4473e-09
2.69884e-10
1.26757e-09
3.7695e-10
1.0199e-09
5.63157e-10
6.75635e-10
8.86304e-10
2.45521e-10
1.38702e-09
-8.9811e-11
1.8964e-09
1.51837e-09
-1.60546e-10
-4.96749e-10
-2.61443e-10
-8.47971e-10
-2.64033e-10
-8.97815e-10
-2.08389e-10
-8.35247e-10
-1.2066e-10
-7.42246e-10
-1.64084e-11
-6.47498e-10
9.34711e-11
-5.62096e-10
2.02261e-10
-4.89027e-10
3.06391e-10
-4.27582e-10
4.04143e-10
-3.75989e-10
4.94837e-10
-3.32473e-10
5.78383e-10
-2.95501e-10
6.55013e-10
-2.63814e-10
7.25121e-10
-2.36415e-10
7.89168e-10
-2.12529e-10
8.47637e-10
-1.91569e-10
9.01007e-10
-1.73092e-10
9.49753e-10
-1.56777e-10
9.94345e-10
-1.4241e-10
1.03527e-09
-1.29867e-10
1.07301e-09
-1.19113e-10
1.10814e-09
-1.10199e-10
1.14125e-09
-1.03272e-10
1.17305e-09
-9.85786e-11
1.20435e-09
-9.64869e-11
1.23614e-09
-9.75068e-11
1.2696e-09
-1.0233e-10
1.30617e-09
-1.11886e-10
1.34762e-09
-1.2745e-10
1.39608e-09
-1.50645e-10
1.44722e-09
-1.99597e-10
1.46784e-09
-3.51886e-10
1.45083e-09
-5.60166e-10
1.40727e-09
-7.83608e-10
1.34847e-09
-1.01247e-09
1.28309e-09
-1.27443e-09
1.21252e-09
-1.55267e-09
1.12419e-09
-1.83237e-09
1.03357e-09
-2.05816e-09
9.55388e-10
-2.24892e-09
8.88904e-10
-2.41423e-09
8.32364e-10
-2.55138e-09
7.84203e-10
-2.65471e-09
7.42416e-10
-2.72815e-09
7.04109e-10
-2.77196e-09
6.66352e-10
-2.78533e-09
6.25745e-10
-2.76907e-09
5.7856e-10
-2.72296e-09
5.22436e-10
-2.64737e-09
4.56102e-10
-2.54402e-09
3.80654e-10
-2.41796e-09
2.98132e-10
-2.27699e-09
2.11599e-10
-2.11788e-09
1.27746e-10
-1.9552e-09
5.38069e-11
-1.78798e-09
1.42842e-12
-1.62184e-09
-1.68036e-11
-1.45119e-09
2.37796e-11
-1.26621e-09
1.54141e-10
-1.04431e-09
4.0947e-10
-7.60775e-10
8.10362e-10
-3.9001e-10
1.33855e-09
1.01811e-10
1.90302e-09
6.40342e-10
2.42578e-09
1.20077e-09
2.84376e-09
1.677e-09
3.14362e-09
2.05887e-09
3.33958e-09
2.33846e-09
3.46159e-09
2.51623e-09
3.54406e-09
2.62552e-09
3.60623e-09
2.69484e-09
3.6578e-09
2.73621e-09
3.70365e-09
2.75892e-09
3.74693e-09
2.76771e-09
3.78943e-09
2.76476e-09
3.83283e-09
2.75029e-09
3.87722e-09
2.72572e-09
3.92237e-09
2.69014e-09
3.96814e-09
2.63392e-09
4.01447e-09
2.56627e-09
4.06065e-09
2.48174e-09
4.1071e-09
2.36936e-09
4.15055e-09
2.20764e-09
4.19066e-09
2.02813e-09
4.22228e-09
1.76758e-09
4.24284e-09
1.46679e-09
4.24196e-09
1.04014e-09
4.21614e-09
5.78423e-10
4.15912e-09
7.99393e-11
4.07385e-09
-4.38339e-10
3.96863e-09
-8.85979e-10
3.86157e-09
-1.24305e-09
3.76363e-09
-1.57065e-09
3.68746e-09
-1.82777e-09
3.63272e-09
-2.08148e-09
3.5961e-09
-2.28382e-09
3.56914e-09
-2.45767e-09
3.54095e-09
-2.60137e-09
3.50129e-09
-2.6851e-09
3.44433e-09
-2.72742e-09
3.36554e-09
-2.72991e-09
3.26606e-09
-2.70143e-09
3.14993e-09
-2.65369e-09
3.02191e-09
-2.59383e-09
2.8857e-09
-2.52909e-09
2.74381e-09
-2.46101e-09
2.59766e-09
-2.38945e-09
2.44793e-09
-2.31168e-09
2.29514e-09
-2.21936e-09
2.14124e-09
-2.11379e-09
1.98755e-09
-1.9954e-09
1.83757e-09
-1.86101e-09
1.69737e-09
-1.69527e-09
1.5691e-09
-1.52466e-09
1.46012e-09
-1.30939e-09
1.37371e-09
-1.08231e-09
1.32095e-09
-8.08992e-10
1.32021e-09
-5.03507e-10
1.39289e-09
-1.82242e-10
1.56449e-09
1.59539e-10
1.84317e-09
5.69304e-10
2.18147e-09
9.97565e-10
2.52132e-09
1.44685e-09
2.8087e-09
1.84556e-09
3.01885e-09
2.18925e-09
3.1541e-09
2.41979e-09
3.23736e-09
2.5734e-09
3.29528e-09
2.67048e-09
3.34082e-09
2.72757e-09
3.38001e-09
2.75834e-09
3.41789e-09
2.77267e-09
3.45694e-09
2.7757e-09
3.49925e-09
2.76692e-09
3.54489e-09
2.7488e-09
3.59358e-09
2.71911e-09
3.64612e-09
2.67581e-09
3.70188e-09
2.62265e-09
3.76152e-09
2.55265e-09
3.82514e-09
2.46506e-09
3.89088e-09
2.34115e-09
3.95909e-09
2.19921e-09
4.02791e-09
2.02772e-09
4.09303e-09
1.77492e-09
4.15235e-09
1.50598e-09
4.19448e-09
1.12399e-09
4.21418e-09
6.9254e-10
4.20237e-09
2.18833e-10
4.15822e-09
-2.94467e-10
4.08791e-09
-7.71933e-10
4.01029e-09
-1.1617e-09
3.93877e-09
-1.50323e-09
3.88658e-09
-1.79917e-09
3.85565e-09
-2.05082e-09
3.84101e-09
-2.26398e-09
3.83101e-09
-2.45472e-09
3.81569e-09
-2.58494e-09
3.78301e-09
-2.66931e-09
3.72559e-09
-2.70574e-09
3.63868e-09
-2.70372e-09
3.52203e-09
-2.66172e-09
3.37072e-09
-2.55408e-09
3.18867e-09
-2.4214e-09
2.98831e-09
-2.30323e-09
2.78065e-09
-2.17151e-09
2.61053e-09
-1.72913e-09
2.4566e-09
-1.47885e-09
2.31475e-09
-1.27598e-09
2.18942e-09
-1.04073e-09
2.08853e-09
-8.21603e-10
2.01573e-09
-5.75399e-10
1.97534e-09
-3.23085e-10
1.95915e-09
-1.58057e-10
1.94811e-09
-1.21463e-10
1.9397e-09
-8.93227e-11
1.93234e-09
-5.86224e-11
1.92475e-09
-3.22932e-11
1.91609e-09
-1.17439e-11
1.90593e-09
3.24097e-12
1.89402e-09
1.38794e-11
1.88004e-09
2.18274e-11
1.86361e-09
2.87293e-11
1.8442e-09
3.59503e-11
1.82117e-09
4.44417e-11
1.79384e-09
5.47323e-11
1.76154e-09
6.70207e-11
1.72359e-09
8.13153e-11
1.67931e-09
9.75911e-11
1.62795e-09
1.15964e-10
1.56858e-09
1.36836e-10
1.49992e-09
1.61038e-10
1.42014e-09
1.90026e-10
1.32665e-09
2.26196e-10
1.2157e-09
2.73516e-10
1.08182e-09
3.38838e-10
9.17185e-10
4.34523e-10
7.11225e-10
5.82911e-10
4.53512e-10
8.2087e-10
1.4832e-10
1.1915e-09
-1.35314e-10
1.67065e-09
-2.07687e-10
1.96878e-09
1.31068e-09
-1.18524e-10
-3.78225e-10
-2.32337e-10
-7.34158e-10
-2.86516e-10
-8.43636e-10
-2.89034e-10
-8.32728e-10
-2.56768e-10
-7.74512e-10
-2.01694e-10
-7.02572e-10
-1.32808e-10
-6.30981e-10
-5.70878e-11
-5.64748e-10
2.07704e-11
-5.0544e-10
9.78082e-11
-4.53027e-10
1.72232e-10
-4.06897e-10
2.43013e-10
-3.66282e-10
3.09623e-10
-3.30424e-10
3.71852e-10
-2.98644e-10
4.29693e-10
-2.70371e-10
4.83267e-10
-2.45143e-10
5.32776e-10
-2.226e-10
5.78479e-10
-2.02481e-10
6.20685e-10
-1.84616e-10
6.59749e-10
-1.6893e-10
6.96076e-10
-1.5544e-10
7.3014e-10
-1.44264e-10
7.62498e-10
-1.3563e-10
7.93811e-10
-1.29891e-10
8.24869e-10
-1.27545e-10
8.56626e-10
-1.29264e-10
8.90227e-10
-1.35931e-10
9.2704e-10
-1.48698e-10
9.6867e-10
-1.6908e-10
1.01698e-09
-1.98954e-10
1.06932e-09
-2.51943e-10
1.10231e-09
-3.84869e-10
1.10987e-09
-5.6773e-10
1.09882e-09
-7.72551e-10
1.07633e-09
-9.89985e-10
1.04686e-09
-1.24496e-09
1.0105e-09
-1.5163e-09
9.58766e-10
-1.78064e-09
9.03388e-10
-2.00278e-09
8.54256e-10
-2.19978e-09
8.10862e-10
-2.37083e-09
7.72099e-10
-2.51261e-09
7.37397e-10
-2.62e-09
7.05415e-10
-2.69617e-09
6.73735e-10
-2.74028e-09
6.39416e-10
-2.75101e-09
5.9991e-10
-2.72957e-09
5.52274e-10
-2.67533e-09
4.95042e-10
-2.59014e-09
4.28088e-10
-2.47706e-09
3.5286e-10
-2.34273e-09
2.71394e-10
-2.19552e-09
1.87017e-10
-2.03351e-09
1.04242e-10
-1.87243e-09
2.77155e-11
-1.71145e-09
-3.63532e-11
-1.55777e-09
-8.09116e-11
-1.40663e-09
-9.24923e-11
-1.25463e-09
-5.13051e-11
-1.0855e-09
7.13692e-11
-8.83449e-10
3.07558e-10
-6.26195e-10
6.83804e-10
-2.74435e-10
1.17092e-09
1.53227e-10
1.71607e-09
6.55616e-10
2.23839e-09
1.15468e-09
2.68682e-09
1.61044e-09
3.03807e-09
1.98721e-09
3.28857e-09
2.26572e-09
3.45681e-09
2.45728e-09
3.56891e-09
2.58275e-09
3.64883e-09
2.65634e-09
3.71179e-09
2.69599e-09
3.76681e-09
2.71267e-09
3.81686e-09
2.71472e-09
3.86334e-09
2.70384e-09
3.90838e-09
2.68069e-09
3.95267e-09
2.64585e-09
3.99617e-09
2.5904e-09
4.03903e-09
2.52339e-09
4.08042e-09
2.44034e-09
4.12037e-09
2.32941e-09
4.15548e-09
2.17253e-09
4.18603e-09
1.99759e-09
4.20576e-09
1.74786e-09
4.2121e-09
1.46045e-09
4.19474e-09
1.0575e-09
4.15252e-09
6.20639e-10
4.0827e-09
1.49763e-10
3.99185e-09
-3.47495e-10
3.89138e-09
-7.85504e-10
3.79948e-09
-1.15115e-09
3.72435e-09
-1.49552e-09
3.67247e-09
-1.77589e-09
3.6379e-09
-2.04692e-09
3.61376e-09
-2.25969e-09
3.58773e-09
-2.43165e-09
3.54745e-09
-2.56109e-09
3.48566e-09
-2.6233e-09
3.40028e-09
-2.64205e-09
3.29277e-09
-2.6224e-09
3.16821e-09
-2.57687e-09
3.0323e-09
-2.51777e-09
2.89018e-09
-2.45171e-09
2.74528e-09
-2.38419e-09
2.59913e-09
-2.31486e-09
2.45216e-09
-2.24248e-09
2.30445e-09
-2.16399e-09
2.15641e-09
-2.07132e-09
2.00993e-09
-1.96732e-09
1.86641e-09
-1.85188e-09
1.72858e-09
-1.72317e-09
1.6006e-09
-1.56728e-09
1.48277e-09
-1.40682e-09
1.37909e-09
-1.2057e-09
1.29013e-09
-9.93345e-10
1.22155e-09
-7.40418e-10
1.18416e-09
-4.66118e-10
1.19213e-09
-1.90208e-10
1.26983e-09
8.18353e-11
1.44601e-09
3.93124e-10
1.71672e-09
7.26855e-10
2.04992e-09
1.11364e-09
2.39254e-09
1.50294e-09
2.70036e-09
1.88144e-09
2.94291e-09
2.17724e-09
3.11573e-09
2.40058e-09
3.23269e-09
2.55353e-09
3.31369e-09
2.6466e-09
3.37472e-09
2.69732e-09
3.42711e-09
2.72027e-09
3.4756e-09
2.72722e-09
3.52249e-09
2.72005e-09
3.56994e-09
2.70134e-09
3.61856e-09
2.67048e-09
3.66947e-09
2.6249e-09
3.72208e-09
2.57003e-09
3.7769e-09
2.49783e-09
3.83414e-09
2.40782e-09
3.89213e-09
2.28316e-09
3.95139e-09
2.13996e-09
4.00894e-09
1.97017e-09
4.05952e-09
1.72435e-09
4.10163e-09
1.46387e-09
4.12419e-09
1.10144e-09
4.1245e-09
6.92226e-10
4.09755e-09
2.45782e-10
4.04726e-09
-2.44176e-10
3.98403e-09
-7.08699e-10
3.92677e-09
-1.10444e-09
3.88599e-09
-1.46245e-09
3.86629e-09
-1.77947e-09
3.86129e-09
-2.04581e-09
3.86135e-09
-2.26404e-09
3.85206e-09
-2.44543e-09
3.82122e-09
-2.55411e-09
3.76036e-09
-2.60845e-09
3.66784e-09
-2.61323e-09
3.54471e-09
-2.58059e-09
3.39678e-09
-2.51379e-09
3.22274e-09
-2.38004e-09
3.02905e-09
-2.22771e-09
2.82817e-09
-2.10234e-09
2.6289e-09
-1.97223e-09
2.46854e-09
-1.56876e-09
2.32465e-09
-1.33495e-09
2.19255e-09
-1.14388e-09
2.07565e-09
-9.23833e-10
1.98029e-09
-7.26257e-10
1.90893e-09
-5.04041e-10
1.8634e-09
-2.77549e-10
1.83598e-09
-1.30635e-10
1.81284e-09
-9.83233e-11
1.79318e-09
-6.96664e-11
1.77644e-09
-4.18806e-11
1.76157e-09
-1.74274e-11
1.74742e-09
2.41586e-12
1.73288e-09
1.77724e-11
1.71703e-09
2.97335e-11
1.69901e-09
3.98463e-11
1.67804e-09
4.9699e-11
1.65337e-09
6.06226e-11
1.62428e-09
7.35353e-11
1.59008e-09
8.8927e-11
1.55014e-09
1.06958e-10
1.50384e-09
1.27622e-10
1.45049e-09
1.50938e-10
1.3893e-09
1.77154e-10
1.31921e-09
2.06927e-10
1.23874e-09
2.41504e-10
1.14583e-09
2.82933e-10
1.03762e-09
3.34408e-10
9.1024e-10
4.009e-10
7.58679e-10
4.90399e-10
5.77136e-10
6.16065e-10
3.61115e-10
7.98932e-10
1.14625e-10
1.06736e-09
-1.31046e-10
1.43717e-09
-2.80862e-10
1.82047e-09
-2.13561e-10
1.90147e-09
1.09712e-09
-8.29421e-11
-2.95283e-10
-1.84272e-10
-6.32828e-10
-2.54117e-10
-7.73791e-10
-2.86049e-10
-8.00796e-10
-2.86368e-10
-7.74193e-10
-2.63478e-10
-7.25462e-10
-2.24973e-10
-6.69486e-10
-1.7645e-10
-6.13271e-10
-1.22276e-10
-5.59614e-10
-6.55881e-11
-5.09715e-10
-8.55085e-12
-4.63934e-10
4.73919e-11
-4.22224e-10
1.01309e-10
-3.84341e-10
1.52643e-10
-3.49977e-10
2.01089e-10
-3.18817e-10
2.46523e-10
-2.90577e-10
2.88949e-10
-2.65027e-10
3.2847e-10
-2.42002e-10
3.65267e-10
-2.21413e-10
3.99596e-10
-2.03259e-10
4.31787e-10
-1.87631e-10
4.62255e-10
-1.74732e-10
4.91513e-10
-1.64888e-10
5.20191e-10
-1.58569e-10
5.49056e-10
-1.5641e-10
5.79035e-10
-1.59243e-10
6.11235e-10
-1.68131e-10
6.46957e-10
-1.8442e-10
6.87682e-10
-2.09805e-10
7.35042e-10
-2.46315e-10
7.87408e-10
-3.04308e-10
8.2825e-10
-4.25711e-10
8.52821e-10
-5.92301e-10
8.65139e-10
-7.84869e-10
8.69207e-10
-9.94052e-10
8.663e-10
-1.24205e-09
8.55446e-10
-1.50545e-09
8.30583e-10
-1.75578e-09
8.00512e-10
-1.97271e-09
7.72298e-10
-2.17157e-09
7.45996e-10
-2.34453e-09
7.20892e-10
-2.4875e-09
6.96973e-10
-2.59608e-09
6.73157e-10
-2.67235e-09
6.47167e-10
-2.71429e-09
6.15964e-10
-2.71981e-09
5.77739e-10
-2.69135e-09
5.30371e-10
-2.62796e-09
4.73242e-10
-2.53301e-09
4.07053e-10
-2.41088e-09
3.33596e-10
-2.26928e-09
2.5502e-10
-2.11695e-09
1.74607e-10
-1.95309e-09
9.55685e-11
-1.79339e-09
2.10576e-11
-1.63694e-09
-4.55439e-11
-1.49117e-09
-1.00254e-10
-1.35192e-09
-1.3581e-10
-1.21907e-09
-1.41158e-10
-1.08015e-09
-9.80971e-11
-9.26509e-10
1.84343e-11
-7.42725e-10
2.42091e-10
-4.98091e-10
5.8274e-10
-1.87425e-10
1.03131e-09
2.07047e-10
1.53701e-09
6.48984e-10
2.04183e-09
1.10562e-09
2.49685e-09
1.53218e-09
2.87351e-09
1.88905e-09
3.16376e-09
2.16701e-09
3.37641e-09
2.37012e-09
3.52843e-09
2.50436e-09
3.63697e-09
2.58746e-09
3.71797e-09
2.63168e-09
3.78364e-09
2.64908e-09
3.83972e-09
2.64776e-09
3.89008e-09
2.63032e-09
3.93676e-09
2.59913e-09
3.98035e-09
2.54678e-09
4.02152e-09
2.48219e-09
4.05973e-09
2.40213e-09
4.09481e-09
2.29433e-09
4.12259e-09
2.14477e-09
4.14393e-09
1.97626e-09
4.15291e-09
1.73889e-09
4.14781e-09
1.46555e-09
4.11931e-09
1.08601e-09
4.06864e-09
6.71305e-10
3.9962e-09
2.22205e-10
3.91122e-09
-2.6252e-10
3.8263e-09
-7.0058e-10
3.75639e-09
-1.08125e-09
3.70567e-09
-1.44479e-09
3.67431e-09
-1.74452e-09
3.65177e-09
-2.02439e-09
3.62804e-09
-2.23596e-09
3.58814e-09
-2.39175e-09
3.52387e-09
-2.49681e-09
3.4334e-09
-2.53283e-09
3.31908e-09
-2.52773e-09
3.18654e-09
-2.48986e-09
3.04274e-09
-2.43307e-09
2.89407e-09
-2.36909e-09
2.74509e-09
-2.30274e-09
2.59797e-09
-2.23707e-09
2.45296e-09
-2.16985e-09
2.30964e-09
-2.09917e-09
2.16784e-09
-2.02219e-09
2.02798e-09
-1.93146e-09
1.89182e-09
-1.83117e-09
1.76048e-09
-1.72055e-09
1.63576e-09
-1.59845e-09
1.52028e-09
-1.4518e-09
1.41312e-09
-1.29966e-09
1.31658e-09
-1.10916e-09
1.23016e-09
-9.0693e-10
1.15693e-09
-6.67186e-10
1.10298e-09
-4.12166e-10
1.0756e-09
-1.62826e-10
1.09068e-09
6.67526e-11
1.17521e-09
3.08597e-10
1.34645e-09
5.55607e-10
1.60501e-09
8.55081e-10
1.92159e-09
1.18636e-09
2.25607e-09
1.54696e-09
2.56367e-09
1.86964e-09
2.82033e-09
2.14392e-09
3.01975e-09
2.35411e-09
3.16794e-09
2.49842e-09
3.27634e-09
2.58892e-09
3.35813e-09
2.63849e-09
3.42509e-09
2.66027e-09
3.48382e-09
2.66131e-09
3.53789e-09
2.64727e-09
3.58962e-09
2.61874e-09
3.64123e-09
2.57327e-09
3.69263e-09
2.51863e-09
3.74439e-09
2.44606e-09
3.79647e-09
2.35573e-09
3.84673e-09
2.23291e-09
3.89621e-09
2.09048e-09
3.94261e-09
1.92378e-09
3.98033e-09
1.68662e-09
4.00896e-09
1.43524e-09
4.0188e-09
1.09159e-09
4.01015e-09
7.00873e-10
3.982e-09
2.73935e-10
3.94192e-09
-2.04091e-10
3.90087e-09
-6.67648e-10
3.87495e-09
-1.07853e-09
3.86682e-09
-1.45431e-09
3.87306e-09
-1.7857e-09
3.88168e-09
-2.05443e-09
3.88015e-09
-2.26251e-09
3.85206e-09
-2.41734e-09
3.78948e-09
-2.49154e-09
3.69251e-09
-2.51148e-09
3.56425e-09
-2.48498e-09
3.41124e-09
-2.42758e-09
3.24157e-09
-2.34413e-09
3.05662e-09
-2.19509e-09
2.86279e-09
-2.03388e-09
2.66994e-09
-1.90949e-09
2.48345e-09
-1.78573e-09
2.3349e-09
-1.4202e-09
2.20209e-09
-1.20214e-09
2.08061e-09
-1.0224e-09
1.97359e-09
-8.16819e-10
1.8867e-09
-6.39366e-10
1.82189e-09
-4.39232e-10
1.77977e-09
-2.35438e-10
1.75253e-09
-1.03396e-10
1.72845e-09
-7.42383e-11
1.70725e-09
-4.8463e-11
1.68871e-09
-2.33461e-11
1.67202e-09
-7.35099e-13
1.65598e-09
1.84574e-11
1.63933e-09
3.44155e-11
1.62093e-09
4.81425e-11
1.59972e-09
6.10516e-11
1.57483e-09
7.45902e-11
1.54549e-09
8.99612e-11
1.51105e-09
1.07975e-10
1.47094e-09
1.29037e-10
1.42464e-09
1.5326e-10
1.37162e-09
1.80641e-10
1.31128e-09
2.11279e-10
1.24283e-09
2.45605e-10
1.16517e-09
2.84584e-10
1.07677e-09
3.29908e-10
9.75483e-10
3.84218e-10
8.5848e-10