/*--------------------------------*- C++ -*----------------------------------*\
| =========                 |                                                 |
| \\      /  F ield         | OpenFOAM: The Open Source CFD Toolbox           |
|  \\    /   O peration     | Version:  2506                                  |
|   \\  /    A nd           | Website:  www.openfoam.com                      |
|    \\/     M anipulation  |                                                 |
\*---------------------------------------------------------------------------*/
FoamFile
{
    version     2.0;
    format      ascii;
    arch        "LSB;label=32;scalar=64";
    class       volScalarField;
    location    "1.4";
    object      p;
}
// * * * * * * * * * * * * * * * * * * * * * * * * * * * * * * * * * * * * * //

dimensions      [0 2 -2 0 0 0 0];

internalField   nonuniform List<scalar> 
4000
(
0.00375687
0.00372029
0.0036929
0.00367142
0.0036516
0.00363263
0.0036142
0.0035961
0.00357822
0.0035605
0.00354291
0.00352543
0.00350803
0.00349072
0.00347348
0.00345632
0.00343922
0.0034222
0.00340524
0.00338835
0.00337153
0.0033548
0.00333816
0.00332163
0.00330522
0.00328895
0.00327285
0.00325695
0.00324131
0.00322596
0.003211
0.00319652
0.00318264
0.00316958
0.00315748
0.00314613
0.00313513
0.00312411
0.00311278
0.00310087
0.00308801
0.00307362
0.00305736
0.00303925
0.00301937
0.00299783
0.00297469
0.00294997
0.0029239
0.00289646
0.00286781
0.00283817
0.00280748
0.00277611
0.00274399
0.00271152
0.00267869
0.00264564
0.00261266
0.00257956
0.00254689
0.00251446
0.0024825
0.00245112
0.00242033
0.0023903
0.002361
0.00233255
0.00230498
0.00227832
0.00225262
0.00222791
0.00220421
0.00218153
0.00215987
0.00213921
0.00211954
0.00210081
0.00208297
0.00206596
0.00204973
0.00203424
0.00201943
0.00200525
0.00199167
0.00197866
0.00196619
0.00195422
0.00194277
0.0019318
0.00192128
0.00191122
0.0019016
0.00189236
0.00188353
0.001875
0.00186683
0.00185889
0.00185124
0.00184374
0.00183644
0.00182924
0.00182214
0.00181509
0.00180804
0.001801
0.0017939
0.00178674
0.00177946
0.00177203
0.00176441
0.00175655
0.00174842
0.00173996
0.00173109
0.00172177
0.00171189
0.00170139
0.00169022
0.0016783
0.00166558
0.00165201
0.00163754
0.00162216
0.00160585
0.00158862
0.00157048
0.00155142
0.00153144
0.00151061
0.00148893
0.00146645
0.00144317
0.00141902
0.00139405
0.00136826
0.00134155
0.0013141
0.00128575
0.00125663
0.00122673
0.00119611
0.00116482
0.00113303
0.00110078
0.00106836
0.00103565
0.00100312
0.000970701
0.0009386
0.000907011
0.000875954
0.000845715
0.000816325
0.000788045
0.00076108
0.00073572
0.000712392
0.000691609
0.000673657
0.000656857
0.00064171
0.000627475
0.000613952
0.000600737
0.000587663
0.000574337
0.000560807
0.000546662
0.000531829
0.000516331
0.000500177
0.000483415
0.000466136
0.000448448
0.000430457
0.000412269
0.000393966
0.000375608
0.000357286
0.000339055
0.000320947
0.000302985
0.000285176
0.000267518
0.000249999
0.000232598
0.000215281
0.000198029
0.000180815
0.000163618
0.000146415
0.000129191
0.000111949
9.4682e-05
7.73899e-05
6.0078e-05
4.27455e-05
2.54011e-05
8.27164e-06
0.00374143
0.00371572
0.00369248
0.00367215
0.0036527
0.00363379
0.00361533
0.00359718
0.00357924
0.00356148
0.00354385
0.00352635
0.00350895
0.00349164
0.00347442
0.00345727
0.0034402
0.0034232
0.00340627
0.00338941
0.00337263
0.00335593
0.00333933
0.00332282
0.00330643
0.00329018
0.00327409
0.00325818
0.00324251
0.00322711
0.00321204
0.00319739
0.00318326
0.00316978
0.00315703
0.00314482
0.00313287
0.0031209
0.00310862
0.00309571
0.00308184
0.00306656
0.0030496
0.00303098
0.00301074
0.00298896
0.00296572
0.00294107
0.00291521
0.00288821
0.0028602
0.00283133
0.0028016
0.00277135
0.00274051
0.00270932
0.00267785
0.00264621
0.00261462
0.00258299
0.00255168
0.0025206
0.00248991
0.00245968
0.00242993
0.00240077
0.00237222
0.00234435
0.00231721
0.00229086
0.00226534
0.0022407
0.00221693
0.00219409
0.0021722
0.00215123
0.00213121
0.0021121
0.00209386
0.00207645
0.00205982
0.00204392
0.0020287
0.00201412
0.00200012
0.00198669
0.0019738
0.00196139
0.00194948
0.00193805
0.00192704
0.00191649
0.00190636
0.0018966
0.00188725
0.0018782
0.00186951
0.00186106
0.00185288
0.00184488
0.00183707
0.00182937
0.00182178
0.00181425
0.00180675
0.00179926
0.00179171
0.00178411
0.00177639
0.00176852
0.00176045
0.00175213
0.00174353
0.00173458
0.0017252
0.00171532
0.00170486
0.00169376
0.00168196
0.0016694
0.00165602
0.0016418
0.00162669
0.00161071
0.00159382
0.00157604
0.00155739
0.00153789
0.0015176
0.00149652
0.00147467
0.0014521
0.00142878
0.00140466
0.0013798
0.00135419
0.0013278
0.00130074
0.00127291
0.00124442
0.00121528
0.00118556
0.00115537
0.0011248
0.00109387
0.00106282
0.00103157
0.00100044
0.000969428
0.000938681
0.000908345
0.000878466
0.000849252
0.000820778
0.000793207
0.000766758
0.000741622
0.000718167
0.000696857
0.000677934
0.000660258
0.000644111
0.000629002
0.000614663
0.000600727
0.000587007
0.000573226
0.000559342
0.00054502
0.000530131
0.000514638
0.000498522
0.000481813
0.000464599
0.000446978
0.000429052
0.000410919
0.000392669
0.000374391
0.000356139
0.000337963
0.000319904
0.000301985
0.00028422
0.000266605
0.000249129
0.000231767
0.000214509
0.000197324
0.000180186
0.000163067
0.000145948
0.000128817
0.000111657
9.44696e-05
7.7254e-05
6.00142e-05
4.27421e-05
2.54242e-05
8.28676e-06
0.00373331
0.00371248
0.00369182
0.00367237
0.00365335
0.00363465
0.00361625
0.0035981
0.00358016
0.00356238
0.00354474
0.00352722
0.00350982
0.00349251
0.0034753
0.00345817
0.00344111
0.00342413
0.00340723
0.0033904
0.00337364
0.00335697
0.00334038
0.00332389
0.00330751
0.00329125
0.00327513
0.00325919
0.00324345
0.00322794
0.00321272
0.00319785
0.0031834
0.00316941
0.00315601
0.00314312
0.00313037
0.00311758
0.00310447
0.0030907
0.00307604
0.00306002
0.00304247
0.00302343
0.00300291
0.00298099
0.00295777
0.00293329
0.00290775
0.00288119
0.00285375
0.00282558
0.00279674
0.00276743
0.00273765
0.00270759
0.00267731
0.0026469
0.00261655
0.00258615
0.00255603
0.00252609
0.00249647
0.00246722
0.00243834
0.00240997
0.00238208
0.00235478
0.00232808
0.00230207
0.00227677
0.00225223
0.00222848
0.00220556
0.0021835
0.0021623
0.00214197
0.00212251
0.00210392
0.00208614
0.00206913
0.00205286
0.00203727
0.00202231
0.00200795
0.00199414
0.00198084
0.00196803
0.00195569
0.00194379
0.00193232
0.00192126
0.00191062
0.00190034
0.00189044
0.00188086
0.00187161
0.00186264
0.00185391
0.0018454
0.00183706
0.00182888
0.00182082
0.00181284
0.00180492
0.001797
0.00178908
0.00178109
0.001773
0.00176476
0.00175633
0.00174764
0.00173864
0.00172923
0.00171937
0.00170897
0.00169797
0.0016863
0.0016739
0.00166073
0.00164676
0.00163196
0.00161631
0.00159983
0.00158249
0.00156432
0.00154534
0.00152557
0.00150505
0.00148379
0.00146182
0.00143914
0.00141577
0.00139171
0.00136702
0.00134168
0.00131563
0.00128898
0.00126168
0.0012338
0.00120539
0.0011765
0.00114723
0.00111767
0.00108785
0.00105796
0.00102793
0.000998033
0.00096824
0.000938663
0.000909442
0.000880579
0.000852292
0.000824585
0.000797667
0.00077164
0.00074671
0.000723079
0.000701182
0.000681242
0.000662819
0.000645634
0.000629637
0.000614529
0.000600019
0.000585878
0.000571946
0.000557914
0.000543533
0.000528666
0.000513211
0.000497119
0.000480435
0.000463255
0.00044567
0.000427778
0.000409675
0.000391453
0.000373193
0.000354966
0.000336816
0.000318783
0.000300897
0.000283169
0.000265599
0.000248178
0.000230894
0.000213715
0.000196614
0.000179562
0.000162533
0.000145504
0.000128459
0.000111385
9.42765e-05
7.71339e-05
5.99595e-05
4.27421e-05
2.54552e-05
8.29205e-06
0.0037295
0.00371032
0.00369086
0.00367217
0.00365357
0.00363515
0.0036169
0.00359882
0.00358091
0.00356315
0.00354552
0.00352801
0.00351061
0.00349332
0.00347611
0.00345899
0.00344196
0.003425
0.00340811
0.00339129
0.00337455
0.00335789
0.00334131
0.00332481
0.00330842
0.00329214
0.00327598
0.00325998
0.00324414
0.00322851
0.00321312
0.00319801
0.00318323
0.00316877
0.00315482
0.00314132
0.0031279
0.0031144
0.00310056
0.00308609
0.00307078
0.00305415
0.00303612
0.00301674
0.00299601
0.00297402
0.00295086
0.00292657
0.00290136
0.00287525
0.00284837
0.00282088
0.00279279
0.00276432
0.00273545
0.00270636
0.00267707
0.00264767
0.00261834
0.00258895
0.00255981
0.00253081
0.00250209
0.00247369
0.00244558
0.00241794
0.00239067
0.00236393
0.00233769
0.00231204
0.00228701
0.00226262
0.00223896
0.00221601
0.00219384
0.00217247
0.00215189
0.00213215
0.00211324
0.00209512
0.00207778
0.00206117
0.00204524
0.00202995
0.00201525
0.00200108
0.00198743
0.00197424
0.0019615
0.00194918
0.00193726
0.00192573
0.00191459
0.0019038
0.00189336
0.00188325
0.00187344
0.00186394
0.00185467
0.00184565
0.00183682
0.00182819
0.00181968
0.00181128
0.00180297
0.00179469
0.00178642
0.00177809
0.00176968
0.00176112
0.00175235
0.0017433
0.00173389
0.00172406
0.00171373
0.00170282
0.00169128
0.00167906
0.00166608
0.00165234
0.00163781
0.00162248
0.00160635
0.00158943
0.00157171
0.00155323
0.00153399
0.00151403
0.00149336
0.00147201
0.00144998
0.00142731
0.00140402
0.0013801
0.0013556
0.00133051
0.00130481
0.00127859
0.0012518
0.00122452
0.00119679
0.00116867
0.00114023
0.00111155
0.00108266
0.00105374
0.00102471
0.000995805
0.000966997
0.000938365
0.000910068
0.000882031
0.000854529
0.000827466
0.000801111
0.000775432
0.000750679
0.000726915
0.0007045
0.000683614
0.000664544
0.000646417
0.000629622
0.000613873
0.000598993
0.000584657
0.000570749
0.000556696
0.000542332
0.000527499
0.000512053
0.000495964
0.00047928
0.000462088
0.000444486
0.000426577
0.000408462
0.000390232
0.000371972
0.000353739
0.000335597
0.000317585
0.000299731
0.000282048
0.000264538
0.00024719
0.000229984
0.000212892
0.000195882
0.000178924
0.000161989
0.000145052
0.000128095
0.000111103
9.40696e-05
7.69939e-05
5.98764e-05
4.27069e-05
2.54557e-05
8.27796e-06
0.00372727
0.00370872
0.00369003
0.00367189
0.00365367
0.00363554
0.00361748
0.00359952
0.00358167
0.00356394
0.00354633
0.00352883
0.00351143
0.00349414
0.00347694
0.00345982
0.00344279
0.00342583
0.00340895
0.00339214
0.0033754
0.00335873
0.00334214
0.00332564
0.00330922
0.00329289
0.00327668
0.0032606
0.00324466
0.0032289
0.00321332
0.00319798
0.00318291
0.00316806
0.00315363
0.00313959
0.00312554
0.00311136
0.00309685
0.00308172
0.0030658
0.00304862
0.00303017
0.0030105
0.00298961
0.0029676
0.00294454
0.00292049
0.00289562
0.00286997
0.00284367
0.00281683
0.00278949
0.00276181
0.00273379
0.00270557
0.00267718
0.00264867
0.00262023
0.0025917
0.00256341
0.00253521
0.00250725
0.00247959
0.00245217
0.00242517
0.00239848
0.00237228
0.00234648
0.00232121
0.00229648
0.00227229
0.00224876
0.00222585
0.00220364
0.00218216
0.00216141
0.00214144
0.00212225
0.00210385
0.00208619
0.00206927
0.00205303
0.00203742
0.00202241
0.00200792
0.00199394
0.00198041
0.0019673
0.00195459
0.00194227
0.00193029
0.00191866
0.00190738
0.00189642
0.00188579
0.00187544
0.0018654
0.0018556
0.00184608
0.00183676
0.00182765
0.00181871
0.0018099
0.0018012
0.00179255
0.00178394
0.00177527
0.00176652
0.00175761
0.00174847
0.00173901
0.00172918
0.00171887
0.00170804
0.00169659
0.00168448
0.00167167
0.00165812
0.00164381
0.00162874
0.00161291
0.00159633
0.00157902
0.00156099
0.00154225
0.00152283
0.00150274
0.00148199
0.00146062
0.00143863
0.00141604
0.00139289
0.00136915
0.0013449
0.00132013
0.00129481
0.00126905
0.00124279
0.00121612
0.00118906
0.00116166
0.00113399
0.00110611
0.00107805
0.00104998
0.00102179
0.000993721
0.00096573
0.000937881
0.000910349
0.000883001
0.00085616
0.000829639
0.00080376
0.000778389
0.000753809
0.000729996
0.000707282
0.000685639
0.000666012
0.000647118
0.000629664
0.000613421
0.000598275
0.000583795
0.000569866
0.000555753
0.000541338
0.00052646
0.000510954
0.000494803
0.000478062
0.000460818
0.000443174
0.000425233
0.000407098
0.000388861
0.000370602
0.000352386
0.000334271
0.000316297
0.000298491
0.000280868
0.000263427
0.000246155
0.000229031
0.000212025
0.000195101
0.000178233
0.000161387
0.000144536
0.000127661
0.000110748
9.37894e-05
7.6782e-05
5.97256e-05
4.26126e-05
2.5417e-05
8.26237e-06
0.00372589
0.00370761
0.00368938
0.00367167
0.00365379
0.0036359
0.00361803
0.00360022
0.00358246
0.00356476
0.00354718
0.00352969
0.0035123
0.003495
0.00347779
0.00346067
0.00344363
0.00342666
0.00340977
0.00339295
0.0033762
0.00335952
0.00334291
0.00332637
0.00330991
0.00329354
0.00327726
0.00326109
0.00324505
0.00322913
0.00321338
0.00319781
0.00318246
0.00316726
0.00315241
0.00313787
0.00312323
0.00310841
0.00309324
0.00307748
0.00306096
0.00304329
0.00302448
0.00300457
0.00298358
0.00296159
0.00293868
0.0029149
0.00289041
0.00286525
0.00283954
0.00281335
0.00278674
0.00275985
0.00273264
0.00270525
0.00267771
0.00265003
0.0026224
0.00259466
0.00256712
0.00253962
0.00251233
0.00248529
0.00245846
0.00243201
0.00240583
0.00238009
0.00235471
0.0023298
0.00230536
0.00228139
0.00225801
0.00223518
0.00221297
0.00219144
0.00217058
0.00215044
0.00213105
0.0021124
0.00209448
0.00207727
0.00206074
0.00204484
0.00202953
0.00201476
0.00200047
0.00198663
0.00197319
0.00196012
0.00194742
0.00193503
0.00192296
0.00191121
0.00189974
0.0018886
0.00187772
0.00186716
0.00185683
0.0018468
0.00183698
0.00182741
0.00181801
0.00180878
0.00179969
0.00179065
0.00178166
0.00177262
0.00176348
0.00175417
0.00174459
0.00173467
0.00172434
0.00171349
0.0017021
0.00169006
0.00167736
0.00166396
0.00164983
0.00163498
0.00161941
0.00160312
0.00158616
0.00156852
0.00155024
0.00153133
0.0015118
0.00149166
0.00147093
0.00144962
0.00142773
0.0014053
0.00138235
0.00135886
0.00133491
0.0013105
0.00128561
0.00126032
0.00123461
0.00120854
0.00118214
0.00115543
0.00112849
0.00110136
0.00107405
0.00104673
0.00101927
0.000991922
0.000964626
0.000937432
0.000910526
0.000883744
0.000857433
0.000831355
0.000805867
0.000780767
0.000756358
0.000732559
0.000709802
0.000687633
0.00066761
0.000648164
0.000630196
0.000613558
0.000598154
0.000583465
0.00056937
0.000555045
0.000540425
0.000525367
0.000509695
0.000493399
0.000476545
0.000459223
0.000441533
0.000423576
0.000405451
0.000387243
0.000369029
0.000350872
0.000332824
0.000314923
0.000297194
0.000279648
0.000262284
0.000245089
0.00022804
0.000211109
0.000194252
0.000177459
0.000160684
0.000143904
0.000127102
0.000110264
9.33817e-05
7.64508e-05
5.94708e-05
4.24364e-05
2.53273e-05
8.2278e-06
0.00372505
0.00370687
0.00368892
0.0036715
0.00365389
0.00363623
0.00361854
0.00360085
0.00358318
0.00356555
0.00354801
0.00353055
0.00351316
0.00349586
0.00347864
0.00346151
0.00344446
0.00342748
0.00341057
0.00339373
0.00337696
0.00336026
0.00334361
0.00332704
0.00331053
0.00329409
0.00327774
0.00326147
0.0032453
0.00322924
0.0032133
0.00319751
0.00318188
0.00316637
0.00315112
0.00313608
0.00312089
0.00310546
0.00308968
0.00307331
0.00305625
0.00303815
0.00301903
0.00299894
0.00297789
0.00295597
0.00293325
0.00290977
0.00288569
0.00286103
0.00283592
0.00281038
0.0027845
0.00275836
0.00273195
0.00270537
0.00267863
0.00265176
0.00262488
0.00259791
0.00257106
0.00254423
0.00251753
0.00249105
0.00246475
0.00243877
0.00241303
0.00238768
0.00236266
0.00233805
0.00231388
0.00229011
0.00226689
0.00224415
0.00222198
0.00220042
0.00217949
0.00215923
0.00213967
0.00212082
0.00210267
0.00208521
0.00206841
0.00205223
0.00203665
0.00202159
0.00200702
0.00199289
0.00197914
0.00196575
0.00195269
0.00193993
0.00192744
0.00191526
0.00190332
0.00189169
0.0018803
0.00186922
0.00185838
0.00184784
0.00183751
0.00182746
0.0018176
0.00180792
0.00179839
0.00178893
0.00177952
0.00177005
0.00176046
0.00175067
0.00174058
0.00173013
0.00171922
0.00170777
0.00169577
0.00168311
0.00166981
0.00165583
0.00164115
0.00162581
0.0016098
0.00159314
0.00157587
0.001558
0.00153955
0.00152054
0.00150098
0.00148088
0.00146023
0.00143906
0.00141736
0.00139515
0.00137246
0.00134928
0.00132568
0.00130165
0.00127721
0.00125242
0.00122725
0.00120177
0.001176
0.00114996
0.00112371
0.00109727
0.00107068
0.00104402
0.00101725
0.000990532
0.000963846
0.000937223
0.000910842
0.000884539
0.000858646
0.000832928
0.000807742
0.00078287
0.000758613
0.000734856
0.000712094
0.000689784
0.000669505
0.000649691
0.000631326
0.00061434
0.00059863
0.000583607
0.000569149
0.00055442
0.000539416
0.00052403
0.000508081
0.000491568
0.000474566
0.000457163
0.000439449
0.000421518
0.000403454
0.000385337
0.000367231
0.000349192
0.000331264
0.000313478
0.000295856
0.000278407
0.000261127
0.000244004
0.000227018
0.000210141
0.000193334
0.000176587
0.00015986
0.000143133
0.000126391
0.000109623
9.28193e-05
7.59767e-05
5.9094e-05
4.2167e-05
2.51806e-05
8.17808e-06
0.00372452
0.00370641
0.00368862
0.0036714
0.00365398
0.00363649
0.00361896
0.00360139
0.00358381
0.00356627
0.00354877
0.00353133
0.00351396
0.00349667
0.00347946
0.00346232
0.00344525
0.00342826
0.00341133
0.00339447
0.00337768
0.00336094
0.00334426
0.00332763
0.00331107
0.00329456
0.00327812
0.00326175
0.00324545
0.00322923
0.00321311
0.00319708
0.00318118
0.00316536
0.00314972
0.0031342
0.00311848
0.0031025
0.00308614
0.00306923
0.00305168
0.00303321
0.00301385
0.00299362
0.00297255
0.00295073
0.00292823
0.00290508
0.00288141
0.00285726
0.00283272
0.00280784
0.00278267
0.00275726
0.00273162
0.00270582
0.00267986
0.00265377
0.00262762
0.0026014
0.00257522
0.00254904
0.00252293
0.00249699
0.00247119
0.00244565
0.00242031
0.00239531
0.0023706
0.00234626
0.00232231
0.00229872
0.00227563
0.00225299
0.00223085
0.00220929
0.0021883
0.00216794
0.00214823
0.0021292
0.00211083
0.00209313
0.00207607
0.00205963
0.00204376
0.00202843
0.00201357
0.00199915
0.00198511
0.0019714
0.00195801
0.00194489
0.00193202
0.00191943
0.00190705
0.00189496
0.00188309
0.00187151
0.00186016
0.00184911
0.00183828
0.00182773
0.00181738
0.00180723
0.00179723
0.00178729
0.00177739
0.00176741
0.00175729
0.00174694
0.00173627
0.00172519
0.00171365
0.00170157
0.00168892
0.00167566
0.00166177
0.00164725
0.0016321
0.00161634
0.00159999
0.00158306
0.00156557
0.00154756
0.00152904
0.00151001
0.00149049
0.00147048
0.00144999
0.001429
0.00140754
0.0013856
0.00136321
0.00134038
0.00131716
0.00129355
0.00126956
0.00124526
0.00122064
0.00119573
0.00117057
0.00114516
0.00111955
0.00109378
0.00106785
0.00104183
0.00101569
0.000989563
0.000963441
0.000937345
0.000911432
0.000885568
0.000860023
0.000834617
0.000809672
0.000784997
0.000760869
0.000737177
0.000714467
0.000692124
0.000671703
0.000651672
0.00063298
0.000615636
0.000599516
0.000583997
0.000568964
0.000553661
0.000538126
0.000522286
0.000505975
0.000489203
0.000472047
0.000454585
0.000436892
0.000419043
0.00040111
0.000383153
0.000365223
0.000347364
0.000329608
0.000311979
0.000294493
0.000277156
0.000259965
0.000242908
0.000225968
0.000209123
0.000192352
0.000175617
0.000158914
0.000142223
0.00012553
0.000108826
9.21044e-05
7.53622e-05
5.85982e-05
4.18076e-05
2.4979e-05
8.11625e-06
0.00372422
0.00370614
0.00368846
0.00367137
0.00365409
0.00363673
0.00361931
0.00360184
0.00358435
0.00356687
0.00354942
0.00353202
0.00351467
0.00349739
0.00348019
0.00346305
0.00344598
0.00342898
0.00341204
0.00339516
0.00337834
0.00336157
0.00334485
0.00332818
0.00331155
0.00329497
0.00327844
0.00326195
0.00324552
0.00322914
0.00321282
0.00319656
0.00318039
0.00316425
0.00314823
0.00313223
0.00311603
0.00309953
0.00308265
0.00306526
0.00304728
0.00302851
0.00300894
0.00298861
0.00296756
0.00294587
0.00292358
0.00290077
0.00287751
0.00285387
0.00282987
0.00280563
0.00278114
0.00275643
0.00273154
0.00270647
0.00268126
0.00265592
0.00263048
0.00260499
0.0025795
0.00255395
0.00252844
0.00250304
0.00247776
0.00245267
0.00242773
0.00240307
0.00237867
0.00235458
0.00233084
0.00230742
0.00228444
0.00226188
0.00223978
0.00221821
0.00219717
0.0021767
0.00215685
0.00213763
0.00211905
0.0021011
0.00208377
0.00206704
0.00205087
0.00203523
0.00202006
0.00200534
0.00199099
0.00197696
0.00196324
0.00194978
0.00193655
0.00192357
0.00191078
0.00189825
0.00188592
0.00187387
0.00186203
0.00185049
0.00183915
0.00182809
0.00181723
0.00180655
0.00179602
0.00178554
0.00177508
0.00176452
0.00175379
0.0017428
0.00173147
0.00171973
0.00170752
0.00169479
0.00168152
0.00166768
0.00165326
0.00163829
0.00162275
0.00160667
0.00159008
0.00157298
0.00155539
0.00153733
0.00151881
0.00149984
0.00148041
0.00146055
0.00144024
0.00141948
0.00139827
0.00137663
0.00135457
0.00133212
0.00130928
0.00128608
0.00126255
0.00123873
0.00121463
0.00119027
0.00116569
0.00114088
0.00111588
0.00109074
0.00106545
0.00104003
0.00101449
0.00098893
0.000963346
0.000937759
0.000912301
0.000886869
0.00086164
0.000836533
0.000811801
0.000787316
0.000763305
0.000739685
0.000717018
0.000694713
0.000674134
0.000653949
0.000634946
0.000617178
0.000600506
0.000584334
0.000568557
0.00055257
0.000536416
0.000520039
0.000503319
0.000486282
0.000468994
0.000451516
0.0004339
0.000416201
0.000398466
0.000380738
0.000363047
0.000345423
0.000327884
0.000310446
0.000293117
0.000275903
0.0002588
0.000241801
0.000224893
0.000208061
0.000191297
0.000174559
0.000157862
0.000141192
0.000124539
0.000107898
9.12618e-05
7.46306e-05
5.80036e-05
4.13744e-05
2.4733e-05
8.04765e-06
0.00372406
0.00370603
0.00368843
0.00367142
0.00365423
0.00363695
0.00361962
0.00360222
0.00358479
0.00356736
0.00354995
0.00353259
0.00351527
0.00349801
0.00348082
0.00346369
0.00344663
0.00342963
0.00341269
0.0033958
0.00337895
0.00336216
0.0033454
0.00332868
0.003312
0.00329534
0.00327871
0.00326211
0.00324554
0.00322899
0.00321248
0.00319599
0.00317954
0.0031631
0.00314669
0.00313025
0.00311358
0.00309662
0.00307927
0.00306145
0.00304311
0.00302407
0.00300433
0.00298393
0.00296291
0.00294135
0.00291929
0.00289681
0.00287395
0.00285077
0.00282733
0.00280368
0.00277983
0.00275579
0.00273158
0.00270722
0.00268271
0.00265809
0.00263336
0.00260857
0.0025837
0.00255879
0.00253389
0.00250906
0.00248433
0.00245973
0.00243521
0.00241091
0.00238683
0.00236301
0.0023395
0.00231625
0.00229338
0.0022709
0.00224884
0.00222726
0.00220616
0.00218558
0.00216558
0.00214616
0.00212734
0.00210912
0.00209148
0.00207443
0.00205794
0.00204195
0.00202644
0.00201137
0.00199667
0.0019823
0.00196824
0.00195443
0.00194083
0.00192748
0.0019143
0.00190137
0.00188861
0.00187611
0.00186379
0.00185176
0.00183992
0.00182833
0.00181693
0.00180569
0.00179458
0.00178349
0.00177239
0.00176118
0.00174978
0.00173811
0.00172608
0.00171365
0.00170077
0.00168742
0.00167359
0.00165925
0.00164442
0.00162909
0.00161328
0.001597
0.00158025
0.00156307
0.00154546
0.00152743
0.00150899
0.00149011
0.00147083
0.00145113
0.00143102
0.00141049
0.00138955
0.00136821
0.00134648
0.00132438
0.00130193
0.00127914
0.00125606
0.0012327
0.0012091
0.00118526
0.00116122
0.00113698
0.00111257
0.00108801
0.0010633
0.00103846
0.00101351
0.000988504
0.000963439
0.000938356
0.000913367
0.000888365
0.000863439
0.000838635
0.000814118
0.000789838
0.000765941
0.000742393
0.000719722
0.000697479
0.000676673
0.000656314
0.000636965
0.000618684
0.000601304
0.000584384
0.000567766
0.000551033
0.000534211
0.000517269
0.000500145
0.000482868
0.000465498
0.000448061
0.00043058
0.000413087
0.000395609
0.000378163
0.000360761
0.000343413
0.000326123
0.000308896
0.000291737
0.000274651
0.000257633
0.00024068
0.000223788
0.000206955
0.000190171
0.000173423
0.000156719
0.000140063
0.000123451
0.000106876
9.03311e-05
7.38194e-05
5.7343e-05
4.08935e-05
2.44599e-05
7.98093e-06
0.00372405
0.00370607
0.00368851
0.00367155
0.00365441
0.00363717
0.00361988
0.00360252
0.00358513
0.00356775
0.00355038
0.00353304
0.00351576
0.00349853
0.00348136
0.00346425
0.0034472
0.00343021
0.00341327
0.00339637
0.00337952
0.0033627
0.00334591
0.00332915
0.00331241
0.00329568
0.00327896
0.00326225
0.00324555
0.00322884
0.00321213
0.00319542
0.00317871
0.00316196
0.00314518
0.0031283
0.00311121
0.00309382
0.00307606
0.00305786
0.00303919
0.00301993
0.00300004
0.00297957
0.0029586
0.00293716
0.00291531
0.00289315
0.00287068
0.00284794
0.00282502
0.00280192
0.00277866
0.00275523
0.00273166
0.00270795
0.00268411
0.00266015
0.00263607
0.00261194
0.00258771
0.00256344
0.00253915
0.00251493
0.00249077
0.0024666
0.00244251
0.0024186
0.00239489
0.00237142
0.00234819
0.00232515
0.00230241
0.00228003
0.00225801
0.00223642
0.00221527
0.00219458
0.0021744
0.00215476
0.00213569
0.00211717
0.00209919
0.00208177
0.0020649
0.00204854
0.00203263
0.00201716
0.00200207
0.00198732
0.00197288
0.00195869
0.00194473
0.001931
0.00191744
0.00190411
0.00189094
0.00187801
0.00186524
0.00185273
0.00184038
0.00182827
0.0018163
0.00180447
0.00179272
0.00178098
0.00176919
0.00175726
0.00174515
0.0017328
0.0017201
0.00170703
0.00169356
0.00167964
0.00166527
0.00165054
0.00163542
0.00161985
0.00160386
0.00158748
0.0015707
0.00155352
0.00153594
0.00151798
0.00149965
0.00148091
0.00146177
0.00144224
0.00142232
0.00140202
0.00138133
0.00136028
0.00133886
0.0013171
0.00129501
0.00127262
0.00124996
0.00122704
0.0012039
0.00118055
0.00115702
0.00113331
0.00110944
0.00108543
0.00106127
0.00103699
0.00101261
0.000988139
0.000963598
0.00093904
0.000914457
0.000889844
0.000865273
0.000840804
0.000816537
0.000792489
0.000768695
0.000745205
0.000722467
0.00070027
0.000679171
0.000658571
0.000638816
0.000619941
0.000601787
0.000584099
0.000566633
0.000549066
0.000531477
0.000513994
0.000496553
0.000479105
0.000461706
0.000444363
0.000427071
0.000409837
0.00039266
0.00037553
0.000358437
0.000341384
0.000324348
0.000307332
0.000290336
0.000273369
0.00025643
0.000239521
0.000222645
0.000205804
0.000189001
0.000172239
0.000155532
0.000138891
0.000122315
0.000105801
8.93523e-05
7.29707e-05
5.66553e-05
4.03965e-05
2.41812e-05
7.92591e-06
0.00372417
0.00370624
0.0036887
0.00367176
0.00365462
0.00363739
0.00362011
0.00360277
0.0035854
0.00356803
0.00355069
0.00353339
0.00351613
0.00349893
0.00348179
0.00346471
0.00344769
0.00343071
0.00341378
0.00339689
0.00338004
0.00336321
0.0033464
0.0033296
0.00331281
0.00329602
0.00327922
0.00326241
0.00324558
0.00322873
0.00321184
0.00319492
0.00317793
0.00316089
0.00314376
0.00312648
0.00310899
0.0030912
0.00307306
0.0030545
0.00303552
0.00301607
0.00299607
0.00297556
0.00295461
0.00293328
0.00291163
0.00288975
0.00286763
0.00284533
0.00282287
0.00280027
0.00277755
0.00275468
0.0027317
0.00270859
0.00268535
0.00266202
0.00263855
0.00261504
0.00259141
0.00256776
0.00254406
0.00252039
0.00249676
0.00247311
0.00244952
0.00242605
0.00240274
0.00237964
0.00235666
0.00233383
0.00231125
0.00228897
0.00226705
0.00224552
0.00222436
0.00220358
0.00218325
0.00216339
0.00214403
0.00212519
0.00210689
0.00208907
0.00207177
0.00205497
0.00203862
0.0020227
0.00200716
0.00199198
0.00197712
0.00196253
0.00194817
0.00193405
0.00192011
0.00190639
0.00189282
0.00187946
0.00186626
0.00185326
0.00184042
0.00182776
0.00181522
0.00180277
0.00179037
0.00177796
0.0017655
0.00175289
0.00174
0.00172688
0.00171358
0.00169997
0.00168598
0.00167163
0.00165693
0.0016419
0.00162654
0.00161081
0.00159474
0.00157834
0.00156157
0.00154443
0.00152693
0.00150907
0.00149084
0.00147222
0.00145323
0.00143387
0.00141413
0.00139403
0.00137357
0.00135277
0.00133164
0.00131019
0.00128843
0.0012664
0.00124413
0.00122162
0.00119891
0.00117602
0.00115296
0.00112974
0.00110638
0.00108288
0.00105925
0.0010355
0.00101165
0.000987698
0.000963658
0.000939583
0.00091542
0.000891251
0.00086705
0.000842958
0.000818946
0.000795033
0.000771302
0.000747898
0.000725071
0.000702907
0.000681482
0.000660571
0.000640329
0.000620726
0.000601805
0.000583296
0.000564962
0.000546699
0.000528546
0.000510564
0.000492798
0.000475238
0.000457864
0.000440643
0.00042356
0.0004066
0.000389732
0.00037292
0.000356129
0.000339367
0.000322562
0.000305744
0.000288908
0.000272054
0.000255188
0.000238317
0.000221453
0.000204608
0.000187795
0.000171028
0.000154324
0.000137699
0.000121162
0.000104718
8.83712e-05
7.21245e-05
5.59738e-05
3.99099e-05
2.39232e-05
7.89672e-06
0.00372445
0.00370658
0.00368903
0.00367205
0.00365487
0.00363761
0.0036203
0.00360294
0.00358556
0.00356821
0.00355089
0.00353362
0.0035164
0.00349923
0.00348213
0.00346509
0.0034481
0.00343116
0.00341425
0.00339738
0.00338053
0.0033637
0.00334688
0.00333006
0.00331324
0.00329639
0.00327952
0.00326262
0.00324568
0.00322868
0.00321163
0.0031945
0.00317727
0.00315996
0.00314251
0.00312487
0.003107
0.00308884
0.00307034
0.00305146
0.00303219
0.00301253
0.00299237
0.00297181
0.0029509
0.00292968
0.00290821
0.00288658
0.00286478
0.00284287
0.00282083
0.00279869
0.00277646
0.0027541
0.00273164
0.00270907
0.00268639
0.00266362
0.00264072
0.00261779
0.00259474
0.00257167
0.00254854
0.0025254
0.00250229
0.00247916
0.00245607
0.00243304
0.00241011
0.00238732
0.00236466
0.00234214
0.00231979
0.0022977
0.00227589
0.00225441
0.00223323
0.00221239
0.00219192
0.00217185
0.0021522
0.00213304
0.00211439
0.00209622
0.00207851
0.00206125
0.00204443
0.00202802
0.002012
0.00199635
0.00198102
0.00196599
0.00195122
0.00193668
0.00192235
0.00190823
0.00189428
0.00188051
0.00186687
0.00185339
0.00184002
0.00182677
0.0018136
0.00180051
0.00178748
0.00177442
0.00176129
0.00174801
0.00173453
0.00172084
0.00170696
0.00169282
0.00167841
0.00166374
0.00164878
0.00163356
0.00161805
0.00160225
0.00158615
0.00156974
0.00155299
0.00153592
0.00151849
0.00150071
0.00148257
0.00146407
0.0014452
0.00142596
0.00140638
0.00138645
0.00136619
0.00134561
0.00132471
0.00130355
0.00128209
0.0012604
0.00123847
0.00121635
0.00119404
0.00117157
0.00114894
0.00112619
0.00110328
0.00108028
0.00105714
0.00103389
0.00101054
0.000987085
0.000963526
0.000939923
0.000916192
0.000892458
0.000868617
0.000844846
0.000821047
0.000797328
0.000773735
0.000750417
0.00072746
0.000705215
0.000683378
0.000662069
0.000641325
0.000621134
0.000601474
0.000582182
0.000563059
0.000544164
0.000525519
0.000507161
0.000489151
0.00047149
0.000454144
0.000437065
0.000420207
0.000403518
0.000386938
0.000370413
0.000353897
0.00033737
0.000320777
0.000304133
0.000287432
0.000270675
0.000253873
0.000237041
0.000220197
0.00020336
0.000186553
0.000169797
0.000153115
0.000136526
0.000120045
0.000103682
8.7443e-05
7.13297e-05
5.53391e-05
3.94645e-05
2.37003e-05
7.8915e-06
0.00372495
0.00370712
0.0036895
0.00367243
0.00365515
0.0036378
0.00362043