/*--------------------------------*- C++ -*----------------------------------*\
| =========                 |                                                 |
| \\      /  F ield         | OpenFOAM: The Open Source CFD Toolbox           |
|  \\    /   O peration     | Version:  2506                                  |
|   \\  /    A nd           | Website:  www.openfoam.com                      |
|    \\/     M anipulation  |                                                 |
\*---------------------------------------------------------------------------*/
FoamFile
{
    version     2.0;
    format      ascii;
    arch        "LSB;label=32;scalar=64";
    class       volVectorField;
    location    "1.5";
    object      vorticityField;
}
// * * * * * * * * * * * * * * * * * * * * * * * * * * * * * * * * * * * * * //

dimensions      [0 0 -1 0 0 0 0];

internalField   nonuniform List<vector> 
4000
(
(-2.28932e-20 7.75978e-18 -32.7231)
(-8.39779e-18 -6.7287e-18 -35.7823)
(8.90244e-18 -2.51778e-17 -33.6579)
(3.39047e-17 3.88397e-17 -29.6523)
(-6.95599e-17 3.16552e-18 -26.6708)
(3.55782e-17 -3.42738e-17 -24.7923)
(-2.90576e-19 1.64154e-17 -23.4896)
(3.51001e-17 -0 -22.5101)
(-3.44615e-17 -3.24646e-17 -21.7463)
(6.89974e-17 2.98445e-17 -21.1287)
(-6.90256e-17 -2.93625e-17 -20.612)
(-2.32021e-18 2.69084e-17 -20.1694)
(-1.05349e-18 6.96452e-17 -19.7841)
(7.24267e-17 -6.4571e-17 -19.4442)
(-3.33296e-19 -0 -19.1404)
(-1.36548e-16 -6.32585e-17 -18.865)
(1.3436e-16 5.84801e-17 -18.6115)
(-7.10168e-17 6.80786e-17 -18.374)
(3.36152e-18 -6.33002e-17 -18.1473)
(0 -0 -17.9264)
(0 -0 -17.7065)
(0 -0 -17.4831)
(8.34081e-18 -1.2292e-16 -17.2516)
(1.14402e-16 2.36564e-16 -17.0074)
(-2.62812e-16 1.8014e-17 -16.7458)
(1.49477e-16 -2.54191e-16 -16.4614)
(-9.39908e-18 1.22533e-16 -16.1485)
(0 -0 -15.8001)
(0 -0 -15.4078)
(-1.06204e-17 1.19995e-16 -14.9603)
(-2.51231e-16 -1.12749e-16 -14.4423)
(1.40489e-16 -1.27464e-16 -13.8348)
(2.65955e-16 1.5663e-17 -13.107)
(7.1329e-18 -1.24124e-16 -12.053)
(-7.73959e-17 6.99053e-16 -10.825)
(-3.01927e-16 5.72751e-16 -10.1662)
(-9.70901e-16 -1.02266e-15 -10.3308)
(-7.7241e-18 8.47773e-18 -11.0554)
(7.06566e-16 1.71008e-15 -12.2481)
(-7.28836e-16 -1.08069e-15 -13.9875)
(3.83928e-16 -2.23311e-15 -16.5622)
(1.10434e-15 2.12579e-15 -19.696)
(-3.37096e-16 9.36496e-16 -22.8366)
(2.56431e-16 -1.00744e-15 -25.8514)
(1.2011e-15 8.40923e-16 -28.74)
(-1.3824e-15 1.75314e-16 -31.5389)
(-1.26805e-15 4.03002e-16 -34.2917)
(-1.07898e-15 -1.06088e-15 -36.8288)
(-1.2259e-15 -1.27253e-15 -39.2033)
(-5.26212e-16 -1.34664e-15 -41.3842)
(7.04466e-16 -3.29154e-16 -43.2756)
(-4.28971e-17 5.32702e-16 -44.9607)
(-6.53759e-16 -1.19905e-15 -46.2524)
(7.30135e-16 1.5018e-17 -47.2829)
(-9.88466e-17 1.15498e-15 -47.9112)
(-3.34905e-16 5.62754e-17 -48.1679)
(2.56458e-16 -9.04888e-17 -48.0848)
(8.43025e-17 -3.02223e-17 -47.5267)
(1.56417e-16 5.0607e-17 -46.7574)
(-7.57412e-17 -4.86236e-17 -45.567)
(7.9201e-17 -2.09669e-17 -44.0356)
(3.13729e-16 7.30742e-18 -42.3809)
(-1.47605e-16 -7.06035e-17 -40.4988)
(-8.73913e-17 -6.93623e-16 -38.5563)
(5.79241e-17 -1.16953e-16 -36.5428)
(-1.12334e-16 8.18921e-16 -34.4886)
(6.36809e-16 -1.27086e-16 -32.4992)
(2.69698e-17 -4.31175e-16 -30.4859)
(3.03875e-16 6.76207e-16 -28.5801)
(-7.8659e-16 8.02845e-16 -26.6879)
(-1.78214e-16 -5.95169e-16 -24.8875)
(-4.96896e-17 -2.39785e-16 -23.1549)
(-1.98658e-19 2.3262e-18 -21.4576)
(-9.76353e-16 6.19293e-16 -19.8624)
(-9.4821e-16 6.73562e-16 -18.3241)
(-3.89403e-17 7.90147e-16 -16.8565)
(-7.94549e-16 5.11688e-16 -15.4842)
(9.41084e-17 -8.18733e-16 -14.1946)
(-8.60994e-16 4.6408e-16 -12.9894)
(7.6307e-16 2.35715e-16 -11.8827)
(-1.4426e-15 4.06877e-16 -10.8682)
(-1.67923e-16 -7.48644e-16 -9.94042)
(4.2029e-17 -1.05413e-16 -9.09678)
(-8.17687e-17 2.99653e-17 -8.32854)
(6.82948e-16 1.06693e-15 -7.6281)
(-1.22963e-15 1.61454e-15 -6.98859)
(5.16584e-17 -1.4588e-15 -6.39766)
(-6.23058e-17 -7.3294e-16 -5.84989)
(-1.20042e-17 1.40333e-15 -5.34361)
(-5.05345e-16 3.26276e-16 -4.86863)
(1.87209e-18 1.54547e-18 -4.42504)
(-4.98087e-16 9.14838e-16 -4.01508)
(-2.32719e-16 -1.12404e-15 -3.63334)
(1.75155e-16 -3.77577e-16 -3.28467)
(6.68922e-18 5.81967e-16 -2.96931)
(7.33719e-17 -6.42698e-16 -2.68874)
(2.18758e-16 -9.55247e-17 -2.44551)
(2.78906e-17 3.12087e-17 -2.24014)
(-3.31204e-16 -5.12138e-17 -2.07292)
(5.30042e-17 2.75307e-16 -1.94633)
(5.94887e-17 -3.84463e-18 -1.86113)
(1.75849e-17 -5.30254e-17 -1.81702)
(-9.7708e-18 1.71387e-16 -1.81863)
(-2.56165e-17 4.6162e-17 -1.86333)
(-3.74377e-17 -1.86633e-17 -1.95715)
(-6.82567e-19 -6.19627e-17 -2.10374)
(3.70024e-18 4.96873e-16 -2.30858)
(-1.88143e-16 -3.09362e-17 -2.58088)
(-2.37647e-16 -8.42106e-16 -2.92515)
(4.44414e-16 -1.217e-16 -3.35215)
(-2.32324e-16 1.69074e-16 -3.87056)
(1.0041e-17 5.5832e-16 -4.48787)
(-2.32751e-16 -1.1029e-16 -5.21763)
(-2.29072e-16 -4.29441e-16 -6.05626)
(-6.86745e-18 -5.81205e-16 -7.02607)
(4.5713e-16 3.02062e-16 -8.11537)
(3.7967e-18 1.1451e-15 -9.32711)
(3.93514e-17 8.44106e-17 -10.6662)
(4.71997e-16 3.4495e-16 -12.1116)
(-4.85527e-16 -3.64294e-16 -13.662)
(-5.74206e-16 -1.72849e-15 -15.3109)
(5.96033e-16 3.98763e-16 -17.0275)
(2.64488e-17 1.30069e-15 -18.7899)
(-5.49291e-16 -4.03594e-16 -20.5941)
(-1.07062e-16 -1.35859e-15 -22.4091)
(1.07762e-15 7.63662e-16 -24.2232)
(-3.68528e-16 3.91915e-16 -26.0206)
(5.19834e-16 -1.07485e-16 -27.7823)
(5.84242e-16 8.41368e-16 -29.5071)
(-5.18503e-18 8.46971e-16 -31.2079)
(-1.79159e-17 5.13372e-16 -32.8208)
(-5.57347e-16 -1.61235e-16 -34.3887)
(-2.08834e-16 -6.18656e-16 -35.9472)
(-1.10079e-15 -7.63098e-16 -37.3963)
(4.26508e-16 2.201e-17 -38.796)
(-7.42795e-17 -3.88371e-17 -40.219)
(7.66938e-17 4.22241e-17 -41.4419)
(-2.44661e-17 -1.59115e-16 -42.6815)
(8.39755e-17 8.75704e-17 -43.7619)
(-1.23638e-16 1.17806e-16 -44.7428)
(1.23017e-16 1.665e-16 -45.5594)
(-4.38031e-16 -1.74887e-16 -46.1759)
(1.95826e-16 1.51217e-16 -46.5259)
(-6.49393e-17 4.27092e-17 -46.6608)
(-1.38942e-16 -8.44626e-17 -46.3563)
(-1.34692e-17 -2.18816e-16 -45.8772)
(-2.4436e-17 3.9758e-17 -44.8908)
(0 -0 -43.5637)
(-5.29692e-17 3.82325e-17 -41.9827)
(5.75807e-17 -2.33378e-17 -40.0545)
(2.48161e-17 -1.93642e-16 -38.0074)
(-2.61801e-17 -9.18877e-17 -35.7243)
(1.55773e-16 9.1642e-17 -33.3465)
(8.29756e-17 2.3619e-16 -30.9019)
(-1.69674e-16 6.62055e-17 -28.4204)
(1.63718e-16 -1.71422e-16 -25.9147)
(-2.47706e-16 -1.08186e-16 -23.3568)
(3.41448e-16 -1.89087e-16 -20.7789)
(-7.63592e-17 -3.14719e-16 -18.0198)
(2.38207e-16 -1.8828e-16 -15.014)
(-2.28437e-16 7.19978e-16 -12.7191)
(1.81856e-16 -1.35208e-16 -11.5538)
(-4.61029e-17 -9.31302e-17 -10.6554)
(3.20982e-17 -7.48273e-18 -10.0219)
(3.03321e-17 -4.66497e-18 -9.76831)
(2.89783e-17 -2.40765e-18 -9.9606)
(-2.78912e-17 -2.0966e-17 -10.7018)
(2.35451e-17 -6.11332e-18 -11.8282)
(1.70046e-18 2.13258e-17 -12.9448)
(2.86206e-18 1.89547e-17 -13.994)
(-2.35169e-17 7.13482e-18 -15.0141)
(-5.10679e-18 -3.80314e-17 -15.9843)
(4.64331e-19 8.78083e-18 -16.868)
(3.99679e-18 2.65849e-17 -17.6358)
(-2.86208e-18 -1.83573e-17 -18.2688)
(1.91121e-17 5.82728e-19 -18.7592)
(-3.47976e-17 1.42828e-17 -19.1092)
(1.76683e-17 -4.12156e-18 -19.3297)
(-2.77213e-18 -2.45141e-17 -19.4365)
(9.84005e-19 1.43316e-17 -19.4492)
(8.49479e-18 5.43558e-18 -19.3888)
(-1.3771e-17 4.19543e-18 -19.2742)
(-1.05231e-18 -1.0855e-17 -19.1247)
(1.70808e-19 -4.64648e-18 -18.9583)
(5.48418e-18 5.43443e-18 -18.7889)
(5.12868e-18 1.52982e-20 -18.6278)
(-5.71804e-18 -1.70562e-20 -18.4826)
(4.89133e-18 -2.1015e-19 -18.3582)
(-8.26966e-18 -4.66462e-19 -18.2561)
(5.24993e-18 2.39905e-19 -18.174)
(-1.77318e-18 -5.28919e-21 -18.1083)
(-4.00855e-19 -1.08628e-18 -18.0548)
(1.20389e-18 -1.27816e-18 -18.0081)
(-3.88838e-19 3.43895e-18 -17.9622)
(-1.06054e-18 -1.17072e-18 -17.9115)
(1.44972e-19 -6.6154e-19 -17.8509)
(-9.29506e-20 -9.30405e-19 -17.7761)
(-1.61463e-19 8.90152e-19 -17.681)
(-8.25974e-20 4.2668e-19 -17.5469)
(-2.27202e-20 -7.63213e-20 -17.3829)
(0 -0 2.64508)
(-1.51261e-20 -0 -6.32632)
(-1.50741e-19 -1.59534e-17 -11.5188)
(-8.41571e-19 2.88608e-17 -13.4284)
(1.7806e-17 6.40572e-18 -13.6162)
(-1.68835e-17 -3.57069e-17 -13.1426)
(3.89691e-19 -1.65277e-17 -12.5579)
(-6.4916e-19 2.7384e-17 -12.0316)
(-3.37224e-17 5.68594e-18 -11.5826)
(3.28431e-17 -5.41528e-18 -11.1997)
(6.52389e-17 1.04243e-16 -10.8689)
(-1.33596e-16 -8.886e-17 -10.5794)
(6.63464e-18 -1.41782e-16 -10.3234)
(6.52223e-17 5.64293e-17 -10.0951)
(-8.51321e-18 1.96643e-16 -9.89001)
(-6.41396e-17 -4.63039e-17 -9.70386)
(7.28049e-17 -1.40509e-16 -9.53306)
(-2.65186e-18 6.54069e-17 -9.3742)
(0 -0 -9.22427)
(0 -0 -9.08054)
(0 -0 -8.94032)
(0 -0 -8.80106)
(0 -0 -8.66025)
(-2.63163e-16 -0 -8.5155)
(3.94651e-16 -0 -8.36436)
(-1.31244e-16 -0 -8.20428)
(0 -0 -8.03276)
(0 -0 -7.84719)
(0 -0 -7.64448)
(-1.10823e-17 1.25213e-16 -7.4212)
(-1.34555e-18 1.39978e-17 -7.17316)
(3.60939e-17 -3.76389e-16 -6.89483)
(-9.45382e-18 8.34585e-17 -6.57818)
(-1.41571e-16 3.88699e-16 -6.2089)
(-7.88372e-17 -4.81686e-16 -5.81393)
(3.42731e-16 4.09394e-16 -5.56862)
(9.68785e-16 8.23083e-16 -5.63686)
(7.10029e-17 -1.90145e-15 -6.05381)
(-4.41618e-16 -8.62481e-16 -6.81018)
(1.03669e-15 2.08427e-15 -7.91836)
(-3.02253e-16 1.16541e-16 -9.39981)
(-8.51364e-16 -1.54198e-15 -11.0039)
(7.16744e-17 -1.3685e-16 -12.6496)
(3.36542e-17 -2.70969e-16 -14.3375)
(-1.26859e-15 1.93853e-16 -15.9985)
(1.06097e-15 2.18878e-15 -17.6503)
(2.39474e-15 3.71813e-16 -19.2735)
(1.07653e-15 1.15413e-15 -20.8033)
(1.22609e-15 7.78786e-16 -22.2835)
(6.53163e-16 -2.2121e-16 -23.6372)
(-1.80688e-15 -8.82274e-16 -24.8649)
(-3.8421e-17 4.7335e-16 -25.9723)
(5.09745e-16 8.95827e-16 -26.8903)
(-6.39144e-16 -5.39743e-16 -27.6724)
(6.6331e-16 -3.0333e-16 -28.2463)
(6.39315e-16 -4.74405e-17 -28.6513)
(4.06305e-16 -6.64082e-17 -28.8597)
(1.44162e-16 1.23491e-16 -28.8661)
(-8.34491e-17 3.20276e-17 -28.6754)
(-8.72397e-17 1.17709e-16 -28.3019)
(-4.9466e-17 -2.34214e-16 -27.7025)
(-3.22963e-16 4.58917e-17 -26.9262)
(2.55101e-16 4.33884e-16 -25.9919)
(-1.92081e-16 6.61173e-16 -24.8875)
(2.24773e-16 6.03884e-17 -23.6965)
(1.08756e-17 -1.14314e-15 -22.38)
(2.33436e-16 -2.24347e-16 -21.0501)
(-3.2107e-16 7.11432e-16 -19.6259)
(-3.61631e-16 -4.64064e-17 -18.2262)
(9.82239e-16 -4.22272e-16 -16.8106)
(-6.34395e-18 1.36463e-16 -15.4064)
(-1.40542e-15 5.75252e-16 -14.0607)
(7.77235e-16 4.48207e-16 -12.7271)
(2.19974e-17 1.11541e-15 -11.4585)
(1.07459e-15 -1.41817e-15 -10.2533)
(1.59663e-16 -9.52214e-16 -9.10393)
(-1.73189e-16 1.07834e-16 -8.03195)
(-4.26517e-17 8.46212e-16 -7.04199)
(-7.38909e-16 -1.5696e-16 -6.12651)
(-1.60846e-15 9.86169e-16 -5.29257)
(2.13423e-15 3.14278e-16 -4.53944)
(2.10162e-16 -9.56836e-16 -3.861)
(-7.32075e-16 4.97511e-16 -3.25448)
(1.18917e-16 -7.28782e-16 -2.71284)
(-2.25894e-17 -9.75428e-17 -2.22795)
(1.25439e-15 -7.73709e-16 -1.79796)
(5.60086e-16 -4.69918e-16 -1.41623)
(6.8559e-16 4.28917e-16 -1.07267)
(5.56108e-16 -1.12505e-15 -0.769575)
(1.11406e-15 -7.05633e-16 -0.504052)
(3.53751e-19 2.24518e-17 -0.268465)
(5.04342e-16 -6.26212e-16 -0.0669958)
(2.09209e-16 2.36131e-16 0.101996)
(-4.67396e-16 2.62227e-16 0.241565)
(2.141e-16 -5.56321e-16 0.349694)
(9.25421e-18 3.06478e-16 0.429695)
(-4.56556e-16 2.43037e-16 0.481957)
(2.22289e-16 5.78492e-16 0.509324)
(1.98074e-17 1.24631e-16 0.514919)
(-1.19965e-16 -7.41935e-16 0.500714)
(-5.94023e-17 3.68213e-17 0.468783)
(-7.02512e-17 1.46267e-16 0.420312)
(-3.01593e-17 -1.15885e-16 0.355617)
(2.60469e-17 -1.57925e-17 0.274247)
(5.05134e-17 -1.29988e-17 0.174881)
(1.07745e-16 2.99877e-17 0.0519252)
(-1.9999e-18 -2.68549e-16 -0.0976197)
(6.24364e-16 4.14856e-16 -0.28088)
(1.21727e-17 1.13193e-19 -0.503898)
(-4.25108e-16 1.29692e-16 -0.773929)
(2.5614e-18 3.09719e-16 -1.09699)
(-1.66954e-17 -5.7034e-16 -1.47902)
(2.27416e-16 4.02827e-16 -1.92642)
(2.1907e-16 1.15391e-16 -2.44089)
(-2.31766e-16 -4.24296e-16 -3.03532)
(-4.56605e-16 -2.64301e-16 -3.69726)
(1.74228e-17 -6.25941e-16 -4.44234)
(-2.64418e-17 -6.79058e-16 -5.26832)
(-3.63863e-16 2.86748e-16 -6.15909)
(9.77198e-16 1.96334e-15 -7.1236)
(-5.55349e-16 -3.59807e-16 -8.15761)
(-5.37466e-16 -1.04876e-15 -9.24121)
(4.32649e-16 4.01169e-16 -10.3733)
(6.4755e-16 4.4927e-16 -11.5461)
(4.98033e-16 -1.96783e-16 -12.7359)
(-1.53945e-15 -9.30723e-16 -13.9421)
(3.94431e-16 5.0559e-16 -15.1497)
(-2.72484e-16 -1.09672e-15 -16.346)
(-1.28495e-16 6.58816e-17 -17.529)
(1.25263e-15 6.615e-16 -18.6901)
(4.74668e-16 2.69806e-16 -19.7944)
(1.24062e-15 6.36152e-16 -20.8815)
(6.67768e-16 1.49712e-15 -21.9327)
(9.6063e-16 3.90574e-16 -22.8939)
(-1.09098e-17 -6.89889e-16 -23.8376)
(1.17032e-16 5.78177e-16 -24.7364)
(2.32818e-16 6.77521e-17 -25.4944)
(8.56663e-17 8.68073e-18 -26.267)
(-5.09656e-17 -8.07088e-17 -26.888)
(8.74212e-17 -1.15439e-16 -27.4498)
(2.7353e-17 3.3751e-18 -27.8923)
(6.16579e-17 3.32183e-16 -28.2131)
(1.34158e-16 -4.11659e-16 -28.3969)
(3.4897e-17 2.04392e-16 -28.4498)
(-4.56014e-17 -2.86188e-17 -28.303)
(-5.19607e-17 8.18756e-17 -28.0471)
(1.09218e-16 -1.03586e-17 -27.5473)
(-6.99114e-17 1.85527e-17 -26.9032)
(4.60383e-17 -2.71685e-17 -26.0488)
(-1.21253e-16 -1.21284e-16 -25.0131)
(-7.1127e-17 2.33013e-16 -23.8205)
(3.86443e-17 2.05778e-16 -22.4628)
(3.56257e-17 -1.56177e-16 -20.9621)
(-1.04927e-16 -3.60237e-17 -19.363)
(3.78182e-16 -2.4666e-16 -17.6721)
(-1.92765e-16 8.02157e-17 -15.9192)
(2.50428e-17 7.01384e-17 -14.1342)
(-3.93735e-16 -5.63279e-17 -12.3437)
(1.2295e-16 3.43553e-16 -10.5335)
(-6.48871e-16 6.36663e-16 -8.76107)
(2.28871e-16 -5.41841e-16 -7.0647)
(-2.75585e-17 -2.37317e-16 -5.94113)
(8.55898e-20 2.48269e-16 -5.2512)
(-7.21469e-17 -4.94862e-17 -4.8562)
(-1.22038e-18 -8.24216e-18 -4.72257)
(-5.35055e-17 3.84612e-17 -4.85551)
(5.64624e-17 3.42888e-17 -5.23427)
(-2.6819e-17 -2.05738e-17 -5.77512)
(-3.34278e-19 -2.81207e-18 -6.3676)
(-1.66058e-18 -1.03788e-18 -6.94752)
(-1.02912e-19 2.53142e-18 -7.49636)
(3.27198e-18 2.00979e-17 -8.00664)
(-2.2392e-17 -3.47735e-18 -8.46831)
(1.74213e-17 -3.6177e-17 -8.87141)
(1.03227e-18 5.1793e-18 -9.20844)
(2.2733e-17 1.01217e-17 -9.47532)
(-1.98838e-17 2.35918e-17 -9.67257)
(-1.50618e-18 -5.50735e-17 -9.80319)
(3.30522e-18 5.20019e-17 -9.87382)
(-1.55407e-18 -2.30001e-17 -9.89434)
(-4.42136e-19 -4.63267e-18 -9.87476)
(6.60259e-18 1.83074e-17 -9.82595)
(-5.85309e-18 -7.41491e-20 -9.75841)
(-6.09472e-18 4.31775e-18 -9.68103)
(5.96605e-18 -1.8136e-17 -9.6013)
(1.78439e-18 2.47606e-19 -9.52487)
(5.58233e-19 1.10267e-17 -9.45544)
(-4.25941e-19 -8.17111e-18 -9.39505)
(-3.03125e-19 1.88207e-17 -9.34372)
(2.63596e-19 -1.87259e-17 -9.29973)
(1.6913e-18 9.74135e-18 -9.26039)
(-1.21635e-18 -2.97226e-19 -9.22278)
(-2.39678e-18 -1.05215e-18 -9.18373)
(2.65341e-18 -2.31546e-18 -9.13985)
(9.7505e-21 5.23397e-18 -9.08818)
(1.24096e-19 -1.18317e-18 -9.02631)
(7.90388e-20 2.3248e-18 -8.9525)
(2.45101e-19 -3.16558e-19 -8.86577)
(2.45246e-22 2.08386e-20 -8.76613)
(8.62204e-21 1.28603e-18 -8.68878)
(-2.31046e-20 7.83142e-18 4.99852)
(-2.7659e-19 -5.69973e-18 1.69585)
(5.05987e-19 -2.54237e-17 -1.76053)
(-3.64173e-19 1.92729e-17 -4.26913)
(1.74639e-17 1.96707e-17 -5.72853)
(-1.728e-17 -1.56515e-17 -6.42304)
(0 -0 -6.6703)
(-3.59126e-17 3.16853e-17 -6.72371)
(3.67879e-17 -5.64867e-17 -6.7048)
(-3.29269e-17 -7.73574e-17 -6.65658)
(3.15964e-17 1.208e-16 -6.59485)
(9.35637e-19 1.08614e-16 -6.5262)
(-1.61485e-19 -1.14475e-16 -6.45413)
(-1.32952e-16 -7.64647e-17 -6.38084)
(1.26227e-16 1.2685e-16 -6.30767)
(7.98572e-17 -1.13984e-16 -6.23527)
(-1.3491e-16 -2.45563e-17 -6.16385)
(5.88843e-17 1.38552e-16 -6.09329)
(3.355e-18 -6.31774e-17 -6.02328)
(0 -0 -5.9534)
(1.29171e-16 -0 -5.88314)
(-1.29418e-16 -0 -5.81183)
(-8.39268e-18 1.23684e-16 -5.73873)
(-1.19704e-16 -1.01802e-16 -5.66298)
(1.37475e-16 -1.45804e-16 -5.58363)
(-9.13999e-18 1.23922e-16 -5.49966)
(0 -0 -5.41002)
(1.26718e-16 -0 -5.31363)
(-5.70588e-19 -0 -5.20945)
(-1.37499e-16 1.21787e-16 -5.09656)
(1.79688e-17 -1.03408e-16 -4.97412)
(2.63559e-16 -1.40536e-16 -4.84072)
(-4.04433e-16 1.14554e-16 -4.69447)
(2.34918e-16 -2.70064e-18 -4.52718)
(-1.83477e-17 2.53777e-16 -4.35828)
(-4.79342e-16 -5.48055e-16 -4.24681)
(7.07384e-16 -1.25603e-16 -4.25474)
(3.53353e-16 1.7214e-15 -4.43491)
(-7.87522e-16 -2.38054e-16 -4.80135)
(-1.93445e-16 -1.08e-15 -5.35713)
(-1.29386e-16 -1.96792e-16 -6.0826)
(-1.42317e-15 7.20312e-17 -6.84926)
(2.05592e-16 5.28605e-16 -7.64942)
(1.07179e-15 7.54282e-16 -8.49564)
(-1.53924e-15 -1.74246e-15 -9.35982)
(1.7914e-15 -1.7369e-15 -10.2476)
(-5.73033e-16 4.43246e-16 -11.1417)
(-5.21171e-17 6.05626e-16 -12.0267)
(7.51523e-17 -2.10943e-16 -12.9034)
(-4.24456e-17 1.46982e-15 -13.7344)
(4.22276e-16 6.83435e-16 -14.5326)
(1.81719e-16 -1.30844e-15 -15.2734)
(5.34319e-18 -7.04801e-16 -15.9437)
(2.15909e-16 -2.88484e-16 -16.5464)
(-5.65159e-16 -1.37715e-16 -17.0652)
(-3.00329e-16 4.8785e-17 -17.5029)
(-3.91399e-16 -8.88711e-17 -17.8473)
(-2.41485e-17 2.02025e-16 -18.1015)
(-1.08152e-16 2.04921e-16 -18.2314)
(1.55908e-16 -8.80259e-18 -18.2706)
(5.92105e-17 1.20253e-16 -18.1616)
(-2.8674e-16 -6.00989e-17 -17.9119)
(4.5624e-16 -3.79754e-16 -17.5246)
(3.8392e-16 -7.00743e-16 -16.9779)
(-1.49743e-16 -3.87074e-16 -16.3267)
(-4.86257e-16 8.59496e-16 -15.5328)
(-8.97718e-16 3.96475e-16 -14.6582)
(1.4741e-16 8.87748e-17 -13.6849)
(2.29747e-17 -2.20292e-16 -12.6903)
(-6.71686e-16 3.91006e-16 -11.6494)
(2.42101e-17 1.31493e-15 -10.5913)
(1.31156e-15 -1.18804e-15 -9.5625)
(-1.05515e-15 -8.47771e-16 -8.54423)
(1.9609e-15 -1.23214e-15 -7.57206)
(8.54138e-16 -8.11537e-16 -6.65504)
(-1.7843e-16 1.88592e-15 -5.79187)
(8.76972e-16 -2.75424e-16 -4.99633)
(5.82654e-17 -8.81856e-17 -4.2732)
(1.55965e-15 7.90371e-16 -3.61769)
(2.29956e-16 -2.31793e-15 -3.03181)
(7.46046e-16 -3.2957e-15 -2.51331)
(-5.2702e-17 2.33934e-15 -2.05696)
(6.73501e-16 -3.16386e-16 -1.65853)
(6.89152e-16 -1.42375e-15 -1.31248)
(-6.56169e-16 4.85475e-16 -1.01341)
(1.24644e-15 -9.11527e-16 -0.758753)
(-1.87384e-15 4.24285e-16 -0.543873)
(-1.25725e-15 -7.66552e-17 -0.365134)
(-5.97729e-16 1.06571e-15 -0.222499)
(-5.25654e-18 6.36315e-16 -0.112602)
(1.16134e-17 7.37078e-16 -0.0335192)
(2.37876e-17 3.27834e-16 0.0137616)
(-2.74005e-16 1.60451e-16 0.0337803)
(2.80012e-16 -4.25845e-16 0.0265095)
(-9.66386e-19 -3.32743e-17 -0.00392956)
(-8.44739e-17 2.96457e-16 -0.0560171)
(2.48024e-17 -2.54164e-16 -0.124318)
(-1.40528e-17 -5.58004e-16 -0.205681)
(7.4668e-16 5.34263e-17 -0.294286)
(6.48535e-17 3.71635e-16 -0.38786)
(-5.58904e-17 -2.04341e-17 -0.48371)
(8.04046e-17 -9.58228e-17 -0.577327)
(1.16218e-18 5.19166e-17 -0.6695)
(-6.23465e-19 -5.02044e-17 -0.757978)
(-1.48573e-18 -1.15127e-16 -0.844686)
(-1.06489e-16 -1.69789e-17 -0.934226)
(-1.12839e-16 -1.53102e-16 -1.02678)
(-4.24395e-16 -1.08943e-16 -1.13009)
(6.48389e-16 7.18962e-16 -1.24481)
(-4.38662e-16 -4.08072e-16 -1.37698)
(4.45317e-16 -1.05071e-16 -1.53053)
(-5.27556e-18 2.79182e-16 -1.70964)
(1.17985e-17 -2.8772e-16 -1.91843)
(2.73914e-17 2.65495e-16 -2.15952)
(3.47367e-18 3.39194e-16 -2.44062)
(-3.85956e-18 -3.14034e-16 -2.75884)
(2.09036e-16 7.20647e-16 -3.12249)
(1.42998e-16 8.06289e-16 -3.53328)
(-1.02512e-15 -1.68429e-15 -3.98907)
(-3.87345e-16 -4.10045e-16 -4.49394)
(1.00683e-15 1.49143e-15 -5.04802)
(2.96148e-16 -9.48517e-16 -5.64461)
(-2.81256e-16 -5.60609e-16 -6.28551)
(-5.77022e-16 -5.14909e-16 -6.96703)
(-1.47549e-16 9.06326e-16 -7.67664)
(-8.23346e-16 1.82559e-16 -8.41345)
(5.34389e-16 -8.07614e-16 -9.16802)
(-7.50999e-16 7.46631e-18 -9.9313)
(-5.43095e-16 -1.88457e-15 -10.6986)
(-7.8472e-16 -1.06887e-15 -11.4608)
(-2.4177e-16 1.00863e-16 -12.1981)
(-5.76321e-16 -4.69714e-16 -12.9264)
(-4.02401e-16 -1.19712e-15 -13.6297)
(8.66877e-16 5.32632e-16 -14.2782)
(-7.65212e-16 1.39464e-16 -14.9097)
(-2.2216e-18 -2.94378e-16 -15.499)
(4.66209e-18 -2.09874e-16 -16.006)
(-1.8531e-16 1.95409e-17 -16.503)
(-2.96732e-17 5.6353e-17 -16.9096)
(-2.11487e-16 -5.19879e-18 -17.2706)
(1.4551e-16 3.38904e-16 -17.5625)
(8.46653e-16 4.63328e-17 -17.7852)
(-8.39064e-17 6.6208e-17 -17.9386)
(1.51018e-17 2.33692e-16 -18.0213)
(-1.71945e-16 1.81499e-16 -18.0152)
(2.35434e-17 -2.41917e-16 -17.9426)
(7.22144e-17 -7.05077e-17 -17.7602)
(-9.28608e-17 1.18664e-16 -17.4958)
(1.1932e-16 -8.58373e-19 -17.1021)
(-1.90862e-16 2.47738e-16 -16.5868)
(7.19209e-17 -1.96133e-16 -15.9405)
(1.48213e-16 -4.19598e-16 -15.1598)
(-2.01811e-16 3.71912e-18 -14.246)
(6.21553e-17 7.54224e-17 -13.2246)
(-2.19318e-16 -8.67587e-17 -12.0604)
(-1.51182e-16 4.06378e-16 -10.8288)
(3.75679e-16 -1.37786e-16 -9.61222)
(-1.71786e-16 1.29568e-16 -8.3495)
(-9.51001e-18 -2.63683e-17 -7.12898)
(4.87115e-16 -2.34122e-16 -6.00084)
(1.49361e-16 -1.73635e-16 -4.97456)
(-2.77161e-16 2.93153e-16 -4.28947)
(3.1985e-17 -2.4264e-17 -3.97433)
(3.13047e-17 -9.44317e-19 -3.9034)
(-3.17861e-17 1.015e-18 -4.00288)
(-3.0941e-17 -1.57807e-17 -4.23617)
(-1.06145e-17 -7.6896e-17 -4.56213)
(2.9761e-17 4.26921e-17 -4.91535)
(2.48248e-17 1.52311e-18 -5.23303)
(2.78083e-18 1.95027e-17 -5.49107)
(-2.15778e-17 1.58745e-17 -5.69721)
(2.1181e-18 -2.16309e-17 -5.86656)
(4.28366e-17 2.6447e-18 -6.01071)
(-4.35947e-17 -8.8217e-20 -6.13596)
(-2.09036e-18 -2.04593e-17 -6.24487)
(-2.08038e-17 -1.07564e-17 -6.33776)
(3.92212e-17 5.91101e-17 -6.41411)
(-2.13181e-17 -6.54136e-18 -6.47329)
(8.66794e-19 -4.15215e-17 -6.5154)
(1.10226e-18 1.60944e-17 -6.54157)
(-9.9235e-18 1.36089e-18 -6.55382)
(7.88177e-18 4.01856e-18 -6.55479)
(2.22608e-18 1.0861e-17 -6.54742)
(1.09788e-17 -1.04792e-17 -6.53426)
(-1.06685e-17 -1.4705e-17 -6.51752)
(-6.10025e-18 1.78734e-18 -6.49887)
(6.96139e-18 3.3157e-19 -6.47936)
(-4.89518e-18 1.85305e-18 -6.45946)
(4.80414e-18 -8.87895e-19 -6.43923)
(-1.61472e-18 -2.73868e-18 -6.4181)
(2.6184e-18 -4.4779e-18 -6.39534)
(1.75111e-18 7.13896e-18 -6.37029)
(-1.37766e-18 3.52265e-18 -6.34202)
(2.02564e-19 -8.32057e-18 -6.30951)
(8.87891e-20 1.12046e-18 -6.27179)
(-4.15284e-19 -1.90764e-18 -6.22799)
(1.16689e-19 -2.78869e-18 -6.17761)
(1.75366e-19 -1.06058e-18 -6.12117)
(1.8744e-19 1.50027e-18 -6.06086)
(3.54539e-20 -1.36543e-18 -6.04036)
(0 -0 3.46871)
(8.34196e-18 -0 2.52688)
(-8.16649e-18 -1.54914e-17 1.15109)
(3.74111e-19 1.11923e-17 -0.438337)
(-5.23611e-19 1.98212e-17 -1.67211)
(2.28971e-19 -1.55222e-17 -2.65588)
(3.25421e-17 -0 -3.31651)
(-3.26232e-17 -0 -3.79138)
(1.34359e-18 -0 -4.13603)
(-2.90056e-18 -0 -4.39416)
(-6.81262e-17 6.19928e-17 -4.5919)
(6.95461e-17 -4.68881e-17 -4.74419)
(6.80295e-17 -1.54725e-17 -4.86083)
(-1.35062e-18 -4.672e-17 -4.94927)
(4.23659e-19 -2.94928e-17 -5.01538)
(-6.9725e-17 2.0008e-16 -5.06367)
(-6.48606e-17 -1.09333e-16 -5.09765)
(7.07474e-17 -7.58557e-17 -5.12005)
(-3.27596e-18 6.1689e-17 -5.13304)
(7.04162e-17 -1.21828e-16 -5.13834)
(-7.02349e-17 9.47632e-17 -5.13728)
(-8.20694e-18 1.49125e-16 -5.13087)
(-2.74162e-19 -1.2666e-18 -5.11979)
(1.46871e-17 -9.47697e-17 -5.10445)
(1.26835e-16 -1.47043e-16 -5.08497)
(-1.33581e-16 1.21019e-16 -5.06126)
(-1.14174e-16 -1.19515e-16 -5.03306)
(1.66132e-18 -2.39622e-17 -5.00001)
(2.26553e-16 2.39573e-16 -4.96169)
(-1.34936e-16 1.42181e-16 -4.91775)
(3.80431e-17 -3.34436e-16 -4.86791)
(-1.26306e-16 -4.45756e-17 -4.81151)
(1.08612e-16 1.4882e-16 -4.74787)
(1.15497e-16 -1.98772e-17 -4.66557)
(-1.47971e-16 2.46651e-16 -4.58397)
(2.8149e-16 -1.87257e-16 -4.52811)
(-9.66335e-16 -7.45344e-16 -4.5004)
(-9.26896e-16 -8.82518e-16 -4.52763)
(1.07915e-15 6.29693e-16 -4.62617)
(4.26183e-16 1.03091e-15 -4.80258)
(-1.39067e-16 1.34709e-15 -5.04689)
(1.02227e-15 -3.90998e-16 -5.3104)
(4.58837e-16 -2.6289e-15 -5.60197)
(-1.03041e-15 4.35562e-16 -5.93203)
(4.93041e-16 1.4581e-15 -6.29684)
(-1.09421e-15 -4.11965e-16 -6.69965)
(-8.16878e-16 2.54838e-17 -7.12763)
(-4.84886e-16 -2.7123e-16 -7.59441)
(-7.68596e-16 -1.49072e-16 -8.08996)
(-4.78565e-16 -1.27665e-15 -8.55251)
(1.31002e-15 2.85947e-16 -9.03781)
(-6.52953e-16 7.50036e-16 -9.53578)
(-2.14265e-17 8.14902e-16 -10.0108)
(-8.28961e-16 -1.26644e-16 -10.4648)
(-7.88196e-17 9.21324e-17 -10.9008)
(-9.88416e-18 -2.23718e-16 -11.3091)
(-5.16045e-16 -3.13694e-16 -11.6853)
(-1.41484e-16 -1.50519e-16 -12.0298)
(8.67786e-18 -5.67059e-17 -12.3129)
(8.00409e-17 -5.49024e-17 -12.554)
(-1.52678e-16 4.45797e-17 -12.7106)
(3.18028e-16 -1.84894e-16 -12.7761)
(-4.51581e-16 -6.32646e-17 -12.741)
(1.71312e-16 8.40724e-16 -12.5829)
(-7.22645e-16 1.04109e-15 -12.3225)
(7.86746e-16 -5.61156e-16 -11.9332)
(-2.10626e-16 -2.57978e-16 -11.453)
(1.49516e-16 -1.59974e-16 -10.8768)
(-5.47762e-16 6.44761e-16 -10.2366)
(4.26492e-16 2.47387e-17 -9.54346)
(2.59504e-16 -1.47373e-15 -8.81625)
(5.58866e-16 2.196e-16 -8.09108)
(-5.55527e-16 7.07691e-16 -7.36811)
(-8.95388e-17 -1.18377e-15 -6.67462)
(-9.74966e-16 1.48105e-15 -6.02205)
(4.32114e-17 -7.61578e-16 -5.41462)
(7.40137e-16 -7.75135e-16 -4.86233)
(3.72813e-17 -1.0779e-16 -4.36783)
(1.54146e-15 -1.90618e-15 -3.92745)
(1.41356e-15 -3.39213e-16 -3.54032)
(-2.94743e-15 3.54302e-15 -3.20226)
(-6.90202e-16 -1.92027e-16 -2.90733)
(7.27206e-16 -1.39168e-15 -2.651)
(-7.387e-16 1.25921e-15 -2.42824)
(3.09816e-18 -7.78911e-16 -2.2351)
(-1.30253e-15 2.2793e-15 -2.07022)
(1.26789e-15 2.43811e-15 -1.93095)
(-2.73326e-16 -3.2802e-16 -1.81667)
(-5.44868e-16 -1.86897e-15 -1.72953)
(-1.72076e-15 2.07803e-16 -1.66729)
(-2.7182e-16 1.47887e-16 -1.63001)
(1.66232e-17 1.1247e-17 -1.61975)
(2.78982e-16 -1.15793e-16 -1.63198)
(-3.94127e-17 -3.22957e-16 -1.66574)
(-4.58521e-16 2.04388e-16 -1.7198)
(-2.35608e-17 2.85919e-16 -1.78799)
(2.37192e-16 -1.21964e-16 -1.86957)
(-7.24281e-16 -4.69527e-17 -1.95694)
(-3.97125e-16 1.16733e-16 -2.05024)
(-2.30758e-17 2.19471e-16 -2.14257)
(1.10966e-16 -2.00222e-17 -2.23487)
(-1.06643e-16 7.88888e-17 -2.31893)
(6.69252e-17 -1.88806e-17 -2.39761)
(-7.07672e-19 -1.56316e-17 -2.46794)
(1.0216e-18 1.12742e-16 -2.53055)
(-2.20616e-16 1.31814e-16 -2.58751)
(2.2084e-18 1.31587e-16 -2.63741)
(-2.13348e-16 -7.00692e-16 -2.68443)
(-2.06288e-16 -9.29127e-17 -2.72754)
(4.13584e-16 6.99371e-16 -2.76971)
(-1.68419e-17 -2.59911e-16 -2.81338)
(6.69622e-18 -1.32418e-17 -2.86069)
(2.20249e-18 2.65662e-16 -2.91515)
(-2.29758e-16 -8.0778e-17 -2.97811)
(4.17678e-16 -5.66913e-17 -3.05722)
(1.02604e-17 -2.20732e-16 -3.15093)
(-6.54563e-16 -1.29584e-15 -3.26732)
(3.74076e-16 7.83719e-16 -3.40972)
(8.79274e-16 2.1912e-15 -3.57878)
(-5.95011e-16 -1.34908e-15 -3.78123)
(1.00266e-15 -7.12222e-16 -4.01906)
(-7.30688e-16 4.02431e-16 -4.29081)
(-5.00043e-16 1.09211e-15 -4.60005)
(-2.83099e-16 1.96838e-16 -4.94653)
(-6.66112e-16 -8.50696e-16 -5.32419)
(1.57737e-15 5.95888e-16 -5.73295)
(-1.25035e-16 2.93926e-17 -6.16731)
(4.54367e-16 8.34408e-16 -6.62124)
(-5.11811e-16 6.7883e-16 -7.09028)
(-8.3195e-16 -2.39583e-16 -7.56731)
(-4.56617e-16 -4.09856e-16 -8.04029)
(-5.47088e-17 6.31082e-17 -8.51357)
(-7.4429e-16 7.7415e-17 -8.97572)
(-5.8849e-16 -7.95358e-16 -9.41016)
(-6.90744e-17 3.12328e-16 -9.8338)
(-1.24914e-16 -1.64921e-16 -10.2304)
(-4.99208e-16 -6.92342e-17 -10.5833)
(-2.04303e-16 2.15435e-16 -10.9226)
(1.58682e-16 -3.22818e-17 -11.2146)
(7.12494e-18 2.79449e-17 -11.4781)
(3.58537e-16 -1.16744e-15 -11.7067)
(-1.90386e-16 -4.0739e-16 -11.9014)
(-5.52481e-17 3.51822e-17 -12.066)
(2.25533e-16 2.58465e-16 -12.1995)
(3.03434e-16 1.32247e-16 -12.2989)
(1.09155e-16 -4.56497e-17 -12.3674)
(-1.06604e-16 2.34166e-17 -12.3893)
(6.80505e-17 1.02805e-16 -12.3687)
(-5.52334e-17 -5.90182e-17 -12.2767)
(2.63844e-16 7.21437e-17 -12.1054)
(2.74287e-17 -1.91199e-16 -11.8439)
(-2.59013e-16 2.92274e-16 -11.4738)
(-1.70164e-17 2.07368e-16 -10.9976)
(6.52055e-17 -1.65222e-16 -10.4078)
(-1.64413e-16 3.50186e-16 -9.6783)
(1.03977e-16 -2.87727e-16 -8.91163)
(-2.8264e-16 -1.07235e-16 -8.10984)
(2.97106e-16 6.3383e-17 -7.24761)
(-2.58205e-17 -1.77782e-16 -6.46238)
(-3.12673e-17 -1.30023e-16 -5.77066)
(-1.51426e-16 2.15854e-16 -5.29212)
(1.34821e-16 -4.29842e-17 -5.06105)
(2.69597e-17 -6.00311e-17 -5.10815)
(1.17173e-16 -5.6221e-17 -5.3186)
(-2.25187e-17 5.41938e-17 -5.60795)
(3.19163e-17 1.67913e-17 -5.91531)
(-7.8198e-17 -1.13323e-19 -6.19666)
(-5.24426e-18 -5.98834e-17 -6.40258)
(5.33728e-18 -4.85201e-18 -6.50332)
(2.56823e-17 3.60402e-17 -6.50864)
(-4.08659e-19 2.34539e-17 -6.44993)
(-8.06834e-18 -4.11499e-17 -6.35951)
(-5.60276e-18 -8.09771e-18 -6.26269)
(5.45443e-18 4.75536e-17 -6.17585)
(4.54754e-18 -1.14833e-17 -6.10801)
(-4.23243e-17 9.23473e-19 -6.06259)
(3.52687e-17 -1.56707e-17 -6.03898)
(1.72122e-17 -1.64185e-17 -6.03406)
(-1.23373e-17 4.44516e-17 -6.04341)
(-4.43232e-18 -1.25284e-17 -6.06231)
(9.14052e-18 4.22685e-18 -6.08627)
(-6.72467e-18 -2.98663e-18 -6.11136)
(6.82142e-19 -9.05842e-18 -6.1346)
(5.57358e-18 -8.43692e-18 -6.15366)
(-1.17092e-17 2.07844e-17 -6.16675)
(8.05869e-19 -2.62444e-18 -6.17264)
(-1.71967e-18 -5.08385e-18 -6.17066)
(-1.33121e-18 4.38516e-18 -6.16068)
(3.39307e-18 1.10842e-17 -6.14327)
(-4.16026e-18 -1.84804e-17 -6.11939)
(-3.83313e-18 -1.78109e-18 -6.09075)
(3.8743e-18 -5.1634e-18 -6.05923)
(-1.20526e-18 7.39772e-18 -6.02615)
(-1.27896e-18 -7.40497e-18 -5.99266)
(7.6124e-20 8.31057e-18 -5.95955)
(7.61028e-19 2.56489e-18 -5.92711)
(-6.83073e-19 2.9971e-18 -5.89527)
(-7.35997e-20 -2.15946e-18 -5.86409)
(2.76948e-19 -5.32177e-18 -5.83271)
(-1.02472e-19 1.85303e-19 -5.85226)
(0 -0 2.33756)
(0 -0 2.06)
(1.38452e-19 -1.5643e-17 1.54322)
(5.23755e-19 1.12775e-17 0.844453)
(-7.71009e-19 1.996e-17 0.00653058)
(7.74849e-19 -4.63722e-17 -0.71436)
(3.26756e-17 2.2057e-17 -1.36673)
(-6.70442e-17 7.02257e-17 -1.94841)
(3.41705e-17 -8.34981e-17 -2.4338)
(1.01241e-18 -1.72892e-17 -2.84703)
(-2.32939e-18 6.99783e-17 -3.19993)
(6.68475e-17 -3.06958e-17 -3.49804)
(-1.27306e-16 -6.0757e-17 -3.74829)
(1.29986e-16 -1.63663e-17 -3.95781)
(-1.39496e-16 1.82143e-16 -4.13319)
(6.75179e-17 -2.80213e-17 -4.28009)
(9.01193e-18 -1.37604e-16 -4.40323)
(-5.85296e-18 6.06062e-17 -4.50665)
(3.35205e-18 -5.97998e-17 -4.59376)
(5.89064e-17 4.40932e-17 -4.66748)
(-7.19878e-17 7.56049e-17 -4.73029)
(9.79937e-18 -5.98983e-17 -4.78421)
(-1.30527e-16 1.18095e-16 -4.83088)
(1.44481e-16 -2.05624e-16 -4.87158)
(-4.40778e-18 -6.05687e-17 -4.90724)
(-2.7588e-17 3.82983e-16 -4.93847)
(7.62923e-18 -8.92503e-17 -4.96559)
(2.16604e-17 -3.50595e-16 -4.98873)
(-1.26315e-16 6.01303e-17 -5.00786)