/*--------------------------------*- C++ -*----------------------------------*\
| =========                 |                                                 |
| \\      /  F ield         | OpenFOAM: The Open Source CFD Toolbox           |
|  \\    /   O peration     | Version:  2506                                  |
|   \\  /    A nd           | Website:  www.openfoam.com                      |
|    \\/     M anipulation  |                                                 |
\*---------------------------------------------------------------------------*/
FoamFile
{
    version     2.0;
    format      ascii;
    arch        "LSB;label=32;scalar=64";
    class       volVectorField;
    location    "0.3";
    object      U;
}
// * * * * * * * * * * * * * * * * * * * * * * * * * * * * * * * * * * * * * //

dimensions      [0 1 -1 0 0 0 0];

internalField   nonuniform List<vector> 
4000
(
(0.00555968 0.000662794 0)
(0.00437821 0.000760595 3.64047e-21)
(0.0030354 0.000448643 -3.76088e-21)
(0.00196589 0.000238558 -7.67682e-21)
(0.00126215 0.000135872 1.55887e-20)
(0.000782674 7.95011e-05 -7.8742e-21)
(0.000433098 4.73015e-05 0)
(0.000171635 2.86134e-05 0)
(-2.80596e-05 1.66783e-05 0)
(-0.000182496 8.16826e-06 -1.5656e-20)
(-0.000302922 1.58986e-06 1.56202e-20)
(-0.000396704 -3.68537e-06 -3.08878e-20)
(-0.000469008 -7.97051e-06 3.08454e-20)
(-0.000523967 -1.14576e-05 0)
(-0.000565051 -1.42787e-05 0)
(-0.000595213 -1.65261e-05 0)
(-0.000617031 -1.82862e-05 -3.00001e-20)
(-0.000632773 -1.96793e-05 2.99901e-20)
(-0.000644386 -2.08715e-05 0)
(-0.000653507 -2.20218e-05 0)
(-0.00066152 -2.32611e-05 0)
(-0.0006695 -2.46027e-05 0)
(-0.000678228 -2.60459e-05 0)
(-0.000688235 -2.75464e-05 -5.77665e-20)
(-0.000699832 -2.90785e-05 1.15196e-19)
(-0.000713228 -3.06453e-05 -5.74269e-20)
(-0.000728399 -3.22742e-05 0)
(-0.000745194 -3.39928e-05 0)
(-0.000763332 -3.58563e-05 0)
(-0.000782277 -3.79607e-05 0)
(-0.000801015 -4.04487e-05 5.55609e-20)
(-0.000817466 -4.36719e-05 -5.55389e-20)
(-0.000827414 -4.85873e-05 0)
(-0.00082561 -5.59377e-05 -4.78841e-20)
(-0.000807152 -8.19874e-05 -5.42926e-20)
(-0.000761152 -0.000122159 2.72887e-19)
(-0.000687633 -0.000152502 2.18803e-19)
(-0.000593846 -0.000161552 -5.5209e-20)
(-0.000482252 -0.000143722 2.21778e-19)
(-0.000357629 -9.3171e-05 5.02094e-19)
(-0.000197827 -4.31303e-06 -5.6303e-20)
(-1.09027e-05 0.000116464 -4.50455e-19)
(0.000174519 0.000241082 4.49875e-19)
(0.000342462 0.000349134 0)
(0.000485889 0.000434596 0)
(0.000603221 0.000496824 2.7854e-20)
(0.000703829 0.000538796 4.17639e-19)
(0.00077969 0.000557707 4.17539e-19)
(0.000833515 0.000559157 2.50331e-19)
(0.000872721 0.000545199 2.21849e-19)
(0.000889953 0.000514751 -2.21149e-19)
(0.000890796 0.000471554 0)
(0.000864414 0.000415437 2.73991e-20)
(0.000816228 0.00034982 -4.65869e-19)
(0.000740747 0.000276734 0)
(0.000635899 0.000199773 1.08564e-19)
(0.000506963 0.000124896 2.68299e-20)
(0.00034575 5.76567e-05 -9.79009e-25)
(0.000169466 3.96118e-06 2.82698e-22)
(-2.77664e-05 -2.86357e-05 1.34511e-20)
(-0.000235273 -4.04685e-05 -2.57849e-20)
(-0.000434819 -2.66361e-05 0)
(-0.000627567 8.63501e-06 0)
(-0.000803308 6.15838e-05 -4.88015e-20)
(-0.000957025 0.000130168 -3.37148e-19)
(-0.00109333 0.000205394 -4.69372e-20)
(-0.00120143 0.000286704 4.70032e-20)
(-0.00129583 0.000364336 -4.51385e-20)
(-0.00136807 0.00043973 -1.33368e-19)
(-0.00142809 0.000508945 3.06211e-19)
(-0.00147517 0.000572428 4.31572e-20)
(-0.00150695 0.000628913 -1.06876e-21)
(-0.00153242 0.000676732 0)
(-0.0015466 0.000717123 0)
(-0.00155198 0.000748718 0)
(-0.00155155 0.000771949 1.95353e-20)
(-0.00154393 0.000787659 2.89801e-19)
(-0.00152946 0.000795834 0)
(-0.00151113 0.000797177 -1.13015e-21)
(-0.00148878 0.000792305 -1.83416e-20)
(-0.00146258 0.000781523 2.90745e-19)
(-0.00143368 0.000765247 -2.60427e-19)
(-0.00140204 0.000744329 -8.54988e-23)
(-0.00136838 0.000719332 -2.82347e-19)
(-0.0013342 0.000691113 -1.21876e-21)
(-0.00129844 0.000660168 2.67884e-19)
(-0.00126127 0.000626474 2.68236e-19)
(-0.00122535 0.000590798 -2.693e-19)
(-0.00118821 0.000553611 4.05697e-21)
(-0.00114977 0.000514576 2.54964e-19)
(-0.0011132 0.000474264 0)
(-0.00107489 0.000433245 2.55425e-19)
(-0.00103567 0.000390967 2.36549e-19)
(-0.000997689 0.000348022 -2.40916e-19)
(-0.000955822 0.000304631 1.33716e-19)
(-0.00091557 0.000260349 -1.46686e-20)
(-0.000871459 0.000216295 -1.15674e-19)
(-0.00082897 0.000172676 -1.42124e-20)
(-0.000782836 0.000132077 -9.86818e-20)
(-0.000737471 9.36162e-05 -6.96573e-20)
(-0.000688931 6.03588e-05 2.76096e-20)
(-0.000640268 3.13681e-05 -6.8522e-20)
(-0.000589644 8.73026e-06 6.82466e-21)
(-0.00053801 -7.82666e-06 6.79771e-21)
(-0.000484873 -1.99036e-05 2.70818e-20)
(-0.000432977 -2.60663e-05 0)
(-0.000381467 -2.79182e-05 0)
(-0.000332419 -2.44196e-05 2.1409e-19)
(-0.000285575 -1.67385e-05 6.82477e-21)
(-0.000241569 -5.12967e-06 -1.13104e-19)
(-0.000200415 9.40965e-06 -1.10027e-19)
(-0.000163389 2.62917e-05 -3.44936e-21)
(-0.000128902 4.50481e-05 1.14651e-19)
(-0.000100108 6.55767e-05 2.03488e-22)
(-7.18507e-05 8.72996e-05 0)
(-4.7096e-05 0.000109457 -2.24526e-19)
(-2.52506e-05 0.000131082 7.00929e-21)
(-4.41163e-06 0.000152486 2.10705e-19)
(1.40232e-05 0.000173113 7.06468e-21)
(3.07542e-05 0.000192853 2.2517e-19)
(4.7333e-05 0.000212166 6.15653e-22)
(6.31282e-05 0.000230727 -2.24379e-19)
(7.80198e-05 0.000248403 -1.39292e-20)
(9.35802e-05 0.000265664 2.50912e-19)
(0.000109437 0.00028243 -1.39433e-20)
(0.000125854 0.000298606 -2.21163e-19)
(0.000143323 0.000314291 -2.73742e-20)
(0.0001616 0.000329345 2.74865e-20)
(0.000180919 0.000343919 -2.17512e-19)
(0.000203248 0.000358212 1.8845e-19)
(0.000225822 0.000371205 2.69766e-20)
(0.00024894 0.000382925 3.98838e-19)
(0.000276503 0.000393985 2.65869e-20)
(0.000303707 0.000402559 2.09736e-19)
(0.000330106 0.000408452 -8.13607e-22)
(0.000362255 0.000412147 0)
(0.000388286 0.00041074 0)
(0.000414198 0.000404127 3.9868e-22)
(0.000435056 0.000391681 0)
(0.000448156 0.000371903 2.45512e-20)
(0.000451108 0.000344716 7.28461e-20)
(0.000438357 0.000309924 2.39358e-20)
(0.000402943 0.000268535 4.73472e-20)
(0.000345676 0.000222947 2.37343e-20)
(0.000253877 0.000179312 6.90151e-20)
(0.000140568 0.000138621 -2.28263e-20)
(-8.26169e-06 0.000108145 0)
(-0.000182495 8.95548e-05 0)
(-0.000371655 8.97031e-05 0)
(-0.000573705 0.000110861 2.00341e-20)
(-0.000773213 0.000150419 -1.99558e-20)
(-0.000965743 0.000212747 -7.59568e-20)
(-0.00114466 0.000287185 -7.32823e-20)
(-0.00129992 0.000376827 0)
(-0.00143672 0.000468992 6.8079e-20)
(-0.00154481 0.00056591 0)
(-0.00163489 0.000656611 1.53428e-20)
(-0.00169592 0.00074158 -7.6358e-20)
(-0.00171973 0.000797193 1.44434e-20)
(-0.0016794 0.000778869 -2.41647e-19)
(-0.00172374 0.000689037 5.47147e-20)
(-0.0017735 0.000609046 5.31179e-20)
(-0.00179028 0.000508704 0)
(-0.00176709 0.000394885 0)
(-0.00171431 0.000270434 0)
(-0.00162859 0.000161899 0)
(-0.00150495 7.56536e-05 0)
(-0.00133021 3.47461e-05 -1.0555e-20)
(-0.00111221 1.99896e-05 3.7392e-22)
(-0.000891194 1.53171e-05 3.64243e-22)
(-0.000694959 1.59407e-05 9.99063e-21)
(-0.000534932 1.90713e-05 0)
(-0.00041556 2.27684e-05 -8.99676e-21)
(-0.000335065 2.57576e-05 9.0034e-21)
(-0.000289471 2.74979e-05 -2.65599e-22)
(-0.000273239 2.88804e-05 0)
(-0.000278909 3.11788e-05 0)
(-0.000299877 3.35579e-05 7.35325e-21)
(-0.000331229 3.47467e-05 -7.3386e-21)
(-0.000369126 3.48786e-05 0)
(-0.000410056 3.42434e-05 0)
(-0.000451248 3.30459e-05 2.80595e-21)
(-0.000490728 3.14469e-05 -1.64121e-22)
(-0.000527205 2.95785e-05 -2.82189e-21)
(-0.000559947 2.75477e-05 0)
(-0.000588661 2.54399e-05 0)
(-0.000613382 2.3323e-05 0)
(-0.00063437 2.12518e-05 0)
(-0.000652039 1.92661e-05 -1.18025e-22)
(-0.000666874 1.7391e-05 0)
(-0.000679386 1.56409e-05 0)
(-0.000690075 1.40206e-05 0)
(-0.000699417 1.25265e-05 -5.70821e-22)
(-0.000707851 1.11484e-05 5.69911e-22)
(-0.000715785 9.87211e-06 0)
(-0.000723599 8.69567e-06 -4.55261e-23)
(-0.000731638 7.60759e-06 -1.215e-22)
(-0.000740498 6.58335e-06 8.08068e-23)
(-0.000752514 6.11256e-06 4.04231e-23)
(-0.000767498 7.7184e-06 0)
(0.00726084 0.00130992 0)
(0.00718176 0.00205398 0)
(0.006607 0.00175208 0)
(0.00573709 0.00135102 -7.64215e-21)
(0.00486653 0.00100127 1.56058e-20)
(0.00410099 0.000737576 -7.94948e-21)
(0.00345529 0.000550655 0)
(0.00292195 0.000418422 -1.62053e-20)
(0.00248789 0.000322242 1.63956e-20)
(0.00213716 0.000250186 -1.6402e-20)
(0.00185529 0.000194399 1.65285e-20)
(0.00163078 0.000150124 3.29489e-20)
(0.00145411 0.000114773 -3.31119e-20)
(0.00131697 8.6757e-05 -3.29183e-20)
(0.00121196 6.49377e-05 1.63189e-22)
(0.0011325 4.84718e-05 6.56941e-20)
(0.00107264 3.66772e-05 -3.28211e-20)
(0.001027 2.88542e-05 0)
(0.000990897 2.4253e-05 0)
(0.000960366 2.21581e-05 0)
(0.000932164 2.19436e-05 0)
(0.00090368 2.31285e-05 0)
(0.000872833 2.53192e-05 0)
(0.000838004 2.82351e-05 0)
(0.00079792 3.16508e-05 0)
(0.000751583 3.53534e-05 0)
(0.000698202 3.91305e-05 0)
(0.000637158 4.27618e-05 0)
(0.000567982 4.59459e-05 0)
(0.000490354 4.82042e-05 0)
(0.000404217 4.87481e-05 6.16375e-20)
(0.000310336 4.61757e-05 -3.05648e-22)
(0.00021235 3.76678e-05 -1.22913e-19)
(9.05385e-05 1.96673e-05 5.38126e-20)
(-2.48952e-05 -3.07066e-05 6.10228e-20)
(-2.96541e-05 -9.95407e-05 -1.83047e-19)
(9.40107e-05 -0.000130614 2.44274e-19)
(0.000295719 -9.79901e-05 6.11232e-20)
(0.000553752 6.22984e-06 -6.14682e-19)
(0.000860353 0.000186981 -1.85288e-19)
(0.00124685 0.000446774 0)
(0.00167827 0.000759854 -6.13561e-20)
(0.00209016 0.00106884 -3.67062e-19)
(0.00246152 0.00133715 -6.11847e-20)
(0.00278793 0.00155208 -4.868e-19)
(0.00307054 0.00171135 4.8596e-19)
(0.00332218 0.00181954 -7.98259e-22)
(0.00353286 0.00187444 0)
(0.00370749 0.00188304 2.42521e-19)
(0.00385147 0.00184931 0)
(0.00395413 0.00177461 4.03988e-22)
(0.0040222 0.0016642 0)
(0.00403567 0.00151845 2.40164e-19)
(0.00400106 0.00134586 2.3988e-19)
(0.00390437 0.00115041 0)
(0.00374238 0.00094113 -1.15652e-22)
(0.00351929 0.000729547 -1.18673e-19)
(0.00321921 0.000526411 -2.94256e-20)
(0.00287273 0.000345508 -5.86015e-20)
(0.00246216 0.000200694 1.48127e-20)
(0.0020113 9.54329e-05 0)
(0.00154734 4.11824e-05 -1.16428e-19)
(0.00107391 3.63497e-05 5.83139e-20)
(0.000616858 7.60904e-05 1.15036e-19)
(0.000185345 0.000159196 3.42592e-19)
(-0.000213557 0.000269242 5.65425e-20)
(-0.000563967 0.000404905 -2.73772e-19)
(-0.00087726 0.000547857 5.39453e-20)
(-0.00113805 0.000695393 0)
(-0.00136154 0.000838143 -5.09211e-20)
(-0.00154391 0.000971273 5.03796e-20)
(-0.00168706 0.00109296 -2.24032e-21)
(-0.00180224 0.0011971 0)
(-0.00188339 0.00128342 3.7675e-19)
(-0.00193829 0.00135064 3.69151e-19)
(-0.00197066 0.00139746 -2.24209e-20)
(-0.00198016 0.00142432 2.22345e-20)
(-0.00197072 0.00143278 -2.15734e-20)
(-0.00194675 0.00142448 3.39509e-19)
(-0.00190832 0.00140078 -3.14321e-19)
(-0.00185742 0.00136368 3.29238e-19)
(-0.00179612 0.00131462 3.31174e-19)
(-0.00172527 0.00125463 -1.97906e-20)
(-0.00164733 0.00118533 3.21728e-19)
(-0.0015646 0.00110845 -3.02254e-19)
(-0.00147679 0.00102589 2.9892e-19)
(-0.00138566 0.000939188 -2.96185e-19)
(-0.00129317 0.000849029 2.89521e-19)
(-0.00119681 0.000756927 8.89046e-21)
(-0.00109896 0.000664441 -8.81421e-21)
(-0.00100112 0.000571435 0)
(-0.000899208 0.000479461 0)
(-0.000796715 0.000389982 -1.33952e-19)
(-0.000693325 0.000302579 1.4765e-19)
(-0.000585762 0.000219846 -1.29421e-19)
(-0.000478811 0.000140731 -3.18848e-20)
(-0.000366407 6.83305e-05 -2.3739e-22)
(-0.000253102 2.92606e-06 8.80848e-23)
(-0.000135414 -5.11555e-05 2.75696e-19)
(-1.63773e-05 -9.47383e-05 4.52821e-20)
(0.000106457 -0.00012304 -5.97442e-20)
(0.000228612 -0.000136691 5.89107e-20)
(0.00035219 -0.000133601 0)
(0.000471117 -0.000113978 7.20429e-21)
(0.000588324 -8.03224e-05 -7.19717e-21)
(0.000699342 -3.24974e-05 0)
(0.000805542 2.62651e-05 0)
(0.000904955 9.5214e-05 -1.14404e-19)
(0.000996312 0.000171336 1.1445e-19)
(0.00108 0.00025263 -1.1836e-19)
(0.00115594 0.000336693 2.30721e-19)
(0.00122375 0.000421575 1.9687e-23)
(0.00128647 0.000506119 3.64734e-21)
(0.0013403 0.0005888 1.17117e-19)
(0.00139121 0.000668989 0)
(0.00143706 0.00074569 0)
(0.00147809 0.000817433 0)
(0.00151833 0.000885044 -2.45781e-19)
(0.00155628 0.000948029 -2.30566e-19)
(0.00159293 0.00100624 0)
(0.00163117 0.00106069 2.70093e-19)
(0.00167021 0.00111131 -4.5035e-20)
(0.00171006 0.00115789 3.00046e-20)
(0.00175327 0.00120133 -1.50675e-20)
(0.00179968 0.00124186 2.98564e-20)
(0.00184971 0.00127937 -2.39273e-19)
(0.00190429 0.00131408 2.08485e-19)
(0.00196331 0.00134583 -2.67565e-19)
(0.00202768 0.00137463 3.11675e-22)
(0.00210003 0.00140073 -2.08019e-19)
(0.00217639 0.00142227 0)
(0.00225767 0.00143863 -2.35573e-19)
(0.00234972 0.00145051 2.89825e-20)
(0.0024446 0.00145455 2.01922e-19)
(0.00254228 0.00144946 -2.31138e-19)
(0.00265065 0.00143575 2.83523e-20)
(0.00275169 0.00140742 -2.85279e-20)
(0.00285201 0.00136408 2.86688e-20)
(0.0029436 0.00130387 -2.80153e-20)
(0.00301907 0.0012247 2.72589e-20)
(0.00307281 0.00112604 -1.36545e-19)
(0.00309253 0.00100654 1.33491e-19)
(0.00306436 0.000870051 -1.32833e-19)
(0.00298689 0.000723018 0)
(0.00283493 0.000574179 -2.57626e-20)
(0.00262574 0.000430561 2.50277e-20)
(0.00233197 0.00030524 1.23362e-20)
(0.00196935 0.00020505 0)
(0.00155665 0.000143352 2.37812e-20)
(0.00109264 0.000128366 -4.665e-20)
(0.00061211 0.000157052 0)
(0.000118989 0.000239846 8.92604e-20)
(-0.000362753 0.000357742 2.12242e-20)
(-0.000814295 0.000518027 -2.09746e-20)
(-0.00123428 0.000696478 0)
(-0.00160552 0.000894593 -7.61122e-20)
(-0.00193541 0.00108855 7.25758e-20)
(-0.00220761 0.00127343 -7.00909e-20)
(-0.00242151 0.00140958 0)
(-0.00256308 0.00144591 1.28281e-19)
(-0.00271325 0.00129167 7.6778e-20)
(-0.00274956 0.00107709 -1.33149e-19)
(-0.00271842 0.000811615 1.40085e-20)
(-0.00258167 0.000514884 -1.38924e-20)
(-0.00233647 0.000210561 -1.29922e-20)
(-0.00197563 -5.38749e-05 -1.23746e-20)
(-0.00149694 -0.00025639 1.10893e-20)
(-0.000934237 -0.000352746 7.5611e-22)
(-0.000369419 -0.000368156 0)
(0.000150262 -0.000338246 -7.1127e-22)
(0.000601335 -0.000283935 0)
(0.000969551 -0.000219477 6.50641e-22)
(0.00125068 -0.000154815 9.80362e-21)
(0.00144858 -9.62478e-05 -1.03584e-20)
(0.00157237 -4.70522e-05 8.6183e-22)
(0.00163436 -7.57776e-06 -8.65153e-21)
(0.00164675 2.34733e-05 1.63928e-20)
(0.00162157 4.63996e-05 -1.61929e-20)
(0.00157001 6.11989e-05 8.39622e-21)
(0.00150236 6.90805e-05 0)
(0.00142662 7.15731e-05 -3.86599e-21)
(0.00134892 7.01025e-05 3.63569e-21)
(0.0012737 6.59234e-05 3.94353e-22)
(0.00120394 6.00883e-05 2.89094e-21)
(0.00114139 5.34379e-05 -2.54052e-21)
(0.0010868 4.6608e-05 -2.52835e-21)
(0.00104024 4.00686e-05 2.83063e-21)
(0.00100123 3.41415e-05 -2.44419e-21)
(0.000968996 2.90077e-05 4.27032e-21)
(0.000942598 2.47538e-05 -2.64057e-21)
(0.000921026 2.13957e-05 8.97294e-22)
(0.000903283 1.89028e-05 1.89912e-22)
(0.000888426 1.72184e-05 0)
(0.000875587 1.62783e-05 -3.90271e-22)
(0.000863967 1.60268e-05 5.3402e-22)
(0.000852846 1.64475e-05 -2.78632e-23)
(0.000841591 1.76044e-05 1.77345e-22)
(0.000829361 1.97045e-05 0)
(0.000813589 2.33445e-05 0)
(0.000795467 2.94671e-05 1.21641e-23)
(0.00721874 0.00086177 0)
(0.00752152 0.00174271 3.68854e-21)
(0.00774527 0.00194624 -3.65961e-21)
(0.00764453 0.00184044 -7.29604e-21)
(0.0073291 0.00162168 7.36946e-21)
(0.00687585 0.00136732 0)
(0.00639229 0.00112905 0)
(0.00592539 0.000921598 0)
(0.00549937 0.000746836 1.52076e-20)
(0.0051244 0.000602504 -3.06693e-20)
(0.00480183 0.000482702 -1.52981e-20)
(0.00452986 0.000382602 3.09808e-20)
(0.00430471 0.000299501 3.08899e-20)
(0.00412115 0.000231312 -3.1058e-20)
(0.00397357 0.000176279 0)
(0.00385635 0.000133056 3.08464e-20)
(0.00376381 0.000100549 -6.17081e-20)
(0.00369034 7.75543e-05 3.08422e-20)
(0.00363068 6.27582e-05 0)
(0.00358008 5.48872e-05 0)
(0.00353432 5.27239e-05 0)
(0.00348974 5.51059e-05 0)
(0.00344327 6.10248e-05 0)
(0.00339232 6.96495e-05 5.9896e-20)
(0.00333475 8.0339e-05 -5.99516e-20)
(0.0032687 9.26086e-05 0)
(0.00319255 0.000106085 0)
(0.00310476 0.000120454 0)
(0.00300385 0.000135366 0)
(0.00288826 0.00015033 0)
(0.00275631 0.000164582 5.84103e-20)
(0.00260629 0.000176915 -5.85777e-20)
(0.00244078 0.000185094 0)
(0.00222728 0.000184529 -3.64366e-21)
(0.0020022 0.000166005 0)
(0.00190827 0.000149178 1.1685e-19)
(0.00198679 0.000187035 -2.33584e-19)
(0.00217988 0.000306887 0)
(0.00245772 0.000515821 4.68227e-19)
(0.00281128 0.000812532 -2.68489e-22)
(0.00326733 0.00119004 5.83712e-20)
(0.00378147 0.00161146 -5.84036e-20)
(0.00428215 0.00201885 4.64335e-19)
(0.0047484 0.0023767 0)
(0.0051766 0.0026699 5.19196e-19)
(0.00556714 0.00289415 -4.89726e-19)
(0.00592989 0.00305179 -4.88604e-19)
(0.00625385 0.00314096 0)
(0.00654325 0.00316437 -2.28801e-19)
(0.00680105 0.00312555 0)
(0.00701462 0.00302771 4.56387e-19)
(0.00718701 0.00287579 0)
(0.00729994 0.0026684 -1.98235e-19)
(0.00735618 0.00241627 -2.53361e-19)
(0.0073384 0.00212321 -2.23889e-19)
(0.00724059 0.00180128 -1.11559e-19)
(0.0070619 0.00146248 -1.10901e-19)
(0.00678219 0.00111865 -5.52269e-20)
(0.00642894 0.000788036 2.76334e-20)
(0.00597584 0.000483695 4.12052e-20)
(0.00544903 0.000218848 0)
(0.0048705 7.86832e-06 1.08813e-19)
(0.00424864 -0.000142868 -1.08486e-19)
(0.00361668 -0.000233125 0)
(0.00298467 -0.000260758 -4.31416e-19)
(0.00237649 -0.000239551 0)
(0.00180621 -0.000171148 -5.31183e-20)
(0.00128072 -7.37052e-05 5.33805e-20)
(0.00081572 4.60387e-05 0)
(0.000405535 0.000174701 -5.19087e-20)
(5.60613e-05 0.000301832 5.19087e-20)
(-0.000236759 0.000424006 5.57207e-19)
(-0.000481259 0.000530776 -3.47347e-19)
(-0.000672222 0.000619537 2.05923e-21)
(-0.000820171 0.000688293 -3.78226e-19)
(-0.000928246 0.000733496 -2.30887e-20)
(-0.000997236 0.000755295 3.87996e-19)
(-0.00103373 0.000755227 0)
(-0.00104159 0.000734029 3.51397e-19)
(-0.00102189 0.000694082 6.66647e-19)
(-0.000979309 0.000638794 -6.43426e-19)
(-0.000918059 0.000570372 -3.42694e-19)
(-0.000840325 0.000490472 3.36432e-19)
(-0.000748564 0.000401305 -3.28866e-19)
(-0.000645052 0.000304874 0)
(-0.000531056 0.000204161 -3.08172e-19)
(-0.000409902 0.000101979 -3.88888e-21)
(-0.000282796 -1.02586e-06 -6.06255e-19)
(-0.000148678 -0.000102178 -2.7646e-19)
(-1.17892e-05 -0.000198542 -2.98833e-19)
(0.000128012 -0.000290431 0)
(0.000272762 -0.000375261 0)
(0.000417903 -0.000450268 1.34939e-19)
(0.000565413 -0.000516051 0)
(0.000715071 -0.000568562 1.60971e-20)
(0.000865063 -0.000608459 -1.58368e-20)
(0.00101716 -0.000631798 1.2354e-19)
(0.00116912 -0.000638999 -1.21213e-19)
(0.0013206 -0.000626554 -1.0394e-19)
(0.00147157 -0.000595355 -1.4627e-20)
(0.00162135 -0.000542469 5.74158e-20)
(0.00176713 -0.00046854 -2.831e-20)
(0.00191023 -0.000373548 2.09849e-20)
(0.00204534 -0.000258459 -6.95604e-21)
(0.00217594 -0.000125584 0)
(0.0022976 2.29539e-05 -5.49099e-20)
(0.00241189 0.000183448 0)
(0.00251786 0.000352596 -1.096e-19)
(0.00261466 0.000526638 -1.5263e-22)
(0.00270345 0.000702296 1.06809e-19)
(0.00278471 0.000876565 -1.10642e-19)
(0.00285872 0.00104691 3.4786e-21)
(0.00292837 0.00121153 0)
(0.00299133 0.00136822 -1.11856e-19)
(0.00305295 0.00151679 1.12382e-19)
(0.00311224 0.00165646 0)
(0.00316896 0.00178645 -7.06472e-21)
(0.00322716 0.00190762 2.34365e-19)
(0.00328574 0.00201978 2.14476e-19)
(0.00334539 0.00212306 -2.13978e-19)
(0.0034093 0.00221854 2.28697e-19)
(0.00347694 0.00230638 1.42793e-20)
(0.00354827 0.00238655 -2.14802e-19)
(0.00362614 0.00245999 -2.88018e-20)
(0.00371081 0.002527 -2.57154e-19)
(0.00380271 0.00258754 5.14887e-19)
(0.00390302 0.00264173 -2.57608e-19)
(0.0040119 0.00268927 1.99953e-19)
(0.00413048 0.00272999 -1.69409e-19)
(0.00426134 0.00276375 -2.81494e-19)
(0.00440098 0.00278846 -1.67751e-19)
(0.00455012 0.0028029 -2.80734e-20)
(0.00471466 0.00280709 -1.93527e-19)
(0.00488657 0.00279731 -2.48608e-19)
(0.00506539 0.00277176 2.7112e-20)
(0.00525742 0.00272974 -2.72541e-20)
(0.00544515 0.00266465 -8.02854e-20)
(0.00563288 0.00257558 -2.60329e-20)
(0.00581228 0.00245977 2.6043e-20)
(0.00597349 0.00231515 -2.61849e-20)
(0.00610786 0.00214069 1.0226e-19)
(0.00620159 0.00193517 -2.56902e-20)
(0.0062406 0.00170239 4.95452e-22)
(0.00621837 0.00144945 2.47248e-20)
(0.0061067 0.00118323 9.61252e-20)
(0.00591842 0.000916207 0)
(0.00562072 0.00066042 -4.60141e-20)
(0.00522488 0.000430552 2.86785e-20)
(0.00474575 0.000240787 -2.23213e-20)
(0.00417797 0.000104818 6.53604e-20)
(0.00356121 2.53212e-05 2.11499e-20)
(0.00289349 1.46142e-05 -8.42497e-20)
(0.00221109 5.94124e-05 -1.03133e-19)
(0.00152872 0.000165876 4.05751e-20)
(0.000869822 0.000312104 -9.98642e-20)
(0.000252673 0.000496296 7.7629e-20)
(-0.000317555 0.000692109 1.85043e-20)
(-0.000821298 0.000887264 7.1173e-20)
(-0.00125242 0.00104403 -1.74896e-20)
(-0.00160406 0.00111603 6.64e-20)
(-0.00184064 0.000967331 -6.28588e-20)
(-0.00183529 0.000696033 4.56671e-20)
(-0.00171889 0.000363116 1.48499e-20)
(-0.00146506 2.47627e-06 2.81589e-20)
(-0.00105845 -0.000351905 0)
(-0.000502651 -0.000646591 2.59951e-20)
(0.00019746 -0.000854821 -2.35866e-20)
(0.000965367 -0.000934522 -3.13438e-22)
(0.00168927 -0.000906568 4.12844e-22)
(0.00233717 -0.000811831 1.06614e-21)
(0.0028992 -0.000679919 1.04568e-20)
(0.00336634 -0.000532353 -6.14377e-22)
(0.00373571 -0.000385193 0)
(0.00401083 -0.000249343 5.65094e-22)
(0.0041999 -0.000131248 -5.42509e-22)
(0.00431413 -3.40782e-05 -9.19598e-21)
(0.0043657 4.11347e-05 8.64385e-21)
(0.00436759 9.55662e-05 7.46321e-21)
(0.00433268 0.000131846 -7.90302e-21)
(0.00427272 0.000152825 0)
(0.00419763 0.000161507 4.13702e-22)
(0.00411542 0.000160868 0)
(0.00403224 0.000153653 2.51368e-21)
(0.00395247 0.000142239 -1.68413e-22)
(0.00387895 0.000128575 -3.04591e-21)
(0.00381325 0.000114165 -6.14417e-22)
(0.00375596 0.000100109 -2.86842e-22)
(0.00370695 8.71555e-05 2.65366e-22)
(0.00366562 7.57509e-05 0)
(0.00363108 6.61129e-05 -2.22314e-22)
(0.00360228 5.82958e-05 -7.59416e-22)
(0.00357816 5.22476e-05 5.79081e-22)
(0.00355768 4.78588e-05 5.88369e-22)
(0.00353986 4.5002e-05 -7.24039e-22)
(0.00352381 4.35629e-05 0)
(0.00350873 4.34755e-05 -1.14688e-22)
(0.00349399 4.47576e-05 -1.66835e-22)
(0.00347892 4.75741e-05 -4.16896e-23)
(0.00346145 5.24475e-05 4.16156e-23)
(0.00344267 6.11468e-05 -1.14266e-23)
(0.00716008 0.000473346 0)
(0.00735233 0.0011941 0)
(0.0077237 0.00159888 0)
(0.00807696 0.00175012 -7.24459e-21)
(0.00827471 0.00172589 7.22864e-21)
(0.00824193 0.00161501 0)
(0.00812087 0.00144852 0)
(0.00793195 0.0012635 0)
(0.00770631 0.00108114 0)
(0.00747106 0.000913108 0)
(0.007241 0.000760662 0)
(0.00702612 0.000624319 2.92085e-20)
(0.00683199 0.000505376 -2.93913e-20)
(0.0066604 0.000403496 2.92721e-20)
(0.00651169 0.000317851 -5.86799e-20)
(0.00638511 0.000247874 2.93861e-20)
(0.00627869 0.000193082 2.91924e-20)
(0.00618951 0.000152438 -2.92706e-20)
(0.00611428 0.000124538 0)
(0.00604954 0.000107906 0)
(0.00599169 0.00010097 -5.76572e-20)
(0.00593725 0.000102118 5.77182e-20)
(0.00588301 0.000109878 0)
(0.00582603 0.000122999 5.69302e-20)
(0.00576367 0.000140484 -5.69774e-20)
(0.00569355 0.000161589 0)
(0.00561346 0.000185792 0)
(0.00552126 0.000212737 -5.59836e-20)
(0.00541476 0.000242148 2.88885e-22)
(0.0052916 0.000273731 5.58717e-20)
(0.0051491 0.000307067 5.54169e-20)
(0.00498382 0.000341542 -1.10833e-19)
(0.00479714 0.000376249 5.54453e-20)
(0.00455616 0.000405754 -5.16427e-20)
(0.00429097 0.000431771 5.55295e-20)
(0.00413723 0.000479778 5.56227e-20)
(0.00414594 0.000587967 -5.57898e-20)
(0.00427713 0.000778772 -1.67098e-19)
(0.00450608 0.00105797 -2.78852e-19)
(0.00482506 0.00141879 -5.58055e-20)
(0.00525281 0.00184681 5.58243e-20)
(0.00574707 0.0023016 4.99405e-19)
(0.00624553 0.0027369 -4.98044e-19)
(0.00672928 0.00312481 -4.96651e-19)
(0.00719398 0.00345012 1.10266e-19)
(0.00763797 0.00370638 -8.26361e-20)
(0.00806601 0.00389274 2.47153e-19)
(0.00846731 0.00400647 0)
(0.00884275 0.00404601 2.46389e-19)
(0.00919244 0.00401307 -2.73926e-20)
(0.00950485 0.00391177 -2.1819e-19)
(0.0097784 0.00374735 -2.70771e-20)
(0.00999745 0.00351638 2.69726e-19)
(0.0101626 0.00322833 1.87796e-19)
(0.0102576 0.00288631 2.13032e-19)
(0.0102747 0.00250179 1.05619e-19)
(0.0102093 0.00208546 2.62363e-20)
(0.0100407 0.00164768 -2.61523e-20)
(0.00978784 0.00120832 -2.58831e-20)
(0.0094217 0.000776991 -3.84162e-20)
(0.00896281 0.000373421 -2.54493e-20)
(0.00842292 1.19193e-05 0)
(0.00780924 -0.000295559 -1.01478e-19)
(0.00715289 -0.000541847 0)
(0.00646189 -0.000721528 3.52938e-19)
(0.00576906 -0.000840114 2.01684e-19)
(0.00508705 -0.000899095 5.03221e-20)
(0.00443606 -0.000911954 0)
(0.00383176 -0.000886152 0)
(0.00327834 -0.000834365 1.97503e-19)
(0.00278761 -0.000769309 0)
(0.00235636 -0.000696372 -4.36362e-19)
(0.00198349 -0.000627977 4.31789e-19)
(0.00167322 -0.000569245 -4.02937e-19)
(0.00141631 -0.000523502 2.61206e-22)
(0.00121095 -0.000495919 2.56662e-22)
(0.00105575 -0.000487355 -3.18893e-19)
(0.000943279 -0.000496609 -4.50158e-20)
(0.000869481 -0.000523739 -3.31009e-19)
(0.000832236 -0.000567777 -3.47254e-19)
(0.000825675 -0.000625894 -1.91145e-21)
(0.000845023 -0.000695327 3.22717e-19)
(0.000887813 -0.000772936 -3.15716e-19)
(0.00095057 -0.000855849 0)
(0.00103073 -0.000942068 -4.86199e-21)
(0.00112586 -0.00102839 -3.01586e-19)
(0.00123147 -0.00111154 5.95101e-19)
(0.00134659 -0.0011908 8.76989e-19)
(0.00147068 -0.0012631 2.93342e-19)
(0.0015986 -0.00132527 -9.92581e-21)
(0.0017308 -0.00137731 0)
(0.00186764 -0.00141659 -8.2774e-21)
(0.00200425 -0.00144032 8.15171e-21)
(0.0021428 -0.00144894 0)
(0.00228114 -0.00143879 -1.24396e-19)
(0.00241911 -0.00141043 1.51306e-20)
(0.00255613 -0.00136078 -1.49245e-20)
(0.00269165 -0.00129013 -2.3554e-22)
(0.002824 -0.00119634 -1.14588e-19)
(0.0029545 -0.00108038 1.4016e-20)
(0.00308187 -0.000941255 -2.77053e-20)
(0.00320485 -0.000780053 1.37062e-20)
(0.00332468 -0.000598106 7.17439e-24)
(0.0034381 -0.00039736 6.68575e-21)
(0.00354839 -0.000180633 -6.68278e-21)
(0.00365284 4.87951e-05 5.3132e-20)
(0.00375317 0.000287517 5.63304e-20)
(0.00384928 0.000531614 1.02817e-19)
(0.00394099 0.000777701 -2.12535e-19)
(0.00402948 0.00102249 1.03153e-19)
(0.00411529 0.0012632 3.35042e-21)
(0.00419874 0.00149744 3.3435e-21)
(0.00428187 0.00172353 -3.37776e-21)
(0.00436302 0.00193958 1.08319e-19)
(0.00444602 0.00214545 -7.05955e-21)
(0.00453014 0.00234 4.51099e-23)
(0.00461515 0.00252295 -9.55311e-20)
(0.00470396 0.00269462 -3.36129e-19)
(0.00479587 0.00285472 2.19445e-19)
(0.00489144 0.00300349 2.20656e-19)
(0.00499314 0.00314163 -2.34646e-19)
(0.00510079 0.00326905 -2.06232e-19)
(0.00521455 0.00338587 2.0729e-19)
(0.00533681 0.00349271 2.47312e-19)
(0.00546806 0.00358948 2.06697e-19)
(0.00560894 0.00367602 -2.84468e-20)
(0.00576061 0.00375218 2.74824e-20)
(0.0059235 0.00381738 0)
(0.00609871 0.00387114 2.44601e-19)
(0.00628835 0.00391285 2.16212e-19)
(0.00648983 0.0039402 1.88278e-19)
(0.00670372 0.00395169 0)
(0.00693473 0.00394662 2.38532e-19)
(0.00717583 0.00392125 -2.64088e-20)
(0.00742616 0.00387397 7.78415e-20)
(0.00768929 0.003803 2.59386e-20)
(0.00795082 0.00370181 6.96784e-22)
(0.00821274 0.00356998 1.26248e-19)
(0.00846705 0.00340413 -2.51378e-20)
(0.00870374 0.00320279 1.22636e-19)
(0.00891437 0.00296501 -2.19197e-19)
(0.00908488 0.00269206 -1.91867e-19)
(0.00920222 0.00238651 -9.3969e-20)
(0.00925852 0.00205429 0)
(0.00922802 0.00170158 2.21698e-20)
(0.00911838 0.00134175 -3.12939e-22)
(0.00889766 0.000983656 -1.0598e-20)
(0.00857125 0.000644403 3.72894e-20)
(0.00814637 0.000336781 -2.11303e-20)
(0.00761256 7.58726e-05 4.08231e-20)
(0.00700408 -0.000129828 -4.01016e-20)
(0.00631133 -0.000268168 0)
(0.00557462 -0.000341936 9.61203e-20)
(0.0048012 -0.000346431 -3.78537e-20)
(0.00402361 -0.000295529 7.47828e-20)
(0.00325561 -0.000192437 1.85151e-20)
(0.00251762 -5.90966e-05 -8.94555e-20)
(0.00182841 8.89723e-05 1.78476e-20)
(0.00121827 0.000211642 0)
(0.000676643 0.000283351 -8.41387e-20)
(0.000352311 0.000149062 4.89833e-22)
(0.000347127 -0.000127329 4.78923e-22)
(0.00049272 -0.000463288 4.74258e-22)
(0.000787355 -0.000816614 -2.78213e-20)
(0.00125055 -0.00114811 4.58812e-22)
(0.00186275 -0.00140319 2.13566e-22)
(0.00260971 -0.00155542 1.15863e-20)
(0.00339429 -0.00157605 -9.9737e-21)
(0.00410956 -0.00148239 -1.04217e-20)
(0.00473835 -0.0013141 -8.92917e-22)
(0.00528429 -0.00110375 9.86973e-21)
(0.00574571 -0.000876025 -1.16119e-21)
(0.00612202 -0.000650083 -8.75251e-21)
(0.00641602 -0.000439714 8.72876e-21)
(0.00663328 -0.000253815 1.02832e-21)
(0.0067813 -9.73688e-05 9.88481e-22)
(0.0068689 2.76827e-05 0)
(0.00690567 0.000121996 -7.08965e-21)
(0.00690197 0.000188154 7.06557e-21)
(0.0068679 0.000229812 0)
(0.00681269 0.000251198 7.81027e-22)
(0.00674434 0.00025671 0)
(0.00666943 0.000250566 -7.00832e-22)
(0.00659307 0.000236548 -2.56766e-21)
(0.00651896 0.000217854 2.56706e-21)
(0.00644953 0.000197036 5.82522e-22)
(0.00638618 0.000176014 -5.40175e-22)
(0.00632948 0.000156136 0)
(0.00627938 0.000138261 1.76007e-21)
(0.00623545 0.000122863 -1.75857e-21)
(0.00619698 0.00011013 -3.78196e-22)
(0.00616314 0.000100058 -6.36958e-22)
(0.00613304 9.25214e-05 6.36133e-22)
(0.00610583 8.73449e-05 -4.75886e-22)
(0.0060807 8.43421e-05 4.75174e-22)
(0.00605693 8.33584e-05 1.78142e-22)
(0.00603396 8.429e-05 1.18344e-22)
(0.00601128 8.71411e-05 -7.87216e-23)
(0.00598753 9.2057e-05 -9.83339e-23)
(0.00596102 0.000101911 0)
(0.00716552 0.000279097 0)
(0.00714519 0.000794702 0)
(0.00745664 0.00117631 0)
(0.00790244 0.00140095 -7.32141e-21)
(0.00826356 0.00149759 7.26283e-21)
(0.00851265 0.00150048 0)
(0.00867814 0.00143158 -1.42572e-20)
(0.00877249 0.00132181 1.42645e-20)
(0.00878033 0.00119193 1.41726e-20)
(0.00874693 0.00105409 -2.83749e-20)
(0.00868135 0.000914399 1.42116e-20)
(0.00859422 0.000779294 0)
(0.00849655 0.000654955 0)
(0.00839449 0.000542905 -2.82537e-20)
(0.00829355 0.000443907 1.36908e-22)
(0.0081977 0.00035924 5.65152e-20)
(0.00810915 0.00029006 -2.82758e-20)
(0.00802866 0.000236158 0)
(0.00795625 0.000196793 0)
(0.00789115 0.000171137 -2.78978e-20)
(0.00783179 0.000157957 2.79368e-20)
(0.00777615 0.00015574 0)
(0.00772196 0.000162971 0)