/*--------------------------------*- C++ -*----------------------------------*\
| =========                 |                                                 |
| \\      /  F ield         | OpenFOAM: The Open Source CFD Toolbox           |
|  \\    /   O peration     | Version:  2506                                  |
|   \\  /    A nd           | Website:  www.openfoam.com                      |
|    \\/     M anipulation  |                                                 |
\*---------------------------------------------------------------------------*/
FoamFile
{
    version     2.0;
    format      ascii;
    arch        "LSB;label=32;scalar=64";
    class       volVectorField;
    location    "4";
    object      vorticityField;
}
// * * * * * * * * * * * * * * * * * * * * * * * * * * * * * * * * * * * * * //

dimensions      [0 0 -1 0 0 0 0];

internalField   nonuniform List<vector> 
4000
(
(-2.63008e-20 8.91478e-18 -32.7424)
(-9.62705e-18 -7.96761e-18 -35.7513)
(1.02568e-17 -2.88903e-17 -33.6377)
(3.92145e-17 4.53455e-17 -29.632)
(-8.06745e-17 3.04054e-18 -26.6301)
(4.13479e-17 -3.95346e-17 -24.7293)
(-3.3795e-19 1.90917e-17 -23.407)
(4.09149e-17 -0 -22.4125)
(-4.02192e-17 -3.78489e-17 -21.6382)
(8.05182e-17 3.52654e-17 -21.0134)
(-8.05941e-17 -3.47313e-17 -20.4916)
(-2.9493e-18 3.23043e-17 -20.045)
(-9.55507e-19 8.03444e-17 -19.6563)
(8.48048e-17 -7.53339e-17 -19.3134)
(-3.90712e-19 -0 -19.0068)
(-1.60052e-16 -7.38458e-17 -18.7289)
(1.57194e-16 6.91224e-17 -18.4732)
(-8.29056e-17 7.86267e-17 -18.2338)
(3.92459e-18 -7.39033e-17 -18.0053)
(0 -0 -17.7828)
(0 -0 -17.5615)
(0 -0 -17.3367)
(9.74425e-18 -1.43603e-16 -17.1041)
(1.33631e-16 2.77981e-16 -16.8589)
(-3.07031e-16 1.78768e-17 -16.5964)
(1.74652e-16 -2.95444e-16 -16.3113)
(-1.09835e-17 1.43188e-16 -15.9978)
(0 -0 -15.6491)
(0 -0 -15.2568)
(-1.24229e-17 1.40361e-16 -14.81)
(-2.94929e-16 -1.33275e-16 -14.2934)
(1.64353e-16 -1.4775e-16 -13.6884)
(3.13664e-16 1.82336e-17 -12.9649)
(7.26055e-18 -1.44621e-16 -11.9198)
(-9.21574e-17 8.20301e-16 -10.7048)
(-3.49229e-16 6.67806e-16 -10.0563)
(-1.14148e-15 -1.19879e-15 -10.2258)
(-1.02414e-17 4.18604e-18 -10.9494)
(8.38244e-16 1.97254e-15 -12.1362)
(-8.25041e-16 -1.25595e-15 -13.8698)
(4.37778e-16 -2.55031e-15 -16.4397)
(1.25486e-15 2.41085e-15 -19.5716)
(-3.72526e-16 1.06942e-15 -22.7129)
(2.91403e-16 -1.1395e-15 -25.7288)
(1.36612e-15 9.55689e-16 -28.6184)
(-1.5673e-15 1.88417e-16 -31.4173)
(-1.41363e-15 4.29308e-16 -34.1696)
(-1.21319e-15 -1.19279e-15 -36.7061)
(-1.38775e-15 -1.42023e-15 -39.0795)
(-5.90651e-16 -1.51177e-15 -41.2586)
(7.83978e-16 -3.5424e-16 -43.1443)
(-4.81399e-17 5.97808e-16 -44.8216)
(-7.3737e-16 -1.34841e-15 -46.106)
(8.09467e-16 3.41666e-17 -47.1269)
(-1.10932e-16 1.2962e-15 -47.7433)
(-3.74097e-16 5.41544e-17 -47.9857)
(2.91567e-16 -1.11837e-16 -47.8869)
(9.53419e-17 -3.5546e-17 -47.3116)
(1.76842e-16 5.45656e-17 -46.5211)
(-8.52067e-17 -5.45995e-17 -45.3077)
(8.88246e-17 -2.49046e-17 -43.7533)
(3.5427e-16 7.89721e-18 -42.0754)
(-1.66766e-16 -7.87937e-17 -40.1713)
(-1.00319e-16 -7.73172e-16 -38.2089)
(5.85939e-17 -1.16155e-16 -36.1757)
(-1.26698e-16 9.18682e-16 -34.1071)
(7.15406e-16 -1.5953e-16 -32.105)
(2.89636e-17 -4.79099e-16 -30.0821)
(3.38651e-16 7.53532e-16 -28.1659)
(-8.75783e-16 8.97072e-16 -26.2684)
(-2.01785e-16 -6.64962e-16 -24.467)
(-4.60595e-17 -2.50787e-16 -22.7334)
(-2.19042e-19 2.56489e-18 -21.0365)
(-1.1085e-15 7.03115e-16 -19.4419)
(-1.07798e-15 7.64973e-16 -17.9054)
(-4.30804e-17 8.86349e-16 -16.4413)
(-8.93133e-16 5.76004e-16 -15.0737)
(1.06754e-16 -9.20341e-16 -13.7909)
(-9.78365e-16 5.44381e-16 -12.5955)
(8.76012e-16 2.58601e-16 -11.5016)
(-1.6475e-15 4.69056e-16 -10.5027)
(-1.99517e-16 -8.28603e-16 -9.59463)
(4.87541e-17 -1.24869e-16 -8.77422)
(-1.07079e-16 4.41759e-17 -8.03202)
(7.89197e-16 1.20384e-15 -7.3607)
(-1.42273e-15 1.86288e-15 -6.75271)
(7.15904e-17 -1.6865e-15 -6.1953)
(-7.99564e-17 -8.29365e-16 -5.68278)
(-1.42735e-17 1.62425e-15 -5.21262)
(-5.86367e-16 3.78635e-16 -4.77563)
(2.26779e-18 6.87644e-18 -4.36947)
(-5.8211e-16 1.07134e-15 -3.99747)
(-2.68053e-16 -1.3203e-15 -3.6527)
(2.01701e-16 -4.36554e-16 -3.33918)
(1.16178e-17 6.80923e-16 -3.05631)
(8.79583e-17 -7.60783e-16 -2.80454)
(2.59958e-16 -1.12593e-16 -2.58623)
(3.31856e-17 3.57421e-17 -2.40077)
(-4.03283e-16 -5.87722e-17 -2.24859)
(6.21069e-17 3.29433e-16 -2.13111)
(7.29124e-17 -5.58655e-18 -2.04958)
(1.94288e-17 -6.30534e-17 -2.00278)
(-1.17214e-17 2.05524e-16 -1.99514)
(-3.0932e-17 5.52556e-17 -2.02323)
(-4.46547e-17 -2.23661e-17 -2.09331)
(-8.18055e-19 -7.42622e-17 -2.20761)
(4.41192e-18 5.92439e-16 -2.37026)
(-2.20406e-16 -3.7609e-17 -2.58793)
(-2.86552e-16 -1.00336e-15 -2.86278)
(5.31265e-16 -1.41872e-16 -3.20324)
(-2.84152e-16 2.00603e-16 -3.61679)
(1.17997e-17 6.5785e-16 -4.10926)
(-2.73451e-16 -1.29637e-16 -4.69284)
(-2.75236e-16 -5.0104e-16 -5.36687)
(-7.98428e-18 -6.75725e-16 -6.15182)
(5.31468e-16 3.51114e-16 -7.04234)
(4.56106e-18 1.32685e-15 -8.0443)
(6.64187e-17 8.73437e-17 -9.16778)
(5.5455e-16 3.99819e-16 -10.4001)
(-5.57386e-16 -4.18423e-16 -11.7433)
(-6.84817e-16 -1.96407e-15 -13.1975)
(6.82485e-16 4.56913e-16 -14.7422)
(2.80433e-17 1.48067e-15 -16.3652)
(-6.21677e-16 -4.5966e-16 -18.0662)
(-1.2337e-16 -1.53931e-15 -19.8198)
(1.22857e-15 8.71036e-16 -21.615)
(-4.26085e-16 4.39164e-16 -23.4367)
(5.98051e-16 -1.13757e-16 -25.2657)
(6.56281e-16 9.44169e-16 -27.0969)
(2.22438e-17 9.2838e-16 -28.9369)
(-1.87913e-17 5.6977e-16 -30.7225)
(-5.95632e-16 -2.02764e-16 -32.4852)
(-2.33008e-16 -6.96128e-16 -34.252)
(-1.23466e-15 -8.55417e-16 -35.9224)
(5.00552e-16 -1.41089e-18 -37.5456)
(-8.35798e-17 -4.37938e-17 -39.1867)
(8.62152e-17 4.7439e-17 -40.6242)
(-3.54031e-17 -1.62611e-16 -42.0613)
(9.41971e-17 9.78155e-17 -43.3226)
(-1.37406e-16 1.28592e-16 -44.461)
(1.44848e-16 1.73778e-16 -45.4095)
(-4.90378e-16 -1.98062e-16 -46.1295)
(2.24183e-16 1.58798e-16 -46.5529)
(-7.19355e-17 4.54793e-17 -46.7306)
(-1.54574e-16 -9.69506e-17 -46.4414)
(-1.66461e-17 -2.34151e-16 -45.9523)
(-2.76174e-17 4.45087e-17 -44.9354)
(0 -0 -43.5638)
(-5.99167e-17 4.30144e-17 -41.9311)
(6.52269e-17 -2.87536e-17 -39.9481)
(2.82752e-17 -2.15597e-16 -37.8469)
(-3.13077e-17 -1.03166e-16 -35.5155)
(1.75049e-16 1.03299e-16 -33.0964)
(9.40534e-17 2.66128e-16 -30.6199)
(-1.9141e-16 7.46869e-17 -28.115)
(1.86968e-16 -1.94324e-16 -25.5952)
(-2.78672e-16 -1.13092e-16 -23.031)
(3.8887e-16 -2.13424e-16 -20.4538)
(-8.7166e-17 -3.58884e-16 -17.7045)
(2.72476e-16 -1.95457e-16 -14.7204)
(-2.64727e-16 8.20895e-16 -12.4513)
(2.12125e-16 -1.62655e-16 -11.2949)
(-5.36634e-17 -1.06755e-16 -10.4035)
(3.76822e-17 -8.78446e-18 -9.77512)
(3.56711e-17 -5.4861e-18 -9.52113)
(3.40889e-17 -2.83226e-18 -9.70719)
(-3.27331e-17 -2.4303e-17 -10.4359)
(2.73142e-17 -5.88353e-18 -11.5481)
(1.97041e-18 2.48159e-17 -12.6581)
(3.33953e-18 2.20603e-17 -13.7075)
(-2.72967e-17 6.90427e-18 -14.7316)
(-5.93634e-18 -4.40903e-17 -15.7078)
(3.42612e-19 1.1759e-17 -16.5985)
(4.82771e-18 2.92481e-17 -17.3729)
(-3.33454e-18 -2.1206e-17 -18.0114)
(2.23338e-17 6.76216e-19 -18.5053)
(-4.06731e-17 1.65702e-17 -18.8562)
(2.07817e-17 -6.53092e-18 -19.075)
(-3.35344e-18 -2.6703e-17 -19.1776)
(1.14198e-18 1.66325e-17 -19.1844)
(9.93455e-18 6.314e-18 -19.1149)
(-1.60657e-17 4.07578e-18 -18.9892)
(-1.2289e-18 -1.26125e-17 -18.8284)
(1.52391e-19 -4.52468e-18 -18.6503)
(6.42162e-18 6.3171e-18 -18.4692)
(6.00959e-18 1.79259e-20 -18.297)
(-6.70309e-18 -1.99945e-20 -18.1419)
(5.7364e-18 -2.44562e-19 -18.0087)
(-9.70339e-18 -4.62295e-19 -17.8994)
(6.16022e-18 2.79472e-19 -17.812)
(-2.08115e-18 -6.20781e-21 -17.7426)
(-4.70363e-19 -1.26638e-18 -17.6865)
(1.40493e-18 -1.05494e-18 -17.6381)
(-4.48428e-19 3.57576e-18 -17.5911)
(-1.24581e-18 -1.3653e-18 -17.5393)
(1.6964e-19 -6.91052e-19 -17.4774)
(-1.11001e-19 -8.68511e-19 -17.4007)
(-1.88793e-19 9.30672e-19 -17.3026)
(-9.65712e-20 3.8995e-19 -17.1632)
(-2.7111e-20 -8.91348e-20 -16.9922)
(0 -0 2.6079)
(-1.87554e-20 -0 -6.31674)
(-2.2643e-19 -1.84311e-17 -11.5216)
(-1.18818e-18 3.40065e-17 -13.4349)
(2.09477e-17 6.22563e-18 -13.6326)
(-1.96739e-17 -4.08446e-17 -13.1664)
(4.55419e-19 -1.93319e-17 -12.5837)
(-7.82598e-19 3.29425e-17 -12.0539)
(-3.90167e-17 5.56994e-18 -11.5993)
(3.78122e-17 -5.32201e-18 -11.2113)
(7.58844e-17 1.20943e-16 -10.8765)
(-1.55433e-16 -1.05782e-16 -10.5839)
(8.05638e-18 -1.64127e-16 -10.3254)
(7.5792e-17 6.78091e-17 -10.095)
(-9.97304e-18 2.30381e-16 -9.88795)
(-7.45926e-17 -5.77698e-17 -9.70002)
(8.46072e-17 -1.62955e-16 -9.52754)
(-2.93774e-18 7.66859e-17 -9.36714)
(0 -0 -9.21576)
(0 -0 -9.07067)
(0 -0 -8.9292)
(0 -0 -8.78875)
(0 -0 -8.64683)
(-3.07322e-16 -0 -8.501)
(4.61025e-16 -0 -8.34881)
(-1.53368e-16 -0 -8.18771)
(0 -0 -8.01523)
(0 -0 -7.82871)
(0 -0 -7.62511)
(-1.30541e-17 1.47492e-16 -7.40103)
(-1.60248e-18 1.37552e-17 -7.15237)
(4.27253e-17 -4.43591e-16 -6.87368)
(-1.14414e-17 1.03628e-16 -6.55707)
(-1.65962e-16 4.56418e-16 -6.18801)
(-9.15943e-17 -5.71634e-16 -5.79395)
(3.99346e-16 4.89992e-16 -5.54951)
(1.13765e-15 9.59739e-16 -5.61653)
(8.52492e-17 -2.23175e-15 -6.02927)
(-5.25391e-16 -9.84379e-16 -6.77909)
(1.18791e-15 2.42401e-15 -7.88025)
(-3.46231e-16 1.4085e-16 -9.35649)
(-9.66355e-16 -1.75314e-15 -10.9586)
(6.51905e-17 -1.34809e-16 -12.6042)
(3.5905e-17 -3.00492e-16 -14.2924)
(-1.45262e-15 2.59436e-16 -15.9539)
(1.21497e-15 2.44356e-15 -17.6059)
(2.70288e-15 3.93488e-16 -19.2291)
(1.20973e-15 1.30074e-15 -20.7583)
(1.38387e-15 8.61029e-16 -22.2378)
(7.33515e-16 -2.52581e-16 -23.5908)
(-2.03033e-15 -9.8111e-16 -24.8168)
(-4.33625e-17 5.34229e-16 -25.9217)
(5.79997e-16 9.81937e-16 -26.8368)
(-7.12594e-16 -6.26275e-16 -27.6154)
(7.43996e-16 -3.4347e-16 -28.1846)
(7.18408e-16 -5.97711e-17 -28.584)
(4.54191e-16 -6.58377e-17 -28.7848)
(1.61522e-16 1.39804e-16 -28.7818)
(-9.37479e-17 4.22401e-17 -28.58)
(-9.76824e-17 1.31508e-16 -28.1924)
(-5.53177e-17 -2.64487e-16 -27.5773)
(-3.6075e-16 6.54856e-17 -26.7839)
(2.84599e-16 4.8252e-16 -25.8322)
(-2.17863e-16 7.35203e-16 -24.7073)
(2.47544e-16 3.85606e-17 -23.4982)
(1.23334e-17 -1.29649e-15 -22.1663)
(2.67457e-16 -2.34497e-16 -20.8176)
(-3.6188e-16 7.97986e-16 -19.3776)
(-4.03523e-16 -5.49846e-17 -17.9638)
(1.09957e-15 -4.67069e-16 -16.5359)
(-1.01828e-17 1.51368e-16 -15.1225)
(-1.57982e-15 6.606e-16 -13.7693)
(8.7796e-16 5.11473e-16 -12.4303)
(9.35166e-18 1.24074e-15 -11.1574)
(1.20396e-15 -1.63447e-15 -9.94939)
(1.81478e-16 -1.08063e-15 -8.79914)
(-2.09517e-16 1.29348e-16 -7.72787)
(-4.81488e-17 9.7069e-16 -6.74077)
(-8.5327e-16 -1.94788e-16 -5.83132)
(-1.8341e-15 1.15176e-15 -5.00546)
(2.43194e-15 3.56024e-16 -4.26334)
(2.46967e-16 -1.11995e-15 -3.59983)
(-8.46522e-16 5.81636e-16 -3.00985)
(1.42262e-16 -8.70022e-16 -2.48675)
(-2.10422e-17 -1.00278e-16 -2.02342)
(1.44585e-15 -9.10611e-16 -1.61606)
(6.49725e-16 -5.2704e-16 -1.25752)
(8.13123e-16 4.85653e-16 -0.937865)
(6.54917e-16 -1.32181e-15 -0.658526)
(1.3058e-15 -8.26783e-16 -0.416435)
(4.174e-19 2.64915e-17 -0.203088)
(5.89266e-16 -7.39245e-16 -0.0217691)
(2.4092e-16 2.89641e-16 0.129696)
(-5.50645e-16 3.04804e-16 0.255127)
(2.5239e-16 -6.6157e-16 0.352586)
(1.17301e-17 3.67071e-16 0.426523)
(-5.46697e-16 2.91048e-16 0.477069)
(2.69188e-16 6.99291e-16 0.507533)
(2.72445e-17 1.48333e-16 0.520209)
(-1.43225e-16 -8.98288e-16 0.51785)
(-7.3057e-17 4.53938e-17 0.501393)
(-8.32465e-17 1.76911e-16 0.472584)
(-3.69289e-17 -1.40674e-16 0.431353)
(3.14792e-17 -1.92272e-17 0.377083)
(6.05421e-17 -1.58036e-17 0.308874)
(1.31084e-16 3.64464e-17 0.222233)
(-2.41916e-18 -3.24848e-16 0.114125)
(7.48922e-16 5.01444e-16 -0.0214935)
(1.45209e-17 -2.45337e-18 -0.189807)
(-5.09391e-16 1.60001e-16 -0.396586)
(9.95855e-18 3.65555e-16 -0.649959)
(-1.99342e-17 -6.85263e-16 -0.953739)
(2.67158e-16 4.78044e-16 -1.31459)
(2.64366e-16 1.32328e-16 -1.73507)
(-2.76379e-16 -5.05786e-16 -2.22658)
(-5.30859e-16 -3.07282e-16 -2.78117)
(2.03518e-17 -7.37096e-16 -3.41073)
(-5.35644e-17 -7.84656e-16 -4.11993)
(-4.48054e-16 3.73602e-16 -4.9007)
(1.13369e-15 2.29059e-15 -5.75213)
(-6.29724e-16 -4.49269e-16 -6.67549)
(-6.19116e-16 -1.20812e-15 -7.66254)
(5.05814e-16 4.61389e-16 -8.71196)
(7.3491e-16 5.12792e-16 -9.81908)
(5.7813e-16 -2.2985e-16 -10.965)
(-1.79414e-15 -1.01162e-15 -12.1498)
(4.85898e-16 5.36645e-16 -13.3604)
(-3.53928e-16 -1.19691e-15 -14.5853)
(-1.3827e-16 8.45475e-17 -15.8215)
(1.39592e-15 7.72663e-16 -17.0589)
(5.3627e-16 3.07183e-16 -18.263)
(1.36771e-15 7.42685e-16 -19.467)
(7.5513e-16 1.68486e-15 -20.6493)
(1.1033e-15 3.88112e-16 -21.7541)
(-3.11709e-17 -7.45897e-16 -22.8458)
(1.3451e-16 6.45673e-16 -23.8936)
(2.57238e-16 8.08704e-17 -24.8004)
(9.34065e-17 1.40107e-17 -25.7131)
(-5.94396e-17 -8.49593e-17 -26.4661)
(9.92108e-17 -1.35604e-16 -27.1471)
(2.28137e-17 2.58814e-17 -27.6948)
(7.80852e-17 3.40118e-16 -28.1049)
(1.43641e-16 -4.40027e-16 -28.3611)
(3.91755e-17 2.29529e-16 -28.4692)
(-5.22243e-17 -2.44385e-17 -28.361)
(-5.80208e-17 8.95254e-17 -28.1277)
(1.22424e-16 -1.50427e-17 -27.6341)
(-7.8326e-17 2.10205e-17 -26.9832)
(5.12347e-17 -3.73501e-17 -26.1111)
(-1.34969e-16 -1.24558e-16 -25.0497)
(-7.97369e-17 2.6403e-16 -23.8266)
(3.92473e-17 2.09816e-16 -22.4341)
(3.89383e-17 -1.81938e-16 -20.9003)
(-1.17307e-16 -3.64604e-17 -19.2707)
(4.27195e-16 -2.79917e-16 -17.5519)
(-2.12177e-16 1.09673e-16 -15.7774)
(2.39756e-17 6.93282e-17 -13.9744)
(-4.40769e-16 -5.07513e-17 -12.1729)
(1.40366e-16 3.95129e-16 -10.3584)
(-7.43521e-16 7.13896e-16 -8.5909)
(2.57618e-16 -6.40015e-16 -6.91195)
(-2.69385e-17 -2.55902e-16 -5.80197)
(-5.01901e-19 2.87185e-16 -5.12249)
(-8.38811e-17 -5.59956e-17 -4.73553)
(-1.12429e-18 -7.64519e-18 -4.60749)
(-6.24326e-17 4.77066e-17 -4.74291)
(6.58677e-17 3.84694e-17 -5.12253)
(-3.11357e-17 -2.43434e-17 -5.66363)
(-3.96942e-19 -3.29834e-18 -6.25657)
(-1.92518e-18 -1.02065e-18 -6.83768)
(-2.29648e-19 2.96479e-18 -7.38833)
(3.80497e-18 2.32885e-17 -7.90045)
(-2.60702e-17 -7.34757e-18 -8.36368)
(2.02778e-17 -3.8796e-17 -8.76773)
(1.19465e-18 5.73579e-18 -9.10479)
(2.64644e-17 1.53866e-17 -9.37065)
(-2.31723e-17 2.06611e-17 -9.56522)
(-1.74221e-18 -5.71103e-17 -9.69201)
(3.86874e-18 5.68848e-17 -9.7578)
(-1.81712e-18 -2.68933e-17 -9.77196)
(-5.16453e-19 -3.31612e-18 -9.74518)
(7.67799e-18 1.94961e-17 -9.68866)
(-6.81101e-18 -3.4212e-19 -9.61308)
(-7.07852e-18 3.22619e-18 -9.52765)
(6.93988e-18 -1.96762e-17 -9.44023)
(2.07637e-18 2.1099e-18 -9.35679)
(6.57385e-19 1.08461e-17 -9.28116)
(-5.00686e-19 -7.50507e-18 -9.21532)
(-3.46429e-19 1.83657e-17 -9.15944)
(3.02878e-19 -1.95121e-17 -9.11186)
(1.97622e-18 1.05279e-17 -9.06971)
(-1.42035e-18 -6.05436e-19 -9.02974)
(-2.79686e-18 -1.23555e-18 -8.98854)
(3.09706e-18 -2.07286e-18 -8.94259)
(1.1952e-20 5.24727e-18 -8.88876)
(1.45125e-19 -1.28053e-18 -8.82447)
(9.34661e-20 2.28324e-18 -8.74786)
(2.86345e-19 -3.7216e-19 -8.65789)
(1.09481e-22 2.48764e-20 -8.55476)
(1.19938e-20 1.26095e-18 -8.4749)
(-2.65474e-20 8.99839e-18 5.00767)
(-2.69514e-19 -6.85422e-18 1.71321)
(5.33057e-19 -2.88997e-17 -1.74852)
(-6.17162e-19 2.27856e-17 -4.27458)
(2.04908e-17 2.19796e-17 -5.75686)
(-2.00756e-17 -1.80098e-17 -6.47735)
(0 -0 -6.74561)
(-4.18562e-17 3.66849e-17 -6.80913)
(4.29693e-17 -6.66179e-17 -6.79276)
(-3.85721e-17 -8.73907e-17 -6.74395)
(3.6942e-17 1.41214e-16 -6.68102)
(2.17551e-18 1.23916e-16 -6.6114)
(-1.14798e-18 -1.35147e-16 -6.53863)
(-1.54811e-16 -8.67021e-17 -6.46481)
(1.46016e-16 1.4756e-16 -6.39113)
(9.45411e-17 -1.34801e-16 -6.31816)
(-1.57323e-16 -2.44028e-17 -6.24608)
(6.82237e-17 1.59283e-16 -6.17479)
(3.90826e-18 -7.35958e-17 -6.10403)
(0 -0 -6.03338)
(1.4982e-16 -0 -5.96234)
(-1.50155e-16 -0 -5.89028)
(-9.79712e-18 1.44382e-16 -5.81641)
(-1.38831e-16 -1.22694e-16 -5.7399)
(1.59626e-16 -1.66396e-16 -5.65979)
(-1.06731e-17 1.44708e-16 -5.57506)
(0 -0 -5.48462)
(1.47317e-16 -0 -5.38736)
(-6.63887e-19 -0 -5.28223)
(-1.60054e-16 1.42574e-16 -5.16828)
(2.30563e-17 -1.24452e-16 -5.04466)
(3.06783e-16 -1.61206e-16 -4.90993)
(-4.75067e-16 1.3417e-16 -4.76216)
(2.75456e-16 -2.9599e-18 -4.59286)
(-1.96961e-17 2.98463e-16 -4.42137)
(-5.64746e-16 -6.49012e-16 -4.30661)
(8.30983e-16 -1.37444e-16 -4.30992)
(4.12286e-16 2.00851e-15 -4.48405)
(-9.19875e-16 -3.06311e-16 -4.8436)
(-2.25204e-16 -1.26249e-15 -5.39253)
(-1.45684e-16 -2.27604e-16 -6.11286)
(-1.61655e-15 8.44102e-17 -6.87676)
(2.36087e-16 5.64168e-16 -7.67635)
(1.20655e-15 8.43281e-16 -8.52354)
(-1.72616e-15 -2.00955e-15 -9.38924)
(2.00805e-15 -1.91686e-15 -10.2786)
(-6.63572e-16 5.43983e-16 -11.1744)
(-5.87959e-17 6.83293e-16 -12.06)
(8.07328e-17 -2.06705e-16 -12.9386)
(-4.79672e-17 1.64925e-15 -13.7714)
(4.91874e-16 7.12745e-16 -14.5703)
(2.03421e-16 -1.46749e-15 -15.3126)
(6.68854e-18 -7.64957e-16 -15.9845)
(2.39241e-16 -2.85484e-16 -16.5894)
(-6.38877e-16 -1.21045e-16 -17.11)
(-3.38243e-16 6.90194e-17 -17.5494)
(-4.4363e-16 -8.30223e-17 -17.895)
(-2.8885e-17 2.33398e-16 -18.1491)
(-1.22622e-16 2.25761e-16 -18.2779)
(1.74577e-16 -1.55417e-17 -18.3132)
(6.59252e-17 1.34781e-16 -18.1987)
(-3.25273e-16 -8.01459e-17 -17.9413)
(5.12715e-16 -4.12803e-16 -17.5443)
(4.32963e-16 -7.86353e-16 -16.9855)
(-1.4293e-16 -3.85581e-16 -16.3217)
(-5.41011e-16 9.6217e-16 -15.5134)
(-1.01002e-15 4.5263e-16 -14.6229)
(1.64592e-16 9.33435e-17 -13.6331)
(2.58332e-17 -2.47706e-16 -12.6227)
(-7.51965e-16 4.44218e-16 -11.567)
(2.56297e-17 1.47805e-15 -10.4954)
(1.45241e-15 -1.38458e-15 -9.454)
(-1.17263e-15 -9.2607e-16 -8.42457)
(2.21724e-15 -1.40538e-15 -7.44233)
(9.85909e-16 -8.97599e-16 -6.51652)
(-2.01962e-16 2.14496e-15 -5.64649)
(9.8057e-16 -3.41384e-16 -4.84589)
(6.5903e-17 -9.54179e-17 -4.11979)
(1.77035e-15 8.86447e-16 -3.46383)
(2.3875e-16 -2.69776e-15 -2.87926)
(8.79343e-16 -3.75499e-15 -2.3642)
(-4.86775e-17 2.71449e-15 -1.91328)
(7.68629e-16 -3.88804e-16 -1.52121)
(8.07548e-16 -1.63588e-15 -1.18244)
(-7.63114e-16 5.58903e-16 -0.891368)
(1.46064e-15 -1.05296e-15 -0.644804)
(-2.19288e-15 4.90045e-16 -0.437782)
(-1.46759e-15 -6.97681e-17 -0.266335)
(-7.00518e-16 1.25696e-15 -0.129972)
(-2.68005e-18 7.58716e-16 -0.0237311)
(1.37239e-17 8.71031e-16 0.0532806)
(2.83191e-17 3.90991e-16 0.102572)
(-3.27084e-16 1.88675e-16 0.128318)
(3.34407e-16 -5.07798e-16 0.131228)
(-4.34342e-19 -4.05663e-17 0.11562)
(-1.01492e-16 3.57773e-16 0.0829676)
(2.9886e-17 -3.08557e-16 0.0377896)
(-1.70834e-17 -6.72556e-16 -0.0176516)
(9.03417e-16 6.47591e-17 -0.078178)
(7.84643e-17 4.50677e-16 -0.142774)
(-6.76124e-17 -2.52691e-17 -0.209188)
(9.75357e-17 -1.1614e-16 -0.274639)
(1.31837e-18 6.2815e-17 -0.339722)
(-7.97905e-19 -6.10447e-17 -0.40305)
(-1.73867e-18 -1.40043e-16 -0.46672)
(-1.29317e-16 -1.88252e-17 -0.534031)
(-1.37398e-16 -1.85488e-16 -0.605618)
(-5.139e-16 -1.26422e-16 -0.6881)
(7.85067e-16 8.68027e-16 -0.782843)
(-5.29417e-16 -4.9723e-16 -0.895842)
(5.34104e-16 -1.22055e-16 -1.03057)
(-6.31915e-18 3.36474e-16 -1.19092)
(1.41418e-17 -3.4427e-16 -1.38)
(2.77564e-17 3.31002e-16 -1.59938)
(9.24056e-18 3.88576e-16 -1.85523)
(-4.5985e-18 -3.74341e-16 -2.14592)
(2.47055e-16 8.52419e-16 -2.4778)
(1.90849e-16 9.03834e-16 -2.85218)
(-1.18574e-15 -2.01446e-15 -3.27004)
(-4.79608e-16 -4.36109e-16 -3.73405)
(1.20535e-15 1.68842e-15 -4.24234)
(3.45764e-16 -1.10809e-15 -4.79274)
(-3.60024e-16 -5.933e-16 -5.38824)
(-6.69341e-16 -5.8182e-16 -6.02754)
(-2.15911e-16 1.10954e-15 -6.7013)
(-8.55152e-16 8.50962e-17 -7.4102)
(5.69859e-16 -8.71e-16 -8.14722)
(-8.25711e-16 -3.33134e-17 -8.90537)
(-6.50104e-16 -2.09087e-15 -9.68115)
(-9.4481e-16 -1.12915e-15 -10.4663)
(-3.05193e-16 1.67154e-16 -11.2418)
(-6.57547e-16 -5.2156e-16 -12.0217)
(-4.86242e-16 -1.28792e-15 -12.7897)
(9.3925e-16 6.58464e-16 -13.5146)
(-8.55852e-16 1.49309e-16 -14.2297)
(-5.89749e-18 -3.21763e-16 -14.9078)
(-7.71185e-18 -2.11158e-16 -15.507)
(-2.10862e-16 3.59391e-17 -16.0946)
(-3.09667e-17 5.54554e-17 -16.5897)
(-2.36769e-16 1.98346e-18 -17.0343)
(1.674e-16 3.45632e-16 -17.4037)
(9.4396e-16 5.33768e-17 -17.6969)
(-9.70648e-17 7.30204e-17 -17.9134)
(1.85366e-17 2.5411e-16 -18.0512)
(-1.88244e-16 1.74781e-16 -18.0915)
(2.68361e-17 -2.70642e-16 -18.0572)
(8.04307e-17 -6.48264e-17 -17.903)
(-1.03369e-16 1.2387e-16 -17.6573)
(1.34382e-16 5.33986e-18 -17.2725)
(-2.16654e-16 2.59648e-16 -16.7572)
(7.91958e-17 -2.27841e-16 -16.1034)
(1.72971e-16 -4.50825e-16 -15.3073)
(-2.18789e-16 3.54023e-17 -14.3749)
(6.6112e-17 7.34503e-17 -13.3294)
(-2.38913e-16 -6.92812e-17 -12.1449)
(-1.78569e-16 4.43264e-16 -10.8919)
(4.2503e-16 -1.60294e-16 -9.65114)
(-2.02164e-16 1.33545e-16 -8.37108)
(-9.18703e-18 -2.51077e-17 -7.13712)
(5.53129e-16 -2.85032e-16 -6.00282)
(1.77885e-16 -1.885e-16 -4.98156)
(-3.25965e-16 3.33081e-16 -4.30423)
(3.67123e-17 -3.05558e-17 -3.99448)
(3.50247e-17 -6.81517e-18 -3.92766)
(-3.73622e-17 1.2866e-18 -4.03105)
(-3.70575e-17 -2.35038e-17 -4.26661)
(-1.14501e-17 -8.47466e-17 -4.59507)
(3.46164e-17 5.03267e-17 -4.95038)
(2.87744e-17 2.01319e-18 -5.26876)
(3.19116e-18 2.27472e-17 -5.52627)
(-2.52452e-17 1.50145e-17 -5.73095)
(2.4642e-18 -2.49662e-17 -5.89813)
(4.98039e-17 3.07394e-18 -6.03961)
(-5.06824e-17 -3.30027e-19 -6.16187)
(-2.39103e-18 -2.35292e-17 -6.26757)
(-2.41507e-17 -7.56418e-18 -6.3571)
(4.5695e-17 6.40908e-17 -6.42989)
(-2.51566e-17 -1.20613e-17 -6.48528)
(1.2733e-18 -4.35527e-17 -6.5233)
(1.28128e-18 1.87083e-17 -6.54504)
(-1.15876e-17 1.33065e-18 -6.55267)
(9.22112e-18 4.67732e-18 -6.54902)
(2.59492e-18 1.06426e-17 -6.537)
(1.27893e-17 -1.21997e-17 -6.51926)
(-1.24391e-17 -1.46342e-17 -6.49814)
(-7.13716e-18 2.68639e-18 -6.4754)
(8.14517e-18 6.36409e-19 -6.45211)
(-5.74037e-18 1.91094e-18 -6.42869)
(5.68038e-18 -1.03548e-18 -6.40517)
(-1.93914e-18 -2.94742e-18 -6.381)
(3.0628e-18 -4.1084e-18 -6.3554)
(2.03965e-18 7.46818e-18 -6.32755)
(-1.6005e-18 2.99652e-18 -6.29643)
(2.25192e-19 -8.35505e-18 -6.261)
(1.15942e-19 1.30882e-18 -6.22032)
(-4.84411e-19 -1.93305e-18 -6.17348)
(1.38436e-19 -2.70489e-18 -6.12002)
(2.02822e-19 -9.63751e-19 -6.06051)
(2.19552e-19 1.47856e-18 -5.99734)
(4.0447e-20 -1.35297e-18 -5.9755)
(0 -0 3.46967)
(9.585e-18 -0 2.53597)
(-9.37627e-18 -1.77829e-17 1.16723)
(3.49945e-19 1.34889e-17 -0.426946)
(-4.81278e-19 2.21152e-17 -1.67783)
(2.62883e-19 -1.78211e-17 -2.68271)
(3.73585e-17 -0 -3.36834)
(-3.74649e-17 -0 -3.85704)
(1.84271e-18 -0 -4.20936)
(-3.9818e-18 -0 -4.47103)
(-7.86989e-17 7.1597e-17 -4.67064)
(8.08402e-17 -5.65743e-17 -4.82433)
(7.89387e-17 -1.54051e-17 -4.94232)
(-2.20617e-18 -5.64757e-17 -5.03206)
(3.34833e-19 -2.94027e-17 -5.09934)
(-7.95683e-17 2.29254e-16 -5.14859)
(-7.62314e-17 -1.28886e-16 -5.1833)
(8.2327e-17 -8.55802e-17 -5.20621)
(-3.7955e-18 7.14725e-17 -5.21953)
(8.13038e-17 -1.41303e-16 -5.22502)
(-8.12354e-17 1.14345e-16 -5.22404)
(-9.3995e-18 1.68578e-16 -5.21763)
(-3.24159e-19 -1.38017e-18 -5.2065)
(1.87487e-17 -1.14327e-16 -5.19107)
(1.44861e-16 -1.66459e-16 -5.17149)
(-1.54445e-16 1.40546e-16 -5.14769)
(-1.31937e-16 -1.38942e-16 -5.1194)
(1.72636e-18 -2.3835e-17 -5.08621)
(2.61917e-16 2.78541e-16 -5.0477)
(-1.55987e-16 1.61525e-16 -5.00348)
(4.62508e-17 -3.9311e-16 -4.95323)
(-1.48629e-16 -4.43379e-17 -4.89625)
(1.26066e-16 1.69542e-16 -4.83182)
(1.33207e-16 -1.97027e-17 -4.74861)
(-1.71357e-16 2.84512e-16 -4.6653)
(3.31582e-16 -2.21691e-16 -4.60625)
(-1.13026e-15 -8.65845e-16 -4.57422)
(-1.07584e-15 -1.00812e-15 -4.59676)
(1.24857e-15 7.5118e-16 -4.6909)
(4.8484e-16 1.18753e-15 -4.86333)
(-1.54783e-16 1.52595e-15 -5.10469)
(1.16969e-15 -4.85757e-16 -5.36648)
(5.10219e-16 -2.91953e-15 -5.65813)
(-1.17818e-15 5.44597e-16 -5.98987)
(5.68899e-16 1.63796e-15 -6.35716)
(-1.23928e-15 -4.59567e-16 -6.76282)
(-9.11653e-16 -4.09121e-18 -7.19449)
(-5.41168e-16 -3.04233e-16 -7.66254)
(-8.49859e-16 -1.967e-16 -8.1602)
(-5.34426e-16 -1.42275e-15 -8.62894)
(1.45827e-15 3.49607e-16 -9.11822)
(-7.28563e-16 8.42186e-16 -9.61845)
(-1.60462e-17 8.67615e-16 -10.0982)
(-9.20873e-16 -1.68997e-16 -10.5577)
(-8.48681e-17 7.01703e-17 -10.9993)
(-9.82612e-18 -2.6791e-16 -11.414)
(-5.76394e-16 -3.53184e-16 -11.7966)
(-1.59196e-16 -1.63722e-16 -12.1475)
(1.00778e-17 -5.91171e-17 -12.4367)
(8.99399e-17 -5.47922e-17 -12.6828)
(-1.69485e-16 5.41103e-17 -12.8432)
(3.56245e-16 -2.0629e-16 -12.9108)
(-5.02812e-16 -5.37143e-17 -12.8759)
(1.89682e-16 9.37699e-16 -12.7156)
(-8.24856e-16 1.11225e-15 -12.4507)
(8.68051e-16 -6.5494e-16 -12.0548)
(-2.37153e-16 -2.9471e-16 -11.5651)
(1.67888e-16 -1.79002e-16 -10.9772)
(-6.10403e-16 7.20969e-16 -10.3244)
(4.65736e-16 4.39895e-18 -9.61745)
(2.91887e-16 -1.65491e-15 -8.87589)
(6.56875e-16 2.89974e-16 -8.13589)
(-6.48899e-16 7.54991e-16 -7.39803)
(-8.30325e-17 -1.29846e-15 -6.68985)
(-1.10521e-15 1.67391e-15 -6.02304)
(4.86429e-17 -8.64962e-16 -5.40243)
(8.56687e-16 -8.59782e-16 -4.83833)
(4.43081e-17 -1.23938e-16 -4.33359)
(1.77148e-15 -2.15784e-15 -3.88463)
(1.6342e-15 -3.71885e-16 -3.49011)
(-3.38157e-15 4.07215e-15 -3.14575)
(-8.06316e-16 -2.41019e-16 -2.84512)
(8.50346e-16 -1.58981e-15 -2.58301)
(-8.56976e-16 1.45738e-15 -2.35413)
(3.73416e-18 -9.08758e-16 -2.15432)
(-1.51101e-15 2.68131e-15 -1.9819)
(1.46883e-15 2.83479e-15 -1.83406)
(-3.38979e-16 -4.11837e-16 -1.71011)
(-6.46202e-16 -2.20447e-15 -1.61175)
(-2.03062e-15 2.50966e-16 -1.53595)
(-3.21888e-16 1.74982e-16 -1.48247)
(1.98023e-17 1.37226e-17 -1.4521)
(3.32635e-16 -1.38392e-16 -1.43986)
(-4.71541e-17 -3.87583e-16 -1.44476)
(-5.49065e-16 2.49681e-16 -1.46517)
(-2.83704e-17 3.42657e-16 -1.49669)
(2.8601e-16 -1.46673e-16 -1.53919)
(-8.74835e-16 -5.54726e-17 -1.58669)
(-4.80404e-16 1.45433e-16 -1.63999)
(-2.80502e-17 2.65438e-16 -1.69545)
(1.34907e-16 -2.35762e-17 -1.75466)
(-1.29846e-16 9.56345e-17 -1.81253)
(8.14158e-17 -2.33467e-17 -1.87109)
(-9.1144e-19 -1.93126e-17 -1.92843)
(1.31232e-18 1.37655e-16 -1.9861)
(-2.69127e-16 1.5867e-16 -2.04521)
(1.83878e-18 1.5525e-16 -2.1047)
(-2.59669e-16 -8.56646e-16 -2.16723)
(-2.48732e-16 -9.57755e-17 -2.23255)
(4.99819e-16 8.35947e-16 -2.30343)
(-2.0108e-17 -3.15169e-16 -2.37893)
(8.11526e-18 -1.64197e-17 -2.4617)
(2.57824e-18 3.18547e-16 -2.55336)
(-2.71203e-16 -1.1159e-16 -2.65325)
(4.97608e-16 -7.28658e-17 -2.76731)
(1.20628e-17 -2.61298e-16 -2.89287)
(-7.80809e-16 -1.50687e-15 -3.03575)
(4.1053e-16 9.97528e-16 -3.19825)
(1.05786e-15 2.51807e-15 -3.38021)
(-6.69541e-16 -1.63036e-15 -3.58699)
(1.13451e-15 -7.73774e-16 -3.82022)
(-8.78933e-16 5.31118e-16 -4.07911)
(-5.45378e-16 1.20779e-15 -4.3679)
(-2.7758e-16 1.46665e-16 -4.688)
(-7.28456e-16 -1.03773e-15 -5.03553)
(1.80466e-15 6.81889e-16 -5.4123)
(-1.41679e-16 2.20033e-17 -5.81529)
(5.18324e-16 9.47094e-16 -6.24081)
(-5.31505e-16 6.94403e-16 -6.68653)
(-8.99301e-16 -3.38945e-16 -7.14742)
(-4.80092e-16 -5.19076e-16 -7.61237)
(-6.21001e-17 6.77341e-17 -8.08676)
(-7.91223e-16 1.62827e-17 -8.56118)
(-6.67054e-16 -8.85294e-16 -9.01681)
(-6.13345e-17 3.23922e-16 -9.47005)
(-1.3498e-16 -1.92226e-16 -9.90404)
(-5.57019e-16 -7.41422e-17 -10.3003)
(-2.09697e-16 2.024e-16 -10.6862)
(1.7277e-16 -2.84256e-17 -11.0267)
(2.20119e-17 -9.41221e-18 -11.3387)
(3.75522e-16 -1.22705e-15 -11.6149)
(-2.28984e-16 -3.91021e-16 -11.8557)
(-6.87077e-17 7.1529e-17 -12.0647)
(2.50835e-16 2.87427e-16 -12.2405)
(3.40172e-16 1.38045e-16 -12.38)
(1.21128e-16 -5.11616e-17 -12.4861)
(-1.19466e-16 3.01698e-17 -12.5418)
(7.63994e-17 1.01146e-16 -12.5507)
(-6.18337e-17 -5.81632e-17 -12.4827)
(2.94057e-16 6.51744e-17 -12.3289)
(3.27383e-17 -2.00372e-16 -12.0785)
(-2.90678e-16 3.27509e-16 -11.712)
(-2.82492e-17 2.01915e-16 -11.2336)
(7.67468e-17 -1.72564e-16 -10.6344)
(-1.92539e-16 3.71688e-16 -9.8961)
(1.16938e-16 -3.30674e-16 -9.11226)
(-3.09393e-16 -9.45187e-17 -8.28987)
(3.34874e-16 6.61499e-17 -7.41055)
(-2.98383e-17 -2.02168e-16 -6.60937)
(-2.77123e-17 -1.30552e-16 -5.90467)
(-1.75075e-16 2.46654e-16 -5.41862)
(1.56016e-16 -5.00212e-17 -5.18334)
(3.13121e-17 -7.00965e-17 -5.22529)
(1.37541e-16 -5.97829e-17 -5.43181)
(-2.61157e-17 6.31673e-17 -5.71992)
(3.78506e-17 1.99162e-17 -6.02578)
(-9.1563e-17 -3.51037e-18 -6.30642)
(-5.70072e-18 -6.66357e-17 -6.51147)
(6.65081e-18 -1.75415e-18 -6.61015)
(2.96454e-17 4.25192e-17 -6.61191)
(-5.50028e-19 2.31322e-17 -6.54834)
(-9.24996e-18 -4.69717e-17 -6.45223)
(-6.07969e-18 -4.79037e-18 -6.34936)
(5.95551e-18 5.03791e-17 -6.2566)
(5.15747e-18 -1.39038e-17 -6.18333)
(-4.89017e-17 5.04278e-19 -6.13319)
(4.07635e-17 -1.8113e-17 -6.10567)
(2.00784e-17 -1.39419e-17 -6.09755)
(-1.44749e-17 4.63722e-17 -6.10428)
(-5.10814e-18 -1.44874e-17 -6.12093)
(1.05414e-17 4.21026e-18 -6.14292)
(-7.74632e-18 -3.45782e-18 -6.16627)
(8.44224e-19 -9.81062e-18 -6.18794)
(6.40895e-18 -7.23405e-18 -6.20547)
(-1.35636e-17 2.15489e-17 -6.21702)
(9.14907e-19 -3.63015e-18 -6.22129)
(-1.99406e-18 -5.2166e-18 -6.21752)
(-1.5305e-18 5.09062e-18 -6.20553)
(3.92082e-18 1.03234e-17 -6.18573)
(-4.81464e-18 -1.89207e-17 -6.15917)
(-4.4471e-18 -1.38808e-18 -6.12768)
(4.49185e-18 -4.72633e-18 -6.0931)
(-1.3791e-18 7.32594e-18 -6.05677)
(-1.49829e-18 -7.33493e-18 -6.02003)
(9.01527e-20 8.39281e-18 -5.98381)
(8.79774e-19 2.39555e-18 -5.94844)
(-7.91435e-19 2.85377e-18 -5.9139)
(-8.74209e-20 -2.19666e-18 -5.88029)
(3.13677e-19 -5.20356e-18 -5.8468)
(-1.20386e-19 2.15734e-19 -5.86577)
(0 -0 2.33291)
(0 -0 2.06216)
(1.59049e-19 -1.79702e-17 1.555)
(5.67322e-19 1.35837e-17 0.865112)
(-8.30326e-19 2.22894e-17 0.0233306)
(8.89539e-19 -5.32361e-17 -0.710193)
(3.73999e-17 2.66236e-17 -1.37485)
(-7.6838e-17 7.93583e-17 -1.96586)
(3.93028e-17 -9.72348e-17 -2.46102)
(9.99523e-19 -1.72754e-17 -2.87781)
(-2.60031e-18 7.9164e-17 -3.23384)
(7.71989e-17 -3.53026e-17 -3.53442)
(-1.46662e-16 -6.99705e-17 -3.78722)
(1.49702e-16 -1.63476e-17 -3.99939)
(-1.61352e-16 2.09852e-16 -4.17732)
(7.83355e-17 -3.72879e-17 -4.3265)
(1.08765e-17 -1.56122e-16 -4.45165)
(-7.34593e-18 6.98764e-17 -4.55677)
(3.86835e-18 -6.90103e-17 -4.64532)
(6.76314e-17 5.33194e-17 -4.72025)
(-8.40058e-17 8.48341e-17 -4.78408)
(1.26055e-17 -6.91432e-17 -4.83886)
(-1.50176e-16 1.36427e-16 -4.88628)
(1.67834e-16 -2.42297e-16 -4.92764)
(-6.83966e-18 -6.05852e-17 -4.96392)
(-3.16841e-17 4.37974e-16 -4.99576)
(9.05752e-18 -1.07683e-16 -5.0235)
(2.36549e-17 -4.05407e-16 -5.04727)
(-1.46016e-16 7.84816e-17 -5.06702)