/*--------------------------------*- C++ -*----------------------------------*\
| =========                 |                                                 |
| \\      /  F ield         | OpenFOAM: The Open Source CFD Toolbox           |
|  \\    /   O peration     | Version:  2506                                  |
|   \\  /    A nd           | Website:  www.openfoam.com                      |
|    \\/     M anipulation  |                                                 |
\*---------------------------------------------------------------------------*/
FoamFile
{
    version     2.0;
    format      ascii;
    arch        "LSB;label=32;scalar=64";
    class       volScalarField;
    location    "3.7";
    object      p;
}
// * * * * * * * * * * * * * * * * * * * * * * * * * * * * * * * * * * * * * //

dimensions      [0 2 -2 0 0 0 0];

internalField   nonuniform List<scalar> 
4000
(
-0.00310558
-0.00316546
-0.00319043
-0.00319372
-0.00318955
-0.00318115
-0.00316971
-0.00315645
-0.00314222
-0.00312741
-0.00311224
-0.00309683
-0.00308125
-0.00306556
-0.0030498
-0.00303397
-0.00301811
-0.00300221
-0.00298629
-0.00297033
-0.00295434
-0.00293831
-0.00292225
-0.00290614
-0.00289
-0.00287382
-0.00285763
-0.00284142
-0.00282522
-0.00280907
-0.00279301
-0.00277709
-0.00276141
-0.0027463
-0.0027316
-0.00271744
-0.00270407
-0.00269138
-0.0026793
-0.00266802
-0.00265775
-0.00264992
-0.00264458
-0.00264065
-0.0026379
-0.00263597
-0.0026346
-0.00263385
-0.00263283
-0.00263166
-0.00262998
-0.0026271
-0.00262328
-0.00261726
-0.00260955
-0.00259896
-0.00258572
-0.00256969
-0.00255008
-0.0025283
-0.00250282
-0.0024752
-0.00244534
-0.00241358
-0.0023807
-0.00234657
-0.00231209
-0.00227711
-0.00224224
-0.00220751
-0.00217326
-0.00213962
-0.00210663
-0.00207449
-0.00204325
-0.00201301
-0.00198388
-0.00195588
-0.00192909
-0.00190354
-0.00187922
-0.00185614
-0.00183427
-0.00181356
-0.00179398
-0.00177545
-0.00175791
-0.00174129
-0.00172553
-0.00171057
-0.00169636
-0.00168284
-0.00166997
-0.00165772
-0.00164602
-0.00163485
-0.00162415
-0.00161388
-0.00160401
-0.00159448
-0.00158523
-0.00157618
-0.00156728
-0.00155846
-0.00154969
-0.00154093
-0.00153211
-0.0015232
-0.00151416
-0.00150495
-0.00149556
-0.001486
-0.00147626
-0.00146637
-0.00145632
-0.00144621
-0.00143602
-0.00142583
-0.00141571
-0.00140569
-0.00139584
-0.00138624
-0.00137692
-0.00136792
-0.00135932
-0.00135113
-0.00134337
-0.00133604
-0.00132913
-0.00132262
-0.00131653
-0.0013107
-0.00130508
-0.00129976
-0.00129439
-0.00128886
-0.00128344
-0.00127727
-0.00127075
-0.00126328
-0.00125473
-0.00124478
-0.00123302
-0.00121898
-0.00120284
-0.00118349
-0.00116206
-0.00113716
-0.00110985
-0.00108026
-0.00104841
-0.00101544
-0.000981011
-0.000946302
-0.000911222
-0.000876565
-0.000842354
-0.000809101
-0.000776993
-0.000746675
-0.000719057
-0.000693495
-0.000669209
-0.00064603
-0.000623893
-0.000602665
-0.000582086
-0.000562468
-0.00054389
-0.000526198
-0.000509229
-0.000492757
-0.00047655
-0.000460407
-0.000444171
-0.000427728
-0.00041101
-0.000393992
-0.00037669
-0.00035914
-0.000341398
-0.000323527
-0.000305594
-0.00028766
-0.000269776
-0.00025198
-0.000234298
-0.000216736
-0.000199283
-0.000181928
-0.000164646
-0.000147425
-0.000130238
-0.000113056
-9.58542e-05
-7.86122e-05
-6.13126e-05
-4.39455e-05
-2.65082e-05
-8.94172e-06
-0.00317854
-0.00319042
-0.00319611
-0.00319359
-0.00318702
-0.00317826
-0.00316731
-0.00315473
-0.00314109
-0.00312674
-0.0031119
-0.00309675
-0.00308137
-0.00306583
-0.00305019
-0.00303446
-0.00301868
-0.00300285
-0.00298699
-0.00297108
-0.00295514
-0.00293915
-0.00292313
-0.00290705
-0.00289093
-0.00287477
-0.00285858
-0.00284236
-0.00282615
-0.00280995
-0.00279382
-0.00277779
-0.00276193
-0.0027466
-0.00273139
-0.00271634
-0.00270226
-0.00268912
-0.00267688
-0.00266587
-0.00265631
-0.00264939
-0.00264469
-0.00264112
-0.00263856
-0.00263668
-0.00263525
-0.00263425
-0.00263288
-0.00263125
-0.00262901
-0.00262558
-0.00262117
-0.00261459
-0.00260644
-0.00259573
-0.00258264
-0.0025671
-0.00254832
-0.0025277
-0.00250374
-0.00247781
-0.00244982
-0.00241993
-0.00238893
-0.00235658
-0.00232378
-0.00229032
-0.00225681
-0.00222326
-0.00218987
-0.00215693
-0.00212444
-0.00209264
-0.0020616
-0.00203139
-0.00200215
-0.00197393
-0.00194679
-0.0019208
-0.00189598
-0.00187232
-0.00184981
-0.00182843
-0.00180816
-0.00178894
-0.00177071
-0.00175339
-0.00173694
-0.00172127
-0.00170634
-0.0016921
-0.00167851
-0.0016655
-0.00165305
-0.00164109
-0.00162961
-0.00161854
-0.00160783
-0.00159744
-0.00158735
-0.00157747
-0.00156777
-0.00155821
-0.00154869
-0.00153919
-0.00152965
-0.00152006
-0.00151037
-0.00150058
-0.00149067
-0.00148065
-0.00147051
-0.00146031
-0.00145002
-0.00143975
-0.00142949
-0.0014193
-0.00140925
-0.00139938
-0.00138975
-0.00138042
-0.00137141
-0.00136277
-0.00135454
-0.00134673
-0.00133934
-0.00133236
-0.00132578
-0.00131954
-0.00131367
-0.00130799
-0.00130247
-0.00129715
-0.0012917
-0.00128604
-0.00128035
-0.00127386
-0.00126692
-0.00125897
-0.00124987
-0.0012393
-0.00122706
-0.00121269
-0.00119637
-0.00117712
-0.00115606
-0.00113187
-0.00110556
-0.00107724
-0.00104676
-0.00101532
-0.000982359
-0.00094918
-0.000915441
-0.000882075
-0.000848943
-0.000816668
-0.000785327
-0.000755478
-0.000726525
-0.000699714
-0.000673933
-0.000649292
-0.000625737
-0.000603365
-0.000581908
-0.000561909
-0.000543139
-0.000525291
-0.000508215
-0.000491679
-0.000475433
-0.000459268
-0.000443027
-0.000426599
-0.000409918
-0.000392948
-0.000375691
-0.000358178
-0.000340462
-0.000322609
-0.000304686
-0.000286758
-0.000268879
-0.000251089
-0.000233413
-0.000215863
-0.000198443
-0.000181136
-0.000163924
-0.000146773
-0.000129658
-0.00011255
-9.54259e-05
-7.82622e-05
-6.10412e-05
-4.37518e-05
-2.63893e-05
-8.90645e-06
-0.00321204
-0.00320168
-0.00319745
-0.00319264
-0.00318505
-0.00317575
-0.00316477
-0.00315265
-0.00313952
-0.00312559
-0.00311114
-0.00309631
-0.00308119
-0.00306586
-0.00305038
-0.00303479
-0.00301912
-0.00300338
-0.0029876
-0.00297176
-0.00295587
-0.00293994
-0.00292395
-0.00290791
-0.00289182
-0.00287568
-0.0028595
-0.00284328
-0.00282704
-0.00281079
-0.00279458
-0.00277844
-0.00276239
-0.00274682
-0.00273122
-0.00271562
-0.00270118
-0.00268791
-0.00267579
-0.00266519
-0.00265631
-0.00265005
-0.00264562
-0.00264202
-0.00263925
-0.00263705
-0.00263515
-0.00263348
-0.00263136
-0.00262886
-0.00262569
-0.00262136
-0.00261592
-0.00260857
-0.0025998
-0.00258877
-0.00257569
-0.00256056
-0.00254265
-0.00252323
-0.00250088
-0.00247677
-0.00245076
-0.00242284
-0.00239381
-0.00236323
-0.00233209
-0.00230004
-0.00226777
-0.00223525
-0.00220272
-0.00217052
-0.00213855
-0.00210713
-0.00207632
-0.00204618
-0.00201687
-0.00198846
-0.001961
-0.00193458
-0.00190925
-0.00188503
-0.00186195
-0.00183999
-0.0018191
-0.00179928
-0.00178045
-0.00176255
-0.00174554
-0.00172933
-0.00171386
-0.00169908
-0.00168493
-0.00167136
-0.00165834
-0.0016458
-0.00163372
-0.00162204
-0.00161074
-0.00159974
-0.00158902
-0.00157852
-0.00156819
-0.001558
-0.00154787
-0.0015378
-0.0015277
-0.0015176
-0.00150743
-0.0014972
-0.0014869
-0.00147653
-0.00146611
-0.00145569
-0.00144524
-0.00143486
-0.00142456
-0.0014144
-0.00140444
-0.0013947
-0.00138524
-0.00137612
-0.00136735
-0.00135896
-0.00135098
-0.00134339
-0.00133621
-0.0013294
-0.00132294
-0.00131677
-0.00131088
-0.00130512
-0.00129944
-0.00129386
-0.00128804
-0.00128196
-0.00127572
-0.00126862
-0.00126095
-0.00125226
-0.00124239
-0.00123115
-0.0012183
-0.00120351
-0.001187
-0.00116796
-0.00114739
-0.00112412
-0.00109902
-0.00107219
-0.0010433
-0.00101359
-0.000982188
-0.000950574
-0.00091812
-0.000885965
-0.000853752
-0.000822261
-0.000791363
-0.00076196
-0.000732087
-0.000704497
-0.000677801
-0.000652066
-0.000627372
-0.000604099
-0.000581975
-0.000561703
-0.000542757
-0.000524744
-0.000507563
-0.000490979
-0.000474718
-0.000458556
-0.000442329
-0.000425918
-0.000409247
-0.00039228
-0.000375019
-0.000357495
-0.000339764
-0.000321892
-0.000303952
-0.000286011
-0.000268124
-0.000250334
-0.000232668
-0.000215139
-0.000197744
-0.000180468
-0.000163293
-0.00014619
-0.000129131
-0.000112087
-9.5031e-05
-7.79388e-05
-6.07913e-05
-4.35765e-05
-2.62877e-05
-8.90604e-06
-0.00322708
-0.00321059
-0.00319962
-0.0031925
-0.00318428
-0.00317404
-0.00316262
-0.00315069
-0.00313776
-0.00312408
-0.00311001
-0.00309554
-0.00308072
-0.00306565
-0.00305041
-0.00303502
-0.0030195
-0.0030039
-0.00298823
-0.00297249
-0.00295669
-0.00294083
-0.00292491
-0.00290894
-0.0028929
-0.0028768
-0.00286065
-0.00284445
-0.00282822
-0.00281196
-0.00279571
-0.0027795
-0.00276336
-0.00274761
-0.00273177
-0.00271594
-0.00270136
-0.00268815
-0.00267624
-0.00266599
-0.00265754
-0.00265147
-0.00264687
-0.00264292
-0.00263961
-0.00263673
-0.00263399
-0.00263132
-0.00262812
-0.00262444
-0.00261998
-0.0026143
-0.00260754
-0.00259916
-0.00258947
-0.00257786
-0.00256454
-0.00254957
-0.00253238
-0.00251396
-0.00249317
-0.0024709
-0.00244695
-0.00242123
-0.00239439
-0.00236593
-0.00233677
-0.0023065
-0.00227579
-0.00224463
-0.00221322
-0.00218195
-0.00215071
-0.00211984
-0.00208942
-0.00205951
-0.00203029
-0.00200184
-0.00197423
-0.00194755
-0.00192188
-0.00189724
-0.00187368
-0.00185119
-0.00182977
-0.0018094
-0.00179002
-0.00177157
-0.00175401
-0.00173728
-0.00172127
-0.00170596
-0.00169128
-0.00167715
-0.00166358
-0.00165046
-0.0016378
-0.00162553
-0.00161362
-0.00160201
-0.00159069
-0.00157957
-0.00156865
-0.00155786
-0.00154715
-0.00153653
-0.00152591
-0.00151532
-0.00150471
-0.00149408
-0.00148343
-0.00147278
-0.00146213
-0.00145154
-0.00144099
-0.00143057
-0.00142029
-0.0014102
-0.00140036
-0.00139077
-0.00138149
-0.00137256
-0.00136398
-0.00135577
-0.00134794
-0.00134046
-0.00133334
-0.00132652
-0.00131998
-0.00131364
-0.00130749
-0.00130138
-0.00129526
-0.00128907
-0.00128258
-0.00127576
-0.00126868
-0.00126066
-0.00125198
-0.0012423
-0.00123147
-0.00121937
-0.00120579
-0.00119063
-0.00117396
-0.00115522
-0.0011352
-0.00111302
-0.00108929
-0.00106412
-0.00103707
-0.00100926
-0.000979704
-0.000949845
-0.000918899
-0.000888087
-0.000856914
-0.000826267
-0.000795781
-0.000766799
-0.000736289
-0.000708191
-0.00068088
-0.000654344
-0.000628824
-0.000604964
-0.000582453
-0.000562023
-0.000542941
-0.000524772
-0.000507474
-0.000490814
-0.000474497
-0.000458288
-0.00044202
-0.00042557
-0.000408859
-0.000391851
-0.000374548
-0.000356982
-0.00033921
-0.000321302
-0.000303332
-0.000285367
-0.000267465
-0.00024967
-0.000232008
-0.00021449
-0.000197114
-0.000179867
-0.000162726
-0.000145665
-0.000128655
-0.000111665
-9.46688e-05
-7.76404e-05
-6.05602e-05
-4.34166e-05
-2.61956e-05
-8.92924e-06
-0.00323647
-0.00321809
-0.0032036
-0.0031939
-0.00318403
-0.00317281
-0.00316104
-0.003149
-0.00313611
-0.0031226
-0.00310886
-0.00309466
-0.00308008
-0.0030653
-0.00305034
-0.00303517
-0.00301985
-0.00300443
-0.00298891
-0.00297331
-0.00295763
-0.00294188
-0.00292606
-0.00291017
-0.00289422
-0.0028782
-0.00286213
-0.00284599
-0.00282981
-0.0028136
-0.00279738
-0.00278118
-0.00276503
-0.0027492
-0.00273329
-0.00271745
-0.00270289
-0.00268978
-0.00267808
-0.00266804
-0.00265975
-0.00265356
-0.00264854
-0.00264402
-0.00263997
-0.00263617
-0.00263236
-0.00262846
-0.00262399
-0.00261888
-0.00261286
-0.00260563
-0.00259739
-0.00258775
-0.00257682
-0.00256449
-0.00255068
-0.00253556
-0.00251878
-0.00250097
-0.00248144
-0.00246074
-0.00243869
-0.00241513
-0.00239052
-0.0023644
-0.00233746
-0.00230932
-0.00228055
-0.00225112
-0.0022212
-0.0021912
-0.00216098
-0.00213092
-0.00210113
-0.00207166
-0.0020427
-0.00201437
-0.00198674
-0.00195992
-0.001934
-0.00190902
-0.00188504
-0.0018621
-0.00184018
-0.0018193
-0.00179941
-0.00178044
-0.00176238
-0.00174514
-0.00172863
-0.00171282
-0.00169763
-0.00168298
-0.00166888
-0.0016552
-0.00164198
-0.00162912
-0.00161662
-0.0016044
-0.00159247
-0.00158074
-0.00156922
-0.00155785
-0.00154658
-0.00153542
-0.00152431
-0.00151326
-0.00150225
-0.00149127
-0.00148033
-0.00146945
-0.00145864
-0.00144794
-0.00143735
-0.00142696
-0.00141674
-0.00140675
-0.00139704
-0.00138761
-0.00137849
-0.00136971
-0.00136126
-0.00135313
-0.00134534
-0.00133784
-0.00133061
-0.0013236
-0.00131677
-0.00131006
-0.00130341
-0.00129671
-0.00128986
-0.00128281
-0.00127548
-0.00126768
-0.0012594
-0.00125028
-0.00124043
-0.00122962
-0.00121773
-0.0012047
-0.00119039
-0.00117477
-0.00115787
-0.00113939
-0.00111987
-0.00109873
-0.00107633
-0.00105279
-0.00102769
-0.00100186
-0.0009744
-0.000946508
-0.000917401
-0.000888185
-0.000858329
-0.000828723
-0.000798792
-0.000770266
-0.000739439
-0.000711061
-0.000683448
-0.000656466
-0.000630463
-0.000606302
-0.000583624
-0.000563123
-0.000543929
-0.000525594
-0.000508129
-0.000491321
-0.000474865
-0.000458523
-0.000442129
-0.000425564
-0.000408748
-0.000391645
-0.000374259
-0.000356622
-0.000338792
-0.000320839
-0.000302837
-0.000284851
-0.000266938
-0.000249138
-0.000231477
-0.000213967
-0.000196604
-0.000179373
-0.000162252
-0.000145216
-0.000128236
-0.000111283
-9.43299e-05
-7.73521e-05
-6.03295e-05
-4.32512e-05
-2.60923e-05
-8.95145e-06
-0.0032428
-0.00322341
-0.00320726
-0.0031957
-0.00318453
-0.00317252
-0.00316018
-0.00314766
-0.00313474
-0.00312145
-0.00310789
-0.00309388
-0.00307951
-0.003065
-0.00305029
-0.00303534
-0.00302022
-0.003005
-0.00298966
-0.00297421
-0.00295867
-0.00294305
-0.00292736
-0.0029116
-0.00289576
-0.00287986
-0.00286389
-0.00284787
-0.00283179
-0.00281568
-0.00279955
-0.00278344
-0.00276737
-0.00275156
-0.00273571
-0.00272
-0.00270554
-0.00269254
-0.00268096
-0.00267101
-0.00266267
-0.00265615
-0.00265058
-0.00264536
-0.00264044
-0.00263559
-0.00263059
-0.00262531
-0.00261943
-0.00261275
-0.00260511
-0.00259638
-0.00258664
-0.00257568
-0.00256356
-0.00255027
-0.00253582
-0.00252033
-0.00250368
-0.00248611
-0.00246739
-0.00244788
-0.00242732
-0.00240559
-0.00238293
-0.00235899
-0.00233422
-0.0023083
-0.00228162
-0.00225417
-0.00222604
-0.0021976
-0.00216874
-0.00213982
-0.00211095
-0.00208219
-0.00205376
-0.00202577
-0.00199832
-0.00197153
-0.00194551
-0.00192033
-0.00189606
-0.00187275
-0.00185041
-0.00182907
-0.00180871
-0.00178926
-0.00177071
-0.001753
-0.00173601
-0.00171972
-0.00170406
-0.00168891
-0.0016743
-0.0016601
-0.00164633
-0.00163289
-0.00161981
-0.00160699
-0.00159446
-0.00158214
-0.00157003
-0.0015581
-0.0015463
-0.00153464
-0.00152308
-0.00151163
-0.00150027
-0.001489
-0.00147785
-0.00146681
-0.0014559
-0.00144518
-0.0014346
-0.00142427
-0.00141415
-0.00140428
-0.0013947
-0.00138539
-0.00137638
-0.00136767
-0.00135925
-0.0013511
-0.0013432
-0.00133552
-0.00132802
-0.00132065
-0.00131334
-0.00130605
-0.00129871
-0.00129123
-0.00128345
-0.00127548
-0.00126709
-0.00125814
-0.00124854
-0.00123825
-0.00122722
-0.00121527
-0.00120233
-0.00118839
-0.00117338
-0.0011573
-0.00114019
-0.0011219
-0.00110279
-0.00108253
-0.0010613
-0.00103921
-0.00101593
-0.000991957
-0.000966581
-0.000940687
-0.000913586
-0.000886133
-0.000857839
-0.000829481
-0.000800338
-0.000772384
-0.00074171
-0.000713296
-0.000685677
-0.000658613
-0.000632475
-0.000608267
-0.000585599
-0.000565089
-0.000545796
-0.000527277
-0.00050959
-0.000492551
-0.000475863
-0.000459291
-0.00044268
-0.000425916
-0.000408923
-0.000391669
-0.000374158
-0.000356424
-0.00033852
-0.000320519
-0.000302488
-0.000284488
-0.000266569
-0.000248769
-0.000231112
-0.000213606
-0.000196246
-0.000179016
-0.000161897
-0.000144864
-0.000127891
-0.000110952
-9.40209e-05
-7.70765e-05
-6.00981e-05
-4.30765e-05
-2.59752e-05
-8.95855e-06
-0.00324703
-0.00322726
-0.00321008
-0.00319733
-0.00318527
-0.00317264
-0.00315983
-0.003147
-0.00313399
-0.00312071
-0.00310715
-0.00309329
-0.00307917
-0.00306487
-0.00305036
-0.00303558
-0.00302064
-0.00300563
-0.00299048
-0.00297519
-0.0029598
-0.00294434
-0.00292879
-0.00291317
-0.00289748
-0.00288172
-0.0028659
-0.00285002
-0.00283409
-0.00281813
-0.00280215
-0.00278619
-0.00277026
-0.00275456
-0.00273886
-0.00272336
-0.00270903
-0.00269612
-0.00268459
-0.00267459
-0.00266606
-0.00265909
-0.00265286
-0.00264685
-0.00264097
-0.002635
-0.00262875
-0.00262207
-0.00261469
-0.00260647
-0.0025973
-0.0025871
-0.00257591
-0.00256364
-0.00255038
-0.00253615
-0.00252102
-0.0025051
-0.00248842
-0.00247084
-0.00245256
-0.00243387
-0.00241439
-0.00239408
-0.00237297
-0.00235084
-0.00232795
-0.00230406
-0.00227941
-0.00225396
-0.00222774
-0.00220105
-0.0021738
-0.00214626
-0.0021186
-0.00209084
-0.00206323
-0.00203586
-0.00200884
-0.00198231
-0.00195641
-0.00193121
-0.0019068
-0.00188325
-0.00186059
-0.00183888
-0.00181811
-0.00179822
-0.00177923
-0.00176105
-0.00174361
-0.00172687
-0.00171074
-0.00169512
-0.00168002
-0.0016653
-0.001651
-0.001637
-0.00162336
-0.00160995
-0.00159685
-0.00158395
-0.00157128
-0.00155882
-0.00154652
-0.00153442
-0.00152246
-0.00151068
-0.00149904
-0.00148757
-0.00147626
-0.00146514
-0.0014542
-0.00144349
-0.00143297
-0.00142271
-0.00141269
-0.00140292
-0.00139342
-0.00138417
-0.00137518
-0.00136644
-0.00135792
-0.0013496
-0.00134145
-0.00133343
-0.00132549
-0.00131758
-0.00130964
-0.00130161
-0.00129343
-0.001285
-0.00127626
-0.00126726
-0.00125766
-0.0012475
-0.00123673
-0.00122529
-0.0012131
-0.00120008
-0.00118619
-0.00117145
-0.00115584
-0.00113938
-0.00112209
-0.00110392
-0.00108518
-0.00106566
-0.00104539
-0.00102458
-0.00100291
-0.000980552
-0.00095707
-0.000933058
-0.000907953
-0.0008823
-0.000855695
-0.000828737
-0.000800619
-0.000773408
-0.000743397
-0.000715199
-0.000687821
-0.000660985
-0.000635014
-0.00061096
-0.000588434
-0.000567941
-0.000548541
-0.000529811
-0.000511843
-0.000494489
-0.00047747
-0.00046057
-0.000443647
-0.000426599
-0.000409358
-0.000391896
-0.000374225
-0.000356368
-0.000338377
-0.00032033
-0.000302281
-0.000284279
-0.000266365
-0.000248571
-0.000230919
-0.000213415
-0.000196049
-0.000178805
-0.000161666
-0.000144612
-0.000127622
-0.000110672
-9.37421e-05
-7.6812e-05
-5.98632e-05
-4.28887e-05
-2.58423e-05
-8.94329e-06
-0.00324982
-0.00322993
-0.00321217
-0.00319868
-0.00318603
-0.00317296
-0.00315981
-0.00314675
-0.00313364
-0.00312033
-0.00310681
-0.00309306
-0.00307909
-0.00306492
-0.00305054
-0.00303596
-0.00302122
-0.00300636
-0.00299136
-0.00297624
-0.00296102
-0.00294571
-0.00293033
-0.00291486
-0.00289933
-0.00288374
-0.00286809
-0.00285238
-0.00283664
-0.00282086
-0.00280508
-0.00278931
-0.00277359
-0.00275805
-0.00274256
-0.00272731
-0.00271313
-0.00270026
-0.00268871
-0.00267857
-0.00266974
-0.00266222
-0.00265526
-0.00264842
-0.00264153
-0.00263441
-0.00262687
-0.0026188
-0.00260995
-0.00260025
-0.00258961
-0.00257801
-0.00256548
-0.00255203
-0.00253771
-0.00252264
-0.00250686
-0.00249047
-0.00247354
-0.00245603
-0.00243817
-0.00241981
-0.00240103
-0.00238186
-0.00236197
-0.00234126
-0.00231984
-0.00229766
-0.00227483
-0.00225125
-0.00222689
-0.00220197
-0.00217642
-0.00215045
-0.00212417
-0.00209764
-0.00207109
-0.0020446
-0.00201829
-0.00199226
-0.0019667
-0.0019417
-0.00191735
-0.00189373
-0.0018709
-0.00184892
-0.00182782
-0.00180756
-0.00178816
-0.00176956
-0.00175168
-0.00173449
-0.00171792
-0.00170183
-0.00168626
-0.00167103
-0.00165622
-0.00164168
-0.0016275
-0.00161352
-0.00159987
-0.00158642
-0.00157324
-0.00156029
-0.00154755
-0.00153507
-0.00152277
-0.00151073
-0.00149889
-0.00148727
-0.00147588
-0.00146472
-0.00145379
-0.00144311
-0.00143264
-0.00142245
-0.00141247
-0.00140273
-0.00139322
-0.00138392
-0.00137482
-0.00136592
-0.00135715
-0.0013485
-0.00133994
-0.00133142
-0.00132288
-0.00131428
-0.00130557
-0.00129668
-0.00128756
-0.00127812
-0.00126839
-0.00125823
-0.00124749
-0.0012362
-0.00122433
-0.00121181
-0.00119859
-0.00118464
-0.00116995
-0.00115455
-0.00113844
-0.00112168
-0.0011043
-0.00108632
-0.00106794
-0.00104895
-0.00102944
-0.00100976
-0.000989525
-0.000968534
-0.000946682
-0.000924393
-0.000901171
-0.00087728
-0.000852403
-0.000826942
-0.000800098
-0.000773761
-0.000744815
-0.000717146
-0.000690193
-0.000663796
-0.000638224
-0.000614459
-0.000592144
-0.000571653
-0.000552109
-0.000533129
-0.000514815
-0.000497057
-0.000479612
-0.000462288
-0.000444962
-0.00042755
-0.000409995
-0.000392273
-0.000374405
-0.000356413
-0.000338337
-0.000320252
-0.000302197
-0.000284208
-0.000266309
-0.000248529
-0.000230888
-0.000213386
-0.000196005
-0.00017873
-0.000161551
-0.000144454
-0.000127421
-0.000110437
-9.34849e-05
-7.65503e-05
-5.96172e-05
-4.26812e-05
-2.56892e-05
-8.90214e-06
-0.00325156
-0.00323167
-0.0032136
-0.00319966
-0.00318669
-0.00317335
-0.00315998
-0.00314678
-0.0031336
-0.00312028
-0.00310679
-0.00309312
-0.00307926
-0.00306519
-0.00305095
-0.00303652
-0.00302193
-0.00300721
-0.00299236
-0.00297739
-0.00296232
-0.00294717
-0.00293194
-0.00291665
-0.00290129
-0.00288587
-0.00287041
-0.00285491
-0.00283937
-0.00282381
-0.00280825
-0.00279272
-0.00277723
-0.0027619
-0.00274665
-0.00273167
-0.00271763
-0.00270478
-0.00269315
-0.0026828
-0.0026736
-0.00266546
-0.00265773
-0.00265001
-0.00264209
-0.00263379
-0.00262497
-0.00261551
-0.00260526
-0.00259414
-0.00258213
-0.00256924
-0.00255549
-0.00254098
-0.00252575
-0.00250993
-0.00249358
-0.00247678
-0.00245965
-0.00244214
-0.00242445
-0.00240643
-0.00238814
-0.00236964
-0.00235071
-0.00233114
-0.00231096
-0.00229024
-0.00226889
-0.00224691
-0.00222424
-0.00220097
-0.00217709
-0.00215273
-0.00212793
-0.00210281
-0.00207747
-0.00205203
-0.00202669
-0.0020014
-0.00197641
-0.00195183
-0.00192775
-0.00190426
-0.00188142
-0.00185933
-0.00183802
-0.00181747
-0.00179774
-0.00177876
-0.00176047
-0.00174285
-0.00172584
-0.0017093
-0.00169326
-0.00167756
-0.00166226
-0.0016472
-0.00163251
-0.00161801
-0.00160384
-0.00158989
-0.00157625
-0.00156287
-0.00154975
-0.00153694
-0.00152439
-0.00151213
-0.00150015
-0.00148843
-0.00147699
-0.00146581
-0.00145488
-0.0014442
-0.00143373
-0.00142352
-0.0014135
-0.00140367
-0.00139402
-0.00138452
-0.00137516
-0.00136593
-0.00135675
-0.00134761
-0.00133848
-0.0013293
-0.00132003
-0.00131063
-0.00130104
-0.00129122
-0.00128112
-0.00127068
-0.00125987
-0.00124861
-0.00123682
-0.0012245
-0.00121162
-0.00119815
-0.00118405
-0.00116933
-0.001154
-0.00113808
-0.00112162
-0.00110466
-0.00108725
-0.00106947
-0.00105139
-0.00103293
-0.00101413
-0.000995326
-0.000976271
-0.000956544
-0.000936198
-0.000915443
-0.000893883
-0.000871646
-0.000848463
-0.000824532
-0.00079919
-0.000773683
-0.000746153
-0.00071932
-0.000692982
-0.000667179
-0.000642157
-0.000618753
-0.000596667
-0.00057613
-0.000556383
-0.000537098
-0.000518372
-0.000500128
-0.000482168
-0.000464334
-0.000446529
-0.000428685
-0.000410756
-0.000392733
-0.000374638
-0.000356508
-0.000338369
-0.000320255
-0.000302217
-0.000284253
-0.000266365
-0.000248598
-0.000230979
-0.000213484
-0.000196081
-0.00017876
-0.000161522
-0.00014436
-0.000127265
-0.000110226
-9.32327e-05
-7.62785e-05
-5.93506e-05
-4.24475e-05
-2.55131e-05
-8.83342e-06
-0.0032524
-0.0032326
-0.00321443
-0.00320027
-0.00318714
-0.0031737
-0.00316026
-0.00314701
-0.00313381
-0.00312052
-0.00310707
-0.00309347
-0.00307968
-0.00306572
-0.00305157
-0.00303726
-0.0030228
-0.00300819
-0.00299347
-0.00297864
-0.00296372
-0.00294871
-0.00293364
-0.00291851
-0.00290332
-0.00288809
-0.00287283
-0.00285753
-0.00284221
-0.00282688
-0.00281158
-0.0027963
-0.00278107
-0.00276598
-0.00275098
-0.00273628
-0.00272238
-0.00270954
-0.00269779
-0.00268717
-0.00267754
-0.00266875
-0.00266022
-0.00265159
-0.00264262
-0.00263314
-0.00262306
-0.00261226
-0.00260065
-0.0025882
-0.00257491
-0.00256084
-0.00254603
-0.00253058
-0.00251457
-0.00249811
-0.00248128
-0.00246415
-0.00244685
-0.00242931
-0.00241173
-0.00239399
-0.00237612
-0.00235808
-0.00233977
-0.00232106
-0.00230198
-0.00228243
-0.00226229
-0.00224167
-0.00222048
-0.0021987
-0.00217637
-0.00215352
-0.00213023
-0.00210655
-0.00208251
-0.00205829
-0.00203402
-0.00200972
-0.00198553
-0.00196157
-0.00193796
-0.0019148
-0.00189215
-0.00187011
-0.00184875
-0.00182804
-0.00180806
-0.00178878
-0.00177015
-0.00175214
-0.00173473
-0.00171775
-0.00170128
-0.00168512
-0.00166936
-0.00165384
-0.00163867
-0.0016237
-0.00160909
-0.0015947
-0.00158066
-0.00156692
-0.00155349
-0.00154042
-0.00152765
-0.00151523
-0.00150312
-0.00149131
-0.0014798
-0.00146855
-0.00145755
-0.00144679
-0.00143623
-0.00142587
-0.00141566
-0.00140557
-0.00139561
-0.00138575
-0.00137597
-0.00136623
-0.00135649
-0.0013467
-0.00133686
-0.0013269
-0.0013168
-0.00130651
-0.001296
-0.00128522
-0.00127412
-0.00126268
-0.00125085
-0.00123858
-0.00122583
-0.00121259
-0.00119884
-0.00118456
-0.00116975
-0.00115442
-0.00113859
-0.0011223
-0.0011056
-0.00108854
-0.00107118
-0.00105361
-0.00103583
-0.00101791
-0.000999844
-0.000981731
-0.000963507
-0.000944861
-0.000925953
-0.000906579
-0.000886498
-0.000865818
-0.000844261
-0.000821848
-0.000798104
-0.000773605
-0.000747611
-0.000721773
-0.000696227
-0.000671144
-0.00064676
-0.000623742
-0.000601859
-0.000581212
-0.000561191
-0.000541539
-0.000522335
-0.00050353
-0.000484979
-0.000466569
-0.000448237
-0.00042992
-0.000411564
-0.000393203
-0.000374881
-0.000356609
-0.000338382
-0.000320232
-0.000302267
-0.000284395
-0.000266512
-0.000248726
-0.000231122
-0.000213646
-0.000196215
-0.00017883
-0.00016152
-0.000144283
-0.000127113
-0.000110006
-9.29616e-05
-7.59804e-05
-5.90539e-05
-4.21847e-05
-2.53216e-05
-8.74069e-06
-0.00325247
-0.00323274
-0.00321462
-0.00320049
-0.00318739
-0.00317399
-0.00316059
-0.00314739
-0.00313424
-0.003121
-0.00310762
-0.00309408
-0.00308037
-0.00306648
-0.00305242
-0.0030382
-0.00302383
-0.00300933
-0.00299471
-0.00298
-0.00296521
-0.00295034
-0.00293541
-0.00292043
-0.00290542
-0.00289037
-0.0028753
-0.00286022
-0.00284512
-0.00283003
-0.00281499
-0.00279997
-0.00278502
-0.00277018
-0.00275546
-0.00274102
-0.00272727
-0.00271442
-0.00270253
-0.00269161
-0.00268152
-0.00267206
-0.00266272
-0.00265316
-0.00264312
-0.00263247
-0.00262114
-0.00260904
-0.00259615
-0.00258245
-0.002568
-0.00255286
-0.00253711
-0.00252088
-0.0025042
-0.00248723
-0.00247002
-0.00245263
-0.0024352
-0.00241763
-0.00240015
-0.00238259
-0.00236502
-0.00234738
-0.00232959
-0.0023116
-0.0022933
-0.00227464
-0.00225557
-0.00223612
-0.00221617
-0.00219569
-0.00217474
-0.0021533
-0.00213141
-0.0021091
-0.00208643
-0.00206349
-0.00204031
-0.00201714
-0.00199394
-0.0019708
-0.00194786
-0.00192522
-0.00190295
-0.00188115
-0.00185989
-0.00183919
-0.0018191
-0.00179963
-0.00178075
-0.00176243
-0.00174467
-0.00172733
-0.00171047
-0.00169391
-0.00167775
-0.00166182
-0.00164625
-0.00163089
-0.00161589
-0.00160115
-0.00158678
-0.00157274
-0.00155905
-0.00154576
-0.0015328
-0.00152021
-0.00150796
-0.001496
-0.00148434
-0.00147292
-0.00146173
-0.00145076
-0.00143994
-0.00142927
-0.0014187
-0.00140819
-0.00139771
-0.00138732
-0.00137696
-0.00136656
-0.00135609
-0.00134554
-0.00133488
-0.00132407
-0.00131307
-0.00130186
-0.00129041
-0.00127867
-0.00126662
-0.00125423
-0.00124147
-0.0012283
-0.00121471
-0.00120068
-0.00118619
-0.00117127
-0.0011559
-0.0011401
-0.00112392
-0.00110737
-0.00109055
-0.00107347
-0.00105622
-0.00103886
-0.00102141
-0.00100395
-0.000986489
-0.000969018
-0.000951593
-0.000933945
-0.000916149
-0.000897928
-0.000879315
-0.00086011
-0.000840073
-0.000819165
-0.00079703
-0.000773836
-0.000749328
-0.000724566
-0.00069992
-0.000675626
-0.000651911
-0.000629262
-0.00060753
-0.000586704
-0.000566337
-0.000546251
-0.000526506
-0.000507076
-0.000487863
-0.000468807
-0.000449936
-0.000431173
-0.000412371
-0.00039363
-0.000375079
-0.00035669
-0.000338405
-0.000320237
-0.000302244
-0.000284369
-0.000266558
-0.000248839
-0.000231265
-0.000213802
-0.000196336
-0.00017887
-0.000161476
-0.000144158
-0.00012691
-0.000109735
-9.26397e-05
-7.56361e-05
-5.87147e-05
-4.18867e-05
-2.51326e-05
-8.65185e-06
-0.00325179
-0.00323209
-0.00321416
-0.00320031
-0.00318743
-0.00317421
-0.00316098
-0.00314792
-0.00313489
-0.00312175
-0.00310845
-0.00309498
-0.00308133
-0.0030675
-0.0030535
-0.00303934
-0.00302504
-0.00301061
-0.00299609
-0.00298147
-0.00296679
-0.00295204
-0.00293724
-0.00292241
-0.00290755
-0.00289268
-0.0028778
-0.00286292
-0.00284805
-0.00283321
-0.00281841
-0.00280366
-0.00278898
-0.00277441
-0.00275997
-0.00274581
-0.00273221
-0.00271935
-0.00270732
-0.00269608
-0.00268552
-0.00267537
-0.00266522
-0.00265472
-0.00264361
-0.00263179
-0.00261923
-0.00260588
-0.00259177
-0.00257692
-0.00256141
-0.00254535
-0.00252879
-0.0025119
-0.00249469
-0.00247732
-0.00245983
-0.00244226
-0.00242475
-0.00240718
-0.00238979
-0.00237239
-0.00235506
-0.00233775
-0.00232037
-0.00230291
-0.00228524
-0.00226735
-0.00224915
-0.00223063
-0.00221172
-0.00219239
-0.00217264
-0.00215246
-0.00213185
-0.00211084
-0.00208947
-0.00206779
-0.0020458
-0.00202372
-0.00200157
-0.0019794
-0.00195729
-0.00193533
-0.0019136
-0.00189222
-0.00187125
-0.00185071
-0.00183067
-0.00181115
-0.00179215
-0.00177364
-0.00175563
-0.00173802
-0.00172085
-0.00170398
-0.00168748
-0.00167124
-0.00165535
-0.00163969
-0.00162439
-0.00160937
-0.00159474
-0.00158045
-0.00156654
-0.00155303
-0.00153986
-0.00152706
-0.0015146
-0.00150241
-0.00149048
-0.00147875
-0.00146719
-0.0014558
-0.00144452
-0.00143332
-0.00142217
-0.00141103
-0.00139989
-0.00138882
-0.00137777
-0.00136659
-0.00135531
-0.00134392
-0.00133239
-0.00132068
-0.00130878
-0.00129666
-0.00128429
-0.00127166
-0.00125873
-0.00124548
-0.0012319
-0.00121795
-0.00120364
-0.00118895
-0.00117388
-0.00115844
-0.00114265
-0.00112652
-0.00111011
-0.00109342
-0.00107656
-0.00105953
-0.00104243
-0.00102531
-0.00100819
-0.000991149
-0.000974216
-0.000957331
-0.000940612
-0.000923785
-0.000906969
-0.000889879
-0.000872541
-0.000854647
-0.000836048
-0.000816711
-0.000796177
-0.00077428
-0.000751281
-0.000727675
-0.000703994
-0.000680513
-0.000657458
-0.000635133
-0.000613473
-0.000592397
-0.000571614
-0.000551029
-0.000530686
-0.000510593
-0.000490722
-0.000471024
-0.000451508
-0.000432176
-0.000412983
-0.000393971
-0.000375197
-0.00035669
-0.000338336
-0.000320117
-0.000302124
-0.000284283
-0.000266536
-0.000248874
-0.000231296
-0.000213776
-0.000196268
-0.000178776
-0.000161332
-0.000143948
-0.000126634
-0.000109401
-9.22564e-05
-7.52408e-05
-5.83291e-05
-4.15363e-05