/*--------------------------------*- C++ -*----------------------------------*\
| =========                 |                                                 |
| \\      /  F ield         | OpenFOAM: The Open Source CFD Toolbox           |
|  \\    /   O peration     | Version:  2506                                  |
|   \\  /    A nd           | Website:  www.openfoam.com                      |
|    \\/     M anipulation  |                                                 |
\*---------------------------------------------------------------------------*/
FoamFile
{
    version     2.0;
    format      ascii;
    arch        "LSB;label=32;scalar=64";
    class       surfaceScalarField;
    location    "3.7";
    object      phi;
}
// * * * * * * * * * * * * * * * * * * * * * * * * * * * * * * * * * * * * * //

dimensions      [0 3 -1 0 0 0 0];

oriented        oriented;

internalField   nonuniform List<scalar> 
7780
(
2.75929e-09
5.40946e-10
2.09448e-09
6.65188e-10
1.58594e-09
5.08843e-10
1.21923e-09
3.66644e-10
9.65804e-10
2.53368e-10
7.92075e-10
1.73712e-10
6.7248e-10
1.19613e-10
5.88808e-10
8.36859e-11
5.28805e-10
6.00125e-11
4.84908e-10
4.39009e-11
4.52196e-10
3.27147e-11
4.27256e-10
2.49404e-11
4.0777e-10
1.94863e-11
3.92102e-10
1.5668e-11
3.79012e-10
1.30891e-11
3.67572e-10
1.14393e-11
3.57104e-10
1.0468e-11
3.47103e-10
1.00007e-11
3.37196e-10
9.90606e-12
3.27115e-10
1.00789e-11
3.16669e-10
1.04454e-11
3.05705e-10
1.09617e-11
2.941e-10
1.16032e-11
2.81739e-10
1.23582e-11
2.68511e-10
1.3224e-11
2.54305e-10
1.4203e-11
2.39e-10
1.52993e-11
2.22477e-10
1.65177e-11
2.04608e-10
1.78626e-11
1.85258e-10
1.93436e-11
1.64246e-10
2.10044e-11
1.41239e-10
2.30007e-11
1.16006e-10
2.52299e-11
8.3203e-11
3.28028e-11
6.33465e-11
1.98654e-11
7.2622e-11
-9.25658e-12
1.00623e-10
-2.79779e-11
1.37024e-10
-3.63741e-11
1.81014e-10
-4.39567e-11
2.35023e-10
-5.39698e-11
3.12695e-10
-7.76275e-11
3.95336e-10
-8.25984e-11
4.66257e-10
-7.08881e-11
5.28026e-10
-6.17469e-11
5.7959e-10
-5.15496e-11
6.24265e-10
-4.46574e-11
6.65508e-10
-4.12172e-11
6.97131e-10
-3.16048e-11
7.26219e-10
-2.90755e-11
7.4978e-10
-2.35369e-11
7.65717e-10
-1.59027e-11
7.7774e-10
-1.19768e-11
7.77092e-10
6.97448e-13
7.71744e-10
5.3926e-12
7.51042e-10
2.07407e-11
7.21832e-10
2.9239e-11
6.80673e-10
4.11739e-11
6.25519e-10
5.51489e-11
5.67232e-10
5.82601e-11
4.92031e-10
7.51484e-11
4.1934e-10
7.26156e-11
3.43337e-10
7.59083e-11
2.68901e-10
7.43304e-11
2.00742e-10
6.80473e-11
1.35323e-10
6.53002e-11
7.99149e-11
5.52789e-11
2.85376e-11
5.12195e-11
-1.37579e-11
4.21027e-11
-5.096e-11
3.69785e-11
-8.1556e-11
3.03485e-11
-1.07265e-10
2.54461e-11
-1.29433e-10
2.18975e-11
-1.47037e-10
1.73354e-11
-1.61425e-10
1.41272e-11
-1.72805e-10
1.1142e-11
-1.81227e-10
8.21104e-12
-1.87339e-10
5.92585e-12
-1.9149e-10
3.9876e-12
-1.9386e-10
2.23181e-12
-1.94924e-10
9.48848e-13
-1.95054e-10
3.53758e-14
-1.9446e-10
-6.70251e-13
-1.93417e-10
-1.10451e-12
-1.92124e-10
-1.34011e-12
-1.90673e-10
-1.48924e-12
-1.89179e-10
-1.52573e-12
-1.87601e-10
-1.60665e-12
-1.8579e-10
-1.83858e-12
-1.83736e-10
-2.07989e-12
-1.81298e-10
-2.46297e-12
-1.78269e-10
-3.05127e-12
-1.74728e-10
-3.56208e-12
-1.70562e-10
-4.18474e-12
-1.65669e-10
-4.91016e-12
-1.60224e-10
-5.45913e-12
-1.54015e-10
-6.22216e-12
-1.47308e-10
-6.7189e-12
-1.39917e-10
-7.39958e-12
-1.32438e-10
-7.48655e-12
-1.24643e-10
-7.79983e-12
-1.16794e-10
-7.85215e-12
-1.08671e-10
-8.12359e-12
-1.00275e-10
-8.39452e-12
-9.11981e-11
-9.0727e-12
-8.13255e-11
-9.86542e-12
-7.14493e-11
-9.86606e-12
-6.04768e-11
-1.09589e-11
-4.90296e-11
-1.14301e-11
-3.63242e-11
-1.26845e-11
-2.24376e-11
-1.38614e-11
-6.99424e-12
-1.54138e-11
9.82472e-12
-1.67848e-11
2.88282e-11
-1.89648e-11
4.85751e-11
-1.97044e-11
7.12481e-11
-2.26267e-11
9.46997e-11
-2.34024e-11
1.19574e-10
-2.48229e-11
1.46195e-10
-2.65677e-11
1.73217e-10
-2.69688e-11
2.00939e-10
-2.76681e-11
2.29524e-10
-2.85307e-11
2.57868e-10
-2.82892e-11
2.85746e-10
-2.78229e-11
3.13625e-10
-2.78221e-11
3.40592e-10
-2.69077e-11
3.66657e-10
-2.60045e-11
3.91718e-10
-2.4998e-11
4.15396e-10
-2.36143e-11
4.38028e-10
-2.25677e-11
4.60304e-10
-2.22121e-11
4.80187e-10
-1.98238e-11
4.99348e-10
-1.9105e-11
5.19215e-10
-1.9816e-11
5.36164e-10
-1.69054e-11
5.52862e-10
-1.66621e-11
5.71727e-10
-1.88185e-11
5.85171e-10
-1.33938e-11
6.0093e-10
-1.57172e-11
6.12749e-10
-1.17765e-11
6.2268e-10
-9.88652e-12
6.28602e-10
-5.87009e-12
6.28364e-10
2.95796e-13
6.20337e-10
8.08628e-12
6.05283e-10
1.5108e-11
5.75731e-10
2.95916e-11
5.41508e-10
3.42378e-11
4.8815e-10
5.33425e-11
4.29977e-10
5.8132e-11
3.63177e-10
6.67351e-11
2.89703e-10
7.339e-11
2.17934e-10
7.16751e-11
1.42056e-10
7.57749e-11
7.37084e-11
6.82419e-11
7.0406e-12
6.65525e-11
-5.04961e-11
5.74181e-11
-1.02496e-10
5.18741e-11
-1.44755e-10
4.21283e-11
-1.78947e-10
3.40548e-11
-2.02449e-10
2.33695e-11
-2.13976e-10
1.14082e-11
-2.1059e-10
-3.44445e-12
-1.97649e-10
-1.29716e-11
-1.75689e-10
-2.19718e-11
-1.44622e-10
-3.10633e-11
-1.03209e-10
-4.14004e-11
-5.19197e-11
-5.12772e-11
1.29465e-11
-6.48574e-11
7.63829e-11
-6.34307e-11
1.27764e-10
-5.13765e-11
1.67006e-10
-3.92369e-11
1.9544e-10
-2.84275e-11
2.14953e-10
-1.95075e-11
2.27659e-10
-1.26994e-11
2.35606e-10
-7.94061e-12
2.40589e-10
-4.97644e-12
2.44088e-10
-3.49222e-12
2.47232e-10
-3.13752e-12
2.50754e-10
-3.51432e-12
2.55019e-10
-4.25659e-12
2.60102e-10
-5.07509e-12
2.6586e-10
-5.74945e-12
2.71992e-10
-6.12371e-12
2.78108e-10
-6.108e-12
2.83797e-10
-5.68079e-12
2.88685e-10
-4.88037e-12
2.92473e-10
-3.78105e-12
2.94901e-10
-2.42183e-12
2.95948e-10
-1.04222e-12
2.95695e-10
2.57539e-13
2.94263e-10
1.43643e-12
2.91889e-10
2.37724e-12
2.88708e-10
3.1837e-12
2.8496e-10
3.74991e-12
2.80892e-10
4.06951e-12
2.76731e-10
4.16179e-12
2.72667e-10
4.06533e-12
2.68832e-10
3.83545e-12
2.65296e-10
3.53649e-12
2.61977e-10
3.32434e-12
4.0256e-12
3.51347e-09
3.27452e-10
3.49801e-09
6.80706e-10
3.30446e-09
7.02408e-10
3.03628e-09
6.34706e-10
2.75475e-09
5.34834e-10
2.49952e-09
4.28967e-10
2.28619e-09
3.32978e-10
2.11392e-09
2.55972e-10
1.97705e-09
1.9688e-10
1.86949e-09
1.51468e-10
1.78502e-09
1.17189e-10
1.71813e-09
9.1833e-11
1.6645e-09
7.31208e-11
1.6207e-09
5.94737e-11
1.58394e-09
4.98538e-11
1.55203e-09
4.3347e-11
1.52331e-09
3.91921e-11
1.49647e-09
3.68393e-11
1.47052e-09
3.58569e-11
1.4447e-09
3.58956e-11
1.41844e-09
3.67078e-11
1.39126e-09
3.81416e-11
1.36275e-09
4.01129e-11
1.33252e-09
4.25866e-11
1.30018e-09
4.55647e-11
1.2653e-09
4.90753e-11
1.22743e-09
5.31646e-11
1.18606e-09
5.78942e-11
1.14057e-09
6.33447e-11
1.09028e-09
6.96321e-11
1.03433e-09
7.69506e-11
9.71626e-10
8.57024e-11
9.00345e-10
9.65132e-11
8.14034e-10
1.19121e-10
7.47563e-10
8.63479e-11
7.38825e-10
-5.06132e-13
7.72709e-10
-6.18522e-11
8.33373e-10
-9.70336e-11
9.16398e-10
-1.26982e-10
1.02362e-09
-1.61197e-10
1.1638e-09
-2.17802e-10
1.31053e-09
-2.29312e-10
1.44612e-09
-2.06465e-10
1.56952e-09
-1.85122e-10
1.67849e-09
-1.60505e-10
1.77653e-09
-1.42681e-10
1.86633e-09
-1.30995e-10
1.94295e-09
-1.08207e-10
2.01277e-09
-9.88851e-11
2.0724e-09
-8.3166e-11
2.12006e-09
-6.35507e-11
2.15715e-09
-4.90601e-11
2.17544e-09
-1.75793e-11
2.18062e-09
2.28705e-13
2.16292e-09
3.84591e-11
2.12626e-09
6.59159e-11
2.06648e-09
1.00967e-10
1.98115e-09
1.40489e-10
1.87955e-09
1.59855e-10
1.74902e-09
2.0567e-10
1.60922e-09
2.12386e-10
1.45701e-09
2.28098e-10
1.30022e-09
2.31089e-10
1.1465e-09
2.21747e-10
9.95241e-10
2.16546e-10
8.56821e-10
1.93695e-10
7.27139e-10
1.80905e-10
6.12974e-10
1.56279e-10
5.10829e-10
1.3914e-10
4.21798e-10
1.19395e-10
3.46028e-10
1.0123e-10
2.80024e-10
8.7912e-11
2.25439e-10
7.19233e-11
1.79891e-10
5.96783e-11
1.42249e-10
4.87868e-11
1.12502e-10
3.79555e-11
8.92245e-11
2.91955e-11
7.12849e-11
2.19175e-11
5.8312e-11
1.51942e-11
4.93455e-11
9.90491e-12
4.32692e-11
6.10327e-12
3.96496e-11
2.94553e-12
3.79372e-11
6.10231e-13
3.75233e-11
-9.18261e-13
3.82032e-11
-2.15803e-12
3.94511e-11
-2.76304e-12
4.10712e-11
-3.21939e-12
4.37367e-11
-4.50077e-12
4.71124e-11
-5.45549e-12
5.11239e-11
-6.47675e-12
5.68487e-11
-8.7798e-12
6.34984e-11
-1.02154e-11
7.10989e-11
-1.17884e-11
8.05757e-11
-1.43893e-11
9.05028e-11
-1.53879e-11
1.02503e-10
-1.82236e-11
1.14785e-10
-1.90008e-11
1.28937e-10
-2.15505e-11
1.43367e-10
-2.19157e-11
1.60174e-10
-2.4605e-11
1.77214e-10
-2.48907e-11
1.96246e-10
-2.71541e-11
2.16391e-10
-2.85372e-11
2.37496e-10
-3.01763e-11
2.61174e-10
-3.35415e-11
2.86308e-10
-3.49983e-11
3.14823e-10
-3.94734e-11
3.45705e-10
-4.23105e-11
3.79881e-10
-4.68609e-11
4.17271e-10
-5.12515e-11
4.58049e-10
-5.61932e-11
5.02093e-10
-6.08296e-11
5.49707e-10
-6.65802e-11
5.99738e-10
-6.9737e-11
6.53619e-10
-7.65093e-11
7.09223e-10
-7.90066e-11
7.6685e-10
-8.24497e-11
8.26354e-10
-8.60689e-11
8.86254e-10
-8.68636e-11
9.46564e-10
-8.79702e-11
1.00709e-09
-8.90435e-11
1.06651e-09
-8.76964e-11
1.12457e-09
-8.58777e-11
1.18147e-09
-8.47e-11
1.2363e-09
-8.17133e-11
1.28904e-09
-7.87218e-11
1.33958e-09
-7.55091e-11
1.38775e-09
-7.17375e-11
1.43411e-09
-6.88777e-11
1.47917e-09
-6.72033e-11
1.52145e-09
-6.20164e-11
1.56281e-09
-6.03748e-11
1.6045e-09
-6.14106e-11
1.6432e-09
-5.5508e-11
1.68242e-09
-5.57938e-11
1.72289e-09
-5.9189e-11
1.75836e-09
-4.87756e-11
1.79485e-09
-5.214e-11
1.82654e-09
-4.34255e-11
1.85389e-09
-3.72153e-11
1.87407e-09
-2.60589e-11
1.88366e-09
-9.31427e-12
1.87967e-09
1.20429e-11
1.86022e-09
3.45273e-11
1.81813e-09
7.16625e-11
1.75969e-09
9.2653e-11
1.6707e-09
1.42305e-10
1.56422e-09
1.6459e-10
1.43701e-09
1.93904e-10
1.29181e-09
2.18534e-10
1.13969e-09
2.23732e-10
9.75486e-10
2.39924e-10
8.16328e-10
2.27351e-10
6.56911e-10
2.2593e-10
5.09938e-10
2.04369e-10
3.70799e-10
1.91e-10
2.47965e-10
1.64953e-10
1.3952e-10
1.42493e-10
5.16628e-11
1.11224e-10
-1.4845e-11
7.79128e-11
-1.65834e-11
-1.68823e-12
1.59081e-11
-4.54347e-11
7.5701e-11
-8.17362e-11
1.58704e-10
-1.14041e-10
2.67662e-10
-1.50336e-10
3.96937e-10
-1.8054e-10
5.46665e-10
-2.14584e-10
6.86595e-10
-2.03369e-10
8.0225e-10
-1.67046e-10
8.94177e-10
-1.3118e-10
9.6505e-10
-9.93131e-11
1.0186e-09
-7.30654e-11
1.05889e-09
-5.29987e-11
1.08987e-09
-3.8925e-11
1.11501e-09
-3.01117e-11
1.13705e-09
-2.55386e-11
1.15799e-09
-2.40772e-11
1.17908e-09
-2.45999e-11
1.2009e-09
-2.60724e-11
1.22345e-09
-2.76249e-11
1.24629e-09
-2.85914e-11
1.2687e-09
-2.85266e-11
1.2898e-09
-2.72079e-11
1.30874e-09
-2.46246e-11
1.3248e-09
-2.09425e-11
1.33746e-09
-1.64469e-11
1.34653e-09
-1.14868e-11
1.35194e-09
-6.46311e-12
1.35394e-09
-1.74069e-12
1.35293e-09
2.44133e-12
1.34946e-09
5.84598e-12
1.34423e-09
8.40765e-12
1.33793e-09
1.00557e-11
1.33117e-09
1.08208e-11
1.32454e-09
1.07986e-11
1.31846e-09
1.01372e-11
1.31328e-09
9.01748e-12
1.30915e-09
7.66277e-12
1.30616e-09
6.32031e-12
6.10415e-12
3.44202e-09
1.85325e-10
3.63629e-09
4.86115e-10
3.73417e-09
6.04108e-10
3.7418e-09
6.26774e-10
3.67172e-09
6.0492e-10
3.55578e-09
5.44918e-10
3.41944e-09
4.69359e-10
3.28027e-09
3.95178e-10
3.1507e-09
3.26463e-10
3.03592e-09
2.66238e-10
2.93644e-09
2.16668e-10
2.85128e-09
1.76997e-10
2.77895e-09
1.45452e-10
2.71741e-09
1.21013e-10
2.66444e-09
1.02829e-10
2.61802e-09
8.97655e-11
2.57641e-09
8.08065e-11
2.53806e-09
7.51949e-11
2.50166e-09
7.2252e-11
2.46618e-09
7.13793e-11
2.43075e-09
7.21358e-11
2.39466e-09
7.42352e-11
2.35727e-09
7.75062e-11
2.31798e-09
8.18705e-11
2.27622e-09
8.73276e-11
2.23135e-09
9.3936e-11
2.18272e-09
1.018e-10
2.12954e-09
1.11063e-10
2.07097e-09
1.21918e-10
2.00597e-09
1.34623e-10
1.93337e-09
1.4955e-10
1.85177e-09
1.67294e-10
1.75933e-09
1.88958e-10
1.65023e-09
2.28236e-10
1.55663e-09
1.79953e-10
1.51832e-09
3.7823e-11
1.5295e-09
-7.30236e-11
1.5794e-09
-1.46925e-10
1.66338e-09
-2.10952e-10
1.7795e-09
-2.77307e-10
1.92893e-09
-3.67218e-10
2.08782e-09
-3.88181e-10
2.24346e-09
-3.62082e-10
2.391e-09
-3.32635e-10
2.52638e-09
-2.95876e-10
2.65111e-09
-2.67401e-10
2.76628e-09
-2.46167e-10
2.8689e-09
-2.10838e-10
2.96313e-09
-1.93146e-10
3.04624e-09
-1.66307e-10
3.11732e-09
-1.3468e-10
3.1756e-09
-1.07377e-10
3.21682e-09
-5.88444e-11
3.24311e-09
-2.61004e-11
3.24754e-09
3.40001e-11
3.23164e-09
8.17925e-11
3.19165e-09
1.40938e-10
3.12458e-09
2.07544e-10
3.03546e-09
2.48967e-10
2.91445e-09
3.26664e-10
2.77444e-09
3.52393e-10
2.61283e-09
3.89698e-10
2.43647e-09
4.07441e-10
2.25235e-09
4.05848e-10
2.06228e-09
4.0661e-10
1.87726e-09
3.78694e-10
1.69632e-09
3.61828e-10
1.52818e-09
3.24401e-10
1.37176e-09
2.95555e-10
1.23016e-09
2.60994e-10
1.10459e-09
2.2682e-10
9.92134e-10
2.00401e-10
8.95173e-10
1.68926e-10
8.11196e-10
1.43705e-10
7.38987e-10
1.2105e-10
6.78548e-10
9.84458e-11
6.2805e-10
7.97387e-11
5.86013e-10
6.39942e-11
5.51866e-10
4.93736e-11
5.24463e-10
3.73353e-11
5.02518e-10
2.80734e-11
4.8506e-10
2.0429e-11
4.70923e-10
1.47735e-11
4.59298e-10
1.07335e-11
4.49785e-10
7.37927e-12
4.41552e-10
5.48967e-12
4.3425e-10
4.09689e-12
4.28534e-10
1.22247e-12
4.2366e-10
-5.77761e-13
4.19769e-10
-2.58501e-12
4.17879e-10
-6.89079e-12
4.17554e-10
-9.89205e-12
4.18777e-10
-1.30118e-11
4.2257e-10
-1.81833e-11
4.27555e-10
-2.0374e-11
4.35454e-10
-2.61224e-11
4.4453e-10
-2.80759e-11
4.56525e-10
-3.3544e-11
4.69829e-10
-3.52181e-11
4.86756e-10
-4.15302e-11
5.05508e-10
-4.36406e-11
5.2803e-10
-4.96745e-11
5.53725e-10
-5.42299e-11
5.82993e-10
-5.9443e-11
6.17174e-10
-6.77207e-11
6.55272e-10
-7.30952e-11
6.99036e-10
-8.32364e-11
7.47456e-10
-9.0731e-11
8.01173e-10
-1.00579e-10
8.59958e-10
-1.10039e-10
9.23617e-10
-1.19855e-10
9.91789e-10
-1.29006e-10
1.06437e-09
-1.39169e-10
1.13999e-09
-1.45357e-10
1.21957e-09
-1.56101e-10
1.30092e-09
-1.60363e-10
1.38399e-09
-1.65533e-10
1.46835e-09
-1.70436e-10
1.55252e-09
-1.71034e-10
1.63625e-09
-1.71709e-10
1.71918e-09
-1.71982e-10
1.80008e-09
-1.68597e-10
1.87871e-09
-1.64514e-10
1.95505e-09
-1.61041e-10
2.0284e-09
-1.55073e-10
2.09881e-09
-1.49125e-10
2.1662e-09
-1.42903e-10
2.23062e-09
-1.36149e-10
2.29261e-09
-1.30851e-10
2.35256e-09
-1.27133e-10
2.40986e-09
-1.19286e-10
2.46579e-09
-1.16261e-10
2.52136e-09
-1.16941e-10
2.57449e-09
-1.08594e-10
2.6281e-09
-1.09369e-10
2.68163e-09
-1.12685e-10
2.73142e-09
-9.85263e-11
2.78065e-09
-1.01356e-10
2.82564e-09
-8.84193e-11
2.86544e-09
-7.70445e-11
2.89802e-09
-5.86961e-11
2.91952e-09
-3.08866e-11
2.92753e-09
3.95346e-12
2.91896e-09
4.30105e-11
2.88865e-09
1.01912e-10
2.83845e-09
1.42814e-10
2.75819e-09
2.22535e-10
2.6547e-09
2.68061e-10
2.52532e-09
3.23271e-10
2.37044e-09
3.73391e-10
2.19897e-09
3.95169e-10
2.00605e-09
4.32807e-10
1.80762e-09
4.25742e-10
1.59952e-09
4.33997e-10
1.39615e-09
4.07713e-10
1.19434e-09
3.92793e-10
1.00547e-09
3.53814e-10
8.30305e-10
3.17674e-10
6.82194e-10
2.59376e-10
5.62738e-10
1.97426e-10
5.37481e-10
2.36409e-11
5.63315e-10
-7.11989e-11
6.29873e-10
-1.48234e-10
7.29661e-10
-2.1378e-10
8.64059e-10
-2.84693e-10
1.02238e-09
-3.38826e-10
1.20019e-09
-3.92378e-10
1.3654e-09
-3.68564e-10
1.50593e-09
-3.07588e-10
1.62258e-09
-2.47843e-10
1.71744e-09
-1.94192e-10
1.79376e-09
-1.49397e-10
1.85532e-09
-1.14568e-10
1.906e-09
-8.96184e-11
1.94942e-09
-7.35364e-11
1.9886e-09
-6.47226e-11
2.02582e-09
-6.13006e-11
2.06257e-09
-6.13437e-11
2.09954e-09
-6.30442e-11
2.13676e-09
-6.48468e-11
2.17371e-09
-6.55409e-11
2.20949e-09
-6.43078e-11
2.24303e-09
-6.07392e-11
2.27322e-09
-5.48176e-11
2.29913e-09
-4.68532e-11
2.32007e-09
-3.73871e-11
2.33567e-09
-2.70923e-11
2.34589e-09
-1.66852e-11
2.35099e-09
-6.84425e-12
2.35156e-09
1.86354e-12
2.34839e-09
9.01354e-12
2.34243e-09
1.43653e-11
2.33465e-09
1.78317e-11
2.32599e-09
1.94783e-11
2.31728e-09
1.94973e-11
2.30924e-09
1.81769e-11
2.30239e-09
1.58647e-11
2.29709e-09
1.29689e-11
2.29362e-09
9.78652e-12
7.47601e-12
3.3735e-09
1.11797e-10
3.54105e-09
3.18317e-10
3.69637e-09
4.48511e-10
3.81144e-09
5.11619e-10
3.88614e-09
5.3024e-10
3.9139e-09
5.1712e-10
3.90052e-09
4.82741e-10
3.86022e-09
4.3548e-10
3.80344e-09
3.83237e-10
3.73801e-09
3.31662e-10
3.66962e-09
2.85062e-10
3.60309e-09
2.43525e-10
3.54093e-09
2.07609e-10
3.48378e-09
1.78171e-10
3.4315e-09
1.55109e-10
3.38376e-09
1.37506e-10
3.33991e-09
1.24659e-10
3.29903e-09
1.16076e-10
3.26018e-09
1.11103e-10
3.22249e-09
1.09075e-10
3.18515e-09
1.09482e-10
3.1474e-09
1.11977e-10
3.10858e-09
1.16333e-10
3.06801e-09
1.22435e-10
3.02506e-09
1.3028e-10
2.97904e-09
1.39952e-10
2.92923e-09
1.51607e-10
2.87482e-09
1.65471e-10
2.8149e-09
1.81838e-10
2.74842e-09
2.01092e-10
2.67422e-09
2.23747e-10
2.59101e-09
2.50501e-10
2.49735e-09
2.82623e-10
2.38867e-09
3.36922e-10
2.28861e-09
2.80027e-10
2.23017e-09
9.62678e-11
2.21633e-09
-5.91708e-11
2.244e-09
-1.74583e-10
2.31062e-09
-2.77568e-10
2.41203e-09
-3.78708e-10
2.54487e-09
-5.00047e-10
2.69028e-09
-5.33563e-10
2.83983e-09
-5.11585e-10
2.98613e-09
-4.78903e-10
3.12402e-09
-4.33728e-10
3.2532e-09
-3.9657e-10
3.37428e-09
-3.67253e-10
3.48433e-09
-3.20945e-10
3.58645e-09
-2.95215e-10
3.67806e-09
-2.57953e-10
3.75908e-09
-2.1575e-10
3.82901e-09
-1.77383e-10
3.88554e-09
-1.15421e-10
3.92895e-09
-6.95713e-11
3.95563e-09
7.26669e-12
3.96555e-09
7.18221e-11
3.95621e-09
1.50234e-10
3.9247e-09
2.39013e-10
3.87274e-09
3.00898e-10
3.79338e-09
4.05994e-10
3.69267e-09
4.53091e-10
3.56756e-09
5.14807e-10
3.42178e-09
5.5322e-10
3.25927e-09
5.68365e-10
3.08207e-09
5.83816e-10
2.89876e-09
5.61994e-10
2.71058e-09
5.49992e-10
2.52599e-09
5.08963e-10
2.34643e-09
4.75084e-10
2.17634e-09
4.3107e-10
2.01866e-09
3.84508e-10
1.87218e-09
3.46911e-10
1.74038e-09
3.00767e-10
1.62166e-09
2.62486e-10
1.51549e-09
2.2728e-10
1.42231e-09
1.91695e-10
1.34048e-09
1.61639e-10
1.26875e-09
1.35781e-10
1.20652e-09
1.11655e-10
1.1527e-09
9.12024e-11
1.1058e-09
7.50087e-11
1.06485e-09
6.14171e-11
1.02858e-09
5.10821e-11
9.95929e-10
4.34193e-11
9.66278e-10
3.70582e-11
9.38553e-10
3.32347e-11
9.12129e-10
3.05331e-11
8.87574e-10
2.57829e-11
8.64172e-10
2.28248e-11
8.42207e-10
1.93788e-11
8.22633e-10
1.26804e-11
8.05364e-10
7.37455e-12
7.90559e-10
1.78985e-12
7.7958e-10
-7.20613e-12
7.71227e-10
-1.20231e-11
7.67449e-10
-2.23455e-11
7.6672e-10
-2.73472e-11
7.70933e-10
-3.77565e-11
7.78649e-10
-4.29336e-11
7.92252e-10
-5.51316e-11
8.10199e-10
-6.15859e-11
8.34497e-10
-7.39703e-11
8.6464e-10
-8.43714e-11
9.01172e-10
-9.59728e-11
9.45129e-10
-1.11677e-10
9.9554e-10
-1.23505e-10
1.05367e-09
-1.41362e-10
1.11841e-09
-1.55472e-10
1.18985e-09
-1.72025e-10
1.26752e-09
-1.8771e-10
1.35068e-09
-2.03017e-10
1.43871e-09
-2.17046e-10
1.53098e-09
-2.31442e-10
1.62606e-09
-2.40442e-10
1.72421e-09
-2.54258e-10
1.82342e-09
-2.5958e-10
1.92331e-09
-2.65437e-10
2.02329e-09
-2.70426e-10
2.12205e-09
-2.69805e-10
2.21922e-09
-2.68884e-10
2.31441e-09
-2.67185e-10
2.40663e-09
-2.60826e-10
2.49575e-09
-2.53638e-10
2.58165e-09
-2.46957e-10
2.66396e-09
-2.37386e-10
2.74277e-09
-2.27941e-10
2.81813e-09
-2.18274e-10
2.89024e-09
-2.08265e-10
2.95958e-09
-2.00193e-10
3.02649e-09
-1.94043e-10
3.09095e-09
-1.83742e-10
3.15358e-09
-1.7887e-10
3.21515e-09
-1.78511e-10
3.27491e-09
-1.68336e-10
3.33474e-09
-1.69183e-10
3.39353e-09
-1.71467e-10
3.44915e-09
-1.54162e-10
3.50313e-09
-1.55347e-10
3.55368e-09
-1.38975e-10
3.59909e-09
-1.22494e-10
3.63841e-09
-9.80694e-11
3.66813e-09
-6.06901e-11
3.68743e-09
-1.54379e-11
3.69234e-09
3.7994e-11
3.68048e-09
1.13693e-10
3.65084e-09
1.72388e-10
3.59745e-09
2.75867e-10
3.52186e-09
3.43621e-10
3.42201e-09
4.23103e-10
3.29557e-09
4.99815e-10
3.14791e-09
5.42806e-10
2.97359e-09
6.07115e-10
2.7842e-09
6.15114e-10
2.57557e-09
6.42604e-10
2.36013e-09
6.23129e-10
2.13552e-09
6.17391e-10
1.91342e-09
5.75906e-10
1.69809e-09
5.33014e-10
1.50984e-09
4.4767e-10
1.34967e-09
3.57669e-10
1.28932e-09
8.40691e-11
1.28608e-09
-6.78772e-11
1.33092e-09
-1.93e-10
1.41532e-09
-2.98113e-10
1.53922e-09
-4.0854e-10
1.68825e-09
-4.87807e-10
1.85512e-09
-5.592e-10
2.01042e-09
-5.2383e-10
2.14538e-09
-4.42541e-10
2.26137e-09
-3.63829e-10
2.35989e-09
-2.92726e-10
2.44314e-09
-2.32659e-10
2.51375e-09
-1.85195e-10
2.5746e-09
-1.50473e-10
2.6285e-09
-1.27449e-10
2.67799e-09
-1.14225e-10
2.72511e-09
-1.08419e-10
2.77123e-09
-1.07474e-10
2.81709e-09
-1.08908e-10
2.86277e-09
-1.10525e-10
2.9078e-09
-1.10572e-10
2.95132e-09
-1.07821e-10
2.99221e-09
-1.01629e-10
3.02932e-09
-9.19259e-11
3.06159e-09
-7.91316e-11
3.08822e-09
-6.40153e-11
3.10868e-09
-4.75556e-11
3.12282e-09
-3.08212e-11
3.13083e-09
-1.4857e-11
3.13326e-09
-5.72617e-13
3.13094e-09
1.13324e-11
3.12488e-09
2.04174e-11
3.1162e-09
2.65074e-11
3.10601e-09
2.96681e-11
3.09533e-09
3.01679e-11
3.08507e-09
2.84318e-11
3.07595e-09
2.49812e-11
3.06849e-09
2.04271e-11
3.06308e-09
1.52024e-11
1.009e-11
3.34056e-09
7.13492e-11
3.45042e-09
2.08564e-10
3.58251e-09
3.1651e-10
3.7103e-09
3.83903e-10
3.8211e-09
4.19461e-10
3.90766e-09
4.30482e-10
3.96858e-09
4.21779e-10
4.00599e-09
3.98059e-10
4.02183e-09
3.67381e-10
4.01923e-09
3.34259e-10
4.0042e-09
3.00088e-10
3.98073e-09
2.66998e-10
3.95179e-09
2.36549e-10
3.91954e-09
2.10423e-10
3.88595e-09
1.88701e-10
3.85243e-09
1.71025e-10
3.81956e-09
1.57527e-10
3.78736e-09
1.48276e-10
3.75569e-09
1.42777e-10
3.72424e-09
1.40522e-10
3.69261e-09
1.4112e-10
3.66028e-09
1.44308e-10
3.62673e-09
1.49882e-10
3.59141e-09
1.57751e-10
3.55376e-09
1.67931e-10
3.51317e-09
1.80541e-10
3.46899e-09
1.95788e-10
3.4205e-09
2.13961e-10
3.3669e-09
2.35436e-10
3.3073e-09
2.60684e-10
3.24074e-09
2.9031e-10
3.16618e-09
3.25051e-10
3.08264e-09
3.66165e-10
2.98699e-09
4.3258e-10
2.8943e-09
3.7272e-10
2.8285e-09
1.62082e-10
2.79775e-09
-2.84194e-11
2.80516e-09
-1.81988e-10
2.85041e-09
-3.22816e-10
2.92892e-09
-4.57215e-10
3.03565e-09
-6.06771e-10
3.1569e-09
-6.54791e-10
3.28734e-09
-6.41995e-10
3.418e-09
-6.09513e-10
3.54317e-09
-5.58866e-10
3.66164e-09
-5.1501e-10
3.77383e-09
-4.79436e-10
3.87761e-09
-4.24715e-10
3.97371e-09
-3.9128e-10
4.06078e-09
-3.45037e-10
4.13911e-09
-2.941e-10
4.20898e-09
-2.47316e-10
4.26948e-09
-1.75968e-10
4.31977e-09
-1.19909e-10
4.35981e-09
-3.28309e-11
4.38767e-09
4.39126e-11
4.4031e-09
1.34762e-10
4.40379e-09
2.38267e-10
4.38945e-09
3.15181e-10
4.35636e-09
4.39038e-10
4.30548e-09
5.03936e-10
4.23375e-09
5.86522e-10
4.14195e-09
6.45024e-10
4.03049e-09
6.7983e-10
3.90044e-09
7.13867e-10
3.7561e-09
7.06338e-10
3.59927e-09
7.06815e-10
3.43582e-09
6.72385e-10
3.26849e-09
6.42388e-10
3.10153e-09
5.98011e-10
2.93904e-09
5.46996e-10
2.78145e-09
5.04522e-10
2.63306e-09
4.49203e-10
2.49369e-09
4.01904e-10
2.36393e-09
3.57107e-10
2.24497e-09
3.10732e-10
2.1359e-09
2.70773e-10
2.03621e-09
2.35543e-10
1.94556e-09
2.02363e-10
1.86336e-09
1.73456e-10
1.78842e-09
1.5e-10
1.72007e-09
1.29816e-10
1.65724e-09
1.13954e-10
1.59894e-09
1.0175e-10
1.54455e-09
9.1477e-11
1.49297e-09
8.48422e-11
1.44343e-09
8.0082e-11
1.39641e-09
7.28038e-11
1.3511e-09
6.81372e-11
1.30788e-09
6.25983e-11
1.26776e-09
5.27931e-11
1.23101e-09
4.41264e-11
1.19799e-09
3.48055e-11
1.17055e-09
2.02306e-11
1.14771e-09
1.08085e-11
1.13177e-09
-6.39784e-12
1.12135e-09
-1.69318e-11
1.11858e-09
-3.49871e-11
1.12193e-09
-4.62812e-11
1.13393e-09
-6.71251e-11
1.15277e-09
-8.04282e-11
1.18051e-09
-1.01707e-10
1.21631e-09
-1.20168e-10
1.26059e-09
-1.4025e-10
1.31402e-09
-1.65107e-10
1.37535e-09
-1.84841e-10
1.44542e-09
-2.11427e-10
1.52284e-09
-2.32892e-10
1.60719e-09
-2.56379e-10
1.69777e-09
-2.78293e-10
1.79336e-09
-2.98609e-10
1.89319e-09
-3.1688e-10
1.99621e-09
-3.34466e-10
2.10101e-09
-3.45256e-10
2.20745e-09
-3.60697e-10
2.3137e-09
-3.65846e-10
2.41926e-09
-3.71004e-10
2.52352e-09
-3.74695e-10
2.62542e-09
-3.71712e-10
2.72459e-09
-3.68058e-10
2.82076e-09
-3.63366e-10
2.91321e-09
-3.53286e-10
3.00197e-09
-3.42408e-10
3.08697e-09
-3.31968e-10
3.16811e-09
-3.18532e-10
3.24558e-09
-3.05427e-10
3.31955e-09
-2.92257e-10
3.39034e-09
-2.7906e-10
3.45836e-09
-2.6822e-10
3.52388e-09
-2.59578e-10
3.58728e-09
-2.47137e-10
3.64857e-09
-2.40168e-10
3.70859e-09
-2.38531e-10
3.76761e-09
-2.27362e-10
3.82559e-09
-2.2714e-10
3.88146e-09
-2.27347e-10
3.93567e-09
-2.08402e-10
3.98743e-09
-2.07127e-10
4.03649e-09
-1.88057e-10
4.08092e-09
-1.66945e-10
4.12074e-09
-1.37937e-10
4.15331e-09
-9.3317e-11
4.17869e-09
-4.08999e-11
4.19373e-09
2.28714e-11
4.19788e-09
1.09474e-10
4.18877e-09
1.81425e-10
4.16425e-09
3.00311e-10
4.12225e-09
3.8557e-10
4.06184e-09
4.8347e-10
3.97901e-09
5.82615e-10
3.87587e-09
6.45919e-10
3.74678e-09
7.36181e-10
3.59802e-09
7.63857e-10
3.42499e-09
8.15625e-10
3.2357e-09
8.12394e-10
3.02757e-09
8.25507e-10
2.8098e-09
7.93671e-10
2.58904e-09
7.53791e-10
2.39037e-09
6.46377e-10
2.21279e-09
5.35304e-10
2.12291e-09
1.74019e-10
2.08699e-09
-3.18888e-11
2.099e-09
-2.04953e-10
2.15208e-09
-3.51123e-10
2.24598e-09
-5.02381e-10
2.36476e-09
-6.06528e-10
2.49996e-09
-6.9434e-10
2.62642e-09
-6.50244e-10
2.73803e-09
-5.5411e-10
2.8366e-09
-4.62385e-10
2.92344e-09
-3.79557e-10
2.99995e-09
-3.0918e-10
3.06774e-09
-2.52995e-10
3.12854e-09
-2.11285e-10
3.18414e-09
-1.83054e-10
3.2362e-09
-1.66301e-10
3.28615e-09
-1.58379e-10
3.33501e-09
-1.56337e-10
3.3833e-09
-1.57211e-10
3.43109e-09
-1.58313e-10
3.47795e-09
-1.57442e-10
3.52312e-09
-1.5299e-10
3.56558e-09
-1.44084e-10
3.60424e-09
-1.30587e-10
3.6381e-09
-1.12997e-10
3.66635e-09
-9.22635e-11
3.68841e-09
-6.96176e-11
3.70403e-09
-4.64428e-11
3.71332e-09
-2.41397e-11
3.71671e-09
-3.96628e-12
3.71495e-09
1.3087e-11
3.709e-09
2.63624e-11
3.69995e-09
3.55529e-11
3.68893e-09
4.0682e-11
3.67704e-09
4.20586e-11
3.66525e-09
4.02182e-11
3.65438e-09
3.5843e-11
3.64506e-09
2.97421e-11
3.6377e-09
2.25683e-11
1.43985e-11
3.3246e-09
4.68163e-11
3.39239e-09
1.40942e-10
3.48944e-09
2.19648e-10
3.59742e-09
2.76022e-10
3.70523e-09
3.11659e-10
3.80541e-09
3.30244e-10
3.89255e-09
3.34591e-10
3.96317e-09
3.27425e-10
4.01779e-09
3.12748e-10
4.05829e-09
2.9375e-10
4.0864e-09
2.71987e-10
4.10329e-09
2.50103e-10
4.11001e-09
2.29817e-10
4.10931e-09
2.11135e-10
4.10328e-09
1.94732e-10
4.09338e-09
1.80924e-10
4.08056e-09
1.70349e-10
4.06542e-09
1.63409e-10
4.04865e-09
1.59554e-10
4.03049e-09
1.58684e-10
4.01095e-09
1.60662e-10
3.98987e-09
1.65384e-10
3.96701e-09
1.72746e-10
3.94203e-09
1.82731e-10
3.91454e-09
1.95419e-10
3.8841e-09
2.10981e-10
3.85021e-09
2.29679e-10
3.81231e-09
2.51859e-10
3.76979e-09
2.77955e-10
3.72197e-09
3.08496e-10
3.66815e-09
3.44129e-10
3.60761e-09
3.85596e-10
3.53972e-09
4.34053e-10
3.46271e-09
5.09597e-10
3.38477e-09
4.5066e-10
3.32112e-09
2.25739e-10
3.28245e-09
1.02528e-11
3.27588e-09
-1.75415e-10
3.30257e-09
-3.49507e-10
3.35827e-09
-5.12918e-10
3.43787e-09
-6.86372e-10
3.53241e-09
-7.49326e-10
3.63897e-09
-7.48534e-10
3.74754e-09
-7.18057e-10
3.85235e-09
-6.63638e-10
3.95188e-09
-6.14504e-10
4.04592e-09
-5.73447e-10
4.13403e-09
-5.12766e-10
4.215e-09
-4.72299e-10
4.28877e-09
-4.18782e-10
4.3561e-09
-3.61418e-10
4.41665e-09
-3.0787e-10
4.47143e-09
-2.3079e-10
4.51928e-09
-1.678e-10
4.56161e-09
-7.52059e-11
4.59694e-09
8.54807e-12
4.6259e-09
1.05765e-10
4.6473e-09
2.16816e-10
4.65983e-09
3.026e-10
4.66276e-09
4.36041e-10
4.65396e-09
5.1269e-10
4.63102e-09
6.09456e-10
4.5932e-09
6.82816e-10
4.53835e-09
7.34661e-10
4.46659e-09
7.8562e-10
4.37794e-09
7.94976e-10
4.27383e-09
8.10909e-10
4.1565e-09
7.89679e-10
4.02855e-09
7.70297e-10
3.89269e-09
7.33844e-10
3.75286e-09
6.8681e-10
3.61028e-09
6.47103e-10
3.46912e-09
5.90383e-10
3.33043e-09
5.4063e-10
3.19564e-09
4.91944e-10
3.06668e-09
4.39748e-10
2.9436e-09
3.93914e-10
2.82676e-09
3.52426e-10
2.71636e-09
3.12811e-10
2.61257e-09
2.77295e-10
2.51479e-09
2.47831e-10
2.42289e-09
2.21753e-10
2.33634e-09
2.00556e-10
2.25452e-09
1.83602e-10
2.17711e-09
1.68918e-10
2.10325e-09
1.58719e-10
2.03228e-09
1.51064e-10
1.96468e-09
1.40411e-10
1.89957e-09
1.33246e-10
1.83746e-09
1.24707e-10
1.77925e-09
1.10998e-10
1.72552e-09
9.78526e-11
1.67673e-09
8.35906e-11
1.6352e-09
6.17661e-11
1.60012e-09
4.58863e-11
1.57441e-09
1.93119e-11
1.55655e-09
9.30542e-13
1.54909e-09
-2.75236e-11
1.55023e-09
-4.74205e-11
1.56268e-09
-7.95708e-11
1.58408e-09
-1.01829e-10
1.61647e-09
-1.34093e-10
1.6584e-09
-1.62097e-10
1.71005e-09
-1.91891e-10
1.77157e-09
-2.26625e-10
1.84132e-09
-2.54597e-10
1.91966e-09
-2.89766e-10
2.00492e-09
-3.18149e-10
2.09618e-09
-3.47643e-10
2.19261e-09
-3.74725e-10
2.29258e-09
-3.98584e-10
2.39532e-09
-4.19618e-10
2.49949e-09
-4.38648e-10
2.60385e-09
-4.49618e-10
2.70802e-09
-4.64876e-10
2.81048e-09
-4.68316e-10
2.91073e-09
-4.71259e-10
3.0083e-09
-4.72271e-10
3.10241e-09
-4.65831e-10
3.19283e-09
-4.58481e-10
3.27949e-09
-4.50034e-10
3.36194e-09
-4.3575e-10
3.44043e-09
-4.20901e-10
3.51497e-09
-4.06523e-10
3.58572e-09
-3.89296e-10
3.65301e-09
-3.7272e-10
3.71707e-09
-3.56331e-10
3.77832e-09
-3.4032e-10
3.83713e-09
-3.27046e-10
3.89373e-09
-3.16198e-10
3.9487e-09
-3.02133e-10
4.0014e-09
-2.92897e-10
4.05393e-09
-2.91044e-10
4.1047e-09
-2.78135e-10
4.15422e-09
-2.76677e-10
4.20133e-09
-2.74469e-10
4.24825e-09
-2.55339e-10
4.29215e-09
-2.51048e-10
4.33414e-09
-2.30085e-10
4.37234e-09
-2.05177e-10
4.40754e-09
-1.73159e-10
4.43783e-09
-1.2365e-10
4.46402e-09
-6.71478e-11
4.48381e-09
3.03091e-12
4.49816e-09
9.50571e-11
4.50417e-09
1.75367e-10
4.50252e-09
3.01914e-10
4.48918e-09
3.98848e-10
4.46469e-09
5.0789e-10
4.42451e-09
6.2275e-10
4.3685e-09
7.01885e-10
4.29171e-09
8.12943e-10
4.19588e-09
8.59653e-10
4.07625e-09
9.35219e-10
3.93606e-09
9.52565e-10
3.77198e-09
9.89556e-10
3.58914e-09
9.76501e-10
3.39477e-09
9.4816e-10
3.21605e-09
8.25117e-10
3.04861e-09
7.02761e-10
2.94641e-09
2.76259e-10
2.8885e-09
2.60804e-11
2.87218e-09
-1.88598e-10
2.8935e-09
-3.72401e-10
2.95308e-09
-5.61913e-10
3.03523e-09
-6.88623e-10
3.13168e-09
-7.90719e-10
3.22259e-09
-7.41103e-10
3.30396e-09
-6.35428e-10
3.37773e-09
-5.36125e-10
3.44504e-09
-4.46849e-10
3.50682e-09
-3.70958e-10
3.56395e-09
-3.10122e-10
3.61727e-09
-2.64614e-10
3.66765e-09
-2.33447e-10
3.71593e-09
-2.14584e-10
3.7628e-09
-2.05263e-10
3.80879e-09
-2.02335e-10
3.8541e-09
-2.02533e-10
3.89865e-09
-2.02874e-10
3.94205e-09
-2.00847e-10
3.98359e-09
-1.94527e-10
4.02238e-09
-1.82877e-10
4.05752e-09
-1.65729e-10
4.08819e-09
-1.43668e-10
4.11371e-09
-1.17787e-10
4.13358e-09
-8.94876e-11
4.14754e-09
-6.03988e-11
4.15563e-09
-3.22352e-11
4.15824e-09
-6.57393e-12
4.156e-09
1.53284e-11
4.14974e-09
3.2614e-11
4.14045e-09
4.48412e-11
4.12916e-09
5.1972e-11
4.11688e-09
5.43299e-11
4.10456e-09
5.2534e-11
4.09299e-09
4.7404e-11
4.08281e-09
3.99229e-11
4.07438e-09