/*--------------------------------*- C++ -*----------------------------------*\
| =========                 |                                                 |
| \\      /  F ield         | OpenFOAM: The Open Source CFD Toolbox           |
|  \\    /   O peration     | Version:  2506                                  |
|   \\  /    A nd           | Website:  www.openfoam.com                      |
|    \\/     M anipulation  |                                                 |
\*---------------------------------------------------------------------------*/
FoamFile
{
    version     2.0;
    format      ascii;
    arch        "LSB;label=32;scalar=64";
    class       volVectorField;
    location    "3.2";
    object      vorticityField;
}
// * * * * * * * * * * * * * * * * * * * * * * * * * * * * * * * * * * * * * //

dimensions      [0 0 -1 0 0 0 0];

internalField   nonuniform List<vector> 
4000
(
(4.54667e-19 2.4511e-19 40.2499)
(-2.92196e-20 8.72825e-20 43.8102)
(2.71648e-19 7.64115e-19 36.9211)
(4.8035e-20 1.00719e-18 30.0251)
(4.56534e-19 1.15864e-18 25.3375)
(2.28481e-20 3.71453e-21 22.0397)
(-1.68863e-19 1.42341e-18 19.5132)
(1.18097e-19 1.44736e-18 17.5513)
(6.67083e-20 -2.54054e-20 16.0103)
(3.90894e-20 5.22033e-19 14.7747)
(-3.33656e-19 3.23726e-17 13.7648)
(1.73979e-18 -6.3581e-17 12.9282)
(-1.20674e-18 3.05432e-17 12.2281)
(1.30973e-18 -3.19559e-17 11.638)
(-2.01908e-18 3.25151e-17 11.1382)
(1.64417e-18 1.82571e-18 10.714)
(-1.37134e-18 3.12515e-17 10.3537)
(1.82714e-18 -3.25004e-17 10.0481)
(1.11674e-18 2.40463e-18 9.78953)
(-1.8159e-18 -5.61215e-20 9.57132)
(1.41279e-19 -6.06752e-20 9.38749)
(2.57901e-18 -1.75038e-18 9.23244)
(-2.43704e-18 -1.64068e-18 9.10057)
(-2.65509e-18 -2.27734e-20 8.98593)
(2.79896e-18 -1.75477e-18 8.882)
(1.6998e-19 -1.59977e-18 8.78135)
(3.49514e-18 9.85153e-20 8.67517)
(-4.5848e-19 3.54044e-18 8.55303)
(-1.07434e-17 5.75402e-17 8.40418)
(3.71953e-18 -6.6152e-17 8.18554)
(5.0265e-18 -4.76506e-18 7.82671)
(1.04744e-17 -1.08879e-16 7.74125)
(2.53563e-18 1.71803e-16 8.33147)
(4.19852e-17 -6.65489e-17 9.62783)
(2.26168e-17 -2.38459e-17 11.5481)
(-5.87927e-18 9.31878e-16 14.0879)
(6.01639e-17 -2.1375e-16 16.9257)
(-6.57801e-17 -1.41828e-16 21.6841)
(6.0114e-19 3.52829e-17 29.34)
(5.56109e-17 5.48688e-17 37.795)
(-2.2589e-17 4.15785e-17 45.9519)
(1.99479e-16 5.59486e-16 53.2413)
(1.73931e-18 -9.15403e-18 59.4676)
(4.97958e-16 2.89718e-16 64.5798)
(-2.26555e-16 -1.63355e-16 68.5578)
(-5.09971e-18 4.66439e-16 71.4969)
(-2.10688e-17 -1.04531e-16 73.3611)
(3.63664e-17 -4.51746e-16 74.3058)
(-3.06422e-16 -1.54107e-16 74.5442)
(-2.63179e-16 -1.09973e-16 74.2491)
(2.38308e-17 4.91e-17 73.472)
(-2.80879e-18 -5.16734e-18 71.8846)
(-4.82704e-17 -1.8171e-17 70.122)
(-1.59371e-17 4.19033e-16 67.4103)
(-1.75408e-16 2.67353e-16 63.6446)
(2.8692e-17 -3.79394e-16 57.8439)
(-6.27089e-17 -8.49639e-17 50.2389)
(1.65675e-17 5.13191e-17 40.1865)
(4.47701e-19 -1.28516e-18 28.23)
(9.46116e-20 -4.72814e-17 15.8995)
(-1.78096e-18 -1.38757e-16 5.92795)
(8.66268e-18 -1.99957e-17 -1.11299)
(2.87686e-17 4.53879e-16 -5.27779)
(-1.62015e-17 -4.97185e-16 -6.8722)
(-4.89487e-19 -1.43609e-17 -7.32924)
(2.69328e-18 -2.35667e-18 -7.07479)
(-4.0302e-19 3.62259e-18 -6.48481)
(-9.82838e-18 -7.03107e-18 -5.84373)
(-1.59057e-17 -9.40708e-16 -5.27098)
(-4.31567e-17 -4.99854e-16 -4.77555)
(1.5205e-18 -5.42822e-17 -4.35131)
(4.70798e-17 3.93185e-16 -3.98019)
(-1.2775e-18 -3.83521e-16 -3.65275)
(1.34556e-17 -1.55877e-16 -3.36113)
(3.03059e-17 4.62211e-16 -3.09887)
(-2.06679e-17 -3.03076e-16 -2.85948)
(-4.05137e-17 -3.73861e-16 -2.63817)
(-6.77054e-18 -4.38669e-16 -2.43351)
(1.81339e-18 -2.45721e-17 -2.25012)
(1.58399e-17 -1.53037e-17 -2.08071)
(-1.356e-17 7.47823e-18 -1.92408)
(1.17894e-17 3.0628e-16 -1.78485)
(-4.18399e-19 2.51328e-17 -1.67283)
(-8.42494e-18 -2.81426e-16 -1.58012)
(-3.49142e-19 2.5303e-16 -1.51891)
(5.57529e-20 7.35711e-18 -1.49034)
(-1.16677e-19 5.75375e-20 -1.50314)
(1.01874e-19 1.41825e-17 -1.52757)
(-1.98771e-19 4.40035e-17 -1.55863)
(-1.2675e-18 -1.17199e-16 -1.58663)
(1.35562e-19 1.63099e-18 -1.56804)
(-5.34796e-18 6.69953e-18 -1.48242)
(-7.79634e-18 -2.47308e-17 -1.26253)
(1.02932e-17 2.58967e-17 -0.838214)
(-2.6441e-17 3.35877e-16 -0.189967)
(2.09505e-18 3.52712e-16 0.598014)
(-3.03919e-17 3.15503e-16 1.45542)
(-1.70042e-17 8.40704e-18 2.17275)
(1.14076e-17 4.14538e-16 2.45363)
(1.04585e-17 3.96435e-16 2.31196)
(3.33257e-19 -4.70449e-18 1.88676)
(-4.22265e-17 4.63168e-16 1.37299)
(-1.87502e-17 8.5215e-16 0.991205)
(-1.64036e-18 -1.31228e-17 1.03192)
(-1.05512e-17 4.32195e-16 1.60192)
(-1.49329e-18 -5.1454e-17 2.84644)
(-4.05414e-17 -5.01107e-16 4.7877)
(-4.83066e-17 -4.16604e-16 7.29206)
(-1.71409e-17 -2.23778e-17 10.1976)
(-1.69449e-17 -3.02636e-17 13.3272)
(-5.55488e-17 -3.72435e-16 16.5623)
(7.75098e-17 3.88535e-16 19.2972)
(-3.28238e-19 7.83389e-18 21.6374)
(4.00309e-17 7.32169e-16 22.5999)
(-1.0462e-17 1.64699e-16 22.0806)
(1.30911e-17 3.60163e-16 19.483)
(-3.21283e-20 -6.72847e-18 14.6141)
(-2.90807e-19 9.66378e-17 8.12154)
(-5.8044e-19 -1.28697e-17 1.62043)
(-7.9657e-20 -7.44374e-19 -3.57471)
(1.15552e-18 2.74555e-17 -6.8023)
(-1.99043e-17 -5.08006e-16 -8.18418)
(2.15049e-17 4.27813e-16 -8.48103)
(4.77653e-20 2.88897e-17 -7.92662)
(2.28861e-17 5.14981e-16 -7.15221)
(-4.22202e-17 -9.12577e-16 -6.39823)
(4.45331e-17 3.68973e-16 -5.7429)
(5.84176e-18 -5.19492e-16 -5.18037)
(3.21363e-17 -7.77665e-17 -4.70576)
(-1.51735e-17 -4.42802e-16 -4.30304)
(-1.08784e-18 -5.69746e-17 -3.95238)
(4.52202e-17 3.89258e-16 -3.64071)
(-3.62685e-17 1.21551e-17 -3.35892)
(2.91166e-17 4.28153e-16 -3.10207)
(1.74203e-17 1.36465e-17 -2.86773)
(2.43685e-18 2.31045e-17 -2.65159)
(-1.9934e-17 -3.71147e-16 -2.45078)
(2.04762e-17 3.2618e-16 -2.26139)
(-1.4139e-18 2.30156e-17 -2.09023)
(-1.15597e-17 -7.03278e-18 -1.94171)
(9.57491e-18 2.97115e-16 -1.80247)
(-2.24037e-18 -6.93133e-17 -1.689)
(1.85751e-17 3.35292e-16 -1.59976)
(-1.44442e-18 1.75749e-17 -1.54088)
(-7.82186e-19 -1.85303e-16 -1.52751)
(-2.11465e-18 -1.28338e-16 -1.54398)
(-1.95697e-19 9.3451e-17 -1.58456)
(4.21623e-19 -6.48409e-17 -1.65813)
(-1.43395e-18 1.22826e-18 -1.68918)
(-2.67139e-18 7.29302e-17 -1.65982)
(-2.07403e-18 -1.95487e-17 -1.52667)
(1.6035e-17 -4.76546e-16 -1.17356)
(-1.98099e-18 1.0319e-16 -0.574262)
(-2.56284e-17 -4.81069e-18 0.259241)
(-1.77141e-17 2.81241e-16 1.24791)
(-6.37987e-18 7.72817e-17 2.29792)
(3.2454e-18 -1.36873e-18 3.0388)
(2.24817e-17 2.46831e-17 3.34088)
(-1.3997e-17 -6.21694e-17 3.28174)
(6.10293e-18 -9.16712e-16 3.06713)
(9.32533e-18 1.9793e-16 2.92999)
(1.32877e-17 5.09357e-16 3.15834)
(-2.59873e-17 3.5958e-16 4.47995)
(-6.10483e-18 -3.49214e-17 5.25619)
(3.0856e-17 -4.10611e-16 6.81574)
(4.24754e-19 -6.24728e-16 8.34095)
(4.5487e-18 2.162e-17 9.51036)
(-2.01828e-18 -8.83762e-17 10.1333)
(1.21863e-18 -2.38803e-16 9.87125)
(-6.51484e-19 -7.0035e-17 8.6223)
(2.9127e-18 2.27896e-18 6.81906)
(-2.137e-20 -1.16647e-18 5.32982)
(1.95554e-18 9.8407e-21 4.36921)
(-1.89574e-18 -1.20878e-18 3.81752)
(-2.25981e-19 -2.26403e-18 3.5481)
(8.12727e-21 -8.13839e-17 3.47277)
(-1.06476e-18 8.38131e-17 3.52695)
(-8.84988e-20 3.8641e-17 3.65988)
(1.30294e-18 -4.12948e-17 3.8375)
(5.60757e-21 3.81408e-17 4.03896)
(6.26308e-19 -8.03594e-17 4.25374)
(-4.81866e-19 3.93091e-17 4.47996)
(-8.09653e-19 -5.05981e-19 4.71988)
(8.01152e-19 -1.09597e-18 4.97942)
(-5.68326e-20 4.87386e-19 5.26465)
(1.64787e-18 -3.88251e-17 5.58055)
(-1.70083e-18 3.7036e-17 5.93175)
(1.86693e-18 -3.76449e-17 6.32414)
(-1.89829e-18 3.68166e-17 6.76449)
(9.84228e-19 -1.98701e-17 7.26171)
(-1.04254e-18 1.78427e-17 7.82996)
(6.07392e-20 -1.41381e-18 8.49392)
(-7.89754e-20 -9.58037e-19 9.29854)
(-7.9539e-19 -9.45478e-21 10.3294)
(9.13524e-19 -9.68124e-19 11.7563)
(-1.02726e-19 -1.39447e-18 13.926)
(8.95631e-19 -7.66078e-18 17.5601)
(-7.64376e-19 8.68117e-18 24.3707)
(-7.6048e-21 -7.25501e-19 35.6425)
(5.4356e-20 -1.06866e-19 35.8995)
(4.81457e-20 -2.4077e-19 -3.04784)
(6.1004e-19 -2.28762e-19 13.5359)
(-2.73486e-19 -6.74353e-19 17.8172)
(1.57248e-18 1.52224e-18 18.9261)
(-2.57114e-18 -9.6416e-18 18.9298)
(1.55171e-19 -6.36905e-19 18.4309)
(1.29667e-18 5.61624e-18 17.7439)
(-3.4676e-19 -3.20764e-18 17.0222)
(-2.88209e-19 -1.62427e-18 16.3351)
(-3.87982e-19 -1.82494e-18 15.7042)
(3.69154e-19 -4.09203e-18 15.133)
(-2.06319e-18 -2.20964e-17 14.619)
(1.77814e-18 2.23762e-17 14.157)
(-2.65209e-18 -2.10741e-17 13.7411)
(1.94889e-18 4.05313e-17 13.366)
(-1.49383e-18 -4.87642e-17 13.0267)
(1.42494e-18 2.05148e-17 12.7189)
(-1.15665e-18 -2.67517e-17 12.4387)
(-2.54241e-18 -2.4358e-17 12.1825)
(2.0396e-18 4.39782e-17 11.947)
(2.82133e-19 -6.46869e-18 11.7292)
(-9.90577e-19 -4.39742e-17 11.5256)
(2.21181e-18 5.22393e-17 11.3324)
(-2.16204e-18 3.83829e-17 11.1465)
(-2.98943e-18 -4.65601e-17 10.9637)
(2.5296e-18 -1.5139e-18 10.7795)
(3.49699e-18 -4.56813e-17 10.5883)
(-4.96611e-18 1.31498e-17 10.3833)
(3.96792e-18 9.19978e-17 10.1555)
(-1.81552e-18 -9.63076e-18 9.88938)
(4.672e-19 -5.10078e-17 9.54343)
(-7.99786e-18 -5.63385e-17 9.04889)
(-7.5173e-18 -1.63886e-16 8.45321)
(-4.13699e-17 -2.97628e-16 7.69034)
(1.58501e-18 -1.8526e-16 6.64642)
(5.51015e-17 -1.70306e-16 5.34682)
(4.98949e-17 6.17156e-17 3.911)
(4.10061e-17 1.23439e-16 2.44986)
(-5.16892e-17 -1.08134e-16 1.17336)
(-1.1548e-16 -1.30142e-16 0.366671)
(-2.59874e-16 -2.33068e-16 0.145516)
(-1.77481e-16 -8.98697e-17 0.405127)
(3.03674e-17 -5.17512e-18 1.00307)
(-4.82437e-16 -2.38065e-16 1.83839)
(2.62459e-16 1.82269e-16 2.84192)
(-3.43955e-16 -1.63253e-16 3.87051)
(4.05917e-16 2.61117e-16 4.88881)
(-6.14438e-18 -4.25935e-17 5.93797)
(-5.04848e-17 2.65011e-17 6.90656)
(2.68736e-16 1.13535e-16 7.91255)
(-3.35942e-16 -1.67579e-16 8.92716)
(3.51184e-17 6.4529e-17 9.99721)
(2.85663e-16 9.56806e-17 11.2492)
(-3.27078e-17 -9.88885e-18 12.8302)
(1.86737e-16 1.31504e-16 14.87)
(-7.99914e-18 -1.41995e-17 17.3911)
(6.13053e-17 8.26634e-17 20.0331)
(-2.87058e-17 -6.38402e-17 22.4352)
(-5.03676e-18 -4.98159e-18 23.4435)
(2.95635e-18 3.32748e-17 21.9344)
(4.22264e-18 1.431e-16 17.316)
(3.04324e-18 3.73762e-16 11.1815)
(9.31587e-19 4.8511e-16 5.56953)
(1.52485e-17 5.19923e-16 1.06504)
(1.09813e-17 -6.33476e-17 -1.94888)
(-1.44882e-17 8.05065e-17 -3.36833)
(-3.36211e-19 2.77917e-18 -4.0365)
(9.19204e-18 -6.27545e-17 -4.29793)
(5.39418e-17 1.08647e-15 -4.25715)
(2.82211e-17 -5.41782e-16 -4.04346)
(2.18293e-18 -1.31858e-16 -3.76749)
(-1.1784e-18 6.50769e-16 -3.49006)
(4.41911e-17 4.16618e-16 -3.22788)
(3.40705e-17 5.37094e-16 -2.9822)
(-3.22411e-17 9.53848e-17 -2.75245)
(-2.62348e-18 8.83733e-20 -2.53671)
(3.53815e-17 -5.78993e-16 -2.33437)
(2.67163e-17 3.60931e-16 -2.13754)
(-3.51886e-19 2.95406e-17 -1.95359)
(-1.32374e-17 4.38444e-16 -1.77787)
(1.18202e-17 -3.73514e-16 -1.61117)
(-1.11662e-17 -9.33302e-18 -1.43915)
(-4.71692e-20 3.14071e-20 -1.27913)
(8.16768e-18 3.70621e-18 -1.10552)
(-6.94742e-18 -2.94163e-16 -0.925925)
(3.04205e-19 5.41518e-19 -0.704611)
(-8.99867e-19 -1.60606e-17 -0.439352)
(2.11993e-19 1.67249e-17 -0.10916)
(4.98485e-19 -1.1984e-17 0.259875)
(-1.44805e-18 2.82838e-16 0.581108)
(9.27058e-19 -2.11958e-17 0.774354)
(1.00505e-17 3.0593e-17 0.799781)
(6.27783e-19 2.91362e-16 0.659984)
(-1.42659e-17 -3.44404e-16 0.333332)
(1.12063e-17 3.57378e-16 -0.0723939)
(2.54014e-17 -3.20339e-16 -0.394349)
(5.19482e-17 4.37711e-16 -0.539343)
(2.95975e-17 3.68951e-16 -0.472694)
(7.22657e-18 -4.31955e-16 -0.232222)
(-7.59426e-18 -3.78961e-16 0.0545331)
(-5.58362e-19 5.02319e-17 0.431285)
(4.99047e-17 4.62755e-16 0.852566)
(3.94438e-17 -4.30207e-16 1.27328)
(-1.60874e-17 2.03232e-17 1.66264)
(4.54682e-17 1.08457e-17 2.08866)
(1.55865e-18 4.83524e-17 2.51759)
(6.78888e-17 9.45165e-16 2.98225)
(7.11894e-17 8.57493e-16 3.50221)
(4.95042e-17 3.65795e-16 4.04234)
(7.30522e-17 3.61314e-16 4.65208)
(3.48177e-17 3.25449e-16 5.32472)
(-1.3124e-16 -7.11985e-16 6.07255)
(5.24441e-18 3.6764e-17 6.94091)
(-1.61698e-17 -3.10058e-16 8.00106)
(1.24308e-17 4.37145e-17 9.35033)
(-7.14294e-18 -1.47592e-16 10.8799)
(-2.05001e-18 -1.32101e-17 12.182)
(-6.74233e-18 -6.90343e-17 12.3621)
(-2.758e-19 -1.20064e-17 10.5323)
(3.453e-19 1.20755e-17 6.92795)
(-2.30779e-19 -1.47397e-17 3.04326)
(3.65934e-17 4.63657e-16 -0.602798)
(-1.92977e-17 4.85636e-17 -2.9839)
(-3.81055e-18 -2.33222e-17 -4.19574)
(-6.39832e-17 -4.52206e-16 -4.73749)
(8.83733e-17 3.78396e-16 -4.83316)
(-3.0124e-17 5.5054e-16 -4.65756)
(5.66939e-17 9.54077e-16 -4.35696)
(5.09235e-17 1.00524e-15 -4.02255)
(1.82785e-17 4.60768e-16 -3.70852)
(5.58597e-18 5.38004e-17 -3.42093)
(-1.12767e-17 5.71969e-16 -3.15487)
(-3.81413e-17 -8.64364e-16 -2.90828)
(-2.57066e-17 5.93716e-17 -2.67684)
(1.49174e-17 3.25181e-16 -2.45942)
(6.42421e-18 1.34691e-17 -2.25363)
(1.44877e-18 -4.07728e-19 -2.05735)
(-3.85844e-17 5.69552e-17 -1.87111)
(-1.4974e-18 -7.60154e-17 -1.68407)
(3.04026e-18 -2.61944e-16 -1.50478)
(-2.01728e-18 -9.11586e-17 -1.33045)
(-9.37115e-19 -7.64327e-18 -1.14442)
(-1.00453e-17 1.58854e-16 -0.962729)
(-5.79129e-18 -1.32983e-16 -0.748695)
(8.49952e-18 1.87359e-16 -0.507728)
(2.62086e-18 4.25981e-18 -0.205838)
(-7.47836e-19 6.3947e-17 0.162997)
(1.08437e-18 -6.45542e-17 0.525404)
(-1.50281e-18 1.37528e-16 0.778344)
(7.61258e-18 2.08941e-18 0.868917)
(-2.84279e-18 -1.77594e-18 0.796846)
(-1.14442e-17 -8.44896e-18 0.554011)
(1.47457e-17 4.31001e-17 0.213861)
(2.82333e-17 8.25973e-16 -0.106649)
(2.48578e-17 1.7613e-16 -0.274506)
(4.98241e-18 8.71497e-17 -0.257901)
(5.44348e-18 -1.25289e-16 -0.0231605)
(-6.50318e-17 -6.72298e-16 0.273969)
(1.31124e-17 2.77818e-16 0.638936)
(-2.40297e-17 4.10311e-16 1.06181)
(-1.54705e-17 -5.2194e-17 1.54127)
(7.51799e-18 -3.4578e-16 2.05843)
(2.21826e-17 1.53902e-16 2.67384)
(-1.39169e-17 -3.40873e-17 2.95862)
(-5.76502e-17 -4.35887e-16 3.37411)
(-4.77711e-18 3.48655e-16 3.84586)
(-3.16316e-18 -1.439e-17 4.45375)
(2.57895e-18 3.44952e-18 5.25542)
(-1.18661e-17 8.18119e-17 6.21685)
(-7.17754e-19 6.30231e-17 7.17154)
(-2.73729e-18 -6.48552e-17 7.87836)
(2.30133e-18 1.57728e-18 8.22693)
(-7.0445e-19 -7.09145e-17 8.29726)
(1.21286e-18 7.29173e-17 8.2738)
(8.91841e-20 2.94333e-18 8.22959)
(8.003e-20 7.14314e-17 8.20197)
(1.0506e-18 -3.25632e-18 8.20768)
(-9.01483e-19 -3.7446e-17 8.24777)
(-4.94365e-19 -3.13374e-17 8.31682)
(1.43282e-19 -3.1797e-17 8.40925)
(-5.56044e-19 3.36634e-17 8.52095)
(5.7796e-19 -6.91115e-19 8.65017)
(-2.2576e-19 3.23265e-17 8.79744)
(4.02928e-20 -3.41872e-17 8.96403)
(-7.67055e-20 -1.12729e-18 9.15317)
(4.43349e-19 -2.79695e-17 9.36813)
(-3.75783e-19 3.42291e-17 9.6126)
(4.5805e-19 -3.05051e-17 9.89109)
(-1.52445e-18 3.3667e-17 10.2093)
(1.35548e-18 -1.23875e-17 10.5752)
(-3.05074e-19 1.60131e-17 11.0005)
(-2.59971e-19 -8.96537e-19 11.5045)
(5.89751e-21 3.14624e-18 12.1214)
(-5.35329e-19 1.19377e-17 12.9142)
(2.16463e-19 -1.35764e-17 14.0038)
(-1.36548e-19 2.78862e-18 15.6137)
(-7.30894e-19 4.24311e-19 18.0619)
(1.207e-18 -1.37116e-18 21.1086)
(3.62785e-19 6.15046e-19 20.1057)
(-8.38457e-19 -1.30283e-19 -5.09276)
(1.02147e-19 -1.10094e-20 -10.1965)
(-2.27963e-18 4.38506e-19 1.45841)
(1.11434e-18 -2.13285e-19 6.45818)
(1.03564e-18 -3.15998e-19 8.97715)
(-2.01802e-18 -1.05196e-19 10.2872)
(1.77771e-18 2.24371e-18 10.9283)
(-1.5744e-18 -2.49927e-18 11.1922)
(4.09178e-20 1.75613e-18 11.2494)
(1.45802e-19 1.78772e-18 11.1898)
(8.84737e-19 3.4804e-18 11.0636)
(3.65817e-20 1.92716e-18 10.9005)
(-7.22559e-20 3.42325e-18 10.7187)
(-5.51852e-19 -1.12398e-17 10.529)
(1.92499e-18 2.80432e-17 10.3378)
(5.17498e-19 -1.1399e-17 10.1489)
(-9.04989e-19 1.63623e-17 9.96468)
(5.23321e-19 -9.34601e-18 9.78613)
(1.78493e-19 7.77319e-18 9.61372)
(-3.04195e-18 3.01015e-17 9.44732)
(3.15335e-18 -2.92498e-17 9.28644)
(-3.45244e-19 4.59071e-18 9.13019)
(-4.29312e-18 2.80277e-18 8.97735)
(4.19004e-18 -2.88809e-17 8.82629)
(2.88419e-18 3.92143e-17 8.675)
(-1.53831e-18 2.64957e-17 8.52098)
(3.83904e-18 -3.23252e-17 8.3611)
(-8.27326e-18 -2.6539e-17 8.19146)
(-1.24104e-20 3.31314e-17 8.00717)
(4.05699e-18 -3.26582e-18 7.80136)
(4.58256e-18 5.68387e-20 7.56501)
(-8.95364e-18 -2.17669e-19 7.26303)
(1.30838e-18 1.99483e-17 6.74407)
(8.29003e-18 1.64117e-16 5.99665)
(9.31243e-18 1.1617e-16 5.04815)
(-5.81477e-17 -1.85274e-16 3.9371)
(2.07452e-18 -1.01195e-17 2.72856)
(-5.51416e-17 -1.76242e-16 1.49844)
(3.4483e-17 1.10013e-16 0.380079)
(1.36994e-16 1.18782e-16 -0.534888)
(-5.59526e-17 1.71739e-18 -1.13528)
(3.77893e-16 2.86987e-16 -1.36904)
(-5.75941e-18 -1.13978e-16 -1.29519)
(-3.10981e-16 -2.3445e-16 -0.996116)
(-3.68978e-16 -2.00322e-16 -0.534252)
(5.31775e-17 9.7524e-17 0.0457295)
(2.1292e-16 2.69467e-17 0.718021)
(-5.67398e-16 -2.94285e-16 1.33446)
(-3.37692e-16 -1.21313e-16 1.94082)
(-1.03544e-16 -1.93569e-17 2.51815)
(2.47075e-17 3.70107e-17 3.01136)
(4.80993e-18 -2.64352e-17 3.49547)
(-6.5516e-17 -3.06526e-17 3.99843)
(4.74591e-17 2.47351e-17 4.572)
(-4.70548e-18 1.3087e-17 5.30462)
(2.56217e-16 5.74404e-17 6.29921)
(-9.48924e-17 -3.61791e-17 7.67176)
(-8.81683e-17 -1.08532e-17 9.54142)
(4.61735e-17 1.69255e-17 12.0062)
(3.90817e-18 5.56209e-18 14.912)
(2.19683e-19 -9.39698e-19 17.822)
(-1.97902e-18 3.26969e-17 19.1141)
(-1.46257e-17 -2.58697e-17 17.6782)
(-2.94328e-17 -1.84454e-17 14.0039)
(-1.72422e-17 -4.77286e-16 9.46129)
(-7.92494e-18 4.95882e-16 5.38684)
(-3.64134e-17 -4.91213e-16 2.17052)
(2.28646e-17 -3.74638e-17 -0.127828)
(-2.84152e-18 5.09858e-17 -1.38682)
(-1.03493e-16 -1.10101e-15 -1.98448)
(8.10083e-17 1.01071e-15 -2.30865)
(-2.10615e-17 9.7068e-17 -2.45607)
(-5.5607e-17 -4.066e-16 -2.45702)
(-2.74763e-17 5.3014e-18 -2.38144)
(-1.3394e-17 5.05865e-16 -2.25748)
(-2.99626e-17 -4.4395e-16 -2.10499)
(1.22923e-17 -5.52923e-16 -1.93989)
(5.32047e-17 8.76007e-16 -1.76985)
(-2.01932e-17 4.36808e-17 -1.59086)
(-1.83968e-17 2.75161e-17 -1.41135)
(-3.4687e-17 -7.62179e-16 -1.23017)
(3.32212e-17 6.74277e-16 -1.04724)
(1.10436e-17 3.62193e-17 -0.849157)
(-9.83295e-18 7.16734e-18 -0.646411)
(-2.07756e-19 -1.774e-17 -0.415727)
(1.40922e-17 2.82208e-16 -0.163629)
(-4.14114e-19 8.64718e-18 0.127681)
(4.08157e-19 -6.56645e-17 0.44071)
(-1.01889e-19 -1.9525e-18 0.747446)
(1.65669e-19 -5.15451e-17 0.998478)
(7.12119e-18 -2.63629e-16 1.12027)
(1.10513e-18 -2.9107e-17 1.04257)
(1.08796e-17 -5.82324e-16 0.755372)
(7.53127e-18 -2.57143e-16 0.318496)
(-1.27232e-17 6.33387e-16 -0.174739)
(1.55934e-17 -1.23649e-17 -0.568952)
(-2.94856e-17 -4.26636e-16 -0.757641)
(-1.6873e-17 -7.30165e-16 -0.735722)
(3.69744e-18 -3.26067e-16 -0.491159)
(-3.40541e-17 8.81022e-18 -0.0866887)
(2.50451e-17 4.27249e-16 0.394057)
(1.86167e-19 -4.7331e-17 0.887047)
(1.18853e-17 -4.16493e-16 1.32225)
(-2.0642e-17 3.05455e-17 1.65241)
(3.08982e-17 4.18948e-16 1.86215)
(-1.48947e-17 -4.67e-16 2.00517)
(-1.2961e-18 -1.80707e-17 2.09914)
(-2.8354e-17 -8.1069e-16 2.18803)
(1.72828e-17 -3.17452e-16 2.28848)
(3.915e-17 8.84069e-18 2.41003)
(-4.22581e-17 -3.54168e-16 2.56263)
(2.0329e-17 4.54612e-17 2.74376)
(3.3989e-17 2.94262e-16 2.99706)
(-6.32567e-19 -2.19393e-17 3.34923)
(-9.08645e-17 -2.71355e-16 3.85456)
(2.29216e-18 2.30315e-17 4.67005)
(-5.17134e-18 -1.40934e-18 5.90272)
(-4.95429e-19 -2.51933e-20 7.62937)
(7.11983e-18 6.97705e-17 9.71779)
(2.32242e-19 1.86479e-19 11.4079)
(-9.59972e-19 -1.1922e-17 11.4963)
(1.58174e-18 2.50666e-17 9.59478)
(-1.85622e-17 -1.5531e-18 6.68423)
(-1.53603e-17 1.0765e-17 3.69581)
(2.42111e-18 1.85943e-17 0.971652)
(-4.78325e-18 -6.09276e-16 -0.890803)
(6.93906e-18 6.58451e-16 -1.89378)
(-8.83571e-17 -1.00892e-15 -2.35734)
(-8.95277e-17 -4.93549e-16 -2.59195)
(-6.32553e-17 5.56162e-17 -2.64055)
(-4.4615e-17 -4.66513e-16 -2.58216)
(-1.25369e-17 8.26936e-17 -2.45836)
(-3.09595e-17 -4.46885e-16 -2.30213)
(2.41983e-17 -1.97843e-16 -2.13333)
(-7.42273e-18 8.44086e-18 -1.95549)
(-9.45779e-18 -3.55257e-17 -1.77256)
(2.05226e-17 1.05506e-16 -1.58767)
(-1.4348e-17 -3.49733e-16 -1.40049)
(-2.39972e-17 -7.7536e-16 -1.21321)
(5.85926e-19 -6.08281e-17 -1.01597)
(5.50875e-18 3.18982e-16 -0.81155)
(5.33297e-19 4.30396e-16 -0.598337)
(-1.16023e-17 -4.5018e-17 -0.362225)
(-7.25191e-18 -2.10796e-16 -0.115176)
(5.11069e-19 -1.47678e-16 0.161418)
(-3.35166e-18 1.27716e-16 0.463929)
(1.39013e-18 3.55345e-17 0.77367)
(1.67282e-19 -2.30411e-20 1.0381)
(2.41517e-18 -1.98486e-16 1.19879)
(4.1769e-18 -1.43189e-16 1.1599)
(7.06105e-18 -3.48017e-16 0.902056)
(-8.69858e-18 1.51451e-16 0.478642)
(6.04626e-19 -9.49349e-17 -0.0225993)
(-8.64238e-18 -3.60718e-16 -0.465406)
(2.63535e-18 -6.9455e-16 -0.70875)
(7.65608e-18 -3.25706e-16 -0.709515)
(-5.63689e-18 -6.36418e-18 -0.505254)
(-3.16068e-17 -3.71921e-16 -0.13095)
(4.48404e-17 1.18536e-15 0.318913)
(1.97898e-17 6.90497e-17 0.803519)
(3.43005e-18 1.79854e-17 1.23995)
(3.479e-17 4.59205e-16 1.5914)
(-2.91058e-17 -4.70605e-17 1.86381)
(2.65479e-18 1.25873e-17 2.05072)
(3.4345e-17 2.93867e-16 2.04399)
(4.3302e-18 3.99945e-16 2.12491)
(6.50589e-19 -1.54525e-17 2.26057)
(-3.80642e-18 -5.8935e-18 2.52182)
(-1.44985e-17 -1.26676e-16 2.93667)
(1.86408e-17 1.34513e-16 3.54097)
(-1.29277e-18 -5.00608e-18 4.35396)
(-1.43848e-18 -5.26849e-18 5.24115)
(-2.64194e-18 -5.90471e-17 5.9873)
(-1.50955e-18 3.69008e-18 6.4904)
(3.43009e-18 -3.65807e-18 6.78728)
(-1.92674e-18 -6.68438e-18 6.9392)
(1.9879e-19 -5.89049e-17 7.00661)
(1.87937e-18 -5.54315e-19 7.03656)
(-1.93233e-18 6.01907e-17 7.05982)
(1.38662e-20 -2.61408e-18 7.09295)
(-1.08039e-18 2.75123e-17 7.14348)
(1.25689e-19 -2.98566e-17 7.21347)
(7.90391e-19 2.5403e-18 7.30257)
(-1.47974e-19 -3.17039e-22 7.40995)
(1.57726e-20 1.94387e-18 7.53532)
(-7.85347e-20 2.13693e-18 7.6795)
(-2.54613e-19 -2.63479e-17 7.84451)
(4.04779e-19 2.32641e-17 8.03331)
(-1.79725e-19 -2.27747e-17 8.25037)
(-6.28767e-19 4.43981e-17 8.50232)
(8.02293e-19 -3.68153e-17 8.79897)
(2.20481e-19 1.2693e-17 9.15551)
(3.82652e-21 3.17831e-18 9.59684)
(1.84594e-19 -1.66746e-18 10.1664)
(8.11038e-19 3.55737e-19 10.9424)
(-5.44301e-19 2.76705e-18 12.0583)
(-9.40416e-20 -1.41415e-18 13.6852)
(7.84715e-20 2.57361e-19 15.7654)
(-8.51308e-19 3.32227e-19 16.7688)
(2.28529e-18 -5.51592e-19 9.63956)
(2.96176e-18 1.03829e-18 -18.8214)
(-1.24246e-18 1.16435e-19 -9.27377)
(6.83387e-20 3.24412e-20 -2.38928)
(9.18739e-20 -6.75031e-20 1.36733)
(-2.15679e-18 7.88406e-19 3.46093)
(2.08515e-18 -2.97372e-19 4.72675)
(2.76045e-18 -2.68068e-19 5.51693)
(-2.92266e-18 -9.77155e-20 6.01344)
(1.34828e-18 3.22427e-19 6.32871)
(8.18252e-20 -2.39768e-19 6.52549)
(2.86692e-19 -1.67441e-18 6.6409)
(-4.96512e-19 1.16291e-19 6.69947)
(6.03715e-19 -1.13406e-18 6.71803)
(5.04994e-21 -1.58911e-19 6.70832)
(7.33457e-19 -2.48012e-18 6.67859)
(-4.59592e-19 1.62022e-19 6.63465)
(9.51147e-19 -1.93416e-19 6.58061)
(-4.2498e-19 -3.99452e-18 6.51934)
(-1.89585e-18 -9.1828e-18 6.45276)
(8.01209e-18 2.77104e-17 6.38207)
(-5.38232e-18 -2.20334e-17 6.3079)
(-2.40211e-18 4.06311e-18 6.23034)
(4.21879e-18 1.51425e-17 6.14904)
(-3.67738e-18 -2.31911e-17 6.06314)
(2.0428e-18 2.38831e-19 5.97133)
(3.5523e-18 -2.97649e-18 5.87171)
(-3.56947e-18 -2.00161e-17 5.76173)
(6.33739e-19 2.55341e-17 5.63811)
(3.51523e-18 8.82697e-19 5.49666)
(3.03426e-18 1.9588e-17 5.33156)
(-5.30238e-18 -2.30811e-17 5.13521)
(3.50917e-18 1.99759e-17 4.88158)
(-1.23785e-17 -6.79552e-17 4.46566)
(9.03461e-19 -7.85249e-17 3.86163)
(1.17469e-17 -1.13188e-17 3.09288)
(-6.56923e-17 6.1899e-18 2.20059)
(3.83087e-17 -2.72235e-17 1.25)
(-1.03738e-16 -1.05474e-16 0.306466)
(1.78059e-18 2.46331e-17 -0.506001)
(1.06123e-16 4.99447e-17 -1.13248)
(-1.32078e-16 -1.0006e-16 -1.51497)
(1.14306e-16 8.76054e-17 -1.63202)
(-7.59897e-17 4.66897e-18 -1.52225)
(4.93773e-16 2.91095e-16 -1.24767)
(2.12627e-16 5.14035e-17 -0.855605)
(8.72312e-17 2.36258e-17 -0.386964)
(-8.244e-19 -6.23672e-18 0.138297)
(-5.67234e-17 1.74842e-18 0.65828)
(6.19234e-16 2.72139e-16 1.11167)
(2.78198e-16 6.16604e-17 1.532)
(4.22421e-17 3.82061e-17 1.88482)
(6.1147e-16 2.28728e-16 2.17453)
(1.56661e-18 -6.19617e-17 2.42533)
(-2.91667e-16 -8.65283e-17 2.6639)
(4.26117e-18 2.25757e-17 2.95663)
(5.1957e-17 1.91848e-17 3.36922)
(1.02984e-16 1.80641e-17 4.00628)
(5.13376e-17 1.51746e-18 4.98767)
(-7.63866e-17 -1.46263e-17 6.47646)
(1.42327e-17 4.7003e-18 8.64362)
(7.48846e-18 1.0595e-17 11.5385)
(-3.17886e-17 -2.64266e-17 14.718)
(-1.13417e-17 -4.7182e-18 16.9604)
(-2.51967e-17 -3.72223e-16 17.1398)
(3.1147e-17 4.50936e-16 15.1139)
(-3.31132e-17 -7.65576e-16 11.9086)
(5.34478e-17 -1.40093e-16 8.31201)
(2.3002e-17 5.51228e-16 5.21833)
(7.50459e-18 6.1528e-17 2.86459)
(1.03187e-16 5.10328e-16 1.25147)
(-1.04047e-16 -5.70346e-16 0.1804)
(-1.45424e-17 -5.12412e-16 -0.435276)
(2.24015e-17 -1.78807e-17 -0.749733)
(-4.33508e-17 -4.70707e-16 -0.918196)
(-4.53203e-17 -4.30716e-16 -0.993845)
(3.85407e-17 -1.75834e-16 -0.993357)
(6.4898e-17 9.38082e-16 -0.933453)
(-7.23372e-17 -4.06705e-16 -0.839046)
(6.06697e-18 4.44612e-17 -0.719295)
(-9.56309e-18 -4.36864e-16 -0.581525)
(4.79881e-17 3.56111e-16 -0.426647)
(-5.69264e-17 -3.27593e-16 -0.255364)
(5.33255e-18 3.48719e-16 -0.059351)
(-3.72348e-18 -3.18465e-16 0.143258)
(8.3257e-18 -1.57535e-17 0.366038)
(-7.21919e-18 -5.94305e-18 0.606003)
(7.4052e-21 -9.74049e-18 0.854792)
(1.63944e-18 8.20969e-17 1.09222)
(-4.08785e-20 1.51194e-18 1.26953)
(-1.72242e-18 8.20399e-17 1.32559)
(-6.56108e-18 1.28939e-16 1.20499)
(2.93622e-18 -2.59524e-17 0.892188)
(-2.48502e-17 3.1841e-16 0.420434)
(-1.44727e-18 2.54478e-16 -0.110056)
(1.76171e-17 -3.10172e-16 -0.561679)
(1.18216e-17 3.69883e-17 -0.819833)
(-9.95111e-18 3.28207e-16 -0.852208)
(-7.51911e-18 3.32057e-16 -0.624406)
(-1.57473e-17 7.93344e-18 -0.193521)
(4.35692e-17 3.76648e-16 0.32476)
(-2.25601e-17 -8.28566e-16 0.877931)
(-3.06555e-19 4.30472e-17 1.34655)
(-1.9277e-17 -2.08163e-17 1.68739)
(2.68578e-20 -2.15084e-17 1.884)
(5.12284e-18 -3.96107e-16 1.96849)
(-2.03601e-17 -2.33592e-17 1.97872)
(8.73166e-19 1.59137e-17 1.95172)
(-4.22642e-17 -3.28135e-17 1.91762)
(-8.30046e-17 -4.12037e-16 1.88747)
(-5.45734e-17 -3.47815e-16 1.86602)
(-3.41878e-18 1.34391e-17 1.85239)
(0 -0 1.8468)
(5.37319e-18 3.72255e-18 1.87433)
(9.26824e-18 9.77939e-18 1.96342)
(2.18539e-17 1.2762e-16 2.15642)
(3.01004e-17 1.03234e-16 2.53633)
(-1.16994e-18 -2.69097e-18 3.22184)
(1.62592e-18 6.11753e-18 4.37171)
(1.60885e-19 -6.4353e-20 6.13186)
(-1.80693e-19 4.71861e-20 8.47746)
(6.21468e-19 -2.50402e-19 10.709)
(-1.0909e-17 5.20683e-18 11.6457)
(1.71954e-18 2.52732e-17 10.9551)
(-7.34677e-18 -4.16743e-16 8.94507)
(-2.3668e-18 -4.64405e-17 6.2699)
(6.58425e-17 5.16578e-16 3.82592)
(-7.3471e-17 -5.33334e-16 1.95925)
(9.56025e-17 4.81781e-16 0.674547)
(2.51239e-17 2.53962e-17 -0.16261)
(-6.17297e-17 -5.08972e-16 -0.619768)
(4.11237e-17 4.17856e-16 -0.856668)
(-1.80641e-17 -3.82011e-16 -0.961614)
(4.26726e-17 4.52949e-16 -0.972596)
(-1.10017e-18 -4.27743e-17 -0.937067)
(1.24593e-17 -7.51483e-17 -0.85435)
(-1.0799e-17 5.58999e-17 -0.739968)
(6.59094e-18 3.17568e-16 -0.60372)
(3.26303e-17 6.33098e-17 -0.448573)
(5.34759e-17 3.45281e-16 -0.279834)
(2.15709e-17 1.15881e-16 -0.0955285)
(-2.99263e-17 -3.82589e-16 0.0912324)
(-2.07879e-17 -6.47278e-16 0.29141)
(-1.79118e-18 -4.11433e-16 0.512265)
(3.64989e-18 5.60208e-17 0.746711)
(2.91318e-18 7.01004e-17 0.979728)
(-2.2611e-18 -6.38813e-17 1.20343)
(-5.95623e-19 3.11111e-17 1.37525)
(1.54145e-18 3.33424e-18 1.43545)
(-8.05447e-18 2.58288e-16 1.31813)
(-1.69897e-18 4.86391e-18 1.0005)
(-1.88738e-17 3.52863e-16 0.512964)
(3.98241e-18 2.16535e-16 -0.048775)
(-1.29778e-18 1.57566e-18 -0.533997)
(-1.72725e-17 2.49665e-16 -0.830749)
(-1.89933e-17 3.95077e-16 -0.872598)
(-3.83897e-17 -3.09282e-16 -0.683886)
(1.98122e-17 3.28966e-16 -0.264142)
(7.29375e-18 4.58329e-16 0.222002)
(1.355e-17 -5.26727e-16 0.745371)
(-2.35616e-17 -3.96209e-16 1.19073)
(3.20551e-17 5.33473e-16 1.51322)
(-3.76331e-18 -5.27368e-16 1.70833)
(3.42894e-17 4.52373e-16 1.80566)
(-1.29135e-17 5.46209e-17 1.82019)
(4.97786e-19 -4.22493e-16 1.74996)
(2.0651e-17 3.73015e-17 1.71038)
(2.70582e-17 2.88245e-16 1.70843)
(6.38497e-18 6.13863e-17 1.77833)
(2.56008e-18 1.19562e-16 1.94006)
(-3.16701e-18 -1.1982e-16 2.20734)
(3.49009e-18 5.81802e-17 2.61145)
(-4.19309e-18 -5.68724e-17 3.11937)
(-3.55321e-18 1.68934e-18 3.60803)
(1.30576e-18 -4.47002e-18 3.98936)
(-4.15979e-19 -4.75781e-17 4.2411)
(6.61143e-19 5.84571e-17 4.38045)
(-2.63891e-18 4.88024e-17 4.44311)
(-9.43346e-19 -4.53464e-17 4.46702)
(2.63499e-18 2.54343e-17 4.48155)
(3.37882e-19 -2.54306e-17 4.50544)
(-2.97928e-20 1.28682e-18 4.54773)
(-9.65112e-19 2.6228e-17 4.61085)
(1.25394e-18 -2.34717e-17 4.69352)
(-1.53849e-18 2.5221e-17 4.79326)
(6.06607e-20 -2.3339e-17 4.90791)
(1.11245e-18 -2.22235e-18 5.03663)
(-1.23109e-18 2.53231e-18 5.18033)
(5.99978e-19 -8.94314e-20 5.34187)
(-1.84428e-18 9.76323e-20 5.52637)
(3.05848e-18 2.15433e-18 5.74177)
(-2.07524e-18 -1.31956e-19 6.00008)
(2.57281e-19 -2.8781e-19 6.31984)
(6.48052e-19 -3.89547e-18 6.73131)
(-1.22849e-18 2.75345e-19 7.28601)
(1.15312e-18 -7.57846e-19 8.07021)
(2.31725e-18 -4.23636e-18 9.20579)
(-1.56372e-18 2.83401e-18 10.7559)
(5.1587e-19 -3.88356e-19 12.2767)
(-3.23793e-19 4.11121e-20 11.3644)
(-5.68234e-19 5.71143e-19 1.92299)
(-2.57916e-18 -5.57488e-19 -20.7003)
(5.87242e-19 -2.17244e-19 -7.73243)
(-2.29215e-18 4.80566e-19 -3.53081)
(-1.98805e-18 9.70402e-19 -0.725586)
(4.1186e-18 -1.73529e-18 0.901808)
(-7.14005e-18 2.64842e-18 1.89599)
(3.96887e-18 -9.59205e-19 2.5511)
(-2.1e-19 -2.84112e-19 3.02124)
(-1.05085e-18 -1.21822e-19 3.36653)
(4.191e-20 -5.36241e-19 3.62586)
(-5.15496e-18 -7.46979e-19 3.82181)
(3.44214e-18 1.73256e-18 3.96964)
(-2.79406e-19 -2.15427e-18 4.08045)
(-2.29684e-18 -2.72075e-18 4.16263)
(5.2807e-19 3.11822e-18 4.22241)
(-4.06312e-19 -1.23963e-18 4.26446)
(4.34515e-19 -1.74268e-20 4.29226)
(-1.79553e-18 -3.30355e-19 4.30833)
(3.54336e-19 1.98887e-18 4.31442)
(-4.11858e-18 -1.66668e-17 4.31167)
(1.5287e-18 1.69765e-17 4.30064)
(1.42945e-18 7.79334e-18 4.28142)
(3.80204e-19 -1.52383e-17 4.25359)
(-2.85329e-18 2.56462e-18 4.21627)
(-1.735e-19 2.23576e-18 4.16805)
(-6.29432e-19 -7.72636e-19 4.10692)
(-3.11772e-18 -5.99456e-18 4.03025)
(-2.86281e-18 -1.5959e-17 3.93467)
(2.89539e-18 2.26144e-18 3.81598)