/*--------------------------------*- C++ -*----------------------------------*\
| =========                 |                                                 |
| \\      /  F ield         | OpenFOAM: The Open Source CFD Toolbox           |
|  \\    /   O peration     | Version:  2506                                  |
|   \\  /    A nd           | Website:  www.openfoam.com                      |
|    \\/     M anipulation  |                                                 |
\*---------------------------------------------------------------------------*/
FoamFile
{
    version     2.0;
    format      ascii;
    arch        "LSB;label=32;scalar=64";
    class       surfaceScalarField;
    location    "3.8";
    object      phi;
}
// * * * * * * * * * * * * * * * * * * * * * * * * * * * * * * * * * * * * * //

dimensions      [0 3 -1 0 0 0 0];

oriented        oriented;

internalField   nonuniform List<scalar> 
7780
(
1.32955e-09
3.70569e-10
9.09455e-10
4.20085e-10
6.06882e-10
3.02645e-10
3.97765e-10
2.09169e-10
2.51983e-10
1.45782e-10
1.47958e-10
1.04022e-10
7.13238e-11
7.66314e-11
1.30241e-11
5.82969e-11
-3.2406e-11
4.54278e-11
-6.84262e-11
3.60185e-11
-9.73575e-11
2.89297e-11
-1.208e-10
2.34408e-11
-1.39954e-10
1.91528e-11
-1.55765e-10
1.58097e-11
-1.68989e-10
1.32229e-11
-1.80223e-10
1.12324e-11
-1.89951e-10
9.72631e-12
-1.98571e-10
8.6179e-12
-2.06403e-10
7.83037e-12
-2.13706e-10
7.30208e-12
-2.20673e-10
6.96523e-12
-2.27438e-10
6.76388e-12
-2.34094e-10
6.65363e-12
-2.40691e-10
6.5958e-12
-2.47245e-10
6.55143e-12
-2.53727e-10
6.4801e-12
-2.6007e-10
6.34003e-12
-2.66158e-10
6.08375e-12
-2.71803e-10
5.64049e-12
-2.76698e-10
4.88816e-12
-2.80301e-10
3.59471e-12
-2.81456e-10
1.14359e-12
-2.7879e-10
-2.67889e-12
-2.68798e-10
-1.00087e-11
-2.53041e-10
-1.57705e-11
-2.36036e-10
-1.70036e-11
-2.15813e-10
-2.02052e-11
-1.91178e-10
-2.46054e-11
-1.6271e-10
-2.84369e-11
-1.31385e-10
-3.13116e-11
-9.46399e-11
-3.67722e-11
-5.34047e-11
-4.13082e-11
-1.32564e-11
-4.02577e-11
2.39899e-11
-3.73801e-11
5.65123e-11
-3.26698e-11
8.43395e-11
-2.79814e-11
1.08572e-10
-2.4387e-11
1.26757e-10
-1.83295e-11
1.41298e-10
-1.46718e-11
1.51063e-10
-9.87293e-12
1.5551e-10
-4.52412e-12
1.56428e-10
-9.69366e-13
1.50328e-10
6.07454e-12
1.40548e-10
9.77326e-12
1.23892e-10
1.66629e-11
1.02364e-10
2.15385e-11
7.53563e-11
2.70165e-11
4.25289e-11
3.28355e-11
7.55407e-12
3.49863e-11
-3.25687e-11
4.01459e-11
-7.20722e-11
3.95431e-11
-1.11582e-10
3.95668e-11
-1.49313e-10
3.77985e-11
-1.84161e-10
3.49114e-11
-2.16219e-10
3.21107e-11
-2.44935e-10
2.87466e-11
-2.70671e-10
2.57336e-11
-2.9396e-10
2.32503e-11
-3.14734e-10
2.07e-11
-3.33954e-10
1.9106e-11
-3.52047e-10
1.79454e-11
-3.68226e-10
1.60055e-11
-3.83781e-10
1.53612e-11
-3.97991e-10
1.40012e-11
-4.1067e-10
1.24635e-11
-4.22386e-10
1.15041e-11
-4.32679e-10
1.00857e-11
-4.41209e-10
8.3315e-12
-4.4854e-10
7.14818e-12
-4.54613e-10
5.90702e-12
-4.59373e-10
4.61574e-12
-4.63217e-10
3.72229e-12
-4.66321e-10
3.0045e-12
-4.68922e-10
2.52339e-12
-4.71571e-10
2.59026e-12
-4.74066e-10
2.45121e-12
-4.76363e-10
2.26403e-12
-4.79489e-10
3.09901e-12
-4.82561e-10
3.04972e-12
-4.85218e-10
2.63833e-12
-4.88865e-10
3.62945e-12
-4.92046e-10
3.16611e-12
-4.94593e-10
2.53411e-12
-4.97988e-10
3.38259e-12
-4.99409e-10
1.41021e-12
-5.02081e-10
2.66243e-12
-5.02302e-10
2.12415e-13
-5.03447e-10
1.13626e-12
-5.01686e-10
-1.7702e-12
-5.0128e-10
-4.13902e-13
-4.97925e-10
-3.3635e-12
-4.95027e-10
-2.90629e-12
-4.91006e-10
-4.02936e-12
-4.84873e-10
-6.14009e-12
-4.78673e-10
-6.20541e-12
-4.69522e-10
-9.15408e-12
-4.607e-10
-8.82291e-12
-4.49336e-10
-1.13617e-11
-4.3688e-10
-1.24515e-11
-4.22658e-10
-1.42145e-11
-4.06952e-10
-1.5696e-11
-3.89348e-10
-1.75928e-11
-3.70433e-10
-1.89055e-11
-3.49166e-10
-2.12595e-11
-3.27308e-10
-2.18542e-11
-3.03649e-10
-2.36582e-11
-2.79016e-10
-2.4637e-11
-2.53637e-10
-2.53904e-11
-2.27539e-10
-2.6119e-11
-2.0123e-10
-2.63418e-11
-1.74969e-10
-2.63082e-11
-1.49079e-10
-2.59576e-11
-1.23954e-10
-2.5216e-11
-9.97126e-11
-2.43589e-11
-7.66958e-11
-2.31608e-11
-5.50377e-11
-2.18264e-11
-3.48494e-11
-2.03781e-11
-1.63889e-11
-1.86679e-11
4.45527e-13
-1.70564e-11
1.60047e-11
-1.57939e-11
2.96316e-11
-1.38738e-11
4.17726e-11
-1.23994e-11
5.30311e-11
-1.15285e-11
6.22058e-11
-9.45288e-12
7.00401e-11
-8.11623e-12
7.74919e-11
-7.73511e-12
8.1866e-11
-4.65112e-12
8.57331e-11
-4.12905e-12
8.69196e-11
-1.42066e-12
8.60245e-11
7.03432e-13
8.20065e-11
3.88387e-12
7.42299e-11
7.70782e-12
6.1806e-11
1.24229e-11
4.51093e-11
1.67555e-11
2.23724e-11
2.28354e-11
-3.93098e-12
2.642e-11
-3.68801e-11
3.3056e-11
-7.26915e-11
3.58942e-11
-1.11222e-10
3.85814e-11
-1.51119e-10
3.99219e-11
-1.90326e-10
3.92144e-11
-2.28339e-10
3.80098e-11
-2.63862e-10
3.55151e-11
-2.9577e-10
3.18906e-11
-3.24929e-10
2.91305e-11
-3.49663e-10
2.46895e-11
-3.71897e-10
2.21729e-11
-3.88822e-10
1.6843e-11
-3.98546e-10
9.62865e-12
-3.94905e-10
-3.7327e-12
-4.18058e-10
2.30941e-11
-4.36207e-10
1.81069e-11
-4.46512e-10
1.02771e-11
-4.48265e-10
1.73587e-12
-4.47399e-10
-8.77829e-13
-4.41707e-10
-5.70226e-12
-4.3488e-10
-6.83878e-12
-4.14394e-10
-2.04985e-11
-3.84077e-10
-3.03289e-11
-3.51639e-10
-3.24483e-11
-3.21503e-10
-3.01459e-11
-2.96149e-10
-2.53631e-11
-2.76504e-10
-1.96523e-11
-2.62539e-10
-1.39719e-11
-2.53727e-10
-8.81664e-12
-2.4943e-10
-4.30104e-12
-2.4853e-10
-9.02834e-13
-2.49846e-10
1.31284e-12
-2.52496e-10
2.6491e-12
-2.55606e-10
3.1083e-12
-2.58578e-10
2.97136e-12
-2.6107e-10
2.49228e-12
-2.62644e-10
1.57332e-12
-2.63209e-10
5.65433e-13
-2.62844e-10
-3.64867e-13
-2.61766e-10
-1.07823e-12
-2.60204e-10
-1.56158e-12
-2.58557e-10
-1.64737e-12
-2.57253e-10
-1.30344e-12
-2.56566e-10
-6.86614e-13
-2.56757e-10
1.90142e-13
-2.57981e-10
1.22384e-12
-2.6024e-10
2.25914e-12
-2.63614e-10
3.37457e-12
-2.68064e-10
4.44939e-12
-2.73494e-10
5.4303e-12
-2.79809e-10
6.31518e-12
-2.86972e-10
7.16447e-12
-2.95332e-10
8.36022e-12
1.07665e-11
1.80496e-09
2.65616e-10
1.72738e-09
4.9767e-10
1.54052e-09
4.89495e-10
1.32455e-09
4.25137e-10
1.11902e-09
3.51286e-10
9.40242e-10
2.82784e-10
7.90242e-10
2.26624e-10
6.66199e-10
1.82336e-10
5.64144e-10
1.4748e-10
4.80057e-10
1.20104e-10
4.10558e-10
9.84274e-11
3.52919e-10
8.10794e-11
3.04849e-10
6.72212e-11
2.64415e-10
5.62421e-11
2.30014e-10
4.7623e-11
2.00305e-10
4.09402e-11
1.74159e-10
3.58706e-11
1.50634e-10
3.21413e-11
1.28951e-10
2.95116e-11
1.08474e-10
2.77771e-11
8.86877e-11
2.675e-11
6.91861e-11
2.62637e-11
4.96603e-11
2.61776e-11
2.98832e-11
2.63709e-11
9.69801e-12
2.67344e-11
-1.09906e-11
2.71662e-11
-3.22184e-11
2.75649e-11
-5.39567e-11
2.78183e-11
-7.60995e-11
2.77785e-11
-9.84424e-11
2.7225e-11
-1.20667e-10
2.58112e-11
-1.4252e-10
2.29871e-11
-1.63168e-10
1.79577e-11
-1.82866e-10
9.67701e-12
-1.88948e-10
-9.69972e-12
-1.69977e-10
-3.59851e-11
-1.30375e-10
-5.98109e-11
-7.56137e-11
-7.93589e-11
-8.57295e-12
-9.54586e-11
6.98214e-11
-1.09678e-10
1.61958e-10
-1.28879e-10
2.56887e-10
-1.36214e-10
3.45511e-10
-1.28867e-10
4.25965e-10
-1.17828e-10
4.96309e-10
-1.03012e-10
5.57422e-10
-8.9094e-11
6.10419e-10
-7.73853e-11
6.52906e-10
-6.08195e-11
6.87565e-10
-4.93378e-11
7.13324e-10
-3.56429e-11
7.29509e-10
-2.07166e-11
7.37094e-10
-8.56267e-12
7.32545e-10
1.0616e-11
7.18505e-10
2.38117e-11
6.90627e-10
4.45445e-11
6.51624e-10
6.05516e-11
6.00106e-10
7.85474e-11
5.35662e-10
9.72917e-11
4.6339e-10
1.07265e-10
3.78355e-10
1.25183e-10
2.89826e-10
1.28075e-10
1.96997e-10
1.32407e-10
1.03449e-10
1.31369e-10
1.26612e-11
1.25738e-10
-7.52603e-11
1.20084e-10
-1.5686e-10
1.10399e-10
-2.3357e-10
1.02491e-10
-3.03727e-10
9.34464e-11
-3.68579e-10
8.55766e-11
-4.2761e-10
7.81444e-11
-4.81262e-10
7.15899e-11
-5.30086e-10
6.48081e-11
-5.74302e-10
5.95408e-11
-6.14081e-10
5.37356e-11
-6.49418e-10
4.7754e-11
-6.80553e-10
4.25889e-11
-7.07518e-10
3.69991e-11
-7.30325e-10
3.10912e-11
-7.49249e-10
2.60301e-11
-7.64552e-10
2.11742e-11
-7.76474e-10
1.65084e-11
-7.85502e-10
1.27282e-11
-7.92138e-10
9.62421e-12
-7.9696e-10
7.33338e-12
-8.00541e-10
6.1628e-12
-8.03287e-10
5.18927e-12
-8.05398e-10
4.36568e-12
-8.07547e-10
5.23635e-12
-8.09533e-10
5.02437e-12
-8.11309e-10
4.40166e-12
-8.13001e-10
5.30957e-12
-8.14368e-10
4.52102e-12
-8.14979e-10
3.13393e-12
-8.15158e-10
3.55118e-12
-8.13963e-10
2.06773e-13
-8.12139e-10
8.30608e-13
-8.0803e-10
-3.90374e-12
-8.02821e-10
-4.07969e-12
-7.95303e-10
-9.29483e-12
-7.86413e-10
-9.31078e-12
-7.75099e-10
-1.46849e-11
-7.61654e-10
-1.63593e-11
-7.45359e-10
-2.03325e-11
-7.26729e-10
-2.47788e-11
-7.05525e-10
-2.74189e-11
-6.81145e-10
-3.35426e-11
-6.53314e-10
-3.66635e-11
-6.22085e-10
-4.26008e-11
-5.87155e-10
-4.73911e-11
-5.48653e-10
-5.27262e-11
-5.06506e-10
-5.78521e-11
-4.61006e-10
-6.31017e-11
-4.12199e-10
-6.77194e-11
-3.6085e-10
-7.26147e-11
-3.06767e-10
-7.59424e-11
-2.51016e-10
-7.94139e-11
-1.93924e-10
-8.17277e-11
-1.36049e-10
-8.32576e-11
-7.83989e-11
-8.37569e-11
-2.1417e-11
-8.3307e-11
3.44569e-11
-8.21605e-11
8.8414e-11
-7.98893e-11
1.40064e-10
-7.68401e-11
1.89236e-10
-7.35087e-11
2.35425e-10
-6.93328e-11
2.78504e-10
-6.48931e-11
3.18361e-10
-6.02297e-11
3.54954e-10
-5.52573e-11
3.88493e-10
-5.05919e-11
4.19211e-10
-4.65086e-11
4.46512e-10
-4.11697e-11
4.71281e-10
-3.71622e-11
4.9416e-10
-3.44035e-11
5.13593e-10
-2.88848e-11
5.31065e-10
-2.55931e-11
5.46948e-10
-2.36327e-11
5.58309e-10
-1.60423e-11
5.67747e-10
-1.3616e-11
5.72481e-10
-6.22286e-12
5.7299e-10
1.07568e-13
5.67246e-10
9.52692e-12
5.53549e-10
2.13018e-11
5.30981e-10
3.48981e-11
4.98692e-10
4.89776e-11
4.53286e-10
6.82071e-11
3.98572e-10
8.11341e-11
3.28754e-10
1.02901e-10
2.50346e-10
1.14342e-10
1.62769e-10
1.26196e-10
6.80677e-11
1.3465e-10
-2.8507e-11
1.35805e-10
-1.27454e-10
1.36965e-10
-2.22771e-10
1.30834e-10
-3.1548e-10
1.24598e-10
-4.01732e-10
1.15377e-10
-4.81559e-10
1.04508e-10
-5.52886e-10
9.34839e-11
-6.15073e-10
7.9003e-11
-6.67776e-10
6.23043e-11
-7.08208e-10
3.66865e-11
-7.43685e-10
5.85718e-11
-7.66624e-10
4.10496e-11
-7.71988e-10
1.56467e-11
-7.57048e-10
-1.31985e-11
-7.22132e-10
-3.57902e-11
-6.67207e-10
-6.06267e-11
-5.94853e-10
-7.91962e-11
-5.10341e-10
-1.05017e-10
-4.23636e-10
-1.17042e-10
-3.42198e-10
-1.13895e-10
-2.70605e-10
-1.01748e-10
-2.11082e-10
-8.48961e-11
-1.64337e-10
-6.64053e-11
-1.29814e-10
-4.85021e-11
-1.05985e-10
-3.26512e-11
-9.06728e-11
-1.96167e-11
-8.17309e-11
-9.84755e-12
-7.71445e-11
-3.27539e-12
-7.46904e-11
1.94006e-13
-7.29538e-11
1.3712e-12
-7.06277e-11
6.4522e-13
-6.69784e-11
-1.15655e-12
-6.15883e-11
-3.81614e-12
-5.44832e-11
-6.53895e-12
-4.60286e-11
-8.81881e-12
-3.68281e-11
-1.02783e-11
-2.76816e-11
-1.07083e-11
-1.93393e-11
-9.99001e-12
-1.24798e-11
-8.16343e-12
-7.74356e-12
-5.42346e-12
-5.51016e-12
-2.04408e-12
-6.04869e-12
1.76146e-12
-9.39112e-12
5.60067e-12
-1.53151e-11
9.29773e-12
-2.35087e-11
1.26425e-11
-3.35761e-11
1.54975e-11
-4.5096e-11
1.78354e-11
-5.76877e-11
1.97575e-11
-7.09982e-11
2.16718e-11
2.45768e-11
1.80379e-09
1.61797e-10
1.91487e-09
3.86663e-10
1.93185e-09
4.72481e-10
1.87517e-09
4.8173e-10
1.77665e-09
4.49746e-10
1.65831e-09
4.01089e-10
1.53657e-09
3.48353e-10
1.42126e-09
2.97654e-10
1.31657e-09
2.52165e-10
1.22356e-09
2.13111e-10
1.14206e-09
1.79924e-10
1.07125e-09
1.51886e-10
1.00985e-09
1.28617e-10
9.56472e-10
1.09621e-10
9.09787e-10
9.43063e-11
8.68572e-10
8.21543e-11
8.3168e-10
7.27614e-11
7.98084e-10
6.57355e-11
7.66895e-10
6.07e-11
7.37331e-10
5.7339e-11
7.0872e-10
5.536e-11
6.80488e-10
5.44948e-11
6.52154e-10
5.45102e-11
6.23321e-10
5.52028e-11
5.93661e-10
5.63922e-11
5.62908e-10
5.79175e-11
5.30843e-10
5.96283e-11
4.97289e-10
6.13695e-11
4.62107e-10
6.2957e-11
4.25183e-10
6.41441e-11
3.86402e-10
6.45858e-11
3.4557e-10
6.38114e-11
3.02433e-10
6.10853e-11
2.53522e-10
5.85791e-11
2.19106e-10
2.47047e-11
2.21605e-10
-3.84977e-11
2.55151e-10
-9.33657e-11
3.11301e-10
-1.35506e-10
3.86701e-10
-1.70837e-10
4.79591e-10
-2.02524e-10
5.90577e-10
-2.39805e-10
7.04376e-10
-2.49946e-10
8.12049e-10
-2.36479e-10
9.11159e-10
-2.16886e-10
9.99414e-10
-1.91221e-10
1.07769e-09
-1.67325e-10
1.14697e-09
-1.46628e-10
1.20512e-09
-1.18933e-10
1.25443e-09
-9.86357e-11
1.29392e-09
-7.51288e-11
1.32307e-09
-4.98666e-11
1.34214e-09
-2.765e-11
1.34814e-09
4.58565e-12
1.34298e-09
2.89507e-11
1.32264e-09
6.48512e-11
1.2886e-09
9.45819e-11
1.23914e-09
1.27994e-10
1.1731e-09
1.63336e-10
1.09431e-09
1.86046e-10
9.97307e-10
2.22179e-10
8.90644e-10
2.34717e-10
7.73234e-10
2.4979e-10
6.49246e-10
2.5533e-10
5.22872e-10
2.52097e-10
3.94622e-10
2.48338e-10
2.70535e-10
2.34504e-10
1.49715e-10
2.23343e-10
3.6676e-11
2.06526e-10
-6.96579e-11
1.91948e-10
-1.67935e-10
1.76451e-10
-2.57918e-10
1.61595e-10
-3.40867e-10
1.47769e-10
-4.15535e-10
1.34212e-10
-4.82922e-10
1.21125e-10
-5.43189e-10
1.0802e-10
-5.96115e-10
9.55069e-11
-6.42182e-10
8.30588e-11
-6.81715e-10
7.06212e-11
-7.14724e-10
5.90388e-11
-7.41661e-10
4.81154e-11
-7.62999e-10
3.7854e-11
-7.79201e-10
2.89405e-11
-7.90916e-10
2.13521e-11
-7.98818e-10
1.5249e-11
-8.03655e-10
1.10129e-11
-8.06216e-10
7.75916e-12
-8.07238e-10
5.39184e-12
-8.06979e-10
4.97769e-12
-8.05964e-10
4.00618e-12
-8.04323e-10
2.75717e-12
-8.01827e-10
2.80886e-12
-7.98403e-10
1.09133e-12
-7.94165e-10
-1.10818e-12
-7.88329e-10
-2.28909e-12
-7.81291e-10
-6.83473e-12
-7.71913e-10
-8.5508e-12
-7.61435e-10
-1.43847e-11
-7.48354e-10
-1.71654e-11
-7.33738e-10
-2.39147e-11
-7.16149e-10
-2.69053e-11
-6.96566e-10
-3.4273e-11
-6.7385e-10
-3.9083e-11
-6.48088e-10
-4.61019e-11
-6.19203e-10
-5.36724e-11
-5.86192e-10
-6.04396e-11
-5.49696e-10
-7.0049e-11
-5.08279e-10
-7.80921e-11
-4.62656e-10
-8.82352e-11
-4.12188e-10
-9.78718e-11
-3.57088e-10
-1.0784e-10
-2.9739e-10
-1.17563e-10
-2.33616e-10
-1.26889e-10
-1.65887e-10
-1.3546e-10
-9.55753e-11
-1.42937e-10
-2.21409e-11
-1.49385e-10
5.24881e-11
-1.54049e-10
1.27928e-10
-1.57169e-10
2.03583e-10
-1.58906e-10
2.7813e-10
-1.58288e-10
3.5113e-10
-1.56281e-10
4.22105e-10
-1.53099e-10
4.90073e-10
-1.47811e-10
5.54708e-10
-1.41422e-10
6.1594e-10
-1.34681e-10
6.73275e-10
-1.26606e-10
7.267e-10
-1.18257e-10
7.76212e-10
-1.09681e-10
8.21868e-10
-1.00851e-10
8.64036e-10
-9.26944e-11
9.03015e-10
-8.54169e-11
9.38374e-10
-7.64502e-11
9.70977e-10
-6.96801e-11
1.0015e-09
-6.48431e-11
1.0285e-09
-5.57904e-11
1.0536e-09
-5.06121e-11
1.07673e-09
-4.66842e-11
1.0955e-09
-3.47545e-11
1.11194e-09
-3.00257e-11
1.12355e-09
-1.78421e-11
1.12955e-09
-5.93843e-12
1.1293e-09
9.69128e-12
1.12034e-09
3.01361e-11
1.10138e-09
5.37132e-11
1.07077e-09
7.94485e-11
1.02536e-09
1.13501e-10
9.67156e-10
1.39251e-10
8.90212e-10
1.79804e-10
7.99671e-10
2.0488e-10
6.94512e-10
2.31373e-10
5.75922e-10
2.53263e-10
4.49629e-10
2.62113e-10
3.13647e-10
2.72953e-10
1.77354e-10
2.67124e-10
3.9218e-11
2.62725e-10
-9.32634e-11
2.47847e-10
-2.21401e-10
2.32634e-10
-3.39371e-10
2.11445e-10
-4.46822e-10
1.86449e-10
-5.39983e-10
1.55471e-10
-6.18554e-10
1.15275e-10
-6.57665e-10
9.77089e-11
-6.71892e-10
5.53019e-11
-6.59093e-10
2.86929e-12
-6.18089e-10
-5.41831e-11
-5.46186e-10
-1.07676e-10
-4.4738e-10
-1.59419e-10
-3.23586e-10
-2.02983e-10
-1.95429e-10
-2.33173e-10
-7.49817e-11
-2.37494e-10
3.39172e-11
-2.228e-10
1.28548e-10
-1.96386e-10
2.07526e-10
-1.63884e-10
2.70878e-10
-1.29767e-10
3.19737e-10
-9.73696e-11
3.5602e-10
-6.89413e-11
3.82174e-10
-4.57765e-11
4.00754e-10
-2.8432e-11
4.14335e-10
-1.68596e-11
4.25097e-10
-1.05705e-11
4.35121e-10
-8.6536e-12
4.458e-10
-1.00338e-11
4.58183e-10
-1.35391e-11
4.72489e-10
-1.81212e-11
4.88611e-10
-2.26592e-11
5.06026e-10
-2.62319e-11
5.23902e-10
-2.8152e-11
5.4123e-10
-2.80362e-11
5.56996e-10
-2.57558e-11
5.70262e-10
-2.1429e-11
5.80244e-10
-1.54057e-11
5.86389e-10
-8.18967e-12
5.88476e-10
-3.2637e-13
5.86557e-10
7.51882e-12
5.80927e-10
1.49263e-11
5.72108e-10
2.14606e-11
5.60748e-10
2.68567e-11
5.47567e-10
3.10167e-11
5.33305e-10
3.40205e-11
5.18808e-10
3.61703e-11
3.90354e-11
1.76539e-09
9.64814e-11
1.88742e-09
2.64632e-10
1.98798e-09
3.71935e-10
2.04916e-09
4.20487e-10
2.0679e-09
4.30918e-10
2.05018e-09
4.18769e-10
2.0095e-09
3.89014e-10
1.95553e-09
3.51632e-10
1.89517e-09
3.12527e-10
1.83297e-09
2.75306e-10
1.77234e-09
2.40555e-10
1.71508e-09
2.09146e-10
1.66179e-09
1.81903e-10
1.61262e-09
1.58787e-10
1.56748e-09
1.39449e-10
1.52603e-09
1.23606e-10
1.48773e-09
1.11059e-10
1.452e-09
1.0146e-10
1.41829e-09
9.44145e-11
1.386e-09
8.96251e-11
1.35458e-09
8.67798e-11
1.32349e-09
8.5581e-11
1.29224e-09
8.57635e-11
1.26035e-09
8.70868e-11
1.22741e-09
8.93311e-11
1.19303e-09
9.23025e-11
1.15683e-09
9.58265e-11
1.11846e-09
9.97356e-11
1.07757e-09
1.0385e-10
1.03376e-09
1.07952e-10
9.86573e-10
1.11765e-10
9.35432e-10
1.14948e-10
8.79438e-10
1.17074e-10
8.14426e-10
1.23586e-10
7.6056e-10
7.85631e-11
7.42726e-10
-2.06767e-11
7.57742e-10
-1.08395e-10
7.99236e-10
-1.77005e-10
8.64038e-10
-2.35628e-10
9.49319e-10
-2.87769e-10
1.05388e-09
-3.44304e-10
1.16268e-09
-3.58668e-10
1.26865e-09
-3.42367e-10
1.36835e-09
-3.16511e-10
1.45905e-09
-2.81861e-10
1.54124e-09
-2.49455e-10
1.61559e-09
-2.20921e-10
1.68033e-09
-1.83627e-10
1.7369e-09
-1.55182e-10
1.78491e-09
-1.23127e-10
1.82362e-09
-8.85882e-11
1.85293e-09
-5.69805e-11
1.87099e-09
-1.35076e-11
1.8787e-09
2.11977e-11
1.87326e-09
7.02461e-11
1.85507e-09
1.1273e-10
1.82253e-09
1.60493e-10
1.77394e-09
2.11908e-10
1.71146e-09
2.48512e-10
1.62979e-09
3.0383e-10
1.53491e-09
3.29567e-10
1.42488e-09
3.59766e-10
1.30301e-09
3.77144e-10
1.17268e-09
3.82368e-10
1.03487e-09
3.86099e-10
8.957e-10
3.73654e-10
7.54939e-10
3.64104e-10
6.18282e-10
3.43202e-10
4.8587e-10
3.24392e-10
3.60355e-10
3.02004e-10
2.43157e-10
2.78833e-10
1.33178e-10
2.57786e-10
3.28273e-11
2.34597e-10
-5.90925e-11
2.13074e-10
-1.42714e-10
1.91661e-10
-2.17244e-10
1.70052e-10
-2.83297e-10
1.49125e-10
-3.41284e-10
1.2862e-10
-3.91018e-10
1.08787e-10
-4.32946e-10
9.00593e-11
-4.67724e-10
7.26477e-11
-4.95744e-10
5.69789e-11
-5.17756e-10
4.33838e-11
-5.34572e-10
3.20846e-11
-5.46876e-10
2.33325e-11
-5.55844e-10
1.67384e-11
-5.62428e-10
1.19829e-11
-5.66733e-10
9.28559e-12
-5.69891e-10
7.16432e-12
-5.72396e-10
5.25943e-12
-5.73526e-10
3.93622e-12
-5.74023e-10
1.58633e-12
-5.73339e-10
-1.79488e-12
-5.70568e-10
-5.06143e-12
-5.66563e-10
-1.08416e-11
-5.59418e-10
-1.56988e-11
-5.50463e-10
-2.33421e-11
-5.37763e-10
-2.98691e-11
-5.22572e-10
-3.91095e-11
-5.02699e-10
-4.67835e-11
-4.79617e-10
-5.73599e-11
-4.51537e-10
-6.71696e-11
-4.1886e-10
-7.87868e-11
-3.81294e-10
-9.12468e-11
-3.37636e-10
-1.04106e-10
-2.89044e-10
-1.18652e-10
-2.33951e-10
-1.33196e-10
-1.73567e-10
-1.48632e-10
-1.07472e-10
-1.6398e-10
-3.62337e-11
-1.79093e-10
3.96761e-11
-1.93488e-10
1.19462e-10
-2.06691e-10
2.02652e-10
-2.18664e-10
2.87582e-10
-2.2788e-10
3.74621e-10
-2.36434e-10
4.61581e-10
-2.41016e-10
5.48046e-10
-2.43637e-10
6.33383e-10
-2.44241e-10
7.16288e-10
-2.41181e-10
7.96402e-10
-2.36373e-10
8.73374e-10
-2.30038e-10
9.46364e-10
-2.20756e-10
1.01525e-09
-2.10254e-10
1.08008e-09
-1.99442e-10
1.14055e-09
-1.87014e-10
1.19683e-09
-1.74464e-10
1.24903e-09
-1.61813e-10
1.29734e-09
-1.49093e-10
1.3422e-09
-1.37476e-10
1.38394e-09
-1.27072e-10
1.4224e-09
-1.14826e-10
1.45825e-09
-1.05431e-10
1.49217e-09
-9.86543e-11
1.52301e-09
-8.65267e-11
1.55228e-09
-7.97735e-11
1.5795e-09
-7.37891e-11
1.60322e-09
-5.83805e-11
1.62449e-09
-5.12246e-11
1.64163e-09
-3.49415e-11
1.65377e-09
-1.80767e-11
1.66015e-09
3.25777e-12
1.65868e-09
3.15047e-11
1.64838e-09
6.38731e-11
1.62723e-09
1.00431e-10
1.59281e-09
1.4775e-10
1.5456e-09
1.86319e-10
1.48048e-09
2.4482e-10
1.40024e-09
2.85067e-10
1.30338e-09
3.28223e-10
1.18943e-09
3.67205e-10
1.06319e-09
3.88366e-10
9.21454e-10
4.14684e-10
7.73244e-10
4.15325e-10
6.16214e-10
4.1974e-10
4.59479e-10
4.04563e-10
3.01678e-10
3.90422e-10
1.50866e-10
3.6225e-10
8.30632e-12
3.29014e-10
-1.17363e-10
2.81158e-10
-2.23996e-10
2.21933e-10
-2.67883e-10
1.41632e-10
-2.74987e-10
6.24414e-11
-2.48547e-10
-2.35413e-11
-1.89804e-10
-1.129e-10
-9.50466e-11
-2.02409e-10
2.77206e-11
-2.82164e-10
1.75066e-10
-3.5031e-10
3.19242e-10
-3.77337e-10
4.49302e-10
-3.67549e-10
5.64486e-10
-3.37985e-10
6.64147e-10
-2.9605e-10
7.48178e-10
-2.47921e-10
8.17163e-10
-1.9876e-10
8.72346e-10
-1.52561e-10
9.15507e-10
-1.12111e-10
9.48821e-10
-7.90971e-11
9.74659e-10
-5.42768e-11
9.95408e-10
-3.76135e-11
1.01326e-09
-2.84234e-11
1.03012e-09
-2.5521e-11
1.04748e-09
-2.73911e-11
1.06631e-09
-3.23719e-11
1.087e-09
-3.88072e-11
1.10946e-09
-4.51155e-11
1.13317e-09
-4.99426e-11
1.15727e-09
-5.22467e-11
1.1807e-09
-5.14621e-11
1.20234e-09
-4.73952e-11
1.22111e-09
-4.01952e-11
1.23607e-09
-3.03737e-11
1.24657e-09
-1.86837e-11
1.25225e-09
-6.00266e-12
1.25304e-09
6.72738e-12
1.24926e-09
1.86992e-11
1.24149e-09
2.92352e-11
1.23047e-09
3.78724e-11
1.2171e-09
4.43828e-11
1.20234e-09
4.87824e-11
1.18727e-09
5.12461e-11
5.36886e-11
1.73753e-09
5.90229e-11
1.8263e-09
1.75904e-10
1.93146e-09
2.66792e-10
2.02666e-09
3.25231e-10
2.10181e-09
3.55698e-10
2.15592e-09
3.64633e-10
2.18843e-09
3.5648e-10
2.20121e-09
3.38829e-10
2.1981e-09
3.15662e-10
2.18436e-09
2.89047e-10
2.16379e-09
2.61115e-10
2.13888e-09
2.34063e-10
2.1111e-09
2.09683e-10
2.0819e-09
1.8798e-10
2.05238e-09
1.68965e-10
2.02314e-09
1.5285e-10
1.99433e-09
1.39865e-10
1.96606e-09
1.29738e-10
1.93832e-09
1.22154e-10
1.91095e-09
1.16996e-10
1.88371e-09
1.14011e-10
1.85634e-09
1.12959e-10
1.82847e-09
1.13632e-10
1.79973e-09
1.15823e-10
1.76974e-09
1.19326e-10
1.73808e-09
1.23959e-10
1.70434e-09
1.29562e-10
1.66809e-09
1.35988e-10
1.62885e-09
1.43092e-10
1.58608e-09
1.50719e-10
1.53915e-09
1.58692e-10
1.48729e-09
1.66811e-10
1.42941e-09
1.74949e-10
1.36173e-09
1.91264e-10
1.30031e-09
1.39976e-10
1.26688e-09
1.27431e-11
1.26201e-09
-1.03546e-10
1.28327e-09
-1.98273e-10
1.32868e-09
-2.81044e-10
1.39504e-09
-3.5411e-10
1.48008e-09
-4.29293e-10
1.57131e-09
-4.49827e-10
1.6638e-09
-4.34775e-10
1.75301e-09
-4.05653e-10
1.83588e-09
-3.64667e-10
1.91243e-09
-3.25944e-10
1.98299e-09
-2.91432e-10
2.04622e-09
-2.46811e-10
2.10261e-09
-2.11535e-10
2.1528e-09
-1.73307e-10
2.19538e-09
-1.31185e-10
2.23026e-09
-9.18818e-11
2.25695e-09
-4.02374e-11
2.27556e-09
2.54204e-12
2.28458e-09
6.11769e-11
2.28383e-09
1.13433e-10
2.27221e-09
1.72066e-10
2.24803e-09
2.36061e-10
2.21206e-09
2.84458e-10
2.16005e-09
3.55821e-10
2.09499e-09
3.94596e-10
2.01439e-09
4.40328e-10
1.91985e-09
4.7161e-10
1.81301e-09
4.89137e-10
1.69445e-09
5.04584e-10
1.56873e-09
4.99307e-10
1.43611e-09
4.96682e-10
1.30179e-09
4.77502e-10
1.16678e-09
4.59399e-10
1.03429e-09
4.34517e-10
9.06764e-10
4.06386e-10
7.8386e-10
3.8073e-10
6.68819e-10
3.49683e-10
5.61068e-10
3.20871e-10
4.6082e-10
2.9195e-10
3.69203e-10
2.61703e-10
2.85716e-10
2.32643e-10
2.10096e-10
2.04267e-10
1.42645e-10
1.76264e-10
8.31244e-11
1.49604e-10
3.09341e-11
1.24861e-10
-1.40889e-11
1.02025e-10
-5.25403e-11
8.1858e-11
-8.50822e-11
6.46474e-11
-1.12181e-10
5.04479e-11
-1.35035e-10
3.96047e-11
-1.54663e-10
3.16174e-11
-1.71089e-10
2.57149e-11
-1.85811e-10
2.18864e-11
-1.99429e-10
1.88768e-11
-2.11325e-10
1.58304e-11
-2.22218e-10
1.24773e-11
-2.31998e-10
7.98239e-12
-2.39102e-10
2.04013e-12
-2.44536e-10
-5.41058e-12
-2.45717e-10
-1.45214e-11
-2.43943e-10
-2.51199e-11
-2.36661e-10
-3.71545e-11
-2.25271e-10
-5.05046e-11
-2.06879e-10
-6.51809e-11
-1.83229e-10
-8.10156e-11
-1.52139e-10
-9.82651e-11
-1.14293e-10
-1.1664e-10
-6.93832e-11
-1.36164e-10
-1.64169e-11
-1.57081e-10
4.30429e-11
-1.78121e-10
1.10252e-10
-2.00416e-10
1.83534e-10
-2.21925e-10
2.62794e-10
-2.43251e-10
3.47078e-10
-2.63389e-10
4.35366e-10
-2.81789e-10
5.26602e-10
-2.97941e-10
6.19895e-10
-3.1197e-10
7.13484e-10
-3.21483e-10
8.07446e-10
-3.30408e-10
8.99662e-10
-3.33242e-10
9.89711e-10
-3.33692e-10
1.07703e-09
-3.31563e-10
1.16054e-09
-3.2469e-10
1.24006e-09
-3.15875e-10
1.31545e-09
-3.05398e-10
1.38614e-09
-2.91415e-10
1.45229e-09
-2.76353e-10
1.51406e-09
-2.61168e-10
1.57146e-09
-2.44345e-10
1.62476e-09
-2.27707e-10
1.67422e-09
-2.11212e-10
1.72015e-09
-1.9496e-10
1.76299e-09
-1.80259e-10
1.80308e-09
-1.67098e-10
1.84052e-09
-1.52192e-10
1.87567e-09
-1.40499e-10
1.90917e-09
-1.32072e-10
1.94032e-09
-1.17591e-10
1.97025e-09
-1.09607e-10
1.99814e-09
-1.01587e-10
2.02359e-09
-8.37346e-11
2.04671e-09
-7.42671e-11
2.0668e-09
-5.49703e-11
2.08288e-09
-3.41259e-11
2.09471e-09
-8.58316e-12
2.10035e-09
2.58074e-11
2.0995e-09
6.4615e-11
2.09015e-09
1.09635e-10
2.07093e-09
1.66803e-10
2.04115e-09
2.1594e-10
1.99734e-09
2.88496e-10
1.93997e-09
3.42346e-10
1.86753e-09
4.00602e-10
1.77808e-09
4.56639e-10
1.67463e-09
4.91803e-10
1.55303e-09
5.36277e-10
1.4202e-09
5.48135e-10
1.2729e-09
5.67015e-10
1.11924e-09
5.58195e-10
9.57476e-10
5.52166e-10
7.95858e-10
5.23852e-10
6.37543e-10
4.87326e-10
4.97535e-10
4.21182e-10
3.73893e-10
3.45605e-10
3.24943e-10
1.90625e-10
3.18185e-10
6.92432e-11
3.48592e-10
-5.39112e-11
4.12487e-10
-1.76764e-10
5.12919e-10
-3.02811e-10
6.38605e-10
-4.07818e-10
7.84024e-10
-4.95699e-10
9.20966e-10
-5.14254e-10
1.04086e-09
-4.87421e-10
1.14506e-09
-4.42177e-10
1.23457e-09
-3.85563e-10
1.31043e-09
-3.23776e-10
1.37373e-09
-2.62068e-10
1.42578e-09
-2.04614e-10
1.46807e-09
-1.5441e-10
1.50231e-09
-1.13343e-10
1.53032e-09
-8.2304e-11
1.55399e-09
-6.12902e-11
1.5751e-09
-4.95348e-11
1.59523e-09
-4.56546e-11
1.61566e-09
-4.78302e-11
1.6373e-09
-5.40039e-11
1.66055e-09
-6.20643e-11
1.68544e-09
-6.99967e-11
1.71154e-09
-7.60426e-11
1.73806e-09
-7.87609e-11
1.76406e-09
-7.74542e-11
1.78847e-09
-7.18044e-11
1.81019e-09
-6.19088e-11
1.82822e-09
-4.84078e-11
1.8418e-09
-3.22619e-11
1.85042e-09
-1.46258e-11
1.8539e-09
3.25695e-12
1.85238e-09
2.02168e-11
1.84634e-09
3.52728e-11
1.83649e-09
4.7715e-11
1.82374e-09
5.71344e-11
1.80908e-09
6.34432e-11
1.79362e-09
6.67057e-11
6.8845e-11
1.72185e-09
3.72225e-11
1.78181e-09
1.15994e-10
1.86438e-09
1.84238e-10
1.95512e-09
2.34462e-10
2.04328e-09
2.67482e-10
2.12237e-09
2.85505e-10
2.18818e-09
2.90653e-10
2.24076e-09
2.86265e-10
2.28121e-09
2.75213e-10
2.31069e-09
2.59566e-10
2.32959e-09
2.42217e-10
2.33914e-09
2.24515e-10
2.34209e-09
2.06724e-10
2.33997e-09
1.90104e-10
2.33404e-09
1.74893e-10
2.32512e-09
1.61775e-10
2.31369e-09
1.51291e-10
2.30046e-09
1.42963e-10
2.28588e-09
1.36735e-10
2.27014e-09
1.32737e-10
2.25334e-09
1.30818e-10
2.23549e-09
1.30799e-10
2.21651e-09
1.3262e-10
2.19618e-09
1.3615e-10
2.17426e-09
1.41245e-10
2.15044e-09
1.47781e-10
2.12435e-09
1.55649e-10
2.09558e-09
1.64755e-10
2.06366e-09
1.75013e-10
2.02803e-09
1.86348e-10
1.98804e-09
1.98683e-10
1.9429e-09
2.11953e-10
1.89159e-09
2.26254e-10
1.83116e-09
2.51701e-10
1.77224e-09
1.98885e-10
1.73088e-09
5.41009e-11
1.71096e-09
-8.36491e-11
1.71381e-09
-2.01139e-10
1.73896e-09
-3.06219e-10
1.78352e-09
-3.98664e-10
1.84496e-09
-4.90709e-10
1.9142e-09
-5.19023e-10
1.98821e-09
-5.0871e-10
2.0615e-09
-4.78877e-10
2.13078e-09
-4.33892e-10
2.19572e-09
-3.90834e-10
2.25641e-09
-3.52092e-10
2.31194e-09
-3.02303e-10
2.36246e-09
-2.62037e-10
2.40842e-09
-2.1924e-10
2.44882e-09
-1.71588e-10
2.48388e-09
-1.26981e-10
2.51371e-09
-7.00943e-11
2.53806e-09
-2.18567e-11
2.5567e-09
4.24862e-11
2.56918e-09
1.00912e-10
2.57508e-09
1.66122e-10
2.57314e-09
2.37976e-10
2.56326e-09
2.94324e-10
2.54279e-09
3.76287e-10
2.51228e-09
4.25087e-10
2.46925e-09
4.83338e-10
2.41381e-09
5.26996e-10
2.3458e-09
5.5708e-10
2.26517e-09
5.85135e-10
2.174e-09
5.904e-10
2.07252e-09
5.98082e-10
1.96416e-09
5.85799e-10
1.85018e-09
5.73332e-10
1.73326e-09
5.51405e-10
1.61623e-09
5.23408e-10
1.49933e-09
4.97643e-10
1.38611e-09
4.62926e-10
1.27666e-09
4.30359e-10
1.1717e-09
3.96943e-10
1.07274e-09
3.60705e-10
9.79611e-10
3.25807e-10
8.9245e-10
2.91468e-10
8.11651e-10
2.57102e-10
7.37284e-10
2.2401e-10
6.68951e-10
1.93232e-10
6.06802e-10
1.64212e-10
5.50566e-10
1.38131e-10
4.9991e-10
1.15336e-10
4.54714e-10
9.56702e-11
4.14094e-10
8.02446e-11
3.77245e-10
6.84796e-11
3.44376e-10
5.85925e-11
3.13944e-10
5.23231e-11
2.85408e-10
4.7415e-11
2.59181e-10
4.20585e-11
2.34554e-10
3.71042e-11
2.11447e-10
3.10872e-11
1.91806e-10
2.16793e-11
1.74501e-10
1.18924e-11
1.62592e-10
-2.61548e-12
1.55043e-10
-1.75746e-11
1.54968e-10
-3.70834e-11
1.60946e-10
-5.64859e-11
1.76404e-10
-8.06434e-11
1.9933e-10
-1.03946e-10
2.32168e-10
-1.31108e-10
2.73833e-10
-1.5831e-10
3.24457e-10
-1.86794e-10
3.84623e-10
-2.17253e-10
4.52326e-10
-2.45831e-10
5.2827e-10
-2.76368e-10
6.1033e-10
-3.03994e-10
6.97788e-10
-3.3072e-10
7.89373e-10
-3.54985e-10
8.8353e-10
-3.75958e-10
9.79053e-10
-3.93477e-10
1.07471e-09
-4.07637e-10
1.1688e-09
-4.15585e-10
1.26121e-09
-4.22833e-10
1.35008e-09
-4.22125e-10
1.43508e-09
-4.18707e-10
1.51587e-09
-4.12356e-10
1.59172e-09
-4.00537e-10
1.66267e-09
-3.86818e-10
1.72887e-09
-3.71587e-10
1.7901e-09
-3.5262e-10
1.84677e-09
-3.32988e-10
1.89922e-09
-3.13568e-10
1.94766e-09
-2.92737e-10
1.99253e-09
-2.72518e-10
2.03414e-09
-2.52778e-10
2.07292e-09
-2.33683e-10
2.10927e-09
-2.16572e-10
2.1435e-09
-2.01279e-10
2.17584e-09
-1.84492e-10
2.20637e-09
-1.70982e-10
2.23573e-09
-1.6138e-10
2.26369e-09
-1.45483e-10
2.29074e-09
-1.36603e-10
2.31583e-09
-1.26618e-10
2.33958e-09
-1.07419e-10
2.3614e-09
-9.60225e-11
2.38138e-09
-7.49011e-11
2.3985e-09
-5.12002e-11
2.41302e-09
-2.30915e-11
2.42347e-09
1.53247e-11
2.43006e-09
5.79571e-11
2.43111e-09
1.08482e-10
2.42636e-09
1.71423e-10
2.41435e-09
2.278e-10
2.39358e-09
3.09145e-10
2.36271e-09
3.73107e-10
2.32078e-09
4.42468e-10
2.26493e-09
5.12447e-10
2.19656e-09
5.60155e-10
2.11109e-09
6.21731e-10
2.01262e-09
6.46596e-10
1.89724e-09
6.8236e-10
1.77052e-09
6.84884e-10
1.62992e-09
6.92719e-10
1.48207e-09
6.7167e-10
1.33127e-09
6.381e-10
1.19652e-09
5.55932e-10
1.07574e-09
4.66401e-10
1.02483e-09
2.41581e-10
1.01573e-09
7.83967e-11
1.04325e-09
-8.13838e-11
1.10239e-09
-2.3587e-10
1.19489e-09
-3.95273e-10
1.30736e-09
-5.20255e-10
1.43315e-09
-6.21441e-10
1.54734e-09
-6.28405e-10
1.64409e-09
-5.84144e-10
1.72609e-09
-5.24152e-10
1.79535e-09
-4.54817e-10
1.85368e-09
-3.82095e-10
1.9026e-09
-3.1099e-10
1.94349e-09
-2.45513e-10
1.97766e-09
-1.88587e-10
2.00639e-09
-1.42081e-10
2.03096e-09
-1.06885e-10
2.05265e-09
-8.29908e-11
2.07269e-09
-6.95778e-11
2.09217e-09
-6.51478e-11
2.11203e-09
-6.76926e-11
2.13292e-09
-7.48935e-11
2.15518e-09
-8.43265e-11
2.17883e-09
-9.36499e-11
2.20359e-09