/*--------------------------------*- C++ -*----------------------------------*\
| =========                 |                                                 |
| \\      /  F ield         | OpenFOAM: The Open Source CFD Toolbox           |
|  \\    /   O peration     | Version:  2506                                  |
|   \\  /    A nd           | Website:  www.openfoam.com                      |
|    \\/     M anipulation  |                                                 |
\*---------------------------------------------------------------------------*/
FoamFile
{
    version     2.0;
    format      ascii;
    arch        "LSB;label=32;scalar=64";
    class       volVectorField;
    location    "3.8";
    object      U;
}
// * * * * * * * * * * * * * * * * * * * * * * * * * * * * * * * * * * * * * //

dimensions      [0 1 -1 0 0 0 0];

internalField   nonuniform List<vector> 
4000
(
(0.0055624 0.000667756 0)
(0.00438229 0.000764107 3.38956e-21)
(0.00303506 0.000449923 -3.49295e-21)
(0.00196206 0.000239309 -7.11681e-21)
(0.00125596 0.000136443 1.44325e-20)
(0.000773772 7.99703e-05 -7.28351e-21)
(0.000420997 4.77941e-05 0)
(0.000155678 2.92187e-05 0)
(-4.88125e-05 1.74378e-05 0)
(-0.000209259 9.12852e-06 -1.44548e-20)
(-0.000337288 2.76295e-06 1.44222e-20)
(-0.000440631 -2.32548e-06 -2.85214e-20)
(-0.000524713 -6.43529e-06 2.84785e-20)
(-0.000593709 -9.80115e-06 0)
(-0.000650962 -1.25981e-05 0)
(-0.000699302 -1.49687e-05 0)
(-0.00074062 -1.70125e-05 -2.76805e-20)
(-0.000776895 -1.88069e-05 2.76611e-20)
(-0.000809328 -2.04221e-05 0)
(-0.000839243 -2.19107e-05 0)
(-0.000867483 -2.33287e-05 0)
(-0.000894677 -2.47191e-05 0)
(-0.000921265 -2.61069e-05 0)
(-0.000947527 -2.75108e-05 -5.32087e-20)
(-0.000973619 -2.89513e-05 1.06087e-19)
(-0.000999491 -3.04508e-05 -5.28782e-20)
(-0.00102497 -3.20295e-05 0)
(-0.00104964 -3.37127e-05 0)
(-0.00107298 -3.554e-05 0)
(-0.00109403 -3.75841e-05 0)
(-0.00111113 -3.99582e-05 5.11745e-20)
(-0.00112075 -4.32343e-05 -5.11661e-20)
(-0.00111807 -4.9615e-05 0)
(-0.0010918 -6.16883e-05 -4.4139e-20)
(-0.00104101 -9.83082e-05 -5.00708e-20)
(-0.000976894 -0.000156631 2.5182e-19)
(-0.000904924 -0.000210313 2.02202e-19)
(-0.000821492 -0.000244837 -5.11132e-20)
(-0.000723561 -0.000255086 2.05814e-19)
(-0.000614712 -0.000235072 4.67229e-19)
(-0.000479321 -0.000178118 -5.25543e-20)
(-0.000322888 -8.36173e-05 -4.21723e-19)
(-0.000154771 2.92479e-05 4.23473e-19)
(1.47521e-05 0.000139786 0)
(0.000173254 0.000238206 0)
(0.000316045 0.000320695 2.63483e-20)
(0.000448077 0.000387087 3.94925e-19)
(0.000560335 0.000433528 3.94537e-19)
(0.000653743 0.000460957 2.36392e-19)
(0.000730466 0.000469668 2.09367e-19)
(0.000781586 0.00045923 -2.08625e-19)
(0.000813281 0.00043317 0)
(0.000813889 0.000390322 2.58253e-20)
(0.000786651 0.000335529 -4.38884e-19)
(0.000726359 0.000270511 0)
(0.000630506 0.000198072 1.02195e-19)
(0.000503598 0.000125209 2.52522e-20)
(0.000337473 5.87759e-05 -8.75278e-25)
(0.000149728 5.77093e-06 2.64659e-22)
(-6.47529e-05 -2.47748e-05 1.2658e-20)
(-0.000293604 -3.25668e-05 -2.42618e-20)
(-0.00051753 -1.19535e-05 0)
(-0.000735001 3.28506e-05 0)
(-0.000935853 9.79578e-05 -4.59895e-20)
(-0.00111284 0.000181009 -3.17905e-19)
(-0.0012712 0.000272152 -4.42897e-20)
(-0.00140021 0.000371589 4.43482e-20)
(-0.00151418 0.00046974 -4.2646e-20)
(-0.0016038 0.000567144 -1.26063e-19)
(-0.0016802 0.000657209 2.89534e-19)
(-0.00174464 0.000741614 4.08102e-20)
(-0.00179351 0.000818968 -9.4499e-22)
(-0.00183627 0.00088722 0)
(-0.00186829 0.000947899 0)
(-0.00189026 0.000998635 0)
(-0.0019058 0.00103958 1.84863e-20)
(-0.00191335 0.00107149 2.74056e-19)
(-0.0019119 0.00109353 0)
(-0.00190449 0.00110619 -1.0043e-21)
(-0.00189148 0.00111075 -1.73223e-20)
(-0.00187302 0.00110764 2.74305e-19)
(-0.00185103 0.00109781 -2.4547e-19)
(-0.00182645 0.00108238 -7.50806e-23)
(-0.00180048 0.00106206 -2.65763e-19)
(-0.00177565 0.001038 -1.19435e-21)
(-0.00175128 0.00101083 2.51648e-19)
(-0.00172723 0.00098005 2.51698e-19)
(-0.0017074 0.000946709 -2.52315e-19)
(-0.00168931 0.00091124 3.79529e-21)
(-0.00167103 0.000872057 2.38256e-19)
(-0.00165746 0.000829878 0)
(-0.00164475 0.000785221 2.37895e-19)
(-0.00163145 0.000736204 2.19942e-19)
(-0.00162211 0.000683742 -2.23572e-19)
(-0.00160998 0.000627502 1.23883e-19)
(-0.00160138 0.000566723 -1.35601e-20)
(-0.0015903 0.000502664 -1.06774e-19)
(-0.0015809 0.000434404 -1.30944e-20)
(-0.0015683 0.000363651 -9.077e-20)
(-0.00155748 0.00028923 -6.39675e-20)
(-0.00154495 0.000214387 2.53125e-20)
(-0.00153127 0.000137526 -6.27431e-20)
(-0.00151903 6.1678e-05 6.24168e-21)
(-0.00150311 -1.1638e-05 6.21089e-21)
(-0.00148636 -8.32006e-05 2.47254e-20)
(-0.0014672 -0.000150815 0)
(-0.00144474 -0.000215701 0)
(-0.00142194 -0.000274341 1.95225e-19)
(-0.00139374 -0.000326857 6.22388e-21)
(-0.00136291 -0.000372022 -1.0317e-19)
(-0.00132754 -0.000409055 -1.00377e-19)
(-0.00128771 -0.000437173 -3.14765e-21)
(-0.00124227 -0.00045636 1.04755e-19)
(-0.00119236 -0.000465406 2.22168e-22)
(-0.00113449 -0.000465493 0)
(-0.00107437 -0.000455773 -2.05763e-19)
(-0.00100693 -0.000436461 6.42752e-21)
(-0.000934508 -0.000408805 1.93554e-19)
(-0.000858475 -0.000372969 6.50956e-21)
(-0.000777707 -0.000329943 2.07823e-19)
(-0.000693582 -0.000280715 6.48191e-22)
(-0.000607581 -0.00022635 -2.08094e-19)
(-0.000520446 -0.000168212 -1.2943e-20)
(-0.000432438 -0.000107685 2.33853e-19)
(-0.000345437 -4.59743e-05 -1.30335e-20)
(-0.000259691 1.56394e-05 -2.07158e-19)
(-0.000175866 7.6012e-05 -2.57e-20)
(-9.5258e-05 0.000133984 2.58806e-20)
(-1.84875e-05 0.000189101 -2.05258e-19)
(5.62267e-05 0.00024082 1.78049e-19)
(0.000125904 0.000287448 2.54839e-20)
(0.000190663 0.00032841 3.76844e-19)
(0.00025395 0.000363999 2.51235e-20)
(0.00031086 0.00039241 1.98259e-19)
(0.000360831 0.000413382 -7.45536e-22)
(0.000410806 0.000427651 0)
(0.000448964 0.000432693 0)
(0.000481237 0.000428884 3.71181e-22)
(0.000503036 0.0004161 0)
(0.000511883 0.000393506 2.32417e-20)
(0.000505122 0.000362041 6.89392e-20)
(0.000477281 0.000321656 2.26456e-20)
(0.00042223 0.000274804 4.47696e-20)
(0.000341918 0.000225627 2.24334e-20)
(0.000224895 0.000179732 6.51936e-20)
(8.44682e-05 0.000137731 -2.15434e-20)
(-9.26221e-05 0.000108619 0)
(-0.000294014 9.44311e-05 0)
(-0.000508639 0.000102016 0)
(-0.00073174 0.000133169 1.88276e-20)
(-0.000949291 0.000184266 -1.875e-20)
(-0.00115409 0.000258873 -7.1402e-20)
(-0.00134103 0.000345219 -6.89319e-20)
(-0.00149991 0.000446805 0)
(-0.00163682 0.000549888 6.41826e-20)
(-0.00174306 0.000657178 0)
(-0.00183113 0.000756964 1.45388e-20)
(-0.00189098 0.000850234 -7.23314e-20)
(-0.00190681 0.000907683 1.37132e-20)
(-0.00184905 0.000878469 -2.29348e-19)
(-0.00189134 0.000773025 5.18627e-20)
(-0.00196651 0.000687582 5.03043e-20)
(-0.00200985 0.000584151 0)
(-0.00201855 0.000462669 0)
(-0.00200919 0.000331069 0)
(-0.00198743 0.00020525 0)
(-0.00195745 0.000104301 0)
(-0.00189524 5.48618e-05 -1.00118e-20)
(-0.00177337 3.6003e-05 3.5089e-22)
(-0.00162479 2.69386e-05 3.46244e-22)
(-0.00147905 2.33027e-05 9.41912e-21)
(-0.00135102 2.3009e-05 0)
(-0.00124765 2.41967e-05 -8.44202e-21)
(-0.0011703 2.57035e-05 8.4435e-21)
(-0.00111744 2.68732e-05 -2.48606e-22)
(-0.00108612 2.74906e-05 0)
(-0.00107212 2.83134e-05 0)
(-0.00107025 2.92778e-05 6.8667e-21)
(-0.00107591 2.9802e-05 -6.8555e-21)
(-0.00108523 2.98816e-05 0)
(-0.00109506 2.91605e-05 0)
(-0.00110336 2.7713e-05 2.61391e-21)
(-0.0011085 2.5909e-05 -1.56788e-22)
(-0.0011094 2.381e-05 -2.62793e-21)
(-0.00110609 2.15647e-05 0)
(-0.00109926 1.9374e-05 0)
(-0.00108992 1.73711e-05 0)
(-0.00107946 1.53867e-05 0)
(-0.00106963 1.34827e-05 -1.09019e-22)
(-0.00106191 1.19607e-05 0)
(-0.00105738 1.09451e-05 0)
(-0.00105682 1.04779e-05 0)
(-0.00106058 1.04168e-05 -5.24328e-22)
(-0.00106877 1.03351e-05 5.23393e-22)
(-0.00108139 1.01506e-05 0)
(-0.00109811 9.88417e-06 -4.1765e-23)
(-0.00111828 9.53862e-06 -1.11705e-22)
(-0.0011419 9.09696e-06 7.41442e-23)
(-0.00117234 9.72732e-06 3.72452e-23)
(-0.00120877 1.48631e-05 0)
(0.00725968 0.0013154 0)
(0.00717874 0.002059 0)
(0.00660216 0.00175685 0)
(0.0057283 0.00135592 -7.0889e-21)
(0.00485257 0.00100633 1.44509e-20)
(0.00408018 0.000743377 -7.34972e-21)
(0.00342578 0.000557769 0)
(0.00288162 0.000427432 -1.49491e-20)
(0.00243384 0.000333692 1.51128e-20)
(0.00206578 0.000264644 -1.51121e-20)
(0.00176225 0.000212381 1.52239e-20)
(0.00151104 0.000171999 3.03496e-20)
(0.00130225 0.000140672 -3.05034e-20)
(0.00112747 0.000116463 -3.03402e-20)
(0.000979668 9.79055e-05 1.47651e-22)
(0.000852977 8.38389e-05 6.06319e-20)
(0.000742514 7.34145e-05 -3.03191e-20)
(0.000644163 6.59392e-05 0)
(0.000554531 6.08131e-05 0)
(0.000470784 5.75449e-05 0)
(0.000390653 5.56648e-05 0)
(0.000312326 5.47786e-05 0)
(0.000234406 5.45687e-05 0)
(0.000155849 5.47656e-05 0)
(7.59065e-05 5.51127e-05 0)
(-5.89937e-06 5.53571e-05 0)
(-8.98106e-05 5.52384e-05 0)
(-0.000175799 5.446e-05 0)
(-0.00026358 5.26044e-05 0)
(-0.000352515 4.90115e-05 0)
(-0.000441534 4.25874e-05 5.65731e-20)
(-0.000528679 3.11824e-05 -2.75767e-22)
(-0.000609448 1.01831e-05 -1.11937e-19)
(-0.00069334 -2.61153e-05 4.88013e-20)
(-0.000757255 -0.000105772 5.51525e-20)
(-0.000729049 -0.00021816 -1.65569e-19)
(-0.000599468 -0.000305205 2.2225e-19)
(-0.000404951 -0.000338146 5.62027e-20)
(-0.000159121 -0.000304666 -5.73087e-19)
(0.000132881 -0.00019489 -1.74624e-19)
(0.000501134 -2.09561e-06 0)
(0.000916776 0.000262246 -5.82102e-20)
(0.00133343 0.000549399 -3.48249e-19)
(0.00173393 0.000822557 -5.80255e-20)
(0.00210829 0.00106474 -4.60979e-19)
(0.00245315 0.00126749 4.59563e-19)
(0.00277614 0.00142937 -7.60826e-22)
(0.00306373 0.00154418 0)
(0.00331708 0.0016127 2.28317e-19)
(0.00353804 0.00163494 0)
(0.00371353 0.00161061 3.64214e-22)
(0.00384798 0.00154564 0)
(0.00392055 0.00143805 2.25457e-19)
(0.00393496 0.00129635 2.24892e-19)
(0.00387454 0.00112475 0)
(0.00373515 0.000932169 -1.04099e-22)
(0.00352026 0.000731926 -1.10969e-19)
(0.00321289 0.000537027 -2.7505e-20)
(0.00284382 0.000363401 -5.47703e-20)
(0.00239581 0.000227825 1.38475e-20)
(0.00189438 0.000135435 0)
(0.00136933 9.97154e-05 -1.08985e-19)
(0.000826857 0.000119846 5.46429e-20)
(0.000296105 0.00019101 1.07945e-19)
(-0.000210373 0.000312271 3.19583e-19)
(-0.000682715 0.000466052 5.23748e-20)
(-0.00110404 0.000651615 -2.53649e-19)
(-0.00148776 0.000849906 4.99573e-20)
(-0.00181819 0.00105745 0)
(-0.00210934 0.00126124 -4.71572e-20)
(-0.00235665 0.00145667 4.66099e-20)
(-0.00256195 0.00164122 -1.91894e-21)
(-0.00273727 0.0018085 0)
(-0.00287773 0.00195641 3.47917e-19)
(-0.00298793 0.00208209 3.40617e-19)
(-0.00307272 0.00218368 -2.06785e-20)
(-0.00313191 0.00226163 2.04706e-20)
(-0.00316793 0.00231582 -1.98525e-20)
(-0.00318482 0.00234674 3.11997e-19)
(-0.0031841 0.00235642 -2.88365e-19)
(-0.00316812 0.00234699 3.01708e-19)
(-0.00314043 0.00232079 3.03278e-19)
(-0.00310339 0.00228067 -1.80989e-20)
(-0.00306002 0.00222921 2.93774e-19)
(-0.00301407 0.00216886 -2.75689e-19)
(-0.00296633 0.0021015 2.72087e-19)
(-0.00291832 0.00202789 -2.69126e-19)
(-0.002874 0.00194847 2.62626e-19)
(-0.00283145 0.00186391 8.04879e-21)
(-0.0027907 0.00177356 -7.95706e-21)
(-0.00275473 0.00167687 0)
(-0.00271977 0.00157416 0)
(-0.00268599 0.00146482 -1.20046e-19)
(-0.00265556 0.00134796 1.31976e-19)
(-0.00262274 0.00122479 -1.15382e-19)
(-0.0025934 0.00109454 -2.8347e-20)
(-0.00255985 0.000959075 -2.24295e-22)
(-0.00252734 0.000816807 7.44022e-23)
(-0.00249039 0.000670681 2.43061e-19)
(-0.00245394 0.000519358 3.98663e-20)
(-0.00241308 0.000367456 -5.26894e-20)
(-0.00236969 0.000214064 5.21483e-20)
(-0.00232168 6.37476e-05 0)
(-0.00226845 -8.16844e-05 6.42577e-21)
(-0.00221083 -0.000221585 -6.44701e-21)
(-0.00214706 -0.000352291 0)
(-0.00207457 -0.00047409 0)
(-0.00199428 -0.000582151 -1.03734e-19)
(-0.00190352 -0.000675841 1.04198e-19)
(-0.00180253 -0.000751633 -1.08208e-19)
(-0.0016901 -0.000808804 2.11885e-19)
(-0.00156635 -0.000845983 2.15206e-23)
(-0.00142974 -0.000862609 3.38099e-21)
(-0.00128357 -0.000857145 1.09017e-19)
(-0.00112311 -0.000829557 0)
(-0.000954133 -0.000779417 0)
(-0.000774428 -0.000708475 0)
(-0.00058507 -0.000617677 -2.33259e-19)
(-0.000389885 -0.000508623 -2.19728e-19)
(-0.000189075 -0.000383976 0)
(1.65737e-05 -0.00024597 2.59561e-19)
(0.000224043 -9.74334e-05 -4.31809e-20)
(0.0004318 5.80792e-05 2.86557e-20)
(0.000639757 0.000217783 -1.43469e-20)
(0.00084554 0.00037849 2.83162e-20)
(0.00104819 0.00053674 -2.2637e-19)
(0.00124696 0.000689816 1.96757e-19)
(0.00144057 0.000834996 -2.52021e-19)
(0.00162885 0.000970385 2.96194e-22)
(0.00181352 0.00109426 -1.95356e-19)
(0.00199023 0.00120329 0)
(0.00215961 0.00129586 -2.20863e-19)
(0.00232714 0.00137203 2.71713e-20)
(0.00248455 0.00142832 1.89268e-19)
(0.00263194 0.00146351 -2.16587e-19)
(0.00277798 0.00147883 2.65807e-20)
(0.00290452 0.00146949 -2.67367e-20)
(0.00301813 0.00143643 2.68701e-20)
(0.00311124 0.00137909 -2.62713e-20)
(0.00317735 0.00129684 2.55731e-20)
(0.00321027 0.00118907 -1.28018e-19)
(0.00319692 0.00105892 1.25147e-19)
(0.00312632 0.000911935 -1.2452e-19)
(0.00299797 0.000756697 0)
(0.00278666 0.000602315 -2.41457e-20)
(0.00251224 0.000456439 2.3461e-20)
(0.00214932 0.000334825 1.1563e-20)
(0.00171613 0.000244937 0)
(0.00123316 0.000200641 2.23035e-20)
(0.000701801 0.000209483 -4.37738e-20)
(0.000158372 0.000266847 0)
(-0.000388917 0.000382381 8.28483e-20)
(-0.000914401 0.000534847 1.95919e-20)
(-0.00140312 0.000731106 -1.93653e-20)
(-0.00185313 0.000943856 0)
(-0.00224441 0.00117474 -7.04817e-20)
(-0.00258657 0.00139837 6.7355e-20)
(-0.00286348 0.00160904 -6.51436e-20)
(-0.00307337 0.00175225 0)
(-0.00319988 0.00177851 1.19571e-19)
(-0.00336401 0.00159973 7.14252e-20)
(-0.00345637 0.00137439 -1.23674e-19)
(-0.00349754 0.00109901 1.30206e-20)
(-0.003459 0.000787977 -1.28992e-20)
(-0.00333877 0.000461296 -1.20832e-20)
(-0.00313443 0.000164532 -1.15078e-20)
(-0.00284803 -7.13016e-05 1.02632e-20)
(-0.00248842 -0.00019808 6.97781e-22)
(-0.00209592 -0.00024551 0)
(-0.00171112 -0.000248573 -6.55778e-22)
(-0.00136261 -0.000225234 0)
(-0.00106458 -0.000188063 6.15268e-22)
(-0.000823496 -0.000146139 9.35357e-21)
(-0.000640626 -0.00010556 -9.95335e-21)
(-0.000510044 -7.00336e-05 8.30783e-22)
(-0.000422986 -4.13379e-05 -8.35252e-21)
(-0.000369515 -1.93253e-05 1.58471e-20)
(-0.000340009 -3.70799e-06 -1.56553e-20)
(-0.000324755 5.66294e-06 8.11114e-21)
(-0.000315708 9.16472e-06 0)
(-0.000306873 7.85693e-06 -3.7156e-21)
(-0.000293802 3.02653e-06 3.48839e-21)
(-0.000273964 -3.26547e-06 3.77308e-22)
(-0.000246623 -9.78636e-06 2.7545e-21)
(-0.0002127 -1.5424e-05 -2.41825e-21)
(-0.000174366 -1.92836e-05 -2.39534e-21)
(-0.000134682 -2.08151e-05 2.68008e-21)
(-9.69982e-05 -1.99941e-05 -2.30427e-21)
(-6.43942e-05 -1.69004e-05 4.02053e-21)
(-3.95789e-05 -1.16315e-05 -2.48172e-21)
(-2.46844e-05 -4.58947e-06 8.42026e-22)
(-2.09449e-05 3.67473e-06 1.77666e-22)
(-2.87988e-05 1.25161e-05 0)
(-4.78427e-05 2.10545e-05 -3.63805e-22)
(-7.6808e-05 2.88181e-05 4.97172e-22)
(-0.00011406 3.55644e-05 -2.60006e-23)
(-0.000157629 4.13518e-05 1.64741e-22)
(-0.000206085 4.66363e-05 0)
(-0.000261815 5.2949e-05 0)
(-0.00032261 6.31989e-05 1.14816e-23)
(0.00721797 0.00086192 0)
(0.00752034 0.00174574 3.43295e-21)
(0.00774323 0.00195297 -3.408e-21)
(0.0076394 0.00184934 -6.79305e-21)
(0.00731883 0.00163299 6.85643e-21)
(0.00685835 0.00138138 0)
(0.00636546 0.00114653 0)
(0.00588669 0.000943717 0)
(0.00544545 0.000774897 1.41001e-20)
(0.00505112 0.000637859 -2.84183e-20)
(0.00470423 0.000526757 -1.41707e-20)
(0.00440215 0.000436492 2.86883e-20)
(0.00414041 0.000363805 2.86065e-20)
(0.00391343 0.000305882 -2.87671e-20)
(0.00371561 0.000260181 0)
(0.00354181 0.000224639 2.86088e-20)
(0.00338729 0.00019766 -5.72838e-20)
(0.0032477 0.000177832 2.86622e-20)
(0.00311919 0.000163892 0)
(0.00299844 0.000154787 0)
(0.00288256 0.000149553 0)
(0.0027691 0.000147332 0)
(0.00265598 0.000147395 0)
(0.00254147 0.000149118 5.61481e-20)
(0.00242417 0.000151947 -5.62735e-20)
(0.00230292 0.000155379 0)
(0.0021768 0.00015893 0)
(0.00204507 0.000162078 0)
(0.00190716 0.000164168 0)
(0.00176265 0.000164267 0)
(0.00161118 0.000161 5.51729e-20)
(0.00145269 0.000152373 -5.5357e-20)
(0.001291 0.000135342 0)
(0.00109911 0.000104197 -3.44564e-21)
(0.000909811 4.17235e-05 0)
(0.000848388 -3.56637e-05 1.10047e-19)
(0.000946028 -7.15351e-05 -2.204e-19)
(0.00114937 -3.54499e-05 0)
(0.00143542 8.48798e-05 4.44054e-19)
(0.00179899 0.000295353 -2.88501e-22)
(0.00226988 0.000597397 5.56982e-20)
(0.00280789 0.000967158 -5.57866e-20)
(0.003349 0.00135208 4.42978e-19)
(0.0038734 0.00171536 0)
(0.00437325 0.00203814 4.93586e-19)
(0.00484533 0.00231036 -4.64749e-19)
(0.00529641 0.00252852 -4.62893e-19)
(0.00571275 0.00268585 0)
(0.00609399 0.00278202 -2.16071e-19)
(0.00644054 0.00281447 0)
(0.00673951 0.00278286 4.29869e-19)
(0.00699174 0.00269203 0)
(0.00717541 0.00253892 -1.87087e-19)
(0.0072918 0.0023318 -2.38787e-19)
(0.00732146 0.0020751 -2.10736e-19)
(0.0072564 0.00178197 -1.04879e-19)
(0.00709421 0.001466 -1.04172e-19)
(0.00681273 0.00114107 -5.1841e-20)
(0.00643866 0.000827649 2.59295e-20)
(0.00594444 0.000541845 3.86658e-20)
(0.00535681 0.000299014 0)
(0.00469955 0.00011642 1.02208e-19)
(0.00398325 2.11851e-06 -1.0201e-19)
(0.00324451 -4.26222e-05 0)
(0.00249741 -1.45998e-05 -4.06952e-19)
(0.0017671 7.2402e-05 0)
(0.00107489 0.00021652 -5.03181e-20)
(0.000427902 0.000397633 5.06611e-20)
(-0.000156011 0.00060864 0)
(-0.000683544 0.000833851 -4.83939e-20)
(-0.00114764 0.00106119 4.76822e-20)
(-0.00155099 0.00128512 5.0862e-19)
(-0.00190236 0.00149375 -3.16462e-19)
(-0.00219663 0.0016822 1.72012e-21)
(-0.0024426 0.00184648 -3.43587e-19)
(-0.0026441 0.00198225 -2.09359e-20)
(-0.00280221 0.00208899 3.50928e-19)
(-0.00292264 0.00216691 0)
(-0.00300971 0.00221603 3.16506e-19)
(-0.00306566 0.00223829 5.99194e-19)
(-0.00309484 0.00223668 -5.77641e-19)
(-0.00310171 0.0022143 -3.07215e-19)
(-0.00308952 0.00217481 3.01167e-19)
(-0.00306241 0.00212182 -2.94003e-19)
(-0.00302467 0.00205841 0)
(-0.00297899 0.00198735 -2.7436e-19)
(-0.00292906 0.00191026 -3.3432e-21)
(-0.00287841 0.00182711 -5.36766e-19)
(-0.00282648 0.00173859 -2.44079e-19)
(-0.00277552 0.00164472 -2.63474e-19)
(-0.00272677 0.00154419 0)
(-0.00267738 0.00143708 0)
(-0.00262885 0.00132336 1.20289e-19)
(-0.00258112 0.00120307 0)
(-0.00253041 0.00107741 1.44762e-20)
(-0.00248023 0.000946036 -1.42992e-20)
(-0.00242583 0.000811064 1.12035e-19)
(-0.00237146 0.000671846 -1.10434e-19)
(-0.00231243 0.000530738 -9.50727e-20)
(-0.00225192 0.000387309 -1.34417e-20)
(-0.0021855 0.000244908 5.29834e-20)
(-0.00211571 0.00010394 -2.62444e-20)
(-0.00203874 -3.3033e-05 1.9541e-20)
(-0.00195539 -0.000164521 -6.50614e-21)
(-0.00186316 -0.000288645 0)
(-0.00176139 -0.000401739 -5.18124e-20)
(-0.00164778 -0.000502599 0)
(-0.00152112 -0.000587547 -1.04382e-19)
(-0.00138041 -0.000654932 -1.85656e-22)
(-0.00122427 -0.000701805 1.02763e-19)
(-0.00105203 -0.000726185 -1.06998e-19)
(-0.000863888 -0.000726144 3.38283e-21)
(-0.000658714 -0.000700325 0)
(-0.000440222 -0.000647544 -1.09887e-19)
(-0.000204841 -0.000568014 1.11102e-19)
(4.27839e-05 -0.000461155 0)
(0.000301376 -0.000329085 -6.97035e-21)
(0.000570992 -0.000172931 2.30037e-19)
(0.000847604 4.86373e-06 2.09508e-19)
(0.00112977 0.000200825 -2.07706e-19)
(0.00141713 0.000411957 2.20878e-19)
(0.00170643 0.000634394 1.37201e-20)
(0.00199558 0.000863642 -2.05539e-19)
(0.00228484 0.00109582 -2.74616e-20)
(0.0025722 0.00132684 -2.44188e-19)
(0.0028566 0.00155241 4.87449e-19)
(0.00313763 0.00176877 -2.43234e-19)
(0.0034143 0.00197222 1.88376e-19)
(0.00368687 0.00215953 -1.59373e-19)
(0.00395719 0.00232797 -2.64476e-19)
(0.00422133 0.00247378 -1.57476e-19)
(0.00447965 0.00259473 -2.63305e-20)
(0.00473754 0.00269 -1.81535e-19)
(0.00498677 0.00275542 -2.33103e-19)
(0.00522745 0.0027893 2.54357e-20)
(0.00546683 0.00279198 -2.55696e-20)
(0.0056871 0.00275857 -7.53683e-20)
(0.00589279 0.00268969 -2.44648e-20)
(0.00607579 0.00258401 2.44756e-20)
(0.00622577 0.00244129 -2.4616e-20)
(0.00633575 0.0022609 9.60537e-20)
(0.0063925 0.00204612 -2.4124e-20)
(0.0063816 0.00180334 4.64522e-22)
(0.0062977 0.00154101 2.32209e-20)
(0.00611247 0.0012678 9.02976e-20)
(0.00584099 0.000998405 0)
(0.00545136 0.000747138 -4.32598e-20)
(0.00495695 0.000529508 2.69813e-20)
(0.00437484 0.00036101 -2.1019e-20)
(0.00370183 0.000255531 6.16166e-20)
(0.00298011 0.000214427 1.99651e-20)
(0.00221089 0.000249945 -7.96616e-20)
(0.00143264 0.000345967 -9.76702e-20)
(0.00066934 0.000508218 3.85013e-20)
(-6.05101e-05 0.000710468 -9.4038e-20)
(-0.000735836 0.000949948 7.18711e-20)
(-0.00135285 0.00119677 1.69971e-20)
(-0.00188913 0.00143414 6.54848e-20)
(-0.00234223 0.00161363 -1.60897e-20)
(-0.00269873 0.0016856 6.11967e-20)
(-0.00297243 0.00152287 -5.77338e-20)
(-0.00305142 0.00124266 4.18133e-20)
(-0.00304577 0.00089423 1.36336e-20)
(-0.00292179 0.000507883 2.59046e-20)
(-0.00267195 0.000117783 0)
(-0.00229517 -0.000223164 2.38644e-20)
(-0.00179398 -0.000484358 -2.19197e-20)
(-0.00121697 -0.000619832 -3.07948e-22)
(-0.000655364 -0.000651417 4.01808e-22)
(-0.000138436 -0.000617311 1.06593e-21)
(0.000321399 -0.000543346 1.0499e-20)
(0.000713039 -0.00044897 -6.16687e-22)
(0.00103229 -0.000348831 0)
(0.0012815 -0.000253579 5.6593e-22)
(0.00146787 -0.000170202 -5.42423e-22)
(0.00160159 -0.000102447 -9.17366e-21)
(0.00169437 -5.18929e-05 8.61289e-21)
(0.00175804 -1.81213e-05 7.43199e-21)
(0.0018036 6.30163e-07 -7.86675e-21)
(0.00184074 6.16211e-06 0)
(0.00187737 2.0879e-06 4.09477e-22)
(0.00191896 -8.38211e-06 0)
(0.00196839 -2.17827e-05 2.46672e-21)
(0.00202591 -3.4936e-05 -1.69157e-22)
(0.0020901 -4.53318e-05 -2.96345e-21)
(0.00215799 -5.10978e-05 -5.94418e-22)
(0.00222557 -5.12169e-05 -2.75879e-22)
(0.00228846 -4.53172e-05 2.54027e-22)
(0.0023425 -3.37681e-05 0)
(0.00238406 -1.76134e-05 -2.11171e-22)
(0.0024104 1.7075e-06 -7.18715e-22)
(0.00241989 2.25414e-05 5.47851e-22)
(0.00241245 4.34229e-05 5.54497e-22)
(0.00238891 6.30426e-05 -6.81987e-22)
(0.00235117 8.03508e-05 0)
(0.00230184 9.4682e-05 -1.07888e-22)
(0.00224402 0.000105885 -1.57142e-22)
(0.00218066 0.000114384 -3.94314e-23)
(0.0021117 0.000121556 3.93946e-23)
(0.00203679 0.000132255 -1.09679e-23)
(0.00715994 0.000474377 0)
(0.00735271 0.00119804 0)
(0.00772409 0.00160659 0)
(0.00807636 0.0017619 -6.74941e-21)
(0.00827185 0.00174117 6.73549e-21)
(0.00823495 0.00163574 0)
(0.00810834 0.00147475 0)
(0.00791209 0.00129686 0)
(0.00767691 0.00112356 0)
(0.00742903 0.000966603 0)
(0.00718277 0.000827458 0)
(0.00694735 0.000706371 2.71338e-20)
(0.00672749 0.000603989 -2.72941e-20)
(0.00652424 0.000519049 2.71822e-20)
(0.00633733 0.000449553 -5.44928e-20)
(0.00616576 0.000393756 2.72965e-20)
(0.00600774 0.000350249 2.71341e-20)
(0.00586093 0.000317407 -2.72255e-20)
(0.00572298 0.00029365 0)
(0.00559159 0.000277685 0)
(0.00546447 0.000268266 -5.38241e-20)
(0.00533944 0.000264222 5.39536e-20)
(0.00521445 0.000264532 0)
(0.00508759 0.000268293 5.33841e-20)
(0.00495711 0.000274706 -5.35065e-20)
(0.00482143 0.000283069 0)
(0.00467906 0.000292746 0)
(0.00452863 0.000303108 -5.28141e-20)
(0.00436876 0.000313446 2.68833e-22)
(0.00419806 0.000322862 5.28505e-20)
(0.00401497 0.000330155 5.2492e-20)
(0.00381753 0.000333769 -1.05107e-19)
(0.0036085 0.000331579 5.26385e-20)
(0.00335594 0.000317718 -4.90934e-20)
(0.00309213 0.000288086 5.27707e-20)
(0.00295299 0.000264587 5.26635e-20)
(0.00298503 0.000291028 -5.29094e-20)
(0.00314381 0.000393663 -1.58736e-19)
(0.0034063 0.000582865 -2.6545e-19)
(0.0037663 0.000859618 -5.32603e-20)
(0.00424686 0.00121871 5.33544e-20)
(0.00480432 0.00162973 4.77004e-19)
(0.00537447 0.0020478 -4.7485e-19)
(0.00593727 0.0024425 -4.72562e-19)
(0.00648527 0.00279545 1.04708e-19)
(0.00701495 0.00309593 -7.8335e-20)
(0.00753072 0.00333845 2.33932e-19)
(0.00802026 0.00351559 0)
(0.00848103 0.00362629 2.32587e-19)
(0.00891283 0.00366401 -2.58341e-20)
(0.009304 0.00363047 -2.05566e-19)
(0.00965185 0.00352902 -2.55091e-20)
(0.00993795 0.00335571 2.55093e-19)
(0.0101612 0.00311865 1.77539e-19)
(0.0103037 0.00282071 2.0114e-19)
(0.0103564 0.00247374 9.96151e-20)
(0.0103128 0.00208963 2.47116e-20)
(0.0101498 0.00168044 -2.46196e-20)
(0.00988506 0.00126783 -2.43505e-20)
(0.00948679 0.000863962 -3.61345e-20)
(0.00897471 0.000490553 -2.39377e-20)
(0.00836026 0.00016472 0)
(0.00765087 -9.94028e-05 -9.5553e-20)
(0.0068798 -0.000292954 0)
(0.00605795 -0.00040845 3.33201e-19)
(0.00522112 -0.000450662 1.90732e-19)
(0.00438611 -0.000420266 4.76934e-20)
(0.0035753 -0.000332101 0)
(0.00280899 -0.000194264 0)
(0.00209314 -2.16396e-05 1.88657e-19)
(0.00144189 0.000170801 0)
(0.000854161 0.00037519 -4.1941e-19)
(0.000328481 0.000576389 4.16305e-19)
(-0.000129291 0.000767126 -3.87638e-19)
(-0.000529388 0.000941247 2.33899e-22)
(-0.000872756 0.00109165 2.26849e-22)
(-0.00116016 0.00121596 -2.97565e-19)
(-0.00139891 0.00131376 -4.16757e-20)
(-0.00159302 0.00138433 -3.04662e-19)
(-0.00174479 0.00142899 -3.18138e-19)
(-0.00185964 0.00145082 -1.63492e-21)
(-0.00194272 0.001453 2.95523e-19)
(-0.00199768 0.0014393 -2.8945e-19)
(-0.00202957 0.00141344 0)
(-0.00204304 0.00137835 -4.47705e-21)
(-0.00204182 0.00133703 -2.78348e-19)
(-0.00203132 0.00129124 5.51077e-19)
(-0.00201469 0.00124071 8.14898e-19)
(-0.00199269 0.00118576 2.73585e-19)
(-0.00196995 0.00112621 -9.20067e-21)
(-0.00194679 0.00105997 0)
(-0.00192125 0.000986784 -7.80877e-21)
(-0.00189562 0.000906324 7.71311e-21)
(-0.00186782 0.000817741 0)
(-0.00183553 0.000722364 -1.18532e-19)
(-0.00180087 0.000619831 1.44734e-20)
(-0.00175901 0.00051183 -1.43144e-20)
(-0.00171286 0.000399254 -2.25106e-22)
(-0.00165822 0.000284023 -1.1064e-19)
(-0.00159677 0.000166688 1.35842e-20)
(-0.00152415 4.98446e-05 -2.6934e-20)
(-0.00144248 -6.52726e-05 1.3374e-20)
(-0.00134731 -0.000176334 5.20364e-24)
(-0.00124 -0.00028112 6.5702e-21)
(-0.00111666 -0.000377503 -6.59718e-21)
(-0.000977454 -0.000461829 5.26581e-20)
(-0.000820385 -0.000531841 5.60731e-20)
(-0.000644437 -0.000583814 1.02884e-19)
(-0.000449878 -0.000615193 -2.13737e-19)
(-0.000235738 -0.000622938 1.04275e-19)
(-2.59511e-06 -0.000604722 3.40051e-21)
(0.000248405 -0.00055861 3.38069e-21)
(0.000517608 -0.000483327 -3.4005e-21)
(0.000800272 -0.000378052 1.08357e-19)
(0.00109903 -0.000243064 -7.11965e-21)
(0.00140914 -7.87695e-05 5.36835e-23)
(0.00172811 0.000112587 -9.37115e-20)
(0.00205626 0.00032899 -3.27968e-19)
(0.00238955 0.000567306 2.12738e-19)
(0.00272625 0.000823634 2.1288e-19)
(0.00306649 0.00109418 -2.2521e-19)
(0.00340749 0.00137441 -1.9693e-19)
(0.00374754 0.00165942 1.97188e-19)
(0.00408734 0.00194476 2.34381e-19)
(0.00442561 0.00222574 1.95282e-19)
(0.00476177 0.00249768 -2.677e-20)
(0.0050959 0.00275624 2.58498e-20)
(0.00542753 0.0029972 0)
(0.00575716 0.00321678 2.29402e-19)
(0.00608657 0.00341167 2.02634e-19)
(0.0064128 0.00357783 1.76375e-19)
(0.00673595 0.00371266 0)
(0.00706045 0.0038144 2.23526e-19)
(0.00737922 0.00387845 -2.47565e-20)
(0.00769237 0.0039033 7.30396e-20)
(0.00800453 0.00388841 2.43471e-20)
(0.00830059 0.00382917 6.32993e-22)
(0.00858271 0.00372643 1.18691e-19)
(0.00884307 0.00357795 -2.36488e-20)
(0.00907198 0.00338417 1.15478e-19)
(0.00926139 0.00314742 -2.06316e-19)
(0.00939827 0.0028701 -1.80257e-19)
(0.00946936 0.00255748 -8.82854e-20)
(0.0094669 0.00221782 0)
(0.0093646 0.00185929 2.08355e-20)
(0.00917176 0.0014975 -2.95125e-22)
(0.00885574 0.00114343 -9.97073e-21)
(0.00842315 0.00081569 3.51141e-20)
(0.00788258 0.000528709 -1.99195e-20)
(0.00722426 0.000298617 3.85405e-20)
(0.0064853 0.000133384 -3.79166e-20)
(0.00565854 4.58398e-05 0)
(0.00478691 3.03561e-05 9.12827e-20)
(0.00388382 9.16836e-05 -3.60433e-20)
(0.00298382 0.000212313 7.1377e-20)
(0.00210645 0.00038726 1.77181e-20)
(0.00127168 0.000589382 -8.59154e-20)
(0.000503362 0.000798706 1.71775e-20)
(-0.00017227 0.000966338 0)
(-0.00076472 0.00105668 -7.88306e-20)
(-0.0011621 0.00091911 4.19354e-22)
(-0.00125814 0.000635416 4.08825e-22)
(-0.00123079 0.000280294 4.12486e-22)
(-0.00106502 -0.000108551 -2.64176e-20)
(-0.000744182 -0.000490674 4.18244e-22)
(-0.000277251 -0.000810044 2.02548e-22)
(0.0003289 -0.00103803 1.1663e-20)
(0.000993491 -0.00113765 -1.00565e-20)
(0.00160872 -0.0011248 -1.05131e-20)
(0.00215724 -0.0010368 -8.95124e-22)
(0.00263964 -0.000902613 9.94496e-21)
(0.00305186 -0.000745114 -1.167e-21)
(0.00339282 -0.000583022 -8.78821e-21)
(0.00366587 -0.000430531 8.75601e-21)
(0.00387774 -0.00029731 1.0288e-21)
(0.00403755 -0.000188996 9.88125e-22)
(0.00415594 -0.000108005 0)
(0.00424405 -5.39734e-05 -7.06805e-21)
(0.00431263 -2.44301e-05 7.04868e-21)
(0.00437132 -1.51573e-05 0)
(0.00442805 -2.11162e-05 7.7644e-22)
(0.00448859 -3.68066e-05 0)
(0.00455617 -5.70183e-05 -6.91206e-22)
(0.00463156 -7.66884e-05 -2.51611e-21)
(0.00471352 -9.15561e-05 2.50608e-21)
(0.00479905 -9.84442e-05 5.64687e-22)
(0.00488395 -9.56626e-05 -5.21196e-22)
(0.00496352 -8.26857e-05 0)
(0.00503301 -6.01411e-05 1.67873e-21)
(0.00508812 -2.97712e-05 -1.67451e-21)
(0.00512549 5.97904e-06 -3.5866e-22)
(0.00514302 4.43242e-05 -6.0196e-22)
(0.00513994 8.24984e-05 6.00527e-22)
(0.00511704 0.000118008 -4.47791e-22)
(0.00507633 0.000148915 4.46878e-22)
(0.00502079 0.000173954 1.67508e-22)
(0.00495411 0.000192609 1.11406e-22)
(0.00488014 0.000205146 -7.40682e-23)
(0.00480122 0.000212525 -9.30546e-23)
(0.00471047 0.000221442 0)
(0.00716549 0.000280486 0)
(0.00714562 0.000798963 0)
(0.00745788 0.00118408 0)
(0.00790408 0.00141292 -6.81659e-21)
(0.00826486 0.00151438 6.76567e-21)
(0.0085136 0.00152304 0)
(0.00867899 0.00146058 -1.32863e-20)
(0.00877166 0.00135974 1.32906e-20)
(0.00877824 0.00124069 1.32017e-20)
(0.0087418 0.00111601 -2.642e-20)
(0.00867205 0.000992135 1.32259e-20)
(0.00857921 0.000875456 0)
(0.00847341 0.000771703 0)
(0.0083598 0.000681564 -2.6256e-20)
(0.00824297 0.000604435 1.25059e-22)
(0.0081261 0.000540153 5.24864e-20)
(0.00801074 0.000488719 -2.62582e-20)
(0.0078972 0.000448858 0)
(0.00778554 0.000419218 0)
(0.00767543 0.000398871 -2.59425e-20)
(0.00756604 0.000386737 2.59984e-20)