/*--------------------------------*- C++ -*----------------------------------*\
| =========                 |                                                 |
| \\      /  F ield         | OpenFOAM: The Open Source CFD Toolbox           |
|  \\    /   O peration     | Version:  2506                                  |
|   \\  /    A nd           | Website:  www.openfoam.com                      |
|    \\/     M anipulation  |                                                 |
\*---------------------------------------------------------------------------*/
FoamFile
{
    version     2.0;
    format      ascii;
    arch        "LSB;label=32;scalar=64";
    class       surfaceScalarField;
    location    "1";
    object      phi;
}
// * * * * * * * * * * * * * * * * * * * * * * * * * * * * * * * * * * * * * //

dimensions      [0 3 -1 0 0 0 0];

oriented        oriented;

internalField   nonuniform List<scalar> 
7780
(
2.08107e-09
4.186e-10
1.64722e-09
4.33962e-10
1.3495e-09
2.97585e-10
1.16531e-09
1.84103e-10
1.05518e-09
1.10121e-10
9.87051e-10
6.81102e-11
9.41776e-10
4.52582e-11
9.09275e-10
3.24935e-11
8.84301e-10
2.49692e-11
8.64088e-10
2.02103e-11
8.47134e-10
1.69523e-11
8.32566e-10
1.45666e-11
8.19817e-10
1.2748e-11
8.08477e-10
1.13382e-11
7.98229e-10
1.02456e-11
7.88813e-10
9.41391e-12
7.80002e-10
8.80828e-12
7.71594e-10
8.40564e-12
7.63395e-10
8.19661e-12
7.55221e-10
8.17083e-12
7.46896e-10
8.32251e-12
7.38242e-10
8.65122e-12
7.29078e-10
9.16115e-12
7.19212e-10
9.86238e-12
7.08437e-10
1.07721e-11
6.96516e-10
1.19183e-11
6.83164e-10
1.33491e-11
6.68034e-10
1.51279e-11
6.50672e-10
1.73596e-11
6.30455e-10
2.02136e-11
6.06466e-10
2.39851e-11
5.77215e-10
2.92439e-11
5.40299e-10
3.69043e-11
4.85602e-10
5.46804e-11
4.362e-10
4.93824e-11
4.14908e-10
2.12801e-11
4.0959e-10
5.32107e-12
4.10915e-10
-1.30408e-12
4.20259e-10
-9.31004e-12
4.41505e-10
-2.12083e-11
4.87624e-10
-4.60945e-11
5.43188e-10
-5.5566e-11
5.95094e-10
-5.1931e-11
6.44643e-10
-4.95847e-11
6.89563e-10
-4.49545e-11
7.31298e-10
-4.17666e-11
7.71696e-10
-4.04323e-11
8.05525e-10
-3.38628e-11
8.37981e-10
-3.2482e-11
8.66753e-10
-2.8793e-11
8.90237e-10
-2.35e-11
9.12286e-10
-2.20543e-11
9.25276e-10
-1.29795e-11
9.37014e-10
-1.17112e-11
9.38134e-10
-1.08376e-12
9.34692e-10
3.4813e-12
9.22685e-10
1.20448e-11
9.00636e-10
2.20852e-11
8.77721e-10
2.29562e-11
8.39575e-10
3.82002e-11
8.03356e-10
3.62982e-11
7.61805e-10
4.16612e-11
7.18985e-10
4.29626e-11
6.7901e-10
4.01365e-11
6.37268e-10
4.19279e-11
6.01741e-10
3.5715e-11
5.65938e-10
3.59895e-11
5.35956e-10
3.01687e-11
5.07444e-10
2.86992e-11
4.82378e-10
2.52458e-11
4.60617e-10
2.19311e-11
4.39528e-10
2.125e-11
4.21696e-10
1.79845e-11
4.04943e-10
1.69001e-11
3.89191e-10
1.58973e-11
3.75188e-10
1.41538e-11
3.62124e-10
1.32258e-11
3.49761e-10
1.25394e-11
3.38627e-10
1.13277e-11
3.28441e-10
1.03939e-11
3.19002e-10
9.65563e-12
3.10425e-10
8.79557e-12
3.02543e-10
8.09436e-12
2.9526e-10
7.4825e-12
2.88671e-10
6.77386e-12
2.82375e-10
6.46709e-12
2.76266e-10
6.26734e-12
2.70771e-10
5.64003e-12
2.65358e-10
5.5435e-12
2.59952e-10
5.52058e-12
2.55267e-10
4.78278e-12
2.50717e-10
4.6319e-12
2.46464e-10
4.32054e-12
2.43272e-10
3.24592e-12
2.40261e-10
3.0537e-12
2.38898e-10
1.39583e-12
2.37991e-10
9.31794e-13
2.38963e-10
-9.54478e-13
2.40486e-10
-1.50993e-12
2.44393e-10
-3.89888e-12
2.49672e-10
-5.27482e-12
2.57576e-10
-7.90218e-12
2.6695e-10
-9.37415e-12
2.77562e-10
-1.0613e-11
2.90969e-10
-1.3408e-11
3.05438e-10
-1.44695e-11
3.22835e-10
-1.73959e-11
3.41409e-10
-1.85711e-11
3.61948e-10
-2.0532e-11
3.83695e-10
-2.17367e-11
4.06604e-10
-2.28942e-11
4.29936e-10
-2.33122e-11
4.54103e-10
-2.4142e-11
4.7703e-10
-2.28966e-11
5.00833e-10
-2.37677e-11
5.22987e-10
-2.21146e-11
5.4409e-10
-2.10606e-11
5.64394e-10
-2.02606e-11
5.82012e-10
-1.75779e-11
5.97687e-10
-1.56398e-11
6.11848e-10
-1.41342e-11
6.23561e-10
-1.1696e-11
6.33074e-10
-9.50234e-12
6.41334e-10
-8.25052e-12
6.47879e-10
-6.52744e-12
6.53251e-10
-5.33502e-12
6.57818e-10
-4.4983e-12
6.61687e-10
-3.76164e-12
6.65671e-10
-3.83464e-12
6.70702e-10
-4.84586e-12
6.75218e-10
-4.31156e-12
6.81102e-10
-5.68114e-12
6.89739e-10
-8.46835e-12
6.98119e-10
-8.27687e-12
7.08754e-10
-1.06226e-11
7.23572e-10
-1.49163e-11
7.36438e-10
-1.30781e-11
7.54081e-10
-1.79586e-11
7.71198e-10
-1.75035e-11
7.8974e-10
-1.89558e-11
8.07985e-10
-1.86344e-11
8.24562e-10
-1.68955e-11
8.37838e-10
-1.34916e-11
8.48423e-10
-1.06888e-11
8.49268e-10
-8.4661e-13
8.49312e-10
2.57167e-14
8.33533e-10
1.58932e-11
8.14684e-10
1.89791e-11
7.8724e-10
2.75748e-11
7.52356e-10
3.50105e-11
7.17414e-10
3.5065e-11
6.73668e-10
4.38754e-11
6.34283e-10
3.9518e-11
5.89469e-10
4.49512e-11
5.49384e-10
4.02028e-11
5.05098e-10
4.43825e-11
4.63728e-10
4.14364e-11
4.19464e-10
4.42913e-11
3.75987e-10
4.34753e-11
3.32632e-10
4.33594e-11
3.30379e-10
2.25458e-12
3.2876e-10
1.64123e-12
3.28243e-10
5.49813e-13
3.30147e-10
-1.87735e-12
3.42144e-10
-1.19939e-11
3.62818e-10
-2.06929e-11
4.01471e-10
-3.86915e-11
4.41956e-10
-4.05232e-11
4.79779e-10
-3.7855e-11
5.17182e-10
-3.74272e-11
5.53861e-10
-3.66959e-11
5.88751e-10
-3.49017e-11
6.20713e-10
-3.19696e-11
6.48854e-10
-2.81465e-11
6.7264e-10
-2.37891e-11
6.91899e-10
-1.92614e-11
7.06744e-10
-1.48487e-11
7.1761e-10
-1.08694e-11
7.25018e-10
-7.41152e-12
7.29627e-10
-4.61388e-12
7.3208e-10
-2.4593e-12
7.32889e-10
-8.15024e-13
7.32676e-10
2.06962e-13
7.31948e-10
7.20896e-13
7.31122e-10
8.20228e-13
7.30509e-10
6.07021e-13
7.30314e-10
1.89367e-13
7.30632e-10
-3.23501e-13
7.31542e-10
-9.14838e-13
7.32929e-10
-1.39147e-12
7.34681e-10
-1.75526e-12
7.36679e-10
-2.00188e-12
7.38767e-10
-2.09015e-12
7.40775e-10
-2.01085e-12
7.42535e-10
-1.76189e-12
7.43878e-10
-1.34465e-12
7.44606e-10
-7.29932e-13
7.44272e-10
3.32323e-13
7.42265e-10
2.00189e-12
5.89473e-12
2.63513e-09
2.83533e-10
2.58941e-09
4.79784e-10
2.44512e-09
4.41934e-10
2.28131e-09
3.47966e-10
2.13504e-09
2.56387e-10
2.01826e-09
1.84871e-10
1.92715e-09
1.36349e-10
1.85451e-09
1.05133e-10
1.79496e-09
8.45144e-11
1.74503e-09
7.01452e-11
1.70238e-09
5.96009e-11
1.66542e-09
5.15215e-11
1.63301e-09
4.51563e-11
1.60427e-09
4.00845e-11
1.57846e-09
3.60491e-11
1.55499e-09
3.28836e-11
1.53332e-09
3.04786e-11
1.51297e-09
2.87576e-11
1.49349e-09
2.76741e-11
1.47447e-09
2.71906e-11
1.4555e-09
2.72812e-11
1.43622e-09
2.79326e-11
1.41624e-09
2.9144e-11
1.39517e-09
3.09289e-11
1.37262e-09
3.3319e-11
1.34817e-09
3.63714e-11
1.32133e-09
4.0182e-11
1.29157e-09
4.48872e-11
1.25823e-09
5.06977e-11
1.22051e-09
5.79355e-11
1.17739e-09
6.71066e-11
1.12758e-09
7.9049e-11
1.0692e-09
9.52773e-11
9.97333e-10
1.26531e-10
9.32587e-10
1.14117e-10
8.99709e-10
5.41457e-11
8.92054e-10
1.29654e-11
9.03564e-10
-1.28161e-11
9.34707e-10
-4.0435e-11
9.8977e-10
-7.62259e-11
1.0772e-09
-1.33464e-10
1.17863e-09
-1.56941e-10
1.28037e-09
-1.53646e-10
1.37932e-09
-1.48555e-10
1.47148e-09
-1.3715e-10
1.55757e-09
-1.27905e-10
1.63883e-09
-1.21748e-10
1.71041e-09
-1.05511e-10
1.77705e-09
-9.91853e-11
1.83606e-09
-8.78571e-11
1.88635e-09
-7.38551e-11
1.92989e-09
-6.56441e-11
1.96133e-09
-4.44472e-11
1.98479e-09
-3.52007e-11
1.9934e-09
-9.69429e-12
1.99035e-09
6.54418e-12
1.9736e-09
2.88117e-11
1.94063e-09
5.50731e-11
1.89789e-09
6.57309e-11
1.83576e-09
1.00373e-10
1.76756e-09
1.04547e-10
1.68959e-09
1.19701e-10
1.60641e-09
1.26222e-10
1.52249e-09
1.24124e-10
1.43613e-09
1.28354e-10
1.35471e-09
1.17172e-10
1.27425e-09
1.16462e-10
1.20025e-09
1.04161e-10
1.12985e-09
9.90605e-11
1.06495e-09
9.00876e-11
1.00515e-09
8.16731e-11
9.48243e-10
7.8087e-11
8.96063e-10
7.01058e-11
8.46909e-10
6.60068e-11
8.00345e-10
6.24323e-11
7.56854e-10
5.76372e-11
7.15751e-10
5.43431e-11
6.76744e-10
5.15815e-11
6.40141e-10
4.79815e-11
6.05814e-10
4.47839e-11
5.73534e-10
4.2002e-11
5.43323e-10
3.90704e-11
5.15007e-10
3.64658e-11
4.88423e-10
3.41104e-11
4.63501e-10
3.17303e-11
4.39889e-10
3.01078e-11
4.17397e-10
2.87829e-11
3.96163e-10
2.68947e-11
3.75877e-10
2.58465e-11
3.56598e-10
2.48133e-11
3.38678e-10
2.27133e-11
3.22157e-10
2.11609e-11
3.07358e-10
1.91236e-11
2.94918e-10
1.56895e-11
2.85026e-10
1.29464e-11
2.78635e-10
7.78764e-12
2.7631e-10
3.25686e-12
2.7848e-10
-3.12511e-12
2.84888e-10
-7.91939e-12
2.96872e-10
-1.58831e-11
3.13848e-10
-2.22525e-11
3.36748e-10
-3.08029e-11
3.65675e-10
-3.83017e-11
4.00671e-10
-4.5609e-11
4.41651e-10
-5.43897e-11
4.87375e-10
-6.01944e-11
5.38271e-10
-6.82929e-11
5.92743e-10
-7.30436e-11
6.50446e-10
-7.82358e-11
7.10287e-10
-8.1577e-11
7.71356e-10
-8.39611e-11
8.32494e-10
-8.44458e-11
8.93209e-10
-8.48499e-11
9.51354e-10
-8.10313e-11
1.00817e-09
-8.05703e-11
1.06086e-09
-7.47853e-11
1.10958e-09
-6.97691e-11
1.15432e-09
-6.49768e-11
1.19415e-09
-5.73817e-11
1.22944e-09
-5.09108e-11
1.26059e-09
-4.52704e-11
1.28711e-09
-3.82073e-11
1.30961e-09
-3.20088e-11
1.32912e-09
-2.77874e-11
1.34574e-09
-2.31997e-11
1.36036e-09
-2.00161e-11
1.37369e-09
-1.7906e-11
1.38634e-09
-1.6499e-11
1.39947e-09
-1.70289e-11
1.414e-09
-1.94288e-11
1.42927e-09
-1.95882e-11
1.4471e-09
-2.34839e-11
1.4687e-09
-3.00081e-11
1.49172e-09
-3.12266e-11
1.51875e-09
-3.75612e-11
1.55028e-09
-4.63792e-11
1.58218e-09
-4.49474e-11
1.61854e-09
-5.434e-11
1.65525e-09
-5.43026e-11
1.69255e-09
-5.63908e-11
1.72851e-09
-5.47729e-11
1.76044e-09
-4.90119e-11
1.78648e-09
-3.96826e-11
1.8049e-09
-2.92155e-11
1.80987e-09
-5.85491e-12
1.80567e-09
4.25341e-12
1.78243e-09
3.92166e-11
1.74773e-09
5.37786e-11
1.69841e-09
7.70162e-11
1.63477e-09
9.8757e-11
1.56369e-09
1.06239e-10
1.47978e-09
1.27859e-10
1.39437e-09
1.24997e-10
1.30142e-09
1.37936e-10
1.2102e-09
1.31438e-10
1.11352e-09
1.41054e-10
1.01832e-09
1.36622e-10
9.21612e-10
1.40963e-10
8.29183e-10
1.3587e-10
7.42919e-10
1.29613e-10
7.0254e-10
4.2646e-11
6.7574e-10
2.84613e-11
6.59275e-10
1.70301e-11
6.55115e-10
2.29122e-12
6.69839e-10
-2.67198e-11
7.05855e-10
-5.67211e-11
7.67834e-10
-1.0069e-10
8.41384e-10
-1.14096e-10
9.18703e-10
-1.15197e-10
9.97763e-10
-1.16507e-10
1.07579e-09
-1.14744e-10
1.1499e-09
-1.09016e-10
1.21755e-09
-9.9634e-11
1.27693e-09
-8.75306e-11
1.32698e-09
-7.38346e-11
1.36736e-09
-5.96435e-11
1.3984e-09
-4.58767e-11
1.42089e-09
-3.33562e-11
1.43595e-09
-2.24683e-11
1.44488e-09
-1.35448e-11
1.44904e-09
-6.61718e-12
1.44975e-09
-1.51535e-12
1.44849e-09
1.47056e-12
1.44617e-09
3.03522e-12
1.44365e-09
3.34806e-12
1.44152e-09
2.73258e-12
1.44016e-09
1.55367e-12
1.4397e-09
1.31873e-13
1.44025e-09
-1.46539e-12
1.44156e-09
-2.70173e-12
1.44335e-09
-3.54526e-12
1.44524e-09
-3.89585e-12
1.44685e-09
-3.7071e-12
1.44783e-09
-2.98907e-12
1.44786e-09
-1.79197e-12
1.44669e-09
-1.73067e-13
1.44402e-09
1.93195e-12
1.43967e-09
4.684e-12
1.43326e-09
8.40906e-12
1.43887e-11
2.61171e-09
1.71963e-10
2.71282e-09
3.78667e-10
2.73105e-09
4.23837e-10
2.68669e-09
3.9247e-10
2.61106e-09
3.32072e-10
2.52412e-09
2.71807e-10
2.43981e-09
2.20628e-10
2.36349e-09
1.81441e-10
2.29582e-09
1.52182e-10
2.23611e-09
1.29859e-10
2.18335e-09
1.12364e-10
2.13656e-09
9.83108e-11
2.09486e-09
8.68581e-11
2.05744e-09
7.75005e-11
2.02359e-09
6.99036e-11
1.99263e-09
6.3836e-11
1.96397e-09
5.91358e-11
1.93704e-09
5.56847e-11
1.91132e-09
5.33985e-11
1.88629e-09
5.22126e-11
1.86149e-09
5.20803e-11
1.83645e-09
5.29727e-11
1.81071e-09
5.488e-11
1.78383e-09
5.78143e-11
1.75533e-09
6.18148e-11
1.72474e-09
6.69568e-11
1.69156e-09
7.3363e-11
1.65523e-09
8.12168e-11
1.61514e-09
9.07879e-11
1.57061e-09
1.02468e-10
1.52088e-09
1.16826e-10
1.46522e-09
1.34711e-10
1.40297e-09
1.57515e-10
1.33245e-09
1.97046e-10
1.26977e-09
1.76787e-10
1.23664e-09
8.72541e-11
1.23453e-09
1.50533e-11
1.26057e-09
-3.88698e-11
1.31403e-09
-9.39123e-11
1.39489e-09
-1.57073e-10
1.50353e-09
-2.4206e-10
1.62409e-09
-2.77431e-10
1.74645e-09
-2.75951e-10
1.86517e-09
-2.67227e-10
1.97607e-09
-2.4803e-10
2.07911e-09
-2.30932e-10
2.17472e-09
-2.17364e-10
2.26014e-09
-1.9093e-10
2.33808e-09
-1.77138e-10
2.40688e-09
-1.56662e-10
2.46559e-09
-1.32577e-10
2.51499e-09
-1.15059e-10
2.55236e-09
-8.18341e-11
2.57895e-09
-6.1803e-11
2.59157e-09
-2.23159e-11
2.59092e-09
7.19463e-12
2.57563e-09
4.41101e-11
2.54422e-09
8.64969e-11
2.49997e-09
1.10009e-10
2.43784e-09
1.62532e-10
2.36496e-09
1.77456e-10
2.28025e-09
2.04456e-10
2.18721e-09
2.19315e-10
2.08902e-09
2.22363e-10
1.9866e-09
2.30798e-10
1.88485e-09
2.18944e-10
1.78304e-09
2.18281e-10
1.685e-09
2.02183e-10
1.5901e-09
1.93919e-10
1.4996e-09
1.8054e-10
1.41395e-09
1.6726e-10
1.33177e-09
1.60193e-10
1.25422e-09
1.47598e-10
1.18033e-09
1.39859e-10
1.10968e-09
1.33057e-10
1.04252e-09
1.24794e-10
9.78422e-10
1.18457e-10
9.17221e-10
1.12819e-10
8.59072e-10
1.06179e-10
8.04033e-10
9.98775e-11
7.51999e-10
9.40879e-11
7.03024e-10
8.80883e-11
6.5703e-10
8.24861e-11
6.13913e-10
7.72398e-11
5.73584e-10
7.20593e-11
5.358e-10
6.78834e-11
5.00357e-10
6.42137e-11
4.673e-10
5.99384e-11
4.36409e-10
5.67237e-11
4.07809e-10
5.33985e-11
3.81786e-10
4.87227e-11
3.58583e-10
4.43504e-11
3.38622e-10
3.9073e-11
3.22751e-10
3.15504e-11
3.11265e-10
2.44224e-11
3.05368e-10
1.36772e-11
3.05007e-10
3.61095e-12
3.11868e-10
-9.99082e-12
3.26239e-10
-2.22959e-11
3.49175e-10
-3.88224e-11
3.79998e-10
-5.30785e-11
4.19655e-10
-7.0463e-11
4.67688e-10
-8.63375e-11
5.23829e-10
-1.01752e-10
5.87925e-10
-1.18489e-10
6.58341e-10
-1.30614e-10
7.34937e-10
-1.44893e-10
8.15795e-10
-1.53906e-10
8.99938e-10
-1.62384e-10
9.85945e-10
-1.67589e-10
1.07237e-09
-1.70391e-10
1.15788e-09
-1.69963e-10
1.24138e-09
-1.68349e-10
1.32117e-09
-1.60823e-10
1.39738e-09
-1.56774e-10
1.46789e-09
-1.45282e-10
1.5327e-09
-1.34566e-10
1.5916e-09
-1.23855e-10
1.64397e-09
-1.09725e-10
1.69018e-09
-9.70956e-11
1.7307e-09
-8.57545e-11
1.76555e-09
-7.30188e-11
1.79556e-09
-6.19944e-11
1.82167e-09
-5.38923e-11
1.84447e-09
-4.60094e-11
1.86493e-09
-4.05143e-11
1.88393e-09
-3.69615e-11
1.90233e-09
-3.49791e-11
1.92114e-09
-3.59236e-11
1.94112e-09
-3.94882e-11
1.96254e-09
-4.10481e-11
1.98648e-09
-4.74046e-11
2.01378e-09
-5.72353e-11
2.04311e-09
-6.04356e-11
2.07618e-09
-7.04537e-11
2.11246e-09
-8.24575e-11
2.15e-09
-8.22704e-11
2.18998e-09
-9.41277e-11
2.23003e-09
-9.42035e-11
2.26902e-09
-9.53136e-11
2.30546e-09
-9.12251e-11
2.33646e-09
-8.00864e-11
2.36052e-09
-6.38574e-11
2.37495e-09
-4.37686e-11
2.3771e-09
-8.1139e-12
2.36722e-09
1.4072e-11
2.33952e-09
6.68965e-11
2.29758e-09
9.57333e-11
2.2401e-09
1.34554e-10
2.16656e-09
1.7236e-10
2.08159e-09
1.91264e-10
1.98228e-09
2.27228e-10
1.87613e-09
2.31175e-10
1.76067e-09
2.53413e-10
1.64216e-09
2.49949e-10
1.51737e-09
2.65801e-10
1.39161e-09
2.62346e-10
1.26492e-09
2.67608e-10
1.14489e-09
2.55874e-10
1.03225e-09
2.42237e-10
9.56676e-10
1.18239e-10
9.03593e-10
8.1565e-11
8.70728e-10
4.99086e-11
8.60139e-10
1.28853e-11
8.78333e-10
-4.49176e-11
9.26153e-10
-1.04554e-10
1.00444e-09
-1.78999e-10
1.09856e-09
-2.0824e-10
1.19878e-09
-2.1545e-10
1.30061e-09
-2.18361e-10
1.39997e-09
-2.14121e-10
1.4933e-09
-2.0236e-10
1.57778e-09
-1.84127e-10
1.65147e-09
-1.61227e-10
1.71331e-09
-1.35679e-10
1.76308e-09
-1.09406e-10
1.80127e-09
-8.4059e-11
1.82887e-09
-6.09489e-11
1.84733e-09
-4.0922e-11
1.85828e-09
-2.4489e-11
1.86347e-09
-1.18004e-11
1.86472e-09
-2.76073e-12
1.86333e-09
2.86527e-12
1.86072e-09
5.6562e-12
1.8579e-09
6.16775e-12
1.85561e-09
5.02172e-12
1.85431e-09
2.85114e-12
1.85418e-09
2.62668e-13
1.855e-09
-2.27909e-12
1.85657e-09
-4.27377e-12
1.85846e-09
-5.44131e-12
1.86018e-09
-5.61146e-12
1.8612e-09
-4.73712e-12
1.86109e-09
-2.87501e-12
1.85945e-09
-1.57011e-13
1.85601e-09
3.26439e-12
1.85064e-09
7.297e-12
1.84337e-09
1.1953e-11
1.83445e-09
1.73315e-11
2.43929e-11
2.56397e-09
1.07928e-10
2.67025e-09
2.72455e-10
2.74684e-09
3.47288e-10
2.77984e-09
3.5957e-10
2.77358e-09
3.38362e-10
2.7437e-09
3.01698e-10
2.7e-09
2.64313e-10
2.65049e-09
2.30919e-10
2.60064e-09
2.02027e-10
2.55279e-09
1.77706e-10
2.5079e-09
1.57256e-10
2.46629e-09
1.39918e-10
2.42792e-09
1.25231e-10
2.39253e-09
1.12893e-10
2.35976e-09
1.02673e-10
2.3292e-09
9.43904e-11
2.30043e-09
8.79049e-11
2.27301e-09
8.31068e-11
2.24649e-09
7.991e-11
2.22046e-09
7.82461e-11
2.19447e-09
7.80648e-11
2.16811e-09
7.9336e-11
2.14093e-09
8.20512e-11
2.11252e-09
8.62277e-11
2.08242e-09
9.19143e-11
2.05017e-09
9.92001e-11
2.01531e-09
1.08225e-10
1.97733e-09
1.19195e-10
1.93572e-09
1.324e-10
1.88994e-09
1.48239e-10
1.83951e-09
1.67259e-10
1.78401e-09
1.90205e-10
1.72334e-09
2.18175e-10
1.6566e-09
2.63778e-10
1.59774e-09
2.35638e-10
1.56644e-09
1.18542e-10
1.56711e-09
1.43565e-11
1.5991e-09
-7.08949e-11
1.66092e-09
-1.55769e-10
1.74932e-09
-2.45501e-10
1.86044e-09
-3.53183e-10
1.98061e-09
-3.97561e-10
2.10279e-09
-3.98079e-10
2.22086e-09
-3.85232e-10
2.33091e-09
-3.5803e-10
2.43265e-09
-3.32623e-10
2.52631e-09
-3.10991e-10
2.61056e-09
-2.75145e-10
2.68646e-09
-2.53017e-10
2.7533e-09
-2.23465e-10
2.8108e-09
-1.90054e-10
2.85864e-09
-1.62883e-10
2.89584e-09
-1.1903e-10
2.92235e-09
-8.83209e-11
2.93695e-09
-3.69118e-11
2.93931e-09
4.83162e-12
2.92875e-09
5.467e-11
2.90417e-09
1.1109e-10
2.86695e-09
1.4725e-10
2.81457e-09
2.1494e-10
2.75016e-09
2.41888e-10
2.67335e-09
2.81281e-10
2.58639e-09
3.0628e-10
2.49128e-09
3.17477e-10
2.38955e-09
3.32518e-10
2.28443e-09
3.2405e-10
2.17667e-09
3.26019e-10
2.06933e-09
3.09484e-10
1.96303e-09
3.00179e-10
1.85898e-09
2.84545e-10
1.75834e-09
2.67846e-10
1.66053e-09
2.57963e-10
1.56666e-09
2.41431e-10
1.4763e-09
2.30187e-10
1.38933e-09
2.20026e-10
1.30603e-09
2.08103e-10
1.22618e-09
1.98337e-10
1.14978e-09
1.89265e-10
1.07701e-09
1.78997e-10
1.0081e-09
1.68838e-10
9.43075e-10
1.59155e-10
8.82144e-10
1.49046e-10
8.25365e-10
1.39272e-10
7.72761e-10
1.29832e-10
7.24399e-10
1.20396e-10
6.80098e-10
1.12152e-10
6.39685e-10
1.04593e-10
6.03353e-10
9.62377e-11
5.70727e-10
8.93191e-11
5.41864e-10
8.22344e-11
5.17198e-10
7.33632e-11
4.96745e-10
6.47824e-11
4.80776e-10
5.5023e-11
4.70468e-10
4.18433e-11
4.65547e-10
2.933e-11
4.6786e-10
1.13523e-11
4.76811e-10
-5.34902e-12
4.94421e-10
-2.76096e-11
5.19941e-10
-4.78222e-11
5.5546e-10
-7.43472e-11
5.99403e-10
-9.70274e-11
6.53137e-10
-1.24202e-10
7.15513e-10
-1.48718e-10
7.86091e-10
-1.72335e-10
8.64688e-10
-1.97092e-10
9.49114e-10
-2.15045e-10
1.03919e-09
-2.34975e-10
1.1326e-09
-2.47326e-10
1.22815e-09
-2.57941e-10
1.32428e-09
-2.63731e-10
1.41932e-09
-2.65434e-10
1.51195e-09
-2.62605e-10
1.60095e-09
-2.57356e-10
1.68487e-09
-2.44753e-10
1.76357e-09
-2.3548e-10
1.83558e-09
-2.17298e-10
1.90088e-09
-1.99862e-10
1.95944e-09
-1.82412e-10
2.01104e-09
-1.61304e-10
2.05617e-09
-1.42197e-10
2.09546e-09
-1.25015e-10
2.12926e-09
-1.06782e-10
2.15855e-09
-9.12391e-11
2.18423e-09
-7.95478e-11
2.20709e-09
-6.88537e-11
2.22811e-09
-6.15424e-11
2.24815e-09
-5.70411e-11
2.26807e-09
-5.49674e-11
2.28869e-09
-5.66207e-11
2.31063e-09
-6.15142e-11
2.33438e-09
-6.48771e-11
2.36048e-09
-7.35252e-11
2.38943e-09
-8.61468e-11
2.42031e-09
-9.12154e-11
2.45419e-09
-1.04164e-10
2.49002e-09
-1.18063e-10
2.52701e-09
-1.18984e-10
2.56473e-09
-1.31562e-10
2.60194e-09
-1.31138e-10
2.63692e-09
-1.30082e-10
2.66871e-09
-1.22877e-10
2.69465e-09
-1.05984e-10
2.7138e-09
-8.30398e-11
2.72355e-09
-5.36174e-11
2.72282e-09
-7.4935e-12
2.70994e-09
2.68413e-11
2.68265e-09
9.41039e-11
2.64109e-09
1.37251e-10
2.58504e-09
1.90601e-10
2.51317e-09
2.44253e-10
2.42834e-09
2.76125e-10
2.32854e-09
3.27058e-10
2.21851e-09
3.41209e-10
2.09707e-09
3.7484e-10
1.96835e-09
3.78643e-10
1.83272e-09
4.0139e-10
1.69316e-09
4.01845e-10
1.55229e-09
4.08423e-10
1.42001e-09
3.88132e-10
1.29502e-09
3.67231e-10
1.20338e-09
2.0989e-10
1.13913e-09
1.45837e-10
1.10266e-09
8.63983e-11
1.09622e-09
1.93315e-11
1.12596e-09
-7.4664e-11
1.18998e-09
-1.68582e-10
1.28606e-09
-2.75102e-10
1.39657e-09
-3.18786e-10
1.51073e-09
-3.29638e-10
1.62366e-09
-3.31325e-10
1.73132e-09
-3.2182e-10
1.83054e-09
-3.01597e-10
1.91896e-09
-2.72566e-10
1.99513e-09
-2.37407e-10
2.05842e-09
-1.98969e-10
2.10894e-09
-1.59923e-10
2.14744e-09
-1.22553e-10
2.17514e-09
-8.86357e-11
2.1936e-09
-5.93775e-11
2.20459e-09
-3.5468e-11
2.20993e-09
-1.71275e-11
2.21137e-09
-4.19188e-12
2.21043e-09
3.8167e-12
2.20845e-09
7.63815e-12
2.20648e-09
8.1479e-12
2.20521e-09
6.29009e-12
2.20505e-09
3.00844e-12
2.20611e-09
-7.95861e-13
2.2082e-09
-4.36166e-12
2.21096e-09
-7.04341e-12
2.21392e-09
-8.39749e-12
2.21649e-09
-8.18358e-12
2.21809e-09
-6.34642e-12
2.21823e-09
-3.01444e-12
2.2165e-09
1.57458e-12
2.21264e-09
7.11616e-12
2.20663e-09
1.33106e-11
2.19865e-09
1.99266e-11
2.18922e-09
2.6757e-11
3.47072e-11
2.53705e-09
7.07857e-11
2.6175e-09
1.91965e-10
2.69985e-09
2.64901e-10
2.76364e-09
2.95812e-10
2.80343e-09
2.98562e-10
2.81993e-09
2.85243e-10
2.81907e-09
2.65188e-10
2.80734e-09
2.42619e-10
2.78883e-09
2.20513e-10
2.76644e-09
2.0009e-10
2.74225e-09
1.81441e-10
2.71755e-09
1.64632e-10
2.69299e-09
1.49787e-10
2.66894e-09
1.36945e-10
2.64551e-09
1.26097e-10
2.62269e-09
1.17209e-10
2.60036e-09
1.10238e-10
2.57833e-09
1.05138e-10
2.55637e-09
1.01867e-10
2.53422e-09
1.00386e-10
2.51162e-09
1.00669e-10
2.48824e-09
1.02709e-10
2.46377e-09
1.06519e-10
2.43786e-09
1.12137e-10
2.41014e-09
1.19634e-10
2.38022e-09
1.29119e-10
2.34769e-09
1.4075e-10
2.31214e-09
1.54748e-10
2.27313e-09
1.71405e-10
2.23027e-09
1.91103e-10
2.18319e-09
2.14332e-10
2.13168e-09
2.41716e-10
2.07573e-09
2.74113e-10
2.01456e-09
3.24943e-10
1.96014e-09
2.90049e-10
1.92953e-09
1.49136e-10
1.9281e-09
1.57699e-11
1.95677e-09
-9.96094e-11
2.01385e-09
-2.12892e-10
2.09456e-09
-3.26266e-10
2.19362e-09
-4.52282e-10
2.29984e-09
-5.03795e-10
2.40869e-09
-5.06896e-10
2.51368e-09
-4.9018e-10
2.61118e-09
-4.55483e-10
2.70087e-09
-4.2227e-10
2.78303e-09
-3.93107e-10
2.85722e-09
-3.49305e-10
2.9236e-09
-3.19354e-10
2.9816e-09
-2.81425e-10
3.03209e-09
-2.40503e-10
3.07396e-09
-2.04732e-10
3.10734e-09
-1.52391e-10
3.13154e-09
-1.12514e-10
3.14653e-09
-5.19047e-11
3.15154e-09
-1.78778e-13
3.14645e-09
5.9765e-11
3.13037e-09
1.27189e-10
3.10351e-09
1.74131e-10
3.06482e-09
2.5366e-10
3.01494e-09
2.91791e-10
2.95352e-09
3.42704e-10
2.88176e-09
3.78037e-10
2.80035e-09
3.98859e-10
2.71078e-09
4.22049e-10
2.61478e-09
4.20008e-10
2.51384e-09
4.26909e-10
2.40997e-09
4.13316e-10
2.30462e-09
4.05488e-10
2.199e-09
3.90124e-10
2.09475e-09
3.72064e-10
1.99189e-09
3.60792e-10
1.89184e-09
3.41463e-10
1.79464e-09
3.27383e-10
1.7005e-09
3.14164e-10
1.60999e-09
2.9864e-10
1.52302e-09
2.85334e-10
1.4398e-09
2.72524e-10
1.3606e-09
2.58241e-10
1.28578e-09
2.43694e-10
1.21545e-09
2.29508e-10
1.14998e-09
2.1452e-10
1.08955e-09
1.99689e-10
1.03429e-09
1.85048e-10
9.84474e-10
1.70168e-10
9.39964e-10
1.56611e-10
9.00634e-10
1.43873e-10
8.66901e-10
1.29925e-10
8.3819e-10
1.17989e-10
8.1445e-10
1.05938e-10
7.96161e-10
9.16203e-11
7.83066e-10
7.78509e-11
7.75093e-10
6.29726e-11
7.73565e-10
4.33518e-11
7.77462e-10
2.54159e-11
7.89113e-10
-3.12947e-13
8.07185e-10
-2.34336e-11
8.34091e-10
-5.45265e-11
8.68306e-10
-8.20465e-11
9.12553e-10
-1.18603e-10
9.64579e-10
-1.49061e-10
1.02615e-09
-1.85782e-10
1.09564e-09
-2.18216e-10
1.1726e-09
-2.49295e-10
1.25668e-09
-2.81183e-10
1.34544e-09
-3.03813e-10
1.43858e-09
-3.2812e-10
1.53364e-09
-3.42398e-10
1.62924e-09
-3.53549e-10
1.72387e-09
-3.58373e-10
1.81573e-09
-3.57306e-10
1.90369e-09
-3.50587e-10
1.98654e-09
-3.40223e-10
2.06318e-09
-3.21403e-10
2.13348e-09
-3.05799e-10
2.19653e-09
-2.80364e-10
2.25246e-09
-2.55809e-10
2.30156e-09
-2.31511e-10
2.34396e-09
-2.03708e-10
2.38034e-09
-1.78573e-10
2.41154e-09
-1.56195e-10
2.43813e-09
-1.33341e-10
2.46116e-09
-1.14243e-10
2.48153e-09
-9.98882e-11
2.50008e-09
-8.73794e-11
2.51771e-09
-7.91669e-11
2.53518e-09
-7.4526e-11
2.55321e-09
-7.30459e-11
2.57234e-09
-7.58224e-11
2.59306e-09
-8.23298e-11
2.61595e-09
-8.78604e-11
2.64098e-09
-9.86275e-11
2.6683e-09
-1.13486e-10
2.69731e-09
-1.2019e-10
2.72859e-09
-1.35337e-10
2.76081e-09
-1.50111e-10
2.79389e-09
-1.51823e-10
2.82649e-09
-1.63894e-10
2.8582e-09
-1.62556e-10
2.88713e-09
-1.58744e-10
2.91283e-09
-1.48364e-10
2.93306e-09
-1.26084e-10
2.94744e-09
-9.73792e-11
2.95369e-09
-5.98988e-11
2.95161e-09
-5.49255e-12
2.93895e-09
3.93973e-11
2.91539e-09
1.17564e-10
2.87926e-09
1.73313e-10
2.83083e-09
2.39005e-10
2.76811e-09
3.06978e-10
2.69264e-09
3.51612e-10
2.60257e-09
4.17146e-10
2.50063e-09
4.43147e-10
2.38574e-09
4.897e-10
2.26101e-09
5.03319e-10
2.12765e-09
5.34711e-10
1.98758e-09
5.41858e-10
1.8456e-09
5.50354e-10
1.71392e-09
5.19787e-10
1.59037e-09
4.90786e-10
1.50067e-09
2.99605e-10
1.4417e-09
2.0483e-10
1.41541e-09
1.12703e-10
1.4237e-09
1.10598e-11
1.47174e-09
-1.227e-10
1.55412e-09
-2.50973e-10
1.66588e-09
-3.86892e-10
1.78705e-09
-4.39989e-10
1.90698e-09
-4.49612e-10
2.02159e-09
-4.45982e-10
2.12767e-09
-4.27946e-10
2.22296e-09
-3.96913e-10
2.30599e-09
-3.55627e-10
2.3761e-09
-3.07532e-10
2.43329e-09
-2.56157e-10
2.47813e-09
-2.0476e-10
2.51168e-09
-1.56097e-10
2.53535e-09
-1.12288e-10
2.55074e-09
-7.47602e-11
2.55959e-09
-4.43035e-11
2.56362e-09
-2.11371e-11
2.56443e-09
-4.99115e-12
2.56345e-09
4.8021e-12
2.56188e-09
9.21551e-12
2.56063e-09
9.4095e-12
2.5603e-09
6.62834e-12
2.56119e-09
2.11544e-12
2.56336e-09
-2.96137e-12
2.56659e-09
-7.59018e-12
2.57049e-09
-1.09527e-11
2.57457e-09
-1.2475e-11
2.57823e-09
-1.18468e-11
2.58089e-09
-9.01559e-12
2.58204e-09
-4.16324e-12
2.58126e-09
2.34914e-12
2.57833e-09
1.00485e-11
2.57322e-09
1.84138e-11
2.5662e-09
2.69502e-11
2.55779e-09
3.5162e-11
4.40283e-11
2.52316e-09
4.75655e-11
2.58131e-09
1.33736e-10
2.65288e-09
1.93257e-10
2.72231e-09
2.2636e-10
2.78103e-09
2.39862e-10
2.82599e-09
2.40328e-10
2.85807e-09
2.33089e-10
2.87892e-09
2.21781e-10
2.89087e-09
2.08579e-10
2.89637e-09
1.94554e-10
2.89721e-09
1.806e-10
2.89453e-09
1.67323e-10
2.88921e-09
1.55111e-10
2.88192e-09
1.44232e-10
2.87311e-09
1.34901e-10
2.86307e-09
1.27249e-10
2.85195e-09
1.21352e-10
2.83983e-09
1.17256e-10
2.82671e-09
1.14991e-10
2.81253e-09
1.14562e-10
2.79719e-09
1.16001e-10
2.78056e-09
1.19339e-10
2.76245e-09
1.24628e-10
2.74264e-09
1.31946e-10
2.72087e-09
1.41401e-10
2.69685e-09
1.53131e-10
2.67028e-09
1.67321e-10
2.64082e-09
1.84208e-10
2.60813e-09
2.04091e-10
2.5719e-09
2.27328e-10
2.53187e-09
2.54358e-10
2.48789e-09
2.85698e-10
2.43995e-09
3.22047e-10
2.38735e-09
3.77541e-10
2.33919e-09
3.38205e-10
2.30871e-09
1.79609e-10
2.3019e-09
2.25561e-11
2.32134e-09
-1.19087e-10
2.3656e-09
-2.57197e-10
2.42956e-09
-3.90293e-10
2.50799e-09
-5.30767e-10
2.59269e-09
-5.88535e-10
2.68119e-09
-5.9541e-10
2.76669e-09
-5.75662e-10
2.8457e-09
-5.34463e-10
2.91794e-09
-4.94472e-10
2.98376e-09
-4.58898e-10
3.04301e-09
-4.08517e-10
3.09595e-09
-3.72259e-10
3.14198e-09
-3.27425e-10
3.18215e-09
-2.80634e-10
3.21551e-09
-2.38072e-10
3.24285e-09
-1.7971e-10
3.26318e-09
-1.32831e-10
3.27728e-09
-6.60028e-11
3.28418e-09
-7.08172e-12
3.28418e-09
5.97824e-11
3.2766e-09
1.34792e-10
3.26098e-09
1.89778e-10
3.23723e-09
2.77446e-10
3.20439e-09
3.24649e-10
3.16205e-09
3.85059e-10
3.11056e-09
4.29525e-10
3.04949e-09
4.59905e-10
2.98001e-09
4.91495e-10
2.90248e-09
4.97491e-10
2.81852e-09
5.10827e-10
2.72911e-09
5.02693e-10
2.636e-09
4.98565e-10
2.54024e-09
4.85869e-10
2.44366e-09
4.68629e-10
2.3467e-09
4.57754e-10
2.251e-09
4.37157e-10
2.15703e-09
4.21367e-10
2.06536e-09
4.05852e-10
1.97683e-09
3.87202e-10
1.89154e-09
3.70653e-10
1.8099e-09
3.54209e-10
1.73222e-09
3.35947e-10
1.65902e-09
3.16921e-10
1.59041e-09
2.98118e-10
1.52688e-09
2.78031e-10
1.46867e-09
2.57863e-10
1.416e-09
2.37664e-10
1.36925e-09
2.16852e-10
1.32836e-09
1.97428e-10
1.29326e-09
1.78915e-10
1.26456e-09
1.58567e-10
1.24154e-09
1.4096e-10
1.22419e-09
1.23247e-10
1.21285e-09
1.02917e-10
1.20714e-09
8.3533e-11
1.2066e-09
6.34803e-11
1.21262e-09
3.73057e-11
1.22353e-09
1.44855e-11
1.24192e-09
-1.87233e-11
1.26582e-09
-4.73479e-11
1.29786e-09
-8.65778e-11
1.33605e-09
-1.20244e-10
1.38342e-09
-1.65985e-10
1.43732e-09
-2.02979e-10
1.49977e-09
-2.48241e-10
1.56887e-09
-2.87324e-10
1.64426e-09
-3.24691e-10
1.72538e-09
-3.62315e-10
1.80985e-09
-3.88285e-10
1.8971e-09
-4.15383e-10
1.98481e-09
-4.30126e-10
2.07142e-09
-4.40166e-10
2.15561e-09
-4.42577e-10
2.23555e-09
-4.37257e-10
2.31041e-09
-4.2547e-10
2.37907e-09
-4.08899e-10
2.44088e-09
-3.83234e-10
2.49581e-09
-3.60752e-10
2.54351e-09
-3.28093e-10
2.58435e-09
-2.96667e-10
2.61888e-09
-2.66061e-10
2.64762e-09
-2.32464e-10
2.67138e-09
-2.02347e-10
2.69115e-09
-1.7596e-10
2.70764e-09
-1.49824e-10
2.72194e-09
-1.28521e-10
2.73484e-09
-1.12756e-10
2.74714e-09
-9.96557e-11
2.7596e-09
-9.1611e-11
2.7728e-09
-8.77244e-11
2.78726e-09
-8.75364e-11
2.80316e-09
-9.1774e-11
2.82103e-09
-1.00275e-10
2.84135e-09
-1.08291e-10
2.86327e-09
-1.20635e-10
2.88719e-09
-1.37479e-10
2.91244e-09
-1.45459e-10
2.93928e-09
-1.62135e-10
2.96625e-09
-1.76979e-10
2.99377e-09
-1.79184e-10
3.02005e-09
-1.89952e-10
3.04527e-09
-1.87531e-10
3.06762e-09
-1.8084e-10
3.08713e-09
-1.67646e-10
3.10201e-09
-1.408e-10
3.11242e-09
-1.0769e-10
3.1164e-09
-6.38687e-11
3.11455e-09
-3.68597e-12
3.10437e-09
4.95001e-11
3.08685e-09
1.35004e-10
3.05937e-09
2.00725e-10
3.02247e-09
2.75871e-10
2.97376e-09
3.55684e-10
2.91387e-09
4.11523e-10
2.84087e-09
4.90165e-10
2.75592e-09
5.28094e-10
2.65768e-09
5.87924e-10
2.54829e-09
6.12672e-10
2.42824e-09
6.5471e-10
2.29964e-09
6.70404e-10
2.16807e-09
6.81888e-10
2.04854e-09
6.39304e-10
1.93837e-09
6.0096e-10
1.86314e-09
3.74861e-10
1.82059e-09
2.47407e-10
1.81297e-09
1.20337e-10
1.84114e-09
-1.70893e-11
1.90851e-09
-1.90062e-10
2.00601e-09
-3.48478e-10
2.1263e-09
-5.07207e-10
2.2494e-09
-5.63134e-10
2.36611e-09
-5.66376e-10
2.47361e-09
-5.53531e-10
2.5698e-09
-5.24196e-10
2.65351e-09
-4.8067e-10
2.72429e-09
-4.26431e-10
2.78225e-09
-3.65514e-10
2.82802e-09
-3.01939e-10
2.86264e-09
-2.39371e-10
2.88743e-09
-1.80882e-10
2.90393e-09
-1.28773e-10
2.91373e-09
-8.45442e-11
2.91843e-09
-4.89823e-11
2.91955e-09
-2.22364e-11
2.91847e-09
-3.8978e-12
2.91638e-09
6.90183e-12
2.91425e-09
1.13583e-11
2.91278e-09
1.08865e-11
2.91243e-09
6.98846e-12
2.91339e-09
1.15714e-12
2.91565e-09
-5.2156e-12
2.91898e-09
-1.09214e-11
2.92302e-09
-1.49937e-11
2.92729e-09
-1.67531e-11
2.93127e-09
-1.58325e-11
2.93443e-09
-1.21769e-11
2.93628e-09
-6.01776e-12
2.93645e-09
2.17994e-12
2.9347e-09
1.1789e-11
2.93103e-09
2.20896e-11
2.92562e-09
3.23532e-11
2.91894e-09
4.18415e-11
5.16582e-11
2.51583e-09
3.16936e-11
2.55897e-09
9.05407e-11