/*--------------------------------*- C++ -*----------------------------------*\
| =========                 |                                                 |
| \\      /  F ield         | OpenFOAM: The Open Source CFD Toolbox           |
|  \\    /   O peration     | Version:  2506                                  |
|   \\  /    A nd           | Website:  www.openfoam.com                      |
|    \\/     M anipulation  |                                                 |
\*---------------------------------------------------------------------------*/
FoamFile
{
    version     2.0;
    format      ascii;
    arch        "LSB;label=32;scalar=64";
    class       volScalarField;
    location    "1";
    object      s;
}
// * * * * * * * * * * * * * * * * * * * * * * * * * * * * * * * * * * * * * //

dimensions      [0 0 0 0 0 0 0];

internalField   nonuniform List<scalar> 
4000
(
1.89308e-16
2.88174e-13
3.24682e-10
9.35604e-08
8.24796e-06
0.000278181
0.0057375
0.0520292
0.219807
0.4082
0.414968
0.337717
0.169572
0.0416319
0.00986181
0.00666681
0.0039923
0.0021522
0.00111087
0.000575078
0.000300572
0.000152147
7.33207e-05
3.58785e-05
1.89406e-05
1.06153e-05
6.04589e-06
3.38483e-06
1.82665e-06
9.39606e-07
4.58578e-07
2.13688e-07
9.74812e-08
4.65577e-08
3.70281e-09
-1.33615e-07
-3.79496e-07
-8.01606e-07
-1.51303e-06
-2.8263e-06
-5.00272e-06
-6.82175e-06
-7.39335e-06
-7.1923e-06
-6.25937e-06
-5.05813e-06
-4.01966e-06
-2.91063e-06
-2.14288e-06
-1.50706e-06
-9.90841e-07
-6.50255e-07
-3.3062e-07
-1.59755e-07
-4.40856e-08
-1.10773e-08
-2.76017e-09
-7.04068e-10
-1.91072e-10
-5.66819e-11
-1.76177e-11
-4.57561e-12
1.80193e-13
1.6371e-12
1.65599e-12
1.16336e-12
6.46438e-13
2.94397e-13
1.12428e-13
3.71742e-14
1.10542e-14
2.99599e-15
7.69318e-16
1.87884e-16
3.99251e-17
-8.57829e-18
-1.46111e-17
-6.97412e-18
-1.65088e-18
-2.62136e-19
-1.6446e-20
-6.53147e-20
-6.37309e-20
-2.05524e-20
-9.3313e-21
-1.51555e-20
-1.55123e-20
-8.78918e-21
-1.59657e-21
1.23014e-21
6.72576e-22
-2.10679e-21
-7.19728e-21
-1.3772e-20
-2.0106e-20
-2.95981e-20
-4.16042e-20
-4.66189e-20
-7.35134e-20
-9.19462e-20
-1.4111e-19
-1.57481e-19
-1.77469e-19
-1.99349e-19
-2.04575e-19
-2.17308e-19
-2.39687e-19
-2.25764e-19
-1.94787e-19
-1.69308e-19
-1.48861e-19
-9.74674e-20
-5.65789e-20
-2.19594e-20
-2.05794e-21
9.72698e-21
1.28119e-20
1.10763e-20
7.32021e-21
4.03394e-21
1.91922e-21
7.32513e-22
2.13551e-22
4.43771e-23
1.96563e-24
-3.35143e-24
-2.06545e-24
-8.635e-25
-3.66204e-25
-1.98775e-25
-9.29609e-26
-5.57145e-26
-4.66186e-26
-3.1902e-26
-2.6462e-26
-2.8536e-26
-2.18569e-26
-2.26895e-26
-1.95289e-26
-1.65987e-26
-1.25821e-26
-7.99772e-27
-3.99096e-27
-1.59657e-27
-2.94151e-28
-2.38134e-29
2.98405e-30
7.46241e-31
-1.86173e-31
7.69217e-32
3.19708e-31
3.14353e-31
1.42147e-31
1.07555e-32
-3.10158e-32
-2.4098e-32
-7.6211e-33
4.87962e-35
1.03012e-33
3.94456e-34
4.34478e-35
4.73129e-36
-2.13451e-35
-1.5141e-35
-2.17747e-33
-1.70681e-32
-1.54681e-32
1.01349e-31
2.33344e-31
2.93364e-31
2.6244e-31
1.81993e-31
1.01679e-31
4.63869e-32
1.71346e-32
4.93734e-33
1.00032e-33
9.09979e-35
-2.13002e-35
-1.00851e-35
-1.55253e-36
5.34165e-38
5.65713e-38
6.93857e-39
-3.72297e-40
-1.97499e-40
-2.48018e-41
-5.45772e-41
-7.46114e-41
-5.16352e-41
-2.19621e-41
-5.23764e-42
-4.12019e-44
4.33081e-43
1.34549e-43
1.06708e-44
-3.11318e-45
-5.86672e-46
1.72643e-47
1.94582e-47
1.02251e-16
7.42694e-14
4.77799e-11
9.10793e-09
5.92658e-07
1.67339e-05
0.000359347
0.00418525
0.0182817
0.0432394
0.0690912
0.0875199
0.0977845
0.116036
0.168796
0.262866
0.372653
0.438901
0.435737
0.409144
0.344915
0.233478
0.118945
0.0533758
0.0319534
0.0204364
0.0127201
0.00757593
0.00428885
0.00229432
0.00115341
0.000544306
0.000241644
9.97096e-05
3.81332e-05
1.20908e-05
-6.39498e-07
-9.12793e-06
-1.75034e-05
-2.98061e-05
-4.99775e-05
-6.49328e-05
-6.92035e-05
-6.66658e-05
-6.05117e-05
-5.38905e-05
-4.81425e-05
-4.27743e-05
-3.83059e-05
-3.37956e-05
-2.89467e-05
-2.32365e-05
-1.71532e-05
-1.21756e-05
-7.71396e-06
-3.86873e-06
-2.1226e-06
-1.21658e-06
-6.8187e-07
-3.62087e-07
-1.81763e-07
-8.47382e-08
-3.59644e-08
-1.33076e-08
-3.79177e-09
-4.0275e-10
4.47939e-10
4.46492e-10
2.66651e-10
1.21293e-10
4.50274e-11
1.27181e-11
2.81453e-12
6.21201e-13
1.46992e-13
3.28892e-14
7.12008e-15
1.29734e-15
2.91418e-16
6.28663e-17
-4.6023e-18
3.67343e-18
1.25759e-17
8.92674e-18
5.21796e-18
3.41767e-18
2.4672e-18
1.30439e-18
5.15485e-19
1.91372e-19
9.68695e-20
1.6554e-19
3.49112e-19
5.54706e-19
6.21343e-19
5.04987e-19
4.85157e-19
7.06968e-19
1.20982e-18
1.63287e-18
2.28204e-18
2.62655e-18
2.95951e-18
3.00432e-18
2.96503e-18
2.61018e-18
2.20656e-18
1.15403e-18
5.57457e-19
1.46189e-19
-4.75762e-19
-1.13236e-18
-1.63014e-18
-1.66255e-18
-1.51894e-18
-1.10472e-18
-6.99177e-19
-3.93371e-19
-1.83409e-19
-6.57605e-20
-1.35399e-20
3.32391e-21
5.21741e-21
3.24334e-21
1.42574e-21
4.8518e-22
1.27156e-22
2.15528e-23
-1.38532e-24
-4.40765e-24
-3.79085e-24
-3.01011e-24
-2.60668e-24
-2.15756e-24
-1.88497e-24
-1.80061e-24
-1.55645e-24
-1.4226e-24
-1.21553e-24
-9.94506e-25
-7.56904e-25
-5.18992e-25
-3.10515e-25
-1.58527e-25
-5.68863e-26
-1.38764e-26
-1.33836e-27
7.85367e-28
5.54732e-28
1.85195e-28
1.15551e-29
-3.07972e-29
-1.97684e-29
-2.65862e-30
4.5696e-30
4.00455e-30
1.4357e-30
1.97173e-32
-2.13653e-31
-9.18085e-32
-1.29211e-32
-1.14003e-34
3.06001e-34
6.79134e-33
2.07774e-32
3.60625e-31
2.56744e-30
5.38492e-30
6.24072e-30
5.16236e-30
3.37203e-30
1.88452e-30
9.84831e-31
5.16108e-31
2.69634e-31
1.30536e-31
5.39213e-32
1.76029e-32
4.02439e-33
3.89488e-34
-1.32185e-34
-7.19171e-35
-1.62522e-35
-1.57251e-36
1.89821e-37
8.96888e-38
9.86169e-39
-2.87304e-39
-3.51743e-39
-3.00539e-39
-1.928e-39
-8.73191e-40
-2.56047e-40
-3.3078e-41
6.59988e-42
3.45853e-42
5.36127e-43
-2.0867e-44
-3.40381e-44
-9.76336e-45
4.43247e-17
2.12284e-14
8.86594e-12
1.20553e-09
5.24872e-08
2.00946e-06
6.47254e-06
1.08312e-05
2.20913e-05
6.35333e-05
0.000191232
0.00160305
0.00597294
0.0140382
0.0281063
0.0508408
0.0808909
0.114587
0.15652
0.21221
0.28589
0.372804
0.462785
0.514691
0.511813
0.49117
0.448625
0.374737
0.257106
0.140417
0.0666738
0.0372021
0.0221788
0.0127774
0.00717698
0.00411086
0.00240604
0.00143311
0.000887808
0.000590426
0.00106708
0.00295182
0.00492082
0.00621865
0.00644919
0.00583512
0.00476731
0.00341535
0.00219071
0.00121142
0.000560361
0.000248802
9.68919e-05
2.34165e-05
-1.10494e-05
-2.52575e-05
-2.95874e-05
-2.8992e-05
-2.5914e-05
-2.13288e-05
-1.617e-05
-1.11076e-05
-6.75251e-06
-3.4325e-06
-1.05506e-06
-2.63696e-07
-1.33131e-07
-6.63937e-08
-2.98404e-08
-1.15188e-08
-3.42998e-09
-5.79898e-10
1.37186e-10
1.73958e-10
8.58898e-11
2.45406e-11
2.4287e-12
-6.86766e-13
-1.78286e-13
-2.43486e-14
-1.34692e-15
2.63922e-16
-8.10178e-17
-1.70959e-16
-1.21115e-16
-6.85276e-17
-6.66423e-17
-3.93437e-17
-1.26829e-17
-8.04008e-18
-6.24136e-18
8.44346e-19
1.52442e-17
2.78867e-17
3.05173e-17
2.75376e-17
2.77026e-17
2.99719e-17
3.57316e-17
4.37341e-17
4.84372e-17
4.41663e-17
4.33136e-17
4.34631e-17
4.11545e-17
4.15951e-17
4.83711e-17
4.27832e-17
3.96618e-17
4.01882e-17
4.33933e-17
4.35625e-17
2.63594e-17
1.34874e-17
6.16802e-18
9.17941e-19
-2.14278e-18
-3.00394e-18
-2.5734e-18
-1.77012e-18
-1.04382e-18
-5.23109e-19
-2.15571e-19
-6.86131e-20
-1.28009e-20
2.29675e-21
3.74352e-21
2.34694e-21
1.15868e-21
5.34671e-22
2.45616e-22
1.21767e-22
6.84848e-23
4.02287e-23
2.55618e-23
1.80028e-23
1.26316e-23
9.70006e-24
7.49085e-24
5.74582e-24
4.21092e-24
2.78103e-24
1.5815e-24
7.39444e-25
2.49043e-25
5.44987e-26
-4.62299e-28
-7.41872e-27
-3.44695e-27
3.39455e-28
1.72524e-27
1.40835e-27
5.49762e-28
-6.29153e-29
-2.36649e-28
-1.60261e-28
-4.873e-29
5.03563e-30
1.13035e-29
4.53819e-30
6.04382e-31
-9.35313e-32
5.38166e-32
3.00078e-31
1.18134e-30
7.07282e-30
1.47105e-29
4.05132e-30
-2.05726e-29
-4.10872e-29
-4.68578e-29
-3.95867e-29
-2.68481e-29
-1.50784e-29
-7.04261e-30
-2.67609e-30
-7.70277e-31
-1.27707e-31
1.65109e-32
2.14217e-32
8.49849e-33
1.88702e-33
1.42175e-34
-6.34447e-35
-2.77362e-35
-4.3895e-36
7.79362e-37
9.26034e-37
5.46028e-37
2.79801e-37
1.16437e-37
3.28e-38
2.79987e-39
-2.40221e-39
-1.23355e-39
-2.55045e-40
5.31592e-42
2.16638e-41
8.41201e-42
1.45502e-42
-5.50798e-17
6.07194e-15
1.7004e-12
1.88855e-10
9.30225e-09
5.57774e-08
-6.39601e-08
3.0281e-07
1.6434e-06
2.98702e-06
5.86315e-06
1.43238e-05
4.61019e-05
0.000133176
0.000347476
0.000844248
0.00189399
0.00464659
0.0112238
0.0239077
0.0455433
0.0787944
0.129109
0.200085
0.283839
0.373894
0.468025
0.561223
0.590994
0.574957
0.535841
0.475535
0.37158
0.25254
0.148772
0.0871431
0.0689188
0.071436
0.0810707
0.0936705
0.112786
0.131733
0.143901
0.148221
0.144712
0.135186
0.122089
0.105979
0.0890223
0.0720653
0.0556514
0.0409056
0.028626
0.0191811
0.012084
0.00722507
0.00417053
0.00232205
0.0012445
0.000627717
0.000298867
0.000130976
4.97329e-05
1.24319e-05
-3.42073e-06
-8.65952e-06
-8.42302e-06
-5.97808e-06
-2.65945e-06
-5.81681e-07
-7.59379e-08
-2.68192e-08
-1.12663e-08
-4.37134e-09
-1.50807e-09
-4.30043e-10
-8.00472e-11
6.8291e-12
1.64897e-11
1.07098e-11
5.34266e-12
2.33005e-12
9.22151e-13
3.35206e-13
1.12344e-13
3.41529e-14
9.06992e-15
1.82787e-15
4.57446e-17
-2.56598e-16
-2.48917e-16
-2.35981e-16
-3.42187e-16
-4.12655e-16
-4.21608e-16
-2.18792e-16
-2.07268e-16
-3.79726e-16
-4.25445e-16
-2.99621e-16
-2.21711e-16
-2.81219e-16
-3.4653e-16
-3.96657e-16
-4.57595e-16
-4.65486e-16
-3.95207e-16
-2.41705e-16
-1.39061e-16
-7.39599e-17
-2.08153e-17
1.32483e-17
5.86808e-17
7.75809e-17
9.38971e-17
8.76657e-17
5.50767e-17
3.1199e-17
1.5183e-17
5.46144e-18
6.68902e-19
-1.02285e-18
-1.1355e-18
-7.53085e-19
-3.82755e-19
-1.56369e-19
-4.98386e-20
-9.94212e-21
1.33924e-21
3.04437e-21
2.43152e-21
1.65213e-21
1.12204e-21
7.76633e-22
5.66067e-22
4.36542e-22
3.37382e-22
2.67925e-22
2.0978e-22
1.60508e-22
1.1799e-22
8.12474e-23
5.13424e-23
2.89844e-23
1.35689e-23
5.36026e-24
1.68417e-24
3.07465e-25
-8.98407e-26
-1.3673e-25
-8.97555e-26
-3.88513e-26
-8.09013e-27
3.77415e-27
4.72119e-27
2.25284e-27
2.90503e-28
-3.57857e-28
-2.76173e-28
-8.79237e-29
-5.73203e-30
5.97305e-30
2.88003e-30
6.96069e-31
5.61507e-30
3.15754e-30
-1.08547e-28
-3.13192e-28
-4.57013e-28
-4.69925e-28
-3.84148e-28
-2.67031e-28
-1.65403e-28
-9.42775e-29
-5.01404e-29
-2.46978e-29
-1.09749e-29
-4.21629e-30
-1.30446e-30
-2.70658e-31
-9.74937e-34
3.023e-32
1.63247e-32
5.60841e-33
1.42909e-33
2.78361e-34
4.7079e-35
1.57465e-35
1.19533e-35
8.27816e-36
4.55005e-36
1.97128e-36
6.19012e-37
9.33217e-38
-2.92135e-38
-2.66928e-38
-1.09571e-38
-3.15985e-39
-7.06667e-40
-4.85296e-41
-2.39584e-16
1.7823e-15
3.03813e-13
3.3873e-11
3.69926e-10
1.59814e-09
5.68796e-10
5.43281e-08
1.06867e-07
7.75135e-09
8.83386e-08
7.45218e-07
2.67211e-06
7.15756e-06
1.76807e-05
4.31673e-05
0.000103643
0.0002514
0.000600441
0.00137581
0.00297631
0.00614742
0.0130261
0.0274561
0.052503
0.0908279
0.152596
0.244704
0.348953
0.448045
0.538268
0.62046
0.630634
0.606043
0.559538
0.50317
0.450412
0.414901
0.39956
0.398714
0.409766
0.419989
0.421884
0.414903
0.399675
0.377484
0.350617
0.319346
0.285894
0.251214
0.216065
0.181914
0.148815
0.118208
0.090156
0.0655553
0.0448872
0.0281229
0.0158835
0.00861393
0.00463987
0.00245462
0.00125252
0.000596907
0.000260064
0.00010277
3.51782e-05
8.71926e-06
-4.93923e-07
-2.83651e-06
-2.72521e-06
-1.81058e-06
-6.67138e-07
-1.92235e-07
-7.71106e-08
-3.06059e-08
-1.06058e-08
-2.78784e-09
1.21804e-11
7.31758e-10
6.32425e-10
3.49937e-10
1.20338e-10
5.69377e-11
2.95042e-11
1.39085e-11
6.07148e-12
2.49842e-12
9.81942e-13
3.71333e-13
1.3147e-13
4.12535e-14
8.93584e-15
-2.36477e-15
-8.90656e-15
-1.53515e-14
-2.19208e-14
-2.88736e-14
-3.36952e-14
-3.7993e-14
-4.1001e-14
-4.44777e-14
-4.53838e-14
-4.30465e-14
-3.85833e-14
-3.23089e-14
-2.59979e-14
-1.91054e-14
-1.4046e-14
-9.87644e-15
-6.33032e-15
-3.65275e-15
-1.83305e-15
-7.10824e-16
-2.07203e-16
1.35686e-17
1.40077e-16
1.62907e-16
1.41978e-16
9.60636e-17
5.70916e-17
3.01805e-17
1.34931e-17
4.63489e-18
8.68288e-19
-2.91498e-19
-4.29833e-19
-2.99092e-19
-1.64185e-19
-7.98127e-20
-3.59564e-20
-1.55396e-20
-6.5854e-21
-2.61444e-21
-8.94431e-22
-1.6619e-22
1.3374e-22
2.26698e-22
2.2856e-22
1.96357e-22
1.55082e-22
1.171e-22
8.5165e-23
5.84476e-23
3.57986e-23
2.02884e-23
1.07621e-23
5.39545e-24
2.45936e-24
8.86774e-25
1.18437e-25
-1.73948e-25
-2.05653e-25
-1.35535e-25
-5.82068e-26
-1.07139e-26
6.4187e-27
6.98918e-27
3.20234e-27
6.04145e-28
-1.69915e-28
-1.64314e-28
-5.62478e-29
-7.54185e-30
-1.88081e-29
-3.37353e-28
-1.07281e-27
-1.51113e-27
-1.25283e-27
-5.89159e-28
2.21811e-29
3.40604e-28
3.83235e-28
2.82657e-28
1.57675e-28
6.65118e-29
1.81745e-29
-2.58574e-31
-4.01569e-30
-2.9518e-30
-1.39894e-30
-4.79143e-31
-1.1134e-31
-8.30018e-33
7.36295e-33
4.58923e-33
1.47955e-33
1.92288e-34
-1.0955e-34
-1.04163e-34
-5.29658e-35
-1.84954e-35
-3.20334e-36
1.23919e-36
1.51561e-36
8.89434e-37
3.79518e-37
1.21997e-37
2.44992e-38
-5.05152e-39
-1.2859e-16
6.98473e-16
4.64813e-14
1.63592e-12
3.30178e-11
7.06323e-10
1.33183e-09
-2.50119e-09
-1.05608e-08
-2.03384e-08
-1.86304e-08
3.16272e-08
2.10802e-07
6.17312e-07
1.58328e-06
3.98589e-06
9.95983e-06
2.48891e-05
6.15728e-05
0.000149401
0.000351065
0.000799121
0.00180351
0.00396247
0.00819628
0.0160757
0.0315301
0.0597333
0.104433
0.172976
0.269211
0.382478
0.487465
0.573675
0.640254
0.670216
0.670369
0.665571
0.659352
0.65301
0.648641
0.644529
0.637499
0.625254
0.60583
0.580261
0.549916
0.514846
0.476301
0.434915
0.391344
0.346915
0.301851
0.257682
0.214681
0.174014
0.136445
0.102479
0.0733388
0.0491751
0.0308582
0.0176819
0.00892088
0.00430321
0.00209456
0.00101819
0.000466517
0.000193998
7.1547e-05
2.21871e-05
3.86005e-06
-2.22551e-06
-3.65221e-06
-3.26871e-06
-2.08616e-06
-7.73294e-07
-2.93044e-07
-1.34798e-07
-6.20642e-08
-2.61911e-08
-9.29637e-09
-1.66785e-09
1.54229e-09
2.40507e-09
2.04858e-09
1.26557e-09
5.24758e-10
1.34715e-10
7.51944e-11
4.29986e-11
2.14252e-11
9.71895e-12
4.11977e-12
1.62459e-12
5.70041e-13
1.57725e-13
3.46072e-14
5.16537e-14
-1.62667e-14
-1.20778e-13
-2.3308e-13
-3.16756e-13
-3.35042e-13
-3.20516e-13
-2.96672e-13
-2.66299e-13
-2.38466e-13
-2.0704e-13
-1.70424e-13
-1.31294e-13
-9.32467e-14
-6.15709e-14
-3.74086e-14
-1.99541e-14
-8.5156e-15
-2.84845e-15
-8.45783e-16
-2.05728e-16
1.48989e-17
1.27035e-16
1.39553e-16
1.17695e-16
8.48996e-17
4.70879e-17
2.12488e-17
7.59872e-18
1.73057e-18
-2.34592e-19
-6.14323e-19
-5.08473e-19
-3.31119e-19
-1.9679e-19
-1.14543e-19
-6.71345e-20
-4.09234e-20
-2.6301e-20
-1.7538e-20
-1.21854e-20
-8.61899e-21
-6.09826e-21
-4.24782e-21
-2.84186e-21
-1.79431e-21
-1.04469e-21
-5.38298e-22
-2.4724e-22
-9.61023e-23
-2.62159e-23
1.04845e-24
8.33128e-24
7.6145e-24
4.77826e-24
2.26652e-24
7.20774e-25
3.14391e-26
-1.50421e-25
-1.21623e-25
-5.40176e-26
-1.111e-26
4.00339e-27
4.85927e-27
2.50852e-27
8.46443e-28
2.12044e-28
-5.97182e-28
-2.103e-27
-2.39724e-27
1.54024e-28
3.98631e-27
6.84562e-27
7.68352e-27
6.80317e-27
5.09525e-27
3.34173e-27
1.95341e-27
1.02367e-27
4.7829e-28
1.9519e-28
6.60993e-29
1.5848e-29
3.74913e-31
-2.41145e-30
-1.82397e-30
-9.39067e-31
-3.98004e-31
-1.48482e-31
-5.16989e-32
-1.85529e-32
-7.52805e-33
-3.44203e-33
-1.6231e-33
-7.21397e-34
-2.81368e-34
-8.77248e-35
-1.61251e-35
3.81072e-36
6.03891e-36
4.08286e-36
2.16247e-36
7.97754e-37
-1.3064e-16
5.18268e-16
8.93355e-15
1.55103e-13
5.94548e-12
5.62659e-11
-8.74481e-11
-7.80932e-10
-1.29007e-09
1.92698e-09
3.1499e-09
9.18566e-09
3.53936e-08
1.03621e-07
2.70418e-07
6.99223e-07
1.81322e-06
4.71139e-06
1.21976e-05
3.12997e-05
7.88976e-05
0.000194218
0.000469786
0.00110478
0.0024784
0.00526889
0.0107658
0.0208368
0.037697
0.0658065
0.111248
0.177209
0.26499
0.369295
0.475085
0.55815
0.623185
0.665253
0.680753
0.68842
0.693501
0.695485
0.695519
0.693307
0.686942
0.674311
0.654033
0.62638
0.59347
0.556
0.514632
0.470479
0.424039
0.376669
0.328915
0.281926
0.236452
0.193013
0.153059
0.116701
0.085417
0.0594058
0.0387433
0.023547
0.0131897
0.0065561
0.00296978
0.00137102
0.000642088
0.000289332
0.000118451
4.19597e-05
1.10227e-05
-5.188e-07
-4.4071e-06
-5.29722e-06
-4.76784e-06
-3.37279e-06
-1.53169e-06
-6.36998e-07
-3.31651e-07
-1.83369e-07
-9.88695e-08
-4.94535e-08
-2.23117e-08
-8.27461e-09
-1.31801e-09
1.74708e-09
2.58782e-09
2.27146e-09
1.5313e-09
8.26952e-10
3.59038e-10
1.72428e-10
1.29074e-10
1.10724e-10
8.74243e-11
6.29347e-11
3.58304e-11
1.91637e-11
9.44448e-12
4.5888e-12
2.62016e-12
1.44495e-12
5.46243e-13
-1.04704e-13
-4.70394e-13
-5.78241e-13
-5.26531e-13
-4.07228e-13
-2.84804e-13
-1.87554e-13
-1.18562e-13
-7.34125e-14
-4.43629e-14
-2.2227e-14
-9.36177e-15
-4.77453e-15
-2.45616e-15
-1.22206e-15
-5.74182e-16
-2.41975e-16
-7.81494e-17
2.24049e-17
4.12107e-17
3.16285e-17
1.84578e-17
9.04146e-18
3.77712e-18
1.27795e-18
2.49451e-19
-1.04123e-19
-1.87241e-19
-1.77088e-19
-1.43802e-19
-1.10188e-19
-8.18407e-20
-5.99913e-20
-4.33137e-20
-3.07609e-20
-2.14198e-20
-1.44937e-20
-9.47339e-21
-5.91272e-21
-3.45695e-21
-1.92222e-21
-1.00889e-21
-4.94818e-22
-2.20108e-22
-8.20072e-23
-1.95385e-23
4.14205e-24
9.4789e-24
7.80183e-24
4.62414e-24
2.0941e-24
6.58839e-25
5.78599e-26
-9.38952e-26
-8.12551e-26
-4.1838e-26
-1.60616e-26
-4.68785e-27
-2.25191e-27
-3.6053e-27
-9.15576e-28
1.06587e-26
2.51273e-26
3.39393e-26
3.4401e-26
2.87593e-26
2.08699e-26
1.36285e-26
8.24985e-27
4.74463e-27
2.63521e-27
1.41918e-27
7.34512e-28
3.58705e-28
1.6135e-28
6.47744e-29
2.19974e-29
5.49981e-30
2.88632e-31
-7.86991e-31
-6.7783e-31
-3.97328e-31
-1.97555e-31
-8.95833e-32
-3.84752e-32
-1.59975e-32
-6.52113e-33
-2.62356e-33
-1.04587e-33
-4.16443e-34
-1.66516e-34
-6.48649e-35
-2.28335e-35
-6.08679e-36
1.52066e-36
-1.29317e-16
5.03202e-16
7.81026e-15
7.31871e-14
4.26214e-12
-1.10966e-11
-4.21697e-11
1.10773e-11
3.19132e-10
1.09283e-09
3.03317e-09
6.77996e-09
1.71115e-08
4.8078e-08
1.38363e-07
3.96893e-07
1.12008e-06
3.08953e-06
8.36281e-06
2.22675e-05
5.80934e-05
0.000147533
0.000360644
0.000837598
0.00184219
0.0038309
0.00751411
0.0139349
0.0245268
0.041201
0.0665208
0.103596
0.155917
0.226737
0.31204
0.398192
0.475491
0.540687
0.593307
0.633734
0.662801
0.683573
0.697529
0.70484
0.705676
0.702047
0.692282
0.674292
0.649563
0.61881
0.582795
0.542567
0.4989
0.453059
0.405851
0.3584
0.311624
0.266078
0.222875
0.182096
0.144925
0.111745
0.0830663
0.0592584
0.0402815
0.0258339
0.0154223
0.00856421
0.00427201
0.00191626
0.000877659
0.00041165
0.000191116
8.19749e-05
3.0003e-05
6.89411e-06
-2.76725e-06
-6.58245e-06
-7.6706e-06
-7.33955e-06
-6.18762e-06
-4.17239e-06
-2.0865e-06
-1.03861e-06
-6.04152e-07
-3.6642e-07
-2.18335e-07
-1.24029e-07
-6.55202e-08
-3.17745e-08
-1.35564e-08
-4.3148e-09
-4.87848e-11
1.57737e-09
1.86951e-09
1.617e-09
1.24329e-09
9.4066e-10
7.19699e-10
5.85753e-10
4.72788e-10
3.6833e-10
2.64299e-10
1.66538e-10
9.59039e-11
4.933e-11
2.32382e-11
1.05035e-11
4.79827e-12
2.33259e-12
1.22417e-12
6.77729e-13
3.48958e-13
1.26608e-13
-9.351e-15
-7.41808e-14
-8.10748e-14
-6.16907e-14
-3.83301e-14
-2.10804e-14
-1.06173e-14
-4.95795e-15
-2.10651e-15
-7.46059e-16
-1.5643e-16
3.43496e-17
6.9585e-17
5.66018e-17
3.62876e-17
2.05392e-17
1.06697e-17
5.17827e-18
2.37075e-18
1.01748e-18
4.04175e-19
1.43846e-19
4.0401e-20
4.10925e-21
-5.84926e-21
-6.95716e-21
-5.69917e-21
-4.45157e-21
-3.62173e-21
-3.08867e-21
-2.67041e-21
-2.21561e-21
-1.7238e-21
-1.25469e-21
-8.4713e-22
-5.25326e-22
-2.9554e-22
-1.46473e-22
-6.08686e-23
-1.78432e-23
-2.86246e-25
4.47439e-24
4.0797e-24
2.4474e-24
1.12413e-24
3.84689e-25
8.29673e-26
-9.30016e-27
-2.33015e-26
-1.1309e-26
1.4548e-26
4.9406e-26
8.30772e-26
9.41633e-26
8.0019e-26
5.28675e-26
2.62053e-26
7.63686e-27
-1.73503e-27
-4.47298e-27
-3.85296e-27
-2.26888e-27
-9.16293e-28
-1.23874e-28
2.00034e-28
2.54366e-28
2.00032e-28
1.26967e-28
6.99442e-29
3.44883e-29
1.54384e-29
6.30482e-30
2.344e-30
7.85218e-31
2.28527e-31
4.9913e-32
6.55556e-34
-9.00249e-33
-8.37997e-33
-5.97319e-33
-3.854e-33
-2.33792e-33
-1.33728e-33
-7.16236e-34
-3.60954e-34
-1.24987e-34
-1.22376e-16
4.69334e-16
8.03492e-15
7.2901e-14
8.61698e-13
5.30226e-13
9.59437e-12
6.2386e-11
2.38217e-10
7.7245e-10
2.46063e-09
7.57278e-09
2.28073e-08
6.68216e-08
1.92146e-07
5.43504e-07
1.50122e-06
4.03133e-06
1.05618e-05
2.7118e-05
6.81432e-05
0.000166359
0.00039071
0.000874851
0.00185837
0.00373881
0.00712087
0.0128614
0.022088
0.0361424
0.0565186
0.084905
0.123026
0.172902
0.23531
0.306034
0.378646
0.447966
0.51059
0.564877
0.61
0.646858
0.675667
0.696176
0.707143
0.708854
0.705368
0.694573
0.675997
0.650477
0.618759
0.581863
0.54076
0.496716
0.450773
0.404091
0.357748
0.312506
0.269282
0.228294
0.190283
0.155467
0.124182
0.0966986
0.0730772
0.0534511
0.0376048
0.0253975
0.016304
0.00984361
0.0055957
0.00295819
0.0013953
0.000652809
0.000315034
0.000152511
7.10371e-05
2.87963e-05
7.2094e-06
-3.26771e-06
-8.14626e-06
-1.02029e-05
-1.04015e-05
-9.63456e-06
-8.15827e-06
-5.87037e-06
-3.60853e-06
-1.93124e-06
-1.09692e-06
-6.62657e-07
-3.99996e-07
-2.35697e-07
-1.33837e-07
-7.14609e-08
-3.47013e-08
-1.48802e-08
-5.10599e-09
-6.92847e-10
1.05776e-09
1.59466e-09
1.60986e-09
1.44273e-09
1.23001e-09
1.01265e-09
8.08967e-10
5.91202e-10
4.05762e-10
2.65713e-10
1.6756e-10
1.01062e-10
5.7042e-11
2.92054e-11
1.30044e-11
4.59595e-12
8.58828e-13
-2.74321e-13
-4.34769e-13
-3.57529e-13
-2.24983e-13
-1.21414e-13
-5.81733e-14
-2.48415e-14
-9.31835e-15
-2.98469e-15
-6.98383e-16
6.60512e-17
2.34203e-16
2.09508e-16
1.4453e-16
8.84204e-17
5.04018e-17
2.7532e-17
1.47613e-17
7.90973e-18
4.33246e-18
2.47144e-18
1.47609e-18
9.23832e-19
5.98996e-19
3.95178e-19
2.61503e-19
1.70385e-19
1.07995e-19
6.56379e-20
3.75303e-20
2.00617e-20
9.77514e-21
4.13278e-21
1.31979e-21
9.49384e-23
-3.08127e-22
-3.47818e-22
-2.62294e-22
-1.61106e-22
-8.4129e-23
-3.66655e-23
-1.22379e-23
-1.95014e-24
1.15967e-24
1.46615e-24
1.04136e-24
6.20802e-25
3.49257e-25
2.32388e-25
2.09218e-25
2.01621e-25
1.53648e-25
6.13934e-26
-3.53357e-26
-1.02951e-25
-1.30207e-25
-1.24341e-25
-1.00113e-25
-7.0932e-26
-4.51023e-26
-2.59232e-26
-1.34234e-26
-6.14967e-27
-2.36855e-27
-6.42393e-28
1.3958e-29
1.85206e-28
1.75665e-28
1.21576e-28
7.21272e-29
3.86506e-29
1.91524e-29
8.88149e-30
3.87379e-30
1.58362e-30
5.96285e-31
1.96816e-31
4.79597e-32
-3.98304e-34
-1.16037e-32
-1.08995e-32
-7.57633e-33
-4.56892e-33
-2.53776e-33
-1.04655e-33
-1.16748e-16
4.45642e-16
7.80179e-15
7.23286e-14
5.03039e-13
2.76943e-12
1.47293e-11
6.23919e-11
2.40352e-10
8.5311e-10
2.82681e-09
8.89741e-09
2.71282e-08
7.94575e-08
2.26231e-07
6.3077e-07
1.71439e-06
4.52847e-06
1.1662e-05
2.93973e-05
7.24539e-05
0.000173392
0.000399279
0.00087801
0.00183494
0.00363761
0.00684164
0.012227
0.0208088
0.0338011
0.0525229
0.0782787
0.112183
0.155111
0.207522
0.268172
0.333994
0.400856
0.464983
0.523705
0.575166
0.619131
0.655347
0.68315
0.701791
0.709544
0.70897
0.703284
0.688661
0.666284
0.636885
0.601542
0.561435
0.517939
0.472343
0.425924
0.379865
0.335108
0.292464
0.252354
0.215246
0.181276
0.150542
0.123075
0.0988025
0.0777523
0.0597792
0.044825
0.0326782
0.0230884
0.0157898
0.0104128
0.00656668
0.00395666
0.00228097
0.0012563
0.000632355
0.000310764
0.000154188
7.46292e-05
3.26229e-05
1.00258e-05
-1.95493e-06
-8.14691e-06
-1.1139e-05
-1.21311e-05
-1.18187e-05
-1.07007e-05
-8.95758e-06
-6.57168e-06
-4.44056e-06
-2.80357e-06
-1.60256e-06
-8.66039e-07
-4.90263e-07
-2.89679e-07
-1.70588e-07
-9.75577e-08
-5.21965e-08
-2.54703e-08
-1.07052e-08
-3.37262e-09
-1.27563e-10
1.11488e-09
1.5199e-09
1.54645e-09
1.30722e-09
9.6052e-10
6.38208e-10
3.86903e-10
2.12545e-10
1.04208e-10
4.39152e-11
1.43082e-11
2.26505e-12
-7.72906e-13
-1.15966e-12
-9.39966e-13
-5.96046e-13
-3.2984e-13
-1.64889e-13
-7.50311e-14
-3.07757e-14
-1.09524e-14
-2.96513e-15
-2.17065e-16
4.74853e-16
5.05392e-16
3.67487e-16
2.32458e-16
1.37628e-16
7.91218e-17
4.52878e-17
2.61881e-17
1.549e-17
9.42464e-18
5.88455e-18
3.75583e-18
2.43148e-18
1.58131e-18
1.02587e-18
6.58167e-19
4.15377e-19
2.56356e-19
1.53713e-19
8.92813e-20
4.97828e-20
2.64035e-20
1.3153e-20
5.99827e-21
2.3981e-21
7.29001e-22
5.84177e-23
-1.46905e-22
-1.61772e-22
-1.17997e-22
-7.03425e-23
-3.58474e-23
-1.5922e-23
-5.95455e-24
-1.812e-24
-2.98879e-25
1.45041e-25
1.88845e-25
6.97271e-26
-1.42377e-25
-4.10734e-25
-6.22095e-25
-7.05581e-25
-6.68363e-25
-5.5536e-25
-4.16116e-25
-2.86115e-25
-1.82597e-25
-1.08885e-25
-6.08008e-26
-3.16981e-26
-1.52724e-26
-6.64337e-27
-2.46603e-27
-6.46251e-28
2.72762e-29
2.01383e-28
1.91558e-28
1.35265e-28
8.26284e-29
4.58776e-29
2.36454e-29
1.14133e-29
5.16431e-30
2.17331e-30
8.31306e-31
2.71746e-31
6.03326e-32
-7.19655e-33
-2.10261e-32
-1.81114e-32
-1.20611e-32
-7.14769e-33
-3.18558e-33
-1.08654e-16
4.15037e-16
7.24303e-15
6.69902e-14
4.70291e-13
2.71249e-12
1.33641e-11
5.76729e-11
2.24002e-10
7.98511e-10
2.65048e-09
8.34833e-09
2.54732e-08
7.47488e-08
2.13123e-07
5.94949e-07
1.61902e-06
4.28127e-06
1.10324e-05
2.78091e-05
6.84974e-05
0.000163783
0.000376812
0.000827849
0.00172857
0.00342367
0.0064333
0.0114858
0.0195265
0.0316902
0.0492239
0.0733646
0.10515
0.145306
0.193914
0.250046
0.311715
0.375886
0.439253
0.499081
0.553167
0.60059
0.640815
0.673034
0.696282
0.708329
0.709829
0.705972
0.693614
0.67183
0.641964
0.605437
0.563836
0.518826
0.472045
0.424935
0.37874
0.334472
0.292752
0.254111
0.218748
0.186757
0.158068
0.132529
0.109935
0.0901037
0.0728297
0.0579666
0.0453466
0.034808
0.0261874
0.0192737
0.0138691
0.00974316
0.00668005
0.0044749
0.00291051
0.00183733
0.00112743
0.000671797
0.000386414
0.00021221
0.000102836
4.28103e-05
1.30715e-05
-1.4165e-06
-8.27055e-06
-1.1157e-05
-1.20445e-05
-1.17265e-05
-1.06864e-05
-8.7784e-06
-6.59604e-06
-4.66384e-06
-3.12655e-06
-2.00301e-06
-1.22676e-06
-7.2105e-07
-4.04162e-07
-2.15388e-07
-1.0759e-07
-4.95926e-08
-1.99223e-08
-5.50912e-09
7.83737e-10
2.33696e-09
2.26018e-09
1.83934e-09
1.2811e-09
7.86725e-10
4.28329e-10
2.0502e-10
8.29413e-11
2.49227e-11
3.12434e-12
-1.87486e-12
-2.12671e-12
-1.62994e-12
-1.01908e-12
-5.67637e-13
-2.88729e-13
-1.3538e-13
-5.8231e-14
-2.2446e-14
-7.22083e-15
-1.45304e-15
3.40021e-16
6.81021e-16
5.78557e-16
3.9953e-16
2.51884e-16
1.52192e-16
9.06003e-17
5.39849e-17
3.25337e-17
1.99116e-17
1.23574e-17
7.74998e-18
4.88661e-18
3.08017e-18
1.93282e-18
1.20285e-18
7.40696e-19
4.50656e-19
2.70615e-19
1.59993e-19
9.26441e-20
5.22847e-20
2.86073e-20
1.50395e-20
7.52074e-21
3.4974e-21
1.4593e-21
4.9354e-22
8.48823e-23
-5.63552e-23
-8.15956e-23
-6.59695e-23
-4.3438e-23
-2.53514e-23
-1.41706e-23
-7.91762e-24
-4.69755e-24
-3.22434e-24
-2.75342e-24
-2.68742e-24
-2.65289e-24
-2.41591e-24
-1.98938e-24
-1.49422e-24
-1.03582e-24
-6.6996e-25
-4.08085e-25
-2.3578e-25
-1.298e-25
-6.81562e-26
-3.40099e-26
-1.59561e-26
-6.87538e-27
-2.57745e-27
-7.06742e-28
2.15848e-30
1.99857e-28
2.02014e-28
1.48957e-28
9.47324e-29
5.47106e-29
2.93094e-29
1.46883e-29
6.88841e-30
3.00015e-30
1.18852e-30
4.06116e-31
9.98416e-32
-2.60929e-33
-2.62561e-32
-2.41439e-32
-1.65003e-32
-9.95039e-33
-4.50815e-33
-9.9513e-17
3.8047e-16
6.49629e-15
5.85278e-14
4.1305e-13
1.59177e-12
7.78533e-12
4.54376e-11
1.82867e-10
6.27097e-10
2.03409e-09
6.36117e-09
1.93767e-08
5.71867e-08
1.64483e-07
4.64577e-07
1.28223e-06
3.44187e-06
8.99836e-06
2.29994e-05
5.74489e-05
0.000139363
0.00032536
0.000725101
0.0015345
0.00307664
0.00584412
0.0105318
0.0180464
0.0294795
0.0460337
0.0689071
0.0991142
0.137381
0.183796
0.237538
0.296933
0.359507
0.422358
0.482831
0.538659
0.588769
0.632516
0.668476
0.694769
0.708077
0.709611
0.705047
0.690826
0.664759
0.62941
0.587149
0.54043
0.491388
0.442018
0.393811
0.347863
0.30503
0.265545
0.229906
0.197916
0.169548
0.144524
0.122542
0.103306
0.0864947
0.0718499
0.0591311
0.0481429
0.0387254
0.030736
0.0240429
0.0185237
0.0140437
0.0104715
0.00767864
0.00553421
0.00391846
0.0027244
0.00185926
0.0012438
0.000814241
0.000517597
0.000316859
0.000184814
0.000100504
4.84898e-05
1.78913e-05
9.92823e-07
-7.60376e-06
-1.07909e-05
-1.06122e-05
-9.5708e-06
-7.77649e-06
-5.85576e-06
-4.13901e-06
-2.76339e-06
-1.74876e-06
-1.04712e-06
-5.91229e-07
-3.11463e-07
-1.50196e-07
-6.32721e-08
-2.03341e-08
-1.95548e-09
2.77188e-09
3.06562e-09
2.41756e-09
1.6977e-09
1.0162e-09
5.30842e-10
2.40098e-10
8.87951e-11
2.18271e-11
6.26178e-13
-2.92935e-12
-2.65201e-12
-1.82937e-12
-1.13648e-12
-6.35965e-13
-3.26982e-13
-1.56175e-13
-6.88808e-14
-2.74842e-14
-9.39227e-15
-2.24553e-15
1.41522e-16
6.82848e-16
6.44518e-16
4.67042e-16
3.04341e-16
1.88672e-16
1.14411e-16
6.89022e-17
4.15186e-17
2.51037e-17
1.52151e-17
9.22219e-18
5.57396e-18
3.35162e-18
2.00084e-18
1.18582e-18
6.9748e-19
4.07893e-19
2.37597e-19
1.37987e-19
7.99294e-20
4.61006e-20
2.63845e-20
1.49151e-20
8.25064e-21
4.41642e-21
2.24708e-21
1.05495e-21
4.30835e-22
1.26975e-22
-3.09773e-24
-4.54613e-23
-4.9097e-23
-3.95573e-23
-2.88747e-23
-2.05149e-23
-1.4915e-23
-1.14505e-23
-9.27993e-24
-7.55377e-24
-5.89707e-24
-4.28466e-24
-2.87894e-24
-1.79591e-24
-1.04653e-24
-5.73555e-25
-2.97622e-25
-1.47084e-25
-6.94906e-26
-3.13732e-26
-1.34122e-26
-5.27828e-27
-1.76244e-27
-3.47942e-28
1.43996e-28
2.56238e-28
2.3045e-28
1.68713e-28
1.10125e-28
6.61537e-29
3.70586e-29
1.94557e-29
9.56827e-30
4.38142e-30
1.8393e-30
6.82837e-31
2.02616e-31
2.76576e-32
-2.21515e-32
-2.73614e-32
-2.04961e-32
-1.28306e-32
-7.37225e-33
-3.18433e-33
-1.12266e-16
3.08285e-16
5.51639e-15
4.85067e-14
1.02062e-12
2.17782e-12
-8.62691e-12
1.40587e-12
1.30436e-10
5.54091e-10
1.77007e-09
4.83994e-09
1.26782e-08
3.56317e-08
1.03138e-07
2.98646e-07
8.5228e-07
2.37505e-06
6.45425e-06
1.71659e-05
4.45213e-05
0.000111876
0.000269847
0.000619354
0.00134502
0.00275703
0.00533502
0.00976225
0.0169351
0.0279334
0.0439418
0.0661274
0.0954713
0.132619
0.1777
0.23012
0.28847
0.350668
0.413989
0.475864
0.534554
0.588843
0.636805
0.675073
0.699585
0.708098
0.705419
0.693993
0.668923
0.628563
0.579828
0.52663
0.472187
0.418664
0.367855
0.320762
0.277893
0.239624
0.20558
0.176049
0.150343
0.128246
0.109238
0.0928899
0.0788283
0.0666762
0.0561753
0.0470724
0.0391785
0.0323522
0.0264576
0.0214139
0.0171268
0.0135236
0.0105344
0.00808781
0.00611623
0.00455262
0.00333256
0.00239637
0.00169038
0.00116747
0.000787166
0.000515813
0.000326325
0.000197277
0.000111987
5.76902e-05
2.47258e-05
6.00501e-06