/*--------------------------------*- C++ -*----------------------------------*\
| =========                 |                                                 |
| \\      /  F ield         | OpenFOAM: The Open Source CFD Toolbox           |
|  \\    /   O peration     | Version:  2506                                  |
|   \\  /    A nd           | Website:  www.openfoam.com                      |
|    \\/     M anipulation  |                                                 |
\*---------------------------------------------------------------------------*/
FoamFile
{
    version     2.0;
    format      ascii;
    arch        "LSB;label=32;scalar=64";
    class       volVectorField;
    location    "1";
    object      U;
}
// * * * * * * * * * * * * * * * * * * * * * * * * * * * * * * * * * * * * * //

dimensions      [0 1 -1 0 0 0 0];

internalField   nonuniform List<vector> 
4000
(
(0.0079908 0.00075231 0)
(0.0072199 0.000878052 -4.1525e-21)
(0.00604819 0.0005051 4.28678e-21)
(0.00498976 0.000236757 8.6349e-21)
(0.00438889 0.000118314 -1.74674e-20)
(0.00405872 6.64489e-05 8.78437e-21)
(0.00384565 4.25556e-05 0)
(0.00369435 3.16607e-05 0)
(0.00358155 2.68758e-05 0)
(0.00349267 2.49156e-05 1.73729e-20)
(0.00341921 2.42665e-05 -1.74002e-20)
(0.00335667 2.42625e-05 3.45152e-20)
(0.00330234 2.46214e-05 -3.4554e-20)
(0.00325438 2.52127e-05 0)
(0.00321135 2.59696e-05 0)
(0.00317213 2.68595e-05 0)
(0.00313574 2.7864e-05 3.38516e-20)
(0.00310133 2.89827e-05 -3.38739e-20)
(0.00306813 3.02242e-05 0)
(0.00303537 3.15966e-05 0)
(0.00300233 3.31106e-05 0)
(0.00296831 3.47763e-05 0)
(0.0029326 3.66012e-05 0)
(0.00289444 3.85982e-05 6.57782e-20)
(0.00285305 4.07853e-05 -1.31345e-19)
(0.00280754 4.31867e-05 6.55711e-20)
(0.00275688 4.5845e-05 0)
(0.0026998 4.88332e-05 0)
(0.00263473 5.22727e-05 0)
(0.00255952 5.63747e-05 0)
(0.00247111 6.1553e-05 -6.42135e-20)
(0.00236504 6.87059e-05 6.43326e-20)
(0.00223732 7.82432e-05 0)
(0.00204481 9.62392e-05 5.59323e-20)
(0.00181714 0.000156396 6.38339e-20)
(0.00167093 0.000270003 -3.21655e-19)
(0.00162661 0.000410957 -2.58397e-19)
(0.00163137 0.000556917 6.51053e-20)
(0.00166717 0.000707444 -2.60934e-19)
(0.00174405 0.00086928 -5.88184e-19)
(0.00190489 0.00105385 6.55074e-20)
(0.00217349 0.00125011 5.20131e-19)
(0.00247069 0.00142176 -5.16826e-19)
(0.0027525 0.00156338 0)
(0.00302808 0.00168243 0)
(0.00329382 0.00177952 -3.14354e-20)
(0.00356067 0.00185585 -4.68491e-19)
(0.0038202 0.00190244 -4.65572e-19)
(0.00406247 0.00191888 -2.77181e-19)
(0.00430213 0.00190473 -2.43251e-19)
(0.00452163 0.00185314 2.40227e-19)
(0.00472645 0.00176757 0)
(0.00490412 0.00163861 -2.92028e-20)
(0.00505035 0.001477 4.93956e-19)
(0.0051606 0.00127493 0)
(0.0052185 0.00104414 -1.13432e-19)
(0.00523292 0.000787207 -2.78199e-20)
(0.00517524 0.000515562 -1.48506e-23)
(0.0050831 0.000249081 -3.95311e-22)
(0.00492023 -2.20823e-05 -1.38551e-20)
(0.00471069 -0.000265845 2.65112e-20)
(0.00447872 -0.000484245 0)
(0.00421566 -0.000669792 0)
(0.00395541 -0.000819905 5.11983e-20)
(0.00368482 -0.000937775 3.56154e-19)
(0.00343278 -0.00102303 4.99795e-20)
(0.00318764 -0.0010825 -5.03394e-20)
(0.00296473 -0.001118 4.87532e-20)
(0.00275858 -0.00113549 1.44882e-19)
(0.00256888 -0.00113666 -3.34606e-19)
(0.0024019 -0.00112594 -4.7396e-20)
(0.00224371 -0.00110509 1.01257e-21)
(0.00210279 -0.00107648 0)
(0.00197483 -0.00104311 0)
(0.00185455 -0.00100502 0)
(0.00174615 -0.000964065 -2.21292e-20)
(0.0016472 -0.000921824 -3.29429e-19)
(0.00155461 -0.000878419 0)
(0.0014706 -0.000834809 9.14126e-22)
(0.00139443 -0.000791884 2.11882e-20)
(0.00132449 -0.000749782 -3.36704e-19)
(0.00126093 -0.000708781 3.02573e-19)
(0.00120298 -0.00066896 6.39969e-23)
(0.00114984 -0.000630172 3.31138e-19)
(0.00110191 -0.000592588 1.81885e-21)
(0.00105746 -0.000556018 -3.1653e-19)
(0.0010154 -0.000519965 -3.18024e-19)
(0.000977693 -0.000484804 3.19954e-19)
(0.000942205 -0.000450576 -4.83267e-21)
(0.000907851 -0.000416743 -3.05029e-19)
(0.000877706 -0.000383819 0)
(0.000849384 -0.000351988 -3.07153e-19)
(0.000822906 -0.000320842 -2.85103e-19)
(0.000801234 -0.000290878 2.90842e-19)
(0.00078091 -0.000261924 -1.61707e-19)
(0.000766622 -0.000233822 1.77583e-20)
(0.000754976 -0.000206659 1.40309e-19)
(0.000749617 -0.000179375 1.72851e-20)
(0.0007475 -0.000151874 1.19971e-19)
(0.000752236 -0.00012301 8.47555e-20)
(0.000762903 -9.33297e-05 -3.36096e-20)
(0.000781011 -6.24502e-05 8.33993e-20)
(0.00080659 -3.10918e-05 -8.30074e-21)
(0.000837112 2.31884e-06 -8.26501e-21)
(0.000875198 4.02501e-05 -3.29315e-20)
(0.000920965 8.25772e-05 0)
(0.000973774 0.000130807 0)
(0.00103587 0.00018425 -2.59437e-19)
(0.00110416 0.000243761 -8.25677e-21)
(0.0011803 0.000309931 1.36588e-19)
(0.00126274 0.000382403 1.32603e-19)
(0.00135079 0.000460926 4.14939e-21)
(0.00144399 0.000545219 -1.37551e-19)
(0.00154088 0.000634146 -2.74595e-22)
(0.00163902 0.000727462 0)
(0.00174257 0.000823713 2.67263e-19)
(0.00184389 0.000920614 -8.31591e-21)
(0.00194638 0.00101743 -2.49114e-19)
(0.00204854 0.00111134 -8.34061e-21)
(0.00214553 0.00120122 -2.64979e-19)
(0.00224038 0.00128736 -1.03919e-21)
(0.00233327 0.00136813 2.62451e-19)
(0.00242079 0.00144215 1.62133e-20)
(0.00250487 0.00150985 -2.91428e-19)
(0.0025878 0.00157064 1.61592e-20)
(0.00266799 0.00162383 2.54795e-19)
(0.00274736 0.00166972 3.13217e-20)
(0.0028269 0.00170819 -3.14418e-20)
(0.00290728 0.00173964 2.46919e-19)
(0.00299308 0.00176515 -2.12214e-19)
(0.00308456 0.0017828 -3.03469e-20)
(0.00317745 0.00179303 -4.4377e-19)
(0.00328257 0.00179812 -2.94962e-20)
(0.00339925 0.00179372 -2.29968e-19)
(0.00351798 0.00177972 1.49069e-21)
(0.00365504 0.00175819 0)
(0.00380356 0.00172002 0)
(0.00395204 0.00166853 -7.01288e-22)
(0.00411651 0.00159821 0)
(0.00427858 0.00150652 -2.5034e-20)
(0.00444096 0.00139022 -7.33266e-20)
(0.00459275 0.00124601 -2.37224e-20)
(0.00472155 0.00107303 -4.63948e-20)
(0.00482547 0.000873543 -2.31394e-20)
(0.00487988 0.000646392 -6.58322e-20)
(0.00489313 0.000407167 2.16556e-20)
(0.00484423 0.000147171 0)
(0.00472439 -0.000100031 0)
(0.00456458 -0.000334046 0)
(0.00434551 -0.000539838 -1.8519e-20)
(0.00410663 -0.000711416 1.85662e-20)
(0.00383145 -0.000852432 7.08291e-20)
(0.00355221 -0.000952532 6.88084e-20)
(0.00326526 -0.00102024 0)
(0.00298882 -0.00105353 -6.4965e-20)
(0.00271307 -0.0010569 0)
(0.0024471 -0.00103159 -1.49011e-20)
(0.00218437 -0.000981738 7.50132e-20)
(0.00191928 -0.000902061 -1.44167e-20)
(0.00163662 -0.00076852 2.42959e-19)
(0.00152573 -0.000631199 -5.58308e-20)
(0.00150981 -0.000523017 -5.46496e-20)
(0.00148877 -0.00042516 0)
(0.00147585 -0.000332223 0)
(0.0014965 -0.000243431 0)
(0.00155972 -0.000165987 0)
(0.001689 -0.000104599 0)
(0.0018703 -7.63136e-05 1.13991e-20)
(0.0020425 -6.94153e-05 -3.1039e-22)
(0.00220208 -6.79947e-05 -3.19964e-22)
(0.00235876 -6.70015e-05 -1.07159e-20)
(0.00250944 -6.52408e-05 0)
(0.00264867 -6.24283e-05 9.6205e-21)
(0.00277192 -5.86526e-05 -9.58678e-21)
(0.00287621 -5.41596e-05 2.8147e-22)
(0.00296022 -4.92661e-05 0)
(0.00302404 -4.41913e-05 0)
(0.00306915 -3.90632e-05 -7.68409e-21)
(0.00309781 -3.43657e-05 7.67019e-21)
(0.0031128 -2.99382e-05 0)
(0.00311706 -2.60428e-05 0)
(0.00311317 -2.30959e-05 -2.88999e-21)
(0.00310365 -2.08957e-05 1.80098e-22)
(0.00309099 -1.91122e-05 2.90083e-21)
(0.00307721 -1.76377e-05 0)
(0.00306384 -1.64055e-05 0)
(0.00305194 -1.53669e-05 0)
(0.00304212 -1.44886e-05 0)
(0.00303473 -1.38139e-05 1.20097e-22)
(0.00302964 -1.32689e-05 0)
(0.00302635 -1.27262e-05 0)
(0.00302435 -1.20167e-05 0)
(0.00302304 -1.10957e-05 5.79561e-22)
(0.00302176 -9.9687e-06 -5.78704e-22)
(0.0030198 -8.65932e-06 0)
(0.00301653 -7.1357e-06 4.62105e-23)
(0.00301132 -5.28822e-06 1.22912e-22)
(0.00300284 -3.10412e-06 -8.1972e-23)
(0.0029872 5.37775e-07 -4.07208e-23)
(0.00295933 1.07254e-05 0)
(0.00987615 0.00143538 0)
(0.0104318 0.001992 0)
(0.0101838 0.00162927 0)
(0.00948079 0.00113396 8.51362e-21)
(0.00879063 0.000740699 -1.72912e-20)
(0.00826764 0.000482174 8.74865e-21)
(0.00786649 0.000328695 0)
(0.00754527 0.000239911 1.75687e-20)
(0.00728411 0.0001861 -1.76805e-20)
(0.0070679 0.000150991 1.76013e-20)
(0.00688482 0.000126414 -1.76761e-20)
(0.00672706 0.000108164 -3.51425e-20)
(0.00658944 9.40766e-05 3.52517e-20)
(0.00646803 8.30032e-05 3.50119e-20)
(0.00635968 7.42731e-05 -1.66789e-22)
(0.00626176 6.74756e-05 -6.98402e-20)
(0.006172 6.23601e-05 3.49039e-20)
(0.00608839 5.87598e-05 0)
(0.00600907 5.66116e-05 0)
(0.00593232 5.58391e-05 0)
(0.00585652 5.63941e-05 0)
(0.00578009 5.82662e-05 0)
(0.00570151 6.1478e-05 0)
(0.00561924 6.60876e-05 0)
(0.00553172 7.22002e-05 0)
(0.00543729 7.99946e-05 0)
(0.00533413 8.97894e-05 0)
(0.00522016 0.000101975 0)
(0.00509294 0.000117195 0)
(0.00494947 0.000136469 0)
(0.00478595 0.000161478 -6.6811e-20)
(0.00459741 0.000195222 2.7467e-22)
(0.00438084 0.000243314 1.33682e-19)
(0.00410415 0.000314414 -5.85965e-20)
(0.00379895 0.000448095 -6.68954e-20)
(0.00358918 0.000670275 2.02538e-19)
(0.00352027 0.000957049 -2.72493e-19)
(0.00355193 0.00127769 -6.86063e-20)
(0.00366742 0.00162381 6.91834e-19)
(0.00388194 0.00199537 2.09172e-19)
(0.00424248 0.00239087 0)
(0.00475577 0.00278694 6.87485e-20)
(0.00532321 0.00314749 4.095e-19)
(0.00588869 0.00346263 6.80155e-20)
(0.00645124 0.00373233 5.35844e-19)
(0.00700438 0.00395369 -5.30377e-19)
(0.00755517 0.0041228 1.96952e-21)
(0.00809175 0.00422659 0)
(0.00860395 0.00426271 -2.57423e-19)
(0.0091009 0.00422618 0)
(0.00956374 0.00411001 -7.14114e-22)
(0.00999237 0.00391646 0)
(0.0103699 0.00363458 -2.44855e-19)
(0.0106888 0.00327992 -2.42322e-19)
(0.010934 0.00284452 0)
(0.0110882 0.00234867 3.21678e-24)
(0.0111531 0.00180162 1.16855e-19)
(0.0110997 0.00121863 2.86052e-20)
(0.0109573 0.000634132 5.67946e-20)
(0.0106886 4.30753e-05 -1.42998e-20)
(0.0103242 -0.000508455 0)
(0.00988715 -0.00101311 1.11475e-19)
(0.00938288 -0.00145621 -5.57657e-20)
(0.00885168 -0.00182984 -1.09761e-19)
(0.00828899 -0.00213057 -3.26933e-19)
(0.00773687 -0.00236055 -5.44201e-20)
(0.00718843 -0.00252841 2.67877e-19)
(0.00666856 -0.00263705 -5.35936e-20)
(0.00617507 -0.00269677 0)
(0.00571215 -0.00271358 5.21834e-20)
(0.00528774 -0.00269494 -5.2183e-20)
(0.00488731 -0.00264702 2.06857e-21)
(0.00451917 -0.00257589 0)
(0.00417946 -0.00248693 -4.04071e-19)
(0.0038621 -0.00238403 -3.99781e-19)
(0.00356995 -0.00227135 2.45613e-20)
(0.00330063 -0.0021524 -2.44856e-20)
(0.00305027 -0.00202993 2.40275e-20)
(0.0028201 -0.0019065 -3.80683e-19)
(0.0026092 -0.00178405 3.54308e-19)
(0.00241548 -0.00166399 -3.73563e-19)
(0.00223834 -0.00154741 -3.78954e-19)
(0.00207636 -0.00143456 2.275e-20)
(0.00192799 -0.00132567 -3.71473e-19)
(0.00179282 -0.00122104 3.51468e-19)
(0.00166852 -0.00112011 -3.48379e-19)
(0.00155332 -0.00102298 3.46583e-19)
(0.00144818 -0.000929876 -3.40716e-19)
(0.00135071 -0.00084091 -1.04998e-20)
(0.00125989 -0.000756462 1.04095e-20)
(0.00117797 -0.000677126 0)
(0.00110308 -0.00060331 0)
(0.00103594 -0.000535645 1.59394e-19)
(0.000979183 -0.000474371 -1.7624e-19)
(0.000930984 -0.000419851 1.54595e-19)
(0.000896029 -0.00037175 3.81026e-20)
(0.000873206 -0.000329948 1.66032e-22)
(0.000866448 -0.000293472 -6.59145e-23)
(0.000873428 -0.000260795 -3.29036e-19)
(0.000897602 -0.000228804 -5.40517e-20)
(0.000938404 -0.000195689 7.13753e-20)
(0.000997336 -0.000159408 -7.06237e-20)
(0.00107594 -0.000118128 0)
(0.00117434 -6.80961e-05 -8.68328e-21)
(0.00129324 -5.45334e-06 8.67065e-21)
(0.00143145 7.24586e-05 0)
(0.00158728 0.00016814 0)
(0.00176123 0.000282877 1.37839e-19)
(0.00194951 0.000417983 -1.37661e-19)
(0.0021518 0.000573637 1.42044e-19)
(0.00236528 0.000749471 -2.76115e-19)
(0.00258765 0.00094433 -2.10467e-23)
(0.00281682 0.00115648 -4.3335e-21)
(0.00304981 0.00138348 -1.38651e-19)
(0.00328361 0.001623 0)
(0.00351971 0.0018685 0)
(0.00375008 0.00211984 0)
(0.00397672 0.00237069 2.85703e-19)
(0.00419875 0.00261677 2.66253e-19)
(0.00441256 0.00285514 0)
(0.00462053 0.00308337 -3.09375e-19)
(0.00482284 0.00329824 5.1295e-20)
(0.00501725 0.00349726 -3.39853e-20)
(0.00520653 0.00367934 1.70062e-20)
(0.00539367 0.00384299 -3.33945e-20)
(0.00557857 0.00398734 2.66397e-19)
(0.00576422 0.00411232 -2.30502e-19)
(0.00595301 0.00421788 2.94133e-19)
(0.00614744 0.0043045 -5.19114e-22)
(0.00635287 0.00437267 2.26512e-19)
(0.00657034 0.00442044 0)
(0.00679815 0.00444849 2.52577e-19)
(0.00704696 0.00445729 -3.0601e-20)
(0.00731551 0.00444168 -2.11391e-19)
(0.00759663 0.00440093 2.40749e-19)
(0.00790386 0.00433357 -2.89761e-20)
(0.00822814 0.00422852 2.90778e-20)
(0.00855841 0.00408831 -2.90245e-20)
(0.00890325 0.00390257 2.77978e-20)
(0.00924308 0.00366841 -2.63546e-20)
(0.00957238 0.00337989 1.3114e-19)
(0.0098742 0.00303363 -1.25792e-19)
(0.0101293 0.00262951 1.23807e-19)
(0.0103274 0.00217334 0)
(0.0104362 0.00166609 2.34774e-20)
(0.0104584 0.00113608 -2.22225e-20)
(0.0103667 0.000579101 -1.08733e-20)
(0.0101582 3.83392e-05 0)
(0.00985472 -0.000476676 -2.05013e-20)
(0.00944377 -0.000942606 3.98569e-20)
(0.00896672 -0.00134116 0)
(0.00841345 -0.00167537 -7.56229e-20)
(0.00783024 -0.00192422 -1.81416e-20)
(0.00721684 -0.00209863 1.82311e-20)
(0.00660836 -0.00219541 0)
(0.0059948 -0.00221861 6.88821e-20)
(0.00539475 -0.00217354 -6.68594e-20)
(0.00480556 -0.00206654 6.59459e-20)
(0.00423568 -0.00189924 0)
(0.00366317 -0.00165743 -1.25355e-19)
(0.00331833 -0.00137857 -7.69204e-20)
(0.0031389 -0.00111499 1.34872e-19)
(0.00301261 -0.000881316 -1.43996e-20)
(0.00293578 -0.00068191 1.42923e-20)
(0.00293723 -0.000513424 1.35597e-20)
(0.0030322 -0.000381791 1.298e-20)
(0.00324474 -0.000292412 -1.14006e-20)
(0.00355156 -0.000255354 -7.75673e-22)
(0.00388418 -0.000247364 0)
(0.00422066 -0.000245667 7.21029e-22)
(0.00455659 -0.0002397 0)
(0.00488023 -0.000225452 -6.66055e-22)
(0.00517895 -0.00020295 -1.00572e-20)
(0.00544303 -0.000174184 1.06047e-20)
(0.0056663 -0.000141775 -8.79408e-22)
(0.00584602 -0.000108299 8.77705e-21)
(0.00598252 -7.57743e-05 -1.65731e-20)
(0.00607871 -4.65812e-05 1.62939e-20)
(0.00613922 -2.08828e-05 -8.41948e-21)
(0.00616974 1.70911e-07 0)
(0.00617633 1.64364e-05 3.81922e-21)
(0.00616506 2.6886e-05 -3.58564e-21)
(0.0061422 3.38619e-05 -3.86146e-22)
(0.00611311 3.71933e-05 -2.81266e-21)
(0.00608168 3.74697e-05 2.46956e-21)
(0.00605096 3.55135e-05 2.4417e-21)
(0.00602303 3.21173e-05 -2.73134e-21)
(0.00599898 2.80617e-05 2.34881e-21)
(0.00597923 2.40962e-05 -4.09813e-21)
(0.00596342 2.03961e-05 2.5304e-21)
(0.00595041 1.74044e-05 -8.58937e-22)
(0.00593875 1.55202e-05 -1.81645e-22)
(0.00592683 1.48873e-05 0)
(0.00591311 1.54935e-05 3.72761e-22)
(0.00589621 1.72896e-05 -5.10172e-22)
(0.00587502 2.03086e-05 2.64909e-23)
(0.00584859 2.4741e-05 -1.6931e-22)
(0.00581594 3.12096e-05 0)
(0.00577443 4.14815e-05 0)
(0.00571486 6.02913e-05 -1.11342e-23)
(0.00987674 0.000895136 0)
(0.0105619 0.00167957 -4.16773e-21)
(0.0110076 0.00171977 4.14857e-21)
(0.0108819 0.00149506 8.24701e-21)
(0.0105988 0.00118139 -8.32943e-21)
(0.010256 0.000905859 0)
(0.00990887 0.00069757 0)
(0.0095872 0.000551392 0)
(0.00929959 0.000449515 -1.68623e-20)
(0.00904615 0.000376082 3.3855e-20)
(0.00882276 0.000320919 1.68162e-20)
(0.00862503 0.000277978 -3.39528e-20)
(0.00844925 0.000243787 -3.37688e-20)
(0.00829211 0.000216327 3.38911e-20)
(0.00815054 0.000194326 0)
(0.00802175 0.000176946 -3.36142e-20)
(0.00790321 0.000163621 6.72425e-20)
(0.00779258 0.000153949 -3.36203e-20)
(0.00768765 0.000147657 0)
(0.00758636 0.000144544 0)
(0.00748673 0.000144469 0)
(0.00738686 0.000147347 0)
(0.0072849 0.000153153 0)
(0.007179 0.000161936 -6.5815e-20)
(0.00706731 0.00017383 6.594e-20)
(0.00694792 0.00018909 0)
(0.0068188 0.000208125 0)
(0.00667775 0.000231565 0)
(0.00652236 0.000260347 0)
(0.00634984 0.000295861 0)
(0.0061571 0.000340202 -6.47953e-20)
(0.0059405 0.000396664 6.49894e-20)
(0.00569985 0.000470974 0)
(0.00541501 0.000570746 4.04338e-21)
(0.00511458 0.000722975 0)
(0.00490951 0.000953959 -1.31013e-19)
(0.00486062 0.00125583 2.65066e-19)
(0.0049497 0.00161164 0)
(0.00516354 0.00201386 -5.34069e-19)
(0.00550846 0.00245619 5.77454e-22)
(0.00601098 0.00292303 -6.61155e-20)
(0.00665339 0.003383 6.59154e-20)
(0.00734752 0.00380887 -5.20801e-19)
(0.00804505 0.00419134 0)
(0.00873891 0.0045241 -5.72958e-19)
(0.00942221 0.00480004 5.35899e-19)
(0.0100971 0.00501079 5.29404e-19)
(0.0107527 0.00514392 0)
(0.0113808 0.00519493 2.42734e-19)
(0.0119844 0.00515648 0)
(0.0125479 0.00502391 -4.74947e-19)
(0.0130665 0.00479803 0)
(0.0135248 0.00447187 2.0346e-19)
(0.0139149 0.00405738 2.58464e-19)
(0.0142207 0.00355246 2.27475e-19)
(0.0144285 0.00297536 1.12458e-19)
(0.0145328 0.00233912 1.11078e-19)
(0.0145107 0.0016555 5.47251e-20)
(0.0143805 0.000957053 -2.72707e-20)
(0.0141139 0.000249054 -4.03059e-20)
(0.0137328 -0.000427323 0)
(0.0132519 -0.00105784 -1.05133e-19)
(0.0126815 -0.00162532 1.04394e-19)
(0.0120554 -0.00211447 0)
(0.0113772 -0.00252362 4.1348e-19)
(0.010687 -0.00284524 0)
(0.00998613 -0.00308838 5.09059e-20)
(0.00930132 -0.003249 -5.11584e-20)
(0.00863716 -0.00334441 0)
(0.00800128 -0.00337902 5.0086e-20)
(0.00740343 -0.00336177 -5.02287e-20)
(0.00683561 -0.0033011 -5.45836e-19)
(0.00630475 -0.00320481 3.45654e-19)
(0.00580917 -0.00308027 -1.76309e-21)
(0.0053444 -0.0029343 3.87156e-19)
(0.00491207 -0.00277297 2.39542e-20)
(0.00451055 -0.00260166 -4.06207e-19)
(0.00413663 -0.00242529 0)
(0.00379059 -0.00224786 -3.75345e-19)
(0.00347176 -0.00207242 -7.18925e-19)
(0.00317828 -0.00190139 7.00332e-19)
(0.00290928 -0.00173659 3.7584e-19)
(0.0026633 -0.00157889 -3.7185e-19)
(0.0024386 -0.00142878 3.66623e-19)
(0.00223424 -0.00128652 0)
(0.00204795 -0.00115206 3.47529e-19)
(0.00187759 -0.00102556 3.7819e-21)
(0.00172312 -0.000907179 6.88502e-19)
(0.00158238 -0.000797405 3.15031e-19)
(0.00145416 -0.00069714 3.42088e-19)
(0.0013397 -0.000607041 0)
(0.00123796 -0.000528025 0)
(0.00114944 -0.000461026 -1.58862e-19)
(0.00107674 -0.000406467 0)
(0.0010193 -0.000364298 -1.92917e-20)
(0.000980596 -0.000334244 1.90889e-20)
(0.000960477 -0.000315192 -1.5026e-19)
(0.000962399 -0.000305962 1.48182e-19)
(0.000987745 -0.000303107 1.27742e-19)
(0.00103964 -0.000303263 1.80203e-20)
(0.00111785 -0.000301445 -7.10298e-20)
(0.00122287 -0.000293479 3.50891e-20)
(0.00135631 -0.000274135 -2.60343e-20)
(0.0015166 -0.00023866 8.62129e-21)
(0.00170463 -0.000183365 0)
(0.00191801 -0.000103481 6.79242e-20)
(0.00215471 3.60717e-06 0)
(0.00241335 0.000140552 1.34766e-19)
(0.00268953 0.000308494 2.30792e-22)
(0.00298129 0.00050744 -1.3023e-19)
(0.00328496 0.000736418 1.34218e-19)
(0.00359705 0.000993401 -4.19442e-21)
(0.00391482 0.00127539 0)
(0.00423433 0.00157867 1.33242e-19)
(0.00455295 0.00189885 -1.3303e-19)
(0.00486994 0.00223018 0)
(0.00517921 0.00256807 8.26118e-21)
(0.00548174 0.00290698 -2.72329e-19)
(0.00577636 0.00324163 -2.48251e-19)
(0.00606075 0.0035673 2.45653e-19)
(0.00633684 0.00387949 -2.61059e-19)
(0.00660532 0.00417386 -1.62033e-20)
(0.00686568 0.00444724 2.42477e-19)
(0.00712084 0.00469743 3.24213e-20)
(0.00737389 0.00492219 2.86863e-19)
(0.00762607 0.00512045 -5.71895e-19)
(0.00788064 0.00529163 2.84866e-19)
(0.00814064 0.00543536 -2.19826e-19)
(0.00840899 0.00555176 1.84148e-19)
(0.00869004 0.00564053 3.03997e-19)
(0.00898551 0.00569986 1.7962e-19)
(0.00929562 0.00573021 2.99683e-20)
(0.0096274 0.00573068 2.0379e-19)
(0.00997949 0.00569628 2.60112e-19)
(0.0103472 0.00562611 -2.78888e-20)
(0.0107378 0.00551653 2.79582e-20)
(0.0111422 0.0053585 8.10602e-20)
(0.0115514 0.00515332 2.58358e-20)
(0.0119655 0.00489146 -2.54717e-20)
(0.0123679 0.00457076 2.55208e-20)
(0.0127483 0.00418712 -9.7789e-20)
(0.0130894 0.00373925 2.40731e-20)
(0.0133719 0.00322968 -7.08815e-22)
(0.0135825 0.00266566 -2.29461e-20)
(0.0136944 0.00205259 -8.80075e-20)
(0.0137074 0.00141693 0)
(0.0135941 0.000763443 4.10227e-20)
(0.0133524 0.000125776 -2.54152e-20)
(0.0129953 -0.000482754 1.94559e-20)
(0.0125159 -0.00104086 -5.64422e-20)
(0.0119458 -0.00152612 -1.82526e-20)
(0.0112804 -0.00193333 7.17088e-20)
(0.0105604 -0.00224448 8.78441e-20)
(0.00979049 -0.00246286 -3.43718e-20)
(0.00900701 -0.00259024 8.4628e-20)
(0.00820767 -0.00260963 -6.56977e-20)
(0.00741653 -0.00255109 -1.59665e-20)
(0.00663608 -0.00241361 -6.2822e-20)
(0.00588665 -0.00220019 1.57841e-20)
(0.00514784 -0.00191696 -6.13791e-20)
(0.00460963 -0.00158841 5.99421e-20)
(0.0042598 -0.00127337 -4.40636e-20)
(0.0040169 -0.0010078 -1.44608e-20)
(0.00387114 -0.000805353 -2.7846e-20)
(0.00384931 -0.000664657 0)
(0.00396537 -0.000577939 -2.58257e-20)
(0.00423422 -0.000543525 2.34414e-20)
(0.00461882 -0.000548133 4.33954e-22)
(0.00504487 -0.000563415 -3.25738e-22)
(0.00548022 -0.000569631 -1.02881e-21)
(0.00591159 -0.000557189 -1.08768e-20)
(0.00632305 -0.000523434 6.43425e-22)
(0.00669972 -0.000470857 0)
(0.00703077 -0.000404612 -5.90671e-22)
(0.00730957 -0.00033064 5.65094e-22)
(0.00753345 -0.00025463 9.51821e-21)
(0.00770329 -0.000181442 -8.92748e-21)
(0.00782277 -0.000114892 -7.6594e-21)
(0.00789769 -5.74669e-05 8.10994e-21)
(0.00793524 -1.06163e-05 0)
(0.00794322 2.52653e-05 -4.19921e-22)
(0.00792973 5.05501e-05 0)
(0.00790201 6.67028e-05 -2.52094e-21)
(0.00786606 7.46985e-05 1.77648e-22)
(0.00782721 7.59858e-05 3.03663e-21)
(0.00778941 7.2391e-05 6.09328e-22)
(0.00775522 6.57606e-05 2.83609e-22)
(0.00772601 5.78698e-05 -2.61719e-22)
(0.00770169 5.0367e-05 0)
(0.00768127 4.4208e-05 2.18383e-22)
(0.00766338 4.02036e-05 7.45164e-22)
(0.00764605 3.88624e-05 -5.68045e-22)
(0.0076271 4.03583e-05 -5.76881e-22)
(0.0076045 4.45743e-05 7.09843e-22)
(0.00757653 5.12323e-05 0)
(0.00754185 6.00529e-05 1.12604e-22)
(0.0074998 7.0908e-05 1.63691e-22)
(0.00745011 8.42557e-05 4.07735e-23)
(0.0073927 0.000101028 -4.07187e-23)
(0.0073142 0.000125165 1.07611e-23)
(0.00979433 0.000519501 0)
(0.0103542 0.00120145 0)
(0.0108884 0.00146523 0)
(0.0111126 0.00145257 8.22137e-21)
(0.011108 0.00131633 -8.23774e-21)
(0.011034 0.00113244 0)
(0.0108797 0.0009573 0)
(0.0106859 0.000811005 0)
(0.0104839 0.000693301 0)
(0.0102875 0.00059906 0)
(0.0101021 0.000522766 0)
(0.00992956 0.000460061 -3.28997e-20)
(0.00977028 0.000408161 3.3031e-20)
(0.00962355 0.000365287 -3.28358e-20)
(0.00948803 0.000330196 6.57283e-20)
(0.0093621 0.000301988 -3.28822e-20)
(0.00924404 0.00028001 -3.26578e-20)
(0.00913209 0.000263772 3.27373e-20)
(0.00902445 0.000252905 0)
(0.00891935 0.000247125 0)
(0.00881503 0.000246222 6.465e-20)
(0.00870976 0.000250065 -6.47724e-20)
(0.00860178 0.000258601 0)
(0.00848933 0.00027187 -6.40982e-20)
(0.00837059 0.00029003 6.42163e-20)
(0.00824371 0.000313383 0)
(0.00810674 0.000342426 0)
(0.00795763 0.0003779 6.34133e-20)
(0.00779419 0.000420872 -2.85246e-22)
(0.00761413 0.000472856 -6.34095e-20)
(0.00741509 0.000535984 -6.30064e-20)
(0.00719458 0.000613283 1.26059e-19)
(0.00695421 0.000709426 -6.30522e-20)
(0.00667731 0.000829266 5.87245e-20)
(0.00639188 0.000988229 -6.30749e-20)
(0.00620388 0.00120858 -6.35037e-20)
(0.00617764 0.00149611 6.46035e-20)
(0.00630522 0.00184455 1.9385e-19)
(0.00657535 0.00224725 3.23057e-19)
(0.00698694 0.00269359 6.46193e-20)
(0.00755056 0.00316349 -6.39194e-20)
(0.0082326 0.00362817 -5.66764e-19)
(0.00895653 0.00406551 5.60953e-19)
(0.00968338 0.00446423 5.54557e-19)
(0.0104049 0.00481427 -1.22195e-19)
(0.0111153 0.00510553 9.08547e-20)
(0.0118146 0.00532782 -2.69129e-19)
(0.0124944 0.00547253 0)
(0.0131475 0.00552503 -2.63822e-19)
(0.0137725 0.00548596 2.91594e-20)
(0.0143585 0.00535836 2.29785e-19)
(0.0148988 0.00512727 2.8233e-20)
(0.0153798 0.0047962 -2.8139e-19)
(0.0157934 0.00437397 -1.94879e-19)
(0.0161254 0.00386261 -2.21055e-19)
(0.0163647 0.00327572 -1.09628e-19)
(0.0165036 0.00262617 -2.66213e-20)
(0.0165241 0.00192701 2.67766e-20)
(0.0164358 0.00120539 2.62593e-20)
(0.016217 0.000470629 3.87762e-20)
(0.0158816 -0.000244252 2.5631e-20)
(0.0154364 -0.000922295 0)
(0.0148903 -0.00154595 1.01111e-19)
(0.0142687 -0.00209793 0)
(0.0135777 -0.00257161 -3.4878e-19)
(0.0128513 -0.00295757 -1.99135e-19)
(0.0120955 -0.0032581 -4.95415e-20)
(0.011337 -0.00347304 0)
(0.0105854 -0.00360948 0)
(0.00985125 -0.00367457 -1.94949e-19)
(0.00914728 -0.00367654 0)
(0.00847117 -0.00362449 4.32989e-19)
(0.007831 -0.00352762 -4.30197e-19)
(0.0072276 -0.00339448 4.03484e-19)
(0.00665873 -0.00323365 -1.97665e-22)
(0.00612637 -0.00305302 -1.91851e-22)
(0.00562979 -0.00285947 3.25534e-19)
(0.00516661 -0.00265943 4.62766e-20)
(0.00473697 -0.00245831 3.43516e-19)
(0.00434059 -0.00226023 3.63629e-19)
(0.00397595 -0.00206829 1.39464e-21)
(0.00364231 -0.0018848 -3.46272e-19)
(0.00333849 -0.00171105 3.43018e-19)
(0.00306289 -0.00154772 0)
(0.00281463 -0.00139508 5.41725e-21)
(0.00259165 -0.00125308 3.39185e-19)
(0.00239145 -0.00112172 -6.77709e-19)
(0.00221392 -0.00100136 -1.01054e-18)
(0.0020568 -0.000892182 -3.41918e-19)
(0.0019179 -0.000795353 1.11382e-20)
(0.00179835 -0.000711087 0)
(0.00169716 -0.000640306 9.95183e-21)
(0.00161336 -0.000583752 -9.86314e-21)
(0.00155015 -0.000542298 0)
(0.00150635 -0.000514939 1.53193e-19)
(0.00148571 -0.000501698 -1.88148e-20)
(0.00148808 -0.000499552 1.86285e-20)
(0.00151663 -0.000506413 1.57301e-22)
(0.00157168 -0.000517298 1.44056e-19)
(0.00165685 -0.000529604 -1.76766e-20)
(0.00177182 -0.00053671 3.49206e-20)
(0.00191679 -0.000534072 -1.72517e-20)
(0.00209308 -0.000515316 1.6209e-24)
(0.00229767 -0.000474832 -8.39956e-21)
(0.0025319 -0.000408517 8.35526e-21)
(0.00279191 -0.000311013 -6.62353e-20)
(0.00307549 -0.000179964 -6.98665e-20)
(0.00338017 -1.26062e-05 -1.26935e-19)
(0.00370092 0.000191683 2.60832e-19)
(0.00403505 0.000432394 -1.25789e-19)
(0.0043784 0.000707863 -4.0613e-21)
(0.00472696 0.00101526 -4.02913e-21)
(0.00507796 0.00135069 4.0443e-21)
(0.00542718 0.00170953 -1.28974e-19)
(0.0057725 0.00208632 8.54806e-21)
(0.00611289 0.00247481 -6.09154e-23)
(0.00644385 0.00286934 1.11549e-19)
(0.00676635 0.00326361 3.90915e-19)
(0.00707993 0.00365147 -2.53486e-19)
(0.00738348 0.00402743 -2.54188e-19)
(0.00767917 0.00438631 2.68922e-19)
(0.00796841 0.00472348 2.34552e-19)
(0.00825183 0.00503543 -2.35346e-19)
(0.00853252 0.00531939 -2.78539e-19)
(0.00881365 0.005573 -2.3224e-19)
(0.00909712 0.00579495 3.24186e-20)
(0.00938614 0.00598434 -3.05616e-20)
(0.00968371 0.00614056 0)
(0.00999244 0.00626339 -2.68267e-19)
(0.0103157 0.00635213 -2.35408e-19)
(0.0106552 0.00640531 -2.03564e-19)
(0.0110112 0.00642302 0)
(0.0113878 0.00640403 -2.53457e-19)
(0.0117831 0.00634397 2.78839e-20)
(0.0121931 0.00624146 -8.10968e-20)
(0.0126206 0.00609279 -2.68378e-20)
(0.0130571 0.00589151 -8.21929e-22)
(0.0134944 0.00563777 -1.27087e-19)
(0.0139282 0.00532488 2.51351e-20)
(0.0143444 0.00495157 -1.20494e-19)
(0.0147314 0.00451626 2.12947e-19)
(0.0150736 0.00401976 1.84295e-19)
(0.0153541 0.0034664 8.96975e-20)
(0.0155598 0.00286427 0)
(0.0156699 0.00222193 -2.10138e-20)
(0.0156812 0.00155887 3.11896e-22)
(0.0155713 0.000882543 9.74368e-21)
(0.0153377 0.000222037 -3.41236e-20)
(0.0149863 -0.000407203 1.92052e-20)
(0.0145111 -0.000986637 -3.68131e-20)
(0.0139348 -0.0014956 3.56863e-20)
(0.0132534 -0.00192565 0)
(0.0124998 -0.00226026 -8.46678e-20)
(0.0116794 -0.00249776 3.32692e-20)
(0.0108242 -0.00263552 -6.54441e-20)
(0.0099404 -0.00265996 -1.61857e-20)
(0.00905515 -0.0026043 7.83436e-20)
(0.00817266 -0.00245552 -1.55943e-20)
(0.00732536 -0.002231 0)
(0.00649552 -0.00194204 7.41004e-20)
(0.00584562 -0.00162225 -3.45523e-22)
(0.00539877 -0.00132182 -3.42102e-22)
(0.00509659 -0.00108237 -3.33356e-22)
(0.00492857 -0.000923641 2.69647e-20)
(0.00492153 -0.000845617 -3.17095e-22)
(0.00508287 -0.000830598 -1.63773e-22)
(0.00541941 -0.000864602 -1.19537e-20)
(0.00587464 -0.000914678 1.03367e-20)
(0.00636342 -0.000950416 1.10213e-20)
(0.0068506 -0.000957335 1.0203e-21)
(0.00732233 -0.000929335 -1.04711e-20)
(0.00776356 -0.000866664 1.2346e-21)
(0.00816095 -0.000775027 9.31959e-21)
(0.00850546 -0.000663037 -9.2655e-21)
(0.00879227 -0.000540029 -1.08669e-21)
(0.00902015 -0.000414791 -1.04341e-21)
(0.00919108 -0.000294822 0)
(0.00930964 -0.000185972 7.41406e-21)
(0.00938234 -9.2136e-05 -7.40396e-21)
(0.0094169 -1.55213e-05 0)
(0.00942161 4.32409e-05 -8.11425e-22)
(0.00940471 8.47476e-05 0)
(0.00937376 0.000110394 7.22143e-22)
(0.00933519 0.000122622 2.6311e-21)
(0.0092944 0.000124275 -2.62741e-21)
(0.00925537 0.00011835 -5.9326e-22)
(0.00922056 0.000107862 5.48273e-22)
(0.00919111 9.55998e-05 0)
(0.00916684 8.39113e-05 -1.77731e-21)
(0.00914656 7.49105e-05 1.77389e-21)
(0.00912848 6.99723e-05 3.80906e-22)
(0.0091103 6.98269e-05 6.41048e-22)
(0.00908955 7.46297e-05 -6.40012e-22)
(0.00906393 8.4032e-05 4.79078e-22)
(0.00903154 9.73119e-05 -4.78435e-22)
(0.00899106 0.0001136 -1.79307e-22)
(0.00894197 0.000132196 -1.19168e-22)
(0.00888448 0.000152746 7.93783e-23)
(0.00882042 0.000175092 9.87227e-23)
(0.0087326 0.000202472 0)
(0.00976252 0.000329353 0)
(0.0101852 0.00085292 0)
(0.0106639 0.00114612 0)
(0.0109587 0.00125045 8.2788e-21)
(0.0111339 0.00123024 -8.25305e-21)
(0.0112487 0.00114432 0)
(0.0112701 0.00103775 1.62887e-20)
(0.0112419 0.000930369 -1.63292e-20)
(0.0111769 0.000830341 -1.62212e-20)
(0.0110922 0.000741507 3.24663e-20)
(0.0109979 0.000663637 -1.62452e-20)
(0.0108995 0.000595553 0)
(0.0108009 0.000536641 0)
(0.0107039 0.000486425 3.21543e-20)
(0.0106092 0.000444412 -1.52929e-22)
(0.0105171 0.000410141 -6.41625e-20)
(0.010427 0.000383208 3.2074e-20)
(0.0103384 0.000363273 0)
(0.0102503 0.000350053 0)
(0.0101617 0.000343311 3.16465e-20)
(0.0100715 0.000342879 -3.16983e-20)
(0.00997844 0.000348659 0)
(0.00988124 0.000360635 0)
(0.00977848 0.000378896 -6.24936e-20)
(0.00966867 0.000403649 1.24879e-19)
(0.00955019 0.000435257 -6.23863e-20)
(0.00942135 0.000474275 -6.19037e-20)
(0.00928036 0.000521502 2.84095e-22)
(0.00912536 0.000578038 1.23356e-19)
(0.00895445 0.000645363 -6.16426e-20)
(0.00876582 0.000725442 -6.12021e-20)
(0.00855759 0.000820856 2.66837e-22)
(0.00833226 0.000935247 6.11485e-20)
(0.0080737 0.00107105 6.0682e-20)
(0.00780868 0.00123801 -6.10955e-20)
(0.00763845 0.0014547 0)
(0.00762514 0.00173084 -2.50362e-19)
(0.00776481 0.00206499 -5.00886e-19)
(0.00804739 0.0024516 0)
(0.00846719 0.00287889 2.48205e-19)