/*--------------------------------*- C++ -*----------------------------------*\
| =========                 |                                                 |
| \\      /  F ield         | OpenFOAM: The Open Source CFD Toolbox           |
|  \\    /   O peration     | Version:  2506                                  |
|   \\  /    A nd           | Website:  www.openfoam.com                      |
|    \\/     M anipulation  |                                                 |
\*---------------------------------------------------------------------------*/
FoamFile
{
    version     2.0;
    format      ascii;
    arch        "LSB;label=32;scalar=64";
    class       volVectorField;
    location    "4.85";
    object      U;
}
// * * * * * * * * * * * * * * * * * * * * * * * * * * * * * * * * * * * * * //

dimensions      [0 1 -1 0 0 0 0];

internalField   nonuniform List<vector> 
4000
(
(0.00816188 0.000799226 0)
(0.00705275 0.000969046 -4.49682e-22)
(0.00555842 0.000585199 4.66513e-22)
(0.00426857 0.000296922 8.92411e-22)
(0.00346978 0.000157861 -1.80427e-21)
(0.00297468 8.77584e-05 9.06217e-22)
(0.00263925 5.08337e-05 0)
(0.00240361 3.16073e-05 0)
(0.00223416 2.13866e-05 0)
(0.0021078 1.57097e-05 1.78546e-21)
(0.00200995 1.23444e-05 -1.78947e-21)
(0.00193173 1.02561e-05 3.55339e-21)
(0.00186738 8.93896e-06 -3.55844e-21)
(0.00181299 8.09276e-06 0)
(0.0017658 7.55496e-06 0)
(0.00172379 7.23755e-06 0)
(0.00168544 7.07811e-06 3.5038e-21)
(0.00164957 7.03407e-06 -3.50631e-21)
(0.00161526 7.08153e-06 0)
(0.00158173 7.20339e-06 0)
(0.00154833 7.38712e-06 0)
(0.00151449 7.62524e-06 0)
(0.00147969 7.9132e-06 0)
(0.00144341 8.24794e-06 6.89446e-21)
(0.00140519 8.62817e-06 -1.37832e-20)
(0.00136454 9.05508e-06 6.88904e-21)
(0.00132094 9.53357e-06 0)
(0.00127385 1.00755e-05 0)
(0.00122265 1.07067e-05 0)
(0.00116653 1.14907e-05 0)
(0.00110437 1.26117e-05 -6.86912e-21)
(0.00103469 1.44962e-05 6.87791e-21)
(0.000956725 1.68845e-05 0)
(0.000843672 2.46836e-05 6.04526e-21)
(0.000715838 5.19575e-05 6.95593e-21)
(0.000653457 0.000104528 -3.48768e-20)
(0.000666661 0.000176864 -2.81432e-20)
(0.000715262 0.000261717 7.08755e-21)
(0.00078733 0.000361643 -2.84953e-20)
(0.000888034 0.000484128 -6.42491e-20)
(0.00105796 0.000638753 7.16222e-21)
(0.00130777 0.000814641 5.6557e-20)
(0.00157526 0.000976908 -5.56408e-20)
(0.00182823 0.0011146 0)
(0.00207043 0.00123046 0)
(0.00229923 0.00132495 -3.17545e-21)
(0.00252615 0.0014 -4.6401e-20)
(0.00274103 0.00144799 -4.51913e-20)
(0.00293809 0.00146943 -2.6229e-20)
(0.00312809 0.00146393 -2.20485e-20)
(0.00329469 0.00142641 2.08218e-20)
(0.00344382 0.00135954 0)
(0.00356082 0.0012571 -2.28339e-21)
(0.00364539 0.00112493 3.77688e-20)
(0.0036882 0.000958944 0)
(0.00367662 0.000770961 -7.91358e-21)
(0.00362028 0.000568456 -1.84229e-21)
(0.00349619 0.000359074 -6.42547e-24)
(0.00333769 0.000158578 -8.43447e-23)
(0.00311817 -3.34563e-05 -8.76619e-22)
(0.00286051 -0.000195973 1.56955e-21)
(0.00259172 -0.000328118 0)
(0.00230657 -0.000426722 0)
(0.00203331 -0.000492659 3.06965e-21)
(0.00176771 -0.000529348 2.15302e-20)
(0.00152641 -0.000541746 3.10513e-21)
(0.0013076 -0.000534727 -3.11807e-21)
(0.00111335 -0.000514024 3.17748e-21)
(0.000945614 -0.000483823 9.60204e-21)
(0.000797916 -0.000447611 -2.26315e-20)
(0.000673436 -0.000408868 -3.25479e-21)
(0.000564453 -0.000368479 -5.65143e-23)
(0.000470389 -0.000328403 0)
(0.000391178 -0.000289652 0)
(0.000321366 -0.000252386 0)
(0.000261313 -0.000217261 -1.76163e-21)
(0.000209842 -0.00018454 -2.65246e-20)
(0.000164368 -0.00015403 0)
(0.000124495 -0.000125835 -8.19563e-23)
(8.97843e-05 -0.000100004 1.82366e-21)
(5.89522e-05 -7.63876e-05 -2.91973e-20)
(3.14678e-05 -5.4924e-05 2.65611e-20)
(7.01219e-06 -3.55761e-05 -8.53639e-24)
(-1.48764e-05 -1.83211e-05 3.00941e-20)
(-3.43448e-05 -3.18769e-06 2.99068e-22)
(-5.14812e-05 9.84261e-06 -2.95235e-20)
(-6.65033e-05 2.07614e-05 -3.00167e-20)
(-7.93942e-05 2.95262e-05 3.04198e-20)
(-8.99583e-05 3.62339e-05 -4.63572e-22)
(-9.84289e-05 4.09174e-05 -2.97359e-20)
(-0.000104944 4.366e-05 0)
(-0.000109192 4.46361e-05 -3.05264e-20)
(-0.000111668 4.38507e-05 -2.8589e-20)
(-0.000112706 4.16701e-05 2.93664e-20)
(-0.000111861 3.84056e-05 -1.64542e-20)
(-0.000109914 3.40491e-05 1.81685e-21)
(-0.000106202 2.90144e-05 1.44931e-20)
(-0.000101574 2.33696e-05 1.80818e-21)
(-9.53984e-05 1.7769e-05 1.2582e-20)
(-8.81106e-05 1.21863e-05 8.95851e-21)
(-7.90901e-05 7.26996e-06 -3.57752e-21)
(-6.85242e-05 2.96113e-06 8.93226e-21)
(-5.5976e-05 -2.02096e-07 -8.93313e-22)
(-4.14175e-05 -1.92741e-06 -8.95724e-22)
(-2.43023e-05 -2.00314e-06 -3.6055e-21)
(-4.51663e-06 2.69812e-07 0)
(1.84853e-05 4.98919e-06 0)
(4.51202e-05 1.28875e-05 -2.90084e-20)
(7.55969e-05 2.42257e-05 -9.29106e-22)
(0.000110539 3.95957e-05 1.54717e-20)
(0.000150303 5.93717e-05 1.51391e-20)
(0.000195039 8.40391e-05 4.77687e-22)
(0.000245692 0.00011388 -1.58914e-20)
(0.00030138 0.000149241 -1.62553e-23)
(0.000363321 0.000190296 0)
(0.000432005 0.000237286 3.14062e-20)
(0.000505458 0.000289658 -9.832e-22)
(0.000585552 0.000347749 -2.95061e-20)
(0.00067144 0.000410901 -9.89e-22)
(0.00076159 0.000478382 -3.1491e-20)
(0.000857322 0.000550059 -1.78918e-22)
(0.000957947 0.000624835 3.11008e-20)
(0.00106131 0.0007014 1.90736e-21)
(0.00116814 0.000779263 -3.41509e-20)
(0.00127841 0.00085729 1.88395e-21)
(0.00139052 0.000933988 2.9223e-20)
(0.00150459 0.00100838 3.50602e-21)
(0.00161989 0.0010791 -3.51559e-21)
(0.00173572 0.00114512 2.67382e-20)
(0.00185462 0.00120594 -2.20975e-20)
(0.00197447 0.00125919 -3.14528e-21)
(0.00209198 0.00130365 -4.32746e-20)
(0.00221481 0.00134025 -2.83329e-21)
(0.00233949 0.00136551 -2.05038e-20)
(0.00245953 0.0013779 5.19696e-22)
(0.00258832 0.00137911 0)
(0.00271459 0.00136293 0)
(0.00283473 0.00133107 -2.33597e-22)
(0.00295655 0.00128037 0)
(0.0030667 0.00120895 -1.17049e-21)
(0.0031662 0.0011155 -2.88972e-21)
(0.00324571 0.000998469 -7.24741e-22)
(0.00329437 0.000858862 -1.12234e-21)
(0.0033132 0.000699495 -5.18524e-22)
(0.00327791 0.00052136 -5.98889e-22)
(0.00320264 0.000340627 1.48794e-22)
(0.00306832 0.000156011 0)
(0.00287657 -9.38693e-06 0)
(0.00265527 -0.000156403 0)
(0.00239123 -0.000273804 3.04034e-22)
(0.00211901 -0.000359336 -3.05096e-22)
(0.00183189 -0.000412468 -1.23289e-21)
(0.00155402 -0.000433972 -1.10405e-21)
(0.00129071 -0.000429401 0)
(0.00104957 -0.000404432 6.93595e-22)
(0.000833237 -0.000364194 0)
(0.000642139 -0.000314518 1.43775e-23)
(0.00047842 -0.000259625 1.37106e-22)
(0.000335697 -0.000202145 -1.40734e-22)
(0.000213643 -0.000138983 2.91959e-21)
(0.000159693 -0.000100618 -1.00122e-21)
(0.000171308 -8.14454e-05 -1.2147e-21)
(0.000182484 -6.96099e-05 0)
(0.00020508 -5.91663e-05 0)
(0.000247884 -4.93531e-05 0)
(0.000316436 -3.7132e-05 0)
(0.000425998 -2.66494e-05 0)
(0.000567366 -2.02268e-05 5.29943e-22)
(0.000700526 -1.78565e-05 8.23317e-24)
(0.00081837 -1.67584e-05 1.94602e-24)
(0.000925647 -1.56146e-05 -5.38677e-22)
(0.00102264 -1.43053e-05 0)
(0.00110907 -1.29038e-05 5.10546e-22)
(0.00118514 -1.14739e-05 -5.09181e-22)
(0.00125128 -1.0057e-05 1.50017e-23)
(0.00130807 -8.6861e-06 0)
(0.00135614 -7.38884e-06 0)
(0.0013962 -6.18471e-06 -4.07544e-22)
(0.00142897 -5.08482e-06 4.06763e-22)
(0.00145518 -4.09328e-06 0)
(0.00147553 -3.20916e-06 0)
(0.00149069 -2.42846e-06 -1.47048e-22)
(0.00150126 -1.74541e-06 1.10676e-23)
(0.00150784 -1.14562e-06 1.45654e-22)
(0.00151094 -6.15886e-07 0)
(0.00151104 -1.6875e-07 0)
(0.0015086 2.14599e-07 0)
(0.00150397 5.43207e-07 0)
(0.00149756 8.40462e-07 5.52578e-24)
(0.0014897 1.10099e-06 0)
(0.00148073 1.32436e-06 0)
(0.00147095 1.51269e-06 0)
(0.00146065 1.66722e-06 2.4021e-23)
(0.00145013 1.78938e-06 -2.39911e-23)
(0.00143963 1.88447e-06 0)
(0.00142936 1.96781e-06 1.78623e-24)
(0.00141948 2.06259e-06 4.41531e-24)
(0.00140988 2.19474e-06 -3.04215e-24)
(0.00139916 2.83434e-06 -1.36574e-24)
(0.0013871 5.81219e-06 0)
(0.0101626 0.00148333 0)
(0.0105613 0.00234275 0)
(0.0101511 0.00199844 0)
(0.00927851 0.00150308 8.69736e-22)
(0.00836695 0.00106532 -1.7669e-21)
(0.00760937 0.000737423 8.95003e-22)
(0.00699761 0.000514799 0)
(0.00650845 0.000369025 1.79352e-21)
(0.00612107 0.000273091 -1.81141e-21)
(0.00581327 0.000208806 1.80505e-21)
(0.00556537 0.000164549 -1.81624e-21)
(0.00536236 0.000133401 -3.61639e-21)
(0.00519308 0.000111159 3.6312e-21)
(0.00504915 9.50712e-05 3.61308e-21)
(0.00492429 8.33986e-05 -1.42444e-23)
(0.00481368 7.5028e-05 -7.22325e-21)
(0.00471354 6.91765e-05 3.61286e-21)
(0.00462089 6.52908e-05 0)
(0.0045333 6.30022e-05 0)
(0.00444875 6.20502e-05 0)
(0.00436551 6.22518e-05 0)
(0.00428205 6.34887e-05 0)
(0.00419697 6.56891e-05 0)
(0.00410895 6.88153e-05 0)
(0.0040167 7.28593e-05 0)
(0.00391892 7.78439e-05 0)
(0.00381428 8.38273e-05 0)
(0.00370132 9.09196e-05 0)
(0.00357846 9.93201e-05 0)
(0.00344378 0.000109406 0)
(0.00329495 0.000121944 -7.18092e-21)
(0.00312896 0.000138567 2.6152e-25)
(0.00294533 0.000162286 1.44561e-20)
(0.00271068 0.00019907 -6.34886e-21)
(0.0024587 0.000265497 -7.31381e-21)
(0.00231867 0.000381474 2.21447e-20)
(0.0023257 0.000554427 -2.98228e-20)
(0.00242819 0.00077598 -7.52094e-21)
(0.00260506 0.00104268 7.58059e-20)
(0.0028646 0.00135626 2.30646e-20)
(0.00325639 0.00171808 0)
(0.00377039 0.0021036 7.41031e-21)
(0.00431642 0.00246613 4.36359e-20)
(0.00485231 0.00278522 7.23626e-21)
(0.00537609 0.00305669 5.52818e-20)
(0.00588399 0.0032786 -5.35438e-20)
(0.00638619 0.0034503 7.90141e-22)
(0.00686774 0.00356094 0)
(0.00732308 0.00360951 -2.41376e-20)
(0.00775872 0.00359219 0)
(0.00815471 0.00350372 -2.40364e-22)
(0.00851298 0.00334647 0)
(0.00880992 0.00311149 -1.95486e-20)
(0.00904261 0.00281016 -1.85923e-20)
(0.00919194 0.00243919 0)
(0.00924428 0.00201734 -5.71135e-23)
(0.00919944 0.00155833 7.86925e-21)
(0.0090272 0.00107657 1.78726e-21)
(0.00876421 0.0006015 3.55676e-21)
(0.00837381 0.000138944 -8.98599e-22)
(0.00789127 -0.000277595 0)
(0.00734592 -0.000637312 6.8042e-21)
(0.00674705 -0.000929506 -3.41735e-21)
(0.00613692 -0.00115072 -6.68282e-21)
(0.00551909 -0.00130306 -2.0145e-20)
(0.0049292 -0.00139371 -3.37927e-21)
(0.00436982 -0.00142992 1.71511e-20)
(0.00385512 -0.00142387 -3.46325e-21)
(0.00338936 -0.00138428 0)
(0.00296902 -0.00132059 3.63007e-21)
(0.00259902 -0.00124152 -3.63022e-21)
(0.00226895 -0.00115101 -9.13917e-23)
(0.00197693 -0.00105569 0)
(0.00172217 -0.000958453 -3.05446e-20)
(0.0014958 -0.000861321 -3.09214e-20)
(0.00129628 -0.000766956 1.97227e-21)
(0.00112131 -0.000676336 -1.96416e-21)
(0.000965613 -0.000589898 2.00814e-21)
(0.000827159 -0.000508494 -3.22369e-20)
(0.00070465 -0.000432432 3.02929e-20)
(0.000595325 -0.000361683 -3.2474e-20)
(0.000497416 -0.000296426 -3.37857e-20)
(0.000409852 -0.000236734 2.04788e-21)
(0.000331314 -0.000182708 -3.37948e-20)
(0.000261139 -0.000134604 3.26839e-20)
(0.000198792 -9.24501e-05 -3.25515e-20)
(0.00014339 -5.63401e-05 3.2783e-20)
(9.50335e-05 -2.65634e-05 -3.28426e-20)
(5.39481e-05 -2.84553e-06 -1.02482e-21)
(1.91843e-05 1.50993e-05 1.01488e-21)
(-9.14568e-06 2.73508e-05 0)
(-3.07903e-05 3.45561e-05 0)
(-4.68807e-05 3.72036e-05 1.59936e-20)
(-5.73043e-05 3.57573e-05 -1.7916e-20)
(-6.21924e-05 3.13781e-05 1.58125e-20)
(-6.25573e-05 2.42784e-05 3.91993e-21)
(-5.74742e-05 1.55099e-05 -2.04341e-23)
(-4.80052e-05 5.1962e-06 8.0792e-24)
(-3.33814e-05 -5.29508e-06 -3.4664e-20)
(-1.40399e-05 -1.58939e-05 -5.75757e-21)
(1.10449e-05 -2.5054e-05 7.64031e-21)
(4.14965e-05 -3.25521e-05 -7.62303e-21)
(7.88016e-05 -3.70828e-05 0)
(0.000122654 -3.76753e-05 -9.54933e-22)
(0.000174828 -3.35544e-05 9.55333e-22)
(0.000235437 -2.29408e-05 0)
(0.000305614 -5.20748e-06 0)
(0.00038637 2.14801e-05 1.56094e-20)
(0.000477872 5.80597e-05 -1.57461e-20)
(0.000581308 0.000105941 1.6385e-20)
(0.000697067 0.000166215 -3.20748e-20)
(0.000825335 0.000239941 3.8855e-25)
(0.000967214 0.000327877 -5.09751e-22)
(0.00112124 0.000430729 -1.6444e-20)
(0.00128903 0.000548578 0)
(0.00147043 0.000681757 0)
(0.00166273 0.000829333 0)
(0.00186792 0.000990911 3.44824e-20)
(0.00208417 0.00116517 3.21047e-20)
(0.00230944 0.0013503 0)
(0.00254497 0.00154477 -3.7258e-20)
(0.00278911 0.0017461 6.13772e-21)
(0.00303918 0.0019514 -4.03281e-21)
(0.00329598 0.0021583 2.00669e-21)
(0.00355895 0.00236379 -3.8489e-21)
(0.00382617 0.00256451 3.02642e-20)
(0.00409762 0.00275743 -2.55487e-20)
(0.0043724 0.00293931 3.18943e-20)
(0.00465023 0.00310715 -1.49283e-22)
(0.00493394 0.00325847 2.36791e-20)
(0.00522018 0.00338892 0)
(0.00550659 0.00349578 2.45009e-20)
(0.00580207 0.00357791 -2.7091e-21)
(0.00610029 0.00362962 -1.77813e-20)
(0.00639598 0.00364816 1.98421e-20)
(0.00670292 0.00363309 -2.07924e-21)
(0.00700472 0.00357537 2.08733e-21)
(0.00729841 0.00347674 -2.02962e-21)
(0.00758601 0.00333041 1.62852e-21)
(0.00785168 0.00313507 -1.15713e-21)
(0.00808982 0.00288818 5.51039e-21)
(0.00828446 0.00258943 -3.94705e-21)
(0.00841747 0.00224163 3.2407e-21)
(0.00848249 0.001853 0)
(0.008447 0.00142844 3.31585e-22)
(0.00832629 0.000994143 4.24429e-24)
(0.00808485 0.000554818 1.81076e-23)
(0.00773105 0.000144468 0)
(0.00729044 -0.000226879 2.05679e-22)
(0.00675483 -0.000540481 -5.08123e-22)
(0.0061724 -0.000787002 0)
(0.00553759 -0.000961632 1.10116e-21)
(0.00489567 -0.00106468 2.50338e-22)
(0.00425632 -0.00110156 -2.52162e-22)
(0.00364675 -0.00108354 0)
(0.00307257 -0.0010192 -3.91326e-22)
(0.00254564 -0.000922453 1.49694e-22)
(0.00207149 -0.000802622 1.84407e-22)
(0.00165244 -0.000671606 0)
(0.00128069 -0.000527904 -1.54961e-21)
(0.00106526 -0.000436407 -1.39752e-21)
(0.00101648 -0.000377056 2.99481e-21)
(0.00101673 -0.000332805 -4.16228e-22)
(0.00106287 -0.0002998 4.114e-22)
(0.00117086 -0.00027529 5.0063e-22)
(0.00134772 -0.000251687 5.50079e-22)
(0.00161138 -0.000233658 -4.60043e-22)
(0.00193088 -0.000215805 -3.48052e-23)
(0.00223758 -0.000197335 0)
(0.00251678 -0.000179896 3.5324e-23)
(0.00277328 -0.000162961 0)
(0.00300721 -0.00014588 -3.44083e-23)
(0.00321789 -0.000128845 -5.33817e-22)
(0.00340551 -0.000112248 5.63419e-22)
(0.00357078 -9.63644e-05 -4.70632e-23)
(0.00371472 -8.13796e-05 4.71052e-22)
(0.00383854 -6.74217e-05 -8.88067e-22)
(0.00394356 -5.45691e-05 8.68844e-22)
(0.00403121 -4.28526e-05 -4.4715e-22)
(0.00410293 -3.22631e-05 0)
(0.00416018 -2.27646e-05 1.97461e-22)
(0.00420433 -1.43054e-05 -1.85127e-22)
(0.00423673 -6.82586e-06 -1.95318e-23)
(0.00425866 -2.60751e-07 -1.39981e-22)
(0.00427134 5.45746e-06 1.22969e-22)
(0.00427591 1.03907e-05 1.18018e-22)
(0.00427346 1.45909e-05 -1.31849e-22)
(0.004265 1.81039e-05 1.09996e-22)
(0.00425155 2.10202e-05 -1.90093e-22)
(0.00423404 2.33356e-05 1.15638e-22)
(0.0042134 2.50602e-05 -3.87413e-23)
(0.00419049 2.62205e-05 -7.96585e-24)
(0.00416618 2.68459e-05 0)
(0.00414126 2.69767e-05 1.52172e-23)
(0.00411646 2.66779e-05 -2.09722e-23)
(0.0040924 2.60609e-05 9.24572e-25)
(0.00406958 2.53163e-05 -6.53597e-24)
(0.00404823 2.47808e-05 0)
(0.00402716 2.52345e-05 0)
(0.00400699 2.85424e-05 -2.86213e-25)
(0.0101548 0.000930801 0)
(0.010718 0.00187941 -4.35471e-22)
(0.0111799 0.00208093 4.31694e-22)
(0.011118 0.00193207 8.35683e-22)
(0.010834 0.0016519 -8.43831e-22)
(0.0104091 0.00133953 0)
(0.00994815 0.00105985 0)
(0.00950683 0.000832081 0)
(0.00910922 0.000656399 -1.69192e-21)
(0.00876252 0.000524161 3.40514e-21)
(0.00846415 0.000424872 1.69316e-21)
(0.00820811 0.000350546 -3.42613e-21)
(0.00798733 0.000294931 -3.41303e-21)
(0.00779514 0.00025315 3.42893e-21)
(0.00762582 0.00022185 0)
(0.00747443 0.000198691 -3.4128e-21)
(0.00733673 0.000181911 6.83397e-21)
(0.00720921 0.000170211 -3.42011e-21)
(0.00708886 0.000162701 0)
(0.00697309 0.000158723 0)
(0.0068596 0.000157807 0)
(0.00674631 0.000159642 0)
(0.00663131 0.000164037 0)
(0.00651275 0.000170886 -6.78916e-21)
(0.0063888 0.000180163 6.80433e-21)
(0.00625762 0.000191919 0)
(0.00611729 0.000206287 0)
(0.00596578 0.000223507 0)
(0.00580085 0.000243979 0)
(0.00561996 0.000268374 0)
(0.00542021 0.000297879 -6.85074e-21)
(0.00519803 0.000334689 6.87554e-21)
(0.00495432 0.000382796 0)
(0.00465841 0.000446974 4.32828e-22)
(0.00434555 0.00054314 0)
(0.00415431 0.000698471 -1.41799e-20)
(0.00413969 0.000928361 2.86821e-20)
(0.00426249 0.00122785 0)
(0.00450173 0.00158922 -5.77503e-20)
(0.00486127 0.00200552 1.97867e-22)
(0.00537721 0.00246667 -7.08135e-21)
(0.00601961 0.00294115 7.06177e-21)
(0.00670031 0.00338883 -5.50972e-20)
(0.00737998 0.00378996 0)
(0.00805149 0.0041356 -5.85107e-20)
(0.00870985 0.00442043 5.37299e-20)
(0.00936053 0.00464016 5.1691e-20)
(0.00998883 0.00478411 0)
(0.0105903 0.00484932 2.21542e-20)
(0.0111665 0.00482981 0)
(0.0116995 0.00472216 -4.05638e-20)
(0.0121869 0.00452649 0)
(0.0126065 0.00423522 1.61033e-20)
(0.0129538 0.00386053 1.97827e-20)
(0.0132068 0.00340184 1.67194e-20)
(0.0133523 0.00287549 7.82314e-21)
(0.0133835 0.00229456 7.59173e-21)
(0.0132716 0.00167413 3.54205e-21)
(0.0130425 0.00104562 -1.7642e-21)
(0.0126588 0.000419459 -2.51519e-21)
(0.0121506 -0.000169238 0)
(0.0115365 -0.000702687 -6.30753e-21)
(0.0108302 -0.00116408 6.25334e-21)
(0.0100733 -0.00154227 0)
(0.00927467 -0.00183403 2.53584e-20)
(0.00847854 -0.00204181 0)
(0.00769305 -0.00217021 3.25208e-21)
(0.00694427 -0.00223123 -3.27564e-21)
(0.00624161 -0.00223434 0)
(0.00558959 -0.00219188 3.43843e-21)
(0.00499766 -0.0021156 -3.45254e-21)
(0.00445787 -0.00201247 -3.89562e-20)
(0.0039707 -0.00189304 2.52484e-20)
(0.00353563 -0.00176264 7.74267e-23)
(0.00314385 -0.00162584 2.98208e-20)
(0.00279329 -0.00148769 1.89959e-21)
(0.00248104 -0.00135066 -3.24063e-20)
(0.00220064 -0.00121649 0)
(0.00194902 -0.00108729 -3.11515e-20)
(0.00172415 -0.000964159 -6.09807e-20)
(0.00152226 -0.000847635 6.04438e-20)
(0.00134063 -0.000738477 3.28216e-20)
(0.00117744 -0.000637152 -3.29869e-20)
(0.00103057 -0.000544079 3.32115e-20)
(0.000898885 -0.000459889 0)
(0.000781224 -0.000384769 3.23269e-20)
(0.000675913 -0.000318924 1.48884e-22)
(0.000583156 -0.000262996 6.51833e-20)
(0.000502974 -0.000216602 3.01523e-20)
(0.00043369 -0.000179267 3.30972e-20)
(0.00037601 -0.000150909 0)
(0.00033016 -0.00013032 0)
(0.000294352 -0.000116357 -1.5897e-20)
(0.000269269 -0.000108509 0)
(0.000254253 -0.000104884 -1.96765e-21)
(0.000248371 -0.000105062 1.94412e-21)
(0.0002519 -0.000107288 -1.5508e-20)
(0.000263867 -0.000111369 1.53767e-20)
(0.000284752 -0.000115595 1.33918e-20)
(0.000314604 -0.000119933 1.89734e-21)
(0.000354381 -0.000122349 -7.57849e-21)
(0.000403741 -0.000122385 3.77729e-21)
(0.00046485 -0.000118309 -2.83071e-21)
(0.000537038 -0.000108633 9.41945e-22)
(0.000623147 -9.21692e-05 0)
(0.000723028 -6.64352e-05 7.59356e-21)
(0.00083823 -3.03082e-05 0)
(0.000969917 1.86956e-05 1.53587e-20)
(0.001118 8.2069e-05 3.63557e-24)
(0.00128377 0.000161671 -1.50876e-20)
(0.00146733 0.000259018 1.56839e-20)
(0.00166852 0.00037544 -4.92793e-22)
(0.00188825 0.000511838 0)
(0.00212435 0.000668966 1.59004e-20)
(0.0023784 0.000846748 -1.59475e-20)
(0.00264938 0.00104518 0)
(0.0029344 0.00126312 9.96316e-22)
(0.00323491 0.00149941 -3.2784e-20)
(0.00354863 0.00175211 -2.99219e-20)
(0.00387348 0.00201874 2.93827e-20)
(0.0042102 0.00229666 -3.10392e-20)
(0.00455687 0.00258245 -1.9108e-21)
(0.00491105 0.00287235 2.82863e-20)
(0.00527329 0.0031627 3.7674e-21)
(0.00564278 0.0034492 3.24495e-20)
(0.00601789 0.00372748 -6.39082e-20)
(0.00639852 0.0039932 3.14052e-20)
(0.00678391 0.00424186 -2.37197e-20)
(0.00717398 0.00446928 1.88154e-20)
(0.00757071 0.00467145 3.01528e-20)
(0.00797122 0.00484294 1.70332e-20)
(0.00837406 0.00498043 2.81915e-21)
(0.00878554 0.00508089 1.7664e-20)
(0.00919968 0.00513733 2.18478e-20)
(0.00961286 0.00514752 -2.07723e-21)
(0.0100336 0.00510882 2.08253e-21)
(0.0104467 0.00501205 5.32666e-21)
(0.0108496 0.00485871 1.45238e-21)
(0.0112388 0.00464191 -1.252e-21)
(0.0116001 0.00436124 1.25588e-21)
(0.0119241 0.00401531 -3.80806e-21)
(0.012194 0.00360535 6.39064e-22)
(0.012391 0.00313622 -1.79896e-22)
(0.0125055 0.00261793 -4.83814e-22)
(0.0125057 0.00205964 -1.00137e-21)
(0.0124017 0.00148404 0)
(0.0121566 0.000900243 -5.31534e-23)
(0.0117779 0.000341161 6.64929e-23)
(0.0112801 -0.000177043 -1.91768e-22)
(0.0106556 -0.00063294 6.91444e-22)
(0.00994838 -0.00101141 1.66289e-22)
(0.00915128 -0.00130298 -1.02649e-21)
(0.00831497 -0.00150393 -9.4976e-22)
(0.00744816 -0.00161538 3.59293e-22)
(0.0065903 -0.00164738 -6.40498e-22)
(0.00575023 -0.00160741 3.688e-22)
(0.00495175 -0.00151175 -1.4942e-23)
(0.0042056 -0.001372 -2.43445e-22)
(0.00353281 -0.00120848 8.37974e-23)
(0.00291917 -0.00102019 -7.36925e-22)
(0.00252299 -0.000889365 1.05802e-21)
(0.00236856 -0.000793273 -9.48285e-22)
(0.00232248 -0.00071518 -3.48e-22)
(0.00236251 -0.000654794 -8.39766e-22)
(0.00250523 -0.000611571 0)
(0.00275093 -0.000574719 -1.0035e-21)
(0.00311119 -0.000547003 9.63207e-22)
(0.00353492 -0.00051614 4.8027e-23)
(0.00394246 -0.000479157 7.79561e-24)
(0.0043169 -0.000440545 -3.16833e-23)
(0.00466255 -0.000401465 -5.32143e-22)
(0.00497931 -0.000361743 3.2909e-23)
(0.00526623 -0.000321953 0)
(0.00552345 -0.000282917 -3.09811e-23)
(0.00575182 -0.000245265 2.97813e-23)
(0.0059525 -0.00020943 4.98049e-22)
(0.00612684 -0.000175718 -4.67185e-22)
(0.00627638 -0.000144329 -3.97403e-22)
(0.00640277 -0.000115368 4.20145e-22)
(0.00650771 -8.88525e-05 0)
(0.00659289 -6.47467e-05 -2.13826e-23)
(0.00666 -4.29798e-05 0)
(0.00671068 -2.34632e-05 -1.24218e-22)
(0.00674654 -6.09498e-06 1.02652e-23)
(0.00676913 9.2339e-06 1.47832e-22)
(0.00677996 2.26285e-05 2.90086e-23)
(0.00678046 3.41838e-05 1.33644e-23)
(0.00677208 4.39801e-05 -1.21427e-23)
(0.00675617 5.21047e-05 0)
(0.00673406 5.85955e-05 9.79433e-24)
(0.00670707 6.34831e-05 3.25813e-23)
(0.00667649 6.68193e-05 -2.4951e-23)
(0.00664358 6.86763e-05 -2.41647e-23)
(0.0066095 6.91586e-05 2.9637e-23)
(0.00657534 6.84224e-05 0)
(0.00654206 6.67003e-05 4.49563e-24)
(0.00651047 6.43309e-05 6.30612e-24)
(0.00648121 6.18067e-05 1.42625e-24)
(0.00645367 5.99089e-05 -1.4241e-24)
(0.00642805 6.07858e-05 2.71469e-25)
(0.0100748 0.000516305 0)
(0.0104761 0.00128229 0)
(0.0110149 0.00167925 0)
(0.0113787 0.0017945 8.33115e-22)
(0.0115701 0.00173106 -8.31868e-22)
(0.0115412 0.00156965 0)
(0.0114223 0.00136695 0)
(0.0112259 0.00116125 0)
(0.0109932 0.000976552 0)
(0.0107548 0.000819165 0)
(0.0105248 0.000688681 0)
(0.0103102 0.000583958 -3.27048e-21)
(0.010113 0.000501203 3.28764e-21)
(0.00993263 0.00043612 -3.2727e-21)
(0.00976787 0.000385585 6.55825e-21)
(0.00961642 0.000347066 -3.28402e-21)
(0.00947573 0.000318362 -3.26888e-21)
(0.0093434 0.000297761 3.27837e-21)
(0.0092171 0.000284062 0)
(0.00909461 0.000276301 0)
(0.00897385 0.000273774 6.5169e-21)
(0.0088528 0.00027602 -6.53141e-21)
(0.00872952 0.000282752 0)
(0.00860205 0.000293816 -6.50641e-21)
(0.00846842 0.000309186 6.52065e-21)
(0.0083266 0.00032896 0)
(0.00817445 0.000353368 0)
(0.00800967 0.000382791 6.51702e-21)
(0.00782978 0.000417822 -7.95187e-24)
(0.00763202 0.000459369 -6.54512e-21)
(0.00741344 0.000508866 -6.55561e-21)
(0.00717042 0.00056865 1.31535e-20)
(0.0069047 0.000642753 -6.59921e-21)
(0.00658944 0.00073372 6.2063e-21)
(0.0062572 0.00085554 -6.67566e-21)
(0.00603998 0.00103642 -6.7861e-21)
(0.00600235 0.00129376 6.87918e-21)
(0.00612154 0.00162619 2.06039e-20)
(0.00638092 0.00202515 3.45007e-20)
(0.00677916 0.00247764 7.01436e-21)
(0.00733723 0.00296673 -6.78783e-21)
(0.0080145 0.00346061 -5.91976e-20)
(0.00873246 0.00392788 5.79119e-20)
(0.00945644 0.00435128 5.62504e-20)
(0.0101771 0.00471948 -1.2214e-20)
(0.0108889 0.00502437 8.91928e-21)
(0.0115939 0.00525913 -2.56509e-20)
(0.0122792 0.00541539 0)
(0.0129407 0.00548702 -2.37835e-20)
(0.0135781 0.00546588 2.58671e-21)
(0.0141762 0.0053518 1.93827e-20)
(0.0147289 0.00514353 2.26083e-21)
(0.0152194 0.00483615 -2.22411e-20)
(0.0156423 0.00443881 -1.46492e-20)
(0.0159779 0.00395267 -1.6047e-20)
(0.0162138 0.0033915 -7.82038e-21)
(0.0163402 0.00276763 -1.58098e-21)
(0.0163324 0.00209433 1.79601e-21)
(0.0162047 0.00139967 1.66455e-21)
(0.0159235 0.000694328 2.43798e-21)
(0.0155082 1.04113e-05 1.63109e-21)
(0.0149661 -0.000632908 0)
(0.0143063 -0.0012158 6.23792e-21)
(0.013562 -0.00172174 0)
(0.0127407 -0.00214284 -2.12873e-20)
(0.0118861 -0.00247396 -1.23665e-20)
(0.0110086 -0.0027155 -3.07601e-21)
(0.0101408 -0.00287404 0)
(0.0092968 -0.00295708 0)
(0.00848922 -0.0029756 -1.2983e-20)
(0.00773351 -0.00294165 0)
(0.00702664 -0.00286371 3.02477e-20)
(0.00637451 -0.0027542 -3.07729e-20)
(0.00577865 -0.00262076 2.96441e-20)
(0.00523286 -0.0024702 2.51297e-23)
(0.00473656 -0.00230984 2.49724e-23)
(0.00428738 -0.00214404 2.56242e-20)
(0.00387915 -0.00197626 3.70187e-21)
(0.00350887 -0.00181011 2.81667e-20)
(0.0031743 -0.00164799 3.03462e-20)
(0.00287136 -0.00149138 -1.09956e-22)
(0.0025969 -0.00134191 -2.98934e-20)
(0.00234866 -0.00120074 3.00953e-20)
(0.00212399 -0.00106881 0)
(0.00192139 -0.000947311 4.90945e-22)
(0.00173917 -0.000836752 3.08434e-20)
(0.00157485 -0.000737608 -6.26321e-20)
(0.00142871 -0.000650942 -9.46659e-20)
(0.00130044 -0.000576389 -3.24829e-20)
(0.00118769 -0.00051345 8.93197e-22)
(0.00109165 -0.000462163 0)
(0.00101256 -0.000421034 9.79863e-22)
(0.000948166 -0.000388479 -9.70653e-22)
(0.000899929 -0.00036384 0)
(0.000866619 -0.000344588 1.54224e-20)
(0.000847867 -0.000330293 -1.92279e-21)
(0.000843525 -0.000318543 1.90197e-21)
(0.000852919 -0.000308911 -1.7144e-23)
(0.000875849 -0.000299183 1.50586e-20)
(0.000912987 -0.000289366 -1.87578e-21)
(0.000964831 -0.000277035 3.72881e-21)
(0.0010311 -0.000261642 -1.85444e-21)
(0.00111419 -0.000241182 1.75223e-25)
(0.0012129 -0.000213854 -9.28585e-22)
(0.00133075 -0.000178236 9.26793e-22)
(0.00146696 -0.000131436 -7.4434e-21)
(0.00162322 -7.2005e-05 -7.93915e-21)
(0.00180033 2.84506e-06 -1.45405e-20)
(0.00199772 9.49533e-05 3.01613e-20)
(0.00221632 0.000206333 -1.46729e-20)
(0.0024557 0.000338674 -4.75647e-22)
(0.00271507 0.000493314 -4.77492e-22)
(0.00299494 0.000671105 4.79437e-22)
(0.00329234 0.000872597 -1.53844e-20)
(0.00360864 0.00109752 1.03354e-21)
(0.00394209 0.00134539 -4.97659e-24)
(0.00428968 0.00161485 1.33344e-20)
(0.00465244 0.00190412 4.67188e-20)
(0.00502797 0.00221076 -3.00859e-20)
(0.0054143 0.00253184 -3.01472e-20)
(0.00581197 0.00286402 3.16517e-20)
(0.00621921 0.00320332 2.71015e-20)
(0.00663405 0.00354548 -2.71441e-20)
(0.00705701 0.00388606 -3.12963e-20)
(0.0074874 0.00422012 -2.59455e-20)
(0.0079241 0.0045427 3.89264e-21)
(0.00836709 0.00484871 -3.27893e-21)
(0.00881592 0.00513295 0)
(0.00927064 0.00539044 -2.70589e-20)
(0.00973259 0.00561625 -2.29048e-20)
(0.0101996 0.00580463 -1.91022e-20)
(0.0106704 0.00595145 0)
(0.0111492 0.00605255 -2.15563e-20)
(0.0116306 0.00610101 2.28703e-21)
(0.0121119 0.00609441 -6.05762e-21)
(0.012597 0.00602907 -1.93034e-21)
(0.0130729 0.00589751 -1.37057e-22)
(0.0135369 0.00570051 -7.2921e-21)
(0.0139829 0.00543293 1.37274e-21)
(0.0143985 0.00509508 -5.42787e-21)
(0.0147736 0.00468735 8.39521e-21)
(0.0150926 0.00421247 6.02475e-21)
(0.0153393 0.0036766 2.4842e-21)
(0.015503 0.00308993 0)
(0.0155573 0.00246233 -4.01672e-22)
(0.0155062 0.00181441 7.42031e-24)
(0.0153179 0.00115648 1.5102e-23)
(0.0149957 0.000517412 -8.66031e-25)
(0.014545 -8.54248e-05 -4.29227e-23)
(0.0139558 -0.000631819 1.48384e-22)
(0.0132615 -0.00110363 -3.63824e-22)
(0.0124508 -0.00148948 0)
(0.0115691 -0.00178042 8.48329e-22)
(0.0106204 -0.00197419 -2.58256e-22)
(0.00964686 -0.00207522 4.90483e-22)
(0.00865739 -0.00208862 7.64992e-23)
(0.00768346 -0.00202784 6.50503e-23)
(0.00673939 -0.00190436 -2.75786e-23)
(0.00586812 -0.00174306 0)
(0.00505147 -0.00154389 9.15329e-22)
(0.00448734 -0.00139079 6.74807e-23)
(0.00420812 -0.00127042 5.37957e-23)
(0.00408896 -0.00116663 4.9864e-23)
(0.0040944 -0.0010813 8.55317e-22)
(0.00423957 -0.00101788 3.91633e-23)
(0.00451449 -0.000964966 1.34983e-23)
(0.0049217 -0.000922488 -4.96512e-22)
(0.0053932 -0.000874488 4.29125e-22)
(0.00584443 -0.000816037 5.0526e-22)
(0.00625861 -0.000752895 6.39558e-23)
(0.00664083 -0.00068791 -4.99017e-22)
(0.00699141 -0.000621758 6.02959e-23)
(0.00730943 -0.000555488 4.69795e-22)
(0.00759518 -0.000490354 -4.67022e-22)
(0.00784971 -0.000427333 -5.4586e-23)
(0.0080743 -0.000367106 -5.35261e-23)
(0.00827038 -0.00031015 0)
(0.00843953 -0.000256792 3.73353e-22)
(0.00858343 -0.000207215 -3.71986e-22)
(0.00870378 -0.000161474 0)
(0.00880232 -0.000119546 -3.95362e-23)
(0.00888072 -8.13571e-05 0)
(0.00894068 -4.6814e-05 3.45317e-23)
(0.00898386 -1.57995e-05 1.25055e-22)
(0.00901189 1.18182e-05 -1.24801e-22)
(0.00902636 3.61702e-05 -2.77951e-23)
(0.00902884 5.73741e-05 2.51208e-23)
(0.00902084 7.55267e-05 0)
(0.00900389 9.06834e-05 -7.91902e-23)
(0.00897945 0.000102911 7.90507e-23)
(0.00894901 0.000112267 1.65087e-23)
(0.00891403 0.000118817 2.71017e-23)
(0.00887593 0.000122671 -2.70611e-23)
(0.00883609 0.000123997 1.93645e-23)
(0.00879576 0.000123046 -1.93383e-23)
(0.00875612 0.00012017 -6.92572e-24)
(0.0087182 0.000115847 -4.37472e-24)
(0.00868283 0.000110699 3.00035e-24)
(0.00864998 0.00010541 3.29024e-24)
(0.00861805 0.000102264 0)
(0.0100413 0.000317381 0)
(0.0102866 0.000874321 0)
(0.010715 0.00124891 0)
(0.0111427 0.00144443 8.41494e-22)
(0.0114793 0.001506 -8.35809e-22)
(0.0117072 0.00147283 0)
(0.0118552 0.00137472 1.62181e-21)
(0.0118993 0.00124554 -1.62421e-21)
(0.0118803 0.00110874 -1.60577e-21)
(0.0118211 0.000974993 3.21287e-21)
(0.0117317 0.000852002 -1.60754e-21)
(0.0116276 0.00074624 0)
(0.0115166 0.00065741 0)
(0.0114037 0.000583732 3.18334e-21)
(0.0112921 0.000524332 -1.40725e-23)
(0.0111829 0.000477717 -6.3631e-21)
(0.0110762 0.000442103 3.18313e-21)
(0.0109717 0.000416059 0)
(0.0108686 0.000398576 0)
(0.0107657 0.000388738 3.15718e-21)
(0.010662 0.000385825 -3.16323e-21)
(0.0105559 0.000389402 0)
(0.0104461 0.000399207 0)
(0.0103308 0.00041512 -6.2861e-21)
(0.0102084 0.000437179 1.2579e-20)
(0.0100769 0.000465579 -6.29316e-21)
(0.00993446 0.000500671 -6.27888e-21)
(0.00977877 0.000542991 1.05439e-23)
(0.00960745 0.000593299 1.25783e-20)
(0.0094179 0.000652671 -6.29864e-21)
(0.00920743 0.000722644 -6.30117e-21)
(0.00897268 0.000805444 3.64367e-24)
(0.00871564 0.000904734 6.33046e-21)
(0.00841345 0.00102136 6.33808e-21)