/*--------------------------------*- C++ -*----------------------------------*\
| =========                 |                                                 |
| \\      /  F ield         | OpenFOAM: The Open Source CFD Toolbox           |
|  \\    /   O peration     | Version:  2506                                  |
|   \\  /    A nd           | Website:  www.openfoam.com                      |
|    \\/     M anipulation  |                                                 |
\*---------------------------------------------------------------------------*/
FoamFile
{
    version     2.0;
    format      ascii;
    arch        "LSB;label=32;scalar=64";
    class       volScalarField;
    location    "2.55";
    object      p;
}
// * * * * * * * * * * * * * * * * * * * * * * * * * * * * * * * * * * * * * //

dimensions      [0 2 -2 0 0 0 0];

internalField   nonuniform List<scalar> 
4000
(
0.0048161
0.00471879
0.00465653
0.00462059
0.00459211
0.00456676
0.00454365
0.00452181
0.00450053
0.00447949
0.00445856
0.00443772
0.00441696
0.00439627
0.00437567
0.00435515
0.00433474
0.00431443
0.00429426
0.00427422
0.00425434
0.00423463
0.00421512
0.00419582
0.00417679
0.00415804
0.00413962
0.00412158
0.00410399
0.00408691
0.00407044
0.00405472
0.00403993
0.00402601
0.00401435
0.00400443
0.00399373
0.00398141
0.0039673
0.00395069
0.0039307
0.00390501
0.00387423
0.00384017
0.00380289
0.00376265
0.00371956
0.00367341
0.00362529
0.00357491
0.00352265
0.00346942
0.00341486
0.00336081
0.00330641
0.00325356
0.00320197
0.0031523
0.00310596
0.00306107
0.0030206
0.00298252
0.00294746
0.00291542
0.00288535
0.00285804
0.00283204
0.00280806
0.00278509
0.00276333
0.00274246
0.00272219
0.00270276
0.00268382
0.00266538
0.00264752
0.00263011
0.00261318
0.00259681
0.00258096
0.00256565
0.0025509
0.0025367
0.00252304
0.00250994
0.00249733
0.00248521
0.0024736
0.00246242
0.00245166
0.00244136
0.00243142
0.00242186
0.00241269
0.00240381
0.0023953
0.00238704
0.00237909
0.00237132
0.00236382
0.00235641
0.00234915
0.00234193
0.0023347
0.00232744
0.00232002
0.00231247
0.00230462
0.00229649
0.00228796
0.00227899
0.00226948
0.00225939
0.00224859
0.00223708
0.00222465
0.00221127
0.00219681
0.00218113
0.00216417
0.00214578
0.00212585
0.00210433
0.00208114
0.00205615
0.00202935
0.0020007
0.00197019
0.00193781
0.00190357
0.00186738
0.00182948
0.00178981
0.00174818
0.00170503
0.00166029
0.00161356
0.00156598
0.00151677
0.00146674
0.00141595
0.00136483
0.00131387
0.0012638
0.00121453
0.00116798
0.00112246
0.00108109
0.00104235
0.00100679
0.000975037
0.00094555
0.00091996
0.000896207
0.000875476
0.000856188
0.000839077
0.000823124
0.00080871
0.0007955
0.00078619
0.000774461
0.000761919
0.000748821
0.00073535
0.000720762
0.000705057
0.00068672
0.000667057
0.000647083
0.000626839
0.000606319
0.000585527
0.00056445
0.000543081
0.000521429
0.000499527
0.000477422
0.00045518
0.000432853
0.000410505
0.000388192
0.000365941
0.000343815
0.000321839
0.000300037
0.000278425
0.00025701
0.000235788
0.00021475
0.000193878
0.000173154
0.000152557
0.000132063
0.000111643
9.12741e-05
7.09361e-05
5.06121e-05
3.02892e-05
1.00167e-05
0.00474744
0.00469572
0.00465094
0.00462
0.00459385
0.00456908
0.00454567
0.00452348
0.00450197
0.0044808
0.0044598
0.00443894
0.00441818
0.0043975
0.00437692
0.00435644
0.00433606
0.0043158
0.00429566
0.00427567
0.00425583
0.00423617
0.00421669
0.00419744
0.00417844
0.00415972
0.00414133
0.00412331
0.00410572
0.00408863
0.00407213
0.00405631
0.00404134
0.00402711
0.00401446
0.00400283
0.00399005
0.00397556
0.00395913
0.00394002
0.0039174
0.0038896
0.00385751
0.00382261
0.00378485
0.00374442
0.00370144
0.0036558
0.00360862
0.00355951
0.00350889
0.00345768
0.00340564
0.00335411
0.0033026
0.0032525
0.00320382
0.00315665
0.00311225
0.00306935
0.00303012
0.00299311
0.00295875
0.00292712
0.00289736
0.00287012
0.00284423
0.00282026
0.00279735
0.00277563
0.00275486
0.00273469
0.0027153
0.0026964
0.00267797
0.00266006
0.00264259
0.00262555
0.002609
0.00259294
0.00257736
0.0025623
0.00254776
0.00253374
0.00252024
0.00250725
0.00249473
0.0024827
0.00247109
0.0024599
0.00244912
0.0024387
0.00242863
0.00241891
0.00240948
0.00240037
0.00239149
0.00238288
0.00237445
0.00236622
0.0023581
0.00235008
0.0023421
0.00233412
0.00232608
0.00231788
0.00230953
0.00230088
0.00229194
0.00228259
0.00227278
0.00226242
0.00225144
0.00223972
0.00222724
0.00221379
0.00219933
0.00218375
0.0021669
0.00214874
0.00212915
0.00210801
0.00208527
0.00206088
0.00203475
0.00200687
0.00197723
0.00194582
0.00191267
0.00187778
0.00184114
0.00180291
0.00176308
0.00172154
0.00167866
0.00163437
0.0015885
0.0015419
0.00149409
0.00144571
0.00139694
0.00134815
0.0012998
0.00125245
0.00120611
0.00116232
0.00111992
0.0010808
0.00104404
0.00101001
0.000979313
0.000950758
0.000925614
0.000902275
0.000881655
0.000862509
0.000845323
0.00082932
0.000814801
0.000801087
0.000790521
0.000777872
0.000764357
0.000750243
0.000735578
0.000719815
0.000702954
0.000684109
0.000664322
0.000644335
0.000624132
0.000603678
0.000582973
0.000562002
0.000540753
0.000519232
0.000497467
0.000475501
0.000453391
0.000431191
0.000408957
0.000386743
0.000364604
0.000342597
0.000320721
0.000299008
0.000277478
0.000256137
0.000234986
0.00021402
0.000193229
0.000172586
0.000152068
0.00013165
0.000111308
9.10178e-05
7.0758e-05
5.05099e-05
3.02579e-05
1.00153e-05
0.00471495
0.00468399
0.00464878
0.00462046
0.00459493
0.0045707
0.00454744
0.00452512
0.00450342
0.00448209
0.00446099
0.00444007
0.00441926
0.00439857
0.00437798
0.0043575
0.00433712
0.00431687
0.00429675
0.00427677
0.00425694
0.00423728
0.00421782
0.00419857
0.00417956
0.00416083
0.0041424
0.00412434
0.00410668
0.0040895
0.00407284
0.0040568
0.00404147
0.00402672
0.00401299
0.00399975
0.00398527
0.00396899
0.00395061
0.00392943
0.00390485
0.00387583
0.00384326
0.00380818
0.00377051
0.0037304
0.00368804
0.00364347
0.00359769
0.00355018
0.00350154
0.00345256
0.0034031
0.00335407
0.00330532
0.00325763
0.0032112
0.00316614
0.00312337
0.00308201
0.00304351
0.00300705
0.00297287
0.00294112
0.00291117
0.00288352
0.00285729
0.00283287
0.00280962
0.00278756
0.0027665
0.00274612
0.00272653
0.00270748
0.00268892
0.00267086
0.00265322
0.002636
0.00261923
0.0026029
0.00258703
0.00257165
0.00255676
0.00254238
0.0025285
0.00251512
0.00250223
0.0024898
0.00247781
0.00246623
0.00245505
0.00244422
0.00243374
0.00242358
0.0024137
0.00240411
0.00239476
0.00238564
0.00237669
0.00236791
0.00235924
0.00235067
0.00234211
0.00233352
0.00232486
0.00231605
0.00230706
0.00229778
0.00228817
0.00227814
0.00226763
0.00225654
0.0022448
0.00223229
0.00221895
0.00220461
0.00218922
0.00217269
0.00215486
0.0021357
0.00211508
0.00209293
0.0020692
0.00204386
0.00201684
0.00198816
0.00195781
0.00192581
0.00189219
0.00185698
0.0018202
0.00178196
0.00174232
0.00170122
0.00165892
0.00161545
0.00157077
0.00152549
0.00147936
0.00143287
0.00138625
0.00133982
0.00129396
0.00124911
0.00120537
0.00116359
0.00112318
0.0010855
0.00104999
0.00101684
0.000986598
0.000958361
0.000933118
0.000909672
0.000888731
0.000869354
0.000851748
0.0008354
0.00082054
0.000806151
0.000794271
0.000780623
0.000766152
0.000751052
0.000735307
0.000718482
0.000700724
0.00068152
0.000661677
0.000641709
0.000621561
0.000601185
0.000580577
0.000559718
0.000538592
0.000517199
0.000495566
0.000473735
0.000451751
0.000429681
0.000407576
0.000385488
0.00036347
0.000341529
0.000319731
0.000298095
0.000276636
0.000255363
0.000234278
0.000213376
0.000192643
0.000172063
0.000151612
0.000131264
0.000110995
9.0778e-05
7.05901e-05
5.04095e-05
3.02169e-05
9.98726e-06
0.00469966
0.00467493
0.00464537
0.00461942
0.0045954
0.00457179
0.00454864
0.00452643
0.00450471
0.00448329
0.00446212
0.00444112
0.00442027
0.00439955
0.00437894
0.00435844
0.00433805
0.00431779
0.00429766
0.00427766
0.00425782
0.00423814
0.00421864
0.00419935
0.00418028
0.00416148
0.00414296
0.00412477
0.00410694
0.00408954
0.00407259
0.00405615
0.00404026
0.00402478
0.00400998
0.00399536
0.0039794
0.00396157
0.00394158
0.00391886
0.003893
0.00386331
0.00383056
0.00379552
0.00375817
0.00371865
0.00367721
0.003634
0.00358968
0.00354401
0.00349769
0.00345109
0.00340424
0.00335775
0.00331162
0.00326639
0.00322211
0.00317903
0.00313772
0.00309763
0.0030597
0.00302353
0.00298932
0.00295722
0.00292681
0.0028985
0.00287165
0.00284655
0.0028227
0.00280009
0.00277855
0.00275778
0.00273785
0.00271851
0.0026997
0.00268141
0.00266355
0.0026461
0.00262908
0.00261249
0.00259633
0.00258064
0.00256542
0.0025507
0.00253648
0.00252275
0.0025095
0.00249673
0.00248439
0.00247245
0.00246091
0.00244971
0.00243884
0.00242827
0.00241796
0.00240791
0.00239808
0.00238845
0.00237898
0.00236965
0.00236041
0.00235124
0.00234208
0.00233288
0.00232359
0.00231414
0.00230449
0.00229455
0.00228426
0.00227353
0.00226229
0.00225045
0.00223792
0.00222458
0.00221037
0.00219514
0.00217883
0.00216134
0.00214254
0.0021224
0.00210083
0.00207775
0.00205315
0.002027
0.00199927
0.00196999
0.00193917
0.00190684
0.00187304
0.00183782
0.0018012
0.0017633
0.00172424
0.00168392
0.00164254
0.00160028
0.0015571
0.00151346
0.00146925
0.00142485
0.00138048
0.0013364
0.00129292
0.00125034
0.0012088
0.00116876
0.00113004
0.00109348
0.00105878
0.00102607
0.000995831
0.000967457
0.000941715
0.00091776
0.000896143
0.000876149
0.00085792
0.000840946
0.000825479
0.000810386
0.000797421
0.000782819
0.000767406
0.000751358
0.000734669
0.000716978
0.000698562
0.000679039
0.000659091
0.000639116
0.00061901
0.000598705
0.000578185
0.000557426
0.000536403
0.000515116
0.000493589
0.000471864
0.00044999
0.000428026
0.000406024
0.000384035
0.000362104
0.000340265
0.00031856
0.000297012
0.000275636
0.000254445
0.00023344
0.000212618
0.000191966
0.000171468
0.000151098
0.000130833
0.000110645
9.05065e-05
7.03928e-05
5.0279e-05
3.01461e-05
9.94827e-06
0.00468995
0.00466717
0.00464107
0.00461761
0.00459507
0.00457221
0.0045496
0.00452754
0.00450578
0.00448438
0.00446318
0.00444214
0.00442124
0.00440048
0.00437984
0.00435931
0.0043389
0.00431861
0.00429845
0.00427842
0.00425853
0.00423879
0.00421923
0.00419986
0.00418069
0.00416175
0.00414307
0.00412469
0.00410661
0.00408889
0.00407155
0.0040546
0.00403806
0.00402176
0.0040059
0.00399
0.00397269
0.00395347
0.00393212
0.00390816
0.00388137
0.00385123
0.00381841
0.00378355
0.00374667
0.00370795
0.00366764
0.00362596
0.00358307
0.00353954
0.00349562
0.00345141
0.0034071
0.00336312
0.00331953
0.00327663
0.00323452
0.00319335
0.00315349
0.00311465
0.00307738
0.00304156
0.00300738
0.00297496
0.00294408
0.00291505
0.00288747
0.00286156
0.00283694
0.0028136
0.0027914
0.00277006
0.00274962
0.00272985
0.00271067
0.00269204
0.00267387
0.00265612
0.00263881
0.00262192
0.00260545
0.00258943
0.00257387
0.0025588
0.00254423
0.00253016
0.00251656
0.00250345
0.00249076
0.00247849
0.0024666
0.00245505
0.0024438
0.00243285
0.00242212
0.00241164
0.00240133
0.00239121
0.0023812
0.00237133
0.0023615
0.00235173
0.00234194
0.0023321
0.00232216
0.00231204
0.0023017
0.00229105
0.00228003
0.00226856
0.00225654
0.00224389
0.00223052
0.0022163
0.00220119
0.00218502
0.00216775
0.00214929
0.00212953
0.00210844
0.00208596
0.00206203
0.00203666
0.00200984
0.00198156
0.00195186
0.00192077
0.00188832
0.00185457
0.00181958
0.00178338
0.00174607
0.00170784
0.00166848
0.00162833
0.0015875
0.00154598
0.00150413
0.00146194
0.00141966
0.00137752
0.0013357
0.00129443
0.00125393
0.00121431
0.00117589
0.00113861
0.00110297
0.00106887
0.00103643
0.00100604
0.000977336
0.000950929
0.000926255
0.000903762
0.000882872
0.000863919
0.000846084
0.000829803
0.000813916
0.000799964
0.000784438
0.000768117
0.000751183
0.000733663
0.000715226
0.000696261
0.000676412
0.000656324
0.000636327
0.000616256
0.00059601
0.000575566
0.000554893
0.000533962
0.00051277
0.000491342
0.000469721
0.000447956
0.000426104
0.000404215
0.00038234
0.000360522
0.0003388
0.000317207
0.000295766
0.000274496
0.000253406
0.000232501
0.000211775
0.000191218
0.000170812
0.000150535
0.000130359
0.000110256
9.02007e-05
7.01649e-05
5.01224e-05
3.00559e-05
9.90924e-06
0.00468331
0.00466139
0.00463731
0.00461566
0.0045943
0.00457228
0.00455017
0.00452833
0.00450672
0.00448537
0.00446418
0.00444309
0.00442217
0.00440137
0.00438069
0.00436013
0.00433967
0.00431934
0.00429912
0.00427903
0.00425908
0.00423926
0.00421959
0.0042001
0.00418078
0.00416167
0.00414278
0.00412413
0.00410574
0.00408763
0.00406981
0.00405227
0.00403502
0.00401787
0.00400098
0.00398389
0.00396534
0.0039449
0.00392237
0.00389742
0.00386992
0.00383949
0.00380674
0.00377219
0.00373593
0.00369814
0.00365907
0.00361892
0.00357779
0.00353638
0.00349465
0.00345275
0.00341087
0.00336929
0.00332808
0.00328738
0.00324731
0.00320794
0.00316956
0.00313199
0.00309544
0.00306008
0.00302608
0.00299349
0.00296223
0.00293257
0.00290427
0.00287752
0.00285207
0.0028279
0.0028049
0.00278285
0.00276176
0.00274141
0.00272172
0.00270264
0.00268406
0.00266594
0.00264828
0.00263104
0.00261422
0.00259785
0.00258195
0.00256653
0.00255161
0.00253718
0.00252325
0.0025098
0.00249679
0.00248419
0.00247198
0.00246009
0.00244849
0.00243717
0.00242605
0.00241515
0.00240437
0.00239376
0.00238322
0.0023728
0.00236238
0.002352
0.00234157
0.00233106
0.00232044
0.0023096
0.00229854
0.00228713
0.00227533
0.00226306
0.00225021
0.00223669
0.00222243
0.00220729
0.00219124
0.00217411
0.00215588
0.00213647
0.00211579
0.00209381
0.00207051
0.00204585
0.00201984
0.00199251
0.00196386
0.00193394
0.00190278
0.00187043
0.00183695
0.0018024
0.00176683
0.00173034
0.00169299
0.0016548
0.00161608
0.00157677
0.00153696
0.00149693
0.00145671
0.0014165
0.00137646
0.00133672
0.00129747
0.00125883
0.00122092
0.00118393
0.00114785
0.00111299
0.00107938
0.00104711
0.00101653
0.000987423
0.000960288
0.000934786
0.000911308
0.000889412
0.000869482
0.000850674
0.000833469
0.000816681
0.000801755
0.000785334
0.000768158
0.000750422
0.000732188
0.000713118
0.000693686
0.000673535
0.000653307
0.000633281
0.000613227
0.000593017
0.000572622
0.000552011
0.000531151
0.000510042
0.00048871
0.000467199
0.000445559
0.000423841
0.000402094
0.000380365
0.000358697
0.000337124
0.000315676
0.000294375
0.000273239
0.000252276
0.000231491
0.000210878
0.000190428
0.000170123
0.00014994
0.000129855
0.00010984
8.98664e-05
6.99097e-05
4.99421e-05
2.99494e-05
9.8674e-06
0.00467875
0.00465727
0.0046344
0.00461395
0.00459347
0.00457211
0.00455045
0.00452891
0.00450751
0.00448622
0.00446504
0.00444397
0.00442303
0.0044022
0.00438148
0.00436087
0.00434037
0.00431998
0.0042997
0.00427953
0.00425948
0.00423955
0.00421976
0.0042001
0.0041806
0.00416127
0.00414211
0.00412314
0.00410437
0.00408581
0.00406746
0.00404929
0.00403129
0.00401328
0.00399539
0.00397717
0.0039575
0.00393599
0.00391249
0.00388674
0.00385872
0.00382816
0.00379559
0.00376147
0.00372593
0.00368916
0.00365138
0.00361276
0.00357355
0.00353408
0.00349443
0.00345474
0.00341514
0.00337579
0.00333675
0.00329809
0.00325991
0.0032222
0.00318527
0.003149
0.00311322
0.00307839
0.00304475
0.00301217
0.00298069
0.00295054
0.00292164
0.00289412
0.00286784
0.00284281
0.00281896
0.00279609
0.00277424
0.00275319
0.00273287
0.00271323
0.00269414
0.00267556
0.00265746
0.00263982
0.00262261
0.00260587
0.0025896
0.00257381
0.00255853
0.00254375
0.00252947
0.00251569
0.00250235
0.00248943
0.00247691
0.0024647
0.00245276
0.00244109
0.00242958
0.00241827
0.00240705
0.00239596
0.00238489
0.00237391
0.00236288
0.00235187
0.00234077
0.00232956
0.00231821
0.00230661
0.00229477
0.00228256
0.00226993
0.0022568
0.00224306
0.00222864
0.00221344
0.00219736
0.00218035
0.00216227
0.00214311
0.0021228
0.00210126
0.00207851
0.00205452
0.00202927
0.00200281
0.00197516
0.00194633
0.00191639
0.00188536
0.00185331
0.0018203
0.00178637
0.0017516
0.00171607
0.00167973
0.00164289
0.00160556
0.0015678
0.00152968
0.00149142
0.00145308
0.00141478
0.00137666
0.00133882
0.00130135
0.00126436
0.00122796
0.00119223
0.00115718
0.00112301
0.00108979
0.00105768
0.0010269
0.000997372
0.000969503
0.000943128
0.000918598
0.000895612
0.000874467
0.000854615
0.000836411
0.000818654
0.000802728
0.00078544
0.00076747
0.000749019
0.000730181
0.000710592
0.00069077
0.000670367
0.000650014
0.000629941
0.00060987
0.000589653
0.000569266
0.000548678
0.000527863
0.000506821
0.000485584
0.000464198
0.00044271
0.000421164
0.000399603
0.000378069
0.0003566
0.000335226
0.00031397
0.000292853
0.000271887
0.000251081
0.000230438
0.000209954
0.000189619
0.000169419
0.000149332
0.000129335
0.000109401
8.95071e-05
6.96277e-05
4.97372e-05
2.98267e-05
9.81568e-06
0.00467566
0.00465444
0.00463229
0.0046126
0.00459275
0.00457189
0.00455062
0.00452935
0.00450812
0.00448693
0.00446579
0.00444475
0.0044238
0.00440295
0.0043822
0.00436155
0.00434099
0.00432054
0.00430018
0.00427992
0.00425976
0.0042397
0.00421975
0.00419992
0.0041802
0.00416061
0.00414114
0.00412182
0.00410263
0.00408357
0.00406464
0.0040458
0.00402703
0.00400817
0.0039893
0.00397002
0.00394934
0.0039269
0.00390259
0.00387623
0.00384786
0.0038173
0.00378501
0.00375141
0.00371666
0.00368096
0.00364451
0.00360745
0.00357003
0.00353244
0.00349477
0.00345714
0.00341963
0.00338231
0.00334524
0.00330846
0.00327201
0.0032359
0.00320025
0.00316521
0.00313042
0.00309621
0.00306296
0.00303055
0.00299907
0.00296862
0.00293926
0.0029111
0.00288409
0.00285824
0.00283354
0.00280983
0.00278714
0.00276531
0.00274426
0.00272394
0.00270424
0.0026851
0.00266648
0.00264836
0.0026307
0.00261353
0.00259685
0.00258066
0.00256499
0.00254984
0.00253519
0.00252106
0.00250737
0.00249412
0.00248126
0.00246872
0.00245644
0.00244442
0.00243252
0.0024208
0.00240912
0.00239755
0.00238594
0.00237439
0.00236273
0.00235106
0.00233926
0.00232732
0.0023152
0.00230281
0.00229014
0.00227707
0.00226356
0.00224953
0.00223487
0.00221951
0.00220337
0.00218633
0.00216839
0.00214941
0.00212938
0.00210826
0.002086
0.0020626
0.00203809
0.00201244
0.00198571
0.00195794
0.00192914
0.00189938
0.00186868
0.00183711
0.00180472
0.00177156
0.00173768
0.00170316
0.00166805
0.0016325
0.00159656
0.0015603
0.0015238
0.00148722
0.00145061
0.00141407
0.00137768
0.00134151
0.00130563
0.00127011
0.00123499
0.00120033
0.00116626
0.00113271
0.00109981
0.00106786
0.00103693
0.001007
0.000978433
0.000951192
0.000925587
0.000901455
0.000879044
0.000858015
0.000838725
0.000819939
0.000802944
0.000784804
0.000766089
0.000746999
0.000727644
0.000707633
0.000687482
0.00066688
0.000646419
0.000626271
0.000606134
0.000585859
0.00056543
0.000544826
0.000524027
0.000503043
0.00048191
0.000460675
0.000439377
0.00041805
0.000396727
0.000375446
0.000354236
0.000333118
0.000312108
0.000291219
0.000270462
0.000249843
0.000229363
0.000209021
0.00018881
0.000168715
0.00014872
0.000128804
0.000108946
8.9125e-05
6.93206e-05
4.95093e-05
2.96894e-05
9.75054e-06
0.00467372
0.00465265
0.00463092
0.0046117
0.00459227
0.00457176
0.00455076
0.00452969
0.00450861
0.00448751
0.00446643
0.0044454
0.00442446
0.0044036
0.00438282
0.00436213
0.00434153
0.00432101
0.00430057
0.00428021
0.00425994
0.00423974
0.00421963
0.00419959
0.00417964
0.00415976
0.00413997
0.00412026
0.00410062
0.00408104
0.00406151
0.00404198
0.00402243
0.00400274
0.00398294
0.00396264
0.00394104
0.0039178
0.00389282
0.00386599
0.0038374
0.00380694
0.00377503
0.00374201
0.00370811
0.00367351
0.00363838
0.00360285
0.00356712
0.00353132
0.00349551
0.00345977
0.00342415
0.00338867
0.0033534
0.0033183
0.00328343
0.00324879
0.0032144
0.00318043
0.00314665
0.00311331
0.00308049
0.00304837
0.00301705
0.0029865
0.00295686
0.00292823
0.00290062
0.00287407
0.00284857
0.00282404
0.00280051
0.00277785
0.00275601
0.00273494
0.00271453
0.00269474
0.0026755
0.00265681
0.00263863
0.00262096
0.0026038
0.00258716
0.00257105
0.00255547
0.0025404
0.00252587
0.00251178
0.00249814
0.0024849
0.00247198
0.00245932
0.00244691
0.00243459
0.00242244
0.00241029
0.00239821
0.00238605
0.0023739
0.00236161
0.00234925
0.00233672
0.00232401
0.0023111
0.00229787
0.00228434
0.00227039
0.00225598
0.00224102
0.00222543
0.00220914
0.00219207
0.00217413
0.00215532
0.00213552
0.00211474
0.00209295
0.00207012
0.00204626
0.0020214
0.00199556
0.00196877
0.00194108
0.0019125
0.00188309
0.00185288
0.00182193
0.00179027
0.00175797
0.00172506
0.00169162
0.00165772
0.00162344
0.00158886
0.00155404
0.00151905
0.00148401
0.00144897
0.001414
0.00137914
0.00134446
0.00130997
0.00127573
0.00124176
0.00120808
0.0011748
0.00114187
0.00110932
0.0010775
0.00104646
0.00101618
0.000986997
0.000958935
0.000932276
0.000906987
0.000883297
0.000861017
0.000840529
0.000820668
0.000802524
0.000783528
0.000764107
0.000744431
0.000724611
0.00070425
0.000683814
0.000663058
0.000642495
0.000622241
0.000601999
0.00058163
0.000561123
0.000540468
0.000519659
0.000498718
0.000477705
0.000456668
0.000435614
0.000414551
0.000393515
0.000372542
0.000351648
0.000330839
0.000310122
0.000289503
0.000268988
0.000248577
0.000228275
0.000208084
0.000187999
0.00016801
0.000148102
0.000128261
0.000108473
8.87214e-05
6.89919e-05
4.92629e-05
2.95411e-05
9.67508e-06
0.00467274
0.00465179
0.00463028
0.00461129
0.00459209
0.00457177
0.00455094
0.00453
0.00450901
0.00448797
0.00446693
0.00444593
0.004425
0.00440413
0.00438334
0.00436262
0.00434197
0.00432139
0.00430088
0.00428043
0.00426004
0.00423971
0.00421942
0.00419918
0.00417898
0.00415882
0.00413868
0.00411857
0.00409848
0.00407838
0.00405824
0.00403802
0.0040177
0.0039972
0.00397649
0.00395523
0.00393278
0.00390884
0.00388331
0.00385613
0.00382741
0.00379713
0.00376564
0.00373325
0.00370021
0.00366672
0.00363289
0.00359885
0.00356472
0.00353059
0.0034965
0.00346249
0.00342857
0.00339475
0.00336107
0.0033275
0.00329406
0.00326076
0.00322757
0.00319465
0.00316183
0.00312931
0.00309714
0.00306549
0.00303438
0.00300388
0.00297416
0.00294525
0.0029172
0.0028901
0.00286392
0.00283866
0.00281433
0.00279086
0.0027682
0.00274632
0.00272516
0.00270466
0.00268471
0.00266536
0.00264655
0.0026283
0.00261059
0.00259341
0.00257678
0.00256069
0.00254512
0.0025301
0.00251554
0.00250143
0.00248772
0.00247434
0.00246121
0.00244834
0.00243555
0.00242291
0.00241023
0.00239761
0.00238486
0.0023721
0.00235914
0.00234609
0.00233281
0.00231933
0.0023056
0.00229153
0.00227713
0.0022623
0.00224698
0.00223112
0.00221462
0.00219744
0.00217951
0.00216076
0.00214119
0.00212072
0.00209935
0.00207707
0.00205384
0.00202971
0.00200473
0.00197889
0.00195224
0.00192479
0.0018966
0.00186768
0.00183809
0.00180784
0.001777
0.0017456
0.00171369
0.00168133
0.00164859
0.00161553
0.00158223
0.00154874
0.00151514
0.0014815
0.00144786
0.00141428
0.00138078
0.0013474
0.00131413
0.00128102
0.00124805
0.00121525
0.00118268
0.0011503
0.00111819
0.00108657
0.00105538
0.00102483
0.000995126
0.000966315
0.000938659
0.000912235
0.000887258
0.000863698
0.000841923
0.000820954
0.000801585
0.000781718
0.00076161
0.00074138
0.000721116
0.000700449
0.000679768
0.000658911
0.000638263
0.000617867
0.000597473
0.000577006
0.000556448
0.000535765
0.000514944
0.000493991
0.000473061
0.000452264
0.000431525
0.000410781
0.00039007
0.000369446
0.000348909
0.000328445
0.000308054
0.000287733
0.000267481
0.000247291
0.00022717
0.000207133
0.000187176
0.000167289
0.000147465
0.000127696
0.000107974
8.82898e-05
6.86404e-05
4.90028e-05
2.93841e-05
9.59766e-06
0.00467266
0.00465177
0.00463032
0.0046114
0.00459225
0.00457198
0.00455119
0.00453029
0.00450934
0.00448834
0.00446732
0.00444634
0.00442542
0.00440455
0.00438375
0.00436301
0.00434233
0.0043217
0.00430113
0.00428059
0.00426009
0.00423962
0.00421917
0.00419873
0.00417829
0.00415785
0.00413738
0.00411686
0.00409632
0.00407573
0.00405499
0.00403408
0.00401301
0.00399172
0.00397013
0.00394797
0.00392473
0.00390017
0.00387416
0.00384669
0.00381791
0.00378785
0.0037568
0.00372508
0.00369293
0.00366053
0.00362797
0.00359535
0.00356272
0.00353015
0.00349763
0.00346516
0.00343278
0.00340044
0.00336818
0.00333597
0.00330381
0.00327173
0.00323966
0.00320777
0.00317588
0.00314419
0.00311271
0.00308157
0.00305084
0.00302058
0.00299092
0.00296187
0.00293357
0.00290608
0.00287938
0.00285349
0.00282848
0.00280426
0.00278081
0.00275813
0.00273618
0.00271489
0.00269423
0.00267417
0.00265464
0.00263569
0.00261734
0.00259955
0.00258229
0.00256558
0.00254942
0.0025338
0.00251864
0.00250393
0.00248964
0.00247568
0.00246198
0.00244853
0.00243517
0.00242195
0.0024087
0.00239547
0.0023821
0.00236868
0.00235505
0.00234128
0.00232726
0.002313
0.00229846
0.00228358
0.00226834
0.00225266
0.0022365
0.0022198
0.00220248
0.0021845
0.00216582
0.00214638
0.00212619
0.00210521
0.00208345
0.00206088
0.00203746
0.00201327
0.00198837
0.00196272
0.00193636
0.00190931
0.00188161
0.00185329
0.00182437
0.00179488
0.00176487
0.00173437
0.00170343
0.00167211
0.00164046
0.00160855
0.00157642
0.00154416
0.00151181
0.00147941
0.00144702
0.00141466
0.00138234
0.00135011
0.00131791
0.00128579
0.00125373
0.00122172
0.00118981
0.00115797
0.00112627
0.00109483
0.00106364
0.00103294
0.00100275
0.000973268
0.000944706
0.000917189
0.000890933
0.0008661
0.000842961
0.000820851
0.000800203
0.00077944
0.000758646
0.000737882
0.000717187
0.00069625
0.00067534
0.000654444
0.000633818
0.000613298
0.000592632
0.000572029
0.000551472
0.00053074
0.000509929
0.000489122
0.000468399
0.000447813
0.000427317
0.000406872
0.000386513
0.000366267
0.000346102
0.000325995
0.000305946
0.000285916
0.000265922
0.000245964
0.000226041
0.00020616
0.000186327
0.000166539
0.000146796
0.000127099
0.000107444
8.78271e-05
6.82544e-05
4.87161e-05
2.92046e-05
9.51592e-06
0.00467347
0.00465261
0.00463108
0.00461202
0.00459275
0.00457239
0.00455153
0.00453059
0.00450962
0.00448861
0.0044676
0.00444663
0.00442571
0.00440486
0.00438406
0.00436331
0.00434261
0.00432195
0.00430132
0.00428071
0.00426012
0.00423953
0.00421893
0.0041983
0.00417764
0.00415693
0.00413615
0.00411527
0.00409429
0.00407317
0.00405185
0.00403032
0.00400854
0.00398648
0.00396406
0.00394102
0.00391704
0.00389188
0.00386544
0.00383773
0.00380891
0.00377909
0.00374849
0.00371744
0.00368618
0.00365487
0.00362354
0.00359227
0.00356103
0.00352988
0.00349878
0.0034677
0.00343667
0.00340564
0.00337465
0.00334364
0.00331264
0.00328166
0.00325063
0.0032197
0.00318871
0.00315784
0.00312708
0.00309653
0.00306626
0.00303633
0.00300685
0.00297786
0.00294948
0.00292175
0.00289465
0.00286829
0.00284273
0.00281787
0.0027937
0.00277026
0.00274756
0.00272549
0.00270407
0.00268323
0.00266296
0.00264326
0.00262416
0.00260565
0.00258766
0.00257023
0.00255338
0.00253704
0.00252115
0.00250572
0.00249069
0.00247601
0.0024616
0.00244745
0.00243341
0.00241951
0.00240559
0.00239168
0.00237764
0.00236354
0.00234922
0.00233473
0.00231999
0.00230499
0.00228969
0.00227402
0.002258
0.00224154
0.00222462
0.0022072
0.0021892
0.00217059
0.00215134
0.00213144
0.00211087
0.00208957
0.00206754
0.00204481
0.00202139
0.00199732
0.00197264
0.00194732
0.00192136
0.0018948
0.00186766
0.00183996
0.00181173
0.001783
0.0017538
0.00172416
0.00169414
0.00166378
0.00163313
0.00160227
0.00157121
0.00154004
0.00150879
0.0014775
0.00144621
0.00141493
0.00138365
0.00135242
0.00132117
0.00128993
0.00125868
0.00122739
0.00119611
0.0011648
0.00113349
0.0011023
0.00107118
0.00104036
0.0010098
0.000979768
0.000950394
0.000921784
0.0008943
0.000868215
0.000843639
0.000820337
0.000798399
0.000776702
0.000755207
0.000733927
0.000712847
0.000691745
0.000670566
0.000649584
0.000629022
0.000608441
0.000587772
0.000567114
0.000546446
0.000525705
0.000504965
0.000484301
0.000463764
0.000443383
0.000423149
0.000403038
0.000383045
0.000363156
0.000343337
0.000323552
0.000303846
0.000284081
0.00026433
0.000244588
0.000224847
0.000205116
0.000185403
0.000165715
0.00014606
0.000126443
0.000106871
8.73452e-05
6.78712e-05
4.84395e-05
2.90713e-05
9.48555e-06
0.00467525
0.00465437
0.00463256
0.00461315
0.00459357
0.00457297
0.00455193
0.00453086
0.00450982
0.00448878
0.00446777
0.0044468
0.00442591
0.00440507
0.00438428
0.00436354
0.00434283
0.00432215
0.00430149
0.00428083
0.00426016
0.00423946
0.00421874
0.00419795
0.0041771
0.00415614
0.00413508
0.00411386
0.00409248
0.00407088
0.00404904
0.00402691
0.00400446
0.00398165
0.00395841
0.00393454
0.00390983
0.00388408
0.0038572
0.00382926
0.00380041
0.00377081
0.00374065
0.00371027
0.00367991
0.00364966
0.00361951
0.00358951
0.00355956
0.0035297
0.00349986
0.00347001
0.00344017
0.00341029
0.00338041
0.00335048
0.00332051
0.00329053
0.00326044
0.00323042
0.00320028
0.00317021
0.00314017
0.00311025
0.00308051
0.003051
0.00302181
0.002993
0.00296464
0.0029368
0.0029095
0.00288284
0.00285682
0.00283143
0.00280662
0.00278252
0.00275916
0.00273638
0.00271417
0.00269254
0.00267153
0.00265109
0.00263122
0.00261187
0.00259301
0.00257476
0.00255714
0.00253999
0.00252328
0.00250699
0.00249109
0.00247555
0.0024603
0.0024453
0.00243046
0.00241576
0.00240108
0.00238643
0.00237168
0.00235685
0.00234184
0.00232666
0.00231124
0.00229557
0.00227961
0.0022633
0.00224662
0.00222952
0.00221191
0.00219378
0.00217516
0.00215607
0.00213649
0.00211633
0.00209551
0.00207401
0.0020519
0.00202926
0.00200609
0.00198231
0.00195791
0.00193293
0.0019074
0.00188135
0.00185478
0.0018277
0.00180013
0.00177211
0.00174365
0.00171481
0.00168562
0.00165614
0.00162639
0.00159646
0.00156636
0.00153616
0.00150589
0.00147558
0.00144524
0.00141491
0.00138455
0.0013542
0.00132378
0.00129335
0.00126282
0.00123221
0.00120152
0.00117073
0.00113983
0.00110893
0.00107794
0.00104709
0.00101626
0.000985755
0.00095558
0.000926048
0.000897458
0.000870005
0.000843877
0.000819348
0.000796139
0.000773453
0.000751225
0.000729451
0.000707989
0.000686693
0.000665553
0.000644694
0.000624106
0.00060353
0.000582902
0.00056225
0.000541579
0.000520897
0.000500264
0.000479748
0.000459396
0.000439234
0.000419258
0.000399444
0.000379764
0.000360187
0.000340676
0.000321192
0.000301723
0.000282215
0.000262687
0.000243135
0.000223558
0.000203966
0.000184372
0.000164789
0.000145229
0.000125706
0.00010623
8.68096e-05
6.74508e-05
4.81462e-05
2.89221e-05
9.4629e-06
0.00467818
0.0046572
0.00463484
0.00461479
0.00459468
0.00457368
0.00455233
0.00453107
0.00450992
0.00448885
0.00446783
0.00444687
0.00442601
0.00440521
0.00438445
0.00436373
0.00434304