/*--------------------------------*- C++ -*----------------------------------*\
| =========                 |                                                 |
| \\      /  F ield         | OpenFOAM: The Open Source CFD Toolbox           |
|  \\    /   O peration     | Version:  2506                                  |
|   \\  /    A nd           | Website:  www.openfoam.com                      |
|    \\/     M anipulation  |                                                 |
\*---------------------------------------------------------------------------*/
FoamFile
{
    version     2.0;
    format      ascii;
    arch        "LSB;label=32;scalar=64";
    class       volVectorField;
    location    "4.35";
    object      U;
}
// * * * * * * * * * * * * * * * * * * * * * * * * * * * * * * * * * * * * * //

dimensions      [0 1 -1 0 0 0 0];

internalField   nonuniform List<vector> 
4000
(
(0.00276147 -0.0011973 5.31982e-23)
(0.00377437 -0.000966994 0)
(0.00528159 -0.000476279 1.13686e-23)
(0.00638501 -0.000246007 7.09171e-24)
(0.00705257 -0.00014822 4.38875e-24)
(0.00749274 -9.12301e-05 0)
(0.00780814 -5.68543e-05 1.69138e-24)
(0.00804014 -3.72585e-05 1.11024e-24)
(0.00821528 -2.58027e-05 0)
(0.008352 -1.86753e-05 0)
(0.00846164 -1.40175e-05 1.6875e-25)
(0.00855117 -1.08296e-05 1.37615e-24)
(0.00862517 -8.53182e-06 -1.32927e-24)
(0.00868678 -6.79461e-06 3.09252e-24)
(0.0087382 -5.43377e-06 -3.08153e-24)
(0.00878107 -4.34378e-06 -1.63661e-25)
(0.00881659 -3.46278e-06 -7.54837e-24)
(0.00884577 -2.75473e-06 7.52407e-24)
(0.00886942 -2.19979e-06 -6.00056e-25)
(0.00888827 -1.78919e-06 0)
(0.00890302 -1.52255e-06 0)
(0.00891435 -1.40696e-06 1.32433e-24)
(0.00892302 -1.45723e-06 1.62913e-24)
(0.00892987 -1.69802e-06 0)
(0.00893593 -2.16933e-06 2.30101e-24)
(0.00894247 -2.93831e-06 2.64464e-24)
(0.0089512 -4.12192e-06 0)
(0.00896443 -5.9411e-06 0)
(0.00898509 -8.70255e-06 -1.10273e-22)
(0.00902107 -1.32709e-05 1.1336e-22)
(0.00908477 -2.69773e-05 0)
(0.00910043 -6.82239e-05 1.1584e-22)
(0.00901278 -0.000156087 -1.27336e-22)
(0.00882897 -0.000299566 -7.82431e-23)
(0.00857998 -0.000508022 -2.06283e-22)
(0.00828933 -0.000793374 1.87869e-21)
(0.00803091 -0.00115969 -2.35032e-22)
(0.00774219 -0.00168621 -7.86888e-22)
(0.00733392 -0.00236036 0)
(0.00689069 -0.00302266 3.94822e-22)
(0.00654197 -0.00358316 -4.0038e-22)
(0.00628251 -0.00403456 2.94852e-21)
(0.00608952 -0.00438041 0)
(0.00595469 -0.00461914 2.20328e-21)
(0.00586678 -0.00475813 -8.67844e-22)
(0.0058093 -0.00481063 1.213e-21)
(0.0057709 -0.00478635 0)
(0.00574629 -0.00469866 -1.12644e-21)
(0.00571952 -0.00456335 -1.29865e-21)
(0.00567743 -0.00438696 -1.05704e-21)
(0.00560352 -0.00417445 0)
(0.0055181 -0.00390343 0)
(0.00542863 -0.00358608 -1.47091e-22)
(0.0053502 -0.00318329 1.13956e-21)
(0.00535254 -0.00268001 8.75835e-23)
(0.00553217 -0.00205366 -5.69547e-22)
(0.00595578 -0.00135959 -2.57967e-22)
(0.00666964 -0.000672262 3.26648e-24)
(0.00760875 -0.000135199 0)
(0.00852139 0.000148528 9.58783e-23)
(0.00920719 0.000228782 1.96819e-22)
(0.00963124 0.000182665 -1.12902e-22)
(0.00984877 0.000114414 -4.90309e-22)
(0.00994529 5.92588e-05 3.42007e-22)
(0.00998436 2.72438e-05 0)
(0.00999579 1.12305e-05 0)
(0.00999847 4.58694e-06 0)
(0.00999903 2.25528e-06 1.57279e-23)
(0.00999896 1.41121e-06 2.30653e-22)
(0.00999904 1.012e-06 1.22014e-22)
(0.00999928 7.37964e-07 0)
(0.00999951 4.81251e-07 -1.07195e-22)
(0.00999975 2.26367e-07 1.07581e-22)
(0.01 -1.87566e-08 1.5343e-23)
(0.0100003 -2.34043e-07 -1.22555e-22)
(0.0100006 -4.14286e-07 1.05916e-22)
(0.0100008 -5.75843e-07 1.19652e-22)
(0.010001 -7.23279e-07 1.18735e-22)
(0.0100012 -8.5655e-07 0)
(0.0100014 -9.73168e-07 0)
(0.0100016 -1.07489e-06 -3.40677e-24)
(0.0100019 -1.17486e-06 -1.04219e-22)
(0.0100023 -1.2669e-06 0)
(0.0100028 -1.35761e-06 9.83907e-23)
(0.0100035 -1.42876e-06 -9.51968e-23)
(0.0100045 -1.4679e-06 0)
(0.0100061 -1.41989e-06 0)
(0.0100085 -1.16079e-06 -4.68366e-24)
(0.0100113 -5.54099e-07 -1.54098e-23)
(0.0100131 4.38496e-07 3.3127e-23)
(0.0100115 1.03353e-06 1.02408e-24)
(0.010002 -3.86618e-07 -1.44259e-24)
(0.00998009 -7.64027e-06 2.10614e-24)
(0.00994501 -2.46131e-05 0)
(0.00989982 -5.3352e-05 -1.23777e-23)
(0.00985346 -9.30788e-05 -7.19933e-23)
(0.00982359 -0.000131041 -9.84431e-23)
(0.00981656 -0.000153358 -1.32238e-23)
(0.00984013 -0.000148608 -3.39904e-22)
(0.00989783 -0.000115475 -4.45914e-22)
(0.00999236 -4.87641e-05 7.48023e-24)
(0.0101048 5.03073e-05 -5.22529e-22)
(0.0102202 0.00016188 -7.86417e-22)
(0.0103234 0.00026944 -1.07925e-23)
(0.010386 0.000354449 4.93404e-23)
(0.0104122 0.000391613 0)
(0.0103951 0.000379925 -5.45818e-22)
(0.0103333 0.000323897 -7.13051e-22)
(0.0102279 0.000234684 -5.28431e-23)
(0.010072 0.000110623 0)
(0.009879 -3.13745e-05 -1.01185e-21)
(0.00966096 -0.000166077 9.33236e-22)
(0.00942875 -0.00027311 0)
(0.00921498 -0.000325806 1.22012e-21)
(0.00906355 -0.0003061 1.78594e-22)
(0.00902227 -0.000217434 1.18166e-22)
(0.00913544 -8.8738e-05 0)
(0.00936066 1.78049e-05 -7.2365e-23)
(0.00960019 7.40892e-05 1.05304e-23)
(0.00978957 7.14027e-05 -8.85136e-25)
(0.00990395 5.16287e-05 -9.06388e-24)
(0.00996211 2.96727e-05 1.88679e-22)
(0.00998755 1.45383e-05 -1.39112e-22)
(0.0099968 6.27076e-06 -5.13253e-24)
(0.00999943 2.74582e-06 -6.75088e-23)
(0.00999956 1.5341e-06 1.13315e-22)
(0.00999924 1.22959e-06 -4.93685e-23)
(0.00999893 1.2236e-06 5.49341e-23)
(0.00999871 1.26851e-06 -6.91203e-25)
(0.00999861 1.27311e-06 5.18637e-23)
(0.00999864 1.21504e-06 0)
(0.00999875 1.1039e-06 -6.21438e-23)
(0.00999891 9.55096e-07 9.07645e-24)
(0.0099991 7.81929e-07 -7.46625e-23)
(0.00999931 5.91674e-07 0)
(0.00999954 3.87217e-07 0)
(0.0099998 1.65496e-07 6.81816e-23)
(0.0100001 -6.33381e-08 -6.7665e-23)
(0.0100004 -2.92448e-07 0)
(0.0100008 -5.20682e-07 0)
(0.0100012 -7.48136e-07 -6.07512e-23)
(0.0100018 -9.80663e-07 1.38954e-23)
(0.0100025 -1.21243e-06 -6.84076e-23)
(0.0100035 -1.45034e-06 0)
(0.0100049 -1.68509e-06 3.46384e-23)
(0.0100068 -1.84588e-06 1.9144e-23)
(0.0100093 -1.86893e-06 -1.12432e-23)
(0.0100113 -1.8098e-06 6.40453e-24)
(0.0100102 -2.42545e-06 0)
(0.0100016 -5.13552e-06 8.40817e-24)
(0.00997956 -1.31607e-05 6.69476e-24)
(0.0099422 -3.09419e-05 -1.08386e-22)
(0.00988774 -6.24782e-05 1.97953e-23)
(0.00982392 -0.000109332 4.057e-23)
(0.00976591 -0.000163594 2.60562e-23)
(0.00973018 -0.000216079 -8.07887e-24)
(0.00972105 -0.000245559 0)
(0.00974567 -0.000241767 0)
(0.00980203 -0.00020611 0)
(0.00989596 -0.00014281 1.25259e-21)
(0.0100077 -4.49363e-05 -1.61931e-22)
(0.0101301 6.17256e-05 -5.14576e-22)
(0.0102553 0.000161533 -3.2692e-22)
(0.0103786 0.000226013 0)
(0.0103932 0.000225934 1.70488e-23)
(0.0103446 0.000192651 -9.75673e-23)
(0.0102593 0.000142847 6.08214e-25)
(0.0101364 8.90196e-05 -2.25056e-23)
(0.0100018 4.491e-05 1.89538e-23)
(0.00989309 1.95543e-05 1.97506e-23)
(0.00982824 1.1011e-05 0)
(0.00978795 7.88794e-06 1.56595e-24)
(0.00975341 6.50351e-06 0)
(0.00972061 6.06349e-06 2.48e-24)
(0.00968863 6.10557e-06 2.97408e-24)
(0.00965601 6.39401e-06 2.39399e-22)
(0.00962169 6.85605e-06 -2.39754e-22)
(0.00958537 7.46974e-06 -1.55568e-22)
(0.00954712 8.04087e-06 1.60704e-22)
(0.00950714 8.50031e-06 -1.92587e-22)
(0.00946574 8.84931e-06 4.27206e-22)
(0.00942329 9.10962e-06 -2.14613e-22)
(0.00937998 9.3176e-06 0)
(0.0093358 9.51979e-06 9.0827e-24)
(0.00929047 9.76476e-06 -9.99169e-24)
(0.00924343 1.00973e-05 3.74851e-22)
(0.00919392 1.05593e-05 -3.51677e-22)
(0.00914093 1.11989e-05 4.32872e-22)
(0.0090832 1.20899e-05 -4.18422e-22)
(0.00901905 1.33646e-05 2.71211e-22)
(0.00894606 1.52702e-05 -2.38937e-22)
(0.00886036 1.82755e-05 1.82113e-23)
(0.00875528 2.32909e-05 1.9851e-23)
(0.00861882 3.21647e-05 0)
(0.00842814 4.88578e-05 2.40806e-23)
(0.00813818 8.20944e-05 2.71092e-23)
(0.00765212 0.000152421 3.10156e-22)
(0.00673957 0.000326073 -3.19441e-22)
(0.00502668 0.00082639 0)
(0.00356099 0.00137607 6.88228e-23)
(-1.30907e-05 -0.00243538 -2.66595e-23)
(6.61571e-05 -0.0023552 7.73727e-24)
(0.00114451 -0.00168958 -1.32032e-23)
(0.0021984 -0.00121249 3.97782e-23)
(0.00304213 -0.000874856 -7.3465e-23)
(0.0037232 -0.000635341 1.25192e-23)
(0.00427887 -0.000472681 2.38404e-23)
(0.00473219 -0.000362924 -5.83529e-24)
(0.00510429 -0.000286749 -3.3723e-24)
(0.00541326 -0.000232031 -2.53814e-24)
(0.00567258 -0.000191425 -2.29807e-24)
(0.00589201 -0.000160268 -8.28134e-24)
(0.00607875 -0.00013556 6.85474e-24)
(0.00623821 -0.000115372 -2.64105e-24)
(0.0063745 -9.84602e-05 2.67653e-24)
(0.0064908 -8.40071e-05 9.56495e-25)
(0.00658964 -7.14727e-05 -1.56701e-24)
(0.00667308 -6.05028e-05 7.78402e-24)
(0.00674288 -5.08757e-05 1.61458e-23)
(0.0068006 -4.24709e-05 -2.04079e-23)
(0.0068477 -3.52537e-05 1.96704e-24)
(0.00688564 -2.92706e-05 5.14715e-23)
(0.00691594 -2.46535e-05 -5.1968e-23)
(0.0069403 -2.16347e-05 -6.99546e-23)
(0.00696071 -2.05777e-05 7.12013e-23)
(0.00697958 -2.20335e-05 2.7329e-24)
(0.00699995 -2.68446e-05 1.09643e-22)
(0.0070257 -3.63406e-05 2.01839e-24)
(0.00706146 -5.27771e-05 -2.41283e-22)
(0.00711685 -7.98569e-05 -3.91824e-24)
(0.00720743 -0.000125348 1.21968e-22)
(0.00724507 -0.000215963 7.57002e-23)
(0.00715287 -0.000375884 1.57508e-22)
(0.00694116 -0.000619669 8.0486e-23)
(0.00666282 -0.000960168 -1.99426e-22)
(0.00636221 -0.00141526 -6.95976e-22)
(0.0060936 -0.00199696 -1.3222e-22)
(0.00580884 -0.00274103 8.83922e-22)
(0.00543867 -0.00357714 -2.72107e-22)
(0.00506118 -0.00437165 -6.57553e-22)
(0.00477377 -0.0050632 -1.00164e-21)
(0.00455444 -0.00563667 -1.37918e-21)
(0.00438164 -0.0060815 0)
(0.00425011 -0.00639726 -2.53694e-21)
(0.00414883 -0.00659437 1.20622e-21)
(0.00406264 -0.00668456 -1.17355e-21)
(0.00397985 -0.0066783 1.1936e-21)
(0.00389304 -0.00659115 0)
(0.00378504 -0.0064384 1.99816e-23)
(0.00364243 -0.00622551 1.22679e-21)
(0.00345648 -0.00595612 -1.42675e-21)
(0.00323797 -0.00562014 1.65702e-22)
(0.00300247 -0.00522599 1.44607e-21)
(0.00276045 -0.00474081 -3.09576e-22)
(0.00258491 -0.0041504 1.20837e-21)
(0.00255355 -0.0034319 0)
(0.00276521 -0.00262001 2.72487e-22)
(0.00332005 -0.00172828 -5.27485e-23)
(0.00429769 -0.000865469 -3.32598e-24)
(0.00559063 -0.000180326 -5.47479e-23)
(0.00695329 0.000220617 -2.93209e-22)
(0.00813603 0.000382868 -5.92845e-22)
(0.00896707 0.000347583 -4.26915e-22)
(0.00947698 0.000247313 -3.94759e-22)
(0.00975866 0.000151078 3.27606e-23)
(0.00989491 8.23447e-05 -3.20099e-23)
(0.00995366 4.17446e-05 0)
(0.00997847 2.11496e-05 0)
(0.00998836 1.15493e-05 -2.83028e-22)
(0.00999279 6.92363e-06 1.37885e-22)
(0.00999533 4.47071e-06 1.7184e-23)
(0.00999691 2.89832e-06 -1.70568e-22)
(0.009998 1.67821e-06 -1.19944e-22)
(0.00999888 6.42579e-07 -1.54899e-22)
(0.00999971 -3.1344e-07 -3.87924e-25)
(0.0100005 -1.15252e-06 8.57308e-24)
(0.0100012 -1.8704e-06 1.51587e-22)
(0.0100019 -2.50046e-06 -1.31075e-22)
(0.0100026 -3.06092e-06 -8.15126e-24)
(0.0100033 -3.55295e-06 -1.31283e-22)
(0.0100039 -3.98533e-06 1.27958e-22)
(0.0100047 -4.39344e-06 0)
(0.0100056 -4.77038e-06 0)
(0.0100068 -5.12353e-06 0)
(0.0100082 -5.40413e-06 1.11844e-22)
(0.0100099 -5.52745e-06 -3.29963e-24)
(0.0100118 -5.18277e-06 6.05744e-24)
(0.010013 -4.01798e-06 -6.57351e-24)
(0.0100117 -9.83129e-07 5.07444e-24)
(0.010005 4.13965e-06 -8.16296e-23)
(0.00998705 9.78524e-06 3.4627e-24)
(0.0099552 1.17325e-05 -1.36347e-23)
(0.00991079 3.22652e-06 -4.92168e-23)
(0.00986024 -2.19599e-05 5.77074e-23)
(0.00981979 -6.45287e-05 -8.23912e-23)
(0.00979831 -0.000117571 6.969e-23)
(0.00981131 -0.000165307 -1.84823e-22)
(0.00986417 -0.000185289 -2.78142e-22)
(0.00995945 -0.000167321 3.42837e-22)
(0.0100836 -0.000103417 4.18225e-22)
(0.0102199 6.31681e-06 0)
(0.0103427 0.000145733 -3.07051e-22)
(0.0104395 0.000290981 3.48193e-22)
(0.0104885 0.000415998 8.13002e-25)
(0.0104945 0.000495734 1.61914e-22)
(0.0104495 0.000507249 0)
(0.0103393 0.000468304 1.15192e-21)
(0.0101736 0.00036332 1.57742e-21)
(0.00995769 0.000211789 8.57504e-22)
(0.00969871 3.28765e-05 8.27945e-22)
(0.00940255 -0.000151503 1.02954e-21)
(0.00908289 -0.000315976 -1.78497e-21)
(0.00875434 -0.000438354 5.10638e-23)
(0.00844825 -0.000493635 -6.3542e-22)
(0.00820891 -0.000472501 4.23534e-23)
(0.00808237 -0.00038502 -7.05219e-23)
(0.00812988 -0.000232672 -1.39278e-24)
(0.00836428 -6.49164e-05 3.71678e-23)
(0.00873151 6.61985e-05 8.29029e-24)
(0.00914379 0.000139185 -7.99623e-24)
(0.0094887 0.000136866 0)
(0.00972575 0.000106122 -2.08749e-22)
(0.00986619 6.89193e-05 -4.18079e-24)
(0.00993985 3.92407e-05 1.03991e-23)
(0.00997395 2.13479e-05 7.61314e-23)
(0.00998742 1.219e-05 -6.70811e-23)
(0.0099925 8.0463e-06 -6.10711e-23)
(0.00999438 6.38489e-06 -1.1599e-22)
(0.00999499 5.75879e-06 -1.17294e-22)
(0.00999516 5.42464e-06 -5.44046e-23)
(0.00999534 5.06371e-06 -7.79973e-24)
(0.00999563 4.59892e-06 -6.61417e-23)
(0.00999601 4.03548e-06 1.40245e-22)
(0.00999647 3.40046e-06 -1.83734e-23)
(0.00999698 2.71562e-06 -5.53452e-23)
(0.00999752 1.99327e-06 0)
(0.00999809 1.25232e-06 0)
(0.00999867 5.14629e-07 -7.387e-25)
(0.00999933 -2.41983e-07 1.80065e-23)
(0.01 -1.02219e-06 5.36268e-23)
(0.0100009 -1.81505e-06 1.64954e-23)
(0.0100018 -2.57981e-06 -8.76504e-25)
(0.0100029 -3.28713e-06 -3.2318e-23)
(0.010004 -3.85311e-06 2.72484e-23)
(0.0100049 -4.08582e-06 -3.72249e-23)
(0.010005 -3.74394e-06 0)
(0.0100027 -2.33532e-06 -6.71833e-24)
(0.00999358 7.09913e-07 6.60335e-24)
(0.00997195 4.19866e-06 -4.85523e-24)
(0.00993304 4.11006e-06 0)
(0.00987575 -7.83482e-06 0)
(0.00980598 -3.9455e-05 0)
(0.00973505 -9.49429e-05 0)
(0.00968591 -0.000169734 -3.93404e-23)
(0.00966596 -0.000248699 -8.76804e-23)
(0.00967976 -0.000310305 -3.73911e-23)
(0.00973943 -0.000326723 9.89533e-23)
(0.00984205 -0.000305306 6.95709e-22)
(0.00997427 -0.00023097 -2.56922e-22)
(0.0101175 -0.000109688 -6.08517e-22)
(0.0102505 3.60614e-05 -1.7849e-23)
(0.0103704 0.000173713 4.12537e-22)
(0.010443 0.000274057 -4.54681e-23)
(0.0104851 0.000312083 3.87209e-23)
(0.0104331 0.000301891 1.59829e-23)
(0.0103228 0.000271342 5.19629e-23)
(0.0101796 0.000222782 0)
(0.0100125 0.000171346 0)
(0.00984094 0.000126293 4.71468e-24)
(0.00968897 9.24888e-05 -7.24549e-23)
(0.00957166 7.05018e-05 6.73761e-23)
(0.00947692 5.72143e-05 -1.73444e-24)
(0.00938954 5.03042e-05 1.70006e-22)
(0.00930489 4.77753e-05 -1.67923e-22)
(0.00922098 4.80048e-05 -1.02166e-23)
(0.00913544 4.99015e-05 -2.77507e-22)
(0.00904642 5.27282e-05 -3.62681e-23)
(0.00895308 5.59273e-05 1.45944e-22)
(0.00885536 5.89287e-05 1.61004e-22)
(0.00875379 6.14247e-05 2.20538e-22)
(0.00864908 6.33641e-05 -2.19384e-22)
(0.00854186 6.48905e-05 8.60926e-24)
(0.00843248 6.63007e-05 -3.12137e-22)
(0.00832072 6.79848e-05 3.22662e-22)
(0.00820581 7.03567e-05 1.11625e-23)
(0.00808639 7.38034e-05 3.76445e-22)
(0.00796059 7.86767e-05 -4.54222e-22)
(0.00782608 8.53462e-05 4.91958e-22)
(0.00768001 9.43268e-05 -5.40384e-22)
(0.00751872 0.00010651 2.38669e-22)
(0.00733712 0.000123561 -3.10174e-22)
(0.00712737 0.000148635 2.08965e-23)
(0.00687652 0.000187764 -6.75807e-23)
(0.0065622 0.000252697 -4.1668e-22)
(0.00614473 0.000366848 4.45622e-22)
(0.00555451 0.000577506 -9.22213e-23)
(0.00467422 0.000979138 -3.57513e-23)
(0.0033243 0.0017443 1.25287e-22)
(0.00137363 0.00301407 0)
(0.000182582 0.00352328 -1.85335e-22)
(-0.000238611 -0.00208869 0)
(-0.000638902 -0.00257824 -7.20275e-23)
(-0.000321905 -0.00226701 3.13228e-23)
(0.000230016 -0.00186133 1.48241e-23)
(0.000826962 -0.00149452 -3.3504e-23)
(0.00139965 -0.00119418 3.59409e-23)
(0.00192401 -0.000962984 -3.56205e-23)
(0.00239118 -0.000787889 4.75425e-24)
(0.00280189 -0.000654156 3.51893e-24)
(0.00316135 -0.000550339 1.02472e-23)
(0.00347565 -0.000468188 2.02464e-24)
(0.00375038 -0.000401778 6.51383e-24)
(0.00399045 -0.000346907 -1.1867e-23)
(0.00420003 -0.000300632 2.40347e-23)
(0.00438262 -0.000260898 -8.37279e-24)
(0.00454112 -0.000226268 3.59711e-24)
(0.004678 -0.000195738 -2.42061e-24)
(0.00479539 -0.000168622 -3.86722e-25)
(0.00489515 -0.000144476 -1.61197e-23)
(0.00497902 -0.000123048 1.36862e-23)
(0.00504867 -0.000104266 -2.04236e-24)
(0.0051058 -8.82185e-05 -7.40209e-24)
(0.00515222 -7.51749e-05 5.90281e-23)
(0.00518999 -6.56041e-05 -6.30391e-23)
(0.00522151 -6.02253e-05 -8.58834e-23)
(0.00524966 -6.00913e-05 6.83144e-23)
(0.00527799 -6.673e-05 1.11921e-22)
(0.00531089 -8.23874e-05 -1.04062e-22)
(0.00535333 -0.000110558 0)
(0.00541421 -0.000156532 0)
(0.00550799 -0.000228863 0)
(0.00556035 -0.000355712 0)
(0.00550164 -0.000562322 -3.62567e-22)
(0.00534357 -0.000863327 -2.98954e-22)
(0.00514101 -0.00127155 2.58109e-22)
(0.00493494 -0.00180386 -1.92579e-22)
(0.00475896 -0.00246922 -4.3326e-22)
(0.00457442 -0.00326703 1.45136e-22)
(0.00433629 -0.00410999 5.71989e-22)
(0.00410521 -0.0048991 1.36808e-22)
(0.00393556 -0.00559502 1.77156e-21)
(0.00380217 -0.00617946 0)
(0.0036897 -0.00663934 -8.57915e-22)
(0.00359632 -0.00697238 -8.86761e-22)
(0.0035136 -0.00718305 1.22334e-22)
(0.0034285 -0.00728403 8.05882e-22)
(0.00333102 -0.00728318 -1.93882e-21)
(0.00321267 -0.00719705 -9.02989e-22)
(0.00306069 -0.00703713 -2.10663e-22)
(0.00286396 -0.00681967 -4.78944e-24)
(0.00262073 -0.00652991 4.05953e-22)
(0.00234017 -0.00617411 -3.15505e-22)
(0.00203708 -0.00575694 -1.18356e-22)
(0.00172629 -0.00525849 1.44289e-23)
(0.00146366 -0.00467458 1.15737e-21)
(0.00130456 -0.00399301 -4.32191e-22)
(0.00132712 -0.00323271 -4.26548e-22)
(0.00161516 -0.00239467 2.04479e-22)
(0.00227538 -0.00153577 3.3938e-24)
(0.00332288 -0.000747162 0)
(0.00465589 -0.000124405 -2.60806e-23)
(0.00610847 0.000276073 2.4373e-23)
(0.00739749 0.000447003 1.34723e-22)
(0.0083952 0.000427093 2.85494e-22)
(0.00908079 0.00033911 -2.34253e-22)
(0.00950917 0.000235191 2.11634e-22)
(0.00975127 0.000148011 0)
(0.00987716 8.73662e-05 0)
(0.00993746 5.01566e-05 2.89775e-22)
(0.00996559 2.89395e-05 -2.78661e-22)
(0.00997974 1.72133e-05 0)
(0.00998734 1.05571e-05 1.20113e-22)
(0.00999179 6.39421e-06 8.70596e-25)
(0.00999476 3.47262e-06 -1.20646e-22)
(0.00999697 1.16448e-06 1.46671e-22)
(0.00999878 -7.67713e-07 1.29138e-22)
(0.0100003 -2.38174e-06 -2.80736e-22)
(0.0100018 -3.74102e-06 8.44074e-24)
(0.0100031 -4.89886e-06 8.17792e-24)
(0.0100043 -5.87863e-06 2.46016e-22)
(0.0100055 -6.69596e-06 -2.47682e-22)
(0.0100067 -7.37956e-06 -3.76853e-24)
(0.0100079 -7.92443e-06 1.09826e-25)
(0.0100092 -8.29288e-06 3.63303e-24)
(0.0100104 -8.28787e-06 -1.08919e-22)
(0.0100112 -7.6084e-06 0)
(0.0100108 -5.58641e-06 2.60595e-23)
(0.0100079 -1.36852e-06 3.80898e-25)
(0.00999845 6.31179e-06 1.77132e-23)
(0.0099788 1.75569e-05 8.15362e-23)
(0.00994636 2.92056e-05 4.72741e-24)
(0.00990322 3.47313e-05 1.28776e-22)
(0.0098559 2.56475e-05 4.95068e-23)
(0.00982024 -4.2681e-06 -1.43857e-22)
(0.00980929 -5.32813e-05 -4.73544e-23)
(0.0098346 -0.000110401 1.70247e-22)
(0.00990445 -0.000158231 4.0879e-22)
(0.0100125 -0.00017464 2.71569e-22)
(0.0101434 -0.00014751 0)
(0.0102771 -7.27207e-05 -3.03193e-22)
(0.0103935 4.24126e-05 0)
(0.0104664 0.000178655 3.07907e-22)
(0.0105028 0.000311737 -8.05449e-26)
(0.0104787 0.00041527 1.41158e-22)
(0.0103979 0.000469153 -2.08119e-22)
(0.0102544 0.000458573 0)
(0.0100593 0.000387778 -1.23915e-21)
(0.00982207 0.000263507 -7.72426e-22)
(0.00954838 0.000104466 -1.04811e-22)
(0.00924464 -6.91399e-05 -9.03126e-22)
(0.00891532 -0.000237322 0)
(0.0085743 -0.000379229 7.92975e-22)
(0.00823571 -0.000478807 0)
(0.007925 -0.000523184 -4.06674e-22)
(0.00767635 -0.000503322 2.23033e-23)
(0.00752185 -0.000430011 0)
(0.00750553 -0.000304094 0)
(0.00765643 -0.00015034 -3.78693e-23)
(0.00796755 3.55626e-07 0)
(0.00840401 0.000116025 5.72805e-24)
(0.00886519 0.000175493 -1.09349e-23)
(0.0092648 0.000171849 5.23302e-24)
(0.0095607 0.000142151 0)
(0.00975634 0.00010241 0)
(0.00987285 6.82083e-05 8.86394e-23)
(0.00993418 4.42175e-05 -7.82064e-23)
(0.00996406 2.93225e-05 1.26489e-22)
(0.00997796 2.09629e-05 5.7977e-23)
(0.00998421 1.64523e-05 5.67104e-24)
(0.0099871 1.38915e-05 5.42167e-23)
(0.00998861 1.21701e-05 -7.99275e-24)
(0.00998964 1.07534e-05 6.60735e-23)
(0.00999053 9.42121e-06 1.51724e-23)
(0.0099914 8.105e-06 3.68823e-25)
(0.00999227 6.79038e-06 1.05767e-23)
(0.00999314 5.47626e-06 -1.84995e-23)
(0.00999401 4.17794e-06 7.57705e-23)
(0.00999486 2.90161e-06 1.51092e-22)
(0.00999569 1.68627e-06 0)
(0.00999649 5.3205e-07 -7.18733e-23)
(0.0099972 -5.22339e-07 -8.88068e-23)
(0.00999774 -1.35231e-06 1.70836e-23)
(0.00999792 -1.88457e-06 4.62196e-23)
(0.00999731 -1.81494e-06 2.90528e-23)
(0.00999475 -6.72728e-07 -2.946e-23)
(0.00998818 2.33348e-06 -6.3237e-24)
(0.00997404 8.59846e-06 2.42882e-24)
(0.00994693 1.83875e-05 2.42744e-23)
(0.00990282 2.8133e-05 4.87823e-24)
(0.00984182 2.99338e-05 1.81514e-23)
(0.009772 1.31501e-05 -1.6793e-24)
(0.00970649 -3.03039e-05 1.14515e-24)
(0.00966517 -0.000100726 7.23691e-23)
(0.00965882 -0.00018733 1.88835e-22)
(0.00969236 -0.000269444 1.38621e-22)
(0.00977455 -0.000324993 0)
(0.00989694 -0.000330167 3.84931e-22)
(0.010039 -0.000290387 -1.24256e-21)
(0.0101812 -0.000193698 -4.68278e-23)
(0.0103044 -6.12657e-05 0)
(0.0103926 7.92177e-05 -3.37885e-22)
(0.0104499 0.000198061 0)
(0.0104303 0.00027273 0)
(0.0103682 0.000296581 -3.8799e-23)
(0.010246 0.000297174 -1.4744e-23)
(0.0100957 0.000285036 0)
(0.00993422 0.000261002 0)
(0.0097667 0.000232366 6.25093e-23)
(0.00960344 0.000204201 -9.62187e-23)
(0.00945699 0.000178327 -2.66509e-23)
(0.00933167 0.000156477 -2.1297e-23)
(0.00921499 0.000141022 1.15084e-22)
(0.00909797 0.000132421 -4.82384e-24)
(0.00897973 0.000129721 1.22424e-23)
(0.00885965 0.000131553 2.14081e-23)
(0.00873584 0.000136476 2.84933e-22)
(0.00860673 0.000143125 6.05747e-23)
(0.00847161 0.000150267 -3.3722e-22)
(0.00833056 0.000156992 1.21628e-23)
(0.00818417 0.000162746 -2.34636e-22)
(0.00803321 0.000167418 2.50658e-22)
(0.0078783 0.000171348 -1.70968e-23)
(0.00771965 0.000175232 0)
(0.00755675 0.000179982 -2.09466e-23)
(0.00738838 0.000186565 -4.65969e-23)
(0.00721258 0.000195881 4.51002e-22)
(0.00702674 0.000208748 -3.9861e-22)
(0.00682768 0.000226016 5.06562e-22)
(0.00661158 0.000248845 -1.02578e-21)
(0.00637366 0.000279218 8.87844e-22)
(0.0061074 0.000320803 -3.00414e-22)
(0.00580307 0.000380441 -1.27427e-22)
(0.0054453 0.000470865 4.62987e-23)
(0.00500887 0.000615694 0)
(0.0044529 0.000858142 -1.67207e-22)
(0.00371641 0.00127339 6.28867e-23)
(0.00272847 0.00197389 0)
(0.00146035 0.00305206 -8.28796e-23)
(4.66877e-05 0.00423886 1.68575e-22)
(-0.000261374 0.00362438 2.88351e-22)
(-0.000179852 -0.00155307 -5.41298e-23)
(-0.000668923 -0.00241661 0)
(-0.000714496 -0.00244664 0)
(-0.000541817 -0.00221633 -3.38957e-23)
(-0.000226964 -0.00192081 2.74333e-23)
(0.000149692 -0.00163601 3.97941e-23)
(0.0005397 -0.00139021 -3.96488e-23)
(0.000919987 -0.00118658 1.4038e-23)
(0.00127771 -0.00101949 0)
(0.00160744 -0.000881851 -7.82336e-24)
(0.00190759 -0.000767353 0)
(0.00217847 -0.000670838 1.31027e-24)
(0.00242132 -0.000588297 0)
(0.00263782 -0.000516701 -3.33655e-24)
(0.00282973 -0.000453794 0)
(0.0029988 -0.000397914 0)
(0.00314666 -0.000347853 -9.87268e-25)
(0.00327489 -0.000302765 -2.23044e-25)
(0.00338499 -0.000262098 -8.54611e-24)
(0.00347842 -0.000225561 8.6494e-24)
(0.00355671 -0.000193106 0)
(0.0036215 -0.000164929 -3.74833e-23)
(0.00367463 -0.000141489 4.21636e-23)
(0.00371821 -0.000123548 7.51503e-24)
(0.00375479 -0.000112226 0)
(0.00378746 -0.000109104 9.99758e-23)
(0.00381999 -0.00011638 -9.9095e-23)
(0.00385694 -0.000137107 0)
(0.00390341 -0.000175684 -1.3674e-22)
(0.00396775 -0.000238167 1.35965e-22)
(0.00406272 -0.000333234 -1.42043e-22)
(0.00413134 -0.000487717 2.80971e-22)
(0.00411878 -0.000725772 3.2774e-22)
(0.00403877 -0.00106231 5.83761e-23)
(0.00394069 -0.00150947 1.29346e-22)
(0.00385509 -0.00208067 -1.53053e-22)
(0.0037974 -0.00277551 7.06058e-23)
(0.00373317 -0.00357008 4.70816e-23)
(0.00363133 -0.00438074 -6.7857e-23)
(0.00353437 -0.00513712 -3.67465e-23)
(0.00346823 -0.00581016 -1.50702e-23)
(0.00341126 -0.00637914 -1.72172e-22)
(0.00335403 -0.0068295 1.59204e-21)
(0.00329682 -0.00715811 6.85242e-22)
(0.00323308 -0.00736828 2.12565e-22)
(0.00315241 -0.0074652 0)
(0.00304707 -0.00745771 7.86276e-23)
(0.00290926 -0.00737056 2.02898e-21)
(0.00273089 -0.00719858 9.75866e-22)
(0.00250549 -0.00695587 1.38196e-22)
(0.00223516 -0.00664643 2.3109e-21)
(0.00193049 -0.00627556 0)
(0.00160586 -0.00584779 -1.34549e-21)
(0.00127868 -0.00535636 1.29077e-23)
(0.000988833 -0.00480401 2.3607e-24)
(0.000773665 -0.00418894 5.34253e-22)
(0.000685211 -0.00352299 2.5934e-22)
(0.00077964 -0.00280281 -3.28254e-22)
(0.00114296 -0.00204799 6.08861e-23)
(0.00183556 -0.00129837 2.36156e-23)
(0.00285314 -0.000612507 -1.12695e-22)
(0.00416775 -4.76741e-05 -3.89963e-24)
(0.00556589 0.000321384 2.45319e-22)
(0.00686322 0.000486792 -2.804e-22)
(0.00792121 0.000484626 3.70456e-22)
(0.00870202 0.000412219 8.80729e-26)
(0.00923295 0.000310367 -1.89554e-22)
(0.00956582 0.000214976 -1.93937e-23)
(0.00976009 0.000140509 -1.46633e-22)
(0.00986701 8.849e-05 1.76456e-22)
(0.00992446 5.47963e-05 1.19513e-22)
(0.0099552 3.38377e-05 0)
(0.00997207 2.08186e-05 1.37889e-22)
(0.00998201 1.24139e-05 1.21335e-22)
(0.00998843 6.658e-06 1.72849e-23)
(0.00999298 2.41352e-06 -2.77444e-22)
(0.0099964 -8.57521e-07 1.54623e-22)
(0.00999917 -3.4544e-06 -1.7119e-23)
(0.0100015 -5.53297e-06 1.35426e-22)
(0.0100036 -7.17052e-06 -1.30777e-22)
(0.0100054 -8.40196e-06 1.27594e-22)
(0.010007 -9.24839e-06 -1.26755e-22)
(0.0100083 -9.64132e-06 1.23126e-22)
(0.0100091 -9.4207e-06 0)
(0.0100093 -8.34474e-06 3.48395e-24)
(0.0100082 -5.70053e-06 3.21497e-24)
(0.0100039 -3.42084e-07 -3.2927e-23)
(0.00999411 9.09924e-06 0)
(0.00997536 2.37695e-05 -2.88911e-23)
(0.00994512 4.22251e-05 -4.18301e-23)
(0.00990535 5.89355e-05 1.04626e-23)
(0.00986356 6.52216e-05 -8.31495e-23)
(0.00983096 5.12395e-05 -9.01126e-23)
(0.00982985 1.2324e-05 8.90749e-23)
(0.00986413 -4.62942e-05 -2.39276e-23)
(0.00994235 -0.000110251 -1.50103e-22)
(0.0100572 -0.00015989 -2.14152e-22)
(0.010191 -0.000174366 -1.51182e-23)
(0.0103184 -0.000143209 -2.38265e-22)
(0.0104209 -6.68636e-05 5.09952e-22)
(0.0104763 4.26829e-05 0)
(0.0104806 0.000165064 0)
(0.010425 0.000275968 0)
(0.0103016 0.000353162 -1.33771e-22)
(0.0101272 0.000379357 -2.25391e-23)
(0.00990996 0.000347637 1.37993e-23)
(0.00965829 0.000264531 2.84726e-23)
(0.00938098 0.000142158 -6.58819e-22)
(0.00908324 -1.88746e-06 -7.77122e-22)
(0.00876955 -0.00014976 0)
(0.00844322 -0.000284823 0)
(0.00811709 -0.000392124 0)
(0.0078034 -0.000462717 0)
(0.00752127 -0.000490194 2.30136e-22)
(0.00729392 -0.000474962 1.11588e-22)
(0.00714199 -0.00042127 0)
(0.00709177 -0.000330475 1.63132e-24)
(0.00716826 -0.000210515 0)
(0.0073835 -7.43249e-05 0)
(0.00774471 5.84986e-05 0)
(0.00820061 0.000156868 0)
(0.00867392 0.000206838 -3.71546e-24)
(0.0090907 0.000203576 9.55071e-23)
(0.00941689 0.000175173 3.22069e-24)
(0.00964654 0.00013683 -8.46382e-23)
(0.00979267 0.000100776 7.38489e-23)
(0.00987895 7.244e-05 -6.53755e-23)
(0.00992709 5.26394e-05 0)
(0.00995261 3.97441e-05 5.64298e-23)
(0.00996594 3.151e-05 -5.08619e-23)
(0.00997307 2.60666e-05 4.33679e-23)
(0.00997719 2.21725e-05 -6.26137e-23)
(0.00997989 1.91057e-05 6.03902e-24)
(0.00998191 1.6501e-05 8.98144e-24)
(0.00998355 1.41846e-05 -7.87412e-24)
(0.00998498 1.20669e-05 -5.57921e-23)
(0.00998622 1.01319e-05 -1.86716e-23)
(0.00998728 8.37509e-06 -7.63354e-23)
(0.00998805 6.87071e-06 -1.90149e-23)
(0.00998846 5.6476e-06 9.51222e-23)
(0.0099884 4.77611e-06 1.46708e-22)
(0.00998748 4.59364e-06 8.96037e-23)
(0.00998516 5.36429e-06 -1.71729e-23)
(0.00998035 7.85595e-06 -1.77824e-23)
(0.00997099 1.31154e-05 1.27821e-23)
(0.00995406 2.2346e-05 -6.33423e-24)
(0.00992522 3.65768e-05 2.47473e-24)
(0.00988056 5.42681e-05 -3.94414e-23)
(0.00982082 6.85394e-05 0)
(0.00975419 6.77804e-05 -2.64197e-23)
(0.00969638 4.02795e-05 -4.88384e-23)
(0.00966283 -1.94276e-05 0)
(0.00967087 -0.000105763 -3.85291e-23)
(0.0097228 -0.000202815 -1.67568e-22)
(0.00982391 -0.000286791 1.84639e-22)
(0.00995653 -0.00033473 -2.50902e-22)
(0.010102 -0.000329494 -4.85332e-22)
(0.0102348 -0.000274514 5.41486e-22)
(0.0103393 -0.000171823 4.55668e-22)
(0.0103995 -4.64881e-05 -3.83387e-22)
(0.0104172 7.65822e-05 4.20861e-22)
(0.0103771 0.000173777 -1.43935e-22)
(0.0102561 0.000232847 -1.48597e-23)
(0.0101073 0.000261418 6.25537e-23)
(0.00994665 0.00027892 0)
(0.00978437 0.000288383 -6.9379e-23)
(0.00962648 0.000287659 -3.00817e-23)
(0.00947449 0.000281564 -8.06368e-23)
(0.00933199 0.000272497 1.12988e-22)
(0.00920417 0.000260478 -9.7567e-23)
(0.0090884 0.000246622 9.80481e-23)
(0.00897009 0.000235806 0)
(0.00884301 0.000230866 1.06382e-23)
(0.00870904 0.00023201 2.05811e-22)
(0.00856919 0.000238335 -2.3278e-22)
(0.00842272 0.000248416 -2.93339e-22)
(0.00826882 0.000260605 2.54422e-22)
(0.00810726 0.000273288 -1.89979e-22)
(0.00793826 0.000285187 1.90161e-22)
(0.00776238 0.000295561 0)
(0.00758023 0.000304363 -2.98795e-22)
(0.00739221 0.000312249 2.67703e-22)
(0.00719822 0.000320433 -3.66995e-22)
(0.00699745 0.000330445 3.28442e-22)
(0.00678831 0.00034388 4.71316e-23)
(0.00656848 0.000362215 -5.19024e-23)
(0.00633496 0.00038679 0)
(0.00608419 0.000418992 0)
(0.00581189 0.000460727 -6.72586e-23)
(0.00551283 0.000515223 0)
(0.00518 0.00058837 0)
(0.00480336 0.000690931 1.7238e-22)
(0.00436773 0.000842254 0)
(0.00385002 0.0010762 0)
(0.00321715 0.00144872 4.56548e-22)
(0.00243078 0.00204033 -2.33952e-22)
(0.00147541 0.00292618 0)
(0.00043404 0.0040369 0)
(-0.000429345 0.00476303 -1.90841e-23)
(-0.000246597 0.00323685 -1.78426e-22)
(-0.000120862 -0.00118251 2.60567e-23)
(-0.000542721 -0.00214913 -5.02807e-23)
(-0.000741183 -0.00240393 -3.48789e-23)
(-0.000758481 -0.0023358 6.85605e-23)
(-0.000649544 -0.00214538 -9.95666e-23)
(-0.000446854 -0.00191912 4.78564e-23)
(-0.000197392 -0.00169782 0)
(7.25127e-05 -0.00149797 -1.42085e-23)
(0.000345422 -0.00132262 0)
(0.000610579 -0.00117005 -4.70095e-23)
(0.000861745 -0.00103715 3.66188e-23)
(0.00109548 -0.000920713 -6.55543e-24)
(0.00131015 -0.000817892 -2.21909e-23)
(0.00150518 -0.000726303 1.67212e-23)
(0.00168068 -0.000644034 -4.46216e-24)
(0.00183715 -0.000569595 0)
(0.00197527 -0.000501867 -2.64651e-24)