/*--------------------------------*- C++ -*----------------------------------*\
| =========                 |                                                 |
| \\      /  F ield         | OpenFOAM: The Open Source CFD Toolbox           |
|  \\    /   O peration     | Version:  2506                                  |
|   \\  /    A nd           | Website:  www.openfoam.com                      |
|    \\/     M anipulation  |                                                 |
\*---------------------------------------------------------------------------*/
FoamFile
{
    version     2.0;
    format      ascii;
    arch        "LSB;label=32;scalar=64";
    class       surfaceScalarField;
    location    "4.05";
    object      phi;
}
// * * * * * * * * * * * * * * * * * * * * * * * * * * * * * * * * * * * * * //

dimensions      [0 3 -1 0 0 0 0];

oriented        oriented;

internalField   nonuniform List<scalar> 
7780
(
6.66991e-10
-6.66991e-10
1.16529e-09
-4.98297e-10
1.45434e-09
-2.89057e-10
1.64286e-09
-1.88517e-10
1.77284e-09
-1.29976e-10
1.86556e-09
-9.27192e-11
1.93561e-09
-7.00502e-11
1.99154e-09
-5.59361e-11
2.03802e-09
-4.64739e-11
2.07774e-09
-3.97264e-11
2.11244e-09
-3.46977e-11
2.14325e-09
-3.08048e-11
2.17094e-09
-2.76907e-11
2.19607e-09
-2.51331e-11
2.21906e-09
-2.29886e-11
2.24022e-09
-2.11623e-11
2.25981e-09
-1.95913e-11
2.27805e-09
-1.82365e-11
2.29513e-09
-1.70769e-11
2.31123e-09
-1.61061e-11
2.32656e-09
-1.53295e-11
2.34133e-09
-1.47645e-11
2.35577e-09
-1.44423e-11
2.37018e-09
-1.44128e-11
2.38493e-09
-1.47535e-11
2.40052e-09
-1.55815e-11
2.41759e-09
-1.70782e-11
2.43713e-09
-1.95393e-11
2.46057e-09
-2.34414e-11
2.49011e-09
-2.95368e-11
2.51909e-09
-7.39444e-11
2.504e-09
-3.02094e-10
2.44184e-09
-5.98404e-10
2.34667e-09
-8.74557e-10
2.22876e-09
-1.11455e-09
2.10746e-09
-1.33331e-09
1.99639e-09
-1.54117e-09
1.84725e-09
-1.79325e-09
1.6763e-09
-1.95473e-09
1.53276e-09
-2.02653e-09
1.41591e-09
-2.08374e-09
1.3266e-09
-2.13099e-09
1.25893e-09
-2.16435e-09
1.2084e-09
-2.18575e-09
1.17116e-09
-2.196e-09
1.1426e-09
-2.19422e-09
1.12116e-09
-2.17981e-09
1.10217e-09
-2.15306e-09
1.08208e-09
-2.11231e-09
1.05673e-09
-2.05515e-09
1.02489e-09
-1.97789e-09
9.93524e-10
-1.8768e-09
9.56441e-10
-1.75494e-09
9.30979e-10
-1.59672e-09
9.27034e-10
-1.40417e-09
9.70718e-10
-1.15725e-09
1.06785e-09
-8.62608e-10
1.23268e-09
-4.86842e-10
1.44018e-09
-5.21403e-11
1.6432e-09
3.93789e-10
1.8161e-09
8.05178e-10
1.95579e-09
1.17948e-09
2.06027e-09
1.43438e-09
2.14691e-09
1.65353e-09
2.21706e-09
1.79675e-09
2.27894e-09
1.91153e-09
2.33502e-09
2.00087e-09
2.38634e-09
2.06285e-09
2.43452e-09
2.11008e-09
2.47992e-09
2.14588e-09
2.5236e-09
2.17228e-09
2.56558e-09
2.18814e-09
2.60623e-09
2.19532e-09
2.64592e-09
2.19481e-09
2.68485e-09
2.18675e-09
2.72323e-09
2.17072e-09
2.76113e-09
2.14589e-09
2.79841e-09
2.1057e-09
2.83535e-09
2.0566e-09
2.87164e-09
1.99346e-09
2.90766e-09
1.91074e-09
2.94102e-09
1.78576e-09
2.97274e-09
1.64689e-09
2.99916e-09
1.43956e-09
3.01969e-09
1.19669e-09
3.02712e-09
8.42345e-10
3.02053e-09
4.52017e-10
2.99623e-09
1.59944e-11
2.95709e-09
-4.4184e-10
2.91031e-09
-8.52732e-10
2.86789e-09
-1.17664e-09
2.83358e-09
-1.46099e-09
2.81192e-09
-1.65826e-09
2.79987e-09
-1.83049e-09
2.79612e-09
-1.94343e-09
2.79362e-09
-2.02841e-09
2.78784e-09
-2.09694e-09
2.77476e-09
-2.13601e-09
2.75249e-09
-2.16189e-09
2.71971e-09
-2.17671e-09
2.67751e-09
-2.18405e-09
2.62893e-09
-2.18667e-09
2.5759e-09
-2.18277e-09
2.51994e-09
-2.17263e-09
2.46211e-09
-2.15585e-09
2.40232e-09
-2.13067e-09
2.33929e-09
-2.09483e-09
2.27064e-09
-2.04223e-09
2.19568e-09
-1.9707e-09
2.11198e-09
-1.88402e-09
2.01834e-09
-1.77469e-09
1.92031e-09
-1.6126e-09
1.81807e-09
-1.43919e-09
1.72863e-09
-1.18486e-09
1.66094e-09
-9.03088e-10
1.63443e-09
-5.42788e-10
1.65827e-09
-1.2464e-10
1.71529e-09
3.00025e-10
1.7866e-09
7.02909e-10
1.85971e-09
1.08042e-09
1.92161e-09
1.35964e-09
1.97585e-09
1.58631e-09
2.0236e-09
1.74596e-09
2.06887e-09
1.88152e-09
2.1114e-09
1.97045e-09
2.15234e-09
2.03988e-09
2.19284e-09
2.09625e-09
2.23299e-09
2.13691e-09
2.2728e-09
2.16444e-09
2.31274e-09
2.18279e-09
2.35302e-09
2.19303e-09
2.39398e-09
2.19547e-09
2.43579e-09
2.19022e-09
2.47848e-09
2.17564e-09
2.52286e-09
2.15252e-09
2.5687e-09
2.12043e-09
2.6166e-09
2.07713e-09
2.66689e-09
2.02101e-09
2.7185e-09
1.93573e-09
2.77265e-09
1.83788e-09
2.82846e-09
1.71451e-09
2.88284e-09
1.52457e-09
2.93611e-09
1.31647e-09
2.98063e-09
1.00528e-09
3.01438e-09
6.45189e-10
3.03126e-09
2.30195e-10
3.02979e-09
-2.27595e-10
3.01397e-09
-6.69885e-10
2.99551e-09
-1.03125e-09
2.9799e-09
-1.33882e-09
2.97234e-09
-1.57947e-09
2.97229e-09
-1.76072e-09
2.9788e-09
-1.89184e-09
2.98695e-09
-2.00418e-09
2.99155e-09
-2.07141e-09
2.98855e-09
-2.11913e-09
2.97512e-09
-2.15114e-09
2.94992e-09
-2.17302e-09
2.91245e-09
-2.18179e-09
2.8565e-09
-2.1755e-09
2.78281e-09
-2.16247e-09
2.70026e-09
-2.15104e-09
2.60973e-09
-2.13308e-09
2.51554e-09
-1.70301e-09
2.41855e-09
-1.47885e-09
2.3203e-09
-1.29193e-09
2.22716e-09
-1.05127e-09
2.15197e-09
-7.948e-10
2.10249e-09
-4.9999e-10
2.08621e-09
-1.97866e-10
2.08955e-09
-1.23058e-11
2.08855e-09
9.95981e-13
2.08626e-09
2.29359e-12
2.08436e-09
1.90221e-12
2.08363e-09
7.26607e-13
2.08443e-09
-7.97248e-13
2.08633e-09
-1.90149e-12
2.08878e-09
-2.44863e-12
2.09123e-09
-2.45623e-12
2.09323e-09
-1.99659e-12
2.09437e-09
-1.14162e-12
2.09435e-09
1.85611e-14
2.09316e-09
1.18782e-12
2.09071e-09
2.45261e-12
2.08694e-09
3.77236e-12
2.08183e-09
5.10833e-12
2.07536e-09
6.47355e-12
2.06741e-09
7.94783e-12
2.05774e-09
9.67024e-12
2.04592e-09
1.1818e-11
2.03127e-09
1.46558e-11
2.01267e-09
1.85929e-11
1.98832e-09
2.43576e-11
1.9549e-09
3.342e-11
1.9059e-09
4.90005e-11
1.82748e-09
7.84127e-11
1.68899e-09
1.38496e-10
1.41825e-09
2.70734e-10
8.51963e-10
5.66289e-10
8.51963e-10
-4.21796e-11
-6.24811e-10
1.34991e-10
-6.75468e-10
3.66796e-10
-5.20861e-10
5.69604e-10
-3.91324e-10
7.38288e-10
-2.9866e-10
8.78627e-10
-2.33058e-10
9.96123e-10
-1.87546e-10
1.09569e-09
-1.55505e-10
1.1812e-09
-1.31985e-10
1.25551e-09
-1.14032e-10
1.32071e-09
-9.99025e-11
1.37839e-09
-8.84814e-11
1.42973e-09
-7.90296e-11
1.47564e-09
-7.10489e-11
1.51685e-09
-6.41983e-11
1.55393e-09
-5.82405e-11
1.58735e-09
-5.30124e-11
1.61753e-09
-4.84088e-11
1.64482e-09
-4.43714e-11
1.66959e-09
-4.08802e-11
1.69221e-09
-3.79488e-11
1.71307e-09
-3.56228e-11
1.73262e-09
-3.39853e-11
1.75137e-09
-3.31688e-11
1.76999e-09
-3.33723e-11
1.78929e-09
-3.48863e-11
1.81035e-09
-3.81363e-11
1.83458e-09
-4.37618e-11
1.86391e-09
-5.27762e-11
1.90112e-09
-6.67444e-11
1.94023e-09
-1.13055e-10
1.94024e-09
-3.02104e-10
1.89248e-09
-5.50644e-10
1.80798e-09
-7.90062e-10
1.69854e-09
-1.0051e-09
1.58109e-09
-1.21587e-09
1.46391e-09
-1.42399e-09
1.31859e-09
-1.64792e-09
1.16374e-09
-1.79988e-09
1.03453e-09
-1.89732e-09
9.32168e-10
-1.98137e-09
8.53785e-10
-2.0526e-09
7.94912e-10
-2.10548e-09
7.5146e-10
-2.14229e-09
7.18975e-10
-2.16351e-09
6.92834e-10
-2.16808e-09
6.69897e-10
-2.15688e-09
6.45318e-10
-2.12848e-09
6.1494e-10
-2.08194e-09
5.75692e-10
-2.01591e-09
5.26554e-10
-1.92875e-09
4.7144e-10
-1.82168e-09
4.08356e-10
-1.69185e-09
3.49619e-10
-1.53799e-09
3.05466e-10
-1.36002e-09
2.98225e-10
-1.15001e-09
3.43429e-10
-9.07811e-10
4.71139e-10
-6.14552e-10
6.87583e-10
-2.68584e-10
9.66469e-10
1.14904e-10
1.26409e-09
5.07559e-10
1.54365e-09
8.99921e-10
1.76807e-09
1.20997e-09
1.94658e-09
1.47503e-09
2.08044e-09
1.66289e-09
2.18432e-09
1.80765e-09
2.26754e-09
1.91764e-09
2.33604e-09
1.99435e-09
2.39496e-09
2.05116e-09
2.44708e-09
2.09376e-09
2.4949e-09
2.12447e-09
2.53927e-09
2.14378e-09
2.58106e-09
2.15352e-09
2.62099e-09
2.15488e-09
2.65947e-09
2.14827e-09
2.69686e-09
2.13333e-09
2.73326e-09
2.10948e-09
2.76845e-09
2.07051e-09
2.80269e-09
2.02237e-09
2.83562e-09
1.96054e-09
2.86745e-09
1.87892e-09
2.89542e-09
1.75779e-09
2.92048e-09
1.62183e-09
2.93862e-09
1.42141e-09
2.94949e-09
1.18582e-09
2.94701e-09
8.4483e-10
2.93362e-09
4.654e-10
2.91136e-09
3.82613e-11
2.88757e-09
-4.1805e-10
2.86794e-09
-8.33106e-10
2.85996e-09
-1.16866e-09
2.862e-09
-1.46302e-09
2.87182e-09
-1.66809e-09
2.88291e-09
-1.84158e-09
2.8898e-09
-1.95032e-09
2.88809e-09
-2.0267e-09
2.87544e-09
-2.08428e-09
2.84992e-09
-2.11049e-09
2.81219e-09
-2.12416e-09
2.76457e-09
-2.12909e-09
2.71043e-09
-2.12992e-09
2.65139e-09
-2.12764e-09
2.58869e-09
-2.12007e-09
2.52344e-09
-2.10738e-09
2.45515e-09
-2.08757e-09
2.38228e-09
-2.0578e-09
2.30281e-09
-2.01536e-09
2.21407e-09
-1.95348e-09
2.11495e-09
-1.87158e-09
2.00419e-09
-1.77325e-09
1.88236e-09
-1.65286e-09
1.75572e-09
-1.48596e-09
1.62628e-09
-1.30975e-09
1.50753e-09
-1.06612e-09
1.40737e-09
-8.02928e-10
1.34249e-09
-4.77901e-10
1.32952e-09
-1.11679e-10
1.37146e-09
2.58089e-10
1.46002e-09
6.14352e-10
1.57732e-09
9.63127e-10
1.69403e-09
1.24293e-09
1.79888e-09
1.48146e-09
1.8869e-09
1.65794e-09
1.96242e-09
1.806e-09
2.0266e-09
1.90627e-09
2.0828e-09
1.98368e-09
2.13411e-09
2.04494e-09
2.18192e-09
2.08911e-09
2.227e-09
2.11936e-09
2.27044e-09
2.13936e-09
2.31287e-09
2.15059e-09
2.35494e-09
2.1534e-09
2.39698e-09
2.14818e-09
2.4391e-09
2.13351e-09
2.48217e-09
2.10945e-09
2.52599e-09
2.07661e-09
2.57116e-09
2.03197e-09
2.61792e-09
1.97425e-09
2.66489e-09
1.88876e-09
2.71327e-09
1.7895e-09
2.76199e-09
1.66579e-09
2.80754e-09
1.47903e-09
2.85049e-09
1.27352e-09
2.88402e-09
9.71746e-10
2.90882e-09
6.20383e-10
2.92429e-09
2.14727e-10
2.93548e-09
-2.38783e-10
2.94679e-09
-6.81194e-10
2.96578e-09
-1.05024e-09
2.99214e-09
-1.36518e-09
3.02345e-09
-1.61078e-09
3.05407e-09
-1.79134e-09
3.07911e-09
-1.91687e-09
3.09215e-09
-2.01722e-09
3.09146e-09
-2.07071e-09
3.0758e-09
-2.10346e-09
3.04445e-09
-2.11979e-09
3.00011e-09
-2.12868e-09
2.9467e-09
-2.1284e-09
2.87769e-09
-2.1065e-09
2.79161e-09
-2.0764e-09
2.69502e-09
-2.05443e-09
2.58606e-09
-2.02412e-09
2.48083e-09
-1.59778e-09
2.37318e-09
-1.37119e-09
2.26302e-09
-1.18177e-09
2.15433e-09
-9.4258e-10
2.05731e-09
-6.97783e-10
1.97842e-09
-4.21103e-10
1.92444e-09
-1.43883e-10
1.89169e-09
2.04424e-11
1.86497e-09
2.77213e-11
1.84264e-09
2.46248e-11
1.82485e-09
1.9691e-11
1.81152e-09
1.40587e-11
1.8018e-09
8.92149e-12
1.79464e-09
5.25925e-12
1.78877e-09
3.41936e-12
1.78296e-09
3.35404e-12
1.77613e-09
4.83247e-12
1.7675e-09
7.48832e-12
1.75654e-09
1.09761e-11
1.74279e-09
1.49423e-11
1.72606e-09
1.91798e-11
1.70629e-09
2.35414e-11
1.68341e-09
2.79867e-11
1.6573e-09
3.25813e-11
1.62766e-09
3.75874e-11
1.59389e-09
4.34446e-11
1.55497e-09
5.07404e-11
1.50929e-09
6.03316e-11
1.45438e-09
7.35096e-11
1.38629e-09
9.24378e-11
1.29868e-09
1.21039e-10
1.18085e-09
1.66829e-10
1.01485e-09
2.44407e-10
7.72756e-10
3.80594e-10
4.29756e-10
6.13734e-10
6.59279e-11
9.30117e-10
9.17891e-10
-1.34133e-10
-4.90678e-10
-1.37776e-10
-6.71825e-10
-4.59072e-11
-6.1273e-10
8.03479e-11
-5.1758e-10
2.12401e-10
-4.30713e-10
3.39424e-10
-3.60082e-10
4.56891e-10
-3.05013e-10
5.63503e-10
-2.62116e-10
6.59608e-10
-2.2809e-10
7.4611e-10
-2.00534e-10
8.23999e-10
-1.77792e-10
8.94201e-10
-1.58684e-10
9.5753e-10
-1.42359e-10
1.01468e-09
-1.282e-10
1.06624e-09
-1.1576e-10
1.11272e-09
-1.04715e-10
1.15454e-09
-9.4836e-11
1.1921e-09
-8.59725e-11
1.22577e-09
-7.80411e-11
1.25591e-09
-7.10167e-11
1.28289e-09
-6.49277e-11
1.30712e-09
-5.98563e-11
1.32908e-09
-5.59474e-11
1.34934e-09
-5.34251e-11
1.36858e-09
-5.26161e-11
1.38768e-09
-5.398e-11
1.4077e-09
-5.81586e-11
1.43e-09
-6.60578e-11
1.45623e-09
-7.90099e-11
1.48841e-09
-9.89213e-11
1.52194e-09
-1.46585e-10
1.5241e-09
-3.04263e-10
1.48475e-09
-5.11299e-10
1.41183e-09
-7.17136e-10
1.31703e-09
-9.10305e-10
1.21459e-09
-1.11343e-09
1.11112e-09
-1.32052e-09
9.91514e-10
-1.52831e-09
8.73031e-10
-1.6814e-09
7.77211e-10
-1.8015e-09
7.03051e-10
-1.90721e-09
6.46477e-10
-1.99603e-09
6.04046e-10
-2.06304e-09
5.7222e-10
-2.11047e-09
5.46869e-10
-2.13816e-09
5.23837e-10
-2.14504e-09
4.9973e-10
-2.13277e-09
4.70566e-10
-2.09932e-09
4.32978e-10
-2.04435e-09
3.85121e-10
-1.96805e-09
3.27164e-10
-1.87079e-09
2.61638e-10
-1.75616e-09
1.8974e-10
-1.61996e-09
1.20285e-10
-1.46853e-09
6.10943e-11
-1.30083e-09
2.75535e-11
-1.11647e-09
3.27602e-11
-9.13018e-10
9.97189e-11
-6.81511e-10
2.43471e-10
-4.12337e-10
4.64219e-10
-1.05844e-10
7.4385e-10
2.27929e-10
1.05581e-09
5.87964e-10
1.34979e-09
9.15989e-10
1.60962e-09
1.2152e-09
1.82068e-09
1.45182e-09
1.98848e-09
1.63985e-09
2.1204e-09
1.78571e-09
2.22405e-09
1.8907e-09
2.30732e-09
1.96789e-09
2.37587e-09
2.02521e-09
2.43446e-09
2.06589e-09
2.48563e-09
2.09261e-09
2.5314e-09
2.10775e-09
2.57329e-09
2.11298e-09
2.61227e-09
2.10929e-09
2.64907e-09
2.09652e-09
2.6841e-09
2.07445e-09
2.71727e-09
2.03734e-09
2.74892e-09
1.99073e-09
2.77879e-09
1.93067e-09
2.80719e-09
1.85051e-09
2.83166e-09
1.73332e-09
2.8536e-09
1.59989e-09
2.86994e-09
1.40507e-09
2.88157e-09
1.17419e-09
2.88529e-09
8.41115e-10
2.88626e-09
4.64428e-10
2.88696e-09
3.75671e-11
2.89266e-09
-4.23751e-10
2.90468e-09
-8.45133e-10
2.92363e-09
-1.18761e-09
2.94353e-09
-1.48293e-09
2.96089e-09
-1.68545e-09
2.97004e-09
-1.85073e-09
2.96789e-09
-1.94818e-09
2.95235e-09
-2.01115e-09
2.92273e-09
-2.05466e-09
2.88055e-09
-2.0683e-09
2.82884e-09
-2.07245e-09
2.77008e-09
-2.07033e-09
2.7069e-09
-2.06673e-09
2.64042e-09
-2.06117e-09
2.57162e-09
-2.05127e-09
2.50015e-09
-2.03592e-09
2.42399e-09
-2.01141e-09
2.34094e-09
-1.97475e-09
2.24903e-09
-1.92345e-09
2.14651e-09
-1.85096e-09
2.03391e-09
-1.75897e-09
1.91176e-09
-1.6511e-09
1.78263e-09
-1.52373e-09
1.65273e-09
-1.35606e-09
1.5246e-09
-1.18163e-09
1.40788e-09
-9.49397e-10
1.30651e-09
-7.01557e-10
1.22952e-09
-4.00915e-10
1.18802e-09
-7.0174e-11
1.18895e-09
2.57158e-10
1.23673e-09
5.66568e-10
1.32899e-09
8.70874e-10
1.44616e-09
1.12576e-09
1.57043e-09
1.35719e-09
1.68673e-09
1.54163e-09
1.79169e-09
1.70104e-09
1.88208e-09
1.81588e-09
1.95985e-09
1.9059e-09
2.02803e-09
1.97676e-09
2.08862e-09
2.02851e-09
2.14316e-09
2.06482e-09
2.19331e-09
2.08921e-09
2.24028e-09
2.10363e-09
2.2851e-09
2.10858e-09
2.32847e-09
2.10482e-09
2.37075e-09
2.09123e-09
2.41295e-09
2.06725e-09
2.45506e-09
2.03449e-09
2.49781e-09
1.98922e-09
2.54157e-09
1.93048e-09
2.58514e-09
1.84519e-09
2.62999e-09
1.74465e-09
2.67562e-09
1.62015e-09
2.71953e-09
1.43513e-09
2.76351e-09
1.22953e-09
2.80361e-09
9.3165e-10
2.84371e-09
5.80284e-10
2.88468e-09
1.73752e-10
2.92968e-09
-2.83775e-10
2.97884e-09
-7.30357e-10
3.03203e-09
-1.10344e-09
3.08262e-09
-1.41577e-09
3.12633e-09
-1.65449e-09
3.15771e-09
-1.82273e-09
3.17353e-09
-1.93269e-09
3.17118e-09
-2.01486e-09
3.15077e-09
-2.05029e-09
3.11448e-09
-2.06717e-09
3.0657e-09
-2.071e-09
3.00793e-09
-2.07092e-09
2.94376e-09
-2.06423e-09
2.86532e-09
-2.02808e-09
2.77162e-09
-1.98271e-09
2.66771e-09
-1.95053e-09
2.55242e-09
-1.90882e-09
2.44799e-09
-1.49334e-09
2.34305e-09
-1.26624e-09
2.23696e-09
-1.07568e-09
2.13294e-09
-8.38553e-10
2.04018e-09
-6.05027e-10
1.9622e-09
-3.43119e-10
1.90212e-09
-8.38105e-11
1.85691e-09
6.56546e-11
1.81838e-09
6.62544e-11
1.78602e-09
5.69859e-11
1.75968e-09
4.60289e-11
1.73863e-09
3.51104e-11
1.72168e-09
2.58723e-11
1.70743e-09
1.95014e-11
1.6944e-09
1.64569e-11
1.68117e-09
1.65843e-11
1.66657e-09
1.94292e-11
1.64963e-09
2.44296e-11
1.62962e-09
3.09848e-11
1.60603e-09
3.85306e-11
1.57859e-09
4.66244e-11
1.54715e-09
5.49743e-11
1.51162e-09
6.35245e-11
1.47165e-09
7.25503e-11
1.4267e-09
8.25302e-11
1.37595e-09
9.41992e-11
1.31798e-09
1.08705e-10
1.25064e-09
1.27673e-10
1.17062e-09
1.53535e-10
1.07295e-09
1.90105e-10
9.5037e-10
2.4362e-10
7.92883e-10
3.24316e-10
5.89241e-10
4.48049e-10
3.3549e-10
6.34345e-10
6.39448e-11
8.8528e-10
-9.76969e-11
1.09176e-09
8.20194e-10
-1.127e-10
-3.77978e-10
-1.77277e-10
-6.07248e-10
-1.65553e-10
-6.24454e-10
-1.07339e-10
-5.75794e-10
-2.44093e-11
-5.13643e-10
6.8944e-11
-4.53435e-10
1.64255e-10
-4.00325e-10
2.56918e-10
-3.54779e-10
3.44716e-10
-3.15888e-10
4.26716e-10
-2.82535e-10
5.02642e-10
-2.53717e-10
5.72537e-10
-2.28579e-10
6.36598e-10
-2.0642e-10
6.95086e-10
-1.86688e-10
7.48279e-10
-1.68952e-10
7.96454e-10
-1.5289e-10
8.39881e-10
-1.38263e-10
8.78825e-10
-1.24917e-10
9.13554e-10
-1.1277e-10
9.44346e-10
-1.01809e-10
9.7151e-10
-9.20918e-11
9.95402e-10
-8.37478e-11
1.01645e-09
-7.69922e-11
1.03517e-09
-7.21463e-11
1.05221e-09
-6.9663e-11
1.06839e-09
-7.01593e-11
1.0847e-09
-7.44651e-11
1.10234e-09
-8.36948e-11
1.12271e-09
-9.9382e-11
1.14736e-09
-1.23575e-10
1.1726e-09
-1.71825e-10
1.1722e-09
-3.03857e-10
1.13828e-09
-4.77382e-10
1.07865e-09
-6.57506e-10
1.00477e-09
-8.36423e-10
9.27175e-10
-1.03584e-09
8.50363e-10
-1.24371e-09
7.65173e-10
-1.44312e-09
6.85024e-10
-1.60125e-09
6.22345e-10
-1.73882e-09
5.74814e-10
-1.85968e-09
5.38475e-10
-1.95969e-09
5.10741e-10
-2.03531e-09
4.88671e-10
-2.0884e-09
4.68736e-10
-2.11823e-09
4.47385e-10
-2.12369e-09
4.21671e-10
-2.10706e-09
3.8891e-10
-2.06656e-09
3.47105e-10
-2.00254e-09
2.95278e-10
-1.91622e-09
2.34683e-10
-1.8102e-09
1.67703e-10
-1.68918e-09
9.71617e-11
-1.54941e-09
2.96335e-11
-1.401e-09
-2.86926e-11
-1.2425e-09
-6.77799e-11
-1.07738e-09
-7.94694e-11
-9.01329e-10
-5.00137e-11
-7.10966e-10
3.37871e-11
-4.96138e-10
1.80526e-10
-2.52582e-10
3.90478e-10
1.79774e-11
6.5647e-10
3.21972e-10
9.46289e-10
6.26169e-10
1.23437e-09
9.2712e-10
1.49542e-09
1.19077e-09
1.71945e-09
1.41582e-09
1.90461e-09
1.60056e-09
2.05348e-09
1.74183e-09
2.17243e-09
1.84895e-09
2.26777e-09
1.92986e-09
2.34557e-09
1.98809e-09
2.41e-09
2.02818e-09
2.46451e-09
2.05323e-09
2.51179e-09
2.0657e-09
2.5537e-09
2.06738e-09
2.59167e-09
2.05855e-09
2.62675e-09
2.03938e-09
2.65942e-09
2.00468e-09
2.6904e-09
1.95974e-09
2.71977e-09
1.90131e-09
2.74812e-09
1.82215e-09
2.77378e-09
1.70765e-09
2.79868e-09
1.57499e-09
2.82157e-09
1.38218e-09
2.845e-09
1.15076e-09
2.86721e-09
8.18903e-10
2.89173e-09
4.39917e-10
2.91918e-09
1.01144e-11
2.95103e-09
-4.55606e-10
2.98325e-09
-8.77354e-10
3.01362e-09
-1.21798e-09
3.03577e-09
-1.50508e-09
3.04686e-09
-1.69653e-09
3.04301e-09
-1.84689e-09
3.02368e-09
-1.92884e-09
2.98873e-09
-1.9762e-09
2.9411e-09
-2.00704e-09
2.88366e-09
-2.01086e-09
2.81917e-09
-2.00796e-09
2.75058e-09
-2.00174e-09
2.68047e-09
-1.99662e-09
2.60872e-09
-1.98941e-09
2.53492e-09
-1.97748e-09
2.45723e-09
-1.95823e-09
2.37306e-09
-1.92724e-09
2.28039e-09
-1.88209e-09
2.17824e-09
-1.8213e-09
2.06653e-09
-1.73925e-09
1.94761e-09
-1.64004e-09
1.8236e-09
-1.52709e-09
1.69822e-09
-1.39834e-09
1.57731e-09
-1.23515e-09
1.463e-09
-1.06732e-09
1.36168e-09
-8.48083e-10
1.2749e-09
-6.1477e-10
1.20639e-09
-3.3241e-10
1.16058e-09
-2.43635e-11
1.13984e-09
2.77894e-10
1.15015e-09
5.56258e-10
1.19743e-09
8.23602e-10
1.27852e-09
1.04466e-09
1.38359e-09
1.25211e-09
1.49812e-09
1.4271e-09
1.61233e-09
1.58683e-09
1.71796e-09
1.71025e-09
1.81276e-09
1.8111e-09
1.89697e-09
1.89255e-09
1.97142e-09
1.95406e-09
2.03735e-09
1.99889e-09
2.09644e-09
2.03012e-09
2.15011e-09
2.04996e-09
2.19969e-09
2.059e-09
2.24618e-09
2.05832e-09
2.29034e-09
2.04708e-09
2.33349e-09
2.0241e-09
2.376e-09
1.99198e-09
2.41896e-09
1.94627e-09
2.46313e-09
1.88631e-09
2.50789e-09
1.80044e-09
2.55519e-09
1.69735e-09
2.60554e-09
1.5698e-09
2.6583e-09
1.38236e-09
2.71679e-09
1.17105e-09
2.77891e-09
8.69533e-10
2.84699e-09
5.122e-10
2.91983e-09
1.00912e-10
2.99657e-09
-3.60518e-10
3.07124e-09
-8.05031e-10
3.13959e-09
-1.17178e-09
3.19413e-09
-1.47031e-09
3.23143e-09
-1.6918e-09
3.24786e-09
-1.83916e-09
3.24336e-09
-1.92819e-09
3.21763e-09
-1.98914e-09
3.17528e-09
-2.00793e-09
3.12073e-09
-2.01261e-09
3.05716e-09
-2.00741e-09
2.98759e-09
-2.00135e-09
2.91571e-09
-1.99234e-09
2.83248e-09
-1.94487e-09
2.73568e-09
-1.88592e-09
2.62966e-09
-1.84452e-09
2.51418e-09
-1.79334e-09
2.41383e-09
-1.393e-09
2.3149e-09
-1.16731e-09
2.21663e-09
-9.77396e-10
2.12273e-09
-7.44651e-10
2.04223e-09
-5.24525e-10
1.97722e-09
-2.78117e-10
1.92796e-09
-3.45417e-11
1.88919e-09
1.04424e-10
1.85424e-09
1.01205e-10
1.82304e-09
8.81857e-11
1.7956e-09
7.34622e-11
1.77144e-09
5.92677e-11
1.74974e-09
4.7577e-11
1.7295e-09
3.97423e-11
1.70964e-09
3.63142e-11
1.68906e-09
3.71632e-11
1.66673e-09
4.1758e-11
1.64179e-09
4.93763e-11
1.61354e-09
5.92358e-11
1.58147e-09
7.06017e-11
1.54522e-09
8.28738e-11
1.50451e-09
9.56753e-11
1.45908e-09
1.08958e-10
1.40856e-09
1.23074e-10
1.35234e-09
1.38748e-10
1.2894e-09
1.57136e-10
1.21817e-09
1.79944e-10
1.13625e-09
2.09591e-10
1.04017e-09
2.49615e-10
9.24974e-10
3.05299e-10
7.84125e-10
3.84469e-10
6.10592e-10
4.97849e-10
4.01615e-10
6.57026e-10
1.715e-10
8.6446e-10
-2.54944e-11
1.08227e-09
-9.28486e-11
1.15911e-09
7.27345e-10
-8.25346e-11
-2.95443e-10
-1.56166e-10
-5.33617e-10
-1.82119e-10
-5.98501e-10
-1.67626e-10
-5.90287e-10
-1.25963e-10
-5.55305e-10
-6.74529e-11
-5.11946e-10
-2.96635e-13
-4.67481e-10
7.00826e-11
-4.25158e-10
1.40338e-10
-3.86143e-10
2.08493e-10
-3.50691e-10
2.73406e-10
-3.1863e-10
3.34436e-10
-2.89609e-10
3.91256e-10
-2.6324e-10
4.43722e-10
-2.39153e-10
4.91804e-10
-2.17035e-10
5.35543e-10
-1.96629e-10
5.75026e-10
-1.77746e-10
6.10373e-10
-1.60264e-10
6.41736e-10
-1.44133e-10
6.69301e-10
-1.29374e-10
6.933e-10
-1.16091e-10
7.14026e-10
-1.04474e-10
7.31856e-10
-9.48221e-11
7.47273e-10
-8.75627e-11
7.6089e-10
-8.32804e-11
7.73481e-10
-8.27501e-11
7.85998e-10
-8.69822e-11
7.9959e-10
-9.72867e-11
8.15581e-10
-1.15373e-10
8.35401e-10
-1.43395e-10
8.56276e-10
-1.92699e-10
8.57716e-10
-3.05296e-10
8.34935e-10
-4.54601e-10
7.95619e-10
-6.18189e-10
7.49375e-10
-7.90178e-10
7.02195e-10
-9.88658e-10
6.56026e-10
-1.19754e-09
6.04472e-10
-1.39157e-09
5.57157e-10
-1.55394e-09
5.21224e-10
-1.70289e-09
4.94378e-10
-1.83283e-09
4.73299e-10
-1.93861e-09
4.5616e-10
-2.01817e-09
4.40607e-10
-2.07284e-09
4.23731e-10
-2.10135e-09
4.02718e-10
-2.10268e-09
3.75623e-10
-2.07996e-09
3.4054e-10
-2.03148e-09
2.96661e-10
-1.95866e-09
2.44171e-10
-1.86373e-09
1.84793e-10
-1.75082e-09
1.21028e-10
-1.62541e-09
5.6267e-11
-1.48465e-09
-4.47293e-12
-1.34026e-09
-5.64144e-11
-1.19056e-09
-9.33565e-11
-1.04044e-09
-1.09471e-10
-8.85214e-10
-9.69773e-11
-7.2346e-10
-4.74704e-11
-5.45644e-10
4.80787e-11
-3.48131e-10
1.94897e-10
-1.28841e-10
3.96605e-10
1.20263e-10
6.40106e-10
3.82668e-10
9.08516e-10
6.58707e-10
1.17783e-09
9.21458e-10
1.43011e-09
1.16354e-09
1.65456e-09
1.37611e-09
1.84564e-09
1.55075e-09
2.00382e-09
1.69078e-09
2.13279e-09
1.80089e-09
2.23758e-09
1.8833e-09
2.32267e-09
1.94309e-09
2.39234e-09
1.98356e-09
2.45032e-09
2.00772e-09
2.49955e-09
2.01815e-09
2.54236e-09
2.01575e-09
2.58047e-09
2.00127e-09
2.61518e-09
1.96998e-09
2.64804e-09
1.92688e-09
2.6801e-09
1.86924e-09
2.71285e-09
1.7894e-09
2.74556e-09
1.67494e-09
2.78034e-09
1.54021e-09
2.81629e-09
1.34623e-09
2.85541e-09
1.11164e-09
2.89703e-09
7.77283e-10
2.94344e-09
3.93505e-10
2.99153e-09
-3.79673e-11
3.03881e-09
-5.02895e-10
3.07845e-09
-9.16985e-10
3.10758e-09
-1.24711e-09
3.12067e-09
-1.51817e-09
3.11661e-09
-1.69248e-09
3.09342e-09
-1.82369e-09
3.05352e-09
-1.88894e-09
2.99956e-09
-1.92225e-09
2.93522e-09
-1.9427e-09
2.86353e-09
-1.93917e-09
2.78877e-09
-1.9332e-09
2.7137e-09
-1.92666e-09
2.63824e-09
-1.92115e-09
2.56182e-09
-1.913e-09
2.48244e-09
-1.89809e-09
2.39755e-09
-1.87334e-09
2.30483e-09
-1.83453e-09
2.20326e-09
-1.78053e-09
2.09338e-09
-1.71142e-09
1.97687e-09
-1.62273e-09
1.85742e-09
-1.5206e-09
1.73804e-09
-1.40771e-09
1.62248e-09
-1.28278e-09
1.51572e-09
-1.12839e-09
1.41883e-09
-9.70426e-10
1.33609e-09
-7.65338e-10
1.26763e-09
-5.46313e-10
1.21474e-09
-2.79522e-10
1.17852e-09
1.18603e-11
1.15754e-09
2.98868e-10
1.15466e-09
5.59139e-10
1.17369e-09
8.04572e-10
1.2179e-09
1.00046e-09
1.28837e-09
1.18164e-09
1.37876e-09
1.33672e-09
1.48003e-09
1.48556e-09
1.58343e-09
1.60685e-09
1.68305e-09
1.71148e-09
1.77592e-09
1.79969e-09
1.86038e-09
1.8696e-09
1.93638e-09
1.92289e-09
2.00466e-09
1.96184e-09
2.06624e-09
1.98837e-09
2.12239e-09
2.00285e-09
2.17423e-09
2.00648e-09
2.22273e-09
1.99858e-09
2.26953e-09
1.97731e-09
2.31554e-09
1.94597e-09
2.36213e-09
1.89968e-09
2.41093e-09
1.83751e-09
2.46271e-09
1.74865e-09
2.5199e-09
1.64016e-09
2.58336e-09
1.50634e-09
2.65319e-09
1.31253e-09
2.73158e-09
1.09266e-09
2.81745e-09
7.83662e-10
2.91188e-09
4.17768e-10
3.00947e-09
3.3225e-12
3.10474e-09
-4.5578e-10
3.18826e-09
-8.88552e-10
3.25483e-09
-1.23835e-09
3.29809e-09
-1.51356e-09
3.31665e-09
-1.71036e-09
3.30921e-09
-1.83173e-09
3.27933e-09
-1.89831e-09
3.23082e-09
-1.94063e-09
3.16932e-09
-1.94643e-09
3.09903e-09
-1.94231e-09
3.02436e-09
-1.93274e-09
2.94879e-09
-1.92575e-09
2.87356e-09
-1.91711e-09
2.78907e-09
-1.86037e-09
2.69193e-09
-1.78879e-09
2.58596e-09
-1.73858e-09
2.47128e-09
-1.67867e-09
2.3739e-09
-1.29562e-09
2.27942e-09
-1.07283e-09
2.18742e-09
-8.85391e-10
2.10242e-09
-6.59645e-10
2.03325e-09
-4.55353e-10
1.98162e-09
-2.26489e-10
1.94661e-09
4.69979e-13
1.92068e-09
1.30344e-10
1.89545e-09
1.26439e-10
1.87053e-09
1.13106e-10
1.84593e-09
9.80659e-11
1.8215e-09
8.36968e-11
1.79698e-09
7.20948e-11
1.77202e-09
6.47027e-11
1.74615e-09
6.21855e-11
1.71878e-09
6.45308e-11
1.68927e-09
7.12662e-11
1.65699e-09
8.16556e-11
1.62138e-09
9.48541e-11
1.58194e-09
1.1004e-10
1.53828e-09
1.26528e-10
1.49006e-09
1.43895e-10
1.43692e-09
1.62106e-10
1.37838e-09
1.81606e-10
1.3138e-09
2.03336e-10
1.24213e-09
2.28802e-10
1.16188e-09
2.60194e-10
1.07085e-09
3.00622e-10
9.6591e-10
3.54553e-10
8.42825e-10
4.28384e-10
6.96563e-10
5.30731e-10
5.23258e-10
6.71155e-10
3.25871e-10
8.54412e-10
1.25321e-10
1.06501e-09
-2.74851e-11
1.23508e-09
-6.55516e-11
1.19718e-09
6.61794e-10
-5.80636e-11
-2.3738e-10
-1.25207e-10
-4.66474e-10
-1.66672e-10
-5.57035e-10
-1.78165e-10
-5.78794e-10
-1.65471e-10
-5.67999e-10
-1.35637e-10
-5.4178e-10
-9.45809e-11
-5.08537e-10
-4.71271e-11
-4.72612e-10
3.27893e-12
-4.36549e-10
5.42867e-11
-4.01699e-10
1.04336e-10
-3.68679e-10
1.52408e-10
-3.37681e-10
1.97844e-10
-3.08675e-10
2.40229e-10
-2.81538e-10
2.79313e-10
-2.56119e-10
3.14962e-10
-2.32278e-10
3.47126e-10
-2.0991e-10
3.75818e-10
-1.88955e-10
4.01104e-10
-1.69419e-10
4.2311e-10
-1.5138e-10
4.42022e-10
-1.35003e-10
4.58106e-10
-1.20558e-10
4.71724e-10
-1.08441e-10
4.83362e-10
-9.91999e-11
4.93644e-10
-9.35624e-11
5.03363e-10
-9.24688e-11
5.13493e-10
-9.71128e-11
5.25205e-10
-1.08999e-10
5.39839e-10
-1.30007e-10
5.58829e-10
-1.62386e-10
5.80391e-10
-2.14261e-10
5.89405e-10
-3.1431e-10
5.83226e-10
-4.48422e-10
5.68047e-10
-6.03011e-10
5.50314e-10
-7.72445e-10
5.31926e-10
-9.70269e-10
5.12902e-10
-1.17852e-09
4.88737e-10
-1.3674e-09
4.66317e-10
-1.53152e-09
4.49956e-10
-1.68653e-09
4.37942e-10
-1.82082e-09
4.27522e-10
-1.92819e-09
4.17442e-10
-2.00809e-09
4.05886e-10
-2.06129e-09
3.90466e-10
-2.08593e-09
3.69221e-10
-2.08143e-09
3.41257e-10
-2.052e-09
3.05121e-10
-1.99534e-09
2.61009e-10
-1.91455e-09
2.09887e-10
-1.81261e-09
1.53762e-10
-1.6947e-09
9.51523e-11
-1.5668e-09
3.74353e-11
-1.42694e-09
-1.5553e-11
-1.28727e-09
-6.02202e-11
-1.14589e-09
-9.26615e-11
-1.008e-09
-1.09088e-10
-8.68788e-10
-1.0448e-10
-7.28068e-10
-7.29774e-11
-5.77146e-10
-8.06413e-12
-4.13044e-10
9.59483e-11
-2.32853e-10
2.45229e-10
-2.90184e-11
4.37348e-10
1.90547e-10
6.65744e-10
4.30309e-10
9.14218e-10
6.72984e-10
1.16654e-09
9.11217e-10
1.40821e-09
1.13444e-09
1.62819e-09
1.33077e-09
1.82089e-09
1.49809e-09
1.98465e-09
1.63713e-09
2.1213e-09
1.74664e-09
2.23374e-09
1.83065e-09
2.32572e-09
1.89158e-09
2.40123e-09
1.9322e-09
2.46391e-09
1.95547e-09
2.5171e-09
1.96257e-09
2.5635e-09
1.95488e-09
2.60545e-09
1.92802e-09
2.645e-09
1.88732e-09
2.68322e-09
1.83101e-09
2.72213e-09
1.75048e-09
2.76228e-09
1.63479e-09
2.8067e-09
1.49579e-09
2.85578e-09
1.29716e-09
2.91082e-09
1.0566e-09
2.96961e-09
7.18488e-10
3.03128e-09
3.31834e-10
3.08987e-09
-9.65571e-11
3.14087e-09
-5.53887e-10
3.17625e-09
-9.52373e-10
3.19388e-09
-1.26474e-09
3.18962e-09
-1.5139e-09
3.1641e-09
-1.66697e-09
3.1187e-09
-1.77829e-09
3.05817e-09
-1.8284e-09
2.98594e-09
-1.85002e-09
2.90653e-09
-1.86329e-09
2.82424e-09
-1.85688e-09
2.74237e-09
-1.85133e-09
2.66257e-09
-1.84686e-09
2.58252e-09
-1.8411e-09
2.50085e-09
-1.83133e-09
2.41475e-09
-1.81198e-09
2.32186e-09
-1.78045e-09
2.22084e-09
-1.73352e-09
2.11218e-09
-1.67187e-09
1.99794e-09
-1.59718e-09
1.88114e-09
-1.50593e-09
1.76605e-09
-1.40551e-09
1.65563e-09
-1.29729e-09
1.55292e-09
-1.18007e-09
1.46164e-09
-1.0371e-09
1.38166e-09
-8.90452e-10
1.31597e-09
-6.99641e-10
1.26404e-09
-4.94384e-10
1.22656e-09
-2.42043e-10
1.20397e-09
3.44474e-11
1.19286e-09
3.09982e-10
1.19271e-09
5.59289e-10
1.2051e-09
7.9218e-10
1.23219e-09
9.73375e-10
1.27729e-09
1.13653e-09
1.34094e-09
1.27307e-09
1.42016e-09
1.40634e-09
1.50953e-09
1.51748e-09
1.60249e-09
1.61852e-09
1.69484e-09
1.70734e-09
1.78335e-09
1.78109e-09
1.86597e-09
1.84027e-09
1.94212e-09
1.88569e-09
2.0119e-09
1.91859e-09
2.07605e-09
1.9387e-09
2.13547e-09
1.94706e-09
2.19126e-09
1.94279e-09
2.24524e-09
1.92333e-09
2.29863e-09
1.89258e-09
2.35331e-09
1.845e-09
2.4109e-09
1.77991e-09
2.47261e-09
1.68694e-09
2.54123e-09
1.57155e-09
2.61839e-09
1.42918e-09
2.70577e-09
1.22515e-09
2.80407e-09
9.94357e-10
2.9104e-09
6.77329e-10
3.02257e-09
3.05602e-10
3.1319e-09
-1.06009e-10
3.23042e-09
-5.54301e-10
3.30748e-09
-9.65613e-10
3.35876e-09
-1.28963e-09
3.37989e-09
-1.5347e-09
3.37156e-09
-1.70203e-09
3.33714e-09
-1.79731e-09
3.28325e-09
-1.84444e-09
3.21426e-09
-1.87164e-09
3.13653e-09
-1.8687e-09
3.05604e-09
-1.86182e-09
2.97623e-09
-1.85293e-09
2.89928e-09
-1.84879e-09
2.82342e-09
-1.84124e-09
2.73907e-09
-1.77602e-09
2.64192e-09
-1.69164e-09
2.53551e-09
-1.63218e-09
2.42031e-09
-1.56347e-09
2.32363e-09
-1.19894e-09
2.23134e-09
-9.80541e-10
2.1434e-09
-7.97454e-10
2.06483e-09
-5.81075e-10
2.00392e-09
-3.94434e-10
1.96223e-09
-1.848e-10
1.93858e-09
2.41207e-11
1.92403e-09
1.44891e-10
1.90805e-09
1.42415e-10
1.88974e-09
1.31417e-10
1.86888e-09
1.18927e-10
1.84547e-09
1.07108e-10
1.81963e-09
9.79363e-11
1.7915e-09
9.28367e-11
1.76112e-09
9.2566e-11
1.72838e-09
9.72677e-11
1.69303e-09
1.06617e-10
1.65471e-09
1.19975e-10
1.61302e-09
1.36544e-10
1.56756e-09
1.55503e-10
1.51793e-09
1.76156e-10
1.46374e-09
1.98079e-10
1.40458e-09
2.21271e-10
1.33993e-09
2.46255e-10
1.26913e-09
2.74135e-10
1.19126e-09
3.06666e-10
1.10506e-09
3.46398e-10
1.00872e-09
3.96962e-10
8.9976e-10
4.63513e-10
7.74963e-10
5.53181e-10
6.30956e-10
6.74739e-10