/*--------------------------------*- C++ -*----------------------------------*\
| =========                 |                                                 |
| \\      /  F ield         | OpenFOAM: The Open Source CFD Toolbox           |
|  \\    /   O peration     | Version:  2506                                  |
|   \\  /    A nd           | Website:  www.openfoam.com                      |
|    \\/     M anipulation  |                                                 |
\*---------------------------------------------------------------------------*/
FoamFile
{
    version     2.0;
    format      ascii;
    arch        "LSB;label=32;scalar=64";
    class       volVectorField;
    location    "4.05";
    object      U;
}
// * * * * * * * * * * * * * * * * * * * * * * * * * * * * * * * * * * * * * //

dimensions      [0 1 -1 0 0 0 0];

internalField   nonuniform List<vector> 
4000
(
(0.00276042 -0.00119442 5.89723e-23)
(0.00373229 -0.000941787 0)
(0.00515312 -0.000447259 1.73644e-23)
(0.00615501 -0.00022307 1.2375e-23)
(0.00673431 -0.000132938 8.83264e-24)
(0.00710959 -8.23476e-05 0)
(0.00738089 -5.26738e-05 4.59376e-24)
(0.00758442 -3.59859e-05 3.38949e-24)
(0.0077419 -2.60457e-05 0)
(0.00786786 -1.95861e-05 0)
(0.007971 -1.5138e-05 1.42536e-23)
(0.00805671 -1.19334e-05 -1.99999e-23)
(0.00812866 -9.52473e-06 6.56539e-24)
(0.00818947 -7.65216e-06 2.59514e-24)
(0.00824105 -6.16194e-06 -2.58592e-24)
(0.00828486 -4.95906e-06 -4.1823e-25)
(0.00832203 -3.98375e-06 -1.58114e-23)
(0.00835351 -3.1998e-06 1.576e-23)
(0.00838013 -2.58767e-06 -1.3207e-24)
(0.00840263 -2.13955e-06 0)
(0.00842176 -1.85594e-06 0)
(0.0084383 -1.74456e-06 2.43394e-24)
(0.00845309 -1.82193e-06 2.86053e-24)
(0.00846711 -2.11737e-06 0)
(0.00848153 -2.67925e-06 3.77224e-24)
(0.00849787 -3.58697e-06 4.23559e-24)
(0.00851812 -4.97917e-06 0)
(0.00854502 -7.12145e-06 0)
(0.00858201 -1.03686e-05 -1.77043e-22)
(0.00863871 -1.57778e-05 1.81887e-22)
(0.00872923 -3.30141e-05 0)
(0.00876123 -8.78814e-05 2.62426e-22)
(0.00868104 -0.000201751 -3.42731e-22)
(0.0085137 -0.000380139 -6.87782e-23)
(0.00830259 -0.000619869 -1.18516e-22)
(0.00807273 -0.000921263 6.45855e-22)
(0.00788927 -0.00128133 -2.20309e-22)
(0.00767602 -0.0017829 -5.72906e-22)
(0.0073318 -0.00240922 0)
(0.00693706 -0.00301777 3.36566e-22)
(0.00661921 -0.00353219 -3.41138e-22)
(0.00637385 -0.00395232 2.68061e-21)
(0.00618365 -0.00428128 0)
(0.00604543 -0.00451535 2.21843e-21)
(0.00595217 -0.00465692 -9.40348e-22)
(0.00588944 -0.00471544 1.34919e-21)
(0.00584713 -0.00469814 0)
(0.0058193 -0.00461813 -1.41768e-21)
(0.00578861 -0.00449107 -1.75723e-21)
(0.00573853 -0.00432738 -1.51425e-21)
(0.00564922 -0.00413218 0)
(0.00553628 -0.00388503 0)
(0.00540151 -0.00359846 -2.65579e-22)
(0.00525327 -0.00323171 2.14511e-21)
(0.00515889 -0.00275794 2.70181e-22)
(0.00521783 -0.00215032 -1.63701e-21)
(0.00550292 -0.00145778 -9.98102e-22)
(0.00609094 -0.00073185 2.78977e-22)
(0.00695976 -0.000128097 0)
(0.00787943 0.000226344 4.45967e-23)
(0.00863578 0.000358461 1.15336e-22)
(0.00918217 0.000347583 -2.00344e-22)
(0.00951653 0.000278424 -9.80199e-22)
(0.00971456 0.000204192 9.52464e-22)
(0.00982898 0.000145568 0)
(0.00989193 0.000103116 0)
(0.00992969 7.44038e-05 0)
(0.0099523 5.57699e-05 1.05379e-22)
(0.00996549 4.38776e-05 1.52911e-21)
(0.00997358 3.63875e-05 7.45277e-22)
(0.00997853 3.17305e-05 0)
(0.00998126 2.89642e-05 -5.47686e-22)
(0.0099824 2.74969e-05 4.91261e-22)
(0.00998247 2.69115e-05 8.18358e-23)
(0.00998179 2.69058e-05 -4.90821e-22)
(0.00998055 2.72678e-05 3.69372e-22)
(0.00997884 2.78588e-05 3.89206e-22)
(0.00997655 2.87063e-05 3.70966e-22)
(0.00997364 2.97055e-05 0)
(0.00997029 3.06966e-05 0)
(0.00996643 3.15388e-05 -8.96654e-24)
(0.00996115 3.251e-05 -2.70152e-22)
(0.00995437 3.31907e-05 0)
(0.00994505 3.37343e-05 2.45713e-22)
(0.00993209 3.34434e-05 -2.34549e-22)
(0.00991162 3.22784e-05 0)
(0.00987963 2.88659e-05 0)
(0.00983276 2.00405e-05 -1.26437e-23)
(0.00976794 1.15497e-06 -4.40527e-23)
(0.00970281 -3.83023e-05 1.21427e-22)
(0.00965948 -9.25153e-05 -4.16299e-24)
(0.0096607 -0.000145498 -3.07592e-23)
(0.00970404 -0.00017523 2.90777e-23)
(0.00978994 -0.000164252 0)
(0.00991775 -0.000113038 -7.34043e-22)
(0.0100595 -1.73192e-05 -7.37212e-22)
(0.0101996 0.000106326 -7.50682e-22)
(0.0103226 0.0002371 -4.15771e-23)
(0.010416 0.000355691 -4.05156e-22)
(0.0104744 0.000447963 -2.24718e-22)
(0.0104913 0.000502523 3.24514e-24)
(0.0104785 0.000517922 1.37117e-22)
(0.0104439 0.000497702 7.55148e-22)
(0.0103932 0.000448892 2.68438e-23)
(0.0103321 0.000380714 7.19896e-22)
(0.0102622 0.000298777 0)
(0.0101822 0.00020944 -9.84154e-22)
(0.0100799 0.000105983 -1.01192e-21)
(0.00995047 -1.34251e-05 -7.27176e-23)
(0.00978317 -0.000144666 0)
(0.00956524 -0.000287541 -1.19294e-21)
(0.00930157 -0.000417732 1.10251e-21)
(0.00900097 -0.000520975 0)
(0.00869821 -0.000558065 1.53192e-21)
(0.00845452 -0.000507697 2.41386e-22)
(0.00834041 -0.000359615 2.13205e-22)
(0.00843554 -0.000146979 0)
(0.00870994 5.61992e-05 -8.22205e-23)
(0.00904155 0.000181966 1.68696e-23)
(0.00935022 0.000225165 2.44647e-24)
(0.00957248 0.000213099 -1.82298e-23)
(0.00971538 0.000181218 5.64949e-22)
(0.00980323 0.000148739 -5.99219e-22)
(0.00985939 0.000120271 -3.51106e-23)
(0.00989598 9.80854e-05 -5.00579e-22)
(0.00991903 8.16435e-05 1.01347e-21)
(0.00993505 6.93899e-05 -4.71723e-22)
(0.00994645 6.02412e-05 5.09848e-22)
(0.00995413 5.35785e-05 2.43449e-24)
(0.00995923 4.88365e-05 4.04472e-22)
(0.00996257 4.55229e-05 0)
(0.00996457 4.32805e-05 -3.7694e-22)
(0.00996549 4.18399e-05 3.75476e-23)
(0.00996547 4.10522e-05 -3.77486e-22)
(0.00996462 4.07679e-05 0)
(0.00996309 4.08167e-05 0)
(0.00996096 4.10481e-05 2.92941e-22)
(0.00995827 4.12585e-05 -2.8634e-22)
(0.00995437 4.17204e-05 0)
(0.00994916 4.21888e-05 0)
(0.00994309 4.21102e-05 -2.6585e-22)
(0.00993398 4.20252e-05 6.4064e-23)
(0.00992167 4.08998e-05 -3.23659e-22)
(0.00990328 3.86866e-05 0)
(0.00987488 3.4457e-05 1.87176e-22)
(0.00983329 2.58909e-05 1.23243e-22)
(0.00977253 1.0296e-05 -9.60676e-23)
(0.00969938 -2.33123e-05 6.55496e-23)
(0.00963824 -7.6018e-05 0)
(0.00961115 -0.000136588 -1.11076e-22)
(0.00963129 -0.000185508 -3.12751e-23)
(0.00969257 -0.000203037 9.60454e-22)
(0.00979719 -0.000173431 -1.75606e-22)
(0.00993421 -0.000109944 -2.49965e-23)
(0.0100787 -3.07894e-06 -6.68429e-22)
(0.0102145 0.000122607 -2.15841e-22)
(0.010327 0.000246873 0)
(0.0104077 0.000352456 0)
(0.0104498 0.000427414 0)
(0.0104525 0.000463699 1.78779e-22)
(0.0104287 0.000457411 4.63704e-23)
(0.0103852 0.000413345 3.89043e-22)
(0.0103293 0.000351743 3.95994e-22)
(0.0102426 0.000246657 0)
(0.0100628 0.000121784 -6.53932e-22)
(0.00986131 1.17936e-05 -9.03546e-22)
(0.00965493 -6.67623e-05 -3.70902e-23)
(0.00945696 -0.000106976 -8.83233e-23)
(0.00929331 -9.91138e-05 -5.69837e-23)
(0.00920151 -6.3297e-05 4.03171e-24)
(0.00918433 -2.12963e-05 0)
(0.00916973 -1.79176e-06 1.52547e-24)
(0.00913247 5.65064e-06 0)
(0.00908984 7.45221e-06 2.53426e-24)
(0.00905256 7.59959e-06 3.09501e-24)
(0.00902246 7.39007e-06 2.53826e-22)
(0.00899848 7.04268e-06 -2.54181e-22)
(0.00897827 6.7377e-06 -1.65311e-22)
(0.00895936 6.65805e-06 1.70683e-22)
(0.00893955 6.8074e-06 -2.0237e-22)
(0.00891698 7.07431e-06 4.47228e-22)
(0.00889022 7.51836e-06 -2.24004e-22)
(0.0088586 8.40972e-06 0)
(0.00882198 9.49339e-06 9.35992e-24)
(0.00878017 1.05303e-05 -1.02879e-23)
(0.00873305 1.15105e-05 3.86953e-22)
(0.00868062 1.24431e-05 -3.63059e-22)
(0.00862266 1.34009e-05 4.49896e-22)
(0.00855859 1.45085e-05 -4.34897e-22)
(0.00848711 1.58872e-05 2.84567e-22)
(0.00840607 1.77317e-05 -2.50727e-22)
(0.00831206 2.03546e-05 1.92646e-23)
(0.0081995 2.43619e-05 2.10881e-23)
(0.00805877 3.11349e-05 0)
(0.00787171 4.4027e-05 2.56007e-23)
(0.00760105 7.1141e-05 2.86127e-23)
(0.00716081 0.000132727 3.19193e-22)
(0.00633433 0.000295102 -3.27699e-22)
(0.0047574 0.000786686 0)
(0.0034662 0.00133269 6.80052e-23)
(-1.27583e-05 -0.00240534 -2.67879e-23)
(1.39306e-05 -0.00223892 1.38727e-23)
(0.000976031 -0.00153202 -2.02422e-23)
(0.00189124 -0.00105967 6.62835e-23)
(0.00260898 -0.000748414 -1.36407e-22)
(0.00318762 -0.000541655 1.90794e-23)
(0.00366535 -0.000408303 4.94333e-23)
(0.00406188 -0.000320671 -1.33382e-23)
(0.00439395 -0.000259783 -7.14417e-24)
(0.00467537 -0.00021524 -5.39564e-24)
(0.00491623 -0.000181359 -5.47648e-24)
(0.00512383 -0.000154728 -1.88894e-23)
(0.00530371 -0.000133195 1.64203e-23)
(0.0054601 -0.000115373 -3.36461e-24)
(0.00559632 -0.000100345 7.30186e-25)
(0.00571499 -8.74932e-05 1.04898e-23)
(0.00581827 -7.63979e-05 -6.59216e-24)
(0.00590796 -6.67919e-05 2.04677e-23)
(0.00598567 -5.85255e-05 3.49526e-23)
(0.00605288 -5.15426e-05 -4.63222e-23)
(0.00611106 -4.58646e-05 4.06506e-24)
(0.00616171 -4.15853e-05 9.3919e-23)
(0.00620648 -3.88835e-05 -9.45169e-23)
(0.00624721 -3.80522e-05 -1.16818e-22)
(0.00628612 -3.95434e-05 1.19042e-22)
(0.00632595 -4.4036e-05 4.29742e-24)
(0.00637015 -5.25618e-05 1.71604e-22)
(0.00642325 -6.67481e-05 2.43451e-24)
(0.00649078 -8.9292e-05 -3.76203e-22)
(0.00658375 -0.000124316 -9.77511e-24)
(0.00671955 -0.000181867 1.9374e-22)
(0.00681443 -0.000299231 1.49679e-22)
(0.0067959 -0.000499425 3.76427e-22)
(0.00667265 -0.000783777 5.22604e-22)
(0.00648805 -0.00114931 1.06793e-22)
(0.00627536 -0.00160406 -3.53059e-22)
(0.00607848 -0.0021591 -1.64578e-22)
(0.00584483 -0.00285534 6.57095e-22)
(0.00550331 -0.00363337 -2.1416e-22)
(0.00513647 -0.00437406 -5.2383e-22)
(0.00484757 -0.0050249 -8.59258e-22)
(0.00462121 -0.00557382 -1.25666e-21)
(0.00444062 -0.00600974 0)
(0.00430314 -0.00632629 -2.56145e-21)
(0.00419872 -0.00652666 1.28718e-21)
(0.00411186 -0.00661944 -1.38124e-21)
(0.00402963 -0.00661558 1.47624e-21)
(0.00394147 -0.00653186 0)
(0.00382691 -0.00638322 -1.30132e-23)
(0.00366874 -0.00617692 1.7511e-21)
(0.00345393 -0.00591811 -2.17386e-21)
(0.00318795 -0.0055976 2.56664e-22)
(0.00288007 -0.00522299 2.43952e-21)
(0.00253284 -0.00476067 -5.6439e-22)
(0.002214 -0.00419874 2.52152e-21)
(0.00199711 -0.00348593 0)
(0.00198208 -0.00265574 1.08714e-21)
(0.00228434 -0.00170565 -5.28873e-22)
(0.00302857 -0.000741897 -6.19779e-23)
(0.00416097 6.99838e-05 1.63058e-23)
(0.00547046 0.000606689 -2.07087e-22)
(0.00676002 0.000863987 -6.99864e-22)
(0.00778539 0.000860722 -7.52325e-22)
(0.0085318 0.000747021 -1.11382e-21)
(0.00903519 0.000601744 1.37737e-22)
(0.00935602 0.00046581 -1.34155e-22)
(0.00956025 0.000357065 0)
(0.00968844 0.000277996 0)
(0.00976735 0.000223425 -1.91653e-21)
(0.00981642 0.000187062 9.13515e-22)
(0.00984727 0.000163623 9.90288e-23)
(0.0098661 0.000149275 -9.66073e-22)
(0.00987666 0.000141262 -6.20098e-22)
(0.00988159 0.000137609 -6.73862e-22)
(0.00988255 0.000136889 -3.53942e-23)
(0.00988057 0.00013808 3.6533e-23)
(0.00987628 0.00014047 5.39311e-22)
(0.00986944 0.000144033 -4.12097e-22)
(0.00985989 0.000148327 -2.53786e-23)
(0.00984784 0.000152776 -3.80467e-22)
(0.00983317 0.000156887 3.55245e-22)
(0.00981344 0.000161423 0)
(0.00978854 0.000164864 0)
(0.00975595 0.000167348 0)
(0.00971508 0.000166221 2.91468e-22)
(0.00966199 0.000159603 -8.61829e-24)
(0.00959948 0.000140868 1.65178e-23)
(0.00953886 9.97484e-05 -1.79917e-23)
(0.00950286 2.50618e-05 1.80343e-23)
(0.00951228 -7.82164e-05 -3.16012e-22)
(0.00957327 -0.000184203 2.50861e-23)
(0.00969882 -0.000258405 -5.0171e-23)
(0.00986348 -0.000272709 -5.18563e-22)
(0.0100516 -0.000219638 6.2184e-22)
(0.0102384 -0.000102119 -6.45875e-22)
(0.0104027 6.38235e-05 7.0699e-22)
(0.010534 0.000252276 -4.92929e-22)
(0.0106244 0.00043527 -4.02222e-22)
(0.0106691 0.000589513 4.12795e-22)
(0.0106686 0.000698237 2.11359e-22)
(0.0106398 0.000751836 0)
(0.0105881 0.000749622 3.21613e-22)
(0.0105157 0.000702294 -4.02157e-22)
(0.0104295 0.000623381 2.12612e-23)
(0.0103297 0.000516914 -5.58242e-24)
(0.0102116 0.000393466 0)
(0.0100661 0.000256728 1.91869e-21)
(0.00988153 0.000105079 2.1597e-21)
(0.00964664 -6.17821e-05 1.05321e-21)
(0.00935217 -0.000239845 9.86556e-22)
(0.00899241 -0.000418688 1.21666e-21)
(0.00857743 -0.000578415 -2.11097e-21)
(0.00812551 -0.000696002 6.11741e-23)
(0.00766635 -0.000731079 -7.98069e-22)
(0.00725307 -0.000679426 5.43171e-23)
(0.0069406 -0.000515345 -1.15467e-22)
(0.00681219 -0.000250727 -3.43108e-24)
(0.00692915 6.22502e-05 5.45895e-23)
(0.0072727 0.000351286 1.35049e-23)
(0.00778019 0.000551048 -1.30138e-23)
(0.00829907 0.000634205 0)
(0.00873766 0.000625038 -6.30004e-22)
(0.00906478 0.000569548 -1.88036e-23)
(0.00930141 0.000496641 5.63383e-23)
(0.00946749 0.000426972 5.74468e-22)
(0.00958052 0.000368043 -5.93419e-22)
(0.00965973 0.000320515 -5.67441e-22)
(0.00971613 0.0002834 -1.0939e-21)
(0.00975554 0.000255398 -1.04146e-21)
(0.00978265 0.000234889 -4.27713e-22)
(0.00980103 0.000220289 -5.96771e-23)
(0.00981292 0.000210308 -4.42613e-22)
(0.00981976 0.000203864 8.18095e-22)
(0.00982237 0.000200256 -9.35366e-23)
(0.00982124 0.000198872 -2.73267e-22)
(0.00981685 0.000199038 0)
(0.00980945 0.000200175 0)
(0.0097993 0.000201569 -3.72717e-24)
(0.00978464 0.00020389 7.59523e-23)
(0.00976494 0.000206215 2.24087e-22)
(0.00974127 0.000206932 7.31331e-23)
(0.00970883 0.000207058 -4.61905e-25)
(0.0096684 0.000203004 -1.51017e-22)
(0.00961682 0.000193281 1.41768e-22)
(0.00955467 0.000172922 -2.06551e-22)
(0.00949005 0.000133371 0)
(0.00943886 6.29857e-05 -7.71443e-23)
(0.0094304 -4.27505e-05 7.5747e-23)
(0.0094659 -0.000164699 -1.95924e-22)
(0.00956977 -0.000267515 0)
(0.00972388 -0.000316593 0)
(0.00990963 -0.00029364 0)
(0.0101057 -0.000203914 0)
(0.0102897 -5.34317e-05 -1.68917e-21)
(0.0104443 0.000133075 -2.93964e-22)
(0.0105586 0.000325966 -1.74352e-22)
(0.010628 0.000498841 1.05561e-22)
(0.0106471 0.00063049 3.23362e-22)
(0.0106267 0.000707041 4.59782e-24)
(0.0105852 0.000723698 -8.54799e-23)
(0.0105138 0.000683181 -4.0662e-23)
(0.010423 0.000600422 -2.61327e-22)
(0.0103023 0.000492982 1.29711e-22)
(0.0101368 0.000352753 -7.98338e-24)
(0.00991399 0.000217253 -5.39403e-22)
(0.00967004 0.000113078 4.83265e-22)
(0.00940486 3.87365e-05 0)
(0.0091222 -3.07156e-06 0)
(0.00883947 -9.32669e-06 3.39196e-23)
(0.0085896 1.47228e-05 -7.12701e-23)
(0.00839499 4.67799e-05 6.62069e-23)
(0.00824764 6.13424e-05 -1.70885e-24)
(0.0081153 6.33873e-05 1.74454e-22)
(0.00799786 5.75268e-05 -1.7251e-22)
(0.00790135 4.75185e-05 -1.07514e-23)
(0.00782411 3.7613e-05 -2.95454e-22)
(0.00776156 3.0283e-05 -3.91357e-23)
(0.00770825 2.6454e-05 1.55727e-22)
(0.00765854 2.61482e-05 1.71271e-22)
(0.00760734 2.88672e-05 2.32425e-22)
(0.00755038 3.38486e-05 -2.31183e-22)
(0.00748498 4.04847e-05 8.92488e-24)
(0.00740902 4.8433e-05 -3.24869e-22)
(0.00732121 5.69614e-05 3.35585e-22)
(0.0072211 6.55541e-05 1.16073e-23)
(0.00710868 7.41551e-05 3.921e-22)
(0.00698386 8.29024e-05 -4.73043e-22)
(0.0068458 9.2337e-05 5.1625e-22)
(0.00669312 0.000103375 -5.67249e-22)
(0.00652271 0.000117184 2.53201e-22)
(0.00632956 0.000135493 -3.28982e-22)
(0.00610593 0.000160947 2.2376e-23)
(0.00583963 0.000198147 -7.26272e-23)
(0.0055112 0.000256052 -4.48606e-22)
(0.00508858 0.000353493 4.80256e-22)
(0.00451786 0.000531404 -9.88907e-23)
(0.00370946 0.000877455 -3.76443e-23)
(0.00252913 0.00156047 1.29836e-22)
(0.00085709 0.00273828 0)
(9.92833e-05 0.00327287 -1.84317e-22)
(-0.000237264 -0.00204321 0)
(-0.000653364 -0.00241662 -9.63467e-23)
(-0.000390541 -0.00202788 4.30358e-23)
(8.69946e-05 -0.0016176 2.29438e-23)
(0.000608652 -0.00128264 -5.28496e-23)
(0.00111451 -0.0010275 6.28407e-23)
(0.00158399 -0.00083938 -6.22908e-23)
(0.00200778 -0.000699395 9.77518e-24)
(0.00238558 -0.000592199 7.41882e-24)
(0.00272111 -0.000507782 1.87254e-23)
(0.00301883 -0.000439708 4.17157e-24)
(0.00328301 -0.000383619 1.0764e-23)
(0.00351738 -0.000336498 -1.65738e-23)
(0.00372519 -0.000296237 3.02886e-23)
(0.00390919 -0.000261347 -9.3723e-24)
(0.00407171 -0.00023077 -2.5526e-24)
(0.00421478 -0.000203761 5.79998e-25)
(0.00434018 -0.000179832 -3.94936e-24)
(0.00444953 -0.000158699 -4.43801e-23)
(0.00454441 -0.000140257 3.83659e-23)
(0.00462637 -0.000124549 -4.19496e-24)
(0.00469706 -0.000111767 -1.43134e-23)
(0.00475829 -0.000102276 1.02481e-22)
(0.00481216 -9.66575e-05 -1.09219e-22)
(0.00486115 -9.57863e-05 -1.36947e-22)
(0.00490831 -0.000100926 1.09347e-22)
(0.0049574 -0.000113894 1.70229e-22)
(0.00501315 -0.000137358 -1.58121e-22)
(0.00508099 -0.000175434 0)
(0.00516994 -0.000234245 0)
(0.00529437 -0.000324117 0)
(0.00539139 -0.000476594 0)
(0.00539369 -0.000713067 -6.39049e-22)
(0.00529993 -0.00103821 -6.42487e-22)
(0.00514997 -0.00145587 5.86565e-22)
(0.00497809 -0.00197918 -2.25629e-22)
(0.00481761 -0.00261901 -8.63295e-23)
(0.00463294 -0.00337899 8.79519e-23)
(0.00438276 -0.00418175 3.8118e-22)
(0.00413415 -0.00493638 1.47643e-22)
(0.00394811 -0.00560667 1.51771e-21)
(0.00380352 -0.00617551 0)
(0.00368591 -0.00662832 -8.70939e-22)
(0.00359268 -0.00695903 -9.65224e-22)
(0.00351328 -0.00717034 1.43178e-22)
(0.00343286 -0.00726922 9.41548e-22)
(0.00333885 -0.00726778 -2.46653e-21)
(0.00321945 -0.00717787 -1.2349e-21)
(0.00305783 -0.00701296 -3.49714e-22)
(0.00284086 -0.00679012 -1.62575e-23)
(0.0025628 -0.00650054 5.88741e-22)
(0.00222888 -0.00614605 -5.07803e-22)
(0.00185037 -0.0057293 -2.01082e-22)
(0.00143726 -0.00522784 8.60879e-24)
(0.00104198 -0.00463291 2.2142e-21)
(0.000715192 -0.00392302 -9.05694e-22)
(0.000535296 -0.00311456 -1.01107e-21)
(0.0005849 -0.00220247 5.4349e-22)
(0.000984974 -0.00124427 6.35595e-23)
(0.00176949 -0.000339997 0)
(0.00288061 0.000405892 -2.2613e-24)
(0.0042339 0.000915795 2.12121e-24)
(0.00555669 0.0011766 1.36767e-22)
(0.0067174 0.00119894 8.43824e-22)
(0.00763396 0.00110301 -9.21818e-22)
(0.00830865 0.000948457 1.018e-21)
(0.00878755 0.000788644 0)
(0.00911537 0.000650772 0)
(0.00933326 0.000543332 1.99956e-21)
(0.00947635 0.000464909 -1.88445e-21)
(0.00956977 0.000410751 0)
(0.00962946 0.000375567 6.88942e-22)
(0.00966595 0.000354462 -3.62448e-23)
(0.00968647 0.000343395 -6.06244e-22)
(0.00969585 0.000339173 6.2672e-22)
(0.00969723 0.000339378 5.34703e-22)
(0.00969283 0.00034217 -1.03197e-21)
(0.0096832 0.000346932 2.98642e-23)
(0.00966874 0.000352512 2.49404e-23)
(0.00964997 0.000357609 7.24497e-22)
(0.00962729 0.000361006 -6.93986e-22)
(0.00959843 0.000362785 -1.00833e-23)
(0.00956487 0.000359903 4.6725e-25)
(0.00952574 0.00035089 9.55794e-24)
(0.00948403 0.000330298 -2.84773e-22)
(0.00944185 0.000291377 0)
(0.00941135 0.000224438 6.95588e-23)
(0.00941645 0.000121619 1.08784e-24)
(0.00946737 -1.34448e-05 5.56115e-23)
(0.00958341 -0.000157315 3.18991e-22)
(0.00975156 -0.000275031 2.19577e-23)
(0.0099549 -0.000335036 8.66446e-22)
(0.0101665 -0.000317424 5.16287e-22)
(0.0103661 -0.000222824 -1.07959e-21)
(0.010535 -6.53855e-05 8.17566e-23)
(0.0106601 0.000132051 4.70863e-22)
(0.0107382 0.000341579 8.54732e-22)
(0.0107657 0.00053485 3.86227e-22)
(0.0107533 0.000689428 0)
(0.0107099 0.000791612 9.17267e-23)
(0.010642 0.000830589 0)
(0.0105576 0.000815106 -3.24152e-22)
(0.0104599 0.000756702 8.97289e-24)
(0.010349 0.000661957 6.29596e-22)
(0.0102197 0.000543047 -7.54297e-22)
(0.010062 0.000408375 0)
(0.00986449 0.00026189 -1.8265e-21)
(0.00961745 0.000104455 -1.02297e-21)
(0.00931486 -6.21681e-05 -1.44444e-22)
(0.00895562 -0.000231334 -1.07799e-21)
(0.00854391 -0.000390263 0)
(0.00809616 -0.000521241 9.3567e-22)
(0.0076331 -0.000604116 0)
(0.00717846 -0.00061639 -4.56901e-22)
(0.00676552 -0.000551773 2.57391e-23)
(0.00641981 -0.000401688 0)
(0.00618029 -0.000172665 0)
(0.00610455 0.000112222 -5.56387e-23)
(0.00621909 0.000418129 0)
(0.00654886 0.000698129 1.29495e-23)
(0.00702532 0.000893498 -2.74307e-23)
(0.00754959 0.000987324 1.4433e-23)
(0.00802691 0.000993452 0)
(0.00842993 0.000941463 0)
(0.00874712 0.000863395 6.01169e-22)
(0.00898497 0.000780525 -6.43865e-22)
(0.00916232 0.000703906 1.18059e-21)
(0.00929365 0.00063853 5.55764e-22)
(0.0093892 0.000585899 2.84225e-23)
(0.00945767 0.000545337 4.79864e-22)
(0.00950588 0.000515184 -5.86985e-23)
(0.0095387 0.000493685 4.50487e-22)
(0.00955961 0.000479037 1.18185e-22)
(0.00957087 0.000469763 -2.8723e-24)
(0.00957403 0.000464527 3.45377e-23)
(0.00957048 0.000461847 -9.06449e-23)
(0.009561 0.000460399 3.3739e-22)
(0.00954666 0.000458642 6.43909e-22)
(0.00952592 0.000456601 0)
(0.00949895 0.00045215 -3.02412e-22)
(0.00946836 0.000442352 -3.71032e-22)
(0.00943101 0.00042648 7.347e-23)
(0.00939109 0.000398259 2.175e-22)
(0.00935064 0.000351635 1.45575e-22)
(0.00931823 0.000277993 -1.45439e-22)
(0.00931723 0.000168819 -3.67014e-23)
(0.00935648 2.37168e-05 -2.92893e-24)
(0.00945978 -0.000138448 2.65471e-22)
(0.00961945 -0.000282048 1.95364e-22)
(0.00982109 -0.000371411 6.1174e-22)
(0.0100403 -0.000381135 -2.79362e-22)
(0.0102545 -0.000306878 1.48372e-22)
(0.0104429 -0.00016035 5.98706e-22)
(0.010591 3.59907e-05 1.26925e-21)
(0.0106918 0.000253188 6.56527e-22)
(0.0107402 0.000461405 0)
(0.0107399 0.000634524 2.40781e-22)
(0.0107104 0.000755411 -5.62615e-22)
(0.0106483 0.000812616 1.0031e-22)
(0.0105651 0.000807264 0)
(0.010463 0.000750322 2.93543e-22)
(0.0103441 0.000657802 0)
(0.0101949 0.000555046 0)
(0.0100134 0.000445987 2.47535e-22)
(0.00980772 0.000350936 5.0484e-22)
(0.00958638 0.000282486 0)
(0.00934415 0.0002369 0)
(0.00908406 0.000214232 1.421e-23)
(0.00881571 0.000212342 -7.14008e-23)
(0.00855176 0.000220878 -3.30529e-23)
(0.00830823 0.000225283 -2.41413e-23)
(0.00809543 0.000213512 1.15136e-22)
(0.00790877 0.000190036 -4.9065e-24)
(0.00774829 0.000160699 1.26784e-23)
(0.00761412 0.000130536 2.23993e-23)
(0.00750285 0.000104451 3.00485e-22)
(0.0074087 8.61002e-05 6.41255e-23)
(0.00732512 7.68267e-05 -3.55812e-22)
(0.00724512 7.61823e-05 1.28479e-23)
(0.00716319 8.28493e-05 -2.45097e-22)
(0.00707426 9.51879e-05 2.61344e-22)
(0.00697444 0.000111508 -1.77919e-23)
(0.00686105 0.000130211 0)
(0.00673243 0.000150095 -2.16755e-23)
(0.00658774 0.000170427 -4.80701e-23)
(0.0064269 0.000191069 4.67372e-22)
(0.00624973 0.000212595 -4.12916e-22)
(0.00605369 0.000236234 5.29286e-22)
(0.00583727 0.000263949 -1.07459e-21)
(0.00559591 0.000298637 9.34232e-22)
(0.00532305 0.000344447 -3.17274e-22)
(0.00500829 0.000407618 -1.35728e-22)
(0.00463579 0.000498304 4.95748e-23)
(0.00418207 0.000634148 0)
(0.00361318 0.000847005 -1.80639e-22)
(0.00288499 0.00119371 6.73837e-23)
(0.00195743 0.00176465 0)
(0.000846377 0.00264578 -8.62091e-23)
(-0.000282829 0.0036299 1.74142e-22)
(-0.000270026 0.00317382 2.90005e-22)
(-0.00017619 -0.00151498 -7.3717e-23)
(-0.00064962 -0.00224324 0)
(-0.000695048 -0.00218856 0)
(-0.000528138 -0.0019404 -5.10208e-23)
(-0.000227729 -0.00167229 4.25291e-23)
(0.000127991 -0.00143326 6.42669e-23)
(0.000499099 -0.00123386 -6.39961e-23)
(0.000862128 -0.00106986 2.26917e-23)
(0.00120528 -0.000934225 0)
(0.00152365 -0.000820816 -1.34176e-23)
(0.00181578 -0.000724834 0)
(0.00208185 -0.000642557 1.28904e-24)
(0.00232284 -0.000571123 0)
(0.00254002 -0.000508365 -4.03194e-24)
(0.00273477 -0.000452653 0)
(0.00290846 -0.000402777 0)
(0.00306241 -0.00035786 7.16529e-25)
(0.00319789 -0.000317316 1.22949e-23)
(0.00331618 -0.000280813 -4.35223e-23)
(0.00341853 -0.000248249 3.33985e-23)
(0.00350629 -0.000219734 0)
(0.00358095 -0.000195597 -6.98992e-23)
(0.00364421 -0.000176424 7.89781e-23)
(0.00369808 -0.000163119 1.25695e-23)
(0.00374503 -0.000156986 0)
(0.00378807 -0.000159844 1.51571e-22)
(0.00383091 -0.000174194 -1.49904e-22)
(0.00387808 -0.000203489 0)
(0.00393466 -0.000252663 -1.96984e-22)
(0.00400846 -0.000328522 1.95786e-22)
(0.00411113 -0.000440565 -2.06376e-22)
(0.00419247 -0.000614205 4.06124e-22)
(0.0041972 -0.000870854 5.27728e-22)
(0.00412862 -0.00122086 1.28749e-22)
(0.00402837 -0.00167267 1.0568e-22)
(0.00392736 -0.00223825 -1.27488e-22)
(0.00384561 -0.00291837 2.38797e-22)
(0.00375273 -0.00369123 5.42029e-23)
(0.00362083 -0.0044794 -6.66725e-23)
(0.00349806 -0.00521622 1.2834e-23)
(0.00341561 -0.005874 2.55161e-24)
(0.00335246 -0.0064331 -1.56421e-22)
(0.0032971 -0.00687774 1.65029e-21)
(0.00324685 -0.00720197 7.33341e-22)
(0.00319144 -0.00740743 2.44774e-22)
(0.0031177 -0.00749891 0)
(0.00301512 -0.007488 5.26717e-23)
(0.00287348 -0.00738555 2.82443e-21)
(0.00268174 -0.00720164 1.39303e-21)
(0.00243261 -0.006946 2.05195e-22)
(0.00212587 -0.00662192 3.62429e-21)
(0.00176996 -0.00623266 0)
(0.00137884 -0.00578072 -2.29054e-21)
(0.000968315 -0.00525716 1.105e-23)
(0.000579198 -0.00466241 -3.08441e-23)
(0.000246431 -0.00399029 1.11043e-21)
(2.7984e-05 -0.0032527 6.10883e-22)
(-3.8314e-05 -0.00244998 -7.79559e-22)
(0.000130325 -0.00160737 1.45614e-22)
(0.000588323 -0.000769055 6.41845e-23)
(0.00133622 3.93168e-06 -2.08931e-22)
(0.00239498 0.000655453 -1.34601e-23)
(0.00361428 0.00110376 5.87682e-22)
(0.00486382 0.00134009 -8.71781e-22)
(0.00599992 0.0014009 1.70045e-21)
(0.00695145 0.00132842 1.74134e-22)
(0.00770378 0.00119462 -1.17961e-21)
(0.00826892 0.00104369 -1.33027e-22)
(0.00867662 0.000905669 -1.02886e-21)
(0.00896298 0.000792713 1.22156e-21)
(0.00916019 0.000707734 8.26501e-22)
(0.00929255 0.00064849 0)
(0.00937841 0.000610404 7.70198e-22)
(0.00943134 0.000588424 6.15403e-22)
(0.00946105 0.00057769 8.59096e-23)
(0.00947426 0.000573977 -1.18951e-21)
(0.00947603 0.000573873 5.85533e-22)
(0.00946927 0.000575497 -6.38058e-23)
(0.00945638 0.000576669 4.52583e-22)
(0.0094392 0.000575026 -3.91489e-22)
(0.00941883 0.000568228 3.61174e-22)
(0.00939476 0.000554409 -3.39059e-22)
(0.00937057 0.000528997 3.16528e-22)
(0.00934804 0.000488201 0)
(0.0093373 0.000425156 8.80703e-24)
(0.00934734 0.00033271 8.5062e-24)
(0.00938905 0.000205408 -8.73653e-23)
(0.00947752 4.60882e-05 0)
(0.0096232 -0.000129073 -9.51607e-23)
(0.00982027 -0.000287492 -1.66115e-22)
(0.0100456 -0.000392936 4.61998e-23)
(0.0102745 -0.000421622 -4.76036e-22)
(0.0104812 -0.000364771 -3.80872e-22)
(0.010649 -0.000231024 4.9852e-22)
(0.0107655 -4.09013e-05 1.17376e-22)
(0.0108269 0.000179117 -4.18272e-22)
(0.0108329 0.000399259 -3.53201e-22)
(0.0108039 0.000592633 -1.28678e-23)
(0.0107385 0.000739391 5.39777e-23)
(0.0106509 0.000829109 -2.82082e-22)
(0.0105506 0.000849788 0)
(0.0104423 0.000824042 0)
(0.0103235 0.000754215 0)
(0.0101884 0.000652743 -6.24437e-22)
(0.010027 0.000531414 -4.52711e-23)
(0.00982821 0.000398358 2.40063e-23)
(0.0095827 0.000258076 8.62036e-23)
(0.00928661 0.000113029 -8.16376e-22)
(0.00894217 -3.30814e-05 -9.41537e-22)
(0.00855717 -0.000172684 0)
(0.00814346 -0.000293793 0)
(0.00772139 -0.000382815 0)
(0.0073103 -0.000426237 0)
(0.00692713 -0.00041255 2.71324e-22)
(0.00658947 -0.000341527 1.01742e-22)
(0.00630379 -0.000212855 0)
(0.00607981 -3.34197e-05 -1.78738e-24)
(0.00593421 0.000188252 0)
(0.00589036 0.00044384 0)
(0.00599213 0.000717253 0)
(0.00625265 0.000963388 0)
(0.00665113 0.00114508 -1.54816e-23)
(0.00710014 0.0012505 5.00252e-22)
(0.00754806 0.00126751 1.63329e-23)
(0.00794759 0.0012321 -5.77739e-22)
(0.0082808 0.00116564 6.19852e-22)
(0.00854976 0.00108815 -6.14824e-22)
(0.00876108 0.00101222 0)
(0.0089229 0.000945064 5.43532e-22)
(0.00904448 0.000889591 -4.55365e-22)
(0.00913402 0.000845886 3.79976e-22)
(0.00919812 0.000812761 -4.74095e-22)
(0.00924209 0.000788279 6.96472e-23)
(0.00926996 0.000770346 5.01969e-23)
(0.00928491 0.000756875 -6.12375e-23)
(0.00928997 0.000745356 -2.80414e-22)
(0.0092873 0.000733553 -8.30005e-23)
(0.00927933 0.000719137 -3.26146e-22)
(0.00926589 0.00070003 -7.73409e-23)
(0.00924879 0.000672624 3.73744e-22)
(0.0092325 0.000633186 5.90895e-22)
(0.00921728 0.000576968 3.56606e-22)
(0.00921387 0.00049721 -7.20231e-23)
(0.00923021 0.000388774 -6.95562e-23)
(0.00927719 0.000246018 7.48287e-23)
(0.00936562 7.09632e-05 -3.89642e-23)
(0.00950907 -0.000121974 1.8168e-24)
(0.00970574 -0.000301372 -3.65169e-22)
(0.0099357 -0.000428577 0)
(0.0101735 -0.000476002 -6.02162e-22)
(0.0103947 -0.000432429 -3.69606e-22)
(0.0105799 -0.00030454 0)
(0.010715 -0.000112954 -4.66791e-22)
(0.0107947 0.000115014 -6.96869e-22)
(0.0108171 0.000347429 2.52704e-22)
(0.0107992 0.000555846 -1.41842e-22)
(0.0107445 0.00071766 -2.66298e-22)
(0.0106634 0.00082046 1.14553e-22)
(0.0105649 0.0008554 -5.43545e-23)
(0.010457 0.000835016 2.85531e-22)
(0.0103394 0.00077276 -3.62412e-22)
(0.0102096 0.000687715 3.11637e-22)
(0.0100535 0.000606219 7.85734e-23)
(0.00988083 0.000534423 -4.23753e-22)
(0.00970308 0.000477049 0)
(0.00951513 0.000440795 1.08849e-22)
(0.00931422 0.000422339 -2.12882e-24)
(0.00910573 0.000418683 -4.40223e-23)
(0.00889573 0.000422679 8.61352e-23)
(0.0086856 0.000421685 -9.37891e-23)
(0.00847589 0.000406333 9.36675e-23)
(0.00827738 0.000374835 0)
(0.00809491 0.00033133 1.08305e-23)
(0.00792983 0.00028242 2.11852e-22)
(0.00778226 0.000235067 -2.39957e-22)
(0.00765025 0.000195597 -3.04767e-22)
(0.00753005 0.000168416 2.64343e-22)
(0.00741696 0.000155195 -1.97211e-22)
(0.00730579 0.000155291 1.97257e-22)
(0.00719143 0.000166817 0)
(0.00706926 0.000187395 -3.07061e-22)
(0.00693566 0.000214492 2.74636e-22)
(0.00678779 0.000245746 -3.75213e-22)
(0.00662371 0.000279307 3.35493e-22)
(0.0064422 0.000313988 4.82269e-23)
(0.00624236 0.000349585 -5.30222e-23)
(0.0060232 0.000387176 0)
(0.00578312 0.000428843 0)
(0.00551938 0.000477841 -6.94774e-23)
(0.00522707 0.000539084 0)
(0.00489882 0.000619524 0)
(0.00452351 0.000729433 1.81537e-22)
(0.00408493 0.000884582 0)
(0.00356049 0.00110963 0)
(0.00292168 0.00144205 4.8988e-22)
(0.00214242 0.00193219 -2.51673e-22)
(0.00122795 0.00262229 0)
(0.000277872 0.00345035 0)
(-0.000402805 0.00394491 -1.68818e-23)
(-0.0002179 0.00271272 -1.81197e-22)
(-0.000116823 -0.00115978 3.26816e-23)
(-0.000507425 -0.001996 -7.31321e-23)
(-0.000677142 -0.00216062 -5.1803e-23)
(-0.000673988 -0.00206808 1.02628e-22)
(-0.000544457 -0.00189824 -1.54755e-22)
(-0.000332648 -0.00171189 7.44864e-23)
(-7.84865e-05 -0.0015339 0)
(0.000192749 -0.0013723 -2.29464e-23)
(0.000464898 -0.00122833 0)
(0.000728571 -0.00110084 -7.09351e-23)
(0.000978444 -0.000987888 5.51546e-23)
(0.00121167 -0.000887367 -9.37512e-24)
(0.00142686 -0.000797341 -2.76092e-23)
(0.00162352 -0.000716152 2.10984e-23)
(0.00180168 -0.000642446 -4.6657e-24)
(0.00196168 -0.000575161 0)
(0.00210404 -0.000513509 -1.46922e-24)
(0.00222945 -0.000456963 -5.63054e-24)