/*--------------------------------*- C++ -*----------------------------------*\
| =========                 |                                                 |
| \\      /  F ield         | OpenFOAM: The Open Source CFD Toolbox           |
|  \\    /   O peration     | Version:  2506                                  |
|   \\  /    A nd           | Website:  www.openfoam.com                      |
|    \\/     M anipulation  |                                                 |
\*---------------------------------------------------------------------------*/
FoamFile
{
    version     2.0;
    format      ascii;
    arch        "LSB;label=32;scalar=64";
    class       volScalarField;
    location    "1.85";
    object      s;
}
// * * * * * * * * * * * * * * * * * * * * * * * * * * * * * * * * * * * * * //

dimensions      [0 0 0 0 0 0 0];

internalField   nonuniform List<scalar> 
4000
(
7.39958e-11
7.86272e-11
9.66814e-11
1.26858e-10
1.7074e-10
2.32968e-10
3.20185e-10
4.40969e-10
6.06034e-10
8.28531e-10
1.12493e-09
1.51673e-09
2.03334e-09
2.71619e-09
3.62445e-09
4.84227e-09
6.48794e-09
8.72519e-09
1.17774e-08
1.59438e-08
2.16159e-08
2.9297e-08
3.96417e-08
5.35036e-08
7.20041e-08
9.66482e-08
1.29471e-07
1.73313e-07
2.32007e-07
3.10661e-07
4.20081e-07
5.72427e-07
7.90939e-07
1.11576e-06
1.61606e-06
2.41687e-06
3.70518e-06
5.81561e-06
9.50535e-06
1.59003e-05
2.70827e-05
4.58519e-05
7.60754e-05
0.00012158
0.000182829
0.000257243
0.000345559
0.000460929
0.000601613
0.000703749
0.000780227
0.000843602
0.000893267
0.000914751
0.00090072
0.000848451
0.000759983
0.000542496
9.19465e-05
-0.00059995
-0.0012163
-0.00107353
-0.000658148
-0.00024575
-8.39651e-05
-3.11036e-05
-1.19377e-05
-4.71978e-06
-1.93709e-06
-8.2685e-07
-3.6672e-07
-1.69189e-07
-8.13562e-08
-4.08538e-08
-2.14464e-08
-1.17582e-08
-6.70888e-09
-3.97636e-09
-2.42659e-09
-1.51499e-09
-9.64868e-10
-6.36315e-10
-4.34372e-10
-3.19437e-10
-2.58596e-10
-2.46901e-10
-2.8221e-10
-3.99622e-10
-6.13277e-10
-1.0377e-09
-1.75441e-09
-2.46732e-09
4.29271e-09
1.04288e-07
4.89377e-07
2.3841e-06
7.64517e-06
3.00153e-05
0.00018972
0.00060124
0.00304462
0.00588283
0.0046338
-0.000871991
-0.00717918
-0.0142186
-0.0325189
-0.0976851
-0.267816
-0.606906
-1.04779
-1.51963
-2.15998
-2.65192
-2.7677
-2.71779
-2.57254
-2.15488
-1.42505
-0.680452
-0.220601
-0.0226603
0.00386708
0.0025806
0.00121115
0.000431781
0.000150991
5.06053e-05
1.66053e-05
5.51357e-06
1.91444e-06
7.0308e-07
2.70434e-07
1.06428e-07
4.16498e-08
1.56416e-08
5.72157e-09
2.51664e-09
1.41569e-09
8.77299e-10
5.62235e-10
3.80261e-10
2.77668e-10
2.36383e-10
2.39186e-10
2.93751e-10
4.47256e-10
4.08079e-10
1.51794e-09
4.82595e-09
7.52771e-10
-5.83405e-08
-3.267e-07
-2.12203e-06
-4.48686e-06
-3.62531e-05
-0.000178857
-0.000850267
-0.00601872
-0.00583956
0.00338277
0.031778
0.090724
0.159132
0.166001
0.144851
0.0575933
-0.119644
-0.397039
-0.849186
-1.09948
-1.17276
-1.17115
-1.12103
-1.03371
-0.920924
-0.794058
-0.66311
-0.534384
-0.398521
-0.249397
-0.101128
0.0582199
0.247774
0.486245
0.789699
1.17148
1.6456
2.19303
2.66354
3.08359
3.50566
3.92458
4.31716
4.66092
4.93752
5.12895
5.18575
4.88294
2.68655
1.47263e-14
1.64636e-14
3.58051e-14
7.27466e-14
1.42529e-13
2.71612e-13
5.0085e-13
8.92877e-13
1.54424e-12
2.60357e-12
4.29893e-12
6.97793e-12
1.11666e-11
1.76554e-11
2.76226e-11
4.281e-11
6.57716e-11
1.0022e-10
1.51506e-10
2.27255e-10
3.40493e-10
5.16941e-10
7.90805e-10
1.21267e-09
1.8599e-09
2.85141e-09
4.36667e-09
6.67918e-09
1.01927e-08
1.56062e-08
1.9132e-08
2.05935e-08
1.87747e-08
1.42641e-08
9.19225e-09
5.06441e-09
2.47036e-09
1.26146e-09
1.0528e-09
1.47739e-09
2.4741e-09
4.21357e-09
6.97959e-09
1.10261e-08
1.63457e-08
2.28384e-08
3.08366e-08
4.12086e-08
5.20245e-08
6.06868e-08
6.82508e-08
7.52044e-08
8.16235e-08
8.66565e-08
8.97215e-08
9.50522e-08
2.65742e-07
1.65969e-06
1.29643e-05
-0.000127174
-0.000535173
-0.00124668
-0.00173403
-0.00145593
-0.000835307
-0.000358062
-0.000151136
-6.72924e-05
-3.05169e-05
-1.38162e-05
-6.23959e-06
-2.83151e-06
-1.30145e-06
-6.0956e-07
-2.92411e-07
-1.44451e-07
-7.37621e-08
-3.91018e-08
-2.15073e-08
-1.2257e-08
-7.21873e-09
-4.45302e-09
-2.9148e-09
-2.09889e-09
-1.68125e-09
-1.56111e-09
-1.69262e-09
-2.10289e-09
-2.84955e-09
-3.66218e-09
-4.96434e-09
-2.37987e-08
-2.00945e-08
5.99238e-08
5.54127e-07
2.55506e-06
1.1999e-05
7.94787e-05
0.0003924
0.000819101
0.000895409
-0.00216915
-0.0112853
-0.0220876
-0.0323155
-0.0488145
-0.0871748
-0.159548
-0.255531
-0.33736
-0.394733
-0.384395
-0.316596
-0.205918
-0.0786763
0.0348123
0.114536
-0.0570911
-0.304958
-0.449674
-0.376675
-0.195618
-0.0623832
-0.00556726
0.00695002
0.00489999
0.00195412
0.000627906
0.000193406
6.08429e-05
1.93725e-05
6.24107e-06
2.03406e-06
6.66076e-07
2.15996e-07
6.67565e-08
2.46338e-08
1.29752e-08
8.15063e-09
5.39954e-09
3.46954e-09
2.24984e-09
1.70676e-09
1.52243e-09
1.54589e-09
1.81759e-09
2.16373e-09
2.68732e-09
9.26451e-09
-1.14364e-08
-3.65629e-08
-1.68901e-07
-6.9335e-07
-1.84624e-06
-1.96713e-05
-0.000127132
-0.00053206
-0.00104459
-0.000570026
0.0113142
0.0374689
0.0684502
0.0871333
0.077743
0.0280463
-0.0692512
-0.203978
-0.360129
-0.508602
-0.621027
-0.705118
-0.726385
-0.698894
-0.625852
-0.514084
-0.38021
-0.279509
-0.218204
-0.155723
-0.0763563
0.00297033
0.0743993
0.131835
0.170479
0.184506
0.177998
0.164499
0.148914
0.136574
0.132317
0.141389
0.170795
0.230738
0.337936
0.522706
0.845924
1.43468
2.65216
4.21345
3.19604
4.55268e-18
-9.43948e-20
-3.67029e-18
-1.27468e-17
-2.20813e-17
3.44428e-17
2.80297e-16
8.66133e-16
1.99023e-15
3.9213e-15
7.38067e-15
1.35617e-14
2.42604e-14
4.23393e-14
7.22622e-14
1.20863e-13
1.98411e-13
3.20034e-13
5.07576e-13
7.91856e-13
1.21505e-12
1.83235e-12
2.71687e-12
3.96333e-12
5.69308e-12
8.05969e-12
1.12542e-11
1.55051e-11
2.10607e-11
2.82691e-11
3.62055e-11
3.72373e-11
2.94728e-11
1.83708e-11
8.74939e-12
2.65293e-12
1.50862e-13
-2.10602e-13
-1.31973e-13
-2.22399e-14
1.1922e-13
2.81456e-13
4.77919e-13
7.51407e-13
1.10843e-12
1.55061e-12
2.10634e-12
2.82426e-12
3.56864e-12
4.2184e-12
4.83144e-12
5.42503e-12
6.02935e-12
7.41144e-12
3.4075e-11
6.03927e-10
1.45454e-08
3.15466e-07
6.87861e-06
3.2471e-07
-0.000148733
-0.000927009
-0.00241626
-0.00331331
-0.00300491
-0.00205161
-0.00118728
-0.000623281
-0.000308072
-0.000146823
-6.83631e-05
-3.12471e-05
-1.40946e-05
-6.35003e-06
-2.89422e-06
-1.34261e-06
-6.37368e-07
-3.13895e-07
-1.60682e-07
-8.5203e-08
-4.72115e-08
-2.8589e-08
-1.92523e-08
-1.44309e-08
-1.18938e-08
-1.12097e-08
-1.22915e-08
-1.51337e-08
-2.08371e-08
-3.05676e-08
-4.08416e-08
-1.08719e-07
-7.00115e-08
-2.10252e-07
1.00068e-07
4.65827e-06
3.75238e-05
0.000276554
0.000665338
0.000893458
-0.00274417
-0.0160926
-0.0361187
-0.0544648
-0.073765
-0.107776
-0.171696
-0.266494
-0.37463
-0.452617
-0.466947
-0.446598
-0.36512
-0.221212
-0.0501995
0.102027
0.19718
0.21949
0.185656
0.080241
-0.036043
-0.0753401
-0.0389542
0.0078303
0.0269305
0.0210877
0.0105589
0.00432847
0.0015406
0.000492073
0.000153065
4.69316e-05
1.4144e-05
4.26257e-06
1.24655e-06
4.00613e-07
2.43331e-07
1.77306e-07
9.83062e-08
3.76393e-08
1.40961e-08
1.12642e-08
1.05934e-08
1.06402e-08
1.15922e-08
1.42579e-08
1.91446e-08
1.92783e-08
4.59734e-08
-6.7741e-08
-3.79012e-07
-1.0272e-06
-2.06554e-06
-1.51296e-05
-9.96325e-05
-0.000434759
-0.000951181
0.000299155
0.0129942
0.0451749
0.0847077
0.1092
0.100797
0.0461641
-0.0728221
-0.240029
-0.430484
-0.620473
-0.782005
-0.890056
-0.930227
-0.918033
-0.8598
-0.747389
-0.597966
-0.436356
-0.282035
-0.144616
-0.0236179
0.0853996
0.173235
0.203884
0.206058
0.196425
0.171498
0.131615
0.0807497
0.0372349
0.0150199
0.00807613
0.00484272
0.00294435
0.00178147
0.00107162
0.00112111
0.00749094
0.0731224
0.9926
3.2769
1.99908
8.001e-18
1.76447e-18
4.89192e-18
-1.70948e-18
-3.49499e-17
-1.07969e-16
-2.01456e-16
-2.76292e-16
-2.72532e-16
-1.09407e-16
-2.10449e-17
-1.14202e-18
6.52308e-18
1.22989e-17
2.7838e-17
7.07683e-17
1.68707e-16
3.60144e-16
6.92827e-16
1.22086e-15
1.99752e-15
3.0817e-15
4.30113e-15
4.2083e-15
-1.24111e-15
-2.14178e-14
-7.52673e-14
-1.98181e-13
-4.51149e-13
-9.40064e-13
-1.77095e-12
-2.8488e-12
-3.43125e-12
-3.38384e-12
-2.961e-12
-2.35916e-12
-1.15659e-12
-3.02327e-13
-8.7297e-15
-1.10471e-16
-4.84675e-17
-1.30789e-17
1.87737e-17
4.28845e-17
6.37219e-17
8.85667e-17
1.2058e-16
1.62284e-16
2.06774e-16
2.48718e-16
3.00332e-16
2.38751e-16
1.62288e-15
3.76142e-13
2.08618e-11
5.59251e-10
1.21277e-08
1.85052e-07
1.7922e-06
9.4068e-06
-0.000121118
-0.000899619
-0.00453725
-0.00978156
-0.0118983
-0.0100495
-0.00669771
-0.00395671
-0.00218045
-0.00111897
-0.000536743
-0.000246795
-0.000111014
-4.87574e-05
-2.08753e-05
-8.91749e-06
-3.89046e-06
-1.73102e-06
-7.93827e-07
-3.85795e-07
-2.08231e-07
-1.32189e-07
-9.40572e-08
-7.24529e-08
-6.06296e-08
-5.75732e-08
-6.25241e-08
-7.50803e-08
-9.71492e-08
-1.33036e-07
-1.968e-07
-3.4522e-07
-4.87022e-07
-1.66151e-06
-6.11243e-06
7.09368e-06
0.000157801
0.000497232
0.000608312
-0.00502278
-0.0258511
-0.058031
-0.0869712
-0.110697
-0.142059
-0.197869
-0.28335
-0.382588
-0.454248
-0.468658
-0.44177
-0.348092
-0.194253
-0.0222413
0.13167
0.226883
0.237051
0.204219
0.1509
0.111287
0.0716646
0.0432539
0.0501812
0.07846
0.0961661
0.0842136
0.0527266
0.0234147
0.00886923
0.00324678
0.00107351
0.000327736
9.26187e-05
2.16605e-05
3.7139e-06
-3.02773e-07
-8.06519e-07
-2.56759e-07
-3.94924e-10
8.41575e-08
9.54659e-08
7.90564e-08
6.18345e-08
5.96108e-08
6.58105e-08
7.74631e-08
1.07597e-07
9.94523e-08
1.32898e-07
1.64012e-07
-6.67616e-07
-1.06576e-06
-8.17619e-06
-8.07833e-05
-0.000313276
-0.00081007
0.00144718
0.0189762
0.0615961
0.111332
0.136941
0.125699
0.0429344
-0.111417
-0.316579
-0.540305
-0.748842
-0.917281
-1.02364
-1.06148
-1.04455
-0.979714
-0.848935
-0.674155
-0.481119
-0.294667
-0.128344
0.0159232
0.136049
0.197502
0.199793
0.187494
0.150389
0.0936448
0.0421531
0.0157916
0.00730146
0.00346538
0.00150179
0.000587973
0.000221034
7.70902e-05
2.93078e-05
0.000116744
-0.000465706
0.00331247
-0.0164569
0.399516
2.32873
-0.270201
2.30301e-18
-9.19511e-19
2.6913e-18
1.31656e-17
3.05512e-17
4.61395e-17
4.98315e-17
4.01495e-17
2.12424e-17
5.74513e-18
2.29937e-18
1.21995e-18
-3.47575e-18
-1.74561e-17
-4.60118e-17
-9.19691e-17
-1.53127e-16
-2.20868e-16
-2.81805e-16
-3.1565e-16
-2.8979e-16
-1.79777e-16
-4.75205e-17
5.26134e-17
-1.27705e-15
-6.09773e-15
-1.91842e-14
-4.923e-14
-1.08355e-13
-2.13084e-13
-3.27011e-13
-2.99454e-13
-1.94253e-13
-9.46878e-14
-3.90085e-14
-1.24334e-14
-3.14893e-15
-5.02545e-16
-3.16896e-17
2.23867e-17
1.46226e-17
7.74078e-18
2.50058e-18
-2.88997e-18
-7.78168e-18
-1.24729e-17
-1.76866e-17
-2.3929e-17
-3.03339e-17
-3.68646e-17
-3.31403e-17
-1.45647e-16
6.04929e-16
1.08551e-13
5.2361e-12
1.35212e-10
2.19608e-09
3.57733e-08
4.4571e-07
8.05781e-06
-1.47735e-05
-0.000693232
-0.00422335
-0.0171324
-0.0331595
-0.0391115
-0.0334156
-0.0221651
-0.0122312
-0.0063676
-0.0032541
-0.00156857
-0.000696958
-0.000296352
-0.000124832
-5.088e-05
-1.97563e-05
-7.81939e-06
-3.29133e-06
-1.45118e-06
-7.97606e-07
-5.40917e-07
-3.93155e-07
-3.11669e-07
-2.78323e-07
-2.80289e-07
-3.14928e-07
-3.87014e-07
-5.0323e-07
-6.94661e-07
-1.14948e-06
-1.60384e-06
-3.78674e-06
-1.14162e-05
-4.09577e-05
2.46935e-05
0.000280998
0.000132451
-0.00820828
-0.0386673
-0.0863052
-0.128926
-0.158578
-0.186783
-0.233319
-0.306334
-0.394267
-0.45826
-0.468493
-0.438872
-0.341753
-0.192413
-0.0263119
0.124518
0.228782
0.257265
0.223211
0.1434
0.0664792
0.028996
0.0238665
0.0370166
0.0737046
0.128287
0.175956
0.188664
0.158909
0.10219
0.0489274
0.0181573
0.00659417
0.00217925
0.000600692
0.000138483
1.33485e-05
-1.56997e-05
-1.37712e-05
-6.59752e-06
-2.61001e-06
-8.32606e-07
-1.25775e-07
1.65683e-07
3.05057e-07
3.47466e-07
3.96094e-07
4.68973e-07
5.73869e-07
9.06676e-07
8.31824e-07
1.86915e-06
2.13732e-06
1.28684e-05
-5.89251e-05
-0.000151633
-0.000515162
0.00366204
0.0285763
0.0840148
0.144962
0.171348
0.149755
0.0543228
-0.159854
-0.397455
-0.641421
-0.859753
-1.01721
-1.10362
-1.11601
-1.09903
-1.03836
-0.913475
-0.736657
-0.531536
-0.324813
-0.135653
0.0270851
0.153869
0.203563
0.196171
0.166992
0.108004
0.0482775
0.012288
0.00313706
0.000864437
0.000189079
7.46042e-06
-2.49404e-05
-1.88995e-05
-9.83672e-06
-5.78444e-06
-1.19645e-07
-3.45378e-05
-0.000686631
-0.00310182
-0.0412779
0.0981726
0.943362
-3.11862
-6.35349e-18
-9.58563e-19
-3.78807e-18
-7.88096e-18
-1.11245e-17
-1.0947e-17
-7.82846e-18
-4.24352e-18
-1.71145e-18
-5.40588e-19
9.50369e-19
4.59494e-18
1.15331e-17
2.15534e-17
3.31358e-17
4.37299e-17
5.06901e-17
5.20987e-17
4.70996e-17
3.59431e-17
2.27131e-17
1.67308e-18
-1.9562e-17
2.07907e-17
1.10987e-16
7.44021e-17
3.2235e-18
-6.75742e-17
-1.40536e-16
-3.30336e-16
-5.82123e-16
-5.22943e-16
-2.04879e-16
7.3462e-18
5.07702e-17
1.15989e-16
4.35147e-16
2.06604e-16
4.84606e-17
-5.22063e-18
-8.04133e-18
-4.72504e-18
-2.49408e-18
-8.41791e-19
4.40197e-19
1.42302e-18
2.29208e-18
3.16232e-18
3.90003e-18
4.57119e-18
1.43876e-18
2.02637e-17
1.38865e-17
1.07301e-14
5.17123e-13
1.62489e-11
3.53908e-10
5.51659e-09
8.35193e-08
7.84481e-07
9.76135e-06
-7.59439e-05
-0.00191879
-0.0119722
-0.0437852
-0.0830656
-0.0917836
-0.0813778
-0.0585138
-0.0344598
-0.0166377
-0.00775179
-0.00369023
-0.00166083
-0.000662434
-0.000249899
-9.47905e-05
-3.34279e-05
-1.04695e-05
-3.69226e-06
-1.63504e-06
-1.28431e-06
-1.23289e-06
-1.18508e-06
-1.15757e-06
-1.20724e-06
-1.36381e-06
-1.65888e-06
-2.14945e-06
-2.99014e-06
-4.72661e-06
-7.48179e-06
-1.92127e-05
-9.89188e-05
-0.000144942
-5.08467e-07
-0.000616147
-0.0126784
-0.0553343
-0.122371
-0.181924
-0.21894
-0.242698
-0.277259
-0.335119
-0.407571
-0.461707
-0.466036
-0.429621
-0.324816
-0.173986
-0.0146502
0.13119
0.238832
0.279863
0.252886
0.165565
0.0694239
0.012753
0.000507138
0.0027931
0.0156872
0.0620587
0.151896
0.250743
0.315934
0.320513
0.266349
0.178166
0.0927569
0.0356213
0.0121702
0.00400168
0.000936621
7.13577e-05
-9.66952e-05
-8.50077e-05
-5.01071e-05
-2.33021e-05
-9.14704e-06
-2.75669e-06
6.14204e-08
1.421e-06
1.79406e-06
2.02876e-06
2.36644e-06
2.73614e-06
4.32132e-06
5.33344e-06
8.01253e-06
5.42448e-05
5.39366e-05
1.06797e-05
8.5844e-06
0.00752719
0.043202
0.11463
0.185846
0.211515
0.177155
0.0471733
-0.183698
-0.478963
-0.73339
-0.943561
-1.08334
-1.12951
-1.12955
-1.10841
-1.04552
-0.927704
-0.761512
-0.5628
-0.353462
-0.153688
0.0217579
0.156629
0.206767
0.194452
0.149881
0.0814048
0.0252996
0.00369655
0.000436374
-7.576e-05
-0.000105732
-6.87605e-05
-3.16952e-05
-1.26265e-05
-7.05454e-06
-3.94858e-06
-1.97855e-06
-7.36467e-06
-9.47782e-05
-0.00133588
-0.0114948
-0.13769
-0.529605
-1.16606
-5.19041
2.58615e-18
1.21539e-18
1.98058e-18
2.77262e-18
2.76868e-18
1.93839e-18
1.01755e-18
4.23733e-19
-3.04794e-20
-7.70685e-19
-2.19261e-18
-4.34436e-18
-6.85406e-18
-9.01388e-18
-1.02363e-17
-1.02311e-17
-9.13708e-18
-7.30289e-18
-5.16312e-18
-3.19152e-18
-1.80784e-18
-5.76496e-19
-1.30327e-18
-3.59491e-18
2.03861e-17
3.42478e-17
7.48825e-17
1.39586e-16
2.4053e-16
3.6078e-16
4.35175e-16
4.16418e-16
3.07799e-16
1.53512e-16
3.9601e-17
-1.25407e-17
-4.97895e-17
-5.38495e-17
-2.42025e-17
-2.19701e-18
2.42424e-18
1.78211e-18
9.82736e-19
4.70565e-19
1.48025e-19
-2.90941e-20
-1.20031e-19
-1.48652e-19
-9.25731e-20
2.10204e-19
6.90279e-19
9.30767e-18
-6.17715e-17
1.22126e-17
8.44976e-15
4.93872e-13
1.27933e-11
3.37583e-10
1.05252e-08
2.40834e-07
1.57418e-06
1.02237e-05
-0.000143258
-0.0036721
-0.0244988
-0.079918
-0.151992
-0.16548
-0.150546
-0.116569
-0.0754081
-0.0408497
-0.0179363
-0.00743861
-0.00325037
-0.00132988
-0.000448269
-0.000137266
-4.04908e-05
-8.79565e-06
-1.80589e-06
-2.0553e-06
-3.19335e-06
-4.08547e-06
-4.56216e-06
-5.01626e-06
-5.76753e-06
-7.07228e-06
-9.36161e-06
-1.4049e-05
-2.03312e-05
-4.70139e-05
-0.000115964
-0.00038086
-0.000394488
-0.00173017
-0.019033
-0.0769885
-0.167505
-0.247319
-0.292453
-0.310296
-0.329106
-0.368501
-0.421166
-0.463217
-0.459115
-0.41151
-0.295248
-0.144459
0.00887675
0.143817
0.247939
0.298932
0.285075
0.206404
0.0934595
0.0178386
0.000454284
-0.000581222
0.000761843
0.00975878
0.0496869
0.166698
0.336089
0.479174
0.543949
0.518692
0.420743
0.287546
0.158522
0.0668318
0.0204608
0.00601165
0.00115872
-0.000264477
-0.000384207
-0.000275041
-0.000135923
-5.60254e-05
-1.93215e-05
-1.17729e-06
6.77324e-06
9.04184e-06
1.00217e-05
1.16344e-05
1.42054e-05
1.93502e-05
3.27279e-05
5.84603e-05
0.00023353
0.000200785
0.000957648
0.0142333
0.0647811
0.15589
0.236284
0.258581
0.205804
0.0328613
-0.234759
-0.535376
-0.814949
-1.00038
-1.11029
-1.13364
-1.11974
-1.08105
-0.999642
-0.877207
-0.728283
-0.551725
-0.358943
-0.16552
0.0123155
0.153234
0.210575
0.196312
0.143439
0.0697342
0.0160946
0.000988636
-0.000254581
-0.000214955
-0.00011366
-3.43146e-05
-8.81e-06
-3.3876e-06
-1.22957e-06
-6.93547e-07
-4.27915e-07
-5.06892e-07
-7.04043e-06
-0.000114424
-0.00200323
-0.0171062
-0.400498
-1.72451
-3.46909
-5.24751
-4.62922e-19
-6.08008e-19
-6.85598e-19
-7.25351e-19
-5.52466e-19
-2.93239e-19
-1.07296e-19
4.86305e-20
3.00638e-19
7.25521e-19
1.29223e-18
1.85714e-18
2.23122e-18
2.29242e-18
2.0743e-18
1.68336e-18
1.25062e-18
8.60364e-19
5.61281e-19
3.69763e-19
2.7882e-19
1.79712e-19
-7.87458e-20
-2.58778e-19
-3.01987e-19
2.11561e-18
9.03129e-18
1.06129e-17
-5.54288e-18
-3.07369e-17
-5.06584e-17
-7.04066e-17
-8.31989e-17
-6.70459e-17
-3.17126e-17
-5.15855e-18
6.97757e-18
1.3708e-17
8.921e-18
2.15919e-18
-2.45207e-19
-4.25747e-19
-2.77084e-19
-1.62136e-19
-9.28082e-20
-7.52111e-20
-1.01301e-19
-1.80482e-19
-3.04555e-19
-5.98906e-19
-6.82627e-19
-5.95166e-18
2.52364e-17
-4.02563e-17
9.65954e-16
6.11706e-14
2.4001e-12
5.45838e-11
5.72341e-10
9.71895e-09
3.83401e-07
5.20629e-06
1.03359e-05
-0.00016505
-0.00509661
-0.0366452
-0.114911
-0.206888
-0.235292
-0.220839
-0.180452
-0.128008
-0.0768542
-0.0386947
-0.0155065
-0.00566608
-0.00220946
-0.000756461
-0.000178269
-2.72813e-05
-1.88378e-06
-3.60833e-06
-8.91083e-06
-1.35698e-05
-1.67574e-05
-1.94098e-05
-2.28797e-05
-2.86778e-05
-3.98974e-05
-6.32779e-05
-0.000102745
-0.000256758
-0.000653254
-0.00102379
-0.00390183
-0.0283925
-0.105727
-0.223546
-0.326392
-0.379557
-0.389493
-0.38766
-0.406282
-0.43531
-0.460974
-0.447549
-0.382734
-0.25565
-0.104106
0.041276
0.165457
0.261433
0.316809
0.314609
0.253736
0.133222
0.033545
0.00112727
-0.000509607
-0.000325902
-4.08733e-05
0.00406496
0.029377
0.133438
0.348741
0.619834
0.789634
0.824146
0.747435
0.59513
0.411019
0.237843
0.109087
0.0346599
0.00741063
0.000617263
-0.00102787
-0.000944987
-0.000622064
-0.000300469
-0.000103655
-9.42156e-06
2.79803e-05
4.0165e-05
4.56599e-05
5.44759e-05
7.21894e-05
9.80913e-05
0.00021397
0.000501343
0.000701651
0.0031272
0.0256301
0.0961586
0.210367
0.297765
0.309199
0.233681
0.0104447
-0.300045
-0.610547
-0.874313
-1.0274
-1.10113
-1.09037
-1.05048
-0.975209
-0.869654
-0.749402
-0.621513
-0.482078
-0.324103
-0.155296
0.0104331
0.149848
0.215693
0.202136
0.146442
0.0681603
0.013554
0.000110489
-0.000399936
-0.000220237
-8.20583e-05
-1.32459e-05
-2.04391e-06
-3.51864e-07
-6.96041e-08
-1.35446e-08
-2.58641e-09
-5.58386e-09
-2.24697e-07
-5.69041e-06
-0.000117156
-0.00209065
-0.0304398
-0.884852
-3.14502
-4.94911
-4.38318
3.18872e-20
1.83194e-19
1.80438e-19
1.54948e-19
9.45848e-20
3.42309e-20
-1.64234e-20
-8.89949e-20
-2.02729e-19
-3.43959e-19
-4.71616e-19
-5.39677e-19
-5.24839e-19
-4.43224e-19
-3.37308e-19
-2.38067e-19
-1.61605e-19
-1.08506e-19
-7.29562e-20
-4.6503e-20
-3.18953e-20
-5.82605e-20
-1.97547e-19
-5.48326e-19
-1.36473e-18
-2.6617e-18
-4.84581e-18
-6.64628e-18
-5.90402e-18
-1.96603e-18
3.49131e-18
9.37702e-18
1.67265e-17
1.89727e-17
1.24248e-17
4.15106e-18
-6.49521e-19
-3.37095e-18
-2.85241e-18
-1.06579e-18
-1.532e-19
4.60868e-20
6.18475e-20
5.31584e-20
4.23957e-20
4.36491e-20
6.32901e-20
1.15484e-19
1.9236e-19
3.39739e-19
4.68524e-19
1.8007e-18
-6.86855e-18
6.61247e-17
-8.18855e-16
-3.17012e-15
-5.92535e-15
2.25717e-12
4.06472e-11
5.7099e-10
1.1484e-08
5.29723e-07
5.90613e-06
2.49289e-05
-0.00014458
-0.00596941
-0.044308
-0.136528
-0.237946
-0.279254
-0.268315
-0.232885
-0.175799
-0.115597
-0.0643646
-0.0297241
-0.0105163
-0.00324161
-0.00103402
-0.000239232
-2.88739e-05
-1.56829e-05
-3.31838e-05
-5.00448e-05
-6.28572e-05
-7.4387e-05
-8.98423e-05
-0.000117375
-0.0001736
-0.000293417
-0.000603264
-0.00129208
-0.00237446
-0.00825194
-0.0434596
-0.144183
-0.293137
-0.420172
-0.48039
-0.478241
-0.453795
-0.443045
-0.450974
-0.454487
-0.429498
-0.34524
-0.20791
-0.0572146
0.0794561
0.191548
0.278619
0.334418
0.342035
0.300362
0.18374
0.0621325
0.00420944
-0.000482325
-0.00026243
-8.76806e-05
-0.000134809
0.000203592
0.00832104
0.0584359
0.242092
0.555871
0.876963
1.05076
1.03039
0.922723
0.734948
0.51319
0.306792
0.148108
0.0527573
0.00884734
-0.00140635
-0.00212691
-0.00154185
-0.000952967
-0.00040291
-7.23067e-05
9.18641e-05
0.000160604
0.000197421
0.000253954
0.000369085
0.000651699
0.00121153
0.00218492
0.00887193
0.0457768
0.142494
0.27986
0.369154
0.361964
0.249995
-0.0223311
-0.366247
-0.698915
-0.913774
-1.04507
-1.03463
-0.983286
-0.885389
-0.77007
-0.661535
-0.557397
-0.456697
-0.355044
-0.2433
-0.113583
0.0259611
0.153278
0.222131
0.211488
0.155933
0.0730633
0.0145143
4.40953e-05
-0.000412898
-0.000204211
-5.84833e-05
-6.13839e-06
-6.34374e-07
-3.47121e-08
1.05335e-08
6.59891e-09
3.10757e-09
2.34619e-09
-7.04597e-11
-1.29357e-07
-4.11258e-06
-9.5403e-05
-0.0015084
-0.0790238
-1.48246
-4.10134
-4.90949
-2.25364
3.73578e-21
-3.71452e-20
-3.81199e-20
-2.79812e-20
-1.27067e-20
3.05601e-21
2.25913e-20
5.15426e-20
8.65563e-20
1.16728e-19
1.30798e-19
1.24213e-19
1.01539e-19
7.36253e-20
4.99435e-20
3.3085e-20
2.22878e-20
1.52503e-20
9.83458e-21
5.73506e-21
7.34214e-21
2.10983e-20
4.12849e-20
3.9281e-20
-5.87938e-21
-1.09389e-19
-1.92165e-19
1.82632e-21
3.60341e-19
3.13478e-19
-2.35683e-19
-1.15375e-18
-2.95623e-18
-4.36858e-18
-3.61956e-18
-1.68324e-18
-1.64097e-19
7.68506e-19
8.31124e-19
4.09615e-19
1.1423e-19
1.43078e-20
-1.19548e-20
-1.92354e-20
-1.93573e-20
-2.01822e-20
-2.72315e-20
-4.94161e-20
-8.37624e-20
-1.36973e-19
-2.60596e-19
-1.19899e-19
-9.6536e-19
-1.69979e-17
2.86179e-16
-8.31165e-16
-3.12172e-14
1.24207e-13
3.6437e-12
1.98293e-11
4.69811e-11
1.17643e-09
5.44946e-07
8.20802e-06
5.83125e-05
-9.42752e-05
-0.00622891
-0.0458489
-0.141241
-0.241217
-0.290922
-0.285343
-0.259412
-0.205891
-0.142855
-0.0860911
-0.0433986
-0.0175495
-0.00507196
-0.00130418
-0.000367039
-0.000179391
-0.000180116
-0.000213699
-0.00024822
-0.000289295
-0.000357591
-0.00048583
-0.000777243
-0.00147103
-0.00295728
-0.00590199
-0.0171893
-0.066725
-0.197235
-0.378878
-0.529981
-0.593257
-0.572699
-0.52292
-0.482579
-0.465418
-0.447802
-0.402151
-0.297996
-0.155451
-0.00966916
0.115713
0.215799
0.29447
0.350084
0.367449
0.340631
0.242193
0.105626
0.0151437
-0.000116485
-0.000319042
-0.00011757
-1.84707e-05
-9.89129e-06
-0.000263138
-6.17965e-05
0.0117013
0.0868425
0.331975
0.694513
1.00055
1.13259
1.10519
1.00032
0.793958
0.553202
0.33122
0.162927
0.058203
0.00950827
-0.0015943
-0.00208936
-0.00137423
-0.000564878
8.80554e-05
0.000480489
0.000670192
0.000870374
0.00122725
0.00202748
0.00366836
0.00705775
0.0229494
0.0803671
0.210634
0.361807
0.445892
0.413393
0.246392
-0.07615
-0.447363
-0.760545
-0.95172
-0.997279
-0.95122
-0.813649
-0.660518
-0.519689
-0.406395
-0.325299
-0.259833
-0.197497
-0.128083
-0.0427422
0.0616892
0.167556
0.231773
0.223273
0.169101
0.0825086
0.0179272
0.000261559
-0.000405072
-0.000191393
-4.8556e-05
-4.07138e-06
-2.0018e-07
2.42032e-08
1.3243e-08
4.5597e-09
1.54279e-09
8.30917e-10
8.59818e-10
-4.78586e-10
-6.93634e-08
-3.26467e-06
-3.15497e-05
-0.00088332
-0.143317
-1.8691
-4.20268
-4.42399
-0.496408
-1.39549e-21
4.74711e-21
6.30598e-21
3.83673e-21
-7.84841e-23
-5.18177e-21
-1.23042e-20
-2.10201e-20
-2.8605e-20
-3.20675e-20
-3.03143e-20
-2.46025e-20
-1.74893e-20
-1.14014e-20
-7.30613e-21
-4.79449e-21
-3.26113e-21
-2.20233e-21
-1.41127e-21
-1.08207e-21
-1.3205e-21
-4.60905e-22
5.71523e-21
2.09431e-20
4.70256e-20
8.62735e-20
1.29794e-19
1.33461e-19
7.87351e-20
2.51137e-20
3.21347e-20
1.27419e-19
4.59844e-19
8.60152e-19
8.87972e-19
5.21319e-19
1.2285e-19
-1.59006e-19
-2.24877e-19
-1.36379e-19
-5.02207e-20
-1.14167e-20
2.35418e-21
7.41385e-21
8.49729e-21
8.66655e-21
1.05204e-20
1.7963e-20
3.03116e-20
4.56883e-20
1.09126e-19
-7.13131e-20
8.31795e-19
2.91394e-18
-3.34301e-17
2.4882e-16
6.959e-15
1.99177e-13
4.1432e-12
-7.7361e-12
-2.43871e-10
-2.06882e-09
-5.04157e-09
1.18661e-07
7.59172e-06
8.3177e-05
-6.07698e-06
-0.00614576
-0.0388739
-0.124471
-0.223259
-0.284063
-0.284733
-0.265763
-0.21748
-0.156857
-0.0988148
-0.05306
-0.02297
-0.00760106
-0.00238106
-0.00118531
-0.000954953
-0.00094967
-0.00101491
-0.00115988
-0.00146728
-0.00208174
-0.00359257
-0.00691314
-0.0136566
-0.0345118
-0.103265
-0.26866
-0.484245
-0.658148
-0.714754
-0.673849
-0.590059
-0.518112
-0.47345
-0.431702
-0.360048
-0.243335
-0.102621
0.0310253
0.140881
0.227971
0.300518
0.358662
0.386303
0.373298
0.299607
0.161464
0.0400954
0.000902722
-0.000433282
-0.000159474
-3.06835e-05
-2.18324e-06
-8.49505e-07
-3.30701e-05
-0.000462165
-0.000569732
0.0130307
0.104236
0.373007
0.732074
1.00898
1.11033
1.08333
0.967781
0.755368
0.515876
0.301389
0.14237
0.0472374
0.00674743
-0.000865862
-0.000459895
0.000680142
0.00163271
0.00232212
0.0029896
0.00403669
0.00615735
0.0104347
0.0199629
0.0516639
0.138451
0.306255
0.461073
0.52198
0.456492
0.215869
-0.155536
-0.551554
-0.814498
-0.953304
-0.922828
-0.816911
-0.633324
-0.424918
-0.266379
-0.157139
-0.0914705
-0.0589577
-0.035172
-0.0039572
0.0441833
0.112637
0.192255
0.245302
0.236984
0.183952
0.0947405
0.0235675
0.000666764
-0.000406866
-0.000190406
-5.00243e-05
-3.4657e-06
-4.42534e-08
3.54861e-08
1.15956e-08
3.24238e-09
7.21467e-10
1.74623e-10
7.71066e-11
1.26568e-10
-9.28626e-11
-3.07184e-08
3.35819e-06
5.98546e-05
-0.000525871
-0.173955
-1.84091
-3.84923
-3.60947
-0.134922
2.28753e-22
-6.01917e-23
-5.58558e-22
-8.388e-24
1.13139e-21
2.81646e-21
4.95247e-21
6.94541e-21
7.95779e-21
7.60595e-21
6.20743e-21
4.42138e-21
2.82996e-21
1.73386e-21
1.09086e-21
7.1561e-22
4.79036e-22
3.12424e-22
2.06761e-22
1.61304e-22
4.19289e-23
-4.54324e-22
-1.27919e-21
-1.65747e-21
-1.02234e-21
-3.19715e-23
-1.29919e-21
-6.93701e-21
-1.13923e-20
-1.00246e-20
-7.64107e-21
-1.30706e-20
-6.45365e-20
-1.53948e-19
-1.9524e-19
-1.38686e-19
-4.72553e-20
2.93033e-20
5.70979e-20
4.11271e-20
1.79707e-20
4.90307e-21
-5.59231e-22
-2.75958e-21
-3.37768e-21
-3.43006e-21
-3.85208e-21
-5.98671e-21
-9.71694e-21
-1.36344e-20
-3.35561e-20
-8.04575e-21
1.29742e-19
-2.08835e-18
-1.60253e-17
-5.55076e-17
-1.63257e-15
-2.05672e-15
2.02179e-13
2.86879e-11
9.53103e-11
-2.37618e-10
-3.7702e-09
-2.45544e-08
-5.97714e-09
6.64843e-06
9.3847e-05
0.000179912
-0.00463309
-0.0285354
-0.102199
-0.19722
-0.269782
-0.280528
-0.266823
-0.225426
-0.168379
-0.110659
-0.0627243
-0.0296834
-0.0124786
-0.00652801
-0.0047027
-0.00419848
-0.00424898
-0.00481495
-0.00621569
-0.00918102
-0.0159793
-0.0301692
-0.0652609
-0.164261
-0.366004
-0.615676
-0.798927
-0.835444
-0.774336
-0.653599
-0.544972
-0.470435
-0.403616
-0.311131
-0.187329
-0.0552611
0.0589559
0.146784
0.217693
0.284916
0.350556
0.394251
0.394835
0.350034
0.223153
0.0808059
0.00613209
-0.000369367
-0.000210814
-5.51152e-05
-3.67489e-06
-1.68349e-07
-6.86603e-08
-2.78128e-06
-7.07383e-05
-0.000530334
-0.00146069
0.0134835
0.105145
0.355585
0.678863
0.928639
1.02364
0.993169
0.864293
0.659156
0.440097
0.250518
0.115053
0.0384887
0.0109441
0.00692018
0.0075653
0.00899988
0.010771
0.0135161
0.0188849
0.0294267
0.0514117
0.104423
0.239213
0.424988
0.573389
0.582979
0.46634
0.149092
-0.273359
-0.637642
-0.871846
-0.900717
-0.824674
-0.645612
-0.433057
-0.232762
-0.0675749
0.0365625
0.0936197
0.11382
0.112182
0.112368
0.129953
0.169553
0.223507
0.261959
0.252044
0.199236
0.108498
0.0309733
0.00141991
-0.000400961
-0.000196667
-5.85632e-05
-4.14263e-06
-9.24544e-08
3.28154e-08
9.78146e-09
2.34695e-09
2.73306e-10
4.4234e-11
1.21834e-11
1.3717e-11
4.29814e-10
2.4769e-09
1.05603e-07
1.97843e-05
0.000140099
-0.00039171
-0.164093
-1.5197
-3.11107
-2.71064
-0.0532896
-2.61497e-23
-1.64895e-22
-1.30967e-22
-2.825e-22
-6.29547e-22
-1.12786e-21
-1.65112e-21
-1.97841e-21
-1.95288e-21
-1.62057e-21
-1.16523e-21
-7.47763e-22
-4.45174e-22
-2.64338e-22
-1.64639e-22
-1.0604e-22
-6.81287e-23
-4.20965e-23
-2.6007e-23
-1.32712e-23
1.02798e-23
2.34493e-23
-7.9199e-23
-3.91721e-22
-8.90644e-22
-1.4987e-21
-1.83451e-21
-1.10084e-21
5.83509e-22
1.96451e-21
2.13542e-21
1.65449e-21
8.03671e-21
2.59904e-20
4.01653e-20
3.36859e-20
1.45825e-20
-4.59328e-21
-1.37232e-20
-1.15007e-20
-5.70797e-21
-1.72328e-21
1.50464e-22
9.38539e-22
1.19096e-21
1.22482e-21
1.32894e-21
1.88718e-21
2.8666e-21
3.82943e-21
7.45125e-21
2.85032e-20
-2.88425e-19
1.61255e-18
1.12209e-17
-6.03172e-18
5.9063e-16
6.08469e-16
2.66474e-15
1.56633e-13
7.6143e-12
8.98389e-11
-4.13811e-10
-1.06494e-08
-5.69804e-08
-7.02765e-08
4.77514e-06
5.16114e-05
0.000247545
-0.00277025
-0.0207186
-0.0785776
-0.169732
-0.243541
-0.289332
-0.284816
-0.254465
-0.201646
-0.142983
-0.0904243
-0.0517491
-0.0301587
-0.0214345
-0.0184094
-0.0182198
-0.020606
-0.0268308
-0.0399652
-0.0671081
-0.124262
-0.261561
-0.506359
-0.778427
-0.944982
-0.952628
-0.863245
-0.701034
-0.557759
-0.454131
-0.362793
-0.254996
-0.131714
-0.0164558
0.0713572
0.131484
0.180581
0.238552
0.311761
0.382774
0.404357
0.382447
0.286322
0.135084
0.0229207
0.000145283
-0.000295617
-9.47377e-05
-9.62708e-06
-4.85314e-07
-1.21353e-08
-2.30041e-09
-1.8949e-07
-6.78759e-06
-0.000121368
-0.00069479
-0.00194341
0.0119484
0.0860502
0.29265
0.568981
0.793667
0.889808
0.865469
0.754455
0.581419
0.399556
0.244111
0.133139
0.0699956
0.0457433
0.0405429
0.0422775
0.0482545
0.0603172
0.0840783
0.127286
0.226512
0.394459
0.580127
0.667891
0.620662
0.418261
0.0273859
-0.415481
-0.72716
-0.873847
-0.833285
-0.692887
-0.463549
-0.246048
-0.0780164
0.0447369
0.134392
0.191992
0.221643
0.224492
0.212744
0.208524
0.224482
0.256458
0.280351
0.267825
0.214262
0.122714
0.0397191
0.00275204