/*--------------------------------*- C++ -*----------------------------------*\
| =========                 |                                                 |
| \\      /  F ield         | OpenFOAM: The Open Source CFD Toolbox           |
|  \\    /   O peration     | Version:  2506                                  |
|   \\  /    A nd           | Website:  www.openfoam.com                      |
|    \\/     M anipulation  |                                                 |
\*---------------------------------------------------------------------------*/
FoamFile
{
    version     2.0;
    format      ascii;
    arch        "LSB;label=32;scalar=64";
    class       volScalarField;
    location    "0.511111";
    object      s;
}
// * * * * * * * * * * * * * * * * * * * * * * * * * * * * * * * * * * * * * //

dimensions      [0 0 0 0 0 0 0];

internalField   nonuniform List<scalar> 
4000
(
5.28795e-07
3.86928e-05
0.00156056
0.0277142
0.202781
0.574285
0.617349
0.447163
0.152543
0.0273977
0.00991407
0.00361752
0.00121861
0.000378339
0.00010871
2.94349e-05
7.7111e-06
1.98937e-06
4.83892e-07
8.06178e-08
-1.99623e-08
-3.29106e-08
-2.4306e-08
-1.45377e-08
-7.86026e-09
-3.94632e-09
-1.8384e-09
-8.10077e-10
-3.35155e-10
-1.28106e-10
-4.44905e-11
-1.24689e-11
-3.97986e-12
-9.29922e-13
-8.16189e-14
-3.21749e-13
-9.12412e-13
-1.5839e-12
-2.22968e-12
-2.79179e-12
-2.60603e-12
-6.2394e-12
-7.99141e-12
-7.66463e-12
-5.63862e-12
-3.75035e-12
-2.47926e-12
-1.40487e-12
-8.24226e-13
-4.90727e-13
-2.45414e-13
-1.42895e-13
-6.67417e-14
-3.28036e-14
-1.07286e-14
-3.30841e-15
-9.80333e-16
-2.79065e-16
-7.4766e-17
-1.35586e-17
-5.94941e-20
1.28521e-17
8.82497e-18
3.62303e-18
1.22122e-18
3.091e-19
1.0263e-20
-4.40714e-20
-3.21027e-20
-1.43204e-20
-4.75441e-21
-1.25266e-21
-2.211e-22
-1.90181e-23
1.35961e-24
-3.39021e-25
-8.93807e-25
-5.0256e-25
-1.77633e-25
-4.81942e-26
-1.14597e-26
-3.8354e-27
-3.37681e-27
-4.09285e-27
-4.13573e-27
-4.52935e-27
-5.56416e-27
-6.86767e-27
-6.05627e-27
-4.11229e-27
-2.81908e-27
-1.20734e-27
-2.18862e-28
1.87346e-28
2.5086e-28
2.46277e-28
1.41421e-28
9.30555e-29
3.96876e-29
2.24534e-29
8.25137e-30
3.23243e-30
1.00616e-30
2.37215e-31
4.83879e-32
3.886e-34
-3.9696e-33
-2.09822e-33
-6.74561e-34
-1.29129e-34
7.60144e-36
1.97594e-35
1.2136e-35
4.46895e-36
1.93893e-36
6.14464e-37
1.93069e-37
6.83338e-38
2.01038e-38
6.20137e-39
2.33845e-39
7.86761e-40
2.6826e-40
1.29216e-40
6.15418e-41
3.38387e-41
2.14432e-41
1.44818e-41
1.20212e-41
1.21623e-41
9.54089e-42
9.37824e-42
1.09078e-41
8.86264e-42
8.4268e-42
8.97684e-42
6.16147e-42
5.66196e-42
3.96983e-42
2.77618e-42
1.73456e-42
9.40033e-43
4.27844e-43
1.73232e-43
3.48273e-44
5.44353e-45
6.37854e-46
3.60016e-49
-4.50685e-47
-2.68912e-47
-1.10193e-47
-4.55183e-48
-1.52879e-48
-5.11497e-49
-1.44652e-49
-3.88291e-50
-8.50139e-51
-1.35183e-51
-1.47701e-53
9.87089e-53
-1.39908e-52
-4.71015e-53
-9.76565e-54
4.99486e-54
-1.48394e-51
-3.82777e-51
4.92674e-51
1.31126e-50
1.04612e-50
8.64243e-51
6.88582e-51
4.74611e-51
2.69203e-51
1.22749e-51
4.36131e-52
1.10908e-52
1.367e-53
-3.5007e-54
-2.60208e-54
-7.43208e-55
-1.00273e-55
-5.43792e-57
8.73342e-58
2.54748e-58
4.81015e-59
1.30485e-59
4.50542e-60
1.4218e-60
3.86381e-61
9.11409e-62
1.80229e-62
2.5599e-63
2.29285e-62
3.75672e-62
2.2593e-62
1.00942e-62
4.10275e-63
1.58193e-63
5.18775e-64
4.40532e-65
3.52679e-07
1.2809e-05
0.000294175
0.00365377
0.0295363
0.103667
0.227316
0.417953
0.597615
0.636196
0.605049
0.519857
0.356568
0.185414
0.0756015
0.0352846
0.0173343
0.00827716
0.00372386
0.00152879
0.000545234
0.000152658
1.92077e-05
-1.486e-05
-1.6836e-05
-1.14415e-05
-5.69172e-06
-2.67532e-06
-1.30124e-06
-5.76955e-07
-2.31544e-07
-8.46575e-08
-2.7765e-08
-7.64092e-09
-1.65843e-09
-2.53472e-10
-2.15678e-11
1.27607e-10
1.11041e-10
2.42456e-10
6.36099e-10
7.23832e-10
5.39719e-10
3.20433e-10
1.66987e-10
7.73212e-11
2.77025e-11
2.93767e-12
-7.26445e-12
-9.24964e-12
-7.51638e-12
-5.23807e-12
-3.18454e-12
-1.85507e-12
-1.01259e-12
-5.40601e-13
-2.73875e-13
-1.35424e-13
-6.38539e-14
-2.70822e-14
-1.09945e-14
-4.21569e-15
-1.64528e-15
-4.91457e-16
-1.21677e-16
-1.42713e-17
2.89187e-17
3.05075e-17
1.58346e-17
6.2055e-18
2.08533e-18
5.76271e-19
1.06199e-19
2.44429e-21
-6.79273e-21
-2.97954e-21
-8.07374e-22
-1.78242e-22
-4.36929e-23
-1.4539e-23
-5.13966e-24
-1.4122e-24
-1.45431e-25
1.07279e-25
3.99036e-26
-5.83071e-26
-1.0223e-25
-1.7871e-25
-2.62404e-25
-2.92908e-25
-2.94111e-25
-2.31278e-25
-1.51911e-25
-9.65831e-26
-4.93211e-26
-2.52098e-26
-1.03105e-26
-3.96855e-27
-1.08216e-27
-1.73288e-28
7.35514e-29
8.91712e-29
5.52255e-29
2.62286e-29
1.11138e-29
3.89966e-30
1.27435e-30
3.578e-31
9.11287e-32
2.14801e-32
5.31228e-33
1.62628e-33
6.78118e-34
2.88815e-34
1.36911e-34
5.64152e-35
2.27107e-35
9.38854e-36
3.65638e-36
1.46595e-36
6.40996e-37
2.79875e-37
1.27632e-37
6.65695e-38
3.6344e-38
2.14036e-38
1.35005e-38
8.88249e-39
6.28138e-39
4.75533e-39
3.40395e-39
2.59008e-39
2.09992e-39
1.53513e-39
1.1662e-39
9.10396e-40
6.17547e-40
4.45151e-40
2.92224e-40
1.86889e-40
1.12954e-40
6.34668e-41
3.27552e-41
1.54406e-41
5.59596e-42
1.73859e-42
5.17676e-43
1.51396e-43
4.41615e-44
1.29319e-44
3.68332e-45
9.96666e-46
2.25502e-46
2.8496e-47
-8.58578e-48
-9.11074e-48
-4.65616e-48
-1.83228e-48
-5.78176e-49
-1.47633e-49
-2.64611e-50
-3.31791e-51
3.16084e-52
3.57349e-51
2.7834e-50
2.7209e-49
1.14755e-48
1.53683e-48
1.35851e-48
1.08966e-48
7.95961e-49
5.22047e-49
3.05376e-49
1.59224e-49
7.39928e-50
3.05222e-50
1.1044e-50
3.41547e-51
8.50315e-52
1.39784e-52
-8.37584e-55
-1.09578e-53
-5.38237e-54
-1.93791e-54
-6.10801e-55
-1.7878e-55
-4.98691e-56
-1.34367e-56
-3.52778e-57
-9.09193e-58
-2.31683e-58
-5.87918e-59
-1.49813e-59
-3.86241e-60
-1.44939e-60
-1.12115e-60
-7.01605e-61
-3.37704e-61
-1.28571e-61
-2.54866e-62
2.55156e-07
5.15088e-06
6.74538e-05
0.000500586
0.00249477
0.0107717
0.0391619
0.109985
0.245693
0.423281
0.612897
0.755377
0.77284
0.743886
0.675003
0.552634
0.409998
0.276377
0.159802
0.074943
0.0349589
0.016584
0.00761696
0.00322127
0.00113033
0.000232218
-6.89161e-05
-0.000115181
-8.66612e-05
-3.99564e-05
-1.66186e-05
-7.75117e-06
-3.32036e-06
-1.21772e-06
-3.85772e-07
-1.04657e-07
-1.91583e-08
9.12873e-09
2.60487e-08
3.77825e-08
5.01396e-08
5.08641e-08
4.21936e-08
3.11215e-08
2.11305e-08
1.35497e-08
8.20064e-09
4.64088e-09
2.54879e-09
1.36669e-09
7.32609e-10
3.89733e-10
2.02324e-10
1.02136e-10
5.0201e-11
2.4047e-11
1.11092e-11
4.8862e-12
2.02614e-12
7.69812e-13
2.5833e-13
6.68669e-14
5.20332e-15
-9.34944e-15
-9.21672e-15
-5.94738e-15
-3.10977e-15
-1.44589e-15
-6.05606e-16
-2.57219e-16
-9.97386e-17
-3.67591e-17
-3.21951e-18
5.61877e-18
3.26021e-18
1.17546e-18
3.2313e-19
7.22581e-20
1.33113e-20
2.05643e-21
2.96866e-22
6.66038e-23
4.47155e-23
4.11134e-23
3.32468e-23
2.37504e-23
1.58004e-23
1.07028e-23
8.55107e-24
6.14686e-24
3.68962e-24
1.49514e-24
1.29957e-25
-4.46983e-25
-5.33218e-25
-4.41215e-25
-2.83372e-25
-1.65496e-25
-8.2133e-26
-3.88854e-26
-1.59677e-26
-6.08692e-27
-2.059e-27
-6.04576e-28
-1.5653e-28
-3.07618e-29
-3.8167e-30
2.75076e-31
2.58863e-31
1.74187e-32
-4.91681e-32
-3.97962e-32
-2.11947e-32
-8.97135e-33
-3.50546e-33
-1.24634e-33
-4.15546e-34
-1.37014e-34
-4.30172e-35
-1.26687e-35
-3.41913e-36
-6.35044e-37
1.3102e-37
2.74931e-37
2.45942e-37
1.90231e-37
1.38399e-37
9.75343e-38
6.80305e-38
4.63531e-38
2.98328e-38
1.86565e-38
1.0353e-38
4.71455e-39
1.19993e-39
-1.25053e-39
-2.10207e-39
-2.40507e-39
-2.18112e-39
-1.70459e-39
-1.19481e-39
-7.33555e-40
-3.95686e-40
-1.88999e-40
-7.63911e-41
-2.84743e-41
-9.97007e-42
-3.16004e-42
-7.53488e-43
-2.19215e-44
1.15403e-43
1.0092e-43
5.89554e-44
2.94569e-44
1.28736e-44
5.13846e-45
1.86278e-45
6.18564e-46
1.85597e-46
5.07526e-47
1.13992e-47
2.33619e-48
4.5128e-49
3.07673e-49
1.66112e-48
6.5422e-48
1.14909e-47
8.50742e-48
4.38597e-48
2.53119e-48
1.70564e-48
1.19549e-48
7.91809e-49
4.83123e-49
2.72293e-49
1.42198e-49
6.83463e-50
2.96781e-50
1.12641e-50
3.50622e-51
8.3753e-52
1.29633e-52
-1.10136e-53
-2.08714e-53
-1.1979e-53
-5.36173e-54
-2.13287e-54
-7.88864e-55
-2.76906e-55
-9.32494e-56
-3.03155e-56
-9.55124e-57
-2.92312e-57
-8.70116e-58
-2.51594e-58
-6.98282e-59
-2.91507e-59
-1.49405e-59
-6.99268e-60
-2.03752e-60
2.33623e-07
2.98388e-06
2.23973e-05
0.000118012
0.000464703
0.0018791
0.00699974
0.0234595
0.0674706
0.162065
0.319068
0.499748
0.667476
0.799432
0.855081
0.842577
0.804791
0.733154
0.61573
0.472913
0.336364
0.221124
0.132388
0.0672311
0.0265447
0.0101658
0.00376679
0.00112273
6.14098e-05
-0.000284062
-0.00030184
-0.000202252
-7.82978e-05
-2.74169e-05
-1.03899e-05
-3.73977e-06
-1.10035e-06
-1.41771e-07
2.03159e-07
3.20332e-07
3.70282e-07
3.75429e-07
3.51377e-07
3.09566e-07
2.51386e-07
1.92614e-07
1.37005e-07
9.18894e-08
5.93708e-08
3.68572e-08
2.19398e-08
1.27434e-08
7.13592e-09
3.86996e-09
2.02128e-09
1.02137e-09
4.97391e-10
2.30363e-10
1.00404e-10
3.95801e-11
1.34638e-11
3.41799e-12
-1.54198e-13
-8.93276e-13
-7.73941e-13
-4.92262e-13
-2.66511e-13
-1.37827e-13
-6.78651e-14
-3.18979e-14
-1.42503e-14
-6.03068e-15
-2.43507e-15
-9.31592e-16
-3.39731e-16
-1.21321e-16
-2.04862e-17
-1.7506e-18
4.45049e-19
2.84761e-19
9.31657e-20
2.26176e-20
4.3517e-21
7.43064e-22
2.32213e-22
2.00595e-22
1.99183e-22
1.93026e-22
2.05536e-22
2.03219e-22
1.77151e-22
1.30386e-22
8.26958e-23
4.81432e-23
2.43015e-23
1.13205e-23
4.48666e-24
1.52338e-24
3.54702e-25
2.5533e-27
-6.36301e-26
-5.07045e-26
-2.80967e-26
-1.29349e-26
-5.32832e-27
-1.95297e-27
-6.711e-28
-2.14695e-28
-6.65798e-29
-2.07612e-29
-6.82205e-30
-2.42511e-30
-9.39618e-31
-3.73669e-31
-1.56083e-31
-6.42788e-32
-2.64692e-32
-1.11103e-32
-4.66594e-33
-2.00317e-33
-8.9827e-34
-4.13789e-34
-1.97816e-34
-1.00232e-34
-5.30777e-35
-2.94866e-35
-1.71751e-35
-1.04202e-35
-6.62097e-36
-4.39814e-36
-2.95037e-36
-2.04181e-36
-1.46922e-36
-1.03131e-36
-7.33743e-37
-5.28999e-37
-3.62191e-37
-2.49086e-37
-1.64758e-37
-1.0519e-37
-6.44544e-38
-3.71693e-38
-2.00505e-38
-1.00106e-38
-4.40099e-39
-1.79955e-39
-7.13992e-40
-2.7517e-40
-1.0134e-40
-3.48202e-41
-1.08008e-41
-2.68128e-42
-3.19973e-43
2.01708e-43
2.07624e-43
1.27654e-43
6.37343e-44
2.78841e-44
1.08537e-44
3.82163e-45
1.1789e-45
3.37284e-46
9.06384e-47
1.07645e-47
-7.0448e-47
-1.45392e-46
-2.79573e-46
-3.50037e-46
-3.15707e-46
-2.3472e-46
-1.53994e-46
-9.14919e-47
-4.98836e-47
-2.51312e-47
-1.17346e-47
-5.07801e-48
-2.0296e-48
-7.43481e-49
-2.46176e-49
-7.18534e-50
-1.7464e-50
-2.76141e-51
3.4538e-52
6.1078e-52
3.8607e-52
1.92499e-52
8.55314e-53
3.54016e-53
1.39503e-53
5.30052e-54
1.95795e-54
7.07174e-55
2.50783e-55
8.75819e-56
3.01825e-56
1.02753e-56
3.46547e-57
1.15346e-57
3.79389e-58
7.32506e-59
2.34013e-07
2.74982e-06
1.73313e-05
8.03375e-05
0.000290682
0.000988943
0.00311872
0.00939587
0.0273396
0.0737204
0.162415
0.293547
0.452894
0.614429
0.750328
0.840774
0.866634
0.853818
0.816204
0.742273
0.631015
0.500363
0.372452
0.258407
0.16511
0.0959338
0.0491336
0.0199244
0.00516102
0.000863602
-0.000291474
-0.000557938
-0.000488448
-0.000335206
-0.000150946
-4.99362e-05
-1.84037e-05
-7.26308e-06
-2.48252e-06
-4.94203e-07
2.12908e-07
4.54894e-07
5.33687e-07
5.39528e-07
5.07467e-07
4.50544e-07
3.65437e-07
2.80661e-07
2.06922e-07
1.4345e-07
9.46012e-08
5.97449e-08
3.60088e-08
2.07363e-08
1.13225e-08
5.83924e-09
2.82937e-09
1.2535e-09
5.07095e-10
1.74322e-10
3.8728e-11
-8.25083e-12
-1.70254e-11
-1.55755e-11
-1.08204e-11
-6.80641e-12
-3.8407e-12
-2.03091e-12
-1.01766e-12
-4.86061e-13
-2.21945e-13
-9.70203e-14
-4.04856e-14
-1.61265e-14
-6.16034e-15
-2.26726e-15
-7.92686e-16
-2.90015e-16
-6.04175e-17
-5.32806e-18
2.07906e-18
1.5504e-18
6.52903e-19
2.14253e-19
5.55898e-20
9.05855e-21
-1.49156e-21
-2.60875e-21
-1.73391e-21
-7.98601e-22
-1.37498e-22
2.19491e-22
3.32321e-22
3.09638e-22
2.25666e-22
1.4523e-22
8.16443e-23
4.21961e-23
1.94612e-23
8.35172e-24
3.20377e-24
1.11819e-24
3.43708e-25
8.88961e-26
1.74171e-26
1.06034e-27
-1.14209e-27
-7.63855e-28
-3.3245e-28
-1.19882e-28
-3.9229e-29
-1.24708e-29
-4.21792e-30
-1.56742e-30
-6.87945e-31
-3.17088e-31
-1.52459e-31
-7.5056e-32
-3.67078e-32
-1.82152e-32
-9.29306e-33
-4.80497e-33
-2.5494e-33
-1.40526e-33
-7.95397e-34
-4.6387e-34
-2.77976e-34
-1.70328e-34
-1.06929e-34
-6.84674e-35
-4.39406e-35
-2.85957e-35
-1.88632e-35
-1.21982e-35
-7.92582e-36
-5.13969e-36
-3.22911e-36
-2.02608e-36
-1.23764e-36
-7.40183e-37
-4.3179e-37
-2.42566e-37
-1.30607e-37
-6.61499e-38
-2.98259e-38
-1.24999e-38
-5.14719e-39
-2.10818e-39
-8.72646e-40
-3.66601e-40
-1.53752e-40
-6.40833e-41
-2.56801e-41
-9.73566e-42
-3.3319e-42
-9.62201e-43
-1.82586e-43
2.09762e-44
4.54379e-44
2.98799e-44
1.47965e-44
6.27648e-45
2.38375e-45
-5.69462e-46
-3.49363e-45
-5.17394e-45
-6.19906e-45
-5.61582e-45
-4.22469e-45
-2.85597e-45
-1.79292e-45
-1.05416e-45
-5.81689e-46
-3.01363e-46
-1.46636e-46
-6.70407e-47
-2.88006e-47
-1.16081e-47
-4.36792e-48
-1.51647e-48
-4.83693e-49
-1.39736e-49
-3.34972e-50
-4.32243e-51
1.78648e-51
2.01302e-51
1.26161e-51
6.56684e-52
3.10221e-52
1.37754e-52
5.85259e-53
2.40363e-53
9.60443e-54
3.74987e-54
1.43464e-54
5.38839e-55
1.98889e-55
7.25314e-56
2.63677e-56
6.80918e-57
2.33367e-07
2.90053e-06
1.94577e-05
9.40757e-05
0.000370851
0.00127448
0.00396989
0.0116076
0.0299728
0.0677812
0.133856
0.232517
0.359624
0.502023
0.640827
0.756064
0.832929
0.863651
0.854133
0.821992
0.748459
0.648621
0.533753
0.415647
0.304768
0.208981
0.132696
0.0766778
0.0391391
0.0167123
0.0048928
7.91143e-06
-0.000814223
-0.00077186
-0.000586728
-0.000360527
-0.000190029
-8.84428e-05
-3.99771e-05
-2.15432e-05
-1.29897e-05
-7.65742e-06
-4.08944e-06
-1.89714e-06
-6.44033e-07
-2.16976e-08
2.47126e-07
3.15982e-07
3.01313e-07
2.4651e-07
1.84405e-07
1.29719e-07
8.62368e-08
5.46731e-08
3.30339e-08
1.89875e-08
1.03388e-08
5.27517e-09
2.48806e-09
1.04411e-09
3.60934e-10
6.94636e-11
-2.63658e-11
-4.36306e-11
-3.91223e-11
-2.62512e-11
-1.69781e-11
-9.7532e-12
-5.2289e-12
-2.64925e-12
-1.27741e-12
-5.83129e-13
-2.55828e-13
-1.09441e-13
-4.55052e-14
-1.83593e-14
-7.15198e-15
-2.72201e-15
-9.89384e-16
-3.77333e-16
-9.7267e-17
-1.88452e-17
-2.12986e-18
5.2633e-19
5.07789e-19
2.27226e-19
5.92374e-20
-1.07251e-20
-3.36538e-20
-3.50536e-20
-2.74564e-20
-1.79315e-20
-1.01125e-20
-5.07758e-21
-2.19053e-21
-7.94264e-22
-2.00603e-22
1.57352e-25
4.28678e-23
3.65375e-23
2.17084e-23
1.09217e-23
4.84313e-24
1.94639e-24
7.2685e-25
2.5194e-25
8.34599e-26
2.66496e-26
8.43176e-27
2.72344e-27
9.19456e-28
3.27965e-28
1.23187e-28
4.75448e-29
1.87698e-29
7.47643e-30
2.98078e-30
1.19848e-30
4.85657e-31
1.98364e-31
8.22199e-32
3.46683e-32
1.48286e-32
6.46835e-33
2.90265e-33
1.34678e-33
6.57436e-34
3.43723e-34
1.95712e-34
1.22982e-34
8.35116e-35
5.96084e-35
4.45947e-35
3.32671e-35
2.46027e-35
1.81947e-35
1.29266e-35
8.95501e-36
6.00403e-36
3.85119e-36
2.36851e-36
1.37975e-36
7.59338e-37
3.95818e-37
1.94825e-37
9.21983e-38
4.14706e-38
1.75106e-38
6.5369e-39
1.90918e-39
2.61757e-40
-2.1033e-40
-2.4516e-40
-1.75833e-40
-1.02993e-40
-5.38609e-41
-2.56421e-41
-1.1248e-41
-4.51182e-42
-1.67619e-42
-5.45845e-43
-1.57797e-43
-3.97811e-44
-3.9689e-44
-5.13603e-44
-4.91475e-44
-3.95454e-44
-2.57232e-44
-1.4948e-44
-8.48554e-45
-4.93807e-45
-2.93356e-45
-1.72808e-45
-9.81104e-46
-5.27159e-46
-2.6563e-46
-1.2499e-46
-5.47418e-47
-2.21839e-47
-8.20652e-48
-2.8387e-48
-9.40977e-49
-2.96164e-49
-8.58789e-50
-2.10127e-50
-2.94141e-51
1.04146e-51
1.30193e-51
8.66135e-52
4.77502e-52
2.39173e-52
1.12743e-52
5.0893e-53
2.22198e-53
9.4424e-54
3.92243e-54
1.59796e-54
6.33397e-55
2.40443e-55
7.73343e-56
2.30238e-07
2.98715e-06
2.11841e-05
0.000107404
0.000442752
0.00157324
0.00495732
0.0148433
0.0376127
0.0802018
0.148006
0.242299
0.358854
0.487788
0.615159
0.725482
0.80605
0.849204
0.855875
0.836503
0.784264
0.704422
0.605726
0.497493
0.388857
0.287953
0.200857
0.130939
0.0788071
0.0428999
0.0202856
0.00759361
0.00158673
-0.000663646
-0.000913794
-0.000718963
-0.000523735
-0.000326999
-0.000193667
-0.000112255
-6.54913e-05
-3.81018e-05
-2.16027e-05
-1.17099e-05
-5.91671e-06
-2.69735e-06
-1.02312e-06
-2.1279e-07
1.18235e-07
2.25927e-07
2.16395e-07
1.84043e-07
1.36204e-07
9.4171e-08
6.16608e-08
3.84878e-08
2.29385e-08
1.301e-08
6.98941e-09
3.49637e-09
1.59732e-09
6.32955e-10
1.87556e-10
8.52829e-12
-4.56321e-11
-4.86933e-11
-3.64907e-11
-2.4747e-11
-1.51855e-11
-8.60165e-12
-4.58039e-12
-2.3138e-12
-1.11629e-12
-5.15911e-13
-2.28592e-13
-9.65159e-14
-3.93468e-14
-1.57783e-14
-6.1734e-15
-2.36939e-15
-8.67604e-16
-3.25539e-16
-7.98779e-17
-1.62144e-17
-2.03884e-18
3.67342e-19
4.45812e-19
2.23405e-19
3.40995e-20
-8.24322e-20
-1.22977e-19
-1.12253e-19
-8.17286e-20
-5.22198e-20
-2.9631e-20
-1.54707e-20
-7.32143e-21
-3.18819e-21
-1.24405e-21
-4.34057e-22
-1.26912e-22
-2.68325e-23
-4.86512e-25
3.5727e-24
2.62185e-24
1.35563e-24
6.04758e-25
2.45819e-25
9.48178e-26
3.56051e-26
1.32759e-26
4.99873e-27
1.92513e-27
7.56084e-28
3.07107e-28
1.2736e-28
5.39792e-29
2.34689e-29
1.04149e-29
4.73083e-30
2.21104e-30
1.06043e-30
5.22761e-31
2.6584e-31
1.39249e-31
7.51214e-32
4.16989e-32
2.37594e-32
1.38812e-32
8.29769e-33
5.03958e-33
3.1036e-33
1.94079e-33
1.21309e-33
7.61552e-34
4.7897e-34
2.97468e-34
1.83518e-34
1.11613e-34
6.65931e-35
3.89317e-35
2.21108e-35
1.21681e-35
6.45306e-36
3.25464e-36
1.58144e-36
7.44679e-37
3.39032e-37
1.47084e-37
5.95453e-38
2.20978e-38
6.95273e-39
1.51683e-39
-1.46772e-40
-4.49531e-40
-3.70563e-40
-2.32506e-40
-1.26977e-40
-6.2142e-41
-2.81891e-41
-1.15044e-41
-4.37095e-42
-1.57331e-42
-6.83273e-43
-3.34396e-43
-1.45579e-43
-1.09167e-44
6.54336e-44
8.20806e-44
6.73268e-44
4.4736e-44
2.58539e-44
1.34204e-44
6.36385e-45
2.78498e-45
1.13283e-45
4.31356e-46
1.55571e-46
5.44408e-47
1.94428e-47
6.83292e-48
2.32293e-48
6.68007e-49
1.0766e-49
-4.11896e-50
-5.71339e-50
-4.12863e-50
-2.44853e-50
-1.31112e-50
-6.57968e-51
-3.15269e-51
-1.45767e-51
-6.54471e-52
-2.86429e-52
-1.22438e-52
-5.11514e-53
-2.08712e-53
-8.31848e-54
-3.35866e-54
-1.08941e-54
2.2574e-07
2.9968e-06
2.1999e-05
0.000115306
0.000488657
0.00177143
0.00562939
0.0169804
0.0430788
0.0909574
0.164892
0.264021
0.382247
0.50886
0.630633
0.734257
0.809945
0.850406
0.854151
0.837979
0.792406
0.72147
0.632
0.531696
0.428392
0.329441
0.240808
0.166429
0.107961
0.0650087
0.0356818
0.0172594
0.0068311
0.00167609
-0.00034274
-0.000829416
-0.000695486
-0.000533486
-0.000354588
-0.000224941
-0.000139391
-8.45652e-05
-4.97886e-05
-2.82049e-05
-1.5225e-05
-7.75087e-06
-3.65513e-06
-1.52344e-06
-4.84235e-07
-2.08796e-08
1.48441e-07
1.83262e-07
1.60876e-07
1.23975e-07
8.79711e-08
5.88275e-08
3.74652e-08
2.28074e-08
1.32891e-08
7.35646e-09
3.84618e-09
1.86775e-09
8.17159e-10
2.98723e-10
6.7353e-11
-1.99095e-11
-4.21011e-11
-3.8663e-11
-2.6992e-11
-1.83572e-11
-1.10939e-11
-6.27181e-12
-3.3559e-12
-1.7059e-12
-8.28622e-13
-3.86861e-13
-1.73908e-13
-7.5123e-14
-3.07329e-14
-1.22056e-14
-4.64315e-15
-1.70862e-15
-5.50779e-16
-1.60633e-16
8.51535e-18
3.40924e-17
2.5742e-17
1.48307e-17
7.67271e-18
3.73911e-18
1.69847e-18
6.82465e-19
2.12524e-19
2.31065e-20
-3.44306e-20
-3.9695e-20
-2.87698e-20
-1.72753e-20
-9.01918e-21
-4.27519e-21
-1.83228e-21
-7.21744e-22
-2.59348e-22
-8.45573e-23
-2.46916e-23
-6.13612e-24
-1.11157e-24
-7.53938e-27
1.296e-25
8.97591e-26
4.65263e-26
2.17325e-26
9.72874e-27
4.26947e-27
1.88812e-27
8.36486e-28
3.75256e-28
1.71345e-28
7.9347e-29
3.74441e-29
1.80838e-29
8.90116e-30
4.47586e-30
2.30347e-30
1.21e-30
6.48559e-31
3.54138e-31
1.96604e-31
1.10875e-31
6.34097e-32
3.66016e-32
2.13075e-32
1.25202e-32
7.35537e-33
4.33799e-33
2.55981e-33
1.5023e-33
8.79254e-34
5.11015e-34
2.94382e-34
1.67978e-34
9.45232e-35
5.24e-35
2.8499e-35
1.5119e-35
7.84338e-36
3.97026e-36
1.95699e-36
9.38124e-37
4.35254e-37
1.9524e-37
8.37771e-38
3.4188e-38
1.29694e-38
4.4263e-39
1.2226e-39
1.66417e-40
-1.02841e-40
-1.176e-40
-7.94176e-41
-4.24474e-41
-2.04957e-41
-9.29659e-42
-3.81037e-42
-1.07816e-42
2.74885e-43
9.54684e-43
1.11018e-42
9.47316e-43
6.80981e-43
4.35477e-43
2.55333e-43
1.39707e-43
7.21291e-44
3.54074e-44
1.66183e-44
7.49049e-45
3.25503e-45
1.36824e-45
5.59985e-46
2.25661e-46
8.97545e-47
3.4646e-47
1.28667e-47
4.54873e-48
1.50085e-48
4.42564e-49
1.0276e-49
7.47449e-51
-1.1756e-50
-1.09828e-50
-6.99263e-51
-3.84045e-51
-1.94018e-51
-9.25451e-52
-4.21902e-52
-1.84831e-52
-7.78891e-53
-3.16618e-53
-1.79227e-53
2.20599e-07
2.9619e-06
2.2175e-05
0.00011876
0.000513152
0.00189178
0.00606151
0.0183902
0.0467493
0.0983557
0.176984
0.280705
0.402106
0.529508
0.64912
0.748581
0.81839
0.853687
0.855732
0.839139
0.794504
0.726344
0.640834
0.54482
0.445303
0.348929
0.26125
0.186146
0.125552
0.0795602
0.0468205
0.0251093
0.0118554
0.00453464
0.00103343
-0.000314895
-0.000652179
-0.000592816
-0.000458059
-0.000311418
-0.000202951
-0.000127988
-7.79903e-05
-4.57481e-05
-2.57005e-05
-1.3757e-05
-6.96128e-06
-3.25894e-06
-1.34605e-06
-4.20928e-07
-1.4128e-08
1.30906e-07
1.5952e-07
1.41279e-07
1.08121e-07
7.63202e-08
5.09088e-08
3.24356e-08
1.98537e-08
1.16579e-08
6.56217e-09
3.51741e-09
1.7761e-09
8.27126e-10
3.38441e-10
1.06009e-10
7.22324e-12
-2.64406e-11
-3.15251e-11
-2.54117e-11
-1.81531e-11
-1.18101e-11
-7.17574e-12
-4.12644e-12
-2.25703e-12
-1.17752e-12
-5.86518e-13
-2.78809e-13
-1.26906e-13
-5.53973e-14
-2.28592e-14
-9.13932e-15
-3.40229e-15
-1.14143e-15
-2.20563e-16
3.59351e-17
1.26468e-16
1.08491e-16
7.19381e-17
4.25444e-17
2.33857e-17
1.20791e-17
5.83749e-18
2.62665e-18
1.0737e-18
3.86016e-19
1.10316e-19
1.56142e-20
-8.64e-21
-1.01868e-20
-6.65697e-21
-3.53046e-21
-1.6394e-21
-6.92626e-22
-2.71827e-22
-9.9992e-23
-3.49729e-23
-1.16897e-23
-3.75245e-24
-1.16005e-24
-3.42552e-25
-9.45471e-26
-2.29182e-26
-3.76155e-27
5.2931e-28
1.00015e-27
7.29627e-28
4.34684e-28
2.37975e-28
1.25526e-28
6.50521e-29
3.33732e-29
1.7119e-29
8.81485e-30
4.56004e-30
2.37553e-30
1.24598e-30
6.57907e-31
3.49742e-31
1.86943e-31
1.00183e-31
5.38628e-32
2.90437e-32
1.56099e-32
8.4151e-33
4.52431e-33
2.43e-33
1.30854e-33
7.05165e-34
3.82128e-34
2.08532e-34
1.14654e-34
6.35794e-35
3.5346e-35
1.96431e-35
1.08233e-35
5.8673e-36
3.11435e-36
1.62968e-36
8.40793e-37
4.25634e-37
2.10982e-37
1.01876e-37
4.77363e-38
2.15787e-38
9.33339e-39
3.81787e-39
1.44623e-39
4.93091e-40
1.40361e-40
2.56247e-41
-6.07073e-42
-9.30954e-42
-3.81193e-42
1.39195e-42
4.43389e-42
5.50085e-42
5.01029e-42
3.84605e-42
2.6296e-42
1.65021e-42
9.70155e-43
5.41331e-43
2.89132e-43
1.48686e-43
7.39306e-44
3.56616e-44
1.6734e-44
7.65501e-45
3.43229e-45
1.51387e-45
6.55624e-46
2.78535e-46
1.16205e-46
4.76471e-47
1.92088e-47
7.61452e-48
2.96701e-48
1.1356e-48
4.26495e-49
1.56972e-49
5.65429e-50
1.99181e-50
6.86863e-51
2.33133e-51
7.9053e-52
2.76382e-52
1.04763e-52
4.76687e-53
-6.5439e-53
2.15175e-07
2.90147e-06
2.19144e-05
0.000118595
0.000517582
0.00192724
0.00620944
0.0189105
0.0482368
0.101515
0.182308
0.288192
0.411179
0.539143
0.658174
0.755816
0.823419
0.856401
0.856537
0.839811
0.795393
0.728652
0.645237
0.551575
0.454254
0.359542
0.272727
0.197595
0.136163
0.0887283
0.0542086
0.0306354
0.015664
0.00693253
0.00237655
0.000338001
-0.000387709
-0.000534054
-0.000465255
-0.000355012
-0.000245641
-0.00016152
-0.000101668
-6.13335e-05
-3.53837e-05
-1.94642e-05
-1.01567e-05
-4.95693e-06
-2.19451e-06
-8.16341e-07
-1.78152e-07
7.92064e-08
1.55221e-07
1.50021e-07
1.21837e-07
8.91799e-08
6.11084e-08
3.99008e-08
2.50615e-08
1.51827e-08
8.88897e-09
5.01884e-09
2.72087e-09
1.4037e-09
6.76881e-10
2.94679e-10
1.05324e-10
1.97257e-11
-1.35856e-11
-2.1992e-11
-2.04811e-11
-1.54268e-11
-1.07062e-11
-6.93606e-12
-4.26561e-12
-2.50781e-12
-1.41433e-12
-7.66813e-13
-4.00005e-13
-2.0062e-13
-9.62676e-14
-4.38573e-14
-1.86468e-14
-7.14936e-15
-2.36481e-15
-6.4426e-16
-5.2395e-17
1.94246e-16
2.0997e-16
1.57738e-16
1.01617e-16
5.96131e-17
3.24934e-17
1.66193e-17
7.95364e-18
3.56149e-18
1.47192e-18
5.54129e-19
1.82521e-19
4.8261e-20
6.59882e-21
-2.96737e-21
-3.36171e-21
-2.09877e-21
-1.0692e-21
-4.86793e-22
-2.06523e-22
-8.33479e-23
-3.25032e-23
-1.23924e-23
-4.65137e-24
-1.73039e-24
-6.40603e-25
-2.36144e-25
-8.71031e-26
-3.21022e-26
-1.18041e-26
-4.34336e-27
-1.5951e-27
-5.83297e-28
-2.13224e-28
-7.77781e-29
-2.82722e-29
-1.03619e-29
-3.88511e-30
-1.52794e-30
-6.57428e-31
-3.19353e-31
-1.76163e-31
-1.07348e-31
-6.86927e-32
-4.44545e-32
-2.90136e-32
-1.86671e-32
-1.17534e-32
-7.32785e-33
-4.45294e-33
-2.64508e-33
-1.54065e-33
-8.73483e-34
-4.82933e-34
-2.59349e-34
-1.34839e-34
-6.79013e-35
-3.28292e-35
-1.52568e-35
-6.7073e-36
-2.73261e-36
-9.55684e-37
-2.23238e-37
2.77006e-38
8.78132e-38
7.95456e-38
5.62412e-38
3.50337e-38
2.01812e-38
1.0938e-38
5.6197e-39
2.72943e-39
1.26452e-39
5.54272e-40
2.28734e-40
9.69496e-41
4.97433e-41
3.2542e-41
2.40425e-41
1.79869e-41
1.27497e-41
8.54911e-42
5.41827e-42
3.26191e-42
1.88112e-42
1.04622e-42
5.63769e-43
2.95275e-43
1.50653e-43
7.5004e-44
3.6485e-44
1.73597e-44
8.0838e-45
3.68372e-45
1.64535e-45
7.22099e-46
3.1187e-46
1.32715e-46
5.56989e-47
2.30713e-47
9.43727e-48
3.81408e-48
1.52382e-48
6.02281e-49
2.35763e-49
9.15745e-50
3.53987e-50
1.36805e-50
5.32076e-51
2.10073e-51
8.50579e-52
3.65052e-52
-1.0462e-52
2.09463e-07
2.81897e-06
2.12762e-05
0.000115124
0.00050249
0.001873
0.00604035
0.0184091
0.0471352
0.09957
0.179427
0.284452
0.406865
0.534667
0.654199
0.752862
0.821807
0.85667
0.857102
0.841878
0.798933
0.733772
0.651806
0.559353
0.462884
0.368585
0.281713
0.206072
0.143758
0.0951892
0.0594131
0.034589
0.0184693
0.00876998
0.00346531
0.00089812
-0.000153243
-0.000444649
-0.000449445
-0.000366877
-0.000269067
-0.000184011
-0.000119043
-7.32773e-05
-4.28894e-05
-2.38189e-05
-1.24895e-05
-6.10964e-06
-2.70838e-06
-1.01312e-06
-2.34406e-07
7.60933e-08
1.63355e-07
1.64246e-07
1.33539e-07
9.76762e-08
6.68073e-08
4.36353e-08
2.75011e-08
1.68067e-08
9.98807e-09
5.77376e-09
3.24107e-09
1.75863e-09
9.14094e-10
4.47976e-10
2.00179e-10
7.52156e-11
1.6757e-11
-7.15915e-12
-1.43831e-11
-1.42347e-11
-1.13438e-11
-8.41897e-12
-5.70687e-12
-3.68616e-12
-2.28661e-12
-1.36866e-12
-7.92823e-13
-4.45171e-13
-2.42318e-13
-1.27707e-13
-6.49337e-14
-3.16572e-14
-1.46479e-14
-6.30814e-15
-2.41874e-15
-7.25789e-16
-6.78837e-17
1.32941e-16
1.54644e-16
1.20683e-16
7.97402e-17
4.74413e-17
2.5993e-17
1.3263e-17
6.31196e-18
2.80543e-18
1.15688e-18
4.40089e-19
1.51322e-19
4.53542e-20
1.05882e-20
9.4755e-22
-9.07563e-22
-8.27249e-22
-4.8694e-22
-2.43917e-22
-1.12298e-22
-4.91523e-23
-2.08382e-23
-8.66552e-24
-3.56295e-24
-1.45613e-24
-5.94791e-25
-2.43351e-25
-9.99716e-26
-4.13637e-26
-1.7255e-26
-7.26819e-27
-3.09997e-27
-1.33947e-27
-5.87061e-28
-2.61561e-28
-1.18552e-28
-5.47021e-29
-2.57116e-29
-1.23091e-29
-6.00199e-30
-2.97907e-30
-1.5015e-30
-7.66506e-31
-3.96697e-31
-2.0687e-31
-1.08495e-31
-5.72246e-32
-3.01617e-32
-1.5865e-32
-8.32053e-33
-4.33131e-33
-2.23653e-33
-1.14209e-33
-5.75457e-34
-2.85755e-34
-1.39193e-34
-6.65136e-35
-3.10344e-35
-1.39943e-35
-6.00516e-36
-2.39558e-36
-8.5619e-37
-2.41294e-37
-2.33438e-38
3.78167e-38
4.3183e-38
3.32091e-38
2.19477e-38
1.32919e-38
7.50069e-39
4.02997e-39
2.07124e-39
1.03462e-39
5.1342e-40
2.521e-40
1.25164e-40
6.40736e-41
3.42108e-41
1.89277e-41
1.07806e-41
6.15572e-42
3.46832e-42
1.91875e-42
1.04064e-42
5.53036e-43
2.87958e-43
1.46905e-43
7.34363e-44
3.59806e-44
1.72711e-44
8.12495e-45
3.75868e-45
1.71414e-45
7.7114e-46
3.42405e-46
1.50159e-46
6.50887e-47
2.79139e-47
1.18581e-47
4.99744e-48
2.09344e-48
8.73804e-49
3.64523e-49
1.5253e-49
6.42757e-50
2.73896e-50
1.18461e-50
5.21425e-51
2.33886e-51
1.07904e-51
2.0047e-52
2.03575e-07
2.71964e-06
2.03329e-05
0.0001089
0.00047075
0.00174056
0.00558984
0.0169914
0.0436386
0.09279
0.168598
0.269664
0.389151
0.515937
0.636673
0.738883
0.812501
0.853099
0.857467
0.845033
0.805996
0.742814
0.661864
0.569691
0.472882
0.377792
0.289853
0.213022
0.149509
0.0998107
0.0630135
0.0372919
0.0204022
0.010068
0.00426382
0.00133406
5.99066e-05
-0.000397748
-0.000431876
-0.000373592
-0.000284004
-0.000198907
-0.000130258
-8.03126e-05
-4.66586e-05
-2.54906e-05
-1.3011e-05
-6.11231e-06
-2.54352e-06
-8.43318e-07
-1.08484e-07
1.51545e-07
2.05806e-07
1.81751e-07
1.40335e-07
9.80107e-08
6.48271e-08
4.12654e-08
2.54984e-08
1.53839e-08
9.08557e-09
5.26016e-09
2.98294e-09
1.65179e-09
8.87921e-10
4.58501e-10
2.23083e-10
9.84024e-11
3.5458e-11
6.0268e-12
-5.95056e-12
-9.39722e-12
-9.07332e-12
-7.37509e-12
-5.46358e-12
-3.80576e-12
-2.53131e-12
-1.62126e-12
-1.00485e-12
-6.04373e-13
-3.53236e-13
-2.00659e-13
-1.1065e-13
-5.90733e-14
-3.03953e-14
-1.49542e-14
-6.93978e-15
-2.96201e-15
-1.09736e-15
-2.9327e-16
8.6512e-18
9.14062e-17
9.06194e-17
6.63427e-17
4.19017e-17
2.39443e-17
1.26293e-17
6.20658e-18
2.85216e-18
1.2274e-18
4.93335e-19
1.84385e-19
6.33379e-20
1.95038e-20
5.04913e-21
8.50096e-22
-1.20047e-22
-2.18935e-22
-1.48688e-22
-8.07684e-23
-3.96573e-23
-1.84197e-23
-8.2773e-24
-3.64566e-24
-1.588e-24
-6.87668e-25
-2.97304e-25
-1.28747e-25
-5.59571e-26
-2.44514e-26
-1.07604e-26
-4.77255e-27
-2.13489e-27
-9.64015e-28
-4.39522e-28
-2.02356e-28
-9.40829e-29
-4.41637e-29
-2.09257e-29
-1.00039e-29
-4.82087e-30
-2.33916e-30
-1.14284e-30
-5.61062e-31
-2.76414e-31
-1.36656e-31
-6.76234e-32
-3.34576e-32
-1.65464e-32
-8.16233e-33
-4.01456e-33
-1.96677e-33
-9.58708e-34
-4.649e-34
-2.23919e-34
-1.07218e-34
-5.10841e-35
-2.39694e-35
-1.10118e-35
-4.92934e-36
-2.13487e-36
-8.8313e-37
-3.39405e-37
-1.13708e-37
-2.64938e-38
3.16381e-39
1.02993e-38
9.65266e-39
6.84764e-39
4.28908e-39
2.43594e-39
1.31316e-39
6.51414e-40
2.94955e-40
1.26452e-40
5.4252e-41
2.46322e-41
1.22785e-41
6.68448e-42
3.75392e-42
2.10425e-42
1.16338e-42
6.31504e-43
3.3615e-43
1.75527e-43
8.99985e-44
4.53692e-44
2.24948e-44
1.09877e-44
5.30886e-45
2.54624e-45
1.21084e-45
5.70351e-46
2.66079e-46
1.23023e-46
5.64382e-47
2.57315e-47
1.16808e-47
5.29042e-48
2.39564e-48
1.08674e-48
4.94703e-49
2.26274e-49
1.04071e-49
4.81417e-50
2.23904e-50
1.04623e-50
4.90708e-51
2.31526e-51
8.31678e-52
1.97479e-07
2.60084e-06
1.90576e-05
9.99337e-05
0.000423811
0.00154273
0.0049162
0.0148726
0.0383482
0.0823894
0.151737
0.246421
0.361185
0.486127
0.608789
0.715844
0.797133
0.847285
0.857341
0.846717
0.812648
0.751006
0.670489
0.577679
0.479551
0.38289
0.293475
0.215469
0.151144
0.100952
0.0638809
0.0379986
0.0209856