/*--------------------------------*- C++ -*----------------------------------*\
| =========                 |                                                 |
| \\      /  F ield         | OpenFOAM: The Open Source CFD Toolbox           |
|  \\    /   O peration     | Version:  2506                                  |
|   \\  /    A nd           | Website:  www.openfoam.com                      |
|    \\/     M anipulation  |                                                 |
\*---------------------------------------------------------------------------*/
FoamFile
{
    version     2.0;
    format      ascii;
    arch        "LSB;label=32;scalar=64";
    class       volScalarField;
    location    "2.85";
    object      p;
}
// * * * * * * * * * * * * * * * * * * * * * * * * * * * * * * * * * * * * * //

dimensions      [0 2 -2 0 0 0 0];

internalField   nonuniform List<scalar> 
4000
(
7.72417e-06
2.65099e-05
3.24273e-05
3.31434e-05
3.27007e-05
3.1801e-05
3.07259e-05
2.97283e-05
2.88531e-05
2.81934e-05
2.78004e-05
2.76626e-05
2.77917e-05
2.82085e-05
2.8924e-05
2.99509e-05
3.12986e-05
3.29844e-05
3.50137e-05
3.74094e-05
4.01931e-05
4.33567e-05
4.69551e-05
5.10069e-05
5.55365e-05
6.05743e-05
6.61573e-05
7.23316e-05
7.91632e-05
8.67428e-05
9.52609e-05
0.000104818
0.00011479
0.000124404
0.000133338
0.000141408
0.000148659
0.000154413
0.000158431
0.000161653
0.00016413
0.000165817
0.000166762
0.00016693
0.000166252
0.000164587
0.000161809
0.000157725
0.000152221
0.000145179
0.000136537
0.00012644
0.00011496
0.000102163
8.82395e-05
7.31777e-05
5.70768e-05
3.94884e-05
2.04452e-05
4.96598e-07
-2.00945e-05
-4.09529e-05
-5.95819e-05
-7.65813e-05
-9.01551e-05
-0.000101094
-0.000109382
-0.000115227
-0.000119062
-0.00012123
-0.000121943
-0.00012134
-0.000119553
-0.000116677
-0.000112772
-0.000107877
-0.00010201
-9.51421e-05
-8.73046e-05
-7.84835e-05
-6.86393e-05
-5.76458e-05
-4.55586e-05
-3.2245e-05
-1.77729e-05
-2.09094e-06
1.44803e-05
3.1563e-05
4.86136e-05
6.49645e-05
8.00335e-05
9.35662e-05
0.000105177
0.000115013
0.000122945
0.000129378
0.000134529
0.000138445
0.000141428
0.000143533
0.00014467
0.000144664
0.000143291
0.000140383
0.00013584
0.000129732
0.000122175
0.000113189
0.000102869
9.15306e-05
7.8959e-05
6.45673e-05
4.96316e-05
3.28216e-05
1.58941e-05
-2.15271e-06
-2.02957e-05
-3.73456e-05
-5.34161e-05
-6.88956e-05
-8.19869e-05
-9.35763e-05
-0.000103077
-0.000111212
-0.000117321
-0.000121893
-0.000125129
-0.000127003
-0.000127628
-0.000127136
-0.000125607
-0.000123093
-0.000119627
-0.000115213
-0.000109874
-0.00010361
-9.64091e-05
-8.82492e-05
-7.90189e-05
-6.8755e-05
-5.74108e-05
-4.48117e-05
-3.10718e-05
-1.60725e-05
-3.44003e-08
1.67361e-05
3.37908e-05
5.0449e-05
6.60296e-05
8.01455e-05
9.24073e-05
0.000102646
0.000110896
0.000117387
0.000122079
0.0001254
0.000127524
0.000128476
0.000128096
0.000126132
0.000121923
0.000114003
0.00010058
7.55988e-05
6.20517e-05
5.25593e-05
4.12461e-05
3.03419e-05
2.13332e-05
1.51923e-05
1.29268e-05
1.34454e-05
1.35463e-05
1.33864e-05
1.32511e-05
1.31267e-05
1.2998e-05
1.29052e-05
1.28904e-05
1.29871e-05
1.31986e-05
1.35328e-05
1.39981e-05
1.45964e-05
1.53265e-05
1.61876e-05
1.71809e-05
1.83117e-05
1.95912e-05
2.10444e-05
2.27163e-05
2.46651e-05
2.69786e-05
2.97577e-05
3.31249e-05
3.72992e-05
4.27115e-05
5.01682e-05
6.23669e-05
8.56088e-05
1.93403e-05
2.75144e-05
3.04708e-05
3.10725e-05
3.08019e-05
3.01321e-05
2.93101e-05
2.85145e-05
2.78245e-05
2.73399e-05
2.71016e-05
2.70648e-05
2.72542e-05
2.77195e-05
2.84709e-05
2.95183e-05
3.0874e-05
3.2551e-05
3.45618e-05
3.69229e-05
3.96536e-05
4.27953e-05
4.6342e-05
5.03229e-05
5.47653e-05
5.96975e-05
6.51517e-05
7.11653e-05
7.77865e-05
8.50829e-05
9.31246e-05
0.000101912
0.000111012
0.000119897
0.000128196
0.00013578
0.00014256
0.00014777
0.000151439
0.000154219
0.000156172
0.000157329
0.00015773
0.000157332
0.000156042
0.00015376
0.000150355
0.000145687
0.000139674
0.000132269
0.000123504
0.00011356
0.000102543
9.06657e-05
7.81106e-05
6.50295e-05
5.1453e-05
3.72814e-05
2.23318e-05
6.32832e-06
-1.03018e-05
-2.75766e-05
-4.44659e-05
-6.0654e-05
-7.45706e-05
-8.64044e-05
-9.58229e-05
-0.000102935
-0.000107935
-0.00011117
-0.000112836
-0.000113096
-0.000112092
-0.000109931
-0.000106685
-0.000102406
-9.71265e-05
-9.08194e-05
-8.35158e-05
-7.52112e-05
-6.5879e-05
-5.5401e-05
-4.38257e-05
-3.10387e-05
-1.71079e-05
-2.00676e-06
1.39545e-05
3.03637e-05
4.66859e-05
6.22117e-05
7.63966e-05
8.8976e-05
9.96876e-05
0.000108663
0.000115911
0.000121779
0.000126432
0.000129936
0.000132492
0.000134086
0.0001346
0.000133865
0.000131716
0.000128067
0.000122934
0.000116416
0.000108613
9.95229e-05
8.92926e-05
7.82494e-05
6.62135e-05
5.30378e-05
3.95355e-05
2.50484e-05
1.06648e-05
-4.07999e-06
-1.86802e-05
-3.25072e-05
-4.5719e-05
-5.87857e-05
-7.06006e-05
-8.14806e-05
-9.0831e-05
-9.90952e-05
-0.000105655
-0.000110732
-0.000114515
-0.000116967
-0.000118164
-0.000118212
-0.000117185
-0.000115138
-0.000112112
-0.000108117
-0.000103172
-9.72861e-05
-9.04502e-05
-8.2655e-05
-7.37958e-05
-6.38989e-05
-5.29453e-05
-4.07726e-05
-2.74928e-05
-1.30193e-05
2.43573e-06
1.85409e-05
3.47995e-05
5.05339e-05
6.50655e-05
7.79936e-05
8.89954e-05
9.79926e-05
0.000105105
0.000110534
0.000114345
0.000116852
0.000118113
0.000118024
0.00011629
0.000112419
0.000105682
9.52088e-05
8.03334e-05
6.08746e-05
5.13447e-05
4.38533e-05
3.47363e-05
2.64152e-05
2.00038e-05
1.58154e-05
1.41508e-05
1.42226e-05
1.4066e-05
1.37313e-05
1.34673e-05
1.32708e-05
1.31185e-05
1.30326e-05
1.30427e-05
1.31606e-05
1.33951e-05
1.37507e-05
1.42368e-05
1.48545e-05
1.56026e-05
1.64814e-05
1.74933e-05
1.8644e-05
1.99427e-05
2.14153e-05
2.31151e-05
2.51017e-05
2.74813e-05
3.03726e-05
3.38896e-05
3.82859e-05
4.39249e-05
5.10468e-05
6.00196e-05
7.17125e-05
2.49625e-05
2.73577e-05
2.85029e-05
2.88812e-05
2.873e-05
2.82724e-05
2.76914e-05
2.71174e-05
2.663e-05
2.62965e-05
2.61558e-05
2.62122e-05
2.6486e-05
2.70078e-05
2.77951e-05
2.88622e-05
3.02243e-05
3.18917e-05
3.38855e-05
3.62194e-05
3.89136e-05
4.19909e-05
4.54669e-05
4.93636e-05
5.37052e-05
5.85174e-05
6.38281e-05
6.96677e-05
7.60722e-05
8.31053e-05
9.08171e-05
9.89586e-05
0.000107358
0.000115647
0.000123503
0.000130668
0.000136962
0.000141696
0.000144938
0.000147175
0.000148557
0.000149142
0.00014895
0.000147967
0.000146093
0.000143218
0.000139251
0.000134096
0.000127712
0.000120112
0.00011139
0.000101764
9.1378e-05
8.04901e-05
6.92845e-05
5.79761e-05
4.65631e-05
3.50534e-05
2.31823e-05
1.06028e-05
-2.68124e-06
-1.69352e-05
-3.18945e-05
-4.64508e-05
-6.01345e-05
-7.23901e-05
-8.25637e-05
-9.07741e-05
-9.68229e-05
-0.000101105
-0.000103716
-0.000104838
-0.000104614
-0.00010317
-0.000100586
-9.69218e-05
-9.22238e-05
-8.64727e-05
-7.9703e-05
-7.19153e-05
-6.30926e-05
-5.31312e-05
-4.20816e-05
-2.98418e-05
-1.64895e-05
-2.02027e-06
1.32551e-05
2.89141e-05
4.44047e-05
5.90428e-05
7.23337e-05
8.40349e-05
9.39821e-05
0.000102293
0.00010904
0.000114485
0.000118741
0.000121863
0.000123966
0.000125005
0.000124865
0.000123427
0.000120602
0.000116394
0.000110877
0.000104119
9.62534e-05
8.7311e-05
7.75689e-05
6.71603e-05
5.603e-05
4.4354e-05
3.26385e-05
2.05131e-05
8.61172e-06
-3.18805e-06
-1.47848e-05
-2.61213e-05
-3.73109e-05
-4.86581e-05
-5.95079e-05
-6.98046e-05
-7.90861e-05
-8.74796e-05
-9.44621e-05
-0.000100002
-0.000104303
-0.000107283
-0.000109018
-0.000109583
-0.000109052
-0.000107472
-0.000104886
-0.000101312
-9.67652e-05
-9.12639e-05
-8.48001e-05
-7.73748e-05
-6.88944e-05
-5.93829e-05
-4.88375e-05
-3.71162e-05
-2.43414e-05
-1.04573e-05
4.31042e-06
1.96106e-05
3.4951e-05
4.96379e-05
6.30355e-05
7.47833e-05
8.4648e-05
9.26189e-05
9.8842e-05
0.000103469
0.000106573
0.000108326
0.00010867
0.000107396
0.000104132
9.83791e-05
8.98044e-05
7.84433e-05
6.48957e-05
5.1437e-05
4.48677e-05
3.87294e-05
3.1518e-05
2.52733e-05
2.06497e-05
1.76329e-05
1.59229e-05
1.52067e-05
1.46283e-05
1.40799e-05
1.36652e-05
1.33847e-05
1.31918e-05
1.30951e-05
1.31149e-05
1.32591e-05
1.3517e-05
1.38882e-05
1.43912e-05
1.50247e-05
1.57864e-05
1.66771e-05
1.76991e-05
1.88583e-05
2.01651e-05
2.16402e-05
2.33239e-05
2.52719e-05
2.75714e-05
3.03361e-05
3.37146e-05
3.79401e-05
4.32412e-05
4.94339e-05
5.56177e-05
6.15188e-05
2.64106e-05
2.69421e-05
2.71826e-05
2.72306e-05
2.70352e-05
2.66582e-05
2.62123e-05
2.5783e-05
2.54326e-05
2.5211e-05
2.51533e-05
2.52802e-05
2.56123e-05
2.61728e-05
2.69807e-05
2.80525e-05
2.94038e-05
3.1049e-05
3.30053e-05
3.5289e-05
3.7918e-05
4.09129e-05
4.42924e-05
4.80763e-05
5.22862e-05
5.69451e-05
6.20768e-05
6.77055e-05
7.38584e-05
8.0591e-05
8.79425e-05
9.56177e-05
0.000103479
0.000111222
0.000118562
0.000125201
0.000130946
0.000135209
0.000138
0.000139744
0.000140679
0.000140834
0.000140189
0.000138733
0.000136412
0.000133106
0.000128746
0.000123284
0.000116719
0.000109114
0.000100605
9.14288e-05
8.17536e-05
7.18336e-05
6.18466e-05
5.20002e-05
4.22751e-05
3.27001e-05
2.3023e-05
1.28939e-05
2.04603e-06
-9.64677e-06
-2.23053e-05
-3.5187e-05
-4.82497e-05
-6.01317e-05
-7.06585e-05
-7.95818e-05
-8.64152e-05
-9.16246e-05
-9.50936e-05
-9.70294e-05
-9.75325e-05
-9.67635e-05
-9.48061e-05
-9.17248e-05
-8.7578e-05
-8.23534e-05
-7.60935e-05
-6.8804e-05
-6.04727e-05
-5.10118e-05
-4.04784e-05
-2.87825e-05
-1.60137e-05
-2.18894e-06
1.23751e-05
2.72536e-05
4.19018e-05
5.56704e-05
6.81186e-05
7.90347e-05
8.8313e-05
9.60562e-05
0.000102346
0.000107383
0.00011124
0.000113952
0.000115583
0.000116081
0.000115359
0.000113352
0.000110042
0.000105488
9.97804e-05
9.30105e-05
8.53066e-05
7.68765e-05
6.79242e-05
5.8388e-05
4.83625e-05
3.8152e-05
2.79743e-05
1.78331e-05
7.97761e-06
-1.59951e-06
-1.10112e-05
-2.03994e-05
-2.99427e-05
-3.97929e-05
-4.97795e-05
-5.95251e-05
-6.86364e-05
-7.70112e-05
-8.4285e-05
-9.02664e-05
-9.50759e-05
-9.85495e-05
-0.00010078
-0.000101802
-0.000101713
-0.000100557
-9.83748e-05
-9.51886e-05
-9.10128e-05
-8.58738e-05
-7.97642e-05
-7.26914e-05
-6.45748e-05
-5.54406e-05
-4.52968e-05
-3.40218e-05
-2.17512e-05
-8.4576e-06
5.61621e-06
2.01002e-05
3.44956e-05
4.81296e-05
6.04313e-05
7.10944e-05
7.99525e-05
8.70267e-05
9.24516e-05
9.63307e-05
9.86978e-05
9.96188e-05
9.89683e-05
9.65123e-05
9.19382e-05
8.50138e-05
7.59868e-05
6.5528e-05
5.4725e-05
4.57024e-05
4.0412e-05
3.5077e-05
2.93663e-05
2.46388e-05
2.11109e-05
1.86062e-05
1.6866e-05
1.57349e-05
1.49248e-05
1.42722e-05
1.37728e-05
1.34177e-05
1.31778e-05
1.30685e-05
1.30929e-05
1.3239e-05
1.35087e-05
1.39009e-05
1.44204e-05
1.50658e-05
1.58355e-05
1.67298e-05
1.77506e-05
1.89019e-05
2.0191e-05
2.16315e-05
2.32481e-05
2.50776e-05
2.71774e-05
2.96352e-05
3.2583e-05
3.62095e-05
4.06558e-05
4.56243e-05
5.00241e-05
5.36514e-05
2.63668e-05
2.62101e-05
2.60231e-05
2.58504e-05
2.55856e-05
2.52328e-05
2.48631e-05
2.4529e-05
2.4274e-05
2.41356e-05
2.41444e-05
2.4324e-05
2.46954e-05
2.52792e-05
2.60941e-05
2.71571e-05
2.84839e-05
3.00902e-05
3.19921e-05
3.42058e-05
3.67484e-05
3.96386e-05
4.28952e-05
4.65367e-05
5.05823e-05
5.50521e-05
5.99665e-05
6.53448e-05
7.12078e-05
7.76015e-05
8.45552e-05
9.17893e-05
9.91276e-05
0.000106301
0.000113054
0.000119123
0.00012431
0.000128119
0.000130499
0.000131848
0.000132442
0.000132257
0.000131243
0.000129413
0.000126727
0.000123089
0.000118453
0.000112813
0.000106208
9.87383e-05
9.05668e-05
8.19358e-05
7.30188e-05
6.40485e-05
5.51834e-05
4.65967e-05
3.82564e-05
3.01839e-05
2.21594e-05
1.3886e-05
5.02669e-06
-4.49356e-06
-1.50681e-05
-2.6146e-05
-3.77381e-05
-4.88852e-05
-5.94938e-05
-6.86772e-05
-7.61979e-05
-8.20883e-05
-8.63127e-05
-8.90655e-05
-9.02845e-05
-9.02e-05
-8.88861e-05
-8.64049e-05
-8.2828e-05
-7.81464e-05
-7.24122e-05
-6.56411e-05
-5.78247e-05
-4.8892e-05
-3.89056e-05
-2.77901e-05
-1.56452e-05
-2.50843e-06
1.13013e-05
2.53631e-05
3.91517e-05
5.20598e-05
6.36983e-05
7.38817e-05
8.25358e-05
8.97453e-05
9.55802e-05
0.000100193
0.000103631
0.000105903
0.000107054
0.000107035
0.000105804
0.000103347
9.97111e-05
9.4991e-05
8.93048e-05
8.27805e-05
7.54977e-05
6.77149e-05
5.94735e-05
5.08201e-05
4.19119e-05
3.30262e-05
2.4259e-05
1.57621e-05
7.5658e-06
-3.03609e-07
-8.03754e-06
-1.5842e-05
-2.39137e-05
-3.23036e-05
-4.10896e-05
-4.99515e-05
-5.86466e-05
-6.69101e-05
-7.44045e-05
-8.07675e-05
-8.58683e-05
-8.98306e-05
-9.25973e-05
-9.40867e-05
-9.44439e-05
-9.37149e-05
-9.1938e-05
-8.91452e-05
-8.53443e-05
-8.05741e-05
-7.48298e-05
-6.81243e-05
-6.03907e-05
-5.1659e-05
-4.19487e-05
-3.11606e-05
-1.94413e-05
-6.79512e-06
6.52218e-06
2.01294e-05
3.3534e-05
4.61026e-05
5.73337e-05
6.69697e-05
7.48871e-05
8.11131e-05
8.57549e-05
8.88722e-05
9.04532e-05
9.05054e-05
8.88939e-05
8.545e-05
8.00386e-05
7.279e-05
6.44119e-05
5.56651e-05
4.73235e-05
4.09921e-05
3.63608e-05
3.17562e-05
2.73396e-05
2.36868e-05
2.08697e-05
1.87316e-05
1.70961e-05
1.58518e-05
1.49578e-05
1.42604e-05
1.37154e-05
1.33195e-05
1.30631e-05
1.29474e-05
1.29697e-05
1.31229e-05
1.34048e-05
1.38123e-05
1.43442e-05
1.49984e-05
1.5773e-05
1.66673e-05
1.76815e-05
1.88165e-05
2.00748e-05
2.14608e-05
2.2984e-05
2.46599e-05
2.65173e-05
2.86095e-05
3.10329e-05
3.39343e-05
3.74203e-05
4.12401e-05
4.44516e-05
4.65554e-05
2.56069e-05
2.51803e-05
2.47869e-05
2.45049e-05
2.42147e-05
2.38993e-05
2.35858e-05
2.33235e-05
2.31412e-05
2.30687e-05
2.31313e-05
2.33516e-05
2.375e-05
2.43458e-05
2.51569e-05
2.61999e-05
2.74907e-05
2.90446e-05
3.08772e-05
3.30041e-05
3.54416e-05
3.82066e-05
4.13164e-05
4.47881e-05
4.8639e-05
5.28866e-05
5.75481e-05
6.26387e-05
6.81746e-05
7.41925e-05
8.07141e-05
8.74804e-05
9.42732e-05
0.000100874
0.000107033
0.000112546
0.000117217
0.000120613
0.000122635
0.000123674
0.000123991
0.000123521
0.000122191
0.000120047
0.000117066
0.000113177
0.000108362
0.000102653
9.61238e-05
8.89005e-05
8.11601e-05
7.31397e-05
6.50023e-05
5.69531e-05
4.91224e-05
4.16446e-05
3.44778e-05
2.76286e-05
2.09056e-05
1.40673e-05
6.78968e-06
-9.83081e-07
-9.71492e-06
-1.90244e-05
-2.90688e-05
-3.92041e-05
-4.91441e-05
-5.8229e-05
-6.62495e-05
-7.26708e-05
-7.75937e-05
-8.10693e-05
-8.29622e-05
-8.35326e-05
-8.28457e-05
-8.09689e-05
-7.79861e-05
-7.38743e-05
-6.86865e-05
-6.24536e-05
-5.51747e-05
-4.67971e-05
-3.73872e-05
-2.68866e-05
-1.54019e-05
-2.99077e-06
1.00323e-05
2.32565e-05
3.61827e-05
4.82505e-05
5.91155e-05
6.86095e-05
7.66721e-05
8.33668e-05
8.8744e-05
9.29206e-05
9.59214e-05
9.77434e-05
9.84261e-05
9.79365e-05
9.62951e-05
9.35222e-05
8.97175e-05
8.50064e-05
7.95085e-05
7.33363e-05
6.65915e-05
5.94346e-05
5.19262e-05
4.4171e-05
3.6326e-05
2.86245e-05
2.11145e-05
1.39707e-05
7.12606e-06
6.10544e-07
-5.78088e-06
-1.22495e-05
-1.8993e-05
-2.60499e-05
-3.3641e-05
-4.15434e-05
-4.95432e-05
-5.73287e-05
-6.47452e-05
-7.13913e-05
-7.6877e-05
-8.12831e-05
-8.44599e-05
-8.64177e-05
-8.72105e-05
-8.69096e-05
-8.55416e-05
-8.31601e-05
-7.97498e-05
-7.53626e-05
-7.00011e-05
-6.36839e-05
-5.63595e-05
-4.80609e-05
-3.88202e-05
-2.85638e-05
-1.74439e-05
-5.49872e-06
7.00996e-06
1.96999e-05
3.20959e-05
4.36144e-05
5.38182e-05
6.2486e-05
6.95174e-05
7.49301e-05
7.87998e-05
8.11521e-05
8.19472e-05
8.11825e-05
7.87729e-05
7.46819e-05
6.89783e-05
6.20823e-05
5.48315e-05
4.78351e-05
4.13821e-05
3.66734e-05
3.26581e-05
2.87906e-05
2.53399e-05
2.24342e-05
2.0117e-05
1.82947e-05
1.68271e-05
1.56181e-05
1.47255e-05
1.40295e-05
1.34811e-05
1.30813e-05
1.28284e-05
1.27189e-05
1.27489e-05
1.29131e-05
1.32071e-05
1.36267e-05
1.41685e-05
1.48297e-05
1.56076e-05
1.65001e-05
1.75053e-05
1.86208e-05
1.98438e-05
2.11707e-05
2.25982e-05
2.41241e-05
2.57527e-05
2.75068e-05
2.94473e-05
3.16825e-05
3.42903e-05
3.70665e-05
3.9275e-05
4.01761e-05
2.4422e-05
2.39193e-05
2.34623e-05
2.31345e-05
2.28367e-05
2.25651e-05
2.2324e-05
2.21229e-05
2.1999e-05
2.1981e-05
2.20879e-05
2.23409e-05
2.27583e-05
2.33579e-05
2.4157e-05
2.51714e-05
2.64164e-05
2.79068e-05
2.96574e-05
3.1683e-05
3.39986e-05
3.66196e-05
3.95614e-05
4.28394e-05
4.64689e-05
5.04651e-05
5.48425e-05
5.96127e-05
6.47877e-05
7.04029e-05
7.64634e-05
8.2739e-05
8.89902e-05
9.49972e-05
0.000100601
0.000105606
0.000109809
0.000112836
0.000114572
0.00011535
0.000115432
0.000114716
0.000113118
0.000110715
0.000107506
0.000103445
9.85433e-05
9.28646e-05
8.65096e-05
7.96219e-05
7.23808e-05
6.50092e-05
5.76501e-05
5.04794e-05
4.35965e-05
3.71012e-05
3.09438e-05
2.51179e-05
1.94551e-05
1.37573e-05
7.73359e-06
1.32973e-06
-5.87023e-06
-1.36484e-05
-2.21808e-05
-3.10976e-05
-4.01211e-05
-4.88348e-05
-5.682e-05
-6.35667e-05
-6.89549e-05
-7.30474e-05
-7.57863e-05
-7.70033e-05
-7.68664e-05
-7.55483e-05
-7.31496e-05
-6.96218e-05
-6.49989e-05
-5.93216e-05
-5.2596e-05
-4.47926e-05
-3.59781e-05
-2.61153e-05
-1.53139e-05
-3.6513e-06
8.56928e-06
2.09521e-05
3.30281e-05
4.42849e-05
5.44137e-05
6.32554e-05
7.07514e-05
7.6944e-05
8.18626e-05
8.55968e-05
8.81557e-05
8.9539e-05
8.97914e-05
8.89184e-05
8.69669e-05
8.40399e-05
8.02215e-05
7.56573e-05
7.04561e-05
6.47129e-05
5.85163e-05
5.19878e-05
4.52152e-05
3.83216e-05
3.14503e-05
2.47955e-05
1.8382e-05
1.23625e-05
6.63358e-06
1.21646e-06
-4.0851e-06
-9.44934e-06
-1.50726e-05
-2.09947e-05
-2.74598e-05
-3.43096e-05
-4.14674e-05
-4.86825e-05
-5.5818e-05
-6.23827e-05
-6.81112e-05
-7.28503e-05
-7.64898e-05
-7.89879e-05
-8.01825e-05
-8.02833e-05
-7.93002e-05
-7.73424e-05
-7.43343e-05
-7.03436e-05
-6.538e-05
-5.94675e-05
-5.25731e-05
-4.47314e-05
-3.59873e-05
-2.62956e-05
-1.58079e-05
-4.59642e-06
7.07755e-06
1.88396e-05
3.02385e-05
4.07446e-05
4.99745e-05
5.77316e-05
6.3925e-05
6.85563e-05
7.16759e-05
7.32897e-05
7.33604e-05
7.19164e-05
6.89652e-05
6.46143e-05
5.90944e-05
5.29666e-05
4.69873e-05
4.14589e-05
3.63851e-05
3.27093e-05
2.92745e-05
2.60632e-05
2.33169e-05
2.09556e-05
1.90275e-05
1.74812e-05
1.61992e-05
1.50955e-05
1.42576e-05
1.35997e-05
1.30807e-05
1.27043e-05
1.2472e-05
1.23808e-05
1.24266e-05
1.26052e-05
1.29119e-05
1.33424e-05
1.38927e-05
1.45591e-05
1.53382e-05
1.62266e-05
1.72201e-05
1.83134e-05
1.94993e-05
2.07681e-05
2.2107e-05
2.3501e-05
2.4936e-05
2.64092e-05
2.79475e-05
2.96143e-05
3.14424e-05
3.3236e-05
3.44254e-05
3.46066e-05
2.29934e-05
2.25002e-05
2.20509e-05
2.17222e-05
2.14453e-05
2.12063e-05
2.10122e-05
2.08768e-05
2.08151e-05
2.08431e-05
2.09858e-05
2.12647e-05
2.16946e-05
2.22914e-05
2.30715e-05
2.405e-05
2.5241e-05
2.66584e-05
2.83161e-05
3.02277e-05
3.24068e-05
3.48671e-05
3.76222e-05
4.06856e-05
4.40707e-05
4.77907e-05
5.1858e-05
5.62815e-05
6.10697e-05
6.62574e-05
7.18384e-05
7.76094e-05
8.33195e-05
8.8771e-05
9.38552e-05
9.83993e-05
0.000102188
0.000104889
0.000106373
0.000106939
0.00010682
0.000105896
0.000104074
0.000101467
9.8097e-05
9.39401e-05
8.90373e-05
8.34776e-05
7.73809e-05
7.08979e-05
6.42021e-05
5.74959e-05
5.0898e-05
4.45554e-05
3.85378e-05
3.29169e-05
2.76374e-05
2.26843e-05
1.79084e-05
1.31459e-05
8.1428e-06
2.83815e-06
-3.1091e-06
-9.58744e-06
-1.67729e-05
-2.44628e-05
-3.24567e-05
-4.04861e-05
-4.81439e-05
-5.50187e-05
-6.07763e-05
-6.52587e-05
-6.85196e-05
-7.04619e-05
-7.10899e-05
-7.03553e-05
-6.84802e-05
-6.5493e-05
-6.14209e-05
-5.63053e-05
-5.01399e-05
-4.29242e-05
-3.47184e-05
-2.55078e-05
-1.54021e-05
-4.49813e-06
6.91832e-06
1.84704e-05
2.97196e-05
4.02001e-05
4.96292e-05
5.78504e-05
6.4801e-05
7.05015e-05
7.49633e-05
7.82578e-05
8.03821e-05
8.13691e-05
8.12266e-05
8.00825e-05
7.79776e-05
7.50114e-05
7.13112e-05
6.69939e-05
6.21499e-05
5.68598e-05
5.12017e-05
4.52909e-05
3.92278e-05
3.31389e-05
2.71507e-05
2.14218e-05
1.5962e-05
1.08908e-05
6.09549e-06
1.58661e-06
-2.81624e-06
-7.26493e-06
-1.19477e-05
-1.69063e-05
-2.23735e-05
-2.82432e-05
-3.45319e-05
-4.10147e-05
-4.76294e-05
-5.39777e-05
-5.98155e-05
-6.47662e-05
-6.86985e-05
-7.15917e-05
-7.33569e-05
-7.39449e-05
-7.33352e-05
-7.17824e-05
-6.9155e-05
-6.55662e-05
-6.10105e-05
-5.55163e-05
-4.90687e-05
-4.17031e-05
-3.34754e-05
-2.43721e-05
-1.45372e-05
-4.07589e-06
6.75702e-06
1.76019e-05
2.80346e-05
3.75781e-05
4.58909e-05
5.27918e-05
5.81927e-05
6.20798e-05
6.44901e-05
6.5429e-05
6.48948e-05
6.29719e-05
5.97866e-05
5.5508e-05
5.04887e-05
4.53038e-05
4.04919e-05
3.60996e-05
3.20316e-05
2.90528e-05
2.61436e-05
2.34877e-05
2.12705e-05
1.93307e-05
1.77221e-05
1.64208e-05
1.53234e-05
1.43545e-05
1.36014e-05
1.30052e-05
1.2536e-05
1.21997e-05
1.2e-05
1.19351e-05
1.2002e-05
1.21973e-05
1.25171e-05
1.29572e-05
1.35136e-05
1.41822e-05
1.49587e-05
1.58383e-05
1.68151e-05
1.78812e-05
1.90264e-05
2.02364e-05
2.14926e-05
2.27708e-05
2.40434e-05
2.52864e-05
2.64934e-05
2.76843e-05
2.88685e-05
2.98569e-05
3.02677e-05
3.00299e-05
2.14313e-05
2.09781e-05
2.05641e-05
2.0256e-05
2.00081e-05
1.98077e-05
1.96584e-05
1.95697e-05
1.95531e-05
1.96265e-05
1.98054e-05
2.01029e-05
2.05378e-05
2.11253e-05
2.18798e-05
2.28152e-05
2.39444e-05
2.52803e-05
2.68352e-05
2.86216e-05
3.06514e-05
3.29369e-05
3.54898e-05
3.83217e-05
4.1444e-05
4.48684e-05
4.86063e-05
5.2663e-05
5.70496e-05
6.17923e-05
6.68872e-05
7.21505e-05
7.73326e-05
8.22624e-05
8.68674e-05
9.09944e-05
9.44135e-05
9.68228e-05
9.80902e-05
9.84731e-05
9.8188e-05
9.70927e-05
9.50946e-05
9.23388e-05
8.88717e-05
8.46932e-05
7.98682e-05
7.4505e-05
6.8735e-05
6.27081e-05
5.65858e-05
5.05461e-05
4.46821e-05
3.91142e-05
3.38856e-05
2.9046e-05
2.45369e-05
2.03386e-05
1.63188e-05
1.2342e-05
8.18908e-06
3.79431e-06
-1.11653e-06
-6.50319e-06
-1.2516e-05
-1.90601e-05
-2.60107e-05
-3.32024e-05
-4.03136e-05
-4.69885e-05
-5.29152e-05
-5.78249e-05
-6.15597e-05
-6.40285e-05
-6.52186e-05
-6.51951e-05
-6.39712e-05
-6.1549e-05
-5.80222e-05
-5.34685e-05
-4.78492e-05
-4.1224e-05
-3.36349e-05
-2.50811e-05
-1.56733e-05
-5.52622e-06
5.09748e-06
1.58416e-05
2.62962e-05
3.60387e-05
4.48037e-05
5.24323e-05
5.88553e-05
6.4072e-05
6.80815e-05
7.0943e-05
7.26548e-05
7.32988e-05
7.29155e-05
7.1551e-05
6.94013e-05
6.65252e-05
6.30298e-05
5.90087e-05
5.4541e-05
4.97003e-05
4.45636e-05
3.92481e-05
3.38581e-05
2.85154e-05
2.33277e-05
1.84207e-05
1.37931e-05
9.53209e-06
5.52803e-06
1.78251e-06
-1.86723e-06
-5.54778e-06
-9.43461e-06
-1.35693e-05
-1.81648e-05
-2.31555e-05
-2.8602e-05
-3.43279e-05
-4.03256e-05
-4.62677e-05
-5.19305e-05
-5.69958e-05
-6.12719e-05
-6.45098e-05
-6.66493e-05
-6.76538e-05
-6.762e-05
-6.6488e-05
-6.42328e-05
-6.10583e-05
-5.69108e-05
-5.18447e-05
-4.58575e-05
-3.89829e-05
-3.12853e-05
-2.27842e-05
-1.36109e-05
-3.9002e-06
6.10316e-06
1.60591e-05
2.55705e-05
3.42074e-05
4.16586e-05
4.77568e-05
5.24112e-05
5.55996e-05
5.73627e-05
5.77205e-05
5.67308e-05
5.45414e-05
5.13997e-05
4.75014e-05
4.31058e-05
3.8841e-05
3.49973e-05
3.14568e-05
2.81374e-05
2.56613e-05
2.32167e-05
2.10273e-05
1.92245e-05
1.76276e-05
1.6293e-05
1.52069e-05
1.42838e-05
1.34571e-05
1.28019e-05
1.22794e-05
1.18708e-05
1.15836e-05
1.14228e-05
1.13884e-05
1.14785e-05
1.16909e-05
1.20226e-05
1.24697e-05
1.30283e-05
1.36939e-05
1.44615e-05
1.53249e-05
1.62768e-05
1.73075e-05
1.84043e-05
1.95504e-05
2.0723e-05
2.18919e-05
2.30189e-05
2.40619e-05
2.49838e-05
2.57608e-05
2.64003e-05
2.68676e-05
2.68171e-05
2.63091e-05
1.97944e-05
1.93871e-05
1.90156e-05
1.87363e-05
1.8519e-05
1.83548e-05
1.82456e-05
1.81974e-05
1.82195e-05
1.83252e-05
1.85273e-05
1.88381e-05
1.92721e-05
1.98444e-05
2.05675e-05
2.14524e-05
2.25122e-05
2.37582e-05
2.52014e-05
2.68528e-05
2.87228e-05
3.08218e-05
3.31602e-05
3.57477e-05
3.85936e-05
4.17077e-05
4.51047e-05
4.87842e-05
5.27587e-05
5.70489e-05
6.16573e-05
6.64177e-05
7.10892e-05
7.55277e-05
7.96904e-05
8.34377e-05
8.65227e-05
8.86704e-05
8.97533e-05
8.99744e-05
8.95605e-05
8.83327e-05
8.62045e-05
8.33555e-05
7.98556e-05
7.57255e-05
7.10501e-05
6.59502e-05
6.0562e-05
5.5028e-05
4.94935e-05
4.41105e-05
3.89476e-05
3.41009e-05
2.95915e-05
2.54523e-05
2.16237e-05
1.8084e-05
1.47172e-05
1.14107e-05
7.97685e-06
4.34994e-06
3.09809e-07
-4.14696e-06
-9.14548e-06
-1.46557e-05
-2.06064e-05
-2.69015e-05
-3.33214e-05
-3.95715e-05
-4.53898e-05
-5.04597e-05
-5.45592e-05
-5.75919e-05
-5.94362e-05
-6.00007e-05
-5.93343e-05
-5.75775e-05
-5.47491e-05
-5.07885e-05
-4.572e-05
-3.96936e-05
-3.27293e-05
-2.48243e-05
-1.61082e-05
-6.70556e-06
3.14761e-06
1.31156e-05
2.28135e-05
3.18563e-05
3.99891e-05
4.70476e-05
5.29551e-05
5.76943e-05
6.12679e-05
6.37023e-05
6.50806e-05
6.54343e-05
6.48654e-05
6.34522e-05
6.1346e-05
5.86215e-05
5.53665e-05
5.16553e-05
4.75602e-05
4.31549e-05
3.85202e-05
3.37753e-05
2.90219e-05
2.43707e-05
1.99097e-05
1.57348e-05
1.18367e-05
8.27535e-06
4.94911e-06
1.85341e-06
-1.15724e-06
-4.18651e-06
-7.39512e-06
-1.08222e-05
-1.46578e-05
-1.88653e-05
-2.35238e-05
-2.85093e-05
-3.38425e-05
-3.92698e-05
-4.46052e-05
-4.95879e-05
-5.39679e-05
-5.7485e-05
-6.00602e-05
-6.15527e-05
-6.19372e-05
-6.11873e-05
-5.94951e-05
-5.67736e-05
-5.30506e-05
-4.8432e-05
-4.29182e-05
-3.65463e-05
-2.93867e-05
-2.14915e-05
-1.29769e-05
-4.00226e-06
5.19825e-06
1.43056e-05
2.29462e-05
3.07341e-05
3.73762e-05
4.2716e-05
4.66712e-05
4.92191e-05
5.04222e-05
5.03454e-05
4.90612e-05
4.6845e-05
4.38969e-05
4.04798e-05
3.67921e-05
3.33311e-05
3.02329e-05
2.73298e-05
2.4589e-05
2.25023e-05
2.0465e-05
1.86696e-05
1.72042e-05
1.58959e-05
1.47983e-05
1.39027e-05
1.31398e-05
1.24506e-05
1.1896e-05
1.14517e-05
1.11077e-05
1.08728e-05
1.07531e-05
1.075e-05
1.0863e-05
1.10909e-05
1.14313e-05
1.1881e-05
1.2436e-05
1.30914e-05
1.38415e-05
1.4679e-05
1.55952e-05
1.6579e-05
1.76164e-05
1.86887e-05
1.97704e-05
2.08269e-05
2.1812e-05
2.26692e-05
2.3339e-05
2.37684e-05
2.39652e-05
2.40183e-05
2.37543e-05
2.32016e-05
1.8112e-05
1.77465e-05
1.74159e-05
1.71664e-05
1.6978e-05
1.68452e-05
1.6769e-05
1.67535e-05
1.68055e-05
1.69346e-05
1.71513e-05
1.74666e-05
1.78927e-05
1.84417e-05
1.91247e-05
1.99523e-05
2.09353e-05
2.20837e-05
2.34072e-05
2.49151e-05
2.66164e-05
2.85198e-05
3.0634e-05
3.29671e-05
3.55277e-05
3.83238e-05
4.13707e-05
4.46711e-05
4.82319e-05
5.20735e-05
5.61961e-05
6.04599e-05
6.46382e-05
6.8612e-05
7.2363e-05
7.57607e-05
7.85402e-05
8.04497e-05
8.13647e-05
8.14817e-05
8.09606e-05
7.96365e-05
7.74251e-05
7.45383e-05
7.10679e-05
6.7052e-05
6.25904e-05
5.78108e-05
5.28476e-05
4.78315e-05
4.28891e-05
3.81461e-05
3.36486e-05
2.94714e-05
2.56178e-05
2.2108e-05
1.88832e-05
1.59219e-05
1.31248e-05
1.03947e-05
7.5745e-06
4.60261e-06
1.30119e-06
-2.35655e-06
-6.47554e-06
-1.10624e-05
-1.60845e-05
-2.14898e-05
-2.71364e-05
-3.28065e-05
-3.83019e-05
-4.33116e-05
-4.76087e-05
-5.10158e-05
-5.33718e-05
-5.4581e-05
-5.46595e-05
-5.35832e-05
-5.13373e-05
-4.79723e-05
-4.35972e-05
-3.82581e-05
-3.19277e-05
-2.46637e-05
-1.66355e-05
-7.962e-06
1.14588e-06
1.03713e-05
1.93475e-05
2.77219e-05
3.52441e-05
4.1745e-05
4.71429e-05
5.13996e-05
5.45668e-05
5.66627e-05
5.77119e-05
5.78683e-05
5.72043e-05
5.58164e-05
5.38164e-05
5.12774e-05
4.82728e-05
4.48673e-05
4.11334e-05
3.71497e-05
3.30009e-05
2.88043e-05
2.46533e-05
2.06435e-05
1.68431e-05
1.33229e-05
1.00673e-05
7.11502e-06
4.37419e-06
1.83663e-06
-6.27003e-07
-3.09997e-06
-5.72784e-06
-8.54509e-06
-1.17187e-05
-1.52312e-05
-1.91675e-05
-2.34464e-05
-2.81041e-05
-3.29538e-05
-3.78543e-05
-4.25933e-05
-4.69219e-05
-5.05993e-05
-5.34569e-05
-5.5341e-05
-5.6192e-05
-5.60034e-05
-5.4791e-05
-5.25062e-05
-4.93008e-05
-4.51727e-05
-4.01601e-05
-3.43091e-05
-2.76962e-05
-2.04051e-05
-1.25402e-05
-4.27921e-06
4.15172e-06
1.2453e-05
2.02717e-05
2.72531e-05
3.31322e-05
3.77541e-05
4.10467e-05
4.30148e-05
4.37408e-05
4.33968e-05
4.20615e-05
3.9923e-05
3.73126e-05
3.44078e-05
3.13526e-05
2.8535e-05
2.59991e-05
2.359e-05
2.13166e-05
1.95525e-05
1.78718e-05
1.64126e-05
1.52306e-05
1.41704e-05
1.32793e-05
1.25517e-05
1.19324e-05
1.13707e-05
1.09132e-05
1.05461e-05
1.02663e-05
1.00832e-05
1.00038e-05
1.00304e-05
1.01638e-05
1.04038e-05
1.07485e-05
1.1195e-05
1.17392e-05
1.23759e-05
1.30984e-05
1.38986e-05
1.47669e-05
1.56911e-05
1.6656e-05
1.76418e-05
1.86215e-05
1.95577e-05
2.03989e-05
2.10801e-05
2.15316e-05
2.16939e-05
2.15896e-05
2.13759e-05
2.10197e-05
2.05435e-05
1.6398e-05
1.6067e-05
1.5772e-05
1.55501e-05
1.53871e-05
1.52799e-05
1.52293e-05
1.52379e-05
1.53105e-05
1.54539e-05
1.56765e-05
1.59876e-05
1.63968e-05
1.69144e-05
1.75498e-05
1.83124e-05
1.92112e-05
2.02548e-05
2.14513e-05
2.28086e-05
2.43344e-05
2.60357e-05
2.792e-05
2.99943e-05
3.22666e-05
3.47461e-05
3.74354e-05
4.03498e-05
4.34956e-05
4.68937e-05
5.0542e-05
5.43206e-05
5.80217e-05
6.15521e-05
6.49153e-05
6.79877e-05
7.04857e-05
7.21816e-05
7.29606e-05
7.29919e-05
7.24003e-05
7.102e-05
6.87732e-05
6.59034e-05
6.25221e-05
5.86814e-05
5.44909e-05
5.00795e-05
4.55751e-05
4.10932e-05
3.67398e-05
3.26156e-05
2.87469e-05
2.51901e-05
2.19348e-05
1.89918e-05
1.63048e-05
1.38538e-05
1.15544e-05
9.32282e-06
7.02981e-06
4.62004e-06
1.94916e-06
-1.01985e-06
-4.37558e-06
-8.14372e-06
-1.23178e-05
-1.68748e-05
-2.17276e-05
-2.67212e-05
-3.1707e-05
-3.64572e-05
-4.07385e-05
-4.43501e-05
-4.71063e-05
-4.88731e-05
-4.95768e-05
-4.91756e-05
-4.76438e-05
-4.50172e-05
-4.13588e-05
-3.66739e-05
-3.09952e-05
-2.44548e-05
-1.71275e-05
-9.17119e-06
-7.91535e-07
7.7134e-06
1.59894e-05
2.371e-05
3.06267e-05
3.65663e-05
4.14654e-05
4.52824e-05
4.80319e-05
4.98133e-05
5.06507e-05
5.06795e-05
4.99852e-05
4.86603e-05
4.6792e-05
4.44443e-05
4.16839e-05
3.85745e-05
3.51932e-05
3.16229e-05
2.7949e-05
2.42813e-05
2.07009e-05
1.72862e-05
1.40874e-05
1.11542e-05
8.46668e-06
6.04763e-06
3.81529e-06
1.75988e-06
-2.33091e-07
-2.22871e-06
-4.35767e-06
-6.64819e-06
-9.24509e-06
-1.21429e-05
-1.54253e-05
-1.90427e-05
-2.30401e-05
-2.72838e-05
-3.16738e-05
-3.60436e-05
-4.01762e-05
-4.38556e-05
-4.68781e-05
-4.90826e-05
-5.03533e-05
-5.0641e-05
-4.99258e-05
-4.81905e-05
-4.55115e-05
-4.19091e-05
-3.7428e-05
-3.21229e-05
-2.60724e-05
-1.93868e-05
-1.21654e-05
-4.5992e-06
3.08915e-06
1.06159e-05
1.76453e-05
2.38521e-05
2.89928e-05
3.29323e-05
3.56241e-05
3.71047e-05
3.75107e-05
3.69662e-05
3.56711e-05
3.37879e-05
3.15597e-05
2.91289e-05
2.65936e-05
2.42703e-05
2.21648e-05
2.01578e-05
1.82774e-05
1.67955e-05
1.54277e-05
1.42582e-05
1.33188e-05
1.24739e-05
1.17635e-05
1.1183e-05
1.06906e-05
1.02434e-05
9.87593e-06
9.5819e-06
9.36293e-06
9.22887e-06
9.18675e-06
9.23999e-06
9.39028e-06
9.63783e-06
9.98132e-06
1.04179e-05
1.09434e-05
1.1552e-05
1.22364e-05
1.29879e-05
1.37958e-05
1.46474e-05
1.55269e-05
1.64138e-05
1.72806e-05
1.80888e-05
1.87857e-05
1.93051e-05