/*--------------------------------*- C++ -*----------------------------------*\
| =========                 |                                                 |
| \\      /  F ield         | OpenFOAM: The Open Source CFD Toolbox           |
|  \\    /   O peration     | Version:  2506                                  |
|   \\  /    A nd           | Website:  www.openfoam.com                      |
|    \\/     M anipulation  |                                                 |
\*---------------------------------------------------------------------------*/
FoamFile
{
    version     2.0;
    format      ascii;
    arch        "LSB;label=32;scalar=64";
    class       volVectorField;
    location    "4.55";
    object      vorticityField;
}
// * * * * * * * * * * * * * * * * * * * * * * * * * * * * * * * * * * * * * //

dimensions      [0 0 -1 0 0 0 0];

internalField   nonuniform List<vector> 
4000
(
(3.71722e-19 1.51145e-19 30.8075)
(1.41956e-20 7.12304e-20 33.3385)
(1.85349e-19 5.47048e-19 28.0313)
(2.13093e-19 7.55179e-19 22.9738)
(-3.5237e-20 8.81141e-19 19.601)
(2.38724e-20 4.61431e-21 17.1968)
(8.8692e-20 1.03308e-18 15.3397)
(2.69956e-20 1.09089e-18 13.8824)
(-5.32157e-21 1.29293e-21 12.723)
(-4.13782e-21 5.43337e-21 11.7806)
(4.26309e-20 2.40427e-17 11.0009)
(-5.54682e-20 -4.57366e-17 10.3481)
(1.36263e-20 2.16494e-17 9.79663)
(-8.76126e-21 -2.30991e-17 9.32807)
(5.79222e-21 2.30023e-17 8.92861)
(1.29642e-20 1.26393e-18 8.58777)
(-1.09407e-20 2.30809e-17 8.29731)
(2.43608e-20 -2.3003e-17 8.05055)
(3.19692e-20 1.28261e-18 7.84186)
(-3.85928e-20 -1.23606e-21 7.66628)
(3.87855e-21 -2.2603e-21 7.51924)
(9.3527e-20 -1.26877e-18 7.39628)
(-9.30614e-20 -1.26196e-18 7.29277)
(-1.24506e-19 -1.66149e-21 7.20369)
(1.29248e-19 -1.26117e-18 7.12323)
(7.02524e-21 -1.24977e-18 7.04438)
(1.90912e-19 5.28281e-21 6.95826)
(-2.40876e-20 1.8516e-19 6.85348)
(-5.23931e-19 4.44417e-17 6.71465)
(1.56109e-19 -4.58739e-17 6.49818)
(2.07749e-19 5.06674e-21 6.14224)
(-2.473e-19 -9.22264e-17 5.92018)
(3.04325e-18 1.23589e-16 6.15826)
(8.8202e-18 -4.07623e-17 6.9059)
(1.13347e-17 -9.50655e-17 8.10176)
(4.64343e-17 7.48892e-16 9.73168)
(3.08138e-17 -5.90675e-17 11.5935)
(-4.47926e-17 -1.20338e-16 14.6415)
(-2.54378e-20 -2.88313e-18 19.3758)
(2.23341e-17 4.79029e-17 24.5457)
(-2.54801e-17 -5.76804e-17 29.5264)
(1.48385e-16 4.72992e-16 33.993)
(-2.88417e-19 1.69626e-18 37.8188)
(3.12848e-16 2.84631e-16 40.9559)
(-1.46568e-16 -1.14222e-16 43.3935)
(3.48951e-19 3.33191e-16 45.1658)
(1.67194e-18 7.74588e-18 46.2438)
(-2.64036e-18 -3.41924e-16 46.7583)
(-2.09658e-16 -1.91734e-16 46.8262)
(-1.61545e-16 -1.38636e-16 46.5613)
(-2.76108e-18 -4.96682e-18 46.0465)
(3.2745e-19 5.69347e-19 45.0771)
(-1.09426e-17 -2.21393e-17 44.0325)
(3.66964e-18 3.23086e-16 42.5198)
(-9.29949e-17 2.13775e-16 40.4865)
(5.42513e-18 -2.82268e-16 37.4379)
(-3.5818e-17 -8.70134e-17 33.3925)
(8.83949e-18 3.67021e-17 28.0779)
(9.18724e-20 -3.25614e-19 21.7479)
(8.61293e-19 -3.44215e-17 15.3843)
(2.10411e-18 -9.30322e-17 9.8827)
(5.79624e-18 3.78225e-17 5.75089)
(-3.02568e-18 3.45369e-16 3.00578)
(4.35709e-18 -3.5229e-16 1.40379)
(-4.8348e-20 9.19257e-19 0.536673)
(-8.64312e-20 7.56287e-20 0.147365)
(1.89046e-21 -1.69926e-20 -0.00172873)
(2.22629e-20 -4.79183e-17 -0.0420826)
(-2.19459e-19 -7.1329e-16 -0.0437284)
(1.46837e-19 -3.77581e-16 -0.0356096)
(-2.55007e-21 1.13796e-19 -0.025029)
(-9.86311e-20 3.21415e-16 -0.0155882)
(-4.08078e-21 -3.14602e-16 -0.00898601)
(-5.66799e-20 -4.37397e-17 -0.00492491)
(-1.4976e-20 3.40592e-16 -0.00282075)
(2.48921e-20 -2.88511e-16 -0.00197755)
(4.86805e-20 -3.17878e-16 -0.00193703)
(-1.23117e-20 -3.04359e-16 -0.00235022)
(-2.09899e-21 2.75004e-20 -0.00301352)
(-1.9074e-20 1.82677e-20 -0.00374421)
(1.64017e-20 8.22264e-18 -0.00445845)
(-1.072e-20 2.39416e-16 -0.00510586)
(3.59094e-22 -2.15479e-20 -0.0057324)
(7.21093e-21 -2.11557e-16 -0.00635634)
(1.50275e-21 1.99471e-16 -0.00711108)
(-7.01165e-23 -6.0026e-21 -0.00814907)
(1.31268e-22 6.32102e-23 -0.00983431)
(-1.85117e-22 1.00932e-17 -0.0126107)
(-3.57886e-22 3.50049e-17 -0.0170917)
(1.39481e-22 -8.48484e-17 -0.0241289)
(-2.18562e-21 -1.7523e-21 -0.0344238)
(-6.95915e-20 3.37541e-19 -0.0480476)
(3.58881e-20 -1.43322e-17 -0.064782)
(-4.65485e-20 -1.04202e-19 -0.0816259)
(1.24738e-19 2.5779e-16 -0.0907587)
(-3.75865e-19 2.71529e-16 -0.0823625)
(2.15054e-19 2.76969e-16 -0.049921)
(1.32446e-19 1.87229e-17 0.0110462)
(3.74205e-19 2.99308e-16 0.0953272)
(8.45876e-19 3.25373e-16 0.185197)
(-1.56806e-20 -5.14341e-18 0.251258)
(3.17583e-19 3.43633e-16 0.263811)
(1.19014e-18 6.90494e-16 0.210137)
(2.94558e-20 1.66397e-17 0.102816)
(8.09176e-19 3.51552e-16 0.0193639)
(5.24461e-20 1.72468e-18 0.0355802)
(-4.66566e-20 -3.63611e-16 0.27205)
(-1.46014e-18 -3.39421e-16 0.797364)
(1.18538e-18 -2.27669e-17 1.63973)
(1.53433e-18 2.85098e-18 2.77518)
(-1.29765e-17 -3.33775e-16 4.16396)
(1.40349e-17 3.11285e-16 5.56688)
(8.27265e-20 5.94138e-20 6.94141)
(1.72189e-17 5.98541e-16 7.94035)
(-2.31858e-19 1.38359e-16 8.4854)
(5.32206e-18 2.92897e-16 8.35234)
(2.56268e-20 1.79502e-20 7.42331)
(-8.71074e-20 7.30545e-17 5.90871)
(1.1534e-19 -9.2324e-18 4.19309)
(-4.12254e-20 -8.24126e-20 2.62286)
(-1.00402e-19 9.33978e-18 1.46084)
(1.67111e-18 -3.34152e-16 0.713965)
(-4.13613e-19 3.48064e-16 0.289617)
(1.04628e-20 2.13753e-17 0.0791103)
(-1.67594e-20 3.27212e-16 -0.00827427)
(-3.54981e-21 -6.81891e-16 -0.0346916)
(-1.83141e-19 3.31243e-16 -0.0374096)
(-2.05751e-19 -3.74029e-16 -0.0319737)
(-1.86922e-19 2.69043e-20 -0.0241632)
(-6.20558e-20 -3.22675e-16 -0.0165174)
(9.97635e-23 6.13895e-20 -0.0106298)
(-4.17309e-20 3.31016e-16 -0.0065176)
(5.16453e-20 -4.03583e-17 -0.00388835)
(-1.6802e-20 3.52262e-16 -0.00243023)
(-1.17757e-20 -6.63906e-21 -0.00184691)
(-9.42451e-22 -8.93567e-21 -0.00187181)
(7.6306e-21 -2.80025e-16 -0.00229305)
(5.71262e-21 2.67894e-16 -0.00295597)
(1.19186e-22 -7.76941e-21 -0.00377462)
(2.19475e-21 -3.16533e-21 -0.00468877)
(9.20696e-22 2.28744e-16 -0.00564213)
(-4.98018e-21 -5.37809e-17 -0.00664113)
(3.39638e-20 2.54868e-16 -0.0077689)
(-2.02096e-21 1.51669e-20 -0.00911896)
(-9.79692e-21 -1.39546e-16 -0.0110009)
(-1.11497e-20 -9.13734e-17 -0.013714)
(1.17414e-20 6.90986e-17 -0.0179099)
(-8.37056e-21 -4.77789e-17 -0.0239098)
(1.44828e-20 -9.07128e-21 -0.0326384)
(-1.14713e-20 5.3781e-17 -0.0443821)
(5.5124e-21 1.62579e-19 -0.0547792)
(-2.91237e-20 -3.6922e-16 -0.0617115)
(-3.3023e-20 6.53267e-17 -0.0458038)
(3.6801e-19 4.48726e-19 0.000533468)
(1.12542e-19 2.20404e-16 0.102482)
(2.34775e-19 7.72648e-17 0.278502)
(-3.60339e-20 3.58394e-20 0.532007)
(-1.24159e-19 -1.36317e-19 0.855886)
(-3.49253e-21 1.42028e-19 1.21314)
(-6.96979e-18 -7.16351e-16 1.561)
(1.65648e-18 9.25383e-17 1.8571)
(8.63508e-18 3.83052e-16 2.0435)
(-2.35373e-18 3.05809e-16 2.19794)
(-2.34405e-19 -1.20322e-18 1.78863)
(1.33626e-18 -3.0712e-16 1.51238)
(-2.07615e-18 -5.12573e-16 1.29609)
(2.42762e-20 9.47694e-19 1.18681)
(-2.7329e-19 -6.76921e-17 1.18827)
(1.16127e-19 -1.93855e-16 1.25576)
(-8.77741e-20 -6.17563e-17 1.32197)
(3.08268e-19 1.73087e-19 1.36045)
(9.85878e-22 -9.35286e-19 1.4377)
(4.44316e-19 9.37647e-24 1.57764)
(-4.29308e-19 -9.28113e-19 1.76098)
(-8.36412e-20 -1.3502e-18 1.96766)
(2.99705e-20 -5.96426e-17 2.19023)
(-5.69538e-19 6.06001e-17 2.42593)
(-1.42144e-19 2.84572e-17 2.67393)
(7.52128e-19 -2.99045e-17 2.93391)
(-1.94949e-20 2.74312e-17 3.20627)
(5.15076e-19 -5.80376e-17 3.49217)
(-3.84629e-19 2.83478e-17 3.79249)
(-7.13087e-19 -3.92313e-19 4.1076)
(7.15279e-19 -8.11636e-19 4.4375)
(-5.93738e-20 1.87136e-19 4.7821)
(1.68121e-18 -2.75987e-17 5.14171)
(-1.73628e-18 2.63926e-17 5.51769)
(1.98768e-18 -2.67572e-17 5.91338)
(-2.01977e-18 2.62903e-17 6.33504)
(1.07012e-18 -1.4227e-17 6.79339)
(-1.1326e-18 1.28031e-17 7.30577)
(6.50916e-20 -1.17701e-18 7.90013)
(-8.70663e-20 -6.81465e-19 8.62245)
(-8.59814e-19 -9.7772e-21 9.55141)
(9.84303e-19 -7.03978e-19 10.8269)
(-1.14887e-19 -1.11445e-18 12.7062)
(7.99354e-19 -5.09004e-18 15.7101)
(-6.53893e-19 6.11013e-18 21.0012)
(-7.16416e-21 -6.72315e-19 29.0228)
(-1.92345e-20 -4.76077e-20 28.8135)
(-3.34306e-21 -2.05467e-19 -2.18242)
(3.06426e-19 -1.30729e-19 10.0395)
(-1.50117e-19 -6.12653e-19 12.9886)
(1.15119e-18 1.59671e-18 13.4349)
(-1.94078e-18 -7.35083e-18 13.0954)
(3.43611e-19 -1.01476e-18 12.4702)
(6.58274e-19 4.50523e-18 11.7793)
(-2.30842e-19 -2.28142e-18 11.1173)
(-1.57848e-19 -1.36238e-18 10.5133)
(-1.18758e-19 -1.46882e-18 9.97186)
(-1.2253e-19 -2.74936e-18 9.49009)
(-5.02586e-19 -1.78544e-17 9.06292)
(4.03454e-19 1.73583e-17 8.68473)
(-2.5984e-19 -1.69197e-17 8.35018)
(4.66122e-19 3.22275e-17 8.05451)
(-5.02659e-19 -3.76032e-17 7.79359)
(1.73875e-19 1.54378e-17 7.56381)
(-1.96306e-19 -1.9606e-17 7.36204)
(-1.68792e-19 -2.10695e-17 7.18544)
(2.38184e-19 3.34668e-17 7.03138)
(-1.22607e-20 -2.06285e-18 6.89735)
(-1.80859e-19 -3.62961e-17 6.78081)
(2.17081e-19 3.70348e-17 6.67907)
(7.03212e-21 3.34905e-17 6.58916)
(-2.45116e-19 -3.43553e-17 6.50765)
(1.14287e-19 -7.51993e-19 6.4304)
(3.74575e-20 -3.54896e-17 6.35232)
(-3.12478e-19 2.3867e-18 6.26692)
(7.35381e-19 7.0902e-17 6.16513)
(8.09847e-20 9.96145e-19 6.03316)
(-4.7643e-19 -3.56777e-17 5.85014)
(-1.58673e-18 -3.54648e-17 5.60895)
(-5.97867e-18 -1.06563e-16 5.39988)
(-1.65604e-17 -2.19771e-16 5.22691)
(-1.41995e-17 -1.56628e-16 5.04126)
(-1.59343e-17 -1.96763e-16 4.81322)
(2.79688e-17 -6.11218e-18 4.59114)
(4.06475e-17 1.33116e-16 4.5686)
(-2.5765e-17 -3.1304e-17 4.7739)
(-1.01184e-16 -9.15667e-17 5.13434)
(-1.4999e-16 -1.2303e-16 5.745)
(-1.49574e-16 -1.73384e-16 6.53893)
(-1.91419e-18 7.79345e-19 7.39889)
(-3.54722e-16 -3.38613e-16 8.26625)
(1.86543e-16 1.64327e-16 9.10626)
(-2.59591e-16 -1.43982e-16 9.89618)
(2.58737e-16 1.35121e-16 10.597)
(1.33837e-19 3.09693e-18 11.2225)
(-3.95877e-17 4.53193e-17 11.7721)
(1.82861e-16 1.65503e-16 12.2851)
(-2.35815e-16 -1.15471e-16 12.7006)
(2.42216e-17 8.11086e-18 13.0697)
(2.01597e-16 9.67117e-17 13.475)
(-4.04956e-17 -2.34267e-17 13.9048)
(1.26905e-16 1.36132e-16 14.4225)
(-2.34836e-20 1.71936e-18 15.0083)
(3.74202e-17 7.67235e-17 15.5966)
(-1.64952e-17 -4.82619e-17 15.9432)
(-2.35022e-18 -6.02868e-18 15.5855)
(-4.37999e-19 2.51388e-17 14.0925)
(-4.31508e-18 1.05138e-16 11.5891)
(-6.71723e-18 2.6104e-16 8.55273)
(-1.07023e-17 3.20195e-16 5.6846)
(-3.97652e-18 3.46451e-16 3.47052)
(-3.45281e-19 -4.53984e-17 1.93691)
(2.70681e-19 4.54004e-17 0.980557)
(1.07895e-20 -8.91875e-20 0.442832)
(-4.84743e-20 3.46981e-19 0.171106)
(2.22705e-19 7.51364e-16 0.0523908)
(-3.45628e-19 -3.73379e-16 0.00831573)
(-3.2571e-20 -4.59469e-17 -0.00428727)
(1.87377e-19 4.54089e-16 -0.0059493)
(1.97371e-20 3.11311e-16 -0.00526174)
(-1.18539e-20 3.9043e-16 -0.00323109)
(6.4355e-20 -9.69068e-20 -0.0014399)
(8.2088e-21 -2.04712e-17 -0.000469762)
(-8.43961e-20 -3.54572e-16 -0.000305211)
(-1.04474e-20 3.02285e-16 -0.000688657)
(2.43394e-21 1.8073e-17 -0.00138794)
(6.31673e-20 2.84448e-16 -0.00229206)
(-6.49687e-20 -2.70244e-16 -0.00325869)
(9.65045e-21 1.35437e-20 -0.0041811)
(6.72251e-23 -4.47612e-23 -0.00511621)
(-6.56948e-21 -4.81751e-21 -0.0060092)
(-5.05405e-20 -2.12833e-16 -0.00701804)
(8.28807e-22 6.10468e-18 -0.00809993)
(-1.24019e-21 -1.17676e-17 -0.009426)
(2.28404e-21 1.23199e-17 -0.0107656)
(-1.68965e-21 -1.17368e-17 -0.0114123)
(1.93676e-20 2.06764e-16 -0.00997616)
(2.11332e-21 -1.27732e-17 -0.00548665)
(-2.93453e-20 1.35627e-17 0.00441254)
(-2.07952e-19 2.29504e-16 0.0174826)
(4.381e-19 -2.59119e-16 0.0305998)
(-5.0017e-19 2.7291e-16 0.0393334)
(2.01759e-19 -2.70414e-16 0.043737)
(-6.06561e-19 2.73759e-16 0.036194)
(-7.6032e-20 3.04454e-16 0.020257)
(-5.34491e-19 -3.11538e-16 0.00626681)
(-8.16405e-19 -3.12964e-16 0.00690079)
(3.9028e-21 -4.16029e-19 0.0336618)
(1.62103e-18 3.37546e-16 0.0857966)
(-1.3741e-18 -3.46274e-16 0.192017)
(4.74789e-19 1.11746e-17 0.352018)
(6.81748e-19 -1.53067e-17 0.568201)
(-7.40888e-20 -2.23719e-18 0.834096)
(4.45631e-18 7.13591e-16 1.13388)
(1.07481e-17 7.30959e-16 1.47239)
(1.12889e-17 3.3957e-16 1.83827)
(1.29135e-17 3.03795e-16 2.23049)
(1.48718e-17 3.35865e-16 2.62415)
(-3.83027e-17 -6.22744e-16 2.99558)
(1.11359e-18 1.61581e-17 3.38513)
(-1.98582e-17 -2.95743e-16 3.75744)
(1.89773e-18 3.07239e-17 4.13961)
(-4.98441e-18 -1.27516e-16 4.50883)
(-6.33798e-19 -1.49443e-17 4.77698)
(-8.88485e-19 -5.93856e-17 4.75109)
(5.23562e-20 -8.2645e-18 4.30179)
(-5.51847e-20 8.69487e-18 3.44636)
(8.02034e-21 5.03247e-19 2.44236)
(-2.26502e-18 3.24705e-16 1.55628)
(3.48912e-19 9.57648e-18 0.89531)
(6.23414e-20 -3.23782e-17 0.459384)
(4.41341e-19 -3.26668e-16 0.204553)
(-3.22155e-19 3.51255e-16 0.0742331)
(3.97736e-19 3.51048e-16 0.0150403)
(2.66347e-19 7.00364e-16 -0.00587764)
(2.05816e-19 6.93702e-16 -0.0113157)
(5.79931e-20 2.99242e-16 -0.0110709)
(5.88623e-21 4.20193e-17 -0.00846368)
(8.2591e-20 3.28853e-16 -0.00524771)
(-3.46332e-20 -6.41264e-16 -0.00264272)
(2.20098e-20 7.78292e-17 -0.000863345)
(2.45808e-21 2.25658e-16 0.000116571)
(-4.52559e-21 -9.22235e-21 0.000363375)
(4.02645e-21 -1.83892e-21 0.000103975)
(2.54241e-20 -2.72981e-20 -0.000488698)
(-6.72455e-21 -6.33062e-17 -0.00126724)
(-2.74815e-20 -1.80522e-16 -0.00220317)
(-1.17772e-20 -5.70843e-17 -0.00320514)
(-4.68342e-22 -5.6114e-21 -0.00416577)
(3.76697e-20 1.02161e-16 -0.00516473)
(-2.44172e-20 -9.69844e-17 -0.00603741)
(3.37116e-20 1.4033e-16 -0.00677004)
(7.57494e-21 1.95818e-21 -0.00702726)
(5.32876e-21 4.63998e-17 -0.00605186)
(-2.53101e-20 -4.81016e-17 -0.00212354)
(8.84637e-22 1.01247e-16 0.00767084)
(-6.97875e-20 -1.77884e-20 0.0241807)
(2.94081e-20 1.8369e-20 0.047243)
(8.25145e-20 6.09929e-20 0.0759134)
(-1.69049e-19 -5.60896e-19 0.105595)
(-1.92067e-19 6.21064e-16 0.132569)
(7.47314e-20 1.4395e-16 0.147398)
(2.25763e-19 7.58932e-17 0.159461)
(-9.86881e-19 -7.83125e-17 0.175149)
(-8.02533e-18 -4.88089e-16 0.199569)
(3.85306e-18 1.67771e-16 0.245247)
(6.60796e-18 3.49023e-16 0.317463)
(-4.67599e-19 -5.48673e-19 0.42112)
(-5.52502e-18 -2.79763e-16 0.545623)
(2.74453e-18 9.7286e-17 0.684097)
(-9.50234e-19 -1.33051e-18 0.693627)
(-8.77302e-18 -3.69773e-16 0.79135)
(2.19605e-18 2.89039e-16 0.897996)
(-1.20835e-19 -6.35011e-19 0.989726)
(2.77755e-19 2.50715e-19 1.0647)
(-9.13684e-19 6.54305e-17 1.11846)
(-3.60671e-19 6.0442e-17 1.15713)
(-6.04003e-20 -5.63698e-17 1.19261)
(3.15344e-19 8.07248e-19 1.24177)
(2.92986e-19 -6.00387e-17 1.31613)
(-1.50545e-19 5.96646e-17 1.41882)
(4.98361e-20 2.8517e-18 1.54547)
(-1.99539e-19 5.76084e-17 1.69148)
(5.60436e-19 -2.17754e-18 1.85367)
(-2.90541e-19 -3.01959e-17 2.03007)
(-2.08527e-19 -2.51008e-17 2.2195)
(1.75159e-19 -2.53207e-17 2.42143)
(-5.07343e-19 2.64038e-17 2.63576)
(4.64919e-19 -5.67922e-19 2.86263)
(-2.66932e-19 2.5082e-17 3.10218)
(1.0722e-19 -2.67929e-17 3.35458)
(-7.86251e-20 -9.17654e-19 3.62014)
(4.36273e-19 -2.11822e-17 3.89954)
(-3.80297e-19 2.61973e-17 4.19417)
(4.29888e-19 -2.31073e-17 4.50667)
(-1.54217e-18 2.57339e-17 4.84152)
(1.38138e-18 -9.39277e-18 5.20616)
(-2.7809e-19 1.21576e-17 5.61263)
(-2.83647e-19 -8.89596e-19 6.08076)
(1.55626e-20 2.62034e-18 6.64393)
(-4.92446e-19 8.46015e-18 7.35952)
(1.38628e-19 -1.02007e-17 8.32593)
(-1.0282e-19 2.30917e-18 9.69959)
(-6.98245e-19 1.75235e-19 11.6508)
(1.01083e-18 -9.52672e-19 13.8706)
(3.48362e-19 5.4193e-19 12.9012)
(-4.07841e-19 -1.59165e-19 -3.61328)
(-5.23854e-20 1.20448e-19 -7.69388)
(-1.74105e-18 2.1946e-19 1.14328)
(8.78958e-19 -3.14034e-19 4.87835)
(5.0221e-19 5.46951e-20 6.67289)
(-9.91929e-19 -4.0293e-19 7.49256)
(1.56403e-18 2.33664e-18 7.82073)
(-1.62239e-18 -2.27568e-18 7.89638)
(2.37723e-19 1.17377e-18 7.84004)
(1.70063e-19 1.3564e-18 7.71497)
(6.24632e-19 3.12946e-18 7.55568)
(1.16922e-19 1.57208e-18 7.38212)
(4.76372e-19 3.69963e-18 7.20596)
(-8.89282e-19 -1.12013e-17 7.03392)
(1.9143e-18 2.51014e-17 6.86979)
(-6.98746e-19 -9.76273e-18 6.71564)
(6.09831e-19 1.42425e-17 6.57247)
(-3.335e-19 -7.84013e-18 6.4406)
(1.7615e-19 4.62104e-18 6.31994)
(6.8737e-19 2.80907e-17 6.21005)
(-6.123e-19 -2.41638e-17 6.11025)
(1.47898e-20 1.9846e-18 6.0196)
(-4.84241e-20 4.70246e-18 5.93692)
(-2.02419e-19 -2.68324e-17 5.8607)
(4.80067e-19 2.90171e-17 5.78907)
(2.07614e-19 2.6791e-17 5.71964)
(-2.02704e-20 -2.23731e-17 5.64939)
(-7.79952e-19 -2.67824e-17 5.57448)
(3.22776e-19 2.51882e-17 5.48989)
(2.06418e-19 -1.76622e-19 5.38834)
(2.40175e-19 3.05348e-21 5.26092)
(-4.49733e-19 -1.09537e-20 5.09292)
(2.48784e-19 6.36281e-19 4.82471)
(1.0876e-17 1.11299e-16 4.46949)
(2.20422e-17 1.35403e-16 4.01831)
(-3.2954e-17 -1.22589e-16 3.45401)
(1.91626e-17 9.81809e-19 2.79068)
(-6.08901e-17 -1.52162e-16 2.10228)
(2.13898e-17 2.46331e-17 1.54219)
(1.16841e-16 1.06013e-16 1.16083)
(-4.00608e-17 -9.90941e-18 0.969564)
(3.1757e-16 2.38606e-16 1.03614)
(1.25908e-18 7.961e-18 1.31347)
(-2.04427e-16 -1.05811e-16 1.72298)
(-2.16789e-16 -1.06727e-16 2.21864)
(2.78668e-17 8.51001e-18 2.75388)
(1.71981e-16 1.03846e-16 3.29442)
(-4.51952e-16 -2.16865e-16 3.80753)
(-2.114e-16 -9.11133e-17 4.30909)
(-7.03975e-17 -8.17277e-18 4.73643)
(-1.08707e-18 -2.52003e-18 5.14596)
(5.13773e-17 5.07153e-17 5.5258)
(-5.20392e-17 -1.90231e-17 5.85635)
(6.1435e-18 -2.65546e-17 6.2)
(3.12683e-18 -4.59793e-19 6.56598)
(1.66005e-16 4.58839e-17 7.02654)
(-6.19237e-17 -1.42997e-17 7.61954)
(-6.10721e-17 -2.29792e-17 8.38922)
(2.93364e-17 1.49606e-17 9.32078)
(2.27984e-18 6.49067e-18 10.263)
(1.92151e-19 4.77581e-20 10.8792)
(1.06898e-18 2.1479e-17 10.8199)
(2.23375e-18 -2.42468e-17 9.75121)
(3.05327e-18 -2.38898e-17 7.89449)
(1.37577e-17 -3.10892e-16 5.82063)
(-9.79671e-18 3.12297e-16 3.94048)
(8.65053e-18 -3.40854e-16 2.45254)
(-5.80901e-19 1.082e-18 1.40252)
(9.48144e-21 -3.82924e-19 0.73626)
(1.59362e-18 -7.39788e-16 0.35873)
(-4.90494e-19 7.37358e-16 0.164016)
(1.06292e-19 -4.26176e-19 0.0718893)
(-1.27862e-20 -3.14432e-16 0.0311001)
(3.40568e-21 -3.90796e-21 0.0144169)
(5.5025e-20 3.00548e-16 0.00811596)
(-5.43222e-21 -3.55191e-16 0.00558743)
(-4.71333e-20 -3.03465e-16 0.00403232)
(-3.72929e-21 6.45085e-16 0.00301282)
(2.03614e-20 -1.88474e-17 0.00207433)
(2.44232e-20 -1.80369e-17 0.00100982)
(-4.94375e-20 -5.23148e-16 -0.000152012)
(6.91856e-20 5.13835e-16 -0.00141628)
(-1.49131e-20 7.65601e-18 -0.00268112)
(1.52864e-20 -1.02084e-20 -0.00395751)
(-1.83252e-21 -6.82522e-18 -0.00514165)
(4.07403e-20 2.06811e-16 -0.00632951)
(4.09474e-22 -8.93368e-21 -0.00729791)
(-2.53276e-20 -4.72984e-17 -0.00793733)
(-1.15421e-22 -7.27043e-19 -0.00759973)
(-2.09855e-20 -3.53559e-17 -0.00496538)
(-7.10132e-20 -1.95288e-16 0.00140267)
(-6.30036e-21 -1.27502e-17 0.0140133)
(1.20282e-19 -4.33602e-16 0.0311941)
(1.88476e-19 -2.29268e-16 0.0503505)
(-6.72685e-19 4.85903e-16 0.0644009)
(-1.46441e-19 1.56733e-17 0.0670287)
(6.37375e-19 -2.84163e-16 0.0543479)
(5.34327e-19 -5.62441e-16 0.0265013)
(-1.8028e-19 -2.93466e-16 -0.00764032)
(2.7439e-19 -6.70549e-20 -0.0252886)
(1.57446e-18 3.14808e-16 -0.0061423)
(-1.56436e-21 4.16205e-19 0.0697691)
(-2.09592e-18 -3.35079e-16 0.219131)
(2.16489e-19 4.73518e-18 0.443863)
(3.47198e-18 3.39721e-16 0.730703)
(-2.10504e-18 -3.52536e-16 1.02661)
(8.52277e-20 1.72946e-18 1.30819)
(-1.51282e-17 -6.92409e-16 1.55371)
(-1.11804e-17 -3.51533e-16 1.75578)
(1.85645e-18 -1.76356e-17 1.91247)
(-1.6492e-17 -3.25622e-16 2.0341)
(-1.96361e-18 -4.11937e-18 2.13143)
(2.4286e-17 2.93798e-16 2.21328)
(2.81016e-20 1.5347e-18 2.3106)
(-2.24232e-17 -2.58215e-16 2.43247)
(1.31729e-18 1.45177e-17 2.60739)
(-8.96517e-20 2.48927e-21 2.86209)
(-2.40671e-20 1.23053e-19 3.19005)
(7.93926e-19 5.96862e-17 3.51821)
(-3.69598e-20 -1.32644e-19 3.7099)
(1.34128e-19 -8.43616e-18 3.58536)
(-2.38283e-19 1.78437e-17 3.10144)
(7.60236e-19 -9.84882e-18 2.39907)
(3.89421e-19 -2.65694e-19 1.68166)
(-2.97576e-20 -2.36508e-19 1.0679)
(1.41589e-18 -3.62285e-16 0.615149)
(-6.66966e-19 3.89557e-16 0.32121)
(2.79816e-19 -7.20482e-16 0.15264)
(2.72046e-20 -3.48245e-16 0.0654065)
(6.51931e-20 -2.18132e-17 0.0249008)
(-6.56501e-20 -3.18918e-16 0.00838141)
(4.05593e-20 4.17528e-17 0.00293253)
(-5.10841e-20 -3.26899e-16 0.00158779)
(-1.99993e-20 -7.96104e-17 0.00176504)
(7.78059e-21 4.5145e-21 0.00269522)
(-1.33785e-20 -3.73826e-17 0.00340024)
(-1.15033e-20 7.20609e-17 0.00369542)
(4.48407e-21 -2.76919e-16 0.00358109)
(-2.22443e-20 -5.30286e-16 0.00308349)
(1.74713e-22 2.61708e-20 0.00234155)
(3.63272e-20 2.39954e-16 0.00151196)
(6.20226e-20 2.84892e-16 0.000623499)
(-9.55465e-21 -5.3783e-17 -0.000136697)
(-3.45623e-20 -1.53467e-16 -0.000724744)
(-3.33538e-20 -9.73589e-17 -0.000771879)
(3.36163e-20 9.4062e-17 0.00014938)
(1.0331e-20 2.31472e-17 0.00301771)
(-6.70596e-21 3.68354e-20 0.00932424)
(-3.62665e-20 -1.45041e-16 0.0210024)
(-2.87061e-20 -1.01681e-16 0.0410679)
(1.15739e-19 -2.699e-16 0.0698482)
(-1.07855e-20 1.15147e-16 0.10148)
(5.48187e-20 -6.10759e-17 0.128792)
(3.67803e-19 -2.57247e-16 0.138917)
(-3.08476e-19 -5.46742e-16 0.125719)
(-8.315e-19 -2.87393e-16 0.0850801)
(-5.41397e-20 -1.97906e-19 0.0269963)
(-3.908e-18 -3.09247e-16 -0.0307123)
(1.51042e-17 8.85986e-16 -0.0639926)
(2.87456e-18 8.26681e-17 -0.049764)
(-3.66368e-19 -1.47208e-19 0.0238146)
(1.13814e-17 3.49866e-16 0.158915)
(-7.4391e-19 -1.1562e-18 0.343942)
(9.80158e-20 5.2068e-19 0.578951)
(7.49782e-18 2.31596e-16 0.741334)
(6.65275e-18 3.64878e-16 0.922672)
(-1.17066e-19 -7.50834e-19 1.07487)
(-2.74091e-19 -4.35244e-19 1.17651)
(-1.47527e-18 -1.26807e-16 1.23463)
(1.09271e-18 1.24739e-16 1.25157)
(-3.3767e-19 -6.60622e-19 1.2408)
(-2.00721e-19 -4.27772e-18 1.22366)
(3.6519e-19 -5.80763e-17 1.21644)
(-3.87571e-19 2.06298e-18 1.22812)
(9.76404e-19 -3.52773e-18 1.26348)
(-5.32761e-19 -5.71263e-18 1.32243)
(7.40804e-19 -5.47362e-17 1.40297)
(9.34198e-19 -1.47865e-18 1.50262)
(-1.58008e-18 5.53751e-17 1.61898)
(4.975e-20 -1.86912e-18 1.75)
(-1.01731e-18 2.49944e-17 1.89411)
(3.30331e-19 -2.71543e-17 2.05021)
(5.88613e-19 2.03741e-18 2.21773)
(-1.13698e-19 3.93145e-21 2.39661)
(-7.89684e-21 1.61186e-18 2.58728)
(-1.05664e-19 1.91666e-18 2.79067)
(-1.85581e-19 -2.27133e-17 3.00825)
(3.44634e-19 2.02729e-17 3.24218)
(-2.32292e-19 -1.93854e-17 3.49551)
(-5.35883e-19 3.81145e-17 3.77274)
(6.91552e-19 -3.16737e-17 4.08081)
(3.0603e-19 1.11871e-17 4.43099)
(3.46323e-20 2.61737e-18 4.84214)
(1.90581e-19 -1.37031e-18 5.3462)
(8.76444e-19 3.7618e-19 5.99532)
(-5.28652e-19 2.32981e-18 6.86437)
(-1.2582e-19 -1.15188e-18 8.01497)
(7.87871e-20 2.55255e-19 9.28986)
(-6.95201e-19 1.44862e-19 9.52901)
(1.58504e-18 -5.98174e-19 4.50228)
(1.89201e-18 8.9394e-19 -12.8045)
(-9.23204e-19 1.99447e-19 -7.10833)
(4.43011e-20 -9.09041e-20 -1.75462)
(-1.27162e-19 5.41455e-20 1.15061)
(-1.50807e-18 4.12029e-19 2.8261)
(1.31938e-18 -4.2339e-19 3.8699)
(2.16099e-18 6.15855e-19 4.49846)
(-2.06882e-18 -4.62654e-19 4.88431)
(9.13822e-19 2.94368e-19 5.11997)
(-7.11847e-21 3.37829e-20 5.25898)
(-5.98665e-19 -1.66288e-18 5.3342)
(6.11914e-20 -1.30787e-20 5.36686)
(1.57018e-19 -9.11812e-19 5.37119)
(-2.0492e-20 6.96324e-21 5.35678)
(-2.87154e-19 -2.33654e-18 5.3302)
(5.54263e-21 -4.947e-21 5.29598)
(-4.64177e-21 1.28054e-21 5.25722)
(-1.82876e-19 -2.63577e-18 5.21602)
(-9.04445e-19 -1.163e-17 5.17369)
(2.0679e-18 2.7223e-17 5.13099)
(-1.31236e-18 -1.82713e-17 5.08817)
(-4.80039e-20 8.08654e-20 5.04505)
(7.81069e-19 1.62708e-17 5.00103)
(-8.88171e-19 -1.92049e-17 4.95503)
(-9.39993e-21 -1.95607e-18 4.90551)
(1.73582e-19 -1.57225e-19 4.85033)
(-6.62648e-19 -2.03524e-17 4.78666)
(5.49858e-19 1.97473e-17 4.71079)
(1.96999e-19 6.68883e-20 4.6179)
(1.1105e-18 1.98284e-17 4.50118)
(-1.23236e-18 -1.99678e-17 4.3527)
(2.03586e-18 2.04022e-17 4.15844)
(-5.02725e-18 -3.90576e-17 3.85477)
(-1.02222e-17 -6.81002e-17 3.42617)
(-4.84227e-18 -2.66105e-17 2.86133)
(-6.22612e-18 2.20068e-17 2.17016)
(6.34183e-18 -1.99669e-17 1.40186)
(-4.61824e-17 -5.76874e-17 0.646041)
(4.58314e-18 -4.14424e-19 0.0342271)
(4.06703e-17 6.55354e-18 -0.391663)
(-6.9444e-17 -3.63678e-17 -0.613713)
(4.48851e-17 1.08869e-17 -0.606958)
(-4.41739e-17 -2.90713e-17 -0.416354)
(4.18183e-16 2.11933e-16 -0.104381)
(1.65178e-16 8.82491e-17 0.289945)
(5.75972e-17 2.76503e-17 0.740878)
(-5.9182e-20 2.20234e-19 1.20501)
(9.86417e-19 7.54677e-18 1.63318)
(4.9557e-16 2.00795e-16 2.04479)
(2.11388e-16 9.2908e-17 2.42354)
(2.98234e-17 8.26415e-18 2.72316)
(4.44061e-16 1.54098e-16 2.98811)
(-1.67144e-19 7.46847e-18 3.21363)
(-2.14212e-16 -6.70159e-17 3.4258)
(1.85839e-18 -1.49165e-18 3.64759)
(1.77309e-17 -8.28181e-18 3.92524)
(7.88283e-17 2.02771e-17 4.30426)
(3.68443e-17 1.45641e-17 4.84566)
(-5.07106e-17 -1.90449e-17 5.59757)
(9.36338e-18 3.87501e-18 6.56637)
(3.82359e-18 9.74625e-18 7.63295)
(-1.70353e-17 -3.41648e-17 8.55518)
(-1.56899e-18 -1.63094e-17 8.92395)
(1.06943e-17 -2.52108e-16 8.41981)
(-1.4551e-17 3.02536e-16 7.22926)
(2.24637e-17 -5.38064e-16 5.71326)
(4.99435e-18 -4.35847e-17 4.19384)
(-1.08523e-17 3.72363e-16 2.8402)
(-4.48062e-19 4.47528e-17 1.78928)
(-1.74001e-18 3.65274e-16 1.05179)
(1.1733e-18 -4.54945e-16 0.579223)
(1.12916e-18 -3.13316e-16 0.304325)
(-5.84185e-20 1.01904e-19 0.156741)
(3.3732e-20 -3.48407e-16 0.0832134)
(2.88013e-20 -2.9768e-16 0.0460629)
(-6.5756e-20 -4.11963e-17 0.0274545)
(-1.21943e-19 6.42078e-16 0.0178945)
(7.11861e-20 -3.49181e-16 0.0125487)
(-6.26169e-21 3.72574e-17 0.00901355)
(-4.8586e-22 -2.85586e-16 0.006375)
(-1.01452e-20 2.73095e-16 0.0041816)
(1.63422e-20 -2.59942e-16 0.00220063)
(6.99868e-20 2.45291e-16 0.000381525)
(-8.93945e-20 -2.32455e-16 -0.00130752)
(-1.52028e-20 2.54676e-20 -0.00276993)
(3.92393e-21 -6.4803e-18 -0.00399264)
(-4.16951e-21 -6.1443e-18 -0.00457074)
(3.04526e-20 5.93997e-17 -0.00406436)
(1.72411e-22 -2.50759e-21 -0.00152174)
(3.61883e-20 5.9203e-17 0.00497617)
(5.18345e-20 9.79757e-17 0.0167554)
(-1.35277e-20 -2.5645e-17 0.0349428)
(-7.58358e-21 2.43827e-16 0.0562397)
(-2.7235e-19 2.14013e-16 0.0756842)
(3.01977e-19 -2.4205e-16 0.083837)
(-9.334e-20 -7.88768e-19 0.0786561)
(-3.35589e-19 2.49784e-16 0.0566971)
(-1.43076e-19 2.79532e-16 0.0266678)
(1.32558e-19 1.82629e-17 0.00447813)
(1.30761e-18 2.96782e-16 0.0187331)
(-4.34525e-18 -6.19262e-16 0.0943949)
(2.76843e-21 -3.8875e-19 0.250302)
(1.788e-19 1.93077e-19 0.493365)
(1.0923e-21 5.55939e-19 0.784719)
(-4.21992e-18 -3.31953e-16 1.0976)
(1.51601e-19 -2.11731e-17 1.38853)
(2.24268e-19 1.04768e-17 1.62763)
(-1.94548e-18 1.73984e-17 1.7973)
(-1.35509e-17 -3.10335e-16 1.89241)
(-1.53589e-17 -3.19343e-16 1.92334)
(5.55952e-19 -8.1131e-19 1.91014)
(0 -0 1.87453)
(-6.77028e-19 -4.56111e-19 1.83499)
(-5.22248e-19 -5.1881e-19 1.80709)
(1.17829e-17 1.27043e-16 1.80973)
(9.66459e-18 1.1073e-16 1.8664)
(1.54998e-20 8.2484e-20 1.9952)
(3.93378e-19 6.49846e-18 2.22208)
(1.64986e-19 -2.45152e-20 2.54199)
(1.91366e-20 -4.99732e-21 2.90061)
(-3.49839e-20 1.41183e-20 3.15607)
(4.25268e-19 -2.06658e-19 3.14488)
(-1.73978e-19 8.95126e-18 2.82795)
(4.37586e-18 -3.00151e-16 2.30578)
(1.5586e-19 -9.46895e-18 1.72033)
(-2.08122e-18 3.40234e-16 1.17934)
(1.21366e-18 -3.66844e-16 0.745829)
(-6.95127e-19 3.69055e-16 0.436328)
(-8.56101e-20 -1.44068e-19 0.23672)
(4.28336e-20 -3.42991e-16 0.122137)
(6.52146e-20 2.9596e-16 0.0630237)
(6.67838e-20 -2.48951e-16 0.0341382)
(-6.53857e-20 3.24841e-16 0.0207762)
(6.51392e-20 -3.958e-17 0.0146313)
(-1.28992e-20 -3.83857e-17 0.011828)
(-4.40797e-20 3.71222e-17 0.010511)
(-5.07839e-20 2.14869e-16 0.00990913)
(2.22413e-20 6.88984e-17 0.00942564)
(-1.54199e-20 2.63822e-16 0.00881632)
(-8.81935e-21 6.27642e-17 0.00806842)
(-4.81088e-22 -2.98942e-16 0.00732664)
(-7.38242e-20 -4.54932e-16 0.00667707)
(-6.45807e-20 -2.68836e-16 0.00635081)
(1.96696e-20 5.12383e-17 0.00658489)
(1.96005e-20 4.88261e-17 0.00793099)
(-2.55556e-20 -4.73024e-17 0.0112609)
(1.18371e-20 2.32875e-17 0.0182966)
(2.94993e-21 1.58389e-20 0.0304115)
(7.33089e-20 1.94407e-16 0.0502306)
(1.91642e-20 -3.52606e-20 0.078372)
(-2.655e-20 2.70431e-16 0.111359)
(-4.55898e-19 1.71711e-16 0.140222)
(1.42421e-20 -3.47641e-20 0.153039)
(-7.97562e-20 1.93004e-16 0.138565)
(3.23055e-19 3.39359e-16 0.0911786)
(-3.10498e-19 -2.10666e-16 0.0168368)
(2.07314e-18 2.19698e-16 -0.0658931)
(5.31657e-18 3.82831e-16 -0.12981)
(-7.60386e-18 -3.97566e-16 -0.145926)
(-8.27103e-18 -3.28123e-16 -0.0919558)
(1.34896e-17 4.17859e-16 0.0378638)
(-1.30469e-17 -4.27231e-16 0.233109)
(1.26076e-17 3.50672e-16 0.474098)
(2.04086e-18 8.80369e-17 0.752058)
(-9.56238e-18 -3.79146e-16 0.946063)
(9.13808e-19 1.73955e-18 1.13066)
(6.38049e-18 2.69403e-16 1.26705)
(9.24116e-19 6.48014e-17 1.34467)
(1.53372e-19 1.25939e-16 1.37729)
(3.64341e-20 -1.19883e-16 1.36976)
(-3.08157e-19 5.82614e-17 1.33483)
(3.05184e-19 -5.74722e-17 1.28988)
(-6.63808e-19 2.15107e-19 1.24763)
(3.41967e-19 -3.83128e-18 1.21731)
(1.09859e-18 -5.08793e-17 1.2053)
(-1.12733e-18 5.90355e-17 1.21407)
(-2.25832e-18 5.21021e-17 1.2438)
(4.07902e-19 -4.64752e-17 1.29322)
(7.57983e-19 2.55944e-17 1.36028)
(7.07478e-19 -2.57096e-17 1.44264)
(-3.00989e-20 8.64514e-19 1.53814)
(-1.23187e-18 2.62468e-17 1.64511)
(1.46713e-18 -2.3442e-17 1.76261)
(-1.76203e-18 2.49215e-17 1.89062)
(4.06678e-19 -2.29423e-17 2.03002)
(1.04907e-18 -2.0775e-18 2.18253)
(-1.24691e-18 2.52829e-18 2.35061)
(5.95778e-19 -8.6674e-20 2.53732)
(-1.88984e-18 1.00125e-19 2.7465)
(3.16381e-18 2.14534e-18 2.98317)
(-2.17011e-18 -1.35619e-19 3.25478)
(2.8101e-19 -2.99114e-19 3.57339)
(6.05293e-19 -3.71274e-18 3.95917)
(-1.26065e-18 2.86461e-19 4.44467)
(1.17743e-18 -7.84952e-19 5.07537)
(2.04933e-18 -4.32301e-18 5.89002)
(-1.40682e-18 2.97689e-18 6.82913)
(5.23864e-19 -4.02489e-19 7.44503)
(-3.53354e-19 2.95413e-20 6.22001)
(-5.12054e-19 4.10806e-19 -0.305987)
(-1.83072e-18 -4.41998e-19 -14.1804)
(7.04825e-19 -5.2771e-20 -6.00487)
(-1.65777e-18 5.02714e-19 -2.67281)
(-1.79715e-18 3.30959e-19 -0.490402)
(3.36206e-18 -8.79929e-19 0.865397)
(-5.98043e-18 1.59342e-18 1.7698)
(2.74346e-18 -9.22917e-19 2.41475)
(6.7275e-20 1.01863e-19 2.8641)
(-9.73308e-19 -3.60218e-19 3.18945)
(-5.77465e-23 5.23544e-20 3.42995)
(-3.95098e-18 -2.36368e-18 3.61001)
(3.1114e-18 2.01268e-18 3.74582)
(-5.83576e-19 -1.04677e-18 3.84868)
(-2.13973e-18 -3.9293e-18 3.92665)
(1.6368e-18 3.08857e-18 3.98556)