/*--------------------------------*- C++ -*----------------------------------*\
| =========                 |                                                 |
| \\      /  F ield         | OpenFOAM: The Open Source CFD Toolbox           |
|  \\    /   O peration     | Version:  2506                                  |
|   \\  /    A nd           | Website:  www.openfoam.com                      |
|    \\/     M anipulation  |                                                 |
\*---------------------------------------------------------------------------*/
FoamFile
{
    version     2.0;
    format      ascii;
    arch        "LSB;label=32;scalar=64";
    class       surfaceScalarField;
    location    "4.9";
    object      phi;
}
// * * * * * * * * * * * * * * * * * * * * * * * * * * * * * * * * * * * * * //

dimensions      [0 3 -1 0 0 0 0];

oriented        oriented;

internalField   nonuniform List<scalar> 
7780
(
2.05869e-09
4.41314e-10
1.55971e-09
4.98978e-10
1.20068e-09
3.59026e-10
9.60959e-10
2.39723e-10
8.04086e-10
1.56873e-10
7.00115e-10
1.03971e-10
6.29287e-10
7.08279e-11
5.79263e-10
5.00241e-11
5.42576e-10
3.6687e-11
5.14656e-10
2.79199e-11
4.92697e-10
2.19586e-11
4.74909e-10
1.77882e-11
4.60085e-10
1.48234e-11
4.47398e-10
1.26877e-11
4.36255e-10
1.1143e-11
4.26215e-10
1.00395e-11
4.16943e-10
9.27258e-12
4.08175e-10
8.76765e-12
3.997e-10
8.47527e-12
3.91339e-10
8.36082e-12
3.82939e-10
8.3997e-12
3.74363e-10
8.57603e-12
3.65483e-10
8.88021e-12
3.56176e-10
9.30704e-12
3.46321e-10
9.85514e-12
3.35794e-10
1.05271e-11
3.24463e-10
1.13304e-11
3.12184e-10
1.22795e-11
2.98782e-10
1.34017e-11
2.84031e-10
1.47514e-11
2.6758e-10
1.64501e-11
2.48809e-10
1.87716e-11
2.2673e-10
2.20786e-11
1.95543e-10
3.11875e-11
1.70646e-10
2.4897e-11
1.66471e-10
4.17463e-12
1.74279e-10
-7.80837e-12
1.87781e-10
-1.35015e-11
2.07396e-10
-1.96147e-11
2.35771e-10
-2.83749e-11
2.8354e-10
-4.7769e-11
3.38455e-10
-5.49155e-11
3.88994e-10
-5.05391e-11
4.3608e-10
-4.70862e-11
4.77918e-10
-4.18381e-11
5.1592e-10
-3.80022e-11
5.52031e-10
-3.61104e-11
5.81472e-10
-2.94411e-11
6.08866e-10
-2.73938e-11
6.32082e-10
-2.32161e-11
6.49693e-10
-1.76114e-11
6.64653e-10
-1.496e-11
6.70746e-10
-6.09251e-12
6.74017e-10
-3.27062e-12
6.66448e-10
7.56875e-12
6.53028e-10
1.34201e-11
6.31402e-10
2.16256e-11
5.99884e-10
3.15183e-11
5.66544e-10
3.33398e-11
5.20365e-10
4.61785e-11
4.75864e-10
4.45015e-11
4.27951e-10
4.79133e-11
3.80248e-10
4.77031e-11
3.36174e-10
4.40736e-11
2.9271e-10
4.34642e-11
2.55706e-10
3.70034e-11
2.20295e-10
3.54117e-11
1.90774e-10
2.95205e-11
1.6385e-10
2.69245e-11
1.40748e-10
2.31019e-11
1.20907e-10
1.98409e-11
1.0278e-10
1.81275e-11
8.75767e-11
1.52031e-11
7.39497e-11
1.36272e-11
6.17416e-11
1.22084e-11
5.11168e-11
1.06251e-11
4.15264e-11
9.59082e-12
3.27662e-11
8.76059e-12
2.49159e-11
7.85076e-12
1.77356e-11
7.18071e-12
1.10822e-11
6.65391e-12
4.93027e-12
6.15246e-12
-8.17418e-13
5.74827e-12
-6.1931e-12
5.37635e-12
-1.11868e-11
4.9945e-12
-1.58575e-11
4.67153e-12
-2.01594e-11
4.30297e-12
-2.40186e-11
3.86019e-12
-2.74693e-11
3.4518e-12
-3.04355e-11
2.96718e-12
-3.28941e-11
2.45949e-12
-3.48365e-11
1.94318e-12
-3.61765e-11
1.3406e-12
-3.7058e-11
8.81949e-13
-3.73866e-11
3.28985e-13
-3.72441e-11
-1.42233e-13
-3.6469e-11
-7.7486e-13
-3.52636e-11
-1.20521e-12
-3.34823e-11
-1.78117e-12
-3.1155e-11
-2.32709e-12
-2.81701e-11
-2.98478e-12
-2.44988e-11
-3.67113e-12
-2.0077e-11
-4.42162e-12
-1.48604e-11
-5.21641e-12
-8.66975e-12
-6.19043e-12
-1.60348e-12
-7.06604e-12
6.67533e-12
-8.27857e-12
1.60005e-11
-9.32487e-12
2.66148e-11
-1.0614e-11
3.84808e-11
-1.18658e-11
5.1707e-11
-1.32261e-11
6.61745e-11
-1.44675e-11
8.21747e-11
-1.60006e-11
9.89768e-11
-1.68029e-11
1.17585e-10
-1.86094e-11
1.36854e-10
-1.92719e-11
1.57031e-10
-2.01797e-11
1.78246e-10
-2.12191e-11
1.99671e-10
-2.14277e-11
2.21416e-10
-2.17472e-11
2.43553e-10
-2.21363e-11
2.65373e-10
-2.18146e-11
2.86711e-10
-2.13261e-11
3.07858e-10
-2.113e-11
3.28258e-10
-2.03774e-11
3.47929e-10
-1.9648e-11
3.66828e-10
-1.88801e-11
3.84749e-10
-1.7912e-11
4.01972e-10
-1.7229e-11
4.1897e-10
-1.70236e-11
4.34479e-10
-1.55502e-11
4.4963e-10
-1.52013e-11
4.65399e-10
-1.5818e-11
4.79552e-10
-1.41867e-11
4.93784e-10
-1.42422e-11
5.09682e-10
-1.58828e-11
5.22207e-10
-1.24906e-11
5.36854e-10
-1.46049e-11
5.49215e-10
-1.23232e-11
5.60815e-10
-1.15771e-11
5.70175e-10
-9.3526e-12
5.76107e-10
-5.93672e-12
5.77207e-10
-1.1101e-12
5.74335e-10
2.86269e-12
5.6109e-10
1.32378e-11
5.45653e-10
1.54336e-11
5.16309e-10
2.9343e-11
4.84012e-10
3.22968e-11
4.45087e-10
3.89245e-11
4.00618e-10
4.44691e-11
3.56927e-10
4.36913e-11
3.08461e-10
4.84659e-11
2.64982e-10
4.34789e-11
2.20607e-10
4.4375e-11
1.8204e-10
3.85676e-11
1.44817e-10
3.72224e-11
1.13025e-10
3.17927e-11
8.3851e-11
2.91735e-11
5.93339e-11
2.45171e-11
3.87264e-11
2.06074e-11
3.79956e-11
7.30737e-13
3.94371e-11
-1.4415e-12
4.34799e-11
-4.04285e-12
5.06221e-11
-7.14221e-12
6.36077e-11
-1.29855e-11
8.25243e-11
-1.89166e-11
1.12007e-10
-2.9483e-11
1.43146e-10
-3.11385e-11
1.71427e-10
-2.82811e-11
1.97392e-10
-2.59651e-11
2.21125e-10
-2.37329e-11
2.42596e-10
-2.1471e-11
2.61806e-10
-1.92102e-11
2.78814e-10
-1.70074e-11
2.93715e-10
-1.49014e-11
3.06634e-10
-1.29186e-11
3.17711e-10
-1.10777e-11
3.27101e-10
-9.38981e-12
3.34961e-10
-7.85944e-12
3.41446e-10
-6.48502e-12
3.46707e-10
-5.26078e-12
3.50885e-10
-4.17844e-12
3.54113e-10
-3.22843e-12
3.56513e-10
-2.39988e-12
3.58194e-10
-1.68082e-12
3.59257e-10
-1.06261e-12
3.59794e-10
-5.37672e-13
3.5986e-10
-6.59359e-14
3.59557e-10
3.03614e-13
3.58938e-10
6.1844e-13
3.58063e-10
8.75413e-13
3.56986e-10
1.07644e-12
3.55762e-10
1.22497e-12
3.54436e-10
1.32546e-12
3.53051e-10
1.38516e-12
3.51633e-10
1.41816e-12
3.50182e-10
1.4508e-12
3.4865e-10
1.53228e-12
3.46804e-10
1.84613e-12
3.00717e-12
2.64883e-09
2.92486e-10
2.59885e-09
5.48956e-10
2.42098e-09
5.36893e-10
2.20571e-09
4.55e-10
2.00036e-09
3.62224e-10
1.82787e-09
2.76453e-10
1.68954e-09
2.09166e-10
1.57995e-09
1.5961e-10
1.49306e-09
1.23576e-10
1.42349e-09
9.74871e-11
1.36702e-09
7.843e-11
1.32041e-09
6.44052e-11
1.28118e-09
5.40455e-11
1.24753e-09
4.63433e-11
1.21805e-09
4.06168e-11
1.19168e-09
3.64093e-11
1.16757e-09
3.33849e-11
1.14504e-09
3.1298e-11
1.12354e-09
2.99799e-11
1.10259e-09
2.93096e-11
1.08179e-09
2.91996e-11
1.06077e-09
2.95923e-11
1.0392e-09
3.04523e-11
1.01675e-09
3.17599e-11
9.93092e-10
3.35099e-11
9.67909e-10
3.57107e-11
9.40852e-10
3.83867e-11
9.11549e-10
4.15824e-11
8.79576e-10
4.53754e-11
8.44424e-10
4.9903e-11
8.0545e-10
5.54237e-11
7.61778e-10
6.24445e-11
7.11979e-10
7.18775e-11
6.51372e-10
9.17947e-11
6.01472e-10
7.47963e-11
5.85903e-10
1.9744e-11
5.97088e-10
-1.89938e-11
6.26764e-10
-4.31777e-11
6.74055e-10
-6.69049e-11
7.41729e-10
-9.60492e-11
8.37015e-10
-1.43055e-10
9.4225e-10
-1.6015e-10
1.04428e-09
-1.52574e-10
1.14102e-09
-1.43817e-10
1.22947e-09
-1.30293e-10
1.31092e-09
-1.19453e-10
1.38682e-09
-1.12011e-10
1.45271e-09
-9.5331e-11
1.51289e-09
-8.75681e-11
1.5649e-09
-7.52337e-11
1.60737e-09
-6.00767e-11
1.64205e-09
-4.96469e-11
1.66294e-09
-2.6979e-11
1.67443e-09
-1.47607e-11
1.66963e-09
1.23742e-11
1.65181e-09
3.12391e-11
1.61806e-09
5.5372e-11
1.56681e-09
8.27729e-11
1.50482e-09
9.5324e-11
1.42287e-09
1.2813e-10
1.33482e-09
1.32557e-10
1.23788e-09
1.44844e-10
1.13716e-09
1.4843e-10
1.03755e-09
1.43682e-10
9.38099e-10
1.42915e-10
8.45971e-10
1.29131e-10
7.57759e-10
1.23624e-10
6.78465e-10
1.08815e-10
6.0545e-10
9.99391e-11
5.3995e-10
8.86022e-11
4.81652e-10
7.81381e-11
4.28396e-10
7.13839e-11
3.81409e-10
6.21895e-11
3.39039e-10
5.59971e-11
3.00633e-10
5.06146e-11
2.66244e-10
4.50144e-11
2.3502e-10
4.08143e-11
2.06411e-10
3.73694e-11
1.80353e-10
3.39092e-11
1.56469e-10
3.10644e-11
1.3439e-10
2.87327e-11
1.1398e-10
2.65623e-11
9.50303e-11
2.46976e-11
7.74044e-11
2.30021e-11
6.10952e-11
2.13037e-11
4.5957e-11
1.98099e-11
3.19926e-11
1.82677e-11
1.94294e-11
1.64238e-11
8.16731e-12
1.47145e-11
-1.72435e-12
1.28595e-11
-9.98307e-12
1.07189e-11
-1.67394e-11
8.70012e-12
-2.19741e-11
6.5758e-12
-2.5419e-11
4.3274e-12
-2.73637e-11
2.27411e-12
-2.75991e-11
9.35229e-14
-2.61892e-11
-2.18447e-12
-2.28301e-11
-4.56395e-12
-1.78487e-11
-6.76235e-12
-1.07121e-11
-9.46343e-12
-1.75606e-12
-1.19406e-11
9.54223e-12
-1.49692e-11
2.31274e-11
-1.80066e-11
3.91461e-11
-2.12348e-11
5.81068e-11
-2.51509e-11
7.9634e-11
-2.8593e-11
1.0448e-10
-3.31242e-11
1.32219e-10
-3.70632e-11
1.63201e-10
-4.15958e-11
1.97295e-10
-4.59594e-11
2.34483e-10
-5.04142e-11
2.74526e-10
-5.45093e-11
3.17494e-10
-5.89681e-11
3.62453e-10
-6.17607e-11
4.10211e-10
-6.6367e-11
4.59248e-10
-6.83081e-11
5.0961e-10
-7.05424e-11
5.61114e-10
-7.27258e-11
6.12649e-10
-7.29678e-11
6.64137e-10
-7.32431e-11
7.1541e-10
-7.34207e-11
7.65519e-10
-7.19356e-11
8.14262e-10
-7.00809e-11
8.61797e-10
-6.86738e-11
9.07504e-10
-6.60864e-11
9.51413e-10
-6.3549e-11
9.93489e-10
-6.0937e-11
1.03363e-09
-5.80259e-11
1.0723e-09
-5.58617e-11
1.10995e-09
-5.46467e-11
1.14544e-09
-5.10167e-11
1.1802e-09
-4.99626e-11
1.21537e-09
-5.10023e-11
1.24827e-09
-4.71204e-11
1.28151e-09
-4.75276e-11
1.31583e-09
-5.02316e-11
1.34664e-09
-4.33249e-11
1.37853e-09
-4.64958e-11
1.40727e-09
-4.10439e-11
1.43331e-09
-3.75992e-11
1.45484e-09
-3.08685e-11
1.46936e-09
-2.04449e-11
1.47512e-09
-6.8664e-12
1.4706e-09
7.38673e-12
1.45136e-09
3.24747e-11
1.42144e-09
4.53495e-11
1.37095e-09
7.98327e-11
1.30886e-09
9.43788e-11
1.23267e-09
1.15112e-10
1.14383e-09
1.33313e-10
1.04971e-09
1.37814e-10
9.45945e-10
1.52228e-10
8.44074e-10
1.45351e-10
7.39651e-10
1.48797e-10
6.41362e-10
1.36857e-10
5.45514e-10
1.33071e-10
4.57822e-10
1.19485e-10
3.76484e-10
1.10511e-10
3.06103e-10
9.48985e-11
2.47222e-10
7.94886e-11
2.27714e-10
2.02389e-11
2.23873e-10
2.39939e-12
2.31667e-10
-1.18374e-11
2.50609e-10
-2.60841e-11
2.84992e-10
-4.73678e-11
3.34408e-10
-6.83325e-11
4.02058e-10
-9.71338e-11
4.7286e-10
-1.0194e-10
5.3926e-10
-9.46805e-11
6.01007e-10
-8.77119e-11
6.57972e-10
-8.06982e-11
7.10042e-10
-7.3541e-11
7.57181e-10
-6.63496e-11
7.99463e-10
-5.92887e-11
8.37044e-10
-5.24829e-11
8.70144e-10
-4.60188e-11
8.99024e-10
-3.99573e-11
9.23972e-10
-3.43383e-11
9.45294e-10
-2.91814e-11
9.63299e-10
-2.44892e-11
9.78289e-10
-2.02514e-11
9.90561e-10
-1.64501e-11
1.00039e-09
-1.30625e-11
1.00806e-09
-1.00627e-11
1.0138e-09
-7.42224e-12
1.01785e-09
-5.11328e-12
1.02042e-09
-3.1081e-12
1.02173e-09
-1.37697e-12
1.02194e-09
9.81141e-14
1.02125e-09
1.3085e-12
1.01982e-09
2.30341e-12
1.01782e-09
3.07721e-12
1.0154e-09
3.6412e-12
1.01272e-09
4.00862e-12
1.0099e-09
4.19935e-12
1.00708e-09
4.24658e-12
1.00432e-09
4.20593e-12
1.00168e-09
4.17565e-12
9.99151e-10
4.3732e-12
5.45232e-12
2.61924e-09
1.73242e-10
2.75222e-09
4.15979e-10
2.78973e-09
4.99379e-10
2.74813e-09
4.96608e-10
2.66019e-09
4.50161e-10
2.5499e-09
3.86744e-10
2.43626e-09
3.22807e-10
2.33094e-09
2.64928e-10
2.23762e-09
2.16889e-10
2.15663e-09
1.78483e-10
2.08702e-09
1.48035e-10
2.02717e-09
1.24257e-10
1.97533e-09
1.05884e-10
1.92998e-09
9.16999e-11
1.88977e-09
8.08286e-11
1.85354e-09
7.26322e-11
1.82034e-09
6.65876e-11
1.78934e-09
6.22938e-11
1.75985e-09
5.94726e-11
1.73125e-09
5.7911e-11
1.703e-09
5.74532e-11
1.67459e-09
5.79962e-11
1.64557e-09
5.94763e-11
1.61547e-09
6.18588e-11
1.58384e-09
6.5136e-11
1.55023e-09
6.93267e-11
1.51414e-09
7.44779e-11
1.47505e-09
8.06709e-11
1.43239e-09
8.80362e-11
1.38551e-09
9.67835e-11
1.33367e-09
1.07262e-10
1.27603e-09
1.2008e-10
1.2116e-09
1.36315e-10
1.13705e-09
1.66339e-10
1.07333e-09
1.38521e-10
1.0461e-09
4.69656e-11
1.05282e-09
-2.57122e-11
1.08734e-09
-7.7694e-11
1.14792e-09
-1.27483e-10
1.23437e-09
-1.82506e-10
1.34808e-09
-2.56759e-10
1.47162e-09
-2.83691e-10
1.59462e-09
-2.75571e-10
1.71265e-09
-2.61852e-10
1.82206e-09
-2.39697e-10
1.92333e-09
-2.20728e-10
2.01723e-09
-2.05915e-10
2.10073e-09
-1.78827e-10
2.17669e-09
-1.63528e-10
2.24333e-09
-1.41872e-10
2.29946e-09
-1.16206e-10
2.34566e-09
-9.58499e-11
2.3784e-09
-5.97206e-11
2.39945e-09
-3.58054e-11
2.40426e-09
7.5603e-12
2.39408e-09
4.14155e-11
2.36667e-09
8.27872e-11
2.32026e-09
1.29179e-10
2.2588e-09
1.56785e-10
2.17578e-09
2.11152e-10
2.0804e-09
2.27941e-10
1.97119e-09
2.54047e-10
1.85275e-09
2.66876e-10
1.72959e-09
2.66844e-10
1.60264e-09
2.69861e-10
1.47867e-09
2.53098e-10
1.3567e-09
2.45597e-10
1.24191e-09
2.23605e-10
1.13339e-09
2.08457e-10
1.03284e-09
1.89153e-10
9.40769e-10
1.70207e-10
8.5535e-10
1.56803e-10
7.78e-10
1.39539e-10
7.0721e-10
1.26787e-10
6.42275e-10
1.1555e-10
5.83238e-10
1.04051e-10
5.29139e-10
9.49129e-11
4.79297e-10
8.72108e-11
4.33541e-10
7.96657e-11
3.91429e-10
7.31755e-11
3.52446e-10
6.77157e-11
3.16391e-10
6.26178e-11
2.8296e-10
5.81278e-11
2.5194e-10
5.40223e-11
2.23305e-10
4.99389e-11
1.96801e-10
4.63143e-11
1.72364e-10
4.27043e-11
1.50363e-10
3.84253e-11
1.30568e-10
3.45101e-11
1.13078e-10
3.03501e-11
9.83907e-11
2.54061e-11
8.62908e-11
2.08005e-11
7.68359e-11
1.60312e-11
7.05283e-11
1.06354e-11
6.67563e-11
6.04649e-12
6.64176e-11
4.32622e-13
6.85151e-11
-4.28163e-12
7.40368e-11
-1.00853e-11
8.2207e-11
-1.49322e-11
9.41595e-11
-2.14157e-11
1.0904e-10
-2.68206e-11
1.27865e-10
-3.37944e-11
1.50377e-10
-4.05183e-11
1.76804e-10
-4.76613e-11
2.07878e-10
-5.62249e-11
2.42933e-10
-6.36477e-11
2.82973e-10
-7.31637e-11
3.27289e-10
-8.13791e-11
3.76195e-10
-9.05011e-11
4.29411e-10
-9.91759e-11
4.86693e-10
-1.07696e-10
5.47641e-10
-1.15457e-10
6.12059e-10
-1.23385e-10
6.7884e-10
-1.28541e-10
7.48487e-10
-1.36012e-10
8.19337e-10
-1.39157e-10
8.91221e-10
-1.42425e-10
9.63723e-10
-1.45228e-10
1.03571e-09
-1.44954e-10
1.10693e-09
-1.44472e-10
1.17709e-09
-1.43585e-10
1.24527e-09
-1.40132e-10
1.31131e-09
-1.36135e-10
1.3752e-09
-1.3258e-10
1.43647e-09
-1.27371e-10
1.49517e-09
-1.22256e-10
1.55131e-09
-1.17062e-10
1.60492e-09
-1.11618e-10
1.65643e-09
-1.0734e-10
1.70615e-09
-1.04322e-10
1.75359e-09
-9.84254e-11
1.79975e-09
-9.60949e-11
1.84544e-09
-9.66908e-11
1.88892e-09
-9.06261e-11
1.93226e-09
-9.09047e-11
1.97517e-09
-9.31845e-11
2.01525e-09
-8.34335e-11
2.05463e-09
-8.58999e-11
2.09067e-09
-7.70797e-11
2.12273e-09
-6.96464e-11
2.14944e-09
-5.75549e-11
2.168e-09
-3.89905e-11
2.17707e-09
-1.59263e-11
2.17424e-09
1.02153e-11
2.15639e-09
5.03225e-11
2.12476e-09
7.69722e-11
2.07268e-09
1.31917e-10
2.00489e-09
1.62164e-10
1.91987e-09
2.00138e-10
1.81786e-09
2.35323e-10
1.70488e-09
2.50788e-10
1.5776e-09
2.79509e-10
1.4461e-09
2.76853e-10
1.30747e-09
2.87424e-10
1.1705e-09
2.73825e-10
1.03299e-09
2.70588e-10
9.01594e-10
2.50878e-10
7.76805e-10
2.35301e-10
6.66993e-10
2.04711e-10
5.7264e-10
1.73841e-10
5.30025e-10
6.28537e-11
5.14697e-10
1.77273e-11
5.20846e-10
-1.79858e-11
5.46452e-10
-5.16902e-11
5.95556e-10
-9.64716e-11
6.65448e-10
-1.38225e-10
7.56556e-10
-1.88242e-10
8.50681e-10
-1.96066e-10
9.39672e-10
-1.83672e-10
1.02292e-09
-1.70963e-10
1.1001e-09
-1.57877e-10
1.17105e-09
-1.44491e-10
1.23573e-09
-1.31029e-10
1.29422e-09
-1.17777e-10
1.34669e-09
-1.04954e-10
1.39339e-09
-9.27173e-11
1.43461e-09
-8.11756e-11
1.47067e-09
-7.04032e-11
1.50193e-09
-6.04404e-11
1.52874e-09
-5.12982e-11
1.55146e-09
-4.29658e-11
1.57042e-09
-3.54193e-11
1.58599e-09
-2.86273e-11
1.59848e-09
-2.25521e-11
1.60821e-09
-1.7151e-11
1.61547e-09
-1.23801e-11
1.62056e-09
-8.19742e-12
1.62375e-09
-4.56555e-12
1.6253e-09
-1.45328e-12
1.62546e-09
1.15431e-12
1.62447e-09
3.28853e-12
1.62259e-09
4.96169e-12
1.62004e-09
6.19013e-12
1.61705e-09
6.99603e-12
1.61384e-09
7.41194e-12
1.6106e-09
7.48766e-12
1.60751e-09
7.29785e-12
1.60472e-09
6.95712e-12
1.60247e-09
6.6239e-12
6.96913e-12
2.56732e-09
1.05919e-10
2.69658e-09
2.86724e-10
2.80567e-09
3.90284e-10
2.87288e-09
4.29401e-10
2.89427e-09
4.28774e-10
2.87747e-09
4.03545e-10
2.83708e-09
3.63197e-10
2.78347e-09
3.18537e-10
2.72433e-09
2.7603e-10
2.66531e-09
2.37496e-10
2.60942e-09
2.03927e-10
2.5576e-09
1.76074e-10
2.51008e-09
1.53406e-10
2.46671e-09
1.35076e-10
2.427e-09
1.20538e-10
2.39034e-09
1.09288e-10
2.35613e-09
1.00796e-10
2.32379e-09
9.46368e-11
2.29273e-09
9.05301e-11
2.26243e-09
8.82159e-11
2.23237e-09
8.75128e-11
2.20206e-09
8.83019e-11
2.17103e-09
9.05114e-11
2.13878e-09
9.41055e-11
2.10483e-09
9.90851e-11
2.06867e-09
1.05488e-10
2.02976e-09
1.13391e-10
1.98751e-09
1.22913e-10
1.94132e-09
1.34232e-10
1.89049e-09
1.4761e-10
1.83431e-09
1.6344e-10
1.77207e-09
1.82328e-10
1.70309e-09
2.05293e-10
1.62484e-09
2.44589e-10
1.5554e-09
2.07962e-10
1.51883e-09
8.3529e-11
1.51692e-09
-2.37948e-11
1.54687e-09
-1.07648e-10
1.6068e-09
-1.87412e-10
1.69386e-09
-2.69567e-10
1.80562e-09
-3.68521e-10
1.9268e-09
-4.04874e-10
2.04993e-09
-3.98701e-10
2.16927e-09
-3.81189e-10
2.28082e-09
-3.5125e-10
2.38452e-09
-3.24427e-10
2.48076e-09
-3.02156e-10
2.56738e-09
-2.65449e-10
2.64651e-09
-2.42651e-10
2.71702e-09
-2.12386e-10
2.77752e-09
-1.76701e-10
2.82852e-09
-1.46849e-10
2.86821e-09
-9.94134e-11
2.89688e-09
-6.44715e-11
2.91218e-09
-7.74463e-12
2.91389e-09
3.97084e-11
2.90063e-09
9.60473e-11
2.87058e-09
1.59231e-10
2.8255e-09
2.0186e-10
2.76081e-09
2.75839e-10
2.68146e-09
3.07291e-10
2.58606e-09
3.49451e-10
2.4776e-09
3.75331e-10
2.35908e-09
3.85369e-10
2.23202e-09
3.9692e-10
2.10187e-09
3.83254e-10
1.96919e-09
3.78268e-10
1.83895e-09
3.5385e-10
1.71177e-09
3.35635e-10
1.58995e-09
3.10977e-10
1.47502e-09
2.85136e-10
1.36597e-09
2.65851e-10
1.26475e-09
2.4076e-10
1.17033e-09
2.21207e-10
1.08234e-09
2.03536e-10
1.00107e-09
1.85327e-10
9.25644e-10
1.70336e-10
8.55508e-10
1.57347e-10
7.90495e-10
1.44679e-10
7.30225e-10
1.33445e-10
6.74139e-10
1.23801e-10
6.2206e-10
1.14697e-10
5.73655e-10
1.06533e-10
5.28677e-10
9.89999e-11
4.87111e-10
9.15054e-11
4.48619e-10
8.4806e-11
4.13068e-10
7.82549e-11
3.80947e-10
7.05465e-11
3.51876e-10
6.35816e-11
3.25981e-10
5.62451e-11
3.03915e-10
4.74721e-11
2.85451e-10
3.92652e-11
2.70648e-10
3.08337e-11
2.60345e-10
2.09393e-11
2.53649e-10
1.27432e-11
2.51868e-10
2.21388e-12
2.53781e-10
-6.19451e-12
2.60704e-10
-1.70076e-11
2.71437e-10
-2.56655e-11
2.87656e-10
-3.76339e-11
3.0799e-10
-4.71546e-11
3.33844e-10
-5.96475e-11
3.64676e-10
-7.13505e-11
4.00734e-10
-8.37191e-11
4.42797e-10
-9.8288e-11
4.89885e-10
-1.10735e-10
5.43056e-10
-1.26335e-10
6.01297e-10
-1.3962e-10
6.64737e-10
-1.53941e-10
7.32923e-10
-1.67362e-10
8.053e-10
-1.80072e-10
8.81315e-10
-1.91471e-10
9.60486e-10
-2.02556e-10
1.04158e-09
-2.09634e-10
1.12485e-09
-2.19278e-10
1.20858e-09
-2.22889e-10
1.29248e-09
-2.26322e-10
1.37605e-09
-2.28795e-10
1.45823e-09
-2.27131e-10
1.53873e-09
-2.24975e-10
1.61728e-09
-2.22133e-10
1.6931e-09
-2.15964e-10
1.76613e-09
-2.09178e-10
1.83634e-09
-2.02804e-10
1.90344e-09
-1.94494e-10
1.96756e-09
-1.86389e-10
2.02876e-09
-1.78273e-10
2.08721e-09
-1.70064e-10
2.14329e-09
-1.63393e-10
2.19724e-09
-1.58235e-10
2.249e-09
-1.50153e-10
2.29914e-09
-1.46194e-10
2.34832e-09
-1.45839e-10
2.39542e-09
-1.37723e-10
2.4419e-09
-1.37409e-10
2.48697e-09
-1.38291e-10
2.52969e-09
-1.26197e-10
2.57058e-09
-1.26817e-10
2.60827e-09
-1.14787e-10
2.64157e-09
-1.02944e-10
2.66974e-09
-8.57069e-11
2.6902e-09
-5.94405e-11
2.70223e-09
-2.79421e-11
2.70329e-09
9.16149e-12
2.69153e-09
6.20873e-11
2.66638e-09
1.02117e-10
2.62388e-09
1.74412e-10
2.56541e-09
2.20633e-10
2.48995e-09
2.75602e-10
2.39624e-09
3.2903e-10
2.2884e-09
3.58627e-10
2.16305e-09
4.04858e-10
2.02788e-09
4.12027e-10
1.88034e-09
4.34966e-10
1.72822e-09
4.25943e-10
1.57003e-09
4.2878e-10
1.41273e-09
4.08176e-10
1.25906e-09
3.88967e-10
1.12165e-09
3.42126e-10
1.00038e-09
2.95106e-10
9.36459e-10
1.26778e-10
9.07243e-10
4.69432e-11
9.07707e-10
-1.845e-11
9.34822e-10
-7.88046e-11
9.91765e-10
-1.53415e-10
1.07278e-09
-2.19242e-10
1.17571e-09
-2.91173e-10
1.28062e-09
-3.00973e-10
1.37961e-09
-2.82662e-10
1.47223e-09
-2.63584e-10
1.55817e-09
-2.43813e-10
1.63732e-09
-2.23642e-10
1.70971e-09
-2.03417e-10
1.77545e-09
-1.83523e-10
1.83476e-09
-1.64265e-10
1.8879e-09
-1.45853e-10
1.93516e-09
-1.28437e-10
1.97688e-09
-1.12118e-10
2.01339e-09
-9.69535e-11
2.04505e-09
-8.29604e-11
2.07221e-09
-7.01267e-11
2.09522e-09
-5.84249e-11
2.11441e-09
-4.78193e-11
2.13012e-09
-3.82656e-11
2.14268e-09
-2.97106e-11
2.1524e-09
-2.20987e-11
2.15958e-09
-1.53779e-11
2.16452e-09
-9.50225e-12
2.1675e-09
-4.43437e-12
2.1688e-09
-1.46529e-13
2.16871e-09
3.38443e-12
2.16749e-09
6.17902e-12
2.16542e-09
8.25681e-12
2.16277e-09
9.64634e-12
2.15979e-09
1.03897e-11
2.15673e-09
1.0549e-11
2.15382e-09
1.02101e-11
2.15128e-09
9.49574e-12
2.14939e-09
8.51347e-12
7.94539e-12
2.53833e-09
6.75881e-11
2.63117e-09
1.9389e-10
2.73758e-09
2.83864e-10
2.83185e-09
3.35132e-10
2.90393e-09
3.56694e-10
2.9518e-09
3.55674e-10
2.97569e-09
3.39312e-10
2.97954e-09
3.14686e-10
2.96946e-09
2.8611e-10
2.95059e-09
2.56367e-10
2.92641e-09
2.28108e-10
2.89918e-09
2.03299e-10
2.87086e-09
1.81727e-10
2.84261e-09
1.63332e-10
2.81484e-09
1.48306e-10
2.78772e-09
1.36413e-10
2.76125e-09
1.27266e-10
2.73532e-09
1.20566e-10
2.70966e-09
1.16188e-10
2.68401e-09
1.13868e-10
2.65804e-09
1.13476e-10
2.63142e-09
1.14931e-10
2.60374e-09
1.18186e-10
2.57461e-09
1.23232e-10
2.5436e-09
1.30096e-10
2.51024e-09
1.38852e-10
2.47402e-09
1.49611e-10
2.4344e-09
1.62537e-10
2.39078e-09
1.77848e-10
2.34255e-09
1.95841e-10
2.28906e-09
2.16925e-10
2.22973e-09
2.41659e-10
2.16408e-09
2.70946e-10
2.09016e-09
3.18512e-10
2.02207e-09
2.76051e-10
1.97993e-09
1.25666e-10
1.9686e-09
-1.24654e-11
1.98861e-09
-1.27657e-10
2.03852e-09
-2.37327e-10
2.11414e-09
-3.45182e-10
2.21124e-09
-4.65624e-10
2.31756e-09
-5.11195e-10
2.4281e-09
-5.0924e-10
2.53619e-09
-4.8928e-10
2.63775e-09
-4.52807e-10
2.73236e-09
-4.19039e-10
2.82023e-09
-3.90025e-10
2.90031e-09
-3.45522e-10
2.97338e-09
-3.15724e-10
3.03877e-09
-2.77781e-10
3.09654e-09
-2.34469e-10
3.14613e-09
-1.9644e-10
3.18721e-09
-1.40489e-10
3.21931e-09
-9.65757e-11
3.24185e-09
-3.02788e-11
3.25391e-09
2.76464e-11
3.25492e-09
9.50384e-11
3.24332e-09
1.70826e-10
3.2194e-09
2.25785e-10
3.18027e-09
3.14969e-10
3.12757e-09
3.59986e-10
3.05985e-09
4.17167e-10
2.9783e-09
4.56888e-10
2.8839e-09
4.79765e-10
2.77799e-09
5.02836e-10
2.66382e-09
4.97424e-10
2.54263e-09
4.99458e-10
2.41822e-09
4.78255e-10
2.29221e-09
4.61644e-10
2.16699e-09
4.36195e-10
2.0449e-09
4.07229e-10
1.9258e-09
3.84949e-10
1.81217e-09
3.54395e-10
1.70369e-09
3.29682e-10
1.60057e-09
3.06656e-10
1.50351e-09
2.82392e-10
1.41196e-09
2.61878e-10
1.32572e-09
2.43594e-10
1.24474e-09
2.25652e-10
1.16888e-09
2.09305e-10
1.09766e-09
1.95027e-10
1.03102e-09
1.81336e-10
9.68702e-10
1.68847e-10
9.10511e-10
1.5719e-10
8.56494e-10
1.45523e-10
8.06301e-10
1.34998e-10
7.59757e-10
1.24799e-10
7.1746e-10
1.12843e-10
6.78891e-10
1.02151e-10
6.44227e-10
9.09085e-11
6.14187e-10
7.75124e-11
5.88595e-10
6.48575e-11
5.67486e-10
5.19436e-11
5.52073e-10
3.63522e-11
5.41244e-10
2.35729e-11
5.36833e-10
6.62539e-12
5.37308e-10
-6.66898e-12
5.44454e-10
-2.4154e-11
5.56672e-10
-3.78826e-11
5.76105e-10
-5.70668e-11
6.00873e-10
-7.1922e-11
6.32672e-10
-9.14464e-11
6.70586e-10
-1.09264e-10
7.14812e-10
-1.27946e-10
7.65984e-10
-1.49459e-10
8.22796e-10
-1.67546e-10
8.86157e-10
-1.89696e-10
9.54758e-10
-2.0822e-10
1.02842e-09
-2.27598e-10
1.10652e-09
-2.45464e-10
1.18815e-09
-2.61709e-10
1.27268e-09
-2.75994e-10
1.35933e-09
-2.8921e-10
1.44686e-09
-2.97163e-10
1.53532e-09
-3.07741e-10
1.6231e-09
-3.10661e-10
1.70984e-09
-3.13065e-10
1.79511e-09
-3.1406e-10
1.87801e-09
-3.10027e-10
1.95833e-09
-3.05291e-10
2.03592e-09
-2.99721e-10
2.11022e-09
-2.90265e-10
2.18131e-09
-2.80278e-10
2.24922e-09
-2.70728e-10
2.31388e-09
-2.59166e-10
2.37548e-09
-2.48012e-10
2.43418e-09
-2.36989e-10
2.49022e-09
-2.26115e-10
2.54394e-09
-2.17114e-10
2.59556e-09
-2.09836e-10
2.64527e-09
-1.99829e-10
2.69325e-09
-1.94131e-10
2.74007e-09
-1.9262e-10
2.78519e-09
-1.82813e-10
2.82933e-09
-1.8155e-10
2.87149e-09
-1.80473e-10
2.91183e-09
-1.66568e-10
2.94973e-09
-1.64757e-10
2.98491e-09
-1.49992e-10
3.01592e-09
-1.33965e-10
3.04265e-09
-1.12439e-10
3.06299e-09
-7.97633e-11
3.07682e-09
-4.17602e-11
3.08182e-09
4.17053e-12
3.07741e-09
6.65012e-11
3.06189e-09
1.17639e-10
3.03367e-09
2.02625e-10
2.99167e-09
2.62632e-10
2.93535e-09
3.31923e-10
2.86232e-09
4.02055e-10
2.77481e-09
4.46143e-10
2.66921e-09
5.10455e-10
2.55033e-09
5.30904e-10
2.41546e-09
5.6984e-10
2.27033e-09
5.71076e-10
2.11343e-09
5.85679e-10
1.95089e-09
5.70715e-10
1.78715e-09
5.52707e-10
1.63861e-09
4.9066e-10
1.50427e-09
4.29447e-10
1.42607e-09
2.04981e-10
1.38542e-09
8.75961e-11
1.37919e-09
-1.22179e-11
1.40442e-09
-1.04035e-10
1.46347e-09
-2.12471e-10
1.54771e-09
-3.03475e-10
1.65271e-09
-3.96175e-10
1.75826e-09
-4.06522e-10
1.85716e-09
-3.81563e-10
1.94927e-09
-3.557e-10
2.03445e-09
-3.28992e-10
2.11274e-09
-3.01927e-10
2.18427e-09
-2.74947e-10
2.24925e-09
-2.48506e-10
2.30795e-09
-2.22962e-10
2.36065e-09
-1.98559e-10
2.40768e-09
-1.75464e-10
2.44936e-09
-1.53795e-10
2.48602e-09
-1.33615e-10
2.51799e-09
-1.14937e-10
2.54561e-09
-9.77401e-11
2.56918e-09
-8.19929e-11
2.58901e-09
-6.76583e-11
2.60544e-09
-5.46881e-11
2.61875e-09
-4.30198e-11
2.62924e-09
-3.25876e-11
2.63719e-09
-2.33318e-11
2.64289e-09
-1.5199e-11
2.6466e-09
-8.14611e-12
2.64859e-09
-2.1428e-12
2.64915e-09
2.83345e-12
2.64852e-09
6.80233e-12
2.64699e-09
9.78527e-12
2.64483e-09
1.18141e-11
2.64228e-09
1.29371e-11
2.6396e-09
1.32247e-11
2.63704e-09
1.27709e-11
2.63483e-09
1.17107e-11
2.63321e-09
1.01262e-11
8.64552e-12
2.52326e-09
4.43242e-11
2.58626e-09
1.30893e-10
2.67044e-09
1.99688e-10
2.75962e-09
2.45953e-10
2.84359e-09
2.72721e-10
2.91572e-09
2.83543e-10
2.97306e-09
2.8197e-10
3.01604e-09
2.71706e-10
3.04644e-09
2.55711e-10
3.0652e-09
2.37605e-10
3.07408e-09
2.1923e-10
3.07632e-09
2.01056e-10
3.07396e-09
1.84092e-10
3.06807e-09
1.69223e-10
3.05939e-09
1.56983e-10
3.04871e-09
1.47094e-10
3.03655e-09
1.39428e-10
3.02316e-09
1.3395e-10
3.00866e-09
1.30691e-10
2.99302e-09
1.29505e-10
2.97621e-09
1.30292e-10
2.95805e-09
1.33091e-10
2.93833e-09
1.37903e-10
2.9168e-09
1.44764e-10
2.89314e-09
1.53754e-10
2.867e-09
1.64993e-10
2.83797e-09
1.7864e-10
2.8056e-09
1.94903e-10
2.76941e-09
2.14041e-10
2.72888e-09
2.36377e-10
2.68348e-09
2.6232e-10
2.63276e-09
2.92383e-10
2.57635e-09
3.27354e-10
2.51288e-09
3.81977e-10
2.452e-09
3.36931e-10
2.40858e-09
1.6909e-10
2.3895e-09
6.61771e-12
2.39811e-09
-1.36265e-10
2.43374e-09
-2.72962e-10
2.4919e-09
-4.03343e-10
2.56799e-09
-5.41708e-10
2.65312e-09
-5.96334e-10
2.7444e-09
-6.00511e-10
2.83443e-09
-5.79312e-10
2.91914e-09
-5.37515e-10
2.99795e-09
-4.97851e-10
3.07103e-09
-4.63104e-10
3.13825e-09
-4.12747e-10
3.1995e-09
-3.76976e-10
3.25389e-09
-3.32168e-10
3.30326e-09
-2.83836e-10
3.34628e-09
-2.39457e-10
3.38367e-09
-1.7788e-10
3.41461e-09
-1.27523e-10
3.43971e-09
-5.53772e-11
3.45795e-09
9.40337e-12
3.46941e-09
8.35861e-11
3.47303e-09
1.67205e-10
3.46821e-09
2.30604e-10
3.45364e-09
3.29536e-10
3.42878e-09
3.84847e-10
3.39234e-09
4.53613e-10
3.34397e-09
5.05255e-10
3.28299e-09
5.40743e-10
3.21026e-09
5.75562e-10
3.12662e-09
5.81063e-10
3.03331e-09
5.92769e-10
2.93235e-09
5.79221e-10
2.8256e-09
5.68392e-10
2.7149e-09
5.46895e-10
2.60281e-09
5.19319e-10
2.48979e-09
4.97975e-10
2.37846e-09
4.65726e-10
2.26921e-09
4.38931e-10
2.16279e-09
4.13076e-10
2.06032e-09
3.84855e-10
1.96173e-09
3.60471e-10
1.86725e-09
3.38077e-10
1.77708e-09
3.15814e-10
1.69143e-09
2.9496e-10
1.61e-09
2.76461e-10
1.53296e-09
2.58371e-10
1.46023e-09
2.41577e-10
1.39174e-09
2.2568e-10
1.32767e-09
2.09593e-10
1.26776e-09
1.94909e-10
1.21186e-09
1.80703e-10
1.16069e-09
1.64009e-10
1.11365e-09
1.49193e-10
1.07101e-09
1.33545e-10
1.03346e-09
1.15062e-10
1.00094e-09
9.73796e-11
9.73403e-10
7.94821e-11
9.52422e-10
5.73332e-11
9.36729e-10
3.92662e-11
9.28656e-10
1.46985e-11
9.2644e-10
-4.45188e-12
9.32391e-10
-3.01052e-11
9.44574e-10
-5.0065e-11
9.65547e-10
-7.80394e-11
9.92975e-10
-9.93498e-11
1.02876e-09
-1.27236e-10
1.07157e-09
-1.52066e-10
1.12149e-09
-1.77865e-10
1.17883e-09
-2.06801e-10
1.242e-09
-2.30717e-10
1.31156e-09
-2.59259e-10
1.38596e-09
-2.82623e-10
1.46462e-09
-3.06254e-10
1.54681e-09
-3.2765e-10
1.63126e-09
-3.46162e-10
1.71732e-09
-3.62054e-10
1.804e-09
-3.75892e-10
1.89016e-09
-3.83322e-10
1.97571e-09
-3.93292e-10
2.05925e-09
-3.94199e-10
2.14048e-09
-3.94296e-10
2.2191e-09
-3.92676e-10
2.29447e-09
-3.85393e-10
2.36653e-09
-3.77338e-10
2.43531e-09
-3.68498e-10
2.50049e-09
-3.55445e-10
2.56234e-09
-3.42127e-10
2.62097e-09
-3.29357e-10
2.67649e-09
-3.14699e-10
2.7292e-09
-3.00739e-10
2.7793e-09
-2.87121e-10
2.82713e-09
-2.73961e-10
2.87297e-09
-2.6297e-10
2.91699e-09
-2.53858e-10
2.95953e-09
-2.42357e-10
3.00049e-09
-2.3506e-10
3.04054e-09
-2.32624e-10
3.07897e-09
-2.21212e-10
3.11644e-09
-2.18993e-10
3.15189e-09
-2.15918e-10
3.18609e-09
-2.0078e-10
3.21769e-09
-1.96393e-10
3.24725e-09
-1.79577e-10
3.27327e-09
-1.6001e-10
3.2962e-09
-1.35377e-10
3.3144e-09
-9.79642e-11
3.32833e-09
-5.56785e-11
3.33606e-09
-3.55332e-12
3.33801e-09
6.45556e-11
3.33198e-09
1.23673e-10
3.31834e-09
2.16263e-10
3.29434e-09
2.86636e-10
3.26003e-09
3.66234e-10
3.21251e-09
4.49572e-10
3.15248e-09
5.0618e-10
3.07635e-09
5.86575e-10
2.98621e-09
6.21046e-10
2.87912e-09
6.76928e-10
2.75826e-09
6.9194e-10
2.62166e-09
7.22279e-10
2.47363e-09
7.18741e-10
2.31949e-09
7.06855e-10
2.17828e-09
6.31862e-10
2.04767e-09
5.60058e-10
1.96606e-09
2.8659e-10
1.9205e-09
1.33157e-10
1.90996e-09
-1.67807e-12
1.93236e-09
-1.26427e-10
1.98952e-09
-2.69635e-10
2.07061e-09
-3.84568e-10
2.16951e-09
-4.95075e-10
2.26743e-09
-5.04441e-10
2.35827e-09
-4.72401e-10
2.44218e-09
-4.39607e-10
2.51919e-09
-4.06005e-10
2.58951e-09
-3.72244e-10
2.6534e-09
-3.38838e-10
2.71117e-09
-3.06278e-10
2.76316e-09
-2.74946e-10
2.80968e-09
-2.45088e-10
2.85109e-09
-2.16871e-10
2.88771e-09
-1.90418e-10
2.91988e-09
-1.65785e-10
2.94791e-09
-1.42964e-10
2.97209e-09
-1.21914e-10
2.99269e-09
-1.02597e-10
3.01001e-09
-8.49795e-11
3.02433e-09
-6.90113e-11
3.03593e-09
-5.46159e-11
3.04506e-09
-4.17153e-11
3.05197e-09
-3.02411e-11
3.0569e-09
-2.01302e-11
3.06009e-09
-1.13334e-11
3.06176e-09
-3.82045e-12
3.06217e-09
2.42958e-12
3.06154e-09
7.43412e-12
3.06011e-09
1.12145e-11
3.05812e-09
1.38045e-11
3.0558e-09
1.52572e-11
3.05337e-09
1.56492e-11
3.05106e-09
1.50818e-11
3.04907e-09
1.37047e-11
3.0476e-09
1.15982e-11
9.26936e-12