/*--------------------------------*- C++ -*----------------------------------*\
| =========                 |                                                 |
| \\      /  F ield         | OpenFOAM: The Open Source CFD Toolbox           |
|  \\    /   O peration     | Version:  2506                                  |
|   \\  /    A nd           | Website:  www.openfoam.com                      |
|    \\/     M anipulation  |                                                 |
\*---------------------------------------------------------------------------*/
FoamFile
{
    version     2.0;
    format      ascii;
    arch        "LSB;label=32;scalar=64";
    class       volScalarField;
    location    "2.4";
    object      p;
}
// * * * * * * * * * * * * * * * * * * * * * * * * * * * * * * * * * * * * * //

dimensions      [0 2 -2 0 0 0 0];

internalField   nonuniform List<scalar> 
4000
(
0.00375531
0.00371873
0.00369135
0.00366987
0.00365005
0.00363107
0.00361264
0.00359455
0.00357667
0.00355895
0.00354135
0.00352387
0.00350648
0.00348917
0.00347193
0.00345476
0.00343767
0.00342064
0.00340368
0.00338679
0.00336998
0.00335325
0.00333661
0.00332007
0.00330366
0.00328739
0.00327129
0.0032554
0.00323975
0.0032244
0.00320944
0.00319496
0.00318108
0.00316802
0.00315591
0.00314456
0.00313356
0.00312254
0.00311122
0.0030993
0.00308644
0.00307205
0.00305578
0.00303767
0.00301779
0.00299624
0.0029731
0.00294839
0.00292232
0.00289488
0.00286624
0.00283661
0.00280593
0.00277455
0.00274244
0.00270998
0.00267715
0.0026441
0.00261113
0.00257804
0.00254537
0.00251295
0.00248098
0.0024496
0.0024188
0.00238877
0.00235945
0.00233098
0.00230338
0.0022767
0.00225097
0.00222623
0.0022025
0.00217979
0.0021581
0.00213742
0.00211772
0.00209898
0.00208113
0.00206412
0.0020479
0.00203241
0.0020176
0.00200344
0.00198986
0.00197685
0.00196438
0.0019524
0.00194093
0.00192994
0.00191937
0.00190926
0.00189956
0.00189022
0.00188127
0.00187261
0.00186428
0.00185617
0.00184833
0.00184063
0.00183311
0.00182567
0.00181832
0.00181101
0.00180369
0.00179636
0.00178895
0.00178148
0.00177386
0.00176611
0.00175817
0.00175002
0.0017416
0.00173289
0.00172383
0.0017144
0.00170452
0.00169414
0.00168319
0.0016716
0.00165932
0.00164629
0.00163245
0.00161777
0.00160222
0.00158575
0.00156837
0.00155005
0.0015308
0.0015106
0.00148941
0.0014673
0.00144427
0.00142029
0.00139541
0.00136963
0.00134289
0.00131532
0.00128681
0.00125749
0.00122738
0.00119655
0.00116507
0.0011331
0.00110069
0.00106816
0.00103538
0.00100281
0.000970381
0.000938286
0.000906713
0.00087567
0.000845445
0.00081606
0.000787775
0.00076079
0.000735407
0.000712056
0.00069126
0.000673304
0.000656502
0.000641362
0.00062714
0.000613632
0.000600436
0.00058738
0.000574073
0.000560568
0.000546453
0.000531646
0.000516171
0.000500036
0.000483289
0.00046602
0.000448338
0.000430353
0.000412165
0.000393861
0.0003755
0.000357179
0.000338948
0.000320841
0.00030288
0.000285073
0.000267419
0.000249905
0.000232507
0.0002152
0.000197954
0.000180747
0.000163555
0.000146357
0.000129139
0.000111902
9.46386e-05
7.73504e-05
6.00438e-05
4.27178e-05
2.53821e-05
8.26516e-06
0.00373987
0.00371416
0.00369092
0.0036706
0.00365114
0.00363224
0.00361378
0.00359562
0.00357769
0.00355992
0.0035423
0.0035248
0.0035074
0.00349009
0.00347286
0.00345571
0.00343864
0.00342164
0.00340471
0.00338785
0.00337107
0.00335438
0.00333777
0.00332127
0.00330488
0.00328862
0.00327253
0.00325662
0.00324095
0.00322555
0.00321048
0.00319583
0.0031817
0.00316822
0.00315546
0.00314326
0.00313131
0.00311934
0.00310706
0.00309414
0.00308027
0.00306499
0.00304802
0.0030294
0.00300915
0.00298737
0.00296414
0.00293949
0.00291363
0.00288664
0.00285863
0.00282976
0.00280004
0.0027698
0.00273896
0.00270778
0.00267631
0.00264468
0.00261309
0.00258147
0.00255016
0.00251909
0.0024884
0.00245816
0.00242841
0.00239924
0.00237068
0.00234279
0.00231563
0.00228926
0.00226371
0.00223904
0.00221523
0.00219236
0.00217044
0.00214944
0.00212939
0.00211027
0.00209202
0.0020746
0.00205797
0.00204207
0.00202686
0.00201229
0.0019983
0.00198487
0.00197198
0.00195956
0.00194764
0.00193618
0.00192515
0.00191455
0.00190435
0.00189451
0.00188505
0.00187589
0.00186705
0.00185844
0.00185009
0.00184188
0.00183385
0.00182592
0.00181807
0.00181027
0.00180247
0.00179466
0.00178678
0.00177883
0.00177076
0.00176255
0.00175416
0.00174555
0.00173667
0.00172749
0.00171796
0.00170802
0.00169762
0.00168671
0.0016752
0.00166304
0.00165018
0.00163656
0.00162214
0.00160689
0.00159076
0.00157375
0.00155584
0.00153704
0.00151733
0.00149673
0.00147528
0.00145298
0.00142985
0.00140585
0.00138105
0.00135544
0.001329
0.0013018
0.00127379
0.00124511
0.00121578
0.00118589
0.00115553
0.00112481
0.00109376
0.00106262
0.00103131
0.00100016
0.000969135
0.000938393
0.000908073
0.000878207
0.000849003
0.000820531
0.000792954
0.000766486
0.000741327
0.000717845
0.000696516
0.000677585
0.000659904
0.000643761
0.000628662
0.000614338
0.00060042
0.000586721
0.000572962
0.000559107
0.000544815
0.000529953
0.000514483
0.000498387
0.000481694
0.00046449
0.000446876
0.000428955
0.000410824
0.000392573
0.000374296
0.000356041
0.000337865
0.000319805
0.000301887
0.000284123
0.000266514
0.000249047
0.00023169
0.000214434
0.000197255
0.000180121
0.000163009
0.000145899
0.000128769
0.000111614
9.44292e-05
7.72163e-05
5.99809e-05
4.27141e-05
2.54026e-05
8.27776e-06
0.00373175
0.00371093
0.00369026
0.00367081
0.00365179
0.00363309
0.0036147
0.00359655
0.0035786
0.00356083
0.00354318
0.00352567
0.00350826
0.00349096
0.00347374
0.00345661
0.00343956
0.00342258
0.00340567
0.00338884
0.00337209
0.00335541
0.00333883
0.00332233
0.00330595
0.00328969
0.00327358
0.00325763
0.00324189
0.00322638
0.00321116
0.00319629
0.00318184
0.00316784
0.00315445
0.00314155
0.00312881
0.00311601
0.0031029
0.00308913
0.00307447
0.00305845
0.00304089
0.00302185
0.00300133
0.00297942
0.00295619
0.00293171
0.00290617
0.00287962
0.00285218
0.00282402
0.00279519
0.00276588
0.0027361
0.00270605
0.00267578
0.00264537
0.00261502
0.00258463
0.00255452
0.00252458
0.00249496
0.0024657
0.00243683
0.00240845
0.00238055
0.00235323
0.00232652
0.00230049
0.00227516
0.00225059
0.00222681
0.00220385
0.00218175
0.00216052
0.00214016
0.00212068
0.00210207
0.00208428
0.00206727
0.002051
0.00203541
0.00202046
0.0020061
0.00199229
0.001979
0.00196618
0.00195383
0.00194192
0.00193042
0.00191934
0.00190865
0.00189831
0.00188832
0.00187865
0.00186927
0.00186016
0.00185128
0.00184257
0.00183402
0.0018256
0.00181726
0.00180899
0.00180075
0.00179249
0.00178419
0.00177583
0.00176735
0.00175875
0.00174996
0.00174096
0.00173169
0.0017221
0.00171215
0.00170177
0.00169091
0.00167949
0.00166746
0.00165477
0.00164137
0.00162722
0.00161227
0.0015965
0.00157989
0.00156243
0.00154412
0.00152495
0.00150494
0.00148412
0.00146248
0.00144006
0.00141687
0.0013929
0.0013682
0.00134278
0.00131659
0.00128979
0.00126235
0.00123432
0.00120576
0.00117673
0.00114733
0.00111765
0.00108773
0.00105777
0.0010277
0.000997769
0.00096797
0.000938399
0.000909192
0.000880341
0.000852064
0.000824359
0.000797433
0.000771388
0.000746434
0.000722773
0.00070085
0.000680894
0.00066246
0.000645273
0.000629281
0.000614185
0.000599696
0.000585578
0.000571674
0.000557677
0.000543331
0.000528494
0.000513065
0.000496996
0.000480328
0.000463158
0.00044558
0.000427692
0.000409591
0.000391368
0.00037311
0.000354878
0.000336726
0.000318692
0.000300806
0.00028308
0.000265514
0.000248096
0.000230818
0.000213645
0.00019655
0.000179504
0.000162479
0.000145454
0.000128415
0.000111345
9.42395e-05
7.7099e-05
5.99274e-05
4.27131e-05
2.54297e-05
8.27735e-06
0.00372794
0.00370876
0.00368931
0.00367061
0.00365201
0.00363359
0.00361534
0.00359727
0.00357936
0.0035616
0.00354397
0.00352646
0.00350906
0.00349176
0.00347456
0.00345744
0.0034404
0.00342344
0.00340655
0.00338974
0.003373
0.00335633
0.00333975
0.00332326
0.00330686
0.00329058
0.00327442
0.00325842
0.00324258
0.00322695
0.00321156
0.00319645
0.00318167
0.0031672
0.00315326
0.00313976
0.00312634
0.00311283
0.00309899
0.00308452
0.00306921
0.00305258
0.00303455
0.00301517
0.00299444
0.00297245
0.00294929
0.002925
0.00289978
0.00287368
0.0028468
0.00281931
0.00279124
0.00276277
0.0027339
0.00270481
0.00267554
0.00264614
0.00261681
0.00258742
0.0025583
0.0025293
0.00250057
0.00247217
0.00244407
0.00241642
0.00238914
0.0023624
0.00233614
0.00231048
0.00228542
0.002261
0.00223731
0.00221432
0.00219212
0.00217071
0.0021501
0.00213032
0.00211139
0.00209326
0.0020759
0.00205929
0.00204336
0.00202807
0.00201337
0.00199921
0.00198556
0.00197237
0.00195962
0.00194729
0.00193536
0.00192381
0.00191263
0.0019018
0.00189131
0.00188113
0.00187122
0.00186159
0.00185217
0.00184299
0.00183396
0.00182507
0.00181628
0.00180757
0.00179891
0.00179024
0.00178156
0.00177282
0.00176399
0.00175503
0.0017459
0.00173655
0.00172692
0.00171694
0.00170659
0.00169577
0.00168445
0.00167255
0.00166002
0.00164682
0.00163291
0.00161825
0.00160281
0.00158658
0.00156954
0.0015517
0.00153305
0.0015136
0.00149336
0.00147237
0.00145062
0.00142816
0.001405
0.00138112
0.0013566
0.00133144
0.00130561
0.00127926
0.00125233
0.00122492
0.00119706
0.00116881
0.00114026
0.00111149
0.00108252
0.00105355
0.00102448
0.000995558
0.000966743
0.000938117
0.000909831
0.000881807
0.000854314
0.000827253
0.00080089
0.000775194
0.000750416
0.00072662
0.000704173
0.000683262
0.000664174
0.000646035
0.00062924
0.000613505
0.000598645
0.00058434
0.00057047
0.000556459
0.000542136
0.000527339
0.000511923
0.000495858
0.00047919
0.000462009
0.000444413
0.000426507
0.000408391
0.000390159
0.000371892
0.000353659
0.000335514
0.0003175
0.000299645
0.000281963
0.000264457
0.000247113
0.000229913
0.000212827
0.000195824
0.000178873
0.000161944
0.000145012
0.000128058
0.000111069
9.4038e-05
7.69631e-05
5.98466e-05
4.26783e-05
2.54274e-05
8.24664e-06
0.00372571
0.00370716
0.00368847
0.00367033
0.00365212
0.00363399
0.00361592
0.00359797
0.00358012
0.00356238
0.00354477
0.00352727
0.00350988
0.00349258
0.00347538
0.00345827
0.00344123
0.00342428
0.00340739
0.00339058
0.00337384
0.00335718
0.00334059
0.00332408
0.00330766
0.00329134
0.00327513
0.00325904
0.00324311
0.00322734
0.00321176
0.00319642
0.00318135
0.0031665
0.00315206
0.00313802
0.00312397
0.00310979
0.00309528
0.00308015
0.00306423
0.00304705
0.0030286
0.00300893
0.00298804
0.00296602
0.00294297
0.00291891
0.00289405
0.0028684
0.0028421
0.00281527
0.00278793
0.00276026
0.00273224
0.00270402
0.00267564
0.00264714
0.0026187
0.00259017
0.00256189
0.00253369
0.00250573
0.00247807
0.00245065
0.00242365
0.00239696
0.00237075
0.00234495
0.00231966
0.0022949
0.00227069
0.00224712
0.00222418
0.00220193
0.00218041
0.00215963
0.00213962
0.00212041
0.00210197
0.0020843
0.00206737
0.00205113
0.00203552
0.00202051
0.00200603
0.00199204
0.00197852
0.0019654
0.00195269
0.00194035
0.00192835
0.0019167
0.0019054
0.00189439
0.00188371
0.00187329
0.00186315
0.00185322
0.00184354
0.00183401
0.00182466
0.00181542
0.00180627
0.0017972
0.00178813
0.00177908
0.00176998
0.0017608
0.00175149
0.001742
0.00173228
0.00172226
0.00171188
0.0017011
0.00168982
0.00167801
0.00166561
0.00165256
0.00163884
0.00162441
0.00160925
0.00159333
0.00157667
0.00155924
0.00154106
0.00152213
0.00150246
0.00148207
0.00146098
0.0014392
0.00141677
0.0013937
0.00136999
0.00134571
0.00132086
0.00129543
0.00126955
0.00124317
0.00121638
0.00118921
0.00116172
0.00113397
0.00110602
0.00107791
0.00104979
0.00102157
0.000993487
0.000965491
0.000937645
0.000910124
0.000882786
0.000855954
0.000829434
0.000803548
0.00077816
0.000753554
0.000729705
0.000706952
0.000685286
0.00066563
0.000646717
0.000629257
0.000613026
0.000597908
0.000583467
0.000569585
0.000555522
0.000541154
0.000526317
0.000510844
0.000494718
0.000477993
0.00046076
0.00044312
0.00042518
0.000407043
0.000388801
0.000370536
0.000352315
0.000334195
0.000316217
0.000298409
0.000280787
0.000263349
0.000246082
0.000228965
0.000211967
0.000195052
0.000178192
0.000161352
0.000144507
0.000127637
0.000110726
9.37675e-05
7.67594e-05
5.97021e-05
4.25885e-05
2.53929e-05
8.24689e-06
0.00372434
0.00370605
0.00368782
0.00367011
0.00365224
0.00363434
0.00361647
0.00359866
0.00358091
0.00356321
0.00354562
0.00352814
0.00351074
0.00349344
0.00347623
0.00345911
0.00344207
0.00342511
0.00340822
0.0033914
0.00337465
0.00335796
0.00334135
0.00332482
0.00330836
0.00329199
0.00327571
0.00325954
0.00324349
0.00322758
0.00321182
0.00319625
0.0031809
0.0031657
0.00315085
0.0031363
0.00312166
0.00310684
0.00309167
0.00307591
0.00305939
0.00304172
0.00302291
0.003003
0.00298201
0.00296002
0.00293711
0.00291333
0.00288884
0.00286368
0.00283797
0.00281179
0.00278518
0.00275829
0.00273108
0.0027037
0.00267616
0.00264849
0.00262085
0.00259312
0.00256558
0.00253809
0.0025108
0.00248376
0.00245693
0.00243049
0.0024043
0.00237856
0.00235318
0.00232824
0.00230379
0.00227979
0.00225638
0.00223352
0.00221127
0.0021897
0.0021688
0.00214862
0.0021292
0.00211052
0.00209258
0.00207536
0.00205882
0.00204292
0.00202761
0.00201284
0.00199855
0.00198471
0.00197127
0.0019582
0.00194548
0.00193307
0.00192099
0.00190922
0.00189773
0.00188654
0.0018756
0.00186495
0.00185451
0.00184433
0.00183431
0.00182448
0.00181478
0.0018052
0.00179571
0.00178625
0.00177682
0.00176734
0.00175779
0.00174811
0.00173823
0.0017281
0.00171766
0.00170682
0.00169556
0.00168378
0.00167144
0.00165851
0.00164492
0.00163066
0.00161572
0.00160007
0.00158371
0.00156666
0.00154889
0.00153044
0.0015113
0.00149148
0.00147101
0.00144991
0.00142817
0.00140584
0.00138294
0.00135946
0.00133548
0.00131099
0.00128601
0.00126062
0.00123481
0.00120865
0.00118216
0.00115539
0.00112839
0.00110122
0.00107388
0.00104653
0.00101906
0.000991703
0.000964403
0.000937212
0.000910314
0.000883541
0.000857237
0.000831158
0.000805662
0.000780545
0.000756109
0.000732272
0.000709458
0.000687298
0.000667226
0.000647752
0.00062977
0.00061315
0.000597779
0.000583136
0.000569096
0.000554827
0.000540257
0.000525244
0.000509605
0.000493334
0.000476498
0.000459185
0.000441499
0.000423541
0.000405411
0.000387197
0.000368976
0.000350811
0.000332756
0.000314849
0.000297118
0.000279572
0.000262211
0.000245022
0.000227981
0.000211059
0.000194213
0.00017743
0.000160664
0.000143891
0.000127093
0.000110257
9.33741e-05
7.64414e-05
5.94587e-05
4.24214e-05
2.531e-05
8.21686e-06
0.00372349
0.00370532
0.00368736
0.00366995
0.00365234
0.00363467
0.00361699
0.00359929
0.00358162
0.003564
0.00354645
0.003529
0.00351161
0.0034943
0.00347709
0.00345996
0.0034429
0.00342592
0.00340902
0.00339218
0.00337541
0.0033587
0.00334206
0.00332548
0.00330897
0.00329254
0.00327618
0.00325991
0.00324374
0.00322768
0.00321174
0.00319595
0.00318032
0.00316481
0.00314956
0.00313452
0.00311932
0.0031039
0.00308811
0.00307174
0.00305468
0.00303658
0.00301746
0.00299737
0.00297632
0.0029544
0.00293168
0.00290821
0.00288412
0.00285946
0.00283435
0.00280882
0.00278293
0.0027568
0.00273039
0.00270381
0.00267707
0.00265021
0.00262333
0.00259636
0.00256951
0.00254268
0.00251599
0.00248951
0.0024632
0.00243723
0.00241148
0.00238614
0.00236111
0.00233648
0.00231229
0.0022885
0.00226525
0.00224249
0.00222028
0.00219868
0.00217771
0.00215741
0.00213782
0.00211894
0.00210077
0.00208329
0.00206648
0.0020503
0.00203472
0.00201967
0.0020051
0.00199097
0.00197722
0.00196382
0.00195076
0.00193798
0.00192548
0.00191327
0.00190131
0.00188964
0.0018782
0.00186703
0.00185608
0.00184538
0.00183487
0.00182456
0.0018144
0.00180438
0.00179446
0.00178459
0.00177475
0.00176487
0.00175492
0.00174481
0.0017345
0.00172391
0.00171298
0.00170164
0.00168985
0.00167751
0.00166462
0.00165113
0.001637
0.00162222
0.00160679
0.0015907
0.00157395
0.00155656
0.00153853
0.00151987
0.0015006
0.00148072
0.00146025
0.0014392
0.00141758
0.00139543
0.00137276
0.00134958
0.00132595
0.00130186
0.00127734
0.00125248
0.00122725
0.00120171
0.00117588
0.00114981
0.00112352
0.00109707
0.00107047
0.00104382
0.00101704
0.000990324
0.00096364
0.000937022
0.000910648
0.000884353
0.000858467
0.000832746
0.00080755
0.000782659
0.000758375
0.000734582
0.000711779
0.000689439
0.000669127
0.000649288
0.000630922
0.000613941
0.000598265
0.000583292
0.000568892
0.000554221
0.000539268
0.000523925
0.000508009
0.000491521
0.000474536
0.000457141
0.000439431
0.000421498
0.000403429
0.000385304
0.000367189
0.000349141
0.000331204
0.000313412
0.000295787
0.000278337
0.000261061
0.000243944
0.000226967
0.0002101
0.000193308
0.000176572
0.000159855
0.000143137
0.0001264
0.000109634
9.28298e-05
7.59847e-05
5.90977e-05
4.2165e-05
2.51724e-05
8.17034e-06
0.00372297
0.00370485
0.00368707
0.00366984
0.00365243
0.00363494
0.00361741
0.00359983
0.00358226
0.00356471
0.00354721
0.00352978
0.00351241
0.00349511
0.0034779
0.00346076
0.00344369
0.0034267
0.00340978
0.00339292
0.00337612
0.00335938
0.0033427
0.00332608
0.00330951
0.00329301
0.00327656
0.00326019
0.00324389
0.00322767
0.00321155
0.00319552
0.00317962
0.0031638
0.00314816
0.00313263
0.00311692
0.00310093
0.00308457
0.00306766
0.00305011
0.00303164
0.00301228
0.00299205
0.00297099
0.00294917
0.00292666
0.00290351
0.00287984
0.0028557
0.00283115
0.00280627
0.0027811
0.00275569
0.00273006
0.00270425
0.00267829
0.0026522
0.00262606
0.00259983
0.00257366
0.00254747
0.00252137
0.00249542
0.00246962
0.00244409
0.00241874
0.00239374
0.00236902
0.00234466
0.0023207
0.00229709
0.00227397
0.0022513
0.00222913
0.00220753
0.00218651
0.00216611
0.00214638
0.00212732
0.00210893
0.00209121
0.00207414
0.0020577
0.00204183
0.0020265
0.00201165
0.00199725
0.0019832
0.0019695
0.0019561
0.00194297
0.00193009
0.00191748
0.00190507
0.00189294
0.00188101
0.00186934
0.00185788
0.00184668
0.00183566
0.00182486
0.00181423
0.00180374
0.00179338
0.00178306
0.00177279
0.00176247
0.00175205
0.00174147
0.00173066
0.00171954
0.00170807
0.00169617
0.0016838
0.00167089
0.00165743
0.00164339
0.00162874
0.00161349
0.00159763
0.00158116
0.0015641
0.00154646
0.00152824
0.00150946
0.00149013
0.00147025
0.00144985
0.00142892
0.00140748
0.00138556
0.00136319
0.00134033
0.00131708
0.00129343
0.00126941
0.00124507
0.00122041
0.00119547
0.00117029
0.00114488
0.00111927
0.0010935
0.00106759
0.0010416
0.00101548
0.000989358
0.000963248
0.000937162
0.000911257
0.000885405
0.000859869
0.000834461
0.000809502
0.000784807
0.000760654
0.000736926
0.000714178
0.000691797
0.000671347
0.000651292
0.000632595
0.000615263
0.000599178
0.000583707
0.00056873
0.000553481
0.000537994
0.000522193
0.000505914
0.000489166
0.000472026
0.000454573
0.000436884
0.000419034
0.000401096
0.000383131
0.000365192
0.000347323
0.000329558
0.000311923
0.000294434
0.000277096
0.000259908
0.000242858
0.000225928
0.000209093
0.000192337
0.000175616
0.000158926
0.000142244
0.000125557
0.000108855
9.21344e-05
7.53901e-05
5.86205e-05
4.18214e-05
2.49818e-05
8.11317e-06
0.00372266
0.00370458
0.00368691
0.00366982
0.00365254
0.00363517
0.00361776
0.00360029
0.00358279
0.00356531
0.00354786
0.00353046
0.00351312
0.00349584
0.00347863
0.00346149
0.00344442
0.00342742
0.00341049
0.00339361
0.00337678
0.00336001
0.00334329
0.00332662
0.00331
0.00329342
0.00327688
0.00326039
0.00324396
0.00322758
0.00321126
0.00319501
0.00317883
0.00316269
0.00314667
0.00313067
0.00311446
0.00309797
0.00308109
0.00306369
0.00304571
0.00302694
0.00300737
0.00298704
0.002966
0.0029443
0.00292202
0.0028992
0.00287594
0.0028523
0.0028283
0.00280407
0.00277957
0.00275486
0.00272997
0.0027049
0.00267969
0.00265435
0.00262891
0.00260342
0.00257793
0.00255238
0.00252686
0.00250145
0.00247617
0.00245108
0.00242614
0.00240147
0.00237705
0.00235295
0.00232919
0.00230575
0.00228274
0.00226015
0.00223802
0.00221642
0.00219534
0.00217485
0.00215497
0.00213572
0.00211712
0.00209916
0.00208182
0.00206509
0.00204893
0.00203331
0.00201815
0.00200345
0.0019891
0.00197509
0.00196137
0.00194791
0.00193467
0.00192167
0.00190885
0.00189628
0.00188389
0.00187175
0.00185979
0.0018481
0.00183657
0.00182529
0.00181416
0.00180319
0.00179234
0.00178154
0.00177078
0.00175995
0.00174901
0.0017379
0.00172652
0.00171483
0.00170277
0.00169027
0.00167731
0.00166383
0.00164982
0.00163527
0.00162016
0.00160451
0.0015883
0.00157154
0.00155424
0.00153643
0.0015181
0.00149928
0.00147997
0.00146016
0.00143987
0.00141911
0.0013979
0.00137626
0.00135418
0.00133169
0.00130884
0.00128565
0.00126211
0.00123828
0.00121418
0.00118983
0.00116525
0.00114047
0.0011155
0.00109037
0.00106513
0.00103977
0.00101426
0.000988718
0.000963159
0.000937589
0.000912138
0.00088673
0.000861518
0.000836409
0.000811662
0.000787156
0.000763122
0.000739469
0.000716765
0.000694421
0.000673816
0.000653609
0.0006346
0.000616845
0.000600202
0.000584072
0.000568346
0.000552406
0.000536292
0.00051995
0.00050326
0.000486245
0.000468974
0.000451507
0.000433897
0.000416198
0.000398461
0.000380726
0.000363027
0.000345393
0.000327845
0.0003104
0.000293069
0.000275855
0.000258756
0.000241763
0.000224864
0.000208044
0.000191291
0.000174572
0.00015789
0.000141229
0.000124581
0.000107943
9.13099e-05
7.46785e-05
5.80455e-05
4.14051e-05
2.47472e-05
8.0503e-06
0.00372251
0.00370448
0.00368687
0.00366987
0.00365268
0.0036354
0.00361806
0.00360066
0.00358323
0.0035658
0.0035484
0.00353103
0.00351372
0.00349646
0.00347927
0.00346214
0.00344508
0.00342807
0.00341113
0.00339424
0.0033774
0.0033606
0.00334384
0.00332712
0.00331044
0.00329378
0.00327715
0.00326055
0.00324398
0.00322744
0.00321092
0.00319444
0.00317798
0.00316154
0.00314513
0.00312868
0.00311202
0.00309505
0.00307771
0.00305988
0.00304154
0.0030225
0.00300277
0.00298236
0.00296135
0.00293979
0.00291773
0.00289525
0.00287238
0.00284921
0.00282576
0.00280211
0.00277826
0.00275421
0.00273001
0.00270564
0.00268114
0.00265651
0.00263178
0.00260698
0.00258212
0.0025572
0.0025323
0.00250746
0.00248273
0.00245812
0.00243359
0.00240927
0.00238518
0.00236135
0.00233781
0.00231454
0.00229164
0.00226913
0.00224704
0.00222543
0.00220429
0.00218368
0.00216365
0.00214421
0.00212537
0.00210713
0.0020895
0.00207245
0.00205597
0.00204
0.00202451
0.00200947
0.00199479
0.00198044
0.00196639
0.00195259
0.001939
0.00192564
0.00191243
0.00189946
0.00188664
0.00187405
0.00186163
0.00184945
0.00183744
0.00182565
0.00181402
0.00180253
0.00179117
0.00177984
0.00176853
0.00175714
0.00174562
0.0017339
0.00172191
0.00170961
0.00169694
0.00168385
0.00167032
0.0016563
0.00164179
0.0016268
0.00161131
0.00159534
0.00157888
0.00156193
0.0015445
0.00152661
0.00150825
0.00148945
0.0014702
0.00145051
0.00143037
0.00140981
0.00138885
0.00136748
0.00134573
0.00132362
0.00130116
0.0012784
0.00125533
0.001232
0.00120843
0.00118463
0.00116063
0.00113644
0.00111208
0.00108757
0.00106292
0.00103815
0.00101324
0.000988273
0.000963255
0.000938187
0.000913205
0.000888253
0.000863355
0.000838548
0.000814013
0.000789712
0.000765801
0.000742223
0.000719515
0.000697235
0.000676403
0.000656025
0.000636668
0.000618396
0.000601032
0.000584149
0.000567572
0.000550875
0.000534086
0.000517177
0.000500081
0.000482825
0.000465471
0.000448049
0.000430577
0.000413088
0.00039561
0.00037816
0.00036075
0.000343394
0.000326095
0.000308863
0.000291703
0.000274616
0.000257603
0.000240659
0.000223777
0.00020695
0.000190178
0.00017345
0.000156762
0.000140112
0.0001235
0.000106928
9.03916e-05
7.38847e-05
5.74039e-05
4.09413e-05
2.44836e-05
7.98845e-06
0.00372249
0.00370451
0.00368695
0.00367
0.00365285
0.00363562
0.00361833
0.00360097
0.00358358
0.00356619
0.00354882
0.00353149
0.0035142
0.00349697
0.0034798
0.00346269
0.00344564
0.00342865
0.00341171
0.00339481
0.00337796
0.00336114
0.00334435
0.00332759
0.00331085
0.00329412
0.00327741
0.0032607
0.00324399
0.00322728
0.00321057
0.00319386
0.00317715
0.0031604
0.00314362
0.00312674
0.00310965
0.00309226
0.00307449
0.00305629
0.00303762
0.00301837
0.00299848
0.00297801
0.00295703
0.0029356
0.00291375
0.00289159
0.00286911
0.00284638
0.00282345
0.00280035
0.00277708
0.00275365
0.00273009
0.00270637
0.00268253
0.00265857
0.00263449
0.00261036
0.00258612
0.00256184
0.00253755
0.00251332
0.00248915
0.00246496
0.00244086
0.00241694
0.00239322
0.00236973
0.00234646
0.00232339
0.00230063
0.00227821
0.00225617
0.00223454
0.00221334
0.00219262
0.00217241
0.00215275
0.00213367
0.00211512
0.00209715
0.00207974
0.00206288
0.00204653
0.00203064
0.0020152
0.00200014
0.00198543
0.00197101
0.00195685
0.0019429
0.00192918
0.00191561
0.00190225
0.00188903
0.00187602
0.00186316
0.00185052
0.00183803
0.00182574
0.00181359
0.00180157
0.00178965
0.00177775
0.00176585
0.00175385
0.0017417
0.00172935
0.00171672
0.0017038
0.00169053
0.0016769
0.00166286
0.00164839
0.00163349
0.00161816
0.00160239
0.00158616
0.00156953
0.00155248
0.001535
0.0015171
0.00149878
0.00148004
0.00146089
0.00144133
0.00142137
0.00140102
0.00138031
0.00135922
0.00133779
0.00131603
0.00129395
0.0012716
0.00124898
0.00122612
0.00120304
0.00117976
0.00115629
0.00113266
0.00110885
0.00108491
0.00106084
0.00103663
0.0010123
0.000987884
0.000963396
0.000938865
0.000914323
0.000889759
0.000865198
0.000840735
0.000816449
0.000792397
0.000768604
0.000745088
0.000722312
0.000700077
0.000678951
0.000658333
0.000638566
0.000619694
0.000601559
0.000583896
0.000566448
0.000548895
0.000531335
0.000513899
0.000496487
0.000479054
0.000461674
0.000444347
0.000427068
0.000409842
0.000392667
0.000375535
0.000358437
0.000341375
0.00032433
0.000307312
0.00029032
0.000273352
0.000256414
0.00023951
0.000222642
0.000205811
0.000189022
0.000172278
0.000155585
0.000138946
0.000122372
0.000105869
8.94294e-05
7.30502e-05
5.67283e-05
4.04543e-05
2.4211e-05
7.93795e-06
0.00372262
0.00370469
0.00368715
0.0036702
0.00365307
0.00363584
0.00361856
0.00360121
0.00358384
0.00356647
0.00354913
0.00353183
0.00351458
0.00349738
0.00348024
0.00346315
0.00344613
0.00342915
0.00341223
0.00339534
0.00337848
0.00336165
0.00334484
0.00332805
0.00331126
0.00329446
0.00327767
0.00326086
0.00324403
0.00322717
0.00321028
0.00319336
0.00317637
0.00315933
0.00314219
0.00312492
0.00310743
0.00308964
0.00307149
0.00305294
0.00303396
0.00301451
0.0029945
0.00297399
0.00295304
0.00293172
0.00291007
0.00288818
0.00286607
0.00284376
0.0028213
0.0027987
0.00277598
0.00275311
0.00273013
0.00270701
0.00268377
0.00266043
0.00263696
0.00261345
0.00258982
0.00256616
0.00254245
0.00251878
0.00249513
0.00247146
0.00244785
0.00242437
0.00240105
0.00237792
0.00235491
0.00233204
0.00230942
0.00228711
0.00226517
0.0022436
0.00222239
0.00220157
0.0021812
0.00216131
0.00214193
0.00212308
0.00210476
0.00208694
0.00206966
0.00205286
0.00203652
0.00202063
0.00200513
0.00198999
0.00197515
0.00196059
0.00194627
0.00193217
0.00191823
0.0019045
0.0018909
0.00187749
0.00186421
0.00185113
0.00183817
0.00182538
0.0018127
0.00180012
0.00178762
0.00177513
0.00176261
0.00174999
0.00173721
0.00172424
0.00171104
0.00169755
0.00168367
0.00166949
0.00165507
0.00164026
0.00162505
0.00160948
0.00159354
0.0015772
0.00156049
0.00154338
0.00152588
0.00150802
0.00148977
0.00147111
0.00145207
0.00143265
0.00141286
0.00139272
0.00137223
0.00135141
0.00133027
0.00130885
0.00128712
0.00126515
0.00124294
0.00122052
0.00119789
0.00117509
0.00115211
0.00112899
0.0011057
0.0010823
0.00105875
0.00103508
0.0010113
0.000987412
0.000963432
0.000939402
0.000915285
0.000891158
0.000866974
0.000842888
0.000818887
0.000794998
0.000771252
0.00074782
0.000724945
0.000702751
0.000681307
0.000660374
0.000640113
0.000620518
0.000601616
0.000583112
0.000564781
0.000546534
0.000528406
0.000510458
0.000492719
0.000475181
0.000457827
0.000440626
0.000423558
0.000406609
0.000389745
0.000372933
0.00035614
0.000339371
0.000322562
0.000305741
0.000288904
0.000272049
0.000255182
0.000238315
0.000221458
0.000204623
0.000187822
0.000171069
0.000154379
0.000137763
0.000121233
0.000104797
8.84569e-05
7.22106e-05
5.60533e-05
3.99751e-05
2.3965e-05
7.91754e-06
0.0037229
0.00370502
0.00368747
0.0036705
0.00365332
0.00363605
0.00361874
0.00360138
0.00358401
0.00356665
0.00354933
0.00353206
0.00351484
0.00349768
0.00348058
0.00346354
0.00344654
0.0034296
0.00341269
0.00339582
0.00337898
0.00336215
0.00334533
0.00332851
0.00331168
0.00329483
0.00327797
0.00326107
0.00324412
0.00322713
0.00321007
0.00319294
0.00317571
0.0031584
0.00314095
0.00312331
0.00310544
0.00308728
0.00306877
0.0030499
0.00303063
0.00301096
0.00299081
0.00297025
0.00294934
0.00292812
0.00290665
0.00288502
0.00286322
0.0028413
0.00281926
0.00279712
0.00277488
0.00275252
0.00273007
0.00270749
0.00268481
0.00266204
0.00263913
0.0026162
0.00259314
0.00257006
0.00254692
0.00252378
0.00250065
0.0024775
0.0024544
0.00243135
0.0024084
0.00238559
0.00236289
0.00234033
0.00231795
0.00229581
0.00227398
0.00225245
0.00223123
0.00221034
0.00218982
0.0021697
0.00215002
0.00213085
0.00211218
0.00209399
0.00207628
0.00205901
0.00204218
0.00202579
0.00200981
0.00199419
0.0019789
0.0019639
0.00194916
0.00193467
0.00192036
0.00190623
0.00189225
0.00187844
0.00186476
0.00185124
0.00183784
0.00182456
0.00181137
0.00179825
0.00178514
0.00177198
0.00175877
0.00174553
0.00173218
0.00171864
0.0017049
0.00169091
0.00167663
0.00166209
0.00164729
0.00163218
0.00161675
0.00160104
0.00158499
0.00156858
0.00155183
0.00153472
0.00151725
0.00149942
0.00148123
0.00146266
0.00144373
0.00142444
0.00140481
0.00138485
0.00136457
0.00134399
0.00132311
0.00130198
0.00128058
0.00125896
0.00123712
0.00121509
0.00119288
0.00117052
0.00114799
0.00112534
0.00110254
0.00107963
0.00105658
0.00103342
0.00101014
0.000986765
0.000963271
0.000939723
0.000916041
0.00089235
0.000868538
0.000844785
0.000821007
0.000797304
0.000773701
0.000750363
0.000727367
0.0007051
0.000683245
0.000661918
0.000641157
0.000620958
0.000601297
0.000581998
0.000562877
0.000544
0.000525379
0.000507048
0.000489065
0.000471429
0.000454106
0.000437048
0.000420208
0.00040353
0.000386958
0.000370436
0.000353921
0.000337387
0.000320791
0.000304144
0.00028744
0.000270681
0.000253879
0.000237049
0.000220209
0.000203381
0.000186584
0.00016984
0.000153171
0.000136593
0.000120122
0.000103767
8.75337e-05
7.1421e-05
5.54245e-05
3.95363e-05
2.375e-05
7.9166e-06
0.00372339
0.00370556
0.00368795
0.00367087
0.0036536
0.00363625
0.00361887
0.00360147
0.00358408
0.00356673
0.00354942
0.0035322