/*--------------------------------*- C++ -*----------------------------------*\
| =========                 |                                                 |
| \\      /  F ield         | OpenFOAM: The Open Source CFD Toolbox           |
|  \\    /   O peration     | Version:  2506                                  |
|   \\  /    A nd           | Website:  www.openfoam.com                      |
|    \\/     M anipulation  |                                                 |
\*---------------------------------------------------------------------------*/
FoamFile
{
    version     2.0;
    format      ascii;
    arch        "LSB;label=32;scalar=64";
    class       volScalarField;
    location    "3.6";
    object      p;
}
// * * * * * * * * * * * * * * * * * * * * * * * * * * * * * * * * * * * * * //

dimensions      [0 2 -2 0 0 0 0];

internalField   nonuniform List<scalar> 
4000
(
-0.000151367
-7.75677e-05
-5.26472e-05
-4.49195e-05
-3.84605e-05
-3.33871e-05
-2.99987e-05
-2.76266e-05
-2.58841e-05
-2.46514e-05
-2.38542e-05
-2.34265e-05
-2.33212e-05
-2.35073e-05
-2.39637e-05
-2.4677e-05
-2.56404e-05
-2.68532e-05
-2.83202e-05
-3.00523e-05
-3.20664e-05
-3.43861e-05
-3.70433e-05
-4.00794e-05
-4.35478e-05
-4.75176e-05
-5.20795e-05
-5.7354e-05
-6.35055e-05
-7.06947e-05
-7.93733e-05
-9.16007e-05
-0.000105397
-0.000119284
-0.000133256
-0.000147442
-0.000161258
-0.000176416
-0.000187296
-0.000192052
-0.000195442
-0.000197321
-0.000197594
-0.000196648
-0.000194757
-0.00019213
-0.000188806
-0.000185278
-0.000181322
-0.000176802
-0.000171396
-0.000164525
-0.000157567
-0.0001482
-0.000137499
-0.000123186
-0.000106674
-8.54948e-05
-6.09599e-05
-3.52517e-05
-9.94979e-06
1.4362e-05
3.53394e-05
5.39202e-05
6.93293e-05
8.29593e-05
9.45173e-05
0.00010393
0.00011149
0.000117281
0.000121404
0.000123962
0.000125061
0.000124783
0.000123195
0.000120351
0.000116286
0.000110995
0.000104519
9.68632e-05
8.8006e-05
7.78455e-05
6.64377e-05
5.36713e-05
3.96178e-05
2.42454e-05
7.89201e-06
-9.08727e-06
-2.6265e-05
-4.29595e-05
-5.85161e-05
-7.27831e-05
-8.49674e-05
-9.51199e-05
-0.000103322
-0.000110363
-0.000116679
-0.000122453
-0.000128054
-0.000133448
-0.000138458
-0.000142788
-0.000146064
-0.000148021
-0.00014849
-0.00014737
-0.000144617
-0.000140146
-0.000133964
-0.000126284
-0.000116808
-0.00010454
-9.17266e-05
-7.5519e-05
-5.94812e-05
-4.14972e-05
-2.29303e-05
-4.9387e-06
1.28741e-05
3.08224e-05
4.63562e-05
6.10032e-05
7.40691e-05
8.61572e-05
9.65319e-05
0.000105531
0.000113139
0.000119237
0.000123882
0.00012716
0.00012911
0.000129769
0.000129177
0.000127352
0.000124323
0.000120105
0.0001147
0.000108099
0.00010022
9.11009e-05
8.07106e-05
6.88944e-05
5.57713e-05
4.12287e-05
2.55055e-05
8.90934e-06
-8.15331e-06
-2.5055e-05
-4.10646e-05
-5.58015e-05
-6.88075e-05
-7.96482e-05
-8.82899e-05
-9.52155e-05
-0.000100822
-0.000105787
-0.000110381
-0.00011452
-0.000117954
-0.000120388
-0.000121023
-0.000118089
-0.000110044
-8.92241e-05
-7.9957e-05
-7.30324e-05
-6.24238e-05
-5.09027e-05
-3.95238e-05
-2.9135e-05
-2.2101e-05
-1.85562e-05
-1.47556e-05
-1.10237e-05
-7.71956e-06
-4.67945e-06
-1.76325e-06
1.06838e-06
3.83882e-06
6.57953e-06
9.3306e-06
1.21239e-05
1.49918e-05
1.79698e-05
2.11044e-05
2.44154e-05
2.79226e-05
3.16617e-05
3.5669e-05
3.99891e-05
4.46836e-05
4.98425e-05
5.56072e-05
6.22198e-05
7.01388e-05
8.03218e-05
9.49233e-05
0.000119363
0.000169194
0.000276369
-9.62037e-05
-6.70174e-05
-5.26784e-05
-4.50009e-05
-3.92083e-05
-3.46253e-05
-3.12178e-05
-2.86882e-05
-2.68069e-05
-2.54545e-05
-2.45492e-05
-2.40257e-05
-2.38356e-05
-2.39447e-05
-2.43297e-05
-2.49751e-05
-2.58723e-05
-2.70192e-05
-2.84192e-05
-3.00817e-05
-3.20221e-05
-3.42622e-05
-3.68316e-05
-3.97687e-05
-4.31232e-05
-4.69587e-05
-5.13579e-05
-5.64293e-05
-6.232e-05
-6.91993e-05
-7.73755e-05
-8.79994e-05
-9.98593e-05
-0.000112035
-0.000124415
-0.000137051
-0.000149353
-0.000161626
-0.000170416
-0.000175443
-0.000179203
-0.000181523
-0.00018229
-0.000181873
-0.000180533
-0.000178426
-0.000175681
-0.00017246
-0.000168544
-0.000163882
-0.000158242
-0.000151467
-0.000143939
-0.000134652
-0.000124152
-0.000111516
-9.76164e-05
-8.16716e-05
-6.41296e-05
-4.56851e-05
-2.64609e-05
-5.18088e-06
1.47671e-05
3.41514e-05
5.0864e-05
6.56944e-05
7.83506e-05
8.88159e-05
9.74291e-05
0.00010428
0.000109452
0.000113031
0.000115112
0.00011577
0.000115074
0.000113082
0.000109837
0.000105332
9.96061e-05
9.26685e-05
8.45144e-05
7.50476e-05
6.43309e-05
5.22542e-05
3.8902e-05
2.42329e-05
8.5457e-06
-7.77539e-06
-2.41944e-05
-3.99937e-05
-5.45668e-05
-6.76222e-05
-7.89291e-05
-8.84439e-05
-9.64029e-05
-0.000103401
-0.00010979
-0.000115778
-0.000121399
-0.000126501
-0.000130896
-0.000134379
-0.000136634
-0.000137489
-0.000136872
-0.000134755
-0.000131133
-0.00012597
-0.00011932
-0.000111292
-0.000101675
-9.01499e-05
-7.79501e-05
-6.41355e-05
-5.04717e-05
-3.62175e-05
-2.18934e-05
-8.38989e-06
4.63815e-06
1.85136e-05
3.21762e-05
4.61818e-05
5.92352e-05
7.15472e-05
8.22936e-05
9.17086e-05
9.97992e-05
0.000106466
0.000111731
0.000115642
0.000118226
0.000119514
0.000119542
0.000118326
0.000115889
0.000112247
0.000107405
0.000101368
9.40497e-05
8.54827e-05
7.56652e-05
6.44351e-05
5.19364e-05
3.8066e-05
2.30347e-05
7.1492e-06
-9.13249e-06
-2.51149e-05
-4.00329e-05
-5.34685e-05
-6.50938e-05
-7.46113e-05
-8.23254e-05
-8.87793e-05
-9.42815e-05
-9.91561e-05
-0.000103424
-0.000106883
-0.000109148
-0.000109644
-0.000107433
-0.000101443
-9.09988e-05
-7.57179e-05
-6.84342e-05
-6.17288e-05
-5.25378e-05
-4.32501e-05
-3.45895e-05
-2.69059e-05
-2.12078e-05
-1.75664e-05
-1.39774e-05
-1.04591e-05
-7.23592e-06
-4.22696e-06
-1.33748e-06
1.46791e-06
4.21559e-06
6.94344e-06
9.69022e-06
1.24911e-05
1.53801e-05
1.83906e-05
2.15413e-05
2.48623e-05
2.83885e-05
3.21488e-05
3.61782e-05
4.05224e-05
4.5244e-05
5.04326e-05
5.62242e-05
6.28401e-05
7.06711e-05
8.04658e-05
9.36924e-05
0.000112938
0.000141514
0.000188154
-6.72695e-05
-5.75953e-05
-4.9766e-05
-4.36918e-05
-3.87826e-05
-3.47539e-05
-3.15537e-05
-2.90785e-05
-2.72051e-05
-2.58364e-05
-2.4899e-05
-2.4335e-05
-2.41002e-05
-2.4162e-05
-2.44973e-05
-2.50904e-05
-2.59326e-05
-2.70209e-05
-2.83578e-05
-2.99516e-05
-3.18161e-05
-3.39715e-05
-3.64449e-05
-3.92717e-05
-4.24974e-05
-4.61797e-05
-5.03921e-05
-5.52292e-05
-6.08152e-05
-6.72893e-05
-7.48388e-05
-8.4135e-05
-9.44864e-05
-0.000105281
-0.00011636
-0.000127675
-0.000138725
-0.000149147
-0.000156682
-0.000161579
-0.000165337
-0.00016776
-0.000168711
-0.000168513
-0.000167384
-0.00016542
-0.000162697
-0.000159246
-0.000155001
-0.000149958
-0.000143896
-0.000136773
-0.000128741
-0.000119473
-0.000109397
-9.84262e-05
-8.69128e-05
-7.45768e-05
-6.18239e-05
-4.82033e-05
-3.37882e-05
-1.67419e-05
2.10528e-07
1.82402e-05
3.45757e-05
4.9756e-05
6.31313e-05
7.44201e-05
8.39389e-05
9.17262e-05
9.78308e-05
0.000102336
0.000105324
0.000106862
0.000107014
0.000105834
0.000103374
9.96262e-05
9.46345e-05
8.84087e-05
8.09529e-05
7.21748e-05
6.2146e-05
5.07543e-05
3.80961e-05
2.41391e-05
9.18932e-06
-6.35656e-06
-2.19563e-05
-3.69202e-05
-5.07455e-05
-6.3079e-05
-7.38596e-05
-8.315e-05
-9.11136e-05
-9.82054e-05
-0.000104592
-0.000110294
-0.000115507
-0.000119999
-0.000123523
-0.000125944
-0.000127093
-0.000126886
-0.000125298
-0.00012232
-0.00011795
-0.000112182
-0.000105097
-9.67678e-05
-8.70979e-05
-7.62311e-05
-6.51832e-05
-5.34943e-05
-4.20619e-05
-3.07359e-05
-1.97347e-05
-9.34469e-06
6.72249e-07
1.14945e-05
2.27998e-05
3.50149e-05
4.69563e-05
5.87202e-05
6.93734e-05
7.89399e-05
8.73571e-05
9.44552e-05
0.000100222
0.000104681
0.000107838
0.000109704
0.000110313
0.000109674
0.000107803
0.000104722
0.000100428
9.49393e-05
8.81721e-05
8.01623e-05
7.09226e-05
6.0301e-05
4.84577e-05
3.52997e-05
2.10497e-05
6.03442e-06
-9.29197e-06
-2.42317e-05
-3.81209e-05
-5.05206e-05
-6.12131e-05
-7.01837e-05
-7.75771e-05
-8.38316e-05
-8.91294e-05
-9.35774e-05
-9.70153e-05
-9.91936e-05
-9.96247e-05
-9.77301e-05
-9.307e-05
-8.54553e-05
-7.55163e-05
-6.4245e-05
-5.81207e-05
-5.19392e-05
-4.43256e-05
-3.70556e-05
-3.05532e-05
-2.48843e-05
-2.02418e-05
-1.6585e-05
-1.31273e-05
-9.78823e-06
-6.66777e-06
-3.72691e-06
-8.97781e-07
1.85798e-06
4.56976e-06
7.27394e-06
1.00057e-05
1.2801e-05
1.56902e-05
1.86997e-05
2.18552e-05
2.51856e-05
2.87192e-05
3.2484e-05
3.65149e-05
4.08568e-05
4.55693e-05
5.07349e-05
5.64706e-05
6.29492e-05
7.04366e-05
7.93639e-05
9.04063e-05
0.00010414
0.000119285
0.000137001
-5.35485e-05
-4.95942e-05
-4.51869e-05
-4.08487e-05
-3.70066e-05
-3.36927e-05
-3.09343e-05
-2.87204e-05
-2.70023e-05
-2.57229e-05
-2.48314e-05
-2.42847e-05
-2.40476e-05
-2.40931e-05
-2.4401e-05
-2.49575e-05
-2.57547e-05
-2.67896e-05
-2.80645e-05
-2.95866e-05
-3.13685e-05
-3.34285e-05
-3.5791e-05
-3.84882e-05
-4.15607e-05
-4.506e-05
-4.90506e-05
-5.36139e-05
-5.88539e-05
-6.48849e-05
-7.18432e-05
-8.01531e-05
-8.93498e-05
-9.90034e-05
-0.000108951
-0.00011912
-0.000129028
-0.000138147
-0.000144867
-0.000149547
-0.000153176
-0.000155544
-0.00015651
-0.000156367
-0.000155282
-0.000153302
-0.000150471
-0.000146804
-0.000142299
-0.000136855
-0.000130378
-0.000122951
-0.000114672
-0.000105519
-9.58605e-05
-8.58599e-05
-7.58993e-05
-6.56702e-05
-5.54259e-05
-4.499e-05
-3.3884e-05
-2.08285e-05
-6.9349e-06
8.51701e-06
2.35897e-05
3.78422e-05
5.11524e-05
6.27383e-05
7.27733e-05
8.11812e-05
8.79497e-05
9.31505e-05
9.68467e-05
9.90914e-05
9.9941e-05
9.94444e-05
9.7651e-05
9.45528e-05
9.01973e-05
8.45938e-05
7.77457e-05
6.95714e-05
6.01494e-05
4.9374e-05
3.73497e-05
2.40643e-05
9.82653e-06
-4.9654e-06
-1.97819e-05
-3.39746e-05
-4.70841e-05
-5.88511e-05
-6.91682e-05
-7.81521e-05
-8.59988e-05
-9.29452e-05
-9.90868e-05
-0.000104449
-0.000109107
-0.000112857
-0.000115533
-0.000117047
-0.000117311
-0.000116293
-0.000113986
-0.000110397
-0.000105548
-9.94589e-05
-9.22459e-05
-8.40138e-05
-7.48338e-05
-6.4985e-05
-5.50711e-05
-4.49468e-05
-3.51491e-05
-2.56709e-05
-1.66398e-05
-8.05133e-06
3.21786e-07
9.1363e-06
1.83681e-05
2.86093e-05
3.90802e-05
4.97437e-05
5.98596e-05
6.91969e-05
7.76398e-05
8.4912e-05
9.0951e-05
9.57601e-05
9.93211e-05
0.00010162
0.000102677
0.000102498
0.00010109
9.8474e-05
9.46427e-05
8.96162e-05
8.33187e-05
7.5787e-05
6.70401e-05
5.69393e-05
4.56498e-05
3.31013e-05
1.9526e-05
5.26386e-06
-9.20851e-06
-2.32195e-05
-3.61566e-05
-4.76898e-05
-5.76267e-05
-6.59704e-05
-7.29007e-05
-7.8722e-05
-8.35037e-05
-8.71272e-05
-8.94337e-05
-9.01515e-05
-8.89e-05
-8.53454e-05
-7.96168e-05
-7.21416e-05
-6.37941e-05
-5.51539e-05
-4.9774e-05
-4.42899e-05
-3.80537e-05
-3.2255e-05
-2.71049e-05
-2.25674e-05
-1.86422e-05
-1.52386e-05
-1.20203e-05
-8.91314e-06
-5.96029e-06
-3.14301e-06
-4.09888e-07
2.27352e-06
4.93158e-06
7.59554e-06
1.0298e-05
1.30713e-05
1.59423e-05
1.89331e-05
2.20701e-05
2.53813e-05
2.88909e-05
3.2626e-05
3.66187e-05
4.09096e-05
4.55508e-05
5.06099e-05
5.61737e-05
6.23508e-05
6.9268e-05
7.70556e-05
8.57842e-05
9.52013e-05
0.000104303
0.000112599
-4.49159e-05
-4.3094e-05
-4.05583e-05
-3.75787e-05
-3.46964e-05
-3.20684e-05
-2.97919e-05
-2.79035e-05
-2.64005e-05
-2.52608e-05
-2.44564e-05
-2.39594e-05
-2.37448e-05
-2.37921e-05
-2.40855e-05
-2.46138e-05
-2.53706e-05
-2.63535e-05
-2.75647e-05
-2.90108e-05
-3.07031e-05
-3.2658e-05
-3.48976e-05
-3.74506e-05
-4.03531e-05
-4.36508e-05
-4.74001e-05
-5.16718e-05
-5.65539e-05
-6.2143e-05
-6.85485e-05
-7.60511e-05
-8.42921e-05
-9.29602e-05
-0.000101914
-0.000111076
-0.000119978
-0.000128066
-0.000134131
-0.000138516
-0.000141915
-0.000144123
-0.000144993
-0.000144789
-0.000143639
-0.000141558
-0.000138574
-0.000134687
-0.000129897
-0.000124144
-0.000117429
-0.000109897
-0.000101659
-9.28404e-05
-8.37662e-05
-7.46622e-05
-6.57668e-05
-5.70538e-05
-4.85208e-05
-4.00295e-05
-3.11748e-05
-2.10234e-05
-9.98044e-06
2.54589e-06
1.56609e-05
2.85713e-05
4.09855e-05
5.22633e-05
6.2386e-05
7.11218e-05
7.83492e-05
8.41064e-05
8.8414e-05
9.12944e-05
9.27906e-05
9.2942e-05
9.17936e-05
8.93329e-05
8.56073e-05
8.06264e-05
7.43908e-05
6.68315e-05
5.80268e-05
4.78861e-05
3.65141e-05
2.3923e-05
1.04131e-05
-3.61778e-06
-1.7654e-05
-3.10954e-05
-4.35321e-05
-5.4722e-05
-6.46095e-05
-7.32899e-05
-8.08713e-05
-8.75517e-05
-9.331e-05
-9.82043e-05
-0.000102235
-0.000105245
-0.000107144
-0.000107882
-0.000107423
-0.000105766
-0.000102924
-9.89256e-05
-9.38151e-05
-8.76451e-05
-8.05667e-05
-7.27235e-05
-6.42617e-05
-5.54374e-05
-4.66485e-05
-3.78787e-05
-2.94488e-05
-2.13638e-05
-1.36733e-05
-6.3425e-06
9.29367e-07
8.37337e-06
1.60446e-05
2.45046e-05
3.34409e-05
4.28277e-05
5.19696e-05
6.07034e-05
6.88665e-05
7.61013e-05
8.22433e-05
8.72662e-05
9.11307e-05
9.37829e-05
9.52253e-05
9.54571e-05
9.44723e-05
9.22932e-05
8.89039e-05
8.43236e-05
7.84849e-05
7.14217e-05
6.31597e-05
5.35804e-05
4.28431e-05
3.09171e-05
1.80386e-05
4.56174e-06
-9.02497e-06
-2.20913e-05
-3.41201e-05
-4.47989e-05
-5.39638e-05
-6.16152e-05
-6.80083e-05
-7.33127e-05
-7.72847e-05
-7.9905e-05
-8.10382e-05
-8.04693e-05
-7.80116e-05
-7.36152e-05
-6.77978e-05
-6.11723e-05
-5.43681e-05
-4.74593e-05
-4.27332e-05
-3.80236e-05
-3.29401e-05
-2.82544e-05
-2.40526e-05
-2.028e-05
-1.69018e-05
-1.38112e-05
-1.08449e-05
-7.96825e-06
-5.19846e-06
-2.5196e-06
1.03047e-07
2.69656e-06
5.28367e-06
7.89096e-06
1.05463e-05
1.32764e-05
1.61056e-05
1.90564e-05
2.21523e-05
2.54164e-05
2.88708e-05
3.25389e-05
3.6448e-05
4.0631e-05
4.51278e-05
4.99859e-05
5.52562e-05
6.0982e-05
6.71708e-05
7.37433e-05
8.04517e-05
8.68239e-05
9.20957e-05
9.65128e-05
-3.87081e-05
-3.78912e-05
-3.64064e-05
-3.43681e-05
-3.22306e-05
-3.01891e-05
-2.83488e-05
-2.67799e-05
-2.55043e-05
-2.45222e-05
-2.38233e-05
-2.33926e-05
-2.32142e-05
-2.32741e-05
-2.35608e-05
-2.40661e-05
-2.47851e-05
-2.57164e-05
-2.68624e-05
-2.82291e-05
-2.9827e-05
-3.16706e-05
-3.37798e-05
-3.61803e-05
-3.89043e-05
-4.19922e-05
-4.5494e-05
-4.94715e-05
-5.4001e-05
-5.91663e-05
-6.50594e-05
-7.18662e-05
-7.92919e-05
-8.71025e-05
-9.51807e-05
-0.000103448
-0.000111454
-0.000118664
-0.00012414
-0.000128181
-0.000131293
-0.00013328
-0.000133981
-0.000133638
-0.000132352
-0.000130115
-0.000126939
-0.000122842
-0.000117828
-0.0001119
-0.000105121
-9.76762e-05
-8.97063e-05
-8.14016e-05
-7.30442e-05
-6.48537e-05
-5.69713e-05
-4.94445e-05
-4.2204e-05
-3.51244e-05
-2.78345e-05
-1.96862e-05
-1.07975e-05
-7.63691e-07
1.00415e-05
2.14207e-05
3.25897e-05
4.32806e-05
5.30007e-05
6.16923e-05
6.9089e-05
7.51897e-05
7.99726e-05
8.34029e-05
8.54888e-05
8.6251e-05
8.57251e-05
8.38926e-05
8.07956e-05
7.64435e-05
7.08338e-05
6.39098e-05
5.5742e-05
4.62614e-05
3.55663e-05
2.36967e-05
1.09376e-05
-2.31907e-06
-1.55751e-05
-2.82793e-05
-4.00545e-05
-5.06869e-05
-6.01359e-05
-6.84268e-05
-7.56739e-05
-8.1942e-05
-8.72405e-05
-9.15966e-05
-9.49815e-05
-9.73035e-05
-9.85166e-05
-9.86138e-05
-9.75861e-05
-9.54571e-05
-9.22559e-05
-8.8032e-05
-8.28541e-05
-7.68015e-05
-7.00522e-05
-6.2764e-05
-5.50973e-05
-4.7266e-05
-3.9554e-05
-3.19818e-05
-2.47369e-05
-1.78166e-05
-1.12132e-05
-4.85344e-06
1.48753e-06
7.92017e-06
1.45152e-05
2.15948e-05
2.91436e-05
3.725e-05
4.53438e-05
5.33819e-05
6.08974e-05
6.78468e-05
7.39004e-05
7.89789e-05
8.30437e-05
8.59807e-05
8.7757e-05
8.83603e-05
8.77713e-05
8.60098e-05
8.30526e-05
7.89155e-05
7.35405e-05
6.69548e-05
5.91912e-05
5.01605e-05
4.00057e-05
2.87456e-05
1.66137e-05
3.96824e-06
-8.70895e-06
-2.0841e-05
-3.19724e-05
-4.17914e-05
-5.01176e-05
-5.71177e-05
-6.29828e-05
-6.74628e-05
-7.05181e-05
-7.21553e-05
-7.22701e-05
-7.07629e-05
-6.76443e-05
-6.30623e-05
-5.76918e-05
-5.20763e-05
-4.65322e-05
-4.08617e-05
-3.67702e-05
-3.28012e-05
-2.86441e-05
-2.48105e-05
-2.132e-05
-1.81231e-05
-1.51838e-05
-1.24032e-05
-9.68474e-06
-7.02364e-06
-4.43289e-06
-1.89838e-06
6.04023e-07
3.09567e-06
5.59666e-06
8.12943e-06
1.07176e-05
1.33843e-05
1.61513e-05
1.90393e-05
2.20679e-05
2.52561e-05
2.86219e-05
3.21833e-05
3.59602e-05
3.99749e-05
4.42519e-05
4.88152e-05
5.36802e-05
5.88346e-05
6.42013e-05
6.95839e-05
7.46141e-05
7.88424e-05
8.18125e-05
8.38466e-05
-3.39947e-05
-3.36361e-05
-3.27357e-05
-3.13381e-05
-2.97507e-05
-2.81723e-05
-2.67078e-05
-2.54284e-05
-2.43696e-05
-2.35453e-05
-2.29569e-05
-2.2599e-05
-2.24636e-05
-2.2542e-05
-2.28265e-05
-2.33118e-05
-2.39947e-05
-2.48747e-05
-2.59546e-05
-2.72401e-05
-2.87408e-05
-3.04699e-05
-3.24454e-05
-3.46901e-05
-3.72331e-05
-4.01105e-05
-4.33667e-05
-4.70562e-05
-5.1246e-05
-5.60107e-05
-6.14299e-05
-6.76195e-05
-7.43317e-05
-8.1383e-05
-8.86775e-05
-9.61356e-05
-0.000103331
-0.000109766
-0.000114694
-0.000118367
-0.000121165
-0.000122895
-0.000123381
-0.00012285
-0.000121385
-0.000118969
-0.000115607
-0.000111337
-0.000106187
-0.000100212
-9.35233e-05
-8.63321e-05
-7.87947e-05
-7.1122e-05
-6.35501e-05
-5.62673e-05
-4.93533e-05
-4.28613e-05
-3.67093e-05
-3.07235e-05
-2.45968e-05
-1.79247e-05
-1.0596e-05
-2.37097e-06
6.56101e-06
1.61589e-05
2.60273e-05
3.57759e-05
4.48972e-05
5.33219e-05
6.06943e-05
6.68896e-05
7.19343e-05
7.57589e-05
7.83259e-05
7.96211e-05
7.96609e-05
7.84168e-05
7.59204e-05
7.21786e-05
6.71843e-05
6.08933e-05
5.33633e-05
4.45501e-05
3.45428e-05
2.34092e-05
1.14148e-05
-1.05905e-06
-1.35348e-05
-2.55059e-05
-3.66276e-05
-4.67111e-05
-5.56567e-05
-6.35139e-05
-7.03292e-05
-7.60964e-05
-8.09174e-05
-8.4708e-05
-8.74778e-05
-8.91892e-05
-8.98317e-05
-8.94232e-05
-8.79746e-05
-8.55262e-05
-8.21223e-05
-7.78321e-05
-7.27442e-05
-6.69575e-05
-6.06614e-05
-5.4008e-05
-4.7147e-05
-4.0254e-05
-3.3535e-05
-2.70169e-05
-2.08061e-05
-1.4891e-05
-9.22686e-06
-3.71626e-06
1.81303e-06
7.42113e-06
1.32047e-05
1.93411e-05
2.58227e-05
3.27422e-05
3.98741e-05
4.71242e-05
5.40562e-05
6.0606e-05
6.64308e-05
7.1349e-05
7.54206e-05
7.85196e-05
8.055e-05
8.14654e-05
8.12269e-05
7.98466e-05
7.72952e-05
7.35814e-05
6.8658e-05
6.25437e-05
5.52765e-05
4.68026e-05
3.72437e-05
2.6669e-05
1.53056e-05
3.50863e-06
-8.25513e-06
-1.94688e-05
-2.96908e-05
-3.85619e-05
-4.61588e-05
-5.26155e-05
-5.76432e-05
-6.12338e-05
-6.34323e-05
-6.42377e-05
-6.35955e-05
-6.1537e-05
-5.82146e-05
-5.38585e-05
-4.91406e-05
-4.44602e-05
-3.99053e-05
-3.51842e-05
-3.16845e-05
-2.83646e-05
-2.4941e-05
-2.17698e-05
-1.88332e-05
-1.60928e-05
-1.35206e-05
-1.10326e-05
-8.55405e-06
-6.10037e-06
-3.68654e-06
-1.30215e-06
1.07076e-06
3.44886e-06
5.84912e-06
8.2906e-06
1.07935e-05
1.33777e-05
1.60621e-05
1.88644e-05
2.18004e-05
2.48845e-05
2.81293e-05
3.15461e-05
3.51457e-05
3.89379e-05
4.29305e-05
4.71246e-05
5.15052e-05
5.60208e-05
6.05489e-05
6.4857e-05
6.85954e-05
7.13769e-05
7.31192e-05
7.39453e-05
-3.01921e-05
-3.00275e-05
-2.94587e-05
-2.84764e-05
-2.73016e-05
-2.60864e-05
-2.49341e-05
-2.39056e-05
-2.30417e-05
-2.23644e-05
-2.18823e-05
-2.1597e-05
-2.15056e-05
-2.1604e-05
-2.1888e-05
-2.23545e-05
-2.30018e-05
-2.38305e-05
-2.48436e-05
-2.60469e-05
-2.74491e-05
-2.90624e-05
-3.09031e-05
-3.29918e-05
-3.53548e-05
-3.80244e-05
-4.10403e-05
-4.44507e-05
-4.83148e-05
-5.27001e-05
-5.76759e-05
-6.33052e-05
-6.93765e-05
-7.57405e-05
-8.23217e-05
-8.90401e-05
-9.54945e-05
-0.000101232
-0.000105646
-0.000108946
-0.000111421
-0.000112878
-0.000113124
-0.000112382
-0.000110727
-0.000108128
-0.000104606
-0.000100221
-9.5031e-05
-8.91317e-05
-8.26666e-05
-7.58585e-05
-6.88644e-05
-6.189e-05
-5.51238e-05
-4.87165e-05
-4.27067e-05
-3.71341e-05
-3.19073e-05
-2.6851e-05
-2.16935e-05
-1.61669e-05
-1.00673e-05
-3.22841e-06
4.28119e-06
1.24092e-05
2.09426e-05
2.95358e-05
3.79542e-05
4.58421e-05
5.30411e-05
5.92919e-05
6.44685e-05
6.85366e-05
7.14567e-05
7.31859e-05
7.37155e-05
7.30035e-05
7.10663e-05
6.79045e-05
6.35049e-05
5.78345e-05
5.09368e-05
4.27916e-05
3.34782e-05
2.30885e-05
1.18685e-05
1.84454e-07
-1.15116e-05
-2.27549e-05
-3.32343e-05
-4.27129e-05
-5.11258e-05
-5.85274e-05
-6.4823e-05
-7.011e-05
-7.44148e-05
-7.76464e-05
-7.98625e-05
-8.10577e-05
-8.12452e-05
-8.04579e-05
-7.87201e-05
-7.60846e-05
-7.26091e-05
-6.83796e-05
-6.34985e-05
-5.80761e-05
-5.23e-05
-4.63055e-05
-4.02247e-05
-3.42005e-05
-2.83812e-05
-2.27919e-05
-1.74874e-05
-1.24494e-05
-7.61388e-06
-2.88005e-06
1.90398e-06
6.79326e-06
1.19048e-05
1.72979e-05
2.29971e-05
2.90172e-05
3.52554e-05
4.15998e-05
4.79352e-05
5.39248e-05
5.95227e-05
6.43729e-05
6.83745e-05
7.15181e-05
7.37079e-05
7.48648e-05
7.49233e-05
7.38804e-05
7.17008e-05
6.83841e-05
6.38929e-05
5.82382e-05
5.14607e-05
4.35437e-05
3.45893e-05
2.47104e-05
1.41286e-05
3.1918e-06
-7.66466e-06
-1.79505e-05
-2.71669e-05
-3.52602e-05
-4.22752e-05
-4.78811e-05
-5.20104e-05
-5.48527e-05
-5.63328e-05
-5.64954e-05
-5.53732e-05
-5.30914e-05
-4.98692e-05
-4.59339e-05
-4.18849e-05
-3.79956e-05
-3.42188e-05
-3.02624e-05
-2.72916e-05
-2.45182e-05
-2.16784e-05
-1.90338e-05
-1.65431e-05
-1.41794e-05
-1.1924e-05
-9.70682e-06
-7.45982e-06
-5.20915e-06
-2.97316e-06
-7.44548e-07
1.4901e-06
3.74358e-06
6.02987e-06
8.36506e-06
1.07663e-05
1.32503e-05
1.58331e-05
1.85287e-05
2.1349e-05
2.43036e-05
2.73992e-05
3.06397e-05
3.4026e-05
3.75557e-05
4.12205e-05
4.50021e-05
4.88633e-05
5.27314e-05
5.64728e-05
5.98705e-05
6.26446e-05
6.45456e-05
6.56651e-05
6.60019e-05
-2.69611e-05
-2.68719e-05
-2.64914e-05
-2.57868e-05
-2.49111e-05
-2.39794e-05
-2.30758e-05
-2.2256e-05
-2.15605e-05
-2.10135e-05
-2.06281e-05
-2.04098e-05
-2.03597e-05
-2.04767e-05
-2.07593e-05
-2.12062e-05
-2.18173e-05
-2.25939e-05
-2.35395e-05
-2.46597e-05
-2.59626e-05
-2.74595e-05
-2.91652e-05
-3.10985e-05
-3.32831e-05
-3.5748e-05
-3.85286e-05
-4.16677e-05
-4.52174e-05
-4.92387e-05
-5.37923e-05
-5.89022e-05
-6.43845e-05
-7.01155e-05
-7.60399e-05
-8.20791e-05
-8.78548e-05
-9.2958e-05
-9.68915e-05
-9.98267e-05
-0.000101983
-0.000103162
-0.00010316
-0.0001022
-0.000100359
-9.75945e-05
-9.39597e-05
-8.95308e-05
-8.43969e-05
-7.86831e-05
-7.25509e-05
-6.6221e-05
-5.98375e-05
-5.35887e-05
-4.76168e-05
-4.20364e-05
-3.68576e-05
-3.21036e-05
-2.76787e-05
-2.34252e-05
-1.91014e-05
-1.45223e-05
-9.46215e-06
-3.78404e-06
2.53238e-06
9.4487e-06
1.68354e-05
2.44321e-05
3.20247e-05
3.92964e-05
4.61068e-05
5.22543e-05
5.74884e-05
6.17174e-05
6.4898e-05
6.69758e-05
6.79242e-05
6.76884e-05
6.62686e-05
6.36562e-05
5.98309e-05
5.47679e-05
4.84983e-05
4.10203e-05
3.24067e-05
2.27653e-05
1.23263e-05
1.43716e-06
-9.48273e-06
-2.00143e-05
-2.97997e-05
-3.86861e-05
-4.65739e-05
-5.34466e-05
-5.92374e-05
-6.40177e-05
-6.78042e-05
-7.05233e-05
-7.22667e-05
-7.30452e-05
-7.28864e-05
-7.18319e-05
-6.99152e-05
-6.71996e-05
-6.37547e-05
-5.96794e-05
-5.50841e-05
-5.00835e-05
-4.48539e-05
-3.95111e-05
-3.41676e-05
-2.89393e-05
-2.39306e-05
-1.91622e-05
-1.46552e-05
-1.0387e-05
-6.28538e-06
-2.2551e-06
1.84414e-06
6.06986e-06
1.054e-05
1.52755e-05
2.03108e-05
2.56211e-05
3.1152e-05
3.6777e-05
4.24144e-05
4.78137e-05
5.30105e-05
5.77459e-05
6.17334e-05
6.48988e-05
6.71899e-05
6.85313e-05
6.88417e-05
6.8099e-05
6.62632e-05
6.3323e-05
5.9249e-05
5.40473e-05
4.77595e-05
4.04019e-05
3.20646e-05
2.28909e-05
1.30984e-05
3.0221e-06
-6.92768e-06
-1.61907e-05
-2.45925e-05
-3.20536e-05
-3.82182e-05
-4.29211e-05
-4.63561e-05
-4.85571e-05
-4.94574e-05
-4.91795e-05
-4.78187e-05
-4.55425e-05
-4.25817e-05
-3.91197e-05
-3.56734e-05
-3.24332e-05
-2.92778e-05
-2.59562e-05
-2.34449e-05
-2.11256e-05
-1.87591e-05
-1.65439e-05
-1.44234e-05
-1.23805e-05
-1.04044e-05
-8.4356e-06
-6.4106e-06
-4.35936e-06
-2.30207e-06
-2.34092e-07
1.85451e-06
3.9734e-06
6.1339e-06
8.34939e-06
1.06341e-05
1.3002e-05
1.54657e-05
1.80359e-05
2.07206e-05
2.35243e-05
2.64479e-05
2.94882e-05
3.2637e-05
3.58803e-05
3.91968e-05
4.25534e-05
4.58997e-05
4.91567e-05
5.2202e-05
5.48626e-05
5.6947e-05
5.83282e-05
5.90442e-05
5.91838e-05
-2.41007e-05
-2.40332e-05
-2.37606e-05
-2.3243e-05
-2.2584e-05
-2.18704e-05
-2.11618e-05
-2.05124e-05
-1.99584e-05
-1.95236e-05
-1.92225e-05
-1.9063e-05
-1.90486e-05
-1.91807e-05
-1.94594e-05
-1.98849e-05
-2.04582e-05
-2.11814e-05
-2.20581e-05
-2.30939e-05
-2.42964e-05
-2.56761e-05
-2.72465e-05
-2.90244e-05
-3.10313e-05
-3.3293e-05
-3.5841e-05
-3.87131e-05
-4.19551e-05
-4.5622e-05
-4.97665e-05
-5.43855e-05
-5.9317e-05
-6.44576e-05
-6.97732e-05
-7.51877e-05
-8.03408e-05
-8.48667e-05
-8.83537e-05
-9.09396e-05
-9.27902e-05
-9.36967e-05
-9.34463e-05
-9.22745e-05
-9.02664e-05
-8.73796e-05
-8.36887e-05
-7.9293e-05
-7.4307e-05
-6.88736e-05
-6.31592e-05
-5.73709e-05
-5.16345e-05
-4.61106e-05
-4.09019e-05
-3.60911e-05
-3.16682e-05
-2.7643e-05
-2.39198e-05
-2.03638e-05
-1.67631e-05
-1.29829e-05
-8.81254e-06
-4.13539e-06
1.11529e-06
6.94062e-06
1.32731e-05
1.99405e-05
2.67515e-05
3.34753e-05
3.98225e-05
4.56775e-05
5.08524e-05
5.51754e-05
5.85601e-05
6.09335e-05
6.22535e-05
6.24541e-05
6.15217e-05
5.94383e-05
5.61739e-05
5.17102e-05
4.60696e-05
3.92597e-05
3.13525e-05
2.24599e-05
1.28033e-05
2.71832e-06
-7.4358e-06
-1.72387e-05
-2.63751e-05
-3.46735e-05
-4.19925e-05
-4.83239e-05
-5.36051e-05
-5.78796e-05
-6.11815e-05
-6.34551e-05
-6.48092e-05
-6.52638e-05
-6.48516e-05
-6.36203e-05
-6.16112e-05
-5.88967e-05
-5.55571e-05
-5.17009e-05
-4.74409e-05
-4.28913e-05
-3.82113e-05
-3.34971e-05
-2.88427e-05
-2.4341e-05
-2.00622e-05
-1.60219e-05
-1.22189e-05
-8.62839e-06
-5.17622e-06
-1.77628e-06
1.69915e-06
5.30772e-06
9.16093e-06
1.32718e-05
1.76804e-05
2.23536e-05
2.72697e-05
3.23122e-05
3.74111e-05
4.23952e-05
4.71221e-05
5.15173e-05
5.53829e-05
5.85411e-05
6.09056e-05
6.23991e-05
6.29329e-05
6.24684e-05
6.09604e-05
5.83878e-05
5.47258e-05
4.99789e-05
4.41892e-05
3.73967e-05
2.96904e-05
2.12267e-05
1.22181e-05
2.9654e-06
-5.958e-06
-1.43791e-05
-2.21174e-05
-2.87253e-05
-3.4004e-05
-3.80292e-05
-4.08563e-05
-4.25073e-05
-4.29809e-05
-4.24451e-05
-4.10203e-05
-3.88808e-05
-3.62394e-05
-3.32276e-05
-3.02959e-05
-2.7586e-05
-2.49361e-05
-2.21521e-05
-2.00354e-05
-1.80954e-05
-1.61219e-05
-1.42656e-05
-1.24604e-05
-1.06972e-05
-8.97035e-06
-7.22877e-06
-5.41521e-06
-3.55896e-06
-1.6803e-06
2.23397e-07
2.15939e-06
4.13488e-06
6.15892e-06
8.24246e-06
1.03971e-05
1.26341e-05
1.49631e-05
1.73913e-05
1.9923e-05
2.25583e-05
2.52928e-05
2.81165e-05
3.10137e-05
3.39611e-05
3.69273e-05
3.98695e-05
4.27313e-05
4.54366e-05
4.78848e-05
4.99529e-05
5.15303e-05
5.25782e-05
5.29978e-05
5.30216e-05
-2.14866e-05
-2.14165e-05
-2.12055e-05
-2.08147e-05
-2.03123e-05
-1.97606e-05
-1.9208e-05
-1.86976e-05
-1.8261e-05
-1.79206e-05
-1.76909e-05
-1.7581e-05
-1.75958e-05
-1.7738e-05
-1.80091e-05
-1.84105e-05
-1.89439e-05
-1.96117e-05
-2.04178e-05
-2.13675e-05
-2.24681e-05
-2.37292e-05
-2.51629e-05
-2.67838e-05
-2.86121e-05
-3.06699e-05
-3.29853e-05
-3.55912e-05
-3.85277e-05
-4.18442e-05
-4.55866e-05
-4.97344e-05
-5.41436e-05
-5.87284e-05
-6.34767e-05
-6.83157e-05
-7.28976e-05
-7.68975e-05
-7.9973e-05
-8.22315e-05
-8.37947e-05
-8.44421e-05
-8.39602e-05
-8.26095e-05
-8.04566e-05
-7.74931e-05
-7.38106e-05
-6.95264e-05
-6.47726e-05
-5.96982e-05
-5.44645e-05
-4.92574e-05
-4.41793e-05
-3.93616e-05
-3.48734e-05
-3.07712e-05
-2.70315e-05
-2.36543e-05
-2.05479e-05
-1.76001e-05
-1.46271e-05
-1.15271e-05
-8.11545e-06
-4.29673e-06
1.21867e-08
4.83975e-06
1.01645e-05
1.5888e-05
2.18664e-05
2.7932e-05
3.38189e-05
3.93677e-05
4.43922e-05
4.87363e-05
5.22772e-05
5.49125e-05
5.65802e-05
5.71994e-05
5.67443e-05
5.51872e-05
5.24858e-05
4.86263e-05
4.36261e-05
3.74922e-05
3.03017e-05
2.21578e-05
1.32713e-05
3.99956e-06
-5.38347e-06
-1.45026e-05
-2.29863e-05
-3.06714e-05
-3.74121e-05
-4.3209e-05
-4.79815e-05
-5.17766e-05
-5.46459e-05
-5.65433e-05
-5.7585e-05
-5.77921e-05
-5.7199e-05
-5.58589e-05
-5.38211e-05
-5.11667e-05
-4.79856e-05
-4.43925e-05
-4.0498e-05
-3.64116e-05
-3.22721e-05
-2.81578e-05
-2.41449e-05
-2.03059e-05
-1.66849e-05
-1.32922e-05
-1.01119e-05
-7.11879e-06
-4.24041e-06
-1.40135e-06
1.51226e-06
4.55512e-06
7.82831e-06
1.13465e-05
1.51502e-05
1.92122e-05
2.35287e-05
2.80041e-05
3.25764e-05
3.71225e-05
4.14886e-05
4.55833e-05
4.92464e-05
5.23424e-05
5.47505e-05
5.63744e-05
5.71158e-05
5.69211e-05
5.57381e-05
5.35367e-05
5.02931e-05
4.60116e-05
4.07362e-05
3.4517e-05
2.74552e-05
1.97078e-05
1.14841e-05
3.1344e-06
-5.02879e-06
-1.26996e-05
-1.95712e-05
-2.53142e-05
-2.99129e-05
-3.33247e-05
-3.56091e-05
-3.68246e-05
-3.70139e-05
-3.63558e-05
-3.49718e-05
-3.30251e-05
-3.07e-05
-2.80853e-05
-2.55855e-05
-2.33129e-05
-2.10829e-05
-1.87613e-05
-1.6985e-05
-1.53669e-05
-1.37277e-05
-1.21779e-05
-1.06464e-05
-9.13065e-06
-7.62816e-06
-6.09507e-06
-4.48203e-06
-2.81548e-06
-1.11431e-06
6.22635e-07
2.40059e-06
4.2249e-06
6.10273e-06
8.04296e-06
1.00549e-05
1.21473e-05
1.4327e-05
1.65984e-05
1.89623e-05
2.14149e-05
2.39471e-05
2.6544e-05
2.91832e-05
3.1835e-05
3.44608e-05
3.70125e-05
3.94319e-05
4.16504e-05
4.35896e-05
4.5168e-05
4.63262e-05
4.70691e-05
4.73239e-05
4.7273e-05
-1.90378e-05
-1.89546e-05
-1.87785e-05
-1.84743e-05
-1.80858e-05
-1.76574e-05
-1.7227e-05
-1.68282e-05
-1.64877e-05
-1.62254e-05
-1.60551e-05
-1.59856e-05
-1.60227e-05
-1.61698e-05
-1.64293e-05
-1.68033e-05
-1.72938e-05
-1.79038e-05
-1.8637e-05
-1.94986e-05
-2.04951e-05
-2.16352e-05
-2.29296e-05
-2.43917e-05
-2.60384e-05
-2.78894e-05
-2.99694e-05
-3.23069e-05
-3.49368e-05
-3.79032e-05
-4.12461e-05
-4.49356e-05
-4.88439e-05
-5.29017e-05
-5.71185e-05
-6.14259e-05
-6.54827e-05
-6.90037e-05
-7.17033e-05
-7.36606e-05
-7.49602e-05
-7.53699e-05
-7.46851e-05
-7.31886e-05
-7.09267e-05
-6.79434e-05
-6.43389e-05
-6.02429e-05
-5.5796e-05
-5.11441e-05
-4.64348e-05
-4.18285e-05
-3.74026e-05
-3.32607e-05
-2.94445e-05
-2.59897e-05
-2.28646e-05
-2.00628e-05
-1.74993e-05
-1.50828e-05
-1.26554e-05
-1.01385e-05
-7.37496e-06
-4.28771e-06
-7.9396e-07
3.14488e-06
7.53691e-06
1.23344e-05
1.74435e-05
2.27521e-05
2.80586e-05
3.31993e-05
3.79903e-05
4.22673e-05
4.58934e-05
4.87433e-05
5.07321e-05
5.17585e-05
5.17814e-05
5.07626e-05
4.86415e-05
4.5407e-05
4.10714e-05
3.56334e-05
2.91782e-05
2.17942e-05
1.36934e-05
5.18689e-06
-3.45921e-06
-1.18358e-05
-1.96495e-05
-2.67217e-05
-3.28883e-05
-3.815e-05
-4.24338e-05
-4.5791e-05
-4.82812e-05
-4.98648e-05
-5.06557e-05
-5.06717e-05
-4.99488e-05
-4.85483e-05
-4.65277e-05
-4.39764e-05
-4.09934e-05
-3.76948e-05
-3.41849e-05
-3.05652e-05
-2.69523e-05
-2.34076e-05
-1.99908e-05
-1.67565e-05
-1.37287e-05
-1.09129e-05
-8.2838e-06
-5.81738e-06
-3.44512e-06
-1.1029e-06
1.30935e-06
3.8408e-06
6.58016e-06
9.54504e-06
1.27735e-05
1.62492e-05
1.99754e-05