/*--------------------------------*- C++ -*----------------------------------*\
| =========                 |                                                 |
| \\      /  F ield         | OpenFOAM: The Open Source CFD Toolbox           |
|  \\    /   O peration     | Version:  2506                                  |
|   \\  /    A nd           | Website:  www.openfoam.com                      |
|    \\/     M anipulation  |                                                 |
\*---------------------------------------------------------------------------*/
FoamFile
{
    version     2.0;
    format      ascii;
    arch        "LSB;label=32;scalar=64";
    class       volVectorField;
    location    "3.6";
    object      vorticityField;
}
// * * * * * * * * * * * * * * * * * * * * * * * * * * * * * * * * * * * * * //

dimensions      [0 0 -1 0 0 0 0];

internalField   nonuniform List<vector> 
4000
(
(6.09269e-19 1.69626e-19 51.819)
(8.89542e-20 1.10445e-19 56.3001)
(2.37047e-19 6.90159e-19 49.4626)
(6.73364e-19 1.0133e-18 42.86)
(-8.27175e-19 1.20444e-18 38.5897)
(6.26136e-20 1.27864e-20 35.6616)
(5.57609e-19 1.29552e-18 33.4087)
(-7.65329e-20 1.43834e-18 31.6265)
(-1.02901e-19 3.89808e-20 30.1883)
(-6.31665e-20 -5.56154e-19 28.9924)
(5.06554e-19 3.41621e-17 27.9726)
(-2.03596e-18 -6.3161e-17 27.0872)
(1.31544e-18 2.95459e-17 26.307)
(-1.27549e-18 -3.19958e-17 25.6105)
(1.91135e-18 3.12636e-17 24.9816)
(-1.44835e-18 1.55051e-18 24.4076)
(1.1807e-18 3.26567e-17 23.8784)
(-1.51322e-18 -3.1389e-17 23.3856)
(-8.54968e-19 1.07173e-18 22.9217)
(1.43887e-18 4.38883e-20 22.4798)
(-1.09211e-19 4.48963e-20 22.0533)
(-1.95397e-18 -1.61747e-18 21.6355)
(1.82041e-18 -1.70189e-18 21.2193)
(1.97093e-18 1.64546e-20 20.7968)
(-2.08602e-18 -1.62623e-18 20.3586)
(-1.39682e-19 -1.74468e-18 19.8934)
(-2.63283e-18 -7.23977e-20 19.3868)
(3.06178e-19 -2.75251e-18 18.8204)
(8.45568e-18 6.78301e-17 18.1697)
(-2.93551e-18 -6.36995e-17 17.3532)
(-4.18546e-18 4.7862e-18 16.2415)
(-1.10212e-17 -1.57697e-16 15.4205)
(7.63938e-18 1.716e-16 15.4922)
(-1.11713e-17 -8.94679e-17 16.5375)
(1.61272e-17 -2.88492e-16 18.4071)
(1.7176e-16 1.20374e-15 21.1683)
(4.68179e-17 5.1527e-19 24.2476)
(-8.90847e-17 -1.81981e-16 29.5924)
(-3.64835e-19 -4.74617e-17 38.3125)
(3.82781e-17 5.98081e-17 47.8735)
(-8.32214e-17 -1.97134e-16 57.1788)
(3.28749e-16 7.71155e-16 65.7059)
(-2.61778e-18 1.39001e-17 73.3018)
(5.88604e-16 4.20239e-16 79.9258)
(-2.73773e-16 -1.12648e-16 85.5373)
(1.00665e-17 5.17143e-16 90.1517)
(2.91056e-17 1.53503e-16 93.6605)
(-5.55148e-17 -5.58753e-16 96.2914)
(-4.85209e-16 -2.66034e-16 98.2079)
(-3.26626e-16 -1.94804e-16 99.6033)
(-4.07296e-17 -8.28176e-17 100.5)
(4.84726e-18 9.68475e-18 100.318)
(8.16387e-18 -2.49682e-17 99.8982)
(4.38011e-17 5.41988e-16 98.3033)
(-1.66889e-16 5.54361e-16 95.4488)
(-2.19565e-17 -4.74937e-16 90.1727)
(-8.27268e-17 -8.2356e-17 82.9216)
(1.78415e-17 1.01968e-17 73.1506)
(-2.36395e-18 5.14432e-18 60.9208)
(2.82766e-18 -4.48441e-17 48.3522)
(1.33436e-17 -1.04094e-16 37.1768)
(4.09024e-17 1.6644e-16 28.0298)
(-9.31515e-18 5.60465e-16 21.0889)
(4.41723e-17 -5.09228e-16 16.2993)
(5.54111e-19 7.94937e-18 12.8572)
(-1.77486e-18 1.55303e-18 10.4904)
(3.36146e-19 -3.02149e-18 8.75353)
(8.58546e-18 -1.24602e-16 7.44023)
(2.17154e-17 -1.16319e-15 6.44324)
(3.68842e-17 -6.18811e-16 5.64968)
(-1.33842e-18 4.78282e-17 4.99494)
(-4.1574e-17 5.54114e-16 4.44037)
(1.29358e-18 -5.44657e-16 3.96816)
(-1.01668e-17 1.9496e-17 3.56086)
(-2.90703e-17 5.45014e-16 3.20501)
(1.88203e-17 -5.43741e-16 2.89109)
(3.69274e-17 -5.62741e-16 2.61242)
(6.74611e-18 -4.64868e-16 2.36564)
(-1.64776e-18 2.23042e-17 2.1531)
(-1.42895e-17 1.37914e-17 1.96535)
(1.2139e-17 1.61092e-17 1.80054)
(-1.02347e-17 4.01069e-16 1.66429)
(3.5481e-19 -2.12952e-17 1.56614)
(6.89856e-18 -3.45596e-16 1.50058)
(4.28401e-19 3.35425e-16 1.4854)
(-3.92276e-20 -5.62818e-18 1.53685)
(8.18703e-21 -1.57009e-19 1.68989)
(1.41236e-19 1.52577e-17 1.96113)
(4.22746e-19 6.08858e-17 2.36536)
(3.24025e-18 -1.28865e-16 2.92166)
(-1.07991e-19 -3.04641e-18 3.63191)
(9.87727e-18 -2.888e-17 4.5229)
(9.73292e-18 -1.49851e-17 5.59753)
(-1.28444e-17 -3.31108e-17 6.8883)
(3.29896e-17 4.28632e-16 8.09184)
(3.87965e-17 4.05241e-16 9.08924)
(3.40149e-17 5.1478e-16 9.89496)
(2.26598e-17 4.6485e-17 10.4657)
(4.57255e-17 4.241e-16 10.9306)
(5.10921e-17 5.25679e-16 11.4406)
(-1.36885e-18 -1.16032e-17 12.2169)
(5.18841e-17 5.48685e-16 13.4063)
(9.33786e-17 1.14317e-15 15.1151)
(5.72241e-18 6.56721e-17 17.3966)
(1.08422e-16 5.1991e-16 20.241)
(2.18618e-18 7.49735e-17 23.5903)
(-8.27471e-17 -4.20919e-16 27.3748)
(-8.63262e-17 -4.37654e-16 31.4772)
(1.58e-17 -3.9515e-17 35.7416)
(2.61097e-17 4.81831e-17 40.1652)
(-1.47863e-16 -3.94923e-16 44.8436)
(1.15735e-16 2.81652e-16 48.7796)
(6.79481e-19 -1.00242e-17 52.56)
(1.38153e-16 7.80403e-16 54.4926)
(8.13624e-18 2.63113e-16 54.7182)
(4.25489e-17 3.77833e-16 52.4642)
(-5.747e-20 8.97553e-18 47.323)
(-4.55534e-19 1.19761e-16 40.0453)
(8.68126e-19 -1.25355e-17 32.2809)
(9.0198e-20 -5.41291e-19 25.0679)
(-1.34772e-18 4.30727e-18 19.3641)
(3.81403e-17 -4.59667e-16 15.2483)
(-1.72678e-17 5.92968e-16 12.3541)
(-2.82989e-19 3.52205e-17 10.2697)
(-2.86985e-17 4.55297e-16 8.70506)
(4.34295e-17 -1.09614e-15 7.548)
(-3.81077e-17 5.99744e-16 6.63637)
(2.78035e-19 -5.84135e-16 5.88079)
(-2.44857e-17 7.31515e-17 5.25094)
(1.68493e-17 -5.10254e-16 4.71946)
(9.95687e-19 5.16255e-17 4.25976)
(-4.12688e-17 5.86176e-16 3.85586)
(3.167e-17 -1.27846e-16 3.49736)
(-2.67604e-17 6.11485e-16 3.17838)
(-1.60156e-17 -1.24821e-17 2.8951)
(-2.21838e-18 -2.10331e-17 2.64133)
(1.8136e-17 -4.57961e-16 2.41309)
(-1.91756e-17 4.63558e-16 2.2058)
(1.25992e-18 -2.08242e-17 2.02662)
(1.03075e-17 5.95907e-18 1.87959)
(-8.34475e-18 3.79451e-16 1.75035)
(1.71611e-18 -9.02051e-17 1.66032)
(-1.61678e-17 4.17419e-16 1.61213)
(1.09235e-18 -1.38914e-17 1.62206)
(1.20089e-18 -2.25968e-16 1.72352)
(8.8102e-19 -1.44339e-16 1.94606)
(1.54788e-18 1.10531e-16 2.31636)
(-1.47224e-18 -7.57032e-17 2.86582)
(2.52815e-18 -2.3549e-18 3.58442)
(4.98802e-18 8.23398e-17 4.49156)
(4.42719e-18 2.62615e-17 5.66855)
(-3.07817e-17 -6.06007e-16 7.12678)
(7.87422e-18 7.32872e-17 8.63658)
(-1.08099e-17 6.20873e-17 10.1121)
(8.02928e-18 3.88048e-16 11.3543)
(2.23884e-17 1.41283e-16 12.3725)
(-3.65008e-18 2.11145e-18 13.2677)
(-2.59497e-17 -2.84907e-17 14.2254)
(1.67384e-17 7.54064e-17 15.4559)
(-9.96772e-17 -1.15334e-15 17.2636)
(1.32201e-17 4.1122e-17 20.0208)
(1.03069e-16 5.15824e-16 23.8505)
(3.62335e-18 5.85414e-16 29.9975)
(7.05593e-18 4.22754e-17 30.3566)
(-3.32952e-17 -4.96652e-16 32.2449)
(-7.54782e-17 -7.43353e-16 33.7548)
(-8.28712e-18 -2.73921e-17 34.7271)
(-1.56083e-17 -6.88598e-17 34.8858)
(-1.70309e-17 -2.71302e-16 33.6806)
(-7.45054e-18 -7.62368e-17 30.9865)
(-1.90708e-18 -1.64665e-18 27.6131)
(-1.9105e-20 -1.044e-18 25.2191)
(-8.7933e-19 -7.71273e-21 23.9864)
(8.42657e-19 -1.05391e-18 23.4256)
(3.67947e-20 -9.15742e-19 23.1567)
(9.59779e-21 -8.00662e-17 23.0263)
(-5.25273e-20 7.95452e-17 22.967)
(-1.71196e-19 3.92227e-17 22.9436)
(1.9811e-19 -3.99229e-17 22.9436)
(-2.40067e-20 3.73745e-17 22.9666)
(3.42036e-19 -7.82346e-17 23.0168)
(-2.58897e-19 3.78853e-17 23.0996)
(-5.88814e-19 -2.52421e-19 23.2207)
(5.98882e-19 -9.91468e-19 23.3853)
(-5.54265e-20 3.93212e-19 23.5959)
(1.6523e-18 -3.78176e-17 23.8519)
(-1.71606e-18 3.61413e-17 24.1545)
(2.11697e-18 -3.66117e-17 24.507)
(-2.15378e-18 3.59659e-17 24.9134)
(1.21138e-18 -1.92603e-17 25.382)
(-1.28248e-18 1.7534e-17 25.9268)
(7.77784e-20 -1.39078e-18 26.5719)
(-1.09802e-19 -8.4205e-19 27.3582)
(-1.08171e-18 -1.34249e-20 28.3592)
(1.23362e-18 -8.72155e-19 29.7151)
(-1.57995e-19 -1.40893e-18 31.7107)
(9.95267e-19 -7.26546e-18 34.9897)
(-8.03014e-19 8.58141e-18 41.1554)
(-9.30181e-21 -8.82507e-19 51.3564)
(-1.88415e-21 -8.4165e-20 48.5952)
(-1.00171e-19 -3.84405e-19 -2.47535)
(8.85595e-20 -1.58992e-19 15.2308)
(-1.18631e-19 -1.05919e-18 19.09)
(1.47398e-18 2.16673e-18 19.8669)
(-2.7506e-18 -7.95035e-18 19.6849)
(9.40514e-19 -2.23702e-18 19.0704)
(2.86619e-19 4.91276e-18 18.3344)
(-2.29387e-19 -2.18881e-18 17.6178)
(-8.66172e-20 -1.47995e-18 16.9554)
(1.33341e-19 -1.51289e-18 16.3492)
(-7.29855e-19 -2.55958e-18 15.7953)
(7.91225e-19 -2.06283e-17 15.2889)
(-6.75668e-19 1.95031e-17 14.8248)
(1.7826e-18 -1.95802e-17 14.3982)
(-5.01292e-19 3.72707e-17 14.0047)
(-1.19957e-19 -4.22459e-17 13.6404)
(-7.24165e-19 1.70485e-17 13.3022)
(3.57578e-19 -2.10761e-17 12.9867)
(1.52788e-18 -2.69533e-17 12.6912)
(-8.71588e-19 3.81431e-17 12.4128)
(-3.03959e-19 9.12983e-19 12.1488)
(-4.48896e-20 -4.51903e-17 11.8961)
(-9.15718e-19 4.04773e-17 11.6516)
(2.26456e-18 4.49705e-17 11.4117)
(1.47767e-18 -3.97201e-17 11.1721)
(-1.9412e-18 -9.48972e-20 10.9277)
(-3.62196e-18 -4.51982e-17 10.672)
(3.63468e-18 -6.83202e-18 10.3969)
(-3.49235e-19 9.19951e-17 10.0916)
(1.85975e-18 1.23489e-17 9.7397)
(-2.39006e-18 -4.30672e-17 9.26205)
(2.45619e-18 -3.86026e-17 8.46014)
(-1.31848e-17 -1.28604e-16 7.4825)
(-1.51715e-17 -3.02503e-16 6.45953)
(-5.12107e-17 -2.38606e-16 5.40729)
(-1.26643e-16 -3.478e-16 4.28887)
(2.04862e-17 -5.48646e-17 3.22042)
(1.10164e-16 2.26996e-16 2.00288)
(-2.69838e-17 2.35207e-17 0.691854)
(-1.80726e-16 -1.42512e-16 -0.281575)
(-1.76435e-16 -1.21626e-16 -0.760872)
(-3.55659e-16 -3.60159e-16 -0.827455)
(-3.95414e-17 9.47577e-18 -0.554478)
(-7.81776e-16 -6.02987e-16 0.0032629)
(4.05255e-16 2.09563e-16 0.785995)
(-4.50681e-16 -2.38991e-16 1.72344)
(3.79925e-16 8.36987e-17 2.75952)
(1.06233e-17 6.29194e-17 3.84193)
(4.10719e-17 2.84013e-17 4.9798)
(4.17892e-16 2.51532e-16 6.14788)
(-4.20434e-16 -7.79959e-17 7.43413)
(4.62519e-17 -7.56585e-17 8.97893)
(3.81498e-16 8.22054e-17 10.8072)
(-1.2489e-16 -4.14306e-17 13.1887)
(3.13181e-16 7.89583e-17 16.2555)
(1.84918e-17 2.86961e-17 20.1749)
(9.11572e-17 4.5681e-17 24.4834)
(-3.78172e-17 -9.37817e-18 28.9802)
(-1.11019e-18 -9.59896e-18 32.4258)
(-1.35993e-18 1.73372e-17 33.3676)
(-1.05403e-17 1.33872e-16 31.6325)
(-3.60839e-17 3.45619e-16 27.5882)
(-8.01668e-17 3.54429e-16 22.7669)
(-4.98489e-17 4.9884e-16 18.6941)
(7.6436e-19 -6.6741e-17 15.0904)
(3.37374e-18 5.72321e-17 12.3188)
(2.21561e-19 -1.83146e-18 10.2184)
(-7.61518e-18 5.18346e-17 8.59975)
(-7.80326e-17 1.11837e-15 7.36182)
(-5.32222e-18 -5.47966e-16 6.39376)
(-9.20752e-19 -1.35161e-17 5.61988)
(-1.2084e-17 6.84252e-16 4.98193)
(-4.85118e-17 4.96854e-16 4.44908)
(-3.33046e-17 6.17985e-16 3.9976)
(2.48649e-17 -9.19332e-17 3.60971)
(2.67996e-18 -5.79515e-17 3.27244)
(-2.80444e-17 -4.75213e-16 2.97877)
(-2.49122e-17 5.29543e-16 2.7166)
(2.62358e-19 2.41988e-17 2.49168)
(9.28417e-18 4.06043e-16 2.29531)
(-8.06263e-18 -4.24493e-16 2.12633)
(9.67829e-18 8.57567e-18 1.97432)
(4.89697e-20 -3.2606e-20 1.86272)
(-6.67305e-18 -2.78568e-18 1.76836)
(8.88194e-18 -3.32157e-16 1.71257)
(-2.88447e-19 1.59009e-17 1.6694)
(6.17604e-19 -1.85198e-17 1.63702)
(-4.41825e-19 1.94673e-17 1.55073)
(-1.01962e-18 -2.45888e-17 1.34136)
(-2.2439e-18 3.13135e-16 0.979715)
(-1.32209e-18 -1.22869e-17 0.496769)
(-1.46998e-17 -9.54556e-18 -0.0283973)
(9.09896e-18 3.49197e-16 -0.433255)
(-4.72671e-18 -3.71765e-16 -0.657598)
(1.90344e-17 3.97747e-16 -0.691507)
(-7.08575e-17 -4.36402e-16 -0.564497)
(-1.05714e-17 3.18293e-16 -0.366017)
(2.50579e-17 4.90777e-16 -0.118441)
(-6.88968e-17 -4.41595e-16 0.146236)
(-5.10623e-17 -5.06228e-16 0.444861)
(6.46659e-19 -5.89819e-17 0.736743)
(7.8773e-18 4.63627e-16 1.02072)
(-1.19975e-16 -5.39707e-16 1.30534)
(2.43913e-17 9.26512e-18 1.6102)
(-5.04693e-17 -9.84701e-17 1.96091)
(-2.24996e-18 -6.96288e-17 2.38227)
(2.03935e-16 8.38447e-16 2.88713)
(2.63498e-16 9.4804e-16 3.4693)
(1.421e-16 4.32913e-16 4.13773)
(1.11892e-16 3.14165e-16 4.94574)
(1.79078e-16 4.61059e-16 5.85295)
(-2.99744e-16 -6.00244e-16 6.86545)
(7.1632e-18 -1.01003e-17 8.1788)
(-1.86301e-16 -2.93727e-16 10.1708)
(4.43762e-18 8.48718e-18 12.8204)
(-4.7013e-17 -1.1109e-16 16.0931)
(-3.8623e-18 -1.46171e-17 19.6042)
(-1.66594e-18 -4.06224e-17 22.4321)
(8.61644e-19 -8.70896e-18 23.3863)
(-1.06253e-18 8.62278e-18 22.2065)
(3.17221e-19 1.15839e-17 19.5464)
(-5.112e-17 4.67624e-16 16.5394)
(1.4447e-17 -1.1458e-17 13.8207)
(5.1584e-18 -6.62398e-17 11.6325)
(6.12935e-17 -5.05356e-16 9.87523)
(-8.22724e-17 6.3567e-16 8.5159)
(5.91286e-18 4.79105e-16 7.44379)
(-7.10979e-17 1.09914e-15 6.56827)
(-6.26929e-17 1.03918e-15 5.84386)
(-1.90911e-17 4.29444e-16 5.23967)
(-5.73865e-18 6.99177e-17 4.72663)
(2.43532e-18 4.04645e-16 4.28375)
(4.35037e-17 -1.0259e-15 3.89716)
(2.302e-17 1.6673e-16 3.55584)
(-1.82357e-17 3.40072e-16 3.25501)
(-5.95953e-18 -1.23359e-17 2.98869)
(-9.98983e-19 9.56064e-20 2.75134)
(3.23057e-17 -5.58826e-17 2.54205)
(1.63485e-18 -1.10137e-16 2.35325)
(3.70565e-19 -2.70517e-16 2.19701)
(1.79474e-18 -7.87187e-17 2.06723)
(9.45814e-19 6.54404e-18 1.95525)
(4.37561e-18 1.40756e-16 1.88189)
(5.43184e-18 -1.53435e-16 1.82546)
(-7.1928e-18 2.25524e-16 1.79569)
(-1.41681e-18 -3.61449e-18 1.74008)
(-5.19316e-19 7.09677e-17 1.57355)
(-1.55247e-18 -7.57816e-17 1.25287)
(-6.87575e-19 1.46783e-16 0.806384)
(-1.13769e-17 -2.61635e-18 0.297431)
(4.04581e-18 2.52819e-18 -0.152232)
(1.68138e-17 1.24107e-17 -0.427555)
(-1.8664e-17 -5.36364e-17 -0.487202)
(7.0126e-17 8.89473e-16 -0.380862)
(1.65127e-18 2.28468e-16 -0.18544)
(1.02656e-17 1.25158e-16 0.0678359)
(-2.56659e-17 -9.19136e-17 0.371188)
(-4.94912e-17 -6.9191e-16 0.731991)
(2.97134e-17 1.77532e-16 1.13674)
(1.17808e-16 5.80516e-16 1.60212)
(1.59006e-17 6.95489e-17 2.17671)
(-9.4533e-17 -4.20341e-16 2.89049)
(5.56717e-18 7.26696e-17 3.22368)
(1.46165e-17 2.60146e-17 2.90102)
(-6.3622e-17 -3.89587e-16 3.35694)
(1.01677e-16 3.09074e-16 4.08747)
(3.74197e-18 1.55238e-17 5.16633)
(-1.5403e-18 -2.58034e-18 6.56106)
(1.99712e-17 7.39717e-17 8.17994)
(7.80826e-18 5.88432e-17 9.80306)
(-5.16035e-18 -4.9814e-17 10.9117)
(-1.38394e-18 4.93351e-19 11.3612)
(-9.88918e-19 -5.94808e-17 11.4406)
(7.19066e-19 5.73429e-17 11.4175)
(5.89482e-20 3.22082e-18 11.3891)
(1.25692e-19 5.80811e-17 11.3825)
(-1.99718e-20 -9.47898e-19 11.3979)
(-1.86246e-20 -3.00742e-17 11.4295)
(-9.54393e-20 -2.56535e-17 11.4731)
(7.50912e-21 -2.63785e-17 11.5268)
(-2.42529e-19 2.72945e-17 11.594)
(3.0335e-19 -2.73156e-19 11.6798)
(-1.7371e-19 2.6432e-17 11.786)
(3.38616e-20 -2.77634e-17 11.9154)
(-8.55313e-20 -1.18886e-18 12.0709)
(4.75302e-19 -2.24678e-17 12.2546)
(-4.14058e-19 2.7755e-17 12.4691)
(5.33888e-19 -2.44699e-17 12.7176)
(-1.79329e-18 2.73416e-17 13.0051)
(1.62184e-18 -9.88071e-18 13.3393)
(-3.59936e-19 1.3042e-17 13.7328)
(-3.4396e-19 -7.53985e-19 14.2063)
(3.13971e-20 2.95072e-18 14.795)
(-5.32798e-19 8.66485e-18 15.5608)
(5.95189e-20 -1.05646e-17 16.6158)
(-8.15447e-20 2.62603e-18 18.1561)
(-8.82904e-19 2.05536e-19 20.4443)
(1.22391e-18 -1.03044e-18 23.2346)
(4.57971e-19 7.45382e-19 21.968)
(-6.43231e-19 -2.23727e-19 -3.43373)
(-3.1461e-19 4.08968e-19 -10.4488)
(-2.33863e-18 2.98829e-19 1.79387)
(1.20299e-18 -8.46403e-19 6.25295)
(-2.79837e-20 2.34619e-19 8.10916)
(-7.67072e-20 -4.70053e-19 8.95124)
(2.2182e-18 2.14237e-18 9.25685)
(-2.74244e-18 -1.57897e-18 9.29684)
(6.58066e-19 7.09329e-19 9.21084)
(3.07271e-19 1.26013e-18 9.06129)
(6.44492e-19 3.14023e-18 8.87897)
(2.77984e-19 1.68308e-18 8.68141)
(1.31253e-18 4.54653e-18 8.47902)
(-1.82376e-18 -1.26179e-17 8.278)
(3.13439e-18 2.56646e-17 8.08204)
(-2.30665e-18 -9.28664e-18 7.89332)
(2.50636e-18 1.50134e-17 7.71307)
(-1.37038e-18 -7.64703e-18 7.54185)
(3.8841e-19 3.03061e-18 7.37973)
(4.80624e-18 3.27422e-17 7.22648)
(-4.67268e-18 -2.50042e-17 7.08157)
(3.58563e-19 5.01294e-19 6.94423)
(3.63982e-18 7.71426e-18 6.81345)
(-4.99925e-18 -3.33493e-17 6.68788)
(-2.23803e-19 2.95915e-17 6.56578)
(3.08794e-18 3.67687e-17 6.44486)
(-4.32621e-18 -2.18051e-17 6.32219)
(3.78849e-18 -3.85935e-17 6.19398)
(2.28669e-18 2.91287e-17 6.05533)
(-3.19573e-18 2.4224e-18 5.89968)
(-3.57717e-18 -4.38743e-20 5.719)
(7.15912e-18 1.74005e-19 5.47745)
(-3.2967e-19 -1.74175e-17 5.05559)
(3.02546e-17 1.39498e-16 4.48218)
(6.38286e-17 2.58221e-16 3.8256)
(-4.74671e-17 -1.68566e-16 3.11238)
(5.23685e-17 3.34293e-17 2.33908)
(-1.31653e-16 -2.58862e-16 1.51827)
(2.68748e-17 -3.76298e-17 0.730967)
(1.93494e-16 2.13015e-16 0.0537361)
(-3.89023e-17 -5.77568e-17 -0.418719)
(5.3607e-16 4.36763e-16 -0.620838)
(1.00173e-17 1.47484e-16 -0.583496)
(-2.60528e-16 -8.32979e-17 -0.343119)
(-2.36099e-16 -1.19586e-16 0.0555435)
(2.59315e-17 -8.38566e-17 0.566272)
(3.18026e-16 2.73882e-16 1.15665)
(-7.88965e-16 -3.04215e-16 1.78105)
(-2.68413e-16 -1.32956e-16 2.34415)
(-6.50954e-17 -2.37308e-17 2.89545)
(-3.5545e-17 -5.4268e-17 3.43791)
(2.1717e-16 1.59249e-16 3.92112)
(-9.81508e-17 -7.0048e-18 4.44835)
(-9.03094e-17 -9.0215e-17 5.07196)
(1.831e-17 -2.19134e-17 5.8812)
(2.53102e-16 -3.02123e-17 6.97572)
(-9.91706e-17 6.78679e-17 8.52963)
(-1.19973e-16 1.35727e-17 10.5287)
(5.26753e-17 -3.55446e-17 13.0207)
(7.53898e-18 6.85945e-18 16.3318)
(1.88449e-19 1.35548e-19 19.6246)
(-1.49904e-17 1.59008e-17 22.0253)
(6.10958e-18 -1.44112e-17 22.7904)
(-1.82539e-17 -1.06946e-16 21.7488)
(1.26701e-16 -2.87835e-16 19.4849)
(-1.02128e-16 3.16809e-16 16.7866)
(1.13925e-16 -4.0345e-16 14.1413)
(-1.43572e-17 2.28937e-17 11.9111)
(2.3992e-18 -4.13374e-17 10.0598)
(1.59668e-16 -1.02241e-15 8.5815)
(-1.27721e-16 1.10539e-15 7.41014)
(1.78447e-17 -8.30449e-17 6.47767)
(5.88534e-17 -5.1244e-16 5.72097)
(1.23142e-17 -1.88018e-17 5.09864)
(-4.55208e-18 3.75436e-16 4.57907)
(3.40198e-17 -5.97563e-16 4.13895)
(1.22274e-18 -3.43713e-16 3.7607)
(-6.48419e-17 1.01704e-15 3.43502)
(1.87669e-17 -9.31863e-17 3.14363)
(1.74147e-17 -7.61297e-17 2.89114)
(4.24368e-17 -7.79658e-16 2.66822)
(-4.05944e-17 8.32988e-16 2.47492)
(-1.0219e-17 -1.11305e-17 2.29013)
(8.8109e-18 -6.43702e-18 2.13785)
(3.35709e-19 -4.0056e-18 1.98147)
(-1.46834e-17 3.25641e-16 1.83664)
(2.80285e-19 -6.62106e-18 1.65141)
(2.26593e-18 -7.04327e-17 1.41093)
(-4.95272e-21 -1.9763e-19 1.06611)
(2.2418e-18 -4.58144e-17 0.598239)
(-3.26381e-18 -2.89452e-16 0.0636001)
(-1.1046e-18 -3.7918e-18 -0.432054)
(-1.7303e-17 -6.20746e-16 -0.784021)
(-2.01018e-17 -3.92855e-16 -0.928489)
(5.97366e-17 7.12503e-16 -0.86441)
(-1.38793e-17 6.336e-17 -0.615318)
(-1.28504e-17 -3.61462e-16 -0.283532)
(-8.44721e-17 -8.50147e-16 0.0776056)
(-6.06436e-17 -5.06578e-16 0.420083)
(3.90725e-17 -1.05871e-17 0.714128)
(3.23593e-17 4.44953e-16 0.9351)
(-2.21287e-19 5.71345e-17 1.06022)
(-8.27624e-17 -5.11221e-16 1.11793)
(2.68668e-17 -2.39605e-17 1.1443)
(5.69571e-17 4.6067e-16 1.17892)
(-8.91751e-17 -4.42012e-16 1.25465)
(1.89145e-18 2.80036e-17 1.38896)
(-2.89625e-16 -8.86982e-16 1.57941)
(-2.13642e-16 -5.5656e-16 1.80803)
(-5.46223e-17 -7.92336e-17 2.05752)
(-1.71656e-16 -3.8308e-16 2.32138)
(-3.20658e-17 -7.07072e-17 2.60845)
(1.98576e-16 3.14371e-16 2.94691)
(9.1774e-19 3.33691e-17 3.2834)
(-8.42435e-17 -1.77585e-16 3.86966)
(9.23688e-18 -1.16356e-18 4.81666)
(7.22211e-18 2.03052e-18 6.28539)
(8.20458e-19 -5.57218e-19 8.3889)
(2.95836e-18 4.01241e-17 11.0596)
(-9.90143e-20 4.88659e-19 13.913)
(2.03323e-18 -6.79139e-18 16.0309)
(-4.39464e-18 1.61563e-17 16.571)
(1.65225e-17 -1.86307e-17 15.8073)
(1.06626e-17 -7.4879e-18 14.2908)
(-1.98188e-18 -1.4812e-17 12.5871)
(6.64748e-17 -3.97647e-16 10.959)
(-6.13897e-17 4.42936e-16 9.55181)
(1.4102e-16 -1.05128e-15 8.38487)
(9.48319e-17 -5.24542e-16 7.41383)
(4.06693e-17 -1.29775e-16 6.60205)
(6.50212e-17 -4.53796e-16 5.92148)
(9.79718e-18 4.08936e-17 5.34525)
(3.61003e-17 -5.1293e-16 4.85138)
(-9.21703e-18 -3.1697e-17 4.42413)
(6.76609e-18 -8.10197e-18 4.04903)
(9.09958e-19 -8.19418e-17 3.71851)
(-2.11235e-17 1.06836e-16 3.42632)
(2.46602e-17 -4.5635e-16 3.16476)
(3.62632e-17 -7.83868e-16 2.93353)
(-4.96765e-19 5.58969e-17 2.71682)
(-7.95999e-18 3.86623e-16 2.52521)
(-1.15342e-17 4.03378e-16 2.35405)
(1.18399e-17 -1.09163e-16 2.17813)
(8.33545e-18 -2.40577e-16 2.01674)
(3.08849e-18 -1.37738e-16 1.82197)
(-3.0383e-18 1.41945e-16 1.57939)
(-1.50791e-18 3.28638e-17 1.24141)
(2.49945e-19 2.7063e-18 0.778969)
(5.59163e-18 -2.05704e-16 0.228616)
(-4.38619e-18 -1.42247e-16 -0.301593)
(-1.10066e-17 -3.95548e-16 -0.70399)
(1.67021e-17 1.63527e-16 -0.894683)
(-5.11169e-18 -6.89927e-17 -0.866211)
(-2.90269e-17 -3.45626e-16 -0.675788)
(-1.06088e-16 -8.26689e-16 -0.327864)
(-6.95279e-17 -4.81785e-16 0.0340766)
(6.46917e-18 6.98755e-18 0.399649)
(-4.14407e-17 -4.99125e-16 0.711619)
(1.73928e-16 1.28716e-15 0.952843)
(-5.52763e-19 1.43361e-16 1.1028)
(-4.2265e-18 -2.15992e-17 1.19383)
(6.29333e-17 4.28693e-16 1.28305)
(3.4579e-17 5.6031e-17 1.39433)
(-3.19181e-18 -1.33666e-17 1.32765)
(3.43013e-17 2.1732e-16 1.32151)
(1.17727e-16 4.10749e-16 1.31905)
(-2.44893e-18 1.53364e-17 1.45423)
(3.19111e-18 4.88729e-18 1.72569)
(-1.77727e-17 -1.15593e-16 2.10923)
(9.95418e-18 1.02091e-16 2.64102)
(-1.97068e-18 2.72047e-18 3.26382)
(-1.92317e-18 -2.62551e-18 3.86085)
(-3.08541e-18 -4.89006e-17 4.2439)
(6.88837e-19 6.56e-19 4.42457)
(-1.37097e-18 -2.87602e-18 4.49255)
(5.44151e-19 -4.44106e-18 4.52395)
(-6.60395e-20 -4.75278e-17 4.56019)
(1.46687e-19 -2.67967e-18 4.61459)
(-1.27284e-19 4.85166e-17 4.68843)
(7.62178e-20 -1.38585e-18 4.77636)
(-4.66348e-19 2.24739e-17 4.87353)
(-2.46486e-20 -2.40055e-17 4.97716)
(4.16037e-19 1.81605e-18 5.08836)
(-1.14365e-19 7.93096e-21 5.20818)
(1.7134e-20 1.58714e-18 5.33848)
(-8.53731e-20 1.64721e-18 5.48069)
(-2.56187e-19 -2.09941e-17 5.63765)
(4.04804e-19 1.85155e-17 5.81368)
(-2.73472e-19 -1.75504e-17 6.01393)
(-5.63033e-19 3.46929e-17 6.24483)
(7.34505e-19 -2.9277e-17 6.51522)
(3.65477e-19 1.06103e-17 6.83835)
(6.49632e-20 2.23447e-18 7.23543)
(2.27246e-19 -1.38901e-18 7.742)
(1.10295e-18 4.84065e-19 8.41813)
(-5.23609e-19 1.93215e-18 9.35894)
(-2.13124e-19 -1.18105e-18 10.674)
(1.03384e-19 3.39408e-19 12.2858)
(-8.49842e-19 -2.63248e-20 12.9553)
(1.83054e-18 -5.42663e-19 6.80533)
(2.54378e-18 1.25014e-18 -16.4421)
(-1.21349e-18 4.9424e-19 -9.49922)
(4.71533e-20 -3.43576e-19 -1.98894)
(-5.49455e-19 2.76356e-19 1.34798)
(-1.38777e-18 3.87281e-19 2.97606)
(8.88348e-19 -1.25303e-18 3.86484)
(2.3981e-18 8.87815e-19 4.38569)
(-1.87666e-18 1.36675e-19 4.69625)
(7.43532e-19 -2.19639e-19 4.88122)
(-1.26332e-19 3.95461e-19 4.98559)
(-1.90624e-18 -1.60761e-18 5.03594)
(7.14822e-19 -1.73383e-19 5.04968)
(-2.55478e-19 -8.63046e-19 5.03873)
(-3.3982e-20 1.65396e-19 5.01133)
(-1.43764e-18 -2.42479e-18 4.97323)
(4.54168e-19 -1.64872e-19 4.92844)
(-8.45516e-19 1.67786e-19 4.87977)
(-1.15032e-19 -1.90767e-18 4.82916)
(-1.04196e-18 -1.55969e-17 4.77786)
(-3.96597e-19 3.18394e-17 4.72663)
(3.97419e-19 -1.87273e-17 4.6758)
(1.84644e-18 -3.15217e-18 4.62539)
(-2.73715e-19 2.1988e-17 4.57502)
(-5.0399e-19 -2.15489e-17 4.52394)
(-1.99615e-18 -4.56857e-18 4.47093)
(-2.61653e-18 2.17327e-18 4.41422)
(-6.95422e-19 -2.96988e-17 4.35139)
(3.0596e-18 2.39032e-17 4.27925)
(-2.62087e-18 -7.50724e-19 4.19358)
(2.80432e-18 3.23194e-17 4.08877)
(-1.11196e-18 -2.96836e-17 3.95735)
(5.03386e-18 3.59552e-17 3.77831)
(-8.11391e-18 -4.28818e-17 3.49523)
(-3.69323e-17 -1.1185e-16 3.09168)
(-2.72678e-17 -6.21145e-17 2.57172)
(4.63964e-17 4.24531e-17 1.94098)
(-2.10186e-17 -1.74276e-17 1.22215)
(-3.0258e-17 -7.99216e-17 0.467653)
(1.00977e-17 -2.60491e-17 -0.197939)
(-4.71773e-19 -1.78444e-17 -0.713314)
(-5.34672e-17 -2.29757e-17 -1.0361)
(-6.1328e-19 -4.90381e-17 -1.12944)
(-4.4513e-17 -1.01467e-16 -1.022)
(6.82025e-16 3.68812e-16 -0.75221)
(2.57944e-16 2.2402e-16 -0.362185)
(7.30978e-17 6.27639e-17 0.104748)
(1.2553e-18 8.23516e-18 0.604286)
(8.5455e-17 1.34829e-17 1.12476)
(8.25789e-16 2.94986e-16 1.60743)
(3.50018e-16 2.04423e-16 1.98394)
(4.45623e-17 -2.76237e-17 2.32612)
(7.00627e-16 1.4274e-16 2.60424)
(-2.67478e-18 1.11639e-16 2.84993)
(-3.66239e-16 -3.71561e-17 3.08256)
(-3.81123e-19 -3.64038e-17 3.36398)
(-4.14922e-17 -5.41832e-17 3.74586)
(1.58758e-16 -2.64192e-17 4.33484)
(7.78816e-17 5.90418e-18 5.26561)
(-9.03221e-17 4.67974e-17 6.50593)
(1.71292e-17 -2.00779e-17 8.29679)
(-3.94482e-18 3.09455e-18 10.7082)
(1.7442e-18 2.55927e-17 13.3617)
(1.45668e-18 -4.13062e-18 15.8581)
(9.43077e-17 -1.82059e-16 17.083)
(-1.22234e-16 2.6372e-16 17.1572)
(2.26159e-16 -5.1585e-16 15.9986)
(2.82343e-17 5.92062e-17 14.3356)
(-1.42234e-16 3.95744e-16 12.6188)
(-1.53065e-17 6.47044e-17 10.9457)
(-1.31258e-16 5.14637e-16 9.44825)
(1.41551e-16 -7.0547e-16 8.18607)
(6.55123e-17 -3.65506e-16 7.14614)
(-1.99141e-17 1.46263e-17 6.29327)
(6.06418e-17 -5.3757e-16 5.59204)
(5.64224e-17 -4.3727e-16 5.00995)
(-3.27431e-17 4.72717e-17 4.52087)
(-9.93627e-17 9.25084e-16 4.10341)
(8.03009e-17 -6.07882e-16 3.7456)
(-7.53453e-18 6.34445e-17 3.4248)
(2.81969e-17 -3.91077e-16 3.14217)
(-5.25511e-17 4.41983e-16 2.88629)
(6.02643e-17 -4.30875e-16 2.65405)
(-2.12466e-17 3.59855e-16 2.42023)
(1.93551e-17 -3.50458e-16 2.20337)
(-7.40759e-18 1.4122e-17 1.95991)
(6.13327e-18 -1.20317e-17 1.6983)
(3.87257e-19 -8.27371e-18 1.36323)
(-4.04821e-18 8.84237e-17 0.948216)
(1.56407e-19 -1.66854e-18 0.440912)
(-2.45922e-19 8.37846e-17 -0.118019)
(5.74595e-18 1.46764e-16 -0.628153)
(-3.32316e-18 -4.67713e-17 -0.989306)
(3.49773e-17 3.56201e-16 -1.1273)
(1.60466e-17 3.41306e-16 -1.05411)
(-4.50685e-17 -3.60706e-16 -0.769507)
(-1.04034e-17 -4.25289e-17 -0.382191)
(5.31884e-17 3.70564e-16 0.0458035)
(6.05375e-17 4.58392e-16 0.468766)
(2.14424e-17 4.47247e-17 0.802043)
(9.05165e-18 4.49549e-16 1.04561)
(-9.94295e-17 -8.76449e-16 1.18337)
(3.67444e-19 -5.15973e-17 1.22395)
(2.37093e-17 2.56025e-17 1.20631)
(-2.80509e-20 2.87226e-17 1.17246)
(-1.02056e-16 -4.67197e-16 1.16067)
(2.02455e-17 -2.95941e-17 1.19367)
(2.99935e-18 8.55448e-18 1.27393)
(5.82923e-17 1.05392e-16 1.38447)
(-7.14536e-17 -2.87068e-16 1.4991)
(-1.33614e-16 -3.81559e-16 1.59391)
(6.89321e-18 -1.85029e-17 1.65716)
(0 -0 1.68378)
(-9.37171e-18 -6.42855e-18 1.70837)
(-1.35125e-17 -1.44943e-17 1.71641)
(8.05786e-17 9.83777e-17 1.82781)
(3.69439e-17 8.01253e-17 2.06959)
(2.11492e-18 4.21667e-18 2.59108)
(7.32764e-19 3.56132e-18 3.53203)
(-7.91315e-19 2.21952e-19 4.99652)
(-6.39506e-20 1.67e-20 7.046)
(-3.20649e-19 1.29285e-19 9.58078)
(5.82293e-18 -2.72275e-18 11.5953)
(-3.72888e-18 -3.52312e-19 12.6362)
(9.85849e-17 -2.50987e-16 12.6192)
(4.50615e-18 1.43283e-17 11.9672)
(-1.13807e-16 4.1478e-16 10.9608)
(1.16578e-16 -4.85566e-16 9.8666)
(-1.29331e-16 5.50105e-16 8.81883)
(-2.2349e-17 -2.26001e-17 7.88056)
(8.53617e-17 -4.76947e-16 7.0612)
(-5.86934e-17 4.36396e-16 6.35428)
(5.02388e-17 -3.19925e-16 5.7458)
(-7.53773e-17 4.69795e-16 5.21968)
(1.99994e-17 -5.26319e-17 4.76269)
(-9.50658e-18 -3.72378e-17 4.36029)
(-5.3529e-18 3.70055e-17 4.0025)
(-2.63727e-17 2.98617e-16 3.68279)
(-2.29041e-17 1.47309e-16 3.39107)
(-6.00931e-17 4.23579e-16 3.12584)
(-2.39596e-17 6.81811e-17 2.86731)
(5.0878e-17 -4.73509e-16 2.62043)
(4.75279e-17 -6.6625e-16 2.3782)
(2.39503e-17 -3.59917e-16 2.1076)
(-6.42144e-18 8.94497e-17 1.82023)
(-7.72767e-18 6.71869e-17 1.46604)
(3.53057e-18 -7.24031e-17 1.03484)
(-8.10571e-19 3.45878e-17 0.515121)
(-3.85258e-19 -2.4341e-18 -0.0598911)
(-1.61302e-20 2.78646e-16 -0.596091)
(3.31933e-18 -5.30344e-18 -0.984178)
(2.89397e-17 3.89312e-16 -1.14974)
(8.62251e-18 2.55578e-16 -1.09244)
(1.92764e-18 -1.38963e-18 -0.838387)
(4.88406e-17 2.82859e-16 -0.421292)
(8.83008e-17 5.57167e-16 0.00996237)
(-4.08591e-18 -2.76637e-16 0.416353)
(3.1848e-17 2.77729e-16 0.761135)
(8.86746e-17 6.18399e-16 0.998795)
(-1.18689e-16 -5.72316e-16 1.12099)
(-6.06562e-17 -5.02694e-16 1.13957)
(7.5734e-17 5.26457e-16 1.09437)
(-1.21922e-16 -5.64231e-16 1.04034)
(6.03296e-17 3.59605e-16 1.00335)
(3.96862e-17 1.49338e-16 0.884165)
(-1.1475e-16 -4.2177e-16 0.941406)
(-2.15864e-17 -3.75956e-17 0.887875)
(4.1248e-17 2.56653e-16 0.890296)
(9.57574e-18 6.45127e-17 0.941536)
(2.53307e-17 1.17378e-16 0.988314)
(-1.81178e-17 -1.03708e-16 1.05174)
(4.0512e-18 4.68617e-17 1.13119)
(-3.25109e-18 -4.68641e-17 1.24667)
(1.8894e-18 -1.10803e-18 1.28881)
(-7.52264e-19 -2.50138e-18 1.2802)
(-5.36824e-20 -4.3057e-17 1.25319)
(7.55868e-20 4.77724e-17 1.2406)
(-1.76192e-20 4.49753e-17 1.26185)
(-2.19779e-20 -3.84763e-17 1.3209)
(-1.20671e-19 2.14372e-17 1.4113)
(2.05154e-19 -2.16681e-17 1.52298)
(-3.67285e-20 4.7254e-19 1.64667)
(-6.14077e-19 2.2977e-17 1.77508)
(8.90936e-19 -2.03372e-17 1.90386)
(-1.23134e-18 2.19529e-17 2.03178)
(8.85348e-20 -2.02538e-17 2.15947)
(9.52709e-19 -1.89535e-18 2.28975)
(-1.23721e-18 2.28042e-18 2.42665)
(6.01231e-19 -8.65985e-20 2.57552)
(-2.08068e-18 1.12221e-19 2.74244)
(3.53081e-18 1.93115e-18 2.93475)
(-2.49052e-18 -1.52147e-19 3.16168)
(3.26836e-19 -3.64903e-19 3.4361)
(6.92187e-19 -3.22555e-18 3.77769)
(-1.5767e-18 3.48968e-19 4.21758)
(1.48302e-18 -1.02745e-18 4.80172)
(2.13191e-18 -2.88527e-18 5.58056)
(-1.53831e-18 2.52036e-18 6.53829)
(6.92151e-19 -5.2906e-19 7.31468)
(-4.54614e-19 4.14256e-20 6.24406)
(-8.43525e-19 4.2925e-19 -0.517742)
(-2.38504e-18 -6.29023e-19 -16.5114)
(1.42815e-18 1.31258e-19 -7.98676)
(-1.89955e-18 9.26489e-19 -3.03181)
(-2.56394e-18 -2.83464e-19 -0.514136)
(4.18344e-18 -6.00217e-19 0.795043)
(-7.23311e-18 2.13272e-18 1.57811)
(2.27386e-18 -2.00663e-18 2.10339)
(5.14105e-19 7.12565e-19 2.48026)
(-1.31374e-18 -2.7169e-19 2.75968)
(-3.89624e-20 7.12674e-19 2.97015)
(-4.24477e-18 -3.27822e-18 3.12978)
(4.06233e-18 1.52366e-18 3.25156)
(-1.14999e-18 2.22672e-19 3.34497)
(-3.05087e-18 -5.25241e-18 3.41699)
(3.49106e-18 3.06503e-18 3.47273)
(-8.93556e-19 -6.11522e-19 3.51589)
(-3.89497e-19 -1.20879e-21 3.54915)
(5.95373e-19 -1.93767e-18 3.57441)
(1.90415e-18 8.03173e-18 3.59293)
(-5.36354e-18 -2.39239e-17 3.60546)
(4.38722e-18 1.16677e-17 3.61232)
(3.11421e-18 1.87202e-17 3.61344)
(-5.15766e-18 -1.56208e-17 3.60831)
(2.14472e-18 -1.95758e-18 3.59597)
(6.08075e-19 2.73232e-18 3.57491)
(4.62028e-19 5.63911e-19 3.54305)
(1.77572e-18 -2.39468e-19 3.4976)
(-3.23443e-18 -2.16174e-17 3.43497)
(-2.78211e-18 -3.00334e-18 3.35059)
(-6.70964e-18 -6.63486e-18 3.23866)
(7.65291e-18 2.00845e-17 3.09127)
(2.26807e-19 -4.87439e-18 2.89138)
(2.00793e-17 4.89097e-17 2.60452)
(2.36713e-17 3.3373e-17 2.20235)
(1.6774e-17 -2.50861e-18 1.67585)