/*--------------------------------*- C++ -*----------------------------------*\
| =========                 |                                                 |
| \\      /  F ield         | OpenFOAM: The Open Source CFD Toolbox           |
|  \\    /   O peration     | Version:  2506                                  |
|   \\  /    A nd           | Website:  www.openfoam.com                      |
|    \\/     M anipulation  |                                                 |
\*---------------------------------------------------------------------------*/
FoamFile
{
    version     2.0;
    format      ascii;
    arch        "LSB;label=32;scalar=64";
    class       volScalarField;
    location    "4.5";
    object      p;
}
// * * * * * * * * * * * * * * * * * * * * * * * * * * * * * * * * * * * * * //

dimensions      [0 2 -2 0 0 0 0];

internalField   nonuniform List<scalar> 
4000
(
0.000556504
0.000498582
0.000467226
0.000453673
0.000445463
0.00043974
0.000435742
0.000432736
0.000430246
0.000428047
0.000426038
0.000424159
0.000422379
0.000420678
0.000419046
0.000417479
0.000415974
0.000414531
0.000413152
0.000411838
0.000410593
0.00040942
0.000408324
0.000407308
0.000406378
0.000405542
0.000404804
0.000404174
0.00040366
0.000403271
0.000403017
0.000402917
0.000402988
0.000403117
0.000403773
0.000404851
0.000405602
0.000405857
0.000405584
0.000404517
0.000402358
0.000397911
0.000391168
0.000382858
0.000373013
0.000361833
0.000349453
0.000335787
0.000321476
0.000306414
0.000290865
0.000275339
0.000259648
0.000244739
0.000230159
0.000216915
0.00020487
0.000194213
0.000185633
0.000178082
0.000172975
0.000169174
0.000166928
0.00016613
0.000166215
0.000167478
0.000169197
0.000171655
0.000174352
0.000177368
0.00018053
0.000183709
0.000186967
0.000190154
0.000193285
0.000196353
0.000199316
0.000202179
0.000204946
0.000207599
0.000210136
0.000212553
0.000214838
0.000216984
0.000218981
0.00022082
0.000222505
0.00022404
0.000225423
0.000226672
0.000227797
0.000228804
0.00022971
0.00023053
0.000231274
0.00023196
0.000232593
0.000233188
0.000233751
0.000234294
0.000234817
0.00023533
0.000235842
0.000236356
0.00023688
0.00023741
0.000237953
0.000238503
0.000239059
0.00023961
0.000240143
0.000240637
0.00024107
0.000241396
0.000241598
0.000241592
0.000241345
0.000240792
0.000239845
0.000238456
0.000236552
0.000234047
0.000230899
0.000227066
0.00022248
0.000217132
0.000211008
0.0002041
0.00019643
0.000188015
0.000178838
0.000169023
0.000158578
0.000147442
0.000135857
0.000123845
0.000111187
9.85226e-05
8.54453e-05
7.24102e-05
5.94472e-05
4.67947e-05
3.46842e-05
2.34878e-05
1.3069e-05
4.46579e-06
-3.24628e-06
-8.71466e-06
-1.27619e-05
-1.52405e-05
-1.59668e-05
-1.5764e-05
-1.40294e-05
-1.17571e-05
-8.54896e-06
-5.11694e-06
-1.23965e-06
2.63317e-06
6.55512e-06
1.03407e-05
1.45609e-05
1.78273e-05
2.08202e-05
2.35779e-05
2.61586e-05
2.84507e-05
3.05071e-05
3.1851e-05
3.26018e-05
3.29356e-05
3.28646e-05
3.24258e-05
3.16718e-05
3.06552e-05
2.94265e-05
2.80335e-05
2.65216e-05
2.49328e-05
2.33053e-05
2.16734e-05
2.0067e-05
1.85119e-05
1.70287e-05
1.56323e-05
1.43311e-05
1.31287e-05
1.20223e-05
1.10032e-05
1.00581e-05
9.16997e-06
8.32005e-06
7.48941e-06
6.66016e-06
5.81712e-06
4.94861e-06
4.04686e-06
3.11682e-06
2.15614e-06
1.16734e-06
2.50653e-07
0.000504839
0.00048171
0.000463802
0.000454015
0.000447148
0.000441583
0.000437293
0.000433965
0.00043122
0.000428828
0.000426673
0.000424687
0.000422827
0.000421067
0.000419391
0.00041779
0.00041626
0.000414798
0.000413406
0.000412083
0.000410832
0.000409657
0.000408561
0.000407548
0.000406624
0.000405794
0.000405066
0.000404448
0.000403947
0.000403574
0.000403339
0.000403257
0.000403345
0.000403463
0.00040399
0.000404834
0.000405239
0.000405054
0.000404195
0.000402339
0.000399183
0.000393777
0.000386357
0.00037757
0.000367407
0.000356049
0.000343636
0.000330137
0.000316141
0.000301557
0.000286642
0.000271855
0.000257048
0.00024306
0.000229544
0.000217225
0.000205975
0.000195941
0.000187731
0.000180475
0.000175345
0.000171436
0.000168927
0.000167785
0.0001675
0.000168357
0.000169708
0.000171804
0.000174201
0.000176944
0.00017989
0.000182887
0.000185997
0.000189072
0.000192111
0.00019511
0.000198022
0.000200846
0.000203586
0.000206227
0.000208765
0.000211197
0.000213513
0.000215707
0.000217772
0.000219698
0.00022148
0.000223117
0.000224605
0.000225952
0.000227171
0.000228265
0.000229251
0.000230142
0.000230944
0.000231682
0.000232356
0.000232988
0.000233579
0.000234149
0.000234698
0.000235242
0.000235778
0.000236312
0.000236854
0.000237396
0.000237949
0.000238498
0.000239044
0.00023957
0.000240061
0.000240488
0.000240827
0.000241022
0.000241053
0.000240829
0.000240316
0.000239444
0.000238128
0.00023632
0.000233952
0.000230948
0.000227275
0.0002229
0.000217772
0.000211896
0.00020527
0.000197898
0.000189816
0.000181051
0.000171596
0.000161588
0.000151045
0.000139911
0.000128419
0.000116572
0.000104246
9.19656e-05
7.94342e-05
6.70393e-05
5.48478e-05
4.3061e-05
3.19008e-05
2.16586e-05
1.23105e-05
4.49819e-06
-2.443e-06
-7.45378e-06
-1.11788e-05
-1.35225e-05
-1.42739e-05
-1.4178e-05
-1.26673e-05
-1.06402e-05
-7.71006e-06
-4.54064e-06
-9.13129e-07
2.74208e-06
6.49022e-06
1.00252e-05
1.41691e-05
1.74245e-05
2.04433e-05
2.32295e-05
2.58204e-05
2.80685e-05
3.00488e-05
3.13093e-05
3.20312e-05
3.2374e-05
3.23255e-05
3.19169e-05
3.12015e-05
3.02304e-05
2.90508e-05
2.77078e-05
2.62446e-05
2.47008e-05
2.31133e-05
2.15153e-05
1.99363e-05
1.84018e-05
1.69331e-05
1.55465e-05
1.42531e-05
1.30568e-05
1.19559e-05
1.09433e-05
1.00068e-05
9.12983e-06
8.29395e-06
7.48008e-06
6.66968e-06
5.84686e-06
4.99955e-06
4.12064e-06
3.20431e-06
2.25112e-06
1.25855e-06
2.85251e-07
0.000480509
0.000472939
0.000462369
0.000454406
0.000448138
0.000443021
0.000438723
0.000435206
0.000432255
0.000429678
0.000427373
0.000425268
0.000423312
0.000421477
0.000419743
0.000418095
0.000416528
0.000415037
0.00041362
0.000412279
0.000411014
0.000409828
0.000408723
0.000407703
0.000406775
0.000405942
0.000405212
0.000404593
0.000404091
0.000403717
0.000403479
0.000403387
0.000403458
0.000403517
0.000403891
0.000404479
0.0004045
0.000403814
0.000402336
0.000399712
0.000395699
0.000389578
0.000381745
0.000372742
0.00036252
0.00035124
0.000339055
0.000325986
0.000312548
0.000298681
0.000284601
0.000270725
0.000256969
0.000243938
0.000231385
0.000219871
0.000209329
0.000199834
0.000191904
0.000184808
0.000179515
0.000175324
0.000172387
0.000170734
0.000169913
0.000170224
0.000171066
0.000172697
0.00017469
0.000177085
0.000179751
0.000182511
0.000185439
0.000188371
0.000191296
0.000194211
0.00019706
0.000199837
0.000202548
0.000205173
0.000207707
0.000210153
0.000212498
0.000214735
0.000216859
0.000218854
0.000220714
0.000222438
0.000224014
0.000225445
0.000226746
0.00022791
0.000228956
0.000229901
0.000230743
0.000231518
0.000232216
0.000232872
0.000233476
0.000234063
0.000234619
0.000235171
0.000235713
0.000236254
0.000236803
0.000237346
0.000237899
0.000238437
0.000238964
0.000239454
0.000239889
0.000240234
0.000240461
0.000240506
0.000240348
0.000239889
0.000239095
0.000237898
0.000236214
0.000234002
0.000231202
0.000227749
0.000223624
0.000218803
0.000213255
0.000206994
0.00020003
0.000192378
0.000184079
0.000175167
0.000165655
0.000155652
0.000145187
0.000134237
0.000123001
0.000111493
9.96565e-05
8.79136e-05
7.6056e-05
6.44039e-05
5.30453e-05
4.21368e-05
3.1873e-05
2.24626e-05
1.38733e-05
6.6397e-06
2.233e-07
-4.54476e-06
-8.16115e-06
-1.05849e-05
-1.15541e-05
-1.1761e-05
-1.06149e-05
-8.9722e-06
-6.40189e-06
-3.57892e-06
-2.44125e-07
3.14598e-06
6.71706e-06
9.95893e-06
1.41077e-05
1.72529e-05
2.01958e-05
2.29493e-05
2.5517e-05
2.76843e-05
2.95841e-05
3.07471e-05
3.14318e-05
3.17871e-05
3.17619e-05
3.13809e-05
3.07011e-05
2.97724e-05
2.86387e-05
2.73425e-05
2.59244e-05
2.44225e-05
2.2872e-05
2.13053e-05
1.97516e-05
1.8237e-05
1.67833e-05
1.54083e-05
1.41244e-05
1.29373e-05
1.18469e-05
1.08472e-05
9.92665e-06
9.06893e-06
8.25497e-06
7.46549e-06
6.68048e-06
5.88258e-06
5.05803e-06
4.19734e-06
3.29393e-06
2.34472e-06
1.34122e-06
2.94809e-07
0.000469516
0.000466731
0.000460277
0.000453783
0.000448477
0.000443926
0.000439788
0.000436306
0.000433258
0.000430542
0.000428107
0.000425878
0.000423814
0.000421891
0.000420083
0.000418372
0.000416752
0.000415217
0.000413762
0.000412387
0.000411092
0.000409878
0.000408747
0.000407702
0.000406749
0.000405891
0.000405134
0.000404486
0.000403952
0.000403539
0.000403253
0.000403096
0.00040308
0.000403018
0.000403214
0.000403548
0.000403205
0.000402046
0.000400006
0.000396755
0.000392124
0.000385563
0.000377532
0.000368488
0.000358384
0.000347371
0.000335612
0.000323162
0.000310486
0.000297499
0.000284374
0.000271543
0.000258922
0.000246923
0.0002354
0.000224726
0.000214892
0.000205911
0.000198193
0.000191177
0.000185623
0.000181029
0.00017753
0.000175206
0.000173694
0.000173292
0.000173468
0.000174482
0.000175935
0.000177862
0.000180144
0.00018258
0.000185255
0.000187984
0.000190747
0.000193543
0.000196299
0.000199006
0.000201668
0.000204261
0.000206778
0.000209223
0.000211583
0.000213852
0.000216024
0.000218081
0.000220014
0.000221824
0.000223486
0.000225004
0.000226388
0.000227626
0.000228732
0.000229731
0.00023061
0.000231415
0.00023213
0.000232799
0.000233407
0.000233998
0.00023455
0.000235101
0.000235639
0.000236176
0.000236723
0.000237257
0.000237801
0.000238319
0.000238815
0.000239259
0.000239624
0.000239874
0.000239971
0.000239846
0.00023948
0.000238765
0.000237674
0.000236139
0.000234081
0.00023147
0.000228254
0.000224385
0.000219854
0.000214652
0.000208763
0.000202214
0.000195023
0.000187215
0.000178837
0.000169928
0.000160511
0.000150677
0.000140477
0.000129899
0.000119105
0.000108133
9.69649e-05
8.59288e-05
7.4892e-05
6.41014e-05
5.36521e-05
4.36534e-05
3.42633e-05
2.56219e-05
1.77038e-05
1.09171e-05
4.84741e-06
1.16196e-07
-3.61883e-06
-6.34419e-06
-7.76198e-06
-8.48006e-06
-7.89793e-06
-6.80552e-06
-4.73794e-06
-2.37005e-06
5.92456e-07
3.66095e-06
7.04659e-06
1.00078e-05
1.41744e-05
1.7188e-05
2.00172e-05
2.27087e-05
2.52398e-05
2.73163e-05
2.91363e-05
3.01929e-05
3.08218e-05
3.1175e-05
3.11601e-05
3.07925e-05
3.01346e-05
2.92364e-05
2.81386e-05
2.68809e-05
2.55019e-05
2.40382e-05
2.25236e-05
2.09894e-05
1.94647e-05
1.79755e-05
1.65444e-05
1.51897e-05
1.39249e-05
1.27571e-05
1.16869e-05
1.07088e-05
9.81163e-06
8.97889e-06
8.19157e-06
7.4291e-06
6.67064e-06
5.89749e-06
5.0943e-06
4.24961e-06
3.35551e-06
2.40467e-06
1.38977e-06
2.86946e-07
0.000462785
0.000461459
0.000457484
0.000452789
0.00044846
0.000444389
0.000440634
0.000437297
0.000434201
0.00043142
0.000428904
0.000426549
0.000424368
0.000422347
0.000420448
0.000418655
0.000416964
0.000415365
0.000413853
0.000412425
0.000411079
0.000409817
0.000408638
0.000407545
0.000406542
0.000405631
0.000404817
0.000404105
0.0004035
0.000403005
0.000402622
0.000402345
0.000402181
0.000401948
0.00040192
0.00040196
0.000401248
0.000399638
0.000397092
0.000393329
0.000388244
0.000381418
0.000373333
0.000364379
0.000354532
0.000343942
0.00033277
0.000321107
0.000309252
0.000297233
0.000285273
0.000273594
0.000262162
0.000251267
0.000240833
0.000231069
0.000221996
0.000213592
0.000206149
0.000199275
0.000193516
0.000188548
0.000184481
0.000181434
0.000179154
0.00017791
0.000177276
0.000177503
0.00017825
0.000179542
0.000181283
0.000183258
0.000185558
0.000187982
0.000190501
0.00019311
0.000195721
0.000198316
0.000200897
0.000203435
0.000205915
0.000208344
0.000210706
0.000212995
0.000215207
0.00021732
0.000219323
0.000221218
0.000222969
0.000224577
0.000226049
0.000227366
0.000228539
0.000229595
0.00023051
0.000231345
0.00023207
0.000232746
0.000233345
0.000233929
0.000234463
0.000235001
0.000235522
0.00023604
0.00023657
0.00023708
0.000237598
0.000238077
0.000238521
0.000238893
0.000239159
0.000239278
0.000239208
0.000238874
0.000238257
0.000237247
0.000235821
0.000233919
0.000231469
0.000228453
0.000224834
0.000220576
0.000215687
0.000210173
0.000204029
0.000197293
0.000189993
0.000182162
0.000173846
0.000165091
0.000155924
0.000146422
0.000136675
0.000126632
0.000116423
0.000106147
9.57868e-05
8.55822e-05
7.54634e-05
6.56094e-05
5.61091e-05
4.70315e-05
3.84954e-05
3.05862e-05
2.32924e-05
1.68884e-05
1.10861e-05
6.31058e-06
2.3584e-06
-7.66443e-07
-2.76625e-06
-4.12863e-06
-4.28356e-06
-3.90239e-06
-2.51988e-06
-7.6216e-07
1.68238e-06
4.31801e-06
7.45091e-06
1.01135e-05
1.42494e-05
1.71221e-05
1.98033e-05
2.23988e-05
2.48676e-05
2.68274e-05
2.85369e-05
2.94622e-05
3.0012e-05
3.03462e-05
3.03309e-05
2.99698e-05
2.93308e-05
2.84643e-05
2.74073e-05
2.61961e-05
2.48673e-05
2.34556e-05
2.19931e-05
2.05097e-05
1.90331e-05
1.75889e-05
1.61995e-05
1.48834e-05
1.36541e-05
1.25193e-05
1.14799e-05
1.05311e-05
9.6615e-06
8.85546e-06
8.09418e-06
7.3564e-06
6.62147e-06
5.87004e-06
5.08598e-06
4.25668e-06
3.37293e-06
2.42492e-06
1.41041e-06
2.74652e-07
0.000458294
0.000457537
0.000454973
0.000451567
0.000448072
0.000444614
0.000441256
0.000438047
0.000434984
0.000432227
0.000429684
0.000427213
0.000424927
0.000422816
0.000420817
0.000418932
0.000417158
0.000415482
0.000413896
0.000412397
0.000410983
0.000409652
0.000408403
0.000407237
0.000406157
0.000405164
0.00040426
0.000403449
0.000402733
0.000402112
0.000401584
0.000401138
0.000400773
0.000400327
0.00040003
0.00039973
0.000398643
0.000396619
0.000393633
0.000389464
0.000384061
0.000377113
0.000369096
0.000360346
0.000350873
0.000340822
0.000330345
0.000319537
0.000308576
0.00029762
0.00028689
0.000276382
0.000266141
0.000256371
0.000247022
0.000238204
0.000229926
0.000222159
0.000215085
0.000208458
0.000202635
0.000197425
0.000192897
0.00018921
0.000186215
0.000184117
0.000182627
0.000181969
0.000181886
0.000182398
0.000183442
0.000184806
0.000186579
0.000188566
0.000190723
0.000193041
0.000195421
0.000197838
0.000200282
0.000202721
0.00020513
0.000207514
0.000209856
0.000212145
0.00021438
0.000216534
0.000218596
0.000220567
0.000222402
0.0002241
0.000225664
0.000227065
0.000228309
0.000229426
0.000230381
0.000231246
0.000231978
0.000232654
0.000233235
0.000233801
0.000234303
0.00023481
0.000235295
0.000235776
0.000236267
0.000236729
0.000237194
0.000237605
0.000237961
0.000238223
0.000238347
0.000238289
0.000238002
0.000237409
0.000236495
0.000235149
0.000233358
0.000231069
0.000228225
0.000224819
0.000220832
0.000216242
0.000211072
0.000205339
0.000199052
0.000192254
0.00018498
0.000177267
0.000169161
0.000160707
0.000151933
0.000142908
0.000133757
0.000124329
0.000114857
0.000105379
9.58951e-05
8.65795e-05
7.74079e-05
6.85008e-05
5.99323e-05
5.17419e-05
4.40119e-05
3.67928e-05
3.0053e-05
2.39944e-05
1.84246e-05
1.35922e-05
9.40757e-06
5.87949e-06
3.26726e-06
1.22019e-06
2.41424e-07
-1.84786e-07
3.67618e-07
1.37343e-06
3.14263e-06
5.21138e-06
7.97591e-06
1.02912e-05
1.42756e-05
1.69822e-05
1.94793e-05
2.19336e-05
2.42978e-05
2.61048e-05
2.76594e-05
2.84294e-05
2.88811e-05
2.9179e-05
2.9154e-05
2.87978e-05
2.8182e-05
2.7357e-05
2.63552e-05
2.52089e-05
2.39521e-05
2.26175e-05
2.12346e-05
1.98306e-05
1.84312e-05
1.70604e-05
1.57395e-05
1.4486e-05
1.33128e-05
1.22272e-05
1.12304e-05
1.03173e-05
9.47775e-06
8.69711e-06
7.95729e-06
7.23842e-06
6.52059e-06
5.78528e-06
5.01694e-06
4.20286e-06
3.33385e-06
2.39883e-06
1.40176e-06
2.59528e-07
0.000455279
0.000454791
0.00045301
0.000450433
0.000447565
0.00044458
0.00044155
0.000438551
0.000435643
0.000432892
0.000430275
0.000427763
0.000425436
0.000423256
0.000421153
0.00041917
0.000417312
0.000415554
0.000413886
0.000412304
0.000410809
0.000409392
0.000408054
0.000406794
0.000405613
0.00040451
0.000403487
0.000402544
0.00040168
0.000400894
0.000400179
0.00039952
0.000398912
0.000398217
0.000397614
0.000396941
0.000395487
0.000393096
0.000389748
0.000385277
0.000379675
0.000372729
0.000364884
0.000356431
0.000347416
0.00033798
0.000328257
0.00031833
0.00030839
0.000298543
0.000288923
0.000279558
0.000270483
0.000261808
0.000253504
0.00024561
0.000238124
0.000231018
0.000224384
0.000218086
0.000212357
0.000207069
0.000202219
0.000198051
0.000194492
0.000191644
0.000189357
0.000187825
0.000186882
0.000186543
0.000186783
0.000187417
0.000188525
0.000189936
0.000191599
0.0001935
0.000195537
0.000197675
0.000199898
0.000202166
0.000204445
0.000206736
0.000209015
0.00021127
0.000213496
0.000215665
0.000217761
0.000219789
0.000221693
0.000223471
0.000225121
0.000226605
0.000227922
0.000229106
0.000230104
0.000231001
0.00023174
0.000232413
0.000232969
0.000233506
0.000233961
0.00023442
0.000234848
0.000235267
0.000235692
0.000236075
0.000236451
0.000236754
0.00023698
0.000237083
0.000237014
0.000236727
0.000236174
0.000235276
0.000234025
0.000232317
0.000230147
0.000227478
0.000224265
0.000220517
0.000216229
0.000211394
0.000206047
0.000200214
0.000193913
0.00018719
0.000180082
0.000172625
0.000164864
0.00015684
0.000148585
0.000140164
0.000131607
0.000122918
0.000114271
0.000105631
9.7032e-05
8.86074e-05
8.03577e-05
7.23567e-05
6.46598e-05
5.72869e-05
5.02869e-05
4.36801e-05
3.744e-05
3.17048e-05
2.63543e-05
2.14751e-05
1.70786e-05
1.31945e-05
1.00062e-05
7.30217e-06
5.49857e-06
4.24582e-06
3.89167e-06
4.05283e-06
5.02176e-06
6.40253e-06
8.65969e-06
1.05619e-05
1.42191e-05
1.67112e-05
1.89843e-05
2.12424e-05
2.34433e-05
2.50577e-05
2.64118e-05
2.70137e-05
2.7357e-05
2.76026e-05
2.75606e-05
2.72121e-05
2.66297e-05
2.58626e-05
2.49371e-05
2.38805e-05
2.27243e-05
2.14986e-05
2.02291e-05
1.8939e-05
1.76508e-05
1.63862e-05
1.51641e-05
1.4e-05
1.29052e-05
1.18862e-05
1.09435e-05
1.00723e-05
9.26372e-06
8.50516e-06
7.78086e-06
7.07304e-06
6.36386e-06
5.6377e-06
4.88104e-06
4.0823e-06
3.23338e-06
2.32321e-06
1.36176e-06
2.3937e-07
0.000453276
0.000452917
0.00045157
0.000449511
0.00044708
0.000444437
0.000441666
0.000438851
0.000436059
0.000433343
0.000430724
0.00042821
0.000425824
0.000423559
0.000421396
0.000419345
0.000417406
0.000415565
0.000413812
0.000412145
0.000410557
0.000409045
0.000407607
0.000406239
0.000404939
0.000403707
0.00040254
0.000401438
0.000400397
0.000399414
0.000398478
0.000397573
0.000396689
0.000395718
0.000394783
0.000393718
0.000391913
0.000389206
0.000385572
0.000380894
0.000375197
0.000368352
0.000360759
0.000352674
0.000344178
0.000335405
0.000326469
0.000317452
0.000308518
0.000299738
0.000291195
0.000282925
0.000274946
0.000267297
0.000259964
0.000252938
0.000246212
0.000239757
0.000233599
0.000227666
0.000222168
0.000216958
0.000211907
0.000207429
0.000203497
0.000200064
0.000197111
0.000194806
0.000193056
0.000191881
0.000191292
0.000191141
0.000191492
0.000192219
0.000193272
0.000194629
0.0001962
0.000197946
0.000199838
0.000201835
0.000203898
0.000206021
0.000208173
0.000210334
0.000212499
0.000214637
0.000216726
0.000218775
0.000220718
0.000222551
0.000224268
0.000225825
0.000227208
0.000228457
0.000229499
0.000230432
0.00023118
0.00023185
0.000232377
0.000232876
0.000233273
0.000233668
0.000234017
0.000234348
0.000234675
0.000234943
0.000235189
0.00023534
0.000235386
0.000235281
0.000234968
0.000234406
0.000233543
0.00023231
0.000230702
0.000228629
0.000226099
0.000223089
0.000219569
0.000215559
0.000211068
0.000206104
0.00020071
0.000194912
0.000188735
0.000182224
0.000175412
0.000168336
0.000161032
0.000153537
0.000145883
0.000138124
0.000130217
0.00012234
0.000114495
0.000106678
9.89386e-05
9.13676e-05
8.39766e-05
7.6807e-05
6.98952e-05
6.32506e-05
5.68928e-05
5.08235e-05
4.50134e-05
3.95781e-05
3.44477e-05
2.95356e-05
2.49638e-05
2.07915e-05
1.70921e-05
1.37951e-05
1.12301e-05
9.19538e-06
7.92046e-06
7.19721e-06
7.29101e-06
7.89573e-06
9.50979e-06
1.09196e-05
1.40583e-05
1.62632e-05
1.82626e-05
2.02611e-05
2.22265e-05
2.36088e-05
2.4724e-05
2.51599e-05
2.53961e-05
2.5579e-05
2.55182e-05
2.51874e-05
2.4656e-05
2.39696e-05
2.3147e-05
2.22099e-05
2.11871e-05
2.01059e-05
1.89867e-05
1.78467e-05
1.67046e-05
1.5579e-05
1.44854e-05
1.34365e-05
1.24415e-05
1.15055e-05
1.06274e-05
9.80283e-06
9.02504e-06
8.2848e-06
7.56966e-06
6.86428e-06
6.15499e-06
5.43127e-06
4.68269e-06
3.89966e-06
3.07616e-06
2.20224e-06
1.29311e-06
2.13438e-07
0.000452028
0.000451732
0.000450619
0.000448862
0.000446706
0.000444286
0.000441691
0.000439002
0.000436292
0.000433615
0.000431005
0.00042848
0.000426057
0.000423741
0.000421528
0.000419418
0.000417409
0.000415493
0.000413663
0.000411913
0.000410233
0.000408624
0.000407081
0.000405596
0.000404168
0.000402793
0.000401467
0.000400188
0.00039895
0.000397749
0.000396571
0.000395395
0.000394213
0.000392945
0.000391662
0.000390202
0.000388065
0.000385088
0.000381235
0.000376429
0.00037072
0.000364049
0.000356769
0.000349103
0.000341165
0.000333083
0.000324948
0.000316839
0.000308876
0.000301112
0.000293597
0.000286348
0.000279371
0.000272659
0.000266206
0.000259974
0.00025395
0.00024811
0.000242436
0.000236934
0.000231658
0.000226599
0.000221567
0.000216894
0.0002127
0.000208861
0.000205429
0.000202523
0.000200082
0.000198155
0.00019679
0.000195866
0.000195434
0.000195424
0.000195792
0.00019651
0.000197505
0.000198746
0.0002002
0.000201806
0.000203545
0.000205403
0.000207337
0.000209321
0.000211347
0.000213383
0.000215404
0.000217415
0.000219345
0.000221191
0.000222937
0.000224537
0.000225965
0.000227264
0.000228345
0.000229309
0.000230067
0.000230733
0.000231232
0.000231689
0.00023202
0.000232336
0.000232588
0.000232807
0.000233005
0.000233125
0.000233199
0.000233154
0.000232974
0.000232617
0.000232021
0.000231152
0.000229958
0.000228385
0.000226433
0.000224031
0.000221197
0.000217923
0.000214191
0.000210032
0.000205465
0.000200512
0.000195211
0.000189589
0.00018367
0.000177495
0.000171095
0.000164496
0.00015773
0.000150827
0.000143812
0.00013672
0.000129571
0.000122446
0.000115361
0.000108328
0.000101392
9.46049e-05
8.79845e-05
8.15527e-05
7.53273e-05
6.93144e-05
6.35096e-05
5.79101e-05
5.24995e-05
4.73081e-05
4.23012e-05
3.74035e-05
3.27629e-05
2.83623e-05
2.42131e-05
2.03948e-05
1.7181e-05
1.44477e-05
1.22787e-05
1.06716e-05
9.86131e-06
9.63483e-06
1.05009e-05
1.13215e-05
1.37755e-05
1.56027e-05
1.7267e-05
1.89376e-05
2.05911e-05
2.17073e-05
2.25607e-05
2.28471e-05
2.29884e-05
2.31063e-05
2.30337e-05
2.27422e-05
2.22904e-05
2.17138e-05
2.10229e-05
2.02361e-05
1.93811e-05
1.84818e-05
1.7549e-05
1.65917e-05
1.5626e-05
1.46675e-05
1.37271e-05
1.28136e-05
1.19361e-05
1.10969e-05
1.02915e-05
9.51598e-06
8.76802e-06
8.04321e-06
7.33303e-06
6.62247e-06
5.90446e-06
5.17801e-06
4.43541e-06
3.6691e-06
2.87593e-06
2.04783e-06
1.204e-06
1.85184e-07
0.000451406
0.000451138
0.000450129
0.000448514
0.000446492
0.000444183
0.000441676
0.000439052
0.000436384
0.000433726
0.000431117
0.000428581
0.000426133
0.000423782
0.000421529
0.000419371
0.000417306
0.000415328
0.000413429
0.000411603
0.000409841
0.000408138
0.00040649
0.000404889
0.000403329
0.000401806
0.000400315
0.000398848
0.000397402
0.000395976
0.000394548
0.000393083
0.000391588
0.000390011
0.000388376
0.000386526
0.000384075
0.000380865
0.000376847
0.000371975
0.000366315
0.00035987
0.00035294
0.00034573
0.000338378
0.000330998
0.000323662
0.00031644
0.000309405
0.0003026
0.000296041
0.000289725
0.000283649
0.000277776
0.000272105
0.000266581
0.000261188
0.000255909
0.000250693
0.000245595
0.000240551
0.000235662
0.000230814
0.000226169
0.000221794
0.000217649
0.000213898
0.000210567
0.000207572
0.000205015
0.000202989
0.000201362
0.000200178
0.000199435
0.0001991
0.000199129
0.000199473
0.000200117
0.000201048
0.000202156
0.00020345
0.00020493
0.000206544
0.000208249
0.000210034
0.000211872
0.000213736
0.000215625
0.000217468
0.000219261
0.000220975
0.000222567
0.000224
0.000225315
0.000226413
0.000227392
0.000228153
0.00022881
0.000229281
0.000229693
0.000229955
0.000230184
0.000230325
0.000230415
0.000230458
0.000230402
0.000230271
0.000229999
0.000229563
0.000228929
0.000228034
0.000226851
0.000225335
0.000223449
0.000221201
0.000218546
0.00021551
0.000212089
0.000208275
0.000204099
0.000199595
0.000194806
0.000189743
0.000184422
0.000178879
0.000173145
0.000167239
0.000161183
0.000155001
0.000148717
0.000142353
0.000135939
0.000129504
0.000123089
0.000116714
0.000110403
0.000104189
9.80983e-05
9.21498e-05
8.63555e-05
8.07158e-05
7.52389e-05
6.98999e-05
6.46985e-05
5.9612e-05
5.46291e-05
4.97457e-05
4.49062e-05
4.01889e-05
3.56246e-05
3.11671e-05
2.69042e-05
2.30919e-05
1.97009e-05
1.67247e-05
1.42954e-05
1.26014e-05
1.15111e-05
1.15292e-05
1.17241e-05
1.33405e-05
1.46885e-05
1.5955e-05
1.72353e-05
1.85116e-05
1.93447e-05
1.9939e-05
2.01058e-05
2.01767e-05
2.02395e-05
2.01605e-05
1.99281e-05
1.96023e-05
1.91798e-05
1.86482e-05
1.80366e-05
1.73806e-05
1.67029e-05
1.59918e-05
1.52416e-05
1.44731e-05
1.37004e-05
1.29271e-05
1.21581e-05
1.14062e-05
1.06717e-05
9.94193e-06
9.21352e-06
8.49194e-06
7.78005e-06
7.07668e-06
6.35959e-06
5.62763e-06
4.89704e-06
4.16039e-06
3.4125e-06
2.65377e-06
1.8783e-06
1.10675e-06
1.62235e-07
0.000451355
0.000451089
0.000450086
0.000448479
0.000446463
0.000444159
0.000441653
0.000439028
0.000436355
0.00043369
0.000431069
0.000428517
0.000426049
0.000423674
0.000421391
0.000419198
0.000417091
0.000415064
0.000413109
0.000411218
0.000409382
0.000407594
0.000405848
0.000404135
0.000402448
0.000400781
0.000399125
0.000397471
0.000395805
0.000394162
0.000392495
0.000390733
0.000388914
0.000387023
0.000385035
0.000382808
0.000380059
0.00037664
0.000372493
0.000367599
0.00036203
0.000355843
0.000349287
0.000342555
0.000335803
0.000329129
0.000322577
0.000316211
0.000310055
0.000304141
0.000298455
0.000292977
0.000287698
0.000282562
0.000277572
0.000272664
0.000267824
0.000263042
0.000258246
0.000253528
0.00024876
0.000244082
0.000239411
0.000234822
0.000230414
0.000226193
0.000222244
0.000218566
0.000215122
0.000212094
0.000209551
0.000207327
0.000205462
0.000204037
0.00020304
0.00020238
0.000202042
0.000202024
0.000202321
0.000202916
0.000203658
0.00020464
0.000205834
0.000207164
0.000208598
0.000210127
0.000211725
0.000213384
0.000215044
0.000216698
0.000218301
0.000219809
0.000221182
0.000222456
0.000223531
0.00022449
0.000225235
0.000225867
0.000226304
0.000226664
0.000226858
0.000226996
0.000227021
0.000226972
0.000226847
0.000226601
0.000226249
0.000225733
0.000225034
0.000224128
0.000222958
0.000221498
0.000219705
0.000217569
0.000215104
0.000212298
0.000209181
0.000205758
0.000202023
0.000197989
0.000193701
0.00018922
0.00018452
0.000179594
0.000174514
0.00016929
0.000163927
0.00015844
0.000152852
0.000147181
0.000141449
0.000135679
0.000129894
0.000124131
0.000118399
0.00011273
0.000107145
0.000101656
9.62787e-05
9.10233e-05
8.58728e-05
8.0842e-05
7.58876e-05
7.10161e-05
6.61934e-05
6.13965e-05
5.66334e-05
5.18467e-05
4.70664e-05
4.23514e-05
3.76725e-05
3.31476e-05
2.88359e-05
2.48088e-05
2.10812e-05
1.79088e-05
1.53716e-05
1.34065e-05
1.24737e-05
1.21341e-05
1.27725e-05
1.35164e-05
1.43131e-05
1.51499e-05
1.60012e-05
1.65482e-05
1.69187e-05
1.70179e-05
1.70713e-05
1.71299e-05
1.70351e-05
1.68277e-05
1.6671e-05
1.64735e-05
1.61385e-05
1.57183e-05
1.52797e-05
1.48446e-05
1.43714e-05
1.38476e-05
1.32944e-05
1.27225e-05
1.2132e-05
1.15234e-05
1.09027e-05
1.02687e-05
9.60729e-06
8.91907e-06
8.21892e-06
7.5121e-06
6.79585e-06
6.06089e-06
5.3261e-06
4.60468e-06
3.88132e-06
3.15679e-06
2.43621e-06
1.71702e-06
1.01682e-06
1.53404e-07
0.000451875
0.000451586
0.000450493
0.000448762
0.000446625
0.000444218
0.000441626
0.000438933
0.00043621
0.000433507
0.00043086
0.00042829
0.000425805
0.000423414
0.000421115
0.000418899
0.000416764
0.000414703
0.000412707
0.000410764
0.000408866
0.000407005
0.000405171
0.000403357
0.000401554
0.000399751
0.000397941
0.000396114
0.00039426
0.000392374
0.000390429
0.000388403
0.000386293
0.000384086
0.000381744
0.000379151
0.000376113
0.000372497
0.000368241
0.00036335
0.000357896
0.000351982
0.000345817
0.000339573
0.000333427
0.000327452
0.000321665
0.000316114
0.000310778
0.000305679
0.000300775
0.000296035
0.000291446
0.000286942
0.000282531
0.000278149
0.00027378
0.00026943
0.000265006
0.000260632
0.000256142
0.000251695
0.000247215
0.000242758
0.0002384
0.000234145
0.000230059
0.000226162
0.000222502
0.000219159
0.000216145
0.000213421
0.000210963
0.000208963
0.000207384
0.00020609
0.00020509
0.000204395
0.00020404
0.000204081
0.000204246
0.000204625
0.000205284
0.000206142
0.000207123
0.000208239
0.000209461
0.000210762
0.000212122
0.000213545
0.000214945
0.000216274
0.0002175
0.000218654
0.000219648
0.000220534
0.000221226
0.000221801
0.000222189
0.000222484
0.000222609
0.000222653
0.000222568
0.000222384
0.000222094
0.000221665
0.000221096
0.000220345
0.000219394
0.00021824
0.000216846
0.000215195
0.000213244
0.000211001
0.000208496
0.000205719
0.000202652
0.000199307
0.000195745
0.000191996
0.000188067
0.00018398
0.00017972
0.000175282
0.000170709
0.000166011
0.000161193
0.000156267
0.000151249
0.000146156
0.000141006
0.000135821
0.000130614
0.000125429
0.000120258
0.000115141
0.000110089
0.000105108
0.000100207
9.53981e-05
9.06479e-05
8.59825e-05
8.13402e-05
7.67397e-05
7.21328e-05
6.74998e-05
6.28454e-05
5.81162e-05
5.33186e-05
4.8528e-05
4.36657e-05
3.88871e-05
3.41232e-05
2.96066e-05
2.53106e-05
2.14451e-05
1.8015e-05
1.51885e-05
1.32947e-05
1.23282e-05
1.20125e-05
1.20937e-05
1.23696e-05
1.2737e-05
1.31229e-05
1.33574e-05
1.35559e-05
1.36644e-05
1.3709e-05
1.37639e-05
1.3792e-05
1.37741e-05
1.37636e-05
1.37285e-05
1.36107e-05
1.3403e-05
1.32006e-05
1.30358e-05
1.28112e-05
1.25096e-05
1.21654e-05
1.17869e-05
1.13698e-05
1.09082e-05
1.0403e-05
9.85499e-06
9.2605e-06
8.62249e-06
7.95089e-06
7.25314e-06
6.53427e-06
5.79965e-06
5.06282e-06
4.33486e-06
3.61742e-06
2.91545e-06
2.23521e-06
1.57467e-06
9.53368e-07
1.74392e-07
0.000453022
0.000452677
0.000451372
0.000449362
0.000446966
0.000444342
0.000441573
0.000438746
0.000435929
0.000433167
0.000430486
0.000427895
0.000425397
0.000423009
0.000420711
0.000418482
0.000416334
0.000414259
0.000412238
0.000410259
0.000408314
0.000406393
0.000404488
0.000402587
0.00040068
0.000398757
0.000396807
0.000394818
0.000392777
0.000390673
0.000388485
0.000386207
0.00038381
0.000381288
0.000378597
0.000375649
0.000372324
0.000368507
0.000364144
0.000359264
0.000353929
0.000348278