/*--------------------------------*- C++ -*----------------------------------*\
| =========                 |                                                 |
| \\      /  F ield         | OpenFOAM: The Open Source CFD Toolbox           |
|  \\    /   O peration     | Version:  2506                                  |
|   \\  /    A nd           | Website:  www.openfoam.com                      |
|    \\/     M anipulation  |                                                 |
\*---------------------------------------------------------------------------*/
FoamFile
{
    version     2.0;
    format      ascii;
    arch        "LSB;label=32;scalar=64";
    class       volVectorField;
    location    "4.5";
    object      vorticityField;
}
// * * * * * * * * * * * * * * * * * * * * * * * * * * * * * * * * * * * * * //

dimensions      [0 0 -1 0 0 0 0];

internalField   nonuniform List<vector> 
4000
(
(-2.48865e-21 8.43539e-19 -33.3793)
(-1.04852e-18 3.43436e-19 -35.6381)
(1.10729e-18 -3.73657e-18 -32.6599)
(3.57843e-18 2.76519e-18 -27.8689)
(-7.30081e-18 2.71494e-18 -24.0444)
(3.71428e-18 -4.63103e-18 -21.353)
(-3.01012e-20 1.70049e-18 -19.3674)
(3.59839e-18 -0 -17.8716)
(-3.54529e-18 -3.35082e-18 -16.7359)
(7.12241e-18 1.76618e-18 -15.8578)
(-7.13439e-18 -1.72604e-18 -15.1624)
(-2.25598e-19 3.81364e-19 -14.5991)
(-1.18482e-19 9.60775e-18 -14.1329)
(7.50564e-18 -6.67844e-18 -13.7387)
(-2.83471e-20 -0 -13.3983)
(-1.41826e-17 -6.57679e-18 -13.0981)
(1.39738e-17 3.99638e-18 -12.8275)
(-7.38978e-18 9.16176e-18 -12.5783)
(3.49499e-19 -6.58136e-18 -12.3437)
(0 -0 -12.118)
(0 -0 -11.8962)
(0 -0 -11.6736)
(8.78323e-19 -1.2944e-17 -11.4461)
(1.20572e-17 2.14246e-17 -11.2094)
(-2.77312e-17 8.79842e-18 -10.9596)
(1.57884e-17 -3.02127e-17 -10.6925)
(-9.92096e-19 1.29337e-17 -10.404)
(0 -0 -10.0898)
(0 -0 -9.74497)
(-1.14162e-18 1.28985e-17 -9.3636)
(-2.708e-17 -9.5421e-18 -8.93769)
(1.50551e-17 -1.62715e-17 -8.45908)
(2.88836e-17 1.55762e-18 -7.91195)
(8.12721e-19 -1.48378e-17 -7.15049)
(-8.19369e-18 7.48112e-17 -6.3059)
(-3.33076e-17 6.74873e-17 -5.92279)
(-1.06759e-16 -1.11611e-16 -6.16209)
(-3.81145e-19 -7.07409e-19 -6.83297)
(6.97758e-17 2.07599e-16 -7.8885)
(-1.03948e-16 -6.91003e-17 -9.41103)
(4.38901e-17 -2.47559e-16 -11.7094)
(1.20564e-16 2.30926e-16 -14.5702)
(-3.76541e-17 1.01741e-16 -17.4757)
(2.75102e-17 -1.09041e-16 -20.2648)
(1.2426e-16 8.6852e-17 -22.8962)
(-1.42292e-16 2.03218e-17 -25.3948)
(-1.94867e-16 1.67921e-16 -27.8191)
(-1.02072e-16 -1.11905e-16 -30.0097)
(-7.93238e-17 -1.97839e-16 -32.0262)
(-4.78441e-17 -1.22876e-16 -33.8406)
(9.95032e-17 -1.19849e-16 -35.3605)
(-3.69469e-18 4.5885e-17 -36.6627)
(-5.49258e-17 -8.5992e-17 -37.5637)
(8.95654e-17 -1.06502e-16 -38.1859)
(-7.47457e-18 8.73784e-17 -38.3749)
(-3.48257e-17 5.53032e-17 -38.1603)
(8.06245e-18 5.17246e-17 -37.5811)
(3.83651e-18 9.37579e-18 -36.515)
(8.53643e-18 1.57987e-17 -35.2004)
(-5.1788e-18 -2.51158e-18 -33.4553)
(4.97647e-18 4.65057e-18 -31.3933)
(1.93091e-17 3.57719e-19 -29.2198)
(-9.12922e-18 -4.22493e-18 -26.877)
(-7.61224e-18 -4.97834e-17 -24.5291)
(-1.05253e-17 -5.94645e-17 -22.1961)
(-9.06089e-18 4.44212e-17 -19.9247)
(5.96376e-17 4.34077e-17 -17.8054)
(-1.25709e-19 -3.22704e-17 -15.7846)
(2.21662e-17 4.99529e-17 -13.9623)
(-5.49338e-17 5.15636e-17 -12.2678)
(-1.09026e-17 -3.73834e-17 -10.7496)
(-2.78957e-17 -5.96047e-17 -9.38099)
(1.17252e-20 -1.37297e-19 -8.13184)
(-7.42656e-17 4.71061e-17 -7.03552)
(-7.38338e-17 5.25767e-17 -6.04924)
(-2.85339e-18 6.45159e-17 -5.17169)
(-6.49145e-17 4.14332e-17 -4.40563)
(7.79664e-18 -6.63198e-17 -3.73227)
(-8.16191e-17 2.90113e-17 -3.14525)
(6.58385e-17 2.13076e-17 -2.64497)
(-1.26842e-16 3.49161e-17 -2.2208)
(-1.97179e-17 -7.04643e-17 -1.86474)
(3.84228e-18 -1.21625e-17 -1.57082)
(-7.29825e-18 2.22167e-18 -1.32992)
(6.65894e-17 1.01929e-16 -1.13329)
(-1.16957e-16 1.55007e-16 -0.972505)
(4.67169e-18 -1.40377e-16 -0.837361)
(-7.19368e-18 -7.11739e-17 -0.722168)
(-1.19885e-18 1.38222e-16 -0.623723)
(-5.04295e-17 3.2576e-17 -0.534912)
(2.08517e-19 1.32651e-18 -0.454549)
(-5.05877e-17 9.32899e-17 -0.383218)
(-2.39199e-17 -1.14729e-16 -0.316874)
(1.80906e-17 -3.80251e-17 -0.257381)
(5.28258e-19 5.94188e-17 -0.205939)
(7.6662e-18 -6.67919e-17 -0.161059)
(2.30063e-17 -9.64601e-18 -0.125576)
(2.9925e-18 3.11193e-18 -0.0976919)
(-3.49035e-17 -5.26069e-18 -0.0794525)
(5.71923e-18 2.96331e-17 -0.0705678)
(6.29596e-18 -8.44592e-19 -0.072835)
(1.9452e-18 -5.44839e-18 -0.0850131)
(-1.05627e-18 1.85457e-17 -0.109659)
(-2.78899e-18 5.02283e-18 -0.148036)
(-4.11345e-18 -2.03283e-18 -0.204425)
(-7.48514e-20 -6.79494e-18 -0.281868)
(4.13442e-19 5.55176e-17 -0.385489)
(-2.10599e-17 -2.65543e-18 -0.521435)
(-2.67513e-17 -9.45419e-17 -0.695896)
(5.03475e-17 -1.39452e-17 -0.917331)
(-2.60088e-17 1.6515e-17 -1.19445)
(1.17392e-18 6.401e-17 -1.53517)
(-2.68678e-17 -1.27402e-17 -1.95251)
(-2.46112e-17 -5.51258e-17 -2.44715)
(-8.0682e-19 -6.82751e-17 -3.04084)
(5.37288e-17 3.55184e-17 -3.73022)
(2.72784e-19 1.35488e-16 -4.52272)
(-7.35143e-18 3.38648e-17 -5.42928)
(5.63497e-17 4.20189e-17 -6.44098)
(-5.79153e-17 -4.33181e-17 -7.5599)
(-4.55707e-17 -2.45137e-16 -8.78885)
(7.10509e-17 4.74358e-17 -10.1113)
(4.21523e-18 1.52491e-16 -11.5156)
(-6.71693e-17 -4.40295e-17 -13.0017)
(-1.10892e-17 -1.60457e-16 -14.5455)
(1.23668e-16 8.79089e-17 -16.1355)
(-3.71744e-17 4.106e-17 -17.7565)
(5.27423e-17 -6.10574e-18 -19.388)
(6.3155e-17 8.89222e-17 -21.022)
(-6.27147e-17 1.86116e-16 -22.6634)
(-7.25631e-18 5.35959e-17 -24.2504)
(-1.24925e-16 9.37998e-17 -25.8075)
(-2.5433e-17 -5.63142e-17 -27.359)
(-9.60705e-17 -6.80689e-17 -28.8038)
(-4.71261e-17 1.44396e-16 -30.1855)
(-5.23709e-18 -1.8299e-18 -31.5696)
(5.60079e-18 3.46152e-18 -32.7358)
(3.87521e-17 -9.74678e-17 -33.8779)
(4.79612e-18 4.0983e-18 -34.8247)
(-1.09125e-17 1.8034e-17 -35.621)
(-2.44635e-17 9.17175e-17 -36.2031)
(-1.83948e-17 6.91271e-18 -36.5295)
(-1.44931e-17 7.85755e-17 -36.5333)
(-5.26258e-18 1.36631e-17 -36.2659)
(-3.02896e-18 1.31664e-17 -35.5084)
(8.16497e-18 -6.76108e-17 -34.5184)
(8.24346e-20 3.11347e-19 -33.0015)
(0 -0 -31.1476)
(4.63271e-19 -5.78267e-19 -29.0479)
(9.41549e-19 1.05366e-17 -26.6391)
(-1.80669e-18 -6.99945e-18 -24.1495)
(-1.72689e-19 1.5409e-18 -21.5104)
(-2.53723e-18 -1.56091e-18 -18.8831)
(-1.07946e-18 -3.00343e-18 -16.3183)
(1.69203e-18 -6.60219e-19 -13.8664)
(-7.04024e-19 1.61555e-18 -11.579)
(-9.33478e-18 -2.57745e-17 -9.45734)
(-6.52213e-20 -2.68358e-18 -7.5493)
(-4.70379e-19 -4.76104e-18 -5.80734)
(-8.13164e-18 -2.67017e-17 -4.25866)
(-4.83998e-18 1.16657e-17 -3.32096)
(7.66178e-18 5.4951e-18 -3.08796)
(-1.3451e-18 -2.17815e-18 -3.00308)
(9.99021e-19 -2.32891e-19 -3.07095)
(1.21304e-18 -1.86562e-19 -3.34579)
(1.33226e-18 -1.1069e-19 -3.87077)
(-1.2366e-18 -1.06667e-18 -4.74395)
(1.13207e-18 -2.37158e-18 -5.86943)
(1.44116e-19 5.91465e-19 -6.95154)
(2.07614e-19 6.86587e-19 -7.91522)
(-1.23632e-18 3.24715e-18 -8.7807)
(-2.86771e-19 -2.13662e-18 -9.5479)
(-4.55223e-21 -3.20985e-18 -10.2116)
(2.61458e-19 5.23412e-18 -10.7705)
(-1.69519e-19 -1.30415e-18 -11.2268)
(1.08845e-18 3.34215e-20 -11.5857)
(-1.97147e-18 7.87723e-19 -11.8548)
(1.00401e-18 4.16619e-18 -12.0434)
(-1.62153e-19 -5.73079e-18 -12.1627)
(5.42868e-20 7.90664e-19 -12.2246)
(4.39254e-19 2.73085e-19 -12.2414)
(-7.04827e-19 2.16282e-18 -12.2254)
(-4.53257e-20 -5.43806e-19 -12.1878)
(1.7408e-20 -2.43755e-18 -12.1388)
(2.64396e-19 2.66595e-19 -12.0868)
(2.376e-19 7.08731e-22 -12.0378)
(-2.64422e-19 -7.88738e-22 -11.996)
(2.22053e-19 -9.49673e-21 -11.9631)
(-3.74717e-19 -2.89528e-19 -11.939)
(2.38004e-19 1.08467e-20 -11.9212)
(-8.05137e-20 -2.40163e-22 -11.9065)
(-1.84296e-20 -5.02959e-20 -11.8905)
(5.56893e-20 -1.1397e-18 -11.8686)
(-1.72502e-20 1.23624e-18 -11.8365)
(-5.00713e-20 -5.43008e-20 -11.7904)
(7.62884e-21 -2.93867e-19 -11.727)
(-4.43697e-21 -5.71764e-19 -11.6451)
(-7.59771e-21 3.06682e-19 -11.5417)
(-4.11112e-21 2.80185e-19 -11.3986)
(-7.0607e-22 -3.31336e-21 -11.2242)
(0 -0 3.17879)
(3.00562e-20 -0 -6.36911)
(-5.69643e-20 -1.63644e-18 -12.8043)
(3.39695e-19 -9.49189e-20 -15.419)
(1.09536e-18 6.46796e-18 -16.1272)
(-1.42472e-18 -6.42067e-18 -15.8634)
(3.98901e-20 -1.69099e-18 -15.2728)
(1.64883e-19 -1.48709e-18 -14.6272)
(-3.62934e-18 4.87398e-18 -14.0223)
(3.3736e-18 -4.40256e-18 -13.489)
(6.53222e-18 1.46143e-17 -13.0301)
(-1.38462e-17 -2.06343e-18 -12.6374)
(9.88771e-19 -2.17931e-17 -12.3005)
(6.74648e-18 -8.80772e-19 -12.0094)
(-8.98389e-19 2.05727e-17 -11.7553)
(-6.74169e-18 8.137e-18 -11.5306)
(7.41123e-18 -2.09948e-17 -11.3289)
(-1.53555e-19 6.79889e-18 -11.1447)
(0 -0 -10.9735)
(0 -0 -10.811)
(0 -0 -10.6538)
(0 -0 -10.4984)
(0 -0 -10.3416)
(-2.74825e-17 -0 -10.1805)
(4.13636e-17 -0 -10.0119)
(-1.38532e-17 -0 -9.83275)
(0 -0 -9.63969)
(0 -0 -9.4292)
(0 -0 -9.19724)
(-1.19568e-18 1.35094e-17 -8.93895)
(-3.12287e-19 1.01477e-17 -8.64804)
(3.68895e-18 -4.12507e-17 -8.31615)
(-1.52398e-19 -6.59575e-18 -7.93269)
(-1.58397e-17 4.93025e-17 -7.46823)
(-9.466e-18 -4.64613e-17 -6.9771)
(4.11275e-17 2.09803e-17 -6.6566)
(9.74892e-17 1.26311e-16 -6.64594)
(5.33895e-18 -2.01913e-16 -6.97024)
(-1.70476e-17 -1.72901e-16 -7.62832)
(1.11703e-16 2.40755e-16 -8.6409)
(-3.29329e-17 1.36303e-17 -10.0666)
(-8.55307e-17 -1.8057e-16 -11.6929)
(7.63002e-17 -1.39856e-16 -13.4033)
(1.26975e-17 -4.16446e-17 -15.1623)
(-2.32881e-17 -1.79128e-16 -16.886)
(-9.071e-18 4.4058e-16 -18.5829)
(1.86249e-16 1.39041e-16 -20.2419)
(1.04886e-16 1.11908e-16 -21.7979)
(7.55195e-17 1.51195e-16 -23.3001)
(5.95281e-17 -2.13973e-17 -24.6763)
(-1.29331e-16 -1.43218e-16 -25.9224)
(-3.05422e-18 3.7625e-17 -27.049)
(-1.81581e-17 2.40892e-16 -27.978)
(-8.02455e-17 5.75484e-17 -28.7651)
(4.91667e-17 -2.38074e-17 -29.3235)
(3.61414e-17 3.68131e-17 -29.6856)
(3.63338e-17 -5.57793e-17 -29.8132)
(8.32636e-18 1.10177e-17 -29.6912)
(-3.74099e-18 -3.18454e-17 -29.3383)
(-5.92733e-18 1.41203e-17 -28.7237)
(-2.89878e-18 -1.44672e-17 -27.853)
(-2.50558e-17 -7.54477e-17 -26.7566)
(1.97481e-17 7.33254e-17 -25.4678)
(-2.3617e-18 9.17287e-17 -24.0181)
(4.53712e-17 1.41851e-16 -22.4752)
(6.32525e-18 -5.05563e-17 -20.8444)
(-7.21715e-18 -7.73504e-17 -19.2232)
(-1.49917e-17 6.28543e-17 -17.593)
(-2.41164e-17 -3.27385e-18 -16.0339)
(6.18807e-17 -3.97979e-17 -14.5349)
(4.58655e-18 2.11858e-17 -13.1224)
(-1.27976e-16 -2.4164e-17 -11.8175)
(5.68969e-17 3.48451e-17 -10.5936)
(4.42053e-17 1.6809e-16 -9.48021)
(1.2098e-16 -3.77249e-17 -8.46397)
(1.13953e-17 -7.62602e-17 -7.53744)
(-1.18024e-17 9.95675e-18 -6.70651)
(-4.5504e-18 7.1179e-17 -5.96266)
(-5.35069e-17 -4.57007e-18 -5.29708)
(-1.56535e-16 5.40203e-17 -4.7091)
(2.03389e-16 5.81746e-17 -4.19174)
(2.19609e-17 -7.83007e-17 -3.73663)
(-6.59478e-17 4.55921e-17 -3.33828)
(2.15137e-17 -4.97661e-17 -2.98937)
(-4.18024e-18 -8.78778e-18 -2.68258)
(1.27257e-16 -6.0416e-17 -2.41285)
(4.63218e-17 -5.53177e-17 -2.17305)
(6.56634e-17 4.26962e-17 -1.95774)
(5.3926e-17 -1.09738e-16 -1.76639)
(1.09968e-16 -6.98014e-17 -1.59387)
(3.50122e-20 2.22215e-18 -1.4378)
(5.12081e-17 -6.36821e-17 -1.30016)
(2.03386e-17 2.08721e-17 -1.1776)
(-4.81599e-17 2.62671e-17 -1.07001)
(2.23052e-17 -5.71483e-17 -0.979584)
(8.86143e-19 3.16848e-17 -0.902946)
(-4.82967e-17 2.25717e-17 -0.843379)
(2.30322e-17 6.12769e-17 -0.79753)
(2.15033e-18 1.49827e-17 -0.767593)
(-1.28814e-17 -7.88262e-17 -0.7515)
(-6.36198e-18 3.02616e-18 -0.751282)
(-7.57515e-18 1.6056e-17 -0.764998)
(-3.20874e-18 -1.24218e-17 -0.794899)
(2.82085e-18 -1.67866e-18 -0.840884)
(5.5303e-18 -1.4585e-18 -0.905595)
(1.17673e-17 3.27251e-18 -0.991336)
(-2.23163e-19 -2.99666e-17 -1.10082)
(6.96206e-17 4.57654e-17 -1.23813)
(8.64115e-19 5.28273e-18 -1.40698)
(-4.70847e-17 8.31379e-18 -1.61217)
(-1.82016e-18 4.60521e-17 -1.85879)
(-1.89421e-18 -6.51866e-17 -2.1514)
(2.61751e-17 4.71244e-17 -2.49696)
(2.34346e-17 1.88559e-17 -2.8961)
(-2.72403e-17 -4.96551e-17 -3.3622)
(-5.36669e-17 -3.10645e-17 -3.88844)
(2.05557e-18 -7.4921e-17 -4.48638)
(1.02114e-17 -1.06664e-16 -5.15724)
(-1.30788e-17 -2.66313e-17 -5.89608)
(1.16439e-16 2.35054e-16 -6.71014)
(-9.38466e-17 3.50667e-18 -7.59677)
(-5.64639e-17 -1.38096e-16 -8.54617)
(4.45181e-17 5.6616e-17 -9.55926)
(7.9506e-17 4.7585e-17 -10.6333)
(4.83228e-17 -1.02402e-17 -11.7512)
(-8.88033e-17 -2.41845e-16 -12.9121)
(-4.219e-17 1.94342e-16 -14.1041)
(8.54563e-17 -2.98317e-16 -15.3149)
(-1.56119e-17 6.6384e-18 -16.5409)
(1.8256e-16 -1.6133e-17 -17.7744)
(4.633e-17 3.03003e-17 -18.9795)
(1.95767e-16 -5.60649e-17 -20.184)
(4.50355e-17 1.59866e-16 -21.373)
(-4.47287e-17 2.61032e-16 -22.4872)
(8.08667e-17 -2.03551e-16 -23.5852)
(-5.69311e-18 7.66736e-17 -24.6464)
(3.07464e-17 -2.4753e-17 -25.5681)
(2.16728e-17 -3.64526e-17 -26.4919)
(1.20683e-17 -3.81254e-17 -27.2589)
(-8.54797e-18 3.15064e-17 -27.9473)
(4.93188e-17 -1.36184e-16 -28.4978)
(-6.34479e-17 2.33741e-16 -28.9003)
(4.0863e-17 -1.53371e-16 -29.1331)
(1.111e-18 6.04649e-18 -29.2008)
(9.08859e-18 -5.70473e-17 -29.0208)
(-9.12061e-19 1.47622e-17 -28.6872)
(-1.7e-18 2.25904e-17 -28.0419)
(8.96323e-20 -3.39344e-19 -27.206)
(5.31626e-19 4.20225e-17 -26.1127)
(-4.12091e-18 -7.65443e-17 -24.7894)
(8.31184e-19 -3.07978e-18 -23.2884)
(2.04602e-17 1.28379e-16 -21.5912)
(5.54934e-18 2.23408e-17 -19.7834)
(-3.79226e-18 -1.98779e-17 -17.8802)
(-3.19595e-18 1.42341e-18 -15.9537)
(-2.21816e-17 -7.74448e-17 -14.0374)
(1.05327e-17 2.6577e-17 -12.1735)
(-2.01086e-17 -5.34663e-17 -10.399)
(1.14638e-18 3.62915e-18 -8.74208)
(2.09927e-18 3.34143e-17 -7.26444)
(1.61542e-17 2.10065e-17 -6.16792)
(-1.38342e-17 -4.17718e-17 -5.58517)
(1.05572e-18 9.47085e-18 -5.29668)
(-3.44778e-18 -5.25254e-18 -5.20827)
(-1.02969e-18 -4.92586e-18 -5.31134)
(-3.69459e-18 -6.1868e-18 -5.61451)
(3.20388e-18 5.49871e-18 -6.11664)
(-1.19052e-18 -3.12162e-19 -6.74405)
(-1.56343e-20 -1.43084e-19 -7.37941)
(-1.54178e-19 -7.82412e-19 -7.96946)
(3.80363e-20 1.38672e-19 -8.50404)
(2.38796e-19 1.99483e-18 -8.98353)
(-9.02277e-19 1.08774e-17 -9.40718)
(5.82289e-19 -1.4044e-17 -9.77415)
(9.42645e-20 1.51625e-18 -10.0848)
(1.08405e-18 -1.17508e-17 -10.341)
(-8.1287e-19 2.51905e-17 -10.5458)
(-2.73183e-19 -2.8367e-17 -10.7035)
(2.48493e-19 1.66263e-17 -10.8193)
(-8.42206e-20 -1.24557e-18 -10.8995)
(-1.43918e-20 -7.77829e-18 -10.9504)
(3.23394e-19 7.68189e-18 -10.9789)
(-2.93767e-19 1.02883e-18 -10.9912)
(-3.14104e-19 6.68446e-18 -10.9927)
(2.97321e-19 -6.26892e-18 -10.9879)
(9.85801e-20 -6.43814e-18 -10.9805)
(5.93727e-21 8.00077e-18 -10.9724)
(-7.79243e-21 -7.8671e-18 -10.9644)
(-2.99044e-20 1.39789e-17 -10.9561)
(1.9534e-20 -9.42955e-18 -10.9464)
(7.3502e-20 3.64565e-18 -10.9333)
(-5.57982e-20 1.03166e-18 -10.9144)
(-1.10782e-19 -4.92469e-20 -10.8874)
(1.27127e-19 -2.25013e-18 -10.8502)
(-7.08305e-21 3.41538e-18 -10.8009)
(6.39826e-21 -3.35529e-19 -10.7385)
(-2.79272e-21 1.67614e-18 -10.6625)
(1.15524e-20 -1.51574e-20 -10.5725)
(-3.17565e-22 6.39905e-22 -10.4683)
(-1.5097e-20 1.04951e-18 -10.3827)
(-2.42366e-21 8.21512e-19 5.45327)
(-3.79144e-19 1.31321e-18 2.32274)
(4.02758e-19 -4.52583e-18 -1.6351)
(5.92094e-19 -1.85931e-18 -5.00234)
(1.16897e-18 5.84251e-18 -7.50514)
(-1.77533e-18 -1.59209e-18 -8.9523)
(0 -0 -9.77341)
(-3.68038e-18 3.19272e-18 -10.1611)
(3.35661e-18 5.2163e-19 -10.2907)
(-2.62954e-18 -2.00324e-17 -10.2872)
(3.48075e-18 6.62326e-18 -10.2163)
(-2.18483e-19 2.26009e-17 -10.1136)
(-6.4151e-19 -6.58422e-19 -9.99913)
(-1.31666e-17 -1.87183e-17 -9.88322)
(1.26354e-17 1.2911e-17 -9.77081)
(8.25687e-18 -1.36231e-18 -9.6639)
(-1.33003e-17 -2.28538e-17 -9.5629)
(5.67273e-18 2.42295e-17 -9.46731)
(3.42723e-19 -6.45376e-18 -9.37614)
(0 -0 -9.28822)
(1.30767e-17 -0 -9.20228)
(-1.31046e-17 -0 -9.11698)
(-8.69128e-19 1.28085e-17 -9.03093)
(-1.26519e-17 7.39771e-18 -8.94262)
(1.44943e-17 -3.30415e-17 -8.8504)
(-9.46683e-19 1.28353e-17 -8.75242)
(0 -0 -8.64656)
(1.30704e-17 -0 -8.53038)
(-1.53491e-20 -0 -8.401)
(-1.4267e-17 1.29185e-17 -8.25487)
(1.49998e-18 3.80744e-18 -8.08746)
(2.85235e-17 -2.96903e-17 -7.89263)
(-4.34243e-17 1.2148e-17 -7.66476)
(2.53265e-17 -1.2749e-18 -7.39764)
(-1.52546e-18 2.7566e-17 -7.10701)
(-5.52382e-17 -4.18131e-17 -6.85146)
(8.5404e-17 -4.97784e-17 -6.71402)
(3.78087e-17 1.86593e-16 -6.77674)
(-1.26217e-16 8.2702e-17 -7.06975)
(-2.94788e-17 -9.18416e-17 -7.591)
(-2.29838e-17 -1.41513e-18 -8.32679)
(-1.40092e-16 -1.17906e-17 -9.14818)
(-6.55831e-17 2.11023e-16 -10.0561)
(1.08671e-16 7.22269e-17 -11.049)
(-2.80598e-16 5.19624e-17 -12.0751)
(3.03385e-16 -4.0614e-16 -13.1301)
(7.51994e-17 -2.09222e-16 -14.1924)
(-5.3602e-18 6.24137e-17 -15.2413)
(9.01394e-17 -2.01601e-16 -16.2925)
(-3.63039e-18 1.29057e-16 -17.2977)
(-1.09143e-16 4.2019e-16 -18.2662)
(1.49981e-17 -1.09927e-16 -19.1922)
(5.14886e-17 -1.99975e-16 -20.0522)
(9.27192e-17 -2.76377e-16 -20.8571)
(1.84229e-17 -2.44475e-16 -21.5788)
(-1.69155e-18 -8.62827e-17 -22.2231)
(-5.21941e-18 -1.26905e-16 -22.7628)
(4.35693e-18 -3.1585e-17 -23.1965)
(-9.51023e-18 3.92562e-17 -23.4872)
(8.06768e-18 3.67122e-17 -23.6432)
(3.86898e-18 7.07032e-18 -23.6182)
(-1.21585e-17 7.49221e-17 -23.3982)
(1.96025e-17 -9.64399e-17 -22.9879)
(2.36107e-17 -4.35315e-17 -22.3736)
(-6.85871e-17 -3.34834e-16 -21.6057)
(-3.03161e-17 5.29141e-17 -20.6629)
(-6.68302e-17 -5.3854e-18 -19.6281)
(1.8821e-17 3.64525e-17 -18.487)
(1.53172e-18 -1.46977e-17 -17.3141)
(-5.43414e-17 4.61327e-18 -16.1176)
(1.03409e-17 1.15844e-16 -14.9252)
(1.75821e-16 9.96483e-17 -13.7783)
(-1.43941e-16 -2.13126e-16 -12.6611)
(1.75945e-16 -2.75591e-17 -11.6078)
(2.90178e-17 -1.33293e-16 -10.6195)
(-1.68092e-17 1.43726e-16 -9.69341)
(1.26504e-16 8.73874e-17 -8.83955)
(4.33482e-18 -3.97758e-18 -8.05633)
(1.75105e-16 1.5004e-16 -7.33718)
(7.52171e-17 -9.54686e-17 -6.68256)
(1.50653e-17 -3.73433e-16 -6.0885)
(-3.45855e-17 1.46281e-16 -5.54796)
(8.85417e-17 2.03038e-17 -5.05717)
(5.19987e-17 -1.48443e-16 -4.61101)
(-6.199e-17 4.37264e-17 -4.20389)
(1.07901e-16 -9.88571e-17 -3.83407)
(-1.87657e-16 1.73632e-17 -3.49762)
(-1.4992e-16 -7.02687e-17 -3.18984)
(-7.12526e-17 7.46103e-17 -2.91331)
(-1.39949e-17 3.6589e-17 -2.66445)
(1.13651e-18 7.21323e-17 -2.44008)
(2.36767e-18 3.3059e-17 -2.24348)
(-2.63767e-17 1.96294e-17 -2.07122)
(2.8849e-17 -4.31562e-17 -1.92104)
(-5.41403e-19 -2.51476e-18 -1.79665)
(-8.94275e-18 3.0092e-17 -1.69148)
(3.23697e-18 -2.41285e-17 -1.61048)
(-3.3829e-18 -6.48404e-17 -1.54756)
(7.80975e-17 3.69016e-18 -1.50617)
(6.83955e-18 3.8453e-17 -1.48177)
(-5.892e-18 -1.20427e-18 -1.47729)
(8.61203e-18 -1.0583e-17 -1.48907)
(2.63795e-19 6.60894e-18 -1.51899)
(-7.91976e-20 -5.63089e-18 -1.56586)
(-1.78716e-19 -1.26077e-17 -1.63062)
(-1.17947e-17 -6.18099e-18 -1.71428)
(-1.24291e-17 -1.7226e-17 -1.81746)
(-4.69373e-17 -2.31172e-17 -1.94183)
(7.24232e-17 8.73421e-17 -2.08879)
(-5.05589e-17 -3.97387e-17 -2.26012)
(5.24123e-17 -2.01633e-17 -2.45797)
(-6.95513e-19 3.21995e-17 -2.6841)
(1.36231e-18 -3.35786e-17 -2.94211)
(1.00862e-17 5.49488e-18 -3.23104)
(-8.60138e-18 6.92198e-17 -3.56009)
(-4.48959e-19 -3.69349e-17 -3.92247)
(2.55647e-17 8.36441e-17 -4.32818)
(-2.04614e-17 1.84646e-16 -4.77731)
(-1.50333e-16 -1.43595e-16 -5.26747)
(3.47028e-18 -1.52937e-16 -5.80611)
(5.87674e-17 2.98941e-16 -6.39229)
(2.9705e-17 -1.04971e-16 -7.0215)
(4.38287e-17 -2.04846e-16 -7.69808)
(-5.55564e-17 -7.33268e-17 -8.42133)
(9.92922e-17 -9.58213e-17 -9.18155)
(-3.18979e-16 3.92452e-16 -9.98087)
(1.67669e-16 -2.62029e-16 -10.8123)
(-1.68918e-16 1.40045e-16 -11.6687)
(5.91442e-17 -3.8613e-16 -12.547)
(1.12787e-16 -4.25458e-16 -13.4399)
(1.06089e-16 -2.07174e-16 -14.3264)
(-3.64632e-17 -7.37677e-17 -15.2214)
(1.2571e-16 -3.86744e-16 -16.1106)
(2.36543e-16 -2.38815e-16 -16.9569)
(-8.28524e-17 5.43833e-17 -17.7989)
(2.15762e-17 -6.17101e-17 -18.61)
(7.20139e-17 -1.68481e-16 -19.3423)
(3.14029e-17 -9.82027e-17 -20.0748)
(-2.14228e-17 5.29475e-17 -20.7149)
(9.79364e-18 -5.19245e-17 -21.3113)
(-7.18666e-17 2.50586e-16 -21.8362)
(2.79705e-17 6.97242e-18 -22.2869)
(-4.08096e-18 9.56293e-19 -22.6619)
(-1.28173e-17 5.84913e-17 -22.9583)
(-3.85744e-17 2.20803e-16 -23.147)
(-2.82988e-19 -1.99915e-18 -23.2576)
(6.7039e-18 -1.07093e-16 -23.2148)
(-3.25254e-18 6.85308e-17 -23.0675)
(-1.71332e-18 -4.22892e-17 -22.7438)
(1.04854e-17 1.21707e-16 -22.2488)
(5.22837e-18 6.00925e-17 -21.5794)
(-2.26233e-17 -1.26653e-16 -20.7106)
(-3.46893e-17 -2.11928e-16 -19.678)
(1.39766e-17 6.47278e-17 -18.4719)
(-3.86763e-17 -1.72833e-16 -17.1411)
(2.38965e-17 7.54917e-17 -15.7083)
(6.53972e-18 2.10804e-17 -14.2191)
(1.74643e-17 5.13487e-17 -12.7094)
(-5.39757e-18 -1.55034e-17 -11.2346)
(2.78211e-17 6.16201e-17 -9.87524)
(-6.88263e-18 -2.98619e-17 -8.73486)
(-7.60244e-19 2.2648e-17 -7.9474)
(3.98998e-18 8.31084e-18 -7.46574)
(7.5747e-18 2.30244e-17 -7.20105)
(-1.08508e-18 5.13951e-19 -7.11062)
(2.17733e-18 1.63509e-17 -7.17496)
(-4.31962e-18 -2.39203e-17 -7.35851)
(1.3687e-18 -2.41109e-19 -7.60979)
(1.38309e-18 -1.2901e-18 -7.87844)
(4.17887e-19 5.56446e-19 -8.13494)
(3.80109e-19 1.62057e-17 -8.36998)
(6.25428e-20 -1.99747e-18 -8.58552)
(2.40075e-18 1.48e-19 -8.78382)
(-2.40843e-18 9.29021e-19 -8.96547)
(-1.40176e-19 -2.10807e-18 -9.13037)
(-1.75175e-18 -2.33317e-17 -9.27827)
(2.70778e-18 2.40684e-17 -9.40886)
(-1.012e-18 2.0089e-17 -9.52193)
(-1.39615e-19 -2.36859e-17 -9.61754)
(5.93886e-20 8.67043e-19 -9.69613)
(-5.09218e-19 1.12572e-18 -9.75852)
(4.06132e-19 1.90516e-19 -9.80587)
(7.65086e-20 9.90169e-18 -9.8401)
(5.12233e-19 -4.79147e-19 -9.86244)
(-4.60367e-19 -1.21449e-17 -9.87429)
(-2.7092e-19 -2.95247e-18 -9.87786)
(3.21065e-19 -1.03961e-18 -9.8745)
(-2.24077e-19 1.13647e-18 -9.86527)
(2.25623e-19 -3.93938e-20 -9.85102)
(-7.99551e-20 -1.17414e-18 -9.83254)
(1.23899e-19 -5.38831e-18 -9.81012)
(7.36332e-20 4.4427e-18 -9.78355)
(-7.74137e-20 5.3226e-18 -9.75261)
(2.77004e-20 -6.56786e-18 -9.71674)
(4.86589e-21 5.13712e-20 -9.67519)
(-8.55046e-21 -1.55469e-18 -9.62718)
(2.57339e-20 -2.6627e-18 -9.57203)
(2.38751e-20 -1.29898e-18 -9.50927)
(-6.31107e-21 1.31638e-18 -9.43791)
(1.64873e-20 -1.05612e-18 -9.39315)
(0 -0 3.61404)
(8.75067e-19 -0 3.04597)
(-8.53527e-19 -1.57626e-18 1.88242)
(6.7527e-19 -2.89796e-18 0.036798)
(-6.84675e-19 6.04811e-18 -1.71944)
(2.32169e-20 -1.5739e-18 -3.27941)
(3.25379e-18 -0 -4.57348)
(-3.2586e-18 -0 -5.50421)
(1.79048e-19 -0 -6.16577)
(-3.98197e-19 -0 -6.63584)
(-6.82982e-18 6.18907e-18 -6.95317)
(6.27226e-18 9.70414e-18 -7.16656)
(7.67699e-18 -1.59213e-17 -7.31107)
(-8.57087e-19 9.1776e-18 -7.40859)
(1.13429e-18 -3.04701e-17 -7.4734)
(-7.30536e-18 3.37218e-17 -7.51543)
(-7.20421e-18 2.27385e-18 -7.54145)
(7.64445e-18 -2.08793e-17 -7.55592)
(-3.29469e-19 6.20418e-18 -7.56177)
(7.06453e-18 -1.23333e-17 -7.56101)
(-6.31529e-18 -1.55372e-17 -7.55499)
(-1.5633e-18 4.02302e-17 -7.54464)
(-3.32192e-20 -4.78186e-20 -7.53054)
(1.0185e-18 1.44396e-17 -7.51302)
(1.33272e-17 -3.90885e-17 -7.49206)
(-1.35391e-17 1.2337e-17 -7.46735)
(-1.16183e-17 -1.23274e-17 -7.43821)
(1.22779e-18 -2.49173e-17 -7.40359)
(2.32851e-17 2.52795e-17 -7.36197)
(-1.50663e-17 3.67397e-17 -7.31131)
(2.82845e-18 -1.42396e-17 -7.24888)
(-1.03037e-17 -4.51514e-17 -7.17076)
(9.60988e-18 3.53524e-17 -7.07413)
(1.41705e-17 -1.91482e-17 -6.95794)
(-1.77677e-17 4.44275e-17 -6.8204)
(2.72711e-17 -2.80485e-18 -6.65942)
(-1.00225e-16 -9.70603e-17 -6.50363)
(-8.18916e-17 -1.59208e-16 -6.42731)
(1.44834e-16 -1.88514e-17 -6.47271)
(4.7883e-17 1.11254e-16 -6.64163)
(-2.35341e-17 1.6602e-16 -6.91295)
(-1.02199e-17 2.40192e-16 -7.22798)
(1.82984e-16 -5.75827e-16 -7.61473)
(4.52746e-17 -2.91701e-16 -8.0789)
(1.8025e-17 2.26166e-16 -8.59968)
(-8.19657e-17 -1.04943e-16 -9.17126)
(-1.74424e-16 2.12705e-16 -9.77137)
(-4.44705e-17 -2.78296e-17 -10.4119)
(-1.62e-16 1.95608e-16 -11.0747)
(-3.08026e-17 -1.38154e-16 -11.7379)
(1.92557e-16 -1.80194e-16 -12.4251)
(-4.36856e-17 3.12802e-17 -13.11)
(-1.01985e-16 3.84226e-16 -13.8004)
(-1.21592e-16 1.87289e-16 -14.4878)
(-6.479e-17 2.43215e-16 -15.1743)
(-2.91692e-17 1.23434e-16 -15.8559)
(-3.74389e-17 -9.27625e-18 -16.5227)
(-4.34623e-18 -4.32705e-17 -17.1778)
(2.93155e-18 -3.36758e-17 -17.7783)
(6.58163e-18 -5.40561e-17 -18.3472)
(-9.90108e-18 -3.44075e-17 -18.8236)
(1.92519e-17 -1.13373e-17 -19.1887)
(-3.74092e-17 -1.36631e-16 -19.4205)
(1.0917e-17 5.17423e-17 -19.4811)
(1.66445e-17 4.41364e-16 -19.3927)
(9.17778e-17 1.97958e-16 -19.1116)
(-2.31472e-18 3.27434e-17 -18.6938)
(9.6076e-18 -1.01047e-17 -18.114)
(-3.56774e-17 4.27402e-17 -17.4307)
(8.36176e-17 1.7052e-16 -16.653)
(1.79363e-17 -1.0197e-16 -15.806)
(-6.42018e-17 -2.46652e-16 -14.937)
(4.57907e-17 2.43547e-16 -14.039)
(-8.26819e-17 -2.45557e-16 -13.1504)
(-7.49579e-17 1.12235e-16 -12.2818)
(3.50243e-18 -5.91025e-17 -11.4367)
(1.42414e-17 -1.48996e-16 -10.6305)
(-4.71335e-18 -2.6063e-17 -9.86789)
(8.56793e-17 -2.31834e-16 -9.14682)
(8.16035e-17 -1.02126e-16 -8.47057)
(-2.73188e-16 2.5546e-16 -7.83889)
(-3.04975e-17 3.59857e-17 -7.24714)
(3.8011e-17 -1.70109e-16 -6.69405)
(-6.75427e-17 1.12795e-16 -6.17701)
(-1.71488e-19 -7.22801e-17 -5.69239)
(-1.55598e-16 1.46387e-16 -5.24152)
(1.67112e-16 3.22773e-16 -4.82375)
(3.31278e-17 8.82302e-17 -4.43586)
(-3.76569e-17 -1.47582e-16 -4.08372)
(-1.76496e-16 -3.04199e-18 -3.76577)
(-2.62014e-17 1.38653e-17 -3.47912)
(1.23392e-18 2.32906e-19 -3.22821)
(2.8494e-17 -1.08422e-17 -3.00993)
(-3.91805e-18 -3.255e-17 -2.82014)
(-5.17949e-17 4.22291e-18 -2.66372)
(-1.99225e-18 3.01507e-17 -2.53123)
(2.40966e-17 -1.38224e-17 -2.42884)
(-7.64428e-17 -1.19612e-17 -2.34811)
(-4.44037e-17 -1.2659e-18 -2.29349)
(-2.19773e-18 2.38181e-17 -2.2584)
(1.12987e-17 -4.39789e-18 -2.2464)
(-1.11131e-17 9.43213e-18 -2.25234)
(7.25032e-18 -1.1345e-18 -2.27742)
(-9.81771e-21 -1.03189e-18 -2.31947)
(6.59668e-20 1.16703e-17 -2.3777)
(-2.39643e-17 1.88321e-17 -2.45182)
(3.84294e-19 2.39947e-17 -2.54057)
(-2.39911e-17 -6.76072e-17 -2.64359)
(-2.1367e-17 -4.39671e-17 -2.76038)
(4.49434e-17 1.01944e-16 -2.89055)
(-1.84977e-18 -2.86977e-17 -3.03416)
(6.12419e-19 -7.10439e-19 -3.19122)
(4.15268e-19 3.01792e-17 -3.36324)
(-3.36584e-17 1.62121e-17 -3.54839)
(4.73786e-17 4.96384e-18 -3.75343)
(1.37392e-18 -2.63021e-17 -3.9725)
(-6.09983e-17 -2.0141e-16 -4.21364)
(1.037e-16 -5.67352e-17 -4.47752)
(5.10739e-17 3.92274e-16 -4.76323)
(-1.22293e-16 -5.06979e-17 -5.07764)
(1.82677e-16 -2.13763e-16 -5.42187)
(-3.00773e-18 -1.17903e-16 -5.79452)
(-1.33611e-16 2.60951e-16 -6.20089)
(-1.53543e-16 2.52588e-16 -6.64216)
(-1.72022e-16 6.72249e-17 -7.11382)
(1.71502e-16 8.76333e-17 -7.61888)
(-3.41154e-17 3.05288e-17 -8.15401)
(4.95859e-17 8.67624e-17 -8.71545)
(-2.19828e-16 3.4536e-16 -9.30097)
(-2.40573e-16 2.34773e-16 -9.90574)
(-1.87413e-16 1.99759e-16 -10.5168)
(-5.76764e-18 6.96252e-19 -11.141)
(-2.6812e-16 3.71201e-16 -11.7698)
(-2.58515e-17 -1.16319e-16 -12.3775)
(-8.58659e-17 1.8952e-16 -12.9874)
(-3.48332e-17 3.94499e-17 -13.5794)
(-2.04077e-17 -4.63002e-17 -14.1333)
(-1.2653e-16 2.82089e-16 -14.6868)
(3.20601e-17 -6.49044e-17 -15.1953)
(-1.1368e-16 3.39091e-16 -15.6837)
(1.99143e-16 -6.24546e-16 -16.1435)
(1.41305e-16 -5.37921e-16 -16.5759)
(6.72717e-17 -2.88482e-16 -16.9879)
(5.70109e-18 6.85103e-18 -17.3782)
(-8.37301e-18 9.46775e-17 -17.7431)
(2.5783e-18 4.23583e-18 -18.0887)
(1.52678e-18 -3.71159e-17 -18.3882)
(-4.32338e-18 1.18809e-16 -18.6517)
(1.41151e-18 -6.59865e-17 -18.8305)
(3.42343e-18 1.36089e-16 -18.9117)
(-9.79915e-18 -1.02252e-16 -18.8716)
(2.53456e-18 -2.78925e-18 -18.6779)
(3.94682e-17 2.23486e-16 -18.3288)
(-1.80413e-17 -9.21537e-17 -17.7976)
(3.39341e-17 1.45079e-16 -17.1004)
(8.37086e-18 4.08051e-17 -16.2407)
(-4.82434e-17 -1.88488e-16 -15.2479)
(9.90181e-18 3.06796e-17 -14.1467)
(-2.61479e-19 -2.10219e-18 -12.9924)
(-2.7781e-17 -8.73079e-17 -11.866)
(-2.57934e-18 4.81728e-18 -10.8277)
(3.43657e-18 -2.55103e-19 -9.98067)
(9.62897e-19 -1.71302e-18 -9.37407)
(-2.51267e-18 -2.51016e-17 -8.96313)
(-5.47378e-19 9.86946e-19 -8.7009)
(8.92415e-19 -3.22743e-18 -8.55567)
(-7.10465e-20 1.79088e-17 -8.48355)
(-3.12265e-18 -1.78354e-17 -8.45071)
(-2.63979e-18 -2.11555e-17 -8.43416)
(1.11257e-18 -2.6366e-18 -8.41975)
(2.58183e-18 2.31852e-17 -8.40405)
(-7.44566e-19 -5.55024e-18 -8.39163)
(-1.94838e-18 -2.54229e-17 -8.38732)
(1.94988e-18 2.74845e-17 -8.39361)
(4.19572e-19 3.02291e-18 -8.41134)
(-2.19368e-18 2.94327e-18 -8.44012)
(1.91357e-18 -8.29162e-19 -8.47843)
(5.01842e-19 -2.83808e-17 -8.52377)
(-2.57244e-19 2.97609e-17 -8.57297)
(-2.20164e-19 -6.63683e-19 -8.62254)
(4.55302e-19 4.08675e-18 -8.66895)
(-3.21794e-19 -1.44042e-19 -8.70897)
(5.07833e-20 -4.30839e-18 -8.74013)
(2.88759e-19 -1.44025e-17 -8.76039)
(-5.8361e-19 1.49202e-17 -8.76854)
(2.12639e-20 2.93296e-18 -8.76459)
(-6.53972e-20 -4.10031e-18 -8.74927)
(-5.4344e-20 1.89814e-19 -8.72401)
(1.28739e-19 1.44388e-17 -8.69042)
(-1.61603e-19 -1.47123e-17 -8.65144)
(-1.61886e-19 -3.93511e-18 -8.6095)
(1.89572e-19 -7.17181e-18 -8.56612)
(-7.06105e-20 7.24638e-18 -8.52339)
(-1.71493e-20 -7.22904e-18 -8.48256)
(-3.96544e-20 7.25109e-18 -8.44394)
(1.07233e-20 3.10361e-18 -8.40712)
(-7.86161e-20 3.52427e-18 -8.37111)
(1.51855e-20 -1.79624e-18 -8.33426)
(1.1105e-19 -5.62673e-18 -8.29139)
(-2.86313e-21 8.86852e-21 -8.27931)
(0 -0 2.3503)
(0 -0 2.34889)
(1.41307e-20 -1.59656e-18 2.12563)
(5.89086e-19 -2.83463e-18 1.53268)
(-6.15362e-19 6.01698e-18 0.778991)
(7.78665e-20 -4.66317e-18 -0.201639)
(4.23384e-18 -6.20175e-18 -1.13329)
(-7.67159e-18 1.54082e-17 -1.98472)
(2.66789e-18 8.46265e-20 -2.73732)
(1.5096e-18 -1.84657e-17 -3.39098)
(-8.88836e-19 1.53026e-17 -3.88721)
(6.67328e-18 -3.05058e-18 -4.28938)
(-1.26948e-17 -6.04153e-18 -4.62113)
(1.37548e-17 -1.77206e-17 -4.88854)
(-1.4053e-17 1.82888e-17 -5.10437)
(5.42624e-18 2.89194e-17 -5.28078)
(1.5969e-18 -2.94877e-17 -5.42648)
(-6.42875e-19 6.04157e-18 -5.54775)
(3.35949e-19 -5.99325e-18 -5.64939)
(6.41352e-18 -1.07729e-17 -5.73521)
(-7.86394e-18 2.27707e-17 -5.80823)
(1.12202e-18 -6.00456e-18 -5.87092)
(-1.31259e-17 1.19331e-17 -5.92535)
(1.3547e-17 8.34351e-18 -5.97322)
(1.75826e-18 -6.40497e-17 -6.01594)
(-4.01242e-18 6.76347e-17 -6.05457)
(-6.50605e-19 1.90152e-17 -6.08979)
(1.90687e-18 -3.62801e-17 -6.12189)
(-9.63282e-18 -4.84488e-17 -6.15078)