/*--------------------------------*- C++ -*----------------------------------*\
| =========                 |                                                 |
| \\      /  F ield         | OpenFOAM: The Open Source CFD Toolbox           |
|  \\    /   O peration     | Version:  2506                                  |
|   \\  /    A nd           | Website:  www.openfoam.com                      |
|    \\/     M anipulation  |                                                 |
\*---------------------------------------------------------------------------*/
FoamFile
{
    version     2.0;
    format      ascii;
    arch        "LSB;label=32;scalar=64";
    class       volScalarField;
    location    "0.85";
    object      s;
}
// * * * * * * * * * * * * * * * * * * * * * * * * * * * * * * * * * * * * * //

dimensions      [0 0 0 0 0 0 0];

internalField   nonuniform List<scalar> 
4000
(
1.58267e-14
1.08178e-11
6.2182e-09
1.1909e-06
7.10015e-05
0.0016797
0.0219394
0.158694
0.395697
0.456133
0.397349
0.222088
0.061565
0.0147843
0.00887624
0.00475152
0.00231462
0.00108313
0.000509964
0.000246943
0.000119039
5.32891e-05
2.38265e-05
1.24928e-05
7.10776e-06
4.07856e-06
2.29053e-06
1.24105e-06
6.42121e-07
3.15371e-07
1.46829e-07
6.48981e-08
2.80159e-08
1.14768e-08
-6.03778e-09
-7.08431e-08
-2.57056e-07
-4.83789e-07
-8.27296e-07
-1.44417e-06
-2.18963e-06
-2.4941e-06
-2.18995e-06
-1.7852e-06
-1.27779e-06
-7.45007e-07
-3.77417e-07
-1.29831e-07
-2.74438e-08
-5.93945e-09
-2.79777e-09
-1.07468e-09
-7.17139e-11
2.83338e-10
3.00378e-10
2.0948e-10
1.19331e-10
6.01963e-11
2.6681e-11
1.14428e-11
5.25365e-12
3.19351e-12
2.04971e-12
1.24621e-12
6.63954e-13
2.92565e-13
1.02402e-13
2.62886e-14
5.99912e-15
2.5432e-15
9.31328e-16
3.07358e-16
8.27316e-17
1.62233e-17
2.16126e-18
-1.52901e-17
-8.40633e-18
-9.15876e-19
-3.83196e-19
-1.01581e-19
-2.56778e-20
-2.40506e-20
4.47956e-21
2.5529e-20
1.67429e-20
2.18916e-21
-3.92386e-21
-2.65856e-21
1.06816e-21
2.2379e-21
1.19766e-21
-9.22081e-22
-4.67689e-21
-1.06073e-20
-1.64769e-20
-2.28525e-20
-3.79015e-20
-3.53442e-20
-4.18575e-20
-3.22313e-20
-3.25954e-20
-2.701e-20
-2.21911e-20
-1.80395e-20
-1.07601e-20
-5.1599e-21
8.17305e-22
4.87107e-21
7.51584e-21
7.93112e-21
7.25643e-21
5.9057e-21
4.25189e-21
2.68775e-21
1.49325e-21
7.23856e-22
2.93675e-22
9.62911e-23
2.12123e-23
4.9323e-25
-2.59695e-24
-1.74591e-24
-7.81397e-25
-2.91769e-25
-9.3053e-26
-2.71292e-26
-7.63329e-27
-2.1593e-27
-6.90309e-28
-2.89769e-28
-9.45857e-29
-3.73953e-29
-2.0844e-29
-1.21711e-30
5.8848e-30
6.40054e-30
7.20768e-30
7.22362e-30
6.00975e-30
4.49601e-30
2.66253e-30
1.24683e-30
4.51833e-31
2.93107e-32
-1.60162e-31
-1.86409e-31
-1.48047e-31
-7.04697e-32
-1.07903e-32
1.66117e-32
1.8214e-32
1.01568e-32
3.3791e-33
4.36321e-34
-1.98565e-34
-1.2909e-34
-4.11053e-35
-4.92256e-36
-2.9308e-36
-1.23581e-35
1.60277e-36
-8.45382e-37
-1.26115e-35
-4.31863e-35
-9.24862e-35
-1.12757e-34
-3.79046e-35
2.50067e-34
6.73115e-34
6.3587e-34
3.52719e-34
1.27695e-34
2.64682e-35
-8.70125e-37
-3.10866e-36
-1.34057e-36
-3.20191e-37
-3.69748e-38
3.19114e-40
-3.95086e-40
-2.21469e-40
-1.45453e-40
-9.37303e-41
-5.62263e-41
-2.99332e-41
-1.18391e-41
-2.6675e-42
6.16602e-44
9.88689e-45
5.88567e-46
1.89188e-46
-1.62359e-46
-1.24663e-46
-4.72238e-47
-1.14501e-47
-1.53784e-48
2.83021e-49
4.43678e-49
3.85338e-49
1.99043e-49
1.00533e-14
3.02828e-12
9.98065e-10
1.34799e-07
6.4839e-06
0.000143173
0.00172964
0.0115056
0.0358371
0.063444
0.0810336
0.0911328
0.114093
0.174134
0.275833
0.394672
0.462604
0.459894
0.430989
0.367937
0.259645
0.134452
0.0626057
0.0364113
0.0228251
0.0139779
0.00820393
0.00459869
0.00244493
0.00122557
0.000580872
0.000260507
0.000109866
4.27682e-05
1.51159e-05
3.51858e-06
-3.49055e-06
-8.68744e-06
-1.32176e-05
-1.82642e-05
-2.65011e-05
-3.17573e-05
-3.22271e-05
-2.99044e-05
-2.61654e-05
-2.25158e-05
-1.97224e-05
-1.61485e-05
-1.28355e-05
-9.73268e-06
-6.94372e-06
-4.66811e-06
-2.84761e-06
-1.60783e-06
-8.50641e-07
-4.24009e-07
-1.95857e-07
-8.17209e-08
-2.93297e-08
-6.95426e-09
1.40243e-09
3.58302e-09
3.45938e-09
2.55405e-09
1.50424e-09
7.05054e-10
2.55017e-10
6.18279e-11
8.11302e-12
3.84366e-12
1.56002e-12
5.7292e-13
1.5593e-13
1.98933e-14
8.68747e-15
2.31597e-15
7.15639e-16
2.09537e-16
6.18574e-17
2.18722e-17
9.98667e-19
1.54165e-17
1.10698e-17
4.64019e-18
2.75967e-18
2.605e-18
2.38782e-18
1.56451e-18
7.35521e-19
2.50963e-19
-1.46992e-21
-5.7454e-20
8.94539e-20
4.22138e-19
7.83259e-19
6.06287e-19
3.45842e-19
1.2376e-19
-8.23595e-20
-3.62947e-19
-5.20681e-19
-7.18094e-19
-8.23349e-19
-9.17107e-19
-9.23322e-19
-8.41942e-19
-7.24757e-19
-5.81166e-19
-4.57414e-19
-3.07967e-19
-1.85431e-19
-9.68733e-20
-4.00827e-20
-7.93431e-21
5.67505e-21
8.50098e-21
6.55766e-21
3.81314e-21
1.79884e-21
7.21163e-22
2.49232e-22
7.10099e-23
1.52449e-23
1.51826e-24
-6.9955e-25
-5.7189e-25
-2.80949e-25
-1.20665e-25
-5.59831e-26
-3.49598e-26
-2.26274e-26
-1.70153e-26
-1.65001e-26
-1.35948e-26
-1.15458e-26
-1.13628e-26
-8.05532e-27
-6.1108e-27
-3.91056e-27
-2.17829e-27
-1.03202e-27
-3.88585e-28
-8.94928e-29
1.85542e-29
4.31261e-29
3.39775e-29
1.89147e-29
5.56227e-30
-1.87628e-30
-3.90679e-30
-2.87332e-30
-1.30022e-30
-2.91241e-31
5.04534e-32
7.52021e-32
3.27769e-32
7.78342e-33
6.05724e-34
-1.56552e-34
-7.89226e-35
-1.9467e-34
-2.74625e-34
6.07921e-34
5.03582e-33
1.70569e-32
3.97891e-32
6.46484e-32
8.7977e-32
8.11057e-32
5.55983e-32
3.1465e-32
1.52019e-32
6.32375e-33
2.25879e-33
6.86727e-34
1.76148e-34
3.79306e-35
7.01033e-36
1.22861e-36
2.65534e-37
9.19604e-38
4.14525e-38
1.99201e-38
9.01735e-39
3.40244e-39
8.40792e-40
-1.03613e-41
-1.09245e-40
-2.68472e-41
-1.68951e-42
3.08992e-44
3.74964e-43
1.79666e-43
4.97151e-44
7.9426e-45
-4.02472e-46
-1.08515e-45
-7.37614e-46
-4.30715e-46
-1.58413e-46
6.61077e-15
9.95283e-13
1.87511e-10
1.60348e-08
6.21209e-07
1.3606e-06
4.29738e-06
1.67992e-05
6.4506e-05
0.000212694
0.000629332
0.00361545
0.0112917
0.0239673
0.04413
0.073322
0.107912
0.153505
0.222691
0.312856
0.414399
0.51101
0.55472
0.546467
0.522736
0.477511
0.386778
0.272485
0.161054
0.0808827
0.0447786
0.0264683
0.0154429
0.00858992
0.00456544
0.00240239
0.00126615
0.000686515
0.000368437
0.000181088
6.80998e-05
1.1302e-05
-1.73194e-05
-3.36025e-05
-4.39917e-05
-5.03422e-05
-5.30538e-05
-5.33586e-05
-5.20194e-05
-4.93826e-05
-4.60294e-05
-4.24314e-05
-3.86474e-05
-3.49446e-05
-3.10145e-05
-2.66147e-05
-2.05399e-05
-1.19595e-05
-5.64564e-06
-3.00977e-06
-1.8016e-06
-1.01904e-06
-5.29952e-07
-2.53298e-07
-1.07659e-07
-3.98467e-08
-1.28792e-08
-2.83567e-09
7.5527e-10
1.51687e-09
1.34064e-09
8.44721e-10
2.62303e-10
8.11464e-13
-1.81857e-12
6.41852e-13
4.50829e-13
1.772e-13
5.95544e-14
1.62738e-14
2.77222e-15
-4.66997e-16
-7.56042e-16
-4.77847e-16
-2.3083e-16
-9.95906e-17
-4.36602e-17
-2.49379e-17
-2.03645e-17
-1.96348e-17
-1.5921e-17
-1.28576e-17
-7.87147e-18
7.69569e-18
2.73431e-17
2.73127e-17
2.76703e-17
2.68047e-17
3.1104e-17
2.18746e-17
1.84379e-17
1.56784e-17
1.13098e-17
9.36787e-18
6.3467e-18
3.40911e-18
8.84502e-19
-8.86521e-19
-2.15765e-18
-2.46634e-18
-2.32064e-18
-1.90605e-18
-1.43291e-18
-9.46195e-19
-5.44888e-19
-2.70518e-19
-1.13902e-19
-3.82098e-20
-8.09512e-21
6.50025e-22
1.81214e-21
1.1883e-21
5.62726e-22
2.23631e-22
7.74915e-23
2.41284e-23
7.00572e-24
2.10791e-24
7.19098e-25
2.88517e-25
1.15134e-25
3.21868e-26
-1.32158e-26
-3.61365e-26
-4.58967e-26
-4.87722e-26
-4.26381e-26
-3.45551e-26
-2.66352e-26
-1.95307e-26
-1.40977e-26
-1.02099e-26
-7.21491e-27
-4.77075e-27
-2.8425e-27
-1.39196e-27
-4.37707e-28
5.9849e-29
2.21622e-28
1.9584e-28
1.07793e-28
3.62323e-29
1.22119e-30
-7.20559e-30
-5.00361e-30
-1.8991e-30
-3.75828e-31
1.25112e-32
3.05262e-32
6.26892e-33
-3.29378e-34
9.63872e-33
5.82469e-32
1.82973e-31
3.96132e-31
5.54913e-31
5.08157e-31
3.08932e-31
1.1185e-31
2.07193e-32
3.61177e-33
8.50594e-33
1.12076e-32
8.95224e-33
5.24659e-33
2.45913e-33
9.7169e-34
3.40664e-34
1.13823e-34
3.99502e-35
1.60567e-35
7.49029e-36
3.83843e-36
2.01384e-36
1.02239e-36
4.79732e-37
1.98817e-37
6.83244e-38
1.70399e-38
1.6504e-39
-3.62107e-40
-2.27616e-40
-6.64029e-41
-1.21673e-41
-5.56675e-43
7.89478e-43
5.58554e-43
2.96316e-43
1.43316e-43
4.58441e-44
4.50709e-15
3.45136e-13
3.64488e-11
2.10059e-09
1.51642e-08
6.11568e-08
1.37875e-07
1.55105e-07
1.31286e-06
7.38769e-06
2.51723e-05
7.88671e-05
0.000215978
0.000556674
0.00134751
0.00303873
0.00636345
0.0140393
0.0297598
0.0564591
0.0973679
0.16125
0.24841
0.347066
0.448083
0.547887
0.628481
0.633901
0.614477
0.572124
0.495047
0.383647
0.268308
0.162521
0.0821162
0.0492018
0.0379783
0.031313
0.0262922
0.0231822
0.0231273
0.0236987
0.0230899
0.0211794
0.0181624
0.0147096
0.0114029
0.00833928
0.00582721
0.00385359
0.00238837
0.00138669
0.000762312
0.000398258
0.000190953
7.69931e-05
1.62657e-05
-1.54885e-05
-3.00862e-05
-3.47404e-05
-3.46844e-05
-3.20706e-05
-2.73217e-05
-1.65834e-05
-5.78566e-06
-1.2006e-06
-6.01369e-07
-3.42552e-07
-1.69155e-07
-7.2472e-08
-2.73446e-08
-9.40202e-09
-2.97211e-09
-7.2894e-10
2.27176e-11
1.67087e-10
1.29955e-10
6.94995e-11
3.76157e-11
1.81184e-11
7.9605e-12
3.29438e-12
1.27437e-12
4.56058e-13
1.4862e-13
4.28033e-14
1.00589e-14
1.31592e-15
-4.38751e-16
-5.22833e-16
-3.5259e-16
-2.19823e-16
-1.76601e-16
-2.75684e-16
-3.58773e-16
-2.86864e-16
-4.5011e-17
-3.29454e-17
-1.68006e-17
3.45698e-17
5.20148e-17
6.332e-17
6.82059e-17
8.85979e-17
8.74864e-17
7.861e-17
7.36297e-17
5.22719e-17
3.92062e-17
2.47363e-17
1.40434e-17
5.91754e-18
1.32316e-18
-1.05902e-18
-1.72759e-18
-1.59366e-18
-1.12906e-18
-6.43377e-19
-3.03657e-19
-1.21682e-19
-4.14039e-20
-1.12433e-20
-1.83821e-21
3.47701e-22
5.18673e-22
3.25864e-22
1.70777e-22
8.65144e-23
4.56139e-23
2.63871e-23
1.67486e-23
1.15711e-23
8.82445e-24
6.90282e-24
5.49668e-24
4.5173e-24
3.49653e-24
2.64637e-24
1.90454e-24
1.28694e-24
8.12198e-25
4.73308e-25
2.49858e-25
1.14819e-25
4.02448e-26
5.28532e-27
-7.80918e-27
-9.51569e-27
-6.85486e-27
-3.56606e-27
-1.21624e-27
-3.67203e-29
2.94794e-28
2.49311e-28
1.21621e-28
3.65426e-29
2.92179e-30
-3.46319e-30
-2.09432e-30
-6.4425e-31
-1.07104e-31
8.31784e-32
3.82593e-31
7.72647e-31
1.41282e-31
-2.26646e-30
-5.51014e-30
-7.28423e-30
-6.72274e-30
-4.95544e-30
-3.10477e-30
-1.70366e-30
-8.29332e-31
-3.59499e-31
-1.38575e-31
-4.73381e-32
-1.4279e-32
-3.79497e-33
-8.88474e-34
-1.81202e-34
-2.79532e-35
2.0049e-36
6.53157e-36
5.85161e-36
4.22878e-36
2.71291e-36
1.57023e-36
8.12276e-37
3.64446e-37
1.31741e-37
3.1649e-38
5.42583e-39
2.37387e-40
-4.02913e-40
-3.12511e-40
-1.81218e-40
-9.33451e-41
-4.32434e-41
-1.80919e-41
-4.35529e-42
3.88693e-15
1.33011e-13
6.99097e-12
1.13994e-10
1.06687e-09
6.51921e-09
2.18566e-08
5.83893e-08
2.32268e-07
8.56754e-07
2.49785e-06
6.50538e-06
1.67166e-05
4.33945e-05
0.000110868
0.000273731
0.000647442
0.00150604
0.00337949
0.00716528
0.0143738
0.028472
0.0545554
0.0958255
0.159149
0.251161
0.360861
0.467443
0.561246
0.644209
0.680778
0.667971
0.63472
0.564845
0.454238
0.351519
0.277238
0.228128
0.19659
0.176713
0.167246
0.160249
0.150789
0.138319
0.123237
0.106944
0.0909065
0.0753529
0.0611642
0.0485136
0.0374771
0.0281754
0.0203522
0.0140775
0.00903061
0.00553955
0.0032949
0.00189167
0.00104604
0.000542405
0.000261292
0.000110058
3.42402e-05
1.17212e-06
-1.07626e-05
-1.41942e-05
-1.42124e-05
-1.06762e-05
-4.85286e-06
-1.47521e-06
-6.4874e-07
-3.221e-07
-1.49952e-07
-6.23393e-08
-2.30355e-08
-6.77957e-09
-6.50669e-11
2.09444e-09
2.29933e-09
1.54613e-09
5.52806e-10
3.10308e-10
1.73454e-10
8.78428e-11
3.99929e-11
1.69197e-11
6.94626e-12
2.75411e-12
1.04353e-12
3.70014e-13
1.20293e-13
3.33455e-14
5.39798e-15
-2.6818e-15
-4.66578e-15
-7.14608e-15
-7.99792e-15
-7.20937e-15
-3.99996e-15
-1.70842e-15
-8.36678e-16
-7.54167e-16
-4.6042e-16
-2.00227e-16
-5.8428e-17
2.20904e-17
9.80167e-17
1.35057e-16
1.58849e-16
1.46002e-16
1.39925e-16
9.65432e-17
6.61223e-17
4.43665e-17
2.4576e-17
1.10304e-17
3.72027e-18
6.03115e-19
-3.62576e-19
-4.5285e-19
-3.06606e-19
-1.62933e-19
-7.43361e-20
-3.03349e-20
-1.12692e-20
-3.85518e-21
-1.20939e-21
-3.22681e-22
-4.4554e-23
3.47372e-23
5.25264e-23
5.21212e-23
4.82874e-23
4.24886e-23
3.62318e-23
3.0383e-23
2.41474e-23
1.85422e-23
1.36182e-23
9.61882e-24
6.57266e-24
4.37283e-24
2.83417e-24
1.78503e-24
1.0814e-24
6.19762e-25
3.2451e-25
1.47268e-25
5.07229e-26
5.82573e-27
-9.161e-27
-1.02117e-26
-6.64472e-27
-3.08204e-27
-9.28648e-28
-2.91873e-29
1.69328e-28
1.2497e-28
5.48793e-29
1.7477e-29
4.29122e-30
1.06355e-30
-9.18468e-32
-7.22382e-30
-2.4427e-29
-4.24519e-29
-5.25923e-29
-4.78467e-29
-3.53147e-29
-2.29511e-29
-1.37814e-29
-7.85257e-30
-4.28293e-30
-2.22793e-30
-1.09638e-30
-5.07384e-31
-2.20898e-31
-9.13253e-32
-3.65898e-32
-1.46543e-32
-6.07397e-33
-2.66612e-33
-1.23745e-33
-5.93478e-34
-2.85081e-34
-1.33088e-34
-5.87119e-35
-2.37336e-35
-8.43811e-36
-2.45698e-36
-4.95403e-37
5.18434e-39
7.94276e-38
5.86784e-38
3.1599e-38
1.43875e-38
5.70297e-39
1.93781e-39
5.35655e-40
4.10193e-42
3.76168e-15
8.26296e-14
1.49515e-12
1.67696e-11
1.46733e-10
9.97212e-10
4.30297e-09
1.47307e-08
4.8592e-08
1.46942e-07
3.9833e-07
1.01768e-06
2.58978e-06
6.67643e-06
1.7278e-05
4.42914e-05
0.000110914
0.000272592
0.000654209
0.00151754
0.00338645
0.00734408
0.0152535
0.0295966
0.0546048
0.0961924
0.157596
0.240149
0.338844
0.446415
0.546493
0.628069
0.689017
0.694892
0.676293
0.640467
0.587788
0.526063
0.470926
0.426454
0.394136
0.366834
0.339382
0.310404
0.279658
0.24821
0.217461
0.187591
0.159617
0.13381
0.110381
0.0895801
0.0711154
0.055248
0.0416556
0.0303653
0.021272
0.0141846
0.00898054
0.0052896
0.00282341
0.0013968
0.000660797
0.000297254
0.000121961
3.99334e-05
3.20979e-06
-1.13785e-05
-1.54179e-05
-1.47056e-05
-1.14432e-05
-6.53968e-06
-2.6521e-06
-1.14411e-06
-5.78824e-07
-2.94518e-07
-1.40526e-07
-5.99955e-08
-2.15032e-08
-4.44498e-09
2.85653e-09
5.03328e-09
4.86495e-09
3.19931e-09
1.21791e-09
4.80905e-10
2.67489e-10
1.40021e-10
6.52912e-11
2.68932e-11
1.0423e-11
3.9471e-12
1.36525e-12
3.86606e-13
5.64375e-14
-4.00608e-14
-5.75519e-14
-6.37444e-14
-6.71293e-14
-6.34144e-14
-5.31592e-14
-4.12109e-14
-2.6345e-14
-1.50574e-14
-9.30285e-15
-4.92131e-15
-1.95557e-15
-7.12731e-16
-2.67565e-16
-2.4441e-17
7.74986e-17
1.43037e-16
1.59709e-16
1.83336e-16
1.35803e-16
8.80021e-17
5.34741e-17
2.78125e-17
1.1831e-17
3.96144e-18
8.7776e-19
-4.81905e-20
-2.05214e-19
-1.61012e-19
-9.67885e-20
-5.26825e-20
-2.76342e-20
-1.44228e-20
-7.65271e-21
-4.20072e-21
-2.40238e-21
-1.43849e-21
-9.08702e-22
-5.94577e-22
-4.02414e-22
-2.81309e-22
-1.97046e-22
-1.38595e-22
-9.59155e-23
-6.4359e-23
-4.1412e-23
-2.50579e-23
-1.39664e-23
-6.8925e-24
-2.70702e-24
-5.43401e-25
3.94211e-25
6.31983e-25
5.48136e-25
3.67884e-25
2.02614e-25
8.91071e-26
2.7294e-26
8.29005e-28
-6.29474e-27
-5.64454e-27
-3.23132e-27
-1.3615e-27
-4.15072e-28
-7.13245e-29
-6.33762e-30
-2.24506e-30
-3.04955e-29
-9.36664e-29
-1.4534e-28
-1.48743e-28
-1.03127e-28
-3.99753e-29
3.82699e-30
2.1013e-29
2.09551e-29
1.44493e-29
7.89949e-30
3.50026e-30
1.18902e-30
2.1915e-31
-8.25217e-32
-1.22818e-31
-9.11643e-32
-5.52527e-32
-3.06483e-32
-1.63678e-32
-8.61741e-33
-4.49953e-33
-2.31787e-33
-1.16548e-33
-5.6538e-34
-2.61357e-34
-1.13765e-34
-4.60761e-35
-1.7173e-35
-5.83045e-36
-1.68678e-36
-3.12837e-37
6.36936e-38
1.16563e-37
8.6695e-38
5.03806e-38
2.58904e-38
8.76145e-39
3.65036e-15
7.68481e-14
8.6722e-13
7.86877e-12
4.83551e-11
2.36696e-10
1.01109e-09
3.78304e-09
1.25256e-08
3.83521e-08
1.14876e-07
3.32092e-07
9.37518e-07
2.62228e-06
7.259e-06
1.9892e-05
5.3869e-05
0.000143096
0.000368642
0.000909792
0.00212611
0.00466926
0.00961978
0.0185906
0.0337565
0.0578584
0.0939217
0.144953
0.212366
0.294892
0.388519
0.486695
0.579317
0.653248
0.701312
0.705008
0.697313
0.678644
0.649105
0.610359
0.572443
0.536004
0.499047
0.460673
0.420603
0.379629
0.338985
0.299026
0.260801
0.224747
0.191251
0.160675
0.132923
0.108263
0.0865088
0.0677096
0.0517436
0.0383973
0.0276447
0.0191104
0.0126031
0.00782969
0.00454498
0.00244148
0.00116559
0.000502119
0.000203438
7.36379e-05
1.73957e-05
-6.52627e-06
-1.60799e-05
-1.83657e-05
-1.69262e-05
-1.33486e-05
-8.4904e-06
-4.3653e-06
-2.00107e-06
-1.01396e-06
-5.335e-07
-2.75364e-07
-1.34093e-07
-5.82939e-08
-2.0418e-08
-3.35706e-09
3.46105e-09
5.43206e-09
5.13821e-09
3.52076e-09
1.51697e-09
5.1914e-10
3.12954e-10
1.76165e-10
7.29106e-11
2.79467e-11
1.07479e-11
3.90678e-12
1.03561e-12
-1.21174e-14
-2.82212e-13
-3.10111e-13
-2.65861e-13
-2.25117e-13
-1.95102e-13
-1.62742e-13
-1.29462e-13
-9.48645e-14
-6.0541e-14
-3.31247e-14
-1.65531e-14
-6.44739e-15
-2.16386e-15
-7.77593e-16
-2.86196e-16
-1.31002e-16
1.46982e-17
8.61948e-17
1.19493e-16
9.35254e-17
5.62237e-17
2.84494e-17
1.26395e-17
4.98597e-18
1.70825e-18
4.57309e-19
4.24746e-20
-6.44726e-20
-7.2516e-20
-5.64153e-20
-3.9272e-20
-2.63976e-20
-1.77006e-20
-1.20107e-20
-8.36234e-21
-5.88205e-21
-4.18473e-21
-2.99965e-21
-2.13113e-21
-1.50287e-21
-1.04097e-21
-7.05155e-22
-4.66749e-22
-3.00545e-22
-1.87634e-22
-1.13034e-22
-6.50762e-23
-3.5535e-23
-1.79582e-23
-8.15881e-24
-3.10864e-24
-7.76254e-25
1.06934e-25
3.1874e-25
2.73187e-25
1.69632e-25
8.43499e-26
3.2598e-26
7.9154e-27
-9.53772e-28
-2.56852e-27
-1.95532e-27
-1.08551e-27
-5.08343e-28
-2.88628e-28
-2.00018e-28
-2.76923e-29
2.34999e-28
4.9845e-28
6.18179e-28
5.79354e-28
4.56163e-28
3.17464e-28
2.00744e-28
1.17191e-28
6.37637e-29
3.253e-29
1.56294e-29
7.10074e-30
3.06368e-30
1.26119e-30
4.97438e-31
1.88316e-31
6.81075e-32
2.30746e-32
6.90357e-33
1.4573e-33
-1.54365e-34
-4.77977e-34
-4.22886e-34
-2.94654e-34
-1.83085e-34
-1.05335e-34
-5.69163e-35
-2.88403e-35
-1.36182e-35
-5.93115e-36
-2.34e-36
-8.05665e-37
-2.18482e-37
-2.78078e-38
2.75923e-38
3.50752e-15
7.61251e-14
8.68581e-13
7.01144e-12
4.21334e-11
2.04314e-10
8.60942e-10
3.29909e-09
1.16811e-08
3.88541e-08
1.23175e-07
3.77368e-07
1.13236e-06
3.30794e-06
9.34061e-06
2.56053e-05
6.85868e-05
0.000178797
0.000448183
0.00106687
0.00239022
0.00501668
0.00986497
0.0182257
0.0317228
0.0522091
0.081625
0.121757
0.173861
0.23816
0.313646
0.397557
0.484899
0.570224
0.642456
0.693702
0.714981
0.7138
0.705712
0.687504
0.661056
0.629587
0.594125
0.555219
0.51334
0.469481
0.424924
0.380337
0.33682
0.295019
0.255493
0.21874
0.184903
0.15433
0.12696
0.102863
0.0819601
0.0640454
0.0490703
0.0366429
0.0266542
0.0187761
0.0127502
0.00831435
0.00513582
0.00297565
0.00159667
0.000783313
0.00032212
0.000115561
3.21923e-05
-1.52e-06
-1.4999e-05
-2.0169e-05
-2.06274e-05
-1.8723e-05
-1.49054e-05
-1.00569e-05
-6.07638e-06
-3.30699e-06
-1.67763e-06
-8.59957e-07
-4.41403e-07
-2.19981e-07
-1.03662e-07
-4.32792e-08
-1.35622e-08
-7.26289e-10
3.77277e-09
4.74432e-09
4.16492e-09
2.65932e-09
1.28544e-09
6.0788e-10
3.42792e-10
1.7267e-10
6.88007e-11
2.60971e-11
9.95832e-12
3.52017e-12
8.50445e-13
-1.85269e-13
-4.73161e-13
-4.63501e-13
-3.67164e-13
-2.74608e-13
-2.09498e-13
-1.61981e-13
-1.20481e-13
-7.61365e-14
-3.82083e-14
-1.75791e-14
-7.96639e-15
-3.53985e-15
-1.62635e-15
-7.67804e-16
-3.85711e-16
-1.04243e-16
2.04177e-17
4.85244e-17
3.96477e-17
2.4518e-17
1.30986e-17
6.374e-18
2.90206e-18
1.25371e-18
5.14375e-19
1.96493e-19
6.50143e-20
1.30705e-20
-5.72831e-21
-1.11783e-20
-1.13959e-20
-9.74625e-21
-7.70571e-21
-5.80702e-21
-4.2253e-21
-2.99695e-21
-2.08227e-21
-1.42336e-21
-9.63042e-22
-6.48118e-22
-4.33739e-22
-2.87952e-22
-1.88289e-22
-1.20341e-22
-7.42199e-23
-4.37116e-23
-2.42572e-23
-1.24322e-23
-5.74688e-24
-2.24594e-24
-6.2549e-25
8.08455e-27
1.76359e-25
1.65387e-25
1.09027e-25
5.87134e-26
2.73508e-26
1.11463e-26
4.70842e-27
2.40998e-27
2.04375e-27
2.44008e-27
3.06154e-27
3.44119e-27
3.41801e-27
2.93544e-27
2.23856e-27
1.56843e-27
1.03366e-27
6.49759e-28
3.92179e-28
2.27773e-28
1.27311e-28
6.84844e-29
3.54904e-29
1.77607e-29
8.61464e-30
4.06844e-30
1.87963e-30
8.52714e-31
3.80418e-31
1.66496e-31
7.08949e-32
2.88559e-32
1.08351e-32
3.44839e-33
6.63594e-34
-2.16475e-34
-3.74199e-34
-3.05358e-34
-1.99562e-34
-1.15254e-34
-6.0925e-35
-2.9939e-35
-1.37759e-35
-5.94206e-36
-2.44699e-36
-5.79429e-37
3.35037e-15
7.40127e-14
8.73094e-13
7.1365e-12
4.51015e-11
2.35621e-10
1.06186e-09
4.26174e-09
1.55596e-08
5.25429e-08
1.66451e-07
5.07079e-07
1.50639e-06
4.34214e-06
1.20636e-05
3.24544e-05
8.50142e-05
0.000216071
0.000526999
0.00121945
0.00265694
0.00543421
0.0104369
0.0188666
0.0322028
0.0520841
0.080112
0.117599
0.165297
0.223162
0.290182
0.364282
0.442327
0.520746
0.593844
0.654232
0.698128
0.720026
0.720772
0.714328
0.698376
0.674518
0.644139
0.60833
0.568055
0.524546
0.479197
0.432955
0.386997
0.342164
0.299173
0.258671
0.221024
0.186653
0.155679
0.128212
0.104215
0.0835113
0.065985
0.051265
0.0391617
0.029336
0.0215013
0.0153808
0.0106906
0.00719869
0.00466537
0.00290291
0.00170078
0.000927819
0.000464331
0.000203125
6.24555e-05
6.64938e-06
-1.30112e-05
-1.97363e-05
-2.15638e-05
-2.08468e-05
-1.83733e-05
-1.44436e-05
-1.01059e-05
-6.55886e-06
-4.00085e-06
-2.30177e-06
-1.18581e-06
-5.58925e-07
-2.56774e-07
-1.15159e-07
-4.80485e-08
-1.67849e-08
-2.63107e-09
2.74014e-09
4.05267e-09
3.83218e-09
2.92194e-09
1.8362e-09
1.03167e-09
5.4606e-10
2.96389e-10
1.5438e-10
7.22135e-11
3.03401e-11
1.17452e-11
4.32736e-12
1.46734e-12
3.38206e-13
-9.85673e-14
-2.31489e-13
-2.36498e-13
-2.22181e-13
-1.74936e-13
-1.17475e-13
-6.89959e-14
-3.60874e-14
-1.72655e-14
-8.00343e-15
-3.58373e-15
-1.5095e-15
-5.25302e-16
-9.69717e-17
3.79523e-17
5.62018e-17
4.22682e-17
2.61666e-17
1.48463e-17
8.08534e-18
4.33369e-18
2.32015e-18
1.25269e-18
6.86848e-19
3.83449e-19
2.18597e-19
1.27972e-19
7.65522e-20
4.68826e-20
2.93331e-20
1.85261e-20
1.17481e-20
7.3906e-21
4.54137e-21
2.69396e-21
1.51206e-21
7.8365e-22
3.55579e-22
1.21351e-22
7.44716e-24
-3.79468e-23
-4.7346e-23
-4.08964e-23
-2.9719e-23
-1.92048e-23
-1.1178e-23
-5.88633e-24
-2.73978e-24
-1.0743e-24
-2.91747e-25
1.34191e-26
9.45199e-26
8.94254e-26
6.33971e-26
4.13545e-26
2.6686e-26
1.92349e-26
1.54575e-26
1.2973e-26
1.04211e-26
7.71638e-27
5.25342e-27
3.40012e-27
2.16851e-27
1.39477e-27
9.07956e-28
5.91169e-28
3.7873e-28
2.35652e-28
1.41373e-28
8.15715e-29
4.53012e-29
2.42771e-29
1.25966e-29
6.34884e-30
3.11551e-30
1.48934e-30
6.91979e-31
3.10471e-31
1.32769e-31
5.27535e-32
1.84119e-32
4.74347e-33
-7.04397e-36
-1.19826e-33
-1.15886e-33
-8.20798e-34
-5.03496e-34
-2.81664e-34
-1.46947e-34
-7.23209e-35
-3.37411e-35
-1.52674e-35
-4.41602e-36
3.18938e-15
7.08669e-14
8.47613e-13
7.04339e-12
4.54975e-11
2.43285e-10
1.1217e-09
4.58856e-09
1.69948e-08
5.79337e-08
1.84459e-07
5.62866e-07
1.67081e-06
4.80209e-06
1.32802e-05
3.5516e-05
9.23388e-05
0.000232547
0.000561304
0.00128452
0.00276774
0.00560059
0.0106494
0.0190747
0.0322904
0.051848
0.0792454
0.11568
0.161787
0.217409
0.281447
0.351846
0.425656
0.499491
0.569408
0.630612
0.679001
0.712209
0.724725
0.723174
0.714934
0.697238
0.671504
0.638918
0.600682
0.558179
0.512869
0.465881
0.418453
0.371587
0.326169
0.283001
0.242653
0.205634
0.172221
0.142568
0.116671
0.0943794
0.0755004
0.0596899
0.046647
0.0359989
0.0274087
0.0205612
0.0151633
0.010976
0.0077715
0.00537129
0.00360789
0.00234406
0.00146604
0.000875296
0.000487461
0.000247494
0.000108927
3.39331e-05
-5.01916e-06
-1.75168e-05
-2.00835e-05
-1.97957e-05
-1.83316e-05
-1.50813e-05
-1.13992e-05
-8.04726e-06
-5.3454e-06
-3.34829e-06
-1.97616e-06
-1.09507e-06
-5.6302e-07
-2.40981e-07
-8.662e-08
-2.95853e-08
-8.06646e-09
4.85516e-10
3.38387e-09
3.88079e-09
3.47453e-09
2.62304e-09
1.74391e-09
1.06732e-09
6.14301e-10
3.37695e-10
1.79554e-10
9.30895e-11
4.65636e-11
2.15256e-11
8.69581e-12
2.78983e-12
3.71229e-13
-3.54688e-13
-4.13331e-13
-3.39648e-13
-2.26954e-13
-1.33491e-13
-7.10536e-14
-3.45925e-14
-1.54195e-14
-6.241e-15
-2.22682e-15
-6.37388e-16
-8.50933e-17
6.68084e-17
8.35089e-17
6.47378e-17
4.3156e-17
2.68629e-17
1.61762e-17
9.60639e-18
5.69507e-18
3.39695e-18
2.04622e-18
1.24662e-18
7.696e-19
4.79139e-19
3.00577e-19
1.8934e-19
1.18995e-19
7.43548e-20
4.59664e-20
2.79446e-20
1.66393e-20
9.63519e-21
5.39711e-21
2.89819e-21
1.47102e-21
6.90756e-22
2.85194e-22
8.99707e-23
6.34093e-24
-2.22339e-23
-2.63665e-23
-2.15139e-23
-1.48976e-23
-9.20743e-24
-5.18622e-24
-2.64636e-24
-1.202e-24
-4.59643e-25
-1.29885e-25
-2.09485e-27
3.23316e-26
3.47477e-26
2.85144e-26
2.04139e-26
1.23391e-26
5.58175e-27
9.12597e-28
-1.20878e-27
-1.50518e-27
-1.02597e-27
-4.43589e-28
-3.275e-29
1.7107e-28
2.2673e-28
2.04577e-28
1.55094e-28
1.05491e-28
6.63714e-29
3.93013e-29
2.21422e-29
1.19531e-29
6.20863e-30
3.10742e-30
1.49618e-30
6.89092e-31
2.99925e-31
1.20377e-31
4.21296e-32
1.07361e-32
-2.00233e-34
-2.92982e-33
-2.81598e-33
-2.0079e-33
-1.24685e-33
-7.09202e-34
-3.77797e-34
-1.90674e-34
-9.16317e-35
-4.29115e-35
-1.32025e-35
3.02406e-15
6.683e-14
7.96425e-13
6.60325e-12
4.26116e-11
2.27803e-10
1.05088e-09
4.30348e-09
1.59626e-08
5.45085e-08
1.73844e-07
5.31123e-07
1.57803e-06
4.54318e-06
1.25877e-05
3.37144e-05
8.77636e-05
0.00022127
0.000534766
0.00122566
0.00264546
0.0053627
0.0102149
0.0183268
0.0310721
0.0499629
0.0764669
0.111771
0.156524
0.210614
0.273008
0.341749
0.414008
0.486453
0.555265
0.616455
0.666759
0.703908
0.724115
0.725368
0.721721
0.709302
0.687057
0.656791
0.619915
0.577878
0.532135
0.483948
0.434659
0.385501
0.337601
0.291961
0.249379
0.210443
0.175523
0.144764
0.118131
0.0954455
0.0763908
0.0606173
0.0476993
0.0372287
0.0288134
0.0221
0.0167805
0.0125966
0.00932975
0.00680538
0.00487719
0.00342561
0.00235138
0.00157103
0.00101698
0.000632783
0.000374541
0.000207098
0.000101489
3.94413e-05
6.09919e-06
-9.90691e-06
-1.64975e-05
-1.66772e-05
-1.53875e-05
-1.27619e-05
-9.78802e-06
-7.04767e-06
-4.80693e-06
-3.11664e-06
-1.9192e-06
-1.11802e-06
-6.12229e-07
-3.11758e-07
-1.44554e-07
-5.66559e-08
-1.29119e-08
8.30533e-11
2.98813e-09
3.4751e-09
3.19069e-09
2.56614e-09
1.75681e-09
1.09934e-09
6.38081e-10
3.45571e-10
1.74444e-10
8.11064e-11
3.38471e-11
1.17736e-11
2.2097e-12
-5.08057e-13
-7.69528e-13
-6.79847e-13
-4.76298e-13
-2.92956e-13
-1.62846e-13
-8.29942e-14
-3.89743e-14
-1.68385e-14
-6.60255e-15
-2.25462e-15
-5.81006e-16
-2.06613e-17
1.19688e-16
1.2249e-16
9.20873e-17
6.18232e-17
3.93704e-17
2.44329e-17
1.49897e-17
9.16404e-18
5.60254e-18
3.42939e-18
2.10369e-18
1.28968e-18
7.89266e-19
4.81054e-19
2.90984e-19
1.7425e-19
1.03018e-19
5.99332e-20
3.42188e-20
1.90989e-20
1.03724e-20
5.44558e-21
2.73558e-21
1.29309e-21
5.55299e-22
1.98112e-22
3.87227e-23
-2.26908e-23
-3.89969e-23
-3.66326e-23
-2.84457e-23
-1.98211e-23
-1.28186e-23
-7.76106e-24
-4.4204e-24
-2.3645e-24
-1.21512e-24
-5.98143e-25
-3.02335e-25
-1.61968e-25
-9.94826e-26
-7.1388e-26
-5.74052e-26
-4.64562e-26
-3.5615e-26
-2.47875e-26
-1.55417e-26
-8.81993e-27
-4.51942e-27
-2.05224e-27
-7.77809e-28
-1.93072e-28
3.33894e-29
9.41772e-29
8.97148e-29
6.67125e-29
4.38081e-29
2.65257e-29
1.51043e-29
8.16715e-30
4.21035e-30
2.06871e-30
9.63978e-31
4.21083e-31
1.68231e-31
5.79652e-32
1.40765e-32
-9.19437e-34
-4.46389e-33
-4.12897e-33
-2.90539e-33
-1.79613e-33
-1.02297e-33
-5.48309e-34
-2.79665e-34
-1.36357e-34
-6.50269e-35
-2.0632e-35
2.8607e-15
6.23617e-14
7.29806e-13
5.93206e-12
3.7458e-11
1.9604e-10
8.86853e-10
3.57373e-09
1.30976e-08
4.43834e-08
1.40988e-07
4.30251e-07
1.27899e-06
3.69347e-06
1.02891e-05
2.77293e-05
7.26828e-05
0.000184861
0.000451713
0.00104868
0.00229467
0.00471616
0.00910414
0.0165407
0.0283711
0.0461033
0.071231
0.104999
0.148142
0.200654
0.261626
0.329214
0.400694
0.472818
0.541765
0.603699
0.655502
0.694846
0.720228
0.725804
0.723579
0.714702
0.694456
0.665098
0.628017
0.584606
0.536365
0.484941
0.432029
0.379349
0.328391
0.280387
0.236292
0.19665
0.161773
0.131652
0.106089
0.0847802
0.0672129
0.0529816
0.0415192
0.0323817
0.0251344
0.0194101
0.014907
0.0113707
0.00860387
0.00644598
0.00477195
0.00348353
0.00250101
0.00176133
0.00121283
0.000813014
0.000527544
0.000328605
0.000193662
0.000105134
4.95747e-05
1.66897e-05
-1.42309e-06
-9.9702e-06
-1.28392e-05
-1.2572e-05
-1.10153e-05
-8.76479e-06
-6.55528e-06
-4.64978e-06
-3.14046e-06
-2.0224e-06
-1.24055e-06
-7.22327e-07
-3.96611e-07
-2.03243e-07
-9.50727e-08
-3.87601e-08
-1.18891e-08
-3.93794e-10
3.3272e-09
3.20112e-09
2.6567e-09
1.85178e-09
1.13932e-09
6.35019e-10
3.24779e-10
1.51755e-10
6.35103e-11
2.24397e-11
4.66161e-12
-6.99578e-13
-1.15478e-12
-9.88422e-13
-7.16809e-13
-4.42138e-13
-2.48139e-13
-1.28335e-13
-6.14971e-14
-2.73131e-14
-1.11478e-14
-4.06702e-15
-1.21547e-15
-1.87281e-16
1.17333e-16
1.6442e-16
1.36097e-16
9.62623e-17
6.33623e-17
4.01389e-17
2.48715e-17
1.52012e-17
9.20186e-18
5.52734e-18
3.29685e-18
1.9512e-18
1.14435e-18
6.64221e-19
3.80743e-19
2.15086e-19
1.1946e-19
6.50619e-20
3.46104e-20
1.79083e-20
8.93431e-21
4.2434e-21
1.8697e-21
7.18317e-22
1.93648e-22
-2.29601e-23
-9.54705e-23
-1.04981e-22
-9.09743e-23
-7.06538e-23
-5.15084e-23
-3.58082e-23
-2.39828e-23
-1.54933e-23
-9.67126e-24
-5.83365e-24
-3.4649e-24
-2.03024e-24
-1.21765e-24
-7.55834e-25
-4.88756e-25
-3.24283e-25
-2.16395e-25
-1.40621e-25
-8.70838e-26
-5.065e-26
-2.75504e-26
-1.39973e-26
-6.60521e-27
-2.8466e-27
-1.07043e-27
-3.01699e-28
-9.55069e-30
7.54124e-29
8.07755e-29
6.22898e-29
4.16223e-29
2.54546e-29
1.45713e-29
7.88698e-30
4.05132e-30
1.97326e-30
9.06321e-31
3.87676e-31
1.50358e-31
4.94655e-32
1.07217e-32
-1.78781e-33
-4.33504e-33
-3.73421e-33
-2.53985e-33
-1.53949e-33
-8.67768e-34
-4.63831e-34
-2.3745e-34
-1.1683e-34
-5.64877e-35
-1.83263e-35
2.69624e-15
5.72999e-14
6.4618e-13
5.09219e-12
3.07613e-11
1.51921e-10
6.50934e-10
2.5174e-09
9.00043e-09
3.01884e-08
9.59041e-08
2.93604e-07
8.79503e-07
2.57306e-06
7.29022e-06
2.0018e-05
5.35337e-05
0.00013922
0.000348689
0.000830744
0.00186613
0.00393433
0.00777643
0.0144353
0.0252413
0.0417221
0.0654283
0.0976913
0.139351
0.190504
0.250329
0.317043
0.387974
0.459896
0.529091
0.591802
0.644892
0.686006
0.713696
0.724592
0.723268
0.714853
0.694004
0.662312
0.620767
0.571136
0.515707
0.457326
0.398468
0.341517
0.288181
0.239634
0.196619
0.159289
0.1276
0.101187
0.0795377
0.0621252
0.04822
0.0373401
0.0288234
0.0222242
0.0171127
0.0131566
0.0100961
0.00772029
0.005877
0.00444401
0.00333083
0.00246951
0.00180521
0.00129857
0.00091557
0.000630187
0.000421242
0.000271258
0.000166309
9.50201e-05
4.83519e-05
1.9253e-05
2.32363e-06
-6.4793e-06