/*--------------------------------*- C++ -*----------------------------------*\
| =========                 |                                                 |
| \\      /  F ield         | OpenFOAM: The Open Source CFD Toolbox           |
|  \\    /   O peration     | Version:  2506                                  |
|   \\  /    A nd           | Website:  www.openfoam.com                      |
|    \\/     M anipulation  |                                                 |
\*---------------------------------------------------------------------------*/
FoamFile
{
    version     2.0;
    format      ascii;
    arch        "LSB;label=32;scalar=64";
    class       volVectorField;
    location    "0.85";
    object      U;
}
// * * * * * * * * * * * * * * * * * * * * * * * * * * * * * * * * * * * * * //

dimensions      [0 1 -1 0 0 0 0];

internalField   nonuniform List<vector> 
4000
(
(0.00290676 0.000436371 0)
(0.0019978 0.000457292 4.09337e-21)
(0.00109465 0.000262462 -4.18572e-21)
(0.000410947 0.000145515 -8.45415e-21)
(-6.05237e-05 8.6626e-05 1.69869e-20)
(-0.000398508 5.30523e-05 -8.45315e-21)
(-0.000649724 3.20822e-05 0)
(-0.000844296 1.9045e-05 0)
(-0.000997554 1.03371e-05 0)
(-0.00112106 3.91936e-06 -1.63102e-20)
(-0.00122199 -1.16374e-06 1.62786e-20)
(-0.00130527 -5.30278e-06 -3.22012e-20)
(-0.00137448 -8.77382e-06 3.21579e-20)
(-0.00143233 -1.17323e-05 0)
(-0.00148099 -1.42896e-05 0)
(-0.00152225 -1.65189e-05 0)
(-0.00155758 -1.84866e-05 -3.12762e-20)
(-0.00158819 -2.02587e-05 3.12562e-20)
(-0.00161508 -2.18793e-05 0)
(-0.00163902 -2.33828e-05 0)
(-0.00166065 -2.48071e-05 0)
(-0.00168042 -2.618e-05 0)
(-0.00169862 -2.75216e-05 0)
(-0.00171538 -2.88463e-05 -6.0203e-20)
(-0.00173068 -3.01648e-05 1.20061e-19)
(-0.00174433 -3.1452e-05 -5.98606e-20)
(-0.00175586 -3.27449e-05 0)
(-0.00176469 -3.42938e-05 0)
(-0.00177008 -3.62659e-05 0)
(-0.00177064 -3.87992e-05 0)
(-0.00176381 -4.249e-05 5.80685e-20)
(-0.0017462 -4.87624e-05 -5.80775e-20)
(-0.00171127 -5.8175e-05 0)
(-0.00162935 -7.63057e-05 -5.01824e-20)
(-0.00150622 -0.00013196 -5.70398e-20)
(-0.00139791 -0.000224655 2.87165e-19)
(-0.0013189 -0.0003206 2.30476e-19)
(-0.00124411 -0.000401543 -5.81428e-20)
(-0.00116433 -0.000462573 2.33518e-19)
(-0.00108574 -0.000500687 5.28257e-19)
(-0.0010102 -0.000512909 -5.91691e-20)
(-0.000947823 -0.000489127 -4.73063e-19)
(-0.000874895 -0.000432939 4.73624e-19)
(-0.000788281 -0.000364951 0)
(-0.00070479 -0.000298341 0)
(-0.000629963 -0.000238931 2.95772e-20)
(-0.000566091 -0.000189072 4.44308e-19)
(-0.0005202 -0.000148702 4.4465e-19)
(-0.000487946 -0.000118615 2.66646e-19)
(-0.000472858 -9.85128e-05 2.36058e-19)
(-0.000476914 -8.78019e-05 -2.34954e-19)
(-0.000497086 -8.49492e-05 0)
(-0.000540815 -8.7418e-05 2.89559e-20)
(-0.000603066 -9.31671e-05 -4.90965e-19)
(-0.000687526 -9.68773e-05 0)
(-0.000789795 -9.92368e-05 1.13419e-19)
(-0.000908772 -9.53718e-05 2.78729e-20)
(-0.0010429 -8.14807e-05 -3.18368e-24)
(-0.00118607 -5.64497e-05 3.0962e-22)
(-0.00133305 -9.68526e-06 1.37814e-20)
(-0.00147803 4.92508e-05 -2.63751e-20)
(-0.0016122 0.000127876 0)
(-0.00173179 0.000218598 0)
(-0.00183699 0.00031783 -5.01087e-20)
(-0.0019193 0.000424459 -3.46625e-19)
(-0.00199048 0.000527727 -4.8345e-20)
(-0.00204095 0.000630893 4.84189e-20)
(-0.00208533 0.000726718 -4.66421e-20)
(-0.0021166 0.000819119 -1.37977e-19)
(-0.00214202 0.000903096 3.17192e-19)
(-0.00216405 0.00098106 4.47463e-20)
(-0.00217608 0.00105156 -9.69329e-22)
(-0.00218759 0.001113 0)
(-0.00219507 0.00116801 0)
(-0.00219705 0.00121407 0)
(-0.00219795 0.00125186 2.04211e-20)
(-0.00219621 0.00128249 3.03078e-19)
(-0.00218949 0.00130474 0)
(-0.00218078 0.001319 -1.01976e-21)
(-0.0021704 0.0013266 -1.92521e-20)
(-0.0021577 0.00132761 3.05201e-19)
(-0.00214413 0.0013225 -2.73463e-19)
(-0.00213002 0.00131187 -7.85309e-23)
(-0.00211565 0.00129586 -2.97002e-19)
(-0.00210309 0.00127535 -1.38725e-21)
(-0.00209091 0.00125056 2.82015e-19)
(-0.00207803 0.00122042 2.82453e-19)
(-0.00206877 0.00118588 -2.83522e-19)
(-0.00206021 0.00114735 4.27052e-21)
(-0.00204925 0.00110263 2.68476e-19)
(-0.0020417 0.00105261 0)
(-0.00203329 0.000998042 2.68846e-19)
(-0.00202138 0.000936625 2.48924e-19)
(-0.00201169 0.000869317 -2.53435e-19)
(-0.00199581 0.000795695 1.40646e-19)
(-0.0019801 0.000715658 -1.54202e-20)
(-0.00195873 0.000631298 -1.21587e-19)
(-0.00193559 0.000541402 -1.49338e-20)
(-0.00190564 0.000448374 -1.03668e-19)
(-0.00187447 0.000351178 -7.31628e-20)
(-0.00183977 0.000255805 2.89847e-20)
(-0.00180123 0.000159551 -7.19281e-20)
(-0.00176079 6.85642e-05 7.16163e-21)
(-0.0017131 -1.70535e-05 7.13179e-21)
(-0.00166228 -9.63617e-05 2.84079e-20)
(-0.00160648 -0.000168156 0)
(-0.00154528 -0.000232932 0)
(-0.00148285 -0.000287517 2.24494e-19)
(-0.0014154 -0.00033219 7.1566e-21)
(-0.00134646 -0.000366175 -1.18617e-19)
(-0.00127479 -0.000389544 -1.15404e-19)
(-0.00120182 -0.000402616 -3.61817e-21)
(-0.00112772 -0.000406685 1.20344e-19)
(-0.00105559 -0.000402089 2.2788e-22)
(-0.000982854 -0.000391159 0)
(-0.000915556 -0.000374548 -2.36036e-19)
(-0.000850246 -0.000353747 7.37071e-21)
(-0.000789487 -0.000330706 2.21721e-19)
(-0.000735691 -0.000306338 7.44449e-21)
(-0.000687986 -0.000281111 2.37466e-19)
(-0.000646447 -0.00025606 7.06726e-22)
(-0.000611914 -0.000232471 -2.37025e-19)
(-0.000584031 -0.000211235 -1.47181e-20)
(-0.000562214 -0.000192881 2.65301e-19)
(-0.000547099 -0.000177583 -1.47504e-20)
(-0.000537605 -0.000165262 -2.33892e-19)
(-0.00053314 -0.000155696 -2.89325e-20)
(-0.00053343 -0.0001485 2.90652e-20)
(-0.00053774 -0.000143207 -2.29785e-19)
(-0.000544779 -0.000139414 1.98841e-19)
(-0.000556042 -0.000136856 2.84702e-20)
(-0.000569262 -0.000134907 4.20062e-19)
(-0.000583309 -0.000133054 2.7996e-20)
(-0.000601409 -0.000131131 2.20338e-19)
(-0.000620838 -0.000128814 -1.01243e-21)
(-0.000640201 -0.000125998 0)
(-0.000667378 -0.000122317 0)
(-0.000693908 -0.000118613 4.94901e-22)
(-0.000728802 -0.000113953 0)
(-0.000768787 -0.000108792 2.53806e-20)
(-0.000817812 -0.000102553 7.50412e-20)
(-0.00087736 -9.46128e-05 2.45559e-20)
(-0.000950084 -8.36894e-05 4.83709e-20)
(-0.00103565 -6.83462e-05 2.41864e-20)
(-0.00113946 -4.35233e-05 6.98116e-20)
(-0.00125251 -1.041e-05 -2.29752e-20)
(-0.00138069 3.83362e-05 0)
(-0.00151103 9.5007e-05 0)
(-0.00164528 0.000166964 0)
(-0.00177257 0.000251271 2.00207e-20)
(-0.00189203 0.000343727 -1.99657e-20)
(-0.00199455 0.000448535 -7.61043e-20)
(-0.00208245 0.000553186 -7.3578e-20)
(-0.00214838 0.000664589 0)
(-0.00220079 0.000769392 6.87315e-20)
(-0.00223514 0.00087457 0)
(-0.00226247 0.000967883 1.56162e-20)
(-0.00227074 0.00105019 -7.78164e-20)
(-0.00223501 0.00108652 1.47832e-20)
(-0.00212125 0.00102479 -2.47566e-19)
(-0.00213662 0.00089058 5.63255e-20)
(-0.00222771 0.000790121 5.48181e-20)
(-0.00228678 0.000673556 0)
(-0.0023201 0.000538703 0)
(-0.00234583 0.000389657 0)
(-0.00237505 0.000248719 0)
(-0.00242347 0.000131308 0)
(-0.00245955 7.27067e-05 -1.10877e-20)
(-0.00241567 5.06834e-05 3.73164e-22)
(-0.00231997 3.85071e-05 3.7483e-22)
(-0.00220873 3.16131e-05 1.04248e-20)
(-0.00209894 2.8356e-05 0)
(-0.00200083 2.72842e-05 -9.33866e-21)
(-0.00191965 2.73726e-05 9.34264e-21)
(-0.00185695 2.78213e-05 -2.74886e-22)
(-0.00181213 2.8105e-05 0)
(-0.00178347 2.80628e-05 0)
(-0.00176808 2.82198e-05 7.57963e-21)
(-0.00176222 2.8493e-05 -7.57046e-21)
(-0.00176262 2.8428e-05 0)
(-0.00176657 2.78852e-05 0)
(-0.00177187 2.69489e-05 2.883e-21)
(-0.00177686 2.56475e-05 -1.72951e-22)
(-0.0017805 2.40877e-05 -2.89893e-21)
(-0.00178232 2.23084e-05 0)
(-0.00178233 2.04207e-05 0)
(-0.00178096 1.85283e-05 0)
(-0.001779 1.67352e-05 0)
(-0.0017774 1.51458e-05 -1.2058e-22)
(-0.00177712 1.39849e-05 0)
(-0.00177897 1.31623e-05 0)
(-0.00178361 1.24827e-05 0)
(-0.00179154 1.18196e-05 -5.81136e-22)
(-0.00180307 1.11731e-05 5.80128e-22)
(-0.00181831 1.05477e-05 0)
(-0.00183719 9.9824e-06 -4.63186e-23)
(-0.00185949 9.47775e-06 -1.23963e-22)
(-0.00188661 9.2409e-06 8.22142e-23)
(-0.00192532 1.14715e-05 4.1394e-23)
(-0.0019717 1.86001e-05 0)
(0.00402988 0.000961483 0)
(0.00370142 0.00140783 0)
(0.00312604 0.00119181 0)
(0.00243392 0.000920402 -8.77178e-21)
(0.00177343 0.000694033 1.78298e-20)
(0.00119272 0.000526357 -9.04181e-21)
(0.000700377 0.000405381 0)
(0.000287373 0.00031897 -1.83057e-20)
(-5.77589e-05 0.000255798 1.83973e-20)
(-0.00034689 0.000207992 -1.81799e-20)
(-0.00058969 0.000170778 1.80942e-20)
(-0.00079366 0.000141379 3.57099e-20)
(-0.000966177 0.000117968 -3.55887e-20)
(-0.00111265 9.92422e-05 -3.51501e-20)
(-0.00123794 8.43128e-05 1.68028e-22)
(-0.00134608 7.25075e-05 6.94667e-20)
(-0.00144045 6.32793e-05 -3.4582e-20)
(-0.00152399 5.61584e-05 0)
(-0.00159928 5.07246e-05 0)
(-0.0016682 4.66133e-05 0)
(-0.00173239 4.35019e-05 0)
(-0.0017931 4.10884e-05 0)
(-0.00185128 3.90978e-05 0)
(-0.00190751 3.72785e-05 0)
(-0.0019622 3.53852e-05 0)
(-0.00201536 3.31577e-05 0)
(-0.00206679 3.02534e-05 0)
(-0.00211588 2.60865e-05 0)
(-0.00216147 1.99448e-05 0)
(-0.00220194 1.07671e-05 0)
(-0.00223492 -3.63983e-06 6.31145e-20)
(-0.00225587 -2.7456e-05 -2.99749e-22)
(-0.00225747 -6.62708e-05 -1.25132e-19)
(-0.00223209 -0.000132044 5.45836e-20)
(-0.00216978 -0.000265324 6.18223e-20)
(-0.00206151 -0.0004592 -1.86152e-19)
(-0.00191208 -0.000650496 2.50023e-19)
(-0.00173262 -0.000803401 6.31394e-20)
(-0.00152708 -0.000899373 -6.42093e-19)
(-0.00130401 -0.000932086 -1.96219e-19)
(-0.00105234 -0.000886069 0)
(-0.000798173 -0.000760736 -6.693e-20)
(-0.000546624 -0.000589292 -4.05656e-19)
(-0.000301575 -0.00040792 -6.84642e-20)
(-7.79022e-05 -0.000235843 -5.49447e-19)
(0.000120812 -8.39108e-05 5.50536e-19)
(0.000296524 4.47208e-05 -1.22588e-21)
(0.000437772 0.000147459 0)
(0.000548364 0.000222461 2.7384e-19)
(0.000625591 0.000271764 0)
(0.00066366 0.000295638 5.38179e-22)
(0.000667909 0.000297439 0)
(0.000624295 0.000281353 2.69937e-19)
(0.00053924 0.000252564 2.69323e-19)
(0.000403532 0.000219563 0)
(0.000219503 0.000184144 -1.22307e-22)
(-8.52572e-06 0.000157014 -1.32498e-19)
(-0.000284789 0.000145619 -3.25315e-20)
(-0.000590397 0.000154811 -6.39598e-20)
(-0.00092641 0.000202596 1.59591e-20)
(-0.00128165 0.0002778 0)
(-0.00163468 0.000393621 -1.2163e-19)
(-0.00198333 0.000541829 5.99979e-20)
(-0.00231195 0.000716553 1.16639e-19)
(-0.00261103 0.000917295 3.42654e-19)
(-0.00288499 0.00112593 5.62166e-20)
(-0.00311783 0.00134534 -2.72988e-19)
(-0.00332726 0.00156101 5.38739e-20)
(-0.00349833 0.00177443 0)
(-0.00364525 0.00197573 -5.11104e-20)
(-0.00376857 0.00216429 5.05893e-20)
(-0.00386518 0.00233825 -1.94944e-21)
(-0.0039465 0.00249234 0)
(-0.00400849 0.0026292 3.79832e-19)
(-0.00405363 0.00274572 3.72505e-19)
(-0.00408617 0.00284097 -2.26664e-20)
(-0.00410534 0.00291584 2.24562e-20)
(-0.00411117 0.00296987 -2.18295e-20)
(-0.00410691 0.00300341 3.43525e-19)
(-0.00409348 0.00301833 -3.17817e-19)
(-0.00407198 0.00301603 3.32967e-19)
(-0.00404475 0.00299775 3.35277e-19)
(-0.00401292 0.00296495 -2.00271e-20)
(-0.00397801 0.00291885 3.25432e-19)
(-0.00394256 0.00286084 -3.05839e-19)
(-0.00390606 0.00279176 3.02131e-19)
(-0.00386872 0.00271136 -2.99199e-19)
(-0.00383403 0.0026199 2.92348e-19)
(-0.00379911 0.00251774 8.97082e-21)
(-0.00376259 0.00240344 -8.87906e-21)
(-0.00372769 0.00227614 0)
(-0.00368962 0.0021367 0)
(-0.0036477 0.00198434 -1.34609e-19)
(-0.00360448 0.00181883 1.48222e-19)
(-0.00355114 0.00164017 -1.29789e-19)
(-0.00349325 0.00145011 -3.19511e-20)
(-0.00342356 0.00125133 -2.85149e-22)
(-0.00334746 0.00104344 8.51718e-23)
(-0.0032582 0.000831332 2.75516e-19)
(-0.00316139 0.000615637 4.52846e-20)
(-0.00305024 0.000403967 -5.99943e-20)
(-0.00292805 0.000198254 5.95073e-20)
(-0.00279391 5.38146e-06 0)
(-0.00264808 -0.000171558 7.36476e-21)
(-0.0024939 -0.000330506 -7.40448e-21)
(-0.00233124 -0.000467175 0)
(-0.00216017 -0.000582293 0)
(-0.00198378 -0.000669831 -1.19824e-19)
(-0.00180243 -0.000731739 1.20584e-19)
(-0.0016193 -0.000768762 -1.25418e-19)
(-0.00143573 -0.000781823 2.4588e-19)
(-0.00125534 -0.000772043 2.32482e-23)
(-0.00107826 -0.000741532 3.93e-21)
(-0.000910224 -0.000693873 1.26786e-19)
(-0.000747709 -0.000633211 0)
(-0.000597916 -0.000562019 0)
(-0.000460093 -0.000485107 0)
(-0.000334854 -0.000405402 -2.70566e-19)
(-0.000224666 -0.000325702 -2.54504e-19)
(-0.000128978 -0.000248718 0)
(-4.74604e-05 -0.000176482 2.99808e-19)
(1.88272e-05 -0.000111478 -5.00207e-20)
(7.08443e-05 -5.56381e-05 3.32966e-20)
(0.000110855 -9.22145e-06 -1.67144e-20)
(0.000139015 2.77711e-05 3.30808e-20)
(0.000157222 5.56318e-05 -2.65085e-19)
(0.000167345 7.51935e-05 2.30888e-19)
(0.000170494 8.70221e-05 -2.96317e-19)
(0.000168157 9.24356e-05 3.81524e-22)
(0.000162872 9.31884e-05 -2.30553e-19)
(0.000152619 8.99081e-05 0)
(0.000140443 8.38232e-05 -2.61031e-19)
(0.000129698 7.70107e-05 3.20637e-20)
(0.000114626 6.92138e-05 2.23336e-19)
(9.84908e-05 6.05688e-05 -2.55934e-19)
(8.48294e-05 5.26586e-05 3.13257e-20)
(6.03092e-05 4.39652e-05 -3.15609e-20)
(3.46603e-05 3.41841e-05 3.17804e-20)
(-3.23415e-06 2.46525e-05 -3.092e-20)
(-5.36192e-05 1.42412e-05 2.99093e-20)
(-0.000122124 4.46063e-06 -1.49547e-19)
(-0.000214642 -3.51422e-06 1.45349e-19)
(-0.000337578 -7.28695e-06 -1.43981e-19)
(-0.000491217 -3.19327e-06 0)
(-0.000689015 1.6095e-05 -2.74973e-20)
(-0.000917256 5.09968e-05 2.63971e-20)
(-0.00119213 0.000114829 1.28697e-20)
(-0.00149653 0.000198929 0)
(-0.00182408 0.000316285 2.41245e-20)
(-0.00216527 0.000464831 -4.66035e-20)
(-0.00250416 0.000637964 0)
(-0.00282969 0.000843818 8.66941e-20)
(-0.00313427 0.00105992 2.05695e-20)
(-0.00340396 0.00129697 -2.03969e-20)
(-0.00364422 0.00153181 0)
(-0.00384089 0.0017714 -7.47466e-20)
(-0.00400793 0.00198848 7.16468e-20)
(-0.00413065 0.00217497 -6.95053e-20)
(-0.00420075 0.0022818 0)
(-0.00420065 0.00224169 1.28203e-19)
(-0.00430898 0.00201584 7.69274e-20)
(-0.00443017 0.00175132 -1.33516e-19)
(-0.0045178 0.00143808 1.4102e-20)
(-0.0045473 0.00108801 -1.3981e-20)
(-0.00452527 0.000717975 -1.31689e-20)
(-0.00445298 0.000374048 -1.25872e-20)
(-0.00433238 9.32119e-05 1.11735e-20)
(-0.00413933 -7.21199e-05 7.61621e-22)
(-0.00387122 -0.000154291 0)
(-0.00357246 -0.000189426 -7.14284e-22)
(-0.00327444 -0.00019337 0)
(-0.00299998 -0.000178053 6.69285e-22)
(-0.00276224 -0.000152298 1.01663e-20)
(-0.00256706 -0.000122425 -1.08212e-20)
(-0.00241431 -9.28208e-05 9.02709e-22)
(-0.00230149 -6.63445e-05 -9.06949e-21)
(-0.00222122 -4.44376e-05 1.72124e-20)
(-0.002167 -2.70901e-05 -1.70033e-20)
(-0.00213217 -1.42687e-05 8.81159e-21)
(-0.00211018 -5.92605e-06 0)
(-0.00209509 -1.57795e-06 -4.03192e-21)
(-0.00208257 -5.63376e-07 3.78555e-21)
(-0.00206971 -1.8351e-06 4.09317e-22)
(-0.00205488 -4.41247e-06 2.98909e-21)
(-0.00203767 -7.14701e-06 -2.6237e-21)
(-0.00201859 -9.23963e-06 -2.60067e-21)
(-0.00199911 -1.01265e-05 2.90909e-21)
(-0.00198118 -9.42742e-06 -2.5034e-21)
(-0.00196679 -7.17709e-06 4.36812e-21)
(-0.00195801 -3.18645e-06 -2.6964e-21)
(-0.00195675 2.27682e-06 9.14815e-22)
(-0.00196416 8.74358e-06 1.93125e-22)
(-0.00198084 1.55391e-05 0)
(-0.00200685 2.25099e-05 -3.95645e-22)
(-0.00204178 2.93613e-05 5.40622e-22)
(-0.00208491 3.60511e-05 -2.82864e-23)
(-0.00213505 4.29998e-05 1.7911e-22)
(-0.00219278 5.13618e-05 0)
(-0.00226454 6.37087e-05 0)
(-0.00233782 7.91964e-05 1.32642e-23)
(0.00408169 0.000696828 0)
(0.0040632 0.00135828 4.24236e-21)
(0.00407108 0.00147383 -4.22759e-21)
(0.00389551 0.00138793 -8.43502e-21)
(0.00355071 0.00122206 8.52136e-21)
(0.00313505 0.00103486 0)
(0.00271286 0.000863833 0)
(0.00231478 0.000719336 0)
(0.00195268 0.00060063 1.74746e-20)
(0.00162981 0.000503032 -3.51964e-20)
(0.0013456 0.000422536 -1.75404e-20)
(0.00109685 0.000356281 3.54961e-20)
(0.000879905 0.000301829 3.53855e-20)
(0.000690456 0.000257165 -3.55771e-20)
(0.000524548 0.000220799 0)
(0.000378304 0.000191517 3.53799e-20)
(0.00024811 0.000168252 -7.08415e-20)
(0.000130793 0.000150055 3.54466e-20)
(2.35805e-05 0.000136058 0)
(-7.60164e-05 0.00012548 0)
(-0.000170072 0.000117616 0)
(-0.000260307 0.000111799 0)
(-0.000348094 0.000107406 0)
(-0.000434469 0.000103859 6.80837e-20)
(-0.000520154 0.000100589 -6.79491e-20)
(-0.000605622 9.70069e-05 0)
(-0.000691063 9.24756e-05 0)
(-0.000776322 8.6275e-05 0)
(-0.000860829 7.73858e-05 0)
(-0.000943663 6.42335e-05 0)
(-0.00102354 4.43611e-05 6.49305e-20)
(-0.00109773 1.39125e-05 -6.48395e-20)
(-0.00116245 -3.3834e-05 0)
(-0.00123221 -0.000111106 -3.986e-21)
(-0.00128759 -0.000246249 0)
(-0.00125402 -0.000429174 1.26272e-19)
(-0.00112062 -0.000599228 -2.54154e-19)
(-0.000925902 -0.000718067 0)
(-0.000684673 -0.000766306 5.21184e-19)
(-0.00040431 -0.000730094 -3.84071e-22)
(-6.65367e-05 -0.000598961 6.71785e-20)
(0.000298528 -0.000384195 -6.77978e-20)
(0.000656635 -0.000130818 5.38317e-19)
(0.000998056 0.000125547 0)
(0.00131347 0.000365611 6.00061e-19)
(0.00160002 0.000577497 -5.65314e-19)
(0.00186179 0.000756797 -5.6332e-19)
(0.00208793 0.00089802 0)
(0.00228044 0.000999547 -2.63105e-19)
(0.00243751 0.00106263 0)
(0.00255086 0.00108659 5.24076e-19)
(0.00262413 0.00107548 0)
(0.00264348 0.00103144 -2.27304e-19)
(0.00261213 0.000960907 -2.90306e-19)
(0.00251869 0.000870243 -2.56457e-19)
(0.00236069 0.000766539 -1.27683e-19)
(0.00214008 0.000661259 -1.26941e-19)
(0.00184608 0.000563901 -6.31791e-20)
(0.00149818 0.000484346 3.16102e-20)
(0.00108547 0.000438049 4.71224e-20)
(0.000624334 0.000424271 0)
(0.000137296 0.000457013 1.24042e-19)
(-0.000371385 0.000535451 -1.22202e-19)
(-0.000878682 0.000656767 0)
(-0.00137291 0.00082241 -4.66583e-19)
(-0.00184559 0.00101778 0)
(-0.00227829 0.0012427 -5.5288e-20)
(-0.00267898 0.00147955 5.45468e-20)
(-0.00302949 0.00172493 0)
(-0.00333988 0.00196768 -5.1513e-20)
(-0.00360895 0.00220177 5.08697e-20)
(-0.00383733 0.00242338 5.44289e-19)
(-0.00403392 0.00262437 -3.39458e-19)
(-0.00419422 0.00280377 1.71179e-21)
(-0.0043244 0.00295824 -3.70385e-19)
(-0.00442697 0.00308464 -2.26213e-20)
(-0.00450224 0.00318354 3.79707e-19)
(-0.00455323 0.003254 0)
(-0.00458295 0.00329643 3.43759e-19)
(-0.00459322 0.00331416 6.52052e-19)
(-0.00458706 0.00331014 -6.29654e-19)
(-0.00456681 0.0032846 -3.35358e-19)
(-0.00453334 0.00323871 3.29291e-19)
(-0.00449031 0.00317531 -3.22034e-19)
(-0.00444019 0.0030964 0)
(-0.00438379 0.00300338 -3.01452e-19)
(-0.00432288 0.00289674 -3.67782e-21)
(-0.00425992 0.00277617 -5.91771e-19)
(-0.00419303 0.00264235 -2.69596e-19)
(-0.00412274 0.0024948 -2.91595e-19)
(-0.00405035 0.00233226 0)
(-0.00397121 0.00215513 0)
(-0.00388564 0.00196378 1.33969e-19)
(-0.00379324 0.00175969 0)
(-0.00368974 0.00154524 1.61933e-20)
(-0.00357977 0.00132059 -1.60355e-20)
(-0.00345473 0.00108918 1.25892e-19)
(-0.00332023 0.000853217 -1.24468e-19)
(-0.00316929 0.000617944 -1.07396e-19)
(-0.00300792 0.000386348 -1.52322e-20)
(-0.00282933 0.000165043 6.02026e-20)
(-0.00263882 -4.29101e-05 -2.99122e-20)
(-0.00243508 -0.000231668 2.23428e-20)
(-0.00222103 -0.000397036 -7.46103e-21)
(-0.00199649 -0.000536021 0)
(-0.00176415 -0.000644212 -5.97705e-20)
(-0.00152566 -0.000721025 0)
(-0.00128307 -0.000763944 -1.21072e-19)
(-0.00103933 -0.000774356 -2.02156e-22)
(-0.000796641 -0.00075293 1.19739e-19)
(-0.000558094 -0.000702011 -1.2491e-19)
(-0.000326869 -0.000624549 3.95454e-21)
(-0.000103874 -0.000524511 0)
(0.000105369 -0.000406126 -1.28021e-19)
(0.000303143 -0.00027431 1.28125e-19)
(0.000484484 -0.00013309 0)
(0.000648366 1.1725e-05 -7.99899e-21)
(0.000795936 0.000156264 2.64704e-19)
(0.00092492 0.000296277 2.41847e-19)
(0.00103595 0.000427531 -2.40778e-19)
(0.00113086 0.000547536 2.57079e-19)
(0.00120919 0.000653911 1.60387e-20)
(0.00127201 0.000744896 -2.41228e-19)
(0.0013224 0.00082041 -3.23629e-20)
(0.00136141 0.000880685 -2.88851e-19)
(0.00139111 0.000926195 5.78773e-19)
(0.00141359 0.00095812 -2.89828e-19)
(0.00143065 0.000977487 2.25069e-19)
(0.00144496 0.000985997 -1.90585e-19)
(0.00145965 0.00098614 -3.1687e-19)
(0.00147305 0.00097886 -1.88839e-19)
(0.00148763 0.000965611 -3.16569e-20)
(0.00150796 0.000948885 -2.18127e-19)
(0.00152797 0.000928227 -2.80451e-19)
(0.00154972 0.000903633 3.05428e-20)
(0.00157737 0.000876848 -3.07773e-20)
(0.00159794 0.00084501 -9.04816e-20)
(0.00161754 0.000808174 -2.9277e-20)
(0.00162711 0.000766857 2.92709e-20)
(0.00162224 0.000719731 -2.94667e-20)
(0.00159706 0.000667849 1.14718e-19)
(0.00154235 0.00061207 -2.87986e-20)
(0.00144915 0.000554559 6.26637e-22)
(0.00131405 0.000499367 2.77436e-20)
(0.0011189 0.000452274 1.07745e-19)
(0.00087498 0.000417232 0)
(0.000561382 0.000407486 -5.15487e-20)
(0.00018945 0.00042247 3.20916e-20)
(-0.000229009 0.000475141 -2.46998e-20)
(-0.000694387 0.00056938 7.10263e-20)
(-0.00118026 0.000701684 2.2539e-20)
(-0.00167984 0.000881268 -8.79683e-20)
(-0.00217472 0.00108822 -1.054e-19)
(-0.00264633 0.00132985 4.06221e-20)
(-0.00308949 0.00158355 -9.78916e-20)
(-0.00348054 0.00185004 7.48893e-20)
(-0.0038312 0.00210426 1.77905e-20)
(-0.0041235 0.0023306 6.88129e-20)
(-0.00435454 0.00246836 -1.69589e-20)
(-0.00452693 0.00248254 6.47704e-20)
(-0.00469626 0.00224958 -6.12046e-20)
(-0.00478278 0.00191874 4.44016e-20)
(-0.00482488 0.00151349 1.44929e-20)
(-0.00478773 0.0010621 2.77717e-20)
(-0.00465717 0.000597481 0)
(-0.00442487 0.000173574 2.57229e-20)
(-0.00409033 -0.000167351 -2.36402e-20)
(-0.00366918 -0.000376678 -3.56624e-22)
(-0.00322258 -0.000479036 4.1566e-22)
(-0.00278438 -0.000507856 1.1393e-21)
(-0.00237169 -0.000486898 1.14246e-20)
(-0.00200164 -0.000434746 -6.80949e-22)
(-0.00168366 -0.000366208 0)
(-0.00142089 -0.00029248 6.3843e-22)
(-0.00121158 -0.000221431 -6.16349e-22)
(-0.00105056 -0.00015833 -1.04746e-20)
(-0.000930238 -0.000106144 9.88037e-21)
(-0.000842104 -6.60551e-05 8.54035e-21)
(-0.000777586 -3.78737e-05 -9.0655e-21)
(-0.000728693 -2.03542e-05 0)
(-0.000688708 -1.1709e-05 4.7322e-22)
(-0.000652252 -9.91911e-06 0)
(-0.000615693 -1.25222e-05 2.86175e-21)
(-0.000577231 -1.71786e-05 -1.96115e-22)
(-0.000536693 -2.15623e-05 -3.45591e-21)
(-0.000495342 -2.39437e-05 -6.9532e-22)
(-0.000455305 -2.31649e-05 -3.23738e-22)
(-0.000419281 -1.85615e-05 2.98952e-22)
(-0.000390281 -1.00993e-05 0)
(-0.000371137 1.68502e-06 -2.49614e-22)
(-0.000363744 1.62363e-05 -8.50376e-22)
(-0.000369687 3.26456e-05 6.47796e-22)
(-0.00038966 4.98406e-05 6.5591e-22)
(-0.000423495 6.68903e-05 -8.05875e-22)
(-0.000470278 8.30593e-05 0)
(-0.000528496 9.80452e-05 -1.27002e-22)
(-0.000595979 0.000112116 -1.84485e-22)
(-0.000671184 0.000126091 -4.61877e-23)
(-0.000758878 0.000141956 4.59964e-23)
(-0.000850946 0.000161732 -1.32673e-23)
(0.00404158 0.000410593 0)
(0.00402308 0.00101286 0)
(0.00425399 0.00132209 0)
(0.0044721 0.00143253 -8.33215e-21)
(0.00449962 0.00140544 8.33264e-21)
(0.00440501 0.00130838 0)
(0.00423386 0.00117441 0)
(0.00402311 0.00103348 0)
(0.00379692 0.0009007 0)
(0.00357006 0.000780065 0)
(0.00335217 0.000673173 0)
(0.00314809 0.000580664 3.366e-20)
(0.00295941 0.000501528 -3.38552e-20)
(0.00278639 0.000434522 3.37147e-20)
(0.00262832 0.000378597 -6.75852e-20)
(0.00248378 0.0003327 3.38536e-20)
(0.00235095 0.000295649 3.36551e-20)
(0.00222798 0.000266281 -3.37684e-20)
(0.00211304 0.00024352 0)
(0.00200436 0.000226344 0)
(0.00190024 0.000213779 -6.6783e-20)
(0.00179917 0.000204882 6.69443e-20)
(0.00169977 0.000198757 0)
(0.00160089 0.00019455 6.62557e-20)
(0.00150152 0.000191452 -6.6404e-20)
(0.00140087 0.000188661 0)
(0.0012983 0.000185311 0)
(0.00119337 0.000180406 -6.55505e-20)
(0.00108588 0.000172699 3.24201e-22)
(0.000975726 0.000160482 6.55706e-20)
(0.000862786 0.000141354 6.51243e-20)
(0.000747242 0.000111901 -1.30365e-19)
(0.000631535 6.63183e-05 6.52741e-20)
(0.000490545 -5.21108e-06 -6.08193e-20)
(0.000345217 -0.000116078 6.50016e-20)
(0.000298693 -0.000251492 6.44237e-20)
(0.000377305 -0.000364791 -6.47371e-20)
(0.000537665 -0.000422883 -1.9414e-19)
(0.000761291 -0.00040683 -3.2457e-19)
(0.00104142 -0.000305173 -6.51662e-20)
(0.00139653 -0.000112381 6.5274e-20)
(0.00179297 0.000151672 5.83255e-19)
(0.00218604 0.000444739 -5.80458e-19)
(0.00256408 0.000736493 -5.77632e-19)
(0.00292049 0.00100868 1.28034e-19)
(0.003253 0.00124975 -9.58382e-20)
(0.00356589 0.00145424 2.86297e-19)
(0.00384942 0.00161575 0)
(0.0041042 0.00173256 2.84978e-19)
(0.00432827 0.00180355 -3.16927e-20)
(0.00451415 0.00182683 -2.52168e-19)
(0.00466264 0.00180779 -3.12641e-20)
(0.00476055 0.00174643 3.11365e-19)
(0.0048093 0.00164828 2.16553e-19)
(0.00479741 0.00151735 2.45683e-19)
(0.00471994 0.00136188 1.21876e-19)
(0.00457551 0.00119169 3.01679e-20)
(0.00434963 0.0010159 -3.01996e-20)
(0.0040578 0.000847676 -2.98685e-20)
(0.00368218 0.00069842 -4.4386e-20)
(0.00323597 0.000577105 -2.94225e-20)
(0.002735 0.000496467 0)
(0.00218324 0.00046268 -1.17338e-19)
(0.00160571 0.000478168 0)
(0.0010125 0.000546731 4.07924e-19)
(0.000422451 0.000659861 2.32977e-19)
(-0.000146943 0.000816981 5.77336e-20)
(-0.000691 0.00100343 0)
(-0.00119306 0.00121316 0)
(-0.00165513 0.00143469 2.14098e-19)
(-0.0020673 0.00165816 0)
(-0.00243087 0.00187785 -4.57829e-19)
(-0.00275116 0.00208331 4.46785e-19)
(-0.00302233 0.00227009 -4.12057e-19)
(-0.00325279 0.00243403 2.30871e-22)
(-0.00344402 0.00257052 2.23611e-22)
(-0.00359631 0.0026784 -3.17977e-19)
(-0.00371496 0.00275771 -4.4639e-20)
(-0.00380296 0.00280841 -3.27223e-19)
(-0.00386163 0.00283188 -3.42507e-19)
(-0.00389452 0.0028304 -1.64096e-21)
(-0.00390527 0.00280598 3.19649e-19)
(-0.00389603 0.00276115 -3.13814e-19)
(-0.00387023 0.00269846 0)
(-0.00383065 0.00261967 -4.87761e-21)
(-0.00377893 0.00252658 -3.03907e-19)
(-0.0037183 0.00242027 6.03268e-19)
(-0.0036506 0.00230036 8.94504e-19)
(-0.00357491 0.00216719 3.01165e-19)
(-0.00349414 0.00202097 -1.02028e-20)
(-0.00340801 0.00186031 0)
(-0.00331395 0.00168548 -8.67105e-21)
(-0.00321345 0.00149709 8.58472e-21)
(-0.00310395 0.00129528 0)
(-0.00298282 0.00108274 -1.32656e-19)
(-0.00285239 0.000861996 1.6243e-20)
(-0.00270589 0.000636752 -1.61107e-20)
(-0.00254714 0.000410588 -2.9126e-22)
(-0.00237092 0.000188577 -1.25304e-19)
(-0.00218055 -2.51082e-05 1.54333e-20)
(-0.00197184 -0.000224277 -3.07002e-20)
(-0.0017497 -0.000403995 1.5296e-20)
(-0.00151118 -0.000559186 8.28949e-24)
(-0.00126146 -0.000685224 7.56438e-21)
(-0.000999563 -0.000779067 -7.62037e-21)
(-0.000729834 -0.000837016 6.10182e-20)
(-0.000454429 -0.000858084 6.51807e-20)
(-0.00017603 -0.000841108 1.1993e-19)
(0.000101083 -0.000787289 -2.48299e-19)
(0.00037461 -0.000698552 1.19865e-19)
(0.000640962 -0.000577958 3.8741e-21)
(0.000896825 -0.000429406 3.84361e-21)
(0.00114101 -0.000257598 -3.86769e-21)
(0.00136841 -6.78347e-05 1.23501e-19)
(0.00158104 0.000134326 -8.09037e-21)
(0.00177526 0.000343437 5.57762e-23)
(0.0019499 0.000553451 -1.07945e-19)
(0.00210682 0.000759515 -3.79381e-19)
(0.00224458 0.000956659 2.47351e-19)
(0.00236409 0.00114051 2.4872e-19)
(0.00246797 0.00130818 -2.64496e-19)
(0.00255658 0.00145709 -2.32457e-19)
(0.00263142 0.0015855 2.3393e-19)
(0.00269591 0.00169316 2.79244e-19)
(0.00275171 0.00178018 2.3374e-19)
(0.00280109 0.00184718 -3.23113e-20)
(0.00284652 0.00189552 3.11473e-20)
(0.00288965 0.00192697 0)
(0.00293319 0.00194359 2.77509e-19)
(0.00298044 0.00194766 2.45522e-19)
(0.00303034 0.00194015 2.13968e-19)
(0.00308481 0.00192267 0)
(0.00314837 0.00189751 2.71622e-19)
(0.00321537 0.00186421 -3.01006e-20)
(0.00328713 0.00182296 8.87061e-20)
(0.00336694 0.00177505 2.9605e-20)
(0.00344312 0.00171786 8.40808e-22)
(0.00351962 0.00165119 1.43797e-19)
(0.00358877 0.00157496 -2.86259e-20)
(0.00364438 0.00148806 1.39227e-19)
(0.00368072 0.00139094 -2.48326e-19)
(0.0036875 0.00128428 -2.16935e-19)
(0.00365514 0.00116999 -1.06284e-19)
(0.00357836 0.00105197 0)
(0.00343819 0.000934702 2.5103e-20)
(0.00324203 0.000824538 -3.61113e-22)
(0.00296665 0.000730522 -1.19893e-20)
(0.00261682 0.000658686 4.22621e-20)
(0.0022016 0.000619564 -2.39822e-20)
(0.00171423 0.00062119 4.63891e-20)
(0.00118164 0.000664454 -4.55566e-20)
(0.000603482 0.000758882 0)
(5.22431e-06 0.000893029 1.08541e-19)
(-0.000596089 0.00107181 -4.19373e-20)
(-0.00118713 0.00127766 8.08754e-20)
(-0.0017457 0.00150795 1.9562e-20)
(-0.00226589 0.00173879 -9.25124e-20)
(-0.00272765 0.00194964 1.80563e-20)
(-0.00312519 0.00209473 0)
(-0.00345596 0.00211941 -8.23169e-20)
(-0.00370017 0.00191577 4.11016e-22)
(-0.0037577 0.00156836 3.98168e-22)
(-0.00374155 0.0011359 3.98682e-22)
(-0.00362011 0.000655341 -2.8087e-20)
(-0.00338244 0.000169959 4.07195e-22)
(-0.00301913 -0.000261861 1.92317e-22)
(-0.00253519 -0.00059976 1.27319e-20)
(-0.00197883 -0.000804509 -1.1228e-20)
(-0.00144341 -0.000890149 -1.20229e-20)
(-0.000947089 -0.000889036 -1.05184e-21)
(-0.000494574 -0.000827935 1.18027e-20)
(-9.48375e-05 -0.000728986 -1.40198e-21)
(0.000247665 -0.00061099 -1.05867e-20)
(0.000532691 -0.000488733 1.05364e-20)
(0.000763366 -0.000372968 1.23528e-21)
(0.000945372 -0.000270964 1.18496e-21)
(0.00108617 -0.000186939 0)
(0.00119413 -0.000122583 -8.45248e-21)
(0.00127776 -7.75145e-05 8.43102e-21)
(0.00134501 -4.97653e-05 0)
(0.00140268 -3.6251e-05 9.27768e-22)
(0.00145613 -3.31305e-05 0)
(0.00150901 -3.64611e-05 -8.26661e-22)
(0.00156323 -4.23375e-05 -3.01264e-21)
(0.001619 -4.74286e-05 3.0028e-21)
(0.00167505 -4.89572e-05 6.77629e-22)
(0.00172914 -4.5035e-05 -6.2616e-22)
(0.00177831 -3.45159e-05 0)
(0.0018192 -1.73144e-05 2.02307e-21)
(0.00184868 5.89764e-06 -2.01904e-21)
(0.00186404 3.36874e-05 -4.32838e-22)
(0.00186351 6.43786e-05 -7.26262e-22)
(0.00184608 9.61208e-05 7.2457e-22)
(0.00181175 0.000127178 -5.40748e-22)
(0.00176148 0.000156112 5.39904e-22)
(0.00169707 0.000182036 2.02455e-22)
(0.00162125 0.000204748 1.34629e-22)
(0.00153695 0.000224636 -8.95345e-23)
(0.00144224 0.000242846 -1.126e-22)
(0.00133731 0.000263711 0)
(0.00401781 0.000241993 0)
(0.00390472 0.000693868 0)
(0.00414012 0.00101879 0)
(0.00447782 0.00121586 -8.37189e-21)
(0.00472761 0.00129512 8.31948e-21)
(0.00488256 0.00128777 0)
(0.0049611 0.00123166 -1.63741e-20)
(0.00496959 0.00114175 1.63993e-20)
(0.00493576 0.00103859 1.63016e-20)
(0.00487099 0.000931958 -3.26444e-20)
(0.00478576 0.000829092 1.63482e-20)
(0.00468917 0.000734802 0)
(0.00458651 0.00065008 0)