/*--------------------------------*- C++ -*----------------------------------*\
| =========                 |                                                 |
| \\      /  F ield         | OpenFOAM: The Open Source CFD Toolbox           |
|  \\    /   O peration     | Version:  2506                                  |
|   \\  /    A nd           | Website:  www.openfoam.com                      |
|    \\/     M anipulation  |                                                 |
\*---------------------------------------------------------------------------*/
FoamFile
{
    version     2.0;
    format      ascii;
    arch        "LSB;label=32;scalar=64";
    class       volScalarField;
    location    "5";
    object      p;
}
// * * * * * * * * * * * * * * * * * * * * * * * * * * * * * * * * * * * * * //

dimensions      [0 2 -2 0 0 0 0];

internalField   nonuniform List<scalar> 
4000
(
0.000554708
0.000496785
0.00046543
0.000451877
0.000443668
0.000437945
0.000433948
0.000430942
0.000428452
0.000426253
0.000424243
0.000422362
0.000420579
0.000418873
0.000417235
0.000415658
0.000414141
0.000412684
0.000411287
0.000409954
0.000408688
0.000407492
0.000406372
0.000405333
0.000404381
0.000403523
0.000402765
0.000402115
0.000401581
0.000401172
0.000400899
0.000400776
0.000400822
0.000400925
0.000401546
0.000402582
0.000403305
0.000403553
0.000403293
0.000402267
0.000400186
0.00039587
0.000389294
0.000381156
0.000371471
0.000360433
0.000348168
0.000334586
0.000320326
0.000305283
0.000289728
0.000274176
0.000258445
0.000243487
0.000228855
0.000215566
0.000203487
0.000192811
0.000184228
0.000176687
0.000171605
0.000167838
0.000165631
0.000164872
0.000164992
0.000166281
0.000168015
0.000170471
0.000173152
0.000176133
0.00017924
0.000182345
0.000185505
0.000188572
0.000191555
0.000194444
0.000197197
0.000199816
0.000202304
0.000204651
0.000206861
0.000208941
0.000210895
0.00021273
0.000214457
0.000216083
0.00021762
0.000219075
0.000220456
0.000221772
0.000223028
0.00022423
0.000225382
0.000226487
0.00022755
0.000228565
0.000229542
0.00023048
0.000231383
0.000232254
0.000233102
0.000233928
0.000234737
0.00023553
0.00023631
0.000237074
0.000237822
0.000238545
0.000239237
0.000239881
0.00024046
0.000240946
0.000241317
0.000241523
0.000241551
0.000241317
0.000240801
0.000239946
0.00023868
0.00023697
0.00023476
0.000231983
0.000228612
0.000224618
0.000219944
0.000214584
0.000208521
0.000201743
0.00019426
0.000186075
0.000177155
0.000167607
0.000157427
0.000146544
0.000135167
0.000123319
0.000110806
9.82216e-05
8.51983e-05
7.2168e-05
5.91757e-05
4.64702e-05
3.42929e-05
2.30256e-05
1.25416e-05
3.88552e-06
-3.86436e-06
-9.35392e-06
-1.34079e-05
-1.5883e-05
-1.66012e-05
-1.63909e-05
-1.46575e-05
-1.23978e-05
-9.22127e-06
-5.83969e-06
-2.03692e-06
1.73894e-06
5.53907e-06
9.17962e-06
1.32231e-05
1.63079e-05
1.9103e-05
2.16457e-05
2.39977e-05
2.60585e-05
2.78887e-05
2.905e-05
2.96724e-05
2.9934e-05
2.9855e-05
2.94758e-05
2.88476e-05
2.80183e-05
2.70309e-05
2.59236e-05
2.47301e-05
2.34789e-05
2.21941e-05
2.0895e-05
1.95971e-05
1.83123e-05
1.70492e-05
1.5814e-05
1.46104e-05
1.34406e-05
1.23053e-05
1.12037e-05
1.01344e-05
9.09728e-06
8.0894e-06
7.10882e-06
6.15391e-06
5.22325e-06
4.31588e-06
3.43164e-06
2.57146e-06
1.73526e-06
9.22144e-07
2.02879e-07
0.000503042
0.000479913
0.000462006
0.000452219
0.000445353
0.000439789
0.000435499
0.000432172
0.000429428
0.000427035
0.00042488
0.000422894
0.000421032
0.000419268
0.000417586
0.000415978
0.000414437
0.000412963
0.000411554
0.000410213
0.000408942
0.000407744
0.000406624
0.000405588
0.00040464
0.000403788
0.000403038
0.000402398
0.000401876
0.000401482
0.000401225
0.000401119
0.00040118
0.000401271
0.000401763
0.000402569
0.000402953
0.000402768
0.000401935
0.000400138
0.000397077
0.000391813
0.000384556
0.00037593
0.000365914
0.00035468
0.000342366
0.000328939
0.00031498
0.000300409
0.000285485
0.000270671
0.000255821
0.00024179
0.000228231
0.000215877
0.0002046
0.00019455
0.00018634
0.000179095
0.000173989
0.000170111
0.000167639
0.000166535
0.000166285
0.000167168
0.000168537
0.000170637
0.000173022
0.000175739
0.00017864
0.000181575
0.000184602
0.000187575
0.000190487
0.000193333
0.000196063
0.000198674
0.000201169
0.000203534
0.00020577
0.000207881
0.00020987
0.000211743
0.000213508
0.000215171
0.000216742
0.000218232
0.000219644
0.000220991
0.00022228
0.000223513
0.000224698
0.000225841
0.000226939
0.000228003
0.000229028
0.000230031
0.000231001
0.000231943
0.000232853
0.000233742
0.000234606
0.000235448
0.000236272
0.000237067
0.000237838
0.000238566
0.000239245
0.000239855
0.000240373
0.000240769
0.000241016
0.000241059
0.000240883
0.000240403
0.000239597
0.000238408
0.000236766
0.000234643
0.000231987
0.00022874
0.000224884
0.000220394
0.000215227
0.000209388
0.000202871
0.00019567
0.000187807
0.000179294
0.000170105
0.000160359
0.000150056
0.000139128
0.000127813
0.000116113
0.000103884
9.16689e-05
7.91572e-05
6.67551e-05
5.4532e-05
4.26952e-05
3.14752e-05
2.11709e-05
1.17683e-05
3.91287e-06
-3.05911e-06
-8.0856e-06
-1.18143e-05
-1.41528e-05
-1.48954e-05
-1.4792e-05
-1.3282e-05
-1.12667e-05
-8.36618e-06
-5.24439e-06
-1.68734e-06
1.87631e-06
5.50917e-06
8.90932e-06
1.28833e-05
1.59629e-05
1.87844e-05
2.13557e-05
2.37167e-05
2.57337e-05
2.74905e-05
2.8572e-05
2.9164e-05
2.94278e-05
2.93606e-05
2.89982e-05
2.83929e-05
2.75921e-05
2.6637e-05
2.55645e-05
2.4407e-05
2.31922e-05
2.19432e-05
2.06788e-05
1.9414e-05
1.81602e-05
1.69261e-05
1.57175e-05
1.45383e-05
1.33906e-05
1.2275e-05
1.11915e-05
1.01391e-05
9.11521e-06
8.11953e-06
7.14959e-06
6.20372e-06
5.2806e-06
4.37928e-06
3.49944e-06
2.64136e-06
1.8037e-06
9.8205e-07
2.25672e-07
0.000478711
0.000471142
0.000460572
0.000452609
0.000446343
0.000441227
0.000436929
0.000433413
0.000430463
0.000427887
0.000425582
0.000423477
0.00042152
0.000419683
0.000417944
0.00041629
0.000414714
0.000413212
0.000411781
0.000410423
0.000409138
0.00040793
0.000406801
0.000405758
0.000404805
0.000403949
0.000403196
0.000402554
0.000402031
0.000401635
0.000401375
0.000401259
0.000401303
0.000401335
0.000401678
0.000402234
0.000402242
0.000401567
0.000400127
0.000397574
0.000393667
0.000387686
0.000380003
0.000371142
0.000361048
0.000349874
0.000337772
0.000324763
0.000311349
0.000297495
0.000283407
0.000269508
0.000255721
0.000242657
0.00023007
0.000218529
0.000207967
0.000198461
0.000190532
0.000183445
0.000178173
0.00017401
0.000171105
0.000169485
0.000168697
0.000169036
0.000169897
0.000171535
0.000173523
0.000175899
0.000178529
0.000181238
0.000184096
0.000186939
0.000189754
0.000192537
0.000195227
0.000197815
0.000200306
0.000202678
0.000204929
0.000207064
0.00020908
0.000210982
0.000212779
0.000214472
0.00021607
0.000217589
0.000219026
0.000220396
0.000221711
0.000222968
0.000224179
0.000225354
0.000226484
0.00022759
0.000228656
0.000229695
0.000230701
0.000231691
0.000232647
0.000233586
0.000234496
0.00023538
0.000236242
0.000237061
0.000237847
0.00023857
0.000239226
0.000239786
0.000240226
0.000240512
0.000240615
0.000240473
0.000240076
0.000239333
0.000238226
0.000236702
0.000234695
0.000232182
0.00022912
0.00022546
0.000221193
0.000216302
0.000210757
0.000204571
0.000197746
0.000190286
0.000182216
0.000173554
0.000164295
0.000154534
0.000144286
0.000133519
0.000122432
0.000111037
9.9273e-05
8.75717e-05
7.57251e-05
6.40627e-05
5.26752e-05
4.17241e-05
3.14104e-05
2.19496e-05
1.33162e-05
6.0472e-06
-3.93759e-07
-5.17339e-06
-8.79119e-06
-1.12091e-05
-1.2169e-05
-1.23682e-05
-1.1221e-05
-9.58774e-06
-7.04306e-06
-4.26313e-06
-9.93049e-07
2.31197e-06
5.77447e-06
8.89132e-06
1.28745e-05
1.58498e-05
1.86039e-05
2.11469e-05
2.34864e-05
2.54247e-05
2.71041e-05
2.80888e-05
2.86371e-05
2.8901e-05
2.88418e-05
2.84893e-05
2.79005e-05
2.7123e-05
2.61961e-05
2.51552e-05
2.40317e-05
2.28524e-05
2.16394e-05
2.04108e-05
1.91809e-05
1.79608e-05
1.67586e-05
1.55801e-05
1.44289e-05
1.33071e-05
1.22152e-05
1.11531e-05
1.01198e-05
9.11352e-06
8.1325e-06
7.1755e-06
6.24063e-06
5.32641e-06
4.43175e-06
3.55597e-06
2.69864e-06
1.85726e-06
1.02413e-06
2.24438e-07
0.000467717
0.000464933
0.00045848
0.000451986
0.00044668
0.00044213
0.000437993
0.000434512
0.000431465
0.00042875
0.000426316
0.000424086
0.000422022
0.000420098
0.000418287
0.000416571
0.000414944
0.000413399
0.000411931
0.00041054
0.000409226
0.000407991
0.000406838
0.00040577
0.000404792
0.000403911
0.000403132
0.000402461
0.000401906
0.000401473
0.000401166
0.000400988
0.000400949
0.000400863
0.000401033
0.000401345
0.000400997
0.000399858
0.000397865
0.000394692
0.000390169
0.000383736
0.000375837
0.000366915
0.000356918
0.000345994
0.000334304
0.000321903
0.000309238
0.000296273
0.000283141
0.000270294
0.000257653
0.000245631
0.000234087
0.000223393
0.000213545
0.000204557
0.00019684
0.00018983
0.000184292
0.000179718
0.000176244
0.000173948
0.000172463
0.000172088
0.000172282
0.000173308
0.000174762
0.000176677
0.000178933
0.000181328
0.000183945
0.0001866
0.00018927
0.000191952
0.000194571
0.000197112
0.000199579
0.000201943
0.000204196
0.000206344
0.00020838
0.000210306
0.000212129
0.000213847
0.00021547
0.000217014
0.000218472
0.00021986
0.000221196
0.000222471
0.000223702
0.000224902
0.000226056
0.000227195
0.000228292
0.000229378
0.000230425
0.000231466
0.000232467
0.000233456
0.000234411
0.000235334
0.00023623
0.000237066
0.000237859
0.000238565
0.000239183
0.000239677
0.00024002
0.000240174
0.000240107
0.000239756
0.000239114
0.000238087
0.000236663
0.000234794
0.00023242
0.000229526
0.00022608
0.000222041
0.00021741
0.000212181
0.000206335
0.000199892
0.000192863
0.000185259
0.000177111
0.000168443
0.000159263
0.000149651
0.000139643
0.00012922
0.000118549
0.000107662
9.65429e-05
8.55294e-05
7.44944e-05
6.36905e-05
5.32158e-05
4.31832e-05
3.37547e-05
2.50742e-05
1.71241e-05
1.03097e-05
4.2207e-06
-5.19159e-07
-4.25466e-06
-6.97458e-06
-8.38332e-06
-9.09366e-06
-8.50797e-06
-7.42143e-06
-5.3731e-06
-3.04101e-06
-1.34247e-07
2.85857e-06
6.14485e-06
8.991e-06
1.30009e-05
1.58528e-05
1.85013e-05
2.09881e-05
2.32946e-05
2.51452e-05
2.6748e-05
2.76243e-05
2.81076e-05
2.83561e-05
2.82909e-05
2.7934e-05
2.73487e-05
2.6584e-05
2.5677e-05
2.46615e-05
2.35678e-05
2.24214e-05
2.12436e-05
2.00514e-05
1.88583e-05
1.76746e-05
1.6508e-05
1.53639e-05
1.42454e-05
1.31542e-05
1.20909e-05
1.10551e-05
1.00456e-05
9.06104e-06
8.09954e-06
7.15954e-06
6.23915e-06
5.33672e-06
4.45089e-06
3.58046e-06
2.72424e-06
1.87856e-06
1.03689e-06
2.05456e-07
0.000460987
0.00045966
0.000455685
0.00045099
0.000446662
0.000442591
0.000438838
0.000435501
0.000432406
0.000429626
0.00042711
0.000424755
0.000422574
0.000420551
0.00041865
0.000416853
0.000415155
0.000413548
0.000412024
0.000410581
0.000409219
0.000407937
0.000406738
0.000405623
0.000404597
0.000403663
0.000402828
0.000402096
0.000401472
0.000400959
0.000400558
0.000400265
0.000400083
0.00039983
0.000399785
0.000399816
0.000399107
0.000397525
0.000395031
0.000391346
0.000386363
0.000379648
0.000371672
0.000362819
0.000353059
0.000342541
0.000331423
0.000319792
0.00030796
0.000295963
0.000283998
0.00027231
0.000260867
0.000249961
0.000239513
0.000229741
0.000220661
0.000212255
0.000204814
0.000197944
0.000192195
0.000187239
0.000183188
0.000180161
0.000177901
0.000176677
0.000176059
0.000176298
0.000177048
0.000178334
0.000180057
0.000182002
0.000184257
0.000186621
0.000189063
0.000191575
0.000194068
0.000196521
0.00019893
0.000201262
0.0002035
0.000205649
0.000207696
0.00020964
0.000211488
0.000213231
0.000214879
0.00021645
0.000217931
0.000219339
0.000220696
0.000221991
0.000223239
0.000224466
0.00022564
0.000226812
0.000227935
0.000229066
0.000230153
0.000231243
0.000232285
0.00023332
0.000234314
0.000235269
0.000236186
0.000237025
0.000237805
0.000238471
0.00023902
0.000239415
0.000239621
0.000239601
0.000239322
0.000238718
0.000237789
0.00023644
0.00023467
0.000232435
0.000229686
0.000226416
0.000222605
0.000218222
0.000213279
0.000207779
0.000201714
0.00019511
0.000187986
0.000180359
0.000172264
0.000163732
0.000154777
0.000145471
0.000135877
0.000125961
0.000115855
0.000105638
9.53054e-05
8.51084e-05
7.49831e-05
6.51136e-05
5.55922e-05
4.64902e-05
3.79276e-05
2.99882e-05
2.26778e-05
1.62554e-05
1.04402e-05
5.65917e-06
1.70725e-06
-1.41305e-06
-3.40508e-06
-4.76097e-06
-4.91107e-06
-4.53283e-06
-3.16304e-06
-1.43302e-06
9.66858e-07
3.53867e-06
6.58491e-06
9.14332e-06
1.31373e-05
1.58572e-05
1.83667e-05
2.07656e-05
2.30171e-05
2.4757e-05
2.62556e-05
2.69989e-05
2.73956e-05
2.76144e-05
2.7535e-05
2.71684e-05
2.65845e-05
2.58337e-05
2.49508e-05
2.39668e-05
2.29106e-05
2.18064e-05
2.06739e-05
1.95287e-05
1.83831e-05
1.72469e-05
1.61271e-05
1.50283e-05
1.39531e-05
1.29027e-05
1.18775e-05
1.0877e-05
9.8999e-06
8.94481e-06
8.00997e-06
7.09354e-06
6.19367e-06
5.30851e-06
4.4364e-06
3.57571e-06
2.72482e-06
1.87934e-06
1.03697e-06
1.81712e-07
0.000456494
0.000455738
0.000453173
0.000449767
0.000446273
0.000442815
0.000439457
0.000436249
0.000433186
0.00043043
0.000427887
0.000425415
0.000423129
0.000421017
0.000419015
0.000417126
0.000415346
0.000413663
0.000412066
0.000410554
0.000409125
0.000407776
0.000406507
0.000405322
0.000404221
0.000403207
0.000402284
0.000401455
0.000400723
0.000400087
0.000399546
0.000399087
0.000398711
0.000398252
0.000397947
0.000397649
0.000396575
0.000394581
0.000391649
0.000387552
0.000382239
0.000375383
0.000367453
0.000358784
0.00034938
0.000339385
0.000328951
0.000318168
0.000307248
0.000296296
0.000285569
0.000275062
0.000264821
0.000255049
0.000245697
0.000236878
0.000228601
0.000220837
0.000213766
0.000207142
0.000201325
0.000196121
0.0001916
0.000187923
0.000184938
0.000182852
0.000181371
0.00018072
0.000180639
0.000181147
0.000182177
0.000183518
0.000185257
0.000187195
0.000189289
0.000191526
0.000193805
0.000196098
0.000198391
0.000200645
0.000202833
0.000204956
0.000206996
0.000208945
0.000210809
0.000212575
0.000214246
0.000215848
0.000217354
0.000218787
0.000220171
0.000221488
0.000222757
0.000224009
0.000225204
0.000226409
0.000227565
0.000228726
0.000229842
0.000230973
0.000232048
0.000233118
0.000234135
0.000235102
0.000236019
0.000236832
0.000237565
0.000238152
0.00023859
0.000238837
0.000238857
0.000238612
0.000238069
0.000237168
0.000235912
0.000234212
0.000232076
0.000229471
0.000226356
0.000222738
0.000218605
0.000213939
0.000208761
0.00020308
0.0001969
0.00019025
0.000183153
0.000175633
0.000167725
0.000159464
0.000150869
0.000142006
0.000132964
0.000123643
0.000114245
0.000104805
9.53345e-05
8.60177e-05
7.68348e-05
6.79121e-05
5.93277e-05
5.11224e-05
4.33801e-05
3.61564e-05
2.9395e-05
2.33275e-05
1.77529e-05
1.29185e-05
8.73515e-06
5.2108e-06
2.60429e-06
5.61257e-07
-4.13446e-07
-8.41566e-07
-2.97545e-07
6.86884e-07
2.42171e-06
4.4384e-06
7.13089e-06
9.35324e-06
1.32158e-05
1.57794e-05
1.81144e-05
2.03829e-05
2.25414e-05
2.41377e-05
2.54908e-05
2.60796e-05
2.63746e-05
2.65519e-05
2.64541e-05
2.60798e-05
2.55037e-05
2.47775e-05
2.39318e-05
2.29944e-05
2.19918e-05
2.09467e-05
1.98767e-05
1.87955e-05
1.77142e-05
1.66416e-05
1.55843e-05
1.4546e-05
1.35282e-05
1.25318e-05
1.1557e-05
1.06031e-05
9.66894e-06
8.75308e-06
7.85393e-06
6.96966e-06
6.09833e-06
5.23796e-06
4.38669e-06
3.54261e-06
2.70404e-06
1.86618e-06
1.03225e-06
1.58646e-07
0.000453479
0.00045299
0.000451209
0.000448632
0.000445765
0.00044278
0.00043975
0.000436751
0.000433843
0.000431092
0.000428475
0.000425961
0.000423635
0.000421453
0.000419345
0.000417359
0.000415496
0.00041373
0.000412053
0.000410458
0.000408949
0.000407516
0.00040616
0.000404882
0.000403683
0.000402562
0.000401521
0.000400562
0.000399685
0.000398887
0.000398162
0.000397496
0.000396882
0.00039618
0.000395578
0.000394917
0.000393482
0.000391123
0.000387825
0.000383418
0.000377893
0.000371019
0.000363242
0.000354853
0.000345893
0.000336503
0.000326817
0.000316918
0.000307011
0.000297166
0.00028756
0.000278207
0.00026914
0.000260471
0.000252173
0.000244286
0.000236805
0.000229708
0.000223081
0.000216783
0.000211058
0.000205772
0.000200921
0.000196754
0.000193198
0.000190352
0.000188064
0.000186531
0.000185584
0.000185237
0.000185464
0.000186077
0.000187156
0.000188526
0.000190136
0.000191967
0.000193914
0.000195944
0.000198033
0.000200135
0.000202211
0.000204259
0.000206252
0.000208178
0.000210037
0.00021181
0.000213498
0.000215126
0.000216659
0.00021812
0.000219532
0.000220877
0.000222168
0.000223449
0.000224664
0.000225896
0.00022707
0.000228263
0.0002294
0.000230559
0.000231648
0.000232732
0.000233747
0.000234697
0.000235578
0.000236325
0.000236966
0.000237426
0.000237699
0.000237745
0.000237524
0.000237005
0.000236155
0.000234921
0.000233313
0.000231253
0.000228757
0.000225804
0.000222365
0.000218455
0.000214073
0.000209211
0.000203896
0.000198146
0.000191969
0.000185396
0.000178453
0.000171166
0.000163569
0.000155698
0.000147578
0.000139268
0.00013081
0.000122197
0.00011359
0.000104973
9.63809e-05
8.79523e-05
7.9691e-05
7.16771e-05
6.39699e-05
5.65907e-05
4.95882e-05
4.298e-05
3.67362e-05
3.10025e-05
2.5654e-05
2.07763e-05
1.63827e-05
1.25018e-05
9.31675e-06
6.61357e-06
4.81156e-06
3.55622e-06
3.1948e-06
3.33758e-06
4.27932e-06
5.61711e-06
7.8157e-06
9.63633e-06
1.31937e-05
1.55533e-05
1.7675e-05
1.97601e-05
2.17705e-05
2.31864e-05
2.43513e-05
2.47766e-05
2.49656e-05
2.50924e-05
2.49753e-05
2.46013e-05
2.40463e-05
2.33617e-05
2.25733e-05
2.17032e-05
2.07757e-05
1.98118e-05
1.88261e-05
1.78296e-05
1.68321e-05
1.5842e-05
1.48653e-05
1.39047e-05
1.29602e-05
1.20323e-05
1.11213e-05
1.02265e-05
9.34666e-06
8.48062e-06
7.62718e-06
6.78459e-06
5.95089e-06
5.12401e-06
4.30197e-06
3.48271e-06
2.66478e-06
1.84299e-06
1.0264e-06
1.39267e-07
0.000451474
0.000451115
0.000449768
0.000447709
0.000445279
0.000442636
0.000439865
0.000437049
0.000434257
0.000431541
0.000428922
0.000426406
0.000424019
0.000421752
0.000419585
0.00041753
0.000415585
0.000413736
0.000411975
0.000410296
0.000408695
0.000407168
0.000405714
0.000404329
0.000403012
0.000401763
0.000400581
0.000399464
0.000398412
0.000397419
0.000396477
0.000395568
0.000394683
0.00039371
0.000392781
0.000391735
0.000389954
0.000387279
0.00038369
0.000379066
0.000373432
0.000366642
0.000359104
0.000351069
0.000342618
0.000333886
0.000324985
0.000315997
0.00030709
0.000298325
0.000289801
0.000281549
0.000273584
0.000265949
0.000258628
0.000251614
0.000244898
0.000238454
0.000232304
0.000226373
0.00022088
0.00021567
0.000210612
0.000206128
0.000202193
0.000198757
0.000195792
0.000193476
0.000191715
0.000190525
0.000189917
0.000189742
0.000190063
0.000190752
0.000191758
0.000193056
0.000194537
0.000196183
0.000197955
0.000199802
0.000201679
0.000203575
0.000205458
0.000207305
0.000209115
0.000210864
0.000212543
0.000214179
0.000215727
0.000217211
0.000218649
0.000220021
0.000221335
0.000222644
0.000223876
0.000225132
0.000226318
0.000227528
0.000228669
0.000229835
0.000230913
0.000231981
0.000232958
0.000233851
0.00023465
0.000235284
0.000235779
0.000236057
0.000236112
0.000235907
0.000235401
0.00023457
0.000233388
0.000231809
0.000229853
0.000227454
0.000224636
0.000221392
0.000217701
0.000213587
0.000209056
0.000204107
0.000198775
0.000193079
0.000187028
0.000180656
0.000173986
0.000167044
0.000159863
0.000152476
0.000144911
0.000137221
0.000129397
0.000121558
0.000113732
0.00010593
9.81959e-05
9.06222e-05
8.32233e-05
7.60462e-05
6.91308e-05
6.24872e-05
5.61346e-05
5.00723e-05
4.42695e-05
3.8843e-05
3.37198e-05
2.88118e-05
2.42453e-05
2.00764e-05
1.63771e-05
1.30774e-05
1.05106e-05
8.47239e-06
7.18832e-06
6.44603e-06
6.5164e-06
7.08313e-06
8.6465e-06
9.98907e-06
1.3047e-05
1.51302e-05
1.69896e-05
1.88301e-05
2.06236e-05
2.18226e-05
2.27633e-05
2.30321e-05
2.31234e-05
2.31962e-05
2.30641e-05
2.27054e-05
2.21914e-05
2.15714e-05
2.08647e-05
2.00867e-05
1.92591e-05
1.84013e-05
1.75236e-05
1.66339e-05
1.57408e-05
1.48533e-05
1.39771e-05
1.31119e-05
1.22562e-05
1.14108e-05
1.05766e-05
9.75271e-06
8.93781e-06
8.13184e-06
7.33404e-06
6.54255e-06
5.75557e-06
4.97096e-06
4.1867e-06
3.40063e-06
2.61154e-06
1.814e-06
1.02238e-06
1.26725e-07
0.000450225
0.00044993
0.000448816
0.000447059
0.000444903
0.000442483
0.000439888
0.000437199
0.000434489
0.000431811
0.0004292
0.000426674
0.000424249
0.000421931
0.000419714
0.0004176
0.000415584
0.000413661
0.000411822
0.000410061
0.000408368
0.000406745
0.000405186
0.000403686
0.000402241
0.00040085
0.00039951
0.000398218
0.000396969
0.000395759
0.000394577
0.0003934
0.000392219
0.000390953
0.000389681
0.000388243
0.00038613
0.000383185
0.000379371
0.000374611
0.000368952
0.000362326
0.000355089
0.000347466
0.000339568
0.000331523
0.000323423
0.000315344
0.000307409
0.000299669
0.000292177
0.00028495
0.000277994
0.0002713
0.000264865
0.000258648
0.000252638
0.00024681
0.000241144
0.000235645
0.000230378
0.000225318
0.000220275
0.000215591
0.000211389
0.000207542
0.000204091
0.000201169
0.00019871
0.000196759
0.00019537
0.000194417
0.000193949
0.000193899
0.000194219
0.000194893
0.000195791
0.000196935
0.000198269
0.000199742
0.000201308
0.000202954
0.000204637
0.000206326
0.000208015
0.000209678
0.0002113
0.000212904
0.000214436
0.000215919
0.000217363
0.000218749
0.000220074
0.0002214
0.000222641
0.000223907
0.000225092
0.0002263
0.000227423
0.000228568
0.000229602
0.000230614
0.000231511
0.0002323
0.000232967
0.000233436
0.000233733
0.000233783
0.000233576
0.000233086
0.000232271
0.00023112
0.000229609
0.000227711
0.000225448
0.000222771
0.000219711
0.000216268
0.000212431
0.000208226
0.000203666
0.000198757
0.000193535
0.000188016
0.000182213
0.000176153
0.000169858
0.000163353
0.000156667
0.000149827
0.000142862
0.000135811
0.000128699
0.00012159
0.000114515
0.000107493
0.000100563
9.37781e-05
8.71569e-05
8.07252e-05
7.45033e-05
6.84977e-05
6.27043e-05
5.71185e-05
5.17219e-05
4.65438e-05
4.15478e-05
3.66566e-05
3.20239e-05
2.7628e-05
2.34764e-05
1.96509e-05
1.64323e-05
1.36959e-05
1.15136e-05
9.88343e-06
9.05172e-06
8.78983e-06
9.60103e-06
1.03739e-05
1.27616e-05
1.44778e-05
1.60141e-05
1.75441e-05
1.90466e-05
1.99979e-05
2.06945e-05
2.08292e-05
2.0842e-05
2.08632e-05
2.07266e-05
2.04076e-05
1.99646e-05
1.94389e-05
1.88403e-05
1.81785e-05
1.74776e-05
1.67525e-05
1.60046e-05
1.52396e-05
1.44664e-05
1.36997e-05
1.29457e-05
1.21944e-05
1.14414e-05
1.06909e-05
9.94546e-06
9.20149e-06
8.45912e-06
7.72123e-06
6.98731e-06
6.25552e-06
5.52323e-06
4.78856e-06
4.04964e-06
3.30402e-06
2.55066e-06
1.78409e-06
1.02263e-06
1.25059e-07
0.000449603
0.000449335
0.000448326
0.000446711
0.000444688
0.00044238
0.000439872
0.000437248
0.000434579
0.00043192
0.000429311
0.000426773
0.000424323
0.000421969
0.000419712
0.000417549
0.000415478
0.000413492
0.000411584
0.000409747
0.000407972
0.000406256
0.000404592
0.000402975
0.0004014
0.000399862
0.000398356
0.000396878
0.00039542
0.000393985
0.000392555
0.000391092
0.000389597
0.000388024
0.000386401
0.000384573
0.000382147
0.000378966
0.000374982
0.000370149
0.00036453
0.000358123
0.000351231
0.000344059
0.000336745
0.000329402
0.000322101
0.000314911
0.000307908
0.000301131
0.000294599
0.000288309
0.000282257
0.000276406
0.000270756
0.000265249
0.000259871
0.000254605
0.000249398
0.000244306
0.000239266
0.000234378
0.000229522
0.000224865
0.000220485
0.000216323
0.000212547
0.000209201
0.000206182
0.000203594
0.00020154
0.000199878
0.000198651
0.000197861
0.000197472
0.00019744
0.000197716
0.000198275
0.00019907
0.000200055
0.000201185
0.000202471
0.000203853
0.000205282
0.000206752
0.00020824
0.000209727
0.000211228
0.000212687
0.00021412
0.000215527
0.00021689
0.000218195
0.000219507
0.000220732
0.000221981
0.00022314
0.000224315
0.000225391
0.000226475
0.000227429
0.00022834
0.000229112
0.000229751
0.000230238
0.000230502
0.000230564
0.000230357
0.000229872
0.000229091
0.000227979
0.000226535
0.000224744
0.000222592
0.000220104
0.000217251
0.000214064
0.000210549
0.000206697
0.00020253
0.000198069
0.000193332
0.000188345
0.000183119
0.000177666
0.000172009
0.000166167
0.000160162
0.000154017
0.000147757
0.000141409
0.000135005
0.000128578
0.000122165
0.000115795
0.000109492
0.000103286
9.72036e-05
9.12625e-05
8.54765e-05
7.98471e-05
7.4383e-05
6.90598e-05
6.38759e-05
5.8807e-05
5.38401e-05
4.89703e-05
4.41403e-05
3.94306e-05
3.48703e-05
3.04135e-05
2.61401e-05
2.23164e-05
1.89221e-05
1.59286e-05
1.3473e-05
1.17608e-05
1.06394e-05
1.06127e-05
1.07449e-05
1.23103e-05
1.35612e-05
1.47132e-05
1.58729e-05
1.70185e-05
1.77064e-05
1.81657e-05
1.8205e-05
1.81697e-05
1.81524e-05
1.80228e-05
1.77594e-05
1.74215e-05
1.7038e-05
1.65795e-05
1.60523e-05
1.55097e-05
1.49533e-05
1.43568e-05
1.37267e-05
1.30706e-05
1.24232e-05
1.18053e-05
1.1184e-05
1.05451e-05
9.90132e-06
9.25794e-06
8.60332e-06
7.93829e-06
7.27287e-06
6.60822e-06
5.94196e-06
5.27024e-06
4.59119e-06
3.90305e-06
3.20287e-06
2.48973e-06
1.75816e-06
1.02607e-06
1.36853e-07
0.000449551
0.000449284
0.000448282
0.000446675
0.000444658
0.000442354
0.000439848
0.000437223
0.000434549
0.000431883
0.000429261
0.000426707
0.000424237
0.000421858
0.000419571
0.000417373
0.000415259
0.000413224
0.00041126
0.000409357
0.000407508
0.000405707
0.000403945
0.000402216
0.000400514
0.000398831
0.000397161
0.000395495
0.000393819
0.00039216
0.000390493
0.00038874
0.00038692
0.000385031
0.000383056
0.000380849
0.000378122
0.000374731
0.000370614
0.000365754
0.00036022
0.000354068
0.000347546
0.000340851
0.000334139
0.000327502
0.000320986
0.000314655
0.000308532
0.00030265
0.000296993
0.000291543
0.00028629
0.000281177
0.000276208
0.000271319
0.000266494
0.000261727
0.00025694
0.000252228
0.000247464
0.000242788
0.000238112
0.000233514
0.000229096
0.000224859
0.000220892
0.000217197
0.000213721
0.000210659
0.000208088
0.000205826
0.000203913
0.000202436
0.000201382
0.000200644
0.000200256
0.000200154
0.000200341
0.000200801
0.000201381
0.000202194
0.000203178
0.00020425
0.000205392
0.000206596
0.000207842
0.000209143
0.000210447
0.000211756
0.000213055
0.00021433
0.000215558
0.000216799
0.000217962
0.000219143
0.000220235
0.00022133
0.000222319
0.000223295
0.000224128
0.000224895
0.000225501
0.000225953
0.000226225
0.000226262
0.000226076
0.000225619
0.000224881
0.000223852
0.000222497
0.00022083
0.000218844
0.000216541
0.000213941
0.000211037
0.000207856
0.000204414
0.000200699
0.000196705
0.000192472
0.00018803
0.000183388
0.000178549
0.000173522
0.000168328
0.000162984
0.000157508
0.000151919
0.000146241
0.000140498
0.000134716
0.000128922
0.000123153
0.000117421
0.000111758
0.000106183
0.000100708
9.53458e-05
9.01057e-05
8.49711e-05
7.99574e-05
7.50212e-05
7.0169e-05
6.53653e-05
6.05857e-05
5.58375e-05
5.10617e-05
4.62884e-05
4.15768e-05
3.68971e-05
3.23642e-05
2.80415e-05
2.40096e-05
2.02595e-05
1.70577e-05
1.45028e-05
1.25062e-05
1.15391e-05
1.11206e-05
1.17164e-05
1.23754e-05
1.30772e-05
1.38245e-05
1.45652e-05
1.49802e-05
1.52319e-05
1.52394e-05
1.52165e-05
1.52176e-05
1.51161e-05
1.48682e-05
1.46251e-05
1.44464e-05
1.41759e-05
1.37965e-05
1.34227e-05
1.30431e-05
1.26136e-05
1.21467e-05
1.16612e-05
1.11719e-05
1.06876e-05
1.01846e-05
9.6471e-06
9.09388e-06
8.53829e-06
7.97439e-06
7.39835e-06
6.81158e-06
6.21853e-06
5.62114e-06
5.01343e-06
4.39428e-06
3.76071e-06
3.10817e-06
2.43725e-06
1.74283e-06
1.028e-06
1.54116e-07
0.00045007
0.000449781
0.000448688
0.000446956
0.00044482
0.000442412
0.00043982
0.000437126
0.000434402
0.000431698
0.00042905
0.000426478
0.00042399
0.000421596
0.000419292
0.000417071
0.000414929
0.00041286
0.000410853
0.000408899
0.000406987
0.000405112
0.000403263
0.000401432
0.000399612
0.000397794
0.000395969
0.000394128
0.000392263
0.000390367
0.00038842
0.000386393
0.000384284
0.000382084
0.000379754
0.000377177
0.00037416
0.000370569
0.000366341
0.000361481
0.000356059
0.000350179
0.000344042
0.00033784
0.000331738
0.000325802
0.00032005
0.000314535
0.000309233
0.000304167
0.000299293
0.000294581
0.000290018
0.000285537
0.000281146
0.000276782
0.000272428
0.000268092
0.000263679
0.000259312
0.000254827
0.000250383
0.000245901
0.000241438
0.000237071
0.000232804
0.0002287
0.000224782
0.000221095
0.000217726
0.000214679
0.000211916
0.000209405
0.000207352
0.000205725
0.000204363
0.00020329
0.000202505
0.000202075
0.000201946
0.000201977
0.000202222
0.00020268
0.000203306
0.000204031
0.000204848
0.000205735
0.000206719
0.000207769
0.000208866
0.000209967
0.000211064
0.000212133
0.000213219
0.00021425
0.000215295
0.000216261
0.000217216
0.000218068
0.000218885
0.000219558
0.000220142
0.000220555
0.000220802
0.00022085
0.000220658
0.000220236
0.000219559
0.000218626
0.000217437
0.000215958
0.000214196
0.000212152
0.000209852
0.000207314
0.000204529
0.000201494
0.000198227
0.000194748
0.000191039
0.000187135
0.000183078
0.000178847
0.000174445
0.000169882
0.000165176
0.00016034
0.00015539
0.000150343
0.000145219
0.00014004
0.00013483
0.000129605
0.000124408
0.000119235
0.000114125
0.000109085
0.000104121
9.92392e-05
9.44504e-05
8.97199e-05
8.50743e-05
8.04513e-05
7.58706e-05
7.12827e-05
6.6667e-05
6.20277e-05
5.73101e-05
5.252e-05
4.77337e-05
4.28703e-05
3.80859e-05
3.33102e-05
2.87836e-05
2.44668e-05
2.05761e-05
1.71267e-05
1.42612e-05
1.23235e-05
1.13057e-05
1.09391e-05
1.0926e-05
1.11347e-05
1.14706e-05
1.17855e-05
1.18839e-05
1.19375e-05
1.19918e-05
1.20186e-05
1.20303e-05
1.20348e-05
1.19802e-05
1.19205e-05
1.18758e-05
1.17334e-05
1.15219e-05
1.13631e-05
1.11859e-05
1.09261e-05
1.06194e-05
1.02922e-05
9.94712e-06
9.58293e-06
9.19227e-06
8.77102e-06
8.32727e-06
7.86757e-06
7.3907e-06
6.89568e-06
6.38434e-06
5.85967e-06
5.32271e-06
4.77017e-06
4.20948e-06
3.63167e-06
3.02649e-06
2.39935e-06
1.74908e-06
1.08983e-06
2.2313e-07
0.000451216
0.000450871
0.000449566
0.000447555
0.000445159
0.000442535
0.000439766
0.000436938
0.00043412
0.000431356
0.000428674
0.000426081
0.00042358
0.000421188
0.000418886
0.000416651
0.000414496
0.000412412
0.00041038
0.000408389
0.00040643
0.000404494
0.000402572
0.000400653
0.000398729
0.000396789
0.000394823
0.00039282
0.000390768
0.000388655
0.000386464
0.000384179
0.000381783
0.000379273
0.000376594
0.000373659
0.000370353
0.000366558
0.000362223
0.000357373
0.000352071
0.000346459
0.00034071
0.000335024