/*--------------------------------*- C++ -*----------------------------------*\
| =========                 |                                                 |
| \\      /  F ield         | OpenFOAM: The Open Source CFD Toolbox           |
|  \\    /   O peration     | Version:  2506                                  |
|   \\  /    A nd           | Website:  www.openfoam.com                      |
|    \\/     M anipulation  |                                                 |
\*---------------------------------------------------------------------------*/
FoamFile
{
    version     2.0;
    format      ascii;
    arch        "LSB;label=32;scalar=64";
    class       volScalarField;
    location    "5";
    object      s;
}
// * * * * * * * * * * * * * * * * * * * * * * * * * * * * * * * * * * * * * //

dimensions      [0 0 0 0 0 0 0];

internalField   nonuniform List<scalar> 
4000
(
-4.57856e-24
1.02029e-23
2.99594e-23
-5.23743e-22
3.47898e-21
-1.37694e-20
1.85695e-20
1.52046e-19
-1.10441e-18
2.5861e-18
5.62864e-18
-5.14023e-17
7.57826e-17
3.39295e-16
-1.09949e-15
-1.09141e-15
2.81028e-14
6.04616e-13
1.01311e-11
1.6569e-10
2.33586e-09
3.23237e-08
3.91571e-07
3.7717e-06
3.02236e-05
0.000210894
0.00131822
0.00749886
0.0325534
0.0833121
0.136001
0.149108
0.148492
0.139039
0.0994714
0.0345285
0.00608127
0.00650292
0.00773477
0.00920823
0.0107695
0.0121153
0.0130094
0.0135323
0.0142088
0.0147945
0.0152387
0.0156722
0.0161017
0.0165715
0.0171413
0.0177777
0.0186041
0.0195635
0.0207166
0.0220591
0.0236334
0.0255334
0.027786
0.0305606
0.0339213
0.0379628
0.0424885
0.046905
0.0506335
0.0533296
0.0549181
0.0554865
0.0550141
0.0516219
0.0365523
0.0159579
0.00512655
0.0032099
0.0019183
0.00102858
0.00052698
0.000268359
0.000134982
6.22344e-05
2.48958e-05
1.03856e-05
5.00758e-06
2.46082e-06
1.19635e-06
5.51684e-07
2.42079e-07
1.02873e-07
4.27583e-08
1.72416e-08
6.67629e-09
2.48367e-09
8.72534e-10
2.74953e-10
5.34324e-11
-5.85166e-11
-2.0627e-10
-5.14277e-10
-1.08084e-09
-1.94795e-09
-2.60483e-09
-4.5281e-09
-1.67568e-08
-4.7755e-08
-9.6383e-08
-1.70976e-07
-2.79467e-07
-4.1692e-07
-5.70434e-07
-7.1771e-07
-7.55253e-07
-4.81114e-07
2.98887e-07
1.67506e-06
3.7714e-06
6.4867e-06
8.98358e-05
0.000305122
0.000635248
0.00107131
0.00159973
0.0021533
0.00269394
0.00322399
0.00370414
0.00413146
0.00450233
0.00480444
0.00505425
0.00528093
0.00541522
0.00552236
0.00566206
0.00571663
0.00577852
0.00593622
0.00591505
0.00601771
0.00600716
0.00596707
0.00582341
0.00552111
0.00498919
0.00441578
0.00387151
0.00334738
0.00283098
0.002329
0.00184953
0.0014044
0.0010111
0.000682045
0.000428464
0.000249841
0.000135793
6.93443e-05
3.36414e-05
1.57349e-05
7.06988e-06
2.90821e-06
9.73423e-07
-1.37424e-07
-1.11494e-06
-2.12724e-06
-3.33363e-06
-4.43659e-06
-5.40595e-06
-5.20005e-06
-4.36247e-06
-3.26347e-06
-2.07299e-06
-8.52482e-07
3.81605e-07
1.62702e-06
3.02368e-06
5.52471e-06
1.01215e-05
1.68185e-05
2.45287e-05
3.15852e-05
3.63192e-05
3.68417e-05
3.1513e-05
2.33858e-05
1.58653e-05
1.08065e-05
8.35952e-06
7.23359e-06
6.35832e-06
5.54978e-06
4.78754e-06
4.07302e-06
3.41143e-06
2.8096e-06
2.274e-06
1.80881e-06
1.41456e-06
1.08773e-06
8.2116e-07
6.03367e-07
-8.22116e-25
-4.3084e-24
3.69479e-23
-1.63428e-22
4.48697e-22
-3.43133e-22
-3.59886e-21
1.97454e-20
-4.24029e-20
-3.77872e-20
5.17786e-19
-1.33486e-18
9.56403e-19
-3.12207e-18
4.45328e-17
-1.69233e-16
2.24016e-16
8.84988e-15
1.47047e-13
2.51984e-12
3.60105e-11
5.20393e-10
6.89674e-09
7.29235e-08
6.38974e-07
4.88384e-06
3.36128e-05
0.000199938
0.000882744
0.00267952
0.00633754
0.0113706
0.0174704
0.0257416
0.0316429
0.0324215
0.0313792
0.0289615
0.0258252
0.0225004
0.018875
0.0157022
0.0131007
0.0111971
0.00999163
0.00894549
0.00806258
0.00738171
0.00683079
0.0063921
0.00606383
0.00579385
0.00562976
0.00550479
0.00551548
0.00564986
0.00593923
0.00649004
0.00716317
0.00826709
0.00962242
0.0113925
0.0136608
0.0163208
0.0195458
0.0229382
0.0266363
0.0302373
0.0337248
0.0369212
0.0381327
0.03749
0.0360839
0.0353366
0.035132
0.0352472
0.0353019
0.0346994
0.0326249
0.0265209
0.0141388
0.00441838
0.00192994
0.0011193
0.000622228
0.000314191
0.000144232
6.24069e-05
2.65418e-05
1.11393e-05
4.59359e-06
1.89134e-06
7.6468e-07
3.0418e-07
1.18393e-07
4.33142e-08
1.09774e-08
-8.41662e-09
-3.58653e-08
-8.59634e-08
-1.56391e-07
-2.40157e-07
-3.74351e-07
-6.02433e-07
-9.08721e-07
-1.27686e-06
-1.43315e-06
-1.04689e-06
2.44123e-07
2.68633e-06
0.000387462
0.00128917
0.00278097
0.00481858
0.00736671
0.0101412
0.0131141
0.0163184
0.0196576
0.0229823
0.0261649
0.0289439
0.0313306
0.0334113
0.0352236
0.0368005
0.0381681
0.0393407
0.040345
0.0412334
0.0419773
0.0426135
0.0432058
0.0436933
0.044109
0.0445286
0.0448313
0.0451383
0.0453816
0.0455884
0.0457502
0.0458488
0.0458428
0.045728
0.0451382
0.044387
0.0428888
0.0409494
0.0385317
0.0355502
0.0323341
0.0285242
0.0245808
0.020219
0.0157975
0.0111291
0.00715798
0.00450549
0.00281844
0.00169794
0.00111495
0.000712761
0.000420702
0.000235682
0.000139816
0.000412095
0.00158519
0.00333124
0.00512736
0.00676691
0.00813145
0.00916886
0.00987845
0.0102982
0.0104925
0.0105406
0.0105251
0.010523
0.0105986
0.0107981
0.0111369
0.0115641
0.0119407
0.0121238
0.0120147
0.0115678
0.010784
0.00976338
0.00869532
0.00769531
0.00680811
0.00601539
0.00528851
0.00460725
0.00396387
0.00336052
0.0028045
0.00230351
0.00186177
0.00145759
6.33398e-25
-2.96014e-24
4.47469e-24
1.42046e-23
-1.09847e-22
2.84756e-22
1.55786e-22
-3.69957e-21
1.08536e-20
3.6526e-21
-1.10265e-19
2.02221e-19
7.22052e-19
-3.87783e-18
4.19074e-18
6.82225e-18
4.40328e-18
8.36448e-18
6.42193e-17
8.0738e-16
1.11124e-14
1.61563e-13
1.99434e-12
2.01285e-11
1.75438e-10
1.36737e-09
9.04143e-09
4.4013e-08
1.55575e-07
4.22721e-07
9.01403e-07
1.98243e-06
3.89056e-06
1.10555e-05
0.000668448
0.00150833
0.00173766
0.00182073
0.00177562
0.00161114
0.0013352
0.00107804
0.000885649
0.000741983
0.000637183
0.000558713
0.00049711
0.00045269
0.000417516
0.000391266
0.000373549
0.000361264
0.00035811
0.000360176
0.000371233
0.000387974
0.000412647
0.000448563
0.000494004
0.00056492
0.000672303
0.000849602
0.00114055
0.00158536
0.00230348
0.00330108
0.00473852
0.00657273
0.0089252
0.0116934
0.0151652
0.0186162
0.0216999
0.0244246
0.0268912
0.0292216
0.0317288
0.0338647
0.0353825
0.0377234
0.0389397
0.0377884
0.0359641
0.0333242
0.0283324
0.0191913
0.00874044
0.00341739
0.00191401
0.00119534
0.000726148
0.000415419
0.000222427
0.000113297
5.64769e-05
2.81398e-05
1.39475e-05
6.89427e-06
3.33057e-06
1.44249e-06
3.82712e-07
-3.39935e-08
4.31145e-07
2.48534e-06
7.93184e-06
6.00605e-05
0.00088201
0.00260658
0.00544053
0.00918716
0.0139259
0.0190351
0.0248092
0.0308569
0.0363154
0.0408679
0.0446771
0.047886
0.0503829
0.052065
0.0530461
0.0536333
0.0541936
0.0547339
0.0552519
0.0555875
0.0557675
0.0558274
0.055806
0.0557132
0.0555774
0.0554014
0.0551761
0.0549592
0.0547221
0.0544504
0.0542488
0.0540298
0.0538884
0.0538229
0.0538732
0.0540906
0.054518
0.0551243
0.0557465
0.0563781
0.0569814
0.057458
0.057717
0.0576698
0.0573075
0.0564098
0.0550671
0.0530593
0.0505592
0.0470433
0.0420546
0.0351867
0.0279792
0.0205394
0.0159249
0.0125164
0.0103138
0.0101438
0.0122499
0.0160968
0.0221176
0.0285062
0.0340411
0.038378
0.0417074
0.0442198
0.0460674
0.0473626
0.0481769
0.0485534
0.0485233
0.0481173
0.0473765
0.046365
0.0451799
0.043954
0.0428549
0.0420755
0.0418122
0.0422368
0.0434892
0.0456872
0.0488214
0.0520596
0.0543486
0.0557873
0.0565913
0.0567824
0.056237
0.0548136
0.052742
0.0502826
0.0480572
0.0446148
1.2661e-25
3.24486e-25
-4.10881e-24
1.53392e-23
-2.53082e-23
-3.59722e-23
3.34768e-22
-7.99713e-22
-8.64918e-23
6.08251e-21
-1.63026e-20
8.1436e-21
3.16908e-20
8.98232e-20
-8.21004e-19
1.52204e-18
1.29456e-19
3.98098e-19
-1.01732e-17
-8.67173e-17
-1.24195e-15
-1.64382e-14
-1.7301e-13
-1.55319e-12
-1.2544e-11
-8.93157e-11
-7.10758e-10
-2.1728e-09
-5.38831e-10
1.98567e-08
4.68477e-08
1.33481e-07
2.83248e-07
5.88634e-07
1.99291e-07
2.44349e-07
3.61651e-07
4.22802e-07
4.34113e-07
4.0391e-07
3.40671e-07
2.81345e-07
2.38454e-07
2.08895e-07
1.90799e-07
1.80329e-07
1.74651e-07
1.74718e-07
1.7742e-07
1.83479e-07
1.93604e-07
2.07058e-07
2.27685e-07
2.54591e-07
2.94187e-07
3.42975e-07
4.01521e-07
4.70623e-07
5.54817e-07
7.36882e-07
1.04137e-06
1.55923e-06
2.34858e-06
3.47089e-06
5.10474e-06
7.42959e-06
1.08743e-05
1.56488e-05
8.35216e-05
0.000387339
0.00105476
0.00217116
0.00371329
0.00567497
0.0081105
0.0108143
0.0139062
0.0173931
0.020808
0.0246287
0.0284907
0.0325565
0.0358673
0.0379458
0.0409515
0.042135
0.0407276
0.0382645
0.035467
0.031674
0.0259301
0.0184724
0.01015
0.00504727
0.0031546
0.00228102
0.00195961
0.00204753
0.00199005
0.00186858
0.00166002
0.00175315
0.00251917
0.0042918
0.00736983
0.0116095
0.0171803
0.0241238
0.0315208
0.0382127
0.0440433
0.048587
0.0522886
0.054512
0.0553843
0.0560488
0.0565642
0.0564315
0.0557942
0.0547111
0.0532808
0.0516424
0.0499327
0.0480294
0.0460171
0.0438286
0.0416728
0.039633
0.0377167
0.0358666
0.0341388
0.0325259
0.0309682
0.0295659
0.028271
0.0270144
0.0259617
0.024974
0.024152
0.0234927
0.0230253
0.0228157
0.0229222
0.023364
0.0245249
0.0261617
0.0287002
0.0317911
0.0353708
0.0392949
0.0431498
0.0468828
0.0501464
0.0520388
0.0527654
0.0532879
0.0541356
0.0535945
0.0519476
0.0488557
0.0467826
0.0454229
0.0448408
0.0450901
0.0467727
0.0496616
0.0532067
0.0560552
0.0578361
0.0588829
0.0597878
0.0605652
0.061228
0.0617883
0.0622086
0.0625094
0.0627149
0.0628422
0.0629032
0.06291
0.0628664
0.0627682
0.0626153
0.0624175
0.062197
0.0619883
0.0618373
0.0617836
0.0618401
0.0620046
0.0624308
0.0636899
0.0658974
0.069034
0.0729697
0.0772066
0.0796411
0.0805628
0.0809755
0.081006
-6.06938e-26
3.66404e-25
-1.01397e-24
6.03264e-25
5.33806e-24
-1.98044e-23
1.70766e-23
7.82563e-23
-2.61815e-22
1.46196e-22
3.39515e-22
3.2874e-21
-2.27993e-20
5.24962e-20
-1.97912e-20
-1.22486e-19
2.37906e-19
-9.71369e-19
3.51742e-18
-7.27377e-18
6.99271e-17
1.13611e-16
6.27963e-16
7.29957e-15
1.04034e-13
-7.87286e-14
-5.20369e-12
1.12398e-11
2.1943e-10
2.2704e-09
7.34351e-09
1.15141e-08
2.00763e-08
6.07922e-09
2.07273e-08
1.81948e-08
1.15023e-08
-4.10214e-09
-2.85256e-08
-4.93032e-08
-5.91137e-08
-6.19518e-08
-6.16746e-08
-5.97604e-08
-5.6897e-08
-5.33782e-08
-4.94405e-08
-4.55323e-08
-4.16972e-08
-3.81718e-08
-3.51061e-08
-3.25079e-08
-3.05423e-08
-2.91222e-08
-2.84377e-08
-2.78552e-08
-2.59114e-08
-2.07415e-08
-1.18932e-08
6.5559e-09
2.83591e-08
5.04306e-08
6.97091e-08
8.54007e-08
1.0315e-07
1.29051e-07
1.79082e-07
2.64501e-07
3.63306e-07
4.33483e-07
4.67275e-07
4.6747e-07
4.11843e-07
8.4031e-07
0.000189288
0.000644732
0.00142023
0.00260296
0.00422356
0.00637614
0.00912003
0.0125985
0.0167988
0.0210197
0.0256974
0.0302297
0.0347744
0.0383536
0.0407389
0.0426309
0.044933
0.0456711
0.0450537
0.0440549
0.0428982
0.0416155
0.0395633
0.0366442
0.0333278
0.0306352
0.0285797
0.0279225
0.0291794
0.0324456
0.0373465
0.0427902
0.0479979
0.0527445
0.0555007
0.0570838
0.0582431
0.0582878
0.0574686
0.0557908
0.0532985
0.0504065
0.046954
0.0428147
0.0385824
0.0345089
0.030614
0.0269699
0.0236548
0.0206938
0.018101
0.0158525
0.0139111
0.0122418
0.0107974
0.00954125
0.00850156
0.00763501
0.00688805
0.00626704
0.00573219
0.00525811
0.00487328
0.00453465
0.0042608
0.00404458
0.00388759
0.00380136
0.00379358
0.00386723
0.00414469
0.00461486
0.00552018
0.00689438
0.00890533
0.0118641
0.0156383
0.0203063
0.0257487
0.0319824
0.0378016
0.0428253
0.0471833
0.0505644
0.0522418
0.0530468
0.0536896
0.05449
0.0556696
0.0571491
0.058561
0.059527
0.0599663
0.0594633
0.0586334
0.0576292
0.0565184
0.0553005
0.0540633
0.0528758
0.0517923
0.050876
0.0501405
0.0495878
0.0492133
0.049011
0.0489771
0.0491126
0.0494243
0.0499287
0.0506564
0.0516535
0.0529039
0.0543131
0.0558359
0.0574191
0.0589722
0.0604143
0.0617802
0.0631486
0.0646445
0.0665962
0.0694105
0.0727978
0.0758483
0.0783069
-1.09145e-26
9.69963e-27
1.34132e-25
-6.53137e-25
1.03565e-24
1.65521e-24
-1.12234e-23
1.47701e-23
3.64399e-23
-1.62155e-22
1.27216e-22
4.43535e-22
-2.46266e-22
-6.38721e-21
2.40222e-20
-3.92805e-20
3.28642e-20
7.96093e-20
-1.58877e-18
9.37329e-18
-5.11456e-17
2.05323e-16
-9.94952e-16
3.95582e-15
-9.66943e-15
3.01957e-13
8.6401e-13
-1.52406e-12
5.13726e-11
1.2802e-10
2.92518e-10
4.95025e-10
8.96672e-10
8.85662e-10
2.90443e-09
3.38228e-09
2.61315e-09
6.15058e-10
-2.22875e-09
-3.32504e-09
-3.26845e-09
-2.79578e-09
-2.25835e-09
-1.78002e-09
-1.39845e-09
-1.10094e-09
-8.70042e-10
-6.97683e-10
-5.65163e-10
-4.65581e-10
-3.91989e-10
-3.37397e-10
-3.00552e-10
-2.76204e-10
-2.64073e-10
-4.69073e-10
-1.12662e-09
-2.11494e-09
-3.05487e-09
-3.49037e-09
-2.48702e-09
2.15875e-10
3.27813e-09
6.69977e-09
1.16611e-08
1.90158e-08
3.03804e-08
4.54112e-08
6.85658e-08
8.87663e-08
8.02487e-08
3.88413e-08
3.74001e-08
1.08325e-07
1.55515e-07
2.85472e-07
4.18814e-07
5.44842e-07
5.56011e-07
4.6504e-05
0.000326663
0.000929156
0.00197729
0.00353065
0.00565122
0.00837792
0.0119949
0.0162649
0.0206288
0.0248653
0.0291055
0.0329027
0.0369668
0.0411736
0.0438416
0.0460421
0.047747
0.0489057
0.0506093
0.052815
0.0547569
0.0560259
0.0568386
0.0574926
0.0580051
0.0579469
0.0573427
0.0561299
0.0542357
0.0516731
0.0483723
0.0441202
0.0393706
0.0345032
0.0295042
0.0247028
0.0203194
0.0164829
0.0132526
0.0105909
0.00840223
0.00669581
0.00541461
0.00444261
0.00369385
0.00310576
0.00263679
0.0022586
0.00194947
0.00169315
0.00148128
0.00130363
0.0011507
0.00102348
0.000914524
0.000820038
0.000743009
0.000676731
0.000623102
0.000580721
0.000549098
0.000529661
0.000522641
0.000530258
0.000550295
0.000581337
0.000631735
0.000703439
0.00078772
0.00106451
0.00174795
0.00312132
0.00532045
0.00883075
0.0136761
0.0195435
0.0258107
0.0326515
0.038881
0.0439935
0.0471339
0.0492257
0.0505149
0.0510326
0.0505194
0.0489575
0.0459931
0.0423986
0.0388482
0.0355709
0.0326548
0.0301234
0.0279647
0.0261447
0.0246099
0.023331
0.0222812
0.021433
0.0207602
0.0202402
0.0198546
0.0195892
0.0194339
0.0193824
0.0194339
0.0195938
0.0198757
0.0203022
0.0209062
0.0217324
0.0228313
0.0242859
0.0261667
0.0285161
0.0313509
0.0346818
0.0384655
0.0428089
0.0467385
0.053957
1.85713e-27
-1.26315e-26
3.64166e-26
-1.43705e-26
-2.42245e-25
7.73948e-25
-3.8848e-25
-3.68881e-24
1.13157e-23
-1.75685e-23
4.66599e-23
-2.4768e-22
9.03929e-22
-2.1013e-21
3.48649e-21
-4.90307e-21
1.20924e-22
7.27904e-20
-5.16315e-19
2.90257e-18
-1.39067e-17
6.90061e-17
-2.22946e-16
1.09433e-15
4.4407e-16
2.19275e-14
1.60604e-13
6.96427e-13
3.91724e-12
7.00521e-12
1.51129e-11
2.78766e-11
5.36277e-11
6.62139e-11
1.88814e-10
2.23984e-10
1.72494e-10
3.47635e-11
-1.85802e-10
-2.64231e-10
-2.50976e-10
-2.0597e-10
-1.57166e-10
-1.15347e-10
-8.322e-11
-5.93455e-11
-4.1848e-11
-2.93926e-11
-2.04e-11
-1.40019e-11
-9.47357e-12
-6.25987e-12
-4.02974e-12
-2.43844e-12
-1.27975e-12
-2.98967e-13
1.58215e-12
1.14276e-11
4.28055e-11
5.04622e-11
-2.05699e-10
-3.87337e-10
-3.57431e-10
5.81095e-11
6.72977e-10
1.56656e-09
2.94876e-09
4.73332e-09
6.68396e-09
1.18643e-08
1.8832e-08
2.14293e-08
2.06539e-08
2.63666e-08
1.48443e-08
7.88491e-09
6.31164e-09
-6.727e-09
7.34004e-08
1.32141e-07
3.59022e-07
5.61942e-07
7.03265e-07
6.2115e-07
1.57525e-06
0.000123105
0.000536433
0.00131788
0.00249564
0.00405619
0.00594498
0.00805298
0.0105866
0.0134556
0.0163508
0.0189832
0.0215907
0.024174
0.0268133
0.0290228
0.0307504
0.0317522
0.0321438
0.0320383
0.0314077
0.0303712
0.0288001
0.0267522
0.0242591
0.021423
0.0183938
0.0153457
0.0124281
0.00979862
0.0074986
0.00570515
0.00436028
0.00335766
0.00261033
0.00204696
0.00161784
0.00128897
0.0010342
0.000835185
0.000679554
0.000557108
0.000460177
0.000382974
0.000320873
0.000270407
0.000229503
0.000195989
0.000167875
0.000144986
0.000125837
0.000109739
9.67998e-05
8.59996e-05
7.73919e-05
7.06979e-05
6.57133e-05
6.25542e-05
6.11394e-05
6.17249e-05
6.40015e-05
6.77014e-05
7.37676e-05
8.2329e-05
9.42505e-05
0.000111182
0.00013406
0.000166324
0.0002016
0.00038076
0.00123127
0.00310541
0.00613604
0.0108523
0.0163976
0.0225273
0.0267853
0.0295817
0.0309691
0.0310649
0.0295958
0.0269093
0.0230425
0.0191259
0.0157945
0.0131146
0.0110059
0.00936023
0.00807803
0.00707859
0.00630585
0.00571916
0.00527312
0.00493208
0.004671
0.0044725
0.00432423
0.00421724
0.004145
0.0041029
0.0040881
0.00409945
0.00413755
0.00420502
0.00430698
0.00445176
0.00465081
0.00492274
0.00529438
0.00579788
0.00646829
0.00734856
0.00845126
0.009944
0.0112907
0.0150968
2.12343e-28
-6.81551e-29
-3.70605e-27
1.77815e-26
-2.93933e-26
-2.88662e-26
2.12483e-25
-2.25415e-25
-3.17072e-25
-6.12469e-25
1.04538e-23
-3.47173e-23
5.34396e-23
-2.93231e-23
2.07569e-23
-2.83583e-22
1.54021e-21
-1.01863e-20
6.10211e-20
-2.51978e-19
6.58482e-19
-7.55642e-19
-1.0883e-18
-2.50473e-18
1.68301e-16
2.71436e-16
6.25659e-15
3.03688e-14
1.34953e-13
3.09929e-13
7.55768e-13
1.63061e-12
3.83876e-12
6.46713e-12
1.26439e-11
7.14465e-12
-5.55077e-12
-1.78148e-11
-2.8029e-11
-2.78559e-11
-2.23942e-11
-1.60681e-11
-1.07148e-11
-6.73682e-12
-3.93421e-12
-1.93543e-12
-4.5213e-13
6.4142e-13
1.4078e-12
1.91015e-12
2.22771e-12
2.40904e-12
2.48983e-12
2.48251e-12
2.40298e-12
2.24999e-12
1.82614e-12
1.87302e-12
3.82093e-12
2.02946e-11
4.15612e-11
7.66153e-11
3.89211e-11
2.59853e-11
5.6452e-11
1.94148e-10
4.31174e-10
6.57143e-10
8.29794e-10
1.05851e-09
5.75574e-10
1.16675e-09
1.16133e-09
1.69694e-10
-1.41764e-09
-3.69735e-09
-1.47514e-09
1.53161e-09
2.04934e-08
3.24849e-08
5.6225e-08
8.92986e-08
1.00973e-07
1.71862e-07
3.28985e-07
4.68716e-07
6.84488e-07
7.69974e-07
7.78793e-07
9.4963e-07
2.41441e-06
1.77904e-05
0.000145836
0.000389362
0.000748181
0.00115217
0.00157773
0.00203355
0.00256306
0.00310826
0.00367598
0.00421264
0.00471444
0.00514958
0.00544053
0.00555435
0.00541691
0.00505213
0.00451059
0.00387374
0.00322406
0.00261809
0.00208644
0.00164467
0.00128402
0.000997619
0.000771634
0.000594566
0.000457879
0.000352884
0.00027238
0.000211086
0.000164333
0.000128481
0.000100948
7.9671e-05
6.3142e-05
5.02362e-05
4.00805e-05
3.20309e-05
2.56663e-05
2.05992e-05
1.65044e-05
1.32875e-05
1.07114e-05
8.66478e-06
7.09508e-06
5.86454e-06
4.94154e-06
4.27457e-06
3.81985e-06
3.57346e-06
3.51195e-06
3.65171e-06
3.96246e-06
4.41252e-06
5.08717e-06
6.01144e-06
7.28752e-06
9.10262e-06
1.15879e-05
1.52412e-05
2.02993e-05
2.73565e-05
3.63901e-05
4.72687e-05
5.36154e-05
0.000690948
0.00211231
0.00460994
0.0068159
0.0085224
0.00930164
0.00917393
0.00808874
0.00647702
0.0047128
0.00337144
0.00249025
0.0019134
0.00152383
0.00125215
0.00105782
0.0009161
0.000811258
0.000732948
0.000674235
0.000630289
0.000597693
0.000574007
0.000557487
0.000546873
0.000541245
0.000539953
0.000542597
0.000548993
0.000559178
0.00057344
0.000592396
0.000617078
0.000649237
0.000690754
0.000744595
0.00081561
0.00091035
0.00103762
0.0012066
0.00143912
0.00170289
0.00227919
-1.86828e-29
1.59085e-28
-4.3804e-28
-4.4967e-29
3.59755e-27
-7.30336e-27
-1.22433e-26
8.92152e-26
-2.05815e-25
4.4652e-25
-1.84217e-24
7.96547e-24
-2.5766e-23
6.56387e-23
-1.41514e-22
2.17689e-22
2.6598e-22
-4.7269e-21
2.86377e-20
-1.32937e-19
5.49282e-19
-1.99444e-18
6.62908e-18
-1.53569e-17
2.59602e-17
-3.51022e-18
1.82527e-16
4.15567e-16
5.21739e-15
1.65007e-14
4.53023e-14
1.11502e-13
3.33072e-13
7.98265e-13
1.13364e-12
-1.55895e-12
-5.99947e-12
-9.21172e-12
-9.55366e-12
-7.59347e-12
-4.84684e-12
-2.74812e-12
-1.47906e-12
-7.10817e-13
-2.30224e-13
1.11238e-13
3.6942e-13
5.36419e-13
6.45438e-13
6.96666e-13
6.98183e-13
6.79306e-13
6.45172e-13
5.99923e-13
5.48763e-13
4.94431e-13
4.53666e-13
4.17209e-13
3.34509e-13
2.40984e-12
4.99485e-12
1.34811e-11
2.12066e-11
3.23648e-11
4.66276e-11
7.14329e-11
1.21486e-10
2.00479e-10
2.77917e-10
2.47448e-10
7.90187e-11
-2.95881e-10
-9.60192e-10
-2.12204e-09
-3.55116e-09
-5.26315e-09
-6.7541e-09
-5.35426e-09
-1.26813e-09
7.09361e-09
2.14467e-08
4.18889e-08
6.61883e-08
1.02614e-07
1.50722e-07
1.81331e-07
2.13022e-07
2.31308e-07
2.88967e-07
3.53575e-07
4.20639e-07
9.07143e-07
1.422e-06
2.06462e-06
2.94218e-06
4.24642e-06
6.50126e-06
1.06226e-05
1.82501e-05
3.09369e-05
5.04982e-05
7.67352e-05
0.000108621
0.000143025
0.000175211
0.000202082
0.000219518
0.000227015
0.000224601
0.000213663
0.000196614
0.000175634
0.00015278
0.000130048
0.000108164
8.83901e-05
7.10081e-05
5.61138e-05
4.37447e-05
3.36453e-05
2.55132e-05
1.90869e-05
1.40478e-05
1.01184e-05
7.07854e-06
4.7336e-06
2.93075e-06
1.54833e-06
4.89898e-07
-3.14971e-07
-9.12663e-07
-1.3422e-06
-1.63608e-06
-1.81894e-06
-1.92283e-06
-1.97884e-06
-2.00376e-06
-2.00168e-06
-1.96958e-06
-1.91189e-06
-1.83386e-06
-1.74089e-06
-1.63691e-06
-1.52562e-06
-1.40757e-06
-1.28337e-06
-1.15376e-06
-1.0208e-06
-8.82318e-07
-7.296e-07
-5.51785e-07
-3.09508e-07
3.3628e-08
5.97887e-07
1.5077e-06
3.01975e-06
5.53427e-06
8.18995e-06
9.39537e-06
8.53779e-06
2.96753e-05
0.000111721
0.000136151
0.000141473
0.000131129
0.00011292
9.18604e-05
7.49824e-05
6.26966e-05
5.36585e-05
4.69796e-05
4.20361e-05
3.83871e-05
3.57163e-05
3.37979e-05
3.24728e-05
3.16247e-05
3.11675e-05
3.10381e-05
3.11912e-05
3.15955e-05
3.22284e-05
3.30737e-05
3.41238e-05
3.53821e-05
3.68635e-05
3.85967e-05
4.06312e-05
4.30459e-05
4.59636e-05
4.95755e-05
5.40695e-05
5.98299e-05
6.74411e-05
7.77242e-05
9.18022e-05
0.000111094
0.000137786
0.00017146
0.00023409
4.92449e-31
-8.5239e-30
5.09326e-29
-1.72842e-28
2.52039e-28
1.63203e-28
-1.25646e-27
2.58109e-27
-1.41823e-26
9.11351e-26
-3.84786e-25
1.22456e-24
-3.39924e-24
8.92864e-24
-2.11357e-23
3.82934e-23
-3.3471e-23
-6.87288e-23
5.06131e-22
-3.32522e-21
2.378e-20
-1.33128e-19
5.24777e-19
-1.04993e-18
8.98684e-19
-2.75285e-19
-8.00941e-18
-1.06826e-17
1.83485e-16
8.90224e-16
2.8133e-15
8.58635e-15
3.17066e-14
7.75713e-14
-1.48894e-13
-7.20963e-13
-1.04267e-12
-8.89637e-13
-6.19468e-13
-3.83288e-13
-2.0634e-13
-4.86378e-14
1.71299e-13
4.31919e-13
6.57454e-13
8.13069e-13
8.53437e-13
8.2441e-13
7.83541e-13
7.48476e-13
7.29246e-13
7.27294e-13
7.41577e-13
7.69105e-13
8.04272e-13
8.3806e-13
8.60567e-13
8.52986e-13
8.13236e-13
8.34557e-13
7.87153e-13
1.54707e-12
3.72961e-12
7.92291e-12
1.51333e-11
2.5918e-11
4.13798e-11
7.05963e-11
1.15776e-10
1.55119e-10
2.13336e-10
1.9229e-10
1.34096e-10
-1.16431e-11
-3.2323e-10
-8.90031e-10
-1.83532e-09
-2.90134e-09
-4.21524e-09
-3.80368e-09
-1.64623e-09
3.19157e-09
1.10162e-08
2.30288e-08
4.04562e-08
6.2833e-08
8.6897e-08
1.14695e-07
1.46915e-07
1.93437e-07
2.42266e-07
3.0122e-07
3.82194e-07
4.88661e-07
6.24401e-07
7.8029e-07
9.62407e-07
1.15812e-06
1.35242e-06
1.50778e-06
1.61968e-06
1.66542e-06
1.64981e-06
1.5751e-06
1.44987e-06
1.29394e-06
1.11676e-06
9.32349e-07
7.45046e-07
5.52205e-07
3.40578e-07
8.95701e-08
-1.77872e-07
-4.4485e-07
-7.0317e-07
-9.49921e-07
-1.18159e-06
-1.3944e-06
-1.58755e-06
-1.75953e-06
-1.9093e-06
-2.03835e-06
-2.14628e-06
-2.23345e-06
-2.30155e-06
-2.35155e-06
-2.38539e-06
-2.40523e-06
-2.41163e-06
-2.39967e-06
-2.34884e-06
-2.27216e-06
-2.1711e-06
-2.05632e-06
-1.92794e-06
-1.79836e-06
-1.67202e-06
-1.53709e-06
-1.38898e-06
-1.24897e-06
-1.12328e-06
-1.0176e-06
-9.30571e-07
-8.63185e-07
-8.17026e-07
-7.86924e-07
-7.71761e-07
-7.62873e-07
-7.45605e-07
-7.06564e-07
-6.53902e-07
-6.00151e-07
-5.20106e-07
-3.87679e-07
-2.14724e-07
3.7411e-08
4.34079e-07
1.10155e-06
1.99137e-06
3.06869e-06
3.98695e-06
4.30551e-06
4.18385e-06
3.82127e-06
3.28485e-06
2.72211e-06
2.18435e-06
1.75678e-06
1.43763e-06
1.19961e-06
1.01956e-06
8.81188e-07
7.75166e-07
6.96969e-07
6.44243e-07
6.1432e-07
6.03908e-07
6.11611e-07
6.34023e-07
6.66889e-07
7.07043e-07
7.51415e-07
7.97085e-07
8.41421e-07
8.8229e-07
9.18395e-07
9.49789e-07
9.78607e-07
1.01e-06
1.05418e-06
1.12639e-06
1.24857e-06
1.45579e-06
1.79857e-06
2.34747e-06
3.19786e-06
4.47325e-06
6.33186e-06
8.89306e-06
1.31073e-05
9.20368e-32
-1.6604e-31
-1.18395e-30
7.27755e-30
-1.4301e-29
-1.43857e-29
1.5361e-28
-4.5713e-28
1.24475e-27
-4.82174e-27
2.0205e-26
-7.39429e-26
2.33879e-25
-6.56799e-25
1.55504e-24
-1.94078e-24
-9.63783e-24
1.02053e-22
-5.87396e-22
2.61548e-21
-9.61364e-21
3.01651e-20
-7.68751e-20
1.5863e-19
-5.23031e-20
-4.09746e-19
4.4801e-18
-1.638e-17
-6.36927e-18
1.16961e-17
-1.7037e-16
1.16488e-15
6.38012e-15
-1.70092e-14
-7.6639e-14
-8.88981e-14
-7.48513e-14
-5.93719e-14
-4.06747e-14
-2.03862e-14
6.66089e-14
3.5893e-13
1.29365e-12
2.4106e-12
3.21196e-12
4.00702e-12
4.77588e-12
5.37127e-12
5.88011e-12
6.27693e-12
6.63651e-12
6.91567e-12
7.05446e-12
6.99643e-12
6.63732e-12
6.00737e-12
5.27148e-12
4.42752e-12
3.59099e-12
2.76672e-12
2.04373e-12
1.4682e-12
1.04224e-12
7.19371e-13
8.72147e-13
1.69011e-12
3.43595e-12
8.63725e-12
1.94902e-11
3.88511e-11
7.15743e-11
1.06703e-10
1.40031e-10
1.62309e-10
1.9288e-10
2.43375e-10
2.27513e-10
-8.43574e-12
-6.56028e-10
-1.34821e-09
-2.1808e-09
-2.43805e-09
-2.4472e-09
-2.2543e-09
-1.17781e-09
1.70904e-09
6.72487e-09
1.4521e-08
2.45749e-08
3.85531e-08
5.62517e-08
7.33404e-08
8.90195e-08
1.02484e-07
1.13678e-07
1.21058e-07
1.25201e-07
1.25578e-07
1.23311e-07
1.18653e-07
1.13953e-07
1.09319e-07
1.05622e-07
1.02613e-07
9.97511e-08
9.68343e-08
9.30949e-08
8.83944e-08
8.26677e-08
7.63994e-08
7.11151e-08
6.6791e-08
4.92095e-08
2.48194e-08
-1.4705e-09
-2.62995e-08
-4.90883e-08
-7.0852e-08
-9.16681e-08
-1.112e-07
-1.2888e-07
-1.44589e-07
-1.57923e-07
-1.68508e-07
-1.76267e-07
-1.8104e-07
-1.82763e-07
-1.81478e-07
-1.77186e-07
-1.70018e-07
-1.60768e-07
-1.50716e-07
-1.39785e-07
-1.29019e-07
-1.17921e-07
-1.07028e-07
-9.6647e-08
-8.66252e-08
-7.70372e-08
-6.7995e-08
-5.95038e-08
-5.212e-08
-4.57286e-08
-4.06868e-08
-3.96455e-08
-4.63666e-08
-6.37754e-08
-9.10182e-08
-1.29185e-07
-1.8317e-07
-2.41951e-07
-2.9401e-07
-3.40063e-07
-3.73028e-07
-3.63559e-07
-3.18386e-07
-2.44153e-07
-1.12039e-07
3.23451e-08
4.37149e-07
6.16727e-07
7.29638e-07
7.80327e-07
7.49459e-07
6.23436e-07
4.55246e-07
2.78619e-07
1.29299e-07
2.18022e-08
-5.14104e-08
-1.06973e-07
-1.4872e-07
-1.74624e-07
-1.81546e-07
-1.69385e-07
-1.41817e-07
-1.03988e-07
-6.76847e-08
-3.59412e-08
-7.66539e-09
1.11995e-08
1.86263e-08
1.47903e-08
9.91027e-10
-2.14962e-08
-5.2022e-08
-9.05677e-08
-1.37495e-07
-1.929e-07
-2.56858e-07
-3.29226e-07
-4.07396e-07
-4.86667e-07
-5.59802e-07
-6.15526e-07
-6.35646e-07
-5.96125e-07
-4.89202e-07
-3.31214e-07
-1.09479e-07
4.95712e-30
-2.40456e-29
6.97922e-29
-1.07548e-28
-6.83874e-29
6.80593e-28
-1.15162e-27
-3.11856e-28
3.24299e-27
-3.04994e-27
-2.57266e-27
-1.37101e-27
2.82743e-26
-5.91142e-26
6.6031e-26
1.03463e-25
-1.91331e-24
1.25762e-23
-6.09227e-23
2.70391e-22
-1.15461e-21
4.57548e-21
-1.48519e-20
3.40181e-20
-2.6141e-20
-7.50011e-20
6.90775e-19
-1.67318e-18
2.65888e-18
9.74227e-18
-1.19356e-16
2.04759e-16
5.17717e-16
-4.64673e-15
-6.33483e-15
-5.20539e-15
-3.79559e-15
-1.86538e-15
-1.45188e-15
4.4657e-14
7.87689e-13
2.89563e-12
9.51873e-12
1.75271e-11
2.3812e-11
3.11737e-11
3.88148e-11
4.5253e-11
5.07898e-11
5.4139e-11
5.60666e-11
5.64341e-11
5.53863e-11
5.36472e-11
5.54967e-11
6.73403e-11
7.61821e-11
8.26238e-11
8.59942e-11
8.43999e-11
7.91804e-11
7.05927e-11
6.02832e-11
4.94386e-11
3.90285e-11
2.99099e-11
2.23373e-11
1.69863e-11
1.40043e-11
1.2293e-11
1.24984e-11
1.57026e-11
2.70824e-11
4.66866e-11
7.48531e-11
1.03394e-10
1.31083e-10
1.64892e-10
1.773e-10
1.09539e-10
-1.62198e-10
-4.90585e-10
-8.37943e-10
-1.1601e-09
-1.42649e-09
-1.41188e-09
-1.2713e-09
-1.06959e-09
-8.01779e-10
-4.96234e-10
-1.3676e-10
3.19359e-10
8.33419e-10
1.39828e-09
2.01449e-09
2.6451e-09
3.28784e-09
3.90701e-09
4.49078e-09
4.99288e-09
5.4415e-09
5.81194e-09
6.13562e-09
6.41557e-09
6.65397e-09
6.86695e-09
7.04139e-09
7.19409e-09
7.31584e-09
7.39106e-09
7.41658e-09
7.40407e-09
7.56029e-09
7.82831e-09
8.08401e-09
7.78482e-09
7.36223e-09
7.20305e-09
7.40751e-09
7.81876e-09
8.29043e-09
8.76217e-09
9.24897e-09
9.81794e-09
1.05787e-08
1.15122e-08
1.2445e-08
1.32029e-08
1.36352e-08
1.29793e-08
1.04377e-08
7.34166e-09
4.12111e-09
1.35176e-09
-9.64649e-10
-3.25168e-09
-4.50786e-09
-4.00251e-09
-1.74048e-09
2.12683e-09
6.76874e-09
1.10872e-08
1.45798e-08
1.66581e-08
1.78427e-08
1.87628e-08
1.96658e-08
2.0731e-08
2.22722e-08
2.04665e-08
1.05634e-08
-8.96141e-09
-3.72911e-08
-7.50606e-08
-1.23694e-07
-1.68296e-07
-2.06851e-07
-2.20947e-07
-2.10027e-07
-1.8907e-07
-1.95771e-07
-2.11995e-07
-2.29825e-07
-2.46651e-07
-2.63592e-07
-2.81997e-07
-3.02713e-07
-3.19381e-07
-3.42648e-07
-3.67298e-07
-3.99426e-07
-4.25024e-07
-4.34447e-07
-4.22196e-07
-3.91611e-07
-3.4567e-07
-2.82196e-07
-2.46306e-07
-2.76428e-07
-3.39065e-07
-4.46244e-07
-5.91807e-07
-7.66092e-07
-9.55941e-07
-1.14835e-06
-1.33262e-06
-1.5011e-06
-1.64982e-06
-1.77764e-06
-1.8832e-06
-1.96582e-06
-2.02401e-06
-2.0531e-06
-2.04888e-06
-2.02335e-06
-1.99218e-06
-1.92516e-06
-1.71709e-06
-1.45799e-06
-1.05281e-06
-2.4469e-29
6.421e-29
8.79713e-29
-1.07946e-27
3.09972e-27
-2.71833e-27
-8.57212e-27
2.68464e-26
-1.68784e-26
-4.65458e-26
6.58634e-26
1.21833e-25
-3.07205e-25
-1.07025e-25
8.2667e-25
-3.29728e-25
-6.15133e-25
-1.17165e-24
5.18165e-24
-1.68009e-23
4.57568e-23
-2.11982e-23
-5.10944e-22
3.53762e-21
-1.51786e-20
5.71037e-20
-1.86668e-19
5.06536e-19
-5.1082e-19
1.69286e-18
5.28414e-18
-1.08146e-17
-9.07352e-17
-1.19971e-16
-2.58514e-16
-1.6683e-16
-1.73352e-15
2.23185e-14
-8.57598e-15
8.4e-13
8.1418e-12
3.03846e-11
8.80318e-11
1.48931e-10
2.10433e-10
3.11145e-10
4.16952e-10
4.97419e-10
6.13561e-10
8.29023e-10
1.15268e-09
1.56119e-09
2.01444e-09
2.525e-09
2.94647e-09
3.22323e-09
3.30271e-09
3.21225e-09
3.00953e-09
2.69503e-09
2.32973e-09
1.93765e-09
1.55656e-09
1.21065e-09
9.14384e-10
6.75693e-10
4.91942e-10
3.56613e-10
2.60394e-10
1.93529e-10
1.47436e-10
1.14239e-10
8.72142e-11
6.55191e-11
5.62946e-11
5.41018e-11
5.92419e-11
7.82681e-11
1.00171e-10
1.15952e-10
1.15847e-10
1.12981e-10
8.0103e-11
1.14798e-11
-1.19123e-10
-2.59145e-10
-3.69698e-10
-4.35502e-10
-4.65201e-10
-4.58289e-10
-4.01429e-10
-2.93653e-10
-1.59833e-10
-2.16289e-11
1.27659e-10
2.76235e-10
4.19874e-10
5.51613e-10
6.70289e-10
7.68487e-10
8.49994e-10
9.11518e-10
9.58371e-10
9.94794e-10
1.02378e-09
1.05314e-09
1.09072e-09
1.10621e-09
1.0691e-09
9.64706e-10
7.92367e-10
5.1357e-10
9.79478e-10
2.2091e-09
2.74224e-09
3.2308e-09
4.38561e-09
6.44734e-09
9.68103e-09