/*--------------------------------*- C++ -*----------------------------------*\
| =========                 |                                                 |
| \\      /  F ield         | OpenFOAM: The Open Source CFD Toolbox           |
|  \\    /   O peration     | Version:  2506                                  |
|   \\  /    A nd           | Website:  www.openfoam.com                      |
|    \\/     M anipulation  |                                                 |
\*---------------------------------------------------------------------------*/
FoamFile
{
    version     2.0;
    format      ascii;
    arch        "LSB;label=32;scalar=64";
    class       volVectorField;
    location    "5";
    object      U;
}
// * * * * * * * * * * * * * * * * * * * * * * * * * * * * * * * * * * * * * //

dimensions      [0 1 -1 0 0 0 0];

internalField   nonuniform List<vector> 
4000
(
(0.00816188 0.000799226 0)
(0.00705275 0.000969047 -4.49659e-22)
(0.00555841 0.0005852 4.66489e-22)
(0.00426856 0.000296924 8.92362e-22)
(0.00346976 0.000157863 -1.80417e-21)
(0.00297466 8.776e-05 9.06167e-22)
(0.00263922 5.08352e-05 0)
(0.00240357 3.16088e-05 0)
(0.00223411 2.13883e-05 0)
(0.00210774 1.57115e-05 1.78536e-21)
(0.00200987 1.23462e-05 -1.78937e-21)
(0.00193163 1.02579e-05 3.55319e-21)
(0.00186727 8.94082e-06 -3.55824e-21)
(0.00181287 8.09458e-06 0)
(0.00176565 7.55673e-06 0)
(0.00172361 7.23922e-06 0)
(0.00168524 7.07962e-06 3.50361e-21)
(0.00164934 7.03534e-06 -3.50611e-21)
(0.001615 7.08264e-06 0)
(0.00158143 7.20438e-06 0)
(0.001548 7.38803e-06 0)
(0.00151411 7.62623e-06 0)
(0.00147925 7.91452e-06 0)
(0.00144291 8.24986e-06 6.89396e-21)
(0.00140462 8.63101e-06 -1.37822e-20)
(0.00136388 9.05911e-06 6.88852e-21)
(0.00132019 9.53896e-06 0)
(0.001273 1.00823e-05 0)
(0.00122169 1.07145e-05 0)
(0.00116547 1.14989e-05 0)
(0.0011032 1.2619e-05 -6.86814e-21)
(0.00103345 1.45003e-05 6.87695e-21)
(0.000955426 1.68841e-05 0)
(0.000842405 2.46673e-05 6.04404e-21)
(0.000714666 5.18862e-05 6.95422e-21)
(0.000652264 0.000104341 -3.48687e-20)
(0.000665266 0.000176486 -2.8136e-20)
(0.000713568 0.000261086 7.08577e-21)
(0.000785278 0.000360695 -2.84879e-20)
(0.000885568 0.000482792 -6.42327e-20)
(0.00105495 0.00063695 7.16047e-21)
(0.00130412 0.000812373 5.65452e-20)
(0.00157109 0.000974306 -5.56318e-20)
(0.00182379 0.00111183 0)
(0.00206593 0.0012277 0)
(0.00229487 0.00132232 -3.17552e-21)
(0.0025221 0.00139761 -4.64035e-20)
(0.00273744 0.00144592 -4.51952e-20)
(0.00293506 0.00146773 -2.62322e-20)
(0.00312569 0.00146262 -2.20519e-20)
(0.00329294 0.00142547 2.08253e-20)
(0.00344271 0.00135894 0)
(0.00356031 0.00125682 -2.28381e-21)
(0.00364543 0.00112488 3.77754e-20)
(0.00368871 0.000959059 0)
(0.00367749 0.000771127 -7.91475e-21)
(0.00362137 0.000568618 -1.84252e-21)
(0.00349737 0.0003592 -6.41297e-24)
(0.00333884 0.000158647 -8.43457e-23)
(0.00311918 -3.34465e-05 -8.76714e-22)
(0.00286129 -0.000196005 1.56983e-21)
(0.0025922 -0.000328162 0)
(0.00230672 -0.00042674 0)
(0.00203311 -0.000492611 3.0707e-21)
(0.00176716 -0.000529197 2.15383e-20)
(0.00152556 -0.000541467 3.10653e-21)
(0.00130647 -0.000534301 -3.11947e-21)
(0.00111199 -0.000513447 3.17916e-21)
(0.00094408 -0.000483097 9.60727e-21)
(0.000796263 -0.000446752 -2.2644e-20)
(0.000671714 -0.000407894 -3.25657e-21)
(0.000562719 -0.000367419 -5.62048e-23)
(0.000468695 -0.000327289 0)
(0.00038957 -0.00028852 0)
(0.0003199 -0.000251279 0)
(0.000260043 -0.000216226 -1.76198e-21)
(0.000208827 -0.000183628 -2.65284e-20)
(0.000163688 -0.000153304 0)
(0.000124237 -0.000125357 -8.06784e-23)
(9.0038e-05 -9.98261e-05 1.82299e-21)
(5.9795e-05 -7.65438e-05 -2.91841e-20)
(3.29365e-05 -5.54043e-05 2.6545e-20)
(9.0722e-06 -3.63116e-05 -8.28135e-24)
(-1.23845e-05 -1.91682e-05 3.00599e-20)
(-3.17065e-05 -3.92103e-06 2.94542e-22)
(-4.91213e-05 9.50906e-06 -2.94687e-20)
(-6.49706e-05 2.11427e-05 -2.99483e-20)
(-7.93044e-05 3.09317e-05 3.03425e-20)
(-9.19629e-05 3.89283e-05 -4.62184e-22)
(-0.000103134 4.50711e-05 -2.96269e-20)
(-0.00011291 4.93596e-05 0)
(-0.000120902 5.19416e-05 -3.03883e-20)
(-0.000127242 5.27487e-05 -2.84503e-20)
(-0.000132083 5.19119e-05 2.92181e-20)
(-0.000134751 4.95721e-05 -1.63685e-20)
(-0.000136127 4.56244e-05 1.80721e-21)
(-0.000135449 4.06017e-05 1.44157e-20)
(-0.000133307 3.43669e-05 1.79888e-21)
(-0.000129079 2.75111e-05 1.25168e-20)
(-0.000123434 2.02681e-05 8.91408e-21)
(-0.000115583 1.34823e-05 -3.56083e-21)
(-0.000105624 7.13833e-06 8.89271e-21)
(-9.32011e-05 1.9013e-06 -8.8955e-22)
(-7.81094e-05 -1.86452e-06 -8.92334e-22)
(-5.99671e-05 -3.862e-06 -3.59434e-21)
(-3.85831e-05 -3.26031e-06 0)
(-1.33937e-05 8.88171e-08 0)
(1.59917e-05 7.03279e-06 -2.901e-20)
(4.98096e-05 1.78905e-05 -9.29615e-22)
(8.8621e-05 3.33019e-05 1.54877e-20)
(0.000132773 5.36651e-05 1.51638e-20)
(0.000182333 7.94729e-05 4.78774e-22)
(0.000238179 0.00011097 -1.59297e-20)
(0.000299268 0.000148461 -1.49455e-23)
(0.000366725 0.000192011 0)
(0.000440844 0.000241756 3.15076e-20)
(0.000519434 0.000296981 -9.86456e-22)
(0.000604203 0.000357872 -2.96001e-20)
(0.000694081 0.000423585 -9.92063e-22)
(0.000787303 0.000493211 -3.15761e-20)
(0.000885067 0.000566473 -1.85257e-22)
(0.000986522 0.000642128 3.11521e-20)
(0.00108941 0.000718764 1.90841e-21)
(0.00119446 0.000795856 -3.41576e-20)
(0.00130171 0.000872278 1.88364e-21)
(0.00140965 0.000946595 2.91814e-20)
(0.00151863 0.00101796 3.49686e-21)
(0.00162818 0.00108517 -3.50683e-21)
(0.0017379 0.00114741 2.66445e-20)
(0.00185066 0.00120442 -2.20077e-20)
(0.00196469 0.00125409 -3.13261e-21)
(0.00207705 0.00129544 -4.30905e-20)
(0.00219558 0.00132956 -2.82152e-21)
(0.00231709 0.00135315 -2.04283e-20)
(0.00243535 0.00136493 5.1393e-22)
(0.00256375 0.00136638 0)
(0.00269113 0.00135137 0)
(0.00281377 0.00132105 -2.31976e-22)
(0.00293917 0.00127264 0)
(0.00305397 0.00120353 -1.17579e-21)
(0.0031585 0.00111217 -2.90716e-21)
(0.00324295 0.00099689 -7.30777e-22)
(0.00329605 0.000858561 -1.13362e-21)
(0.00331837 0.000699976 -5.2413e-22)
(0.00328537 0.000522131 -6.11263e-22)
(0.00321117 0.000341282 1.52401e-22)
(0.00307672 0.000156353 0)
(0.00288389 -9.34037e-06 0)
(0.00266098 -0.000156583 0)
(0.00239508 -0.000274056 3.04383e-22)
(0.00212112 -0.000359505 -3.05454e-22)
(0.00183255 -0.000412451 -1.23649e-21)
(0.0015536 -0.000433725 -1.10857e-21)
(0.0012896 -0.000428936 0)
(0.00104809 -0.000403802 6.99296e-22)
(0.000831627 -0.000363462 0)
(0.00064056 -0.000313753 1.59713e-23)
(0.00047698 -0.000258887 1.2901e-22)
(0.000334475 -0.000201493 -1.3908e-22)
(0.000212703 -0.000138486 2.89124e-21)
(0.000158935 -0.000100265 -9.94433e-22)
(0.000170645 -8.12187e-05 -1.20783e-21)
(0.000181972 -6.94854e-05 0)
(0.000204752 -5.91276e-05 0)
(0.000247723 -4.93744e-05 0)
(0.000316383 -3.71898e-05 0)
(0.000425924 -2.6715e-05 0)
(0.000567097 -2.02887e-05 5.27687e-22)
(0.000699899 -1.7904e-05 7.97896e-24)
(0.000817209 -1.6781e-05 1.64362e-24)
(0.000923753 -1.56063e-05 -5.35893e-22)
(0.00101981 -1.42632e-05 0)
(0.00110513 -1.2827e-05 5.06712e-22)
(0.00117993 -1.13632e-05 -5.05371e-22)
(0.00124469 -9.91501e-06 1.48677e-23)
(0.00130004 -8.51718e-06 0)
(0.00134666 -7.19866e-06 0)
(0.00138531 -5.98005e-06 -4.02284e-22)
(0.0014168 -4.8734e-06 4.01522e-22)
(0.0014419 -3.88359e-06 0)
(0.00146138 -3.0102e-06 0)
(0.00147594 -2.24936e-06 -1.44678e-22)
(0.00148625 -1.5952e-06 1.0909e-23)
(0.00149292 -1.03683e-06 1.43287e-22)
(0.0014965 -5.57395e-07 0)
(0.00149747 -1.63073e-07 0)
(0.00149626 1.62058e-07 0)
(0.00149324 4.18772e-07 0)
(0.00148869 6.14004e-07 5.48682e-24)
(0.00148288 8.13441e-07 0)
(0.00147609 9.82823e-07 0)
(0.00146846 1.1285e-06 0)
(0.00146016 1.26042e-06 2.45059e-23)
(0.00145132 1.3885e-06 -2.44745e-23)
(0.00144202 1.52722e-06 0)
(0.0014323 1.70467e-06 1.85894e-24)
(0.00142216 1.95792e-06 4.61491e-24)
(0.00141128 2.32436e-06 -3.18701e-24)
(0.00139757 3.39809e-06 -1.42029e-24)
(0.00137963 8.02301e-06 0)
(0.0101626 0.00148333 0)
(0.0105613 0.00234276 0)
(0.0101511 0.00199844 0)
(0.00927849 0.00150309 8.69688e-22)
(0.00836691 0.00106533 -1.7668e-21)
(0.00760932 0.000737437 8.94954e-22)
(0.00699754 0.000514816 0)
(0.00650836 0.000369044 1.79342e-21)
(0.00612094 0.000273113 -1.81131e-21)
(0.00581312 0.000208831 1.80495e-21)
(0.00556517 0.000164578 -1.81614e-21)
(0.00536212 0.000133434 -3.6162e-21)
(0.00519279 0.000111196 3.63101e-21)
(0.0050488 9.51126e-05 3.61289e-21)
(0.00492387 8.34448e-05 -1.42451e-23)
(0.00481319 7.50798e-05 -7.2229e-21)
(0.00471296 6.92344e-05 3.61269e-21)
(0.00462021 6.53554e-05 0)
(0.0045325 6.30752e-05 0)
(0.00444782 6.21334e-05 0)
(0.00436442 6.23471e-05 0)
(0.00428078 6.35983e-05 0)
(0.00419549 6.58156e-05 0)
(0.00410722 6.8961e-05 0)
(0.00401469 7.30259e-05 0)
(0.00391659 7.80316e-05 0)
(0.00381159 8.40343e-05 0)
(0.00369824 9.11408e-05 0)
(0.00357496 9.95465e-05 0)
(0.00343985 0.000109624 0)
(0.0032906 0.000122135 -7.1804e-21)
(0.00312424 0.000138707 4.01268e-25)
(0.0029403 0.000162343 1.44549e-20)
(0.0027055 0.000199006 -6.34832e-21)
(0.00245351 0.000265241 -7.31285e-21)
(0.00231332 0.000380907 2.21417e-20)
(0.00231992 0.000553369 -2.98188e-20)
(0.0024218 0.000774247 -7.51987e-21)
(0.00259796 0.0010401 7.57962e-20)
(0.00285673 0.0013527 2.30615e-20)
(0.00324765 0.00171346 0)
(0.00376082 0.00209799 7.41016e-21)
(0.00430629 0.0024598 4.36365e-20)
(0.00484199 0.00277849 7.23636e-21)
(0.00536596 0.00304991 5.52865e-20)
(0.00587439 0.00327205 -5.355e-20)
(0.00637737 0.00344424 7.89766e-22)
(0.00685997 0.00355555 0)
(0.00731653 0.00360494 -2.4142e-20)
(0.00775349 0.00358849 0)
(0.00815086 0.00350088 -2.40675e-22)
(0.0085105 0.00334445 0)
(0.00880875 0.00311021 -1.95517e-20)
(0.00904264 0.00280948 -1.85952e-20)
(0.00919302 0.00243896 0)
(0.00924621 0.00201738 -5.70239e-23)
(0.00920202 0.00155852 7.87016e-21)
(0.00903018 0.0010768 1.78744e-21)
(0.00876735 0.000601718 3.5571e-21)
(0.00837686 0.000139106 -8.98679e-22)
(0.007894 -0.000277483 0)
(0.00734814 -0.00063721 6.80534e-21)
(0.00674859 -0.000929347 -3.41801e-21)
(0.00613766 -0.00115042 -6.68471e-21)
(0.00551894 -0.00130254 -2.0152e-20)
(0.00492815 -0.00139289 -3.38059e-21)
(0.00436789 -0.00142875 1.71595e-20)
(0.00385235 -0.00142231 -3.46503e-21)
(0.00338582 -0.0013823 0)
(0.0029648 -0.0013182 3.63225e-21)
(0.00259421 -0.00123874 -3.63245e-21)
(0.00226368 -0.00114788 -9.07703e-23)
(0.0019713 -0.00105228 0)
(0.00171629 -0.000954847 -3.05618e-20)
(0.00148979 -0.000857607 -3.09372e-20)
(0.00129027 -0.000763242 1.97299e-21)
(0.0011154 -0.000672746 -1.96489e-21)
(0.000959931 -0.000586574 2.00846e-21)
(0.000821847 -0.000505582 -3.22389e-20)
(0.00069984 -0.000430055 3.02928e-20)
(0.000591129 -0.000359904 -3.2469e-20)
(0.000493885 -0.000295193 -3.37695e-20)
(0.000406923 -0.000235823 2.04658e-21)
(0.00032874 -0.000181689 -3.3768e-20)
(0.000258437 -0.000132815 3.26406e-20)
(0.000195199 -8.9053e-05 -3.25067e-20)
(0.000137873 -5.04097e-05 3.27273e-20)
(8.63353e-05 -1.72031e-05 -3.27645e-20)
(4.0694e-05 1.06915e-05 -1.02205e-21)
(3.22438e-08 3.32759e-05 1.01178e-21)
(-3.53799e-05 5.0263e-05 0)
(-6.49818e-05 6.19663e-05 0)
(-8.95136e-05 6.85536e-05 1.59072e-20)
(-0.000108578 7.00962e-05 -1.78077e-20)
(-0.000121737 6.73548e-05 1.57123e-20)
(-0.000129759 6.02327e-05 3.89467e-21)
(-0.000131542 4.99539e-05 -2.13557e-23)
(-0.000127775 3.68047e-05 8.25119e-24)
(-0.000117161 2.1988e-05 -3.44377e-20)
(-0.000100207 5.93809e-06 -5.72164e-21)
(-7.58399e-05 -9.39258e-06 7.59765e-21)
(-4.44423e-05 -2.34541e-05 -7.59551e-21)
(-4.60853e-06 -3.45521e-05 0)
(4.33724e-05 -4.14047e-05 -9.54356e-22)
(0.000101099 -4.29484e-05 9.54591e-22)
(0.000168666 -3.70817e-05 0)
(0.000247079 -2.30066e-05 0)
(0.000337201 1.36662e-06 1.56165e-20)
(0.000439077 3.7095e-05 -1.57604e-20)
(0.000553683 8.56653e-05 1.64058e-20)
(0.000681195 0.000148174 -3.21224e-20)
(0.000821521 0.000225626 6.75108e-25)
(0.000975489 0.000318634 -5.10641e-22)
(0.00114124 0.00042771 -1.64786e-20)
(0.00132012 0.000552629 0)
(0.00151153 0.000693392 0)
(0.0017124 0.000848658 0)
(0.0019244 0.0010176 3.45561e-20)
(0.00214535 0.00119845 3.21603e-20)
(0.00237295 0.00138897 0)
(0.00260831 0.00158725 -3.73009e-20)
(0.00284969 0.00179051 6.14129e-21)
(0.00309445 0.00199563 -4.0323e-21)
(0.00334354 0.00220019 2.00608e-21)
(0.00359672 0.00240121 -3.84184e-21)
(0.00385245 0.00259554 3.02012e-20)
(0.00411125 0.00278051 -2.5477e-20)
(0.00437279 0.00295329 3.17934e-20)
(0.00463749 0.00311148 -1.50548e-22)
(0.00490878 0.00325317 2.35968e-20)
(0.00518402 0.00337465 0)
(0.00546133 0.0034738 2.44144e-20)
(0.00575001 0.00354985 -2.70124e-21)
(0.00604426 0.0035975 -1.77393e-20)
(0.00633886 0.00361435 1.9799e-20)
(0.00664746 0.00359966 -2.07825e-21)
(0.00695358 0.0035443 2.08603e-21)
(0.00725408 0.00344929 -2.03092e-21)
(0.00755043 0.00330787 1.63142e-21)
(0.00782607 0.00311781 -1.16276e-21)
(0.00807468 0.00287601 5.54002e-21)
(0.00827948 0.00258183 -3.9764e-21)
(0.00842153 0.00223779 3.27067e-21)
(0.00849369 0.00185193 0)
(0.00846303 0.00142909 3.36083e-22)
(0.00834477 0.000995614 1.31279e-24)
(0.00810346 0.000556482 1.69688e-23)
(0.00774782 0.000145993 0)
(0.00730401 -0.000225608 2.04908e-22)
(0.00676447 -0.000539385 -5.07775e-22)
(0.00617805 -0.00078591 0)
(0.00553964 -0.000960385 1.10405e-21)
(0.00489484 -0.00106318 2.51546e-22)
(0.00425344 -0.00109977 -2.53392e-22)
(0.0036426 -0.00108151 0)
(0.00306783 -0.00101704 -3.97974e-22)
(0.0025408 -0.000920276 1.56742e-22)
(0.00206691 -0.000800554 1.77014e-22)
(0.00164832 -0.000669767 0)
(0.00127721 -0.00052643 -1.53464e-21)
(0.00106224 -0.000435305 -1.38784e-21)
(0.00101376 -0.000376314 2.97761e-21)
(0.00101432 -0.000332376 -4.14315e-22)
(0.00106075 -0.000299598 4.09507e-22)
(0.0011689 -0.000275193 4.98658e-22)
(0.0013457 -0.000251566 5.48011e-22)
(0.0016089 -0.000233378 -4.58274e-22)
(0.00192749 -0.000215288 -3.46693e-23)
(0.00223287 -0.000196532 0)
(0.00251035 -0.000178774 3.51628e-23)
(0.00276471 -0.00016151 0)
(0.00299607 -0.00014412 -3.42103e-23)
(0.00320382 -0.000126817 -5.30019e-22)
(0.00338822 -0.000110012 5.59438e-22)
(0.00355009 -9.39986e-05 -4.66645e-23)
(0.00369059 -7.89747e-05 4.6627e-22)
(0.00381104 -6.50787e-05 -8.78594e-22)
(0.00391293 -5.23943e-05 8.586e-22)
(0.00399786 -4.09534e-05 -4.41613e-22)
(0.0040674 -3.07438e-05 0)
(0.00412315 -2.17205e-05 1.94446e-22)
(0.00416661 -1.38179e-05 -1.82291e-22)
(0.00419922 -6.95758e-06 -1.92116e-23)
(0.00422231 -1.05236e-06 -1.37735e-22)
(0.00423711 3.99261e-06 1.20992e-22)
(0.00424475 8.27283e-06 1.16352e-22)
(0.00424621 1.18801e-05 -1.29981e-22)
(0.00424238 1.48906e-05 1.08954e-22)
(0.00423406 1.73782e-05 -1.88692e-22)
(0.00422195 1.94654e-05 1.15189e-22)
(0.00420664 2.11996e-05 -3.87178e-23)
(0.00418869 2.26128e-05 -8.03163e-24)
(0.00416859 2.37561e-05 0)
(0.00414676 2.4686e-05 1.56678e-23)
(0.00412356 2.54728e-05 -2.15625e-23)
(0.00409931 2.62289e-05 9.81459e-25)
(0.00407427 2.71548e-05 -6.83306e-24)
(0.00404845 2.86495e-05 0)
(0.0040203 3.16854e-05 0)
(0.00398812 3.90947e-05 -2.71024e-25)
(0.0101548 0.000930803 0)
(0.010718 0.00187942 -4.35448e-22)
(0.0111799 0.00208094 4.31671e-22)
(0.011118 0.00193209 8.35638e-22)
(0.010834 0.00165193 -8.43785e-22)
(0.010409 0.00133957 0)
(0.00994807 0.0010599 0)
(0.00950672 0.000832129 0)
(0.00910908 0.000656456 -1.69183e-21)
(0.00876233 0.000524228 3.40496e-21)
(0.00846391 0.000424949 1.69307e-21)
(0.00820781 0.000350635 -3.42595e-21)
(0.00798695 0.000295033 -3.41285e-21)
(0.00779468 0.000253267 3.42876e-21)
(0.00762526 0.000221984 0)
(0.00747375 0.000198845 -3.41264e-21)
(0.00733592 0.000182086 6.83366e-21)
(0.00720824 0.000170411 -3.41996e-21)
(0.00708772 0.000162932 0)
(0.00697173 0.00015899 0)
(0.00685799 0.000158116 0)
(0.00674442 0.000160001 0)
(0.00662908 0.000164453 0)
(0.00651013 0.000171366 -6.78894e-21)
(0.00638573 0.000180712 6.80415e-21)
(0.00625404 0.000192539 0)
(0.00611314 0.000206974 0)
(0.005961 0.00022425 0)
(0.00579538 0.000244755 0)
(0.00561378 0.00026915 0)
(0.0054133 0.000298608 -6.85054e-21)
(0.00519042 0.000335312 6.87546e-21)
(0.00494607 0.000383238 0)
(0.00464969 0.000447154 4.32818e-22)
(0.0043365 0.00054295 0)
(0.0041449 0.000697753 -1.41789e-20)
(0.00412976 0.000926917 2.86809e-20)
(0.0042519 0.00122546 0)
(0.00449045 0.00158568 -5.7749e-20)
(0.0048493 0.00200071 1.97323e-22)
(0.0053646 0.00246055 -7.08161e-21)
(0.00600651 0.00293388 7.06199e-21)
(0.00668703 0.00338069 -5.51005e-20)
(0.00736688 0.00378132 0)
(0.00803893 0.00412682 -5.85171e-20)
(0.00869813 0.00441185 5.37365e-20)
(0.00934992 0.00463208 5.16984e-20)
(0.00997957 0.00477676 0)
(0.0105826 0.00484291 2.21576e-20)
(0.0111604 0.0048244 0)
(0.011695 0.0047178 -4.057e-20)
(0.012184 0.00452314 0)
(0.0126052 0.00423279 1.61055e-20)
(0.012954 0.00385889 1.97847e-20)
(0.0132083 0.00340083 1.67219e-20)
(0.0133549 0.00287499 7.82419e-21)
(0.013387 0.00229441 7.59247e-21)
(0.0132758 0.0016742 3.54235e-21)
(0.0130471 0.0010458 -1.76433e-21)
(0.0126635 0.000419686 -2.51538e-21)
(0.0121552 -0.000168993 0)
(0.0115407 -0.000702404 -6.30837e-21)
(0.0108336 -0.0011637 6.25446e-21)
(0.0100759 -0.0015417 0)
(0.00927605 -0.00183318 2.53659e-20)
(0.00847866 -0.00204056 0)
(0.00769183 -0.00216845 3.25357e-21)
(0.00694166 -0.00222889 -3.27722e-21)
(0.00623762 -0.00223133 0)
(0.00558427 -0.00218817 3.44052e-21)
(0.00499109 -0.00211117 -3.45473e-21)
(0.00445014 -0.00200734 -3.89815e-20)
(0.00396194 -0.00188727 2.52651e-20)
(0.00352597 -0.0017563 7.65229e-23)
(0.00313344 -0.00161902 2.98381e-20)
(0.00278227 -0.00148053 1.90056e-21)
(0.00246955 -0.00134328 -3.24231e-20)
(0.00218881 -0.00120906 0)
(0.00193701 -0.00107998 -3.11626e-20)
(0.00171208 -0.0009571 -6.09934e-20)
(0.00151026 -0.000840873 6.04483e-20)
(0.00132879 -0.000731898 3.2821e-20)
(0.00116575 -0.000630407 -3.29804e-20)
(0.00101887 -0.00053653 3.31924e-20)
(0.000886773 -0.000450577 0)
(0.000768008 -0.000372476 3.22887e-20)
(0.000660561 -0.000302296 1.57865e-22)
(0.000564286 -0.000240728 6.50802e-20)
(0.000478915 -0.000187656 3.00951e-20)
(0.000402712 -0.000143097 3.30238e-20)
(0.000336434 -0.00010757 0)
(0.000280569 -8.05451e-05 0)
(0.000233783 -6.15655e-05 -1.58494e-20)
(0.000197262 -5.05896e-05 0)
(0.000171017 -4.61584e-05 -1.96186e-21)
(0.000154777 -4.8095e-05 1.93947e-21)
(0.000149697 -5.45646e-05 -1.54808e-20)
(0.000154923 -6.49658e-05 1.53489e-20)
(0.000171262 -7.7303e-05 1.33717e-20)
(0.000199034 -9.12041e-05 1.89443e-21)
(0.000239389 -0.000104062 -7.56955e-21)
(0.00029185 -0.000114878 3.77348e-21)
(0.000358519 -0.000121322 -2.82807e-21)
(0.000438581 -0.000121387 9.41029e-22)
(0.000534632 -0.000113452 0)
(0.000646327 -9.46019e-05 7.59112e-21)
(0.000774923 -6.34497e-05 0)
(0.000921294 -1.72455e-05 1.53623e-20)
(0.00108503 4.5626e-05 2.01454e-24)
(0.00126704 0.000127063 -1.50969e-20)
(0.00146705 0.000228524 1.56975e-20)
(0.00168447 0.000351182 -4.93209e-22)
(0.00191978 0.000495672 0)
(0.0021703 0.000662407 1.59245e-20)
(0.00243722 0.00085085 -1.59725e-20)
(0.00271904 0.00106048 0)
(0.00301244 0.00128961 9.97708e-22)
(0.00331857 0.00153645 -3.28257e-20)
(0.00363486 0.00179846 -2.99587e-20)
(0.00395904 0.00207261 2.94018e-20)
(0.00429184 0.00235576 -3.10476e-20)
(0.00463142 0.00264412 -1.91004e-21)
(0.00497553 0.00293365 2.82694e-20)
(0.00532509 0.00322066 3.76545e-21)
(0.00567977 0.00350094 3.23949e-20)
(0.00603857 0.00377042 -6.37856e-20)
(0.00640205 0.00402523 3.13373e-20)
(0.00677024 0.0042615 -2.36599e-20)
(0.00714385 0.0044758 1.87595e-20)
(0.0075256 0.00466491 3.00632e-20)
(0.00791339 0.00482419 1.69843e-20)
(0.00830622 0.00495114 2.81117e-21)
(0.00871093 0.00504308 1.76241e-20)
(0.00912198 0.00509362 2.18013e-20)
(0.0095356 0.00510087 -2.07543e-21)
(0.00996011 0.00506187 2.08035e-21)
(0.0103799 0.00496718 5.32827e-21)
(0.0107923 0.00481795 1.45379e-21)
(0.011193 0.00460671 -1.25605e-21)
(0.0115669 0.00433243 1.25966e-21)
(0.0119039 0.00399313 -3.82679e-21)
(0.0121862 0.00358955 6.46353e-22)
(0.0123944 0.00312615 -1.80234e-22)
(0.0125179 0.0026126 -4.88645e-22)
(0.0125246 0.00205789 -1.01637e-21)
(0.0124244 0.00148484 0)
(0.0121803 0.000902632 -4.92499e-23)
(0.0118002 0.000344373 6.43381e-23)
(0.011299 -0.000173537 -1.91027e-22)
(0.01067 -0.00062941 6.91011e-22)
(0.00995774 -0.00100793 1.66608e-22)
(0.00915569 -0.00129954 -1.02909e-21)
(0.00831505 -0.00150047 -9.54367e-22)
(0.00744484 -0.00161186 3.61645e-22)
(0.00658461 -0.00164381 -6.47434e-22)
(0.00574314 -0.00160384 3.75075e-22)
(0.00494408 -0.00150828 -1.32185e-23)
(0.00419797 -0.00136876 -2.3637e-22)
(0.00352561 -0.00120557 8.19915e-23)
(0.00291269 -0.00101777 -7.29481e-22)
(0.0025171 -0.000887464 1.05057e-21)
(0.00236304 -0.000791866 -9.4274e-22)
(0.00231722 -0.000714199 -3.46154e-22)
(0.0023574 -0.000654093 -8.36181e-22)
(0.00250003 -0.000610932 0)
(0.00274529 -0.000573905 -9.99776e-22)
(0.00310455 -0.000545774 9.59669e-22)
(0.00352674 -0.000514329 4.77372e-23)
(0.00393227 -0.000476664 7.57454e-24)
(0.00430423 -0.000437317 -3.1812e-23)
(0.00464691 -0.000397502 -5.29743e-22)
(0.00496025 -0.000357103 3.27267e-23)
(0.00524335 -0.000316745 0)
(0.00549647 -0.000277299 -3.0759e-23)
(0.00572058 -0.000239434 2.95386e-23)
(0.005917 -0.000203617 4.93242e-22)
(0.00608728 -0.000170178 -4.62654e-22)
(0.00623315 -0.00013933 -3.92599e-22)
(0.00635645 -0.000111177 4.15067e-22)
(0.00645908 -8.57288e-05 0)
(0.00654292 -6.29212e-05 -2.10658e-23)
(0.0066098 -4.26429e-05 0)
(0.00666147 -2.47515e-05 -1.22152e-22)
(0.00669961 -9.08043e-06 1.00923e-23)
(0.00672576 4.55649e-06 1.45363e-22)
(0.00674136 1.63533e-05 2.85341e-23)
(0.00674773 2.65017e-05 1.31787e-23)
(0.00674606 3.51855e-05 -1.20022e-23)
(0.00673743 4.25739e-05 0)
(0.00672282 4.88072e-05 9.75854e-24)
(0.00670311 5.40366e-05 3.27244e-23)
(0.00667911 5.83633e-05 -2.50263e-23)
(0.00665156 6.18858e-05 -2.46457e-23)
(0.00662115 6.47081e-05 3.02489e-23)
(0.00658852 6.69494e-05 0)
(0.00655426 6.87731e-05 4.67606e-24)
(0.00651894 7.04278e-05 6.62447e-24)
(0.00648306 7.2344e-05 1.52387e-24)
(0.0064463 7.52857e-05 -1.5217e-24)
(0.00640506 8.23565e-05 2.57013e-25)
(0.0100748 0.000516308 0)
(0.0104761 0.0012823 0)
(0.0110149 0.00167927 0)
(0.0113787 0.00179453 8.33069e-22)
(0.0115701 0.0017311 -8.31822e-22)
(0.0115412 0.0015697 0)
(0.0114223 0.00136701 0)
(0.0112259 0.00116133 0)
(0.0109931 0.000976649 0)
(0.0107546 0.00081928 0)
(0.0105246 0.000688816 0)
(0.0103099 0.000584116 -3.27031e-21)
(0.0101126 0.000501386 3.28746e-21)
(0.00993217 0.000436332 -3.27252e-21)
(0.0097673 0.00038583 6.55792e-21)
(0.00961572 0.000347349 -3.28385e-21)
(0.00947488 0.000318689 -3.26872e-21)
(0.00934237 0.000298136 3.27822e-21)
(0.00921587 0.000284498 0)
(0.00909314 0.000276808 0)
(0.00897208 0.000274364 6.51664e-21)
(0.00885071 0.000276706 -6.53117e-21)
(0.00872704 0.000283548 0)
(0.00859913 0.000294735 -6.50619e-21)
(0.00846499 0.000310239 6.52047e-21)
(0.00832259 0.000330153 0)
(0.00816977 0.000354697 0)
(0.00800426 0.000384242 6.51684e-21)
(0.00782355 0.000419362 -8.03094e-24)
(0.00762493 0.000460949 -6.54506e-21)
(0.00740543 0.00051041 -6.55547e-21)
(0.00716149 0.000570064 1.31533e-20)
(0.00689488 0.000643917 -6.59923e-21)
(0.00657881 0.000734503 6.20622e-21)
(0.00624588 0.000855788 -6.6757e-21)
(0.00602807 0.00103595 -6.78589e-21)
(0.00598987 0.00129239 6.87945e-21)
(0.00610852 0.00162372 2.06048e-20)
(0.00636743 0.0020214 3.45018e-20)
(0.00676532 0.00247253 7.01408e-21)
(0.00732324 0.00296029 -6.78818e-21)
(0.0080006 0.00345302 -5.92026e-20)
(0.00871892 0.00391943 5.79167e-20)
(0.00944355 0.00434228 5.62556e-20)
(0.0101651 0.00471027 -1.2215e-20)
(0.010878 0.00501526 8.92004e-21)
(0.0115843 0.00525043 -2.56532e-20)
(0.012271 0.00540726 0)
(0.0129341 0.00547977 -2.37859e-20)
(0.013573 0.00545958 2.58691e-21)
(0.0141726 0.0053465 1.93846e-20)
(0.014727 0.00513923 2.26101e-21)
(0.015219 0.0048328 -2.22423e-20)
(0.0156432 0.00443631 -1.46502e-20)
(0.0159801 0.00395091 -1.60486e-20)
(0.0162171 0.00339036 -7.82124e-21)
(0.0163445 0.00276697 -1.58122e-21)
(0.0163374 0.00209403 1.79615e-21)
(0.0162104 0.00139962 1.66467e-21)
(0.0159295 0.000694461 2.43817e-21)
(0.0155142 1.06791e-05 1.63124e-21)
(0.0149718 -0.000632508 0)
(0.0143116 -0.00121523 6.23874e-21)
(0.0135665 -0.00172092 0)
(0.0127441 -0.00214168 -2.12923e-20)
(0.0118882 -0.00247234 -1.23699e-20)
(0.0110092 -0.00271328 -3.07706e-21)
(0.0101397 -0.0028711 0)
(0.00929396 -0.0029533 0)
(0.00848452 -0.00297088 -1.29901e-20)
(0.00772694 -0.00293593 0)
(0.00701823 -0.00285695 3.02669e-20)
(0.0063643 -0.0027464 -3.0793e-20)
(0.00576675 -0.00261196 2.96635e-20)
(0.00521936 -0.00246047 2.5049e-23)
(0.0047216 -0.00229926 2.48635e-23)
(0.00427108 -0.00213274 2.5639e-20)
(0.00386162 -0.00196437 3.70394e-21)
(0.00349023 -0.00179779 2.81797e-20)
(0.00315465 -0.00163536 3.03579e-20)
(0.0028508 -0.00147847 -1.06952e-22)
(0.00257553 -0.00132858 -2.98986e-20)
(0.00232653 -0.00118662 3.00958e-20)
(0.00210108 -0.0010532 0)
(0.00189755 -0.000929149 4.90737e-22)
(0.00171403 -0.000814672 3.08293e-20)
(0.00154777 -0.000710067 -6.25756e-20)
(0.00139869 -0.000616419 -9.45411e-20)
(0.00126609 -0.000533668 -3.24239e-20)
(0.00114738 -0.000461899 9.01432e-22)
(0.0010436 -0.000401908 0)
(0.000955066 -0.000353103 9.77036e-22)
(0.000879851 -0.000314806 -9.68077e-22)
(0.000819916 -0.000287062 0)
(0.000774768 -0.000267846 1.53769e-20)
(0.000744836 -0.000256901 -1.91765e-21)
(0.000730856 -0.000251739 1.89927e-21)
(0.000732599 -0.000251867 -2.07388e-23)
(0.000750604 -0.000254278 1.50336e-20)
(0.000785782 -0.000258322 -1.87328e-21)
(0.000838971 -0.000260805 3.72359e-21)
(0.000909788 -0.000260402 -1.8516e-21)
(0.00100058 -0.000254323 7.19177e-25)
(0.00110989 -0.00024006 -9.27815e-22)
(0.0012409 -0.000215626 9.256e-22)
(0.00139247 -0.000177604 -7.43766e-21)
(0.00156583 -0.000124226 -7.93417e-21)
(0.00176132 -5.24371e-05 -1.45343e-20)
(0.00197785 3.97053e-05 3.01553e-20)
(0.00221583 0.000154196 -1.46742e-20)
(0.00247428 0.000292585 -4.75609e-22)
(0.00275187 0.000455954 -4.77842e-22)
(0.00304856 0.000644765 4.79628e-22)
(0.00336082 0.000859096 -1.53958e-20)
(0.00368957 0.00109808 1.03333e-21)
(0.00403262 0.00136057 -4.95113e-24)
(0.00438659 0.00164452 1.33469e-20)
(0.00475226 0.00194739 4.67618e-20)
(0.00512708 0.00226604 -3.01051e-20)
(0.00550907 0.00259688 -3.01679e-20)
(0.00589888 0.00293599 3.16644e-20)
(0.00629503 0.00327894 2.70929e-20)
(0.00669593 0.00362124 -2.71384e-20)
(0.00710263 0.00395837 -3.12638e-20)
(0.00751509 0.00428551 -2.59169e-20)
(0.0079329 0.00459807 3.89303e-21)
(0.00835684 0.0048915 -3.27352e-21)
(0.00878724 0.0051613 0)
(0.00922493 0.00540335 -2.69935e-20)
(0.009672 0.00561361 -2.2847e-20)
(0.0101269 0.00578722 -1.90543e-20)
(0.0105888 0.00592102 0)
(0.0110622 0.006011 -2.15129e-20)
(0.0115424 0.00605132 2.28296e-21)
(0.0120257 0.00604 -6.05248e-21)
(0.0125161 0.00597276 -1.92884e-21)
(0.0130003 0.00584212 -1.35707e-22)
(0.0134749 0.00564855 -7.3019e-21)
(0.0139332 0.00538635 1.37487e-21)
(0.0143619 0.00505521 -5.44461e-21)
(0.0147502 0.00465491 8.43074e-21)
(0.015082 0.00418762 6.05801e-21)
(0.0153402 0.00365903 2.49906e-21)
(0.0155135 0.00307898 0)
(0.015575 0.0024569 -4.03984e-22)
(0.0155287 0.00181343 7.93052e-24)
(0.0153425 0.00115883 1.57797e-23)
(0.0150199 0.000521964 -3.32043e-24)
(0.0145668 -7.9619e-05 -4.18038e-23)
(0.0139736 -0.000625464 1.47665e-22)
(0.0132743 -0.00109719 -3.64053e-22)
(0.0124582 -0.00148324 0)
(0.0115714 -0.00177448 8.52548e-22)
(0.0106182 -0.00196857 -2.60401e-22)
(0.00964123 -0.00206992 4.95566e-22)
(0.00864934 -0.00208363 7.79151e-23)
(0.00767401 -0.00202319 5.68403e-23)
(0.0067294 -0.00190009 -2.59055e-23)
(0.00585819 -0.00173924 0)
(0.00504205 -0.00154062 9.06506e-22)
(0.00447839 -0.00138809 6.74874e-23)
(0.00419948 -0.00126825 5.38301e-23)
(0.00408041 -0.00116489 4.98986e-23)
(0.00408575 -0.00107978 8.5194e-22)
(0.00423051 -0.00101632 3.91575e-23)
(0.0045046 -0.000963031 1.35549e-23)
(0.00491046 -0.000919864 -4.94843e-22)
(0.00538009 -0.000870929 4.27702e-22)
(0.00582905 -0.000811396 5.03372e-22)
(0.00624054 -0.000747106 6.34758e-23)
(0.00661966 -0.000680992 -4.9699e-22)
(0.00696676 -0.000613816 6.00067e-23)
(0.00728099 -0.00054671 4.66872e-22)
(0.00756275 -0.000481002 -4.64156e-22)
(0.00781321 -0.000417742 -5.41746e-23)
(0.00803384 -0.000357664 -5.30497e-23)
(0.00822625 -0.000301285 0)
(0.0083922 -0.000248952 3.68881e-22)
(0.00853357 -0.00020085 -3.67535e-22)
(0.00865228 -0.000157017 0)
(0.00875022 -0.000117379 -3.89328e-23)
(0.00882922 -8.17919e-05 0)
(0.00889108 -5.00645e-05 3.3935e-23)
(0.00893749 -2.19651e-05 1.22867e-22)
(0.00897009 2.77495e-06 -1.22599e-22)
(0.00899037 2.44427e-05 -2.73353e-23)
(0.00899974 4.33228e-05 2.47136e-23)
(0.00899947 5.96878e-05 0)
(0.00899077 7.379e-05 -7.85377e-23)
(0.00897471 8.58458e-05 7.84158e-23)
(0.00895231 9.60497e-05 1.65022e-23)
(0.0089245 0.000104577 2.74027e-23)
(0.00889218 0.000111577 -2.7357e-23)
(0.00885619 0.000117189 1.99529e-23)
(0.00881733 0.000121565 -1.99232e-23)
(0.00877639 0.000124892 -7.25258e-24)
(0.00873417 0.000127411 -4.67169e-24)
(0.0086914 0.000129486 3.18771e-24)
(0.00864874 0.000131496 3.57452e-24)
(0.00859947 0.000136593 0)
(0.0100413 0.000317385 0)
(0.0102866 0.000874334 0)
(0.010715 0.00124894 0)
(0.0111427 0.00144447 8.41447e-22)
(0.0114793 0.00150605 -8.35762e-22)
(0.0117072 0.0014729 0)
(0.0118551 0.00137481 1.62172e-21)
(0.0118992 0.00124565 -1.62411e-21)
(0.0118802 0.00110888 -1.60568e-21)
(0.0118209 0.000975153 3.21268e-21)
(0.0117315 0.00085219 -1.60745e-21)
(0.0116274 0.000746464 0)
(0.0115163 0.000657672 0)
(0.0114033 0.000584036 3.18316e-21)
(0.0112916 0.000524687 -1.40721e-23)
(0.0111823 0.000478131 -6.36276e-21)
(0.0110754 0.000442584 3.18296e-21)
(0.0109708 0.000416612 0)
(0.0108675 0.00039922 0)
(0.0107644 0.000389489 3.15702e-21)
(0.0106604 0.000386699 -3.16308e-21)
(0.010554 0.000390419 0)
(0.0104438 0.000400386 0)
(0.0103281 0.000416481 -6.28581e-21)
(0.0102052 0.00043874 1.25785e-20)
(0.0100733 0.00046735 -6.2929e-21)
(0.00993018 0.000502654 -6.27859e-21)
(0.0097738 0.000545172 1.06003e-23)
(0.00960172 0.000595646 1.25777e-20)
(0.00941133 0.000655124 -6.29843e-21)
(0.00919995 0.000725114 -6.30088e-21)
(0.00896424 0.000807812 3.75245e-24)
(0.00870622 0.000906847 6.33034e-21)
(0.00840304 0.00102304 6.33789e-21)