/*--------------------------------*- C++ -*----------------------------------*\
| =========                 |                                                 |
| \\      /  F ield         | OpenFOAM: The Open Source CFD Toolbox           |
|  \\    /   O peration     | Version:  2506                                  |
|   \\  /    A nd           | Website:  www.openfoam.com                      |
|    \\/     M anipulation  |                                                 |
\*---------------------------------------------------------------------------*/
FoamFile
{
    version     2.0;
    format      ascii;
    arch        "LSB;label=32;scalar=64";
    class       volVectorField;
    location    "5";
    object      vorticityField;
}
// * * * * * * * * * * * * * * * * * * * * * * * * * * * * * * * * * * * * * //

dimensions      [0 0 -1 0 0 0 0];

internalField   nonuniform List<vector> 
4000
(
(-2.47939e-21 8.40401e-19 -33.3793)
(-1.04518e-18 3.46681e-19 -35.6379)
(1.10373e-18 -3.72674e-18 -32.6595)
(3.56452e-18 2.74839e-18 -27.8682)
(-7.27206e-18 2.71498e-18 -24.0431)
(3.69947e-18 -4.61731e-18 -21.3511)
(-2.99792e-20 1.6936e-18 -19.3648)
(3.58354e-18 -0 -17.868)
(-3.53069e-18 -3.33679e-18 -16.7312)
(7.09276e-18 1.75285e-18 -15.8518)
(-7.10475e-18 -1.7126e-18 -15.1547)
(-2.24909e-19 3.69465e-19 -14.5892)
(-1.17625e-19 9.57734e-18 -14.1202)
(7.47421e-18 -6.65026e-18 -13.7224)
(-2.8464e-20 -0 -13.3775)
(-1.41234e-17 -6.54815e-18 -13.0715)
(1.39147e-17 3.97524e-18 -12.7938)
(-7.358e-18 9.12574e-18 -12.536)
(3.47984e-19 -6.55284e-18 -12.2913)
(0 -0 -12.0542)
(0 -0 -11.8198)
(0 -0 -11.5839)
(8.74295e-19 -1.28846e-17 -11.3426)
(1.20028e-17 2.13564e-17 -11.0923)
(-2.76059e-17 8.69243e-18 -10.8294)
(1.57169e-17 -3.00386e-17 -10.5502)
(-9.87554e-19 1.28745e-17 -10.2511)
(0 -0 -9.9279)
(0 -0 -9.57615)
(-1.13611e-18 1.28364e-17 -9.19004)
(-2.69629e-17 -9.54963e-18 -8.76183)
(1.49833e-17 -1.61396e-17 -8.28357)
(2.87699e-17 1.5527e-18 -7.73973)
(7.92962e-19 -1.47264e-17 -6.98758)
(-8.174e-18 7.44611e-17 -6.15607)
(-3.30728e-17 6.7009e-17 -5.77792)
(-1.0625e-16 -1.11045e-16 -6.0094)
(-4.10659e-19 -6.52834e-19 -6.66407)
(6.97613e-17 2.0617e-16 -7.69771)
(-1.02839e-16 -6.97785e-17 -9.19335)
(4.36356e-17 -2.463e-16 -11.458)
(1.20031e-16 2.29923e-16 -14.2889)
(-3.74041e-17 1.01331e-16 -17.1807)
(2.74077e-17 -1.08573e-16 -19.9739)
(1.23872e-16 8.65785e-17 -22.6258)
(-1.41824e-16 2.02081e-17 -25.1568)
(-1.93793e-16 1.66973e-16 -27.622)
(-1.01732e-16 -1.11525e-16 -29.8599)
(-7.90854e-17 -1.97268e-16 -31.9263)
(-4.76692e-17 -1.22424e-16 -33.7897)
(9.92153e-17 -1.19816e-16 -35.3552)
(-3.67951e-18 4.56965e-17 -36.6977)
(-5.46604e-17 -8.54785e-17 -37.6325)
(8.9376e-17 -1.0687e-16 -38.2805)
(-7.43354e-18 8.68993e-17 -38.4856)
(-3.47203e-17 5.54829e-17 -38.2772)
(7.89301e-18 5.1992e-17 -37.6945)
(3.78448e-18 9.43224e-18 -36.6156)
(8.45007e-18 1.58192e-17 -35.2809)
(-5.14208e-18 -2.48163e-18 -33.5086)
(4.93809e-18 4.67067e-18 -31.4147)
(1.91598e-17 3.54173e-19 -29.2063)
(-9.0605e-18 -4.19421e-18 -26.8276)
(-7.56014e-18 -4.94435e-17 -24.4444)
(-1.04503e-17 -5.91775e-17 -22.0786)
(-8.99124e-18 4.41243e-17 -19.7777)
(5.91601e-17 4.29679e-17 -17.6329)
(-1.09822e-19 -3.20137e-17 -15.5915)
(2.20001e-17 4.9578e-17 -13.7529)
(-5.45312e-17 5.12664e-17 -12.0469)
(-1.0864e-17 -3.71879e-17 -10.5212)
(-2.71449e-17 -5.83384e-17 -9.14856)
(1.0988e-20 -1.28665e-19 -7.89878)
(-7.37709e-17 4.67923e-17 -6.80316)
(-7.33073e-17 5.21903e-17 -5.81815)
(-2.83459e-18 6.38174e-17 -4.9405)
(-6.42278e-17 4.10245e-17 -4.17025)
(7.71838e-18 -6.56643e-17 -3.48662)
(-7.98162e-17 2.97315e-17 -2.88099)
(6.51253e-17 2.08626e-17 -2.35141)
(-1.25103e-16 3.45834e-17 -1.88645)
(-1.81569e-17 -6.78455e-17 -1.47848)
(3.77841e-18 -1.17279e-17 -1.1229)
(-7.40015e-18 2.41254e-18 -0.81336)
(6.32356e-17 9.71316e-17 -0.545533)
(-1.14655e-16 1.51664e-16 -0.315971)
(4.92003e-18 -1.3739e-16 -0.119964)
(-4.62731e-18 -6.5588e-17 0.0442421)
(-1.20449e-18 1.34896e-16 0.178203)
(-4.92129e-17 3.17908e-17 0.285828)
(2.05261e-19 1.38771e-18 0.368181)
(-4.94905e-17 9.11788e-17 0.427153)
(-2.32848e-17 -1.12229e-16 0.465707)
(1.86584e-17 -3.50031e-17 0.485313)
(-3.71068e-19 5.60085e-17 0.488202)
(7.60101e-18 -6.54689e-17 0.476973)
(2.32035e-17 -7.72924e-18 0.454061)
(2.98777e-18 3.09399e-18 0.420794)
(-3.42369e-17 -3.86734e-18 0.378768)
(5.74463e-18 3.00281e-17 0.329933)
(6.22369e-18 -1.07299e-18 0.273164)
(1.90716e-18 -5.06639e-18 0.208244)
(-1.04991e-18 1.84357e-17 0.132808)
(-2.77897e-18 4.97975e-18 0.0449209)
(-4.09751e-18 -2.02251e-18 -0.0592729)
(-7.4595e-20 -6.77166e-18 -0.18428)
(4.13543e-19 5.55311e-17 -0.335204)
(-2.09712e-17 -2.61721e-18 -0.519062)
(-2.6741e-17 -9.45727e-17 -0.74157)
(5.03516e-17 -1.3968e-17 -1.01087)
(-2.58771e-17 1.60741e-17 -1.33466)
(1.17791e-18 6.40246e-17 -1.71934)
(-2.68735e-17 -1.27234e-17 -2.17646)
(-2.42336e-17 -5.5876e-17 -2.70386)
(-8.05121e-19 -6.81326e-17 -3.32203)
(5.36117e-17 3.54374e-17 -4.02446)
(2.5428e-19 1.35053e-16 -4.81688)
(-8.35865e-18 3.51602e-17 -5.70886)
(5.59343e-17 4.16282e-17 -6.69025)
(-5.75193e-17 -4.29977e-17 -7.7634)
(-4.43918e-17 -2.4409e-16 -8.93217)
(7.0414e-17 4.69864e-17 -10.1817)
(4.18098e-18 1.50971e-16 -11.5038)
(-6.64749e-17 -4.3534e-17 -12.902)
(-1.09696e-17 -1.58727e-16 -14.3565)
(1.22373e-16 8.69905e-17 -15.8605)
(-3.68942e-17 4.06014e-17 -17.4035)
(5.23466e-17 -6.05295e-18 -18.9689)
(6.25184e-17 8.80759e-17 -20.5521)
(-6.11004e-17 1.82978e-16 -22.1599)
(-7.09721e-18 5.31691e-17 -23.7326)
(-1.22848e-16 9.17232e-17 -25.2936)
(-2.5176e-17 -5.59328e-17 -26.8657)
(-9.56032e-17 -6.7716e-17 -28.3494)
(-4.59618e-17 1.42575e-16 -29.7832)
(-5.22336e-18 -1.83441e-18 -31.2234)
(5.58363e-18 3.4522e-18 -32.4528)
(3.84113e-17 -9.69425e-17 -33.6584)
(4.78076e-18 4.08233e-18 -34.6675)
(-1.08768e-17 1.79878e-17 -35.5222)
(-2.44206e-17 9.16311e-17 -36.1548)
(-1.82675e-17 6.96756e-18 -36.5222)
(-1.45555e-17 7.86122e-17 -36.5567)
(-5.24708e-18 1.3662e-17 -36.3092)
(-2.97123e-18 1.32361e-17 -35.5606)
(8.19488e-18 -6.76549e-17 -34.5697)
(9.66183e-20 2.92512e-19 -33.043)
(0 -0 -31.1722)
(4.95571e-19 -6.02849e-19 -29.0503)
(9.0371e-19 1.05464e-17 -26.6162)
(-1.81992e-18 -6.86612e-18 -24.1004)
(-1.56735e-19 1.60658e-18 -21.4365)
(-2.64398e-18 -1.6215e-18 -18.7877)
(-1.13924e-18 -3.17827e-18 -16.2065)
(1.8254e-18 -7.1226e-19 -13.7446)
(-8.44571e-19 1.74473e-18 -11.4544)
(-8.97351e-18 -2.53939e-17 -9.3375)
(-4.32146e-19 -2.46522e-18 -7.44131)
(-3.51723e-19 -4.22203e-18 -5.71771)
(-8.38365e-18 -2.61814e-17 -4.19127)
(-4.42372e-18 1.04848e-17 -3.26748)
(7.2549e-18 5.65136e-18 -3.03139)
(-1.23577e-18 -1.99258e-18 -2.93437)
(9.19146e-19 -2.14271e-19 -2.97926)
(1.11476e-18 -1.71446e-19 -3.21634)
(1.2226e-18 -1.01579e-19 -3.6844)
(-1.13492e-18 -9.7266e-19 -4.47422)
(1.03376e-18 -2.20057e-18 -5.49306)
(1.30575e-19 5.52274e-19 -6.46485)
(1.88479e-19 6.3465e-19 -7.32615)
(-1.12856e-18 2.97554e-18 -8.10257)
(-2.61678e-19 -1.94913e-18 -8.79946)
(-4.90503e-21 -2.93144e-18 -9.41613)
(2.39831e-19 4.78219e-18 -9.9543)
(-1.56183e-19 -1.19618e-18 -10.4175)
(1.01303e-18 3.07749e-20 -10.8103)
(-1.84095e-18 7.47182e-19 -11.1378)
(9.44674e-19 3.92235e-18 -11.4056)
(-1.56722e-19 -5.40619e-18 -11.6192)
(5.14736e-20 7.49692e-19 -11.7845)
(4.31027e-19 2.7198e-19 -11.9068)
(-6.93741e-19 2.12249e-18 -11.9914)
(-4.89617e-20 -5.24502e-19 -12.0432)
(1.12224e-20 -2.41181e-18 -12.0666)
(2.68103e-19 2.68292e-19 -12.0657)
(2.43771e-19 7.2714e-22 -12.0441)
(-2.71415e-19 -8.09598e-22 -12.005)
(2.2636e-19 -9.59078e-21 -11.9513)
(-3.79095e-19 -2.88272e-19 -11.8852)
(2.385e-19 1.09548e-20 -11.809)
(-7.97823e-20 -2.37981e-22 -11.7246)
(-1.76441e-20 -4.5904e-20 -11.6336)
(5.2309e-20 -1.10718e-18 -11.5373)
(-1.81087e-20 1.19507e-18 -11.437)
(-4.47608e-20 -4.93052e-20 -11.3335)
(7.02831e-21 -2.79846e-19 -11.2275)
(-3.52975e-21 -5.44385e-19 -11.1196)
(-6.61223e-21 2.89669e-19 -11.0082)
(-3.44903e-21 2.66773e-19 -10.8807)
(-5.50515e-22 -2.65341e-21 -10.7472)
(0 -0 3.17895)
(3.0053e-20 -0 -6.36896)
(-5.6865e-20 -1.62992e-18 -12.8042)
(3.404e-19 -1.08116e-19 -15.4188)
(1.08735e-18 6.46791e-18 -16.1267)
(-1.41746e-18 -6.40714e-18 -15.8626)
(3.97228e-20 -1.68385e-18 -15.2715)
(1.65451e-19 -1.5e-18 -14.6253)
(-3.61558e-18 4.87305e-18 -14.0194)
(3.36074e-18 -4.40075e-18 -13.485)
(6.50395e-18 1.45698e-17 -13.0245)
(-1.37901e-17 -2.02734e-18 -12.6299)
(9.86186e-19 -2.17297e-17 -12.2906)
(6.72085e-18 -8.98365e-19 -11.9965)
(-8.9422e-19 2.04904e-17 -11.7388)
(-6.71963e-18 8.13404e-18 -11.5096)
(7.38524e-18 -2.09207e-17 -11.3028)
(-1.54505e-19 6.77069e-18 -11.1126)
(0 -0 -10.9345)
(0 -0 -10.7645)
(0 -0 -10.5989)
(0 -0 -10.4346)
(0 -0 -10.2685)
(-2.7366e-17 -0 -10.0979)
(4.11856e-17 -0 -9.91983)
(-1.37897e-17 -0 -9.73143)
(0 -0 -9.52968)
(0 -0 -9.31122)
(0 -0 -9.07224)
(-1.19105e-18 1.34571e-17 -8.80805)
(-3.30572e-19 9.94388e-18 -8.51253)
(3.69764e-18 -4.10906e-17 -8.17757)
(-1.59404e-19 -6.24251e-18 -7.79282)
(-1.57583e-17 4.89561e-17 -7.3293)
(-9.39538e-18 -4.64148e-17 -6.84204)
(4.08001e-17 2.13955e-17 -6.52664)
(9.72167e-17 1.25013e-16 -6.51915)
(5.39298e-18 -2.01232e-16 -6.84282)
(-1.77964e-17 -1.70594e-16 -7.49656)
(1.1112e-16 2.3968e-16 -8.50202)
(-3.27977e-17 1.35592e-17 -9.91889)
(-8.52465e-17 -1.79671e-16 -11.5397)
(7.48796e-17 -1.38195e-16 -13.2488)
(1.25104e-17 -4.13341e-17 -15.0111)
(-2.43877e-17 -1.77393e-16 -16.744)
(-8.06795e-18 4.38369e-16 -18.4553)
(1.8593e-16 1.38605e-16 -20.1332)
(1.04532e-16 1.1153e-16 -21.7117)
(7.52719e-17 1.50752e-16 -23.2384)
(5.93105e-17 -2.13208e-17 -24.6406)
(-1.28723e-16 -1.42972e-16 -25.9125)
(-3.03778e-18 3.74224e-17 -27.0634)
(-1.84255e-17 2.40975e-16 -28.0146)
(-8.00999e-17 5.81087e-17 -28.8208)
(4.88672e-17 -2.36787e-17 -29.3943)
(3.58193e-17 3.69827e-17 -29.7669)
(3.61773e-17 -5.59503e-17 -29.8997)
(8.2479e-18 1.09699e-17 -29.7771)
(-3.67983e-18 -3.19651e-17 -29.4179)
(-5.88532e-18 1.40824e-17 -28.7911)
(-2.8752e-18 -1.43551e-17 -27.9025)
(-2.48418e-17 -7.55636e-17 -26.7831)
(1.9585e-17 7.31676e-17 -25.4671)
(-2.34258e-18 9.13333e-17 -23.9875)
(4.50128e-17 1.41377e-16 -22.4128)
(6.27146e-18 -5.01854e-17 -20.7504)
(-7.03923e-18 -7.66555e-17 -19.0981)
(-1.49386e-17 6.23953e-17 -17.4392)
(-2.39558e-17 -3.26064e-18 -15.8537)
(6.15591e-17 -3.93886e-17 -14.3314)
(4.46225e-18 2.08999e-17 -12.8987)
(-1.26714e-16 -2.31674e-17 -11.5759)
(5.65862e-17 3.45873e-17 -10.3366)
(4.2593e-17 1.64978e-16 -9.20885)
(1.1878e-16 -3.95681e-17 -8.17824)
(1.13731e-17 -7.56138e-17 -7.23632)
(-1.19959e-17 9.93852e-18 -6.38738)
(-4.41954e-18 7.04873e-17 -5.62177)
(-5.39736e-17 -5.38645e-18 -4.93014)
(-1.52796e-16 5.59143e-17 -4.31131)
(1.98312e-16 5.45014e-17 -3.75875)
(2.04531e-17 -7.91569e-17 -3.26552)
(-6.49534e-17 4.51176e-17 -2.82798)
(1.75148e-17 -5.32111e-17 -2.44127)
(-1.93849e-18 -6.26494e-18 -2.10096)
(1.20188e-16 -6.43294e-17 -1.80448)
(5.01882e-17 -4.84921e-17 -1.54719)
(6.23108e-17 3.79847e-17 -1.32605)
(5.29367e-17 -1.08044e-16 -1.13996)
(1.07964e-16 -6.82733e-17 -0.984013)
(3.44181e-20 2.18444e-18 -0.856451)
(5.0053e-17 -6.23928e-17 -0.755955)
(2.16135e-17 2.42822e-17 -0.677682)
(-4.83885e-17 2.32197e-17 -0.620257)
(2.27611e-17 -5.41331e-17 -0.581761)
(1.16047e-18 3.18438e-17 -0.558545)
(-4.75685e-17 2.33689e-17 -0.550451)
(2.28627e-17 6.04591e-17 -0.55363)
(1.59566e-18 1.05187e-17 -0.568879)
(-1.27775e-17 -7.83563e-17 -0.593407)
(-6.41669e-18 3.90519e-18 -0.629731)
(-7.42186e-18 1.53356e-17 -0.675314)
(-3.20222e-18 -1.23439e-17 -0.733817)
(2.82428e-18 -1.7164e-18 -0.80532)
(5.49497e-18 -1.41544e-18 -0.892767)
(1.17433e-17 3.26555e-18 -0.999917)
(-2.23009e-19 -2.99459e-17 -1.12886)
(6.94766e-17 4.5702e-17 -1.2849)
(1.06255e-18 5.8404e-18 -1.47131)
(-4.71281e-17 7.49113e-18 -1.69303)
(-2.03823e-18 4.74441e-17 -1.95472)
(-1.88882e-18 -6.51395e-17 -2.26039)
(2.61688e-17 4.70849e-17 -2.6164)
(2.30312e-17 1.95906e-17 -3.02225)
(-2.7138e-17 -4.95285e-17 -3.49112)
(-5.355e-17 -3.09969e-17 -4.0144)
(2.04647e-18 -7.45287e-17 -4.60368)
(1.13252e-17 -1.07554e-16 -5.25936)
(-1.12963e-17 -2.79324e-17 -5.97599)
(1.1561e-16 2.33329e-16 -6.76119)
(-9.4046e-17 4.45547e-18 -7.61259)
(-5.57748e-17 -1.37062e-16 -8.52131)
(4.40725e-17 5.61312e-17 -9.48957)
(7.87146e-17 4.70956e-17 -10.5163)
(4.7962e-17 -1.02266e-17 -11.5863)
(-8.85631e-17 -2.37823e-16 -12.701)
(-4.07718e-17 1.90593e-16 -13.8506)
(8.30519e-17 -2.93022e-16 -15.0251)
(-1.53341e-17 6.64055e-18 -16.2224)
(1.80215e-16 -1.46062e-17 -17.4364)
(4.60375e-17 3.00171e-17 -18.6323)
(1.93181e-16 -5.40746e-17 -19.8377)
(4.50257e-17 1.58775e-16 -21.0374)
(-4.28236e-17 2.57835e-16 -22.1727)
(7.95892e-17 -2.01417e-16 -23.2994)
(-5.54777e-18 7.62402e-17 -24.3942)
(3.05099e-17 -2.45129e-17 -25.3534)
(2.14453e-17 -3.63153e-17 -26.3158)
(1.19726e-17 -3.79724e-17 -27.1214)
(-8.51998e-18 3.14882e-17 -27.8468)
(4.92049e-17 -1.3609e-16 -28.4312)
(-6.33375e-17 2.33746e-16 -28.8634)
(4.0813e-17 -1.53407e-16 -29.1209)
(1.10413e-18 5.9869e-18 -29.2079)
(9.12338e-18 -5.71291e-17 -29.0413)
(-8.91318e-19 1.47575e-17 -28.715)
(-1.76978e-18 2.26359e-17 -28.0708)
(1.28976e-19 -3.5181e-19 -27.2299)
(4.83137e-19 4.20841e-17 -26.1261)
(-3.99801e-18 -7.64977e-17 -24.7873)
(8.76555e-19 -3.23089e-18 -23.2667)
(2.02879e-17 1.28034e-16 -21.5469)
(5.49465e-18 2.23574e-17 -19.7155)
(-3.6831e-18 -1.97673e-17 -17.7889)
(-3.48119e-18 1.62394e-18 -15.8412)
(-2.17456e-17 -7.69151e-17 -13.907)
(1.03872e-17 2.62648e-17 -12.0297)
(-1.93914e-17 -5.27694e-17 -10.2468)
(9.8451e-19 3.15096e-18 -8.58621)
(2.94927e-18 3.21518e-17 -7.10804)
(1.55209e-17 2.13952e-17 -6.00893)
(-1.35002e-17 -4.06652e-17 -5.41509)
(1.01702e-18 8.89115e-18 -5.10888)
(-3.23085e-18 -5.02306e-18 -4.99794)
(-9.56875e-19 -4.69041e-18 -5.07434)
(-3.38541e-18 -5.9292e-18 -5.34607)
(2.94476e-18 5.16924e-18 -5.81317)
(-1.09005e-18 -2.71355e-19 -6.40197)
(-1.49182e-20 -1.30911e-19 -6.99912)
(-1.40357e-19 -7.32423e-19 -7.55534)
(2.86358e-20 1.26629e-19 -8.06309)
(2.18829e-19 1.84407e-18 -8.5245)
(-8.08937e-19 1.00906e-17 -8.94055)
(5.12729e-19 -1.30123e-17 -9.31168)
(9.07319e-20 1.40424e-18 -9.63894)
(9.49473e-19 -1.10534e-17 -9.924)
(-6.36515e-19 2.3747e-17 -10.1689)
(-3.96619e-19 -2.69433e-17 -10.376)
(3.15858e-19 1.58613e-17 -10.5477)
(-8.05721e-20 -1.19206e-18 -10.6868)
(-6.23703e-20 -7.61539e-18 -10.796)
(3.62955e-19 7.52322e-18 -10.8778)
(-2.84108e-19 1.03059e-18 -10.935)
(-2.97293e-19 6.66017e-18 -10.9701)
(2.83115e-19 -6.25722e-18 -10.9854)
(9.77121e-20 -6.43223e-18 -10.9833)
(8.86953e-21 8.00724e-18 -10.9658)
(9.30666e-21 -7.84412e-18 -10.9349)
(-6.72832e-20 1.39045e-17 -10.8924)
(4.8953e-20 -9.34729e-18 -10.8398)
(5.84856e-20 3.6008e-18 -10.7789)
(-6.15051e-20 1.00992e-18 -10.7109)
(-1.0174e-19 -4.48944e-20 -10.6372)
(1.23491e-19 -2.16715e-18 -10.5589)
(-1.92285e-20 3.29072e-18 -10.4772)
(5.01558e-21 -3.15194e-19 -10.3928)
(-6.38408e-21 1.60397e-18 -10.3066)
(9.38271e-21 -1.27571e-20 -10.2187)
(-1.96612e-22 4.98805e-22 -10.1282)
(-1.12752e-20 1.00938e-18 -10.0544)
(-2.41434e-21 8.18354e-19 5.45356)
(-3.79196e-19 1.31633e-18 2.323)
(4.02718e-19 -4.51639e-18 -1.63493)
(5.92619e-19 -1.86867e-18 -5.00229)
(1.16135e-18 5.83612e-18 -7.50506)
(-1.76817e-18 -1.58576e-18 -8.95228)
(0 -0 -9.7734)
(-3.6652e-18 3.17951e-18 -10.1608)
(3.34015e-18 5.46444e-19 -10.29)
(-2.61349e-18 -2.00016e-17 -10.286)
(3.46874e-18 6.57382e-18 -10.2144)
(-2.22319e-19 2.25543e-17 -10.1109)
(-6.44671e-19 -6.15634e-19 -9.99527)
(-1.31056e-17 -1.86806e-17 -9.87814)
(1.25823e-17 1.28573e-17 -9.76442)
(8.21395e-18 -1.33156e-18 -9.65618)
(-1.32256e-17 -2.28023e-17 -9.5539)
(5.63859e-18 2.41476e-17 -9.45708)
(3.41316e-19 -6.42726e-18 -9.36473)
(0 -0 -9.2756)
(1.30212e-17 -0 -9.18829)
(-1.30503e-17 -0 -9.10132)
(-8.65749e-19 1.27587e-17 -9.01313)
(-1.26297e-17 7.25998e-18 -8.92211)
(1.4467e-17 -3.2806e-17 -8.82654)
(-9.43141e-19 1.27873e-17 -8.72456)
(0 -0 -8.61414)
(1.30216e-17 -0 -8.49295)
(-1.6047e-20 -0 -8.35825)
(-1.42175e-17 1.28745e-17 -8.20669)
(1.4842e-18 3.56272e-18 -8.03391)
(2.84318e-17 -2.93585e-17 -7.83396)
(-4.32634e-17 1.21076e-17 -7.60142)
(2.52347e-17 -1.25536e-18 -7.32978)
(-1.53363e-18 2.74651e-17 -7.03714)
(-5.49594e-17 -4.20387e-17 -6.78486)
(8.48876e-17 -4.88239e-17 -6.6549)
(3.7674e-17 1.85926e-16 -6.72624)
(-1.24902e-16 8.06242e-17 -7.02697)
(-2.92725e-17 -9.15857e-17 -7.55452)
(-2.27353e-17 -1.66114e-18 -8.29569)
(-1.39793e-16 -1.1486e-17 -9.12189)
(-6.40541e-17 2.08639e-16 -10.0326)
(1.08276e-16 7.19688e-17 -11.0263)
(-2.7837e-16 5.05468e-17 -12.0525)
(3.01327e-16 -4.0394e-16 -13.1079)
(7.41814e-17 -2.08114e-16 -14.1723)
(-5.34414e-18 6.22276e-17 -15.223)
(8.97107e-17 -2.01427e-16 -16.2789)
(-3.61615e-18 1.2849e-16 -17.2908)
(-1.09011e-16 4.20384e-16 -18.267)
(1.49219e-17 -1.094e-16 -19.202)
(5.15552e-17 -2.00046e-16 -20.0716)
(9.27194e-17 -2.7705e-16 -20.8866)
(1.88089e-17 -2.45235e-16 -21.6183)
(-1.47986e-18 -8.66461e-17 -22.2721)
(-4.93763e-18 -1.27313e-16 -22.82)
(4.40356e-18 -3.18514e-17 -23.2602)
(-9.47531e-18 3.92488e-17 -23.5546)
(7.96366e-18 3.68327e-17 -23.7109)
(3.83941e-18 7.01315e-18 -23.6819)
(-1.20795e-17 7.50448e-17 -23.4531)
(1.94549e-17 -9.62638e-17 -23.0292)
(2.34408e-17 -4.3233e-17 -22.3964)
(-6.79205e-17 -3.34068e-16 -21.6055)
(-3.01e-17 5.25351e-17 -20.6365)
(-6.63379e-17 -5.32824e-18 -19.5729)
(1.86379e-17 3.61993e-17 -18.402)
(1.52282e-18 -1.46124e-17 -17.1988)
(-5.38894e-17 4.79443e-18 -15.9729)
(1.01387e-17 1.14994e-16 -14.7524)
(1.73106e-16 9.64936e-17 -13.5783)
(-1.41535e-16 -2.09649e-16 -12.4356)
(1.74225e-16 -2.80738e-17 -11.3575)
(3.01928e-17 -1.30324e-16 -10.3447)
(-1.65612e-17 1.42937e-16 -9.3938)
(1.22937e-16 8.32349e-17 -8.51426)
(4.3248e-18 -4.07045e-18 -7.70418)
(1.70352e-16 1.44987e-16 -6.95749)
(6.90885e-17 -1.00849e-16 -6.27539)
(2.10755e-17 -3.62772e-16 -5.65526)
(-2.98619e-17 1.49341e-16 -5.09204)
(8.22997e-17 1.52529e-17 -4.5839)
(5.51759e-17 -1.42181e-16 -4.12763)
(-6.09146e-17 4.30741e-17 -3.71934)
(1.10871e-16 -9.21842e-17 -3.35784)
(-1.82758e-16 1.84556e-17 -3.03927)
(-1.33651e-16 -5.37056e-17 -2.75931)
(-6.36599e-17 8.09794e-17 -2.51829)
(-7.00741e-18 4.47242e-17 -2.3107)
(1.11911e-18 7.10275e-17 -2.13256)
(2.33784e-18 3.26838e-17 -1.98402)
(-2.78752e-17 1.57198e-17 -1.85974)
(2.83572e-17 -4.25746e-17 -1.75657)
(-5.46386e-19 -3.03822e-18 -1.67562)
(-8.65283e-18 3.03549e-17 -1.60988)
(2.41288e-18 -2.68765e-17 -1.5633)
(-3.07808e-18 -6.13673e-17 -1.52894)
(7.75648e-17 5.75807e-18 -1.51105)
(6.77669e-18 3.85696e-17 -1.50401)
(-5.77217e-18 -2.06733e-18 -1.5129)
(8.50036e-18 -1.01807e-17 -1.53293)
(4.01093e-19 6.39466e-18 -1.56808)
(-1.12436e-19 -5.55305e-18 -1.6174)
(-1.82019e-19 -1.25853e-17 -1.68214)
(-1.21536e-17 -6.21144e-18 -1.76495)
(-1.23939e-17 -1.72031e-17 -1.86573)
(-4.74062e-17 -2.37838e-17 -1.98759)
(7.24555e-17 8.75912e-17 -2.13163)
(-5.0421e-17 -3.89233e-17 -2.3001)
(5.24609e-17 -2.10801e-17 -2.4952)
(-6.98713e-19 3.2176e-17 -2.71871)
(1.35998e-18 -3.34737e-17 -2.97421)
(1.08318e-17 3.9529e-18 -3.26038)
(-9.49535e-18 7.04345e-17 -3.58665)
(-4.49438e-19 -3.67926e-17 -3.94527)
(2.55015e-17 8.30928e-17 -4.34642)
(-2.27604e-17 1.85465e-16 -4.78964)
(-1.51e-16 -1.41115e-16 -5.27199)
(5.3639e-18 -1.52637e-16 -5.80079)
(5.65727e-17 2.96774e-16 -6.37477)
(2.94483e-17 -1.04109e-16 -6.98928)
(4.42646e-17 -2.02135e-16 -7.64877)
(-5.50679e-17 -7.25846e-17 -8.35281)
(9.80289e-17 -9.25947e-17 -9.09227)
(-3.14397e-16 3.84076e-16 -9.86998)
(1.64923e-16 -2.5725e-16 -10.6799)
(-1.66223e-16 1.36711e-16 -11.5159)
(5.69171e-17 -3.80853e-16 -12.376)
(1.08896e-16 -4.18512e-16 -13.2539)
(1.03308e-16 -2.03502e-16 -14.1297)
(-3.65522e-17 -7.29766e-17 -15.0187)
(1.22637e-16 -3.82427e-16 -15.9068)
(2.33255e-16 -2.35144e-16 -16.758)
(-8.23006e-17 5.39324e-17 -17.6101)
(2.12626e-17 -6.12457e-17 -18.4356)
(7.11129e-17 -1.67497e-16 -19.1856)
(3.0978e-17 -9.78095e-17 -19.938)
(-2.12974e-17 5.27987e-17 -20.5992)
(9.7469e-18 -5.18004e-17 -21.2174)
(-7.16083e-17 2.50299e-16 -21.7636)
(2.77643e-17 6.90046e-18 -22.2347)
(-4.06095e-18 9.01778e-19 -22.6287)
(-1.28173e-17 5.84454e-17 -22.9422)
(-3.85295e-17 2.21077e-16 -23.1459)
(-2.95189e-19 -1.87922e-18 -23.2685)
(6.70917e-18 -1.07235e-16 -23.2343)
(-3.23151e-18 6.85759e-17 -23.0917)
(-1.76397e-18 -4.23352e-17 -22.7682)
(1.05161e-17 1.21587e-16 -22.2685)
(5.11615e-18 6.02172e-17 -21.5896)
(-2.25697e-17 -1.26169e-16 -20.7059)
(-3.41917e-17 -2.11475e-16 -19.6544)
(1.37933e-17 6.44225e-17 -18.4254)
(-3.80402e-17 -1.71945e-16 -17.0698)
(2.37449e-17 7.45465e-17 -15.6109)
(6.09029e-18 2.09571e-17 -14.0961)
(1.73611e-17 5.05461e-17 -12.5621)
(-5.2961e-18 -1.52884e-17 -11.0654)
(2.66232e-17 6.09309e-17 -9.68547)
(-6.94758e-18 -2.91068e-17 -8.52871)
(-3.39861e-19 2.17887e-17 -7.72447)
(3.79761e-18 8.1253e-18 -7.22683)
(7.14764e-18 2.23285e-17 -6.94974)
(-9.99182e-19 4.66298e-19 -6.85435)
(1.99223e-18 1.56419e-17 -6.92241)
(-3.93532e-18 -2.26668e-17 -7.12156)
(1.27357e-18 -2.3084e-19 -7.39516)
(1.26823e-18 -1.18532e-18 -7.68938)
(3.67953e-19 5.15234e-19 -7.97262)
(3.26235e-19 1.52438e-17 -8.23387)
(5.66217e-20 -1.84498e-18 -8.47381)
(2.19795e-18 1.35589e-19 -8.69391)
(-2.20131e-18 8.71827e-19 -8.89445)
(-1.33503e-19 -1.96854e-18 -9.07552)
(-1.80494e-18 -2.22836e-17 -9.23734)
(2.68627e-18 2.29074e-17 -9.38022)
(-7.59534e-19 1.94459e-17 -9.50457)
(-3.2778e-19 -2.28478e-17 -9.61088)
(5.61217e-20 8.19407e-19 -9.69975)
(-4.89407e-19 1.10272e-18 -9.77189)
(3.98916e-19 1.92729e-19 -9.82812)
(1.36436e-19 9.8697e-18 -9.86929)
(4.99644e-19 -4.46286e-19 -9.89636)
(-5.17452e-19 -1.21444e-17 -9.9103)
(-2.81312e-19 -2.961e-18 -9.91213)
(3.30811e-19 -1.03869e-18 -9.90291)
(-2.3125e-19 1.13607e-18 -9.88366)
(2.27777e-19 -4.00319e-20 -9.85543)
(-7.15818e-20 -1.16245e-18 -9.81922)
(1.60864e-19 -5.29955e-18 -9.77604)
(3.89442e-20 4.37059e-18 -9.72689)
(-1.08805e-19 5.1824e-18 -9.67271)
(6.6745e-20 -6.3845e-18 -9.61437)
(4.34106e-21 4.79048e-20 -9.55273)
(3.25576e-21 -1.50866e-18 -9.48854)
(3.18259e-20 -2.56395e-18 -9.42245)
(2.10133e-20 -1.25132e-18 -9.35495)
(-7.22044e-21 1.26503e-18 -9.28547)
(1.23581e-20 -1.01511e-18 -9.22642)
(0 -0 3.61439)
(8.71703e-19 -0 3.04634)
(-8.50247e-19 -1.56997e-18 1.88274)
(6.75469e-19 -2.90417e-18 0.0370563)
(-6.84831e-19 6.04175e-18 -1.71929)
(2.31243e-20 -1.56762e-18 -3.27948)
(3.24043e-18 -0 -4.57406)
(-3.24522e-18 -0 -5.50457)
(1.78401e-19 -0 -6.16638)
(-3.9681e-19 -0 -6.63665)
(-6.80122e-18 6.16309e-18 -6.95408)
(6.23757e-18 9.72264e-18 -7.16761)
(7.65367e-18 -1.59139e-17 -7.31239)
(-8.65367e-19 9.19111e-18 -7.41039)
(1.15288e-18 -3.0441e-17 -7.47607)
(-7.28521e-18 3.36267e-17 -7.51953)
(-7.19271e-18 2.30022e-18 -7.54773)
(7.62991e-18 -2.08269e-17 -7.56521)
(-3.28079e-19 6.178e-18 -7.57494)
(7.03283e-18 -1.2281e-17 -7.57887)
(-6.2359e-18 -1.54751e-17 -7.57815)
(-1.60781e-18 4.00645e-17 -7.57337)
(-3.31177e-20 -4.70862e-20 -7.56473)
(9.69552e-19 1.43126e-17 -7.55213)
(1.33119e-17 -3.88621e-17 -7.53521)
(-1.34805e-17 1.22882e-17 -7.51336)
(-1.15672e-17 -1.22814e-17 -7.48575)
(1.26057e-18 -2.46584e-17 -7.45126)
(2.31819e-17 2.52073e-17 -7.40841)
(-1.50375e-17 3.64213e-17 -7.35531)
(2.81029e-18 -1.44148e-17 -7.28938)
(-1.0248e-17 -4.45376e-17 -7.20687)
(9.56792e-18 3.49972e-17 -7.10516)
(1.41068e-17 -1.88485e-17 -6.98276)
(-1.76929e-17 4.40302e-17 -6.84062)
(2.72176e-17 -3.04752e-18 -6.68063)
(-9.99085e-17 -9.64745e-17 -6.53173)
(-8.18037e-17 -1.58015e-16 -6.46608)
(1.43803e-16 -1.7539e-17 -6.52344)
(4.75412e-17 1.11281e-16 -6.70371)
(-2.32887e-17 1.65218e-16 -6.98514)
(-8.70745e-18 2.38094e-16 -7.3072)
(1.80874e-16 -5.72897e-16 -7.69647)
(4.36973e-17 -2.90278e-16 -8.15862)
(1.83831e-17 2.25333e-16 -8.67368)
(-8.19294e-17 -1.04618e-16 -9.23715)
(-1.73403e-16 2.12432e-16 -9.8301)
(-4.42468e-17 -2.77107e-17 -10.4574)
(-1.61215e-16 1.95609e-16 -11.1136)
(-3.06288e-17 -1.37636e-16 -11.7682)
(1.91845e-16 -1.80606e-16 -12.4505)
(-4.33898e-17 3.08819e-17 -13.1315)
(-1.01949e-16 3.84795e-16 -13.82)
(-1.2129e-16 1.87991e-16 -14.5075)
(-6.48945e-17 2.43999e-16 -15.1964)
(-2.9239e-17 1.24042e-16 -15.8822)
(-3.72084e-17 -9.07065e-18 -16.5548)
(-4.25048e-18 -4.33196e-17 -17.2171)
(2.95034e-18 -3.3752e-17 -17.8252)
(6.58708e-18 -5.41873e-17 -18.4012)
(-9.78438e-18 -3.454e-17 -18.8835)
(1.90976e-17 -1.12487e-17 -19.2519)
(-3.70244e-17 -1.36855e-16 -19.4835)
(1.08301e-17 5.13584e-17 -19.5398)
(1.62539e-17 4.40776e-16 -19.442)
(9.09061e-17 1.9806e-16 -19.1469)
(-2.35976e-18 3.27251e-17 -18.7103)
(9.54922e-18 -1.00396e-17 -18.108)
(-3.54466e-17 4.24857e-17 -17.399)
(8.24518e-17 1.69192e-16 -16.5935)
(1.78388e-17 -1.01415e-16 -15.7178)
(-6.18495e-17 -2.42858e-16 -14.8192)
(4.35007e-17 2.39363e-16 -13.8918)
(-8.00538e-17 -2.41194e-16 -12.9737)
(-7.44645e-17 1.11606e-16 -12.0757)
(3.50502e-18 -5.87005e-17 -11.2015)
(1.63166e-17 -1.45096e-16 -10.3665)
(-4.26239e-18 -2.5285e-17 -9.57564)
(8.79647e-17 -2.26499e-16 -8.82806)
(8.42618e-17 -9.72302e-17 -8.12851)
(-2.69533e-16 2.53663e-16 -7.47867)
(-3.44056e-17 3.1406e-17 -6.87634)
(4.23398e-17 -1.63402e-16 -6.32239)
(-6.65659e-17 1.11317e-16 -5.81588)
(-5.81635e-20 -7.11247e-17 -5.35421)
(-1.45719e-16 1.50677e-16 -4.93815)
(1.49897e-16 3.03677e-16 -4.56537)
(1.08051e-17 6.39721e-17 -4.23082)
(-4.41288e-17 -1.53541e-16 -3.93666)
(-1.72665e-16 -2.65334e-18 -3.67763)
(-2.57711e-17 1.36014e-17 -3.44836)
(1.38699e-18 5.23597e-19 -3.25006)
(2.79983e-17 -1.10064e-17 -3.07753)
(-3.86954e-18 -3.22225e-17 -2.9258)
(-4.9857e-17 8.31847e-18 -2.79884)
(-2.07689e-18 2.9365e-17 -2.68704)
(2.4051e-17 -1.32315e-17 -2.59768)
(-7.6315e-17 -1.18891e-17 -2.52187)
(-4.46546e-17 1.34617e-18 -2.4664)
(-2.09972e-18 2.33843e-17 -2.42365)
(1.10541e-17 -3.91692e-18 -2.4006)
(-1.09379e-17 9.17338e-18 -2.39098)
(7.28505e-18 -1.08241e-18 -2.39865)
(5.63358e-20 -1.04499e-18 -2.42179)
(-9.77264e-22 1.16454e-17 -2.46003)
(-2.3479e-17 1.88262e-17 -2.51489)
(9.11517e-19 2.43885e-17 -2.58448)
(-2.34221e-17 -6.67266e-17 -2.66995)
(-2.21777e-17 -4.62143e-17 -2.7707)
(4.50552e-17 1.03211e-16 -2.88696)
(-1.85627e-18 -2.85907e-17 -3.01903)
(5.96765e-19 -6.58439e-19 -3.16714)
(4.28977e-19 3.00376e-17 -3.33302)
(-3.43036e-17 1.76624e-17 -3.51459)
(4.70356e-17 4.82929e-18 -3.71898)
(1.37608e-18 -2.61394e-17 -3.93948)
(-5.948e-17 -2.01257e-16 -4.18414)
(1.06977e-16 -5.89403e-17 -4.45302)
(4.8028e-17 3.90678e-16 -4.74438)
(-1.23514e-16 -4.97556e-17 -5.06451)
(1.83228e-16 -2.12255e-16 -5.41375)
(-1.56265e-18 -1.15765e-16 -5.78992)
(-1.3328e-16 2.57864e-16 -6.19777)
(-1.52776e-16 2.47946e-16 -6.63806)
(-1.70231e-16 6.45881e-17 -7.10606)
(1.69926e-16 8.69553e-17 -7.60478)
(-3.35857e-17 2.99518e-17 -8.13114)
(4.91771e-17 8.61317e-17 -8.68187)
(-2.15651e-16 3.39233e-16 -9.2554)
(-2.36402e-16 2.29992e-16 -9.8476)
(-1.83919e-16 1.95756e-16 -10.4468)
(-5.72844e-18 7.51215e-19 -11.0601)
(-2.63776e-16 3.66285e-16 -11.6795)
(-2.61174e-17 -1.1547e-16 -12.2814)
(-8.44778e-17 1.88132e-16 -12.8886)
(-3.44068e-17 3.90971e-17 -13.4813)
(-2.04864e-17 -4.6293e-17 -14.0389)
(-1.25354e-16 2.80931e-16 -14.5985)
(3.17856e-17 -6.47194e-17 -15.1153)
(-1.129e-16 3.38648e-16 -15.6136)
(1.98061e-16 -6.23773e-16 -16.0843)
(1.40839e-16 -5.37829e-16 -16.5283)
(6.71117e-17 -2.88692e-16 -16.9524)
(5.59846e-18 6.73448e-18 -17.3552)
(-8.51156e-18 9.4741e-17 -17.7326)
(2.51623e-18 4.27432e-18 -18.0904)
(1.60747e-18 -3.71869e-17 -18.4011)
(-4.43098e-18 1.18935e-16 -18.6744)
(1.48705e-18 -6.60513e-17 -18.8607)
(3.134e-18 1.36203e-16 -18.9463)
(-9.70972e-18 -1.02139e-16 -18.9069)
(2.70187e-18 -2.97584e-18 -18.7089)
(3.90797e-17 2.22906e-16 -18.3505)
(-1.78779e-17 -9.17939e-17 -17.8043)
(3.36667e-17 1.44187e-16 -17.0872)
(8.15502e-18 4.08375e-17 -16.2026)
(-4.71961e-17 -1.87047e-16 -15.1816)
(9.45374e-18 3.03592e-17 -14.0493)
(-2.2364e-19 -1.87709e-18 -12.8633)
(-2.71068e-17 -8.56898e-17 -11.7037)
(-2.30628e-18 4.54075e-18 -10.6402)
(3.21433e-18 -1.35578e-19 -9.77281)
(9.40262e-19 -1.52125e-18 -9.15405)
(-2.39535e-18 -2.42124e-17 -8.74182)
(-4.71479e-19 9.35242e-19 -8.49437)
(8.12678e-19 -3.22013e-18 -8.38116)
(-9.94678e-20 1.72069e-17 -8.36069)
(-2.84591e-18 -1.70088e-17 -8.39049)
(-2.3935e-18 -2.02567e-17 -8.44173)
(1.00094e-18 -2.61577e-18 -8.4953)
(2.36352e-18 2.21607e-17 -8.54316)
(-6.91396e-19 -5.25543e-18 -8.58631)
(-1.90655e-18 -2.44091e-17 -8.62675)
(1.90877e-18 2.62898e-17 -8.66506)
(4.15267e-19 2.98202e-18 -8.70116)
(-2.00141e-18 2.82829e-18 -8.73482)
(1.76693e-18 -7.77794e-19 -8.76567)
(1.4028e-19 -2.77539e-17 -8.79326)
(8.8128e-20 2.90465e-17 -8.81709)
(-2.0819e-19 -6.21036e-19 -8.83665)
(4.90805e-19 4.0648e-18 -8.85153)
(-3.12215e-19 -1.41103e-19 -8.86137)
(1.69615e-20 -4.32126e-18 -8.8659)
(2.22479e-19 -1.44478e-17 -8.86498)
(-5.19053e-19 1.49734e-17 -8.85856)
(2.47715e-20 2.94003e-18 -8.8467)
(-5.78587e-20 -4.12859e-18 -8.82955)
(-5.61549e-20 1.93998e-19 -8.80736)
(2.07644e-20 1.44001e-17 -8.78044)
(-5.49897e-20 -1.4679e-17 -8.74916)
(-1.17904e-19 -3.90617e-18 -8.71391)
(2.51112e-19 -7.05674e-18 -8.67514)
(-1.35234e-19 7.13091e-18 -8.6333)
(3.98039e-20 -7.05168e-18 -8.58884)
(-9.01175e-20 7.06554e-18 -8.54218)
(-7.45088e-21 3.00416e-18 -8.4937)
(-7.67379e-20 3.41543e-18 -8.44375)
(2.16348e-20 -1.73608e-18 -8.3925)
(9.69587e-20 -5.46259e-18 -8.33842)
(-1.92476e-21 6.70976e-21 -8.28384)
(0 -0 2.35069)
(0 -0 2.34934)
(1.40742e-20 -1.59018e-18 2.12611)
(5.89218e-19 -2.84094e-18 1.53317)
(-6.15384e-19 6.01056e-18 0.779367)
(7.75492e-20 -4.64419e-18 -0.201356)
(4.22168e-18 -6.21404e-18 -1.13315)
(-7.64517e-18 1.53825e-17 -1.98493)
(2.65171e-18 1.21853e-19 -2.73798)
(1.51356e-18 -1.84636e-17 -3.39235)
(-8.90267e-19 1.52758e-17 -3.88883)
(6.64527e-18 -3.03778e-18 -4.29184)
(-1.26408e-17 -6.01558e-18 -4.62474)
(1.37104e-17 -1.7712e-17 -4.89356)
(-1.39914e-17 1.82128e-17 -5.11143)
(5.3673e-18 2.89209e-17 -5.29077)
(1.61121e-18 -2.94213e-17 -5.44054)
(-6.42319e-19 6.0152e-18 -5.56706)
(3.34433e-19 -5.96619e-18 -5.67532)
(6.41492e-18 -1.07682e-17 -5.76932)
(-7.86633e-18 2.2712e-17 -5.85185)
(1.12602e-18 -5.97764e-18 -5.92501)
(-1.30611e-17 1.1879e-17 -5.99045)
(1.34169e-17 8.32714e-18 -6.04935)
(1.88621e-18 -6.37845e-17 -6.10256)
(-4.06813e-18 6.73361e-17 -6.15063)
(-7.12493e-19 1.88892e-17 -6.19383)
(1.8906e-18 -3.61484e-17 -6.23219)
(-9.47632e-18 -4.80868e-17 -6.26545)
(8.0712e-18 6.53987e-17 -6.29304)