/*--------------------------------*- C++ -*----------------------------------*\
| =========                 |                                                 |
| \\      /  F ield         | OpenFOAM: The Open Source CFD Toolbox           |
|  \\    /   O peration     | Version:  2506                                  |
|   \\  /    A nd           | Website:  www.openfoam.com                      |
|    \\/     M anipulation  |                                                 |
\*---------------------------------------------------------------------------*/
FoamFile
{
    version     2.0;
    format      ascii;
    arch        "LSB;label=32;scalar=64";
    class       volScalarField;
    location    "1.36063";
    object      s;
}
// * * * * * * * * * * * * * * * * * * * * * * * * * * * * * * * * * * * * * //

dimensions      [0 0 0 0 0 0 0];

internalField   nonuniform List<scalar> 
4000
(
1.77701e-17
-5.52026e-17
-1.28549e-16
-9.85321e-12
-9.57409e-10
2.42245e-08
3.553e-06
9.23938e-05
0.0011238
0.0126394
0.0853587
0.22976
0.314836
0.317119
0.271693
0.162708
0.0539688
0.00905148
0.00391687
0.00306207
0.00214591
0.00140912
0.000902994
0.000583377
0.000385336
0.000259673
0.000176927
0.000115043
6.62209e-05
3.61431e-05
1.46188e-05
8.06341e-06
4.90469e-06
3.44009e-06
2.92073e-06
2.28023e-06
3.5857e-07
-1.86191e-06
-4.0077e-06
-6.46378e-06
-9.7223e-06
-8.09092e-06
-6.27247e-06
-6.27116e-06
-7.83939e-06
-9.73068e-06
-1.10683e-05
-1.27196e-05
-1.33997e-05
-1.35828e-05
-1.34393e-05
-1.27206e-05
-1.17001e-05
-1.01537e-05
-8.30512e-06
-6.34411e-06
-4.49864e-06
-2.92225e-06
-1.68616e-06
-8.63573e-07
-3.78267e-07
-1.44062e-07
-4.87709e-08
-1.5379e-08
-5.83879e-09
-3.32808e-09
-2.45995e-09
-1.71624e-09
-1.06487e-09
-5.72657e-10
-2.69238e-10
-1.12488e-10
-4.1891e-11
-1.413e-11
-4.33972e-12
-1.21595e-12
-3.14098e-13
-7.55161e-14
-1.74419e-14
-3.9408e-15
-1.06527e-15
-3.10337e-16
-8.903e-17
-2.23371e-17
-5.7369e-18
6.67651e-18
1.31508e-18
4.33539e-19
5.61765e-19
8.73963e-19
7.99644e-19
3.2112e-19
3.36636e-20
2.35015e-20
9.52042e-21
-8.96272e-21
-8.68566e-20
-2.23582e-19
-2.92708e-19
-3.46307e-19
-7.07048e-19
-5.81247e-19
-1.38714e-18
-3.35933e-18
-5.09645e-18
-7.79456e-18
-1.0078e-17
-1.16604e-17
3.07487e-18
3.98192e-17
1.13049e-16
2.33324e-16
3.98559e-16
4.63169e-16
3.45313e-16
2.22797e-16
3.03091e-17
-6.73987e-17
-1.18854e-16
-1.55975e-16
-1.52955e-16
-1.09978e-16
-6.81205e-17
-3.48401e-17
-1.75732e-17
-6.55669e-18
-1.0566e-18
-3.00576e-19
3.1583e-18
2.9203e-18
1.76202e-18
8.63973e-19
3.91967e-19
1.11756e-19
2.12622e-20
-8.83044e-21
-5.37257e-20
-5.79278e-20
-4.83105e-20
-2.88328e-20
-1.16159e-20
-1.15913e-21
4.33921e-21
5.99023e-21
5.0587e-21
2.375e-21
-3.59878e-23
-1.37552e-21
-1.46238e-21
-8.36974e-22
-1.99858e-22
8.56553e-23
9.9148e-23
3.52341e-23
1.71721e-24
-3.9285e-24
-1.84763e-24
-2.45632e-25
-7.92642e-26
-3.37251e-25
4.58192e-26
5.91118e-26
-5.12967e-26
-5.75242e-25
-1.78188e-24
-3.62341e-24
-6.40375e-24
-9.82853e-24
-1.26542e-23
-9.28686e-24
-5.84484e-24
-2.92882e-24
-1.09238e-24
-2.83987e-25
-4.55233e-26
-2.74277e-27
1.7637e-28
-9.66782e-30
5.05417e-31
7.12437e-32
6.30878e-32
5.65118e-32
4.89661e-32
4.15987e-32
2.68823e-32
9.21097e-33
-7.22129e-33
-1.58247e-32
-1.3879e-32
-4.76082e-33
7.88518e-35
1.80448e-36
-6.96664e-37
-2.0413e-37
-6.23933e-38
9.11502e-40
1.52228e-38
1.29804e-38
8.00685e-39
2.16128e-39
6.86992e-18
-4.17617e-18
-5.22749e-17
-1.83011e-13
6.42856e-12
4.08355e-09
2.72595e-07
7.70762e-06
9.5921e-05
0.000746287
0.00363728
0.0103426
0.019456
0.025193
0.0292645
0.0330491
0.0377308
0.0466826
0.0600547
0.0786723
0.108157
0.156262
0.2252
0.299238
0.335168
0.335011
0.313373
0.252982
0.15998
0.0717301
0.0290939
0.0174026
0.0137816
0.0139184
0.0150511
0.0151525
0.013196
0.0114837
0.012827
0.0176469
0.0261179
0.0339063
0.0375293
0.0381217
0.0361976
0.033085
0.0299552
0.0257831
0.0220277
0.0181729
0.0140695
0.0107531
0.00781941
0.00556467
0.00384159
0.0025664
0.00163778
0.000982049
0.000561658
0.000297573
0.000148027
6.92753e-05
3.00227e-05
1.14474e-05
2.78062e-06
-8.56282e-07
-1.85882e-06
-1.7547e-06
-1.2478e-06
-7.11597e-07
-3.41447e-07
-1.42035e-07
-5.21946e-08
-1.70848e-08
-5.01365e-09
-1.32085e-09
-3.1201e-10
-6.7453e-11
-1.49181e-11
-3.95661e-12
-1.54883e-12
-6.09046e-13
-2.2101e-13
-6.38275e-14
-1.45958e-14
-2.75954e-15
-4.90162e-16
-1.09981e-16
-3.31643e-17
-9.82717e-18
-2.49961e-18
1.22447e-18
6.51124e-18
1.18612e-18
2.68179e-18
4.10542e-18
2.43386e-18
-2.49087e-18
-5.23505e-19
5.78983e-18
1.12561e-17
-9.25839e-18
-6.68442e-17
-1.73961e-16
-2.63621e-16
-2.56732e-16
9.77715e-16
5.77143e-15
1.57598e-14
3.23672e-14
5.56944e-14
8.49972e-14
1.17009e-13
1.2599e-13
1.08329e-13
8.43156e-14
4.63897e-14
2.62523e-14
1.25615e-14
2.26817e-16
-6.30238e-15
-6.58043e-15
-4.6916e-15
-2.84016e-15
-1.52163e-15
-7.48401e-16
-3.45007e-16
-1.48619e-16
-6.69032e-17
-2.42429e-17
-6.78316e-19
9.41906e-18
1.67298e-17
1.96324e-17
1.86025e-17
1.88456e-17
1.42531e-17
9.33883e-18
5.70127e-18
3.12081e-18
1.24643e-18
-2.53995e-20
-6.72993e-19
-7.70701e-19
-5.43999e-19
-2.21377e-19
2.01865e-20
1.26081e-19
1.20206e-19
6.12587e-20
7.0344e-21
-1.48132e-20
-1.1918e-20
-3.51883e-21
5.91266e-22
9.30552e-22
3.63782e-22
5.45605e-23
-1.66715e-24
-1.50264e-24
-4.13775e-24
-1.12615e-23
-1.14881e-23
3.4234e-23
1.85895e-22
4.8827e-22
8.35572e-22
1.27493e-21
1.1707e-21
7.18079e-22
3.31098e-22
1.13799e-22
2.64827e-23
2.54645e-24
-7.99416e-25
-3.90496e-25
-6.79498e-26
-1.93839e-27
2.92488e-28
8.26856e-29
7.26364e-29
6.34172e-29
5.94012e-29
5.70934e-29
5.51053e-29
4.67222e-29
2.99207e-29
1.47952e-29
5.38559e-30
1.24154e-30
1.01406e-31
-4.35961e-33
8.47058e-34
3.66272e-34
9.77361e-35
-1.03704e-37
-1.64352e-35
-1.19599e-35
-6.01443e-36
-1.35436e-36
-4.2944e-18
2.39926e-17
-7.68432e-17
-5.17985e-15
1.96627e-12
3.23863e-10
1.09266e-08
4.73152e-10
4.50819e-08
4.86628e-07
1.53988e-06
3.79336e-06
7.43249e-06
1.17869e-05
2.54401e-05
8.66641e-05
0.00110761
0.00282995
0.00490176
0.00775637
0.0121341
0.019242
0.030647
0.047414
0.0676614
0.090198
0.118683
0.152462
0.18793
0.224284
0.269178
0.310055
0.317622
0.30638
0.284413
0.252284
0.212049
0.19009
0.190427
0.204041
0.225432
0.243912
0.255461
0.261869
0.264041
0.263331
0.261457
0.257311
0.252428
0.246582
0.238876
0.229876
0.217173
0.20264
0.184621
0.164079
0.141046
0.115243
0.0896527
0.06477
0.0447693
0.0297231
0.0190179
0.0118603
0.00708901
0.00410977
0.0022567
0.00118124
0.000585232
0.000276679
0.000125806
5.52118e-05
2.33723e-05
9.51873e-06
3.70688e-06
1.37253e-06
4.74627e-07
1.49342e-07
4.03333e-08
8.22922e-09
4.95615e-10
-5.69909e-10
-3.65009e-10
-1.38139e-10
-3.76512e-11
-8.31972e-12
-1.74337e-12
-4.51199e-13
-1.55832e-13
-4.86444e-14
-1.44942e-14
-4.04737e-15
-1.05142e-15
-2.21986e-16
3.96329e-17
2.42218e-16
1.15667e-15
2.62224e-15
4.45536e-15
6.41964e-15
1.39945e-14
1.62406e-14
2.14964e-14
4.27911e-14
1.0324e-13
2.33037e-13
5.25676e-13
1.20843e-12
2.29177e-12
3.80964e-12
5.53577e-12
7.34507e-12
9.12883e-12
9.59028e-12
8.65987e-12
7.18128e-12
4.83977e-12
3.4787e-12
2.47016e-12
1.48984e-12
7.5509e-13
3.64746e-13
1.71864e-13
7.59614e-14
2.97122e-14
9.52752e-15
1.7866e-15
-6.36238e-16
-1.08075e-15
-9.47508e-16
-7.05552e-16
-4.95247e-16
-3.04903e-16
-1.53023e-16
-6.96903e-17
-8.74629e-18
1.56337e-17
2.5736e-17
3.20326e-17
3.65442e-17
3.93534e-17
3.89317e-17
3.38037e-17
2.48479e-17
1.38036e-17
4.04589e-18
-1.62202e-18
-3.29332e-18
-2.47481e-18
-8.87902e-19
2.70166e-19
6.36296e-19
4.27496e-19
1.18408e-19
-3.72393e-20
-5.06779e-20
-2.20335e-20
-4.28777e-21
5.31348e-23
1.30718e-22
-1.67218e-23
2.47094e-22
1.52297e-21
4.70089e-21
1.01007e-20
1.46171e-20
1.4881e-20
1.23904e-20
8.62645e-21
5.55802e-21
3.32481e-21
1.74831e-21
7.65756e-22
2.65686e-22
6.8052e-23
1.07641e-23
1.23355e-25
-4.41327e-25
-1.22518e-25
-3.29441e-26
-1.57975e-26
-9.77137e-27
-7.03686e-27
-5.13597e-27
-3.21035e-27
-1.64536e-27
-6.1645e-28
-1.00914e-28
6.54745e-29
6.7375e-29
3.00025e-29
5.43464e-30
-3.39214e-31
-1.91877e-31
-4.36051e-32
-5.00823e-34
5.12553e-33
3.35514e-33
1.52834e-33
3.49429e-34
-1.29893e-17
4.93414e-17
-1.41398e-16
6.48652e-17
2.83492e-13
1.99992e-11
4.40709e-11
-2.02176e-09
-1.86315e-08
-1.21141e-07
-4.4559e-07
-8.7867e-07
-1.06546e-06
-8.25247e-07
-2.99031e-07
4.08505e-07
1.95064e-06
3.20405e-06
5.52471e-06
1.0703e-05
2.30072e-05
5.25788e-05
0.000122716
0.000285172
0.000652602
0.00156395
0.0050849
0.0123417
0.0248621
0.0428722
0.068879
0.107473
0.152619
0.20502
0.258422
0.305929
0.341051
0.348273
0.34756
0.34704
0.34539
0.344798
0.346668
0.350965
0.358103
0.367413
0.378099
0.390523
0.403066
0.415326
0.427252
0.436769
0.443598
0.448653
0.450236
0.44771
0.438475
0.419749
0.391593
0.348338
0.297516
0.241573
0.184754
0.131745
0.0861045
0.0533673
0.0316868
0.0184561
0.0106496
0.00610635
0.00347795
0.00194295
0.00105528
0.000557288
0.000285707
0.000142886
6.96025e-05
3.25718e-05
1.45169e-05
6.11711e-06
2.43346e-06
9.03394e-07
3.0928e-07
9.60787e-08
2.59457e-08
5.53101e-09
5.6058e-10
-2.52814e-10
-2.125e-10
-8.95217e-11
-3.42559e-11
-1.14062e-11
-3.48058e-12
-9.97168e-13
-2.69565e-13
-6.52409e-14
-6.52853e-15
3.22474e-14
1.59154e-13
4.90167e-13
9.66552e-13
1.81486e-12
3.82494e-12
7.73029e-12
1.44652e-11
2.58967e-11
4.4405e-11
7.29734e-11
1.09343e-10
1.48258e-10
1.8873e-10
2.24546e-10
2.54363e-10
2.66759e-10
2.57466e-10
2.32932e-10
2.0219e-10
1.61463e-10
1.2766e-10
9.31357e-11
6.27508e-11
4.12602e-11
2.62231e-11
1.59167e-11
9.15829e-12
5.02536e-12
2.6478e-12
1.34717e-12
6.67196e-13
3.23948e-13
1.54412e-13
7.3141e-14
3.33615e-14
1.32294e-14
2.18806e-15
-3.77117e-15
-3.85931e-15
-3.15313e-15
-2.378e-15
-1.7097e-15
-1.1883e-15
-8.00767e-16
-5.22415e-16
-3.24013e-16
-1.32283e-16
-5.71141e-19
4.91946e-17
4.63365e-17
2.00297e-17
-4.40261e-18
-1.45686e-17
-1.386e-17
-7.75564e-18
-2.06384e-18
6.904e-19
1.02178e-18
5.0125e-19
1.11193e-19
-6.93879e-21
-1.13175e-20
-2.65098e-21
3.05243e-21
1.10672e-20
1.85287e-20
2.55156e-21
-4.84853e-20
-1.03804e-19
-1.23983e-19
-1.01476e-19
-6.37854e-20
-3.19102e-20
-1.24096e-20
-3.32994e-21
-2.62595e-22
3.0528e-22
2.06735e-22
7.66435e-23
1.86691e-23
2.54685e-24
-1.99473e-25
-3.45997e-25
-2.61445e-25
-2.00133e-25
-1.5e-25
-1.05307e-25
-6.76124e-26
-3.88913e-26
-1.95505e-26
-8.28272e-27
-2.74562e-27
-5.76602e-28
6.09309e-30
4.46129e-29
1.54164e-29
2.31241e-30
-7.06304e-31
-7.70346e-31
-4.01906e-31
-1.58054e-31
-3.05522e-32
-5.43894e-18
1.83462e-17
-3.41581e-17
1.77018e-17
2.62385e-14
2.05864e-12
-4.89508e-12
-1.53222e-10
-1.2163e-09
-8.13851e-09
-3.70619e-08
-7.24547e-08
-8.03307e-08
-6.34184e-08
-3.30128e-08
1.87721e-08
2.19048e-08
2.13881e-08
7.0038e-08
1.92865e-07
4.56711e-07
1.03696e-06
2.34847e-06
5.35462e-06
1.2281e-05
2.84333e-05
6.57378e-05
0.000149814
0.000337381
0.000755066
0.00194226
0.00647706
0.0161169
0.0335281
0.0591317
0.0888086
0.116218
0.138102
0.153574
0.163374
0.165005
0.16398
0.165058
0.169562
0.178396
0.191226
0.206857
0.2262
0.248136
0.272841
0.300512
0.330547
0.364827
0.399616
0.427644
0.448539
0.469266
0.488805
0.503757
0.518462
0.515913
0.50065
0.471273
0.424484
0.358881
0.285748
0.212567
0.147987
0.0958168
0.0597668
0.0363417
0.0219752
0.0133322
0.00811825
0.00492602
0.00298727
0.00176296
0.000996727
0.0005371
0.000275632
0.00013567
6.32455e-05
2.74636e-05
1.10062e-05
4.04261e-06
1.34141e-06
3.89512e-07
9.07159e-08
1.13376e-08
-3.79307e-09
-3.89463e-09
-1.84183e-09
-6.61829e-10
-2.55021e-10
-8.71698e-11
-2.8e-11
-9.16546e-12
-4.35334e-12
-5.59614e-12
2.74639e-12
4.40727e-12
8.89994e-13
1.70531e-11
5.21526e-11
1.11793e-10
2.09793e-10
3.55019e-10
5.51943e-10
7.89602e-10
9.70376e-10
1.18458e-09
1.39753e-09
1.59264e-09
1.68611e-09
1.61508e-09
1.42321e-09
1.19986e-09
1.01436e-09
8.29672e-10
6.66933e-10
5.13322e-10
3.8143e-10
2.71279e-10
1.83811e-10
1.18864e-10
7.38456e-11
4.42964e-11
2.57317e-11
1.44751e-11
7.82536e-12
3.95352e-12
1.79756e-12
6.82795e-13
1.71611e-13
-2.23527e-14
-6.89301e-14
-6.36308e-14
-4.67977e-14
-3.32554e-14
-2.413e-14
-1.77163e-14
-1.27434e-14
-8.72527e-15
-5.52172e-15
-3.2366e-15
-1.72984e-15
-8.30399e-16
-3.39621e-16
-1.31852e-17
2.06235e-16
2.27473e-16
1.63385e-16
8.19847e-17
2.24289e-17
-3.90078e-18
-7.43347e-18
-3.39156e-18
-1.89455e-19
6.04872e-19
3.76341e-19
1.18476e-19
3.11176e-20
-2.73503e-20
-2.59239e-19
-7.05416e-19
-1.1044e-18
-1.25898e-18
-1.10527e-18
-8.13323e-19
-5.32897e-19
-3.15616e-19
-1.67763e-19
-7.8584e-20
-3.15369e-20
-1.03253e-20
-2.44421e-21
-2.05216e-22
1.68521e-22
1.22429e-22
5.49793e-23
2.17425e-23
9.06462e-24
4.26556e-24
2.13113e-24
1.02543e-24
4.33638e-25
1.36984e-25
9.21379e-27
-3.00298e-26
-3.04151e-26
-1.93342e-26
-9.07443e-27
-3.00574e-27
-6.0371e-28
1.81123e-29
8.81067e-29
5.16874e-29
2.03441e-29
5.82969e-30
2.54603e-31
1.06707e-18
-3.20165e-18
1.2468e-18
-9.98494e-17
7.66473e-16
-2.38672e-14
-5.08146e-12
-2.82771e-11
-1.88748e-10
-1.04336e-09
-2.59969e-09
-2.74668e-09
-2.5644e-09
-1.65099e-09
-1.31059e-09
-4.78246e-10
-4.42651e-10
-1.40343e-09
-1.58662e-09
-2.94426e-10
4.27239e-09
1.76105e-08
5.42123e-08
1.5047e-07
3.95522e-07
1.01233e-06
2.46382e-06
5.90127e-06
1.3965e-05
3.30711e-05
7.98315e-05
0.000195575
0.000456145
0.0010814
0.00315171
0.00720161
0.0123496
0.017462
0.0216243
0.024493
0.0255383
0.0260452
0.0269603
0.0286001
0.0312842
0.0351074
0.0400504
0.0466267
0.0548495
0.065148
0.078013
0.093655
0.114128
0.141016
0.177224
0.218928
0.265189
0.315268
0.36539
0.416274
0.459861
0.496742
0.51201
0.53166
0.532855
0.5156
0.479701
0.42481
0.355063
0.28119
0.212044
0.152567
0.105387
0.0704789
0.04642
0.0301815
0.0193367
0.0122893
0.00774054
0.00480326
0.00290485
0.00165802
0.00087663
0.000429896
0.000198767
8.64991e-05
3.48282e-05
1.27708e-05
4.2045e-06
1.20759e-06
2.75204e-07
2.87595e-08
-1.69991e-08
-1.52895e-08
-7.52991e-09
-2.92738e-09
-2.19941e-09
-1.87854e-09
-1.54567e-09
-4.54653e-10
-8.5776e-10
-1.62617e-09
-1.91476e-09
-2.38447e-09
-3.03592e-09
-3.82637e-09
-4.91995e-09
-6.64478e-09
-8.6613e-09
-1.21348e-08
-1.40361e-08
-1.39483e-08
-1.20603e-08
-9.63134e-09
-7.28571e-09
-4.62464e-09
-2.04367e-09
-3.32102e-11
9.88849e-10
1.27242e-09
1.16775e-09
9.17891e-10
6.60704e-10
4.50259e-10
2.9505e-10
1.87845e-10
1.16996e-10
7.16403e-11
4.31813e-11
2.54837e-11
1.44755e-11
7.55133e-12
3.27102e-12
1.05914e-12
1.55166e-13
-1.17815e-13
-1.49957e-13
-1.21563e-13
-9.44005e-14
-7.33548e-14
-5.73672e-14
-4.48305e-14
-3.46628e-14
-2.62519e-14
-1.93262e-14
-1.3784e-14
-9.48726e-15
-6.31234e-15
-4.09774e-15
-2.61049e-15
-1.5899e-15
-1.00715e-15
-5.14635e-16
-1.58647e-16
-2.08117e-17
-6.53732e-18
-1.86369e-17
-2.16329e-17
-1.4533e-17
-6.4532e-18
-1.98437e-18
-5.07786e-19
-7.31273e-19
-2.17176e-18
-3.22813e-18
-3.10689e-18
-2.11922e-18
-1.12524e-18
-5.78973e-19
-3.72393e-19
-2.97669e-19
-2.4069e-19
-1.74479e-19
-1.09482e-19
-5.89599e-20
-2.70722e-20
-1.0431e-20
-3.22491e-21
-6.76724e-22
1.47166e-23
1.21206e-22
9.61538e-23
6.14976e-23
3.73165e-23
2.20236e-23
1.24471e-23
6.57198e-24
3.15168e-24
1.32397e-24
4.52334e-25
9.84294e-26
-1.11312e-26
-2.61304e-26
-1.63771e-26
-7.37673e-27
-2.61365e-27
-6.8066e-28
-6.59094e-29
6.42605e-29
5.34737e-29
7.3814e-19
5.1013e-19
-1.89031e-17
1.11297e-16
-2.07845e-16
-5.37311e-15
-1.2823e-13
-1.07759e-12
-7.25414e-12
-3.39463e-11
-7.37466e-11
-7.04886e-11
-4.75732e-11
-1.64229e-11
4.62525e-12
9.47409e-12
9.31526e-12
-3.11512e-11
-5.98711e-11
-1.52775e-10
-3.07906e-10
-2.17416e-10
8.27819e-10
4.70083e-09
1.62625e-08
4.80498e-08
1.29573e-07
3.35979e-07
8.51735e-07
2.14579e-06
5.4698e-06
1.3923e-05
3.40718e-05
8.49899e-05
0.000218131
0.000480914
0.000882302
0.00141122
0.00201241
0.00261312
0.00309353
0.00355348
0.00410391
0.00482675
0.00582611
0.00719046
0.00900078
0.0114472
0.0146476
0.018808
0.024144
0.0308674
0.0394697
0.0501433
0.0640199
0.082105
0.105686
0.136186
0.174704
0.222969
0.276467
0.340664
0.397613
0.451481
0.493592
0.523361
0.535693
0.550696
0.542861
0.518631
0.476273
0.416471
0.352131
0.288214
0.228324
0.175874
0.131803
0.0958347
0.0674497
0.0457325
0.0297139
0.0185774
0.0113189
0.00675046
0.00390892
0.00212328
0.00105177
0.000478028
0.000203825
8.24127e-05
3.13019e-05
1.09214e-05
3.41697e-06
9.02055e-07
1.52091e-07
-2.9015e-08
-4.87966e-08
-4.26647e-08
-4.75511e-08
-6.77807e-08
-9.18163e-08
-1.01298e-07
-1.08203e-07
-1.31064e-07
-1.62118e-07
-2.04699e-07
-2.63834e-07
-3.48217e-07
-4.44472e-07
-5.51424e-07
-6.11097e-07
-6.16472e-07
-5.75857e-07
-5.08775e-07
-4.22736e-07
-3.18727e-07
-2.1448e-07
-1.34116e-07
-8.13424e-08
-4.8819e-08
-2.94537e-08
-1.79075e-08
-1.09748e-08
-6.7687e-09
-4.17419e-09
-2.5703e-09
-1.5804e-09
-9.71521e-10
-5.99329e-10
-3.72085e-10
-2.32414e-10
-1.46854e-10
-9.07658e-11
-4.29966e-11
-1.21627e-11
-1.76081e-12
8.30737e-13
2.06062e-12
2.61762e-12
2.73168e-12
2.54389e-12
2.17172e-12
1.72607e-12
1.2837e-12
8.91936e-13
5.80733e-13
3.47925e-13
1.89794e-13
9.16632e-14
3.7758e-14
1.27189e-14
3.55172e-15
1.26037e-15
4.06071e-16
2.81928e-16
3.73312e-16
3.28546e-16
2.13442e-16
1.05235e-16
3.53504e-17
5.7867e-18
-2.12713e-18
-1.29363e-18
1.44458e-18
6.11115e-18
1.12594e-17
1.45592e-17
1.40608e-17
1.10992e-17
7.60726e-18
4.63565e-18
2.51221e-18
1.19067e-18
4.74197e-19
1.42447e-19
1.76034e-20
-1.50321e-20
-1.57064e-20
-9.71178e-21
-4.81981e-21
-2.07062e-21
-7.82977e-22
-2.49133e-22
-5.08255e-23
1.17844e-23
2.41431e-23
2.04947e-23
1.36999e-23
7.98601e-24
4.17587e-24
1.96662e-24
8.23439e-25
2.95798e-25
8.37141e-26
1.17272e-26
-6.38756e-27
-7.35793e-27
-4.66788e-27
-2.35542e-27
-7.39461e-28
-1.30535e-19
2.48235e-18
-9.98407e-18
2.44604e-17
-2.51272e-17
-1.02012e-15
1.66326e-15
-2.36813e-14
-2.3259e-13
-9.8975e-13
-1.61879e-12
-1.07064e-12
-1.33873e-13
7.03003e-13
1.3716e-12
4.89119e-13
-2.70971e-12
-3.95975e-12
-1.54568e-11
-5.33706e-11
-1.09506e-10
-1.97404e-10
-1.84087e-10
2.737e-11
8.53504e-10
3.28077e-09
9.94271e-09
2.77696e-08
7.46326e-08
1.97524e-07
5.22821e-07
1.38356e-06
3.53449e-06
9.23732e-06
2.40156e-05
5.47355e-05
0.000107641
0.000187808
0.000294838
0.000425505
0.000567144
0.00074167
0.000979026
0.0013058
0.00177713
0.00246237
0.00343664
0.00481083
0.00669652
0.00922542
0.0124822
0.0166268
0.0219876
0.0289948
0.0378516
0.048775
0.0621472
0.0783582
0.098335
0.12413
0.155819
0.197091
0.247273
0.302773
0.360306
0.418165
0.467125
0.507776
0.537896
0.551129
0.571323
0.569602
0.554506
0.525244
0.480711
0.427069
0.370437
0.31427
0.260935
0.210948
0.165236
0.124716
0.0900438
0.0615911
0.0381378
0.0219242
0.0122483
0.00677969
0.00367575
0.00187921
0.000881188
0.000384953
0.000161914
6.64677e-05
2.62388e-05
9.74704e-06
3.21377e-06
7.59238e-07
-9.50083e-08
-4.13494e-07
-5.73593e-07
-8.42754e-07
-1.22532e-06
-1.60811e-06
-1.98697e-06
-2.32706e-06
-2.59048e-06
-2.79633e-06
-2.90988e-06
-2.89588e-06
-2.80364e-06
-2.72289e-06
-2.66428e-06
-2.58223e-06
-2.43882e-06
-2.21088e-06
-1.87778e-06
-1.48438e-06
-1.14147e-06
-8.50444e-07
-6.13902e-07
-4.28307e-07
-2.88351e-07
-1.87319e-07
-1.17378e-07
-7.09828e-08
-4.14232e-08
-2.32838e-08
-1.2549e-08
-6.41616e-09
-3.03606e-09
-1.25105e-09
-3.59172e-10
5.0634e-11
2.04592e-10
2.17968e-10
1.99618e-10
1.69252e-10
1.33862e-10
9.94507e-11
7.02301e-11
4.71235e-11
3.00518e-11
1.81581e-11
1.03304e-11
5.51775e-12
2.72993e-12
1.2363e-12
4.98667e-13
1.67687e-13
3.79834e-14
-3.61956e-15
-1.31586e-14
-9.14336e-15
-5.1894e-15
-2.68455e-15
-1.22963e-15
-4.72048e-16
-8.48998e-17
9.39402e-17
1.12448e-16
8.26384e-17
6.66911e-17
7.31061e-17
8.60767e-17
8.82955e-17
7.93946e-17
6.39073e-17
4.77389e-17
3.36697e-17
2.23639e-17
1.38388e-17
7.88573e-18
4.09197e-18
1.90762e-18
7.80552e-19
2.65456e-19
6.20305e-20
-2.92747e-21
-1.56471e-20
-1.29973e-20
-8.10044e-21
-4.41871e-21
-2.21935e-21
-1.04574e-21
-4.62282e-22
-1.88006e-22
-6.6418e-23
-1.68559e-23
5.51615e-25
4.7527e-24
4.32432e-24
2.84039e-24
1.55375e-24
7.36938e-25
3.0303e-25
1.03849e-25
2.54206e-26
4.05983e-28
-5.2287e-27
-8.60724e-20
6.73242e-19
-6.07795e-19
-3.03708e-18
1.06763e-17
-1.25187e-18
-3.42216e-17
-2.6344e-16
-4.61318e-15
-1.521e-14
-1.44884e-14
2.40374e-15
6.24618e-15
2.09915e-14
-1.04822e-13
-5.39649e-13
-1.32731e-12
-2.9348e-12
-5.3452e-12
-6.69375e-12
-3.72281e-12
-5.64516e-12
-6.0683e-12
6.00067e-12
9.42743e-11
4.19449e-10
1.34226e-09
3.85833e-09
1.06129e-08
2.87166e-08
7.72781e-08
2.08501e-07
5.48406e-07
1.46071e-06
3.84522e-06
9.12021e-06
1.94179e-05
3.73904e-05
6.58874e-05
0.000109127
0.000170865
0.00026502
0.000409039
0.000608183
0.000918613
0.00140954
0.00213992
0.00319534
0.00467344
0.00669786
0.00942203
0.0130163
0.0176902
0.0236352
0.0310633
0.0401948
0.0512396
0.0644274
0.0799424
0.0981808
0.119215
0.14388
0.174221
0.210778
0.25362
0.301893
0.353393
0.404197
0.453998
0.495517
0.531805
0.558068
0.572694
0.590207
0.593018
0.583887
0.563964
0.532133
0.488487
0.438395
0.384886
0.33031
0.276265
0.224292
0.174814
0.129675
0.0908258
0.0595662
0.0345687
0.0179439
0.00928829
0.00492595
0.00261232
0.00132793
0.000635666
0.000295488
0.000135742
6.14687e-05
2.64558e-05
9.71764e-06
1.85896e-06
-1.84948e-06
-3.66188e-06
-4.75402e-06
-5.63656e-06
-6.29794e-06
-6.42494e-06
-6.00519e-06
-5.33713e-06
-4.67331e-06
-4.17819e-06
-3.89059e-06
-3.78547e-06
-3.77706e-06
-3.85788e-06
-3.94134e-06
-3.9505e-06
-3.74077e-06
-3.19704e-06
-2.54569e-06
-1.90966e-06
-1.35821e-06
-9.20247e-07
-5.96422e-07
-3.70682e-07
-2.21202e-07
-1.26629e-07
-6.92369e-08
-3.57861e-08
-1.70886e-08
-7.1082e-09
-2.09462e-09
2.01952e-10
1.0789e-09
1.266e-09
1.15326e-09
9.36171e-10
7.10166e-10
5.12953e-10
3.55759e-10
2.38006e-10
1.5355e-10
9.54351e-11
5.69356e-11
3.23964e-11
1.7453e-11
8.76309e-12
4.00774e-12
1.58898e-12
4.72495e-13
2.76766e-14
-1.04809e-13
-1.07057e-13
-7.25862e-14
-4.21178e-14
-2.22179e-14
-1.1053e-14
-5.26124e-15
-2.49554e-15
-1.09805e-15
-4.44483e-16
-8.33271e-17
9.19373e-17
1.69499e-16
1.90687e-16
1.66244e-16
1.32909e-16
1.07135e-16
8.7698e-17
6.97051e-17
5.19173e-17
3.56576e-17
2.24756e-17
1.29881e-17
6.86943e-18
3.30662e-18
1.42757e-18
5.32781e-19
1.53424e-19
1.58292e-20
-2.15666e-20
-2.38395e-20
-1.72234e-20
-1.05482e-20
-5.85765e-21
-3.01807e-21
-1.44749e-21
-6.38494e-22
-2.50542e-22
-7.99863e-23
-1.39074e-23
6.35939e-24
9.13304e-24
6.79884e-24
4.01614e-24
2.04688e-24
9.20144e-25
3.6187e-25
1.20246e-25
1.14757e-26
1.72605e-20
2.03224e-20
1.78458e-19
-8.0421e-19
-1.39005e-18
1.13531e-17
3.41864e-18
-3.73699e-17
-4.74369e-17
1.19689e-16
3.09089e-17
4.26833e-16
-3.65046e-15
-1.9504e-14
-5.22061e-14
-9.5422e-14
-1.16485e-13
-1.34266e-13
-3.50327e-14
3.4497e-13
1.6238e-12
4.45323e-12
1.30898e-11
3.11331e-11
7.29188e-11
1.8448e-10
4.80416e-10
1.28266e-09
3.39093e-09
8.84914e-09
2.31483e-08
6.03565e-08
1.55919e-07
4.02674e-07
1.03991e-06
2.52768e-06
5.69658e-06
1.18937e-05
2.32386e-05
4.53303e-05
8.53358e-05
0.000154464
0.000269837
0.000456819
0.000747194
0.00118172
0.00181095
0.00270672
0.00395627
0.00567299
0.00799639
0.0110873
0.0151495
0.0203929
0.0270605
0.0353962
0.0456367
0.0580126
0.0726559
0.0896537
0.108979
0.130538
0.154536
0.181425
0.211829
0.246068
0.2845
0.32619
0.370321
0.414889
0.457661
0.497326
0.531304
0.56074
0.581151
0.594699
0.606059
0.606787
0.599041
0.582214
0.555088
0.515551
0.467544
0.414796
0.359302
0.302678
0.246694
0.193705
0.145063
0.102698
0.0684547
0.0425149
0.0231562
0.0116669
0.00615699
0.00344271
0.00196187
0.00109634
0.000592326
0.000317244
0.00017213
9.49863e-05
5.30829e-05
3.02094e-05
1.82363e-05
1.2413e-05
1.58823e-05
2.92865e-05
4.16668e-05
4.73936e-05
4.50916e-05
3.67478e-05
2.55038e-05
1.42537e-05
5.28709e-06
-6.2515e-07
-4.03146e-06
-5.11861e-06
-4.99685e-06
-4.27057e-06
-3.31211e-06
-2.38198e-06
-1.61083e-06
-1.03376e-06
-6.32731e-07
-3.69843e-07
-2.05846e-07
-1.0809e-07
-5.24135e-08
-2.22617e-08
-6.94495e-09
1.26538e-10
2.86159e-09
3.47001e-09
3.16378e-09
2.55147e-09
1.91362e-09
1.36515e-09
9.36099e-10
6.20032e-10
3.97612e-10
2.46755e-10
1.47915e-10
8.53023e-11
4.69852e-11
2.44257e-11
1.17092e-11
4.91325e-12
1.53194e-12
3.08834e-14
-5.01035e-13
-5.72938e-13
-4.69595e-13
-3.28455e-13
-2.06407e-13
-1.17963e-13
-6.18429e-14
-2.96377e-14
-1.32344e-14
-5.93937e-15
-2.89094e-15
-1.47659e-15
-8.40472e-16
-5.35145e-16
-3.53569e-16
-1.94886e-16
-7.11733e-17
2.26795e-17
7.58599e-17
9.05653e-17
8.08275e-17
6.1145e-17
4.11081e-17
2.51137e-17
1.40852e-17
7.26874e-18
3.43103e-18
1.45342e-18
5.25055e-19
1.35497e-19
-3.03204e-21
-3.74183e-20
-3.54206e-20
-2.47745e-20
-1.49836e-20
-8.20365e-21
-4.12311e-21
-1.89687e-21
-7.83029e-22
-2.74575e-22
-6.77541e-23
2.52651e-24
1.81887e-23
1.59746e-23
1.02871e-23
5.6348e-24
2.73638e-24
1.18736e-24
4.59308e-25
8.84425e-26
-1.02119e-21
-2.35439e-20
9.44148e-20
1.5088e-20
-5.59808e-19
4.4364e-19
7.66725e-18
-6.40674e-18
-3.25136e-17
-3.31961e-17
-1.24947e-17
-1.11579e-16
-7.82399e-16
-2.1899e-15
-2.59229e-15
-2.07265e-15
1.43896e-15
2.18585e-14
1.07864e-13
3.73286e-13
1.03681e-12
2.80047e-12
8.06982e-12
2.27308e-11
6.15724e-11
1.66225e-10
4.3605e-10
1.14552e-09
2.9885e-09
7.60614e-09
1.93352e-08
4.80781e-08
1.18184e-07
2.86006e-07
6.84099e-07
1.61588e-06
3.80954e-06
8.6974e-06
1.88632e-05
3.87144e-05
7.44058e-05
0.000134973
0.000231671
0.000380011
0.000604869
0.000941834
0.00143712
0.00216209
0.0032025
0.00466602
0.00668645
0.00942688
0.0130952
0.017918
0.0241625
0.0321159
0.0420716
0.0542891
0.0689537
0.0861449
0.105837
0.127873
0.151997
0.177985
0.205703
0.235166
0.266529
0.299892
0.335165
0.372076
0.4097
0.447181
0.483332
0.516761
0.54617
0.571101
0.590503
0.60326
0.61107
0.611122
0.606664
0.594405
0.572804
0.540916
0.498603
0.449978
0.397061
0.34178
0.285922
0.231651
0.181185
0.136404
0.0982563
0.067726
0.0446622
0.0282094
0.0165901
0.00941024
0.00581754
0.00394529
0.0028119
0.00208819
0.00161411
0.00131064
0.00111773
0.000981168
0.000860372
0.000726663
0.000581892
0.000437689
0.000306573
0.000198381
0.000117025
6.11764e-05
2.61904e-05
6.36571e-06
-3.15305e-06
-5.82954e-06
-5.75794e-06
-5.17196e-06
-4.03885e-06
-2.86858e-06
-1.89289e-06
-1.1767e-06
-6.92854e-07
-3.85938e-07
-2.0142e-07
-9.61348e-08
-3.952e-08
-1.13011e-08
1.29444e-09
5.93858e-09
6.11531e-09
5.46026e-09
4.363e-09
3.23008e-09
2.26003e-09
1.51449e-09
9.78164e-10
6.10771e-10
3.68686e-10
2.14836e-10
1.2023e-10
6.4087e-11
3.19277e-11
1.42239e-11
5.03769e-12
6.82988e-13
-1.08751e-12
-1.57821e-12
-1.54182e-12
-1.32762e-12
-1.04001e-12
-7.43467e-13
-5.02139e-13
-3.21534e-13
-1.95607e-13
-1.12891e-13
-6.27983e-14
-3.38197e-14
-1.86347e-14
-1.06427e-14
-6.38674e-15
-3.91106e-15
-2.32615e-15
-1.2484e-15
-5.47192e-16
-1.43267e-16
4.65871e-17
1.07259e-16
1.05066e-16
8.06408e-17
5.40951e-17
3.29705e-17
1.85469e-17
9.66665e-18
4.64124e-18
2.01374e-18
7.51252e-19
2.0446e-19
1.64192e-21
-5.25419e-20
-5.19356e-20
-3.6976e-20
-2.24738e-20
-1.22321e-20
-6.04689e-21
-2.70476e-21
-1.06861e-21
-3.47105e-22
-6.85029e-23
1.79173e-23
3.20578e-23
2.49793e-23
1.52987e-23
8.15085e-24
3.89682e-24
1.67892e-24
6.49556e-25
1.25231e-25
-2.3425e-20
-1.47297e-19
9.34253e-19
-1.56697e-18
-1.48322e-18
1.68349e-17
1.33744e-17
-1.03381e-16
-9.23818e-16
-2.49414e-15
-5.88324e-15
-3.38216e-15
1.73252e-15
9.4155e-17
-6.87244e-15
-4.80138e-14
-1.47601e-13
-2.80344e-13
-2.42241e-13
-1.71196e-14
3.59891e-13
1.90942e-12
6.6254e-12
1.67839e-11
4.53053e-11
1.28574e-10
3.50321e-10
9.40794e-10
2.49895e-09
6.55851e-09
1.69981e-08
4.35746e-08
1.09751e-07
2.71407e-07
6.54225e-07
1.53611e-06
3.55092e-06
7.8187e-06
1.64082e-05
3.28047e-05
6.13167e-05
0.00010792
0.00017951
0.000291746
0.000471414
0.000753312
0.00118789
0.00185777
0.00285769
0.00430973
0.00637416
0.00923411
0.0131112
0.0182855
0.0250836
0.0338833
0.0450805
0.058913
0.0755792
0.094862
0.116699
0.140736
0.166672
0.194167
0.222832
0.252429
0.282681
0.313499
0.344789
0.376464
0.408388
0.440212
0.471512
0.501561
0.529642
0.554933
0.576536
0.593851
0.606221
0.612863
0.613124
0.610319
0.600986
0.583615
0.557959
0.52472
0.484898
0.439797
0.39079
0.339605
0.288116
0.238305
0.191858
0.150449
0.114837
0.0856323
0.0624754
0.0449582
0.0320729
0.0229808
0.0166371
0.0122823
0.00923692
0.00704325
0.00539301
0.0040905
0.00303544
0.00217823
0.00149727
0.000978151
0.000602279
0.000346031
0.000182576
8.55221e-05
3.22506e-05
5.77244e-06
-4.72103e-06
-6.3265e-06
-5.76454e-06
-4.88856e-06
-3.56775e-06
-2.37879e-06
-1.47152e-06
-8.52025e-07
-4.61095e-07
-2.30253e-07
-1.02406e-07
-3.60617e-08
-3.8901e-09
6.23932e-09
7.02504e-09
6.52837e-09
5.71972e-09
4.45631e-09
3.2351e-09
2.21962e-09
1.45236e-09
9.09849e-10
5.46198e-10
3.14125e-10
1.72264e-10
8.90649e-11
4.14309e-11
1.56977e-11
5.16663e-12
1.00199e-12
-9.22334e-13
-1.78476e-12
-2.01884e-12
-1.93594e-12
-1.75162e-12
-1.44977e-12
-1.13807e-12
-8.52569e-13
-6.14411e-13
-4.27182e-13
-2.8656e-13
-1.85208e-13
-1.16252e-13
-7.09748e-14
-4.29943e-14
-2.57323e-14
-1.49934e-14
-8.2956e-15
-4.21578e-15
-1.86957e-15
-6.42858e-16
-8.97628e-17
1.05679e-16
1.39152e-16
1.14582e-16
7.8816e-17
4.87263e-17
2.78215e-17
1.48024e-17
7.31853e-18
3.311e-18
1.31814e-18
4.12497e-19
5.12295e-20
-6.13606e-20
-7.45192e-20
-5.68241e-20
-3.57676e-20
-1.98402e-20
-9.89242e-21
-4.42809e-21
-1.73924e-21
-5.57778e-22
-1.0683e-22
2.99528e-23
5.07721e-23
3.87599e-23
2.33701e-23
1.23192e-23
5.86913e-24
2.54721e-24
9.94687e-25
3.38572e-25
3.64111e-26
-2.8129e-19
1.02383e-18
-1.61274e-18
-1.30873e-19
1.09982e-17
-7.1158e-17
3.73537e-17
-2.48237e-15
-4.50635e-14
-2.02646e-13
-4.57887e-13
-3.94834e-13
-9.9216e-14
2.1834e-13
2.49114e-13
2.2464e-13
-1.67656e-13
-4.55288e-13
-2.93442e-12
-6.63167e-12
-3.40392e-12
8.01514e-12
3.03319e-11
6.61161e-11
9.84692e-11
1.35961e-10
4.50374e-10
1.36934e-09
3.56194e-09
8.5227e-09
1.9354e-08
4.23815e-08
8.97876e-08
1.86428e-07
4.39141e-07
1.12049e-06
2.70179e-06
6.29518e-06
1.36986e-05
2.73466e-05
5.04098e-05
8.89813e-05
0.000156156
0.000280197
0.000500104
0.00087742
0.00150263
0.00248639
0.00400187
0.00633173
0.00973424
0.0144052
0.0206819
0.0290917
0.0400698
0.0538056
0.0704725
0.0900828
0.113224
0.13945
0.1676
0.196427
0.225726
0.255259
0.28475
0.314137
0.343208
0.371974
0.400383
0.42828
0.455606
0.481914
0.507035
0.530631
0.552305
0.571589
0.587876
0.600623
0.609401
0.612243
0.611092
0.607268
0.600569
0.587448
0.567249
0.541099
0.509507
0.473099
0.432692
0.389351
0.34429
0.298882
0.254476
0.212498
0.173958
0.139833
0.110407
0.0858586
0.0658482
0.0499766
0.0375538
0.027969