/*--------------------------------*- C++ -*----------------------------------*\
| =========                 |                                                 |
| \\      /  F ield         | OpenFOAM: The Open Source CFD Toolbox           |
|  \\    /   O peration     | Version:  2506                                  |
|   \\  /    A nd           | Website:  www.openfoam.com                      |
|    \\/     M anipulation  |                                                 |
\*---------------------------------------------------------------------------*/
FoamFile
{
    version     2.0;
    format      ascii;
    arch        "LSB;label=32;scalar=64";
    class       volVectorField;
    location    "4.45";
    object      vorticityField;
}
// * * * * * * * * * * * * * * * * * * * * * * * * * * * * * * * * * * * * * //

dimensions      [0 0 -1 0 0 0 0];

internalField   nonuniform List<vector> 
4000
(
(-2.49246e-21 8.44831e-19 -33.3793)
(-1.04989e-18 3.421e-19 -35.6382)
(1.10876e-18 -3.74062e-18 -32.66)
(3.58416e-18 2.77211e-18 -27.8692)
(-7.31265e-18 2.71493e-18 -24.0449)
(3.72037e-18 -4.63667e-18 -21.3538)
(-3.01514e-20 1.70333e-18 -19.3686)
(3.6045e-18 -0 -17.8732)
(-3.55129e-18 -3.35661e-18 -16.7381)
(7.13463e-18 1.77163e-18 -15.8608)
(-7.14659e-18 -1.73157e-18 -15.1666)
(-2.2585e-19 3.85939e-19 -14.6048)
(-1.1889e-19 9.6207e-18 -14.1407)
(7.5186e-18 -6.6901e-18 -13.7492)
(-2.82432e-20 -0 -13.4123)
(-1.42068e-17 -6.58873e-18 -13.1163)
(1.3998e-17 4.00292e-18 -12.8505)
(-7.40289e-18 9.17902e-18 -12.6066)
(3.50128e-19 -6.59321e-18 -12.3775)
(0 -0 -12.1572)
(0 -0 -11.9404)
(0 -0 -11.7222)
(8.79921e-19 -1.29676e-17 -11.4982)
(1.20791e-17 2.14473e-17 -11.2641)
(-2.77813e-17 8.84744e-18 -11.0159)
(1.58168e-17 -3.02842e-17 -10.7496)
(-9.93888e-19 1.29571e-17 -10.4612)
(0 -0 -10.1465)
(0 -0 -9.8009)
(-1.14364e-18 1.29214e-17 -9.41844)
(-2.71243e-17 -9.54281e-18 -8.99125)
(1.50821e-17 -1.63167e-17 -8.51114)
(2.89272e-17 1.56019e-18 -7.96221)
(8.18293e-19 -1.48753e-17 -7.1977)
(-8.2024e-18 7.49359e-17 -6.34926)
(-3.33855e-17 6.76474e-17 -5.96456)
(-1.0694e-16 -1.1181e-16 -6.20557)
(-3.72956e-19 -7.24676e-19 -6.88008)
(6.9812e-17 2.08054e-16 -7.94016)
(-1.04272e-16 -6.89828e-17 -9.46769)
(4.3974e-17 -2.4799e-16 -11.7715)
(1.20754e-16 2.31287e-16 -14.6353)
(-3.77256e-17 1.01896e-16 -17.5387)
(2.75509e-17 -1.0921e-16 -20.3208)
(1.2444e-16 8.6978e-17 -22.9416)
(-1.42505e-16 2.03511e-17 -25.4275)
(-1.95129e-16 1.68016e-16 -27.8384)
(-1.02236e-16 -1.12061e-16 -30.0155)
(-7.9526e-17 -1.97987e-16 -32.0198)
(-4.79292e-17 -1.23093e-16 -33.8239)
(9.95905e-17 -1.19806e-16 -35.3362)
(-3.70206e-18 4.59764e-17 -36.6337)
(-5.50483e-17 -8.62304e-17 -37.5329)
(8.96598e-17 -1.06381e-16 -38.1563)
(-7.49375e-18 8.76025e-17 -38.3497)
(-3.48802e-17 5.5274e-17 -38.1417)
(8.12893e-18 5.16745e-17 -37.571)
(3.858e-18 9.36564e-18 -36.5146)
(8.57222e-18 1.58072e-17 -35.2107)
(-5.19511e-18 -2.52417e-18 -33.4764)
(4.99397e-18 4.65014e-18 -31.4249)
(1.93751e-17 3.59443e-19 -29.2611)
(-9.15996e-18 -4.24002e-18 -26.9268)
(-7.63503e-18 -4.99512e-17 -24.5858)
(-1.05525e-17 -5.96268e-17 -22.2583)
(-9.09193e-18 4.45722e-17 -19.9908)
(5.98494e-17 4.35776e-17 -17.8742)
(-1.28131e-19 -3.23895e-17 -15.8548)
(2.22458e-17 5.01329e-17 -14.0334)
(-5.51317e-17 5.17312e-17 -12.3393)
(-1.09318e-17 -3.74999e-17 -10.8216)
(-2.81351e-17 -6.00066e-17 -9.45407)
(1.19883e-20 -1.40378e-19 -8.20708)
(-7.45225e-17 4.7269e-17 -7.11498)
(-7.41011e-17 5.27707e-17 -6.1354)
(-2.8594e-18 6.48296e-17 -5.26759)
(-6.52241e-17 4.16143e-17 -4.51472)
(7.83181e-18 -6.66208e-17 -3.85765)
(-8.25025e-17 2.85791e-17 -3.28912)
(6.61234e-17 2.14228e-17 -2.80837)
(-1.27482e-16 3.50702e-17 -2.40287)
(-2.04624e-17 -7.16955e-17 -2.06257)
(3.86048e-18 -1.21947e-17 -1.77971)
(-7.31077e-18 2.21336e-18 -1.54347)
(6.75901e-17 1.0345e-16 -1.34403)
(-1.17424e-16 1.55585e-16 -1.17343)
(4.67862e-18 -1.40894e-16 -1.0226)
(-7.71281e-18 -7.2376e-17 -0.887304)
(-1.19654e-18 1.38648e-16 -0.766018)
(-5.05617e-17 3.26608e-17 -0.652628)
(2.08277e-19 1.28772e-18 -0.547616)
(-5.06849e-17 9.34565e-17 -0.453265)
(-2.39722e-17 -1.1492e-16 -0.36633)
(1.8106e-17 -3.82228e-17 -0.289323)
(5.23808e-19 5.95761e-17 -0.223482)
(7.67045e-18 -6.68524e-17 -0.167216)
(2.30405e-17 -9.65543e-18 -0.123002)
(2.99501e-18 3.1204e-18 -0.088797)
(-3.49067e-17 -5.22831e-18 -0.0661745)
(5.73082e-18 2.96778e-17 -0.0544433)
(6.30016e-18 -8.58038e-19 -0.055221)
(1.9466e-18 -5.43154e-18 -0.0671711)
(-1.05692e-18 1.85612e-17 -0.092343)
(-2.79209e-18 5.02618e-18 -0.131944)
(-4.11782e-18 -2.03467e-18 -0.190193)
(-7.49341e-20 -6.80244e-18 -0.270188)
(4.14194e-19 5.56185e-17 -0.377044)
(-2.10886e-17 -2.67337e-18 -0.516998)
(-2.68017e-17 -9.47248e-17 -0.696264)
(5.04514e-17 -1.39801e-17 -0.923343)
(-2.6057e-17 1.65144e-17 -1.20692)
(1.17716e-18 6.41615e-17 -1.55481)
(-2.69339e-17 -1.27712e-17 -1.97988)
(-2.46319e-17 -5.53511e-17 -2.48244)
(-8.08823e-19 -6.84446e-17 -3.08406)
(5.38625e-17 3.56065e-17 -3.78079)
(2.70803e-19 1.35815e-16 -4.57963)
(-7.53922e-18 3.41892e-17 -5.4911)
(5.64467e-17 4.20815e-17 -6.50572)
(-5.80299e-17 -4.33999e-17 -7.62531)
(-4.54634e-17 -2.45794e-16 -8.85252)
(7.1162e-17 4.75064e-17 -10.1707)
(4.22684e-18 1.52699e-16 -11.5687)
(-6.72617e-17 -4.40703e-17 -13.0469)
(-1.10962e-17 -1.60644e-16 -14.5818)
(1.2379e-16 8.79965e-17 -16.1628)
(-3.72091e-17 4.11037e-17 -17.7757)
(5.27952e-17 -6.11338e-18 -19.4006)
(6.322e-17 8.90202e-17 -21.0303)
(-6.27269e-17 1.86222e-16 -22.6702)
(-7.25696e-18 5.36798e-17 -24.2585)
(-1.25021e-16 9.38255e-17 -25.8195)
(-2.54642e-17 -5.63886e-17 -27.3769)
(-9.62503e-17 -6.81915e-17 -28.8289)
(-4.71307e-17 1.44556e-16 -30.218)
(-5.24981e-18 -1.83733e-18 -31.6081)
(5.61386e-18 3.46882e-18 -32.7779)
(3.87977e-17 -9.75924e-17 -33.9209)
(4.81004e-18 4.11227e-18 -34.8652)
(-1.0936e-17 1.80618e-17 -35.6559)
(-2.44691e-17 9.17809e-17 -36.2299)
(-1.8463e-17 6.88736e-18 -36.5466)
(-1.44715e-17 7.85919e-17 -36.5406)
(-5.27221e-18 1.36679e-17 -36.2648)
(-3.0494e-18 1.31472e-17 -35.5018)
(8.15888e-18 -6.76143e-17 -34.51)
(7.84014e-20 3.17478e-19 -32.9955)
(0 -0 -31.1479)
(4.54262e-19 -5.71198e-19 -29.0576)
(9.53185e-19 1.05405e-17 -26.66)
(-1.80425e-18 -7.04573e-18 -24.1822)
(-1.77408e-19 1.51929e-18 -21.5539)
(-2.50377e-18 -1.54296e-18 -18.9354)
(-1.05967e-18 -2.9441e-18 -16.3767)
(1.64434e-18 -6.4161e-19 -13.928)
(-6.50963e-19 1.57009e-18 -11.6409)
(-9.49394e-18 -2.59574e-17 -9.51698)
(8.40717e-20 -2.77515e-18 -7.60504)
(-5.19659e-19 -4.99789e-18 -5.8581)
(-8.08637e-18 -2.70055e-17 -4.30428)
(-5.02581e-18 1.21881e-17 -3.36644)
(7.89392e-18 5.50184e-18 -3.14277)
(-1.39353e-18 -2.26148e-18 -3.07195)
(1.03419e-18 -2.4109e-19 -3.15881)
(1.25398e-18 -1.92858e-19 -3.45783)
(1.37514e-18 -1.14253e-19 -4.01287)
(-1.27633e-18 -1.0984e-18 -4.92333)
(1.16359e-18 -2.47686e-18 -6.08797)
(1.45928e-19 6.13399e-19 -7.19917)
(2.08908e-19 7.03736e-19 -8.17713)
(-1.26464e-18 3.37022e-18 -9.04164)
(-2.91771e-19 -2.17319e-18 -9.7929)
(-3.26415e-21 -3.29942e-18 -10.4272)
(2.63023e-19 5.34475e-18 -10.9457)
(-1.70084e-19 -1.31799e-18 -11.3544)
(1.08445e-18 3.35083e-20 -11.6626)
(-1.96072e-18 7.78064e-19 -11.8822)
(9.92845e-19 4.16347e-18 -12.0269)
(-1.56814e-19 -5.70885e-18 -12.1114)
(5.3629e-20 7.81084e-19 -12.1506)
(4.32602e-19 2.70127e-19 -12.1587)
(-6.95873e-19 2.14695e-18 -12.1483)
(-4.59983e-20 -5.34839e-19 -12.13)
(1.5386e-20 -2.42446e-18 -12.1116)
(2.64161e-19 2.65125e-19 -12.0984)
(2.42612e-19 7.23684e-22 -12.0928)
(-2.70087e-19 -8.05638e-22 -12.0945)
(2.31976e-19 -9.9997e-21 -12.1011)
(-3.94052e-19 -2.93707e-19 -12.1084)
(2.51971e-19 1.14197e-20 -12.1116)
(-8.57613e-20 -2.55815e-22 -12.1054)
(-1.98146e-20 -5.37342e-20 -12.085)
(5.96238e-20 -1.15532e-18 -12.0467)
(-1.86467e-20 1.25866e-18 -11.9875)
(-5.34911e-20 -5.79528e-20 -11.9068)
(8.4389e-21 -2.961e-19 -11.8056)
(-4.48654e-21 -5.72956e-19 -11.685)
(-8.11612e-21 3.08902e-19 -11.5448)
(-4.34986e-21 2.79731e-19 -11.3696)
(-6.38073e-22 -3.35659e-21 -11.1684)
(0 -0 3.17872)
(3.00575e-20 -0 -6.36918)
(-5.70052e-20 -1.63912e-18 -12.8044)
(3.39403e-19 -8.94866e-20 -15.4191)
(1.09866e-18 6.46799e-18 -16.1274)
(-1.42771e-18 -6.42624e-18 -15.8638)
(3.9959e-20 -1.69392e-18 -15.2734)
(1.64619e-19 -1.48185e-18 -14.6282)
(-3.63498e-18 4.87444e-18 -14.0238)
(3.37879e-18 -4.40355e-18 -13.4913)
(6.54397e-18 1.46328e-17 -13.0333)
(-1.3869e-17 -2.07705e-18 -12.6418)
(9.89445e-19 -2.18204e-17 -12.3064)
(6.75635e-18 -8.76163e-19 -12.0171)
(-9.00213e-19 2.06055e-17 -11.765)
(-6.74917e-18 8.14627e-18 -11.5426)
(7.42091e-18 -2.10296e-17 -11.3434)
(-1.52969e-19 6.81038e-18 -11.162)
(0 -0 -10.9935)
(0 -0 -10.834)
(0 -0 -10.6795)
(0 -0 -10.5267)
(0 -0 -10.3722)
(-2.75284e-17 -0 -10.213)
(4.1434e-17 -0 -10.0458)
(-1.38782e-17 -0 -9.86769)
(0 -0 -9.67527)
(0 -0 -9.46511)
(0 -0 -9.23323)
(-1.19747e-18 1.35297e-17 -8.97484)
(-3.08258e-19 1.02074e-17 -8.68371)
(3.68879e-18 -4.13135e-17 -8.35148)
(-1.49859e-19 -6.69199e-18 -7.96751)
(-1.58688e-17 4.94166e-17 -7.50225)
(-9.4889e-18 -4.64944e-17 -7.00971)
(4.12318e-17 2.08876e-17 -6.68741)
(9.76063e-17 1.26689e-16 -6.67531)
(5.32705e-18 -2.02184e-16 -6.99904)
(-1.68716e-17 -1.7353e-16 -7.65736)
(1.11904e-16 2.41111e-16 -8.67063)
(-3.29839e-17 1.36533e-17 -10.097)
(-8.56458e-17 -1.80869e-16 -11.7229)
(7.66004e-17 -1.40152e-16 -13.4315)
(1.27397e-17 -4.17288e-17 -15.1874)
(-2.32203e-17 -1.793e-16 -16.9067)
(-9.10283e-18 4.41016e-16 -18.5982)
(1.86562e-16 1.39064e-16 -20.251)
(1.05049e-16 1.12088e-16 -21.8008)
(7.57278e-17 1.51275e-16 -23.2969)
(5.96339e-17 -2.14354e-17 -24.6675)
(-1.29667e-16 -1.43312e-16 -25.909)
(-3.0617e-18 3.77171e-17 -27.0321)
(-1.79927e-17 2.40882e-16 -27.959)
(-8.03258e-17 5.73353e-17 -28.7455)
(4.93027e-17 -2.38663e-17 -29.3048)
(3.62903e-17 3.6772e-17 -29.6695)
(3.64088e-17 -5.57639e-17 -29.801)
(8.36141e-18 1.10376e-17 -29.6842)
(-3.76587e-18 -3.18413e-17 -29.3377)
(-5.94543e-18 1.41462e-17 -28.7306)
(-2.90946e-18 -1.45165e-17 -27.8678)
(-2.515e-17 -7.55061e-17 -26.7798)
(1.98195e-17 7.34618e-17 -25.4992)
(-2.37161e-18 9.1965e-17 -24.0573)
(4.55164e-17 1.42175e-16 -22.5216)
(6.34698e-18 -5.07328e-17 -20.897)
(-7.26783e-18 -7.7637e-17 -19.2812)
(-1.50316e-17 6.30685e-17 -17.6553)
(-2.41991e-17 -3.28163e-18 -16.1002)
(6.20715e-17 -3.99647e-17 -14.6046)
(4.62469e-18 2.1289e-17 -13.1957)
(-1.28499e-16 -2.44203e-17 -11.8948)
(5.70718e-17 3.49738e-17 -10.6757)
(4.47444e-17 1.69165e-16 -9.56848)
(1.21861e-16 -3.72946e-17 -8.55977)
(1.14103e-17 -7.6573e-17 -7.64212)
(-1.17563e-17 9.98508e-18 -6.82128)
(-4.61415e-18 7.14644e-17 -6.08816)
(-5.32262e-17 -4.06512e-18 -5.43299)
(-1.58243e-16 5.31992e-17 -4.85414)
(2.05544e-16 5.97013e-17 -4.34354)
(2.27627e-17 -7.77228e-17 -3.89182)
(-6.63094e-17 4.56888e-17 -3.49276)
(2.29208e-17 -4.8243e-17 -3.13872)
(-4.92596e-18 -9.89635e-18 -2.82237)
(1.28886e-16 -5.89438e-17 -2.53936)
(4.55017e-17 -5.72313e-17 -2.28356)
(6.63539e-17 4.3776e-17 -2.05051)
(5.40738e-17 -1.09982e-16 -1.84096)
(1.10201e-16 -6.99919e-17 -1.65077)
(3.50903e-20 2.2271e-18 -1.47835)
(5.131e-17 -6.37796e-17 -1.32651)
(2.03663e-17 2.05854e-17 -1.1923)
(-4.8197e-17 2.64479e-17 -1.07567)
(2.23244e-17 -5.72714e-17 -0.978611)
(8.91803e-19 3.1693e-17 -0.897622)
(-4.8277e-17 2.25933e-17 -0.83541)
(2.3043e-17 6.132e-17 -0.788434)
(2.06938e-18 1.48817e-17 -0.758349)
(-1.28934e-17 -7.88957e-17 -0.742917)
(-6.35551e-18 3.0756e-18 -0.74383)
(-7.58391e-18 1.6032e-17 -0.75903)
(-3.21231e-18 -1.24327e-17 -0.790636)
(2.8241e-18 -1.68421e-18 -0.838503)
(5.53584e-18 -1.45688e-18 -0.905233)
(1.17832e-17 3.27669e-18 -0.993208)
(-2.23544e-19 -3.00178e-17 -1.10506)
(6.97306e-17 4.58631e-17 -1.24499)
(8.94987e-19 5.32017e-18 -1.41664)
(-4.71995e-17 8.27107e-18 -1.62484)
(-1.82507e-18 4.62759e-17 -1.87463)
(-1.89786e-18 -6.5323e-17 -2.17053)
(2.62387e-17 4.72356e-17 -2.5194)
(2.34499e-17 1.8991e-17 -2.92173)
(-2.7297e-17 -4.97632e-17 -3.39084)
(-5.38005e-17 -3.11418e-17 -3.91963)
(2.06005e-18 -7.50717e-17 -4.51959)
(1.04292e-17 -1.07134e-16 -5.19175)
(-1.28042e-17 -2.70286e-17 -5.93098)
(1.16643e-16 2.35455e-16 -6.74449)
(-9.41938e-17 3.79049e-18 -7.62959)
(-5.65082e-17 -1.38361e-16 -8.57646)
(4.45422e-17 5.67083e-17 -9.58625)
(7.96162e-17 4.76322e-17 -10.6565)
(4.83583e-17 -1.02438e-17 -11.7702)
(-8.8811e-17 -2.42043e-16 -12.9271)
(-4.22368e-17 1.94432e-16 -14.1155)
(8.54917e-17 -2.98462e-16 -15.3238)
(-1.56245e-17 6.64435e-18 -16.5484)
(1.82723e-16 -1.6058e-17 -17.7818)
(4.63937e-17 3.03261e-17 -18.9883)
(1.95959e-16 -5.60241e-17 -20.1955)
(4.51296e-17 1.60112e-16 -21.388)
(-4.46541e-17 2.61317e-16 -22.5063)
(8.09391e-17 -2.03818e-16 -23.6083)
(-5.69073e-18 7.6803e-17 -24.6727)
(3.08026e-17 -2.47765e-17 -25.5962)
(2.17095e-17 -3.64792e-17 -26.5203)
(1.20776e-17 -3.81716e-17 -27.2856)
(-8.54657e-18 3.15093e-17 -27.9705)
(4.93636e-17 -1.36252e-16 -28.5161)
(-6.3491e-17 2.33817e-16 -28.9125)
(4.08983e-17 -1.53429e-16 -29.139)
(1.11593e-18 6.07712e-18 -29.2009)
(9.08221e-18 -5.70286e-17 -29.0163)
(-9.18683e-19 1.47676e-17 -28.6802)
(-1.67958e-18 2.25793e-17 -28.0349)
(7.83716e-20 -3.35989e-19 -27.2018)
(5.49785e-19 4.20165e-17 -26.1143)
(-4.16832e-18 -7.65913e-17 -24.7992)
(8.18019e-19 -3.03544e-18 -23.3082)
(2.055e-17 1.28593e-16 -21.622)
(5.57517e-18 2.2362e-17 -19.8251)
(-3.8362e-18 -1.99377e-17 -17.932)
(-3.09503e-18 1.34925e-18 -16.0141)
(-2.23824e-17 -7.77353e-17 -14.1048)
(1.06075e-17 2.67288e-17 -12.2461)
(-2.0441e-17 -5.38106e-17 -10.4753)
(1.21561e-18 3.83505e-18 -8.82088)
(1.79067e-18 3.40416e-17 -7.34522)
(1.65288e-17 2.09259e-17 -6.25097)
(-1.41433e-17 -4.24592e-17 -5.67348)
(1.09457e-18 9.77136e-18 -5.3917)
(-3.56436e-18 -5.39272e-18 -5.31015)
(-1.07552e-18 -5.08337e-18 -5.41946)
(-3.82572e-18 -6.35891e-18 -5.72854)
(3.31466e-18 5.69269e-18 -6.23554)
(-1.22835e-18 -3.25142e-19 -6.86685)
(-1.54958e-20 -1.47034e-19 -7.50364)
(-1.56074e-19 -8.01789e-19 -8.09118)
(3.85423e-20 1.4165e-19 -8.61849)
(2.39306e-19 2.02368e-18 -9.08598)
(-9.47392e-19 1.10656e-17 -9.4932)
(6.28173e-19 -1.42681e-17 -9.84013)
(9.09995e-20 1.54331e-18 -10.1285)
(1.12022e-18 -1.18075e-17 -10.362)
(-8.80751e-19 2.52463e-17 -10.5455)
(-2.08902e-19 -2.83214e-17 -10.6853)
(2.15835e-19 1.6562e-17 -10.7892)
(-8.3146e-20 -1.22963e-18 -10.8641)
(-1.49497e-20 -7.73544e-18 -10.917)
(3.20824e-19 7.63218e-18 -10.9554)
(-2.86747e-19 1.03055e-18 -10.9838)
(-2.99921e-19 6.68665e-18 -11.0066)
(2.85203e-19 -6.27272e-18 -11.0271)
(8.21566e-20 -6.48192e-18 -11.0455)
(2.7388e-20 8.05425e-18 -11.0617)
(-2.45888e-20 -7.95692e-18 -11.0743)
(-7.86348e-21 1.41723e-17 -11.0812)
(1.02998e-20 -9.5842e-18 -11.0797)
(8.12384e-20 3.71444e-18 -11.0672)
(-6.08138e-20 1.04303e-18 -11.0414)
(-1.18879e-19 -5.26521e-20 -11.0005)
(1.39906e-19 -2.27111e-18 -10.9435)
(-1.35247e-20 3.45373e-18 -10.8707)
(6.79053e-21 -3.37582e-19 -10.7828)
(-6.23477e-21 1.68381e-18 -10.6815)
(1.19309e-20 -1.59117e-20 -10.5685)
(-3.54843e-22 5.75663e-22 -10.4441)
(-1.69805e-20 1.04425e-18 -10.3351)
(-2.4275e-21 8.22812e-19 5.45316)
(-3.79122e-19 1.31193e-18 2.32263)
(4.02775e-19 -4.52972e-18 -1.63518)
(5.91875e-19 -1.85545e-18 -5.00238)
(1.17211e-18 5.84514e-18 -7.50519)
(-1.77827e-18 -1.5947e-18 -8.95233)
(0 -0 -9.77345)
(-3.68663e-18 3.19816e-18 -10.1613)
(3.36352e-18 5.11571e-19 -10.2911)
(-2.63651e-18 -2.00455e-17 -10.2879)
(3.48525e-18 6.64303e-18 -10.2173)
(-2.16326e-19 2.2621e-17 -10.1149)
(-6.38825e-19 -6.74164e-19 -10.0006)
(-1.31932e-17 -1.87358e-17 -9.88479)
(1.26576e-17 1.29332e-17 -9.77221)
(8.27607e-18 -1.37049e-18 -9.66489)
(-1.33348e-17 -2.28851e-17 -9.56328)
(5.68871e-18 2.42687e-17 -9.46698)
(3.43299e-19 -6.46461e-18 -9.37516)
(0 -0 -9.28681)
(1.30995e-17 -0 -9.20078)
(-1.31268e-17 -0 -9.11581)
(-8.70446e-19 1.28279e-17 -9.03048)
(-1.2668e-17 7.4557e-18 -8.94323)
(1.45126e-17 -3.31379e-17 -8.85227)
(-9.48085e-19 1.28543e-17 -8.75562)
(0 -0 -8.65104)
(1.30897e-17 -0 -8.53601)
(-1.5509e-20 -0 -8.40757)
(-1.42876e-17 1.29363e-17 -8.26218)
(1.50173e-18 3.86787e-18 -8.09534)
(2.85654e-17 -2.97866e-17 -7.90093)
(-4.34884e-17 1.21648e-17 -7.67338)
(2.53636e-17 -1.27976e-18 -7.40663)
(-1.52552e-18 2.76055e-17 -7.11582)
(-5.53369e-17 -4.17826e-17 -6.8587)
(8.55793e-17 -5.00323e-17 -6.71866)
(3.78654e-17 1.86863e-16 -6.77868)
(-1.26594e-16 8.31605e-17 -7.06954)
(-2.9535e-17 -9.20086e-17 -7.58935)
(-2.30531e-17 -1.38545e-18 -8.32428)
(-1.40272e-16 -1.18461e-17 -9.14524)
(-6.58828e-17 2.11493e-16 -10.0534)
(1.08854e-16 7.23575e-17 -11.047)
(-2.81134e-16 5.19005e-17 -12.0738)
(3.03887e-16 -4.0653e-16 -13.1293)
(7.52431e-17 -2.09152e-16 -14.1913)
(-5.36815e-18 6.25058e-17 -15.2399)
(9.01522e-17 -2.015e-16 -16.29)
(-3.6379e-18 1.29322e-16 -17.2936)
(-1.0897e-16 4.19952e-16 -18.2601)
(1.50323e-17 -1.1017e-16 -19.1842)
(5.14313e-17 -1.99954e-16 -20.0422)
(9.26635e-17 -2.76188e-16 -20.8453)
(1.8217e-17 -2.44295e-16 -21.5656)
(-1.7844e-18 -8.62032e-17 -22.2092)
(-5.34714e-18 -1.26845e-16 -22.7489)
(4.33957e-18 -3.15252e-17 -23.1837)
(-9.52569e-18 3.92902e-17 -23.4762)
(8.11139e-18 3.6711e-17 -23.6355)
(3.88194e-18 7.09509e-18 -23.6146)
(-1.21921e-17 7.49782e-17 -23.3999)
(1.96658e-17 -9.66116e-17 -22.9959)
(2.36895e-17 -4.36723e-17 -22.3883)
(-6.88463e-17 -3.35477e-16 -21.6276)
(-3.04144e-17 5.30876e-17 -20.6917)
(-6.70579e-17 -5.40154e-18 -19.6639)
(1.88942e-17 3.6567e-17 -18.5291)
(1.53641e-18 -1.47427e-17 -17.3621)
(-5.45386e-17 4.58418e-18 -16.1711)
(1.0405e-17 1.1624e-16 -14.9841)
(1.76773e-16 1.00505e-16 -13.8427)
(-1.4478e-16 -2.14258e-16 -12.7313)
(1.76666e-16 -2.75788e-17 -11.6842)
(2.86692e-17 -1.34315e-16 -10.7026)
(-1.69179e-17 1.44188e-16 -9.78311)
(1.27918e-16 8.86382e-17 -8.93554)
(4.34663e-18 -3.95814e-18 -8.15755)
(1.77087e-16 1.51795e-16 -7.44171)
(7.7885e-17 -9.35739e-17 -6.78775)
(1.25701e-17 -3.7766e-16 -6.19123)
(-3.63878e-17 1.45285e-16 -5.6449)
(9.06426e-17 2.2215e-17 -5.14523)
(5.08685e-17 -1.50778e-16 -4.68772)
(-6.22341e-17 4.39562e-17 -4.26752)
(1.07167e-16 -1.00926e-16 -3.88392)
(-1.88426e-16 1.71682e-17 -3.53393)
(-1.52141e-16 -7.40735e-17 -3.21347)
(-7.19914e-17 7.33271e-17 -2.92568)
(-1.43987e-17 3.52007e-17 -2.66731)
(1.13875e-18 7.2274e-17 -2.43527)
(2.36947e-18 3.30843e-17 -2.23282)
(-2.63813e-17 1.993e-17 -2.05649)
(2.88702e-17 -4.31902e-17 -1.90394)
(-5.58202e-19 -2.50271e-18 -1.77839)
(-8.93643e-18 3.00963e-17 -1.67333)
(3.17296e-18 -2.41375e-17 -1.59309)
(-3.26281e-18 -6.47895e-17 -1.53162)
(7.8188e-17 3.74071e-18 -1.49188)
(6.85214e-18 3.84925e-17 -1.46934)
(-5.91002e-18 -1.25107e-18 -1.46667)
(8.62343e-18 -1.05698e-17 -1.48024)
(2.67084e-19 6.59294e-18 -1.51189)
(-8.00507e-20 -5.6308e-18 -1.56045)
(-1.79162e-19 -1.26253e-17 -1.62682)
(-1.18441e-17 -6.16144e-18 -1.71214)
(-1.24472e-17 -1.72581e-17 -1.8169)
(-4.70878e-17 -2.31703e-17 -1.94291)
(7.25867e-17 8.75124e-17 -2.09148)
(-5.06354e-17 -3.97525e-17 -2.26442)
(5.25135e-17 -2.02949e-17 -2.46384)
(-6.96816e-19 3.22653e-17 -2.69153)
(1.36511e-18 -3.36493e-17 -2.95102)
(1.01715e-17 5.28758e-18 -3.24136)
(-8.71349e-18 6.9599e-17 -3.57173)
(-4.50089e-19 -3.70113e-17 -3.93525)
(2.56221e-17 8.37828e-17 -4.34194)
(-2.08804e-17 1.85418e-16 -4.79181)
(-1.50876e-16 -1.43477e-16 -5.28238)
(3.84768e-18 -1.53492e-16 -5.8211)
(5.84792e-17 2.99615e-16 -6.40695)
(2.97221e-17 -1.05098e-16 -7.0354)
(4.41639e-17 -2.05151e-16 -7.71082)
(-5.55858e-17 -7.34076e-17 -8.43252)
(9.95505e-17 -9.58198e-17 -9.19088)
(-3.19448e-16 3.92613e-16 -9.98819)
(1.67848e-16 -2.62173e-16 -10.8176)
(-1.69054e-16 1.40061e-16 -11.6723)
(5.90698e-17 -3.86365e-16 -12.5491)
(1.12669e-16 -4.25672e-16 -13.4413)
(1.06031e-16 -2.07253e-16 -14.3277)
(-3.65416e-17 -7.38571e-17 -15.2234)
(1.25673e-16 -3.87146e-16 -16.1139)
(2.36777e-16 -2.39009e-16 -16.9621)
(-8.29985e-17 5.4445e-17 -17.8062)
(2.15952e-17 -6.18046e-17 -18.6195)
(7.2094e-17 -1.68663e-16 -19.3536)
(3.14238e-17 -9.82661e-17 -20.0874)
(-2.14521e-17 5.29907e-17 -20.7279)
(9.78305e-18 -5.19598e-17 -21.3238)
(-7.19362e-17 2.50704e-16 -21.8471)
(2.80854e-17 6.96894e-18 -22.2952)
(-4.09659e-18 9.77508e-19 -22.667)
(-1.28224e-17 5.85155e-17 -22.9596)
(-3.8603e-17 2.20736e-16 -23.1444)
(-2.79256e-19 -2.03696e-18 -23.2516)
(6.69831e-18 -1.0706e-16 -23.2064)
(-3.25445e-18 6.85243e-17 -23.0582)
(-1.70371e-18 -4.22876e-17 -22.7356)
(1.04995e-17 1.21797e-16 -22.2442)
(5.27824e-18 6.00828e-17 -21.5806)
(-2.26782e-17 -1.26911e-16 -20.72)
(-3.49242e-17 -2.1226e-16 -19.6971)
(1.40645e-17 6.4899e-17 -18.502)
(-3.8972e-17 -1.73334e-16 -17.1824)
(2.39911e-17 7.59387e-17 -15.7607)
(6.73018e-18 2.1157e-17 -14.2818)
(1.75475e-17 5.1738e-17 -12.7817)
(-5.45192e-18 -1.56071e-17 -11.3151)
(2.8413e-17 6.19672e-17 -9.96304)
(-6.92824e-18 -3.02634e-17 -8.82601)
(-8.8344e-19 2.30998e-17 -8.03933)
(4.10272e-18 8.41875e-18 -7.55471)
(7.81356e-18 2.33781e-17 -7.28271)
(-1.12221e-18 5.28986e-19 -7.17977)
(2.27194e-18 1.67585e-17 -7.22763)
(-4.46458e-18 -2.45131e-17 -7.39125)
(1.42737e-18 -2.23055e-19 -7.62326)
(1.44159e-18 -1.29735e-18 -7.87581)
(4.46123e-19 6.02311e-19 -8.12049)
(3.42295e-19 1.65303e-17 -8.34812)
(6.64558e-20 -2.04069e-18 -8.56024)
(2.42939e-18 1.50002e-19 -8.75838)
(-2.44203e-18 9.40311e-19 -8.94218)
(-1.36293e-19 -2.11437e-18 -9.11059)
(-1.64218e-18 -2.33771e-17 -9.26251)
(2.60123e-18 2.40943e-17 -9.39706)
(-1.06343e-18 2.00328e-17 -9.51373)
(-7.7141e-20 -2.3604e-17 -9.61273)
(5.86819e-20 8.56716e-19 -9.69463)
(-5.01116e-19 1.11945e-18 -9.76044)
(4.0004e-19 1.88952e-19 -9.81181)
(1.03963e-19 9.88945e-18 -9.85027)
(5.18869e-19 -4.48388e-19 -9.87755)
(-5.01254e-19 -1.216e-17 -9.89554)
(-2.91533e-19 -2.96875e-18 -9.90556)
(3.24381e-19 -1.0475e-18 -9.90866)
(-2.30904e-19 1.14953e-18 -9.90575)
(2.35672e-19 -4.13548e-20 -9.89727)
(-8.59557e-20 -1.19521e-18 -9.8833)
(1.34807e-19 -5.46062e-18 -9.86353)
(7.8052e-20 4.51198e-18 -9.83736)
(-9.63285e-20 5.37657e-18 -9.80397)
(4.53366e-20 -6.64616e-18 -9.76256)
(4.79945e-21 5.54471e-20 -9.71252)
(-2.03138e-21 -1.56636e-18 -9.65371)
(3.6053e-20 -2.67194e-18 -9.58625)
(2.8306e-20 -1.29592e-18 -9.51057)
(-1.02439e-20 1.31435e-18 -9.42607)
(1.82431e-20 -1.05093e-18 -9.35205)
(0 -0 3.6139)
(8.76453e-19 -0 3.04581)
(-8.54877e-19 -1.57885e-18 1.88228)
(6.75184e-19 -2.8954e-18 0.0366768)
(-6.84608e-19 6.05073e-18 -1.71953)
(2.32551e-20 -1.57648e-18 -3.2794)
(3.2593e-18 -0 -4.57324)
(-3.26413e-18 -0 -5.50406)
(1.79294e-19 -0 -6.16547)
(-3.98706e-19 -0 -6.63538)
(-6.84166e-18 6.19985e-18 -6.95247)
(6.28789e-18 9.69707e-18 -7.16544)
(7.6853e-18 -1.59249e-17 -7.30919)
(-8.51194e-19 9.17308e-18 -7.4055)
(1.12199e-18 -3.04852e-17 -7.4685)
(-7.31201e-18 3.37634e-17 -7.50807)
(-7.20601e-18 2.26535e-18 -7.53103)
(7.64793e-18 -2.09039e-17 -7.54198)
(-3.30053e-19 6.21517e-18 -7.54413)
(7.07804e-18 -1.23548e-17 -7.53982)
(-6.34432e-18 -1.55682e-17 -7.53074)
(-1.54897e-18 4.03036e-17 -7.5181)
(-3.32185e-20 -4.87374e-20 -7.50264)
(1.02473e-18 1.44873e-17 -7.48469)
(1.33461e-17 -3.91756e-17 -7.46416)
(-1.35626e-17 1.23565e-17 -7.44051)
(-1.16382e-17 -1.23456e-17 -7.41282)
(1.2294e-18 -2.49914e-17 -7.37979)
(2.33243e-17 2.53156e-17 -7.33969)
(-1.50906e-17 3.68315e-17 -7.29034)
(2.82878e-18 -1.42191e-17 -7.22896)
(-1.03152e-17 -4.52986e-17 -7.15162)
(9.6239e-18 3.54447e-17 -7.05558)
(1.41956e-17 -1.92163e-17 -6.94)
(-1.77978e-17 4.45339e-17 -6.80257)
(2.73e-17 -2.76663e-18 -6.64038)
(-1.00367e-16 -9.72453e-17 -6.48218)
(-8.19839e-17 -1.59505e-16 -6.40301)
(1.45162e-16 -1.90795e-17 -6.44596)
(4.80079e-17 1.11298e-16 -6.61336)
(-2.36063e-17 1.66293e-16 -6.88428)
(-1.04587e-17 2.40361e-16 -7.20028)
(1.83451e-16 -5.76413e-16 -7.58937)
(4.54692e-17 -2.91648e-16 -8.05696)
(1.80018e-17 2.26399e-16 -8.58178)
(-8.20878e-17 -1.04988e-16 -9.1575)
(-1.74644e-16 2.12586e-16 -9.76072)
(-4.45634e-17 -2.78797e-17 -10.4056)
(-1.62145e-16 1.95416e-16 -11.0702)
(-3.08946e-17 -1.38366e-16 -11.7352)
(1.92748e-16 -1.79939e-16 -12.4227)
(-4.38203e-17 3.14515e-17 -13.1073)
(-1.01878e-16 3.84068e-16 -13.7966)
(-1.21676e-16 1.87073e-16 -14.4822)
(-6.47201e-17 2.43023e-16 -15.1665)
(-2.91136e-17 1.23277e-16 -15.8456)
(-3.75505e-17 -9.33999e-18 -16.5098)
(-4.38929e-18 -4.32825e-17 -17.1627)
(2.92321e-18 -3.36797e-17 -17.7615)
(6.57853e-18 -5.40616e-17 -18.3295)
(-9.9518e-18 -3.43932e-17 -18.806)
(1.93184e-17 -1.1376e-17 -19.1724)
(-3.75704e-17 -1.36698e-16 -19.4068)
(1.09554e-17 5.19143e-17 -19.4712)
(1.67589e-17 4.42037e-16 -19.3877)
(9.21185e-17 1.98138e-16 -19.1123)
(-2.31124e-18 3.27857e-17 -18.7008)
(9.63729e-18 -1.01365e-17 -18.1274)
(-3.579e-17 4.28709e-17 -17.4506)
(8.3994e-17 1.71036e-16 -16.6792)
(1.79901e-17 -1.02275e-16 -15.8383)
(-6.48282e-17 -2.47828e-16 -14.9753)
(4.64297e-17 2.44873e-16 -14.083)
(-8.35238e-17 -2.46971e-16 -13.1998)
(-7.52231e-17 1.1259e-16 -12.3363)
(3.50352e-18 -5.9325e-17 -11.4955)
(1.35206e-17 -1.50306e-16 -10.6923)
(-4.87488e-18 -2.63198e-17 -9.93053)
(8.48844e-17 -2.33854e-16 -9.20745)
(8.05886e-17 -1.03841e-16 -8.52578)
(-2.7453e-16 2.56777e-16 -7.88506)
(-2.90833e-17 3.76686e-17 -7.28093)
(3.65907e-17 -1.7255e-16 -6.713)
(-6.78251e-17 1.13289e-16 -6.17995)
(-1.95731e-19 -7.25951e-17 -5.67962)
(-1.57497e-16 1.45053e-16 -5.21483)
(1.69897e-16 3.27491e-16 -4.78607)
(3.57917e-17 9.37557e-17 -4.39065)
(-3.71081e-17 -1.46347e-16 -4.03445)
(-1.76629e-16 -3.14432e-18 -3.71551)
(-2.62471e-17 1.39197e-17 -3.43027)
(1.24175e-18 2.06502e-19 -3.18226)
(2.85077e-17 -1.08235e-17 -2.96776)
(-3.92098e-18 -3.25657e-17 -2.78223)
(-5.15191e-17 4.14256e-18 -2.62987)
(-2.01899e-18 3.01612e-17 -2.50151)
(2.41336e-17 -1.38205e-17 -2.40275)
(-7.63872e-17 -1.18776e-17 -2.32553)
(-4.42696e-17 -1.05263e-18 -2.27396)
(-2.20812e-18 2.38024e-17 -2.24172)
(1.13214e-17 -4.35509e-18 -2.23221)
(-1.11266e-17 9.41691e-18 -2.24034)
(7.26066e-18 -1.14457e-18 -2.26738)
(-5.7213e-21 -1.04023e-18 -2.31116)
(6.25371e-20 1.16938e-17 -2.37088)
(-2.39607e-17 1.88308e-17 -2.44638)
(4.54741e-19 2.40141e-17 -2.53627)
(-2.39591e-17 -6.76995e-17 -2.64037)
(-2.15884e-17 -4.4158e-17 -2.75807)
(4.51207e-17 1.02234e-16 -2.88909)
(-1.85188e-18 -2.87465e-17 -3.03348)
(6.13625e-19 -7.05381e-19 -3.19129)
(4.16067e-19 3.02326e-17 -3.36406)
(-3.3787e-17 1.64681e-17 -3.54998)
(4.74668e-17 4.98149e-18 -3.75585)
(1.37873e-18 -2.63515e-17 -3.97576)
(-6.09423e-17 -2.01984e-16 -4.21779)
(1.04478e-16 -5.74875e-17 -4.48254)
(5.06959e-17 3.93263e-16 -4.76902)
(-1.2288e-16 -5.04694e-17 -5.08407)
(1.83345e-16 -2.1431e-16 -5.42869)
(-2.63987e-18 -1.18049e-16 -5.80137)
(-1.34048e-16 2.61321e-16 -6.20735)
(-1.53977e-16 2.52673e-16 -6.64775)
(-1.7233e-16 6.72001e-17 -7.11805)
(1.71717e-16 8.76169e-17 -7.62129)
(-3.41386e-17 3.05366e-17 -8.15423)
(4.96344e-17 8.6858e-17 -8.71328)
(-2.19881e-16 3.45468e-16 -9.29639)
(-2.4065e-16 2.34817e-16 -9.89892)
(-1.87455e-16 1.99813e-16 -10.5082)
(-5.77392e-18 7.1493e-19 -11.1313)
(-2.68271e-16 3.715e-16 -11.7594)
(-2.59366e-17 -1.16474e-16 -12.3675)
(-8.59103e-17 1.89699e-16 -12.9785)
(-3.48727e-17 3.94705e-17 -13.5722)
(-2.04873e-17 -4.62997e-17 -14.1283)
(-1.26709e-16 2.82343e-16 -14.6841)
(3.21179e-17 -6.49511e-17 -15.1948)
(-1.13842e-16 3.39201e-16 -15.685)
(1.99449e-16 -6.2485e-16 -16.146)
(1.41454e-16 -5.37976e-16 -16.5788)
(6.73404e-17 -2.88406e-16 -16.9901)
(5.73653e-18 6.89231e-18 -17.3788)
(-8.32939e-18 9.46464e-17 -17.7412)
(2.59916e-18 4.22065e-18 -18.0835)
(1.49958e-18 -3.70948e-17 -18.3794)
(-4.28006e-18 1.18776e-16 -18.6393)
(1.38136e-18 -6.59719e-17 -18.8153)
(3.53819e-18 1.36075e-16 -18.8954)
(-9.85205e-18 -1.02334e-16 -18.856)
(2.48392e-18 -2.73167e-18 -18.6656)
(3.96746e-17 2.23861e-16 -18.322)
(-1.81316e-17 -9.23557e-17 -17.7989)
(3.4087e-17 1.45547e-16 -17.1115)
(8.46576e-18 4.0831e-17 -16.2632)
(-4.87235e-17 -1.89219e-16 -15.2824)
(1.00977e-17 3.08344e-17 -14.1936)
(-2.77424e-19 -2.19872e-18 -13.0508)
(-2.8167e-17 -8.80716e-17 -11.9349)
(-2.70639e-18 4.93731e-18 -10.9009)
(3.53266e-18 -3.08884e-19 -10.0521)
(9.73859e-19 -1.79777e-18 -9.43601)
(-2.60463e-18 -2.55386e-17 -9.00776)
(-5.6807e-19 1.01692e-18 -8.72021)
(9.38971e-19 -3.20218e-18 -8.544)
(-9.40189e-20 1.81826e-17 -8.4375)
(-3.20284e-18 -1.81583e-17 -8.37264)
(-2.64439e-18 -2.14399e-17 -8.33007)
(1.19111e-18 -2.6031e-18 -8.29815)
(2.55321e-18 2.34799e-17 -8.27465)
(-7.40381e-19 -5.61448e-18 -8.26415)
(-1.82565e-18 -2.55907e-17 -8.27053)
(1.82617e-18 2.7681e-17 -8.2946)
(3.99118e-19 3.01678e-18 -8.3349)
(-2.20603e-18 2.94892e-18 -8.38844)
(1.91074e-18 -8.20521e-19 -8.45104)
(5.85575e-19 -2.82948e-17 -8.51787)
(-3.43925e-19 2.96577e-17 -8.58395)
(-2.16582e-19 -6.56411e-19 -8.64457)
(4.48979e-19 4.06887e-18 -8.69578)
(-3.15341e-19 -1.41459e-19 -8.73465)
(3.68825e-20 -4.29715e-18 -8.7594)
(2.20924e-19 -1.44133e-17 -8.76954)
(-5.12956e-19 1.49282e-17 -8.76572)
(3.64537e-20 2.9481e-18 -8.7496)
(-8.90223e-20 -4.12411e-18 -8.72363)
(-5.62533e-20 1.99468e-19 -8.6907)
(1.70093e-19 1.45941e-17 -8.6537)
(-2.0449e-19 -1.48866e-17 -8.61533)
(-1.74323e-19 -3.97503e-18 -8.57777)
(2.19458e-19 -7.24692e-18 -8.54233)
(-9.14477e-20 7.32928e-18 -8.50931)
(9.98906e-21 -7.28776e-18 -8.47817)
(-7.06301e-20 7.31262e-18 -8.4477)
(-1.34032e-21 3.11558e-18 -8.41635)
(-9.73081e-20 3.52486e-18 -8.38242)
(2.46668e-20 -1.80192e-18 -8.34411)
(1.35501e-19 -5.6117e-18 -8.2972)
(-2.24948e-21 8.95027e-21 -8.25145)
(0 -0 2.35016)
(0 -0 2.34871)
(1.4154e-20 -1.59919e-18 2.12543)
(5.8903e-19 -2.83203e-18 1.53247)
(-6.15351e-19 6.01961e-18 0.778803)
(7.79973e-20 -4.67099e-18 -0.201796)
(4.23877e-18 -6.19664e-18 -1.13339)
(-7.68242e-18 1.54188e-17 -1.98464)
(2.6748e-18 6.91668e-20 -2.73701)
(1.5074e-18 -1.84664e-17 -3.39028)
(-8.87901e-19 1.53136e-17 -3.88614)
(6.6849e-18 -3.05589e-18 -4.28758)
(-1.27174e-17 -6.0525e-18 -4.61824)
(1.37712e-17 -1.77237e-17 -4.884)
(-1.40791e-17 1.83214e-17 -5.09745)
(5.45619e-18 2.8917e-17 -5.27066)
(1.58788e-18 -2.95151e-17 -5.41232)
(-6.42652e-19 6.05288e-18 -5.52881)
(3.36598e-19 -6.00483e-18 -5.62516)
(6.4143e-18 -1.07727e-17 -5.70555)
(-7.86305e-18 2.27935e-17 -5.77342)
(1.11929e-18 -6.01597e-18 -5.83166)
(-1.3153e-17 1.19549e-17 -5.88265)
(1.35824e-17 8.33948e-18 -5.92831)
(1.74377e-18 -6.4131e-17 -5.97003)
(-4.00968e-18 6.77393e-17 -6.00874)
(-6.47624e-19 1.90404e-17 -6.04486)
(1.91356e-18 -3.63381e-17 -6.07837)
(-9.65465e-18 -4.85252e-17 -6.10884)
(8.15884e-18 6.58631e-17 -6.1354)