/*--------------------------------*- C++ -*----------------------------------*\
| =========                 |                                                 |
| \\      /  F ield         | OpenFOAM: The Open Source CFD Toolbox           |
|  \\    /   O peration     | Version:  2506                                  |
|   \\  /    A nd           | Website:  www.openfoam.com                      |
|    \\/     M anipulation  |                                                 |
\*---------------------------------------------------------------------------*/
FoamFile
{
    version     2.0;
    format      ascii;
    arch        "LSB;label=32;scalar=64";
    class       volScalarField;
    location    "3";
    object      p;
}
// * * * * * * * * * * * * * * * * * * * * * * * * * * * * * * * * * * * * * //

dimensions      [0 2 -2 0 0 0 0];

internalField   nonuniform List<scalar> 
4000
(
0.00454324
0.00446788
0.0044181
0.00438788
0.00436292
0.0043398
0.00431799
0.00429697
0.00427631
0.00425587
0.00423557
0.0042154
0.00419532
0.00417534
0.00415545
0.00413564
0.00411593
0.00409631
0.0040768
0.00405739
0.0040381
0.00401894
0.00399992
0.00398107
0.00396241
0.00394396
0.00392576
0.00390786
0.00389029
0.00387313
0.00385645
0.00384038
0.00382508
0.0038106
0.00379805
0.00378715
0.00377613
0.00376428
0.00375138
0.00373684
0.00371996
0.00369905
0.00367433
0.0036469
0.00361674
0.00358405
0.00354891
0.00351123
0.00347177
0.00343035
0.00338728
0.00334323
0.00329788
0.00325254
0.00320658
0.00316132
0.00311654
0.00307271
0.0030308
0.00298951
0.00295097
0.00291376
0.00287843
0.00284503
0.00281284
0.00278258
0.00275324
0.00272539
0.00269838
0.00267248
0.00264747
0.00262318
0.00259983
0.0025772
0.00255535
0.00253432
0.00251406
0.00249457
0.0024759
0.002458
0.00244085
0.00242445
0.00240876
0.00239374
0.00237938
0.00236562
0.00235243
0.00233981
0.00232769
0.00231607
0.00230496
0.00229429
0.00228405
0.00227426
0.00226485
0.00225585
0.00224717
0.00223884
0.00223077
0.00222298
0.00221537
0.00220793
0.00220059
0.0021933
0.00218603
0.00217867
0.00217123
0.00216358
0.00215572
0.00214756
0.00213906
0.00213014
0.00212076
0.00211081
0.00210028
0.00208901
0.00207697
0.00206405
0.00205015
0.00203519
0.00201908
0.00200171
0.00198305
0.00196305
0.0019416
0.00191871
0.00189433
0.00186844
0.00184105
0.00181215
0.00178169
0.00174984
0.00171654
0.00168168
0.00164557
0.00160815
0.00156914
0.00152931
0.00148809
0.00144603
0.00140313
0.00135967
0.00131595
0.00127245
0.00122909
0.0011872
0.00114565
0.00110655
0.00106891
0.0010332
0.000999867
0.000967893
0.00093848
0.000910277
0.000884226
0.000859234
0.00083609
0.000814157
0.000793869
0.00077535
0.000760692
0.000745595
0.00073094
0.000716692
0.000702862
0.000688773
0.000674242
0.000658086
0.000640837
0.000622969
0.000604473
0.000585354
0.000565648
0.000545411
0.000524717
0.000503653
0.000482315
0.000460795
0.000439181
0.00041755
0.00039594
0.000374426
0.000353043
0.000331823
0.000310785
0.000289938
0.000269281
0.000248806
0.000228495
0.000208324
0.000188271
0.000168313
0.000148422
0.000128575
0.00010875
8.8933e-05
6.91133e-05
4.9286e-05
2.94483e-05
9.68617e-06
0.00449459
0.00445147
0.00441425
0.00438757
0.00436408
0.00434129
0.00431939
0.00429824
0.00427752
0.00425703
0.00423671
0.00421653
0.00419646
0.0041765
0.00415663
0.00413687
0.00411719
0.00409762
0.00407814
0.00405878
0.00403953
0.00402042
0.00400145
0.00398264
0.00396402
0.0039456
0.00392744
0.00390955
0.00389199
0.00387482
0.00385811
0.00384195
0.00382647
0.0038117
0.00379824
0.00378582
0.00377304
0.00375942
0.00374467
0.00372819
0.00370936
0.00368685
0.00366108
0.0036329
0.00360225
0.0035693
0.00353417
0.00349682
0.00345797
0.00341749
0.00337569
0.00333313
0.00328967
0.00324624
0.00320252
0.00315945
0.00311698
0.00307528
0.00303517
0.0029958
0.00295865
0.00292278
0.00288852
0.00285596
0.00282458
0.00279486
0.00276607
0.0027386
0.00271198
0.00268629
0.00266146
0.00263731
0.002614
0.00259137
0.00256945
0.00254827
0.00252781
0.00250807
0.00248907
0.00247081
0.00245329
0.00243648
0.00242038
0.00240494
0.00239015
0.00237596
0.00236234
0.00234926
0.00233669
0.0023246
0.00231297
0.00230178
0.002291
0.00228063
0.00227063
0.00226099
0.00225168
0.00224267
0.00223393
0.00222543
0.00221711
0.00220895
0.00220088
0.00219286
0.00218485
0.00217677
0.00216858
0.00216022
0.00215164
0.00214276
0.00213353
0.00212388
0.00211375
0.00210304
0.0020917
0.00207959
0.00206667
0.00205284
0.00203799
0.00202205
0.00200496
0.00198661
0.00196698
0.00194602
0.00192367
0.00189992
0.00187478
0.00184821
0.00182025
0.00179087
0.00176008
0.00172798
0.00169455
0.00165974
0.00162379
0.00158667
0.00154825
0.00150911
0.00146889
0.00142804
0.00138664
0.00134492
0.00130318
0.00126179
0.00122075
0.00118106
0.00114199
0.00110492
0.00106916
0.00103502
0.00100293
0.000972154
0.000943574
0.000916178
0.000890659
0.000866135
0.000843236
0.000821474
0.000801113
0.000782054
0.000765987
0.000749716
0.000733883
0.000718467
0.000703373
0.000688182
0.000672644
0.00065599
0.000638551
0.000620603
0.000602093
0.000583004
0.000563359
0.000543206
0.000522614
0.000501664
0.000480443
0.000459039
0.000437531
0.000415989
0.000394486
0.000373084
0.000351799
0.000330666
0.000309706
0.000288932
0.000268343
0.000247935
0.000227696
0.000207605
0.000187633
0.000167755
0.000147946
0.000128181
0.000108439
8.87056e-05
6.89676e-05
4.92166e-05
2.94445e-05
9.68802e-06
0.00447072
0.00444201
0.00441188
0.00438742
0.00436458
0.00434223
0.0043205
0.00429935
0.00427858
0.00425806
0.00423773
0.00421753
0.00419746
0.00417751
0.00415765
0.00413789
0.00411824
0.00409868
0.00407923
0.00405989
0.00404066
0.00402157
0.00400262
0.00398382
0.00396521
0.0039468
0.00392863
0.00391072
0.00389313
0.00387589
0.00385907
0.00384274
0.00382699
0.00381178
0.00379745
0.00378372
0.00376953
0.00375445
0.00373814
0.00372002
0.00369957
0.00367595
0.00364956
0.00362101
0.00359023
0.00355736
0.00352256
0.00348588
0.00344789
0.00340855
0.00336813
0.00332713
0.00328551
0.00324393
0.00320225
0.00316108
0.00312046
0.00308055
0.00304194
0.00300407
0.00296793
0.00293295
0.00289935
0.00286724
0.00283628
0.00280675
0.00277815
0.00275077
0.00272424
0.00269861
0.00267381
0.00264969
0.00262633
0.00260364
0.0025816
0.00256026
0.00253957
0.00251957
0.00250026
0.00248166
0.00246377
0.00244658
0.00243008
0.00241424
0.00239905
0.00238446
0.00237044
0.00235696
0.00234398
0.00233147
0.00231942
0.00230778
0.00229655
0.0022857
0.0022752
0.00226505
0.00225521
0.00224567
0.00223637
0.0022273
0.00221841
0.00220966
0.00220102
0.00219242
0.00218382
0.00217516
0.00216639
0.00215745
0.00214827
0.0021388
0.00212896
0.00211868
0.0021079
0.00209651
0.00208445
0.00207161
0.00205791
0.00204327
0.00202758
0.00201079
0.00199283
0.00197362
0.00195314
0.00193137
0.00190826
0.00188383
0.00185809
0.00183102
0.00180265
0.001773
0.00174205
0.0017099
0.00167655
0.00164199
0.0016064
0.00156979
0.00153214
0.00149387
0.0014548
0.00141526
0.00137539
0.00133539
0.00129551
0.00125602
0.00121701
0.00117903
0.00114175
0.00110607
0.00107163
0.00103859
0.00100733
0.000977303
0.000949169
0.000922187
0.000896867
0.000872567
0.000849709
0.000827921
0.000807413
0.000787823
0.000770467
0.000753091
0.000736198
0.000719747
0.000703632
0.000687481
0.00067116
0.000654094
0.000636488
0.00061848
0.000599969
0.000580911
0.000561324
0.000541248
0.000520744
0.00049989
0.000478772
0.000457472
0.000436068
0.000414633
0.00039323
0.000371891
0.000350674
0.000329607
0.000308712
0.000288001
0.000267477
0.000247135
0.000226957
0.000206932
0.000187031
0.000167229
0.000147498
0.000127813
0.000108153
8.84987e-05
6.88357e-05
4.91512e-05
2.94304e-05
9.66748e-06
0.00445918
0.00443538
0.00440901
0.00438637
0.00436454
0.00434257
0.00432113
0.00430013
0.00427943
0.00425893
0.0042386
0.00421841
0.00419835
0.0041784
0.00415855
0.0041388
0.00411915
0.00409961
0.00408016
0.00406083
0.00404161
0.00402252
0.00400356
0.00398475
0.00396612
0.00394767
0.00392944
0.00391146
0.00389376
0.00387638
0.00385936
0.00384275
0.0038266
0.00381083
0.00379569
0.00378091
0.00376553
0.00374917
0.00373153
0.0037121
0.00369051
0.00366613
0.00363933
0.00361057
0.00357981
0.0035472
0.00351291
0.00347706
0.00344005
0.00340195
0.00336303
0.00332364
0.00328383
0.00324403
0.00320424
0.00316484
0.0031259
0.00308756
0.00305022
0.00301355
0.00297818
0.00294385
0.0029107
0.00287884
0.00284805
0.00281855
0.00278998
0.00276258
0.00273601
0.00271034
0.00268549
0.00266131
0.00263789
0.00261509
0.00259294
0.00257143
0.00255055
0.00253031
0.00251074
0.00249184
0.00247362
0.0024561
0.00243925
0.00242307
0.00240752
0.00239258
0.00237821
0.00236437
0.00235102
0.00233814
0.00232569
0.00231364
0.00230197
0.00229067
0.0022797
0.00226905
0.00225869
0.00224861
0.00223876
0.00222913
0.00221966
0.00221035
0.00220112
0.00219194
0.00218276
0.00217352
0.00216417
0.00215465
0.00214489
0.00213482
0.00212437
0.00211347
0.00210203
0.00208996
0.00207719
0.0020636
0.00204912
0.00203368
0.00201718
0.00199956
0.00198078
0.00196078
0.00193955
0.00191707
0.00189334
0.00186837
0.00184217
0.00181477
0.00178619
0.00175646
0.00172557
0.00169359
0.00166057
0.00162648
0.00159149
0.00155564
0.00151895
0.00148174
0.00144394
0.0014058
0.00136748
0.00132913
0.00129096
0.00125316
0.00121582
0.00117931
0.00114348
0.00110889
0.00107539
0.00104308
0.00101229
0.000982647
0.000954655
0.000927791
0.000902437
0.000878194
0.000855181
0.000833192
0.000812441
0.00079238
0.000774184
0.000755871
0.000738029
0.000720652
0.000703676
0.00068675
0.000669859
0.000652437
0.000634657
0.000616586
0.000598061
0.000579016
0.000559457
0.000539421
0.000518967
0.000498168
0.000477109
0.000455873
0.000434537
0.000413168
0.000391828
0.000370555
0.000349405
0.000328407
0.00030758
0.000286939
0.000266489
0.00024622
0.000226125
0.000206183
0.000186369
0.000166655
0.000147013
0.000127417
0.000107842
8.82676e-05
6.86776e-05
4.90558e-05
2.93854e-05
9.63737e-06
0.00445203
0.00442991
0.00440594
0.00438476
0.00436395
0.00434268
0.00432157
0.00430074
0.00428015
0.00425972
0.00423942
0.00421925
0.0041992
0.00417925
0.0041594
0.00413966
0.00412001
0.00410046
0.00408101
0.00406167
0.00404244
0.00402332
0.00400433
0.00398549
0.00396679
0.00394827
0.00392995
0.00391184
0.00389397
0.00387638
0.00385909
0.00384212
0.0038255
0.00380913
0.00379321
0.00377748
0.00376102
0.0037435
0.00372469
0.00370417
0.00368167
0.00365668
0.00362957
0.00360071
0.0035701
0.00353788
0.00350425
0.00346931
0.00343337
0.00339659
0.00335923
0.00332146
0.0032834
0.00324536
0.00320736
0.00316964
0.00313231
0.00309542
0.00305928
0.00302369
0.00298909
0.00295534
0.00292257
0.00289091
0.00286021
0.00283069
0.00280206
0.00277452
0.00274784
0.00272203
0.00269705
0.00267275
0.0026492
0.00262627
0.00260396
0.00258227
0.00256119
0.00254072
0.00252089
0.00250171
0.0024832
0.00246535
0.00244818
0.00243167
0.00241579
0.00240051
0.00238581
0.00237164
0.00235795
0.00234471
0.0023319
0.00231946
0.00230738
0.00229564
0.0022842
0.00227306
0.00226218
0.00225156
0.00224115
0.00223096
0.0022209
0.002211
0.00220118
0.0021914
0.00218163
0.00217178
0.00216184
0.00215171
0.00214134
0.00213065
0.00211956
0.00210799
0.00209586
0.00208306
0.00206954
0.00205517
0.00203989
0.00202364
0.00200631
0.00198789
0.00196833
0.00194759
0.00192568
0.0019026
0.00187834
0.00185294
0.00182644
0.00179884
0.0017702
0.00174054
0.00170986
0.00167824
0.00164572
0.00161227
0.00157805
0.00154311
0.0015075
0.00147146
0.00143499
0.00139829
0.00136149
0.00132471
0.00128812
0.00125186
0.00121599
0.00118079
0.00114616
0.00111249
0.00107973
0.00104796
0.00101747
0.000988016
0.00096002
0.0009331
0.000907592
0.0008832
0.000859908
0.000837641
0.000816566
0.00079602
0.000777213
0.000758099
0.000739413
0.000721218
0.000703507
0.000685929
0.000668568
0.000650804
0.000632828
0.000614672
0.000596105
0.000577036
0.000557471
0.000537446
0.000517014
0.000496251
0.000475239
0.00045406
0.000432788
0.000411489
0.000390222
0.000369032
0.000347964
0.000327049
0.000306307
0.000285752
0.000265388
0.000245215
0.000225213
0.000205366
0.000185647
0.000166027
0.000146478
0.000126973
0.000107485
8.79934e-05
6.84796e-05
4.89256e-05
2.93158e-05
9.6076e-06
0.0044472
0.00442575
0.00440324
0.00438324
0.00436326
0.0043426
0.00432184
0.00430125
0.00428082
0.00426048
0.00424022
0.00422007
0.00420003
0.00418008
0.00416023
0.00414048
0.00412082
0.00410125
0.00408178
0.00406241
0.00404314
0.00402398
0.00400494
0.00398602
0.00396724
0.00394861
0.00393014
0.00391186
0.00389378
0.00387592
0.00385829
0.00384091
0.00382379
0.00380679
0.00379012
0.00377349
0.00375603
0.00373749
0.00371766
0.0036962
0.00367295
0.0036475
0.0036202
0.00359135
0.003561
0.00352929
0.0034964
0.00346243
0.00342767
0.00339224
0.00335637
0.00332019
0.00328382
0.00324745
0.00321113
0.00317501
0.00313917
0.00310366
0.00306868
0.00303413
0.00300028
0.00296711
0.00293475
0.0029033
0.00287268
0.0028431
0.00281437
0.00278665
0.00275976
0.00273375
0.00270856
0.00268406
0.00266031
0.00263718
0.00261467
0.00259279
0.00257148
0.00255078
0.00253069
0.00251124
0.00249243
0.00247428
0.00245679
0.00243996
0.00242376
0.00240817
0.00239315
0.00237867
0.00236467
0.0023511
0.00233795
0.00232515
0.00231268
0.00230053
0.00228864
0.00227703
0.00226564
0.00225449
0.00224351
0.00223275
0.0022221
0.0022116
0.00220116
0.00219076
0.00218038
0.0021699
0.00215934
0.00214857
0.00213755
0.00212619
0.00211441
0.00210213
0.00208927
0.0020757
0.00206139
0.00204621
0.00203011
0.00201304
0.00199491
0.00197573
0.00195545
0.00193405
0.00191156
0.00188799
0.00186335
0.00183767
0.001811
0.00178336
0.0017548
0.00172535
0.00169502
0.0016639
0.00163201
0.00159931
0.00156597
0.00153205
0.00149758
0.00146276
0.00142762
0.00139231
0.00135695
0.00132164
0.0012865
0.00125162
0.00121706
0.00118301
0.00114941
0.00111653
0.00108438
0.00105303
0.00102274
0.000993368
0.000965265
0.000938156
0.000912372
0.000887643
0.000864006
0.000841339
0.000819905
0.000798867
0.000779545
0.00075975
0.000740341
0.000721457
0.000703141
0.000685011
0.000667225
0.000649115
0.000630907
0.00061261
0.000593941
0.000574792
0.000555174
0.000535125
0.000514698
0.000493966
0.000473009
0.000451906
0.000430726
0.00040953
0.000388373
0.0003673
0.00034635
0.00032555
0.000304923
0.000284481
0.000264227
0.000244157
0.000224257
0.000204507
0.000184882
0.000165353
0.000145893
0.000126473
0.00010707
8.766e-05
6.82259e-05
4.87483e-05
2.92152e-05
9.5731e-06
0.00444389
0.00442278
0.00440114
0.00438194
0.00436259
0.00434242
0.00432202
0.00430169
0.00428141
0.00426116
0.00424097
0.00422087
0.00420083
0.00418088
0.00416103
0.00414126
0.00412158
0.00410198
0.00408248
0.00406307
0.00404374
0.00402452
0.00400539
0.00398638
0.00396747
0.00394869
0.00393005
0.00391155
0.00389321
0.00387504
0.00385704
0.0038392
0.00382154
0.00380392
0.00378651
0.00376902
0.00375067
0.0037312
0.00371049
0.00368825
0.00366442
0.00363865
0.00361126
0.00358254
0.00355254
0.00352141
0.00348932
0.00345636
0.00342278
0.00338869
0.00335426
0.00331961
0.00328482
0.00325003
0.00321528
0.00318065
0.00314621
0.00311199
0.00307814
0.00304461
0.00301153
0.00297897
0.00294705
0.00291585
0.00288536
0.00285575
0.00282691
0.00279898
0.00277187
0.00274559
0.00272012
0.00269535
0.00267133
0.00264795
0.00262518
0.00260304
0.00258149
0.00256052
0.00254017
0.00252044
0.00250133
0.00248288
0.00246508
0.00244793
0.00243142
0.00241552
0.00240019
0.00238541
0.0023711
0.00235723
0.00234375
0.00233062
0.00231778
0.00230524
0.00229291
0.00228085
0.00226895
0.00225728
0.00224575
0.00223441
0.00222315
0.00221203
0.00220097
0.00218993
0.0021789
0.00216776
0.00215653
0.00214508
0.00213336
0.00212129
0.00210878
0.00209574
0.00208208
0.00206771
0.00205258
0.00203657
0.00201966
0.0020018
0.00198293
0.00196304
0.00194214
0.00192021
0.00189728
0.00187337
0.00184849
0.00182269
0.00179601
0.00176848
0.00174014
0.00171102
0.00168116
0.00165066
0.00161945
0.00158759
0.00155521
0.00152234
0.00148903
0.00145542
0.00142157
0.00138759
0.00135358
0.00131961
0.00128578
0.00125214
0.00121875
0.00118572
0.00115302
0.00112084
0.00108922
0.00105821
0.00102807
0.000998711
0.000970429
0.00094304
0.000916869
0.00089168
0.000867644
0.000844462
0.000822592
0.000801052
0.000781243
0.000760878
0.000740868
0.000721419
0.000702606
0.000683995
0.000665787
0.000647306
0.000628806
0.000610284
0.000591427
0.000572126
0.000552403
0.000532299
0.000511866
0.000491174
0.0004703
0.000449314
0.000428276
0.000407239
0.00038625
0.000365348
0.000344566
0.000323928
0.000303454
0.000283153
0.000263028
0.000243075
0.000223279
0.000203624
0.000184085
0.000164637
0.000145253
0.000125909
0.000106583
8.72528e-05
6.79023e-05
4.85127e-05
2.90765e-05
9.52666e-06
0.00444165
0.00442074
0.00439962
0.00438095
0.00436205
0.00434226
0.00432216
0.00430204
0.00428192
0.00426177
0.00424165
0.00422158
0.00420157
0.00418164
0.00416177
0.00414199
0.00412228
0.00410265
0.00408311
0.00406364
0.00404425
0.00402494
0.00400572
0.00398658
0.00396754
0.00394858
0.00392973
0.00391098
0.00389235
0.00387383
0.00385542
0.00383711
0.00381889
0.00380065
0.0037825
0.00376419
0.00374502
0.00372475
0.00370328
0.00368042
0.00365612
0.00363016
0.0036028
0.00357428
0.0035447
0.0035142
0.00348294
0.003451
0.00341858
0.00338579
0.00335273
0.00331952
0.00328621
0.00325288
0.00321958
0.00318634
0.00315321
0.0031202
0.00308744
0.00305493
0.00302264
0.00299071
0.0029593
0.00292844
0.00289815
0.00286858
0.00283968
0.00281159
0.00278425
0.00275769
0.00273191
0.00270682
0.00268247
0.00265876
0.00263568
0.00261324
0.00259138
0.00257012
0.00254946
0.00252943
0.00251001
0.00249123
0.00247311
0.00245563
0.00243879
0.00242256
0.00240691
0.00239181
0.00237718
0.00236299
0.0023492
0.00233572
0.00232252
0.0023096
0.00229685
0.00228434
0.00227196
0.00225977
0.00224766
0.00223575
0.00222388
0.00221213
0.00220041
0.00218871
0.002177
0.00216517
0.00215323
0.00214105
0.00212858
0.00211575
0.00210245
0.0020886
0.00207412
0.00205892
0.00204297
0.00202616
0.00200848
0.00198989
0.00197035
0.00194988
0.00192849
0.00190616
0.00188294
0.00185884
0.00183388
0.00180812
0.00178158
0.00175429
0.0017263
0.00169764
0.00166835
0.00163847
0.00160801
0.00157705
0.00154564
0.00151382
0.00148164
0.00144921
0.00141658
0.00138384
0.00135108
0.00131833
0.00128567
0.00125314
0.00122081
0.0011887
0.00115679
0.00112526
0.00109411
0.00106341
0.00103341
0.00100405
0.000975559
0.000947846
0.00092123
0.000895503
0.000870952
0.00084722
0.000824829
0.000802772
0.000782439
0.000761586
0.000741078
0.000721153
0.000701899
0.000682837
0.000664169
0.000645282
0.000626422
0.000607575
0.000588439
0.000568917
0.000549043
0.000528865
0.000508433
0.00048781
0.000467064
0.000446253
0.000425423
0.000404612
0.000383858
0.00036319
0.000342633
0.000322205
0.000301922
0.00028179
0.000261812
0.000241984
0.000222293
0.000202726
0.000183262
0.00016388
0.000144559
0.000125279
0.000106021
8.6768e-05
6.75061e-05
4.82176e-05
2.88996e-05
9.46509e-06
0.00444024
0.00441946
0.00439865
0.00438031
0.00436171
0.00434219
0.0043223
0.00430236
0.00428236
0.00426231
0.00424225
0.00422222
0.00420224
0.00418231
0.00416244
0.00414265
0.00412292
0.00410326
0.00408366
0.00406414
0.00404468
0.00402528
0.00400595
0.00398668
0.00396747
0.00394833
0.00392925
0.00391024
0.00389129
0.0038724
0.00385356
0.00383475
0.00381597
0.00379711
0.00377826
0.00375916
0.00373923
0.00371826
0.00369615
0.00367278
0.00364814
0.00362208
0.00359481
0.00356656
0.00353745
0.00350762
0.00347719
0.00344625
0.00341495
0.00338339
0.00335163
0.00331976
0.00328781
0.00325583
0.00322386
0.0031919
0.00315999
0.00312815
0.00309641
0.00306485
0.00303342
0.00300219
0.00297131
0.00294088
0.00291087
0.00288147
0.0028526
0.00282441
0.00279691
0.0027701
0.00274402
0.0027186
0.00269389
0.00266982
0.00264638
0.00262357
0.00260135
0.00257974
0.00255874
0.00253836
0.00251859
0.00249945
0.00248096
0.00246311
0.0024459
0.0024293
0.00241328
0.00239782
0.00238283
0.00236828
0.00235413
0.00234029
0.00232671
0.0023134
0.00230022
0.00228727
0.00227439
0.00226169
0.00224904
0.00223653
0.00222404
0.00221164
0.00219925
0.00218686
0.00217443
0.00216187
0.00214918
0.00213624
0.00212298
0.00210935
0.00209523
0.00208055
0.00206525
0.00204924
0.0020325
0.00201494
0.00199656
0.00197734
0.00195726
0.00193635
0.00191461
0.00189205
0.00186869
0.00184456
0.00181968
0.00179409
0.00176782
0.0017409
0.00171335
0.00168523
0.00165656
0.00162733
0.00159766
0.00156758
0.00153711
0.0015063
0.0014752
0.00144388
0.00141239
0.0013808
0.00134916
0.00131753
0.00128593
0.00125441
0.00122299
0.0011917
0.00116056
0.00112965
0.00109893
0.00106852
0.00103868
0.00100937
0.000980661
0.000952619
0.000925546
0.000899281
0.000874081
0.000849755
0.000826779
0.0008042
0.000783272
0.000761972
0.000741026
0.000720668
0.000700972
0.000681452
0.000662263
0.000642927
0.000623655
0.00060441
0.000584926
0.000565136
0.000545086
0.00052483
0.000504413
0.000483897
0.00046334
0.000442774
0.000422219
0.000401701
0.000381244
0.000360867
0.000340584
0.000320407
0.000300346
0.000280406
0.000260588
0.000240888
0.000221299
0.000201811
0.000182409
0.000163081
0.00014381
0.000124583
0.000105388
8.62127e-05
6.70461e-05
4.78723e-05
2.86911e-05
9.39145e-06
0.00443953
0.00441885
0.00439821
0.00438004
0.00436162
0.00434225
0.0043225
0.00430266
0.00428275
0.00426277
0.00424276
0.00422277
0.00420281
0.00418289
0.00416303
0.00414322
0.00412348
0.00410379
0.00408415
0.00406457
0.00404504
0.00402556
0.00400612
0.00398671
0.00396734
0.003948
0.00392869
0.00390939
0.00389011
0.00387085
0.00385159
0.00383229
0.00381293
0.00379347
0.00377393
0.00375407
0.00373345
0.00371186
0.00368921
0.00366542
0.00364052
0.00361443
0.00358732
0.00355938
0.00353076
0.00350161
0.003472
0.00344203
0.0034118
0.00338139
0.00335084
0.00332019
0.00328949
0.00325874
0.00322798
0.00319719
0.00316641
0.00313564
0.00310489
0.00307424
0.00304364
0.00301318
0.00298295
0.00295296
0.00292333
0.00289421
0.00286548
0.00283728
0.00280973
0.00278276
0.00275641
0.0027307
0.00270565
0.00268122
0.00265739
0.00263418
0.00261156
0.00258955
0.00256816
0.00254739
0.00252721
0.00250765
0.00248872
0.00247044
0.00245279
0.00243574
0.00241928
0.00240338
0.00238795
0.00237298
0.0023584
0.00234414
0.00233014
0.00231639
0.00230276
0.00228934
0.00227596
0.00226273
0.00224952
0.00223642
0.00222331
0.00221027
0.0021972
0.0021841
0.00217094
0.00215763
0.00214417
0.00213043
0.00211637
0.00210192
0.00208697
0.00207149
0.00205539
0.00203863
0.00202118
0.00200298
0.00198402
0.00196431
0.00194383
0.00192262
0.0019007
0.00187808
0.00185473
0.00183071
0.00180603
0.00178074
0.00175484
0.00172835
0.00170132
0.00167376
0.00164571
0.0016172
0.00158831
0.00155906
0.00152947
0.00149961
0.0014695
0.0014392
0.00140876
0.00137821
0.00134759
0.00131696
0.00128632
0.0012557
0.00122512
0.00119459
0.00116414
0.00113381
0.00110358
0.00107348
0.00104378
0.00101452
0.000985647
0.000957327
0.000929827
0.000903017
0.000877149
0.000852191
0.000828549
0.000805434
0.000783831
0.000762085
0.000740719
0.00071992
0.000699735
0.000679757
0.000660026
0.000640199
0.000620458
0.000600763
0.000580922
0.000560887
0.000540685
0.000520358
0.000499944
0.000479543
0.000459228
0.000438976
0.000418763
0.000398594
0.000378483
0.000358437
0.000338462
0.000318561
0.00029874
0.000279003
0.000259351
0.00023978
0.000220288
0.00020087
0.000181521
0.000162235
0.000143005
0.000123825
0.000104691
8.55974e-05
6.65364e-05
4.74923e-05
2.84615e-05
9.31412e-06
0.00443948
0.00441886
0.00439827
0.00438016
0.00436179
0.00434247
0.00432277
0.00430298
0.00428311
0.00426316
0.00424318
0.00422322
0.00420328
0.00418338
0.00416352
0.00414372
0.00412396
0.00410425
0.00408458
0.00406495
0.00404535
0.00402579
0.00400625
0.00398671
0.00396718
0.00394765
0.0039281
0.00390853
0.00388892
0.00386929
0.00384963
0.00382985
0.00380993
0.00378987
0.00376966
0.00374908
0.00372781
0.00370566
0.00368254
0.00365841
0.00363332
0.00360724
0.0035803
0.0035527
0.0035246
0.00349611
0.0034673
0.00343826
0.00340903
0.00337968
0.00335023
0.0033207
0.00329112
0.00326148
0.00323181
0.00320209
0.00317233
0.00314256
0.00311274
0.00308298
0.00305319
0.00302349
0.00299391
0.00296451
0.00293539
0.00290658
0.00287805
0.00284998
0.0028225
0.00279546
0.00276893
0.00274299
0.00271767
0.00269291
0.00266872
0.0026451
0.00262205
0.0025996
0.00257778
0.00255658
0.00253597
0.00251591
0.00249647
0.00247767
0.00245949
0.00244191
0.0024249
0.00240846
0.00239251
0.00237701
0.00236191
0.00234714
0.00233263
0.00231838
0.00230426
0.00229031
0.00227642
0.00226264
0.00224886
0.00223518
0.00222145
0.00220775
0.002194
0.0021802
0.00216631
0.00215226
0.00213802
0.00212351
0.00210866
0.0020934
0.00207767
0.00206143
0.0020446
0.00202717
0.00200913
0.00199042
0.00197105
0.00195101
0.00193032
0.00190899
0.00188706
0.0018645
0.00184128
0.00181745
0.00179309
0.00176816
0.00174268
0.00171668
0.00169017
0.00166319
0.00163577
0.00160795
0.00157979
0.00155131
0.00152255
0.00149355
0.00146434
0.00143497
0.00140546
0.00137584
0.00134615
0.00131641
0.00128663
0.00125684
0.00122703
0.0011972
0.00116739
0.00113758
0.00110781
0.00107814
0.00104864
0.00101944
0.000990446
0.00096191
0.000934004
0.000906661
0.000880159
0.000854562
0.000830174
0.000806487
0.000784146
0.000761927
0.000740126
0.000718865
0.000698167
0.000677683
0.000657469
0.000637238
0.000616933
0.000596641
0.000576476
0.000556253
0.000535911
0.000515563
0.000495272
0.000475085
0.000455029
0.000435082
0.00041521
0.000395395
0.000375646
0.000355952
0.000336307
0.000316689
0.000297111
0.000277575
0.000258082
0.000238634
0.000219233
0.000199882
0.000180583
0.000161339
0.000142152
0.000123021
0.00010395
8.49441e-05
6.59978e-05
4.70893e-05
2.82136e-05
9.2391e-06
0.00444007
0.00441949
0.00439886
0.00438068
0.00436223
0.00434286
0.00432312
0.00430331
0.00428343
0.00426349
0.00424353
0.00422358
0.00420366
0.00418378
0.00416393
0.00414413
0.00412438
0.00410465
0.00408496
0.00406529
0.00404564
0.004026
0.00400637
0.00398672
0.00396705
0.00394734
0.00392758
0.00390775
0.00388784
0.00386786
0.00384776
0.0038275
0.00380706
0.00378645
0.00376559
0.00374434
0.00372245
0.00369978
0.00367623
0.0036518
0.00362655
0.0036005
0.00357375
0.0035465
0.00351891
0.00349108
0.00346303
0.00343486
0.00340655
0.00337817
0.00334971
0.00332118
0.0032926
0.00326395
0.00323526
0.0032065
0.00317768
0.00314882
0.00311987
0.00309095
0.00306195
0.003033
0.0030041
0.00297532
0.00294669
0.00291828
0.00289013
0.00286235
0.00283495
0.00280794
0.00278131
0.00275525
0.00272976
0.00270474
0.00268022
0.00265623
0.00263276
0.00260985
0.00258761
0.00256596
0.00254483
0.00252426
0.00250428
0.00248486
0.00246606
0.00244784
0.0024302
0.00241311
0.0023965
0.00238037
0.00236464
0.00234926
0.00233415
0.0023193
0.00230461
0.00229009
0.00227564
0.00226128
0.00224694
0.00223265
0.00221831
0.00220398
0.00218957
0.00217508
0.00216047
0.00214569
0.0021307
0.00211545
0.00209987
0.0020839
0.00206749
0.00205061
0.00203324
0.00201531
0.00199678
0.00197764
0.00195794
0.00193774
0.00191702
0.00189574
0.00187389
0.00185148
0.00182851
0.00180499
0.00178096
0.00175642
0.00173137
0.00170584
0.00167985
0.00165343
0.0016266
0.00159943
0.00157193
0.00154416
0.00151614
0.00148792
0.00145952
0.00143097
0.00140229
0.00137352
0.00134464
0.00131572
0.00128671
0.00125766
0.00122855
0.00119939
0.00117018
0.00114092
0.00111161
0.00108233
0.00105305
0.00102396
0.000994976
0.000966306
0.000938024
0.000910206
0.000883027
0.00085673
0.000831559
0.000807282
0.000784158
0.000761452
0.000739231
0.000717523
0.000696204
0.000675103
0.000654404
0.000633795
0.000613137
0.000592529
0.000572011
0.00055153
0.000531103
0.000510789
0.000490631
0.000470656
0.000450862
0.00043122
0.000411688
0.000392241
0.000372847
0.000353481
0.000334155
0.000314799
0.000295448
0.0002761
0.000256757
0.000237423
0.000218109
0.000198825
0.000179579
0.000160384
0.000141248
0.00012218
0.000103188
8.42779e-05
6.54478e-05
4.66857e-05
2.79977e-05
9.20362e-06
0.00444136
0.0044208
0.00439999
0.00438158
0.00436294
0.0043434
0.00432354
0.00430364
0.00428372
0.00426376
0.00424379
0.00422386
0.00420396
0.00418409
0.00416427
0.00414449
0.00412474
0.00410502
0.00408532
0.00406563
0.00404594
0.00402624
0.00400653
0.00398678
0.00396697
0.00394711
0.00392715
0.0039071
0.00388692
0.0038666
0.00384611
0.00382542
0.0038045
0.00378335
0.00376187
0.00373996
0.00371748
0.0036943
0.00367034
0.00364561
0.00362022
0.00359422
0.00356763
0.00354073
0.00351365
0.00348645
0.00345912
0.00343175
0.00340429
0.00337678
0.0033492
0.00332155
0.00329386
0.00326608
0.00323826
0.00321035
0.00318237
0.00315435
0.00312621
0.00309808
0.00306984
0.00304162
0.0030134
0.00298524
0.00295717
0.00292924
0.00290151
0.00287401
0.00284679
0.00281991
0.00279339
0.00276732
0.00274165
0.00271644
0.00269165
0.00266731
0.0026435
0.00262027
0.00259758
0.0025754
0.00255374
0.00253265
0.00251211
0.00249207
0.00247255
0.00245362
0.00243525
0.00241743
0.00240009
0.00238323
0.00236678
0.00235067
0.00233487
0.00231934
0.00230399
0.00228883
0.00227376
0.00225879
0.00224385
0.00222895
0.00221403
0.00219909
0.00218407
0.00216895
0.0021537
0.00213827
0.00212258
0.00210655
0.00209023
0.00207362
0.00205669
0.00203935
0.00202153
0.00200322
0.00198441
0.00196508
0.00194524
0.001925
0.00190435
0.00188317
0.00186146
0.00183925
0.00181654
0.00179334
0.00176965
0.00174549
0.00172085
0.00169577
0.00167025
0.00164434
0.00161807
0.00159147
0.00156457
0.00153744
0.00151008
0.00148255
0.00145486
0.00142704
0.0013991
0.00137107
0.00134293
0.00131473
0.00128642
0.00125806
0.00122961
0.00120106
0.00117243
0.0011437
0.00111486
0.00108599
0.00105699
0.00102809
0.000999126
0.000970314
0.000941695
0.000913472
0.000885731
0.000858765
0.000832703
0.000807694
0.000783722
0.000760467
0.000737748
0.000715546
0.000693742
0.000672313
0.000651159
0.000630174
0.000609249
0.000588384
0.00056763
0.000547006
0.000526545
0.000506289
0.00048627
0.000466497
0.000446951
0.000427592
0.000408369
0.000389236
0.000370151
0.00035108
0.000331997
0.000312879
0.00029373
0.000274548
0.000255339
0.000236115
0.000216888
0.000197675
0.000178493
0.000159358
0.000140288
0.000121298
0.000102398
8.35982e-05
6.49e-05
4.62961e-05
2.77919e-05
9.18291e-06
0.00444349
0.00442287
0.0044017
0.00438287
0.00436387
0.00434406
0.00432399
0.00430396
0.00428396
0.00426396
0.00424399
0.00422406