/*--------------------------------*- C++ -*----------------------------------*\
| =========                 |                                                 |
| \\      /  F ield         | OpenFOAM: The Open Source CFD Toolbox           |
|  \\    /   O peration     | Version:  2506                                  |
|   \\  /    A nd           | Website:  www.openfoam.com                      |
|    \\/     M anipulation  |                                                 |
\*---------------------------------------------------------------------------*/
FoamFile
{
    version     2.0;
    format      ascii;
    arch        "LSB;label=32;scalar=64";
    class       volScalarField;
    location    "3";
    object      s;
}
// * * * * * * * * * * * * * * * * * * * * * * * * * * * * * * * * * * * * * //

dimensions      [0 0 0 0 0 0 0];

internalField   nonuniform List<scalar> 
4000
(
7.93775e-20
-2.56101e-19
-2.07772e-19
1.07419e-17
-7.94963e-17
2.32354e-16
2.4233e-15
-1.34638e-13
-5.96413e-12
-7.13398e-11
-3.64774e-10
-2.28601e-09
-1.3513e-10
1.32606e-07
2.39486e-06
2.8289e-05
0.000276985
0.00383868
0.0218394
0.0709096
0.137255
0.186661
0.19483
0.190967
0.17151
0.125634
0.0615656
0.0164519
0.00145848
0.00116227
0.00126379
0.00148533
0.00203141
0.00322217
0.00552396
0.0098298
0.0165853
0.0243744
0.0327586
0.0412624
0.049743
0.0562397
0.0592591
0.0595539
0.0587989
0.0577889
0.0568095
0.0556615
0.0546168
0.0536634
0.0527472
0.0520307
0.0513183
0.0507723
0.0501194
0.049445
0.0485433
0.0471427
0.0450205
0.041812
0.0372473
0.0310917
0.0240001
0.0172161
0.0115283
0.00721917
0.00423204
0.00233419
0.00122689
0.000623842
0.000310787
0.00015125
7.1143e-05
3.25736e-05
1.49452e-05
7.10929e-06
3.51567e-06
1.75665e-06
8.60715e-07
4.06582e-07
1.84045e-07
7.99839e-08
3.34726e-08
1.34928e-08
5.2301e-09
1.94801e-09
6.9444e-10
2.34032e-10
7.38635e-11
2.06636e-11
4.1692e-12
8.90494e-14
-6.5281e-13
-6.1581e-13
-4.72343e-13
-5.37387e-13
-8.19432e-13
-1.22163e-12
-1.21987e-12
-3.52945e-13
-1.22577e-13
-2.6684e-13
-2.33376e-12
-1.85038e-11
-8.51372e-11
-2.89005e-10
-5.72345e-10
-9.31564e-10
-1.53014e-09
-4.73326e-09
-6.77175e-08
-2.27059e-07
-4.90552e-07
-8.22644e-07
-1.18879e-06
-1.6077e-06
-2.09429e-06
-2.63286e-06
-3.16709e-06
-3.68365e-06
-4.18204e-06
-4.63318e-06
-5.05367e-06
-5.48514e-06
-5.84399e-06
-6.09139e-06
-6.21072e-06
-6.1852e-06
-6.05845e-06
-5.88603e-06
-5.59244e-06
-5.29204e-06
-5.05944e-06
-4.7345e-06
-4.44846e-06
-4.30443e-06
-4.04844e-06
-3.91059e-06
-3.72121e-06
-3.53696e-06
-3.30949e-06
-3.01691e-06
-2.66359e-06
-2.31824e-06
-1.75577e-06
-1.35543e-06
-9.77009e-07
-6.49106e-07
-3.94257e-07
-2.18699e-07
-1.12109e-07
-5.45153e-08
-2.61357e-08
-1.2681e-08
-6.00805e-09
-2.5342e-09
-9.21648e-10
-3.82388e-10
-3.38423e-10
-5.24883e-10
-9.1457e-10
-1.55335e-09
-2.79299e-09
-5.25841e-09
-9.48389e-09
-1.458e-08
-2.30475e-08
-4.12899e-07
-9.32343e-07
-1.1023e-06
-1.07242e-06
-8.5237e-07
-5.40245e-07
-2.78355e-07
-1.1785e-07
-3.96457e-08
-6.51832e-09
-9.70971e-10
-9.80045e-11
3.86341e-11
5.17909e-11
3.89749e-11
2.53502e-11
1.57218e-11
8.98106e-12
4.00072e-12
7.99679e-13
-6.89485e-13
-6.93384e-13
1.39767e-13
1.0699e-12
1.44758e-12
1.21059e-12
7.49807e-13
3.59017e-13
1.27301e-13
2.8176e-14
1.01426e-15
-1.36984e-15
-7.56264e-16
1.71376e-20
8.50303e-20
-9.58204e-19
4.12846e-18
1.81361e-18
-1.73042e-16
1.21928e-15
-1.20255e-14
-3.85666e-13
-6.65335e-12
-4.07215e-11
-3.93023e-10
-5.11444e-09
-5.66306e-09
1.71909e-07
2.83197e-06
2.47683e-05
0.000189809
0.000722674
0.00194661
0.00405359
0.0070345
0.0101825
0.0131574
0.0155648
0.017278
0.0181445
0.0179816
0.0177442
0.0176506
0.0177086
0.0178571
0.018132
0.018929
0.021827
0.0288166
0.0400183
0.053444
0.0662913
0.0766676
0.076155
0.0737215
0.0715739
0.0703382
0.0701162
0.0704093
0.0707916
0.0714991
0.0720188
0.0724467
0.0728084
0.072864
0.0729578
0.0727252
0.0725934
0.0721237
0.0712508
0.0702235
0.0693486
0.0686028
0.0681463
0.0676623
0.0674059
0.0674733
0.0677802
0.0686111
0.0693448
0.0694678
0.0680494
0.0634769
0.0519784
0.0343425
0.0173306
0.00765718
0.00407813
0.00233549
0.001342
0.000748839
0.000397107
0.000199751
9.57362e-05
4.42018e-05
1.97238e-05
8.4872e-06
3.5143e-06
1.40267e-06
5.40757e-07
2.02306e-07
7.40306e-08
2.64844e-08
9.21285e-09
3.10805e-09
9.89465e-10
2.69508e-10
1.78902e-11
-1.10293e-10
-2.68622e-10
-5.1828e-10
-7.38859e-10
-9.45305e-10
-1.66461e-09
-4.73809e-09
-1.61425e-08
-6.16366e-08
-2.0874e-07
-5.78172e-07
-1.27289e-06
-2.30534e-06
-3.45049e-06
-4.97631e-06
-7.07913e-06
-9.44541e-06
-1.29111e-05
-1.77149e-05
-2.22056e-05
-2.50119e-05
-2.59523e-05
-2.61838e-05
-2.59078e-05
-2.51713e-05
-2.43302e-05
-2.36327e-05
-2.31459e-05
-2.28187e-05
-2.2628e-05
-2.24856e-05
-2.23228e-05
-2.21015e-05
-2.17548e-05
-2.12023e-05
-2.05897e-05
-1.98371e-05
-1.88013e-05
-1.77706e-05
-1.66158e-05
-1.50954e-05
-1.38578e-05
-1.2325e-05
-1.10203e-05
-9.90494e-06
-9.18936e-06
-9.14616e-06
-9.90562e-06
-1.1227e-05
-1.29026e-05
-1.41098e-05
-1.48744e-05
-1.53644e-05
-1.55363e-05
-1.53373e-05
-1.47005e-05
-1.34516e-05
-1.16057e-05
-9.20655e-06
-6.51367e-06
-3.91714e-06
-1.86897e-06
-6.7512e-07
-2.32517e-07
-3.06048e-07
-5.11474e-07
-8.76328e-07
-1.64009e-06
-2.83603e-06
-5.10401e-06
-8.90669e-06
-1.37742e-05
-2.0817e-05
-2.63708e-05
-2.85204e-05
-2.81663e-05
-2.40256e-05
-1.76463e-05
-1.12695e-05
-6.40971e-06
-3.46846e-06
-1.76273e-06
-9.7685e-07
-5.92579e-07
-3.59722e-07
-2.12617e-07
-1.35038e-07
-9.23088e-08
-6.31199e-08
-4.21692e-08
-2.82434e-08
-1.91852e-08
-1.30867e-08
-8.80039e-09
-5.72013e-09
-3.56291e-09
-2.14201e-09
-1.21033e-09
-6.34471e-10
-3.13764e-10
-1.48803e-10
-6.83514e-11
-3.06601e-11
-1.3286e-11
-5.50561e-12
-1.53329e-20
1.03081e-19
-3.48726e-19
-1.05759e-19
1.00231e-17
-7.6774e-17
2.56672e-16
-6.4728e-16
-2.05669e-14
-2.21012e-13
-1.60297e-12
-2.22402e-11
-2.65993e-10
-2.27189e-09
4.60775e-09
3.95685e-08
6.76926e-08
8.60181e-08
2.10366e-07
5.2043e-07
1.06726e-06
1.96694e-06
3.29605e-06
5.287e-06
1.02975e-05
3.53626e-05
0.000307752
0.00105823
0.00190775
0.00281462
0.00379356
0.00492824
0.00630388
0.00811575
0.00999759
0.0109707
0.0106727
0.00981165
0.00899883
0.00810677
0.00690157
0.00583748
0.00512354
0.00468436
0.00447514
0.00442457
0.00447119
0.00463757
0.00486348
0.00516022
0.005545
0.0059955
0.00663427
0.0074614
0.00867672
0.0104675
0.0131604
0.0170602
0.022047
0.0281866
0.0344513
0.0408143
0.0470451
0.0529948
0.0592313
0.064588
0.0683293
0.0720923
0.0765724
0.0813992
0.0816758
0.079327
0.0745219
0.0672377
0.0565355
0.0434417
0.0286454
0.0158075
0.00873006
0.00520304
0.00313769
0.00189465
0.00111884
0.000629572
0.000337421
0.000174246
8.77945e-05
4.32281e-05
2.0763e-05
9.66095e-06
4.33472e-06
1.88969e-06
7.95887e-07
3.22005e-07
1.24719e-07
4.33388e-08
8.14252e-09
-1.66428e-08
-7.92689e-08
-1.60519e-07
-2.87776e-07
-4.95557e-07
-8.66643e-07
-1.56124e-06
-2.90862e-06
-5.64327e-06
-1.01577e-05
-1.69344e-05
-2.25401e-05
-2.46082e-05
-2.33331e-05
-1.77057e-05
-6.54118e-06
9.1605e-06
0.00016185
0.000797323
0.00189837
0.00339091
0.00512502
0.00702171
0.00901207
0.0109582
0.0127758
0.0144462
0.0158909
0.0171021
0.0180848
0.0188363
0.0194036
0.0198816
0.0201808
0.0203933
0.0206925
0.0208473
0.0209899
0.0212924
0.0212934
0.0213661
0.0211911
0.0207785
0.0200155
0.0187244
0.0168228
0.0143969
0.0114668
0.00894017
0.0067358
0.00494047
0.00348608
0.00234715
0.00150824
0.000905495
0.000510621
0.000265602
0.000127584
5.5109e-05
2.03699e-05
4.9063e-06
-1.44509e-06
-3.77232e-06
-4.87816e-06
-6.36351e-06
-1.03161e-05
-2.07265e-05
-3.7007e-05
-5.3609e-05
-6.11707e-05
-6.41902e-05
-4.7789e-05
-1.03413e-05
2.81675e-05
4.44855e-05
3.39323e-05
1.08507e-05
-8.97744e-06
-1.96132e-05
-1.95527e-05
-1.62323e-05
-1.43142e-05
-1.43714e-05
-1.5631e-05
-1.76183e-05
-1.89844e-05
-1.9519e-05
-1.89153e-05
-1.72113e-05
-1.46662e-05
-1.19279e-05
-9.42091e-06
-7.22007e-06
-5.30685e-06
-3.59221e-06
-2.18766e-06
-1.22895e-06
-6.43235e-07
-3.10867e-07
-1.38263e-07
-5.79069e-08
-2.38319e-08
-9.40598e-09
-9.58936e-21
3.12608e-20
-4.05791e-20
-9.32716e-20
1.38172e-19
5.83221e-18
-7.98718e-17
3.31482e-16
-1.85169e-15
-1.98512e-14
1.2045e-14
-2.32858e-13
-9.93486e-13
-3.87889e-11
-6.25492e-11
-1.29459e-10
-1.58916e-09
-6.09633e-09
-8.1653e-09
-7.18028e-09
-3.70558e-09
-3.11838e-09
-5.76077e-09
-4.56894e-09
-5.59127e-09
2.39535e-08
-1.92159e-07
4.70655e-08
3.14951e-07
6.79937e-07
1.18168e-06
3.0431e-05
0.000159428
0.000460617
0.000793246
0.00084718
0.000774969
0.000692495
0.000585011
0.000464628
0.000345274
0.00025593
0.000197461
0.000160154
0.000137599
0.000124336
0.000116885
0.000114685
0.00011553
0.000119476
0.000126714
0.000136648
0.000151346
0.000169824
0.000195435
0.000229652
0.000297179
0.000505182
0.00108845
0.00240249
0.0045388
0.0077627
0.0124475
0.0188601
0.0268803
0.0358095
0.0447303
0.0531532
0.0615088
0.06949
0.0759501
0.0792915
0.0807814
0.0833205
0.0852029
0.08431
0.0818037
0.0774103
0.0708953
0.0606196
0.0471923
0.0319568
0.0185697
0.010784
0.00659616
0.00406894
0.00255475
0.00158919
0.000954418
0.000547903
0.000302108
0.000162497
8.56242e-05
4.40672e-05
2.21478e-05
1.06738e-05
4.83005e-06
1.76797e-06
-3.03197e-08
-1.32846e-06
-2.54002e-06
-3.71279e-06
-4.72985e-06
-4.96122e-06
-3.1298e-06
3.22789e-06
1.82914e-05
5.46548e-05
0.000581045
0.00237334
0.00558854
0.0101817
0.0160496
0.022965
0.0310328
0.0396221
0.0481369
0.0564943
0.0642785
0.0713373
0.0776244
0.0829815
0.0874061
0.0910463
0.0939612
0.0962631
0.0980368
0.0993717
0.100393
0.101285
0.102031
0.102739
0.103621
0.104484
0.105464
0.106743
0.107876
0.109185
0.110344
0.111277
0.111788
0.111528
0.110081
0.107114
0.101514
0.0937367
0.0826572
0.0694931
0.0548712
0.039611
0.0258314
0.0158932
0.00962703
0.00564703
0.00317768
0.00166962
0.000835743
0.00040842
0.00020717
0.000118804
9.30644e-05
8.55475e-05
7.83496e-05
6.96046e-05
8.56368e-05
0.000323119
0.00371696
0.0107345
0.0188173
0.0249498
0.0269296
0.0244096
0.0187728
0.0122156
0.00661778
0.00294727
0.00117927
0.000441062
0.000150274
4.02453e-05
-2.35325e-06
-2.24465e-05
-3.57736e-05
-4.69099e-05
-5.6759e-05
-6.35102e-05
-6.57691e-05
-6.5097e-05
-6.21218e-05
-5.76452e-05
-4.869e-05
-3.46843e-05
-2.42006e-05
-1.70439e-05
-1.12569e-05
-6.77212e-06
-3.64522e-06
-1.74652e-06
-7.66325e-07
-2.87454e-07
-2.3671e-21
1.30291e-20
-8.07319e-20
6.51249e-19
-4.69455e-18
2.7346e-17
-1.27197e-16
4.22999e-16
-9.33745e-16
5.90274e-16
9.75055e-15
1.54595e-14
-2.94682e-14
1.21512e-13
-1.25536e-11
-7.17813e-11
-1.30599e-10
-2.2729e-10
-4.91777e-10
-1.1959e-09
-2.60013e-09
-4.74034e-09
-8.06916e-09
-1.02891e-08
-1.18616e-08
-2.48071e-08
-3.62546e-08
-2.22211e-08
-1.58158e-08
-2.57737e-08
-4.3304e-08
9.40979e-09
1.77507e-07
7.50532e-07
1.57212e-06
1.41499e-06
9.61405e-07
7.97153e-07
7.48062e-07
7.04507e-07
6.25728e-07
5.48073e-07
4.87032e-07
4.41954e-07
4.13198e-07
3.96737e-07
3.89301e-07
3.93223e-07
4.04308e-07
4.24408e-07
4.55187e-07
4.95955e-07
5.53166e-07
6.19736e-07
6.92422e-07
7.66631e-07
1.13208e-06
1.79305e-06
2.76501e-06
3.93806e-06
4.11806e-06
3.52911e-05
0.000367722
0.00151514
0.00386097
0.00760666
0.0134482
0.0211111
0.029927
0.0392678
0.0489879
0.0580236
0.0650458
0.0711464
0.0761647
0.0798109
0.0819198
0.0836089
0.0873223
0.0918017
0.0930452
0.0915105
0.0876843
0.0824317
0.0735815
0.0602147
0.0454089
0.0301712
0.0180517
0.011077
0.00704647
0.00467987
0.00318285
0.00216184
0.00143618
0.000906499
0.000552778
0.00033705
0.000207919
0.000135084
0.000143227
0.000397283
0.00102393
0.00227117
0.00455203
0.00826365
0.0139893
0.0221147
0.0330041
0.0463287
0.0611343
0.0755191
0.088788
0.100599
0.111297
0.120825
0.129
0.135657
0.140679
0.144375
0.147036
0.148829
0.149924
0.150467
0.150561
0.150325
0.149892
0.149363
0.148825
0.14837
0.148089
0.14807
0.14835
0.148944
0.149864
0.151113
0.152687
0.154583
0.156792
0.159313
0.162125
0.165185
0.168367
0.171508
0.173917
0.174779
0.173106
0.168627
0.159904
0.143417
0.120352
0.0932536
0.0663476
0.0417079
0.0231745
0.0127396
0.0071205
0.0039564
0.00220879
0.00133995
0.00115496
0.00138603
0.00202465
0.00333131
0.00765132
0.0197193
0.0469912
0.0825211
0.116235
0.141538
0.155458
0.157539
0.147943
0.128241
0.101259
0.0706584
0.0420214
0.0225332
0.0113171
0.00536674
0.00245845
0.00109201
0.000471129
0.000192624
6.64632e-05
6.80885e-06
-2.37925e-05
-4.04839e-05
-4.48726e-05
-2.68831e-05
2.08867e-05
9.04081e-05
0.000151164
0.00016621
0.000135542
8.592e-05
4.65005e-05
2.27326e-05
9.7022e-06
3.12908e-06
-5.04059e-22
6.64945e-21
-5.01826e-20
3.14415e-19
-1.66481e-18
7.29873e-18
-2.56174e-17
6.55073e-17
-1.46287e-16
3.57008e-16
4.84439e-16
1.67765e-15
-4.05107e-16
1.92026e-14
-7.84305e-14
-1.54581e-13
1.4244e-12
5.68849e-12
1.4467e-11
2.75543e-11
4.31006e-11
5.41463e-11
4.21606e-11
2.54129e-11
-8.13398e-12
-2.26359e-10
-4.43766e-10
-1.47331e-10
-4.83319e-10
-3.03037e-09
-7.95266e-09
-1.93414e-08
-3.76025e-08
-1.12484e-07
-1.85948e-07
-1.31893e-07
-5.58086e-08
-8.97217e-09
1.97135e-08
3.51689e-08
4.06542e-08
4.07375e-08
3.85232e-08
3.55503e-08
3.27954e-08
3.04835e-08
2.86038e-08
2.73998e-08
2.66262e-08
2.63543e-08
2.66162e-08
2.73226e-08
2.87571e-08
3.069e-08
3.30021e-08
3.49548e-08
2.42675e-08
-1.69243e-07
-6.78199e-07
-1.54569e-06
-7.78995e-07
4.11969e-06
7.21882e-06
7.33022e-06
3.62896e-07
3.12794e-05
0.000644601
0.00233025
0.00537208
0.00996925
0.0165103
0.0243046
0.0323026
0.0398507
0.0466418
0.0528467
0.0583813
0.0625559
0.0668139
0.0721054
0.077295
0.0822561
0.0867442
0.0914441
0.0980637
0.103025
0.102769
0.100362
0.0957432
0.0894507
0.0810317
0.0710107
0.0609579
0.0505595
0.0390352
0.0278903
0.0210869
0.0198488
0.0217649
0.0258127
0.0307843
0.0361317
0.041851
0.0486998
0.0574788
0.0679973
0.0802126
0.0938348
0.107445
0.11971
0.129281
0.135894
0.14143
0.146235
0.150302
0.153386
0.155591
0.156739
0.157124
0.156992
0.156454
0.155628
0.154557
0.15325
0.151744
0.150058
0.148234
0.146332
0.144385
0.142436
0.140579
0.138808
0.137044
0.135513
0.134121
0.132857
0.132077
0.131648
0.131897
0.133047
0.135319
0.139161
0.144816
0.152327
0.160905
0.16868
0.175624
0.181425
0.188754
0.194657
0.192846
0.184978
0.17124
0.145267
0.111419
0.0767657
0.0470753
0.0254477
0.0143831
0.0091525
0.0076083
0.00828154
0.0113899
0.0186436
0.0382669
0.0768982
0.129634
0.183919
0.22988
0.2622
0.282012
0.291431
0.292224
0.285036
0.268332
0.240861
0.203689
0.160115
0.114944
0.0730156
0.0403041
0.0222139
0.0129146
0.00794593
0.00537834
0.00431352
0.00434474
0.00533415
0.00731328
0.0103731
0.0145149
0.0195428
0.0245905
0.0282643
0.0296512
0.0282718
0.0242493
0.0189662
0.0141135
0.00939782
-5.13807e-23
7.12924e-22
-4.54518e-21
1.28069e-20
2.41816e-20
-5.04675e-19
2.92677e-18
-9.10131e-18
8.29793e-18
3.64866e-17
3.50083e-17
1.94495e-17
-8.92982e-17
-1.63891e-16
-2.15379e-16
-3.24725e-14
8.79925e-14
6.31057e-13
1.53988e-12
2.32166e-12
3.06554e-12
3.96888e-12
4.5283e-12
4.95398e-12
6.0606e-12
1.30011e-11
2.5909e-11
9.83387e-11
2.13352e-10
3.1658e-10
3.32343e-10
-1.40731e-09
-4.18135e-09
-1.35411e-08
-2.35694e-08
-1.81963e-08
-1.04249e-08
-3.39269e-09
1.85001e-09
4.7002e-09
5.41761e-09
5.30592e-09
4.80239e-09
4.19606e-09
3.65357e-09
3.21186e-09
2.86378e-09
2.62134e-09
2.45126e-09
2.35101e-09
2.31471e-09
2.32986e-09
2.41434e-09
2.55498e-09
2.77158e-09
3.07527e-09
5.01221e-09
2.63032e-09
-5.13967e-09
9.04158e-09
1.63732e-07
4.88057e-07
-2.06354e-06
-6.52949e-06
-7.52969e-06
-1.77282e-06
-9.53321e-07
-3.19884e-06
-8.26803e-06
0.00012341
0.00102295
0.00293135
0.00590525
0.00984835
0.0145501
0.0192677
0.0237455
0.0276778
0.0309774
0.0340624
0.0372915
0.0412754
0.0463057
0.0517465
0.0588065
0.0674909
0.0765356
0.0868174
0.0959786
0.10281
0.107474
0.109817
0.111885
0.112162
0.112126
0.11238
0.112841
0.113876
0.114898
0.115493
0.115374
0.115215
0.115533
0.116854
0.119621
0.123724
0.128249
0.132225
0.135338
0.136142
0.135535
0.133831
0.130944
0.127119
0.12237
0.117332
0.112469
0.107916
0.103924
0.100484
0.0974697
0.0948411
0.0924667
0.0901834
0.0879249
0.085598
0.0831369
0.0805101
0.077692
0.0746636
0.07155
0.0683788
0.065089
0.0620052
0.059094
0.0563853
0.0542085
0.0524566
0.0513495
0.0510284
0.0516223
0.0534821
0.0569258
0.062313
0.0707795
0.0827294
0.0988354
0.117237
0.137493
0.158988
0.179298
0.189542
0.201604
0.203493
0.196431
0.180293
0.151615
0.115113
0.0818583
0.0556799
0.0429569
0.0412313
0.0493914
0.0707864
0.112156
0.168299
0.222905
0.26777
0.29836
0.31371
0.323118
0.329947
0.334402
0.336228
0.336077
0.333421
0.326448
0.311416
0.284521
0.245799
0.202036
0.158481
0.119642
0.0883116
0.0654578
0.0511123
0.0446549
0.0440119
0.0476387
0.0549279
0.0649108
0.0761768
0.0872364
0.0965871
0.102904
0.105178
0.103006
0.0958927
0.0872455
0.066108
3.38472e-23
-3.72332e-22
2.60997e-21
-1.57298e-20
8.04865e-20
-3.38145e-19
1.07272e-18
-2.25866e-18
2.4012e-18
-1.31635e-18
-1.8072e-18
-2.37321e-17
-5.518e-17
-6.11109e-18
-3.52553e-16
1.60378e-15
7.38647e-15
8.26202e-15
1.57572e-14
2.99001e-14
5.61876e-14
9.96571e-14
2.30563e-13
3.32062e-13
4.09241e-13
7.88573e-13
2.19901e-12
7.43486e-12
1.5571e-11
2.40513e-11
3.37474e-11
-1.30419e-12
-3.6626e-11
-8.06293e-10
-2.2843e-09
-2.06566e-09
-1.2607e-09
-5.65798e-10
1.103e-10
5.45069e-10
6.17992e-10
5.76784e-10
4.95889e-10
4.1379e-10
3.46297e-10
2.94317e-10
2.55177e-10
2.28379e-10
2.10084e-10
1.99395e-10
1.95184e-10
1.96182e-10
2.03534e-10
2.16111e-10
2.36966e-10
2.55944e-10
2.4471e-10
7.7506e-10
2.18886e-09
9.16082e-09
3.05027e-08
9.63291e-08
1.24017e-08
-1.51441e-07
-1.01068e-07
-4.70566e-08
-6.61246e-06
-1.28417e-05
-1.43648e-05
-1.50602e-05
-1.9874e-05
-2.31429e-05
-1.38541e-05
2.49648e-05
0.000487099
0.00130723
0.00238453
0.00359561
0.00474836
0.00571669
0.00656005
0.00744459
0.00862797
0.0102512
0.0125736
0.0160398
0.020767
0.027799
0.0371538
0.0483105
0.0606218
0.0734972
0.0859379
0.0973132
0.104534
0.108376
0.110841
0.112815
0.114708
0.116033
0.116634
0.116213
0.114862
0.112617
0.109156
0.103782
0.0960819
0.0869408
0.0776014
0.0686557
0.0604925
0.0532928
0.0470726
0.0419184
0.0376128
0.0341906
0.031526
0.0295012
0.0280305
0.026965
0.0261655
0.0255719
0.025096
0.0246438
0.0241662
0.023603
0.0229146
0.0220843
0.0211018
0.0199728
0.0187662
0.0175115
0.0162237
0.0150313
0.0139241
0.012927
0.0121193
0.0114686
0.0110224
0.0108085
0.0108516
0.0112436
0.0120757
0.0135071
0.015993
0.0199974
0.0266971
0.0376004
0.0533503
0.0745457
0.101801
0.129981
0.158094
0.183781
0.19804
0.212239
0.214025
0.20608
0.191313
0.168387
0.153335
0.150072
0.161152
0.186666
0.224387
0.261912
0.28339
0.298148
0.308082
0.309559
0.309088
0.309628
0.313332
0.32044
0.32916
0.337705
0.347105
0.35306
0.353003
0.348598
0.337822
0.317113
0.288458
0.257767
0.229018
0.205085
0.187656
0.177298
0.17365
0.175641
0.181711
0.190034
0.198724
0.206047
0.210615
0.211389
0.208039
0.199308
0.189961
0.161692
6.91933e-24
-5.59678e-23
3.48371e-22
-1.58909e-21
5.20542e-21
-1.00443e-20
5.80222e-22
3.37261e-20
9.54157e-20
-6.04262e-19
-9.18263e-19
-1.81552e-18
-1.70003e-18
5.97769e-19
-4.92735e-17
4.71928e-17
1.17007e-16
1.46601e-16
2.09514e-16
2.78764e-16
3.88271e-16
5.14523e-16
2.17049e-15
3.41501e-15
2.71984e-15
2.8801e-14
4.09014e-14
1.28926e-13
4.18672e-13
9.57057e-13
2.01993e-12
1.84863e-12
3.16455e-12
-3.19852e-11
-1.07883e-10
-9.19088e-11
-4.27257e-11
4.6883e-12
4.18691e-11
6.32531e-11
6.07747e-11
5.18719e-11
4.24439e-11
3.4503e-11
2.88205e-11
2.48989e-11
2.22614e-11
2.07933e-11
2.01902e-11
2.03236e-11
2.10774e-11
2.24603e-11
2.4662e-11
2.77106e-11
3.1766e-11
3.64701e-11
4.1232e-11
6.74495e-11
2.04622e-10
8.57227e-10
3.62181e-09
1.75947e-08
5.17668e-08
1.27062e-07
2.22575e-07
2.86657e-07
-2.12953e-07
-1.13828e-06
-2.42138e-06
-9.21847e-06
-1.60816e-05
-2.17812e-05
-2.60418e-05
-3.62488e-05
-4.35406e-05
-4.52378e-05
-3.90312e-05
-2.17572e-05
4.90724e-06
3.52656e-05
6.2638e-05
8.37167e-05
9.87902e-05
0.00010978
0.000119695
0.000139375
0.000272598
0.00090686
0.00234982
0.00488929
0.00873368
0.0140005
0.0209663
0.0305525
0.0418101
0.0527086
0.0622518
0.0691292
0.0728422
0.0727607
0.0694974
0.0635242
0.0556631
0.0464829
0.0365936
0.0271522
0.0198984
0.0150913
0.0118506
0.00958034
0.0079564
0.00677508
0.00590655
0.00527753
0.00480965
0.00447986
0.00425357
0.00410441
0.00402213
0.00398905
0.00398738
0.0040104
0.00404444
0.00407508
0.00409429
0.0040913
0.00405896
0.00399365
0.00389282
0.0037575
0.00359745
0.0034162
0.00321445
0.0030164
0.00281958
0.00263375
0.00247684
0.00234815
0.0022589
0.00221719
0.00222962
0.00231696
0.00249375
0.00279174
0.0032435
0.00385593
0.00477687
0.00662141
0.0103404
0.0172282
0.0288824
0.0486244
0.0737515
0.10616
0.138193
0.170072
0.196681
0.211081
0.220848
0.227066
0.23167
0.2378
0.247642
0.258658
0.273247
0.28272
0.27862
0.267775
0.251362
0.236526
0.22648
0.223595
0.228538
0.24003
0.256699
0.277117
0.299664
0.322511
0.343825
0.361901
0.374589
0.379433
0.37821
0.373824
0.365619
0.355475
0.345823
0.338173
0.333301
0.331147
0.330979
0.331704
0.332097
0.330916
0.327175
0.320168
0.309891
0.295163
0.281574
0.248743
-3.33808e-25
4.43834e-24
-3.23464e-23
1.88231e-22
-8.99181e-22
3.45346e-21
-9.63125e-21
1.50805e-20
-5.1655e-22
-1.56803e-20
-5.79513e-20
5.83688e-22
4.67539e-19
4.5957e-19
3.26014e-18
-8.72959e-18
-1.01276e-17
-7.14336e-18
-1.07561e-18
6.99067e-18
1.81194e-17
2.52609e-17
5.28228e-17
7.66586e-17
1.93226e-18
3.68253e-16
5.37936e-16
2.36638e-15
9.35122e-15
2.22355e-14
3.56047e-14
7.80487e-14
2.89011e-13
-2.21571e-12
-6.69774e-12
-4.25069e-12
1.58089e-12
6.61089e-12
8.38622e-12
7.77749e-12
6.39601e-12
5.21183e-12
4.8161e-12
5.21124e-12
5.7326e-12
6.03567e-12
6.24361e-12
6.55481e-12
7.04596e-12
7.86724e-12
9.15216e-12
1.10491e-11
1.36064e-11
1.70013e-11
2.13253e-11
2.64349e-11
3.19935e-11
3.76875e-11
5.03005e-11
1.03993e-10
3.47328e-10
2.05936e-09
6.70765e-09
1.73217e-08
3.85376e-08
9.09828e-08
1.91095e-07
2.56597e-07
1.1431e-07
-8.64915e-07
-2.77357e-06
-5.83816e-06
-1.08996e-05
-1.85621e-05
-2.57251e-05
-3.26882e-05
-3.74128e-05
-4.23851e-05
-4.68927e-05
-5.01158e-05
-5.14618e-05
-5.07026e-05
-4.77775e-05
-4.26705e-05
-3.55079e-05
-2.66118e-05
-1.46526e-05
-1.59474e-06
1.31388e-05
3.47168e-05
8.09207e-05
0.000208396
0.000608423
0.00167469
0.00357918
0.00614109
0.00921479
0.0122862
0.0151651
0.0173665
0.018422
0.0176645
0.0152218
0.0116154
0.00783504
0.0049891
0.00314516
0.00202722
0.00136046
0.000958174
0.000712142
0.000559467
0.000464634
0.000407564
0.000374267
0.000358538
0.000355149
0.000360616
0.000373479
0.000391916
0.000414165
0.000439676
0.000466949
0.000494203
0.000520206
0.000543226
0.000561893
0.000575164
0.000581989
0.000581736
0.000575414
0.000564088
0.000548244
0.000532455
0.000516688
0.000503633
0.000497298
0.000496969
0.000504104
0.000524782
0.000569051
0.000643509
0.000750339
0.000892027
0.0010658
0.00128129
0.00156595
0.00195272
0.00246541
0.00311328
0.00437208
0.00836037
0.0162712
0.0304587
0.0533649
0.0827454
0.118399
0.152709
0.180984
0.20482
0.220768
0.231213
0.237917
0.239848
0.234095
0.219142
0.195755
0.171323
0.15518
0.147749
0.149969
0.160172
0.171793
0.186235
0.205191
0.227112
0.251327
0.277162
0.303716
0.329842
0.354193
0.375581
0.393392
0.407434
0.41611
0.419435
0.421891
0.423415
0.42381
0.422807
0.41998
0.414805
0.407479
0.399515
0.390681
0.378145
0.360543
0.339591
0.321244
0.284384
-5.0685e-26
3.17206e-25
-1.90409e-24
1.09614e-23
-5.49169e-23
2.12862e-22
-5.61283e-22
7.72992e-22
1.16393e-22
-1.53909e-21
-2.39907e-22
1.48181e-20
2.50541e-20
2.49991e-20
2.08383e-19
-1.46211e-19
-5.96208e-19
-1.1038e-18
-1.60531e-18
-2.74039e-18
-4.95786e-18
-1.02284e-17
-2.09316e-17
-3.59227e-17
-3.74388e-17
-3.51789e-17
-2.23469e-17
1.63098e-16
1.36357e-16
-2.17572e-16
-1.00385e-15
-5.03326e-15
8.99706e-15
-1.98921e-13
-3.72843e-13
2.33535e-13
6.68328e-13
6.95391e-13
6.12173e-13
5.60301e-13
8.25391e-13
2.27843e-12
7.10161e-12
1.38843e-11
1.82168e-11
1.99708e-11
2.07118e-11
2.14192e-11
2.32701e-11
2.66065e-11
3.19427e-11
3.95678e-11
4.95798e-11
6.39732e-11
8.68684e-11
1.24895e-10
1.84165e-10
2.65061e-10
3.67464e-10
4.79841e-10
6.14763e-10
8.77654e-10
1.31948e-09
2.44529e-09
6.23042e-09
1.56354e-08
3.01488e-08
4.45861e-08
7.6074e-08
1.09408e-07
9.37805e-08
-2.5217e-07
-1.38097e-06
-3.33379e-06
-6.06696e-06
-1.01728e-05
-1.43547e-05
-1.79681e-05
-2.10014e-05
-2.31301e-05
-2.41599e-05
-2.41251e-05
-2.31461e-05
-2.13396e-05
-1.85913e-05
-1.55008e-05
-1.18146e-05
-7.48032e-06
-2.77276e-06
2.27812e-06
8.22731e-06
1.45034e-05
1.93412e-05
2.15154e-05
2.20486e-05
2.3765e-05
3.29001e-05
5.59426e-05
9.30384e-05
0.000133682
0.000165999
0.000178476
0.000169556
0.000143565
0.000108653
7.31723e-05
4.22463e-05
1.85499e-05
2.1623e-06
-8.12199e-06
-1.35961e-05
-1.54799e-05
-1.48686e-05
-1.26067e-05
-9.33141e-06
-5.39847e-06
-1.07215e-06
3.49766e-06
8.30077e-06
1.33176e-05
1.85048e-05
2.39106e-05
2.95583e-05
3.54619e-05
4.16384e-05
4.80478e-05
5.46597e-05
6.12034e-05
6.73724e-05
7.35787e-05
8.11227e-05
9.02274e-05
0.000101012
0.000114555
0.000131566
0.000152358
0.000174546
0.000197594
0.000215996
0.000260725
0.000347664
0.000454519
0.000582223
0.000737378
0.000926881
0.00115304
0.00141582
0.00171958
0.00207486
0.0025058
0.00296041
0.00347178
0.00465813
0.00625137
0.0110564
0.020955
0.0371573
0.0626722
0.0898948
0.118262
0.139041
0.151634
0.154713
0.147911
0.133069
0.116334
0.102208
0.100863
0.1062
0.115565
0.131673
0.150204
0.16959
0.189069
0.208477
0.228054
0.248177
0.269209
0.291309
0.314355
0.337813
0.360784
0.382191
0.401001
0.416472
0.428399
0.436735
0.441745
0.443137
0.44193
0.438388
0.430975
0.418327
0.400051
0.377083
0.352812
0.329336
0.303365
0.280434
0.24322
-2.8001e-26
7.62439e-25
-3.54817e-24
1.32266e-24
6.38931e-24
2.11896e-22
-1.75139e-21
5.16007e-21
-9.39694e-22
-3.06122e-20
2.25981e-20
1.83741e-19
4.40501e-19
4.6469e-19
9.95214e-20
-1.22955e-19
1.08048e-19
5.44037e-19
9.4159e-19
1.17556e-18
1.07607e-18
5.84078e-19
-6.66772e-19
-1.71266e-18
-5.3937e-18
-5.87194e-18
-9.52393e-18
-3.44237e-17
-1.26354e-16
-4.34714e-16
-6.20325e-16
-6.29512e-16
-1.20091e-15
-1.0587e-14
1.25963e-14
4.78378e-14
3.92867e-14
3.73237e-14
4.42479e-14
3.00757e-13
2.94824e-12
1.4617e-11
5.20651e-11
1.008e-10
1.33138e-10
1.50487e-10
1.59169e-10
1.63622e-10
1.75307e-10
1.9993e-10
2.42469e-10
3.01747e-10
3.78027e-10
5.0031e-10
7.05495e-10
1.02711e-09
1.48484e-09
2.07868e-09
2.83515e-09
3.69158e-09
4.61981e-09
5.46883e-09
6.17699e-09
6.69085e-09
7.18008e-09
8.17508e-09
9.65954e-09
1.19347e-08
1.614e-08
1.8511e-08
1.66533e-08
2.53991e-09
-2.84085e-08
-9.56071e-08
-2.19781e-07
-6.17082e-07
-1.34894e-06
-2.31718e-06
-3.39604e-06
-4.4109e-06
-5.21371e-06
-5.70728e-06
-5.8672e-06
-5.72679e-06
-5.36465e-06
-4.78989e-06
-4.0748e-06
-3.24464e-06
-2.3049e-06
-1.23236e-06
-3.04711e-08
9.73475e-07
1.85621e-06
2.76131e-06
3.80865e-06
4.89624e-06
5.20773e-06
2.92995e-06
-1.15017e-06
-6.39136e-06
-1.2122e-05
-1.77456e-05
-2.28008e-05
-2.69247e-05
-2.9905e-05
-3.17176e-05
-3.24928e-05
-3.25111e-05
-3.21074e-05
-3.14788e-05
-2.98096e-05
-2.74315e-05
-2.47078e-05
-2.18846e-05
-1.90812e-05
-1.63819e-05
-1.38207e-05
-1.1372e-05
-8.93085e-06
-6.50183e-06
-4.04346e-06
-1.89234e-06
5.93408e-08
2.29416e-06
4.99721e-06
8.35224e-06
1.24236e-05
1.69137e-05
2.09632e-05
3.04773e-05
4.68902e-05
6.35345e-05
8.1104e-05
0.000100754
0.000127025
0.000165386
0.000225165
0.000322119
0.000480796
0.000732568
0.00114602
0.00177847
0.00255235
0.00334372
0.00410702
0.00483916
0.00546604
0.0059537
0.00630835
0.00652878
0.00668786
0.00669348
0.00682822
0.00735126
0.00824097
0.00925032
0.0114981
0.0173672
0.0267759
0.0391215
0.0488856
0.0550309
0.0570522
0.0583211
0.0606652
0.064048
0.0738985
0.0940168
0.119643
0.145413
0.168782
0.189639
0.208151
0.224796
0.240368
0.255768
0.271528
0.287846
0.304836
0.322703
0.341454
0.36081
0.380032
0.398464
0.413684
0.42168
0.425436
0.425918
0.422359
0.414252
0.400747
0.380286
0.353363
0.322477
0.289757
0.257189
0.226552
0.198504
0.176332
0.146844
5.83416e-24
-3.62673e-23
2.08631e-22
-1.15474e-21
5.7988e-21
-2.33051e-20
6.74282e-20
-1.17144e-19
3.18199e-20
2.78643e-19
-1.41937e-20
-2.74266e-18
-4.60761e-18
-7.22409e-18
-8.61598e-18
2.18429e-18
1.53307e-17
1.94207e-17
1.55961e-17
1.09669e-17
7.60356e-18
6.18353e-18
6.25384e-18
7.27497e-18
8.48264e-18
1.00507e-17
1.01216e-17
-6.63628e-19
-8.01924e-18
-2.87941e-17
-3.58224e-17
-5.99686e-17
-3.11531e-16
-6.34009e-16
-8.66701e-16
-8.63584e-16
9.81571e-17
1.06241e-15
7.0286e-14
2.20908e-12
2.50462e-11
1.20104e-10
4.08637e-10
7.95173e-10
1.04824e-09
1.20291e-09
1.28755e-09
1.28983e-09
1.28656e-09
1.32148e-09
1.51377e-09
2.03558e-09
3.22502e-09
5.40185e-09
7.91522e-09
1.01922e-08
1.2023e-08
1.38483e-08
1.64731e-08
1.96509e-08
2.33703e-08
2.72482e-08
3.07163e-08
3.34273e-08
3.52294e-08
3.59915e-08
3.65871e-08
3.69914e-08
3.71558e-08
3.71166e-08
3.9205e-08
4.29567e-08
4.32416e-08
4.09976e-08
3.55517e-08
2.17111e-08
-1.58382e-09
-3.40893e-08
-7.365e-08
-1.15439e-07
-1.53061e-07
-1.79578e-07
-1.904e-07
-1.88239e-07
-1.84618e-07
-1.85187e-07
-1.95991e-07
-2.12847e-07
-2.26418e-07
-2.17516e-07
-1.33748e-07
2.66293e-08
1.88285e-07
3.14014e-07
4.9444e-07
6.55874e-07
6.80912e-07
5.74997e-07
6.47266e-08
-9.11965e-07
-2.07002e-06
-3.42231e-06
-4.85849e-06
-6.21479e-06
-7.30495e-06
-7.96492e-06
-8.1668e-06
-8.03319e-06
-7.74206e-06
-7.45169e-06
-7.19669e-06
-6.83962e-06
-6.22684e-06
-5.39941e-06
-4.39112e-06
-3.20252e-06
-1.78676e-06
-7.54349e-08
1.97177e-06
4.33527e-06
6.92944e-06
1.02369e-05
1.59165e-05
2.37797e-05
3.159e-05
3.92225e-05
4.66139e-05
5.85729e-05
8.55246e-05
0.000149286
0.000290561
0.000577105
0.0011474
0.00229432
0.00420556
0.00689351
0.0103492
0.0144964
0.0192781
0.0244134
0.0299537
0.0354865
0.0406144
0.0447396
0.0476617
0.0493273
0.0495522
0.0483511
0.0460717
0.0426249
0.0387726
0.0343571
0.030156
0.0261953
0.0231336
0.0208342
0.0193278
0.0197309
0.021762
0.0245897
0.0281536
0.0328049
0.039316
0.049869
0.0667211
0.0916267
0.123712
0.155068
0.18008
0.196252
0.207879
0.218572
0.227888
0.237398
0.247594
0.258795
0.273008
0.289954
0.307084
0.320659
0.331807
0.34227
0.353468
0.36356
0.369963
0.371077
0.365894
0.353722
0.334354
0.308402
0.277325
0.243185
0.208237
0.174571
0.143901
0.117324
0.0953321
0.0777725
0.0650984
0.051728
-2.50948e-24
-7.28074e-23
6.70244e-22
-3.73489e-21
1.90108e-20
-8.26813e-20