/*--------------------------------*- C++ -*----------------------------------*\
| =========                 |                                                 |
| \\      /  F ield         | OpenFOAM: The Open Source CFD Toolbox           |
|  \\    /   O peration     | Version:  2506                                  |
|   \\  /    A nd           | Website:  www.openfoam.com                      |
|    \\/     M anipulation  |                                                 |
\*---------------------------------------------------------------------------*/
FoamFile
{
    version     2.0;
    format      ascii;
    arch        "LSB;label=32;scalar=64";
    class       volVectorField;
    location    "3";
    object      U;
}
// * * * * * * * * * * * * * * * * * * * * * * * * * * * * * * * * * * * * * //

dimensions      [0 1 -1 0 0 0 0];

internalField   nonuniform List<vector> 
4000
(
(0.00798526 0.000743038 0)
(0.00720998 0.0008726 -4.76986e-21)
(0.00604292 0.000504829 4.94824e-21)
(0.00498412 0.000237671 1.00028e-20)
(0.004379 0.00011924 -2.02821e-20)
(0.00404463 6.73583e-05 1.0215e-20)
(0.00382821 4.32804e-05 0)
(0.00367453 3.21894e-05 0)
(0.00356018 2.72995e-05 0)
(0.00347029 2.53066e-05 2.02511e-20)
(0.00339612 2.46637e-05 -2.02887e-20)
(0.00333299 2.46874e-05 4.02541e-20)
(0.00327816 2.50849e-05 -4.03075e-20)
(0.00322972 2.57184e-05 0)
(0.00318625 2.65182e-05 0)
(0.00314662 2.745e-05 0)
(0.00310985 2.84945e-05 3.95113e-20)
(0.00307509 2.96512e-05 -3.9542e-20)
(0.00304156 3.09269e-05 0)
(0.00300849 3.23298e-05 0)
(0.00297517 3.38696e-05 0)
(0.00294088 3.55563e-05 0)
(0.0029049 3.73971e-05 0)
(0.00286651 3.94043e-05 7.68348e-20)
(0.00282489 4.15944e-05 -1.53442e-19)
(0.00277918 4.39917e-05 7.66131e-20)
(0.00272834 4.66376e-05 0)
(0.00267114 4.96025e-05 0)
(0.00260601 5.30042e-05 0)
(0.00253084 5.70456e-05 0)
(0.00244264 6.21246e-05 -7.51001e-20)
(0.00233703 6.91087e-05 7.52627e-20)
(0.00221013 7.83807e-05 0)
(0.00201953 9.59052e-05 6.54838e-20)
(0.00179474 0.000154837 7.48148e-20)
(0.00165094 0.000266242 -3.77061e-19)
(0.00160825 0.000404262 -3.02142e-19)
(0.00161405 0.000546797 7.57914e-20)
(0.00164999 0.000694493 -3.01985e-19)
(0.00172664 0.000854526 -6.75942e-19)
(0.0018868 0.00103734 7.46866e-20)
(0.00215395 0.00123167 5.90121e-19)
(0.00244967 0.00140165 -5.84963e-19)
(0.00273029 0.0015421 0)
(0.0030049 0.00166041 0)
(0.0032699 0.00175719 -3.54089e-20)
(0.00353621 0.00183362 -5.27055e-19)
(0.00379555 0.00188066 -5.23351e-19)
(0.00403795 0.001898 -3.11314e-19)
(0.00427793 0.00188471 -2.7307e-19)
(0.00449759 0.00183395 2.69612e-19)
(0.00470226 0.00175002 0)
(0.0048798 0.00162319 -3.27699e-20)
(0.00502564 0.00146379 5.54314e-19)
(0.00513516 0.00126409 0)
(0.00519191 0.00103587 -1.27347e-19)
(0.00520487 0.000781988 -3.12356e-20)
(0.00514563 0.000512859 -1.64347e-23)
(0.00505125 0.000248488 -4.43699e-22)
(0.0048859 -2.02107e-05 -1.55503e-20)
(0.00467379 -0.000261241 2.97476e-20)
(0.00443927 -0.000476722 0)
(0.00417389 -0.000659204 0)
(0.00391167 -0.000806196 5.73454e-20)
(0.00363948 -0.00092088 3.98568e-19)
(0.00338626 -0.00100311 5.59074e-20)
(0.00314065 -0.00105969 -5.62609e-20)
(0.00291761 -0.00109226 5.44805e-20)
(0.00271118 -0.0011069 1.6184e-19)
(0.00252228 -0.00110465 -3.73779e-19)
(0.00235618 -0.00109153 -5.29555e-20)
(0.00219864 -0.00106881 1.12038e-21)
(0.00205805 -0.00103851 0)
(0.00193015 -0.00100354 0)
(0.00180989 -0.000964011 0)
(0.00170143 -0.000921815 -2.48212e-20)
(0.00160252 -0.00087861 -3.70049e-19)
(0.00151035 -0.000834692 0)
(0.00142731 -0.000791192 1.02989e-21)
(0.00135284 -0.00074914 2.39271e-20)
(0.00128559 -0.000708779 -3.8104e-19)
(0.0012258 -0.000670451 3.4317e-19)
(0.00117279 -0.000634241 7.45843e-23)
(0.00112573 -0.000599817 3.77341e-19)
(0.00108477 -0.000567141 2.07117e-21)
(0.00104789 -0.000535799 -3.62532e-19)
(0.00101385 -0.000504988 -3.65192e-19)
(0.00098415 -0.000474734 3.68469e-19)
(0.000956178 -0.000444823 -5.58133e-21)
(0.000928598 -0.000414541 -3.53218e-19)
(0.000904083 -0.000384152 0)
(0.000879844 -0.000353752 -3.57817e-19)
(0.000855675 -0.000322919 -3.33117e-19)
(0.000834243 -0.000292169 3.40923e-19)
(0.000811673 -0.000261467 -1.90099e-19)
(0.000792677 -0.000230748 2.09449e-20)
(0.000773367 -0.000200551 1.65922e-19)
(0.000757748 -0.000170454 2.04942e-20)
(0.000742702 -0.000141058 1.42622e-19)
(0.000732067 -0.000111477 1.01002e-19)
(0.000723625 -8.27426e-05 -4.01223e-20)
(0.000718935 -5.36572e-05 9.97237e-20)
(0.00071834 -2.4633e-05 -9.9357e-21)
(0.000720941 4.37409e-06 -9.8967e-21)
(0.000728237 3.43311e-05 -3.94192e-20)
(0.000740636 6.48239e-05 0)
(0.000757487 9.70736e-05 0)
(0.000780996 0.000130656 -3.09509e-19)
(0.000809505 0.000166466 -9.83137e-21)
(0.000844882 0.00020519 1.6228e-19)
(0.000886785 0.00024732 1.57174e-19)
(0.00093593 0.000293428 4.90571e-21)
(0.00099252 0.000344251 -1.62157e-19)
(0.00105745 0.000400054 -2.89141e-22)
(0.00112899 0.000461445 0)
(0.00121142 0.000528789 3.12358e-19)
(0.00129943 0.000601311 -9.6936e-21)
(0.00139544 0.000679732 -2.89514e-19)
(0.0014995 0.000762891 -9.65609e-21)
(0.00160837 0.000849128 -3.05961e-19)
(0.00172305 0.000938313 -1.06068e-21)
(0.00184288 0.00102891 3.01192e-19)
(0.00196428 0.00111912 1.85597e-20)
(0.00208756 0.00120825 -3.32438e-19)
(0.00221355 0.00129477 1.8372e-20)
(0.0023396 0.00137688 2.88993e-19)
(0.0024661 0.00145362 3.54376e-20)
(0.0025927 0.00152366 -3.54624e-20)
(0.00271881 0.00158624 2.77864e-19)
(0.00284772 0.00164135 -2.38259e-19)
(0.00297909 0.00168651 -3.39955e-20)
(0.00310794 0.00172153 -4.96138e-19)
(0.00324434 0.00174812 -3.2916e-20)
(0.00338764 0.00176188 -2.56247e-19)
(0.00352837 0.00176271 1.66232e-21)
(0.0036829 0.00175269 0)
(0.00384454 0.00172285 0)
(0.00400201 0.00167677 -7.79944e-22)
(0.00417173 0.00160917 0)
(0.0043355 0.00151796 -2.77963e-20)
(0.00449629 0.00140037 -8.1478e-20)
(0.00464344 0.00125364 -2.63806e-20)
(0.0047648 0.00107754 -5.16665e-20)
(0.00485896 0.000874962 -2.58011e-20)
(0.0049017 0.000645298 -7.35108e-20)
(0.00490292 0.000404687 2.4219e-20)
(0.00484157 0.000145033 0)
(0.00471013 -0.000100495 0)
(0.00454075 -0.000332068 0)
(0.00431402 -0.00053538 -2.08237e-20)
(0.00406914 -0.000704234 2.08946e-20)
(0.00379017 -0.000842247 7.97817e-20)
(0.00350881 -0.000939376 7.75683e-20)
(0.0032213 -0.00100439 0)
(0.0029453 -0.00103527 -7.33236e-20)
(0.00267095 -0.00103691 0)
(0.00240688 -0.00101022 -1.6839e-20)
(0.00214628 -0.000959497 8.4814e-20)
(0.00188356 -0.000879648 -1.63203e-20)
(0.00160406 -0.000747528 2.75729e-19)
(0.00149346 -0.000612031 -6.38524e-20)
(0.00147511 -0.000506013 -6.278e-20)
(0.00145183 -0.000410847 0)
(0.00143693 -0.000321041 0)
(0.00145483 -0.00023574 0)
(0.00151467 -0.000161246 0)
(0.00163918 -0.000102352 0)
(0.001815 -7.55153e-05 1.32187e-20)
(0.00198321 -6.92109e-05 -3.58615e-22)
(0.00214008 -6.80918e-05 -3.69726e-22)
(0.00229457 -6.73042e-05 -1.24265e-20)
(0.00244334 -6.56931e-05 0)
(0.00258076 -6.29838e-05 1.11588e-20)
(0.00270215 -5.92681e-05 -1.11201e-20)
(0.0028044 -5.47986e-05 3.26571e-22)
(0.00288608 -4.9876e-05 0)
(0.00294727 -4.47203e-05 0)
(0.00298934 -3.95021e-05 -8.92117e-21)
(0.00301459 -3.46681e-05 8.90809e-21)
(0.00302606 -3.01637e-05 0)
(0.00302626 -2.6617e-05 0)
(0.00301789 -2.38308e-05 -3.35874e-21)
(0.00300403 -2.14391e-05 2.10012e-22)
(0.00298727 -1.95132e-05 3.37355e-21)
(0.00296979 -1.79327e-05 0)
(0.00295337 -1.6653e-05 0)
(0.00293932 -1.56283e-05 0)
(0.00292847 -1.48267e-05 0)
(0.00292129 -1.4254e-05 1.3985e-22)
(0.00291764 -1.39334e-05 0)
(0.00291701 -1.35701e-05 0)
(0.00291884 -1.30037e-05 0)
(0.00292238 -1.22057e-05 6.76054e-22)
(0.0029267 -1.11786e-05 -6.75168e-22)
(0.00293085 -9.9215e-06 0)
(0.00293391 -8.35783e-06 5.39813e-23)
(0.00293498 -6.48332e-06 1.43755e-22)
(0.0029328 -4.17565e-06 -9.58452e-23)
(0.00292389 -7.00433e-07 -4.76957e-23)
(0.00290477 8.02165e-06 0)
(0.00987757 0.00142199 0)
(0.0104347 0.00199212 0)
(0.0101849 0.00163272 0)
(0.00947739 0.00114024 9.8344e-21)
(0.00878014 0.000748359 -2.00328e-20)
(0.00824993 0.000489551 1.01612e-20)
(0.00784213 0.000334526 0)
(0.00751568 0.000243939 2.04762e-20)
(0.00725081 0.000188825 -2.0631e-20)
(0.00703195 0.000152977 2.05578e-20)
(0.00684688 0.000128032 -2.06613e-20)
(0.00668751 0.000109623 -4.11045e-20)
(0.00654847 9.54784e-05 4.12557e-20)
(0.00642575 8.43875e-05 4.09953e-20)
(0.00631617 7.56505e-05 -1.95536e-22)
(0.0062171 6.88481e-05 -8.1844e-20)
(0.00612625 6.37306e-05 4.09178e-20)
(0.0060416 6.01364e-05 0)
(0.00596128 5.79904e-05 0)
(0.00588356 5.72268e-05 0)
(0.0058068 5.77938e-05 0)
(0.00572942 5.96774e-05 0)
(0.00564987 6.28973e-05 0)
(0.00556664 6.7509e-05 0)
(0.00547813 7.36137e-05 0)
(0.0053827 8.13902e-05 0)
(0.00527854 9.11358e-05 0)
(0.00516359 0.000103231 0)
(0.00503545 0.000118306 0)
(0.00489117 0.000137348 0)
(0.00472701 0.000161985 -7.86981e-20)
(0.00453817 0.000195118 3.2451e-22)
(0.00432179 0.000242196 1.57656e-19)
(0.00404631 0.000311683 -6.91439e-20)
(0.00374347 0.000442341 -7.90517e-20)
(0.00353604 0.000659649 2.3959e-19)
(0.00346874 0.000940371 -3.21827e-19)
(0.00350191 0.00125468 -8.07083e-20)
(0.00361881 0.00159546 8.09298e-19)
(0.00383354 0.00196299 2.42987e-19)
(0.00419258 0.00235489 0)
(0.00470311 0.0027477 7.88121e-20)
(0.00526775 0.00310564 4.6805e-19)
(0.00583094 0.00341897 7.75498e-20)
(0.00639177 0.00368759 6.09759e-19)
(0.00694374 0.00390866 -6.02428e-19)
(0.00749383 0.00407826 2.22219e-21)
(0.00803037 0.00418329 0)
(0.00854291 0.0042215 -2.91197e-19)
(0.00904038 0.00418732 0)
(0.00950425 0.00407387 -8.04003e-22)
(0.00993397 0.00388408 0)
(0.0103122 0.00360653 -2.7642e-19)
(0.0106312 0.00325631 -2.73521e-19)
(0.010876 0.00282572 0)
(0.0110292 0.00233467 4.95922e-24)
(0.0110919 0.00179239 1.31941e-19)
(0.0110349 0.00121399 3.22986e-20)
(0.010888 0.000633953 6.41346e-20)
(0.0106143 4.78763e-05 -1.61456e-20)
(0.0102441 -0.000498215 0)
(0.00980064 -0.000996934 1.25885e-19)
(0.0092898 -0.00143362 -6.29768e-20)
(0.00875208 -0.00180074 -1.23979e-19)
(0.00818319 -0.00209369 -3.69266e-19)
(0.00762532 -0.0023167 -6.14899e-20)
(0.00707205 -0.0024773 3.02702e-19)
(0.00654788 -0.00257846 -6.0593e-20)
(0.00605071 -0.00263087 0)
(0.00558465 -0.00263982 5.90597e-20)
(0.00515667 -0.00261408 -5.91101e-20)
(0.00475314 -0.00255973 2.34376e-21)
(0.00438186 -0.00248258 0)
(0.00403877 -0.00238777 -4.59226e-19)
(0.00371797 -0.00227927 -4.54999e-19)
(0.00342232 -0.00216148 2.79999e-20)
(0.00314961 -0.00203818 -2.79673e-20)
(0.00289646 -0.00191243 2.74944e-20)
(0.00266445 -0.00178748 -4.36589e-19)
(0.00245306 -0.00166568 4.07283e-19)
(0.00226069 -0.00154851 -4.30421e-19)
(0.00208711 -0.00143723 -4.37668e-19)
(0.00193113 -0.00133245 2.63399e-20)
(0.00179122 -0.00123349 -4.3119e-19)
(0.00166666 -0.00113995 4.08978e-19)
(0.00155461 -0.00105115 -4.06433e-19)
(0.00145272 -0.000966167 4.0535e-19)
(0.00136103 -0.000884113 -3.99498e-19)
(0.00127594 -0.00080423 -1.23418e-20)
(0.00119623 -0.000726762 1.22703e-20)
(0.00112232 -0.000651311 0)
(0.00105174 -0.000578138 0)
(0.000984553 -0.000507856 1.89466e-19)
(0.000922391 -0.000440731 -2.10083e-19)
(0.000862577 -0.000377643 1.84819e-19)
(0.000809269 -0.000318866 4.56996e-20)
(0.000759753 -0.000265159 2.30956e-22)
(0.000718061 -0.00021643 -8.85627e-23)
(0.00068268 -0.000172971 -3.98473e-19)
(0.000657006 -0.000133605 -6.5685e-20)
(0.000640216 -9.83133e-05 8.70196e-20)
(0.000635173 -6.54635e-05 -8.63524e-20)
(0.000641579 -3.4307e-05 0)
(0.000660725 -2.7571e-06 -1.06535e-20)
(0.000693751 3.14449e-05 1.06538e-20)
(0.000741926 6.98401e-05 0)
(0.000805069 0.000114832 0)
(0.000885225 0.000167937 1.6942e-19)
(0.000981714 0.000231483 -1.69081e-19)
(0.00109578 0.000307157 1.74254e-19)
(0.00122757 0.000396596 -3.38136e-19)
(0.00137745 0.00050121 -2.45845e-23)
(0.00154532 0.000622201 -5.28137e-21)
(0.00173144 0.000760681 -1.68476e-19)
(0.00193354 0.000916794 0)
(0.00215424 0.00109072 0)
(0.0023877 0.00128164 0)
(0.00263499 0.00148901 3.41786e-19)
(0.00289433 0.00170814 3.17318e-19)
(0.0031615 0.00193781 0)
(0.00343684 0.00217618 -3.64975e-19)
(0.00371863 0.00241845 6.02369e-20)
(0.0040028 0.00266073 -3.97264e-20)
(0.00428919 0.00289952 1.97771e-20)
(0.0045781 0.00313084 -3.86896e-20)
(0.00486718 0.0033508 3.07176e-19)
(0.00515697 0.00355614 -2.647e-19)
(0.00544769 0.00374371 3.36437e-19)
(0.00573981 0.00391103 -5.83662e-22)
(0.00603689 0.00405607 2.57242e-19)
(0.00633884 0.00417544 0)
(0.0066428 0.00426809 2.85207e-19)
(0.00695847 0.0043332 -3.44619e-20)
(0.0072846 0.00436549 -2.37569e-19)
(0.00761399 0.00436411 2.70125e-19)
(0.00796017 0.00432772 -3.24522e-20)
(0.00831437 0.00424569 3.25527e-20)
(0.00866607 0.00412111 -3.24702e-20)
(0.00902443 0.00394438 3.10833e-20)
(0.00937048 0.00371366 -2.94593e-20)
(0.00969925 0.00342409 1.4667e-19)
(0.00999435 0.00307351 -1.40791e-19)
(0.010237 0.00266307 1.38729e-19)
(0.0104178 0.00219993 0)
(0.0105054 0.00168644 2.63854e-20)
(0.0105048 0.00115197 -2.49918e-20)
(0.0103886 0.000590788 -1.22491e-20)
(0.0101549 4.88209e-05 0)
(0.00982775 -0.000464825 -2.31707e-20)
(0.00939574 -0.000927873 4.51181e-20)
(0.00890103 -0.00132242 0)
(0.00833393 -0.00165171 -8.58663e-20)
(0.00774029 -0.00189457 -2.06338e-20)
(0.00711999 -0.00206336 2.07603e-20)
(0.00650709 -0.00215468 0)
(0.0058917 -0.00217333 7.86654e-20)
(0.00529169 -0.00212419 -7.6481e-20)
(0.00470383 -0.00201417 7.55458e-20)
(0.0041361 -0.00184518 0)
(0.00356757 -0.00160424 -1.44374e-19)
(0.00322273 -0.00132937 -8.93166e-20)
(0.00303912 -0.00107088 1.57343e-19)
(0.00290838 -0.00084375 -1.68619e-20)
(0.00282735 -0.000651668 1.67885e-20)
(0.00282413 -0.000491006 1.59567e-20)
(0.00291374 -0.000366331 1.52799e-20)
(0.00311885 -0.000282619 -1.34061e-20)
(0.0034172 -0.000249148 -9.11383e-22)
(0.00374255 -0.000243138 0)
(0.00407294 -0.000242562 8.46067e-22)
(0.00440322 -0.000237218 0)
(0.00472123 -0.000223238 -7.80642e-22)
(0.00501407 -0.000200718 -1.17828e-20)
(0.00527174 -0.000171693 1.242e-20)
(0.00548784 -0.000138831 -1.02989e-21)
(0.0056595 -0.000104761 1.02794e-20)
(0.005787 -7.17351e-05 -1.9413e-20)
(0.00587327 -4.1492e-05 1.90913e-20)
(0.00592306 -1.52329e-05 -9.86891e-21)
(0.00594209 6.2489e-06 0)
(0.00593671 2.22459e-05 4.48032e-21)
(0.0059141 3.34773e-05 -4.20757e-21)
(0.0058807 4.01311e-05 -4.53166e-22)
(0.00584175 4.27391e-05 -3.30168e-21)
(0.00580194 4.20225e-05 2.90064e-21)
(0.005765 3.87276e-05 2.86834e-21)
(0.00573347 3.36348e-05 -3.21009e-21)
(0.00570886 2.75919e-05 2.76109e-21)
(0.00569166 2.13128e-05 -4.81826e-21)
(0.00568145 1.52571e-05 2.97528e-21)
(0.00567705 1.01152e-05 -1.00997e-21)
(0.00567661 6.42483e-06 -2.13589e-22)
(0.00567805 4.36832e-06 0)
(0.00567925 4.00212e-06 4.38646e-22)
(0.00567821 5.27949e-06 -6.00209e-22)
(0.00567319 8.15514e-06 3.12396e-23)
(0.00566279 1.27145e-05 -1.99368e-22)
(0.00564562 1.94273e-05 0)
(0.00561894 2.94802e-05 0)
(0.00557719 4.6227e-05 -1.34112e-23)
(0.00987729 0.000895546 0)
(0.0105628 0.00168233 -4.78805e-21)
(0.0110096 0.00172623 4.76241e-21)
(0.0108836 0.00150456 9.47422e-21)
(0.0105982 0.00119398 -9.58302e-21)
(0.0102521 0.000919019 0)
(0.00990117 0.000708839 0)
(0.00957546 0.000559755 0)
(0.00928438 0.000455403 -1.95201e-20)
(0.00902808 0.00038033 3.92344e-20)
(0.00880233 0.000324212 1.95064e-20)
(0.00860256 0.000280749 -3.94168e-20)
(0.00842493 0.000246272 -3.92311e-20)
(0.00826605 0.000218631 3.93982e-20)
(0.0081228 0.000196487 0)
(0.00799239 0.00017898 -3.91183e-20)
(0.00787228 0.000165542 7.82894e-20)
(0.0077601 0.000155779 -3.91604e-20)
(0.00765366 0.000149415 0)
(0.00755085 0.000146254 0)
(0.0074497 0.000146151 0)
(0.00734829 0.000149019 0)
(0.00724473 0.000154831 0)
(0.00713717 0.000163629 -7.68257e-20)
(0.00702375 0.000175539 7.69994e-20)
(0.00690254 0.000190803 0)
(0.00677152 0.000209812 0)
(0.00662851 0.000233174 0)
(0.0064711 0.000261796 0)
(0.00629659 0.000297021 0)
(0.00610192 0.000340875 -7.58639e-20)
(0.00588357 0.000396535 7.61353e-20)
(0.00564147 0.000469542 0)
(0.00535559 0.00056727 4.7418e-21)
(0.00505481 0.000716067 0)
(0.00484997 0.000942017 -1.54097e-19)
(0.00480112 0.00123822 3.11439e-19)
(0.00488974 0.00158857 0)
(0.00510264 0.00198564 -6.21381e-19)
(0.00544589 0.00242314 6.66631e-22)
(0.00594583 0.0028858 -7.57688e-20)
(0.00658509 0.00334263 7.51337e-20)
(0.00727618 0.00376636 -5.91765e-19)
(0.00797131 0.00414742 0)
(0.00866351 0.00447944 -6.48005e-19)
(0.0093459 0.00475533 6.04927e-19)
(0.0100206 0.00496679 5.96527e-19)
(0.0106767 0.00510132 0)
(0.0113058 0.00515474 2.72812e-19)
(0.0119107 0.00511934 0)
(0.0124759 0.0049905 -5.32958e-19)
(0.0129965 0.00476879 0)
(0.0134568 0.00444703 2.28158e-19)
(0.0138484 0.00403702 2.89778e-19)
(0.0141551 0.00353678 2.55101e-19)
(0.0143627 0.00296421 1.26127e-19)
(0.0144656 0.00233206 1.24541e-19)
(0.0144409 0.00165292 6.13434e-20)
(0.0143066 0.000959321 -3.05674e-20)
(0.0140343 0.000256636 -4.51637e-20)
(0.0136462 -0.000414061 0)
(0.0131569 -0.00103828 -1.17821e-19)
(0.0125772 -0.00159872 1.17011e-19)
(0.0119409 -0.00208014 0)
(0.0112522 -0.00248059 4.63745e-19)
(0.0105515 -0.00279301 0)
(0.0098402 -0.00302676 5.71683e-20)
(0.00914507 -0.00317661 -5.75109e-20)
(0.00847108 -0.00326146 0)
(0.00782549 -0.00328555 5.64255e-20)
(0.00721803 -0.00325726 -5.66661e-20)
(0.00664106 -0.00318543 -6.16598e-19)
(0.00610119 -0.00307807 3.9117e-19)
(0.00559658 -0.00294251 -2.02081e-21)
(0.00512277 -0.00278569 4.39741e-19)
(0.00468138 -0.00261408 2.72683e-20)
(0.00427089 -0.00243359 -4.63511e-19)
(0.00388849 -0.00224966 0)
(0.00353492 -0.002067 -4.30483e-19)
(0.0032099 -0.00188934 -8.26791e-19)
(0.00291217 -0.00171945 8.07695e-19)
(0.0026414 -0.0015592 4.34753e-19)
(0.00239647 -0.00140949 -4.31411e-19)
(0.00217576 -0.00127011 4.26568e-19)
(0.00197814 -0.00114023 0)
(0.0018008 -0.00101886 4.06727e-19)
(0.00164083 -0.000904962 4.49718e-21)
(0.00149699 -0.00079736 8.10545e-19)
(0.00136571 -0.000695339 3.71915e-19)
(0.00124471 -0.000598989 4.04977e-19)
(0.0011336 -0.000508203 0)
(0.00102989 -0.000423515 0)
(0.000933068 -0.000346041 -1.8969e-19)
(0.000844176 -0.000276424 0)
(0.000761617 -0.000215616 -2.31786e-20)
(0.000688258 -0.000164479 2.30216e-20)
(0.000623169 -0.000123217 -1.81737e-19)
(0.00056939 -9.22839e-05 1.80062e-19)
(0.000526916 -7.08125e-05 1.55907e-19)
(0.00049876 -5.81249e-05 2.21139e-20)
(0.000485737 -5.20864e-05 -8.754e-20)
(0.000489684 -5.13268e-05 4.34282e-20)
(0.000512865 -5.29391e-05 -3.23131e-20)
(0.000556842 -5.34876e-05 1.07272e-20)
(0.000622916 -4.98592e-05 0)
(0.00071238 -3.81048e-05 8.47421e-20)
(0.000825792 -1.5185e-05 0)
(0.000964918 2.26815e-05 1.68171e-19)
(0.00112919 7.85704e-05 2.63522e-22)
(0.00131912 0.000155332 -1.62065e-19)
(0.00153515 0.00025541 1.66633e-19)
(0.00177579 0.000380676 -5.19175e-21)
(0.00204071 0.000532333 0)
(0.00232821 0.000711568 1.63693e-19)
(0.00263606 0.000918141 -1.62654e-19)
(0.00296424 0.0011514 0)
(0.00330722 0.00140992 9.9948e-21)
(0.00366463 0.00169101 -3.27522e-19)
(0.00403369 0.00199115 -2.96579e-19)
(0.00440987 0.00230663 2.91914e-19)
(0.00479255 0.00263288 -3.08308e-19)
(0.0051797 0.0029647 -1.90243e-20)
(0.00556792 0.00329676 2.82967e-19)
(0.00595695 0.00362366 3.76015e-20)
(0.00634682 0.00393979 3.31095e-19)
(0.00673608 0.00424007 -6.56675e-19)
(0.0071255 0.00451975 3.25556e-19)
(0.00751578 0.00477449 -2.50155e-19)
(0.00790797 0.00500053 2.08676e-19)
(0.00830498 0.00519447 3.43221e-19)
(0.00870709 0.00535243 2.02133e-19)
(0.00911313 0.00547252 3.36336e-20)
(0.00952976 0.00555191 2.28048e-19)
(0.0099554 0.00558548 2.90565e-19)
(0.0103851 0.00557219 -3.10819e-20)
(0.0108261 0.00550833 3.11194e-20)
(0.0112696 0.00538536 9.0121e-20)
(0.0117073 0.00520526 2.86765e-20)
(0.01214 0.00495955 -2.82821e-20)
(0.0125521 0.00464736 2.83445e-20)
(0.012934 0.00426592 -1.08632e-19)
(0.0132692 0.00381537 2.67689e-20)
(0.0135393 0.00329966 -7.91933e-22)
(0.0137318 0.00272759 -2.55757e-20)
(0.0138211 0.00210618 -9.82422e-20)
(0.0138075 0.00146265 0)
(0.0136646 0.000800643 4.58532e-20)
(0.0133926 0.000156766 -2.8449e-20)
(0.0130055 -0.000455023 2.18111e-20)
(0.0124972 -0.00101367 -6.3375e-20)
(0.0119011 -0.00149731 -2.0532e-20)
(0.0112127 -0.00190104 8.07791e-20)
(0.0104736 -0.00220755 9.91459e-20)
(0.00968848 -0.0024205 -3.88559e-20)
(0.00889318 -0.00254132 9.58603e-20)
(0.00808556 -0.00255603 -7.45436e-20)
(0.00728899 -0.00249191 -1.81544e-20)
(0.00650551 -0.00234994 -7.15713e-20)
(0.00575468 -0.00213376 1.80343e-20)
(0.00501657 -0.00185035 -7.03848e-20)
(0.00447726 -0.00152662 6.93244e-20)
(0.00412419 -0.0012182 -5.12224e-20)
(0.00387719 -0.000960474 -1.68819e-20)
(0.00372717 -0.000766312 -3.26151e-20)
(0.0037002 -0.000634059 0)
(0.00381015 -0.000554962 -3.02995e-20)
(0.00407124 -0.000526651 2.74588e-20)
(0.00444709 -0.000535081 5.08832e-22)
(0.00486468 -0.000552533 -3.79334e-22)
(0.00529196 -0.000559959 -1.19985e-21)
(0.00571525 -0.000548021 -1.26895e-20)
(0.00611823 -0.000514172 7.50221e-22)
(0.00648577 -0.000460977 0)
(0.00680671 -0.000393673 -6.88308e-22)
(0.0070742 -0.000318309 6.58519e-22)
(0.00728546 -0.000240713 1.10948e-20)
(0.00744129 -0.00016591 -1.04097e-20)
(0.00754555 -9.78319e-05 -8.93533e-21)
(0.00760433 -3.92224e-05 9.46666e-21)
(0.00762512 8.36616e-06 0)
(0.00761655 4.45574e-05 -4.90724e-22)
(0.00758706 6.99225e-05 0)
(0.00754428 8.47819e-05 -2.94539e-21)
(0.00749536 9.03557e-05 2.0841e-22)
(0.00744624 8.83392e-05 3.55179e-21)
(0.00740145 8.05835e-05 7.12902e-22)
(0.00736409 6.90169e-05 3.31954e-22)
(0.00733584 5.56699e-05 -3.06433e-22)
(0.00731685 4.23367e-05 0)
(0.00730618 3.05053e-05 2.55641e-22)
(0.00730201 2.13424e-05 8.72152e-22)
(0.00730179 1.55928e-05 -6.64649e-22)
(0.00730268 1.36341e-05 -6.75128e-22)
(0.00730185 1.54902e-05 8.30565e-22)
(0.00729675 2.08873e-05 0)
(0.0072853 2.94222e-05 1.31809e-22)
(0.00726614 4.07891e-05 1.9177e-22)
(0.00723849 5.49821e-05 4.78434e-23)
(0.00720162 7.24631e-05 -4.77728e-23)
(0.00714717 9.56101e-05 1.28851e-23)
(0.00979411 0.000518824 0)
(0.010354 0.00120188 0)
(0.0108898 0.00146867 0)
(0.0111177 0.00146081 9.43607e-21)
(0.0111151 0.00132844 -9.45635e-21)
(0.0110422 0.00114673 0)
(0.0108885 0.000970775 0)
(0.010694 0.000822003 0)
(0.0104907 0.0007018 0)
(0.0102926 0.00060565 0)
(0.0101056 0.000528145 0)
(0.00993143 0.000464745 -3.79912e-20)
(0.00977056 0.000412461 3.81683e-20)
(0.00962221 0.000369352 -3.79654e-20)
(0.00948505 0.000334083 7.60384e-20)
(0.00935747 0.000305722 -3.80592e-20)
(0.00923775 0.000283615 -3.78168e-20)
(0.00912412 0.000267275 3.79251e-20)
(0.00901477 0.000256339 0)
(0.00890792 0.000250526 0)
(0.00880181 0.00024963 7.49789e-20)
(0.00869468 0.000253516 -7.51469e-20)
(0.00858474 0.000262128 0)
(0.00847023 0.000275501 -7.44145e-20)
(0.00834931 0.000293779 7.45774e-20)
(0.0082201 0.000317248 0)
(0.00808064 0.000346378 0)
(0.00792889 0.000381876 7.37264e-20)
(0.00776268 0.000424765 -3.32251e-22)
(0.00757972 0.000476501 -7.37857e-20)
(0.00737772 0.00053913 -7.33505e-20)
(0.00715421 0.000615557 1.46829e-19)
(0.00691092 0.000710276 -7.34786e-20)
(0.00663102 0.00082789 6.84578e-20)
(0.0063428 0.00098347 -7.36427e-20)
(0.00615262 0.00119929 -7.42732e-20)
(0.00612446 0.00148178 7.55211e-20)
(0.00624982 0.00182518 2.25681e-19)
(0.00651747 0.00222294 3.7391e-19)
(0.00692638 0.00266462 7.42679e-20)
(0.0074874 0.00313058 -7.28898e-20)
(0.00816712 0.00359239 -6.42922e-19)
(0.0088892 0.00402773 6.34319e-19)
(0.00961494 0.00442507 6.25506e-19)
(0.0103361 0.00477427 -1.37558e-19)
(0.0110468 0.00506528 1.02091e-19)
(0.0117472 0.00528804 -3.01902e-19)
(0.0124285 0.00543335 0)
(0.0130835 0.00548907 -2.95242e-19)
(0.0137108 0.00545287 3.26036e-20)
(0.0142994 0.00532766 2.56769e-19)
(0.0148424 0.00510062 3.15313e-20)
(0.0153259 0.00477384 -3.14241e-19)
(0.015742 0.00435603 -2.17605e-19)
(0.0160758 0.00384915 -2.46907e-19)
(0.0163159 0.00326688 -1.22464e-19)
(0.0164547 0.00262207 -2.97252e-20)
(0.0164737 0.00192779 2.98814e-20)
(0.0163824 0.00121114 2.92963e-20)
(0.0161589 0.000481642 4.32352e-20)
(0.0158169 -0.000227683 2.8576e-20)
(0.0153635 -0.00089963 0)
(0.0148074 -0.00151643 1.12711e-19)
(0.0141745 -0.00206069 0)
(0.0134708 -0.00252545 -3.89027e-19)
(0.0127309 -0.00290152 -2.22294e-19)
(0.0119606 -0.00319111 -5.5341e-20)
(0.0111871 -0.00339397 0)
(0.0104201 -0.00351742 0)
(0.00967045 -0.00356887 -2.18627e-19)
(0.00895066 -0.00355633 0)
(0.00825874 -0.00348899 4.87251e-19)
(0.00760273 -0.00337632 -4.85147e-19)
(0.00698343 -0.00322698 4.55997e-19)
(0.00639852 -0.00304981 -2.25304e-22)
(0.00584997 -0.00285321 -2.19718e-22)
(0.00533711 -0.00264475 3.70694e-19)
(0.00485778 -0.00243163 5.28469e-20)
(0.00441248 -0.00222004 3.93478e-19)
(0.00400129 -0.00201478 4.17856e-19)
(0.00362318 -0.00181943 1.63586e-21)
(0.00327791 -0.00163645 -4.00598e-19)
(0.00296476 -0.00146694 3.98212e-19)
(0.00268236 -0.00131085 0)
(0.00242978 -0.00116726 6.33291e-21)
(0.00220461 -0.00103475 3.97913e-19)
(0.00200371 -0.000911862 -7.97624e-19)
(0.00182574 -0.000797327 -1.19326e-18)
(0.00166713 -0.000690002 -4.04982e-19)
(0.00152445 -0.000589639 1.33108e-20)
(0.00139695 -0.000496541 0)
(0.00128195 -0.00041103 1.18957e-20)
(0.00117749 -0.000334048 -1.18294e-20)
(0.00108481 -0.000266927 0)
(0.0010017 -0.000209942 1.84901e-19)
(0.000930775 -0.000164636 -2.27779e-20)
(0.00087116 -0.000130617 2.26448e-20)
(0.000825606 -0.000108514 2.34484e-22)
(0.000794177 -9.66507e-05 1.77161e-19)
(0.000780325 -9.491e-05 -2.18739e-20)
(0.00078504 -0.000100306 4.34744e-20)
(0.0008103 -0.000111386 -2.15689e-20)
(0.000859183 -0.000123955 -7.45712e-25)
(0.000932085 -0.000134725 -1.05515e-20)
(0.00103225 -0.000140207 1.05165e-20)
(0.00116036 -0.000135315 -8.34092e-20)
(0.00131735 -0.000116715 -8.79865e-20)
(0.00150501 -7.94606e-05 -1.59675e-19)
(0.001722 -2.00096e-05 3.27529e-19)
(0.00196903 6.5035e-05 -1.57544e-19)
(0.00224481 0.000178551 -5.0671e-21)
(0.00254759 0.000322888 -5.00663e-21)
(0.00287605 0.000499294 4.99798e-21)
(0.00322678 0.000708717 -1.58484e-19)
(0.00359753 0.00095042 1.03409e-20)
(0.00398658 0.00122335 -6.61379e-23)
(0.00438822 0.00152519 1.3453e-19)
(0.00480144 0.00185245 4.67924e-19)
(0.00522309 0.00220087 -3.01482e-19)
(0.00564911 0.00256565 -3.00041e-19)
(0.00607874 0.00294122 3.15334e-19)
(0.00651021 0.0033215 2.73429e-19)
(0.00694111 0.00370033 -2.72539e-19)
(0.0073717 0.00407141 -3.20806e-19)
(0.00780237 0.00442847 -2.66e-19)
(0.00823266 0.00476585 3.69483e-20)
(0.00866371 0.00507814 -3.46697e-20)
(0.00909666 0.00536037 0)
(0.00953284 0.00560816 -3.02011e-19)
(0.00997467 0.00581751 -2.64128e-19)
(0.0104225 0.00598444 -2.27748e-19)
(0.0108757 0.00610626 0)
(0.0113384 0.00617931 -2.82131e-19)
(0.0118087 0.00619945 3.09825e-20)
(0.0122821 0.00616516 -8.99296e-20)
(0.0127613 0.00607227 -2.97284e-20)
(0.013238 0.00591471 -9.33029e-22)
(0.0137047 0.0056935 -1.40549e-19)
(0.0141579 0.00540297 2.7797e-20)
(0.0145843 0.00504323 -1.33245e-19)
(0.0149734 0.00461409 2.35609e-19)
(0.0153104 0.00411783 2.04086e-19)
(0.0155794 0.00356026 9.94505e-20)
(0.0157683 0.00295092 0)
(0.0158568 0.00229953 -2.33575e-20)
(0.0158424 0.00162625 3.44431e-22)
(0.0157036 0.00094073 1.08359e-20)
(0.0154395 0.000272255 -3.79906e-20)
(0.0150566 -0.000363188 2.14072e-20)
(0.0145499 -0.00094662 -4.10916e-20)
(0.0139434 -0.00145738 3.98943e-20)
(0.0132337 -0.00188716 0)
(0.0124549 -0.00221976 -9.49681e-20)
(0.0116125 -0.00245376 3.73776e-20)
(0.0107386 -0.00258661 -7.36822e-20)
(0.00983971 -0.00260676 -1.82569e-20)
(0.00894233 -0.00254567 8.85752e-20)
(0.00805069 -0.00239169 -1.76717e-20)
(0.00719677 -0.00216371 0)
(0.00636248 -0.00187358 8.45688e-20)
(0.00570894 -0.00155756 -3.99927e-22)
(0.00525851 -0.00126335 -3.9783e-22)
(0.00495176 -0.00103139 -3.89013e-22)
(0.00477858 -0.000880229 3.14572e-20)
(0.00476548 -0.000809934 -3.71137e-22)
(0.0049198 -0.000801706 -1.91005e-22)
(0.00524828 -0.000841019 -1.39294e-20)
(0.00569479 -0.000894456 1.20249e-20)
(0.00617449 -0.000932126 1.28082e-20)
(0.0066524 -0.000940014 1.18609e-21)
(0.00711453 -0.000912117 -1.21466e-20)
(0.00754556 -0.000848715 1.43167e-21)
(0.00793183 -0.000755576 1.08051e-20)
(0.00826407 -0.000641431 -1.07419e-20)
(0.00853721 -0.000515795 -1.26039e-21)
(0.00874994 -0.000387695 -1.21058e-21)
(0.00890424 -0.000264915 0)
(0.00900491 -0.000153566 8.6136e-21)
(0.00905881 -5.79103e-05 -8.60873e-21)
(0.00907417 1.96154e-05 0)
(0.00906005 7.81953e-05 -9.44823e-22)
(0.00902534 0.000118013 0)
(0.00897815 0.000140593 8.40186e-22)
(0.00892597 0.000148175 3.06201e-21)
(0.00887493 0.000143545 -3.05986e-21)
(0.00882958 0.000129843 -6.91106e-22)
(0.008793 0.000110371 6.38926e-22)
(0.00876662 8.82838e-05 0)
(0.00875037 6.66028e-05 -2.07086e-21)
(0.00874298 4.79735e-05 2.06627e-21)
(0.00874217 3.43358e-05 4.4352e-22)
(0.00874501 2.67883e-05 7.46324e-22)
(0.00874829 2.58494e-05 -7.44823e-22)
(0.00874882 3.13885e-05 5.57639e-22)
(0.0087438 4.27175e-05 -5.56785e-22)
(0.00873103 5.88083e-05 -2.08905e-22)
(0.00870926 7.85778e-05 -1.39018e-22)
(0.00867811 0.000101098 9.25959e-23)
(0.00863825 0.0001257 1.15291e-22)
(0.00857904 0.000154238 0)
(0.00976234 0.000328375 0)
(0.0101853 0.000851802 0)
(0.010665 0.00114682 0)
(0.0109627 0.00125486 9.50893e-21)
(0.0111418 0.00123909 -9.47339e-21)
(0.0112595 0.00115585 0)
(0.0112852 0.00104953 1.86965e-20)
(0.0112583 0.000941052 -1.87498e-20)
(0.0111942 0.000839405 -1.86341e-20)
(0.0111097 0.000749006 3.73144e-20)
(0.011015 0.000670097 -1.86804e-20)
(0.0109161 0.000601431 0)
(0.0108167 0.000542254 0)
(0.0107187 0.000491897 3.7025e-20)
(0.010623 0.000449774 -1.76316e-22)
(0.0105296 0.000415406 -7.39402e-20)
(0.0104382 0.000388396 3.69751e-20)
(0.0103482 0.000368411 0)
(0.0102586 0.000355179 0)
(0.0101685 0.000348467 3.65169e-20)
(0.0100766 0.000348117 -3.65872e-20)
(0.0099818 0.000354032 0)
(0.0098827 0.000366195 0)
(0.0097779 0.000384688 -7.21904e-20)
(0.00966587 0.000409707 1.44295e-19)
(0.00954501 0.000441594 -7.2106e-20)
(0.00941361 0.000480876 -7.15683e-20)
(0.00926984 0.00052831 3.28938e-22)
(0.00911186 0.000584946 1.42704e-19)
(0.00893775 0.000652193 -7.13348e-20)
(0.00874575 0.000731927 -7.08497e-20)
(0.00853396 0.000826609 3.09616e-22)
(0.00830493 0.000939727 7.08415e-20)
(0.00804234 0.00107348 7.0315e-20)
(0.00777311 0.00123744 -7.08996e-20)
(0.0075991 0.00145033 0)
(0.00758247 0.00172226 -2.91107e-19)