/*--------------------------------*- C++ -*----------------------------------*\
| =========                 |                                                 |
| \\      /  F ield         | OpenFOAM: The Open Source CFD Toolbox           |
|  \\    /   O peration     | Version:  2506                                  |
|   \\  /    A nd           | Website:  www.openfoam.com                      |
|    \\/     M anipulation  |                                                 |
\*---------------------------------------------------------------------------*/
FoamFile
{
    version     2.0;
    format      ascii;
    arch        "LSB;label=32;scalar=64";
    class       volVectorField;
    location    "1.9";
    object      U;
}
// * * * * * * * * * * * * * * * * * * * * * * * * * * * * * * * * * * * * * //

dimensions      [0 1 -1 0 0 0 0];

internalField   nonuniform List<vector> 
4000
(
(0.00262978 0.000336769 0)
(0.00238933 0.000330898 -4.39934e-21)
(0.00181712 0.000179461 4.47785e-21)
(0.00133422 0.000102277 8.95782e-21)
(0.00101078 6.63799e-05 -1.80283e-20)
(0.000773571 4.56924e-05 9.04972e-21)
(0.000591034 3.35709e-05 0)
(0.000446765 2.64904e-05 0)
(0.000329937 2.21323e-05 0)
(0.000233251 1.92788e-05 1.79099e-20)
(0.000152296 1.73209e-05 -1.79482e-20)
(8.37756e-05 1.59376e-05 3.56065e-20)
(2.53795e-05 1.49924e-05 -3.56605e-20)
(-2.47461e-05 1.43837e-05 0)
(-6.80855e-05 1.403e-05 0)
(-0.00010589 1.38843e-05 0)
(-0.000139211 1.39256e-05 3.46978e-20)
(-0.000168966 1.41288e-05 -3.46719e-20)
(-0.00019595 1.44702e-05 0)
(-0.000220842 1.49278e-05 0)
(-0.000244218 1.54854e-05 0)
(-0.000266563 1.6135e-05 0)
(-0.000288238 1.68561e-05 0)
(-0.000309546 1.76221e-05 6.67228e-20)
(-0.000330741 1.83711e-05 -1.33038e-19)
(-0.000352025 1.90923e-05 6.6315e-20)
(-0.000373531 1.98104e-05 0)
(-0.000395324 2.05529e-05 0)
(-0.000417288 2.12896e-05 0)
(-0.000439051 2.18032e-05 0)
(-0.000459886 2.15795e-05 -6.42446e-20)
(-0.000478061 2.02427e-05 6.42171e-20)
(-0.000488759 1.71026e-05 0)
(-0.000471858 7.72232e-06 5.54614e-20)
(-0.000423442 -2.13851e-05 6.30037e-20)
(-0.00037339 -6.6202e-05 -3.16578e-19)
(-0.000327499 -0.000109065 -2.53366e-19)
(-0.000270203 -0.000139379 6.36578e-20)
(-0.000198573 -0.000153212 -2.54469e-19)
(-0.000116035 -0.00014907 -5.72498e-19)
(-2.54013e-05 -0.000126502 6.37136e-20)
(7.83104e-05 -8.09937e-05 5.06708e-19)
(0.000197957 -1.58503e-05 -5.04312e-19)
(0.000323848 5.59713e-05 0)
(0.000448226 0.00012546 0)
(0.000565481 0.000187915 -3.0928e-20)
(0.000674916 0.000240916 -4.62214e-19)
(0.000773802 0.000282275 -4.60604e-19)
(0.000859407 0.000311081 -2.75104e-19)
(0.000934221 0.000326278 -2.42576e-19)
(0.000993035 0.00032786 2.407e-19)
(0.00103717 0.000317551 0)
(0.00106406 0.000295192 -2.95465e-20)
(0.00107131 0.000263029 5.01124e-19)
(0.0010587 0.000223994 0)
(0.00102391 0.000181954 -1.1585e-19)
(0.00097124 0.000139278 -2.84974e-20)
(0.000897093 9.89407e-05 -5.89471e-24)
(0.000808808 6.55169e-05 -3.65921e-22)
(0.000704853 4.18124e-05 -1.42127e-20)
(0.000591352 3.07521e-05 2.71798e-20)
(0.000475341 3.35801e-05 0)
(0.000358496 4.84141e-05 0)
(0.000245676 7.42293e-05 5.19318e-20)
(0.00013789 0.000109144 3.59859e-19)
(3.77128e-05 0.000151134 5.023e-20)
(-5.6225e-05 0.000198592 -5.03835e-20)
(-0.000141982 0.00024934 4.83447e-20)
(-0.000221972 0.000302683 1.42764e-19)
(-0.000295211 0.000356297 -3.27754e-19)
(-0.00036453 0.000410576 -4.61949e-20)
(-0.000428715 0.000463528 1.03687e-21)
(-0.000487966 0.000514543 0)
(-0.000544458 0.000563462 0)
(-0.000595343 0.000608272 0)
(-0.000642197 0.00064888 -2.10875e-20)
(-0.000685202 0.000684824 -3.13289e-19)
(-0.000722066 0.000714712 0)
(-0.0007538 0.000738676 8.5099e-22)
(-0.000781672 0.000757289 2.00346e-20)
(-0.000805131 0.000770333 -3.18232e-19)
(-0.000824962 0.00077816 2.85722e-19)
(-0.000842116 0.000781368 6.97593e-23)
(-0.000857176 0.000780314 3.12554e-19)
(-0.000871847 0.000775937 1.75725e-21)
(-0.000886449 0.000768499 -2.98804e-19)
(-0.000900393 0.000757449 -3.00292e-19)
(-0.000916512 0.000743853 3.02198e-19)
(-0.000934661 0.000727941 -4.56927e-21)
(-0.000952009 0.000707951 -2.88406e-19)
(-0.00097211 0.000684762 0)
(-0.000993956 0.000658542 -2.90768e-19)
(-0.00101399 0.000627233 -2.70081e-19)
(-0.00103632 0.000591826 2.75712e-19)
(-0.00105696 0.000551543 -1.53392e-19)
(-0.00107762 0.000505863 1.68715e-20)
(-0.00109676 0.000455574 1.33321e-19)
(-0.0011135 0.00039964 1.64333e-20)
(-0.00112639 0.000339279 1.14185e-19)
(-0.00113665 0.000273939 8.07348e-20)
(-0.00114424 0.000206018 -3.20425e-20)
(-0.00114603 0.0001347 7.95564e-20)
(-0.00114619 6.26444e-05 -7.92332e-21)
(-0.00113874 -9.54713e-06 -7.8883e-21)
(-0.00112842 -8.09198e-05 -3.14067e-20)
(-0.00111278 -0.000149252 0)
(-0.00109067 -0.000214626 0)
(-0.0010654 -0.000274525 -2.47046e-19)
(-0.00103223 -0.000327995 -7.8589e-21)
(-0.00099466 -0.000374438 1.29962e-19)
(-0.000950747 -0.000412638 1.26184e-19)
(-0.000900412 -0.000441772 3.94792e-21)
(-0.000843999 -0.000461629 -1.30945e-19)
(-0.000780694 -0.000471332 -1.96793e-22)
(-0.000710549 -0.000471527 0)
(-0.000636287 -0.000461865 2.55322e-19)
(-0.000554166 -0.000441992 -7.96288e-21)
(-0.000467643 -0.000413854 -2.39178e-19)
(-0.00037696 -0.000377453 -8.01479e-21)
(-0.000282326 -0.000333916 -2.55435e-19)
(-0.000186106 -0.000285208 -7.03525e-22)
(-8.94786e-05 -0.000232381 2.54402e-19)
(6.62197e-06 -0.000176622 1.5753e-20)
(0.000100663 -0.000119555 -2.8262e-19)
(0.000191752 -6.26208e-05 1.56322e-20)
(0.000278884 -7.11677e-06 2.46479e-19)
(0.000361136 4.57123e-05 3.03141e-20)
(0.000438114 9.478e-05 -3.03474e-20)
(0.00050967 0.000139465 2.38639e-19)
(0.000576425 0.00017877 -2.05496e-19)
(0.000638304 0.000211548 -2.93421e-20)
(0.000693788 0.000238064 -4.30674e-19)
(0.000745112 0.000258607 -2.86307e-20)
(0.000792605 0.000272511 -2.24301e-19)
(0.000833895 0.000280197 1.13903e-21)
(0.0008726 0.0002821 0)
(0.000907695 0.000276777 0)
(0.00093487 0.000265461 -5.4425e-22)
(0.000958276 0.00024729 0)
(0.000972495 0.000222901 -2.53696e-20)
(0.000978189 0.000192606 -7.49355e-20)
(0.000972346 0.000156938 -2.44658e-20)
(0.000951702 0.000116652 -4.82354e-20)
(0.000914577 7.49132e-05 -2.41562e-20)
(0.000858035 3.46815e-05 -6.95542e-20)
(0.000783645 3.18798e-07 2.29815e-20)
(0.000691683 -2.68131e-05 0)
(0.00058287 -4.2327e-05 0)
(0.000464824 -4.51998e-05 0)
(0.000339037 -3.42208e-05 -1.99999e-20)
(0.000211216 -9.77885e-06 2.00421e-20)
(8.49488e-05 2.85287e-05 7.6195e-20)
(-3.72124e-05 7.7345e-05 7.34534e-20)
(-0.000154378 0.000137447 0)
(-0.000267566 0.000204087 -6.7764e-20)
(-0.00037974 0.000278964 0)
(-0.000492808 0.000357233 -1.51275e-20)
(-0.000603563 0.000435535 7.54413e-20)
(-0.000686364 0.000488411 -1.43329e-20)
(-0.000710412 0.0004786 2.40457e-19)
(-0.000768057 0.000427003 -5.49423e-20)
(-0.000874254 0.000391052 -5.3642e-20)
(-0.000941937 0.000337037 0)
(-0.000981199 0.000265185 0)
(-0.00100238 0.000181593 0)
(-0.00101494 9.89188e-05 0)
(-0.00103148 2.9357e-05 0)
(-0.00103207 -7.61201e-06 1.12672e-20)
(-0.000971868 -2.27072e-05 -2.96656e-22)
(-0.000873638 -3.03608e-05 -3.10859e-22)
(-0.000763544 -3.41781e-05 -1.07735e-20)
(-0.000655567 -3.49626e-05 0)
(-0.000558785 -3.36624e-05 9.79001e-21)
(-0.000478424 -3.11839e-05 -9.80065e-21)
(-0.000416542 -2.81674e-05 2.8902e-22)
(-0.000373137 -2.49637e-05 0)
(-0.000346502 -2.14572e-05 0)
(-0.000333656 -1.79352e-05 -7.94589e-21)
(-0.000331941 -1.50155e-05 7.9387e-21)
(-0.000338496 -1.23308e-05 0)
(-0.000349892 -1.01343e-05 0)
(-0.000363478 -8.55151e-06 -3.00009e-21)
(-0.000377042 -7.56211e-06 1.83571e-22)
(-0.000388837 -7.07051e-06 3.01422e-21)
(-0.000397682 -6.94497e-06 0)
(-0.000402939 -6.97098e-06 0)
(-0.000404538 -6.88015e-06 0)
(-0.000403012 -6.86521e-06 0)
(-0.000399243 -6.88392e-06 1.2593e-22)
(-0.000394321 -6.79015e-06 0)
(-0.00038939 -6.52123e-06 0)
(-0.000385616 -6.03631e-06 0)
(-0.000384029 -5.18947e-06 6.11916e-22)
(-0.000385339 -4.09817e-06 -6.1118e-22)
(-0.000390079 -2.88288e-06 0)
(-0.000398566 -1.51791e-06 4.88544e-23)
(-0.000410968 -2.74129e-08 1.29743e-22)
(-0.000428859 1.80733e-06 -8.66009e-23)
(-0.000458004 5.8589e-06 -4.28435e-23)
(-0.000493671 1.33257e-05 0)
(0.0034433 0.000727309 0)
(0.00359601 0.000975565 0)
(0.00319765 0.000816028 0)
(0.00265522 0.000632762 9.54674e-21)
(0.0021592 0.000487098 -1.93394e-20)
(0.00172437 0.000378659 9.77735e-21)
(0.00135022 0.000299712 0)
(0.00103239 0.000242162 1.96819e-20)
(0.000762704 0.000199256 -1.98484e-20)
(0.000532594 0.000166251 1.9793e-20)
(0.0003361 0.000140175 -1.99143e-20)
(0.000167114 0.000119173 -3.96434e-20)
(2.13284e-05 0.000102016 3.97811e-20)
(-0.000104848 8.79411e-05 3.93739e-20)
(-0.000214508 7.64426e-05 -1.93828e-22)
(-0.000310701 6.71594e-05 -7.77689e-20)
(-0.000395934 5.9788e-05 3.8705e-20)
(-0.000472424 5.4058e-05 0)
(-0.000542083 4.9728e-05 0)
(-0.000606551 4.65771e-05 0)
(-0.000667223 4.44004e-05 0)
(-0.000725252 4.30106e-05 0)
(-0.00078139 4.22381e-05 0)
(-0.000836538 4.19021e-05 0)
(-0.000890993 4.18007e-05 0)
(-0.000944934 4.18078e-05 0)
(-0.000998474 4.17993e-05 0)
(-0.00105151 4.15591e-05 0)
(-0.0011032 4.06874e-05 0)
(-0.00115261 3.83583e-05 0)
(-0.0011977 3.2925e-05 -7.0379e-20)
(-0.00123473 2.0983e-05 3.15895e-22)
(-0.00125716 -3.04939e-06 1.39688e-19)
(-0.00125083 -4.86188e-05 -6.09581e-20)
(-0.00120609 -0.000136782 -6.90826e-20)
(-0.00112573 -0.000257737 2.0777e-19)
(-0.00101052 -0.000371542 -2.78439e-19)
(-0.000860743 -0.000450841 -7.01201e-20)
(-0.000679262 -0.000481368 7.10072e-19)
(-0.000473098 -0.000458152 2.15968e-19)
(-0.00024307 -0.000377655 0)
(7.61027e-06 -0.000240874 7.28482e-20)
(0.000270308 -7.10123e-05 4.36651e-19)
(0.000531679 0.00010568 7.2697e-20)
(0.000782117 0.000273959 5.7579e-19)
(0.00101525 0.000424265 -5.72605e-19)
(0.00123079 0.000551293 1.62603e-21)
(0.00142319 0.000650709 0)
(0.00158893 0.000720085 -2.82436e-19)
(0.00172969 0.000758921 0)
(0.00183907 0.000767157 -6.86018e-22)
(0.00191735 0.000747263 0)
(0.00195802 0.000700052 -2.75647e-19)
(0.00195916 0.00063134 -2.7424e-19)
(0.0019182 0.000546655 0)
(0.00183063 0.000452439 9.78128e-23)
(0.00170001 0.000355435 1.34027e-19)
(0.00152202 0.00026299 3.30301e-20)
(0.00130859 0.000183684 6.55717e-20)
(0.00105802 0.000126265 -1.65426e-20)
(0.000780645 9.45126e-05 0)
(0.000490134 9.46823e-05 1.28647e-19)
(0.000191657 0.000125217 -6.41808e-20)
(-0.000103448 0.00018459 -1.25268e-19)
(-0.000389484 0.000270721 -3.67414e-19)
(-0.000660432 0.000377434 -6.01437e-20)
(-0.000913922 0.00050276 2.90938e-19)
(-0.00114862 0.000638667 -5.7315e-20)
(-0.00136387 0.000783995 0)
(-0.00156111 0.000932792 5.40599e-20)
(-0.00174224 0.00108342 -5.34299e-20)
(-0.00190657 0.00123197 2.26022e-21)
(-0.00205581 0.00137474 0)
(-0.00219182 0.00151056 -3.99235e-19)
(-0.00231243 0.0016356 -3.91143e-19)
(-0.0024195 0.0017479 2.37914e-20)
(-0.00251364 0.00184566 -2.35601e-20)
(-0.00259265 0.00192683 2.29235e-20)
(-0.00265758 0.00199111 -3.61105e-19)
(-0.0027102 0.00203927 3.34194e-19)
(-0.00275065 0.00207147 -3.50615e-19)
(-0.00278031 0.00208853 -3.54101e-19)
(-0.00280093 0.00209205 2.11771e-20)
(-0.00281413 0.00208352 -3.44731e-19)
(-0.00282281 0.00206485 3.25235e-19)
(-0.00282854 0.00203718 -3.21607e-19)
(-0.00283184 0.00200071 3.19281e-19)
(-0.00283629 0.00195655 -3.13278e-19)
(-0.00284274 0.00190504 -9.63258e-21)
(-0.00284938 0.00184475 9.54566e-21)
(-0.00285923 0.00177562 0)
(-0.0028718 0.00169755 0)
(-0.00288425 0.00160864 1.45655e-19)
(-0.00289919 0.00150884 -1.60952e-19)
(-0.00291366 0.00139775 1.41186e-19)
(-0.00292835 0.00127375 3.47824e-20)
(-0.00294155 0.00113839 1.03284e-22)
(-0.00295214 0.000988984 -7.72329e-23)
(-0.0029584 0.000828571 -3.01219e-19)
(-0.00296031 0.000658239 -4.95694e-20)
(-0.00295667 0.000481353 6.55934e-20)
(-0.00294489 0.000297795 -6.50572e-20)
(-0.00292614 0.000112311 0)
(-0.00289641 -7.2777e-05 -8.02981e-21)
(-0.00285766 -0.000254299 8.04892e-21)
(-0.0028076 -0.000427735 0)
(-0.0027446 -0.000591474 0)
(-0.00267004 -0.000739981 1.29181e-19)
(-0.00258069 -0.000869908 -1.29583e-19)
(-0.00247807 -0.000980089 1.3438e-19)
(-0.00236112 -0.00106855 -2.6267e-19)
(-0.00223044 -0.00113331 -2.04783e-23)
(-0.00208548 -0.00117321 -4.17685e-21)
(-0.00192715 -0.00118693 -1.34534e-19)
(-0.00175541 -0.00117515 0)
(-0.001573 -0.00113793 0)
(-0.00138005 -0.00107644 0)
(-0.00118146 -0.000993932 2.86551e-19)
(-0.000977987 -0.000891667 2.69795e-19)
(-0.000771477 -0.000772274 0)
(-0.000565157 -0.000639915 -3.18551e-19)
(-0.000361243 -0.000497974 5.33039e-20)
(-0.000161982 -0.000350285 -3.56201e-20)
(3.05801e-05 -0.000200774 1.78834e-20)
(0.00021483 -5.29665e-05 -3.51683e-20)
(0.000389369 8.98489e-05 2.7987e-19)
(0.000553189 0.000224745 -2.42036e-19)
(0.00070578 0.000349342 3.08662e-19)
(0.000847202 0.000461797 -4.56932e-22)
(0.000977715 0.000560453 2.3756e-19)
(0.00109761 0.000643701 0)
(0.00120633 0.000711587 2.66173e-19)
(0.0013066 0.000764405 -3.24755e-20)
(0.00139764 0.000801355 -2.25242e-19)
(0.00147762 0.000822783 2.57426e-19)
(0.0015505 0.000829331 -3.13155e-20)
(0.00161249 0.000818787 3.15381e-20)
(0.00165967 0.000792801 -3.1688e-20)
(0.00169383 0.000751809 3.07174e-20)
(0.00170808 0.000697261 -2.95725e-20)
(0.00170092 0.000630202 1.48122e-19)
(0.00166615 0.000552636 -1.43889e-19)
(0.00159854 0.000467324 1.42934e-19)
(0.00149574 0.000380012 0)
(0.00135116 0.000296668 2.75479e-20)
(0.00116775 0.000224291 -2.6484e-20)
(0.000942629 0.00016904 -1.30454e-20)
(0.000680378 0.000136531 0)
(0.000392702 0.000132594 -2.48987e-20)
(8.42041e-05 0.000160134 4.84604e-20)
(-0.000232311 0.000218195 0)
(-0.000549129 0.000309789 -8.9721e-20)
(-0.000856456 0.000426453 -2.10897e-20)
(-0.00114984 0.000572227 2.08795e-20)
(-0.00142704 0.000735107 0)
(-0.00168631 0.000917618 7.52864e-20)
(-0.0019319 0.00110514 -7.14701e-20)
(-0.00215829 0.00128402 6.89799e-20)
(-0.00234209 0.00140531 0)
(-0.00246044 0.00141703 -1.27147e-19)
(-0.00261757 0.00130618 -7.62949e-20)
(-0.00280362 0.00117012 1.32884e-19)
(-0.00293678 0.000975386 -1.41064e-20)
(-0.00300865 0.000739904 1.40034e-20)
(-0.00302246 0.000483929 1.32958e-20)
(-0.00298668 0.000243096 1.27697e-20)
(-0.00290604 4.45009e-05 -1.13295e-20)
(-0.00276982 -7.92435e-05 -7.77926e-22)
(-0.00255272 -0.000147777 0)
(-0.00229505 -0.000179709 7.41406e-22)
(-0.00203208 -0.00018486 0)
(-0.00178758 -0.000171638 -7.03947e-22)
(-0.0015755 -0.000147594 -1.07543e-20)
(-0.00140292 -0.00011865 1.14548e-20)
(-0.00127144 -8.88037e-05 -9.57968e-22)
(-0.00117885 -6.07247e-05 9.62168e-21)
(-0.00112059 -3.58633e-05 -1.82517e-20)
(-0.00109052 -1.53377e-05 1.80006e-20)
(-0.00108137 -2.2161e-07 -9.31589e-21)
(-0.00108634 1.00347e-05 0)
(-0.00109936 1.56493e-05 4.23106e-21)
(-0.00111481 1.71476e-05 -3.97054e-21)
(-0.00112825 1.52913e-05 -4.27924e-22)
(-0.00113656 1.10813e-05 -3.12252e-21)
(-0.001138 5.54837e-06 2.74132e-21)
(-0.00113195 -2.88452e-07 2.71845e-21)
(-0.00111926 -5.73495e-06 -3.04113e-21)
(-0.00110202 -9.79975e-06 2.62345e-21)
(-0.00108239 -1.21488e-05 -4.58352e-21)
(-0.00106295 -1.25115e-05 2.83534e-21)
(-0.00104638 -1.08569e-05 -9.64031e-22)
(-0.00103516 -7.38211e-06 -2.04366e-22)
(-0.00103093 -2.39052e-06 0)
(-0.00103512 3.77384e-06 4.20219e-22)
(-0.00104879 1.06458e-05 -5.74734e-22)
(-0.00107159 1.80386e-05 2.97817e-23)
(-0.00110311 2.61707e-05 -1.90331e-22)
(-0.00114461 3.58945e-05 0)
(-0.0012017 4.84811e-05 0)
(-0.00125713 6.09491e-05 -1.3132e-23)
(0.00348353 0.000566131 0)
(0.00386459 0.001038 -4.64899e-21)
(0.00382829 0.00109735 4.64617e-21)
(0.00360182 0.00102533 9.25479e-21)
(0.00328354 0.000903997 -9.34949e-21)
(0.00293137 0.000773872 0)
(0.0025821 0.000655768 0)
(0.00225502 0.000555256 0)
(0.00195792 0.000471593 -1.90379e-20)
(0.00169245 0.000402119 3.83122e-20)
(0.00145746 0.000344247 1.90651e-20)
(0.00125067 0.000295905 -3.85804e-20)
(0.00106867 0.000255445 -3.84276e-20)
(0.000908149 0.000221667 3.86283e-20)
(0.000765908 0.000193692 0)
(0.000638977 0.000170816 -3.83891e-20)
(0.000524656 0.000152396 7.68638e-20)
(0.000420492 0.000137843 -3.84598e-20)
(0.000324303 0.000126622 0)
(0.000234173 0.000118232 0)
(0.000148442 0.000112199 0)
(6.56929e-05 0.000108061 0)
(-1.51992e-05 0.000105415 0)
(-9.51532e-05 0.000103859 -7.50343e-20)
(-0.000174834 0.000102999 7.48664e-20)
(-0.000254585 0.000102476 0)
(-0.000334541 0.000101879 0)
(-0.000414546 0.000100614 0)
(-0.000494011 9.78888e-05 0)
(-0.000571878 9.25102e-05 0)
(-0.000646501 8.22728e-05 -7.14477e-20)
(-0.000715097 6.28287e-05 7.13417e-20)
(-0.000773795 2.71044e-05 0)
(-0.000826447 -3.5674e-05 4.40034e-21)
(-0.000856344 -0.000146427 0)
(-0.000817293 -0.000292556 -1.39521e-19)
(-0.000698228 -0.000425223 2.80312e-19)
(-0.00052103 -0.000512177 0)
(-0.00029696 -0.000534444 -5.71059e-19)
(-3.31911e-05 -0.000482277 4.48872e-22)
(0.000275511 -0.000351844 -7.20772e-20)
(0.000616824 -0.000154067 7.1918e-20)
(0.000961408 7.63023e-05 -5.69854e-19)
(0.0012947 0.000310147 0)
(0.00161016 0.000531076 -6.32345e-19)
(0.00190273 0.000727725 5.94345e-19)
(0.00217377 0.000893997 5.90638e-19)
(0.00241677 0.0010247 0)
(0.00262876 0.00111692 2.74224e-19)
(0.00281015 0.00117108 0)
(0.00295352 0.00118607 -5.43571e-19)
(0.00305892 0.00116404 0)
(0.0031186 0.00110723 2.35773e-19)
(0.00313078 0.00102193 3.0039e-19)
(0.00308996 0.000913312 2.64754e-19)
(0.00299125 0.000788129 1.31501e-19)
(0.00283675 0.000655972 1.30469e-19)
(0.00261904 0.000526253 6.475e-20)
(0.00235115 0.000408922 -3.23433e-20)
(0.00202684 0.000315889 -4.80575e-20)
(0.00165799 0.000251358 0)
(0.00126013 0.000226046 -1.25823e-19)
(0.000838646 0.000241128 1.24923e-19)
(0.000410977 0.000296458 0)
(-1.41126e-05 0.000391878 4.90928e-19)
(-0.000427113 0.000519259 0)
(-0.000820623 0.000677252 5.82059e-20)
(-0.00119124 0.00085465 -5.73575e-20)
(-0.00153438 0.00104893 0)
(-0.00185214 0.00125149 5.38933e-20)
(-0.00214216 0.00145741 -5.31547e-20)
(-0.00240501 0.00166165 -5.67355e-19)
(-0.0026424 0.00185735 3.53474e-19)
(-0.00285446 0.00204197 -1.96212e-21)
(-0.00304241 0.0022113 3.84562e-19)
(-0.00320691 0.00236102 2.34784e-20)
(-0.00334801 0.00248741 -3.93897e-19)
(-0.00346587 0.00258949 0)
(-0.003562 0.00266704 -3.56711e-19)
(-0.0036377 0.00272111 -6.77305e-19)
(-0.00369416 0.00275258 6.54804e-19)
(-0.00373309 0.00276251 3.49118e-19)
(-0.00375643 0.00275316 -3.43385e-19)
(-0.0037665 0.00272686 3.36765e-19)
(-0.00376638 0.00268652 0)
(-0.0037585 0.00263408 3.16598e-19)
(-0.00374505 0.00257039 3.50593e-21)
(-0.00372927 0.00249703 6.23485e-19)
(-0.00371266 0.00241447 2.84592e-19)
(-0.00369582 0.00232138 3.08403e-19)
(-0.00368066 0.00221782 0)
(-0.00366684 0.00210382 0)
(-0.00365363 0.00197815 -1.42617e-19)
(-0.00364176 0.00183995 0)
(-0.00362938 0.00168942 -1.72979e-20)
(-0.00361723 0.00152521 1.71351e-20)
(-0.00360307 0.00134877 -1.34942e-19)
(-0.00358736 0.00115927 1.33321e-19)
(-0.00356772 0.000959354 1.15364e-19)
(-0.00354449 0.000748892 1.6342e-20)
(-0.0035149 0.000531535 -6.46601e-20)
(-0.0034786 0.000308289 3.20786e-20)
(-0.00343196 8.35644e-05 -2.38862e-20)
(-0.00337484 -0.000139846 7.95311e-21)
(-0.00330525 -0.000358181 0)
(-0.00322089 -0.000566258 6.33006e-20)
(-0.00312075 -0.000761063 0)
(-0.00300313 -0.000936795 1.27293e-19)
(-0.00286688 -0.00109011 2.46654e-22)
(-0.0027112 -0.00121758 -1.25022e-19)
(-0.00253605 -0.00131659 1.30012e-19)
(-0.00234232 -0.00138254 -4.10249e-21)
(-0.0021309 -0.00141608 0)
(-0.00190397 -0.00141771 1.33131e-19)
(-0.00166287 -0.00138551 -1.34468e-19)
(-0.00141108 -0.00131925 0)
(-0.00115173 -0.00122182 8.54819e-21)
(-0.000885884 -0.00109633 -2.85151e-19)
(-0.000617674 -0.000946355 -2.6267e-19)
(-0.000351362 -0.000776466 2.63337e-19)
(-8.84314e-05 -0.000591032 -2.82564e-19)
(0.000168414 -0.000395109 -1.75827e-20)
(0.000416448 -0.000194068 2.6222e-19)
(0.000654462 7.18993e-06 3.49196e-20)
(0.000881115 0.000204162 3.08939e-19)
(0.00109501 0.000392597 -6.14715e-19)
(0.00129583 0.000568912 3.05831e-19)
(0.0014832 0.000730083 -2.36021e-19)
(0.00165703 0.00087394 1.98269e-19)
(0.00181833 0.000999113 3.27869e-19)
(0.00196684 0.00110419 1.94326e-19)
(0.00210234 0.0011886 3.24787e-20)
(0.00222822 0.00125264 2.22345e-19)
(0.00234293 0.00129536 2.85175e-19)
(0.00244488 0.0013169 -3.08675e-20)
(0.00253772 0.00131791 3.10728e-20)
(0.00261561 0.00129696 9.09911e-20)
(0.00267659 0.00125593 2.92705e-20)
(0.00272096 0.00119609 -2.92533e-20)
(0.00274058 0.00111898 2.94583e-20)
(0.0027326 0.00102644 -1.14198e-19)
(0.00268978 0.000921379 2.86271e-20)
(0.00260557 0.000808228 -7.1154e-22)
(0.00247706 0.000692553 -2.75033e-20)
(0.00229453 0.000580875 -1.06428e-19)
(0.00206181 0.000480164 0)
(0.00177185 0.000400115 5.06535e-20)
(0.0014287 0.000345928 -3.1581e-20)
(0.00104533 0.000327117 2.44316e-20)
(0.000623719 0.000348564 -7.12312e-20)
(0.000183493 0.000409587 -2.29072e-20)
(-0.000268867 0.000516123 8.95991e-20)
(-0.00071861 0.000656844 1.06942e-19)
(-0.00115404 0.000837698 -4.09523e-20)
(-0.00156955 0.00104382 9.8183e-20)
(-0.00195699 0.00127592 -7.43557e-20)
(-0.00231794 0.00151238 -1.75171e-20)
(-0.00264331 0.00173324 -6.73313e-20)
(-0.00292347 0.00187794 1.65833e-20)
(-0.00315132 0.00191551 -6.30169e-20)
(-0.00337584 0.00176312 5.99553e-20)
(-0.00355424 0.00153657 -4.35884e-20)
(-0.00366742 0.00122999 -1.42101e-20)
(-0.00370276 0.000871466 -2.72541e-20)
(-0.0036432 0.000493692 0)
(-0.00349192 0.000145398 -2.56576e-20)
(-0.00324792 -0.000137937 2.36421e-20)
(-0.00292048 -0.000319914 4.584e-22)
(-0.00255048 -0.000417974 -3.24175e-22)
(-0.00217409 -0.000452853 -1.07801e-21)
(-0.00181677 -0.000440366 -1.17327e-20)
(-0.0014959 -0.000396024 7.06098e-22)
(-0.00122013 -0.0003333 0)
(-0.000997004 -0.000262834 -6.66692e-22)
(-0.000826627 -0.000192578 6.44473e-22)
(-0.000704907 -0.000128166 1.09455e-20)
(-0.000625006 -7.32976e-05 -1.03237e-20)
(-0.000578752 -2.99735e-05 -8.89066e-21)
(-0.000557116 1.18056e-06 9.43173e-21)
(-0.000550963 2.06277e-05 0)
(-0.000552613 2.96093e-05 -4.88395e-22)
(-0.000555377 2.98934e-05 0)
(-0.000554131 2.34802e-05 -2.93689e-21)
(-0.000545498 1.273e-05 2.03584e-22)
(-0.000527914 -2.53008e-08 3.54495e-21)
(-0.000501747 -1.26119e-05 7.12734e-22)
(-0.000468434 -2.33305e-05 3.3248e-22)
(-0.000430499 -3.02507e-05 -3.07467e-22)
(-0.000391535 -3.25023e-05 0)
(-0.000355132 -2.98722e-05 2.57954e-22)
(-0.000324783 -2.25597e-05 8.82938e-22)
(-0.000303666 -1.12639e-05 -6.73584e-22)
(-0.000294056 2.97688e-06 -6.8611e-22)
(-0.000297161 1.91709e-05 8.43705e-22)
(-0.000313702 3.63404e-05 0)
(-0.00034313 5.37241e-05 1.33687e-22)
(-0.000383888 7.10912e-05 1.93872e-22)
(-0.000435256 8.84977e-05 4.80429e-23)
(-0.000500971 0.000106275 -4.7862e-23)
(-0.000565994 0.000122949 1.3136e-23)
(0.00346032 0.000367972 0)
(0.00386452 0.00084388 0)
(0.00405909 0.001069 0)
(0.00411737 0.00114056 9.12343e-21)
(0.00406556 0.00111151 -9.14012e-21)
(0.0039324 0.00103378 0)
(0.00375123 0.000931199 0)
(0.00354855 0.00082535 0)
(0.00334134 0.000725333 0)
(0.00313974 0.000634718 0)
(0.00294922 0.000554454 0)
(0.00277226 0.000484384 -3.6797e-20)
(0.00260951 0.000423978 3.70055e-20)
(0.00246045 0.00037253 -3.68293e-20)
(0.0023239 0.000329258 7.38164e-20)
(0.00219839 0.000293422 -3.697e-20)
(0.00208231 0.000264281 -3.67437e-20)
(0.00197404 0.000241091 3.68683e-20)
(0.001872 0.000223127 0)
(0.00177468 0.000209693 0)
(0.00168072 0.000200112 7.29151e-20)
(0.00158886 0.000193721 -7.30982e-20)
(0.001498 0.000189889 0)
(0.00140722 0.000187991 -7.23645e-20)
(0.00131577 0.000187414 7.25333e-20)
(0.00122309 0.000187569 0)
(0.00112879 0.000187795 0)
(0.00103274 0.000187247 7.16324e-20)
(0.000935066 0.000184832 -3.47549e-22)
(0.000836175 0.000179024 -7.16585e-20)
(0.000736684 0.000167367 -7.11807e-20)
(0.000637642 0.000145861 1.4248e-19)
(0.000540994 0.000108164 -7.13333e-20)
(0.000429323 4.51813e-05 6.65747e-20)
(0.000321578 -5.56834e-05 -7.12444e-20)
(0.000297634 -0.000180863 -7.05832e-20)
(0.000380264 -0.000287232 7.0733e-20)
(0.000536503 -0.000344713 2.11381e-19)
(0.000751642 -0.000334574 3.51812e-19)
(0.0010197 -0.000246435 7.02992e-20)
(0.00134911 -7.81883e-05 -6.99322e-20)
(0.00172078 0.0001541 -6.22324e-19)
(0.00209294 0.000413855 6.17647e-19)
(0.0024508 0.000674166 6.13141e-19)
(0.00279009 0.000918942 -1.35639e-19)
(0.00310699 0.00113683 1.01319e-19)
(0.00340408 0.00132162 -3.01864e-19)
(0.00367516 0.00146756 0)
(0.00391736 0.00157165 -2.9926e-19)
(0.00413079 0.00163324 3.32344e-20)
(0.00430781 0.00165082 2.63755e-19)
(0.00444807 0.00162667 3.26332e-20)
(0.00454312 0.00156299 -3.26154e-19)
(0.00459092 0.00146461 -2.26443e-19)
(0.0045848 0.00133609 -2.56525e-19)
(0.00451926 0.00118455 -1.271e-19)
(0.0043942 0.00101919 -3.13344e-20)
(0.00419928 0.000849246 3.14107e-20)
(0.00394607 0.000685994 3.09876e-20)
(0.00362298 0.000540718 4.59521e-20)
(0.00324107 0.000421156 3.04092e-20)
(0.00281283 0.000338829 0)
(0.00234229 0.000298765 1.20691e-19)
(0.00184868 0.000303379 0)
(0.00133889 0.000355096 -4.17228e-19)
(0.000831045 0.000448238 -2.37819e-19)
(0.000333087 0.000581843 -5.91675e-20)
(-0.000146754 0.000745653 0)
(-0.000599383 0.000935254 0)
(-0.00102399 0.00114119 -2.21263e-19)
(-0.00141441 0.00135567 0)
(-0.00177215 0.00157267 4.7144e-19)
(-0.00209692 0.00178362 -4.59401e-19)
(-0.00238717 0.00198273 4.23152e-19)
(-0.00264509 0.00216509 -2.42286e-22)
(-0.00287066 0.00232532 -2.30592e-22)
(-0.00306486 0.00245946 3.25929e-19)
(-0.00323024 0.00256688 4.57522e-20)
(-0.00336779 0.0026471 3.35567e-19)
(-0.00347855 0.00270077 3.51498e-19)
(-0.00356448 0.00272972 1.41963e-21)
(-0.00362749 0.00273536 -3.28835e-19)
(-0.00366954 0.00272016 3.23359e-19)
(-0.00369329 0.00268711 0)
(-0.0037015 0.00263922 5.04451e-21)
(-0.00369712 0.00257906 3.14557e-19)
(-0.00368355 0.0025085 -6.2597e-19)
(-0.00366337 0.00242845 -9.30141e-19)
(-0.00363881 0.00233973 -3.13838e-19)
(-0.00361263 0.00224232 1.02466e-20)
(-0.00358575 0.00213497 0)
(-0.0035586 0.00201632 9.08165e-21)
(-0.0035323 0.0018871 -9.00359e-21)
(-0.00350591 0.00174611 0)
(-0.00347884 0.00159318 1.39744e-19)
(-0.00345101 0.00142734 -1.7162e-20)
(-0.00342021 0.0012495 1.70441e-20)
(-0.0033869 0.00105951 1.08071e-22)
(-0.00334834 0.000859263 1.32965e-19)
(-0.00330447 0.000649231 -1.6401e-20)
(-0.00325144 0.000432341 3.25852e-20)
(-0.00318957 0.000210394 -1.62016e-20)
(-0.00311459 -1.26808e-05 8.44038e-24)
(-0.00302619 -0.000233505 -7.97956e-21)
(-0.00292104 -0.000448208 8.00492e-21)
(-0.00279719 -0.000651485 -6.39195e-20)
(-0.00265413 -0.000839326 -6.7993e-20)
(-0.00248913 -0.00100582 -1.24665e-19)
(-0.00230333 -0.00114694 2.58674e-19)
(-0.00209565 -0.00125852 -1.26058e-19)
(-0.00186769 -0.00133749 -4.11461e-21)
(-0.00162096 -0.00137962 -4.13003e-21)
(-0.00135714 -0.001386 4.19478e-21)
(-0.00108015 -0.00135391 -1.35396e-19)
(-0.000792601 -0.00128502 8.95978e-21)
(-0.000497007 -0.00117986 -5.59441e-23)
(-0.00019884 -0.00104203 1.21854e-19)
(0.000100598 -0.000874744 4.28813e-19)
(0.000397082 -0.000682311 -2.77329e-19)
(0.000687076 -0.000470144 -2.76564e-19)
(0.000969855 -0.000243525 2.91587e-19)
(0.00124303 -8.2902e-06 2.53924e-19)
(0.00150426 0.000229591 -2.53717e-19)
(0.00175351 0.00046486 -3.00213e-19)
(0.0019903 0.000692568 -2.4971e-19)
(0.00221382 0.000908147 3.45578e-20)
(0.00242448 0.00110785 -3.28512e-20)
(0.00262234 0.00128858 0)
(0.0028078 0.00144816 -2.89558e-19)
(0.00298227 0.00158523 -2.54899e-19)
(0.00314554 0.00169822 -2.2122e-19)
(0.00329734 0.00178652 0)
(0.00344119 0.00185044 -2.78404e-19)
(0.0035754 0.00188889 3.0779e-20)
(0.00369792 0.00190222 -9.02837e-20)
(0.00381252 0.00189138 -3.00855e-20)
(0.00391307 0.001856 -9.4959e-22)
(0.00399705 0.0017982 -1.45463e-19)
(0.00406446 0.00171847 2.89464e-20)
(0.00410727 0.00161832 -1.40204e-19)
(0.00412227 0.00150007 2.49742e-19)
(0.00410189 0.00136686 2.17781e-19)
(0.00403886 0.00122308 1.06551e-19)
(0.0039293 0.00107439 0)
(0.00376174 0.000926941 -2.50822e-20)
(0.00353936 0.00078829 3.91713e-22)
(0.00325172 0.0006674 1.19217e-20)
(0.00289992 0.000571005 -4.20785e-20)
(0.0024955 0.000508569 2.38666e-20)
(0.00203573 0.0004871 -4.59789e-20)
(0.00154101 0.000507676 4.49664e-20)
(0.00101591 0.000578115 0)
(0.000478287 0.000689723 -1.07041e-19)
(-5.73631e-05 0.000848283 4.16111e-20)
(-0.000579762 0.00103997 -7.99844e-20)
(-0.00107418 0.0012625 -1.92628e-20)
(-0.00153753 0.00149221 9.02036e-20)
(-0.00195803 0.00170481 -1.75431e-20)
(-0.0023326 0.00184524 0)
(-0.0026604 0.00188382 7.91543e-20)
(-0.00292284 0.00172586 -4.26963e-22)
(-0.00305833 0.00144655 -3.96511e-22)
(-0.00311769 0.00107776 -3.67957e-22)
(-0.00307595 0.000655208 2.74123e-20)
(-0.00292 0.000220292 -3.28069e-22)
(-0.00264403 -0.000171731 -1.70258e-22)
(-0.00225265 -0.000483256 -1.26479e-20)
(-0.00178287 -0.000680673 1.11414e-20)
(-0.00131612 -0.000774702 1.21487e-20)
(-0.000877655 -0.000787608 1.16329e-21)
(-0.000477799 -0.000740161 -1.20285e-20)
(-0.000127671 -0.000652648 1.44428e-21)
(0.000166519 -0.000542569 1.09845e-20)
(0.000403063 -0.000424196 -1.09427e-20)
(0.000584514 -0.000308898 -1.28656e-21)
(0.000716227 -0.000204887 -1.23619e-21)
(0.00080571 -0.000117517 0)
(0.000861666 -4.95947e-05 8.80492e-21)
(0.000893411 -1.65262e-06 -8.79657e-21)
(0.00091004 2.71242e-05 0)
(0.000919833 3.88969e-05 -9.62242e-22)
(0.000929556 3.67825e-05 0)
(0.00094429 2.43773e-05 8.5632e-22)
(0.000967269 5.62743e-06 3.12243e-21)
(0.000999719 -1.55409e-05 -3.11336e-21)
(0.00104121 -3.54452e-05 -7.03029e-22)
(0.00108996 -5.08048e-05 6.49246e-22)
(0.00114295 -5.94329e-05 0)
(0.00119627 -6.00073e-05 -2.10706e-21)
(0.00124588 -5.22688e-05 2.1013e-21)
(0.00128784 -3.66164e-05 4.5218e-22)
(0.0013186 -1.4356e-05 7.62452e-22)
(0.00133535 1.27449e-05 -7.61383e-22)
(0.00133664 4.27296e-05 5.70541e-22)
(0.00132203 7.35179e-05 -5.69276e-22)
(0.00129216 0.000103489 -2.13402e-22)
(0.00124917 0.000131557 -1.41824e-22)
(0.00119534 0.000156856 9.46103e-23)
(0.00112829 0.000179012 1.17201e-22)
(0.0010572 0.000198724 0)
(0.00344233 0.000232843 0)
(0.0038061 0.000614623 0)
(0.00405257 0.000877576 0)
(0.00425439 0.00102936 9.1229e-21)
(0.00440074 0.00108663 -9.08085e-21)
(0.00447287 0.00107541 0)
(0.00448261 0.00102654 1.78811e-20)
(0.00445157 0.000950685 -1.79258e-20)
(0.00439046 0.000865332 -1.78094e-20)
(0.0043103 0.000779627 3.56705e-20)
(0.00421948 0.000697934 -1.78645e-20)
(0.00412374 0.000622613 0)