/*--------------------------------*- C++ -*----------------------------------*\
| =========                 |                                                 |
| \\      /  F ield         | OpenFOAM: The Open Source CFD Toolbox           |
|  \\    /   O peration     | Version:  2506                                  |
|   \\  /    A nd           | Website:  www.openfoam.com                      |
|    \\/     M anipulation  |                                                 |
\*---------------------------------------------------------------------------*/
FoamFile
{
    version     2.0;
    format      ascii;
    arch        "LSB;label=32;scalar=64";
    class       volVectorField;
    location    "2.5";
    object      vorticityField;
}
// * * * * * * * * * * * * * * * * * * * * * * * * * * * * * * * * * * * * * //

dimensions      [0 0 -1 0 0 0 0];

internalField   nonuniform List<vector> 
4000
(
(3.95619e-19 8.59115e-20 31.6343)
(7.66181e-20 7.23084e-20 34.3256)
(1.335e-19 4.11869e-19 29.9209)
(5.13944e-19 6.28869e-19 25.9248)
(-7.1464e-19 7.55851e-19 23.3417)
(4.26003e-20 8.94381e-21 21.4703)
(4.66475e-19 7.93988e-19 19.9775)
(-7.79168e-20 9.12428e-19 18.7623)
(-9.59692e-20 3.66469e-20 17.754)
(-5.77718e-20 -6.00381e-19 16.8995)
(5.15545e-19 2.12382e-17 16.1636)
(-2.15639e-18 -3.82548e-17 15.5221)
(1.41486e-18 1.76608e-17 14.9578)
(-1.46179e-18 -1.95216e-17 14.4572)
(2.21238e-18 1.86965e-17 14.0104)
(-1.7158e-18 9.2258e-19 13.6092)
(1.44044e-18 2.03222e-17 13.2471)
(-1.87967e-18 -1.88047e-17 12.9185)
(-1.0824e-18 3.36828e-19 12.6184)
(1.80258e-18 5.66248e-20 12.3421)
(-1.38288e-19 5.92242e-20 12.0849)
(-2.47905e-18 -1.0167e-18 11.8422)
(2.32178e-18 -1.12322e-18 11.609)
(2.49787e-18 2.07288e-20 11.3794)
(-2.64211e-18 -1.01075e-18 11.1469)
(-1.69147e-19 -1.15761e-18 10.9027)
(-3.26854e-18 -9.34601e-20 10.636)
(4.25913e-19 -3.43184e-18 10.3317)
(1.03417e-17 4.33167e-17 9.96819)
(-3.68695e-18 -3.7276e-17 9.48758)
(-4.95512e-18 5.34368e-18 8.81325)
(-1.22336e-17 -1.04165e-16 8.246)
(5.33148e-18 1.0516e-16 8.16666)
(-2.30551e-17 -4.06107e-17 8.63876)
(4.2685e-18 -2.1751e-16 9.58464)
(1.2832e-16 7.77176e-16 10.9372)
(1.54771e-17 7.13952e-17 12.5104)
(-4.53896e-17 -1.24586e-16 15.2026)
(-9.28515e-19 -4.5429e-17 19.4253)
(5.0702e-18 4.43205e-17 24.0309)
(-5.08577e-17 -1.72789e-16 28.5)
(1.75895e-16 5.08702e-16 32.5928)
(-2.57737e-18 1.40315e-17 36.2212)
(2.83047e-16 3.12529e-16 39.3273)
(-1.35895e-16 -7.42677e-17 41.8577)
(4.13018e-18 3.02451e-16 43.7997)
(2.85895e-17 1.32469e-16 45.0914)
(-4.5225e-17 -3.4136e-16 45.8408)
(-2.38697e-16 -2.38052e-16 46.1605)
(-1.47386e-16 -1.72285e-16 46.1897)
(-3.42734e-17 -6.6682e-17 46.0573)
(4.04578e-18 7.2786e-18 45.6503)
(2.00079e-17 -2.32133e-17 45.4149)
(2.78813e-17 3.31485e-16 45.0742)
(-6.42656e-17 2.93811e-16 44.5566)
(-1.6115e-17 -2.839e-16 43.4581)
(-3.5268e-17 -7.469e-17 41.7541)
(7.39624e-18 1.42378e-17 38.9748)
(-5.18021e-19 1.15509e-18 34.8865)
(2.39963e-18 -2.88477e-17 30.1307)
(9.63984e-18 -5.69116e-17 25.4036)
(1.46608e-17 1.44782e-16 20.9426)
(-3.7365e-17 3.47262e-16 17.1017)
(3.66162e-17 -2.99909e-16 14.0489)
(5.98515e-19 1.72354e-17 11.6135)
(-3.22073e-18 2.81819e-18 9.81315)
(4.45158e-19 -4.00135e-18 8.44488)
(1.10891e-17 -1.09075e-16 7.40444)
(1.88587e-17 -7.0873e-16 6.62594)
(4.83137e-17 -3.76821e-16 6.02224)
(-1.57713e-18 5.94736e-17 5.53592)
(-5.22418e-17 3.5656e-16 5.12368)
(6.16585e-19 -3.48866e-16 4.76436)
(-1.18633e-17 6.7081e-17 4.43998)
(-3.62768e-17 3.23949e-16 4.1382)
(2.23583e-17 -3.73276e-16 3.85179)
(4.45843e-17 -3.68003e-16 3.57703)
(9.69232e-18 -2.61158e-16 3.31257)
(-1.99344e-18 2.67368e-17 3.06651)
(-1.74771e-17 1.68727e-17 2.83023)
(1.49032e-17 1.15323e-17 2.60377)
(-1.2668e-17 2.49932e-16 2.39208)
(4.48515e-19 -2.69375e-17 2.20882)
(8.95522e-18 -2.09376e-16 2.04051)
(4.76989e-19 2.10379e-16 1.90254)
(-5.93178e-20 -7.7497e-18 1.79108)
(1.09223e-19 -7.60112e-20 1.71137)
(-6.29779e-20 9.10013e-18 1.64452)
(2.27687e-19 3.75801e-17 1.59485)
(1.53422e-18 -7.94786e-17 1.5496)
(-1.97461e-19 -1.97015e-18 1.48214)
(4.50124e-18 -5.82425e-18 1.35596)
(9.14645e-18 -7.66555e-18 1.11596)
(-1.18774e-17 -2.94285e-17 0.700322)
(3.00496e-17 2.63161e-16 0.14184)
(-1.82653e-18 2.7413e-16 -0.517468)
(3.39392e-17 3.32558e-16 -1.21759)
(1.98889e-17 3.6894e-17 -1.82516)
(-1.07193e-17 2.79897e-16 -2.25184)
(-1.09954e-17 3.65617e-16 -2.4275)
(-4.52929e-19 -8.54813e-18 -2.33125)
(5.01373e-17 3.32426e-16 -1.98066)
(2.04984e-17 7.58637e-16 -1.41095)
(2.28805e-18 5.61025e-17 -0.67783)
(2.35981e-17 3.73734e-16 0.185728)
(1.97314e-18 6.77489e-17 1.18786)
(1.9791e-17 -2.94977e-16 2.36073)
(1.67232e-17 -3.25709e-16 3.79712)
(2.09458e-17 -2.92945e-17 5.55984)
(2.38746e-17 4.2394e-17 7.69903)
(-2.97039e-17 -3.19534e-16 10.2318)
(8.80108e-18 2.33276e-16 12.9872)
(7.4692e-19 -6.21858e-18 15.947)
(4.91093e-17 5.42266e-16 18.6349)
(7.77705e-18 1.64084e-16 20.9488)
(1.43745e-17 2.55546e-16 22.5129)
(1.74354e-19 6.03343e-18 22.9149)
(-5.13823e-21 7.27854e-17 22.1174)
(1.22166e-18 -8.29361e-18 20.5303)
(-1.1141e-19 3.19924e-19 18.3435)
(-1.77183e-18 -8.10922e-18 16.0458)
(3.38456e-17 -2.43296e-16 13.9041)
(-2.49658e-17 3.83368e-16 12.058)
(-9.33051e-20 2.01277e-17 10.5083)
(-2.91816e-17 2.29391e-16 9.21276)
(4.98794e-17 -6.6196e-16 8.19348)
(-5.00523e-17 4.07217e-16 7.37437)
(-4.17463e-18 -3.39179e-16 6.69944)
(-3.31296e-17 9.13473e-17 6.1429)
(1.97842e-17 -2.99614e-16 5.67673)
(1.10381e-18 6.26913e-17 5.27185)
(-5.02938e-17 3.84007e-16 4.90803)
(3.75292e-17 -1.1666e-16 4.57184)
(-3.22932e-17 3.92512e-16 4.25667)
(-1.94761e-17 -1.45576e-17 3.95995)
(-2.66913e-18 -2.53069e-17 3.67719)
(2.1833e-17 -2.78377e-16 3.40584)
(-2.49939e-17 2.95027e-16 3.14173)
(1.62492e-18 -2.52655e-17 2.89296)
(1.2828e-17 7.50374e-18 2.66577)
(-1.03913e-17 2.33978e-16 2.44313)
(2.55231e-18 -5.53454e-17 2.24643)
(-2.11361e-17 2.53822e-16 2.07485)
(1.60885e-18 -1.90084e-17 1.93339)
(7.73575e-19 -1.37846e-16 1.83439)
(2.17855e-18 -8.27023e-17 1.76308)
(4.25347e-19 6.65116e-17 1.73536)
(-6.08205e-19 -4.58347e-17 1.74325)
(1.69426e-18 -1.40129e-18 1.74232)
(2.88574e-18 5.17775e-17 1.70277)
(2.32731e-18 2.1893e-17 1.56515)
(-1.79316e-17 -3.80312e-16 1.2599)
(2.17016e-18 4.54897e-17 0.781899)
(2.7284e-17 1.17266e-17 0.164538)
(1.79088e-17 2.33109e-16 -0.548816)
(9.0282e-18 1.01687e-16 -1.25482)
(-3.69707e-18 1.3675e-18 -1.79671)
(-2.5924e-17 -2.84625e-17 -2.104)
(1.61859e-17 7.06299e-17 -2.12188)
(-1.40797e-17 -7.60643e-16 -1.8081)
(-7.30396e-18 6.43627e-18 -1.15365)
(3.59782e-20 3.7429e-16 -0.148247)
(2.67258e-17 3.61873e-16 0.916287)
(7.17121e-18 4.18224e-17 2.46917)
(-3.60106e-17 -3.0083e-16 4.11433)
(-2.30886e-17 -5.18634e-16 5.77924)
(-5.78554e-18 -2.84367e-17 7.46304)
(-4.70113e-18 -5.12653e-17 8.99152)
(-7.15336e-18 -1.8349e-16 10.1796)
(-2.95771e-18 -5.71619e-17 10.7987)
(-2.34869e-18 -2.01918e-18 10.8722)
(3.17721e-21 -7.28901e-19 10.8868)
(-1.19735e-18 -9.11951e-21 10.964)
(1.15593e-18 -7.05897e-19 11.0234)
(8.28104e-20 -3.49553e-19 11.0213)
(9.99745e-22 -4.99359e-17 10.9781)
(1.90281e-19 4.89535e-17 10.9183)
(-1.26887e-19 2.47317e-17 10.8631)
(-1.12322e-19 -2.48132e-17 10.8291)
(-2.86083e-20 2.31934e-17 10.8281)
(1.7297e-19 -4.86928e-17 10.8675)
(-1.23929e-19 2.33958e-17 10.9494)
(-3.30226e-19 -1.13139e-19 11.0737)
(3.41371e-19 -6.70842e-19 11.2377)
(-3.87993e-20 2.66062e-19 11.4385)
(1.10393e-18 -2.34274e-17 11.6768)
(-1.1432e-18 2.2277e-17 11.9538)
(1.4868e-18 -2.25327e-17 12.2762)
(-1.50848e-18 2.21298e-17 12.6529)
(8.93682e-19 -1.1864e-17 13.0966)
(-9.35968e-19 1.07574e-17 13.6264)
(6.08624e-20 -9.56672e-19 14.2674)
(-7.79114e-20 -5.43871e-19 15.0544)
(-8.32029e-19 -1.16338e-20 16.0451)
(9.55024e-19 -5.60069e-19 17.3344)
(-1.19018e-19 -9.69901e-19 19.1006)
(7.53432e-19 -4.01507e-18 21.7096)
(-5.96204e-19 5.04716e-18 26.0295)
(-7.06215e-21 -6.60587e-19 32.3217)
(-5.38762e-20 -2.647e-20 30.6285)
(-8.80767e-20 -2.53368e-19 -1.39883)
(-4.038e-20 -7.45189e-20 9.37307)
(-3.80724e-20 -7.13786e-19 11.4969)
(9.00083e-19 1.65646e-18 11.5609)
(-1.72855e-18 -5.18322e-18 11.1056)
(6.80516e-19 -1.74214e-18 10.5025)
(4.90272e-20 3.40369e-18 9.89223)
(-1.51909e-19 -1.40007e-18 9.32017)
(-4.0834e-20 -1.10691e-18 8.79504)
(1.61925e-19 -1.1169e-18 8.31683)
(-7.37981e-19 -1.54427e-18 7.88345)
(1.1132e-18 -1.47572e-17 7.49197)
(-9.61592e-19 1.35182e-17 7.13918)
(2.17639e-18 -1.40054e-17 6.82185)
(-9.18552e-19 2.64337e-17 6.53707)
(2.67269e-19 -2.94267e-17 6.28217)
(-1.04995e-18 1.16177e-17 6.0547)
(6.85031e-19 -1.41283e-17 5.85242)
(2.0843e-18 -2.00692e-17 5.67329)
(-1.37822e-18 2.62101e-17 5.51542)
(-3.44535e-19 2.31529e-18 5.37697)
(3.89731e-19 -3.27567e-17 5.25603)
(-1.51894e-18 2.59999e-17 5.15046)
(2.39139e-18 3.31644e-17 5.05775)
(2.24921e-18 -2.64087e-17 4.97492)
(-2.34181e-18 7.14863e-20 4.89841)
(-3.81667e-18 -3.08102e-17 4.82368)
(4.46075e-18 -8.99817e-18 4.74462)
(-1.95179e-18 6.18748e-17 4.65297)
(2.20409e-18 1.30213e-17 4.53755)
(-1.95477e-18 -2.65971e-17 4.36949)
(4.69623e-18 -2.07949e-17 4.11576)
(-8.13091e-18 -7.22144e-17 3.91241)
(1.88893e-18 -1.91874e-16 3.82824)
(-3.87579e-17 -1.64253e-16 3.83867)
(-1.07304e-16 -2.67123e-16 3.90077)
(8.03131e-18 -7.1344e-17 4.0379)
(6.61522e-17 1.71352e-16 4.40833)
(-7.25836e-18 4.5262e-17 4.97156)
(-1.18186e-16 -8.20283e-17 5.60779)
(-7.89778e-17 -4.22047e-17 6.39434)
(-2.03518e-16 -2.92284e-16 7.25406)
(-3.92226e-17 7.76079e-18 8.10413)
(-4.23375e-16 -4.91573e-16 8.91344)
(2.14504e-16 1.59204e-16 9.66178)
(-2.66686e-16 -1.58956e-16 10.3243)
(1.9868e-16 2.70564e-17 10.8742)
(4.99439e-18 5.33197e-17 11.3316)
(-2.84776e-18 4.38157e-17 11.7086)
(2.0422e-16 2.28049e-16 12.0417)
(-2.25752e-16 -7.24006e-17 12.2904)
(2.40012e-17 -5.81369e-17 12.5048)
(1.98781e-16 9.60483e-17 12.7277)
(-7.10697e-17 -3.55764e-17 13.0547)
(1.49563e-16 1.12336e-16 13.5691)
(9.64322e-18 2.10059e-17 14.2163)
(4.02581e-17 5.03451e-17 15.0183)
(-1.59341e-17 -1.83559e-17 15.9703)
(-5.34742e-19 -4.85082e-18 16.6885)
(-4.43336e-18 1.548e-17 16.8173)
(-1.6829e-17 8.71345e-17 16.1237)
(-2.73368e-17 2.02742e-16 14.8055)
(-4.50338e-17 1.94268e-16 12.9091)
(-3.545e-17 2.62643e-16 11.1265)
(-1.18486e-17 -3.97804e-17 9.43422)
(1.5958e-17 2.03789e-17 8.0306)
(4.02054e-19 -3.32344e-18 6.90453)
(-1.03715e-17 7.14612e-17 6.0156)
(-6.59439e-17 6.33254e-16 5.34488)
(-2.85688e-17 -3.14034e-16 4.83857)
(-2.00078e-18 3.44618e-17 4.45353)
(-3.52558e-18 3.92333e-16 4.14325)
(-5.24173e-17 3.01016e-16 3.87864)
(-4.1732e-17 3.63312e-16 3.63961)
(3.42544e-17 -1.0735e-16 3.41156)
(3.81988e-18 -5.0982e-17 3.18496)
(-3.45059e-17 -2.27287e-16 2.95664)
(-3.17603e-17 3.41586e-16 2.7164)
(1.78121e-19 1.14551e-17 2.47605)
(1.14809e-17 2.11213e-16 2.23234)
(-1.03566e-17 -2.48175e-16 1.98573)
(1.2008e-17 1.04773e-17 1.72016)
(5.34389e-20 -3.55818e-20 1.4624)
(-8.68848e-18 -3.96626e-18 1.18001)
(7.63554e-18 -1.96669e-16 0.890052)
(-3.41107e-19 1.40576e-17 0.564879)
(8.58722e-19 -1.11626e-17 0.230107)
(-1.99589e-19 1.17919e-17 -0.103067)
(-6.95614e-19 -1.60735e-17 -0.402538)
(1.68795e-18 1.97257e-16 -0.616771)
(-9.78905e-19 -7.64486e-18 -0.737241)
(-1.30821e-17 -1.39179e-18 -0.805869)
(-4.78169e-18 2.42446e-16 -0.842074)
(2.06974e-17 -2.55546e-16 -0.85059)
(-1.63898e-17 2.76374e-16 -0.890462)
(-2.9574e-17 -3.07079e-16 -0.96868)
(-6.05775e-17 1.94647e-16 -1.09201)
(-3.58872e-17 3.51441e-16 -1.25036)
(-1.08042e-17 -2.89585e-16 -1.41985)
(8.49375e-18 -3.5461e-16 -1.57336)
(6.33941e-19 -6.00554e-17 -1.69474)
(-6.6255e-17 3.23008e-16 -1.75578)
(-4.62228e-17 -3.77873e-16 -1.75099)
(2.13134e-17 4.44443e-18 -1.67262)
(-5.7464e-17 -6.60625e-17 -1.5203)
(-2.1555e-18 -6.67145e-17 -1.29673)
(-1.16347e-17 6.13017e-16 -0.995534)
(2.56101e-17 7.37999e-16 -0.625312)
(1.74314e-17 3.60341e-16 -0.175971)
(-3.37636e-18 2.6517e-16 0.352986)
(5.86204e-17 3.80316e-16 0.943793)
(-6.8318e-17 -5.21067e-16 1.57309)
(5.88043e-19 -1.00039e-17 2.3156)
(-8.23451e-17 -2.53197e-16 3.15708)
(-2.50618e-18 9.50837e-18 4.13971)
(-1.75821e-17 -9.03948e-17 5.37389)
(-1.06683e-18 -1.28228e-17 6.83898)
(2.64257e-18 -3.48934e-17 8.32771)
(6.17278e-19 -3.83353e-18 9.43604)
(-6.78311e-19 5.30912e-18 10.1182)
(2.692e-19 1.88585e-17 9.98398)
(-5.52651e-17 2.70233e-16 9.39627)
(2.18651e-17 -3.20722e-17 8.64994)
(5.11315e-18 -5.37974e-17 7.84704)
(7.78368e-17 -2.98564e-16 7.04838)
(-1.0414e-16 4.43164e-16 6.34673)
(3.00224e-17 2.45602e-16 5.76332)
(-7.09181e-17 6.56218e-16 5.27871)
(-6.57726e-17 5.83902e-16 4.87308)
(-2.23094e-17 2.20938e-16 4.52938)
(-6.97864e-18 4.33032e-17 4.22982)
(7.25885e-18 1.69613e-16 3.95742)
(5.16476e-17 -6.13702e-16 3.69888)
(2.70474e-17 1.26109e-16 3.44389)
(-2.05311e-17 1.91485e-16 3.1896)
(-7.26386e-18 -1.50576e-17 2.93337)
(-1.00403e-18 -1.61596e-19 2.67282)
(4.16961e-17 -6.5076e-17 2.40699)
(2.42865e-18 -7.07917e-17 2.12668)
(-1.66142e-18 -1.51453e-16 1.85124)
(2.40303e-18 -3.85156e-17 1.57694)
(9.71852e-19 8.33556e-18 1.2791)
(1.06541e-17 7.42822e-17 0.983804)
(6.55463e-18 -9.05344e-17 0.665193)
(-9.16363e-18 1.36891e-16 0.346192)
(-2.79386e-18 -4.67286e-18 0.0218767)
(1.02595e-18 4.34666e-17 -0.296262)
(-1.5754e-18 -4.70341e-17 -0.546323)
(1.32078e-18 9.71596e-17 -0.699735)
(-8.66686e-18 -2.30642e-18 -0.780171)
(3.19947e-18 1.99867e-18 -0.833492)
(1.30101e-17 9.60484e-18 -0.875193)
(-1.65754e-17 -4.87221e-17 -0.92276)
(-2.98562e-17 6.12309e-16 -1.02755)
(-2.78516e-17 1.66304e-16 -1.16799)
(-4.49948e-18 9.13638e-17 -1.34163)
(-7.54741e-18 -5.69909e-17 -1.55282)
(7.39088e-17 -4.88906e-16 -1.73612)
(-1.591e-17 1.14475e-16 -1.88252)
(3.45898e-17 4.20024e-16 -1.96299)
(1.78964e-17 6.57345e-17 -1.95893)
(-2.14114e-17 -3.09539e-16 -1.86651)
(-2.11059e-17 5.26293e-17 -1.86127)
(1.73277e-17 3.3253e-17 -1.74959)
(3.878e-17 -3.41435e-16 -1.66776)
(3.57491e-17 2.54116e-16 -1.48793)
(3.89483e-18 1.66871e-17 -1.21987)
(-1.88559e-18 -3.0723e-18 -0.861266)
(1.59136e-17 5.18614e-17 -0.390307)
(3.37409e-18 5.08318e-17 0.200325)
(-4.15566e-19 -4.12505e-17 0.756016)
(-1.68667e-18 1.36528e-19 1.11498)
(-8.56e-20 -4.56733e-17 1.37228)
(-2.29746e-19 4.29879e-17 1.57132)
(2.95314e-20 2.59611e-18 1.7218)
(1.33394e-19 4.35141e-17 1.83794)
(-2.47529e-19 -1.10391e-19 1.92573)
(1.47923e-19 -2.26061e-17 1.99692)
(1.57756e-20 -1.9319e-17 2.06558)
(4.77743e-21 -2.02113e-17 2.13866)
(-1.22492e-19 2.03171e-17 2.22287)
(1.46466e-19 -4.0349e-19 2.31954)
(-1.46893e-19 2.00378e-17 2.43986)
(7.17351e-20 -2.1073e-17 2.57896)
(-5.39614e-20 -8.37433e-19 2.73742)
(3.25602e-19 -1.69373e-17 2.91672)
(-3.06131e-19 2.09153e-17 3.11924)
(3.93656e-19 -1.8324e-17 3.34881)
(-1.25548e-18 2.04862e-17 3.6113)
(1.11656e-18 -7.25641e-18 3.91642)
(-2.81176e-19 9.60783e-18 4.27862)
(-2.32808e-19 -7.23848e-19 4.71851)
(-2.52946e-22 2.2263e-18 5.26641)
(-5.0334e-19 6.05013e-18 5.96908)
(1.64227e-19 -7.65458e-18 6.90095)
(-8.7029e-20 1.91597e-18 8.16685)
(-6.84582e-19 4.02288e-20 9.85747)
(8.90483e-19 -6.68403e-19 11.6651)
(3.47736e-19 5.29634e-19 10.8011)
(-2.2063e-19 -1.83897e-19 -2.12955)
(-2.69226e-19 3.33944e-19 -6.50838)
(-1.46881e-18 1.11349e-19 1.12507)
(7.74584e-19 -6.10116e-19 3.81028)
(-1.41816e-19 3.63783e-19 4.85411)
(2.01427e-19 -5.42794e-19 5.26264)
(1.60559e-18 2.01518e-18 5.38306)
(-2.03972e-18 -1.5382e-18 5.36002)
(5.38297e-19 4.66211e-19 5.26199)
(2.43816e-19 8.99456e-19 5.12397)
(4.62073e-19 2.64037e-18 4.96657)
(2.41583e-19 1.24946e-18 4.80277)
(1.21197e-18 3.96368e-18 4.6407)
(-1.54418e-18 -1.0982e-17 4.48514)
(2.49464e-18 2.17406e-17 4.33895)
(-2.23147e-18 -7.86447e-18 4.2039)
(2.4776e-18 1.23235e-17 4.08091)
(-1.36179e-18 -6.29242e-18 3.97025)
(3.29293e-19 1.6594e-18 3.87184)
(4.89881e-18 2.72738e-17 3.78548)
(-4.85567e-18 -1.99797e-17 3.71093)
(4.01706e-19 -4.57438e-19 3.64782)
(4.339e-18 7.01185e-18 3.59563)
(-5.19429e-18 -2.70682e-17 3.55342)
(-1.41181e-18 2.12976e-17 3.51982)
(2.69927e-18 3.00939e-17 3.49308)
(-4.36655e-18 -1.46794e-17 3.47109)
(6.0838e-18 -3.08752e-17 3.45106)
(1.41503e-18 2.06754e-17 3.42913)
(-4.01499e-18 2.95238e-18 3.39977)
(-4.19766e-18 -5.17139e-20 3.35691)
(8.4188e-18 2.0434e-19 3.29282)
(-4.97795e-19 -1.97756e-17 3.18604)
(2.04286e-17 8.36818e-17 3.06238)
(4.67605e-17 1.94596e-16 2.91075)
(-1.87707e-17 -9.56702e-17 2.69409)
(4.30717e-17 2.35925e-17 2.39795)
(-8.94213e-17 -1.74438e-16 2.07767)
(1.3144e-17 -6.01628e-17 1.8639)
(1.27697e-16 1.371e-16 1.78051)
(-2.61582e-17 -3.69356e-17 1.79205)
(3.50996e-16 2.75584e-16 1.9547)
(9.50454e-18 1.48579e-16 2.23661)
(-1.46632e-16 -3.01336e-18 2.58881)
(-1.13369e-16 -4.34434e-17 2.98667)
(9.00861e-18 -8.93694e-17 3.40959)
(1.96913e-16 2.18885e-16 3.83413)
(-4.9073e-16 -1.97591e-16 4.24476)
(-1.40527e-16 -9.11881e-17 4.63181)
(-4.18508e-17 -1.25151e-17 4.95708)
(-3.07342e-17 -4.80866e-17 5.24687)
(1.42163e-16 1.38062e-16 5.4897)
(-5.65791e-17 -8.925e-18 5.66289)
(-5.82876e-17 -7.68999e-17 5.8019)
(1.3292e-17 -1.57832e-17 5.88519)
(1.23543e-16 1.62652e-17 6.03105)
(-4.77841e-17 2.64323e-17 6.25299)
(-5.67086e-17 -1.27866e-17 6.58951)
(2.35655e-17 -6.66185e-18 7.0636)
(2.24886e-18 4.90033e-18 7.68417)
(2.6846e-19 1.03555e-18 8.25087)
(2.0606e-18 6.40907e-18 8.64895)
(2.1505e-17 -1.92027e-17 8.68171)
(3.51676e-17 -7.19033e-17 8.23377)
(7.48157e-17 -1.65322e-16 7.49916)
(-3.35752e-17 1.71736e-16 6.48567)
(7.67635e-17 -2.60713e-16 5.51042)
(-2.76744e-17 4.54692e-17 4.65811)
(3.23776e-18 -5.94371e-17 3.93339)
(1.29582e-16 -5.82323e-16 3.36502)
(-9.89414e-17 6.85603e-16 2.94246)
(2.46147e-17 -1.12192e-16 2.64157)
(6.57112e-17 -3.20819e-16 2.42258)
(3.32417e-17 -3.82533e-18 2.25178)
(1.35659e-17 1.76969e-16 2.10725)
(3.81629e-17 -3.79557e-16 1.97093)
(-1.17556e-17 -1.30548e-16 1.8271)
(-6.64632e-17 6.11074e-16 1.66944)
(2.26392e-17 -9.50475e-17 1.48501)
(2.08253e-17 -7.48444e-17 1.28072)
(4.33284e-17 -4.37947e-16 1.05435)
(-4.07952e-17 5.12763e-16 0.812721)
(-1.22413e-17 -2.13467e-17 0.541385)
(1.07941e-17 -7.83523e-18 0.260734)
(2.56286e-19 2.60399e-18 -0.035821)
(-1.53736e-17 1.9504e-16 -0.334517)
(4.30188e-19 -9.20118e-18 -0.639323)
(-9.15925e-19 -4.41906e-17 -0.908646)
(8.48656e-20 3.42746e-19 -1.10342)
(-3.67114e-19 -3.01451e-17 -1.19523)
(-8.30998e-18 -1.91148e-16 -1.16151)
(-1.19963e-18 9.54964e-19 -1.03103)
(-5.38105e-18 -4.24624e-16 -0.833283)
(-4.78049e-18 -2.80679e-16 -0.622975)
(4.92009e-18 4.97829e-16 -0.430903)
(-1.9533e-17 5.89647e-17 -0.295229)
(3.8441e-17 -2.36486e-16 -0.233539)
(2.57033e-17 -5.96301e-16 -0.279754)
(-2.22621e-18 -3.72285e-16 -0.394504)
(3.98085e-17 -1.05386e-17 -0.569473)
(-3.99491e-17 3.13242e-16 -0.768372)
(-2.2427e-19 5.756e-17 -0.946528)
(-7.96463e-18 -3.70253e-16 -1.0797)
(2.55222e-17 -2.52794e-17 -1.1471)
(-3.6825e-17 3.5107e-16 -1.14095)
(7.06911e-18 -3.20873e-16 -1.06826)
(1.785e-18 2.59989e-17 -0.946685)
(-5.47601e-17 -7.08244e-16 -0.799424)
(-8.93094e-17 -4.63162e-16 -0.64837)
(-5.44481e-17 -5.62346e-17 -0.510063)
(-4.50935e-17 -3.24819e-16 -0.391699)
(-2.89549e-17 -6.29848e-17 -0.300651)
(7.76429e-17 2.849e-16 -0.221038)
(6.63764e-19 2.67616e-17 -0.160524)
(5.00858e-18 -1.96986e-16 -0.037625)
(2.54483e-18 2.69325e-18 0.113314)
(4.12768e-18 1.23872e-18 0.393243)
(2.68414e-19 7.95887e-19 0.854034)
(-3.87012e-18 3.47859e-17 1.5469)
(-4.56501e-19 -1.02209e-18 2.39345)
(1.82428e-18 -4.21648e-18 3.30302)
(-3.17527e-18 1.03405e-17 3.98891)
(2.45424e-17 -2.11648e-17 4.40324)
(1.89026e-17 -1.32054e-17 4.42303)
(-2.88561e-18 -2.25234e-17 4.20789)
(1.88912e-17 -1.8917e-16 3.8932)
(-1.68469e-17 2.09502e-16 3.54814)
(1.11375e-16 -6.40425e-16 3.23485)
(1.06707e-16 -3.03348e-16 2.94893)
(7.45671e-17 -1.16493e-16 2.70542)
(5.23124e-17 -2.64015e-16 2.50289)
(1.39897e-17 9.77175e-18 2.33119)
(3.94215e-17 -3.04595e-16 2.17741)
(-2.7335e-17 2.45751e-17 2.02681)
(8.40172e-18 -9.45459e-18 1.86557)
(1.23957e-17 -5.09642e-17 1.68742)
(-2.45261e-17 5.93262e-17 1.48962)
(1.9145e-17 -2.91628e-16 1.26689)
(3.3108e-17 -4.38503e-16 1.02983)
(-6.22075e-19 6.85266e-17 0.770302)
(-8.54689e-18 2.33962e-16 0.496619)
(-1.16442e-18 2.21735e-16 0.215535)
(1.31517e-17 -8.20639e-17 -0.0777365)
(8.59219e-18 -1.42567e-16 -0.368478)
(-9.28433e-19 -7.57979e-17 -0.663361)
(4.55654e-18 9.04317e-17 -0.931221)
(-1.35825e-18 1.75845e-17 -1.13095)
(-3.1456e-19 6.58118e-20 -1.23968)
(-2.78115e-18 -1.38358e-16 -1.22722)
(-4.47455e-18 -9.20885e-17 -1.11429)
(-3.58037e-18 -2.79843e-16 -0.931748)
(7.83805e-18 1.155e-16 -0.725069)
(3.59367e-19 -4.53951e-17 -0.539948)
(1.3131e-17 -2.41423e-16 -0.40179)
(-5.84142e-19 -5.91998e-16 -0.34407)
(-1.00511e-17 -3.53768e-16 -0.389998)
(6.64748e-18 7.9466e-18 -0.514213)
(3.8482e-17 -3.75516e-16 -0.707291)
(-5.13864e-17 9.24071e-16 -0.937601)
(-2.89801e-17 1.29847e-16 -1.15867)
(-3.66664e-18 -2.10708e-17 -1.34113)
(-4.08203e-17 3.38299e-16 -1.46206)
(3.49631e-17 5.67144e-17 -1.50943)
(-3.3928e-18 -1.45725e-17 -1.55756)
(-3.31593e-17 1.92928e-16 -1.47174)
(2.03945e-17 3.70867e-16 -1.59507)
(-2.51953e-18 1.66248e-17 -1.71091)
(3.56031e-18 5.48418e-18 -1.8087)
(8.03419e-18 -1.18494e-16 -1.92996)
(-9.75494e-18 9.90749e-17 -2.04987)
(4.42899e-19 2.5581e-18 -2.1372)
(5.92538e-19 -3.20579e-18 -2.15938)
(8.80746e-19 -4.75311e-17 -2.12962)
(9.10472e-19 1.98975e-19 -2.0106)
(-1.86658e-18 -2.83415e-18 -1.83942)
(8.67606e-19 -3.90795e-18 -1.64097)
(-1.36432e-19 -4.41912e-17 -1.4436)
(-2.66641e-19 -3.2663e-18 -1.26154)
(3.28248e-19 4.5033e-17 -1.09799)
(6.556e-20 -1.02494e-18 -0.948593)
(-2.31855e-19 2.12172e-17 -0.810274)
(3.78812e-20 -2.26817e-17 -0.679638)
(1.73317e-19 1.38721e-18 -0.554743)
(-4.91982e-20 6.79385e-21 -0.422502)
(-9.20834e-21 1.31014e-18 -0.28349)
(-8.01709e-20 1.97408e-18 -0.136778)
(-1.47112e-20 -1.9914e-17 0.0208877)
(1.25914e-19 1.77062e-17 0.194048)
(-1.55637e-20 -1.70867e-17 0.384189)
(-7.55921e-19 3.35427e-17 0.595487)
(8.46236e-19 -2.75331e-17 0.834737)
(1.37339e-19 9.64872e-18 1.112)
(-3.64687e-20 2.36605e-18 1.44306)
(1.88042e-19 -1.11495e-18 1.85383)
(8.47826e-19 3.59089e-19 2.37985)
(-5.4715e-19 1.94875e-18 3.06794)
(-1.22093e-19 -9.13308e-19 3.94042)
(7.92079e-20 2.53571e-19 4.86822)
(-5.99876e-19 -2.55691e-20 5.07906)
(1.14988e-18 -5.99128e-19 1.83339)
(1.39753e-18 8.69675e-19 -9.58617)
(-7.50375e-19 3.7233e-19 -6.01424)
(2.99617e-20 -2.80458e-19 -1.2751)
(-4.56563e-19 2.31505e-19 0.844919)
(-8.63134e-19 1.03195e-19 1.96996)
(4.99654e-19 -8.1801e-19 2.66132)
(1.73547e-18 1.2788e-18 3.09677)
(-1.29192e-18 -4.19632e-19 3.37613)
(5.1976e-19 6.08771e-20 3.55218)
(-1.14687e-19 3.5812e-19 3.65822)
(-1.69466e-18 -1.50395e-18 3.71699)
(6.81599e-19 -1.61825e-19 3.74435)
(-3.04514e-19 -6.42136e-19 3.7512)
(-2.51738e-20 1.78151e-19 3.74489)
(-1.45017e-18 -2.15056e-18 3.73048)
(5.00037e-19 -1.77077e-19 3.71154)
(-9.78975e-19 1.94286e-19 3.69057)
(2.11423e-21 -1.34458e-18 3.66915)
(-3.81029e-19 -1.45259e-17 3.64833)
(-2.67204e-18 2.82609e-17 3.62881)
(1.95395e-18 -1.56844e-17 3.611)
(2.24042e-18 -3.82043e-18 3.59509)
(-1.79947e-18 1.91994e-17 3.58092)
(1.03544e-18 -1.73405e-17 3.56784)
(-2.21416e-18 -4.45614e-18 3.55468)
(-3.21726e-18 2.6389e-18 3.53983)
(1.18801e-18 -2.41883e-17 3.52122)
(1.65154e-18 1.7536e-17 3.49606)
(-3.17093e-18 -8.09491e-19 3.46045)
(5.65852e-19 2.49497e-17 3.40875)
(1.47168e-18 -2.17532e-17 3.33444)
(2.20584e-18 2.6818e-17 3.23079)
(-1.19334e-18 -2.10236e-17 3.07082)
(-2.80401e-17 -7.74852e-17 2.84448)
(-2.49318e-17 -5.05512e-17 2.51759)
(5.58737e-17 4.04796e-17 2.07231)
(-2.68493e-17 -1.37826e-17 1.53342)
(2.91635e-18 -3.18723e-17 0.986632)
(8.58927e-18 -2.80667e-17 0.551035)
(-2.25987e-17 -3.59319e-17 0.258356)
(-1.69838e-17 1.6606e-17 0.0991995)
(-2.26188e-17 -6.91199e-17 0.107338)
(-2.06898e-17 -8.01617e-17 0.254295)
(4.59549e-16 2.10185e-16 0.501461)
(1.64627e-16 1.64777e-16 0.824052)
(4.18469e-17 4.37722e-17 1.19968)
(7.80754e-19 7.65662e-18 1.5991)
(7.22885e-17 1.19791e-17 1.99748)
(5.20865e-16 1.99883e-16 2.38424)
(2.09932e-16 1.6163e-16 2.7244)
(2.54781e-17 -2.26569e-17 2.98837)
(3.99601e-16 1.22796e-16 3.19111)
(-2.21584e-18 9.00019e-17 3.32059)
(-2.00598e-16 -5.41283e-17 3.38645)
(-3.62295e-19 -2.88287e-17 3.40072)
(-2.94355e-17 -3.59381e-17 3.40309)
(8.15455e-17 5.81425e-18 3.43213)
(3.69513e-17 1.52055e-17 3.50741)
(-3.99529e-17 4.86802e-18 3.64431)
(7.28301e-18 -4.31601e-18 3.88378)
(2.10951e-20 2.1584e-18 4.16077)
(-2.74613e-18 -1.00276e-17 4.46683)
(8.03493e-18 -2.06695e-17 4.69166)
(6.77036e-17 -1.17718e-16 4.68341)
(-8.97884e-17 1.68946e-16 4.34396)
(1.26363e-16 -3.64206e-16 3.80525)
(-4.24504e-17 7.88316e-17 3.17824)
(-6.60738e-17 2.63398e-16 2.48326)
(-1.04451e-17 4.04942e-17 1.80758)
(-1.26714e-16 3.24987e-16 1.25534)
(1.24912e-16 -4.83924e-16 0.83234)
(1.65741e-17 -1.97975e-16 0.534878)
(-2.56456e-17 2.08168e-17 0.341549)
(5.0747e-17 -3.35494e-16 0.22103)
(5.30354e-17 -2.53424e-16 0.142614)
(-4.37481e-17 9.62112e-17 0.0816742)
(-7.38673e-17 5.41204e-16 0.0119502)
(8.42151e-17 -4.07978e-16 -0.0612321)
(-6.99375e-18 4.2652e-17 -0.162316)
(9.72842e-18 -2.20179e-16 -0.293402)
(-5.55172e-17 2.75586e-16 -0.442303)
(6.46911e-17 -2.75055e-16 -0.606935)
(-3.91206e-18 2.19288e-16 -0.800199)
(1.56635e-18 -2.21357e-16 -1.00518)
(-8.97613e-18 1.71863e-17 -1.20013)
(7.66263e-18 -9.30078e-18 -1.37863)
(-1.14127e-19 -4.58389e-18 -1.50963)
(-9.32837e-19 5.58907e-17 -1.57646)
(7.25376e-20 -1.6662e-18 -1.5448)
(2.43291e-18 5.56635e-17 -1.39467)
(7.44166e-18 9.99445e-17 -1.14517)
(-3.03344e-18 -3.47889e-17 -0.831923)
(2.38295e-17 2.49862e-16 -0.489453)
(-3.46588e-18 2.50228e-16 -0.167514)
(-1.45273e-17 -2.56058e-16 0.101492)
(-1.3583e-17 -3.8276e-17 0.282166)
(7.1841e-18 2.60475e-16 0.358221)
(3.67065e-18 3.34288e-16 0.322912)
(1.77381e-17 3.67645e-17 0.203652)
(-6.07832e-17 3.29234e-16 0.0276157)
(4.59931e-17 -6.27123e-16 -0.159174)
(3.7091e-19 -5.20841e-17 -0.325737)
(2.37152e-17 2.56089e-17 -0.427394)
(-3.3243e-20 2.78484e-17 -0.452171)
(-9.67471e-18 -3.59483e-16 -0.402455)
(2.598e-17 -2.38883e-17 -0.297625)
(-4.4027e-19 6.19504e-18 -0.169108)
(5.7056e-17 8.46254e-17 -0.0507183)
(4.89352e-17 -2.4333e-16 0.0307756)
(-7.71371e-18 -3.29117e-16 0.0580686)
(6.69323e-18 -1.66281e-17 0.0294205)
(0 -0 -0.0498757)
(-8.66079e-18 -5.90758e-18 -0.156321)
(-1.01523e-17 -1.07298e-17 -0.294965)
(2.79722e-17 1.01488e-16 -0.419176)
(7.68368e-19 9.41086e-17 -0.554649)
(7.82514e-19 2.43349e-18 -0.661425)
(-2.33548e-19 4.82255e-18 -0.725709)
(8.41848e-19 -1.12859e-19 -0.68003)
(3.28888e-19 -8.58854e-20 -0.454801)
(-8.20937e-19 3.30994e-19 -0.177825)
(1.3159e-17 -6.2737e-18 0.228636)
(-2.92459e-18 -9.433e-18 0.59673)
(3.50657e-17 -1.83946e-16 0.782386)
(3.62561e-18 3.2308e-17 0.854619)
(-9.14487e-17 2.41802e-16 0.829776)
(9.51568e-17 -2.97566e-16 0.699321)
(-1.1736e-16 3.68212e-16 0.510269)
(-2.93219e-17 -3.05095e-17 0.337592)
(7.38896e-17 -2.75644e-16 0.213118)
(-4.90016e-17 2.62783e-16 0.118174)
(1.79629e-17 -1.9033e-16 0.0460449)
(-4.64167e-17 2.99995e-16 -0.011692)
(-3.4311e-18 -5.56834e-17 -0.0708355)
(-1.41214e-17 -1.02835e-17 -0.141921)
(1.63924e-17 3.3755e-17 -0.228482)
(-6.33583e-18 1.7819e-16 -0.339999)
(-4.10589e-17 9.57015e-17 -0.470531)
(-6.28349e-17 2.64262e-16 -0.616235)
(-2.43295e-17 2.52211e-17 -0.791835)
(3.17168e-17 -3.13285e-16 -0.984183)
(2.11804e-17 -4.02453e-16 -1.17645)
(-1.44768e-18 -2.07855e-16 -1.3533)
(-3.63525e-18 6.42142e-17 -1.50949)
(-2.1744e-18 4.35716e-17 -1.61915)
(2.07617e-18 -4.57751e-17 -1.66933)
(9.18837e-19 2.30512e-17 -1.6308)
(-1.52998e-18 -4.04237e-18 -1.47894)
(8.5243e-18 1.94805e-16 -1.22835)
(1.99311e-18 -5.23967e-18 -0.912671)
(1.65916e-17 2.76475e-16 -0.568394)
(-8.21545e-18 1.87739e-16 -0.242318)
(1.46932e-18 -1.7738e-18 0.0325219)
(1.67032e-17 2.02417e-16 0.21525)
(1.8257e-17 4.13489e-16 0.288674)
(4.55543e-17 -1.95648e-16 0.249225)
(-2.55932e-17 1.95459e-16 0.108443)
(-1.16158e-17 4.67512e-16 -0.0879891)
(-1.11727e-17 -4.23008e-16 -0.312718)
(3.10195e-17 -3.88506e-16 -0.521937)
(-4.52808e-17 4.23709e-16 -0.674509)
(4.5556e-18 -4.55077e-16 -0.758358)
(-4.18757e-17 3.07674e-16 -0.766269)
(1.52755e-17 1.43925e-16 -0.715386)
(-9.04703e-18 -3.86381e-16 -0.603432)
(-2.33241e-17 -4.06848e-17 -0.659453)
(-2.43321e-17 2.56127e-16 -0.751647)
(-4.354e-18 6.68075e-17 -0.878476)
(2.74732e-18 1.21948e-16 -1.07172)
(1.71155e-18 -1.10534e-16 -1.31973)
(-2.32734e-18 5.04126e-17 -1.61034)
(3.06682e-18 -5.03693e-17 -1.88234)
(2.32891e-18 -1.278e-18 -2.05145)
(-7.80223e-19 -2.5508e-18 -2.07279)
(5.59473e-19 -4.58715e-17 -1.98026)
(-6.46976e-19 4.98709e-17 -1.81418)
(4.5342e-19 4.78587e-17 -1.61262)
(2.44546e-19 -4.06369e-17 -1.40323)
(-7.06319e-19 2.26342e-17 -1.20194)
(1.6201e-19 -2.27903e-17 -1.01583)
(-2.26619e-20 1.2289e-19 -0.846986)
(-5.07726e-19 2.4493e-17 -0.694792)
(6.56507e-19 -2.17129e-17 -0.552246)
(-9.62074e-19 2.3608e-17 -0.420338)
(2.97371e-19 -2.13532e-17 -0.289794)
(5.73983e-19 -2.17776e-18 -0.156098)
(-8.15573e-19 2.49431e-18 -0.0149788)
(3.82517e-19 -5.23963e-20 0.137181)
(-1.35826e-18 7.28384e-20 0.302951)
(2.27138e-18 2.20886e-18 0.485713)
(-1.68462e-18 -9.93416e-20 0.689317)
(2.37059e-19 -2.51706e-19 0.919423)
(6.37271e-19 -3.69172e-18 1.18734)
(-1.09312e-18 2.40791e-19 1.51168)
(1.0277e-18 -7.50171e-19 1.91542)
(2.04495e-18 -4.3502e-18 2.40941)
(-1.36266e-18 2.97455e-18 2.93143)
(5.12156e-19 -3.88093e-19 3.17607)
(-3.50535e-19 2.66113e-20 2.25121)
(-5.04861e-19 2.85992e-19 -1.66736)
(-1.48123e-18 -4.12509e-19 -10.5149)
(1.04069e-18 1.46661e-19 -5.12717)
(-1.16397e-18 6.60666e-19 -1.97334)
(-1.8319e-18 -4.20173e-19 -0.343055)
(2.88478e-18 -8.66328e-20 0.631585)
(-5.26707e-18 9.16002e-19 1.32875)
(1.51261e-18 -1.25222e-18 1.85433)
(4.313e-19 6.13749e-19 2.24641)
(-1.02167e-18 -4.75226e-19 2.54178)
(-4.23075e-20 6.94661e-19 2.76638)
(-3.2184e-18 -3.87155e-18 2.93928)
(3.23083e-18 2.06173e-18 3.07434)
(-1.00627e-18 2.01682e-19 3.1814)
(-2.42313e-18 -5.27781e-18 3.26735)
(3.10803e-18 3.07822e-18 3.3371)
(-7.35362e-19 -5.10406e-19 3.3942)
(-4.48245e-19 7.10989e-21 3.44122)
(9.44751e-19 -1.87995e-18 3.47994)
(1.53345e-18 7.79416e-18 3.5116)
(-3.37146e-18 -2.11786e-17 3.53697)
(3.22523e-18 8.81255e-18 3.55647)
(1.9002e-18 1.68558e-17 3.57014)
(-4.10112e-18 -1.24146e-17 3.57762)
(2.62692e-18 -2.38436e-18 3.57796)
(4.81037e-19 2.19986e-18 3.56971)
(5.65866e-19 6.89961e-19 3.55084)
(2.461e-18 9.84075e-19 3.51871)