/*--------------------------------*- C++ -*----------------------------------*\
| =========                 |                                                 |
| \\      /  F ield         | OpenFOAM: The Open Source CFD Toolbox           |
|  \\    /   O peration     | Version:  2506                                  |
|   \\  /    A nd           | Website:  www.openfoam.com                      |
|    \\/     M anipulation  |                                                 |
\*---------------------------------------------------------------------------*/
FoamFile
{
    version     2.0;
    format      ascii;
    arch        "LSB;label=32;scalar=64";
    class       volVectorField;
    location    "3.6";
    object      vorticityField;
}
// * * * * * * * * * * * * * * * * * * * * * * * * * * * * * * * * * * * * * //

dimensions      [0 0 -1 0 0 0 0];

internalField   nonuniform List<vector> 
4000
(
(-2.15238e-20 7.29561e-18 -55.9124)
(-8.00146e-18 -5.41453e-18 -59.8092)
(8.57423e-18 -2.49684e-17 -56.8417)
(3.16474e-17 3.62327e-17 -50.6642)
(-6.54168e-17 5.07378e-18 -45.3624)
(3.36931e-17 -3.42398e-17 -41.5461)
(-2.83589e-19 1.60206e-17 -38.8555)
(3.25164e-17 -0 -36.9444)
(-3.2005e-17 -3.20279e-17 -35.5908)
(6.61736e-17 2.80108e-17 -34.6208)
(-6.62518e-17 -2.75802e-17 -33.9025)
(1.39261e-18 2.37394e-17 -33.3455)
(-4.72052e-18 7.1619e-17 -32.891)
(6.78854e-17 -6.3761e-17 -32.5012)
(-3.01115e-19 -0 -32.1521)
(-1.2761e-16 -6.25192e-17 -31.8285)
(1.2913e-16 5.50061e-17 -31.5204)
(-7.01973e-17 7.0079e-17 -31.2204)
(3.32252e-18 -6.25658e-17 -30.9224)
(0 -0 -30.6212)
(0 -0 -30.3114)
(0 -0 -29.9873)
(8.26802e-18 -1.21847e-16 -29.6429)
(1.13419e-16 2.29429e-16 -29.2716)
(-2.60695e-16 2.80329e-17 -28.8659)
(1.48351e-16 -2.57212e-16 -28.4172)
(-9.3273e-18 1.21597e-16 -27.9159)
(0 -0 -27.35)
(0 -0 -26.7052)
(-1.06045e-17 1.19815e-16 -25.9623)
(-2.4406e-16 -1.08498e-16 -25.0948)
(1.40343e-16 -1.31475e-16 -24.0696)
(2.53045e-16 1.51331e-17 -22.8421)
(1.32606e-17 -1.27492e-16 -21.0338)
(-7.10436e-17 7.02663e-16 -18.9179)
(-3.24146e-16 5.84141e-16 -17.8582)
(-9.56798e-16 -1.02576e-15 -18.3274)
(-5.04361e-19 7.62212e-18 -19.8241)
(6.35873e-16 1.72561e-15 -22.1313)
(-7.91559e-16 -1.03242e-15 -25.3517)
(3.90033e-16 -2.25587e-15 -30.0297)
(1.10358e-15 2.12933e-15 -35.5233)
(-3.85166e-16 9.10884e-16 -40.7901)
(2.48625e-16 -1.01501e-15 -45.6263)
(1.12847e-15 7.93413e-16 -50.0722)
(-1.30312e-15 2.14655e-16 -54.2994)
(-1.3183e-15 5.22017e-16 -58.4686)
(-1.05431e-15 -1.05179e-15 -62.3013)
(-1.12431e-15 -1.30039e-15 -65.9407)
(-5.10279e-16 -1.30666e-15 -69.3143)
(7.16471e-16 -4.06148e-16 -72.2673)
(-4.12973e-17 5.12842e-16 -74.9354)
(-5.8862e-16 -1.11856e-15 -76.9368)
(7.64286e-16 -7.88764e-17 -78.5271)
(-9.36961e-17 1.09485e-15 -79.3957)
(-3.26617e-16 1.03537e-16 -79.6274)
(2.11566e-16 -3.01623e-17 -79.2323)
(7.22245e-17 -1.82367e-17 -77.9732)
(1.3514e-16 5.96821e-17 -76.3204)
(-6.88985e-17 -4.53239e-17 -73.8745)
(7.45746e-17 -1.3323e-17 -70.8615)
(2.7646e-16 9.26421e-18 -67.6134)
(-1.30201e-16 -6.91256e-17 -64.0342)
(-6.65418e-17 -6.75809e-16 -60.422)
(9.36067e-17 -1.85715e-16 -56.7932)
(-1.01285e-16 7.73894e-16 -53.2376)
(5.9854e-16 -4.82302e-17 -49.9115)
(3.18298e-17 -4.28717e-16 -46.7029)
(2.99586e-16 6.69077e-16 -43.8099)
(-7.81829e-16 7.86996e-16 -41.074)
(-1.66759e-16 -5.82949e-16 -38.6001)
(-9.4204e-17 -3.06675e-16 -36.3312)
(-1.23528e-19 1.44646e-18 -34.1782)
(-9.29751e-16 5.89734e-16 -32.2347)
(-9.06612e-16 6.4661e-16 -30.3944)
(-4.06177e-17 8.00076e-16 -28.6511)
(-7.99886e-16 5.12781e-16 -27.0305)
(9.26285e-17 -8.23348e-16 -25.4841)
(-8.75516e-16 3.90082e-16 -23.9945)
(7.37884e-16 2.62527e-16 -22.5858)
(-1.42851e-15 3.86955e-16 -21.244)
(-1.72047e-16 -8.31018e-16 -19.9636)
(4.06754e-17 -1.07212e-16 -18.7532)
(-5.07257e-17 6.22795e-18 -17.611)
(6.9824e-16 1.15027e-15 -16.5393)
(-1.22294e-15 1.62386e-15 -15.5442)
(2.45869e-17 -1.46546e-15 -14.6098)
(-6.53207e-17 -8.03945e-16 -13.7356)
(-1.12224e-17 1.42773e-15 -12.9362)
(-5.14977e-16 3.32482e-16 -12.1833)
(1.88916e-18 7.26028e-19 -11.476)
(-5.05843e-16 9.29799e-16 -10.8349)
(-2.47886e-16 -1.13579e-15 -10.2277)
(1.80422e-16 -4.07506e-16 -9.66419)
(5.30695e-18 6.13702e-16 -9.15631)
(7.12118e-17 -6.50834e-16 -8.68163)
(2.14519e-16 -1.13684e-16 -8.27216)
(2.78884e-17 3.08358e-17 -7.9024)
(-3.17395e-16 -7.31851e-17 -7.59703)
(5.48712e-17 2.67729e-16 -7.34677)
(5.56925e-17 -7.51985e-19 -7.17407)
(2.17313e-17 -5.92508e-17 -7.06461)
(-9.85932e-18 1.72223e-16 -7.04485)
(-2.52598e-17 4.71459e-17 -7.09163)
(-3.8316e-17 -1.88582e-17 -7.23071)
(-6.88458e-19 -6.24975e-17 -7.45493)
(3.74041e-18 5.02267e-16 -7.77783)
(-2.02917e-16 -1.62069e-17 -8.19829)
(-2.32119e-16 -8.48816e-16 -8.72019)
(4.41599e-16 -1.26905e-16 -9.34802)
(-2.11569e-16 1.59523e-16 -10.0901)
(1.03471e-17 5.66796e-16 -10.9452)
(-2.36644e-16 -1.11657e-16 -11.936)
(-2.14976e-16 -4.51965e-16 -13.0357)
(-7.01237e-18 -5.93485e-16 -14.3061)
(4.66728e-16 3.08417e-16 -15.7056)
(3.42292e-18 1.17074e-15 -17.2575)
(-3.54195e-18 1.16373e-16 -18.9768)
(4.65276e-16 3.43434e-16 -20.8386)
(-4.97211e-16 -3.72707e-16 -22.8586)
(-5.3441e-16 -1.80449e-15 -25.0428)
(6.067e-16 4.05466e-16 -27.3584)
(3.09616e-17 1.33076e-15 -29.7955)
(-5.65897e-16 -4.09368e-16 -32.3665)
(-1.04904e-16 -1.38735e-15 -35.0308)
(1.07466e-15 7.61585e-16 -37.7804)
(-3.49007e-16 4.10276e-16 -40.5943)
(4.93719e-16 -1.22317e-16 -43.4418)
(5.89694e-16 8.46372e-16 -46.3176)
(-8.53485e-17 9.24607e-16 -49.2368)
(-2.35462e-17 5.12271e-16 -52.0802)
(-6.47242e-16 -7.91783e-17 -54.9078)
(-2.08818e-16 -6.10722e-16 -57.7624)
(-1.05175e-15 -7.32939e-16 -60.4548)
(3.06901e-16 1.35962e-16 -63.0845)
(-6.7027e-17 -3.3688e-17 -65.7655)
(6.93303e-17 3.87298e-17 -68.075)
(1.95946e-17 -2.32817e-16 -70.4083)
(7.41855e-17 7.84398e-17 -72.4104)
(-1.14621e-16 1.22442e-16 -74.206)
(6.29941e-17 2.27413e-16 -75.6623)
(-3.77207e-16 -1.37388e-16 -76.7132)
(1.34785e-16 2.02784e-16 -77.2312)
(-6.11496e-17 5.0773e-17 -77.3151)
(-1.24724e-16 -5.79397e-17 -76.5436)
(5.78937e-19 -2.57829e-16 -75.4457)
(-1.90235e-17 3.42361e-17 -73.3426)
(0 -0 -70.6455)
(-4.15815e-17 3.18604e-17 -67.4771)
(4.4551e-17 -7.34915e-18 -63.7137)
(1.90799e-17 -1.75051e-16 -59.7813)
(-1.24647e-17 -8.15333e-17 -55.4735)
(1.35398e-16 7.65935e-17 -51.1327)
(6.93568e-17 2.05752e-16 -46.7861)
(-1.49222e-16 5.82255e-17 -42.5619)
(1.3825e-16 -1.4696e-16 -38.5114)
(-2.33062e-16 -1.38608e-16 -34.636)
(3.06452e-16 -1.73414e-16 -30.9671)
(-7.19098e-17 -3.03611e-16 -27.2552)
(2.1145e-16 -2.36382e-16 -23.284)
(-2.14067e-16 6.88571e-16 -20.5927)
(1.74669e-16 -1.00892e-16 -20.0012)
(-4.3607e-17 -9.10687e-17 -19.769)
(2.97621e-17 -6.93812e-18 -19.7264)
(2.82542e-17 -4.3454e-18 -20.1032)
(2.69065e-17 -2.23551e-18 -21.052)
(-2.5898e-17 -2.03972e-17 -22.8344)
(2.29033e-17 -1.20164e-17 -24.9581)
(1.60508e-18 2.06618e-17 -26.5672)
(2.58496e-18 1.81848e-17 -27.6485)
(-2.26686e-17 1.30723e-17 -28.4748)
(-4.82676e-18 -3.64822e-17 -29.1922)
(1.5026e-18 2.39334e-18 -29.8555)
(2.69959e-18 3.1365e-17 -30.4854)
(-2.64014e-18 -1.78647e-17 -31.0841)
(1.7297e-17 5.52736e-19 -31.6411)
(-3.13971e-17 1.36246e-17 -32.14)
(1.50924e-17 2.21148e-18 -32.5636)
(-1.74095e-18 -2.94879e-17 -32.8977)
(9.37574e-19 1.36554e-17 -33.1357)
(7.67413e-18 5.1819e-18 -33.275)
(-1.27166e-17 6.87272e-18 -33.3181)
(-9.63105e-19 -1.03183e-17 -33.2736)
(4.70508e-19 -7.66827e-18 -33.1558)
(4.9484e-18 5.17723e-18 -32.9777)
(4.60486e-18 1.37357e-20 -32.7533)
(-5.13309e-18 -1.53114e-20 -32.4991)
(4.37849e-18 -1.9961e-19 -32.2294)
(-7.38468e-18 -7.94733e-19 -31.957)
(4.69333e-18 2.26202e-19 -31.6936)
(-1.58381e-18 -4.72432e-21 -31.447)
(-3.58341e-19 -1.01807e-18 -31.2225)
(1.13004e-18 -2.72438e-18 -31.0226)
(-4.0518e-19 4.74454e-18 -30.8483)
(-9.41088e-19 -1.09677e-18 -30.6989)
(1.33064e-19 -9.53049e-19 -30.5715)
(-7.00891e-20 -1.61996e-18 -30.4614)
(-1.50433e-19 1.20338e-18 -30.3619)
(-7.66538e-20 7.73214e-19 -30.257)
(-1.99638e-20 -7.11134e-20 -30.1629)
(0 -0 4.02429)
(1.9136e-19 -0 -7.64496)
(-5.07609e-19 -1.44148e-17 -17.0376)
(-1.36026e-18 2.33317e-17 -21.9921)
(1.77633e-17 1.12015e-17 -23.9468)
(-1.62276e-17 -3.51161e-17 -24.1926)
(3.6436e-19 -1.55006e-17 -23.672)
(-4.62381e-19 2.10882e-17 -22.8803)
(-3.06684e-17 9.46369e-18 -22.1)
(2.71205e-17 -9.0614e-18 -21.4199)
(6.19219e-17 1.01513e-16 -20.8563)
(-1.26917e-16 -7.49973e-17 -20.3969)
(1.14445e-17 -1.40662e-16 -20.0203)
(5.94267e-17 4.47923e-17 -19.7057)
(-7.96273e-18 1.84024e-16 -19.4359)
(-5.84856e-17 -2.75103e-17 -19.1976)
(6.14343e-17 -1.39359e-16 -18.9816)
(2.66095e-18 6.12062e-17 -18.781)
(0 -0 -18.5905)
(0 -0 -18.4063)
(0 -0 -18.2245)
(0 -0 -18.0419)
(0 -0 -17.8549)
(-2.50786e-16 -0 -17.6599)
(3.8128e-16 -0 -17.4531)
(-1.30242e-16 -0 -17.2301)
(0 -0 -16.9861)
(0 -0 -16.7152)
(0 -0 -16.4108)
(-1.04983e-17 1.18615e-16 -16.0641)
(8.27819e-18 2.6144e-17 -15.6638)
(2.42006e-17 -3.58088e-16 -15.1939)
(-7.87234e-18 5.56728e-17 -14.636)
(-1.41527e-16 3.81541e-16 -13.9548)
(-8.2958e-17 -4.5332e-16 -13.1355)
(3.71262e-16 3.66143e-16 -12.4387)
(9.33704e-16 8.46858e-16 -12.2294)
(5.84666e-17 -1.82324e-15 -12.6808)
(-3.30177e-16 -9.17481e-16 -13.7885)
(1.05466e-15 2.04265e-15 -15.5205)
(-2.93359e-16 1.12057e-16 -17.8874)
(-8.62112e-16 -1.52443e-15 -20.4469)
(2.26871e-16 -2.06227e-16 -23.0886)
(4.25576e-17 -2.65813e-16 -25.7998)
(-1.05085e-15 -4.37152e-18 -28.4384)
(8.50364e-16 2.25205e-15 -31.0257)
(2.21654e-15 4.47696e-16 -33.5549)
(1.05787e-15 1.10024e-15 -35.9619)
(1.11114e-15 8.118e-16 -38.3235)
(6.31284e-16 -1.878e-16 -40.525)
(-1.62577e-15 -8.60717e-16 -42.5824)
(-3.44196e-17 4.24051e-16 -44.5043)
(3.93343e-16 9.62048e-16 -46.1924)
(-6.93821e-16 -4.06313e-16 -47.7065)
(5.76402e-16 -2.73602e-16 -48.9348)
(5.68436e-16 -3.36273e-18 -49.9288)
(3.6464e-16 -1.13883e-16 -50.6288)
(1.22032e-16 1.07699e-16 -51.0139)
(-6.95688e-17 -7.85832e-18 -51.0571)
(-7.14087e-17 1.10537e-16 -50.7808)
(-4.79179e-17 -2.06129e-16 -50.1013)
(-2.81876e-16 -4.37458e-17 -49.0642)
(2.21228e-16 4.35597e-16 -47.7067)
(-1.69146e-16 6.55025e-16 -46.0374)
(1.40875e-16 2.42612e-16 -44.1992)
(8.78137e-18 -1.00563e-15 -42.1272)
(1.85326e-16 -2.84639e-16 -40.0379)
(-2.88736e-16 6.72631e-16 -37.8328)
(-3.54984e-16 -3.33332e-17 -35.6879)
(9.46451e-16 -4.30514e-16 -33.558)
(1.28761e-17 1.40027e-16 -31.4809)
(-1.32216e-15 4.25644e-16 -29.5279)
(7.077e-16 4.44499e-16 -27.6061)
(1.11605e-16 1.21391e-15 -25.7913)
(1.08703e-15 -1.19244e-15 -24.0645)
(1.49529e-16 -9.16895e-16 -22.3951)
(-9.83858e-17 6.59115e-17 -20.8108)
(-4.53069e-17 8.13198e-16 -19.3103)
(-6.45535e-16 -1.14402e-16 -17.8709)
(-1.58832e-15 8.15868e-16 -16.5059)
(2.1329e-15 4.22753e-16 -15.2195)
(1.92965e-16 -8.37457e-16 -14.0055)
(-6.91861e-16 4.63187e-16 -12.8686)
(1.34882e-16 -5.76295e-16 -11.8092)
(-5.53913e-17 -1.38447e-16 -10.8204)
(1.28847e-15 -6.71805e-16 -9.90995)
(5.13747e-16 -5.57339e-16 -9.07357)
(6.37467e-16 4.96771e-16 -8.29284)
(5.28522e-16 -1.08555e-15 -7.58136)
(1.09141e-15 -6.94158e-16 -6.93327)
(3.44432e-19 2.18603e-17 -6.32664)
(5.12832e-16 -6.21677e-16 -5.7793)
(2.11009e-16 1.81991e-16 -5.28291)
(-4.63217e-16 2.86508e-16 -4.82219)
(2.10886e-16 -5.63789e-16 -4.42096)
(4.32585e-18 2.9209e-16 -4.05118)
(-4.52128e-16 2.23903e-16 -3.7401)
(2.09657e-16 5.61515e-16 -3.46405)
(2.2692e-17 1.77029e-16 -3.24082)
(-1.20936e-16 -7.11191e-16 -3.05832)
(-5.56269e-17 2.02253e-17 -2.93528)
(-7.29971e-17 1.53446e-16 -2.85823)
(-2.78948e-17 -1.11971e-16 -2.83397)
(2.54233e-17 -1.37323e-17 -2.86418)
(5.10167e-17 -1.39646e-17 -2.94889)
(1.02744e-16 2.88266e-17 -3.09027)
(-1.9432e-18 -2.60936e-16 -3.29479)
(6.23824e-16 3.88831e-16 -3.55831)
(3.44112e-18 2.89958e-17 -3.89092)
(-4.09125e-16 9.52521e-17 -4.28985)
(-2.77904e-17 3.47061e-16 -4.75853)
(-1.64661e-17 -5.57218e-16 -5.30878)
(2.30851e-16 4.00485e-16 -5.95223)
(2.02255e-16 1.3186e-16 -6.66386)
(-2.25259e-16 -4.15696e-16 -7.47552)
(-4.66192e-16 -2.6985e-16 -8.36258)
(1.7489e-17 -6.18328e-16 -9.36305)
(2.54231e-17 -7.03458e-16 -10.4659)
(-3.04716e-16 2.12091e-16 -11.6584)
(9.75909e-16 1.94683e-15 -12.9629)
(-5.80878e-16 -2.88982e-16 -14.3708)
(-5.38555e-16 -1.06305e-15 -15.8652)
(4.0911e-16 3.98857e-16 -17.4561)
(6.61932e-16 4.51377e-16 -19.1411)
(4.66344e-16 -1.87543e-16 -20.8916)
(-1.41991e-15 -1.03391e-15 -22.7141)
(2.89829e-16 6.07494e-16 -24.5908)
(-1.45134e-16 -1.21469e-15 -26.5043)
(-1.5853e-16 4.27935e-17 -28.452)
(1.25923e-15 5.53897e-16 -30.4203)
(4.45093e-16 2.59537e-16 -32.3496)
(1.29635e-15 5.16089e-16 -34.2952)
(6.02477e-16 1.42012e-15 -36.2233)
(7.89231e-16 5.82566e-16 -38.0354)
(7.28621e-17 -7.85849e-16 -39.841)
(9.07339e-17 5.60387e-16 -41.5941)
(2.19208e-16 2.8561e-17 -43.1305)
(8.69891e-17 -1.90995e-17 -44.7005)
(-2.79599e-17 -1.04806e-16 -46.0266)
(6.47628e-17 -5.92126e-17 -47.2565)
(9.04036e-17 -1.37117e-16 -48.2976)
(-1.21849e-17 5.07806e-16 -49.1452)
(1.58366e-16 -4.95726e-16 -49.7761)
(3.41233e-17 1.71771e-16 -50.2019)
(-1.26552e-17 -7.81227e-17 -50.3101)
(-4.57697e-17 8.28526e-17 -50.237)
(8.26531e-17 1.58665e-17 -49.7585)
(-5.39098e-17 1.45131e-17 -49.0261)
(3.62514e-17 2.4456e-17 -47.9098)
(-9.57155e-17 -1.84123e-16 -46.455)
(-5.78066e-17 1.85706e-16 -44.6932)
(4.16871e-17 3.21726e-16 -42.6105)
(1.98773e-17 -9.47753e-17 -40.2752)
(-8.93551e-17 -5.56852e-17 -37.7273)
(3.14822e-16 -2.07996e-16 -35.0278)
(-1.92441e-16 -3.52768e-17 -32.2575)
(4.24445e-17 9.57593e-17 -29.4286)
(-3.83847e-16 -1.2684e-16 -26.6058)
(1.10723e-16 3.10023e-16 -23.754)
(-5.82302e-16 6.46435e-16 -20.9156)
(2.47153e-16 -4.32123e-16 -18.0498)
(-6.01228e-17 -3.17105e-16 -16.069)
(5.29405e-18 2.41865e-16 -14.7872)
(-6.89158e-17 -5.81333e-17 -13.98)
(-3.66608e-18 -2.10572e-17 -13.5554)
(-4.97804e-17 1.74626e-17 -13.5425)
(5.21042e-17 4.38495e-17 -13.9293)
(-2.60746e-17 -1.78532e-17 -14.6021)
(-2.37832e-19 -2.57867e-18 -15.3795)
(-1.41894e-18 -2.15265e-18 -16.1074)
(1.54842e-18 2.31516e-18 -16.7354)
(2.93393e-18 1.94414e-17 -17.2844)
(-2.14122e-17 1.29008e-17 -17.7787)
(1.69257e-17 -5.00429e-17 -18.2313)
(8.92124e-19 6.29948e-18 -18.6465)
(1.99689e-17 -7.31555e-18 -19.0236)
(-1.72366e-17 5.32399e-17 -19.3577)
(-4.67698e-19 -8.34191e-17 -19.643)
(1.90464e-18 6.51559e-17 -19.8785)
(-1.40124e-18 -2.07381e-17 -20.053)
(-4.51892e-19 -1.43509e-17 -20.1622)
(6.33434e-18 2.57125e-17 -20.2142)
(-5.15129e-18 1.26526e-18 -20.21)
(-5.82401e-18 1.28469e-17 -20.1547)
(5.21565e-18 -2.39086e-17 -20.0564)
(1.61573e-18 -8.65801e-18 -19.9243)
(4.3248e-19 2.00876e-17 -19.7678)
(-2.90518e-19 -1.73754e-17 -19.5961)
(-4.20771e-19 3.45742e-17 -19.4175)
(3.14078e-19 -2.83564e-17 -19.2395)
(1.43804e-18 1.29623e-17 -19.0678)
(-1.07326e-18 9.81612e-19 -18.9064)
(-2.16127e-18 -9.33916e-19 -18.7577)
(2.39262e-18 -4.95566e-18 -18.622)
(-1.02138e-20 8.76024e-18 -18.4984)
(9.87366e-20 -1.52386e-18 -18.3855)
(4.68547e-20 4.10082e-18 -18.2808)
(2.2242e-19 -2.79485e-19 -18.1812)
(6.27721e-21 1.8322e-20 -18.079)
(1.19252e-20 2.35253e-18 -17.9983)
(-2.11521e-20 7.16961e-18 6.46117)
(-4.18845e-19 -3.6533e-18 3.9601)
(6.26494e-19 -2.45476e-17 -0.473281)
(1.68619e-19 1.40632e-17 -4.62967)
(1.55242e-17 2.10159e-17 -7.9788)
(-1.58124e-17 -1.40479e-17 -10.3468)
(0 -0 -11.6636)
(-3.32535e-17 2.86871e-17 -12.332)
(3.3962e-17 -4.52398e-17 -12.5532)
(-3.03988e-17 -8.21933e-17 -12.509)
(2.96468e-17 1.0408e-16 -12.3546)
(2.92089e-18 1.1061e-16 -12.1726)
(-2.48545e-18 -9.28646e-17 -11.9989)
(-1.22239e-16 -8.11421e-17 -11.8459)
(1.14005e-16 1.15681e-16 -11.7142)
(7.66113e-17 -9.27555e-17 -11.6)
(-1.23999e-16 -4.47816e-17 -11.4986)
(5.30811e-17 1.37558e-16 -11.4058)
(3.06088e-18 -5.76389e-17 -11.3186)
(0 -0 -11.2347)
(1.16844e-16 -0 -11.1525)
(-1.17074e-16 -0 -11.0704)
(-7.67613e-18 1.13124e-16 -10.9872)
(-1.08635e-16 -7.18854e-17 -10.9015)
(1.24902e-16 -1.54615e-16 -10.8117)
(-8.36217e-18 1.13376e-16 -10.7162)
(0 -0 -10.6129)
(1.14974e-16 -0 -10.4996)
(-4.65015e-19 -0 -10.3735)
(-1.25019e-16 1.12176e-16 -10.231)
(2.06277e-17 -7.6416e-17 -10.0677)
(2.40976e-16 -1.48397e-16 -9.8774)
(-3.79364e-16 1.056e-16 -9.65456)
(2.19244e-16 -3.69419e-18 -9.4053)
(-1.14388e-17 2.37951e-16 -9.08529)
(-4.619e-16 -4.91109e-16 -8.69167)
(6.88768e-16 -1.66116e-16 -8.38011)
(3.30393e-16 1.6171e-15 -8.37102)
(-8.31191e-16 -1.09451e-16 -8.75366)
(-1.99025e-16 -1.0027e-15 -9.50883)
(-1.30784e-16 -1.60814e-16 -10.5565)
(-1.30128e-15 4.89583e-17 -11.6983)
(5.76148e-17 6.41959e-16 -12.9539)
(9.73388e-16 6.75361e-16 -14.3162)
(-1.57022e-15 -1.377e-15 -15.7294)
(1.79114e-15 -1.80768e-15 -17.1742)
(-3.80437e-16 1.59166e-16 -18.5765)
(-4.78299e-17 5.56038e-16 -20.0139)
(1.61418e-16 -3.43599e-16 -21.3987)
(-3.81908e-17 1.30726e-15 -22.7749)
(2.32625e-16 9.41281e-16 -24.1169)
(1.59439e-16 -1.15497e-15 -25.4035)
(7.39462e-17 -7.52622e-16 -26.6732)
(2.73994e-16 -4.79791e-16 -27.909)
(-4.30991e-16 -3.34043e-16 -29.0754)
(-2.37424e-16 -4.71771e-17 -30.1775)
(-3.22336e-16 -1.91321e-16 -31.2061)
(-1.69558e-17 1.26009e-16 -32.172)
(-9.91048e-17 2.00086e-16 -32.9722)
(1.30893e-16 3.13093e-17 -33.6922)
(4.97113e-17 1.02282e-16 -34.1814)
(-2.47044e-16 3.66573e-17 -34.4374)
(3.79896e-16 -4.06432e-16 -34.4355)
(3.40497e-16 -6.09049e-16 -34.1114)
(-1.51772e-16 -6.98293e-16 -33.5567)
(-4.04701e-16 7.35625e-16 -32.6721)
(-8.22472e-16 3.18792e-16 -31.6201)
(1.47853e-16 1.13253e-16 -30.322)
(2.04343e-17 -1.95972e-16 -28.9163)
(-6.07726e-16 3.16252e-16 -27.3984)
(3.98104e-17 1.22182e-15 -25.8026)
(1.30773e-15 -7.89637e-16 -24.2204)
(-1.05391e-15 -1.00529e-15 -22.6029)
(1.84857e-15 -1.06685e-15 -21.0165)
(7.27813e-16 -9.13903e-16 -19.4731)
(-1.74143e-16 1.7383e-15 -17.9614)
(9.32259e-16 -3.79788e-17 -16.508)
(4.98093e-17 -7.4911e-17 -15.1254)
(1.5858e-15 9.13684e-16 -13.8051)
(3.64595e-16 -1.86725e-15 -12.5578)
(5.43651e-16 -3.36561e-15 -11.3904)
(-1.16687e-16 2.01203e-15 -10.3003)
(7.18519e-16 -1.40525e-16 -9.29049)
(5.99764e-16 -1.45556e-15 -8.3605)
(-6.39167e-16 4.69773e-16 -7.50351)
(1.1224e-15 -9.53114e-16 -6.72264)
(-1.78508e-15 3.6277e-16 -6.01516)
(-1.28285e-15 -3.28968e-16 -5.36687)
(-6.17437e-16 9.01914e-16 -4.78402)
(-6.80621e-17 5.00001e-16 -4.26355)
(1.10119e-17 6.98901e-16 -3.79127)
(2.2387e-17 3.11607e-16 -3.37513)
(-2.47542e-16 1.89476e-16 -3.01083)
(2.72457e-16 -4.07669e-16 -2.68791)
(-6.66935e-18 -2.33713e-17 -2.41719)
(-8.33072e-17 2.77221e-16 -2.18242)
(3.53134e-17 -2.10017e-16 -1.99445)
(-2.56893e-17 -5.66996e-16 -1.84029)
(7.09332e-16 2.28594e-17 -1.72707)
(6.21643e-17 3.47836e-16 -1.64552)
(-5.28395e-17 -4.37299e-18 -1.59956)
(7.75124e-17 -9.8212e-17 -1.583)
(1.33248e-18 5.54973e-17 -1.59624)
(-3.66979e-19 -4.96766e-17 -1.63863)
(-1.65981e-18 -1.09856e-16 -1.70897)
(-9.90625e-17 -3.32024e-17 -1.80872)
(-1.07693e-16 -1.47077e-16 -1.93962)
(-4.00667e-16 -1.39675e-16 -2.10194)
(6.234e-16 6.96142e-16 -2.29964)
(-4.35153e-16 -3.65014e-16 -2.53344)
(4.47475e-16 -1.29377e-16 -2.80631)
(-5.56413e-18 2.70437e-16 -3.11994)
(1.15097e-17 -2.79143e-16 -3.48246)
(4.9734e-17 2.2052e-16 -3.89002)
(-1.83182e-17 3.69746e-16 -4.35275)
(-3.76153e-18 -3.05213e-16 -4.8576)
(2.04267e-16 6.98689e-16 -5.42326)
(7.26391e-17 8.74123e-16 -6.04801)
(-1.04831e-15 -1.56892e-15 -6.72785)
(-3.14644e-16 -4.96561e-16 -7.47512)
(9.1615e-16 1.56386e-15 -8.2876)
(2.76439e-16 -9.15996e-16 -9.15929)
(-1.92739e-16 -6.58109e-16 -10.0979)
(-5.39914e-16 -5.03088e-16 -11.103)
(-3.19968e-17 7.02435e-16 -12.1619)
(-1.0055e-15 4.97217e-16 -13.2786)
(6.21807e-16 -9.26231e-16 -14.4445)
(-8.06967e-16 1.31658e-16 -15.6503)
(-4.07169e-16 -1.92285e-15 -16.8913)
(-5.73259e-16 -1.26975e-15 -18.1566)
(-1.09894e-16 -8.2908e-17 -19.4152)
(-5.27518e-16 -4.64181e-16 -20.6935)
(-2.1919e-16 -1.32545e-15 -21.9617)
(9.48648e-16 2.199e-16 -23.1655)
(-7.16106e-16 1.61213e-16 -24.3619)
(2.06077e-17 -2.962e-16 -25.5045)
(6.56198e-17 -3.22399e-16 -26.5579)
(-1.20703e-16 -6.15735e-17 -27.5961)
(-4.65749e-17 9.6076e-17 -28.5152)
(-1.54395e-16 -5.37133e-17 -29.3749)
(3.53533e-17 5.02502e-16 -30.1487)
(7.02659e-16 2.791e-17 -30.841)
(-7.91656e-17 4.96194e-17 -31.4602)
(-9.31657e-19 2.41494e-16 -32.0038)
(-1.73246e-16 3.67083e-16 -32.4652)
(1.90729e-17 -1.8993e-16 -32.8506)
(6.24653e-17 -1.68543e-16 -33.1295)
(-7.36106e-17 1.64973e-16 -33.305)
(9.09238e-17 -4.85707e-17 -33.2981)
(-1.36214e-16 3.32609e-16 -33.1057)
(6.15574e-17 -8.80528e-17 -32.6717)
(9.26051e-17 -4.84838e-16 -31.994)
(-2.00944e-16 -2.46073e-16 -31.0323)
(6.58133e-17 1.39586e-16 -29.8064)
(-2.28867e-16 -2.81793e-16 -28.3099)
(-9.06597e-17 4.37497e-16 -26.6063)
(3.23877e-16 -8.09438e-17 -24.6978)
(-1.13187e-16 1.93731e-16 -22.6431)
(-1.85615e-17 -4.44065e-17 -20.4731)
(4.80047e-16 -1.07098e-16 -18.2898)
(1.10494e-16 -2.14675e-16 -15.7789)
(-2.39004e-16 3.06232e-16 -13.5477)
(3.80276e-17 -3.56976e-18 -11.8395)
(3.99362e-17 4.44005e-17 -10.6601)
(-2.94387e-17 1.10218e-18 -9.9099)
(-2.30562e-17 2.47954e-17 -9.5472)
(-1.2549e-17 -1.09789e-16 -9.48825)
(2.72824e-17 3.65233e-17 -9.68574)
(2.25135e-17 1.12598e-18 -10.0559)
(2.63121e-18 1.85302e-17 -10.4815)
(-1.92389e-17 3.6665e-17 -10.878)
(1.89389e-18 -2.05553e-17 -11.2161)
(3.82936e-17 2.35085e-18 -11.496)
(-3.8956e-17 1.14461e-18 -11.7265)
(-1.7857e-18 -1.92836e-17 -11.918)
(-1.92626e-17 -3.60697e-17 -12.0798)
(3.58185e-17 7.67064e-17 -12.2186)
(-1.926e-17 1.85403e-17 -12.3384)
(8.72753e-19 -6.20029e-17 -12.4412)
(9.66527e-19 1.41124e-17 -12.525)
(-8.86307e-18 2.54551e-18 -12.5874)
(7.09094e-18 3.51985e-18 -12.627)
(1.98686e-18 2.09287e-17 -12.6423)
(9.64474e-18 -9.14234e-18 -12.6329)
(-9.39269e-18 -2.69846e-17 -12.5997)
(-5.41007e-18 -1.83693e-18 -12.545)
(6.21952e-18 -1.06443e-18 -12.472)
(-4.39658e-18 2.95863e-18 -12.3846)
(4.42153e-18 -7.7213e-19 -12.2868)
(-1.53937e-18 -3.695e-18 -12.1825)
(2.39469e-18 -9.88101e-18 -12.0753)
(1.44992e-18 1.08899e-17 -11.968)
(-1.24647e-18 8.92664e-18 -11.863)
(2.20275e-19 -1.43293e-17 -11.7613)
(1.06985e-19 9.71703e-19 -11.6636)
(-3.44261e-19 -3.09744e-18 -11.5699)
(1.18108e-19 -5.28991e-18 -11.4798)
(1.46664e-19 -2.35715e-18 -11.3926)
(1.61734e-19 2.73053e-18 -11.3027)
(2.62676e-20 -2.42375e-18 -11.234)
(0 -0 4.13124)
(7.63701e-18 -0 3.77063)
(-7.4164e-18 -1.40628e-17 2.84621)
(8.93962e-19 6.86942e-18 1.25139)
(-1.01545e-18 2.12092e-17 -0.642409)
(2.06751e-19 -1.40158e-17 -2.37366)
(2.94294e-17 -0 -3.86481)
(-2.94641e-17 -0 -5.07036)
(1.30556e-18 -0 -5.84614)
(-2.96793e-18 -0 -6.36952)
(-6.17481e-17 5.59371e-17 -6.69383)
(6.30776e-17 -2.91167e-17 -6.87214)
(6.22508e-17 -2.71213e-17 -6.97603)
(-1.90285e-18 -2.92239e-17 -7.04418)
(7.11119e-19 -5.26207e-17 -7.0951)
(-6.26761e-17 1.93758e-16 -7.13657)
(-5.98779e-17 -8.59896e-17 -7.17128)
(6.46705e-17 -8.13805e-17 -7.19979)
(-2.96099e-18 5.57578e-17 -7.22218)
(6.37058e-17 -1.10201e-16 -7.23849)
(-6.31557e-17 6.06497e-17 -7.24895)
(-7.80805e-18 1.59971e-16 -7.25392)
(-2.5491e-19 -1.04417e-18 -7.2538)
(1.4007e-17 -6.1247e-17 -7.24893)
(1.14112e-16 -1.5772e-16 -7.23952)
(-1.20967e-16 1.09592e-16 -7.22559)
(-1.03442e-16 -1.08438e-16 -7.20694)
(2.32396e-18 -4.53981e-17 -7.18313)
(2.05485e-16 2.178e-16 -7.15341)
(-1.23364e-16 1.52598e-16 -7.1167)
(3.49872e-17 -2.81754e-16 -7.07157)
(-1.13547e-16 -8.47091e-17 -7.0156)
(9.68763e-17 1.57141e-16 -6.94825)
(1.06979e-16 -3.69881e-17 -6.87078)
(-1.37196e-16 2.46598e-16 -6.76354)
(2.59424e-16 -1.52616e-16 -6.59288)
(-8.9525e-16 -7.10658e-16 -6.38977)
(-8.37493e-16 -8.80932e-16 -6.28023)
(1.04924e-15 4.92314e-16 -6.34673)
(3.99265e-16 9.42823e-16 -6.59702)
(-1.36607e-16 1.26455e-15 -6.97276)
(8.11025e-16 -1.09518e-16 -7.40403)
(5.7092e-16 -2.66482e-15 -7.91232)
(-7.91869e-16 1.1203e-16 -8.49181)
(4.31105e-16 1.4075e-15 -9.11899)
(-9.75693e-16 -4.38286e-16 -9.79499)
(-8.31415e-16 1.94461e-16 -10.4398)
(-4.30742e-16 -2.47346e-16 -11.255)
(-7.71542e-16 5.43071e-17 -11.9912)
(-4.11097e-16 -1.14845e-15 -12.6449)
(1.23229e-15 6.88939e-17 -13.434)
(-5.59921e-16 6.27548e-16 -14.2279)
(-1.07468e-16 9.8001e-16 -15.0397)
(-7.7366e-16 7.08989e-17 -15.8687)
(-1.26623e-16 2.98841e-16 -16.7388)
(-3.39189e-17 -7.00357e-17 -17.6244)
(-4.45573e-16 -2.47394e-16 -18.5354)
(-1.16591e-16 -1.58208e-16 -19.4987)
(9.97536e-18 -7.71781e-17 -20.4241)
(6.90972e-17 -9.47065e-17 -21.3856)
(-1.28769e-16 3.29864e-18 -22.266)
(2.70123e-16 -1.55497e-16 -23.06)
(-3.94619e-16 -1.8243e-16 -23.721)
(1.42591e-16 7.07995e-16 -24.1668)
(-5.61154e-16 1.2846e-15 -24.4271)
(7.1077e-16 -2.29441e-16 -24.3989)
(-1.67275e-16 -1.63328e-16 -24.1676)
(1.31415e-16 -1.37755e-16 -23.6638)
(-4.65654e-16 5.55982e-16 -22.9719)
(4.3455e-16 2.20622e-16 -22.0947)
(2.30729e-16 -1.29481e-15 -21.0594)
(3.73858e-16 -1.70449e-16 -19.9459)
(-3.64846e-16 9.20399e-16 -18.7364)
(-2.23485e-16 -1.30445e-15 -17.4922)
(-8.98723e-16 1.33966e-15 -16.2386)
(3.67627e-17 -6.87187e-16 -14.9829)
(5.84354e-16 -8.88084e-16 -13.7547)
(1.57537e-17 -1.2926e-16 -12.5731)
(1.29881e-15 -1.91007e-15 -11.4427)
(1.21126e-15 -5.0545e-16 -10.3766)
(-2.72868e-15 3.21104e-15 -9.3842)
(-5.48875e-16 -1.85287e-17 -8.46617)
(5.88795e-16 -1.4291e-15 -7.62534)
(-6.95273e-16 1.16837e-15 -6.86066)
(1.41319e-18 -7.22278e-16 -6.16577)
(-1.30069e-15 1.96759e-15 -5.53986)
(1.3217e-15 2.52839e-15 -4.97902)
(-6.56228e-17 7.49114e-17 -4.47276)
(-4.49332e-16 -1.62056e-15 -4.02292)
(-1.61366e-15 1.75602e-16 -3.62629)
(-2.52305e-16 1.36662e-16 -3.27503)
(1.38544e-17 7.49403e-18 -2.97271)
(2.66433e-16 -1.07178e-16 -2.7162)
(-3.69098e-17 -3.03563e-16 -2.49953)
(-4.49573e-16 1.46261e-16 -2.32727)
(-2.03672e-17 2.74065e-16 -2.18891)
(2.23201e-16 -1.20527e-16 -2.08893)
(-6.84386e-16 -4.68409e-17 -2.01752)
(-3.86016e-16 7.09236e-17 -1.9768)
(-2.10108e-17 2.11521e-16 -1.95855)
(1.03694e-16 -2.81666e-17 -1.96367)
(-1.0041e-16 7.89251e-17 -1.98607)
(6.34755e-17 -1.75075e-17 -2.0249)
(-7.64784e-19 -1.26215e-17 -2.07756)
(1.09029e-18 1.05217e-16 -2.14297)
(-2.13077e-16 1.42762e-16 -2.22084)
(-1.76147e-18 1.45709e-16 -2.31117)
(-2.12757e-16 -6.38007e-16 -2.41415)
(-1.76871e-16 -1.6016e-16 -2.53074)
(3.85905e-16 7.08067e-16 -2.66166)
(-1.60315e-17 -2.48523e-16 -2.80792)
(5.9195e-18 -1.15848e-17 -2.97047)
(2.70515e-18 2.56346e-16 -3.15186)
(-2.42927e-16 -3.96177e-17 -3.35074)
(4.06346e-16 -5.39186e-17 -3.57418)
(1.00397e-17 -2.13826e-16 -3.81591)
(-6.10988e-16 -1.29824e-15 -4.08484)
(4.49826e-16 6.13455e-16 -4.38222)
(7.91512e-16 2.231e-15 -4.70724)
(-6.40586e-16 -1.2002e-15 -5.06786)
(1.03923e-15 -8.04031e-16 -5.4657)
(-6.23112e-16 2.63288e-16 -5.89977)
(-5.57344e-16 1.15971e-15 -6.3764)
(-3.70758e-16 3.60914e-16 -6.89751)
(-7.26156e-16 -6.7318e-16 -7.459)
(1.50686e-15 5.66754e-16 -8.06428)
(-1.45042e-16 4.30401e-17 -8.71031)
(4.30999e-16 7.78387e-16 -9.39298)
(-6.2232e-16 8.58353e-16 -10.109)
(-9.10082e-16 -6.99473e-18 -10.8526)
(-5.48411e-16 -1.70863e-16 -11.597)
(-5.15969e-17 4.77303e-17 -12.3831)
(-8.50985e-16 3.87786e-16 -13.1513)
(-5.13083e-16 -7.58965e-16 -13.8954)
(-1.24638e-16 4.1321e-16 -14.6624)
(-1.32086e-16 -1.00059e-16 -15.3586)
(-4.27124e-16 -8.53857e-17 -16.0258)
(-2.78489e-16 4.32425e-16 -16.7063)
(1.54416e-16 -8.62627e-17 -17.3179)
(-9.387e-17 3.26483e-16 -17.8962)
(4.63103e-16 -1.49142e-15 -18.4416)
(-2.03316e-17 -8.18216e-16 -18.9623)
(1.5975e-17 -2.35002e-16 -19.4715)
(1.80737e-16 2.0762e-16 -19.9689)
(2.31e-16 1.8519e-16 -20.4749)
(8.68907e-17 -3.36055e-17 -20.9721)
(-8.1835e-17 -1.87665e-17 -21.4869)
(5.04258e-17 1.9875e-16 -21.9875)
(-4.23756e-17 -1.1259e-16 -22.4396)
(2.0926e-16 1.92438e-16 -22.8274)
(8.57455e-18 -2.60402e-16 -23.0863)
(-1.98345e-16 2.21693e-16 -23.2043)
(3.50187e-17 4.22237e-16 -23.1131)
(2.74195e-17 -2.34363e-16 -22.8011)
(-8.44021e-17 4.5465e-16 -22.2308)
(9.97683e-17 -1.80159e-16 -21.4193)
(-2.96606e-16 -3.17838e-16 -20.3595)
(2.5911e-16 8.88067e-17 -19.0275)
(-2.34268e-17 -1.48938e-16 -17.5477)
(-8.11614e-17 -2.52047e-16 -15.9424)
(-1.34814e-16 1.86725e-16 -14.0185)
(1.2076e-16 -3.78846e-17 -12.1007)
(2.5556e-17 -5.27507e-17 -10.4859)
(9.04059e-17 -9.50425e-17 -9.301)
(-1.7578e-17 4.70631e-17 -8.53193)
(3.00304e-17 1.31073e-17 -8.13378)
(-6.75104e-17 2.60041e-17 -8.01486)
(-6.35175e-18 -7.54729e-17 -8.10283)
(4.63205e-18 -3.04406e-17 -8.3136)
(2.3182e-17 2.85383e-17 -8.55999)
(-3.04893e-19 4.67237e-17 -8.77695)
(-7.11877e-18 -3.96933e-17 -8.93293)
(-5.08687e-18 -3.33999e-17 -9.02219)
(4.9722e-18 6.79517e-17 -9.05277)
(4.0247e-18 -6.64257e-18 -9.03925)
(-3.69401e-17 3.96844e-18 -8.99815)
(3.07776e-17 -1.35989e-17 -8.94476)
(1.41739e-17 -4.27187e-17 -8.89126)
(-9.94941e-18 6.69006e-17 -8.84578)
(-3.81684e-18 -1.08376e-17 -8.81209)
(7.98522e-18 7.45815e-18 -8.7906)
(-5.79102e-18 -2.5808e-18 -8.77908)
(6.18326e-19 -1.16799e-17 -8.77379)
(4.84747e-18 -2.21914e-17 -8.77046)
(-1.02312e-17 3.28288e-17 -8.76504)
(6.49216e-19 1.17438e-18 -8.7543)
(-1.41627e-18 -8.15754e-18 -8.7359)
(-1.14318e-18 3.78108e-18 -8.70831)
(2.6081e-18 2.37726e-17 -8.67112)
(-3.282e-18 -3.01044e-17 -8.62468)
(-3.2221e-18 -5.10442e-18 -8.56981)
(3.47594e-18 -1.12874e-17 -8.50762)
(-1.15984e-18 1.31916e-17 -8.43945)
(-1.02745e-18 -1.30852e-17 -8.36697)
(-1.32813e-20 1.38331e-17 -8.29158)
(6.32633e-19 5.32014e-18 -8.21476)
(-5.87083e-19 5.88395e-18 -8.13796)
(-5.72754e-20 -3.49723e-18 -8.06258)
(2.18027e-19 -9.59391e-18 -7.9839)
(-8.67726e-20 1.5741e-19 -7.92813)
(0 -0 2.68158)
(0 -0 2.67913)
(1.26577e-19 -1.43013e-17 2.60377)
(8.66408e-19 7.18304e-18 2.17763)
(-1.13558e-18 2.13178e-17 1.47516)
(7.0216e-19 -4.20334e-17 0.641008)
(3.02283e-17 1.32204e-17 -0.314579)
(-6.14494e-17 7.01459e-17 -1.16996)
(3.07367e-17 -6.85704e-17 -1.91398)
(1.48977e-18 -2.92471e-17 -2.55899)
(-2.3586e-18 7.00051e-17 -3.09234)
(6.03183e-17 -2.772e-17 -3.46848)
(-1.15308e-16 -5.49326e-17 -3.7758)
(1.17999e-16 -2.83001e-17 -4.0256)
(-1.26062e-16 1.64757e-16 -4.23374)
(6.05806e-17 1.49898e-18 -4.41221)
(8.05594e-18 -1.37833e-16 -4.56776)
(-4.99344e-18 5.4809e-17 -4.7043)
(3.03267e-18 -5.4102e-17 -4.8245)
(5.37829e-17 2.67111e-17 -4.92989)
(-6.50892e-17 8.158e-17 -5.02196)
(8.3641e-18 -5.41891e-17 -5.10226)
(-1.18611e-16 1.06922e-16 -5.17231)
(1.30134e-16 -1.60365e-16 -5.23358)
(-2.17833e-18 -1.06309e-16 -5.28736)
(-2.57324e-17 3.7252e-16 -5.33479)
(5.93879e-18 -5.55124e-17 -5.37678)
(1.97191e-17 -3.18007e-16 -5.41399)
(-1.12453e-16 4.74809e-18 -5.44684)
(8.49925e-17 3.66587e-16 -5.47545)
(1.21191e-17 -5.75213e-17 -5.49967)