/*--------------------------------*- C++ -*----------------------------------*\
| =========                 |                                                 |
| \\      /  F ield         | OpenFOAM: The Open Source CFD Toolbox           |
|  \\    /   O peration     | Version:  2506                                  |
|   \\  /    A nd           | Website:  www.openfoam.com                      |
|    \\/     M anipulation  |                                                 |
\*---------------------------------------------------------------------------*/
FoamFile
{
    version     2.0;
    format      ascii;
    arch        "LSB;label=32;scalar=64";
    class       volScalarField;
    location    "4";
    object      p;
}
// * * * * * * * * * * * * * * * * * * * * * * * * * * * * * * * * * * * * * //

dimensions      [0 2 -2 0 0 0 0];

internalField   nonuniform List<scalar> 
4000
(
-0.000106688
-6.06923e-05
-4.30971e-05
-3.59412e-05
-3.08965e-05
-2.74792e-05
-2.53867e-05
-2.41384e-05
-2.34707e-05
-2.32555e-05
-2.34098e-05
-2.38756e-05
-2.4614e-05
-2.55992e-05
-2.68144e-05
-2.82496e-05
-2.99003e-05
-3.17668e-05
-3.38543e-05
-3.61724e-05
-3.87358e-05
-4.15641e-05
-4.46831e-05
-4.81258e-05
-5.19343e-05
-5.61626e-05
-6.08809e-05
-6.61838e-05
-7.22004e-05
-7.90801e-05
-8.71757e-05
-9.75071e-05
-0.000108837
-0.000120103
-0.000130999
-0.000141424
-0.000151148
-0.000160848
-0.000167443
-0.000170295
-0.000171999
-0.000172518
-0.00017174
-0.000169855
-0.000167006
-0.000163285
-0.000158718
-0.000153572
-0.000147795
-0.000141289
-0.000133745
-0.000124794
-0.000114915
-0.00010268
-8.87547e-05
-7.2216e-05
-5.39025e-05
-3.25275e-05
-9.15045e-06
1.43783e-05
3.6865e-05
5.7611e-05
7.42711e-05
8.85005e-05
9.95282e-05
0.00010834
0.000115286
0.000120578
0.000124498
0.000127215
0.00012885
0.000129458
0.000129088
0.000127775
0.000125539
0.000122383
0.000118296
0.00011322
0.000107156
0.00010008
9.19457e-05
8.26175e-05
7.21374e-05
6.03857e-05
4.74424e-05
3.32758e-05
1.82355e-05
2.7274e-06
-1.27566e-05
-2.75099e-05
-4.09812e-05
-5.31101e-05
-6.40394e-05
-7.39201e-05
-8.28312e-05
-9.11037e-05
-9.87133e-05
-0.000105714
-0.000112017
-0.000117375
-0.00012164
-0.000124652
-0.00012641
-0.000126939
-0.000126258
-0.000124446
-0.000121498
-0.000117316
-0.000111798
-0.000104789
-9.59494e-05
-8.48768e-05
-7.21453e-05
-5.70839e-05
-4.07886e-05
-2.28939e-05
-4.32516e-06
1.40695e-05
3.22117e-05
4.98154e-05
6.50514e-05
7.88966e-05
9.0643e-05
0.000100824
0.000109191
0.00011605
0.000121601
0.000125923
0.000129082
0.00013115
0.000132183
0.000132217
0.000131272
0.000129343
0.000126433
0.000122529
0.000117614
0.000111662
0.000104563
9.63358e-05
8.6936e-05
7.61908e-05
6.42285e-05
5.09516e-05
3.66209e-05
2.15589e-05
6.24431e-06
-8.65908e-06
-2.24671e-05
-3.48929e-05
-4.59362e-05
-5.57946e-05
-6.45901e-05
-7.24707e-05
-7.96566e-05
-8.61245e-05
-9.18277e-05
-9.65665e-05
-0.000100004
-0.000101876
-0.000101942
-9.97983e-05
-9.44084e-05
-8.65377e-05
-7.93249e-05
-7.16226e-05
-6.26293e-05
-5.30241e-05
-4.32087e-05
-3.39075e-05
-2.65243e-05
-2.14108e-05
-1.69519e-05
-1.29306e-05
-9.3129e-06
-6.00208e-06
-2.92872e-06
-3.43266e-08
2.72922e-06
5.40697e-06
8.04336e-06
1.06793e-05
1.33656e-05
1.61199e-05
1.89655e-05
2.19301e-05
2.50429e-05
2.83306e-05
3.18196e-05
3.55465e-05
3.95621e-05
4.39371e-05
4.87686e-05
5.42015e-05
6.04725e-05
6.80271e-05
7.78123e-05
9.22305e-05
0.000118988
0.000175692
-7.12996e-05
-5.23283e-05
-4.19546e-05
-3.5775e-05
-3.13601e-05
-2.82317e-05
-2.61473e-05
-2.48259e-05
-2.40739e-05
-2.37742e-05
-2.38471e-05
-2.42363e-05
-2.49025e-05
-2.58186e-05
-2.69668e-05
-2.83359e-05
-2.99203e-05
-3.17195e-05
-3.37376e-05
-3.59829e-05
-3.84688e-05
-4.12135e-05
-4.42411e-05
-4.75825e-05
-5.12765e-05
-5.53728e-05
-5.99345e-05
-6.50438e-05
-7.08096e-05
-7.73627e-05
-8.49248e-05
-9.4029e-05
-0.000103891
-0.000113784
-0.000123417
-0.00013268
-0.000141339
-0.000149395
-0.000154748
-0.000157435
-0.00015913
-0.000159712
-0.000159032
-0.000157287
-0.000154614
-0.000151086
-0.000146772
-0.000141826
-0.000136169
-0.000129636
-0.000122069
-0.000113283
-0.00010339
-9.17116e-05
-7.86988e-05
-6.39767e-05
-4.80657e-05
-3.04995e-05
-1.19579e-05
6.85294e-06
2.52295e-05
4.33509e-05
5.92753e-05
7.34045e-05
8.51377e-05
9.47877e-05
0.000102571
0.000108684
0.00011335
0.000116746
0.00011901
0.000120216
0.00012042
0.000119663
0.000117974
0.000115365
0.000111834
0.000107325
0.000101827
9.53183e-05
8.77697e-05
7.90566e-05
6.91948e-05
5.8083e-05
4.57873e-05
3.22985e-05
1.79152e-05
3.12935e-06
-1.15501e-05
-2.55123e-05
-3.83341e-05
-4.99352e-05
-6.04477e-05
-6.99972e-05
-7.87636e-05
-8.68167e-05
-9.41483e-05
-0.000100706
-0.000106364
-0.000111001
-0.000114482
-0.000116711
-0.00011769
-0.000117501
-0.000116169
-0.000113717
-0.000110122
-0.000105303
-9.91569e-05
-9.15644e-05
-8.23427e-05
-7.14669e-05
-5.93393e-05
-4.58283e-05
-3.16937e-05
-1.69064e-05
-1.97469e-06
1.26653e-05
2.69677e-05
4.10853e-05
5.43056e-05
6.67315e-05
7.78779e-05
8.79089e-05
9.65153e-05
0.000103725
0.000109653
0.000114398
0.000118007
0.000120522
0.00012199
0.00012245
0.000121927
0.000120422
0.000117932
0.000114452
0.000109958
0.000104443
9.78106e-05
9.00637e-05
8.11787e-05
7.09969e-05
5.96231e-05
4.69975e-05
3.33239e-05
1.90244e-05
4.57437e-06
-9.38312e-06
-2.2268e-05
-3.38922e-05
-4.42586e-05
-5.35282e-05
-6.19299e-05
-6.94594e-05
-7.61997e-05
-8.20967e-05
-8.69593e-05
-9.06117e-05
-9.27419e-05
-9.31281e-05
-9.15973e-05
-8.78195e-05
-8.14408e-05
-7.39185e-05
-6.71413e-05
-6.01263e-05
-5.237e-05
-4.44809e-05
-3.68718e-05
-2.99609e-05
-2.42118e-05
-1.96837e-05
-1.56958e-05
-1.20354e-05
-8.62073e-06
-5.43301e-06
-2.43936e-06
4.01209e-07
3.13261e-06
5.79755e-06
8.43381e-06
1.10846e-05
1.37742e-05
1.65295e-05
1.93807e-05
2.23502e-05
2.54708e-05
2.87704e-05
3.22717e-05
3.60164e-05
4.00593e-05
4.4474e-05
4.93612e-05
5.48654e-05
6.1194e-05
6.86673e-05
7.78217e-05
8.95156e-05
0.000105187
0.00013
-5.19283e-05
-4.52679e-05
-3.94893e-05
-3.48098e-05
-3.11438e-05
-2.84003e-05
-2.64597e-05
-2.51712e-05
-2.4406e-05
-2.40699e-05
-2.40947e-05
-2.44299e-05
-2.5039e-05
-2.5896e-05
-2.69831e-05
-2.82887e-05
-2.98069e-05
-3.15363e-05
-3.34802e-05
-3.56459e-05
-3.80455e-05
-4.06955e-05
-4.3618e-05
-4.68408e-05
-5.03992e-05
-5.43372e-05
-5.87099e-05
-6.35865e-05
-6.9055e-05
-7.5212e-05
-8.21819e-05
-9.0272e-05
-9.8945e-05
-0.000107683
-0.000116241
-0.000124515
-0.000132214
-0.000139052
-0.000143589
-0.000146158
-0.00014782
-0.00014839
-0.000147727
-0.000146027
-0.000143413
-0.000139944
-0.000135682
-0.000130697
-0.000124902
-0.000118198
-0.000110489
-0.000101711
-9.19066e-05
-8.09181e-05
-6.8971e-05
-5.59819e-05
-4.22896e-05
-2.78047e-05
-1.28279e-05
2.44839e-06
1.76648e-05
3.31084e-05
4.75213e-05
6.09433e-05
7.26603e-05
8.26677e-05
9.09366e-05
9.76326e-05
0.0001029
0.000106871
0.000109679
0.000111411
0.000112122
0.000111859
0.000110656
0.000108537
0.000105511
0.000101521
9.65545e-05
9.05927e-05
8.35911e-05
7.54477e-05
6.61543e-05
5.56626e-05
4.39963e-05
3.12197e-05
1.76055e-05
3.55734e-06
-1.04238e-05
-2.37686e-05
-3.61478e-05
-4.74277e-05
-5.77219e-05
-6.70772e-05
-7.56025e-05
-8.33301e-05
-9.01769e-05
-9.61544e-05
-0.000101122
-0.000104962
-0.000107666
-0.000109185
-0.000109513
-0.000108712
-0.0001068
-0.000103773
-9.95963e-05
-9.42084e-05
-8.75655e-05
-7.964e-05
-7.04144e-05
-6.00375e-05
-4.88781e-05
-3.6962e-05
-2.48738e-05
-1.26409e-05
-5.3753e-07
1.13415e-05
2.31544e-05
3.48522e-05
4.61853e-05
5.70749e-05
6.73289e-05
7.69338e-05
8.54502e-05
9.27731e-05
9.88933e-05
0.000103874
0.000107771
0.000110609
0.000112423
0.00011324
0.000113084
0.000111959
0.000109865
0.000106801
0.000102735
9.76319e-05
9.14201e-05
8.41116e-05
7.56964e-05
6.60688e-05
5.52746e-05
4.3354e-05
3.05009e-05
1.70637e-05
3.48271e-06
-9.6322e-06
-2.18298e-05
-3.2907e-05
-4.28543e-05
-5.18042e-05
-5.98313e-05
-6.69044e-05
-7.30037e-05
-7.81126e-05
-8.19906e-05
-8.44147e-05
-8.52324e-05
-8.42949e-05
-8.15558e-05
-7.69176e-05
-7.05024e-05
-6.36579e-05
-5.75877e-05
-5.14115e-05
-4.4868e-05
-3.84162e-05
-3.23839e-05
-2.70089e-05
-2.23488e-05
-1.82703e-05
-1.45855e-05
-1.11463e-05
-7.90309e-06
-4.84205e-06
-1.94168e-06
8.3258e-07
3.51941e-06
6.15696e-06
8.76883e-06
1.14064e-05
1.40973e-05
1.68503e-05
1.96988e-05
2.26674e-05
2.57824e-05
2.90699e-05
3.25585e-05
3.6289e-05
4.03154e-05
4.47083e-05
4.95605e-05
5.499e-05
6.11387e-05
6.81591e-05
7.61395e-05
8.48635e-05
9.37188e-05
0.000103544
-4.23761e-05
-3.94953e-05
-3.61759e-05
-3.29017e-05
-3.01014e-05
-2.78675e-05
-2.62061e-05
-2.50611e-05
-2.4362e-05
-2.40462e-05
-2.40629e-05
-2.43723e-05
-2.49436e-05
-2.57542e-05
-2.67878e-05
-2.80338e-05
-2.94861e-05
-3.11431e-05
-3.30073e-05
-3.50849e-05
-3.73865e-05
-3.99267e-05
-4.27248e-05
-4.58055e-05
-4.91997e-05
-5.29453e-05
-5.70892e-05
-6.1689e-05
-6.68151e-05
-7.25401e-05
-7.89453e-05
-8.62325e-05
-9.39616e-05
-0.000101748
-0.000109404
-0.000116843
-0.000123752
-0.000129746
-0.000133768
-0.000136199
-0.000137739
-0.000138193
-0.000137448
-0.000135696
-0.000133049
-0.000129558
-0.000125262
-0.000120184
-0.000114282
-0.00010753
-9.98243e-05
-9.12031e-05
-8.17246e-05
-7.13921e-05
-6.04273e-05
-4.89195e-05
-3.70726e-05
-2.48606e-05
-1.24036e-05
3.56817e-07
1.32762e-05
2.65093e-05
3.93279e-05
5.17624e-05
6.29166e-05
7.27866e-05
8.12907e-05
8.8299e-05
9.39349e-05
9.83049e-05
0.000101516
0.000103655
0.000104776
0.000104919
0.00010412
0.000102403
9.97968e-05
9.6235e-05
9.17069e-05
8.62019e-05
7.96705e-05
7.20156e-05
6.32514e-05
5.33721e-05
4.23122e-05
3.01806e-05
1.72177e-05
3.83316e-06
-9.48504e-06
-2.22584e-05
-3.41896e-05
-4.51191e-05
-5.51024e-05
-6.41437e-05
-7.22935e-05
-7.96087e-05
-8.5967e-05
-9.12912e-05
-9.55803e-05
-9.8736e-05
-0.000100787
-0.000101681
-0.00010144
-0.000100108
-9.7696e-05
-9.41987e-05
-8.95945e-05
-8.3862e-05
-7.70287e-05
-6.91517e-05
-6.03163e-05
-5.07219e-05
-4.06896e-05
-3.03374e-05
-2.00075e-05
-9.74806e-06
3.75703e-07
1.03924e-05
2.04559e-05
3.04641e-05
4.03664e-05
5.01139e-05
5.94929e-05
6.83879e-05
7.64927e-05
8.3713e-05
8.99559e-05
9.51102e-05
9.91953e-05
0.000102255
0.000104317
0.000105402
0.000105524
0.000104686
0.000102889
0.000100144
9.6428e-05
9.16931e-05
8.58559e-05
7.89037e-05
7.09188e-05
6.1827e-05
5.15549e-05
4.02362e-05
2.80387e-05
1.53005e-05
2.48317e-06
-9.90003e-06
-2.14743e-05
-3.20278e-05
-4.1519e-05
-4.99939e-05
-5.74752e-05
-6.39612e-05
-6.93391e-05
-7.34988e-05
-7.63387e-05
-7.76627e-05
-7.73761e-05
-7.54556e-05
-7.20212e-05
-6.71831e-05
-6.12541e-05
-5.51498e-05
-4.97809e-05
-4.44553e-05
-3.8973e-05
-3.36663e-05
-2.87502e-05
-2.43346e-05
-2.03786e-05
-1.67242e-05
-1.33386e-05
-1.0136e-05
-7.08444e-06
-4.17582e-06
-1.39187e-06
1.29499e-06
3.91581e-06
6.50142e-06
9.07871e-06
1.16838e-05
1.43426e-05
1.70714e-05
1.98947e-05
2.2835e-05
2.59145e-05
2.91568e-05
3.25889e-05
3.62468e-05
4.01766e-05
4.44373e-05
4.91016e-05
5.42497e-05
5.99473e-05
6.61899e-05
7.27853e-05
7.91849e-05
8.47555e-05
8.97112e-05
-3.61805e-05
-3.48045e-05
-3.28796e-05
-3.06769e-05
-2.86208e-05
-2.68949e-05
-2.55526e-05
-2.45983e-05
-2.40071e-05
-2.37448e-05
-2.37787e-05
-2.40803e-05
-2.46261e-05
-2.53977e-05
-2.63816e-05
-2.75683e-05
-2.89527e-05
-3.0533e-05
-3.2311e-05
-3.42923e-05
-3.64856e-05
-3.89038e-05
-4.15636e-05
-4.44863e-05
-4.76985e-05
-5.1233e-05
-5.51291e-05
-5.94349e-05
-6.42084e-05
-6.95074e-05
-7.53914e-05
-8.19916e-05
-8.89288e-05
-9.59122e-05
-0.000102803
-0.000109526
-0.000115757
-0.000121074
-0.000124669
-0.00012689
-0.000128228
-0.000128501
-0.000127613
-0.000125758
-0.000123041
-0.000119491
-0.000115131
-0.00011
-0.000104075
-9.73366e-05
-8.97603e-05
-8.14354e-05
-7.24436e-05
-6.28716e-05
-5.29369e-05
-4.27737e-05
-3.25193e-05
-2.21789e-05
-1.17431e-05
-1.05696e-06
9.90568e-06
2.12685e-05
3.25838e-05
4.37884e-05
5.42237e-05
6.37474e-05
7.2224e-05
7.937e-05
8.52413e-05
8.99081e-05
9.34417e-05
9.59192e-05
9.7399e-05
9.79182e-05
9.74892e-05
9.61868e-05
9.39953e-05
9.08482e-05
8.67351e-05
8.16576e-05
7.5594e-05
6.84625e-05
6.02291e-05
5.09014e-05
4.0442e-05
2.89768e-05
1.66934e-05
3.98631e-06
-8.68532e-06
-2.08954e-05
-3.23547e-05
-4.28859e-05
-5.24911e-05
-6.11454e-05
-6.88704e-05
-7.56574e-05
-8.1454e-05
-8.61706e-05
-8.97977e-05
-9.23264e-05
-9.37616e-05
-9.40896e-05
-9.33366e-05
-9.15378e-05
-8.87074e-05
-8.48516e-05
-7.99783e-05
-7.41102e-05
-6.73364e-05
-5.97697e-05
-5.15451e-05
-4.28593e-05
-3.39959e-05
-2.50619e-05
-1.62612e-05
-7.61573e-06
9.0305e-07
9.38102e-06
1.7961e-05
2.6619e-05
3.53474e-05
4.40167e-05
5.25325e-05
6.06331e-05
6.82251e-05
7.51488e-05
8.13165e-05
8.65683e-05
9.08202e-05
9.40801e-05
9.63651e-05
9.76905e-05
9.80638e-05
9.74858e-05
9.59731e-05
9.35256e-05
9.01102e-05
8.57076e-05
8.02616e-05
7.37293e-05
6.61705e-05
5.7542e-05
4.77962e-05
3.70926e-05
2.55701e-05
1.35567e-05
1.48766e-06
-1.01911e-05
-2.11361e-05
-3.11266e-05
-4.00795e-05
-4.79827e-05
-5.48435e-05
-6.05816e-05
-6.51204e-05
-6.83588e-05
-7.01969e-05
-7.05659e-05
-6.94277e-05
-6.68642e-05
-6.31397e-05
-5.84771e-05
-5.32046e-05
-4.7793e-05
-4.31109e-05
-3.85844e-05
-3.39893e-05
-2.95824e-05
-2.54905e-05
-2.1754e-05
-1.83321e-05
-1.50899e-05
-1.20031e-05
-9.04109e-06
-6.19342e-06
-3.45365e-06
-8.06168e-07
1.77102e-06
4.30281e-06
6.81521e-06
9.33382e-06
1.18861e-05
1.44947e-05
1.71773e-05
1.9953e-05
2.284e-05
2.58558e-05
2.90187e-05
3.23501e-05
3.58766e-05
3.96319e-05
4.36571e-05
4.79987e-05
5.2698e-05
5.77615e-05
6.30976e-05
6.84202e-05
7.31991e-05
7.69444e-05
7.97869e-05
-3.16111e-05
-3.09794e-05
-2.98641e-05
-2.84007e-05
-2.69285e-05
-2.56308e-05
-2.4591e-05
-2.38353e-05
-2.33672e-05
-2.31746e-05
-2.32401e-05
-2.35452e-05
-2.40734e-05
-2.48109e-05
-2.57473e-05
-2.68749e-05
-2.81894e-05
-2.96894e-05
-3.13766e-05
-3.32555e-05
-3.53339e-05
-3.76228e-05
-4.01366e-05
-4.28939e-05
-4.59176e-05
-4.92356e-05
-5.28817e-05
-5.68964e-05
-6.13285e-05
-6.62274e-05
-7.16399e-05
-7.76378e-05
-8.38979e-05
-9.01954e-05
-9.64246e-05
-0.000102509
-0.000108124
-0.000112841
-0.000116027
-0.000117985
-0.000119078
-0.00011914
-0.000118083
-0.000116104
-0.000113303
-0.000109685
-0.000105273
-0.000100137
-9.42525e-05
-8.763e-05
-8.03031e-05
-7.2393e-05
-6.40027e-05
-5.52611e-05
-4.63652e-05
-3.74479e-05
-2.86002e-05
-1.98272e-05
-1.1064e-05
-2.13018e-06
7.08794e-06
1.67412e-05
2.66016e-05
3.66004e-05
4.62737e-05
5.53537e-05
6.35661e-05
7.07289e-05
7.67589e-05
8.16558e-05
8.54558e-05
8.82213e-05
9.00072e-05
9.0857e-05
9.08024e-05
8.98542e-05
8.79796e-05
8.52108e-05
8.15069e-05
7.68634e-05
7.127e-05
6.4667e-05
5.69825e-05
4.82437e-05
3.84182e-05
2.76313e-05
1.60386e-05
4.00968e-06
-8.02176e-06
-1.96617e-05
-3.06181e-05
-4.07038e-05
-4.98671e-05
-5.80751e-05
-6.52917e-05
-7.15248e-05
-7.67218e-05
-8.08215e-05
-8.38133e-05
-8.57706e-05
-8.66417e-05
-8.64647e-05
-8.5266e-05
-8.30786e-05
-7.99258e-05
-7.58358e-05
-7.08499e-05
-6.5029e-05
-5.85052e-05
-5.14167e-05
-4.39123e-05
-3.61672e-05
-2.84207e-05
-2.0742e-05
-1.32593e-05
-5.96387e-06
1.20762e-06
8.36466e-06
1.56469e-05
2.30796e-05
3.07043e-05
3.84005e-05
4.60928e-05
5.35668e-05
6.0715e-05
6.72845e-05
7.31858e-05
7.83486e-05
8.26505e-05
8.6033e-05
8.84836e-05
9.00062e-05
9.06054e-05
9.02898e-05
8.905e-05
8.68478e-05
8.3694e-05
7.95971e-05
7.45331e-05
6.84386e-05
6.13235e-05
5.3201e-05
4.40264e-05
3.39628e-05
2.31339e-05
1.18454e-05
5.06376e-07
-1.04746e-05
-2.07636e-05
-3.01306e-05
-3.84905e-05
-4.57603e-05
-5.18811e-05
-5.68198e-05
-6.04895e-05
-6.28372e-05
-6.38012e-05
-6.34166e-05
-6.16842e-05
-5.87824e-05
-5.50603e-05
-5.07682e-05
-4.61654e-05
-4.13859e-05
-3.73484e-05
-3.35259e-05
-2.96569e-05
-2.59647e-05
-2.2515e-05
-1.93098e-05
-1.63252e-05
-1.34587e-05
-1.06562e-05
-7.92904e-06
-5.28701e-06
-2.72367e-06
-2.2458e-07
2.22792e-06
4.65422e-06
7.07659e-06
9.51752e-06
1.19992e-05
1.45409e-05
1.71583e-05
1.9866e-05
2.2677e-05
2.56034e-05
2.86568e-05
3.18501e-05
3.51988e-05
3.87213e-05
4.24385e-05
4.63712e-05
5.05299e-05
5.48886e-05
5.93315e-05
6.35832e-05
6.72096e-05
6.98377e-05
7.14723e-05
-2.8057e-05
-2.77767e-05
-2.71281e-05
-2.61637e-05
-2.51285e-05
-2.41734e-05
-2.33891e-05
-2.28177e-05
-2.24714e-05
-2.23519e-05
-2.24539e-05
-2.27673e-05
-2.32816e-05
-2.39875e-05
-2.48771e-05
-2.59449e-05
-2.71877e-05
-2.86045e-05
-3.0197e-05
-3.19694e-05
-3.39285e-05
-3.6084e-05
-3.84484e-05
-4.1038e-05
-4.38727e-05
-4.69766e-05
-5.0379e-05
-5.41142e-05
-5.82241e-05
-6.2753e-05
-6.77393e-05
-7.32044e-05
-7.88743e-05
-8.45694e-05
-9.02073e-05
-9.57041e-05
-0.000100741
-0.000104907
-0.000107694
-0.000109365
-0.000110202
-0.000110046
-0.000108814
-0.000106706
-0.000103819
-0.000100145
-9.57336e-05
-9.0644e-05
-8.48727e-05
-7.84622e-05
-7.14841e-05
-6.40779e-05
-5.63587e-05
-4.84679e-05
-4.05755e-05
-3.27956e-05
-2.51842e-05
-1.77356e-05
-1.03646e-05
-2.89364e-06
4.82176e-06
1.2944e-05
2.13902e-05
3.01421e-05
3.88757e-05
4.73373e-05
5.52334e-05
6.23143e-05
6.8436e-05
7.35321e-05
7.75822e-05
8.06221e-05
8.26927e-05
8.3833e-05
8.40732e-05
8.34202e-05
8.18888e-05
7.94911e-05
7.61955e-05
7.1995e-05
6.68682e-05
6.07687e-05
5.3628e-05
4.54793e-05
3.6283e-05
2.61619e-05
1.5253e-05
3.90115e-06
-7.48624e-06
-1.8532e-05
-2.89341e-05
-3.85499e-05
-4.7228e-05
-5.48895e-05
-6.15535e-05
-6.72018e-05
-7.17914e-05
-7.52667e-05
-7.7704e-05
-7.91219e-05
-7.94998e-05
-7.88853e-05
-7.73145e-05
-7.48252e-05
-7.14546e-05
-6.72563e-05
-6.23013e-05
-5.66775e-05
-5.05398e-05
-4.40284e-05
-3.72855e-05
-3.04586e-05
-2.37394e-05
-1.71635e-05
-1.08121e-05
-4.65296e-06
1.3898e-06
7.43198e-06
1.36067e-05
1.99669e-05
2.657e-05
3.33315e-05
4.01936e-05
4.6986e-05
5.36015e-05
5.98044e-05
6.54658e-05
7.04973e-05
7.47814e-05
7.82346e-05
8.08136e-05
8.25023e-05
8.32912e-05
8.31795e-05
8.21585e-05
8.02105e-05
7.73608e-05
7.35978e-05
6.89046e-05
6.32179e-05
5.65481e-05
4.89331e-05
4.03258e-05
3.08879e-05
2.07392e-05
1.01624e-05
-4.58926e-07
-1.07386e-05
-2.03392e-05
-2.90575e-05
-3.6723e-05
-4.32478e-05
-4.85993e-05
-5.27282e-05
-5.55705e-05
-5.71202e-05
-5.73897e-05
-5.64428e-05
-5.43563e-05
-5.13591e-05
-4.78212e-05
-4.39755e-05
-3.99897e-05
-3.57909e-05
-3.23373e-05
-2.91165e-05
-2.5849e-05
-2.27385e-05
-1.98008e-05
-1.70322e-05
-1.44197e-05
-1.18848e-05
-9.34988e-06
-6.85071e-06
-4.41093e-06
-2.02458e-06
3.21501e-07
2.64148e-06
4.95216e-06
7.27254e-06
9.6219e-06
1.20185e-05
1.44781e-05
1.70134e-05
1.96347e-05
2.235e-05
2.51656e-05
2.80861e-05
3.11153e-05
3.42567e-05
3.75135e-05
4.08879e-05
4.43791e-05
4.79767e-05
5.16424e-05
5.52708e-05
5.86358e-05
6.1394e-05
6.32588e-05
6.42381e-05
-2.51407e-05
-2.50187e-05
-2.46353e-05
-2.39987e-05
-2.32787e-05
-2.25932e-05
-2.20151e-05
-2.15962e-05
-2.13592e-05
-2.13082e-05
-2.14448e-05
-2.1766e-05
-2.22663e-05
-2.29399e-05
-2.37816e-05
-2.47877e-05
-2.59561e-05
-2.72867e-05
-2.87813e-05
-3.04438e-05
-3.22805e-05
-3.42999e-05
-3.65134e-05
-3.89352e-05
-4.15829e-05
-4.44776e-05
-4.76446e-05
-5.11135e-05
-5.49199e-05
-5.91045e-05
-6.36994e-05
-6.86855e-05
-7.38276e-05
-7.89775e-05
-8.40723e-05
-8.90205e-05
-9.35141e-05
-9.71684e-05
-9.95748e-05
-0.000100958
-0.000101542
-0.000101177
-9.97769e-05
-9.755e-05
-9.45954e-05
-9.08979e-05
-8.654e-05
-8.15486e-05
-7.59607e-05
-6.98442e-05
-6.32916e-05
-5.64499e-05
-4.9435e-05
-4.23835e-05
-3.54364e-05
-2.86836e-05
-2.21556e-05
-1.58364e-05
-9.63343e-06
-3.38435e-06
3.0587e-06
9.85294e-06
1.69942e-05
2.45123e-05
3.22013e-05
3.98691e-05
4.72665e-05
5.41122e-05
6.02108e-05
6.54405e-05
6.97124e-05
7.30221e-05
7.53831e-05
7.68236e-05
7.73728e-05
7.7046e-05
7.58581e-05
7.3815e-05
7.09021e-05
6.71142e-05
6.24216e-05
5.67988e-05
5.019e-05
4.26197e-05
3.40416e-05
2.45736e-05
1.43372e-05
3.66578e-06
-7.07744e-06
-1.75082e-05
-2.73375e-05
-3.63723e-05
-4.44893e-05
-5.15992e-05
-5.76747e-05
-6.27199e-05
-6.67138e-05
-6.95921e-05
-7.15274e-05
-7.24509e-05
-7.23954e-05
-7.14169e-05
-6.95531e-05
-6.68517e-05
-6.33679e-05
-5.91784e-05
-5.43757e-05
-4.90623e-05
-4.33986e-05
-3.75125e-05
-3.15298e-05
-2.55702e-05
-1.97799e-05
-1.41714e-05
-8.79321e-06
-3.59816e-06
1.49225e-06
6.59193e-06
1.18222e-05
1.72538e-05
2.29386e-05
2.88328e-05
3.4886e-05
4.09756e-05
4.69976e-05
5.27631e-05
5.81295e-05
6.2979e-05
6.71904e-05
7.06663e-05
7.33394e-05
7.5173e-05
7.61428e-05
7.62379e-05
7.54518e-05
7.37629e-05
7.1196e-05
6.77394e-05
6.339e-05
5.81014e-05
5.18662e-05
4.47402e-05
3.6688e-05
2.78555e-05
1.83751e-05
8.50672e-06
-1.38811e-06
-1.09637e-05
-1.98666e-05
-2.78377e-05
-3.47518e-05
-4.0505e-05
-4.50672e-05
-4.84112e-05
-5.05028e-05
-5.13609e-05
-5.11174e-05
-4.97992e-05
-4.75654e-05
-4.46395e-05
-4.13753e-05
-3.79832e-05
-3.45416e-05
-3.08798e-05
-2.79402e-05
-2.52268e-05
-2.24647e-05
-1.98404e-05
-1.73256e-05
-1.49279e-05
-1.2639e-05
-1.0396e-05
-8.11209e-06
-5.83321e-06
-3.59004e-06
-1.37814e-06
8.13781e-07
2.99697e-06
5.18521e-06
7.3946e-06
9.64138e-06
1.19405e-05
1.43045e-05
1.67428e-05
1.9262e-05
2.18654e-05
2.45538e-05
2.7325e-05
3.01743e-05
3.30943e-05
3.60747e-05
3.91023e-05
4.216e-05
4.5224e-05
4.82541e-05
5.11661e-05
5.37875e-05
5.58479e-05
5.71543e-05
5.77486e-05
-2.26225e-05
-2.25667e-05
-2.23339e-05
-2.19114e-05
-2.14132e-05
-2.09292e-05
-2.05187e-05
-2.0223e-05
-2.00715e-05
-2.00783e-05
-2.02438e-05
-2.05691e-05
-2.10526e-05
-2.16915e-05
-2.2483e-05
-2.34249e-05
-2.45163e-05
-2.57576e-05
-2.7151e-05
-2.87005e-05
-3.04119e-05
-3.22931e-05
-3.43545e-05
-3.66087e-05
-3.90713e-05
-4.17609e-05
-4.46994e-05
-4.79119e-05
-5.14289e-05
-5.52864e-05
-5.95149e-05
-6.406e-05
-6.87195e-05
-7.33654e-05
-7.79546e-05
-8.23906e-05
-8.63763e-05
-8.95604e-05
-9.16097e-05
-9.27166e-05
-9.30661e-05
-9.25081e-05
-9.09586e-05
-8.86414e-05
-8.56541e-05
-8.19696e-05
-7.76952e-05
-7.28575e-05
-6.75197e-05
-6.17635e-05
-5.56922e-05
-4.94508e-05
-4.31477e-05
-3.69055e-05
-3.08368e-05
-2.50082e-05
-1.94318e-05
-1.40834e-05
-8.87214e-06
-3.65326e-06
1.71305e-06
7.36988e-06
1.33536e-05
1.97184e-05
2.63495e-05
3.31177e-05
3.98384e-05
4.62576e-05
5.21608e-05
5.73936e-05
6.18066e-05
6.53468e-05
6.79866e-05
6.97304e-05
7.05984e-05
7.06079e-05
6.97704e-05
6.80818e-05
6.55602e-05
6.21864e-05
5.79214e-05
5.27591e-05
4.66676e-05
3.96696e-05
3.16952e-05
2.28729e-05
1.33038e-05
3.326e-06
-6.77691e-06
-1.65872e-05
-2.57644e-05
-3.4188e-05
-4.16887e-05
-4.81949e-05
-5.36576e-05
-5.8095e-05
-6.14997e-05
-6.38807e-05
-6.53204e-05
-6.58083e-05
-6.53898e-05
-6.41197e-05
-6.20409e-05
-5.9216e-05
-5.57172e-05
-5.16387e-05
-4.70842e-05
-4.21604e-05
-3.70203e-05
-3.1773e-05
-2.65241e-05
-2.13682e-05
-1.64116e-05
-1.16527e-05
-7.11557e-06
-2.74625e-06
1.53189e-06
5.82588e-06
1.02432e-05
1.4864e-05
1.97323e-05
2.48365e-05
3.013e-05
3.55349e-05
4.09473e-05
4.62219e-05
5.12224e-05
5.58208e-05
5.98921e-05
6.33279e-05
6.60444e-05
6.79852e-05
6.9113e-05
6.94069e-05
6.88528e-05
6.74194e-05
6.5125e-05
6.19669e-05
5.79524e-05
5.30651e-05
4.72517e-05
4.05965e-05
3.30986e-05
2.48568e-05
1.60277e-05
6.8708e-06
-2.30432e-06
-1.11275e-05
-1.92617e-05
-2.6462e-05
-3.25894e-05
-3.7554e-05
-4.13445e-05
-4.39586e-05
-4.5383e-05
-4.5738e-05
-4.5123e-05
-4.36044e-05
-4.13654e-05
-3.85979e-05
-3.56363e-05
-3.26696e-05
-2.97023e-05
-2.65396e-05
-2.40447e-05
-2.17614e-05
-1.94291e-05
-1.72153e-05
-1.50685e-05
-1.29931e-05
-1.09889e-05
-9.00414e-06
-6.95468e-06
-4.88731e-06
-2.83468e-06
-7.94299e-07
1.24296e-06
3.2859e-06
5.34581e-06
7.43618e-06
9.57053e-06
1.17609e-05
1.4017e-05
1.63452e-05
1.87486e-05
2.12267e-05
2.37752e-05
2.63861e-05
2.90473e-05
3.17422e-05
3.44499e-05
3.71453e-05
3.97994e-05
4.23803e-05
4.48489e-05
4.71418e-05
4.91392e-05
5.06443e-05
5.1526e-05
5.18234e-05
-2.03558e-05
-2.03218e-05
-2.01739e-05
-1.98909e-05
-1.9548e-05
-1.921e-05
-1.89264e-05
-1.87319e-05
-1.86497e-05
-1.86959e-05
-1.8881e-05
-1.92059e-05
-1.96685e-05
-2.02692e-05
-2.10073e-05
-2.1882e-05
-2.28933e-05
-2.40423e-05
-2.53316e-05
-2.67652e-05
-2.83486e-05
-3.00895e-05
-3.19971e-05
-3.40831e-05
-3.63611e-05
-3.88471e-05
-4.15605e-05
-4.45225e-05
-4.77587e-05
-5.13019e-05
-5.51729e-05
-5.9302e-05
-6.35185e-05
-6.76909e-05
-7.18088e-05
-7.57699e-05
-7.92862e-05
-8.20409e-05
-8.37614e-05
-8.46127e-05
-8.47496e-05
-8.40226e-05
-8.23511e-05
-7.99754e-05
-7.69709e-05
-7.33404e-05
-6.91959e-05
-6.45708e-05
-5.95413e-05
-5.41972e-05
-4.86449e-05
-4.30207e-05
-3.742e-05
-3.19473e-05
-2.66891e-05
-2.16916e-05
-1.69541e-05
-1.24474e-05
-8.08624e-06
-3.74406e-06
7.0656e-07
5.39108e-06
1.03659e-05
1.56929e-05
2.13184e-05
2.71636e-05
3.31046e-05
3.89402e-05
4.447e-05
4.95357e-05
5.3954e-05
5.76308e-05
6.04939e-05
6.25133e-05
6.36901e-05
6.40302e-05
6.35491e-05
6.22319e-05
6.00988e-05
5.71269e-05
5.3306e-05
4.86144e-05
4.30558e-05
3.66434e-05
2.92794e-05
2.10428e-05
1.21161e-05
2.83553e-06
-6.52824e-06
-1.56578e-05
-2.41981e-05
-3.19647e-05
-3.88073e-05
-4.46764e-05
-4.95191e-05
-5.33617e-05
-5.62198e-05
-5.81429e-05
-5.91398e-05
-5.92533e-05
-5.85357e-05
-5.70417e-05
-5.48237e-05
-5.19591e-05
-4.85333e-05
-4.46505e-05
-4.04161e-05
-3.59327e-05
-3.13382e-05
-2.67205e-05
-2.21657e-05
-1.77462e-05
-1.35353e-05
-9.52365e-06
-5.71707e-06
-2.06047e-06
1.51838e-06
5.11725e-06
8.83002e-06
1.27383e-05
1.68806e-05
2.12667e-05
2.58561e-05
3.06054e-05
3.54153e-05
4.01752e-05
4.47625e-05
4.90509e-05
5.29176e-05
5.62479e-05
5.8948e-05
6.09446e-05
6.21888e-05
6.26487e-05
6.23156e-05
6.11351e-05
5.91146e-05
5.62386e-05
5.26109e-05
4.81284e-05
4.27175e-05
3.65122e-05
2.95456e-05
2.18748e-05
1.36965e-05
5.27615e-06
-3.15401e-06
-1.12022e-05
-1.85344e-05
-2.49264e-05
-3.02523e-05
-3.44409e-05
-3.75066e-05
-3.9471e-05
-4.03742e-05
-4.03721e-05
-3.95008e-05
-3.78956e-05
-3.57369e-05
-3.31633e-05
-3.05021e-05
-2.79284e-05
-2.53787e-05
-2.26783e-05
-2.0576e-05
-1.86592e-05
-1.67003e-05
-1.48379e-05
-1.30099e-05
-1.12176e-05
-9.46626e-06
-7.71241e-06
-5.88135e-06
-4.01629e-06
-2.14854e-06
-2.77368e-07
1.60423e-06
3.50315e-06
5.42865e-06
7.39194e-06
9.40417e-06
1.14749e-05
1.36113e-05
1.58171e-05
1.80925e-05
2.04336e-05
2.2832e-05
2.52746e-05
2.77434e-05
3.02148e-05
3.26599e-05
3.50448e-05
3.73325e-05
3.94851e-05
4.14648e-05
4.3226e-05
4.47024e-05
4.5795e-05
4.62948e-05
4.63591e-05
-1.82484e-05
-1.8215e-05
-1.81137e-05
-1.79212e-05
-1.76858e-05
-1.74537e-05
-1.7263e-05
-1.7143e-05
-1.71153e-05
-1.71949e-05
-1.73894e-05
-1.77032e-05
-1.814e-05
-1.86993e-05
-1.93809e-05
-2.01854e-05
-2.11138e-05
-2.21675e-05
-2.33496e-05
-2.46642e-05
-2.61168e-05
-2.77143e-05
-2.94652e-05
-3.13808e-05
-3.34722e-05
-3.57533e-05
-3.8241e-05
-4.09532e-05
-4.39114e-05
-4.71446e-05
-5.06686e-05
-5.44046e-05
-5.81882e-05
-6.19211e-05
-6.56031e-05
-6.91277e-05
-7.22138e-05
-7.45788e-05
-7.60012e-05
-7.66221e-05
-7.65728e-05
-7.57033e-05
-7.39369e-05
-7.15216e-05
-6.85251e-05
-6.50103e-05
-6.10462e-05
-5.66842e-05
-5.20102e-05
-4.71172e-05
-4.21077e-05
-3.71043e-05
-3.21857e-05
-2.74382e-05
-2.29249e-05
-1.86756e-05
-1.46807e-05
-1.09088e-05
-7.28192e-06
-3.69166e-06
-2.43563e-08
3.82785e-06
7.92881e-06
1.23395e-05
1.70453e-05
2.20024e-05
2.71345e-05
3.22953e-05
3.7316e-05
4.20552e-05
4.63249e-05
5.00073e-05
5.29967e-05
5.52272e-05
5.66737e-05
5.73215e-05
5.71795e-05
5.62226e-05
5.44729e-05
5.19188e-05
4.85328e-05
4.43507e-05
3.9381e-05
3.34878e-05
2.66515e-05
1.89613e-05
1.07308e-05
2.2293e-06
-6.37406e-06
-1.4767e-05
-2.26e-05
-2.96675e-05
-3.58286e-05
-4.10502e-05
-4.52861e-05
-4.85714e-05
-5.09441e-05
-5.24096e-05
-5.30234e-05
-5.28262e-05
-5.187e-05
-5.02175e-05
-4.79331e-05
-4.5106e-05
-4.18295e-05
-3.82097e-05
-3.43461e-05
-3.03319e-05
-2.62854e-05
-2.22748e-05
-1.83678e-05
-1.46184e-05
-1.10737e-05
-7.72006e-06
-4.55076e-06
-1.51295e-06
1.4598e-06
4.4549e-06
7.55374e-06
1.08336e-05
1.43299e-05
1.80639e-05
2.20039e-05
2.61301e-05
3.03549e-05
3.45939e-05
3.8741e-05
4.2678e-05
4.62887e-05
4.9457e-05
5.20847e-05
5.40857e-05
5.54e-05
5.59796e-05
5.57921e-05
5.48383e-05
5.30902e-05
5.05347e-05
4.7232e-05
4.30912e-05
3.81673e-05
3.24532e-05
2.5948e-05
1.88602e-05
1.13947e-05
3.71546e-06
-3.93843e-06
-1.11662e-05
-1.76624e-05
-2.32286e-05
-2.77657e-05
-3.12238e-05
-3.36434e-05
-3.50702e-05
-3.55885e-05
-3.5292e-05
-3.42715e-05
-3.26657e-05
-3.0625e-05
-2.8256e-05
-2.58877e-05
-2.36771e-05
-2.15023e-05
-1.92284e-05
-1.7471e-05
-1.58711e-05
-1.42392e-05
-1.2682e-05
-1.11315e-05
-9.58995e-06
-8.06497e-06
-6.52007e-06
-4.89287e-06
-3.22124e-06
-1.5334e-06
1.70049e-07
1.89434e-06
3.64493e-06
5.42946e-06
7.25727e-06
9.1375e-06
1.10776e-05
1.30826e-05
1.51541e-05
1.72898e-05
1.94829e-05
2.17217e-05
2.39893e-05
2.62628e-05
2.85137e-05
3.07071e-05
3.28031e-05
3.47588e-05
3.65315e-05
3.80833e-05
3.93802e-05
4.03933e-05
4.11035e-05
4.13414e-05
4.12726e-05
-1.62406e-05
-1.61981e-05
-1.61208e-05
-1.59864e-05
-1.58249e-05
-1.56683e-05
-1.55455e-05
-1.54801e-05
-1.54909e-05
-1.55908e-05
-1.57881e-05
-1.60878e-05
-1.64936e-05
-1.70068e-05
-1.76287e-05
-1.83597e-05
-1.92017e-05
-2.01575e-05
-2.12297e-05
-2.24225e-05
-2.37411e-05
-2.51917e-05
-2.67815e-05
-2.85211e-05
-3.04215e-05
-3.24939e-05
-3.47522e-05
-3.72113e-05
-3.98893e-05
-4.28119e-05
-4.59911e-05
-4.93434e-05
-5.27184e-05
-5.6036e-05
-5.93127e-05
-6.24375e-05
-6.51319e-05
-6.71458e-05
-6.83021e-05
-6.87207e-05
-6.85142e-05
-6.75309e-05
-6.56957e-05
-6.3266e-05
-6.03397e-05
-5.6986e-05
-5.32425e-05
-4.91866e-05
-4.49081e-05
-4.04954e-05
-3.60417e-05
-3.1653e-05
-2.73902e-05
-2.33221e-05
-1.94918e-05
-1.59168e-05
-1.25813e-05
-9.45431e-06
-6.46595e-06
-3.52442e-06
-5.29945e-07
2.60739e-06
5.95258e-06
9.56161e-06
1.3443e-05
1.75768e-05
2.19204e-05
2.63741e-05
3.08058e-05
3.51003e-05
3.90859e-05
4.26391e-05
4.56377e-05
4.79882e-05
4.96388e-05
5.05514e-05
5.07193e-05
5.01082e-05
4.87365e-05
4.66064e-05
4.36505e-05
3.98951e-05
3.53852e-05
3.00388e-05
2.38992e-05
1.69794e-05
9.48092e-06
1.6667e-06
-6.23422e-06
-1.38561e-05
-2.09311e-05
-2.72722e-05
-3.27446e-05
-3.73272e-05
-4.0982e-05
-4.37479e-05
-4.56646e-05
-4.67273e-05
-4.70119e-05
-4.65562e-05
-4.54175e-05
-4.36697e-05
-4.13879e-05
-3.86682e-05
-3.56053e-05
-3.23e-05
-2.88403e-05
-2.53074e-05
-2.17986e-05
-1.83646e-05
-1.50571e-05
-1.19147e-05
-8.96465e-06
-6.19135e-06
-3.57965e-06
-1.08123e-06
1.36379e-06
3.832e-06
6.39342e-06
9.11783e-06
1.20384e-05
1.51814e-05
1.85246e-05
2.20631e-05
2.57251e-05
2.94464e-05
3.31384e-05
3.66955e-05
4.00114e-05
4.29728e-05
4.54811e-05
4.74424e-05