/*--------------------------------*- C++ -*----------------------------------*\
| =========                 |                                                 |
| \\      /  F ield         | OpenFOAM: The Open Source CFD Toolbox           |
|  \\    /   O peration     | Version:  2506                                  |
|   \\  /    A nd           | Website:  www.openfoam.com                      |
|    \\/     M anipulation  |                                                 |
\*---------------------------------------------------------------------------*/
FoamFile
{
    version     2.0;
    format      ascii;
    arch        "LSB;label=32;scalar=64";
    class       surfaceScalarField;
    location    "4";
    object      phi;
}
// * * * * * * * * * * * * * * * * * * * * * * * * * * * * * * * * * * * * * //

dimensions      [0 3 -1 0 0 0 0];

oriented        oriented;

internalField   nonuniform List<scalar> 
7780
(
6.12341e-10
-6.12341e-10
1.04763e-09
-4.35288e-10
1.29405e-09
-2.46426e-10
1.45517e-09
-1.61112e-10
1.56797e-09
-1.12802e-10
1.65066e-09
-8.26937e-11
1.7149e-09
-6.42416e-11
1.7673e-09
-5.23934e-11
1.81152e-09
-4.42197e-11
1.84981e-09
-3.82939e-11
1.88366e-09
-3.38465e-11
1.91406e-09
-3.04071e-11
1.94174e-09
-2.76785e-11
1.96721e-09
-2.54702e-11
1.99087e-09
-2.36571e-11
2.01303e-09
-2.21563e-11
2.03394e-09
-2.09156e-11
2.05385e-09
-1.99062e-11
2.07296e-09
-1.91162e-11
2.09151e-09
-1.85449e-11
2.10971e-09
-1.82047e-11
2.12783e-09
-1.81196e-11
2.14616e-09
-1.83294e-11
2.16506e-09
-1.88986e-11
2.18499e-09
-1.99269e-11
2.20655e-09
-2.15593e-11
2.23057e-09
-2.40202e-11
2.25825e-09
-2.76857e-11
2.29143e-09
-3.31768e-11
2.33297e-09
-4.15379e-11
2.37643e-09
-8.84294e-11
2.37557e-09
-3.1633e-10
2.32865e-09
-6.13637e-10
2.25096e-09
-8.92039e-10
2.15179e-09
-1.13329e-09
2.04907e-09
-1.35189e-09
1.9548e-09
-1.55797e-09
1.8199e-09
-1.80749e-09
1.66182e-09
-1.9676e-09
1.52824e-09
-2.03649e-09
1.41738e-09
-2.08972e-09
1.33022e-09
-2.13314e-09
1.26134e-09
-2.16314e-09
1.2068e-09
-2.18174e-09
1.16336e-09
-2.1898e-09
1.12712e-09
-2.18652e-09
1.09679e-09
-2.17094e-09
1.068e-09
-2.14325e-09
1.03711e-09
-2.10152e-09
9.9963e-10
-2.04302e-09
9.53837e-10
-1.96393e-09
9.0564e-10
-1.85997e-09
8.4784e-10
-1.73422e-09
7.97377e-10
-1.57172e-09
7.62268e-10
-1.37301e-09
7.70146e-10
-1.12145e-09
8.30781e-10
-8.26111e-10
9.67109e-10
-4.5834e-10
1.16398e-09
-4.15168e-11
1.37601e-09
3.84781e-10
1.57414e-09
7.79941e-10
1.75003e-09
1.14328e-09
1.88546e-09
1.40344e-09
1.9995e-09
1.62614e-09
2.08991e-09
1.77651e-09
2.16672e-09
1.89662e-09
2.23386e-09
1.98982e-09
2.29311e-09
2.05492e-09
2.34718e-09
2.10418e-09
2.39717e-09
2.14127e-09
2.44462e-09
2.16849e-09
2.48969e-09
2.18505e-09
2.53291e-09
2.19275e-09
2.57482e-09
2.1926e-09
2.61569e-09
2.18482e-09
2.65578e-09
2.16901e-09
2.69519e-09
2.14439e-09
2.73357e-09
2.10461e-09
2.77143e-09
2.05567e-09
2.80847e-09
1.99271e-09
2.84494e-09
1.9103e-09
2.87778e-09
1.78627e-09
2.90883e-09
1.64756e-09
2.93343e-09
1.44138e-09
2.95185e-09
1.19881e-09
2.95616e-09
8.45463e-10
2.94812e-09
4.53468e-10
2.92653e-09
1.32839e-11
2.89601e-09
-4.5046e-10
2.86246e-09
-8.65959e-10
2.83472e-09
-1.19133e-09
2.81241e-09
-1.47298e-09
2.79788e-09
-1.66539e-09
2.78646e-09
-1.83112e-09
2.77528e-09
-1.936e-09
2.75908e-09
-2.0147e-09
2.73563e-09
-2.07927e-09
2.70317e-09
-2.11663e-09
2.66241e-09
-2.14339e-09
2.61427e-09
-2.16135e-09
2.56059e-09
-2.17258e-09
2.50406e-09
-2.17873e-09
2.4461e-09
-2.17786e-09
2.38768e-09
-2.17017e-09
2.32824e-09
-2.15425e-09
2.2663e-09
-2.12852e-09
2.19969e-09
-2.09124e-09
2.12538e-09
-2.03656e-09
2.0419e-09
-1.96217e-09
1.94669e-09
-1.8725e-09
1.8382e-09
-1.75983e-09
1.7233e-09
-1.59574e-09
1.60142e-09
-1.41955e-09
1.49122e-09
-1.16411e-09
1.40152e-09
-8.81077e-10
1.35651e-09
-5.24286e-10
1.37069e-09
-1.14975e-10
1.4318e-09
2.95933e-10
1.52078e-09
6.85236e-10
1.62328e-09
1.05103e-09
1.71432e-09
1.3305e-09
1.79669e-09
1.55818e-09
1.86725e-09
1.72315e-09
1.93125e-09
1.86279e-09
1.98772e-09
1.95651e-09
2.03923e-09
2.02931e-09
2.08802e-09
2.08796e-09
2.13463e-09
2.13045e-09
2.1794e-09
2.15948e-09
2.22322e-09
2.17891e-09
2.2666e-09
2.18993e-09
2.31008e-09
2.19296e-09
2.35394e-09
2.18817e-09
2.39824e-09
2.17403e-09
2.44391e-09
2.15123e-09
2.49078e-09
2.1194e-09
2.53946e-09
2.07635e-09
2.59032e-09
2.02044e-09
2.64179e-09
1.93586e-09
2.69574e-09
1.83809e-09
2.75125e-09
1.7148e-09
2.8043e-09
1.52591e-09
2.85655e-09
1.31749e-09
2.89944e-09
1.00692e-09
2.93303e-09
6.45353e-10
2.9532e-09
2.26898e-10
2.96084e-09
-2.36709e-10
2.95932e-09
-6.8418e-10
2.95772e-09
-1.04811e-09
2.95739e-09
-1.35409e-09
2.96009e-09
-1.58972e-09
2.96426e-09
-1.76494e-09
2.96755e-09
-1.88863e-09
2.96445e-09
-1.99293e-09
2.95238e-09
-2.05475e-09
2.92978e-09
-2.09954e-09
2.89584e-09
-2.13064e-09
2.85141e-09
-2.15382e-09
2.79818e-09
-2.16605e-09
2.72936e-09
-2.16265e-09
2.64334e-09
-2.15013e-09
2.54283e-09
-2.13304e-09
2.42612e-09
-2.10688e-09
2.31185e-09
-1.68291e-09
2.19785e-09
-1.46181e-09
2.08469e-09
-1.27701e-09
1.97775e-09
-1.03749e-09
1.88962e-09
-7.81863e-10
1.83255e-09
-4.92406e-10
1.81715e-09
-1.9875e-10
1.82551e-09
-1.73285e-11
1.82856e-09
-3.05155e-12
1.83094e-09
-2.37672e-12
1.83457e-09
-3.63285e-12
1.83953e-09
-4.95694e-12
1.84532e-09
-5.78669e-12
1.85122e-09
-5.90446e-12
1.85667e-09
-5.45002e-12
1.86119e-09
-4.51798e-12
1.86443e-09
-3.24014e-12
1.86618e-09
-1.7495e-12
1.8663e-09
-1.1665e-13
1.865e-09
1.29998e-12
1.8623e-09
2.69947e-12
1.85824e-09
4.05695e-12
1.85285e-09
5.38866e-12
1.84611e-09
6.73876e-12
1.8379e-09
8.21095e-12
1.82792e-09
9.98131e-12
1.81569e-09
1.22321e-11
1.80048e-09
1.52106e-11
1.78116e-09
1.93201e-11
1.75591e-09
2.52432e-11
1.72168e-09
3.42379e-11
1.67268e-09
4.89987e-11
1.59714e-09
7.55356e-11
1.46962e-09
1.27521e-10
1.23033e-09
2.39289e-10
7.40713e-10
4.89619e-10
7.40713e-10
-5.13122e-11
-5.61028e-10
1.00187e-10
-5.86787e-10
3.01535e-10
-4.47774e-10
4.80626e-10
-3.40203e-10
6.33379e-10
-2.65556e-10
7.63247e-10
-2.12561e-10
8.74013e-10
-1.75008e-10
9.69351e-10
-1.47732e-10
1.05229e-09
-1.27163e-10
1.12518e-09
-1.11181e-10
1.1898e-09
-9.84678e-11
1.24753e-09
-8.81365e-11
1.29943e-09
-7.95732e-11
1.34631e-09
-7.23583e-11
1.38886e-09
-6.61986e-11
1.42758e-09
-6.0884e-11
1.46294e-09
-5.62732e-11
1.49532e-09
-5.22848e-11
1.52509e-09
-4.88828e-11
1.55261e-09
-4.60644e-11
1.57826e-09
-4.38551e-11
1.60245e-09
-4.23084e-11
1.62563e-09
-4.15177e-11
1.64837e-09
-4.16381e-11
1.67135e-09
-4.28994e-11
1.69542e-09
-4.56327e-11
1.72171e-09
-5.03152e-11
1.7517e-09
-5.76709e-11
1.78738e-09
-6.88622e-11
1.83163e-09
-8.57794e-11
1.87927e-09
-1.36071e-10
1.89168e-09
-3.28747e-10
1.85867e-09
-5.80622e-10
1.78843e-09
-8.21802e-10
1.69143e-09
-1.03628e-09
1.58462e-09
-1.24508e-09
1.47654e-09
-1.44989e-09
1.33971e-09
-1.67066e-09
1.19112e-09
-1.81901e-09
1.06485e-09
-1.91022e-09
9.62738e-10
-1.98761e-09
8.82623e-10
-2.05302e-09
8.20286e-10
-2.1008e-09
7.71971e-10
-2.13342e-09
7.33639e-10
-2.15147e-09
7.01037e-10
-2.15392e-09
6.71058e-10
-2.14096e-09
6.38787e-10
-2.11098e-09
5.99676e-10
-2.0624e-09
5.50257e-10
-1.9936e-09
4.88787e-10
-1.90246e-09
4.18329e-10
-1.78951e-09
3.36095e-10
-1.65199e-09
2.54151e-10
-1.48978e-09
1.82023e-10
-1.30088e-09
1.42104e-10
-1.08153e-09
1.4945e-10
-8.33457e-10
2.34738e-10
-5.43629e-10
4.06485e-10
-2.13265e-10
6.47409e-10
1.43855e-10
9.23044e-10
5.04305e-10
1.20214e-09
8.64187e-10
1.44528e-09
1.16031e-09
1.6507e-09
1.42073e-09
1.81437e-09
1.61283e-09
1.94549e-09
1.76549e-09
2.05155e-09
1.88375e-09
2.13797e-09
1.96847e-09
2.21051e-09
2.03163e-09
2.27293e-09
2.07885e-09
2.32856e-09
2.11287e-09
2.3789e-09
2.13474e-09
2.42532e-09
2.14635e-09
2.469e-09
2.14893e-09
2.51066e-09
2.14316e-09
2.55082e-09
2.12885e-09
2.5897e-09
2.1055e-09
2.62701e-09
2.0673e-09
2.6633e-09
2.01937e-09
2.69842e-09
1.95759e-09
2.73259e-09
1.87612e-09
2.76313e-09
1.75573e-09
2.79194e-09
1.61876e-09
2.81553e-09
1.41779e-09
2.83514e-09
1.1792e-09
2.8467e-09
8.33906e-10
2.85453e-09
4.45638e-10
2.8594e-09
8.41162e-12
2.86523e-09
-4.56283e-10
2.8733e-09
-8.74034e-10
2.88553e-09
-1.20356e-09
2.89748e-09
-1.48494e-09
2.90639e-09
-1.67429e-09
2.90725e-09
-1.83198e-09
2.89762e-09
-1.92637e-09
2.87578e-09
-1.99288e-09
2.84208e-09
-2.04556e-09
2.79715e-09
-2.0717e-09
2.74368e-09
-2.08992e-09
2.68463e-09
-2.10229e-09
2.62291e-09
-2.11085e-09
2.56011e-09
-2.11594e-09
2.49674e-09
-2.11449e-09
2.43205e-09
-2.1055e-09
2.36391e-09
-2.08611e-09
2.28953e-09
-2.05414e-09
2.20599e-09
-2.0077e-09
2.11026e-09
-1.94084e-09
2.00162e-09
-1.85352e-09
1.87887e-09
-1.74974e-09
1.74281e-09
-1.62376e-09
1.5991e-09
-1.45203e-09
1.44983e-09
-1.27028e-09
1.30728e-09
-1.02155e-09
1.17893e-09
-7.52725e-10
1.08083e-09
-4.26193e-10
1.03164e-09
-6.5782e-11
1.03782e-09
2.89751e-10
1.09894e-09
6.24117e-10
1.20567e-09
9.44303e-10
1.32955e-09
1.20662e-09
1.45439e-09
1.43333e-09
1.56813e-09
1.60941e-09
1.6704e-09
1.76052e-09
1.75916e-09
1.86776e-09
1.83651e-09
1.95196e-09
1.90545e-09
2.01901e-09
1.96757e-09
2.06833e-09
2.02406e-09
2.10299e-09
2.07651e-09
2.12646e-09
2.12611e-09
2.14033e-09
2.17394e-09
2.14513e-09
2.2207e-09
2.1414e-09
2.26677e-09
2.12796e-09
2.31323e-09
2.10477e-09
2.36021e-09
2.07242e-09
2.40842e-09
2.02814e-09
2.45824e-09
1.97062e-09
2.5083e-09
1.88581e-09
2.56056e-09
1.78582e-09
2.61448e-09
1.66089e-09
2.66703e-09
1.47336e-09
2.72037e-09
1.26414e-09
2.76934e-09
9.57947e-10
2.81664e-09
5.98053e-10
2.86097e-09
1.8257e-10
2.904e-09
-2.79744e-10
2.94607e-09
-7.26242e-10
2.98897e-09
-1.09101e-09
3.02852e-09
-1.39365e-09
3.06195e-09
-1.62315e-09
3.08436e-09
-1.78735e-09
3.09277e-09
-1.89702e-09
3.0854e-09
-1.98555e-09
3.06242e-09
-2.03175e-09
3.02496e-09
-2.06205e-09
2.97536e-09
-2.08102e-09
2.91657e-09
-2.09505e-09
2.85138e-09
-2.10087e-09
2.77224e-09
-2.08356e-09
2.67721e-09
-2.05514e-09
2.57189e-09
-2.02774e-09
2.45627e-09
-1.99125e-09
2.34249e-09
-1.56911e-09
2.22464e-09
-1.34394e-09
2.10229e-09
-1.15464e-09
1.97931e-09
-9.1451e-10
1.86678e-09
-6.69328e-10
1.77173e-09
-3.97363e-10
1.70384e-09
-1.30865e-10
1.66359e-09
2.29193e-11
1.6357e-09
2.48418e-11
1.61773e-09
1.55915e-11
1.60774e-09
6.35533e-12
1.6034e-09
-6.12221e-13
1.60234e-09
-4.72503e-12
1.60256e-09
-6.12336e-12
1.60248e-09
-5.36967e-12
1.60094e-09
-2.98055e-12
1.59714e-09
5.56765e-13
1.59057e-09
4.81778e-12
1.58102e-09
9.43837e-12
1.56833e-09
1.39863e-11
1.55261e-09
1.84195e-11
1.53399e-09
2.26809e-11
1.51254e-09
2.68416e-11
1.48811e-09
3.11631e-11
1.46033e-09
3.59926e-11
1.42854e-09
4.17671e-11
1.39166e-09
4.91122e-11
1.34796e-09
5.89182e-11
1.2948e-09
7.24739e-11
1.22824e-09
9.18017e-11
1.14199e-09
1.20487e-10
1.02601e-09
1.64982e-10
8.64822e-10
2.36725e-10
6.37277e-10
3.55065e-10
3.30659e-10
5.45907e-10
2.96609e-11
7.90617e-10
7.70374e-10
-1.20061e-10
-4.40967e-10
-1.20069e-10
-5.86779e-10
-3.10325e-11
-5.36811e-10
9.01452e-11
-4.6138e-10
2.17056e-10
-3.92467e-10
3.39793e-10
-3.35297e-10
4.54025e-10
-2.8924e-10
5.58451e-10
-2.52157e-10
6.53255e-10
-2.21967e-10
7.39147e-10
-1.97073e-10
8.1696e-10
-1.7628e-10
8.87493e-10
-1.5867e-10
9.51464e-10
-1.43544e-10
1.0095e-09
-1.3039e-10
1.06212e-09
-1.18826e-10
1.10981e-09
-1.0857e-10
1.15296e-09
-9.94227e-11
1.19194e-09
-9.12648e-11
1.2271e-09
-8.40404e-11
1.25878e-09
-7.77462e-11
1.28735e-09
-7.24239e-11
1.3132e-09
-6.81636e-11
1.3368e-09
-6.51195e-11
1.3587e-09
-6.35377e-11
1.37958e-09
-6.37753e-11
1.40027e-09
-6.63253e-11
1.42183e-09
-7.18744e-11
1.44553e-09
-8.13733e-11
1.47291e-09
-9.62338e-11
1.50565e-09
-1.18527e-10
1.53921e-09
-1.69623e-10
1.54236e-09
-3.31903e-10
1.50405e-09
-5.42311e-10
1.43124e-09
-7.48993e-10
1.33587e-09
-9.40909e-10
1.23292e-09
-1.14213e-09
1.12924e-09
-1.34621e-09
1.00951e-09
-1.55093e-09
8.89923e-10
-1.69942e-09
7.92045e-10
-1.81234e-09
7.1526e-10
-1.91083e-09
6.55766e-10
-1.99353e-09
6.10139e-10
-2.05518e-09
5.74966e-10
-2.09825e-09
5.46242e-10
-2.12274e-09
5.19847e-10
-2.12753e-09
4.9219e-10
-2.1133e-09
4.58968e-10
-2.07776e-09
4.16556e-10
-2.01999e-09
3.62863e-10
-1.93991e-09
2.97789e-10
-1.83739e-09
2.23767e-10
-1.71549e-09
1.42437e-10
-1.57066e-09
6.2114e-11
-1.40946e-09
-7.87744e-12
-1.23089e-09
-5.27169e-11
-1.03669e-09
-6.11346e-11
-8.25039e-10
-1.33527e-11
-5.91411e-10
1.02355e-10
-3.28974e-10
2.85664e-10
-3.94529e-11
5.23519e-10
2.66453e-10
7.96274e-10
5.91439e-10
1.06785e-09
8.88742e-10
1.31952e-09
1.16907e-09
1.53599e-09
1.39636e-09
1.71642e-09
1.58505e-09
1.86336e-09
1.73678e-09
1.98184e-09
1.84998e-09
2.07803e-09
1.93543e-09
2.15707e-09
1.99982e-09
2.22383e-09
2.04613e-09
2.28134e-09
2.07725e-09
2.33209e-09
2.09561e-09
2.37816e-09
2.10286e-09
2.42106e-09
2.10025e-09
2.46191e-09
2.08798e-09
2.50143e-09
2.06597e-09
2.53969e-09
2.02904e-09
2.57736e-09
1.9817e-09
2.61464e-09
1.92032e-09
2.65207e-09
1.83869e-09
2.68788e-09
1.71993e-09
2.72417e-09
1.58247e-09
2.75951e-09
1.38245e-09
2.79541e-09
1.1433e-09
2.82916e-09
8.00161e-10
2.86324e-09
4.11557e-10
2.89697e-09
-2.53229e-11
2.93065e-09
-4.89957e-10
2.96049e-09
-9.03872e-10
2.98559e-09
-1.22867e-09
3.00153e-09
-1.50087e-09
3.00604e-09
-1.67881e-09
2.99661e-09
-1.82255e-09
2.97339e-09
-1.90315e-09
2.93626e-09
-1.95575e-09
2.88786e-09
-1.99715e-09
2.83086e-09
-2.0147e-09
2.76878e-09
-2.02783e-09
2.7043e-09
-2.0378e-09
2.63915e-09
-2.04568e-09
2.57384e-09
-2.05062e-09
2.50754e-09
-2.04819e-09
2.43803e-09
-2.03599e-09
2.36229e-09
-2.01039e-09
2.27754e-09
-1.9694e-09
2.18174e-09
-1.91191e-09
2.07352e-09
-1.83261e-09
1.95399e-09
-1.73399e-09
1.8242e-09
-1.61996e-09
1.6873e-09
-1.48685e-09
1.54907e-09
-1.31379e-09
1.41229e-09
-1.13351e-09
1.28604e-09
-8.95301e-10
1.17425e-09
-6.40939e-10
1.08415e-09
-3.36099e-10
1.02408e-09
-5.70699e-12
9.98944e-10
3.14886e-10
1.01157e-09
6.11495e-10
1.06314e-09
8.92728e-10
1.1484e-09
1.12137e-09
1.25391e-09
1.32783e-09
1.36545e-09
1.49787e-09
1.47573e-09
1.65024e-09
1.57786e-09
1.76563e-09
1.66977e-09
1.86004e-09
1.75208e-09
1.9367e-09
1.82572e-09
1.9947e-09
1.89174e-09
2.03698e-09
1.95168e-09
2.06652e-09
2.00699e-09
2.08503e-09
2.05907e-09
2.09305e-09
2.10903e-09
2.09144e-09
2.15765e-09
2.07934e-09
2.20628e-09
2.05613e-09
2.25549e-09
2.02321e-09
2.30638e-09
1.97725e-09
2.35968e-09
1.91732e-09
2.41469e-09
1.8308e-09
2.47335e-09
1.72716e-09
2.53607e-09
1.59817e-09
2.60209e-09
1.40735e-09
2.67313e-09
1.1931e-09
2.74591e-09
8.85167e-10
2.82172e-09
5.22246e-10
2.89846e-09
1.0583e-10
2.97431e-09
-3.5559e-10
3.04371e-09
-7.95649e-10
3.10415e-09
-1.15145e-09
3.15038e-09
-1.43988e-09
3.18032e-09
-1.6531e-09
3.19091e-09
-1.79793e-09
3.18285e-09
-1.88896e-09
3.15612e-09
-1.95881e-09
3.11382e-09
-1.98945e-09
3.05989e-09
-2.0081e-09
2.99761e-09
-2.01872e-09
2.93e-09
-2.02742e-09
2.85938e-09
-2.03026e-09
2.77752e-09
-2.00172e-09
2.68195e-09
-1.95962e-09
2.57903e-09
-1.92486e-09
2.46962e-09
-1.88185e-09
2.36705e-09
-1.46654e-09
2.26191e-09
-1.23877e-09
2.15445e-09
-1.04716e-09
2.04836e-09
-8.08406e-10
1.95389e-09
-5.74857e-10
1.8736e-09
-3.17076e-10
1.80948e-09
-6.67421e-11
1.76124e-09
7.11586e-11
1.72481e-09
6.12693e-11
1.69793e-09
4.24726e-11
1.67884e-09
2.54398e-11
1.66559e-09
1.26389e-11
1.65607e-09
4.79124e-12
1.64831e-09
1.64402e-12
1.64053e-09
2.41026e-12
1.63133e-09
6.21884e-12
1.61966e-09
1.22217e-11
1.6049e-09
1.95812e-11
1.58662e-09
2.77166e-11
1.56455e-09
3.6061e-11
1.53875e-09
4.42196e-11
1.50926e-09
5.21709e-11
1.47601e-09
6.00853e-11
1.43879e-09
6.83807e-11
1.3971e-09
7.76841e-11
1.35e-09
8.88715e-11
1.29596e-09
1.03148e-10
1.23273e-09
1.22147e-10
1.15698e-09
1.4823e-10
1.06371e-09
1.85073e-10
9.45669e-10
2.38526e-10
7.93127e-10
3.17525e-10
5.95728e-10
4.34123e-10
3.51533e-10
5.9926e-10
9.39732e-11
8.03466e-10
-6.71789e-11
9.51769e-10
7.03195e-10
-9.65991e-11
-3.44368e-10
-1.4609e-10
-5.37288e-10
-1.26543e-10
-5.56358e-10
-6.47031e-11
-5.2322e-10
1.92851e-11
-4.76455e-10
1.1227e-10
-4.28283e-10
2.06693e-10
-3.83663e-10
2.98476e-10
-3.4394e-10
3.85613e-10
-3.09104e-10
4.67224e-10
-2.78684e-10
5.43009e-10
-2.52065e-10
6.12969e-10
-2.2863e-10
6.77255e-10
-2.07831e-10
7.36084e-10
-1.89219e-10
7.89696e-10
-1.72438e-10
8.38339e-10
-1.57212e-10
8.82259e-10
-1.43343e-10
9.217e-10
-1.30706e-10
9.56908e-10
-1.19248e-10
9.88141e-10
-1.08979e-10
1.01569e-09
-9.99684e-11
1.03988e-09
-9.23539e-11
1.06112e-09
-8.636e-11
1.0799e-09
-8.23269e-11
1.09686e-09
-8.07312e-11
1.11275e-09
-8.2214e-11
1.12851e-09
-8.76383e-11
1.14527e-09
-9.81339e-11
1.16431e-09
-1.15266e-10
1.18693e-09
-1.41147e-10
1.20912e-09
-1.91821e-10
1.2047e-09
-3.27481e-10
1.16588e-09
-5.03492e-10
1.101e-09
-6.84112e-10
1.02225e-09
-8.62153e-10
9.40564e-10
-1.06045e-09
8.6034e-10
-1.26598e-09
7.71777e-10
-1.46237e-09
6.87911e-10
-1.61556e-09
6.21714e-10
-1.74614e-09
5.71093e-10
-1.86021e-09
5.32178e-10
-1.95461e-09
5.02363e-10
-2.02536e-09
4.78691e-10
-2.07458e-09
4.57538e-10
-2.10159e-09
4.35208e-10
-2.1052e-09
4.0839e-10
-2.08648e-09
3.73951e-10
-2.04332e-09
3.29912e-10
-1.97595e-09
2.75198e-10
-1.88519e-09
2.11193e-10
-1.77338e-09
1.40652e-10
-1.64495e-09
6.70611e-11
-1.49707e-09
-2.7724e-12
-1.33962e-09
-6.16502e-11
-1.17201e-09
-9.97247e-11
-9.98615e-10
-1.08659e-10
-8.16105e-10
-7.77233e-11
-6.22348e-10
2.04721e-12
-4.08745e-10
1.35523e-10
-1.72927e-10
3.19775e-10
8.22051e-11
5.49176e-10
3.62045e-10
8.00612e-10
6.3731e-10
1.05707e-09
9.12606e-10
1.29698e-09
1.15644e-09
1.51055e-09
1.37146e-09
1.69344e-09
1.55388e-09
1.84502e-09
1.6984e-09
1.96887e-09
1.81159e-09
2.06929e-09
1.89942e-09
2.15143e-09
1.96402e-09
2.21945e-09
2.00924e-09
2.27709e-09
2.03796e-09
2.32743e-09
2.05251e-09
2.37286e-09
2.0548e-09
2.41528e-09
2.04555e-09
2.45642e-09
2.02481e-09
2.49707e-09
1.98839e-09
2.53818e-09
1.94059e-09
2.58029e-09
1.87821e-09
2.62453e-09
1.79446e-09
2.66998e-09
1.67448e-09
2.71804e-09
1.53441e-09
2.76794e-09
1.33255e-09
2.82096e-09
1.09027e-09
2.87524e-09
7.45879e-10
2.93051e-09
3.56291e-10
2.98248e-09
-7.72937e-11
3.02866e-09
-5.36136e-10
3.06343e-09
-9.38647e-10
3.08584e-09
-1.25108e-09
3.09228e-09
-1.50732e-09
3.08272e-09
-1.66925e-09
3.05636e-09
-1.79619e-09
3.01548e-09
-1.86227e-09
2.96269e-09
-1.90297e-09
2.90176e-09
-1.93623e-09
2.83556e-09
-1.9485e-09
2.76759e-09
-1.95986e-09
2.70037e-09
-1.97057e-09
2.63359e-09
-1.9789e-09
2.56638e-09
-1.9834e-09
2.49637e-09
-1.97818e-09
2.4206e-09
-1.96023e-09
2.33614e-09
-1.92594e-09
2.24119e-09
-1.87446e-09
2.13539e-09
-1.80612e-09
2.01944e-09
-1.71667e-09
1.89642e-09
-1.61096e-09
1.76905e-09
-1.49259e-09
1.64148e-09
-1.35928e-09
1.5193e-09
-1.19161e-09
1.40513e-09
-1.01934e-09
1.30503e-09
-7.95196e-10
1.22098e-09
-5.56892e-10
1.1551e-09
-2.70218e-10
1.10851e-09
4.08797e-11
1.08001e-09
3.43391e-10
1.07374e-09
6.17765e-10
1.09297e-09
8.73494e-10
1.13814e-09
1.0762e-09
1.20654e-09
1.25942e-09
1.29218e-09
1.41224e-09
1.38738e-09
1.55503e-09
1.48381e-09
1.6692e-09
1.57631e-09
1.76754e-09
1.66273e-09
1.85027e-09
1.74185e-09
1.91559e-09
1.81353e-09
1.9653e-09
1.87868e-09
2.00137e-09
1.93845e-09
2.02525e-09
1.99433e-09
2.03717e-09
2.04766e-09
2.0381e-09
2.09964e-09
2.02737e-09
2.15192e-09
2.00385e-09
2.20542e-09
1.96971e-09
2.26169e-09
1.92098e-09
2.32185e-09
1.85716e-09
2.38619e-09
1.76646e-09
2.4566e-09
1.65674e-09
2.53347e-09
1.5213e-09
2.61679e-09
1.32403e-09
2.70768e-09
1.10221e-09
2.8039e-09
7.8894e-10
2.90418e-09
4.21966e-10
3.00232e-09
7.69119e-12
3.09308e-09
-4.46348e-10
3.16868e-09
-8.71246e-10
3.22608e-09
-1.20886e-09
3.2611e-09
-1.4749e-09
3.27365e-09
-1.66565e-09
3.26321e-09
-1.78749e-09
3.23297e-09
-1.85872e-09
3.18603e-09
-1.91187e-09
3.12752e-09
-1.93093e-09
3.06163e-09
-1.94219e-09
2.99176e-09
-1.94883e-09
2.92123e-09
-1.95686e-09
2.85092e-09
-1.95994e-09
2.77128e-09
-1.92209e-09
2.67914e-09
-1.86751e-09
2.58023e-09
-1.82599e-09
2.4746e-09
-1.77626e-09
2.38013e-09
-1.37207e-09
2.28543e-09
-1.14407e-09
2.19107e-09
-9.52789e-10
2.10148e-09
-7.18803e-10
2.02651e-09
-4.99882e-10
1.96721e-09
-2.57777e-10
1.92209e-09
-2.16194e-11
1.88638e-09
1.06866e-10
1.85578e-09
9.18665e-11
1.82932e-09
6.89341e-11
1.80661e-09
4.81487e-11
1.78702e-09
3.22329e-11
1.76955e-09
2.22549e-11
1.75307e-09
1.81317e-11
1.73634e-09
1.91366e-11
1.71826e-09
2.42997e-11
1.6979e-09
3.25827e-11
1.67452e-09
4.29571e-11
1.64766e-09
5.45782e-11
1.617e-09
6.67228e-11
1.58236e-09
7.88572e-11
1.54368e-09
9.0853e-11
1.5008e-09
1.02965e-10
1.45339e-09
1.1579e-10
1.40084e-09
1.30237e-10
1.34212e-09
1.47586e-10
1.27569e-09
1.69577e-10
1.19925e-09
1.98587e-10
1.10943e-09
2.38049e-10
1.00135e-09
2.93157e-10
8.68326e-10
3.71549e-10
7.02714e-10
4.83137e-10
5.00006e-10
6.36832e-10
2.70182e-10
8.29085e-10
5.8147e-11
1.0155e-09
-4.85818e-11
1.0585e-09
6.54614e-10
-7.01412e-11
-2.74227e-10
-1.29267e-10
-4.78163e-10
-1.45653e-10
-5.39972e-10
-1.26046e-10
-5.42827e-10
-8.17704e-11
-5.20731e-10
-2.24402e-11
-4.87613e-10
4.45078e-11
-4.50611e-10
1.14225e-10
-4.13658e-10
1.8371e-10
-3.78589e-10
2.51144e-10
-3.46118e-10
3.1544e-10
-3.16361e-10
3.75969e-10
-2.89159e-10
4.32391e-10
-2.64253e-10
4.84544e-10
-2.41372e-10
5.32374e-10
-2.20268e-10
5.759e-10
-2.00739e-10
6.15193e-10
-1.82635e-10
6.50354e-10
-1.65867e-10
6.81515e-10
-1.5041e-10
7.08843e-10
-1.36307e-10
7.32548e-10
-1.23674e-10
7.52906e-10
-1.12712e-10
7.70274e-10
-1.03728e-10
7.85114e-10
-9.71661e-11
7.98011e-10
-9.36291e-11
8.09707e-10
-9.39095e-11
8.21108e-10
-9.90398e-11
8.3331e-10
-1.10336e-10
8.47568e-10
-1.29523e-10
8.65207e-10
-1.58787e-10
8.83176e-10
-2.0979e-10
8.8046e-10
-3.24765e-10
8.5266e-10
-4.75693e-10
8.08247e-10
-6.39699e-10
7.57371e-10
-8.11277e-10
7.06032e-10
-1.00911e-09
6.56031e-10
-1.21598e-09
6.00532e-10
-1.40687e-09
5.49288e-10
-1.56431e-09
5.10104e-10
-1.70696e-09
4.8083e-10
-1.83093e-09
4.58184e-10
-1.93197e-09
4.40282e-10
-2.00746e-09
4.2464e-10
-2.05894e-09
4.08088e-10
-2.08504e-09
3.87614e-10
-2.08473e-09
3.60693e-10
-2.05956e-09
3.2528e-10
-2.00791e-09
2.80594e-10
-1.93127e-09
2.26932e-10
-1.83153e-09
1.6632e-10
-1.71277e-09
1.0178e-10
-1.58041e-09
3.73168e-11
-1.4326e-09
-2.1559e-11
-1.28075e-09
-6.93696e-11
-1.1242e-09
-9.98388e-11
-9.68146e-10
-1.07327e-10
-8.08617e-10
-8.48465e-11
-6.44828e-10
-2.59439e-11
-4.67647e-10
7.46173e-11
-2.73486e-10
2.18642e-10
-6.18158e-11
4.06347e-10
1.74343e-10
6.2669e-10
4.16965e-10
8.67867e-10
6.71418e-10
1.1111e-09
9.13192e-10
1.3427e-09
1.13985e-09
1.55333e-09
1.34325e-09
1.73667e-09
1.51506e-09
1.89157e-09
1.65671e-09
2.01928e-09
1.77173e-09
2.12341e-09
1.85991e-09
2.20779e-09
1.92486e-09
2.27676e-09
1.96897e-09
2.33449e-09
1.99477e-09
2.38474e-09
2.00454e-09
2.43041e-09
1.99989e-09
2.47348e-09
1.98174e-09
2.51626e-09
1.94561e-09
2.56025e-09
1.8966e-09
2.60633e-09
1.83214e-09
2.65628e-09
1.74451e-09
2.70993e-09
1.62082e-09
2.76839e-09
1.47595e-09
2.83096e-09
1.26998e-09
2.89734e-09
1.02389e-09
2.96448e-09
6.78744e-10
3.02992e-09
2.9085e-10
3.08733e-09
-1.34702e-10
3.13303e-09
-5.81833e-10
3.16092e-09
-9.6654e-10
3.17092e-09
-1.26107e-09
3.16068e-09
-1.49708e-09
3.13219e-09
-1.64076e-09
3.08669e-09
-1.75069e-09
3.02878e-09
-1.80436e-09
2.96214e-09
-1.83633e-09
2.89067e-09
-1.86476e-09
2.81809e-09
-1.87592e-09
2.74712e-09
-1.88889e-09
2.67819e-09
-1.90164e-09
2.6096e-09
-1.9103e-09
2.53887e-09
-1.91266e-09
2.46282e-09
-1.90212e-09
2.37858e-09
-1.87599e-09
2.28426e-09
-1.83161e-09
2.17972e-09
-1.76992e-09
2.06654e-09
-1.69295e-09
1.94726e-09
-1.59739e-09
1.82619e-09
-1.4899e-09
1.70667e-09
-1.37307e-09
1.5926e-09
-1.2452e-09
1.48875e-09
-1.08776e-09
1.39655e-09
-9.27139e-10
1.32018e-09
-7.1883e-10
1.26029e-09
-4.96997e-10
1.21755e-09
-2.27473e-10
1.19187e-09
6.6552e-11
1.17922e-09
3.56046e-10
1.1793e-09
6.17683e-10
1.19234e-09
8.60452e-10
1.22081e-09
1.04773e-09
1.266e-09
1.21424e-09
1.32775e-09
1.35048e-09
1.40207e-09
1.48071e-09
1.48448e-09
1.58679e-09
1.56966e-09
1.68236e-09
1.65396e-09
1.76597e-09
1.73444e-09
1.83512e-09
1.80938e-09
1.89036e-09
1.87852e-09
1.93223e-09
1.94221e-09
1.96156e-09
2.00162e-09
1.97776e-09
2.05818e-09
1.98154e-09
2.11357e-09
1.97197e-09
2.1699e-09
1.94753e-09
2.22789e-09
1.91172e-09
2.28934e-09
1.85953e-09
2.35608e-09
1.79042e-09
2.42936e-09
1.69318e-09
2.51078e-09
1.57533e-09
2.60062e-09
1.43145e-09
2.69922e-09
1.22543e-09
2.8057e-09
9.95732e-10
2.91651e-09
6.78125e-10
3.02817e-09
3.10309e-10
3.132e-09
-9.61376e-11
3.22134e-09
-5.35691e-10
3.28786e-09
-9.3777e-10
3.32946e-09
-1.25046e-09
3.34362e-09
-1.48907e-09
3.33212e-09
-1.65415e-09
3.29768e-09
-1.75305e-09
3.24639e-09
-1.80743e-09
3.18252e-09
-1.84801e-09
3.11179e-09
-1.86019e-09
3.03915e-09
-1.86955e-09
2.96777e-09
-1.87742e-09
2.89887e-09
-1.88794e-09
2.83149e-09
-1.89254e-09
2.75508e-09
-1.84566e-09
2.66567e-09
-1.77811e-09
2.56805e-09
-1.72839e-09
2.46168e-09
-1.66992e-09
2.36959e-09
-1.28001e-09
2.27951e-09
-1.05399e-09
2.19228e-09
-8.65556e-10
2.11301e-09
-6.39526e-10
2.05083e-09
-4.37696e-10
2.00649e-09
-2.13433e-10
1.97784e-09
7.03639e-12
1.95685e-09
1.27859e-10
1.93558e-09
1.13134e-10
1.91338e-09
9.11317e-11
1.89053e-09
7.09962e-11
1.86738e-09
5.53825e-11
1.84401e-09
4.56258e-11
1.82019e-09
4.19528e-11
1.79543e-09
4.38978e-11
1.7691e-09
5.06272e-11
1.74056e-09
6.1123e-11
1.70921e-09
7.4308e-11
1.67459e-09
8.9203e-11
1.63633e-09
1.04975e-10
1.59417e-09
1.21023e-10
1.54785e-09
1.37171e-10
1.4971e-09
1.53719e-10
1.44149e-09
1.71399e-10
1.38038e-09
1.91345e-10
1.31282e-09
2.15148e-10
1.23741e-09
2.4498e-10
1.15216e-09
2.83843e-10
1.05411e-09
3.36095e-10
9.39102e-10
4.08167e-10
8.01748e-10
5.08903e-10
6.36842e-10
6.48043e-10
4.44065e-10
8.29608e-10
2.37983e-10
1.03517e-09
6.03178e-11
1.19317e-09
-2.50964e-11
1.14391e-09
6.29517e-10
-4.96218e-11
-2.24605e-10
-1.05618e-10
-4.22167e-10
-1.38786e-10
-5.06803e-10
-1.45541e-10
-5.36072e-10
-1.30663e-10
-5.35609e-10
-1.00005e-10
-5.18271e-10
-5.90953e-11
-4.9152e-10
-1.23724e-11
-4.60381e-10
3.70341e-11
-4.27995e-10
8.69676e-11
-3.96052e-10
1.35968e-10
-3.65362e-10
1.8306e-10
-3.36251e-10
2.27598e-10
-3.08791e-10
2.69164e-10
-2.82938e-10
3.075e-10
-2.58604e-10
3.4246e-10
-2.35699e-10
3.73979e-10
-2.14155e-10
4.02057e-10
-1.93944e-10
4.26745e-10
-1.75098e-10
4.4815e-10
-1.57712e-10
4.66445e-10
-1.41968e-10
4.81879e-10
-1.28147e-10
4.94802e-10
-1.16651e-10
5.05683e-10
-1.08047e-10
5.15127e-10
-1.03074e-10
5.23909e-10
-1.02691e-10
5.32971e-10
-1.08102e-10
5.43453e-10
-1.20818e-10
5.56664e-10
-1.42733e-10
5.74005e-10
-1.76128e-10
5.93521e-10
-2.29307e-10
5.9959e-10
-3.30834e-10
5.89846e-10
-4.65949e-10
5.71012e-10
-6.20865e-10
5.49794e-10
-7.90059e-10
5.27945e-10
-9.87264e-10
5.05462e-10
-1.1935e-09
4.77724e-10
-1.37913e-09
4.51988e-10
-1.53858e-09
4.33166e-10
-1.68813e-09
4.19648e-10
-1.81741e-09
4.08704e-10
-1.92102e-09
3.98953e-10
-1.99771e-09
3.88357e-10
-2.04834e-09
3.7421e-10
-2.07089e-09
3.54201e-10
-2.06472e-09
3.26864e-10
-2.03223e-09
2.90949e-10
-1.972e-09
2.46679e-10
-1.887e-09
1.95237e-10
-1.78009e-09
1.38999e-10
-1.65653e-09
8.09958e-11
-1.5224e-09
2.50896e-11
-1.3767e-09
-2.44336e-11
-1.23122e-09
-6.35499e-11
-1.08508e-09
-8.82368e-11
-9.43459e-10
-9.46923e-11
-8.02162e-10
-7.85772e-11
-6.60943e-10
-3.49975e-11
-5.11226e-10
4.13909e-11
-3.49872e-10
1.5453e-10
-1.74952e-10
3.07617e-10
2.1255e-11
4.96642e-10
2.27933e-10
7.15266e-10
4.52784e-10
9.5047e-10
6.77978e-10
1.18961e-09
9.00713e-10
1.42023e-09
1.11263e-09
1.6327e-09
1.30261e-09
1.82121e-09
1.46821e-09
1.98294e-09
1.61e-09
2.1184e-09
1.72445e-09
2.22948e-09
1.81377e-09
2.31959e-09
1.87885e-09
2.3928e-09
1.92155e-09
2.45305e-09
1.94429e-09
2.50494e-09
1.94799e-09
2.55214e-09
1.93455e-09
2.59789e-09
1.89987e-09
2.64453e-09
1.84996e-09
2.69364e-09
1.78304e-09
2.74727e-09
1.69088e-09
2.80549e-09
1.5626e-09
2.86917e-09
1.41227e-09
2.9374e-09
1.20174e-09
3.00887e-09
9.52421e-10
3.0792e-09
6.0842e-10
3.14436e-09
2.25689e-10
3.19674e-09
-1.87088e-10
3.23224e-09
-6.17325e-10
3.245e-09
-9.79303e-10
3.23631e-09
-1.25239e-09
3.20485e-09
-1.46562e-09
3.15556e-09
-1.59147e-09
3.09133e-09
-1.68646e-09
3.018e-09
-1.73103e-09
2.94002e-09
-1.75835e-09
2.86151e-09
-1.78626e-09
2.7851e-09
-1.79951e-09
2.71241e-09
-1.81621e-09
2.64118e-09
-1.83041e-09
2.56889e-09
-1.838e-09
2.49197e-09
-1.83573e-09
2.4073e-09
-1.81744e-09
2.31305e-09
-1.78173e-09
2.209e-09
-1.72756e-09
2.0969e-09
-1.65782e-09
1.97993e-09
-1.57599e-09
1.86178e-09
-1.47925e-09
1.74702e-09
-1.37515e-09
1.6386e-09
-1.26465e-09
1.53939e-09
-1.14599e-09
1.45292e-09
-1.00129e-09
1.37919e-09
-8.53412e-10
1.32123e-09
-6.6087e-10
1.27892e-09
-4.54682e-10
1.253e-09
-2.01551e-10
1.24399e-09
7.55599e-11
1.248e-09
3.52038e-10
1.26308e-09
6.02598e-10
1.28674e-09
8.36794e-10
1.31867e-09
1.01581e-09
1.35991e-09
1.17299e-09
1.41228e-09
1.29811e-09
1.47518e-09
1.41781e-09
1.54788e-09
1.51408e-09
1.62685e-09
1.6034e-09
1.70869e-09
1.68414e-09
1.79036e-09
1.75345e-09
1.86915e-09
1.81157e-09
1.94363e-09
1.85774e-09
2.01315e-09
1.89204e-09
2.0781e-09
1.91281e-09
2.13941e-09
1.92023e-09
2.1985e-09
1.91288e-09
2.25813e-09
1.8879e-09
2.31989e-09
1.84996e-09
2.38605e-09
1.79336e-09
2.4584e-09
1.71807e-09
2.53811e-09
1.61348e-09
2.62668e-09
1.48676e-09
2.72397e-09
1.33416e-09
2.83001e-09
1.11938e-09
2.94262e-09
8.83127e-10
3.05674e-09
5.64008e-10
3.16729e-09
1.99755e-10
3.26416e-09
-1.93007e-10
3.34014e-09
-6.11675e-10
3.3872e-09
-9.84826e-10
3.40485e-09
-1.26811e-09
3.39239e-09
-1.47661e-09
3.3553e-09
-1.61707e-09
3.29863e-09
-1.69639e-09
3.22965e-09
-1.73845e-09
3.15357e-09
-1.77193e-09
3.07673e-09
-1.78335e-09
3.00304e-09
-1.79586e-09
2.93416e-09
-1.80854e-09
2.86846e-09
-1.82223e-09
2.80366e-09
-1.82771e-09
2.72839e-09
-1.77037e-09
2.63833e-09
-1.68804e-09
2.53771e-09
-1.62778e-09
2.42658e-09
-1.55881e-09
2.33254e-09
-1.18599e-09
2.24309e-09
-9.6456e-10
2.15899e-09
-7.81462e-10
2.08548e-09
-5.66007e-10
2.03057e-09
-3.82785e-10
1.99495e-09
-1.77803e-10
1.97664e-09
2.53437e-11
1.966e-09
1.38496e-10
1.95213e-09
1.27004e-10
1.93424e-09
1.09024e-10
1.91267e-09
9.25673e-11
1.88813e-09
7.99252e-11
1.86126e-09
7.24925e-11
1.83245e-09
7.07614e-11
1.80178e-09
7.45726e-11
1.76907e-09
8.33376e-11
1.734e-09
9.61916e-11
1.69618e-09
1.12128e-10
1.65523e-09
1.30156e-10
1.61078e-09
1.49417e-10
1.5625e-09
1.6931e-10
1.51e-09
1.89664e-10
1.45291e-09
2.10813e-10
1.39073e-09
2.33575e-10
1.32285e-09
2.59232e-10
1.24841e-09
2.89583e-10
1.16629e-09
3.271e-10
1.07487e-09
3.75262e-10
9.7182e-10
4.39147e-10
8.5389e-10
5.26098e-10
7.17173e-10
6.4562e-10
5.58793e-10