/*--------------------------------*- C++ -*----------------------------------*\
| =========                 |                                                 |
| \\      /  F ield         | OpenFOAM: The Open Source CFD Toolbox           |
|  \\    /   O peration     | Version:  2506                                  |
|   \\  /    A nd           | Website:  www.openfoam.com                      |
|    \\/     M anipulation  |                                                 |
\*---------------------------------------------------------------------------*/
FoamFile
{
    version     2.0;
    format      ascii;
    arch        "LSB;label=32;scalar=64";
    class       volScalarField;
    location    "4";
    object      s;
}
// * * * * * * * * * * * * * * * * * * * * * * * * * * * * * * * * * * * * * //

dimensions      [0 0 0 0 0 0 0];

internalField   nonuniform List<scalar> 
4000
(
1.98625e-20
6.55988e-19
1.17956e-18
1.51228e-18
1.62539e-18
1.45863e-18
9.27604e-19
-4.10035e-20
-1.46334e-18
-3.24641e-18
-5.13386e-18
-6.65115e-18
-7.04898e-18
-5.23945e-18
2.80577e-19
1.15264e-17
3.11432e-17
6.25298e-17
1.09971e-16
1.78752e-16
2.75233e-16
4.06868e-16
5.82325e-16
8.1188e-16
1.10809e-15
1.4871e-15
1.9709e-15
2.59148e-15
3.39367e-15
4.43596e-15
5.79604e-15
7.90408e-15
1.12214e-14
1.60876e-14
2.3082e-14
3.3294e-14
4.82783e-14
7.24114e-14
1.13648e-13
1.82681e-13
3.04561e-13
5.21609e-13
9.04153e-13
1.5511e-12
2.58966e-12
4.19052e-12
6.66531e-12
1.05528e-11
1.71428e-11
2.84897e-11
4.92889e-11
8.49507e-11
1.55178e-10
2.74193e-10
5.14236e-10
9.6762e-10
1.73072e-09
2.39756e-09
4.14012e-09
3.74451e-09
2.68724e-09
1.4358e-09
5.44305e-10
1.74676e-10
6.36068e-11
2.53827e-11
1.01373e-11
3.93929e-12
1.52492e-12
5.9469e-13
2.31036e-13
8.85881e-14
3.34606e-14
1.24778e-14
4.61283e-15
1.70312e-15
6.36729e-16
1.12796e-16
-7.75977e-17
-1.34969e-16
-1.21033e-16
-8.31875e-17
-4.93638e-17
-2.70658e-17
-1.50028e-17
-9.16709e-18
-1.20197e-17
6.77137e-18
-5.32741e-17
-4.22552e-17
2.08156e-16
5.53035e-16
2.99379e-15
1.53577e-14
6.41739e-14
2.41669e-13
1.99362e-13
1.26995e-12
5.69969e-12
1.80556e-11
5.52521e-11
1.42231e-10
4.93425e-10
2.18006e-09
8.51677e-09
3.74445e-08
5.83179e-08
7.00683e-08
8.37703e-07
5.01181e-06
8.40027e-06
1.37523e-05
5.91859e-05
5.38223e-05
-0.000107416
-0.000786163
-0.00217865
-0.00576181
-0.0062245
-0.00423921
-0.00189332
-0.000637189
-0.000213088
-7.44463e-05
-2.52927e-05
-8.43422e-06
-2.85476e-06
-9.71192e-07
-3.26647e-07
-1.07683e-07
-3.46163e-08
-1.07863e-08
-3.23271e-09
-9.2262e-10
-2.48026e-10
-6.30964e-11
-1.58083e-11
-4.20268e-12
-5.69203e-13
-4.97885e-13
-1.06259e-12
-1.43582e-12
-1.73658e-12
-2.2287e-12
-3.20153e-12
-5.51551e-12
-1.07832e-11
-1.69056e-11
-7.70729e-11
-1.16716e-10
-2.86638e-10
-1.71117e-09
-8.34336e-09
-2.80571e-08
-8.18168e-08
-1.63484e-07
2.71185e-07
1.3599e-06
-4.18163e-07
2.44579e-06
6.86947e-05
0.000201835
0.00106067
0.00276073
0.00332074
0.00243869
0.000526334
-0.00210637
-0.00518344
-0.0142216
-0.0387386
-0.101711
-0.223875
-0.363016
-0.425927
-0.451225
-0.456281
-0.445982
-0.422685
-0.389003
-0.348366
-0.304905
-0.263911
-0.232076
-0.214627
-0.210788
-0.216135
-0.227858
-0.242671
-0.257012
-0.268307
-0.275127
-0.276868
-0.273403
-0.264529
-0.249906
-0.228628
-0.19723
-0.136071
-0.0301049
-1.60701e-18
-2.88085e-19
-6.30544e-20
1.70474e-19
4.81725e-19
7.851e-19
9.02133e-19
5.7778e-19
-4.95902e-19
-2.64379e-18
-6.16522e-18
-1.12936e-17
-1.81602e-17
-2.67626e-17
-3.69375e-17
-4.83469e-17
-6.04842e-17
-7.27042e-17
-8.42877e-17
-9.44625e-17
-1.02278e-16
-1.06422e-16
-1.05251e-16
-9.68303e-17
-7.91997e-17
-5.02977e-17
-4.70166e-18
7.26945e-17
2.07043e-16
3.77537e-16
5.51049e-16
6.33163e-16
5.35633e-16
3.20628e-16
9.70514e-17
-4.33349e-17
-6.88652e-17
-5.10027e-17
-2.53284e-17
-4.57928e-18
1.07999e-17
2.11261e-17
3.75225e-17
6.50625e-17
1.09574e-16
1.79615e-16
2.908e-16
4.71781e-16
8.02456e-16
1.49581e-15
3.06733e-15
5.79394e-15
1.12492e-14
2.21171e-14
4.8406e-14
1.11209e-13
2.55874e-13
6.43015e-13
2.02124e-11
1.4842e-09
3.00654e-09
3.38388e-09
2.60573e-09
1.49601e-09
6.66506e-10
2.2629e-10
8.51259e-11
3.71654e-11
1.66539e-11
7.13462e-12
2.94692e-12
1.20808e-12
4.92541e-13
1.98397e-13
7.88698e-14
3.1108e-14
1.22954e-14
5.08814e-15
2.1381e-15
8.89117e-16
3.69847e-16
3.79421e-17
-1.01189e-16
-1.27286e-16
-1.12397e-16
-8.43258e-17
-5.55141e-17
1.03168e-17
2.24725e-16
7.43817e-16
1.55523e-15
3.70673e-15
1.07348e-14
3.75264e-14
1.37525e-13
4.78243e-13
1.34858e-12
4.37593e-12
1.23282e-11
5.03055e-11
1.11824e-10
1.94142e-10
9.51882e-10
3.29676e-09
8.52055e-09
9.74326e-09
1.83756e-08
4.63585e-07
1.83975e-06
3.01728e-06
3.54302e-06
2.00704e-06
-7.11856e-06
-7.32575e-05
-0.00031651
-0.000842766
-0.00146828
-0.00374387
-0.00665426
-0.0099889
-0.0081141
-0.00463583
-0.00186225
-0.000561406
-0.000199393
-7.84323e-05
-3.00661e-05
-1.11672e-05
-4.09928e-06
-1.47539e-06
-5.13282e-07
-1.7144e-07
-5.47354e-08
-1.65405e-08
-4.59541e-09
-1.10248e-09
-2.01433e-10
-3.53173e-11
2.04796e-12
-1.03683e-11
-1.74401e-11
-2.15349e-11
-2.41168e-11
-2.83693e-11
-3.67527e-11
-5.53946e-11
-8.39191e-11
-1.48424e-10
-2.65015e-10
-3.97596e-10
-1.88375e-09
-7.10781e-09
-2.5594e-08
-8.62887e-08
-2.5529e-07
-6.10428e-07
-1.30828e-06
-6.7283e-06
-2.00978e-05
-1.05114e-05
3.44099e-05
0.000208685
-2.14575e-05
-0.00152942
-0.00523914
-0.00980967
-0.0129948
-0.0148892
-0.0179132
-0.0250354
-0.0420645
-0.0837974
-0.147109
-0.218384
-0.2823
-0.32817
-0.351131
-0.351326
-0.33223
-0.299043
-0.257398
-0.213052
-0.171911
-0.140037
-0.129592
-0.130978
-0.135818
-0.146214
-0.163472
-0.178073
-0.182163
-0.177871
-0.172454
-0.167278
-0.15495
-0.138705
-0.124132
-0.117865
-0.0910447
0.00431171
-2.90734e-19
-3.48268e-21
-1.39586e-19
-1.67266e-19
-6.30864e-20
2.52e-19
8.50228e-19
1.76791e-18
2.99825e-18
4.49395e-18
6.17593e-18
7.94529e-18
9.696e-18
1.13261e-17
1.27462e-17
1.38823e-17
1.46686e-17
1.50264e-17
1.48341e-17
1.39235e-17
1.19387e-17
8.24997e-18
2.07802e-18
-7.37266e-18
-2.0519e-17
-3.88932e-17
-6.30512e-17
-8.47692e-17
-1.00041e-16
-1.14628e-16
-1.29496e-16
-1.51888e-16
-1.83438e-16
-2.13955e-16
-2.17642e-16
-1.64473e-16
-7.74851e-17
-1.3905e-17
4.63062e-18
1.16675e-18
-4.02409e-18
-7.80474e-18
-1.30008e-17
-2.14841e-17
-3.49127e-17
-5.59225e-17
-8.99794e-17
-1.45389e-16
-2.56243e-16
-4.35223e-16
-5.34013e-16
-2.30756e-16
-2.62105e-16
-4.85233e-16
-8.42367e-16
-1.23383e-15
-5.95244e-16
2.78703e-15
-5.09879e-13
3.51662e-11
8.00241e-10
2.13319e-09
2.94109e-09
2.8512e-09
2.31071e-09
1.42889e-09
6.97191e-10
2.75198e-10
1.10238e-10
4.9042e-11
2.22758e-11
9.84664e-12
4.26359e-12
1.83293e-12
7.85036e-13
3.35037e-13
1.42864e-13
6.14174e-14
2.69915e-14
1.22831e-14
5.87755e-15
3.13226e-15
1.77838e-15
1.11493e-15
7.99521e-16
7.32712e-16
9.25566e-16
1.52127e-15
2.65947e-15
4.98354e-15
9.57901e-15
2.04734e-14
5.10153e-14
1.58081e-13
5.24283e-13
1.57751e-12
4.5527e-12
1.30294e-11
4.75714e-11
1.29898e-10
2.1397e-10
8.21834e-10
2.88675e-09
7.57138e-09
1.81679e-08
3.11848e-08
4.79779e-07
1.82104e-06
3.62202e-06
4.46765e-06
4.11103e-06
2.76091e-07
-6.04967e-05
-0.000293127
-0.000797382
-0.00155307
-0.00257204
-0.00375823
-0.00589457
-0.00924946
-0.0124211
-0.0108965
-0.00753264
-0.00376158
-0.00143693
-0.000526009
-0.000215754
-9.03923e-05
-3.61914e-05
-1.3847e-05
-5.14193e-06
-1.84405e-06
-6.26994e-07
-1.98601e-07
-5.73269e-08
-1.43702e-08
-2.60549e-09
3.0254e-10
5.16922e-10
9.22061e-11
-1.33311e-10
-1.91923e-10
-2.28877e-10
-2.6889e-10
-3.42167e-10
-4.95356e-10
-7.39118e-10
-1.16591e-09
-1.77363e-09
-2.83185e-09
-8.77103e-09
-2.88844e-08
-9.13031e-08
-3.08861e-07
-8.95111e-07
-2.14955e-06
-8.99791e-06
-3.13975e-05
-4.24125e-05
1.97238e-05
7.99765e-05
0.000282581
-0.00325714
-0.0114916
-0.0224659
-0.0328647
-0.0407996
-0.0477489
-0.0562936
-0.0694378
-0.0927254
-0.134741
-0.196141
-0.270507
-0.346012
-0.409069
-0.448999
-0.460671
-0.444736
-0.406496
-0.353066
-0.293962
-0.239147
-0.196771
-0.17161
-0.163977
-0.170626
-0.185831
-0.202093
-0.21164
-0.210563
-0.198472
-0.170917
-0.131916
-0.0880802
-0.045359
-0.0143492
-0.0132313
-0.010543
0.0508063
7.01633e-19
1.44679e-20
2.21386e-20
-7.78786e-20
-2.52637e-19
-5.08949e-19
-8.29181e-19
-1.18731e-18
-1.5541e-18
-1.90186e-18
-2.2071e-18
-2.44975e-18
-2.60976e-18
-2.66231e-18
-2.57262e-18
-2.29125e-18
-1.75175e-18
-8.72151e-19
4.3703e-19
2.25932e-18
4.6913e-18
7.75422e-18
1.12472e-17
1.47076e-17
1.74561e-17
1.82676e-17
1.56051e-17
8.57691e-18
-2.91485e-18
-1.94313e-17
-4.05697e-17
-5.10005e-17
-4.3118e-17
-1.95084e-17
1.74746e-17
4.71136e-17
4.32812e-17
1.84478e-17
2.38714e-18
-2.36369e-19
1.3922e-18
3.07535e-18
5.10448e-18
8.23112e-18
1.30682e-17
2.06042e-17
3.27556e-17
5.48136e-17
8.92166e-17
1.15064e-16
8.38394e-17
3.9407e-17
6.30841e-17
1.28198e-16
2.49238e-16
4.73908e-16
2.46706e-16
-6.35556e-15
-2.93404e-14
-8.13817e-13
4.31346e-12
3.78668e-10
1.33881e-09
2.25511e-09
2.79596e-09
2.90864e-09
2.34666e-09
1.47542e-09
7.30551e-10
2.99266e-10
1.31117e-10
6.22338e-11
2.98976e-11
1.42253e-11
6.69988e-12
3.12223e-12
1.43783e-12
6.56613e-13
2.98912e-13
1.36804e-13
6.36776e-14
3.08478e-14
1.58158e-14
8.85653e-15
5.69401e-15
4.78709e-15
5.6253e-15
8.53306e-15
1.42623e-14
2.4757e-14
4.47806e-14
9.21982e-14
2.25463e-13
6.53434e-13
1.91443e-12
5.48705e-12
1.56881e-11
4.70952e-11
1.54215e-10
2.82416e-10
7.51805e-10
2.84304e-09
7.02071e-09
2.17822e-08
5.06994e-08
5.4614e-07
1.92746e-06
3.7594e-06
4.73265e-06
4.25088e-06
4.39495e-07
-7.6356e-05
-0.000340091
-0.000862399
-0.00163306
-0.00258815
-0.00370327
-0.0049344
-0.00641451
-0.00871386
-0.0120127
-0.0148435
-0.0142341
-0.011194
-0.00698005
-0.00336997
-0.0013546
-0.000562581
-0.000244168
-0.00010398
-4.19177e-05
-1.59952e-05
-5.83884e-06
-2.02e-06
-6.36835e-07
-1.67874e-07
-2.78526e-08
2.15848e-09
7.04804e-09
3.86279e-09
9.30461e-10
-7.96014e-10
-1.56015e-09
-2.08608e-09
-2.61158e-09
-3.5284e-09
-4.89436e-09
-6.95373e-09
-9.76225e-09
-1.66178e-08
-3.959e-08
-1.14089e-07
-3.40532e-07
-1.10195e-06
-2.78551e-06
-1.25572e-05
-4.11744e-05
-8.09233e-05
-5.43161e-05
8.26612e-05
0.000107512
-0.00493321
-0.0223624
-0.0424329
-0.0609855
-0.0764358
-0.0892737
-0.103328
-0.121504
-0.145077
-0.17808
-0.228558
-0.295819
-0.371827
-0.443547
-0.497338
-0.523848
-0.52058
-0.490868
-0.440325
-0.379181
-0.318206
-0.26643
-0.230013
-0.211444
-0.209128
-0.217218
-0.226749
-0.228664
-0.223128
-0.203932
-0.170298
-0.12445
-0.0695536
-0.0105604
0.0449297
0.0828998
0.0791959
0.0594454
0.0870748
3.2194e-19
2.50781e-21
5.74399e-20
1.20158e-19
1.99995e-19
2.87623e-19
3.72558e-19
4.46999e-19
5.04645e-19
5.39673e-19
5.44817e-19
5.1003e-19
4.21908e-19
2.63961e-19
1.80236e-20
-3.33321e-19
-8.02764e-19
-1.39383e-18
-2.09177e-18
-2.85706e-18
-3.5569e-18
-3.92636e-18
-3.60737e-18
-2.22976e-18
4.91631e-19
4.59893e-18
9.47922e-18
1.39477e-17
1.67113e-17
1.66099e-17
1.29797e-17
9.75139e-18
1.00735e-17
1.30045e-17
9.78438e-18
-3.23931e-18
-1.12516e-17
-7.47107e-18
-1.74178e-18
-1.80073e-20
-3.84407e-19
-9.6693e-19
-1.62995e-18
-2.61668e-18
-4.13091e-18
-6.4976e-18
-1.02237e-17
-1.79629e-17
-2.55884e-17
-2.44357e-17
-1.3382e-17
-9.2306e-18
-1.67347e-17
-3.35164e-17
-6.64121e-17
-1.29569e-16
3.82207e-17
-5.19114e-17
-6.97809e-15
-2.52792e-13
-9.92051e-13
5.42054e-12
1.4726e-10
7.33846e-10
1.66464e-09
2.6335e-09
3.44179e-09
3.18379e-09
2.48812e-09
1.52873e-09
7.66741e-10
3.65809e-10
1.85193e-10
9.63094e-11
4.96842e-11
2.51271e-11
1.24394e-11
6.03898e-12
2.8722e-12
1.3413e-12
6.20579e-13
2.8854e-13
1.35742e-13
6.72562e-14
3.87484e-14
2.96049e-14
3.0675e-14
4.56022e-14
7.86412e-14
1.2636e-13
2.21191e-13
4.46739e-13
1.05029e-12
2.72526e-12
7.23486e-12
2.04445e-11
5.71761e-11
1.74439e-10
4.34923e-10
8.0123e-10
3.0922e-09
7.79288e-09
2.1193e-08
9.96706e-08
6.68795e-07
2.13283e-06
3.97335e-06
5.00797e-06
4.55537e-06
-4.91371e-06
-0.000106037
-0.000401066
-0.000948096
-0.00172134
-0.00265925
-0.003666
-0.00472818
-0.00590986
-0.00728554
-0.00904533
-0.0116623
-0.0150388
-0.0180893
-0.0185043
-0.0160223
-0.0118038
-0.00707023
-0.00343775
-0.00145483
-0.000630263
-0.000277745
-0.00011811
-4.71486e-05
-1.76839e-05
-6.25201e-06
-2.00616e-06
-4.97466e-07
-1.75622e-08
7.71781e-08
5.24107e-08
2.33019e-08
5.98921e-09
-4.53201e-09
-1.13097e-08
-1.62602e-08
-2.20932e-08
-2.99056e-08
-4.01713e-08
-5.7065e-08
-9.38343e-08
-1.8635e-07
-4.66305e-07
-1.32886e-06
-3.6862e-06
-1.22322e-05
-5.20336e-05
-0.00012033
-0.000122697
-1.04418e-05
-0.000731858
-0.00993897
-0.0314907
-0.0657164
-0.0942613
-0.117428
-0.137326
-0.156785
-0.180973
-0.211885
-0.24865
-0.292912
-0.350309
-0.417047
-0.483124
-0.535531
-0.562954
-0.562259
-0.542675
-0.497317
-0.438694
-0.377516
-0.322856
-0.281044
-0.254903
-0.243209
-0.240902
-0.240732
-0.236938
-0.222095
-0.192655
-0.149761
-0.0969069
-0.0376479
0.0252696
0.0874427
0.139752
0.168199
0.151899
0.113642
0.114861
-5.33903e-19
-2.94571e-20
-5.43149e-20
-7.18239e-20
-9.18638e-20
-1.09053e-19
-1.21193e-19
-1.26574e-19
-1.22897e-19
-1.07057e-19
-7.50795e-20
-2.2736e-20
5.36899e-20
1.56456e-19
2.85362e-19
4.36077e-19
5.96195e-19
7.37503e-19
8.04968e-19
7.13032e-19
3.02167e-19
-5.8561e-19
-1.93635e-18
-3.378e-18
-4.15038e-18
-3.36725e-18
-5.8556e-19
3.73662e-18
8.22247e-18
1.13154e-17
1.20716e-17
1.07477e-17
8.10789e-18
3.33316e-18
-1.2646e-18
-7.58182e-19
2.02665e-18
2.09772e-18
6.72265e-19
4.09671e-20
9.16303e-20
2.57518e-19
4.42913e-19
7.12721e-19
1.12757e-18
1.78189e-18
2.78181e-18
5.10419e-18
6.4738e-18
5.07912e-18
2.92251e-18
3.06981e-18
5.59259e-18
9.72053e-18
1.86901e-17
2.31766e-17
-1.19897e-17
2.58768e-16
-1.70242e-16
-8.28393e-15
-4.5284e-13
-8.02113e-13
9.29046e-12
8.5759e-11
5.17164e-10
1.60308e-09
3.14648e-09
4.45346e-09
4.94033e-09
4.43831e-09
3.19446e-09
1.90541e-09
1.05137e-09
5.81534e-10
3.21799e-10
1.74683e-10
9.19667e-11
4.70519e-11
2.3476e-11
1.14452e-11
5.43243e-12
2.50069e-12
1.1162e-12
4.92434e-13
2.14196e-13
9.81392e-14
6.97853e-14
1.43086e-13
2.78171e-13
5.07819e-13
9.47227e-13
1.94062e-12
4.42342e-12
1.07814e-11
2.84642e-11
7.94048e-11
2.21344e-10
5.83111e-10
1.20552e-09
3.50638e-09
9.46261e-09
2.21901e-08
1.60744e-07
8.37867e-07
2.35611e-06
4.26334e-06
5.21317e-06
4.91273e-06
-1.9077e-05
-0.000140054
-0.000461792
-0.00100336
-0.00174988
-0.00260744
-0.00349298
-0.00430167
-0.0050876
-0.00598801
-0.00718363
-0.00883036
-0.0111224
-0.0143573
-0.0183817
-0.0217994
-0.0248082
-0.0227939
-0.018404
-0.0129981
-0.00766473
-0.00374963
-0.00161086
-0.000703905
-0.000311811
-0.000132471
-5.23394e-05
-1.92413e-05
-6.50278e-06
-1.7962e-06
-1.57879e-07
2.96755e-07
2.90353e-07
1.41665e-07
3.49801e-08
-1.93873e-08
-5.97257e-08
-1.08355e-07
-1.63862e-07
-2.01012e-07
-2.7701e-07
-4.32273e-07
-8.24802e-07
-1.92395e-06
-5.04154e-06
-1.38927e-05
-5.91093e-05
-0.000136994
-0.000227513
-0.000114295
-0.00260733
-0.016706
-0.0466216
-0.0854494
-0.13008
-0.162493
-0.187833
-0.212081
-0.23956
-0.275113
-0.318469
-0.366063
-0.41699
-0.473822
-0.530489
-0.572209
-0.582905
-0.579156
-0.561115
-0.520606
-0.466964
-0.409792
-0.357424
-0.315474
-0.286337
-0.269066
-0.259511
-0.251133
-0.237431
-0.212886
-0.173773
-0.121411
-0.0605643
0.00403465
0.0697418
0.13426
0.191206
0.228982
0.236078
0.201647
0.151486
0.156795
2.20614e-19
3.09603e-20
2.86917e-20
2.98475e-20
3.19416e-20
3.27335e-20
3.13856e-20
2.69845e-20
1.84197e-20
4.57766e-21
-1.53531e-20
-4.15941e-20
-7.34944e-20
-1.08886e-19
-1.42418e-19
-1.62205e-19
-1.4578e-19
-5.84731e-20
1.39366e-19
4.6308e-19
8.02737e-19
8.38616e-19
2.41394e-19
-9.46166e-19
-2.17232e-18
-2.66073e-18
-1.9573e-18
-3.46988e-19
1.35613e-18
2.44162e-18
2.52939e-18
1.36696e-18
-4.00892e-19
-1.13024e-18
-2.30174e-19
2.79236e-19
-2.75931e-19
-5.00207e-19
-2.1642e-19
-2.59028e-20
-1.97645e-20
-6.0845e-20
-1.07478e-19
-1.7316e-19
-2.74443e-19
-4.3634e-19
-6.76763e-19
-1.28453e-18
-1.53048e-18
-1.15471e-18
-8.68261e-19
-1.20052e-18
-2.06131e-18
-2.98445e-18
-5.05605e-18
-2.6119e-18
-1.29449e-17
6.16415e-18
2.53762e-17
-3.44496e-15
-2.47174e-14
-5.43536e-13
1.90706e-13
1.9427e-11
1.48357e-10
7.6298e-10
2.49622e-09
5.17802e-09
7.88317e-09
9.47241e-09
9.2948e-09
7.56453e-09
5.13368e-09
3.09364e-09
1.79096e-09
1.02168e-09
5.73349e-10
3.1275e-10
1.64425e-10
8.31622e-11
4.07854e-11
1.95578e-11
8.95572e-12
3.66103e-12
1.2222e-12
2.70587e-13
-1.29892e-13
1.29537e-14
4.82867e-13
1.6495e-12
3.86556e-12
8.31282e-12
1.84626e-11
4.45729e-11
1.19766e-10
3.22542e-10
8.18614e-10
1.80859e-09
4.68767e-09
1.25594e-08
2.61301e-08
2.33873e-07
1.05486e-06
2.63003e-06
4.50821e-06
5.37354e-06
5.01694e-06
-3.21015e-05
-0.000176789
-0.000496592
-0.00102396
-0.00168173
-0.0024439
-0.00310871
-0.00366771
-0.00408515
-0.00439671
-0.00487996
-0.00572006
-0.00714621
-0.00928796
-0.0123602
-0.0165257
-0.0214001
-0.0258741
-0.0305552
-0.0296098
-0.0262891
-0.0208715
-0.0145363
-0.00853132
-0.00419375
-0.00179772
-0.000782511
-0.000349127
-0.000149415
-5.87685e-05
-2.12097e-05
-6.79188e-06
-1.43744e-06
3.74502e-07
7.37559e-07
5.56107e-07
2.48351e-07
4.19401e-08
-2.28089e-07
-5.03023e-07
-7.41277e-07
-1.20701e-06
-1.95439e-06
-3.64484e-06
-8.15898e-06
-2.00725e-05
-6.86289e-05
-0.000176716
-0.00028503
-0.000320766
-0.00519332
-0.0255704
-0.0648666
-0.113025
-0.161795
-0.208057
-0.238329
-0.262749
-0.290033
-0.324398
-0.368142
-0.418062
-0.468861
-0.518358
-0.563868
-0.585106
-0.586552
-0.58014
-0.560918
-0.521252
-0.467786
-0.412738
-0.364087
-0.325882
-0.298709
-0.280743
-0.268247
-0.255457
-0.23534
-0.201987
-0.153105
-0.0912672
-0.022541
0.0470539
0.114592
0.17947
0.238671
0.282743
0.298578
0.279545
0.228376
0.176392
0.247492
-9.63094e-21
-1.73924e-20
-1.10938e-20
-9.8883e-21
-9.13536e-21
-7.97495e-21
-5.9702e-21
-2.73923e-21
1.97828e-21
8.24669e-21
1.58533e-20
2.41435e-20
3.15334e-20
3.45012e-20
2.63849e-20
-2.3176e-21
-5.83381e-20
-1.30069e-19
-1.67138e-19
-8.79931e-20
1.3065e-19
3.34383e-19
2.64316e-19
-1.90262e-19
-8.42556e-19
-1.34668e-18
-1.48946e-18
-1.34681e-18
-1.15375e-18
-1.0777e-18
-1.08232e-18
-9.35317e-19
-4.35209e-19
9.72706e-20
1.22082e-19
-5.72316e-20
1.76517e-20
1.07019e-19
6.45995e-20
1.28401e-20
4.40778e-21
1.32658e-20
2.44702e-20
3.94957e-20
6.25556e-20
9.99928e-20
1.54463e-19
3.00267e-19
3.57822e-19
2.97275e-19
2.98668e-19
4.63891e-19
7.14724e-19
8.79945e-19
1.10034e-18
9.85354e-19
2.58679e-18
-2.02716e-17
1.76407e-16
-4.6007e-16
-9.26578e-15
-6.30456e-14
-4.63993e-13
2.69419e-12
4.86314e-11
3.22563e-10
1.44075e-09
4.61204e-09
9.63565e-09
1.50928e-08
1.90989e-08
1.95436e-08
1.74359e-08
1.34522e-08
9.04631e-09
5.42628e-09
3.06438e-09
1.71234e-09
9.52975e-10
5.20054e-10
2.72589e-10
1.33922e-10
6.11103e-11
2.64682e-11
1.03909e-11
1.60034e-12
-1.73185e-12
-1.31053e-12
5.80784e-13
6.07199e-12
1.54512e-11
3.405e-11
7.63057e-11
1.92883e-10
5.06872e-10
1.24564e-09
2.94582e-09
6.71596e-09
2.09483e-08
3.80993e-08
3.2472e-07
1.32554e-06
2.96588e-06
4.73159e-06
5.58071e-06
1.98429e-06
-4.53722e-05
-0.00020341
-0.000517256
-0.000984523
-0.00157983
-0.00213763
-0.00265363
-0.00293968
-0.00295418
-0.00290917
-0.00290475
-0.00306584
-0.00351369
-0.00449081
-0.00619345
-0.00889186
-0.0127716
-0.018003
-0.0237797
-0.0300046
-0.0350463
-0.0370426
-0.0351974
-0.0304434
-0.0236392
-0.0162553
-0.00953026
-0.00472844
-0.00202403
-0.000879059
-0.000397267
-0.000173315
-6.86356e-05
-2.41872e-05
-6.94501e-06
-4.25856e-07
1.75881e-06
2.08128e-06
1.41604e-06
5.4141e-07
-4.54556e-07
-2.12115e-06
-4.60989e-06
-8.16753e-06
-1.56162e-05
-3.53667e-05
-9.12567e-05
-0.000248661
-0.000377906
-0.000875352
-0.00952351
-0.0368788
-0.0861168
-0.14493
-0.20085
-0.248362
-0.285112
-0.307041
-0.327406
-0.354243
-0.390311
-0.434334
-0.480491
-0.524212
-0.560459
-0.577289
-0.575717
-0.565231
-0.538095
-0.492734
-0.438783
-0.385866
-0.341512
-0.309266
-0.288406
-0.275129
-0.264154
-0.249717
-0.22593
-0.187683
-0.132695
-0.0635165
0.0127999
0.0880684
0.157314
0.220311
0.277831
0.325145
0.350104
0.340104
0.29643
0.237657
0.207003
0.388721
-1.63636e-20
6.5538e-21
3.41722e-21
2.72464e-21
2.12969e-21
1.38063e-21
3.27642e-22
-1.10068e-21
-2.88027e-21
-4.87156e-21
-6.73609e-21
-7.71625e-21
-6.32456e-21
-4.11868e-22
1.13798e-20
2.60395e-20
3.27134e-20
1.71086e-20
-2.00303e-20
-4.61267e-20
-1.9421e-20
4.27269e-20
4.93381e-20
-7.46905e-20
-3.05593e-19
-5.42877e-19
-6.92987e-19
-7.14429e-19
-6.04847e-19
-3.85202e-19
-1.16645e-19
8.5439e-20
1.189e-19
1.21242e-20
-3.54425e-20
7.52412e-21
5.90581e-21
-2.00406e-20
-1.8012e-20
-5.43186e-21
-1.26202e-21
-2.74787e-21
-5.38849e-21
-8.78153e-21
-1.38926e-20
-2.23021e-20
-3.45046e-20
-6.80329e-20
-8.4791e-20
-8.2584e-20
-1.04401e-19
-1.64875e-19
-2.22223e-19
-2.33926e-19
-1.82932e-19
-5.34024e-19
7.64109e-19
-2.08689e-18
1.57847e-17
1.16255e-16
-3.01759e-15
-3.21283e-14
-3.68076e-13
-2.43867e-13
6.49195e-12
8.59924e-11
5.37223e-10
2.40983e-09
7.63167e-09
1.63787e-08
2.54666e-08
3.78143e-08
3.80171e-08
3.49994e-08
2.93778e-08
2.22038e-08
1.50196e-08
9.10951e-09
5.03019e-09
2.69142e-09
1.42974e-09
7.5783e-10
3.89989e-10
1.78399e-10
6.38713e-11
1.68391e-11
1.1829e-12
-7.85024e-13
6.20589e-12
2.5351e-11
6.2448e-11
1.417e-10
3.3443e-10
8.38667e-10
2.01955e-09
4.85293e-09
1.18292e-08
3.07958e-08
8.10541e-08
4.63482e-07
1.62638e-06
3.37855e-06
4.9138e-06
5.66989e-06
-2.59763e-06
-5.83734e-05
-0.000214852
-0.00050967
-0.000903462
-0.00140056
-0.00182429
-0.00220454
-0.00216571
-0.00202956
-0.00182536
-0.00161481
-0.00145125
-0.00141024
-0.00155153
-0.0020346
-0.00304761
-0.00494164
-0.00802667
-0.0127029
-0.0187974
-0.0260759
-0.0340525
-0.0406562
-0.0463071
-0.045056
-0.041074
-0.0345611
-0.0263605
-0.0180116
-0.0106445
-0.00540619
-0.00233656
-0.00101454
-0.000464245
-0.000207508
-7.9613e-05
-2.24225e-05
-6.5481e-07
7.94271e-06
8.88435e-06
6.10636e-06
7.79556e-07
-7.82276e-06
-1.80427e-05
-3.37796e-05
-7.00818e-05
-0.000167027
-0.000396531
-0.000656237
-0.00249564
-0.0161842
-0.0524194
-0.110377
-0.178606
-0.242885
-0.291191
-0.324765
-0.341714
-0.351269
-0.365311
-0.385634
-0.413771
-0.446636
-0.479953
-0.502056
-0.517624
-0.522654
-0.509811
-0.479112
-0.434247
-0.382381
-0.332226
-0.291248
-0.263326
-0.247921
-0.240741
-0.235333
-0.224761
-0.202881
-0.165241
-0.110029
-0.0391543
0.041283
0.122326
0.195787
0.258224
0.311236
0.356042
0.386613
0.389272
0.354179
0.291325
0.239823
0.247804
0.463425
2.34489e-21
-1.63708e-21
-8.471e-22
-5.97331e-22
-3.33377e-22
-1.23084e-23
3.91613e-22
8.66397e-22
1.35572e-21
1.73258e-21
1.73374e-21
9.13633e-22
-1.18339e-21
-4.38744e-21
-6.98945e-21
-5.78156e-21
1.24875e-21
1.07618e-20
1.51584e-20
1.31173e-20
1.66402e-20
3.58319e-20
5.85825e-20
6.18999e-20
4.08575e-20
1.50782e-20
9.50505e-21
3.29148e-20
6.77168e-20
7.98405e-20
4.84519e-20
-3.50659e-21
-2.89711e-20
-1.03246e-20
8.36287e-21
1.45013e-22
-3.31515e-21
2.91588e-21
4.61252e-21
2.0075e-21
4.75843e-22
5.63955e-22
1.1638e-21
1.94435e-21
3.08596e-21
4.97222e-21
7.77591e-21
1.54067e-20
2.03683e-20
2.35248e-20
3.50181e-20
5.3301e-20
6.23009e-20
5.46227e-20
2.72777e-20
1.83808e-19
-6.52904e-19
1.75796e-18
-2.42039e-18
8.54653e-17
-1.23292e-15
-1.37197e-14
-1.12944e-13
-1.14734e-13
1.30197e-12
1.41514e-11
1.14237e-10
7.12274e-10
3.33885e-09
1.09984e-08
2.34057e-08
3.8077e-08
5.11826e-08
5.84975e-08
5.74344e-08
5.12027e-08
4.20198e-08
3.18644e-08
2.19658e-08
1.37362e-08
7.79004e-09
3.9171e-09
1.83767e-09
8.50638e-10
3.93656e-10
1.67192e-10
3.9794e-11
1.57926e-11
4.45418e-11
1.151e-10
2.6856e-10
6.23324e-10
1.46203e-09
3.43908e-09
8.20823e-09
2.12874e-08
5.02149e-08
1.60375e-07
6.59535e-07
1.92668e-06
3.85223e-06
5.11191e-06
5.60486e-06
-6.52517e-06
-6.64862e-05
-0.000217974
-0.000468424
-0.00081446
-0.00114575
-0.00153199
-0.00158474
-0.00149104
-0.00129898
-0.00106459
-0.000819944
-0.000616418
-0.000474385
-0.000410043
-0.000426709
-0.000580429
-0.000978504
-0.0019149
-0.00378786
-0.0071595
-0.0123555
-0.0194287
-0.028237
-0.037825
-0.0461891
-0.0536213
-0.0550607
-0.052743
-0.0469555
-0.0386395
-0.0290926
-0.0198849
-0.011929
-0.00628163
-0.00279835
-0.00117646
-0.000509452
-0.000216756
-6.04842e-05
6.66456e-06
1.71735e-05
1.12906e-05
-6.07937e-06
-3.54243e-05
-7.44146e-05
-0.000148839
-0.000324975
-0.000695475
-0.00130298
-0.00616664
-0.0260642
-0.0723359
-0.138996
-0.214591
-0.282612
-0.333028
-0.357187
-0.362699
-0.360275
-0.35801
-0.366384
-0.373561
-0.377399
-0.382245
-0.389258
-0.398289
-0.404395
-0.39877
-0.378213
-0.344126
-0.301892
-0.259005
-0.222592
-0.197203
-0.183592
-0.178809
-0.177279
-0.172267
-0.157273
-0.127231
-0.0795497
-0.0149563
0.0621261
0.144145
0.222244
0.288883
0.341059
0.38073
0.408605
0.418098
0.400838
0.347757
0.273009
0.245319
0.301548
0.439916
1.29139e-21
9.19769e-23
1.40354e-22
7.21317e-23
-1.87136e-23
-1.26668e-22
-2.47259e-22
-3.63074e-22
-4.35647e-22
-3.90634e-22
-1.14983e-22
4.74191e-22
1.24275e-21
1.64437e-21
8.61209e-22
-1.45005e-21
-4.30394e-21
-5.71715e-21
-4.5237e-21
-1.18121e-21
5.15028e-21
1.83515e-20
3.96619e-20
6.33683e-20
8.11495e-20
8.75272e-20
8.02989e-20
5.9545e-20
3.01768e-20
4.14143e-21
-5.25475e-21
1.36946e-21
8.1939e-21
4.58447e-21
-1.53728e-21
-4.80336e-22
1.11136e-21
-1.44213e-22
-1.05938e-21
-6.59264e-22
-1.93609e-22
-1.24196e-22
-2.48107e-22
-4.31492e-22
-6.93412e-22
-1.12157e-21
-1.79223e-21
-3.54021e-21
-4.92029e-21
-6.68626e-21
-1.10764e-20
-1.57863e-20
-1.60054e-20
-1.12118e-20
-5.54318e-21
-4.16198e-20
1.32238e-19
-2.4402e-20
4.59132e-18
-1.47473e-17
1.15841e-16
-9.17314e-16
7.76697e-15
-1.81379e-14
1.2331e-13
3.09609e-12
-2.21868e-12
8.0514e-11
7.74462e-10
4.05056e-09
1.38446e-08
2.94095e-08
4.89822e-08
6.52391e-08
7.47063e-08
7.62902e-08
7.13462e-08
6.19951e-08
5.01696e-08
3.76876e-08
2.62531e-08
1.66288e-08
9.45371e-09
4.79191e-09
2.02882e-09
5.97851e-10
1.8199e-10
1.35459e-10
2.61333e-10
5.61524e-10
1.24666e-09
2.78414e-09
6.20393e-09
1.42673e-08
3.77226e-08
8.7567e-08
2.75483e-07
9.06756e-07
2.29023e-06
4.19454e-06
5.41723e-06
5.3594e-06
-1.01217e-05
-7.05792e-05
-0.000213177
-0.000417459
-0.000693641
-0.000936356
-0.00116394
-0.00110824
-0.000960194
-0.000764681
-0.000550433
-0.000367984
-0.000231771
-0.000149195
-0.000108472
-8.75985e-05
-8.17692e-05
-0.000101774
-0.000166426
-0.000417428
-0.00112286
-0.00291939
-0.00638182
-0.0119934
-0.019992
-0.0302237
-0.0414575
-0.0528278
-0.0620232
-0.0665831
-0.0660951
-0.0611932
-0.0529006
-0.0425124
-0.0314857
-0.0213788
-0.0129496
-0.00694742
-0.00315372
-0.00109217
-0.00034465
-9.25365e-05
-3.88856e-06
-1.31772e-05
-6.52119e-05
-0.000155558
-0.000322356
-0.000665869
-0.00136114
-0.00291982
-0.0121706
-0.0406394
-0.0964939
-0.17223
-0.252689
-0.322078
-0.365651
-0.380614
-0.376758
-0.362891
-0.340566
-0.321189
-0.300707
-0.280215
-0.265969
-0.256684
-0.25293
-0.254469
-0.256464
-0.249873
-0.232485
-0.206376
-0.176392
-0.148265
-0.126538
-0.113136
-0.107033
-0.104825
-0.101701
-0.0924047
-0.072092
-0.0371909
0.0137001
0.0790465
0.154
0.231022
0.301484
0.358526
0.39897
0.421386
0.426524
0.421869
0.397698
0.331024
0.257782
0.264467
0.369822
0.27322
-6.01548e-22
1.59548e-22
1.0601e-23
2.02466e-23
4.38211e-23
7.1728e-23
9.75737e-23
1.11089e-22
9.35614e-23
1.79698e-23
-1.32204e-22
-3.14858e-22
-3.83651e-22
-1.30585e-22
5.28552e-22
1.33943e-21
1.72391e-21
1.14397e-21
-4.03959e-22
-2.25418e-21
-3.49299e-21
-2.76266e-21
1.07195e-21
6.84534e-21
1.09709e-20
1.0362e-20
5.22491e-21
-7.23431e-22
-3.08892e-21
-1.17599e-21
8.74754e-22
-3.03035e-22
-2.30408e-21
-1.67888e-21
1.51519e-22
1.92809e-22
-3.13639e-22
-1.1416e-22
2.08503e-22
1.94829e-22
7.45878e-23
3.23228e-23
5.28287e-23
9.58822e-23
1.57772e-22
2.5655e-22
4.22967e-22
8.27966e-22
1.19057e-21
1.87601e-21
3.29353e-21
4.32769e-21
3.82181e-21
2.06182e-21
1.69392e-21
5.38246e-21
-1.51327e-20
1.28029e-19
-3.95168e-19
-1.07132e-17
-1.10933e-16
-1.83403e-16
2.12882e-14
1.22522e-13
-1.95639e-13
-1.56951e-12
-1.17337e-11
-5.30902e-11
2.65383e-11
6.27323e-10
4.72545e-09
1.69856e-08
3.78824e-08
6.14472e-08
8.07604e-08
9.15175e-08
9.32904e-08
8.77402e-08
7.71107e-08
6.3566e-08
4.91108e-08
3.52535e-08
2.31726e-08
1.37124e-08
7.02444e-09
2.94673e-09
1.10961e-09
9.33627e-10
1.50547e-09
2.84456e-09
5.81322e-09
1.21195e-08
2.65585e-08
6.46309e-08
1.66293e-07
4.3819e-07
1.23085e-06
2.73005e-06
4.59156e-06
5.73329e-06
4.8644e-06
-1.21557e-05
-7.5029e-05
-0.000196991
-0.000376439
-0.0005484
-0.000770928
-0.000778343
-0.000691407
-0.000551037
-0.000386682
-0.000244769
-0.000144145
-8.75121e-05
-5.71144e-05
-3.97797e-05
-2.89315e-05
-2.23977e-05
-2.03705e-05
-2.46496e-05
-3.91438e-05
-8.79776e-05
-0.000172579
-0.000684068
-0.0022218
-0.00565541
-0.0115958
-0.0204887
-0.0322268
-0.0460082
-0.060318
-0.0729741
-0.0802653
-0.0812453
-0.0769665
-0.0683709
-0.0567872
-0.0438681
-0.0312364
-0.0202825
-0.0116985
-0.00574919
-0.00221894
-0.000499772
-0.000119363
-0.000167662
-0.000367096
-0.000734124
-0.00146552
-0.00279211
-0.00712921
-0.0224912
-0.0612237
-0.126722
-0.209707
-0.29212
-0.357729
-0.390706
-0.395202
-0.383421
-0.352885
-0.31082
-0.260946
-0.217977
-0.182314
-0.154334
-0.13662
-0.125882
-0.121591
-0.123027
-0.125801
-0.123073
-0.11332
-0.0982812
-0.0813659
-0.0660149
-0.0543565
-0.046626
-0.0413804
-0.0361124
-0.0278107
-0.0133071
0.0104336
0.0458598
0.0941552
0.154437
0.222959
0.292753
0.354748
0.401053
0.4247
0.427196
0.426209
0.419086
0.386696
0.311817
0.252513
0.289335
0.40072
-0.0746345
1.19138e-22
-8.96684e-23
-2.28675e-23
-1.93456e-23
-2.28866e-23
-2.7406e-23
-2.93206e-23
-2.40867e-23
-5.35375e-24
3.1009e-23
7.54852e-23
9.30297e-23
3.16379e-23
-1.34021e-22
-3.47627e-22
-4.64554e-22
-3.41096e-22
-1.12133e-23
1.73802e-22
-2.68652e-22
-1.54775e-21
-3.4154e-21
-5.18773e-21
-6.22921e-21
-6.41158e-21
-5.83408e-21
-4.43806e-21
-2.40918e-21
-6.44758e-22
-6.18142e-23
-2.29842e-22
4.05706e-23
6.22211e-22
5.50442e-22
3.38268e-23
-5.53725e-23
8.15809e-23
6.47093e-23
-3.04664e-23
-5.21371e-23
-2.63197e-23
-1.00968e-23
-1.15648e-23
-2.13205e-23
-3.62388e-23
-5.94446e-23
-1.01821e-22
-1.96501e-22
-2.89336e-22
-5.17491e-22
-9.22603e-22
-1.10909e-21
-8.581e-22
-3.53061e-22
-5.22633e-22
1.9617e-22
-4.3689e-21
2.31864e-20
-1.73005e-19
-8.69782e-18
7.77131e-18
2.34492e-16
4.22779e-15
3.94903e-14
-3.1604e-14
-4.42021e-13
-1.41826e-12
-2.65516e-11
-8.35318e-11
-3.50352e-10
3.52749e-10
5.61969e-09
2.31713e-08
5.25486e-08