/*--------------------------------*- C++ -*----------------------------------*\
| =========                 |                                                 |
| \\      /  F ield         | OpenFOAM: The Open Source CFD Toolbox           |
|  \\    /   O peration     | Version:  2506                                  |
|   \\  /    A nd           | Website:  www.openfoam.com                      |
|    \\/     M anipulation  |                                                 |
\*---------------------------------------------------------------------------*/
FoamFile
{
    version     2.0;
    format      ascii;
    arch        "LSB;label=32;scalar=64";
    class       volVectorField;
    location    "4";
    object      U;
}
// * * * * * * * * * * * * * * * * * * * * * * * * * * * * * * * * * * * * * //

dimensions      [0 1 -1 0 0 0 0];

internalField   nonuniform List<vector> 
4000
(
(0.00259624 -0.00108483 8.19078e-23)
(0.0033876 -0.00080306 0)
(0.00460564 -0.000366001 3.9465e-23)
(0.00545831 -0.000184754 3.28312e-23)
(0.00595376 -0.000112687 2.82185e-23)
(0.00628612 -7.17421e-05 0)
(0.00653382 -4.76587e-05 2.30279e-23)
(0.00672449 -3.36837e-05 2.17567e-23)
(0.00687563 -2.49559e-05 0)
(0.0069991 -1.90589e-05 0)
(0.00710221 -1.4856e-05 3.52181e-22)
(0.00718975 -1.17178e-05 -6.68639e-22)
(0.00726505 -9.26809e-06 3.15675e-22)
(0.00733051 -7.27687e-06 -3.63107e-22)
(0.00738795 -5.60263e-06 3.61781e-22)
(0.00743877 -4.15597e-06 2.43247e-23)
(0.00748408 -2.88006e-06 4.22662e-22)
(0.00752486 -1.74269e-06 -4.21219e-22)
(0.00756198 -7.31598e-07 2.87591e-23)
(0.00759628 1.55491e-07 0)
(0.00762862 9.20132e-07 0)
(0.00765989 1.55457e-06 -3.48708e-23)
(0.00769109 2.04316e-06 -3.73355e-23)
(0.00772338 2.35464e-06 0)
(0.00775819 2.43387e-06 -4.30396e-23)
(0.00779736 2.18895e-06 -4.63463e-23)
(0.00784336 1.44834e-06 0)
(0.00789959 -1.34029e-07 0)
(0.00797059 -3.11983e-06 1.98766e-21)
(0.00806805 -9.14841e-06 -2.04218e-21)
(0.00820613 -2.97851e-05 0)
(0.00828663 -9.62379e-05 -5.20872e-21)
(0.00825775 -0.00022406 8.23482e-21)
(0.0081472 -0.000412354 -3.3366e-22)
(0.00799573 -0.000647521 -4.06514e-21)
(0.00782639 -0.000929543 6.0679e-20)
(0.00769219 -0.00126001 -8.1958e-22)
(0.00752938 -0.00171562 -1.32877e-20)
(0.00723083 -0.00228684 0)
(0.00687172 -0.0028416 5.06959e-21)
(0.00657859 -0.00330919 -5.13624e-21)
(0.00634569 -0.00369488 4.1054e-20)
(0.00615585 -0.00400425 0)
(0.00600674 -0.00423394 3.50539e-20)
(0.00589289 -0.00438476 -1.46816e-20)
(0.00580224 -0.00446377 2.03038e-20)
(0.0057254 -0.00447611 0)
(0.00565772 -0.00443231 -1.93127e-20)
(0.00558134 -0.00434633 -2.02616e-20)
(0.00547879 -0.0042253 -1.49774e-20)
(0.00532825 -0.00407418 0)
(0.00513815 -0.00387274 0)
(0.00491018 -0.00363137 -1.79055e-21)
(0.00464143 -0.00329729 1.38636e-20)
(0.00440016 -0.00285554 2.27893e-21)
(0.00427493 -0.00226798 -8.64362e-21)
(0.00436005 -0.00157514 -4.4709e-21)
(0.00476497 -0.000806549 1.04248e-21)
(0.00552502 -0.00012082 0)
(0.00645207 0.000335334 4.00419e-22)
(0.00731016 0.000567276 1.44227e-21)
(0.0080489 0.000631631 -7.97433e-22)
(0.0085644 0.000601244 -7.99963e-21)
(0.00893053 0.000533921 8.42394e-21)
(0.00917015 0.000467372 0)
(0.00932858 0.000411172 0)
(0.00943878 0.000365828 0)
(0.00951387 0.000331114 1.46858e-21)
(0.0095668 0.000304809 2.16248e-20)
(0.00960611 0.000284367 1.19535e-20)
(0.00963685 0.000267729 0)
(0.00966093 0.000253777 -1.05226e-20)
(0.00968008 0.000241647 1.04555e-20)
(0.00969576 0.000230594 1.08893e-21)
(0.00970885 0.000220129 -1.1273e-20)
(0.0097199 0.000209922 9.86737e-21)
(0.00972935 0.000199664 1.0927e-20)
(0.00973599 0.00018975 1.01998e-20)
(0.00974092 0.000179811 0)
(0.00974457 0.000169545 0)
(0.0097469 0.000158601 -2.53581e-22)
(0.00974384 0.000148033 -7.42651e-21)
(0.00973879 0.000136429 0)
(0.00972714 0.000124444 5.47297e-21)
(0.00971049 0.000110593 -4.27995e-21)
(0.00968142 9.47434e-05 0)
(0.00964113 7.36177e-05 0)
(0.00959349 4.26648e-05 3.30111e-23)
(0.0095468 -2.29272e-06 2.83324e-22)
(0.00951991 -5.97504e-05 -1.10895e-21)
(0.00952646 -0.000113908 8.10943e-23)
(0.00956954 -0.000151823 -8.92092e-23)
(0.009644 -0.000155494 -3.80797e-22)
(0.00974838 -0.000121606 0)
(0.00985955 -5.86729e-05 8.72858e-21)
(0.00996125 2.84896e-05 9.41764e-21)
(0.0100434 0.000118433 1.01491e-20)
(0.010093 0.000194802 7.03243e-22)
(0.0101112 0.000245547 1.1307e-20)
(0.0100981 0.00026478 1.24419e-20)
(0.0100562 0.000252226 -2.00863e-22)
(0.0099977 0.000212846 1.35612e-20)
(0.00992682 0.000153816 2.66126e-20)
(0.0098512 8.31543e-05 6.466e-22)
(0.00977103 6.31309e-06 1.28502e-20)
(0.00968216 -7.52043e-05 0)
(0.00957744 -0.000163133 -1.28933e-20)
(0.00944402 -0.000263483 -1.17222e-20)
(0.00926743 -0.000378303 -8.16786e-22)
(0.00903899 -0.000507181 0)
(0.00874616 -0.000641816 -1.05045e-20)
(0.00838418 -0.000761535 9.39403e-21)
(0.00798078 -0.000839601 0)
(0.007555 -0.000832508 1.35502e-20)
(0.00718796 -0.000721549 2.33038e-21)
(0.00695334 -0.000488394 2.98917e-21)
(0.00695909 -0.000156113 0)
(0.00722152 0.0001673 -4.38419e-22)
(0.00762 0.00040629 1.54605e-22)
(0.00807603 0.000540646 5.94051e-23)
(0.0084667 0.0005818 -2.02249e-22)
(0.00877541 0.000568496 8.25478e-21)
(0.00900074 0.000532817 -9.98084e-21)
(0.00917345 0.000488892 -6.88524e-22)
(0.00929703 0.000447057 -9.94057e-21)
(0.00938636 0.000410791 2.22642e-20)
(0.00945522 0.00037922 -1.15014e-20)
(0.00950825 0.000351873 1.27887e-20)
(0.00954864 0.000328546 -5.31936e-22)
(0.00958013 0.000308452 1.1591e-20)
(0.00960522 0.00029074 0)
(0.00962547 0.000274716 -1.29003e-20)
(0.00964204 0.000259757 2.03755e-21)
(0.00965514 0.000245609 -1.41173e-20)
(0.00966554 0.000231901 0)
(0.00967377 0.000218266 0)
(0.00968011 0.000204449 1.13029e-20)
(0.00968523 0.000189753 -1.03498e-20)
(0.00968571 0.00017504 0)
(0.0096841 0.000159491 0)
(0.00968193 0.000141646 -8.22385e-21)
(0.00967173 0.000122806 1.65638e-21)
(0.00965941 0.000100885 -7.46626e-21)
(0.00963719 7.5364e-05 0)
(0.0096055 4.44157e-05 2.69899e-21)
(0.00956628 6.70661e-06 1.03294e-21)
(0.00952259 -4.28747e-05 -2.28074e-22)
(0.00948798 -0.000102159 -3.3233e-23)
(0.00948154 -0.000161369 0)
(0.00950961 -0.000209661 1.0156e-21)
(0.0095716 -0.000229381 2.62772e-22)
(0.00966248 -0.000212489 -8.47231e-21)
(0.00977321 -0.000164487 1.52968e-21)
(0.0098834 -8.61593e-05 1.52684e-22)
(0.00997763 6.78953e-06 5.97153e-21)
(0.0100463 9.43565e-05 2.09893e-21)
(0.0100779 0.000159313 0)
(0.0100767 0.000196622 0)
(0.0100413 0.000200133 0)
(0.00997785 0.000169986 -2.01463e-20)
(0.00988883 0.000111432 2.55471e-21)
(0.00976894 3.93348e-05 9.44143e-21)
(0.00964664 -2.63688e-05 7.25043e-21)
(0.0093778 -9.97201e-05 0)
(0.00912026 -0.000177896 -8.91566e-21)
(0.00886407 -0.000245136 -1.38329e-20)
(0.00858178 -0.000272327 -2.70905e-22)
(0.00831516 -0.000254426 -1.70707e-21)
(0.00810138 -0.000192267 -3.79003e-21)
(0.00800082 -9.61366e-05 -1.14589e-21)
(0.00800729 -2.24322e-05 0)
(0.00801679 1.37824e-06 -9.49367e-24)
(0.00800269 7.11536e-06 0)
(0.00798775 8.49298e-06 -5.75595e-24)
(0.00797969 8.40049e-06 -4.12971e-24)
(0.00797694 7.80194e-06 -1.34113e-22)
(0.00797616 7.31216e-06 1.32547e-22)
(0.00797449 7.16951e-06 -1.97719e-23)
(0.0079697 7.35056e-06 2.10911e-23)
(0.00796014 7.70797e-06 -9.59312e-23)
(0.00794461 8.16595e-06 2.39124e-22)
(0.00792249 8.76768e-06 -1.31863e-22)
(0.00789394 9.80864e-06 0)
(0.00785963 1.09587e-05 7.44379e-24)
(0.00781977 1.19775e-05 -8.73564e-24)
(0.00777453 1.2928e-05 3.52249e-22)
(0.00772407 1.38527e-05 -3.3046e-22)
(0.00766811 1.48425e-05 4.37638e-22)
(0.007606 1.60452e-05 -4.22869e-22)
(0.00753606 1.7585e-05 2.89272e-22)
(0.00745615 1.96312e-05 -2.54871e-22)
(0.00736256 2.24821e-05 2.00816e-23)
(0.00724969 2.67015e-05 2.22948e-23)
(0.0071083 3.34334e-05 0)
(0.00692201 4.54914e-05 2.76962e-23)
(0.00665832 6.98347e-05 3.11891e-23)
(0.00624413 0.000124128 3.47331e-22)
(0.00549933 0.000266144 -3.56114e-22)
(0.00410783 0.000695576 0)
(0.00309642 0.00117306 6.98e-23)
(-2.69893e-05 -0.00217106 -2.73597e-23)
(-4.3873e-05 -0.00193829 3.85833e-23)
(0.000783567 -0.00129995 -4.58918e-23)
(0.00157516 -0.000903773 1.80459e-22)
(0.00221912 -0.000650939 -4.26274e-22)
(0.00275204 -0.000484946 2.17775e-23)
(0.00320089 -0.00037639 1.98212e-22)
(0.00357988 -0.000302756 -7.62664e-23)
(0.00390218 -0.000250088 -4.92152e-23)
(0.00417901 -0.000210849 -4.81833e-23)
(0.00441886 -0.000180721 -7.15449e-23)
(0.00462817 -0.000156976 -4.38565e-22)
(0.00481181 -0.000137826 4.12142e-22)
(0.00497362 -0.000122094 -4.13946e-22)
(0.00511664 -0.000108987 7.90137e-22)
(0.00524332 -9.79595e-05 -9.62783e-22)
(0.00535565 -8.86553e-05 3.91726e-22)
(0.00545535 -8.0873e-05 -5.62969e-22)
(0.00554398 -7.45297e-05 -6.61382e-22)
(0.00562303 -6.96266e-05 9.91742e-22)
(0.00569399 -6.62259e-05 -7.23598e-23)
(0.00575844 -6.4451e-05 -1.32536e-21)
(0.00581803 -6.45178e-05 1.32318e-21)
(0.00587471 -6.679e-05 1.38787e-21)
(0.00593077 -7.18243e-05 -1.42147e-21)
(0.00598911 -8.04256e-05 -4.98832e-23)
(0.0060534 -9.38028e-05 -1.84031e-21)
(0.00612839 -0.000113922 -4.15373e-23)
(0.00622011 -0.000144053 4.13751e-21)
(0.00633921 -0.000189464 2.74985e-22)
(0.00650007 -0.000263045 -2.32671e-21)
(0.00663473 -0.000404723 -2.7814e-21)
(0.00667016 -0.000627382 -8.75732e-21)
(0.00660205 -0.000920889 -1.897e-20)
(0.00646398 -0.00128014 -1.40631e-20)
(0.00628976 -0.00171659 -1.62214e-20)
(0.00611802 -0.00224675 3.027e-21)
(0.00591886 -0.00290522 1.35937e-20)
(0.00560681 -0.00363912 -4.54097e-21)
(0.00525059 -0.00433946 -1.33115e-20)
(0.0049634 -0.00495407 -1.83562e-20)
(0.00473296 -0.00547489 -2.0071e-20)
(0.00454157 -0.00589465 0)
(0.00438746 -0.00620699 -4.0184e-20)
(0.00426217 -0.00641363 1.99021e-20)
(0.00415157 -0.0065216 -2.04706e-20)
(0.00404217 -0.0065383 2.01008e-20)
(0.00392351 -0.00647848 0)
(0.00377334 -0.00635574 1.4691e-21)
(0.00357283 -0.00617583 1.76177e-20)
(0.0033057 -0.00594374 -1.73099e-20)
(0.00296977 -0.0056487 1.98054e-21)
(0.00257729 -0.00529423 1.51007e-20)
(0.00211748 -0.00485901 -3.2178e-21)
(0.00166273 -0.00429365 1.36132e-20)
(0.0012765 -0.00355518 0)
(0.00107067 -0.0026732 4.60875e-21)
(0.00114947 -0.00163819 -1.98549e-21)
(0.00166119 -0.000557817 -1.22887e-22)
(0.00256574 0.000389783 -3.11914e-22)
(0.00372133 0.00107774 -1.94631e-21)
(0.0049803 0.0014795 -5.99055e-21)
(0.00607465 0.00162207 -7.72657e-21)
(0.00697908 0.0015807 -9.99866e-21)
(0.00765251 0.00146774 1.3409e-21)
(0.00813918 0.00133532 -1.30205e-21)
(0.0084887 0.00121001 0)
(0.0087327 0.00110507 0)
(0.00890303 0.00102156 -2.47686e-20)
(0.00902387 0.000955801 1.20431e-20)
(0.00911179 0.000903132 1.5937e-21)
(0.00917628 0.00085982 -1.54111e-20)
(0.00922418 0.000822579 -1.06265e-20)
(0.00926053 0.000788765 -1.44633e-20)
(0.00928886 0.000756551 8.00771e-22)
(0.00931121 0.000724665 7.74086e-22)
(0.00932917 0.000692025 1.26382e-20)
(0.00934133 0.000659151 -1.13596e-20)
(0.00934935 0.000624987 -6.69499e-22)
(0.0093541 0.000588683 -9.77766e-21)
(0.00935644 0.000549392 9.00487e-21)
(0.00935116 0.000508149 0)
(0.00934386 0.000461592 0)
(0.00933068 0.000409133 0)
(0.00931702 0.00034645 4.63979e-21)
(0.00930168 0.000269759 -1.23833e-22)
(0.00929901 0.00017372 6.76519e-23)
(0.00932245 5.88825e-05 -7.05544e-23)
(0.00938145 -6.87465e-05 -1.1909e-22)
(0.00949011 -0.000185948 2.69782e-21)
(0.00963655 -0.000262691 -2.77667e-22)
(0.00981108 -0.000279476 -7.36671e-24)
(0.00999005 -0.000236772 5.92848e-21)
(0.0101582 -0.000136047 -7.36591e-21)
(0.0102958 3.73194e-06 8.26618e-21)
(0.0103938 0.000157443 -9.02603e-21)
(0.0104496 0.000300235 9.08768e-21)
(0.0104635 0.000411062 1.04061e-20)
(0.0104388 0.000476636 -1.14411e-20)
(0.0103844 0.000492659 -1.16807e-20)
(0.0103124 0.000462923 0)
(0.0102318 0.000397218 1.18883e-20)
(0.0101436 0.000307054 -1.29424e-20)
(0.0100497 0.000202956 3.90345e-22)
(0.00994337 9.11632e-05 -1.44408e-21)
(0.00981405 -2.77326e-05 0)
(0.00964799 -0.000157141 2.43948e-20)
(0.00942951 -0.000302265 2.44254e-20)
(0.00914583 -0.000465929 1.06376e-20)
(0.0087903 -0.000642974 9.31666e-21)
(0.00835932 -0.000816562 1.0696e-20)
(0.00785176 -0.000962118 -1.82893e-20)
(0.00730162 -0.0010567 5.22361e-22)
(0.00671777 -0.00103377 -7.12099e-21)
(0.00616622 -0.00089743 5.4308e-22)
(0.00568994 -0.000609477 -1.55088e-21)
(0.00537665 -0.000188901 -8.84153e-23)
(0.00530896 0.000301917 4.38724e-22)
(0.00548758 0.000780888 1.50918e-22)
(0.00591408 0.00117272 -1.45741e-22)
(0.00645343 0.0014323 0)
(0.00700231 0.00153162 -9.3362e-21)
(0.00747567 0.00153864 -3.23788e-22)
(0.00787774 0.00148847 1.01953e-21)
(0.0081937 0.00141 1.16106e-20)
(0.0084377 0.00132556 -1.29231e-20)
(0.00862903 0.0012438 -1.20859e-20)
(0.00877777 0.00116911 -2.62468e-20)
(0.00889203 0.00110315 -2.67737e-20)
(0.00898022 0.00104512 -1.24156e-20)
(0.00904878 0.000993451 -1.68583e-21)
(0.0091024 0.000946498 -1.30068e-20)
(0.00914474 0.000902587 2.67479e-20)
(0.00917757 0.000860719 -3.24231e-21)
(0.00920284 0.000819774 -9.08951e-21)
(0.00922231 0.000778603 0)
(0.00923677 0.000736465 0)
(0.0092481 0.000691986 7.41496e-22)
(0.00925164 0.000646369 2.46313e-21)
(0.00925096 0.000597204 6.60683e-21)
(0.00924969 0.000541729 1.96152e-21)
(0.00923943 0.000480866 -2.75132e-22)
(0.00923023 0.0004097 -2.55798e-21)
(0.00921809 0.000326143 2.36696e-21)
(0.00921352 0.000225484 -2.7973e-21)
(0.00923077 0.000109174 0)
(0.0092751 -2.47072e-05 6.50001e-23)
(0.00936614 -0.000160196 -6.36822e-23)
(0.00950063 -0.000265257 1.09272e-21)
(0.00966903 -0.000315228 0)
(0.00985392 -0.000298164 0)
(0.0100354 -0.00022183 0)
(0.0101922 -9.38341e-05 0)
(0.0103138 6.00504e-05 1.53825e-20)
(0.0103915 0.000211994 3.578e-21)
(0.0104229 0.000338588 1.94053e-21)
(0.0104086 0.000421692 -2.18163e-21)
(0.0103569 0.00045266 -1.28072e-20)
(0.0102785 0.000431829 4.24148e-21)
(0.0101763 0.000365843 9.74206e-21)
(0.010053 0.00026985 6.70154e-23)
(0.00991126 0.000168866 -7.27928e-21)
(0.00977829 9.4011e-05 2.0397e-21)
(0.00952622 1.37167e-05 -2.04053e-22)
(0.00926695 -8.07819e-05 -9.10083e-21)
(0.00898224 -0.000153447 7.71083e-21)
(0.0086497 -0.000184528 0)
(0.00829811 -0.000171393 0)
(0.00794803 -0.000116355 1.44769e-21)
(0.00763174 -3.67486e-05 8.84438e-22)
(0.00739457 2.60346e-05 -8.47597e-22)
(0.00723176 3.9944e-05 1.06316e-23)
(0.00710897 3.15568e-05 -4.75357e-22)
(0.00702502 1.86173e-05 4.66218e-22)
(0.00697073 8.10891e-06 1.31979e-23)
(0.00693709 1.5285e-06 1.33253e-22)
(0.0069137 2.20905e-07 -9.78e-23)
(0.00689274 2.72112e-06 -6.21762e-23)
(0.00686806 8.31466e-06 2.41781e-23)
(0.00683556 1.61204e-05 1.14291e-22)
(0.00679225 2.48819e-05 -1.1244e-22)
(0.00673686 3.44848e-05 5.96305e-24)
(0.00666844 4.42135e-05 -2.4885e-22)
(0.00658731 5.35478e-05 2.5747e-22)
(0.00649402 6.22673e-05 9.83306e-24)
(0.00638916 7.06198e-05 3.5792e-22)
(0.0062734 7.91406e-05 -4.31654e-22)
(0.00614496 8.85632e-05 5.01079e-22)
(0.00600269 9.9846e-05 -5.511e-22)
(0.00584284 0.000114242 2.57153e-22)
(0.00566053 0.000133515 -3.33533e-22)
(0.00544679 0.000160324 2.31733e-23)
(0.00518939 0.000198981 -7.64161e-23)
(0.00486909 0.000257467 -4.80881e-22)
(0.00445478 0.000351776 5.14866e-22)
(0.00389712 0.00051488 -1.07309e-22)
(0.00312172 0.000814735 -4.09951e-23)
(0.00202894 0.00138124 1.40832e-22)
(0.000562814 0.0023321 0)
(3.78877e-05 0.00277297 -1.92595e-22)
(-0.000214967 -0.00183083 0)
(-0.000576668 -0.00209957 -1.95399e-22)
(-0.000322307 -0.00175998 9.1627e-23)
(0.000133251 -0.00142337 6.67013e-23)
(0.000631957 -0.00115375 -1.42803e-22)
(0.00112029 -0.000946257 2.3551e-22)
(0.00157602 -0.000789008 -2.33355e-22)
(0.00199013 -0.000668237 5.26813e-23)
(0.00236199 -0.000573348 5.06318e-23)
(0.00269454 -0.000497296 1.49204e-22)
(0.00299155 -0.00043527 4.92516e-23)
(0.00325674 -0.00038381 1.49131e-22)
(0.00349343 -0.000340413 -4.12475e-22)
(0.00370455 -0.000303302 9.38877e-22)
(0.0038926 -0.000271198 -3.68711e-22)
(0.00405976 -0.000243163 5.17714e-22)
(0.0042079 -0.000218549 -2.82797e-22)
(0.00433872 -0.000196961 1.85198e-22)
(0.00445378 -0.000178211 1.14598e-21)
(0.00455457 -0.000162261 -1.00534e-21)
(0.00464263 -0.000149201 7.40128e-23)
(0.00471955 -0.00013925 2.34121e-22)
(0.00478712 -0.000132803 -1.3873e-21)
(0.00484738 -0.000130519 1.47127e-21)
(0.00490278 -0.000133386 1.59209e-21)
(0.00495634 -0.000142796 -1.27822e-21)
(0.00501177 -0.000160731 -1.84193e-21)
(0.00507369 -0.000190083 1.71217e-21)
(0.00514743 -0.000235354 0)
(0.00524071 -0.000303503 0)
(0.00536359 -0.000406123 0)
(0.0054644 -0.000570688 0)
(0.00547411 -0.000813393 1.12711e-20)
(0.00538461 -0.00113645 1.54254e-20)
(0.00523311 -0.00154604 -1.61041e-20)
(0.00505881 -0.0020582 2.79078e-21)
(0.00489072 -0.00268614 -1.96578e-20)
(0.0047112 -0.00342594 4.19289e-21)
(0.00446146 -0.00420493 1.68219e-20)
(0.00419952 -0.00493689 -3.12108e-21)
(0.00399975 -0.00558422 3.64756e-20)
(0.00384309 -0.00613332 0)
(0.00371137 -0.00657302 -1.77916e-20)
(0.0036032 -0.00689716 -1.76832e-20)
(0.00350932 -0.00710758 2.23702e-21)
(0.00341515 -0.00721073 1.40666e-20)
(0.00330632 -0.00721622 -3.2631e-20)
(0.00317038 -0.00713557 -1.41747e-20)
(0.00298847 -0.00697949 -2.65096e-21)
(0.00274632 -0.00676516 1.1957e-22)
(0.00243634 -0.00648074 5.23487e-21)
(0.00205974 -0.00612712 -3.50187e-21)
(0.00163431 -0.00570267 -1.34586e-21)
(0.00116149 -0.005185 2.06995e-22)
(0.000702203 -0.00455973 1.09599e-20)
(0.000309895 -0.00380805 -3.95309e-21)
(5.9526e-05 -0.00294767 -3.71438e-21)
(1.79242e-05 -0.00197907 1.72248e-21)
(0.000297344 -0.000963209 1.24779e-22)
(0.000912105 2.37507e-06 0)
(0.00182136 0.000822805 -4.91409e-22)
(0.00297611 0.00143429 4.63477e-22)
(0.00415961 0.0017807 4.33449e-22)
(0.00527522 0.00194135 8.19638e-21)
(0.00621582 0.00193364 -8.41733e-21)
(0.00696539 0.00184813 9.30567e-21)
(0.00754038 0.00172628 0)
(0.00796362 0.0016036 0)
(0.00826865 0.0014968 2.29964e-20)
(0.00848653 0.00140906 -2.3508e-20)
(0.00864195 0.00133926 0)
(0.00875268 0.00128326 1.09222e-20)
(0.00883197 0.00123574 8.29251e-22)
(0.00888931 0.00119211 -9.97715e-21)
(0.00893213 0.00114912 1.27372e-20)
(0.00896544 0.00110466 1.03183e-20)
(0.00899293 0.00105646 -2.2694e-20)
(0.00901483 0.00100398 6.71721e-22)
(0.00903336 0.000946334 6.05139e-22)
(0.00904999 0.000882901 1.7799e-20)
(0.00906672 0.000811556 -1.68902e-20)
(0.00908076 0.000731591 -2.26371e-22)
(0.00909775 0.000640513 3.1349e-23)
(0.00911974 0.000536652 1.93459e-22)
(0.00915356 0.000417295 -4.54566e-21)
(0.0092051 0.000278798 0)
(0.00928345 0.000122329 4.47233e-22)
(0.00939892 -4.06759e-05 1.36799e-24)
(0.00955802 -0.000191224 -1.44268e-22)
(0.00975201 -0.000300734 -2.31432e-21)
(0.00995982 -0.000344129 -1.87696e-22)
(0.0101651 -0.000312572 -9.46507e-21)
(0.0103453 -0.000211176 -5.89909e-21)
(0.010489 -5.60156e-05 1.34484e-20)
(0.0105863 0.000128598 1.74956e-22)
(0.0106353 0.000316368 -8.76663e-21)
(0.0106385 0.00048178 -1.8406e-20)
(0.0106036 0.000604346 -1.01255e-20)
(0.0105441 0.00067392 0)
(0.010466 0.000688286 1.06335e-20)
(0.0103803 0.000653907 0)
(0.0102907 0.00058307 -1.19667e-20)
(0.0101956 0.000488873 1.82053e-22)
(0.010089 0.000381755 1.10651e-20)
(0.00995935 0.000267605 -1.21354e-20)
(0.00979327 0.000147057 0)
(0.00957819 1.74653e-05 -2.23027e-20)
(0.0093037 -0.00012442 -1.13543e-20)
(0.00896519 -0.000278058 -1.28561e-21)
(0.00856521 -0.000434771 -1.01829e-20)
(0.00811147 -0.000576083 0)
(0.00761441 -0.000681382 8.27411e-21)
(0.00710592 -0.000726341 0)
(0.00659677 -0.000683679 -4.78111e-21)
(0.00613048 -0.000548391 2.69899e-22)
(0.00572224 -0.000312389 0)
(0.00540488 1.13787e-05 0)
(0.00521487 0.000395252 -4.40647e-22)
(0.00518759 0.000812238 0)
(0.00531663 0.00122512 1.76698e-22)
(0.00561515 0.00155103 -3.90949e-22)
(0.00603783 0.00178025 2.12988e-22)
(0.00648845 0.00190959 0)
(0.00693256 0.00195685 0)
(0.00732586 0.00193038 1.06016e-20)
(0.00765681 0.00187028 -1.19981e-20)
(0.00792948 0.00179402 2.42069e-20)
(0.00814932 0.0017117 1.27258e-20)
(0.00832342 0.00163215 1.86967e-21)
(0.00846028 0.0015586 1.13539e-20)
(0.00856762 0.00149078 -1.59258e-21)
(0.00865188 0.00142714 1.31909e-20)
(0.00871864 0.00136552 2.22288e-21)
(0.00877162 0.00130412 -2.211e-23)
(0.00881404 0.0012413 2.27112e-21)
(0.00884922 0.00117536 -2.94359e-21)
(0.00887924 0.00110496 1.07389e-20)
(0.00890711 0.00102734 2.09347e-20)
(0.00893028 0.000942223 0)
(0.0089526 0.000848084 -9.15077e-21)
(0.00897773 0.000744035 -9.47748e-21)
(0.00900545 0.000626427 1.82989e-21)
(0.00904509 0.000493635 4.61491e-21)
(0.00909873 0.000343675 2.20281e-21)
(0.00917505 0.000174822 -1.8348e-21)
(0.00928412 -3.15853e-06 -4.0705e-22)
(0.00943596 -0.000173977 1.5761e-22)
(0.00962675 -0.000309447 -5.66684e-22)
(0.00983942 -0.00038024 -1.08488e-21)
(0.0100542 -0.000372243 -4.10025e-21)
(0.0102519 -0.000286974 2.08088e-21)
(0.0104155 -0.000139285 -1.15411e-21)
(0.0105324 4.6964e-05 -5.70906e-21)
(0.0106006 0.000244335 -1.30358e-20)
(0.0106173 0.000423972 -7.30136e-21)
(0.0105888 0.000563002 0)
(0.0105289 0.000647888 -7.81563e-21)
(0.0104416 0.000673965 2.3301e-20)
(0.0103395 0.0006467 1.34942e-21)
(0.010226 0.000579387 0)
(0.0101013 0.000491653 7.83993e-21)
(0.00997005 0.0004097 0)
(0.0098514 0.000358437 0)
(0.00965601 0.000316183 4.90578e-21)
(0.00945874 0.000263258 8.8979e-21)
(0.00923951 0.000224773 0)
(0.00898498 0.000211756 0)
(0.00871578 0.000219864 -2.24425e-21)
(0.00843969 0.000239012 2.05445e-21)
(0.00815874 0.000252051 -1.64549e-22)
(0.00789154 0.000241522 -1.91591e-22)
(0.00767206 0.000200207 -6.68165e-22)
(0.0075 0.000147129 1.56018e-23)
(0.0073681 9.84545e-05 -2.19658e-23)
(0.0072688 6.21926e-05 -2.40142e-23)
(0.00719346 4.0213e-05 -1.12116e-22)
(0.00713256 3.17328e-05 9.02722e-23)
(0.00707717 3.41491e-05 1.76921e-23)
(0.00701976 4.46954e-05 3.42813e-24)
(0.00695475 6.08328e-05 -1.22972e-22)
(0.00687747 8.04028e-05 1.32392e-22)
(0.00678779 0.000101654 -1.15668e-23)
(0.0066814 0.000122893 0)
(0.0065599 0.000143354 -1.71611e-23)
(0.00642328 0.000162988 -4.07227e-23)
(0.00627181 0.000182234 4.22027e-22)
(0.00610521 0.000202235 -3.72803e-22)
(0.00592233 0.00022464 5.08344e-22)
(0.00572073 0.000251662 -1.04424e-21)
(0.00549565 0.000286385 9.23907e-22)
(0.00523985 0.000333048 -3.17536e-22)
(0.0049427 0.000397782 -1.38932e-22)
(0.00458838 0.00049021 5.15355e-23)
(0.00415328 0.000626534 0)
(0.0036039 0.000833949 -1.91418e-22)
(0.002898 0.00115579 7.2211e-23)
(0.00199938 0.00165154 0)
(0.000923407 0.00236132 -9.27242e-23)
(-0.000124509 0.00309485 1.88638e-22)
(-0.00022379 0.00267292 3.09911e-22)
(-0.000153846 -0.00137023 -1.61326e-22)
(-0.000545016 -0.00197311 0)
(-0.000554425 -0.00193403 0)
(-0.000367163 -0.00174769 -1.37291e-22)
(-6.07107e-05 -0.00153772 1.2763e-22)
(0.000295071 -0.00134345 2.34957e-22)
(0.000663086 -0.00117492 -2.33331e-22)
(0.00102224 -0.00103154 1.06344e-22)
(0.00136209 -0.000909913 0)
(0.00167814 -0.00080641 -1.01495e-22)
(0.00196894 -0.000717742 0)
(0.00223455 -0.000641078 -7.27195e-25)
(0.00247574 -0.000574109 0)
(0.00269362 -0.000515041 -1.05966e-22)
(0.00288942 -0.000462496 0)
(0.00306438 -0.000415421 0)
(0.00321974 -0.000373062 -1.19517e-22)
(0.00335668 -0.000334944 -6.4017e-22)
(0.00347641 -0.000300835 1.59865e-21)
(0.00358012 -0.000270705 -1.08156e-21)
(0.00366909 -0.000244713 0)
(0.00374474 -0.000223214 1.14247e-21)
(0.00380868 -0.000206823 -1.29561e-21)
(0.0038629 -0.000196514 -1.76189e-22)
(0.00390975 -0.000193684 0)
(0.00395215 -0.000200245 -1.7093e-21)
(0.00399368 -0.000218837 1.69572e-21)
(0.0040387 -0.000252992 0)
(0.00409203 -0.000307813 2.12581e-21)
(0.00416032 -0.000390484 -2.11288e-21)
(0.00425165 -0.000510871 2.48305e-21)
(0.00432221 -0.000690183 -4.93791e-21)
(0.00431374 -0.000948481 -8.5281e-21)
(0.0042288 -0.00129686 -3.26939e-21)
(0.00411028 -0.00174624 7.93169e-22)
(0.00399462 -0.0023094 -8.91737e-22)
(0.0038949 -0.00298745 -1.05526e-20)
(0.00379666 -0.00375167 1.5147e-22)
(0.00365347 -0.00452762 3.10552e-21)
(0.00350875 -0.00525059 -7.21816e-21)
(0.00340795 -0.00589181 3.10117e-21)
(0.00333205 -0.00643459 -4.35021e-21)
(0.00326415 -0.00686625 3.484e-20)
(0.00320325 -0.00718062 1.36462e-20)
(0.00314016 -0.00737881 4.29592e-21)
(0.00306097 -0.00746588 0)
(0.00295234 -0.00745112 1.33361e-21)
(0.00280324 -0.00734452 3.15447e-20)
(0.00260072 -0.00715591 1.40461e-20)
(0.00233747 -0.00689293 1.87118e-21)
(0.00201276 -0.00655762 2.74852e-20)
(0.00163373 -0.00615171 0)
(0.00122213 -0.00567526 -1.38322e-20)
(0.000789789 -0.00512106 1.95281e-22)
(0.000386182 -0.00448753 3.46971e-23)
(4.58821e-05 -0.00377265 4.77573e-21)
(-0.000170207 -0.00299246 2.21615e-21)
(-0.000225597 -0.00215615 -2.3095e-21)
(-6.22265e-05 -0.00129618 3.72868e-22)
(0.000359672 -0.000458877 -1.42665e-22)
(0.00101895 0.000304783 6.63887e-22)
(0.00192534 0.000959974 3.80765e-22)
(0.00296306 0.00143275 7.04748e-21)
(0.00405421 0.00172714 -8.4382e-21)
(0.00508082 0.00184752 1.52578e-20)
(0.00597891 0.00185465 1.07594e-21)
(0.00672335 0.00180355 -1.0347e-20)
(0.00731007 0.00171304 -1.32535e-21)
(0.0077549 0.00161716 -1.12588e-20)
(0.00808256 0.00153162 1.41791e-20)
(0.0083183 0.0014615 9.34236e-21)
(0.00848458 0.00140621 0)
(0.00860135 0.00136128 1.16695e-20)
(0.00868303 0.00132122 1.01794e-20)
(0.00874148 0.00128089 1.38637e-21)
(0.00878512 0.00123572 -2.16127e-20)
(0.00882091 0.00118322 1.20722e-20)
(0.00885293 0.00112112 -1.28187e-21)
(0.00888471 0.00104698 9.29366e-21)
(0.0089186 0.000959979 -9.16744e-21)
(0.0089571 0.000861815 8.42855e-21)
(0.00900107 0.000748755 -7.21486e-21)
(0.00905645 0.000619278 6.31421e-21)
(0.00912348 0.000472418 0)
(0.00920905 0.000309582 1.15569e-22)
(0.00932396 0.000130789 3.56885e-23)
(0.00947365 -5.40976e-05 -6.01162e-22)
(0.00965785 -0.000226899 0)
(0.00987038 -0.000364094 3.53762e-22)
(0.0100956 -0.00043942 1.2273e-21)
(0.0103094 -0.000436143 -4.22657e-22)
(0.0104953 -0.000353244 5.1484e-21)
(0.0106366 -0.00020291 5.04074e-21)
(0.0107272 -6.19741e-06 -6.56746e-21)
(0.0107652 0.000209869 -3.39387e-22)
(0.0107519 0.000417703 7.75662e-21)
(0.0107075 0.00059316 8.9946e-21)
(0.0106336 0.00071778 5.73231e-22)
(0.0105458 0.000784689 9.51076e-21)
(0.0104533 0.000793768 -2.05953e-20)
(0.0103611 0.00075492 0)
(0.0102664 0.000682133 0)
(0.0101615 0.000588879 0)
(0.0100352 0.000485573 -1.10182e-20)
(0.0098739 0.000377817 -6.69806e-22)
(0.00966615 0.00026651 3.34393e-22)
(0.00940471 0.000150093 1.11187e-21)
(0.00908768 2.74071e-05 -9.12871e-21)
(0.00872046 -9.85938e-05 -9.72196e-21)
(0.00831464 -0.00021833 0)
(0.00788557 -0.000315914 0)
(0.00744945 -0.000375838 0)
(0.0070348 -0.00038282 0)
(0.0066503 -0.000324576 2.69192e-21)
(0.00632187 -0.000204023 1.27179e-21)
(0.00605015 -2.55415e-05 0)
(0.00583618 0.00019716 -2.98335e-24)
(0.00567021 0.000451616 0)
(0.00557007 0.000736417 0)
(0.00555951 0.00104648 0)
(0.00566139 0.00134091 0)
(0.00587514 0.00159127 -2.28702e-22)
(0.00617387 0.00177341 7.26114e-21)
(0.0065268 0.00187491 2.54731e-22)
(0.00688404 0.00191037 -1.00941e-20)
(0.00721766 0.00190343 1.14532e-20)
(0.00751371 0.00187223 -1.19996e-20)
(0.00776591 0.00182246 0)
(0.00797422 0.00176361 1.20869e-20)
(0.00814283 0.00170284 -1.0798e-20)
(0.0082777 0.00164189 8.49416e-21)
(0.00838523 0.00158039 -1.15079e-20)
(0.00847179 0.00151667 6.36988e-22)
(0.00854272 0.00144836 1.44531e-21)
(0.00860253 0.0013725 -6.66433e-22)
(0.00865565 0.00128735 -7.92553e-21)
(0.00870565 0.00119192 -3.36062e-21)
(0.00875675 0.00108639 -1.02121e-20)
(0.00880886 0.000969242 -2.20249e-21)
(0.00886685 0.000835717 1.02606e-20)
(0.00893506 0.000687669 1.48674e-20)
(0.0090123 0.000522487 7.66647e-21)
(0.00910782 0.000343131 -1.46138e-21)
(0.00922872 0.000150283 -1.10459e-21)
(0.009381 -4.79506e-05 6.25004e-22)
(0.00956586 -0.000234586 -2.10132e-22)
(0.00977914 -0.000387063 -2.52118e-23)
(0.0100087 -0.000478484 9.78958e-22)
(0.010233 -0.000488755 0)
(0.0104315 -0.000413917 4.04264e-21)
(0.0105892 -0.000264704 3.05627e-21)
(0.0106956 -6.31789e-05 0)
(0.0107462 0.000163092 4.22582e-21)
(0.0107434 0.000384762 7.8793e-21)
(0.0107027 0.000574753 -4.85003e-21)
(0.0106279 0.000713526 5.24449e-21)
(0.0105329 0.000792509 9.78439e-21)
(0.0104285 0.000811735 -1.00299e-20)
(0.0103236 0.000781797 -8.18506e-21)
(0.010217 0.00072113 9.12376e-21)
(0.0101064 0.000650028 -9.84459e-21)
(0.00999474 0.00058978 6.59577e-21)
(0.00988956 0.00055617 1.57555e-21)
(0.00973147 0.00053643 -8.29758e-21)
(0.00957923 0.000511547 0)
(0.00941414 0.000497604 4.93781e-21)
(0.00922966 0.000497477 1.1108e-21)
(0.00904269 0.000502652 2.09348e-21)
(0.00885632 0.00050082 -1.86612e-21)
(0.00866288 0.000476916 7.29068e-22)
(0.00845918 0.000424771 -7.2683e-22)
(0.00826924 0.000351964 0)
(0.00810112 0.000272739 -2.58675e-23)
(0.00795389 0.000201507 -2.60131e-22)
(0.00782607 0.000147339 2.97695e-22)
(0.00771445 0.000113323 9.13839e-23)
(0.00761376 9.86183e-05 -8.57408e-23)
(0.00751783 0.000100279 -4.27501e-23)
(0.00742067 0.000114783 4.27369e-23)
(0.00731715 0.000138631 0)
(0.00720312 0.000168437 -1.88488e-22)
(0.00707613 0.000201572 1.70169e-22)
(0.00693385 0.000235733 -2.87041e-22)
(0.00677546 0.000269297 2.57589e-22)
(0.00660083 0.000301989 4.06126e-23)
(0.00640978 0.000334554 -4.68972e-23)
(0.0062017 0.00036876 0)
(0.00597506 0.00040727 0)
(0.00572699 0.000453819 -6.69874e-23)
(0.0054527 0.000513515 0)
(0.0051449 0.000593259 0)
(0.00479291 0.000703001 1.84078e-22)
(0.00438099 0.000858016 0)
(0.00388654 0.00108175 0)
(0.00327995 0.00140744 5.14253e-22)
(0.00253112 0.00187311 -2.64806e-22)
(0.0016343 0.00249416 0)
(0.000662571 0.00317687 0)
(-0.000124277 0.00350571 -1.76321e-23)
(-0.000162951 0.00237028 -1.94722e-22)
(-0.000100665 -0.00106722 5.91731e-23)
(-0.000423603 -0.00177927 -1.81706e-22)
(-0.000549454 -0.00193862 -1.36976e-22)
(-0.000520957 -0.00189109 2.73602e-22)
(-0.000377598 -0.00177013 -4.86172e-22)
(-0.000160607 -0.00162232 2.40764e-22)
(9.38038e-05 -0.00147215 0)
(0.000362626 -0.00133024 -1.07522e-22)
(0.00063151 -0.00120043 0)
(0.000891892 -0.00108342 -5.07158e-22)
(0.00113882 -0.000978425 4.04316e-22)
(0.00136955 -0.000884114 -1.02442e-22)
(0.00158268 -0.000799049 -4.20595e-22)
(0.00177764 -0.000721929 3.13285e-22)
(0.00195438 -0.000651656 -1.08368e-22)
(0.00211315 -0.000587349 0)
(0.00225442 -0.000528355 -1.17591e-22)
(0.0023788 -0.000474266 3.91515e-22)
(0.00248702 -0.000424907 -1.599e-21)
(0.00257991 -0.00038033 1.08182e-21)