/*--------------------------------*- C++ -*----------------------------------*\
| =========                 |                                                 |
| \\      /  F ield         | OpenFOAM: The Open Source CFD Toolbox           |
|  \\    /   O peration     | Version:  2506                                  |
|   \\  /    A nd           | Website:  www.openfoam.com                      |
|    \\/     M anipulation  |                                                 |
\*---------------------------------------------------------------------------*/
FoamFile
{
    version     2.0;
    format      ascii;
    arch        "LSB;label=32;scalar=64";
    class       volVectorField;
    location    "4";
    object      vorticityField;
}
// * * * * * * * * * * * * * * * * * * * * * * * * * * * * * * * * * * * * * //

dimensions      [0 0 -1 0 0 0 0];

internalField   nonuniform List<vector> 
4000
(
(3.95459e-19 8.60305e-20 31.6346)
(7.6435e-20 7.23229e-20 34.324)
(1.33642e-19 4.12232e-19 29.9155)
(5.13076e-19 6.2928e-19 25.9146)
(-7.12645e-19 7.56418e-19 23.3259)
(4.22939e-20 8.88514e-21 21.4491)
(4.65786e-19 7.95152e-19 19.9517)
(-7.7756e-20 9.13667e-19 18.7329)
(-9.5978e-20 3.66208e-20 17.7224)
(-5.77892e-20 -6.0152e-19 16.867)
(5.16088e-19 2.12557e-17 16.1316)
(-2.16002e-18 -3.82811e-17 15.4918)
(1.41762e-18 1.76711e-17 14.9305)
(-1.46437e-18 -1.95302e-17 14.4343)
(2.21636e-18 1.87034e-17 13.993)
(-1.71877e-18 9.24105e-19 13.5986)
(1.44099e-18 2.03206e-17 13.2447)
(-1.87898e-18 -1.88023e-17 12.9255)
(-1.08005e-18 3.35707e-19 12.6362)
(1.8002e-18 5.65681e-20 12.3719)
(-1.37857e-19 5.8954e-20 12.1279)
(-2.46655e-18 -1.01454e-18 11.8995)
(2.31104e-18 -1.11985e-18 11.6815)
(2.47981e-18 2.04176e-20 11.468)
(-2.623e-18 -1.00683e-18 11.2519)
(-1.67272e-19 -1.1517e-18 11.0243)
(-3.23615e-18 -9.25883e-20 10.7737)
(4.23272e-19 -3.39195e-18 10.4845)
(1.02307e-17 4.31295e-17 10.1341)
(-3.64722e-18 -3.71627e-17 9.66282)
(-4.90051e-18 5.28657e-18 8.99102)
(-1.21293e-17 -1.03838e-16 8.42555)
(5.41031e-18 1.04531e-16 8.35832)
(-2.24393e-17 -4.19964e-17 8.85502)
(4.72618e-18 -2.17713e-16 9.83531)
(1.29085e-16 7.73549e-16 11.2293)
(1.66252e-17 6.84736e-17 12.8421)
(-4.6648e-17 -1.22973e-16 15.5941)
(-9.28473e-19 -4.5126e-17 19.8963)
(5.6222e-18 4.39255e-17 24.5577)
(-5.11667e-17 -1.71678e-16 29.0441)
(1.77986e-16 5.06838e-16 33.1161)
(-2.54662e-18 1.38441e-17 36.6941)
(2.86336e-16 3.1042e-16 39.7337)
(-1.37039e-16 -7.38165e-17 42.1982)
(4.05905e-18 3.02465e-16 44.092)
(2.86471e-17 1.32534e-16 45.3669)
(-4.53249e-17 -3.41265e-16 46.1426)
(-2.40452e-16 -2.36197e-16 46.5375)
(-1.48946e-16 -1.70132e-16 46.6848)
(-3.45273e-17 -6.71124e-17 46.6988)
(4.0785e-18 7.32736e-18 46.4366)
(1.99361e-17 -2.27761e-17 46.3166)
(2.80277e-17 3.31555e-16 46.0321)
(-6.63901e-17 2.97922e-16 45.4932)
(-1.59018e-17 -2.84284e-16 44.27)
(-3.61263e-17 -7.27873e-17 42.3643)
(7.64702e-18 1.38579e-17 39.3457)
(-4.78606e-19 1.07393e-18 35.0369)
(2.39291e-18 -2.89431e-17 30.1237)
(9.48358e-18 -5.70796e-17 25.3086)
(1.40775e-17 1.44499e-16 20.8174)
(-3.77953e-17 3.4741e-16 16.9892)
(3.63862e-17 -3.00529e-16 13.9594)
(5.94399e-19 1.73489e-17 11.5505)
(-3.23363e-18 2.82948e-18 9.77209)
(4.45813e-19 -4.00724e-18 8.4199)
(1.11011e-17 -1.09168e-16 7.39021)
(1.88128e-17 -7.08783e-16 6.6185)
(4.83807e-17 -3.76817e-16 6.01905)
(-1.57882e-18 5.95453e-17 5.53544)
(-5.23085e-17 3.56605e-16 5.12502)
(6.15716e-19 -3.48904e-16 4.767)
(-1.18872e-17 6.72112e-17 4.44357)
(-3.63211e-17 3.23933e-16 4.14245)
(2.23913e-17 -3.73401e-16 3.85645)
(4.46567e-17 -3.68092e-16 3.58189)
(9.70626e-18 -2.61092e-16 3.3175)
(-1.99711e-18 2.67843e-17 3.0714)
(-1.75165e-17 1.6911e-17 2.83498)
(1.49414e-17 1.15476e-17 2.6083)
(-1.27057e-17 2.49963e-16 2.39635)
(4.50093e-19 -2.70328e-17 2.21283)
(8.99425e-18 -2.09354e-16 2.04423)
(4.80859e-19 2.10426e-16 1.90601)
(-5.99015e-20 -7.79455e-18 1.79432)
(1.12201e-19 -7.36801e-20 1.71439)
(-6.92609e-20 9.10895e-18 1.64735)
(2.2259e-19 3.75529e-17 1.59741)
(1.49928e-18 -7.94922e-17 1.55178)
(-1.95055e-19 -1.94272e-18 1.48364)
(4.50115e-18 -5.82709e-18 1.35613)
(9.08805e-18 -7.70491e-18 1.11375)
(-1.18102e-17 -2.92781e-17 0.694229)
(2.98987e-17 2.63128e-16 0.13002)
(-1.90292e-18 2.74252e-16 -0.537379)
(3.37866e-17 3.32294e-16 -1.24864)
(1.97887e-17 3.68149e-17 -1.87076)
(-1.09769e-17 2.80315e-16 -2.31433)
(-1.13525e-17 3.65872e-16 -2.51011)
(-4.45858e-19 -8.54464e-18 -2.43268)
(4.99241e-17 3.32475e-16 -2.11014)
(1.97092e-17 7.59042e-16 -1.56978)
(2.24724e-18 5.59781e-17 -0.87392)
(2.24754e-17 3.7466e-16 -0.0568542)
(1.96327e-18 6.74131e-17 0.883755)
(2.11703e-17 -2.97104e-16 1.98023)
(1.83317e-17 -3.27947e-16 3.31128)
(2.08977e-17 -2.93759e-17 4.94987)
(2.37089e-17 4.21032e-17 6.94215)
(-2.6715e-17 -3.2412e-16 9.29662)
(5.78723e-18 2.39374e-16 11.8588)
(7.41921e-19 -6.12042e-18 14.5937)
(4.58892e-17 5.50517e-16 17.0613)
(7.79079e-18 1.63492e-16 19.1733)
(1.3339e-17 2.60956e-16 20.5983)
(1.71555e-19 5.93735e-18 21.0192)
(-1.76006e-20 7.2795e-17 20.3854)
(1.17326e-18 -8.36603e-18 19.0979)
(-1.03178e-19 3.38652e-19 17.2939)
(-1.7126e-18 -7.55528e-18 15.3743)
(3.32652e-17 -2.46063e-16 13.5611)
(-2.43101e-17 3.82334e-16 11.9753)
(-1.39661e-19 2.0204e-17 10.6188)
(-3.00638e-17 2.29597e-16 9.44412)
(5.05773e-17 -6.6034e-16 8.4839)
(-4.92091e-17 4.05828e-16 7.6803)
(-2.54055e-18 -3.3797e-16 6.99336)
(-3.14916e-17 9.16339e-17 6.40892)
(2.07054e-17 -2.98701e-16 5.90813)
(1.10496e-18 6.2371e-17 5.46875)
(-5.01008e-17 3.83771e-16 5.07438)
(3.68715e-17 -1.17009e-16 4.71252)
(-3.23101e-17 3.92485e-16 4.37603)
(-1.94714e-17 -1.45526e-17 4.06155)
(-2.67678e-18 -2.53793e-17 3.76352)
(2.18973e-17 -2.78356e-16 3.47893)
(-2.52734e-17 2.94876e-16 3.20374)
(1.63722e-18 -2.53623e-17 2.946)
(1.29061e-17 7.56228e-18 2.71176)
(-1.04595e-17 2.34004e-16 2.48328)
(2.59356e-18 -5.53062e-17 2.28202)
(-2.14006e-17 2.5376e-16 2.10679)
(1.63819e-18 -1.92542e-17 1.96232)
(7.78471e-19 -1.3785e-16 1.8623)
(2.25848e-18 -8.25263e-17 1.79041)
(3.47414e-19 6.64792e-17 1.7631)
(-5.48976e-19 -4.58382e-17 1.77194)
(1.63091e-18 -1.34931e-18 1.77209)
(2.86339e-18 5.17211e-17 1.73357)
(2.29439e-18 2.15304e-17 1.59574)
(-1.77056e-17 -3.79985e-16 1.28665)
(2.17299e-18 4.57614e-17 0.798814)
(2.68473e-17 1.14055e-17 0.166985)
(1.76826e-17 2.329e-16 -0.566935)
(8.88013e-18 1.01383e-16 -1.29758)
(-3.65161e-18 1.34609e-18 -1.86631)
(-2.55985e-17 -2.81051e-17 -2.20088)
(1.59929e-17 6.98337e-17 -2.23984)
(-1.31847e-17 -7.60813e-16 -1.9488)
(-7.36929e-18 7.53835e-18 -1.32425)
(-9.83703e-19 3.75538e-16 -0.365632)
(2.65482e-17 3.60969e-16 0.578667)
(7.06512e-18 4.12109e-17 2.03665)
(-3.53972e-17 -3.00951e-16 3.53597)
(-2.16229e-17 -5.21491e-16 5.06111)
(-5.68169e-18 -2.78794e-17 6.63163)
(-4.40905e-18 -5.21691e-17 8.09885)
(-6.60422e-18 -1.85049e-16 9.32159)
(-2.82588e-18 -5.76093e-17 10.0685)
(-2.23977e-18 -1.96215e-18 10.323)
(4.43196e-21 -7.37083e-19 10.4961)
(-1.03932e-18 -9.09714e-21 10.7143)
(1.0046e-18 -7.11083e-19 10.8856)
(5.48619e-20 -4.96254e-19 10.9844)
(8.65448e-21 -4.96388e-17 11.0275)
(-1.54458e-22 4.9044e-17 11.0436)
(-1.70568e-19 2.43604e-17 11.0555)
(1.36445e-19 -2.46608e-17 11.0808)
(-3.01176e-20 2.28833e-17 11.1321)
(3.2784e-19 -4.8317e-17 11.2186)
(-2.43182e-19 2.34585e-17 11.3449)
(-5.51737e-19 -2.38617e-19 11.512)
(5.62135e-19 -6.54551e-19 11.7165)
(-5.48916e-20 7.42037e-20 11.9568)
(1.57741e-18 -2.29857e-17 12.2315)
(-1.63363e-18 2.20157e-17 12.5386)
(2.00648e-18 -2.22441e-17 12.8821)
(-2.03837e-18 2.19602e-17 13.2653)
(1.14143e-18 -1.18184e-17 13.6989)
(-1.20478e-18 1.07514e-17 14.1973)
(7.19733e-20 -1.05148e-18 14.7863)
(-9.86871e-20 -5.27294e-19 15.503)
(-9.80129e-19 -1.18966e-20 16.408)
(1.11866e-18 -5.60332e-19 17.6056)
(-1.40356e-19 -1.0176e-18 19.2838)
(8.13516e-19 -3.94181e-18 21.822)
(-6.36963e-19 5.09834e-18 26.091)
(-7.78253e-21 -7.25384e-19 32.3488)
(-7.09352e-20 -2.01243e-20 30.632)
(-8.78677e-20 -2.53144e-19 -1.40022)
(-3.9338e-20 -7.44028e-20 9.3685)
(-3.83793e-20 -7.13426e-19 11.49)
(9.01763e-19 1.65934e-18 11.5519)
(-1.73105e-18 -5.1968e-18 11.0948)
(6.79893e-19 -1.74219e-18 10.4901)
(5.16348e-20 3.41366e-18 9.87851)
(-1.52485e-19 -1.40603e-18 9.30543)
(-4.11083e-20 -1.11101e-18 8.7797)
(1.62113e-19 -1.12109e-18 8.30137)
(-7.39022e-19 -1.54849e-18 7.86841)
(1.11928e-18 -1.47916e-17 7.47796)
(-9.67205e-19 1.35478e-17 7.12684)
(2.18647e-18 -1.40273e-17 6.81187)
(-9.30578e-19 2.6468e-17 6.53017)
(2.81631e-19 -2.94497e-17 6.27911)
(-1.05594e-18 1.16223e-17 6.05629)
(6.959e-19 -1.41188e-17 5.85949)
(2.09434e-18 -2.00314e-17 5.6867)
(-1.39342e-18 2.61745e-17 5.53606)
(-3.4111e-19 2.30786e-18 5.40576)
(4.12609e-19 -3.26178e-17 5.29384)
(-1.53281e-18 2.59039e-17 5.19808)
(2.3572e-18 3.29638e-17 5.11586)
(2.25387e-18 -2.62475e-17 5.04406)
(-2.32106e-18 6.95395e-20 4.9789)
(-3.76196e-18 -3.05295e-17 4.91539)
(4.41132e-18 -8.8819e-18 4.84702)
(-1.94699e-18 6.12352e-17 4.76495)
(2.18936e-18 1.28722e-17 4.65713)
(-1.93993e-18 -2.62993e-17 4.49358)
(4.58042e-18 -2.0524e-17 4.23944)
(-8.26881e-18 -7.13057e-17 4.03402)
(1.16539e-18 -1.89637e-16 3.94661)
(-3.90666e-17 -1.62585e-16 3.95121)
(-1.0695e-16 -2.65587e-16 4.00497)
(9.10369e-18 -7.21585e-17 4.13503)
(6.70582e-17 1.69732e-16 4.5083)
(-8.01392e-18 4.53564e-17 5.082)
(-1.20422e-16 -8.02901e-17 5.72835)
(-8.24842e-17 -4.05469e-17 6.52602)
(-2.05447e-16 -2.89938e-16 7.39574)
(-3.9077e-17 7.79347e-18 8.25327)
(-4.26583e-16 -4.88795e-16 9.06841)
(2.1585e-16 1.58528e-16 9.82221)
(-2.68519e-16 -1.57398e-16 10.4923)
(2.00356e-16 2.48681e-17 11.0541)
(4.93958e-18 5.33223e-17 11.5283)
(-3.2708e-18 4.51309e-17 11.9254)
(2.0617e-16 2.2609e-16 12.2821)
(-2.28993e-16 -6.66583e-17 12.5537)
(2.43663e-17 -5.91874e-17 12.788)
(2.02812e-16 8.94835e-17 13.0297)
(-7.20585e-17 -3.41795e-17 13.3484)
(1.52364e-16 1.07173e-16 13.84)
(9.65953e-18 2.11753e-17 14.4458)
(4.12409e-17 4.8435e-17 15.1987)
(-1.6394e-17 -1.76502e-17 16.0859)
(-6.59469e-19 -4.6652e-18 16.7345)
(-4.4321e-18 1.56381e-17 16.7945)
(-1.69506e-17 8.75319e-17 16.0475)
(-2.7077e-17 2.03356e-16 14.7083)
(-4.43149e-17 1.95397e-16 12.8087)
(-3.50849e-17 2.62809e-16 11.032)
(-1.2009e-17 -3.98487e-17 9.36108)
(1.60952e-17 2.03572e-17 7.97811)
(4.03664e-19 -3.33675e-18 6.86946)
(-1.03878e-17 7.15761e-17 5.99379)
(-6.58059e-17 6.33352e-16 5.33234)
(-2.87148e-17 -3.14099e-16 4.83202)
(-2.00932e-18 3.45692e-17 4.45078)
(-3.4778e-18 3.9233e-16 4.14292)
(-5.2458e-17 3.01042e-16 3.88001)
(-4.17785e-17 3.63293e-16 3.6422)
(3.43073e-17 -1.07482e-16 3.41485)
(3.8259e-18 -5.10358e-17 3.18875)
(-3.45703e-17 -2.27089e-16 2.96073)
(-3.18129e-17 3.41656e-16 2.72056)
(1.78771e-19 1.1455e-17 2.48012)
(1.15184e-17 2.11056e-16 2.23617)
(-1.03987e-17 -2.4813e-16 1.9892)
(1.20436e-17 1.05006e-17 1.72318)
(5.33781e-20 -3.55413e-20 1.46493)
(-8.72621e-18 -3.99773e-18 1.18195)
(7.64614e-18 -1.96641e-16 0.891369)
(-3.42299e-19 1.41041e-17 0.565478)
(8.70692e-19 -1.11611e-17 0.229938)
(-1.96911e-19 1.17903e-17 -0.104045)
(-6.79124e-19 -1.60133e-17 -0.404338)
(1.72583e-18 1.97257e-16 -0.619385)
(-9.73652e-19 -7.7014e-18 -0.740758)
(-1.29623e-17 -1.21133e-18 -0.810339)
(-4.72128e-18 2.42465e-16 -0.847681)
(2.05892e-17 -2.5575e-16 -0.85739)
(-1.63823e-17 2.76598e-16 -0.899122)
(-2.93402e-17 -3.07046e-16 -0.97987)
(-6.05101e-17 1.954e-16 -1.10626)
(-3.60632e-17 3.51704e-16 -1.26702)
(-1.04406e-17 -2.90033e-16 -1.44426)
(8.84143e-18 -3.54844e-16 -1.60438)
(6.31301e-19 -5.9794e-17 -1.73374)
(-6.68219e-17 3.24017e-16 -1.80592)
(-4.53123e-17 -3.78428e-16 -1.81584)
(2.11669e-17 4.49736e-18 -1.75396)
(-5.75531e-17 -6.50759e-17 -1.6221)
(-2.14283e-18 -6.63233e-17 -1.42271)
(-1.50939e-17 6.18293e-16 -1.15389)
(2.10725e-17 7.44088e-16 -0.819856)
(1.44794e-17 3.64917e-16 -0.420298)
(-6.35952e-18 2.71016e-16 0.0477228)
(5.54007e-17 3.84339e-16 0.561883)
(-6.09636e-17 -5.3647e-16 1.09888)
(3.55996e-19 -9.31776e-18 1.72572)
(-7.85903e-17 -2.61992e-16 2.4244)
(-2.81718e-18 1.11944e-17 3.22656)
(-1.65145e-17 -9.5406e-17 4.2632)
(-9.66289e-19 -1.36032e-17 5.54072)
(2.53293e-18 -3.90407e-17 6.91463)
(5.74711e-19 -4.19419e-18 8.0554)
(-6.38327e-19 5.63618e-18 8.9105)
(2.69798e-19 1.8245e-17 9.10121)
(-5.39796e-17 2.7195e-16 8.85153)
(2.12359e-17 -3.0873e-17 8.39787)
(5.17699e-18 -5.31537e-17 7.86276)
(7.73621e-17 -2.97241e-16 7.23384)
(-1.03696e-16 4.39371e-16 6.64351)
(2.59307e-17 2.44224e-16 6.114)
(-7.4786e-17 6.5227e-16 5.63245)
(-6.91948e-17 5.80883e-16 5.20213)
(-2.31195e-17 2.20904e-16 4.82259)
(-7.12985e-18 4.31573e-17 4.48294)
(5.49438e-18 1.68327e-16 4.17139)
(5.35151e-17 -6.11499e-16 3.87815)
(2.68483e-17 1.2578e-16 3.59377)
(-2.12658e-17 1.9062e-16 3.31548)
(-7.26431e-18 -1.50519e-17 3.03978)
(-1.02479e-18 -1.54743e-19 2.76306)
(4.15696e-17 -6.56618e-17 2.48497)
(2.49254e-18 -7.07683e-17 2.19443)
(-1.45119e-18 -1.50977e-16 1.90785)
(2.43201e-18 -3.83502e-17 1.62422)
(9.7569e-19 8.423e-18 1.3192)
(1.06935e-17 7.37924e-17 1.0175)
(6.66495e-18 -9.03942e-17 0.69327)
(-9.34028e-18 1.36845e-16 0.368234)
(-2.8742e-18 -4.72669e-18 0.0381288)
(1.07363e-18 4.33757e-17 -0.284855)
(-1.50783e-18 -4.69123e-17 -0.538937)
(1.45713e-18 9.71082e-17 -0.695167)
(-8.44633e-18 -2.27323e-18 -0.777253)
(3.12094e-18 1.94954e-18 -0.832549)
(1.27977e-17 9.4479e-18 -0.875479)
(-1.62975e-17 -4.79624e-17 -0.92382)
(-2.94413e-17 6.13148e-16 -1.03051)
(-2.76218e-17 1.66333e-16 -1.17467)
(-4.514e-18 9.12864e-17 -1.35509)
(-7.27551e-18 -5.74339e-17 -1.57338)
(7.4348e-17 -4.90346e-16 -1.76855)
(-1.6319e-17 1.15685e-16 -1.93255)
(3.34908e-17 4.19824e-16 -2.03596)
(1.76564e-17 6.4803e-17 -2.06625)
(-2.0463e-17 -3.09811e-16 -2.02212)
(-2.12315e-17 5.40643e-17 -2.08423)
(1.69354e-17 3.2902e-17 -2.00608)
(4.02456e-17 -3.481e-16 -1.99258)
(3.37763e-17 2.58152e-16 -1.88908)
(3.82627e-18 1.63536e-17 -1.68153)
(-1.76184e-18 -2.97109e-18 -1.37722)
(1.53964e-17 5.2287e-17 -0.941889)
(3.01318e-18 5.18926e-17 -0.345762)
(-2.1314e-19 -4.24356e-17 0.256407)
(-1.5695e-18 9.75517e-20 0.679377)
(7.5315e-20 -4.60169e-17 1.00433)
(-3.36664e-19 4.35584e-17 1.2748)
(4.44059e-20 2.65877e-18 1.49532)
(7.09586e-20 4.34107e-17 1.67252)
(-4.51865e-20 -5.11931e-19 1.81607)
(4.67486e-20 -2.26511e-17 1.93749)
(-6.72686e-20 -1.91823e-17 2.05071)
(3.27361e-20 -1.9698e-17 2.16426)
(-2.58608e-19 2.01539e-17 2.28766)
(2.9132e-19 -3.47294e-19 2.4212)
(-1.90468e-19 1.94376e-17 2.57391)
(6.2503e-20 -2.07997e-17 2.74478)
(-7.66587e-20 -8.39666e-19 2.93541)
(4.0161e-19 -1.62023e-17 3.14669)
(-3.51821e-19 2.02745e-17 3.37971)
(4.30195e-19 -1.77025e-17 3.6367)
(-1.56375e-18 1.99632e-17 3.92186)
(1.41799e-18 -7.1383e-18 4.24244)
(-2.89658e-19 9.39591e-18 4.61076)
(-3.0839e-19 -8.03926e-19 5.04486)
(2.33276e-20 2.31535e-18 5.57397)
(-4.75604e-19 5.72941e-18 6.24643)
(5.71093e-20 -7.57635e-18 7.13867)
(-6.54803e-20 2.03624e-18 8.35846)
(-7.53995e-19 -7.75638e-21 9.99774)
(9.38352e-19 -6.68699e-19 11.7529)
(3.83171e-19 5.73214e-19 10.8455)
(-1.77654e-19 -2.04912e-19 -2.11204)
(-2.68613e-19 3.33335e-19 -6.51246)
(-1.4698e-18 1.10528e-19 1.11843)
(7.7516e-19 -6.08466e-19 3.80311)
(-1.38772e-19 3.65969e-19 4.84726)
(1.96474e-19 -5.47029e-19 5.25673)
(1.60917e-18 2.03009e-18 5.3784)
(-2.04222e-18 -1.5538e-18 5.3567)
(5.38517e-19 4.70958e-19 5.26002)
(2.44111e-19 9.03444e-19 5.12335)
(4.62208e-19 2.65379e-18 4.96735)
(2.41665e-19 1.25348e-18 4.80506)
(1.21197e-18 3.97757e-18 4.64471)
(-1.53835e-18 -1.10142e-17 4.4911)
(2.47612e-18 2.17978e-17 4.34717)
(-2.22598e-18 -7.88263e-18 4.21474)
(2.46468e-18 1.23305e-17 4.0948)
(-1.35542e-18 -6.2988e-18 3.98762)
(3.20579e-19 1.65508e-18 3.89316)
(4.84887e-18 2.72056e-17 3.81127)
(-4.80983e-18 -1.9922e-17 3.74173)
(3.98636e-19 -4.60142e-19 3.68425)
(4.3082e-18 6.96671e-18 3.63827)
(-5.11348e-18 -2.68402e-17 3.60274)
(-1.46078e-18 2.11062e-17 3.57619)
(2.61954e-18 2.97562e-17 3.55676)
(-4.2844e-18 -1.44902e-17 3.54212)
(6.08372e-18 -3.0431e-17 3.52915)
(1.34791e-18 2.03291e-17 3.51356)
(-3.97025e-18 2.92514e-18 3.48923)
(-4.15451e-18 -5.11885e-20 3.44943)
(8.32849e-18 2.02154e-19 3.38574)
(-4.92287e-19 -1.95794e-17 3.27374)
(2.05629e-17 8.16275e-17 3.1398)
(4.71683e-17 1.90966e-16 2.97193)
(-1.9914e-17 -9.23894e-17 2.73338)
(4.34783e-17 2.23503e-17 2.41394)
(-9.11566e-17 -1.71038e-16 2.0769)
(1.38411e-17 -6.02213e-17 1.86248)
(1.30838e-16 1.34343e-16 1.79181)
(-2.74753e-17 -3.61506e-17 1.82338)
(3.57372e-16 2.712e-16 2.0126)
(9.44979e-18 1.47812e-16 2.32284)
(-1.49955e-16 -1.75474e-18 2.70069)
(-1.16484e-16 -4.20944e-17 3.11942)
(9.34213e-18 -8.93662e-17 3.55747)
(1.98118e-16 2.18014e-16 3.98948)
(-4.94139e-16 -1.93195e-16 4.39913)
(-1.41923e-16 -8.79562e-17 4.78106)
(-4.24444e-17 -1.03709e-17 5.0962)
(-3.10039e-17 -4.83369e-17 5.37291)
(1.43474e-16 1.38448e-16 5.60143)
(-5.75196e-17 -7.2886e-18 5.76051)
(-5.84363e-17 -7.77982e-17 5.88716)
(1.33397e-17 -1.57977e-17 5.95968)
(1.27776e-16 9.92703e-18 6.08433)
(-4.96908e-17 2.83941e-17 6.28944)
(-5.85514e-17 -1.06925e-17 6.60057)
(2.45995e-17 -7.30379e-18 7.05811)
(2.26293e-18 4.74396e-18 7.65809)
(2.64654e-19 1.05137e-18 8.20066)
(2.53403e-18 6.39782e-18 8.57756)
(2.17032e-17 -1.94811e-17 8.59382)
(3.61755e-17 -7.16509e-17 8.13583)
(7.39454e-17 -1.67005e-16 7.40696)
(-3.27495e-17 1.73028e-16 6.40501)
(7.63943e-17 -2.61981e-16 5.44529)
(-2.7784e-17 4.56647e-17 4.60805)
(3.24267e-18 -5.95468e-17 3.8977)
(1.29388e-16 -5.82735e-16 3.34074)
(-9.88056e-17 6.85989e-16 2.926)
(2.46549e-17 -1.12365e-16 2.63069)
(6.57569e-17 -3.20878e-16 2.41561)
(3.33148e-17 -3.78019e-18 2.24743)
(1.36212e-17 1.76861e-16 2.10484)
(3.82036e-17 -3.79618e-16 1.9702)
(-1.17913e-17 -1.30318e-16 1.82749)
(-6.65499e-17 6.11056e-16 1.67066)
(2.26784e-17 -9.51768e-17 1.48669)
(2.08668e-17 -7.4971e-17 1.28249)
(4.34029e-17 -4.37776e-16 1.05598)
(-4.08689e-17 5.12791e-16 0.81406)
(-1.22786e-17 -2.14168e-17 0.542256)
(1.08338e-17 -7.86411e-18 0.261022)
(2.56148e-19 2.65695e-18 -0.036199)
(-1.54317e-17 1.95036e-16 -0.335603)
(4.34283e-19 -9.26431e-18 -0.641171)
(-9.34574e-19 -4.41849e-17 -0.911242)
(8.81587e-20 3.45322e-19 -1.10673)
(-3.87816e-19 -3.0206e-17 -1.19915)
(-8.29672e-18 -1.91145e-16 -1.166)
(-1.1942e-18 8.80687e-19 -1.03605)
(-5.46716e-18 -4.24854e-16 -0.838836)
(-4.78671e-18 -2.80445e-16 -0.628838)
(4.86657e-18 4.98209e-16 -0.436948)
(-1.94607e-17 5.88717e-17 -0.302254)
(3.84321e-17 -2.37201e-16 -0.242506)
(2.60845e-17 -5.97059e-16 -0.288434)
(-1.88642e-18 -3.7237e-16 -0.404376)
(3.9626e-17 -1.04877e-17 -0.58191)
(-4.04317e-17 3.14155e-16 -0.785263)
(-2.23237e-19 5.72955e-17 -0.973111)
(-7.08509e-18 -3.71044e-16 -1.11113)
(2.53899e-17 -2.50977e-17 -1.18706)
(-3.79792e-17 3.52973e-16 -1.19058)
(8.46781e-18 -3.22819e-16 -1.12857)
(1.77308e-18 2.58077e-17 -1.01879)
(-5.01859e-17 -7.15028e-16 -0.884661)
(-8.63113e-17 -4.66088e-16 -0.748459)
(-5.41256e-17 -5.45006e-17 -0.62934)
(-4.15776e-17 -3.30505e-16 -0.536502)
(-2.87058e-17 -6.24269e-17 -0.480368)
(7.33505e-17 2.93488e-16 -0.450301)
(6.59265e-19 2.65227e-17 -0.459761)
(7.71249e-18 -2.13237e-16 -0.432388)
(2.37646e-18 3.69952e-18 -0.409607)
(4.05198e-18 1.21987e-18 -0.295936)
(2.6738e-19 7.64357e-19 -0.0390145)
(-3.69922e-18 3.89577e-17 0.487694)
(-4.40753e-19 -9.8032e-19 1.23727)
(1.74261e-18 -4.694e-18 2.14741)
(-3.05061e-18 1.11374e-17 2.95516)
(2.37606e-17 -2.10015e-17 3.61232)
(1.80527e-17 -1.26089e-17 3.94748)
(-2.81364e-18 -2.18462e-17 4.00502)
(2.27971e-17 -1.91464e-16 3.87429)
(-2.17117e-17 2.09059e-16 3.68792)
(1.18262e-16 -6.33613e-16 3.47813)
(1.08514e-16 -3.01076e-16 3.25648)
(7.22981e-17 -1.16929e-16 3.04128)
(5.57999e-17 -2.60394e-16 2.83946)
(1.35056e-17 9.50123e-18 2.64737)
(4.10713e-17 -3.0282e-16 2.45914)
(-2.58134e-17 2.60626e-17 2.26946)
(8.36002e-18 -9.58586e-18 2.07026)
(1.18366e-17 -5.17116e-17 1.85707)
(-2.48044e-17 5.90132e-17 1.62949)
(2.02138e-17 -2.90408e-16 1.38367)
(3.44793e-17 -4.3657e-16 1.12532)
(-6.33293e-19 6.88324e-17 0.847381)
(-8.85817e-18 2.33584e-16 0.559645)
(-1.55569e-18 2.20587e-16 0.266319)
(1.33305e-17 -8.22335e-17 -0.0414047)
(8.74305e-18 -1.42368e-16 -0.341184)
(-9.18666e-19 -7.54023e-17 -0.643941)
(4.63599e-18 9.0255e-17 -0.919405)
(-1.39556e-18 1.74811e-17 -1.12554)
(-2.95882e-19 -4.6112e-20 -1.23911)
(-3.05123e-18 -1.38258e-16 -1.22955)
(-4.47578e-18 -9.20526e-17 -1.11795)
(-4.05974e-18 -2.79608e-16 -0.935096)
(7.83624e-18 1.15577e-16 -0.726357)
(2.75407e-19 -4.57336e-17 -0.538364)
(1.28108e-17 -2.4225e-16 -0.397962)
(-4.12302e-19 -5.925e-16 -0.340216)
(-9.62534e-18 -3.53361e-16 -0.384562)
(6.54572e-18 7.84426e-18 -0.512979)
(3.88495e-17 -3.75742e-16 -0.715147)
(-5.32649e-17 9.26394e-16 -0.960492)
(-2.91107e-17 1.3001e-16 -1.20734)
(-3.69957e-18 -2.08643e-17 -1.42255)
(-4.17414e-17 3.41333e-16 -1.5836)
(3.44117e-17 5.58403e-17 -1.67673)
(-3.35036e-18 -1.43117e-17 -1.77735)
(-3.38418e-17 1.98918e-16 -1.71942)
(1.77831e-17 3.77451e-16 -1.87643)
(-2.59603e-18 1.62132e-17 -2.02522)
(3.43e-18 5.28534e-18 -2.15143)
(8.99715e-18 -1.23267e-16 -2.30279)
(-1.03631e-17 1.03185e-16 -2.45392)
(4.28613e-19 2.21469e-18 -2.56984)
(6.4732e-19 -3.66608e-18 -2.60464)
(1.2956e-18 -4.90406e-17 -2.56886)
(7.69928e-19 3.15984e-19 -2.4421)
(-1.51575e-18 -2.91677e-18 -2.24192)
(6.89244e-19 -4.138e-18 -2.00994)
(1.00998e-19 -4.43995e-17 -1.77403)
(-7.64561e-22 -2.70056e-18 -1.55244)
(-1.41785e-19 4.50343e-17 -1.35097)
(7.6486e-20 -1.08254e-18 -1.16835)
(-4.8669e-19 2.08291e-17 -1.00018)
(6.60258e-20 -2.25498e-17 -0.841036)
(3.61999e-19 1.50861e-18 -0.687339)
(-7.81136e-20 7.62715e-21 -0.53402)
(-1.3065e-20 1.30574e-18 -0.374988)
(-9.17224e-20 1.68032e-18 -0.207093)
(-2.0559e-19 -1.90788e-17 -0.0268064)
(3.51707e-19 1.71094e-17 0.170336)
(-2.60975e-19 -1.61042e-17 0.385296)
(-4.9749e-19 3.19766e-17 0.62358)
(6.62977e-19 -2.67171e-17 0.890405)
(3.43514e-19 9.71144e-18 1.19553)
(4.44402e-20 2.09828e-18 1.5513)
(2.08045e-19 -1.12934e-18 1.98169)
(9.98857e-19 4.23811e-19 2.52336)
(-5.21158e-19 1.85513e-18 3.22015)
(-1.77373e-19 -9.45803e-19 4.09036)
(8.87736e-20 2.84427e-19 4.99456)
(-6.23618e-19 -6.16935e-20 5.1645)
(1.13942e-18 -6.49639e-19 1.88046)
(1.38224e-18 9.42847e-19 -9.53369)
(-7.51693e-19 3.7162e-19 -6.02232)
(3.01213e-20 -2.79925e-19 -1.283)
(-4.55548e-19 2.3098e-19 0.838966)
(-8.68722e-19 9.91559e-20 1.9676)
(5.05277e-19 -8.10852e-19 2.66209)
(1.7416e-18 1.29334e-18 3.10075)
(-1.29882e-18 -4.3589e-19 3.3834)
(5.21931e-19 6.93139e-20 3.56273)
(-1.14694e-19 3.58189e-19 3.67191)
(-1.69661e-18 -1.51318e-18 3.73373)
(6.82776e-19 -1.61999e-19 3.76408)
(-3.06486e-19 -6.45328e-19 3.77396)
(-2.57562e-20 1.78626e-19 3.77074)
(-1.44962e-18 -2.156e-18 3.75953)
(5.01051e-19 -1.77535e-19 3.74398)
(-9.80358e-19 1.94565e-19 3.72659)
(7.77593e-21 -1.34259e-18 3.70897)
(-3.41111e-19 -1.44836e-17 3.69217)
(-2.77966e-18 2.81148e-17 3.67689)
(2.02821e-18 -1.55777e-17 3.66358)
(2.2353e-18 -3.81127e-18 3.6524)
(-1.88485e-18 1.89754e-17 3.64311)
(1.12367e-18 -1.71132e-17 3.6349)
(-2.18461e-18 -4.40146e-18 3.62647)
(-3.19193e-18 2.61658e-18 3.61602)
(1.28127e-18 -2.37208e-17 3.60113)
(1.5263e-18 1.71048e-17 3.57869)
(-3.13978e-18 -7.95195e-19 3.54433)
(4.88451e-19 2.42969e-17 3.49162)
(1.53215e-18 -2.1132e-17 3.41342)
(2.17856e-18 2.60791e-17 3.30239)
(-1.18503e-18 -1.97834e-17 3.1287)
(-2.80664e-17 -7.53644e-17 2.88213)
(-2.49078e-17 -4.97052e-17 2.52791)
(5.52151e-17 4.06158e-17 2.05136)
(-2.63633e-17 -1.39906e-17 1.48538)
(9.1653e-19 -2.98669e-17 0.925103)
(8.65588e-18 -2.7777e-17 0.497329)
(-2.09267e-17 -3.60079e-17 0.228268)
(-1.94321e-17 1.73633e-17 0.101793)
(-2.09782e-17 -6.89736e-17 0.14831)
(-2.17107e-17 -7.94808e-17 0.333243)
(4.6583e-16 2.06807e-16 0.612525)
(1.66659e-16 1.63302e-16 0.958279)
(4.2543e-17 4.32225e-17 1.34713)
(8.46795e-19 7.70174e-18 1.74741)
(7.23864e-17 1.26284e-17 2.13501)
(5.2504e-16 1.9199e-16 2.4971)
(2.11887e-16 1.58352e-16 2.80888)
(2.57663e-17 -2.35766e-17 3.03968)
(4.05536e-16 1.10231e-16 3.20957)
(-2.22709e-18 9.06157e-17 3.31016)
(-2.04955e-16 -4.67903e-17 3.35389)
(-3.64207e-19 -2.90026e-17 3.35237)
(-2.83666e-17 -3.58942e-17 3.34479)
(8.36286e-17 3.16472e-18 3.37573)
(3.79131e-17 1.37351e-17 3.44614)
(-4.16668e-17 5.72595e-18 3.58146)
(7.57181e-18 -4.24174e-18 3.81291)
(4.31488e-19 2.06084e-18 4.083)
(-4.13255e-18 -1.07585e-17 4.38103)
(8.0078e-18 -2.10244e-17 4.59733)
(6.70394e-17 -1.19611e-16 4.58715)
(-8.92169e-17 1.70983e-16 4.24697)
(1.25156e-16 -3.67741e-16 3.71298)
(-4.30171e-17 7.84053e-17 3.09694)
(-6.55591e-17 2.64928e-16 2.41589)
(-1.04171e-17 4.05262e-17 1.75553)
(-1.26712e-16 3.25365e-16 1.21531)
(1.24872e-16 -4.84386e-16 0.802376)
(1.64235e-17 -1.98139e-16 0.513213)
(-2.56795e-17 2.08504e-17 0.325899)
(5.07552e-17 -3.35577e-16 0.209604)
(5.30716e-17 -2.53424e-16 0.134358)
(-4.38165e-17 9.64002e-17 0.0757574)
(-7.39251e-17 5.41163e-16 0.00710441)
(8.43378e-17 -4.08099e-16 -0.0641624)
(-7.00378e-18 4.26566e-17 -0.164494)
(9.73343e-18 -2.20077e-16 -0.295292)
(-5.56294e-17 2.75602e-16 -0.444088)
(6.48418e-17 -2.75106e-16 -0.608794)
(-3.90295e-18 2.19227e-16 -0.802346)
(1.5481e-18 -2.2135e-16 -1.0078)
(-9.01758e-18 1.72534e-17 -1.20328)
(7.70734e-18 -9.32096e-18 -1.38236)
(-1.14917e-19 -4.56619e-18 -1.51394)
(-9.43551e-19 5.58901e-17 -1.58133)
(6.91212e-20 -1.66493e-18 -1.55019)
(2.41904e-18 5.56933e-17 -1.40049)
(7.40082e-18 9.99192e-17 -1.15137)
(-3.01513e-18 -3.47432e-17 -0.83848)
(2.37329e-17 2.4998e-16 -0.496417)
(-3.39271e-18 2.50303e-16 -0.174318)
(-1.44293e-17 -2.56268e-16 0.0939068)
(-1.35137e-17 -3.79233e-17 0.274982)
(6.98342e-18 2.60834e-16 0.351148)
(3.38197e-18 3.34549e-16 0.315385)
(1.76327e-17 3.67124e-17 0.193428)
(-6.10629e-17 3.30024e-16 0.0169713)
(4.71588e-17 -6.29094e-16 -0.172773)
(3.69128e-19 -5.18339e-17 -0.34625)
(2.36065e-17 2.54916e-17 -0.453419)
(-3.32903e-20 2.76945e-17 -0.484535)
(-8.31438e-18 -3.61235e-16 -0.441084)
(2.59392e-17 -2.40525e-17 -0.341998)
(-4.92822e-19 6.33916e-18 -0.218089)
(5.65649e-17 8.31743e-17 -0.103001)
(5.08905e-17 -2.49849e-16 -0.0245785)
(-4.82864e-18 -3.35075e-16 -0.00217238)
(6.61245e-18 -1.65194e-17 -0.0401391)
(0 -0 -0.135695)
(-8.53652e-18 -5.82471e-18 -0.271666)
(-1.00939e-17 -1.06292e-17 -0.453958)
(2.57227e-17 1.08121e-16 -0.646087)
(4.83335e-19 1.03767e-16 -0.874513)
(8.06742e-19 2.43333e-18 -1.10851)
(-2.12467e-19 5.57844e-18 -1.33915)
(8.14759e-19 -1.06435e-19 -1.47272)
(3.08663e-19 -8.0604e-20 -1.40614)
(-7.82171e-19 3.15385e-19 -1.21808)
(1.24278e-17 -5.92122e-18 -0.834998)
(-2.84952e-18 -8.34294e-18 -0.370328)
(3.56066e-17 -1.98697e-16 0.00829721)
(3.58062e-18 3.05939e-17 0.269146)
(-9.3036e-17 2.42284e-16 0.470359)
(9.79413e-17 -2.94899e-16 0.566346)
(-1.20406e-16 3.63227e-16 0.567949)
(-2.8902e-17 -2.98808e-17 0.521838)
(7.73335e-17 -2.71463e-16 0.460395)
(-5.21093e-17 2.5934e-16 0.393633)
(2.15161e-17 -1.8647e-16 0.323214)
(-5.02222e-17 2.95331e-16 0.248968)
(-2.05594e-18 -5.36545e-17 0.16592)
(-1.37866e-17 -1.00826e-17 0.0643)
(1.54323e-17 3.23937e-17 -0.0630168)
(-7.78684e-18 1.76241e-16 -0.208537)
(-4.10852e-17 9.61196e-17 -0.364854)
(-6.38573e-17 2.63217e-16 -0.531611)
(-2.46211e-17 2.47656e-17 -0.723438)
(3.26919e-17 -3.12032e-16 -0.932144)
(2.21057e-17 -4.00577e-16 -1.13688)
(-1.11056e-18 -2.06418e-16 -1.32605)
(-3.71985e-18 6.42236e-17 -1.49319)
(-2.2423e-18 4.33261e-17 -1.61146)
(2.11299e-18 -4.57046e-17 -1.66774)
(9.30553e-19 2.30344e-17 -1.63392)
(-1.57409e-18 -3.90686e-18 -1.48531)
(8.73278e-18 1.94523e-16 -1.23593)
(1.89286e-18 -5.21239e-18 -0.91954)
(1.67426e-17 2.764e-16 -0.572727)
(-7.67456e-18 1.87794e-16 -0.242498)
(1.43025e-18 -1.78478e-18 0.0357948)
(1.64931e-17 2.02614e-16 0.224413)
(1.78149e-17 4.13241e-16 0.298625)
(4.52106e-17 -1.96764e-16 0.257127)
(-2.58804e-17 1.96761e-16 0.109757)
(-1.26098e-17 4.67724e-16 -0.104132)
(-9.68003e-18 -4.24244e-16 -0.355117)
(3.18268e-17 -3.89144e-16 -0.59982)
(-4.65027e-17 4.27511e-16 -0.794594)
(6.42301e-18 -4.58133e-16 -0.923459)
(-4.29292e-17 3.14769e-16 -0.97708)
(1.43464e-17 1.44802e-16 -0.97639)
(-6.46698e-18 -3.94573e-16 -0.886461)
(-2.2831e-17 -3.97163e-17 -0.959923)
(-2.61234e-17 2.67597e-16 -1.06232)
(-4.8801e-18 6.94047e-17 -1.19529)
(1.31145e-18 1.26605e-16 -1.39924)
(3.20695e-18 -1.16085e-16 -1.66534)
(-2.9499e-18 5.28394e-17 -1.98149)
(3.6755e-18 -5.27833e-17 -2.28395)
(2.08284e-18 -1.19273e-18 -2.48129)
(-6.33489e-19 -2.80703e-18 -2.51944)
(1.0631e-18 -4.68599e-17 -2.42931)
(-1.17471e-18 5.14504e-17 -2.25541)
(-2.8365e-19 4.82185e-17 -2.0387)
(3.69363e-19 -4.13058e-17 -1.8096)
(-3.66932e-19 2.27917e-17 -1.58671)
(3.12493e-19 -2.30101e-17 -1.37937)
(-2.91175e-20 3.99197e-19 -1.19077)
(-7.29128e-19 2.41656e-17 -1.02122)
(9.57264e-19 -2.15278e-17 -0.862802)
(-1.28804e-18 2.32585e-17 -0.71792)
(2.46531e-19 -2.12703e-17 -0.576197)
(8.63225e-19 -1.91543e-18 -0.43153)
(-1.13669e-18 2.46871e-18 -0.278261)
(5.52618e-19 -7.72112e-20 -0.11169)
(-1.85571e-18 9.89059e-20 0.0724087)
(3.14656e-18 2.14048e-18 0.278673)
(-2.22556e-18 -1.34497e-19 0.511138)
(3.04443e-19 -3.17287e-19 0.775863)
(6.21799e-19 -3.51604e-18 1.08413)
(-1.34901e-18 3.03841e-19 1.45445)
(1.26206e-18 -8.76965e-19 1.90855)
(1.86409e-18 -4.06383e-18 2.45187)
(-1.31669e-18 2.99726e-18 3.00904)
(5.83832e-19 -4.51316e-19 3.26132)
(-4.05081e-19 2.56582e-20 2.31946)
(-5.82738e-19 3.14257e-19 -1.61022)
(-1.52486e-18 -4.41967e-19 -10.4117)
(1.03942e-18 1.46186e-19 -5.13982)
(-1.1696e-18 6.58354e-19 -1.98123)
(-1.83552e-18 -4.2196e-19 -0.345928)
(2.89388e-18 -7.95519e-20 0.634406)
(-5.28502e-18 8.9284e-19 1.33776)
(1.52347e-18 -1.23837e-18 1.86852)
(4.30554e-19 6.12876e-19 2.26517)
(-1.02358e-18 -4.83005e-19 2.56523)
(-4.25685e-20 6.96131e-19 2.79442)
(-3.21348e-18 -3.89402e-18 2.97188)
(3.22814e-18 2.07967e-18 3.11145)
(-1.0056e-18 2.00112e-19 3.22302)
(-2.40553e-18 -5.27766e-18 3.3135)
(3.10131e-18 3.08093e-18 3.38783)
(-7.27989e-19 -4.99141e-19 3.44959)
(-4.49404e-19 6.96444e-21 3.50136)
(9.60151e-19 -1.86298e-18 3.54489)
(1.49789e-18 7.74418e-18 3.58137)
(-3.20529e-18 -2.09208e-17 3.61153)
(3.1099e-18 8.63124e-18 3.63573)
(1.7802e-18 1.66105e-17 3.65391)
(-3.95314e-18 -1.21392e-17 3.66552)
(2.61733e-18 -2.37896e-18 3.6694)
(4.61778e-19 2.15365e-18 3.6638)
(5.6314e-19 6.85892e-19 3.6464)
(2.45829e-18 1.01844e-18 3.6141)
(-5.73476e-19 -1.49868e-17 3.56305)