/*--------------------------------*- C++ -*----------------------------------*\
| =========                 |                                                 |
| \\      /  F ield         | OpenFOAM: The Open Source CFD Toolbox           |
|  \\    /   O peration     | Version:  2506                                  |
|   \\  /    A nd           | Website:  www.openfoam.com                      |
|    \\/     M anipulation  |                                                 |
\*---------------------------------------------------------------------------*/
FoamFile
{
    version     2.0;
    format      ascii;
    arch        "LSB;label=32;scalar=64";
    class       surfaceScalarField;
    location    "5";
    object      phi;
}
// * * * * * * * * * * * * * * * * * * * * * * * * * * * * * * * * * * * * * //

dimensions      [0 3 -1 0 0 0 0];

oriented        oriented;

internalField   nonuniform List<scalar> 
7780
(
2.05869e-09
4.41314e-10
1.55971e-09
4.98978e-10
1.20068e-09
3.59027e-10
9.60957e-10
2.39724e-10
8.04083e-10
1.56874e-10
7.00111e-10
1.03972e-10
6.29282e-10
7.0829e-11
5.79257e-10
5.00254e-11
5.42568e-10
3.66884e-11
5.14646e-10
2.79216e-11
4.92686e-10
2.19605e-11
4.74896e-10
1.77904e-11
4.6007e-10
1.48258e-11
4.47379e-10
1.26903e-11
4.36234e-10
1.11459e-11
4.26191e-10
1.00427e-11
4.16915e-10
9.27613e-12
4.08143e-10
8.77151e-12
3.99664e-10
8.47953e-12
3.91298e-10
8.36554e-12
3.82893e-10
8.40495e-12
3.74311e-10
8.58191e-12
3.65424e-10
8.88686e-12
3.5611e-10
9.31459e-12
3.46246e-10
9.86373e-12
3.35709e-10
1.05368e-11
3.24368e-10
1.13412e-11
3.12077e-10
1.22912e-11
2.98663e-10
1.34139e-11
2.83899e-10
1.47634e-11
2.67438e-10
1.64609e-11
2.48659e-10
1.87797e-11
2.26577e-10
2.20819e-11
1.95397e-10
3.11797e-11
1.70504e-10
2.48929e-11
1.66311e-10
4.19279e-12
1.74084e-10
-7.77272e-12
1.87541e-10
-1.34575e-11
2.07105e-10
-1.95632e-11
2.35419e-10
-2.83147e-11
2.8311e-10
-4.76908e-11
3.37956e-10
-5.48457e-11
3.88454e-10
-5.04979e-11
4.35526e-10
-4.70724e-11
4.77378e-10
-4.18517e-11
5.15415e-10
-3.80376e-11
5.51577e-10
-3.61623e-11
5.81086e-10
-2.95089e-11
6.08554e-10
-2.74682e-11
6.31848e-10
-2.32937e-11
6.49536e-10
-1.76876e-11
6.64565e-10
-1.50298e-11
6.70725e-10
-6.15959e-12
6.74049e-10
-3.32442e-12
6.66527e-10
7.52279e-12
6.53136e-10
1.33909e-11
6.31527e-10
2.1609e-11
6.00012e-10
3.15146e-11
5.66666e-10
3.33462e-11
5.2047e-10
4.61962e-11
4.75944e-10
4.45252e-11
4.28002e-10
4.79424e-11
3.80267e-10
4.77351e-11
3.36161e-10
4.4106e-11
2.92665e-10
4.34957e-11
2.55633e-10
3.70323e-11
2.20196e-10
3.5437e-11
1.90654e-10
2.95421e-11
1.63713e-10
2.69414e-11
1.40599e-10
2.31141e-11
1.2075e-10
1.98486e-11
1.02621e-10
1.81294e-11
8.74207e-11
1.52004e-11
7.38022e-11
1.36187e-11
6.16089e-11
1.21935e-11
5.10056e-11
1.06035e-11
4.14457e-11
9.5602e-12
3.27277e-11
8.71829e-12
2.49331e-11
7.79487e-12
1.78238e-11
7.10959e-12
1.12554e-11
6.56883e-12
5.19598e-12
6.0598e-12
-4.6459e-13
5.66101e-12
-5.77625e-12
5.31214e-12
-1.07551e-11
4.97937e-12
-1.54867e-11
4.7323e-12
-1.99495e-11
4.46347e-12
-2.4089e-11
4.14032e-12
-2.79457e-11
3.85758e-12
-3.14402e-11
3.49536e-12
-3.45437e-11
3.10432e-12
-3.72239e-11
2.68101e-12
-3.93912e-11
2.16802e-12
-4.10814e-11
1.6908e-12
-4.21095e-11
1.02864e-12
-4.2681e-11
5.7192e-13
-4.25877e-11
-9.29634e-14
-4.1885e-11
-7.0239e-13
-4.05335e-11
-1.35118e-12
-3.85815e-11
-1.95172e-12
-3.58158e-11
-2.76542e-12
-3.22631e-11
-3.55246e-12
-2.78161e-11
-4.44675e-12
-2.24246e-11
-5.39133e-12
-1.59476e-11
-6.47677e-12
-8.42796e-12
-7.51934e-12
4.20466e-13
-8.84816e-12
1.0463e-11
-1.00423e-11
2.19147e-11
-1.14514e-11
3.47343e-11
-1.28194e-11
4.90107e-11
-1.42762e-11
6.46031e-11
-1.55924e-11
8.17781e-11
-1.71752e-11
9.97624e-11
-1.7985e-11
1.19543e-10
-1.97814e-11
1.39914e-10
-2.03739e-11
1.61091e-10
-2.11795e-11
1.83172e-10
-2.20849e-11
2.05275e-10
-2.21073e-11
2.27491e-10
-2.22191e-11
2.49872e-10
-2.23826e-11
2.71685e-10
-2.1811e-11
2.92767e-10
-2.10744e-11
3.13428e-10
-2.06462e-11
3.3313e-10
-1.96793e-11
3.51929e-10
-1.87721e-11
3.6983e-10
-1.7872e-11
3.86681e-10
-1.68276e-11
4.02819e-10
-1.6127e-11
4.18767e-10
-1.59566e-11
4.33329e-10
-1.45934e-11
4.47666e-10
-1.43867e-11
4.62785e-10
-1.51786e-11
4.76464e-10
-1.37329e-11
4.90446e-10
-1.4018e-11
5.06284e-10
-1.5846e-11
5.18998e-10
-1.26938e-11
5.33938e-10
-1.49004e-11
5.46809e-10
-1.28254e-11
5.59005e-10
-1.216e-11
5.69011e-10
-9.98597e-12
5.75582e-10
-6.56671e-12
5.77258e-10
-1.68239e-12
5.74837e-10
2.41197e-12
5.61918e-10
1.29106e-11
5.46651e-10
1.52619e-11
5.17324e-10
2.93249e-11
4.84936e-10
3.23868e-11
4.45845e-10
3.90913e-11
4.01173e-10
4.46716e-11
3.57284e-10
4.38897e-11
3.08642e-10
4.8642e-11
2.65027e-10
4.36146e-11
2.20556e-10
4.44709e-11
1.81928e-10
3.86283e-11
1.44674e-10
3.72537e-11
1.12869e-10
3.18048e-11
8.36992e-11
2.917e-11
5.9195e-11
2.45042e-11
3.86082e-11
2.05868e-11
3.78787e-11
7.2949e-13
3.93267e-11
-1.44803e-12
4.33835e-11
-4.05686e-12
5.05448e-11
-7.16131e-12
6.35489e-11
-1.30041e-11
8.24805e-11
-1.89317e-11
1.11966e-10
-2.94858e-11
1.43096e-10
-3.11298e-11
1.71354e-10
-2.82575e-11
1.97274e-10
-2.59204e-11
2.20937e-10
-2.36632e-11
2.42312e-10
-2.1375e-11
2.61401e-10
-1.90885e-11
2.78263e-10
-1.68624e-11
2.93e-10
-1.47374e-11
3.05742e-10
-1.27412e-11
3.16635e-10
-1.08937e-11
3.25842e-10
-9.20702e-12
3.33528e-10
-7.68611e-12
3.39858e-10
-6.3296e-12
3.4499e-10
-5.13155e-12
3.49073e-10
-4.08309e-12
3.52246e-10
-3.17374e-12
3.54638e-10
-2.39155e-12
3.56361e-10
-1.72296e-12
3.57518e-10
-1.15674e-12
3.58199e-10
-6.81265e-13
3.5848e-10
-2.81565e-13
3.58411e-10
6.95267e-14
3.58071e-10
3.39693e-13
3.57499e-10
5.72015e-13
3.56734e-10
7.65525e-13
3.55807e-10
9.26383e-13
3.54745e-10
1.06209e-12
3.53562e-10
1.18308e-12
3.52255e-10
1.30747e-12
3.50787e-10
1.46758e-12
3.49063e-10
1.72444e-12
3.46765e-10
2.29787e-12
3.97935e-12
2.64883e-09
2.92486e-10
2.59885e-09
5.48957e-10
2.42098e-09
5.36894e-10
2.2057e-09
4.55002e-10
2.00035e-09
3.62227e-10
1.82787e-09
2.76456e-10
1.68953e-09
2.0917e-10
1.57994e-09
1.59614e-10
1.49304e-09
1.23581e-10
1.42347e-09
9.74934e-11
1.36699e-09
7.84373e-11
1.32037e-09
6.44136e-11
1.28114e-09
5.4055e-11
1.24748e-09
4.63541e-11
1.218e-09
4.0629e-11
1.19161e-09
3.64231e-11
1.16749e-09
3.34005e-11
1.14495e-09
3.13155e-11
1.12343e-09
2.99997e-11
1.10246e-09
2.93321e-11
1.08164e-09
2.92253e-11
1.0606e-09
2.96218e-11
1.039e-09
3.04861e-11
1.01652e-09
3.17987e-11
9.92826e-10
3.35542e-11
9.67602e-10
3.57609e-11
9.405e-10
3.84427e-11
9.11148e-10
4.16436e-11
8.79122e-10
4.54401e-11
8.43916e-10
4.99685e-11
8.04891e-10
5.54862e-11
7.61172e-10
6.24984e-11
7.11339e-10
7.19159e-11
6.50716e-10
9.18025e-11
6.00801e-10
7.48081e-11
5.85184e-10
1.98095e-11
5.96296e-10
-1.88848e-11
6.25883e-10
-4.30446e-11
6.73075e-10
-6.67553e-11
7.40647e-10
-9.58864e-11
8.35828e-10
-1.42872e-10
9.40986e-10
-1.60003e-10
1.04299e-09
-1.52502e-10
1.13974e-09
-1.43819e-10
1.22825e-09
-1.30367e-10
1.3098e-09
-1.19586e-10
1.38583e-09
-1.12188e-10
1.45187e-09
-9.55492e-11
1.5122e-09
-8.78022e-11
1.56438e-09
-7.54761e-11
1.60701e-09
-6.03167e-11
1.64186e-09
-4.9873e-11
1.66288e-09
-2.7186e-11
1.6745e-09
-1.494e-11
1.66979e-09
1.22288e-11
1.65205e-09
3.11291e-11
1.61836e-09
5.52998e-11
1.56714e-09
8.27386e-11
1.50516e-09
9.53228e-11
1.42319e-09
1.28163e-10
1.3351e-09
1.32616e-10
1.23812e-09
1.44926e-10
1.13733e-09
1.48528e-10
1.03764e-09
1.4379e-10
9.38111e-10
1.43028e-10
8.459e-10
1.29244e-10
7.57603e-10
1.23733e-10
6.78228e-10
1.08918e-10
6.05137e-10
1.00032e-10
5.39566e-10
8.86846e-11
4.81207e-10
7.82085e-11
4.27897e-10
7.14391e-11
3.80866e-10
6.2231e-11
3.38462e-10
5.60221e-11
3.00034e-10
5.06214e-11
2.65635e-10
4.50027e-11
2.34416e-10
4.07796e-11
2.05827e-10
3.73063e-11
1.79808e-10
3.38139e-11
1.55984e-10
3.09338e-11
1.33983e-10
2.857e-11
1.13659e-10
2.63831e-11
9.47867e-11
2.45333e-11
7.71955e-11
2.29032e-11
6.08347e-11
2.134e-11
4.55055e-11
2.00615e-11
3.11545e-11
1.88145e-11
1.79597e-11
1.73353e-11
5.79182e-12
1.60258e-11
-5.28322e-12
1.45708e-11
-1.49823e-11
1.28038e-11
-2.33737e-11
1.10729e-11
-3.03349e-11
9.12968e-12
-3.55981e-11
6.9545e-12
-3.93491e-11
4.78001e-12
-4.11221e-11
2.34537e-12
-4.12525e-11
3.77447e-14
-3.91125e-11
-2.84208e-12
-3.49417e-11
-5.52158e-12
-2.828e-11
-8.61315e-12
-1.93911e-11
-1.1654e-11
-7.78084e-12
-1.51625e-11
6.50847e-12
-1.87358e-11
2.36052e-11
-2.24877e-11
4.39821e-11
-2.68533e-11
6.72601e-11
-3.07971e-11
9.41337e-11
-3.57213e-11
1.24151e-10
-4.00591e-11
1.57608e-10
-4.49077e-11
1.94315e-10
-4.95262e-11
2.34192e-10
-5.41521e-11
2.76924e-10
-5.83231e-11
3.22509e-10
-6.27595e-11
3.69922e-10
-6.53963e-11
4.19912e-10
-6.977e-11
4.70859e-10
-7.13205e-11
5.22753e-10
-7.30721e-11
5.75355e-10
-7.46878e-11
6.27498e-10
-7.4254e-11
6.79088e-10
-7.3815e-11
7.29955e-10
-7.32594e-11
7.79157e-10
-7.10256e-11
8.26534e-10
-6.84667e-11
8.72311e-10
-6.64379e-11
9.15942e-10
-6.33205e-11
9.57554e-10
-6.03868e-11
9.97221e-10
-5.75293e-11
1.03495e-09
-5.45368e-11
1.07132e-09
-5.24603e-11
1.10689e-09
-5.14895e-11
1.1406e-09
-4.82649e-11
1.17394e-09
-4.7707e-11
1.20809e-09
-4.93276e-11
1.24046e-09
-4.61235e-11
1.27357e-09
-4.71755e-11
1.30815e-09
-5.04691e-11
1.33958e-09
-4.41606e-11
1.37244e-09
-4.77693e-11
1.40232e-09
-4.27097e-11
1.42967e-09
-3.94915e-11
1.45256e-09
-3.2851e-11
1.46838e-09
-2.23681e-11
1.4753e-09
-8.59686e-12
1.47169e-09
6.02063e-12
1.45311e-09
3.14909e-11
1.42357e-09
4.47977e-11
1.37317e-09
7.97213e-11
1.31095e-09
9.46121e-11
1.23444e-09
1.15598e-10
1.14517e-09
1.33938e-10
1.0506e-09
1.38464e-10
9.46408e-10
1.52831e-10
8.44177e-10
1.45845e-10
7.39482e-10
1.49166e-10
6.41008e-10
1.37103e-10
5.45054e-10
1.33208e-10
4.57317e-10
1.19542e-10
3.75981e-10
1.10506e-10
3.05629e-10
9.48555e-11
2.46796e-10
7.94204e-11
2.27311e-10
2.02145e-11
2.23495e-10
2.36741e-12
2.31321e-10
-1.18829e-11
2.50297e-10
-2.61368e-11
2.84702e-10
-4.74091e-11
3.34118e-10
-6.83483e-11
4.0173e-10
-9.70974e-11
4.72455e-10
-1.01854e-10
5.38734e-10
-9.45369e-11
6.00309e-10
-8.74955e-11
6.57046e-10
-8.04003e-11
7.08831e-10
-7.31595e-11
7.55631e-10
-6.58892e-11
7.97529e-10
-5.87599e-11
8.34693e-10
-5.1902e-11
8.67359e-10
-4.54067e-11
8.95804e-10
-3.93392e-11
9.20339e-10
-3.37418e-11
9.41289e-10
-2.86358e-11
9.58983e-10
-2.4024e-11
9.73747e-10
-1.98949e-11
9.85891e-10
-1.62277e-11
9.95713e-10
-1.29958e-11
1.00349e-09
-1.01678e-11
1.00948e-09
-7.70864e-12
1.0139e-09
-5.58246e-12
1.01697e-09
-3.75306e-12
1.01888e-09
-2.18482e-12
1.01979e-09
-8.41471e-13
1.01983e-09
2.94214e-13
1.01916e-09
1.24429e-12
1.01788e-09
2.04501e-12
1.0161e-09
2.70821e-12
1.01391e-09
3.25399e-12
1.01138e-09
3.70661e-12
1.00859e-09
4.10221e-12
1.00556e-09
4.49982e-12
1.00227e-09
5.00911e-12
9.98693e-10
5.87665e-12
7.92952e-12
2.61924e-09
1.73243e-10
2.75222e-09
4.1598e-10
2.78973e-09
4.99382e-10
2.74812e-09
4.96612e-10
2.66018e-09
4.50166e-10
2.54989e-09
3.8675e-10
2.43624e-09
3.22815e-10
2.33092e-09
2.64937e-10
2.2376e-09
2.169e-10
2.1566e-09
1.78496e-10
2.08699e-09
1.4805e-10
2.02713e-09
1.24274e-10
1.97528e-09
1.05904e-10
1.92991e-09
9.17225e-11
1.88969e-09
8.08545e-11
1.85345e-09
7.26619e-11
1.82023e-09
6.66214e-11
1.78921e-09
6.23323e-11
1.75969e-09
5.95168e-11
1.73106e-09
5.79619e-11
1.70278e-09
5.75117e-11
1.67433e-09
5.80636e-11
1.64527e-09
5.95539e-11
1.61512e-09
6.19481e-11
1.58343e-09
6.52382e-11
1.54975e-09
6.94427e-11
1.51359e-09
7.46079e-11
1.47442e-09
8.08138e-11
1.43167e-09
8.81892e-11
1.38469e-09
9.69419e-11
1.33276e-09
1.07418e-10
1.27503e-09
1.20225e-10
1.21052e-09
1.36434e-10
1.13591e-09
1.66409e-10
1.07213e-09
1.38587e-10
1.04484e-09
4.70995e-11
1.05148e-09
-2.55205e-11
1.0859e-09
-7.74704e-11
1.14639e-09
-1.27243e-10
1.23277e-09
-1.82262e-10
1.34641e-09
-2.56514e-10
1.46992e-09
-2.8352e-10
1.59294e-09
-2.75518e-10
1.71104e-09
-2.61918e-10
1.82055e-09
-2.39876e-10
1.92196e-09
-2.21e-10
2.01603e-09
-2.06258e-10
2.09972e-09
-1.79234e-10
2.17587e-09
-1.63955e-10
2.24271e-09
-1.42313e-10
2.29903e-09
-1.16642e-10
2.34542e-09
-9.62621e-11
2.37833e-09
-6.00988e-11
2.39953e-09
-3.61392e-11
2.40448e-09
7.28425e-12
2.39441e-09
4.11955e-11
2.36708e-09
8.26305e-11
2.32073e-09
1.29086e-10
2.2593e-09
1.56751e-10
2.17629e-09
2.1118e-10
2.08088e-09
2.28019e-10
1.97164e-09
2.54173e-10
1.85312e-09
2.67042e-10
1.72987e-09
2.6704e-10
1.60282e-09
2.70081e-10
1.47873e-09
2.5333e-10
1.35663e-09
2.45835e-10
1.24171e-09
2.23842e-10
1.13305e-09
2.08687e-10
1.03236e-09
1.89372e-10
9.40161e-10
1.70412e-10
8.54614e-10
1.56986e-10
7.77144e-10
1.39701e-10
7.06244e-10
1.26922e-10
6.41209e-10
1.15656e-10
5.82085e-10
1.04126e-10
5.27912e-10
9.49526e-11
4.78011e-10
8.72077e-11
4.3221e-10
7.96149e-11
3.9007e-10
7.30728e-11
3.51076e-10
6.75646e-11
3.15019e-10
6.24397e-11
2.81584e-10
5.79681e-11
2.50529e-10
5.39585e-11
2.21784e-10
5.00845e-11
1.95039e-10
4.68068e-11
1.7016e-10
4.36929e-11
1.47442e-10
4.0054e-11
1.26599e-10
3.6868e-11
1.07706e-10
3.34642e-11
9.12606e-11
2.92497e-11
7.71017e-11
2.52321e-11
6.5381e-11
2.08507e-11
5.66967e-11
1.56391e-11
5.05837e-11
1.08934e-11
4.79928e-11
4.9367e-12
4.83821e-11
-3.51269e-13
5.24583e-11
-6.91793e-12
5.9729e-11
-1.27919e-11
7.13499e-11
-2.02338e-11
8.65046e-11
-2.68083e-11
1.0619e-10
-3.48477e-11
1.30139e-10
-4.26838e-11
1.58535e-10
-5.08838e-11
1.92059e-10
-6.03775e-11
2.29978e-10
-6.87151e-11
2.73222e-10
-7.89647e-11
3.20995e-10
-8.78317e-11
3.73522e-10
-9.74345e-11
4.30425e-10
-1.06429e-10
4.91355e-10
-1.15082e-10
5.55807e-10
-1.22774e-10
6.23482e-10
-1.30434e-10
6.93164e-10
-1.35077e-10
7.65275e-10
-1.41879e-10
8.38055e-10
-1.44099e-10
9.11276e-10
-1.46291e-10
9.84475e-10
-1.47886e-10
1.05649e-09
-1.46266e-10
1.12708e-09
-1.44405e-10
1.19596e-09
-1.4215e-10
1.26229e-09
-1.37364e-10
1.32597e-09
-1.32161e-10
1.3871e-09
-1.27585e-10
1.44532e-09
-1.21564e-10
1.50082e-09
-1.15901e-10
1.55373e-09
-1.10446e-10
1.60424e-09
-1.05039e-10
1.6529e-09
-1.01091e-10
1.70012e-09
-9.86713e-11
1.74553e-09
-9.3628e-11
1.79014e-09
-9.22785e-11
1.83486e-09
-9.40206e-11
1.87797e-09
-8.92388e-11
1.92144e-09
-9.06685e-11
1.96495e-09
-9.40183e-11
2.00603e-09
-8.52894e-11
2.04676e-09
-8.85297e-11
2.08434e-09
-8.03108e-11
2.11807e-09
-7.32172e-11
2.14646e-09
-6.122e-11
2.16661e-09
-4.2504e-11
2.17709e-09
-1.90627e-11
2.17541e-09
7.70768e-12
2.15842e-09
4.84794e-11
2.12733e-09
7.58845e-11
2.07546e-09
1.31594e-10
2.0076e-09
1.62476e-10
1.92226e-09
2.00936e-10
1.81977e-09
2.36425e-10
1.70624e-09
2.51999e-10
1.57838e-09
2.80687e-10
1.44635e-09
2.77873e-10
1.30729e-09
2.88228e-10
1.17e-09
2.74395e-10
1.03227e-09
2.70936e-10
9.00765e-10
2.51046e-10
7.75944e-10
2.35327e-10
6.66152e-10
2.04647e-10
5.71853e-10
1.7372e-10
5.29274e-10
6.2793e-11
5.13979e-10
1.7662e-11
5.20157e-10
-1.80607e-11
5.45785e-10
-5.17641e-11
5.94885e-10
-9.65098e-11
6.64738e-10
-1.38201e-10
7.5575e-10
-1.8811e-10
8.4973e-10
-1.95834e-10
9.38521e-10
-1.83328e-10
1.02151e-09
-1.70485e-10
1.09836e-09
-1.57251e-10
1.16892e-09
-1.43716e-10
1.23314e-09
-1.30116e-10
1.29113e-09
-1.16747e-10
1.34307e-09
-1.03841e-10
1.38923e-09
-9.15622e-11
1.42991e-09
-8.00275e-11
1.46549e-09
-6.93159e-11
1.49632e-09
-5.94708e-11
1.5228e-09
-5.05032e-11
1.54531e-09
-4.23995e-11
1.56421e-09
-3.51297e-11
1.57987e-09
-2.86534e-11
1.59262e-09
-2.29217e-11
1.60279e-09
-1.78779e-11
1.61067e-09
-1.34613e-11
1.61653e-09
-9.61142e-12
1.62061e-09
-6.27035e-12
1.62316e-09
-3.38457e-12
1.62436e-09
-9.07531e-13
1.6244e-09
1.19742e-12
1.62348e-09
2.97351e-12
1.62173e-09
4.44974e-12
1.61933e-09
5.65672e-12
1.61641e-09
6.62907e-12
1.6131e-09
7.41204e-12
1.60953e-09
8.07008e-12
1.60583e-09
8.70867e-12
1.60223e-09
9.47465e-12
1.11975e-11
2.56732e-09
1.05919e-10
2.69658e-09
2.86726e-10
2.80567e-09
3.90287e-10
2.87288e-09
4.29406e-10
2.89426e-09
4.2878e-10
2.87746e-09
4.03554e-10
2.83707e-09
3.63208e-10
2.78346e-09
3.1855e-10
2.72431e-09
2.76046e-10
2.66529e-09
2.37516e-10
2.60939e-09
2.0395e-10
2.55756e-09
1.76101e-10
2.51003e-09
1.53437e-10
2.46664e-09
1.35111e-10
2.42692e-09
1.20579e-10
2.39024e-09
1.09336e-10
2.35601e-09
1.00851e-10
2.32365e-09
9.46991e-11
2.29256e-09
9.06025e-11
2.26222e-09
8.82994e-11
2.23212e-09
8.76092e-11
2.20177e-09
8.84132e-11
2.17069e-09
9.06399e-11
2.13838e-09
9.42534e-11
2.10437e-09
9.92545e-11
2.06813e-09
1.05681e-10
2.02913e-09
1.13607e-10
1.98679e-09
1.23152e-10
1.94049e-09
1.34492e-10
1.88955e-09
1.47883e-10
1.83325e-09
1.63717e-10
1.77088e-09
1.82595e-10
1.70178e-09
2.05532e-10
1.62342e-09
2.44769e-10
1.55388e-09
2.08125e-10
1.51723e-09
8.375e-11
1.51523e-09
-2.35249e-11
1.54512e-09
-1.07357e-10
1.605e-09
-1.87121e-10
1.69203e-09
-2.69297e-10
1.8038e-09
-3.68284e-10
1.92503e-09
-4.0475e-10
2.04824e-09
-3.98728e-10
2.16769e-09
-3.81367e-10
2.27939e-09
-3.5157e-10
2.38325e-09
-3.24861e-10
2.47967e-09
-3.02678e-10
2.56648e-09
-2.6605e-10
2.64579e-09
-2.43265e-10
2.7165e-09
-2.13024e-10
2.77718e-09
-1.77322e-10
2.82836e-09
-1.47437e-10
2.86821e-09
-9.99534e-11
2.89702e-09
-6.49501e-11
2.91246e-09
-8.1545e-12
2.91428e-09
3.93784e-11
2.90111e-09
9.57981e-11
2.87113e-09
1.59066e-10
2.82611e-09
2.01776e-10
2.76145e-09
2.7584e-10
2.6821e-09
3.07365e-10
2.58668e-09
3.49598e-10
2.47818e-09
3.75543e-10
2.35958e-09
3.85638e-10
2.23242e-09
3.97238e-10
2.10215e-09
3.83607e-10
1.96933e-09
3.78649e-10
1.83892e-09
3.54249e-10
1.71157e-09
3.36043e-10
1.58956e-09
3.11386e-10
1.47443e-09
2.85538e-10
1.36518e-09
2.66237e-10
1.26375e-09
2.41126e-10
1.16913e-09
2.21545e-10
1.08095e-09
2.03841e-10
9.99477e-10
1.85595e-10
9.23867e-10
1.70562e-10
8.5355e-10
1.57524e-10
7.88363e-10
1.44802e-10
7.27927e-10
1.33509e-10
6.71682e-10
1.2381e-10
6.19449e-10
1.14672e-10
5.70893e-10
1.06524e-10
5.25754e-10
9.90974e-11
4.83991e-10
9.18476e-11
4.45227e-10
8.55704e-11
4.09272e-10
7.96478e-11
3.7654e-10
7.27863e-11
3.4658e-10
6.68278e-11
3.1946e-10
6.05846e-11
2.958e-10
5.29101e-11
2.75387e-10
4.56445e-11
2.5835e-10
3.78883e-11
2.45631e-10
2.83582e-11
2.36486e-10
2.00389e-11
2.3239e-10
9.03255e-12
2.32317e-10
-2.77964e-13
2.37722e-10
-1.23221e-11
2.47522e-10
-2.25917e-11
2.63496e-10
-3.6207e-11
2.84313e-10
-4.76252e-11
3.1139e-10
-6.19241e-11
3.44155e-10
-7.54489e-11
3.82794e-10
-8.95229e-11
4.28014e-10
-1.05597e-10
4.78717e-10
-1.19418e-10
5.35863e-10
-1.3611e-10
5.98302e-10
-1.5027e-10
6.66039e-10
-1.65171e-10
7.38486e-10
-1.78876e-10
8.14955e-10
-1.9155e-10
8.94765e-10
-2.02584e-10
9.77315e-10
-2.12983e-10
1.06126e-09
-2.1902e-10
1.14676e-09
-2.27379e-10
1.23203e-09
-2.29371e-10
1.31673e-09
-2.30986e-10
1.40034e-09
-2.31489e-10
1.48179e-09
-2.2772e-10
1.56086e-09
-2.23464e-10
1.6373e-09
-2.18599e-10
1.71046e-09
-2.1053e-10
1.78038e-09
-2.02087e-10
1.84715e-09
-1.94371e-10
1.91064e-09
-1.85073e-10
1.97111e-09
-1.76394e-10
2.02878e-09
-1.68134e-10
2.08395e-09
-1.60215e-10
2.13711e-09
-1.54245e-10
2.18862e-09
-1.50156e-10
2.2385e-09
-1.43472e-10
2.28729e-09
-1.41022e-10
2.3358e-09
-1.42486e-10
2.38285e-09
-1.36265e-10
2.42974e-09
-1.37553e-10
2.4757e-09
-1.40001e-10
2.51968e-09
-1.29316e-10
2.56209e-09
-1.30986e-10
2.60147e-09
-1.19721e-10
2.63652e-09
-1.08282e-10
2.66641e-09
-9.11042e-11
2.6885e-09
-6.45726e-11
2.70196e-09
-3.25094e-11
2.70419e-09
5.48704e-12
2.69337e-09
5.93046e-11
2.66885e-09
1.00399e-10
2.62669e-09
1.73759e-10
2.56827e-09
2.20897e-10
2.4926e-09
2.76599e-10
2.39849e-09
3.30532e-10
2.29012e-09
3.60376e-10
2.16416e-09
4.06643e-10
2.02838e-09
4.13654e-10
1.88029e-09
4.36323e-10
1.72771e-09
4.26967e-10
1.56919e-09
4.29463e-10
1.41168e-09
4.08557e-10
1.25791e-09
3.89099e-10
1.12046e-09
3.42089e-10
9.99226e-10
2.94959e-10
9.3533e-10
1.26689e-10
9.0614e-10
4.68516e-11
9.0662e-10
-1.854e-11
9.3373e-10
-7.88748e-11
9.90637e-10
-1.53416e-10
1.07157e-09
-2.19138e-10
1.17437e-09
-2.90907e-10
1.2791e-09
-3.00558e-10
1.37785e-09
-2.82084e-10
1.47018e-09
-2.62814e-10
1.55577e-09
-2.42836e-10
1.63451e-09
-2.22459e-10
1.70644e-09
-2.02046e-10
1.77169e-09
-1.81999e-10
1.83049e-09
-1.62638e-10
1.88311e-09
-1.44186e-10
1.92989e-09
-1.26803e-10
1.97117e-09
-1.10599e-10
2.00733e-09
-9.56343e-11
2.03876e-09
-8.19257e-11
2.06581e-09
-6.94563e-11
2.08887e-09
-5.81885e-11
2.10829e-09
-4.80721e-11
2.12441e-09
-3.90449e-11
2.13757e-09
-3.10316e-11
2.14806e-09
-2.39503e-11
2.15616e-09
-1.77198e-11
2.16216e-09
-1.22627e-11
2.16628e-09
-7.50661e-12
2.16876e-09
-3.38804e-12
2.16981e-09
1.46843e-13
2.16964e-09
3.14573e-12
2.16844e-09
5.65006e-12
2.1664e-09
7.69723e-12
2.1637e-09
9.32696e-12
2.16052e-09
1.05861e-11
2.15706e-09
1.15318e-11
2.15352e-09
1.22487e-11
2.15021e-09
1.27911e-11
1.40137e-11
2.53833e-09
6.75886e-11
2.63116e-09
1.93891e-10
2.73758e-09
2.83868e-10
2.83185e-09
3.35137e-10
2.90393e-09
3.56702e-10
2.9518e-09
3.55684e-10
2.97568e-09
3.39325e-10
2.97953e-09
3.14703e-10
2.96945e-09
2.8613e-10
2.95057e-09
2.56392e-10
2.92638e-09
2.28137e-10
2.89915e-09
2.03333e-10
2.87082e-09
1.81767e-10
2.84255e-09
1.63379e-10
2.81477e-09
1.48361e-10
2.78763e-09
1.36477e-10
2.76114e-09
1.2734e-10
2.73519e-09
1.2065e-10
2.70951e-09
1.16287e-10
2.68382e-09
1.13982e-10
2.65783e-09
1.13608e-10
2.63116e-09
1.15083e-10
2.60343e-09
1.18362e-10
2.57425e-09
1.23434e-10
2.54318e-09
1.30328e-10
2.50974e-09
1.39116e-10
2.47344e-09
1.49909e-10
2.43373e-09
1.62867e-10
2.39001e-09
1.78209e-10
2.34167e-09
1.96227e-10
2.28806e-09
2.17324e-10
2.2286e-09
2.42057e-10
2.16281e-09
2.71321e-10
2.08875e-09
3.18831e-10
2.02053e-09
2.7634e-10
1.9783e-09
1.25986e-10
1.9669e-09
-1.21276e-11
1.98687e-09
-1.27328e-10
2.03678e-09
-2.37031e-10
2.11243e-09
-3.44946e-10
2.20961e-09
-4.65466e-10
2.31605e-09
-5.11182e-10
2.42672e-09
-5.09399e-10
2.53496e-09
-4.89608e-10
2.63667e-09
-4.53287e-10
2.73145e-09
-4.19642e-10
2.8195e-09
-3.9072e-10
2.89974e-09
-3.46294e-10
2.97298e-09
-3.16501e-10
3.03854e-09
-2.78581e-10
3.09645e-09
-2.35239e-10
3.14618e-09
-1.97166e-10
3.18738e-09
-1.41156e-10
3.2196e-09
-9.71687e-11
3.24224e-09
-3.07888e-11
3.25439e-09
2.7227e-11
3.25547e-09
9.47119e-11
3.24394e-09
1.70596e-10
3.22007e-09
2.25649e-10
3.18098e-09
3.14932e-10
3.12831e-09
3.60038e-10
3.06059e-09
4.17309e-10
2.97902e-09
4.57117e-10
2.88458e-09
4.80076e-10
2.7786e-09
5.03223e-10
2.66433e-09
4.97874e-10
2.54301e-09
4.99965e-10
2.41845e-09
4.78808e-10
2.29226e-09
4.62234e-10
2.16684e-09
4.36812e-10
2.04451e-09
4.07862e-10
1.92516e-09
3.85587e-10
1.81126e-09
3.55031e-10
1.7025e-09
3.30303e-10
1.59909e-09
3.07252e-10
1.50173e-09
2.82959e-10
1.40988e-09
2.62409e-10
1.32332e-09
2.44082e-10
1.24203e-09
2.26092e-10
1.16585e-09
2.09691e-10
1.09429e-09
1.95363e-10
1.02733e-09
1.81641e-10
9.64682e-10
1.69168e-10
9.06166e-10
1.57613e-10
8.51826e-10
1.46188e-10
8.01304e-10
1.36092e-10
7.54397e-10
1.26555e-10
7.11656e-10
1.15527e-10
6.725e-10
1.05985e-10
6.37033e-10
9.60512e-11
6.0591e-10
8.40326e-11
5.7892e-10
7.26356e-11
5.56102e-10
6.07066e-11
5.38732e-10
4.5728e-11
5.25806e-10
3.29647e-11
5.19331e-10
1.55086e-11
5.17857e-10
1.19643e-12
5.23529e-10
-1.79945e-11
5.34786e-10
-3.38484e-11
5.5395e-10
-5.53705e-11
5.79202e-10
-7.28768e-11
6.12298e-10
-9.502e-11
6.52297e-10
-1.15447e-10
6.99335e-10
-1.36561e-10
7.53962e-10
-1.60223e-10
8.14727e-10
-1.80183e-10
8.8241e-10
-2.03793e-10
9.55527e-10
-2.23388e-10
1.03374e-09
-2.43382e-10
1.11627e-09
-2.61404e-10
1.20205e-09
-2.77328e-10
1.29028e-09
-2.90819e-10
1.38009e-09
-3.02791e-10
1.47011e-09
-3.09038e-10
1.56031e-09
-3.17582e-10
1.64902e-09
-3.1808e-10
1.73588e-09
-3.1784e-10
1.82044e-09
-3.16046e-10
1.90186e-09
-3.09135e-10
1.98e-09
-3.01597e-10
2.0548e-09
-2.934e-10
2.12584e-09
-2.81565e-10
2.19333e-09
-2.69583e-10
2.25746e-09
-2.58504e-10
2.31829e-09
-2.45923e-10
2.37619e-09
-2.34314e-10
2.43143e-09
-2.23405e-10
2.48439e-09
-2.13199e-10
2.53551e-09
-2.05375e-10
2.58507e-09
-1.99713e-10
2.63331e-09
-1.91687e-10
2.68028e-09
-1.87951e-10
2.72694e-09
-1.89098e-10
2.77236e-09
-1.81642e-10
2.81711e-09
-1.82274e-10
2.86038e-09
-1.83279e-10
2.90211e-09
-1.71066e-10
2.94158e-09
-1.70496e-10
2.97841e-09
-1.56589e-10
3.01107e-09
-1.4097e-10
3.03939e-09
-1.19433e-10
3.06119e-09
-8.63662e-11
3.07635e-09
-4.76501e-11
3.08237e-09
-5.28122e-13
3.07886e-09
6.28248e-11
3.06397e-09
1.15293e-10
3.03615e-09
2.01577e-10
2.99431e-09
2.62734e-10
2.93793e-09
3.32977e-10
2.86465e-09
4.03813e-10
2.77672e-09
4.48311e-10
2.67059e-09
5.12772e-10
2.55112e-09
5.3312e-10
2.41566e-09
5.71787e-10
2.26999e-09
5.72637e-10
2.11265e-09
5.86805e-10
1.94978e-09
5.71423e-10
1.78583e-09
5.53049e-10
1.63718e-09
4.90734e-10
1.50281e-09
4.29335e-10
1.4246e-09
2.04896e-10
1.38395e-09
8.74992e-11
1.37772e-09
-1.23043e-11
1.40292e-09
-1.0408e-10
1.46192e-09
-2.12413e-10
1.54606e-09
-3.03274e-10
1.65092e-09
-3.95768e-10
1.75629e-09
-4.05928e-10
1.85497e-09
-3.80764e-10
1.94682e-09
-3.54663e-10
2.03169e-09
-3.27704e-10
2.10962e-09
-3.00393e-10
2.18077e-09
-2.73193e-10
2.24535e-09
-2.4658e-10
2.30364e-09
-2.20932e-10
2.35596e-09
-1.96508e-10
2.40265e-09
-1.73488e-10
2.44405e-09
-1.51999e-10
2.48052e-09
-1.3211e-10
2.51243e-09
-1.13832e-10
2.54011e-09
-9.71362e-11
2.5639e-09
-8.19761e-11
2.58412e-09
-6.82946e-11
2.60109e-09
-5.60192e-11
2.61512e-09
-4.50577e-11
2.62648e-09
-3.53092e-11
2.63543e-09
-2.66757e-11
2.64223e-09
-1.90632e-11
2.64711e-09
-1.23837e-11
2.65028e-09
-6.56058e-12
2.65196e-09
-1.53074e-12
2.65235e-09
2.7591e-12
2.65164e-09
6.35493e-12
2.65004e-09
9.2978e-12
2.64774e-09
1.16283e-11
2.64494e-09
1.33911e-11
2.64183e-09
1.4634e-11
2.63866e-09
1.54267e-11
2.63568e-09
1.57643e-11
1.64864e-11
2.52326e-09
4.43248e-11
2.58626e-09
1.30895e-10
2.67044e-09
1.99692e-10
2.75962e-09
2.45958e-10
2.84359e-09
2.72729e-10
2.91572e-09
2.83554e-10
2.97306e-09
2.81984e-10
3.01604e-09
2.71724e-10
3.04643e-09
2.55733e-10
3.06519e-09
2.37633e-10
3.07407e-09
2.19263e-10
3.0763e-09
2.01096e-10
3.07393e-09
1.84139e-10
3.06803e-09
1.69278e-10
3.05934e-09
1.57048e-10
3.04865e-09
1.47171e-10
3.03647e-09
1.39517e-10
3.02307e-09
1.34052e-10
3.00855e-09
1.30811e-10
2.99289e-09
1.29643e-10
2.97604e-09
1.30451e-10
2.95785e-09
1.33275e-10
2.9381e-09
1.38116e-10
2.91652e-09
1.45008e-10
2.89282e-09
1.54034e-10
2.86662e-09
1.6531e-10
2.83753e-09
1.78998e-10
2.8051e-09
1.95302e-10
2.76883e-09
2.14479e-10
2.72821e-09
2.3685e-10
2.68271e-09
2.62818e-10
2.63188e-09
2.92891e-10
2.57535e-09
3.27852e-10
2.51175e-09
3.82432e-10
2.45074e-09
3.37348e-10
2.40722e-09
1.69501e-10
2.38809e-09
7.00667e-12
2.39669e-09
-1.35928e-10
2.43236e-09
-2.72702e-10
2.4906e-09
-4.03188e-10
2.56681e-09
-5.41679e-10
2.65211e-09
-5.96475e-10
2.74354e-09
-6.00835e-10
2.83374e-09
-5.79807e-10
2.91861e-09
-5.38159e-10
2.99758e-09
-4.98613e-10
3.07081e-09
-4.63951e-10
3.13817e-09
-4.13649e-10
3.19955e-09
-3.77884e-10
3.25405e-09
-3.33078e-10
3.30352e-09
-2.84707e-10
3.34662e-09
-2.40272e-10
3.38409e-09
-1.78622e-10
3.4151e-09
-1.28182e-10
3.44026e-09
-5.59445e-11
3.45855e-09
8.93282e-12
3.47005e-09
8.32137e-11
3.47371e-09
1.66934e-10
3.46893e-09
2.3043e-10
3.4544e-09
3.29467e-10
3.42956e-09
3.84872e-10
3.39314e-09
4.53737e-10
3.34478e-09
5.05479e-10
3.28379e-09
5.41066e-10
3.21103e-09
5.75982e-10
3.12733e-09
5.8157e-10
3.03393e-09
5.93362e-10
2.93285e-09
5.7989e-10
2.82595e-09
5.69133e-10
2.71507e-09
5.47698e-10
2.60275e-09
5.20175e-10
2.48947e-09
4.98871e-10
2.37785e-09
4.66652e-10
2.26828e-09
4.39874e-10
2.16151e-09
4.1402e-10
2.05867e-09
3.85793e-10
1.95968e-09
3.61396e-10
1.86479e-09
3.38981e-10
1.77418e-09
3.16692e-10
1.68807e-09
2.95807e-10
1.60616e-09
2.77276e-10
1.52863e-09
2.5917e-10
1.4554e-09
2.42399e-10
1.38641e-09
2.26599e-10
1.32187e-09
2.10731e-10
1.26152e-09
1.96435e-10
1.20524e-09
1.82839e-10
1.15374e-09
1.67029e-10
1.10638e-09
1.53345e-10
1.06339e-09
1.39042e-10
1.02538e-09
1.22037e-10
9.92232e-10
1.05786e-10
9.63838e-10
8.91001e-11
9.41763e-10
6.78031e-11
9.24758e-10
4.99702e-11
9.15254e-10
2.50129e-11
9.11725e-10
4.72614e-12
9.1648e-10
-2.27491e-11
9.27837e-10
-4.5206e-11
9.48558e-10
-7.60904e-11
9.76391e-10
-1.0071e-10
1.01336e-09
-1.31986e-10
1.05811e-09
-1.602e-10
1.11072e-09
-1.89172e-10
1.17142e-09
-2.20923e-10
1.23846e-09
-2.47222e-10
1.31226e-09
-2.77593e-10
1.39107e-09
-3.02199e-10
1.47413e-09
-3.26434e-10
1.56051e-09
-3.47786e-10
1.64878e-09
-3.65602e-10
1.73813e-09
-3.80171e-10
1.82745e-09
-3.92104e-10
1.91548e-09
-3.97069e-10
2.00207e-09
-4.04173e-10
2.08579e-09
-4.018e-10
2.16635e-09
-3.984e-10
2.24349e-09
-3.93184e-10
2.31666e-09
-3.82298e-10
2.38589e-09
-3.70821e-10
2.45136e-09
-3.58862e-10
2.51289e-09
-3.43088e-10
2.5709e-09
-3.2759e-10
2.62566e-09
-3.13267e-10
2.67745e-09
-2.97723e-10
2.72671e-09
-2.83581e-10
2.77375e-09
-2.7047e-10
2.81898e-09
-2.58463e-10
2.86278e-09
-2.49198e-10
2.90534e-09
-2.4229e-10
2.94699e-09
-2.3334e-10
2.98736e-09
-2.28293e-10
3.02789e-09
-2.29598e-10
3.06687e-09
-2.20571e-10
3.10527e-09
-2.20638e-10
3.14198e-09
-2.19956e-10
3.17758e-09
-2.06672e-10
3.21069e-09
-2.03625e-10
3.24175e-09
-1.8768e-10
3.26922e-09
-1.6847e-10
3.29348e-09
-1.43716e-10
3.31287e-09
-1.05761e-10
3.32778e-09
-6.25574e-11
3.33649e-09
-9.22962e-12
3.33911e-09
6.02162e-11
3.33361e-09
1.20797e-10
3.32034e-09
2.14848e-10
3.29655e-09
2.86522e-10
3.26229e-09
3.67233e-10
3.21467e-09
4.5144e-10
3.15437e-09
5.08609e-10
3.07786e-09
5.89281e-10
2.98723e-09
6.23748e-10
2.8796e-09
6.79416e-10
2.7582e-09
6.94043e-10
2.6211e-09
7.23903e-10
2.47265e-09
7.19866e-10
2.31819e-09
7.07512e-10
2.17678e-09
6.32149e-10
2.04604e-09
5.6007e-10
1.96437e-09
2.86565e-10
1.91878e-09
1.33089e-10
1.90822e-09
-1.74024e-12
1.93057e-09
-1.26436e-10
1.98768e-09
-2.69517e-10
2.06869e-09
-3.84282e-10
2.16747e-09
-4.94557e-10
2.26526e-09
-5.03708e-10
2.35592e-09
-4.71434e-10
2.43963e-09
-4.38371e-10
2.51642e-09
-4.04488e-10
2.58648e-09
-3.70459e-10
2.65011e-09
-3.36821e-10
2.70762e-09
-3.04089e-10
2.75936e-09
-2.7267e-10
2.80568e-09
-2.42828e-10
2.84693e-09
-2.14742e-10
2.88348e-09
-1.88546e-10
2.91567e-09
-1.643e-10
2.94383e-09
-1.41995e-10
2.96828e-09
-1.21578e-10
2.98929e-09
-1.02988e-10
3.00716e-09
-8.61657e-11
3.02217e-09
-7.10323e-11
3.03459e-09
-5.74744e-11
3.04465e-09
-4.53708e-11
3.05258e-09
-3.4609e-11
3.0586e-09
-2.50802e-11
3.0629e-09
-1.66809e-11
3.06566e-09
-9.32561e-12
3.06708e-09
-2.94781e-12
3.06733e-09
2.50787e-12
3.0666e-09
7.08789e-12
3.06506e-09
1.08338e-11
3.0629e-09
1.37848e-11
3.06031e-09
1.59831e-11
3.05748e-09
1.74703e-11
3.05459e-09
1.83093e-11
3.05189e-09
1.84668e-11
1.87184e-11