/*--------------------------------*- C++ -*----------------------------------*\
| =========                 |                                                 |
| \\      /  F ield         | OpenFOAM: The Open Source CFD Toolbox           |
|  \\    /   O peration     | Version:  2506                                  |
|   \\  /    A nd           | Website:  www.openfoam.com                      |
|    \\/     M anipulation  |                                                 |
\*---------------------------------------------------------------------------*/
FoamFile
{
    version     2.0;
    format      ascii;
    arch        "LSB;label=32;scalar=64";
    class       volScalarField;
    location    "2.6";
    object      p;
}
// * * * * * * * * * * * * * * * * * * * * * * * * * * * * * * * * * * * * * //

dimensions      [0 2 -2 0 0 0 0];

internalField   nonuniform List<scalar> 
4000
(
0.00506763
0.00494899
0.00487362
0.00483073
0.00479774
0.00476932
0.00474429
0.00472128
0.00469924
0.00467763
0.00465624
0.00463496
0.00461374
0.00459258
0.00457149
0.00455047
0.00452955
0.00450876
0.00448811
0.00446763
0.00444736
0.00442731
0.00440751
0.00438801
0.00436885
0.00435006
0.00433171
0.00431386
0.00429657
0.00427995
0.00426409
0.00424913
0.00423529
0.00422241
0.00421211
0.00420359
0.00419356
0.00418109
0.00416598
0.00414726
0.00412375
0.0040924
0.0040542
0.00401184
0.00396561
0.00391593
0.00386294
0.00380636
0.00374761
0.00368631
0.00362298
0.00355881
0.00349329
0.00342894
0.00336467
0.00330299
0.00324356
0.00318726
0.00313594
0.00308717
0.00304476
0.00300603
0.00297168
0.00294166
0.00291453
0.00289117
0.00286968
0.00285086
0.00283335
0.00281734
0.00280236
0.00278795
0.0027743
0.00276094
0.00274789
0.00273515
0.00272252
0.00271
0.00269766
0.00268547
0.00267344
0.00266164
0.00265008
0.00263881
0.00262786
0.00261721
0.0026069
0.00259695
0.00258731
0.00257797
0.00256899
0.00256027
0.00255182
0.00254368
0.00253572
0.00252807
0.00252055
0.00251329
0.00250611
0.00249914
0.00249216
0.00248527
0.0024783
0.00247123
0.00246406
0.00245663
0.00244897
0.00244091
0.00243245
0.00242347
0.00241391
0.00240366
0.0023927
0.00238084
0.00236809
0.00235418
0.00233913
0.00232278
0.00230496
0.00228559
0.00226452
0.00224159
0.00221673
0.00218985
0.00216078
0.0021295
0.00209596
0.00206009
0.00202191
0.0019814
0.00193846
0.00189339
0.00184612
0.00179644
0.00174492
0.0016915
0.00163566
0.00157893
0.00152035
0.00146101
0.00140102
0.00134102
0.00128169
0.00122406
0.00116809
0.00111629
0.00106653
0.00102289
0.000983322
0.000948428
0.000918977
0.000892909
0.000872148
0.000854027
0.000839869
0.000827651
0.000818178
0.000809996
0.000803389
0.000797679
0.000795658
0.000789747
0.000781852
0.000772285
0.000761247
0.000747796
0.00073198
0.000711896
0.000689611
0.000666889
0.00064403
0.000621184
0.00059847
0.00057592
0.000553502
0.000531162
0.000508842
0.000486498
0.000464103
0.000441658
0.000419158
0.000396624
0.000374093
0.000351599
0.000329156
0.000306819
0.00028461
0.000262552
0.000240669
0.000218967
0.000197453
0.000176122
0.000154958
0.000133955
0.000113096
9.23547e-05
7.17085e-05
5.11325e-05
3.06031e-05
1.01534e-05
0.00497914
0.00491849
0.00486534
0.00482932
0.00480018
0.00477282
0.00474732
0.00472366
0.00470114
0.00467923
0.00465766
0.00463629
0.00461504
0.00459388
0.00457279
0.0045518
0.00453092
0.00451016
0.00448956
0.00446912
0.00444888
0.00442887
0.00440911
0.00438965
0.00437051
0.00435175
0.00433341
0.00431557
0.00429828
0.00428163
0.00426573
0.00425067
0.00423663
0.00422343
0.00421206
0.00420174
0.00418949
0.00417446
0.00415643
0.00413442
0.00410742
0.00407325
0.00403336
0.00399005
0.00394336
0.00389361
0.00384093
0.00378515
0.00372773
0.00366816
0.00360705
0.00354551
0.00348323
0.00342211
0.00336143
0.00330321
0.00324726
0.0031938
0.00314458
0.0030978
0.00305638
0.00301835
0.00298419
0.00295401
0.00292658
0.00290271
0.00288077
0.00286143
0.00284354
0.00282719
0.00281199
0.00279745
0.00278377
0.00277045
0.00275742
0.0027447
0.00273212
0.00271966
0.00270734
0.00269513
0.00268305
0.00267115
0.00265945
0.00264799
0.0026368
0.00262589
0.00261528
0.00260501
0.00259502
0.00258533
0.00257597
0.00256685
0.00255798
0.00254937
0.00254095
0.00253275
0.00252468
0.00251678
0.00250899
0.0025013
0.00249363
0.00248598
0.00247828
0.00247047
0.00246251
0.00245427
0.00244576
0.00243683
0.00242746
0.00241755
0.00240703
0.00239579
0.00238378
0.00237081
0.00235691
0.0023418
0.00232548
0.0023078
0.00228859
0.0022678
0.00224529
0.00222091
0.00219459
0.00216626
0.00213579
0.00210317
0.00206838
0.00203138
0.0019922
0.00195086
0.00190731
0.00186179
0.00181429
0.00176472
0.00171353
0.00166071
0.00160598
0.00155058
0.00149387
0.00143674
0.00137942
0.00132246
0.00126651
0.00121234
0.00116004
0.00111157
0.00106549
0.00102426
0.00098671
0.000953212
0.000924552
0.000899026
0.000878267
0.000860062
0.000845536
0.000832967
0.000823026
0.000814437
0.000807513
0.000801196
0.000798228
0.000791783
0.000783271
0.000773009
0.000760988
0.000746391
0.000729339
0.000708728
0.00068639
0.000663746
0.000641001
0.000618268
0.000595673
0.000573252
0.000550973
0.000528779
0.000506612
0.000484425
0.000462186
0.000439886
0.000417531
0.000395134
0.000372725
0.000350333
0.000328004
0.000305785
0.000283676
0.00026171
0.000239905
0.000218277
0.000196832
0.000175567
0.000154485
0.000133557
0.000112767
9.20954e-05
7.15187e-05
5.10117e-05
3.05487e-05
1.01493e-05
0.00493763
0.00490438
0.00486293
0.00483024
0.00480228
0.00477538
0.00475005
0.00472616
0.00470326
0.00468102
0.00465919
0.00463764
0.00461628
0.00459504
0.00457392
0.0045529
0.00453201
0.00451124
0.00449063
0.00447019
0.00444995
0.00442993
0.00441016
0.00439068
0.00437151
0.00435271
0.00433432
0.00431639
0.004299
0.00428221
0.00426609
0.00425073
0.00423625
0.00422239
0.00420975
0.00419754
0.0041832
0.00416594
0.00414546
0.00412086
0.0040914
0.00405582
0.00401559
0.00397236
0.00392612
0.00387704
0.00382538
0.0037712
0.00371579
0.00365845
0.00360011
0.00354163
0.00348288
0.00342511
0.00336808
0.00331278
0.00325958
0.00320861
0.0031611
0.00311579
0.00307472
0.0030367
0.00300207
0.00297103
0.00294265
0.0029176
0.00289461
0.00287419
0.00285539
0.00283822
0.00282235
0.00280728
0.00279313
0.00277948
0.00276622
0.00275331
0.00274061
0.00272803
0.0027156
0.00270328
0.00269107
0.002679
0.0026671
0.0026554
0.00264395
0.00263275
0.00262183
0.00261121
0.00260088
0.00259083
0.00258108
0.00257158
0.00256233
0.00255332
0.00254449
0.00253588
0.00252739
0.00251906
0.00251078
0.0025026
0.00249441
0.0024862
0.00247791
0.00246948
0.00246086
0.00245196
0.00244276
0.00243313
0.00242302
0.00241235
0.00240103
0.00238895
0.00237603
0.00236214
0.00234723
0.00233111
0.00231372
0.00229493
0.00227458
0.00225262
0.00222892
0.00220336
0.00217588
0.00214643
0.00211492
0.00208135
0.00204572
0.00200802
0.00196829
0.00192658
0.00188289
0.00183741
0.00179024
0.00174132
0.00169097
0.00163931
0.00158621
0.00153266
0.00147829
0.00142376
0.00136939
0.0013156
0.00126295
0.00121201
0.00116286
0.00111683
0.00107301
0.00103321
0.000996719
0.000963724
0.000934992
0.000909173
0.000887652
0.000868667
0.000853201
0.000839773
0.000828978
0.000819571
0.000812016
0.00080478
0.000800687
0.000793396
0.000784083
0.000772974
0.00075993
0.000744237
0.000726216
0.000705311
0.000683064
0.000660561
0.000637953
0.00061535
0.000592891
0.000570617
0.000548493
0.00052646
0.000504456
0.000482433
0.000460356
0.000438205
0.000415998
0.000393748
0.000371476
0.000349219
0.000327018
0.000304873
0.000282848
0.000260961
0.00023923
0.000217671
0.00019629
0.000175088
0.000154056
0.000133186
0.000112457
9.18478e-05
7.13346e-05
5.08901e-05
3.04862e-05
1.01188e-05
0.00491798
0.00489219
0.00485895
0.00482969
0.00480303
0.00477719
0.0047522
0.0047282
0.00470525
0.00468284
0.0046608
0.00463905
0.00461752
0.00459617
0.00457496
0.00455389
0.00453294
0.00451214
0.00449148
0.004471
0.00445071
0.00443064
0.0044108
0.00439123
0.00437197
0.00435304
0.00433449
0.00431637
0.00429872
0.00428161
0.00426508
0.00424918
0.00423395
0.00421916
0.00420515
0.00419118
0.00417499
0.00415582
0.00413337
0.0041069
0.00407599
0.00403985
0.00399974
0.00395693
0.00391142
0.00386337
0.00381316
0.00376103
0.00370771
0.00365311
0.00359798
0.00354284
0.00348776
0.00343343
0.0033799
0.00332784
0.00327743
0.00322891
0.00318304
0.00313904
0.00309822
0.00306001
0.00302469
0.0029925
0.00296282
0.0029362
0.00291173
0.0028898
0.00286967
0.00285128
0.00283436
0.00281843
0.00280356
0.00278933
0.0027756
0.00276233
0.00274933
0.00273652
0.00272388
0.00271137
0.00269897
0.0026867
0.00267458
0.00266263
0.00265091
0.00263942
0.0026282
0.00261727
0.00260661
0.00259624
0.00258615
0.00257631
0.0025667
0.00255732
0.0025481
0.00253907
0.00253014
0.00252133
0.00251256
0.00250385
0.00249509
0.00248631
0.0024774
0.00246833
0.00245905
0.00244947
0.00243954
0.00242917
0.00241829
0.0024068
0.00239463
0.00238167
0.00236783
0.00235297
0.00233705
0.00231988
0.00230141
0.00228151
0.00226005
0.00223696
0.00221216
0.00218554
0.00215706
0.00212669
0.00209438
0.00206014
0.00202399
0.00198595
0.00194608
0.00190444
0.00186107
0.00181611
0.00176988
0.00172209
0.00167302
0.00162305
0.00157214
0.00152091
0.00146922
0.00141759
0.00136633
0.00131577
0.0012663
0.00121835
0.00117201
0.00112813
0.00108624
0.00104751
0.00101156
0.000978549
0.000949177
0.0009225
0.000899645
0.000879335
0.000862408
0.000847644
0.000835617
0.000824928
0.000816411
0.000808108
0.000802789
0.000794486
0.000784235
0.000772205
0.000758211
0.000741615
0.000722901
0.000701769
0.000679556
0.00065715
0.000634662
0.000612198
0.000589891
0.00056778
0.000545825
0.00052396
0.00050212
0.000480254
0.000458328
0.000436327
0.00041426
0.000392143
0.00037
0.000347863
0.000325768
0.000303741
0.000281822
0.000260034
0.000238396
0.000216924
0.000195625
0.000174502
0.000153548
0.000132753
0.000112098
9.15612e-05
7.11173e-05
5.0738e-05
3.03971e-05
1.00686e-05
0.0049053
0.00488176
0.00485331
0.00482737
0.00480278
0.00477821
0.00475372
0.00473005
0.00470709
0.00468443
0.00466229
0.00464045
0.00461876
0.00459727
0.00457596
0.0045548
0.00453378
0.0045129
0.00449218
0.00447162
0.00445124
0.00443107
0.00441111
0.0043914
0.00437197
0.00435284
0.00433405
0.00431563
0.00429762
0.00428006
0.00426297
0.00424637
0.00423025
0.00421437
0.00419898
0.00418333
0.00416543
0.00414458
0.00412049
0.00409263
0.00406076
0.00402439
0.00398458
0.00394234
0.00389775
0.00385103
0.00380257
0.00375267
0.00370154
0.00365004
0.00359822
0.00354642
0.00349485
0.00344399
0.00339392
0.00334503
0.00329746
0.00325138
0.0032073
0.00316475
0.00312443
0.00308624
0.00305048
0.00301734
0.00298642
0.0029582
0.00293212
0.00290847
0.00288672
0.0028668
0.0028485
0.00283138
0.00281547
0.00280038
0.00278592
0.00277204
0.00275855
0.00274534
0.00273236
0.00271955
0.00270687
0.00269432
0.00268193
0.0026697
0.00265768
0.00264588
0.00263433
0.00262307
0.00261207
0.00260136
0.00259093
0.00258074
0.00257078
0.00256104
0.00255144
0.00254201
0.00253265
0.00252339
0.00251413
0.0025049
0.00249558
0.0024862
0.00247667
0.00246694
0.00245697
0.00244665
0.00243596
0.00242479
0.00241307
0.00240071
0.00238762
0.00237371
0.00235888
0.00234299
0.00232601
0.00230775
0.00228817
0.00226715
0.00224459
0.00222043
0.0021946
0.00216702
0.00213768
0.00210658
0.00207367
0.002039
0.0020026
0.00196452
0.00192483
0.0018836
0.0018409
0.00179688
0.00175183
0.0017054
0.00165811
0.0016102
0.00156171
0.001513
0.00146411
0.00141544
0.00136725
0.00131978
0.00127331
0.00122813
0.00118436
0.00114238
0.00110219
0.00106437
0.00102877
0.000995625
0.000965505
0.000937809
0.000913426
0.000891537
0.000872838
0.000856389
0.000842735
0.000830518
0.000820675
0.000811144
0.000804457
0.000795015
0.000783725
0.000770732
0.00075585
0.00073847
0.000719192
0.000697824
0.000675597
0.000653279
0.000630929
0.000608628
0.000586497
0.00056457
0.000542798
0.000521111
0.000499441
0.000477738
0.000455968
0.000434121
0.000412203
0.000390232
0.000368233
0.000346238
0.00032428
0.000302392
0.000280603
0.000258939
0.000237419
0.000216058
0.000194865
0.000173841
0.000152982
0.000132275
0.000111704
9.12467e-05
7.08777e-05
5.05679e-05
3.02955e-05
1.00153e-05
0.00489657
0.00487413
0.00484841
0.00482491
0.00480193
0.00477837
0.00475466
0.00473138
0.0047085
0.00468585
0.00466367
0.00464175
0.00461989
0.00459829
0.00457689
0.00455563
0.00453451
0.00451354
0.00449272
0.00447205
0.00445155
0.00443124
0.00441112
0.00439122
0.00437156
0.00435217
0.00433306
0.00431426
0.0042958
0.00427769
0.00425994
0.00424253
0.00422544
0.00420843
0.00419166
0.00417443
0.00415498
0.00413265
0.00410722
0.00407829
0.0040458
0.00400939
0.00397002
0.00392851
0.00388502
0.0038398
0.00379322
0.00374555
0.00369704
0.00364846
0.00359974
0.00355116
0.00350294
0.00345538
0.00340855
0.00336264
0.00331776
0.00327402
0.00323182
0.00319086
0.00315128
0.00311334
0.00307748
0.00304378
0.00301191
0.00298231
0.00295474
0.0029294
0.00290597
0.00288438
0.0028645
0.00284594
0.00282873
0.00281253
0.00279708
0.00278235
0.00276815
0.00275436
0.00274089
0.00272764
0.00271457
0.00270168
0.00268895
0.00267639
0.00266403
0.00265189
0.00263999
0.00262839
0.00261705
0.00260599
0.00259523
0.0025847
0.0025744
0.00256431
0.00255435
0.00254454
0.00253476
0.00252506
0.00251532
0.00250557
0.00249569
0.00248571
0.00247552
0.00246509
0.00245439
0.00244329
0.00243179
0.00241975
0.00240713
0.00239383
0.00237977
0.00236484
0.00234896
0.002332
0.00231393
0.00229457
0.00227388
0.00225178
0.00222817
0.00220302
0.00217628
0.00214789
0.00211788
0.00208624
0.00205297
0.00201812
0.00198175
0.00194392
0.0019047
0.00186418
0.00182246
0.00177969
0.00173581
0.00169109
0.00164592
0.00160022
0.00155411
0.00150792
0.00146179
0.00141595
0.00137064
0.001326
0.00128224
0.00123953
0.00119794
0.00115775
0.00111904
0.001082
0.00104665
0.00101339
0.000982587
0.000953873
0.000927961
0.000904427
0.00088383
0.000865516
0.000849899
0.00083629
0.000824698
0.00081369
0.000805465
0.000794801
0.000782416
0.000768447
0.000752733
0.000734666
0.000714915
0.000693338
0.000671107
0.000648906
0.000626726
0.000604618
0.000582687
0.000560959
0.00053938
0.000517873
0.000496373
0.000474832
0.000453221
0.000431535
0.000409781
0.000387974
0.000366143
0.000344318
0.000322531
0.000300812
0.000279189
0.000257683
0.000236313
0.000215093
0.00019403
0.000173127
0.000152379
0.000131774
0.000111296
9.09234e-05
7.06325e-05
5.03941e-05
3.01923e-05
9.96057e-06
0.00489057
0.00486871
0.00484459
0.00482271
0.0048009
0.00477818
0.00475512
0.00473222
0.00470955
0.00468708
0.00466484
0.00464279
0.00462091
0.00459923
0.00457772
0.00455636
0.00453514
0.00451406
0.00449312
0.00447232
0.00445168
0.00443119
0.00441088
0.00439074
0.00437081
0.00435109
0.0043316
0.00431235
0.00429336
0.00427462
0.00425614
0.00423787
0.00421977
0.00420161
0.00418351
0.00416481
0.00414395
0.00412035
0.00409383
0.0040641
0.00403122
0.00399496
0.00395614
0.00391549
0.0038732
0.00382957
0.00378492
0.0037395
0.00369366
0.0036478
0.00360202
0.0035565
0.0035114
0.00346687
0.003423
0.00337983
0.00333746
0.00329594
0.00325539
0.00321607
0.00317761
0.00314003
0.00310433
0.00307046
0.003038
0.00300736
0.00297854
0.00295172
0.00292671
0.00290348
0.00288196
0.00286185
0.00284315
0.0028256
0.00280906
0.00279324
0.0027781
0.00276353
0.00274939
0.00273557
0.00272199
0.00270865
0.0026955
0.00268255
0.00266982
0.0026573
0.00264504
0.00263307
0.00262137
0.00260997
0.00259886
0.002588
0.00257735
0.00256693
0.00255661
0.00254643
0.00253625
0.00252611
0.00251588
0.00250561
0.00249515
0.00248454
0.00247367
0.00246251
0.00245102
0.00243909
0.00242671
0.00241375
0.00240017
0.00238587
0.00237078
0.00235479
0.00233783
0.00231978
0.00230061
0.00228017
0.00225842
0.00223532
0.00221077
0.00218476
0.00215727
0.00212827
0.00209778
0.00206584
0.00203246
0.0019977
0.00196163
0.0019243
0.00188581
0.00184625
0.0018057
0.00176431
0.00172194
0.00167916
0.00163602
0.00159248
0.0015487
0.00150498
0.00146143
0.00141821
0.00137549
0.00133338
0.00129199
0.00125144
0.00121175
0.0011731
0.00113574
0.00109939
0.00106415
0.00103085
0.000999511
0.000969845
0.000942489
0.000917335
0.000894833
0.000874601
0.000856916
0.000841631
0.000828249
0.000815609
0.000805658
0.000793691
0.000780184
0.000765244
0.000748748
0.000730085
0.000709951
0.000688235
0.000666057
0.000644019
0.000622053
0.00060017
0.000578459
0.000556938
0.000535548
0.000514214
0.000492873
0.000471484
0.000450029
0.000428511
0.000406937
0.000385321
0.000363688
0.00034207
0.000320496
0.000298991
0.000277576
0.00025627
0.000235089
0.000214043
0.000193141
0.000172382
0.000151762
0.00013127
0.000110893
9.0609e-05
7.03967e-05
5.02282e-05
3.00967e-05
9.90158e-06
0.00488652
0.00486498
0.00484179
0.00482094
0.00479997
0.0047779
0.00475533
0.00473278
0.00471033
0.00468798
0.00466576
0.00464369
0.00462178
0.00460003
0.00457844
0.00455698
0.00453566
0.00451447
0.0044934
0.00447246
0.00445165
0.00443097
0.00441043
0.00439003
0.00436978
0.0043497
0.00432978
0.00431003
0.00429046
0.00427104
0.00425177
0.0042326
0.00421347
0.00419419
0.0041748
0.00415472
0.00413259
0.00410791
0.0040805
0.0040502
0.00401711
0.00398113
0.00394297
0.00390326
0.00386226
0.00382027
0.00377757
0.00373439
0.00369107
0.00364784
0.00360482
0.00356213
0.00351988
0.0034781
0.00343688
0.00339618
0.00335609
0.0033166
0.00327778
0.00323981
0.0032025
0.0031658
0.00313037
0.0030965
0.00306376
0.00303246
0.00300272
0.00297469
0.00294831
0.00292359
0.0029005
0.00287884
0.0028586
0.00283956
0.00282168
0.00280475
0.00278847
0.00277292
0.00275792
0.00274337
0.00272915
0.00271522
0.00270156
0.00268814
0.00267496
0.00266203
0.00264935
0.00263699
0.00262491
0.00261312
0.00260165
0.00259044
0.00257944
0.00256867
0.00255797
0.00254741
0.00253681
0.00252623
0.0025155
0.00250469
0.00249361
0.00248235
0.00247076
0.00245882
0.00244651
0.00243368
0.00242037
0.00240644
0.00239185
0.00237652
0.00236036
0.0023433
0.00232526
0.00230614
0.00228592
0.00226446
0.00224176
0.00221778
0.00219244
0.00216575
0.00213772
0.00210832
0.0020776
0.00204561
0.00201237
0.00197795
0.00194241
0.00190582
0.00186826
0.00182982
0.00179059
0.00175065
0.00171009
0.00166917
0.00162797
0.00158653
0.00154501
0.0015036
0.00146241
0.00142155
0.00138113
0.00134123
0.0013019
0.00126321
0.00122517
0.00118784
0.00115157
0.00111589
0.00108093
0.00104756
0.00101565
0.000985169
0.000956537
0.000929857
0.000905512
0.000883357
0.00086363
0.000846184
0.000831056
0.00081679
0.000804985
0.000791638
0.000776993
0.000761096
0.000743861
0.000724689
0.000704259
0.000682505
0.00066046
0.00063864
0.000616929
0.000595303
0.000573825
0.000552509
0.000531298
0.000510119
0.000488919
0.00046767
0.00044637
0.000425031
0.000403657
0.000382257
0.000360857
0.000339491
0.000318177
0.000296934
0.000275776
0.000254716
0.000233764
0.000212929
0.000192215
0.000171623
0.000151148
0.000130782
0.00011051
9.03156e-05
7.01804e-05
5.00783e-05
3.00151e-05
9.83774e-06
0.00488396
0.00486261
0.00483997
0.00481974
0.00479932
0.00477769
0.00475547
0.00473317
0.0047109
0.00468865
0.00466646
0.0046444
0.00462247
0.00460068
0.00457902
0.00455748
0.00453607
0.00451477
0.00449358
0.00447249
0.0044515
0.00443061
0.00440983
0.00438915
0.00436857
0.00434809
0.00432771
0.00430744
0.00428725
0.00426712
0.00424704
0.00422695
0.00420679
0.00418641
0.00416579
0.00414441
0.00412115
0.00409553
0.00406742
0.0040367
0.00400356
0.00396795
0.00393053
0.00389182
0.00385215
0.00381181
0.00377106
0.00373008
0.00368914
0.00364841
0.00360796
0.00356787
0.00352817
0.00348888
0.00345001
0.00341154
0.00337348
0.00333584
0.00329862
0.00326196
0.00322573
0.00319008
0.00315526
0.00312147
0.00308868
0.00305702
0.00302667
0.00299773
0.00297025
0.00294425
0.00291975
0.00289663
0.0028749
0.00285441
0.00283503
0.00281682
0.00279938
0.00278263
0.0027666
0.00275115
0.00273614
0.0027215
0.00270719
0.00269319
0.00267947
0.00266604
0.00265289
0.00264008
0.00262755
0.00261534
0.00260346
0.00259183
0.00258043
0.00256926
0.00255815
0.00254718
0.00253612
0.00252506
0.00251379
0.0025024
0.00249068
0.00247872
0.00246637
0.00245362
0.00244043
0.00242669
0.00241242
0.00239748
0.00238186
0.00236549
0.00234828
0.00233018
0.00231111
0.00229099
0.00226982
0.00224748
0.00222397
0.00219928
0.00217335
0.0021462
0.00211785
0.00208829
0.00205759
0.0020258
0.00199293
0.00195907
0.00192427
0.0018886
0.00185213
0.00181495
0.00177711
0.00173873
0.00169992
0.00166081
0.00162149
0.00158206
0.00154263
0.00150333
0.00146425
0.00142548
0.00138707
0.00134909
0.00131154
0.00127446
0.00123784
0.00120171
0.00116621
0.00113116
0.00109669
0.00106321
0.0010308
0.000999628
0.000969868
0.000941774
0.000915683
0.000891635
0.000869875
0.000850295
0.000833215
0.000817237
0.000803489
0.000788697
0.000772897
0.000756059
0.000738119
0.000718519
0.00069788
0.000676195
0.000654371
0.000632822
0.000611401
0.000590055
0.000568825
0.000547715
0.000526673
0.000505632
0.000484545
0.00046341
0.000442269
0.000421144
0.000399999
0.000378831
0.000357694
0.000336618
0.000315613
0.000294678
0.00027382
0.000253047
0.000232362
0.000211767
0.000191267
0.000170861
0.000150544
0.00013031
0.000110148
9.00445e-05
6.99846e-05
4.99455e-05
2.9948e-05
9.77275e-06
0.00488267
0.00486144
0.00483908
0.00481917
0.00479903
0.00477765
0.00475563
0.00473348
0.00471131
0.00468913
0.00466698
0.00464492
0.00462298
0.00460116
0.00457945
0.00455785
0.00453636
0.00451496
0.00449365
0.00447241
0.00445126
0.00443016
0.00440913
0.00438816
0.00436724
0.00434636
0.00432551
0.0043047
0.00428389
0.00426305
0.00424214
0.00422114
0.00419998
0.00417852
0.00415673
0.00413413
0.00410982
0.0040834
0.00405471
0.0040237
0.0039906
0.00395544
0.00391879
0.00388112
0.0038428
0.00380413
0.00376528
0.00372643
0.00368775
0.00364936
0.00361129
0.00357355
0.00353616
0.00349907
0.00346231
0.0034258
0.00338956
0.0033536
0.00331785
0.00328249
0.00324736
0.00321268
0.00317852
0.00314507
0.00311243
0.00308067
0.00304996
0.00302039
0.00299207
0.00296504
0.00293934
0.00291493
0.00289181
0.00286992
0.00284915
0.00282948
0.0028108
0.00279284
0.00277561
0.00275909
0.00274314
0.00272765
0.00271256
0.00269783
0.00268346
0.00266941
0.00265569
0.00264233
0.00262927
0.00261655
0.00260416
0.00259205
0.00258015
0.0025685
0.0025569
0.00254542
0.00253384
0.00252222
0.00251036
0.00249834
0.00248594
0.00247324
0.0024601
0.0024465
0.00243243
0.00241776
0.00240252
0.00238661
0.00236999
0.00235262
0.00233443
0.00231536
0.00229537
0.00227439
0.00225241
0.00222936
0.00220524
0.00218007
0.00215378
0.0021264
0.00209797
0.00206851
0.00203807
0.00200669
0.00197441
0.00194129
0.00190739
0.00187276
0.00183747
0.00180159
0.00176519
0.00172837
0.00169122
0.00165383
0.00161631
0.00157873
0.00154119
0.00150378
0.00146659
0.00142964
0.00139299
0.00135667
0.00132065
0.00128496
0.00124956
0.00121444
0.00117969
0.00114522
0.00111112
0.00107764
0.0010449
0.00101309
0.000982339
0.000952965
0.000925245
0.00089937
0.000875596
0.000853936
0.000834776
0.000817001
0.000801256
0.000784965
0.000767991
0.000750231
0.000731617
0.000711661
0.000690898
0.000669388
0.000647874
0.00062665
0.000605552
0.000584497
0.000563507
0.000542623
0.000521774
0.000500895
0.000479929
0.00045883
0.000437786
0.000416921
0.000396069
0.000375158
0.000354298
0.000333542
0.000312878
0.000292285
0.000271757
0.0002513
0.000230904
0.000210569
0.000190298
0.000170089
0.000149939
0.000129844
0.000109795
8.97825e-05
6.97979e-05
4.98201e-05
2.98824e-05
9.71076e-06
0.00488255
0.00486139
0.0048391
0.00481924
0.00479916
0.00477783
0.00475586
0.00473375
0.00471161
0.00468945
0.00466731
0.00464526
0.00462331
0.00460147
0.00457973
0.00455809
0.00453653
0.00451505
0.00449363
0.00447227
0.00445095
0.00442966
0.00440839
0.00438713
0.00436588
0.0043446
0.00432329
0.00430194
0.00428054
0.00425899
0.00423728
0.00421538
0.00419324
0.00417074
0.00414782
0.00412407
0.0040988
0.00407165
0.00404247
0.00401126
0.00397825
0.00394357
0.0039077
0.00387109
0.00383415
0.00379711
0.00376013
0.00372333
0.00368678
0.00365058
0.00361468
0.00357907
0.00354374
0.00350861
0.00347371
0.00343894
0.00340432
0.00336985
0.00333546
0.00330132
0.00326726
0.00323351
0.00320008
0.00316714
0.0031348
0.00310312
0.00307227
0.00304233
0.00301342
0.0029856
0.00295893
0.00293342
0.00290908
0.0028859
0.00286381
0.00284276
0.00282272
0.00280357
0.00278512
0.00276738
0.00275034
0.00273385
0.00271785
0.00270227
0.0026871
0.00267231
0.00265788
0.00264383
0.00263012
0.00261676
0.00260374
0.00259101
0.00257851
0.00256624
0.00255403
0.00254192
0.00252971
0.00251745
0.00250491
0.00249219
0.00247905
0.00246558
0.00245162
0.00243719
0.00242223
0.00240666
0.00239051
0.00237368
0.00235615
0.0023379
0.00231885
0.00229898
0.00227822
0.00225655
0.00223396
0.0022104
0.00218591
0.00216051
0.0021341
0.00210671
0.00207844
0.0020493
0.00201932
0.00198854
0.001957
0.00192475
0.00189184
0.00185832
0.00182425
0.00178968
0.00175469
0.00171935
0.00168375
0.00164798
0.0016121
0.00157621
0.00154037
0.00150464
0.00146909
0.00143375
0.00139862
0.00136373
0.00132903
0.00129453
0.00126019
0.00122597
0.00119192
0.00115798
0.00112422
0.00109082
0.00105783
0.00102551
0.000993898
0.00096338
0.000934154
0.000906533
0.000880786
0.000857066
0.000835757
0.000816122
0.000798358
0.000780527
0.000762367
0.000743705
0.000724451
0.000704217
0.000683422
0.000662176
0.000641041
0.000620212
0.000599517
0.000578784
0.000557965
0.000537286
0.000516674
0.000495909
0.000475057
0.000454175
0.000433353
0.000412642
0.000391996
0.000371366
0.000350808
0.000330379
0.000310067
0.000289828
0.000269637
0.000249511
0.000229405
0.000209333
0.000189295
0.000169287
0.000149306
0.000129352
0.000109419
8.95039e-05
6.95985e-05
4.96836e-05
2.97845e-05
9.62982e-06
0.0048836
0.00486246
0.00484002
0.00481997
0.00479972
0.00477825
0.00475617
0.00473398
0.0047118
0.00468961
0.00466747
0.00464542
0.00462348
0.00460163
0.00457988
0.00455821
0.00453661
0.00451506
0.00449355
0.00447208
0.00445061
0.00442914
0.00440765
0.00438614
0.00436456
0.00434292
0.00432118
0.00429932
0.0042773
0.00425508
0.00423261
0.00420987
0.00418678
0.00416328
0.00413927
0.00411442
0.00408824
0.0040604
0.00403076
0.00399938
0.00396648
0.00393229
0.0038972
0.00386166
0.00382608
0.00379067
0.00375551
0.00372066
0.00368613
0.00365194
0.00361803
0.00358433
0.00355082
0.00351742
0.00348415
0.00345092
0.00341773
0.00338461
0.00335145
0.00331845
0.00328541
0.00325256
0.0032199
0.00318755
0.00315563
0.00312418
0.00309337
0.00306326
0.00303398
0.00300561
0.00297819
0.0029518
0.00292643
0.00290211
0.00287881
0.0028565
0.00283516
0.00281471
0.00279508
0.00277614
0.00275789
0.00274028
0.00272326
0.00270669
0.00269058
0.00267491
0.00265964
0.00264476
0.00263024
0.0026161
0.0026023
0.0025888
0.00257553
0.00256249
0.00254952
0.00253664
0.00252367
0.00251063
0.00249734
0.00248383
0.00246991
0.00245564
0.00244088
0.00242562
0.00240984
0.00239346
0.00237648
0.00235884
0.00234052
0.00232151
0.00230177
0.00228127
0.00225998
0.00223787
0.00221493
0.00219113
0.00216653
0.00214115
0.00211481
0.00208758
0.00205968
0.00203102
0.00200163
0.00197157
0.00194086
0.00190955
0.00187766
0.00184525
0.00181236
0.00177906
0.00174539
0.00171144
0.00167727
0.00164297
0.00160858
0.00157419
0.00153985
0.0015056
0.00147149
0.00143755
0.00140374
0.0013701
0.00133654
0.00130309
0.00126967
0.00123625
0.00120285
0.00116942
0.00113599
0.00110272
0.00106958
0.00103686
0.00100453
0.000972998
0.000942392
0.000913118
0.000885446
0.000859677
0.000836162
0.000814608
0.000794831
0.000775429
0.000756076
0.000736542
0.000716694
0.00069627
0.00067558
0.000654688
0.000633938
0.000613543
0.000593269
0.000572897
0.000552457
0.000532022
0.000511534
0.000490921
0.000470239
0.000449552
0.000428918
0.000408381
0.00038795
0.000367617
0.000347397
0.000327303
0.000307315
0.000287398
0.000267518
0.000247728
0.000227882
0.000208056
0.000188241
0.000168425
0.00014861
0.000128796
0.000108986
8.91793e-05
6.93762e-05
4.95595e-05
2.97852e-05
9.63404e-06
0.00488592
0.00486473
0.00484191
0.00482136
0.00480068
0.00477887
0.00475652
0.00473415
0.00471185
0.00468961
0.00466745
0.0046454
0.00462347
0.00460164
0.0045799
0.00455822
0.0045366
0.00451502
0.00449345
0.00447188
0.00445029
0.00442866
0.00440699
0.00438523
0.00436338
0.00434139
0.00431925
0.00429692
0.00427436
0.00425151
0.00422833
0.00420478
0.00418079
0.00415632
0.00413125
0.00410534
0.00407825
0.00404971
0.00401961
0.00398804
0.00395526
0.00392152
0.00388718
0.00385272
0.00381852
0.00378473
0.00375133
0.00371836
0.00368571
0.00365337
0.00362123
0.00358923
0.00355733
0.00352545
0.0034936
0.00346172
0.0034298
0.00339787
0.00336584
0.00333389
0.00330181
0.00326984
0.00323795
0.00320624
0.00317481
0.00314371
0.00311308
0.00308298
0.00305352
0.00302479
0.00299683
0.00296976
0.00294356
0.00291829
0.00289393
0.00287048
0.00284796
0.00282629
0.00280542
0.00278529
0.00276583
0.00274709
0.00272893
0.00271126
0.00269411
0.00267744
0.00266118
0.00264534
0.00262987
0.00261479
0.00260006
0.00258563
0.00257144
0.00255747
0.00254359
0.0025298
0.00251594
0.00250201
0.00248787
0.00247351
0.00245878
0.0024437
0.00242815
0.00241214
0.00239562
0.00237855
0.00236092
0.00234269
0.00232381
0.00230427
0.00228401
0.002263
0.00224128
0.00221891
0.00219585
0.00217203
0.00214747
0.0021222
0.00209619
0.00206944
0.00204209
0.00201404
0.00198525
0.00195591
0.00192607
0.00189569
0.00186479
0.00183344
0.00180166
0.00176953
0.00173708
0.00170439
0.00167151
0.00163853
0.00160546
0.00157241
0.00153939
0.00150644
0.00147359
0.00144086
0.00140819
0.00137564
0.00134308
0.00131055
0.00127795
0.00124526
0.00121247
0.00117954
0.00114644
0.00111335
0.00108015
0.00104715
0.00101424
0.000981826
0.000949969
0.000919126
0.000889578
0.000861766
0.000835959
0.000812435
0.000790657
0.000769652
0.000749129
0.000728764
0.000708381
0.000687861
0.000667345
0.000646937
0.000626781
0.00060686
0.000586992
0.000567038
0.000546976
0.000526808
0.000506518
0.000486105
0.000465619
0.000445126
0.000424689
0.000404359
0.00038416
0.000364097
0.000344169
0.00032437
0.000304675
0.00028505
0.000265457
0.000245912
0.00022632
0.00020672
0.000187104
0.000167466
0.000147809
0.000128138
0.000108458
8.87741e-05
6.90892e-05
4.93876e-05
2.97278e-05
9.62436e-06
0.00488975
0.00486839
0.00484481
0.00482338
0.00480197
0.00477961
0.00475685
0.00473419
0.00471172
0.0046894
0.00466722