/*--------------------------------*- C++ -*----------------------------------*\
| =========                 |                                                 |
| \\      /  F ield         | OpenFOAM: The Open Source CFD Toolbox           |
|  \\    /   O peration     | Version:  2506                                  |
|   \\  /    A nd           | Website:  www.openfoam.com                      |
|    \\/     M anipulation  |                                                 |
\*---------------------------------------------------------------------------*/
FoamFile
{
    version     2.0;
    format      ascii;
    arch        "LSB;label=32;scalar=64";
    class       volVectorField;
    location    "0.55";
    object      vorticityField;
}
// * * * * * * * * * * * * * * * * * * * * * * * * * * * * * * * * * * * * * //

dimensions      [0 0 -1 0 0 0 0];

internalField   nonuniform List<vector> 
4000
(
(5.10333e-19 1.25755e-19 41.6583)
(8.76076e-20 9.18151e-20 45.2428)
(1.83673e-19 5.52637e-19 39.5776)
(6.20395e-19 8.25575e-19 34.2995)
(-8.33504e-19 9.83788e-19 30.9626)
(5.47274e-20 1.12782e-20 28.6766)
(5.43573e-19 1.03136e-18 26.9334)
(-8.96102e-20 1.16181e-18 25.5768)
(-1.06208e-19 4.07318e-20 24.5026)
(-6.46351e-20 -6.01292e-19 23.6277)
(5.17402e-19 2.73084e-17 22.8968)
(-2.1415e-18 -4.98642e-17 22.2725)
(1.39698e-18 2.31668e-17 21.7277)
(-1.3531e-18 -2.52004e-17 21.2421)
(2.02934e-18 2.44529e-17 20.8003)
(-1.53937e-18 1.2038e-18 20.3904)
(1.25455e-18 2.58346e-17 20.0028)
(-1.6063e-18 -2.45141e-17 19.6298)
(-9.05259e-19 6.74057e-19 19.2644)
(1.52279e-18 4.6909e-20 18.9004)
(-1.15644e-19 4.81954e-20 18.5321)
(-2.07672e-18 -1.25806e-18 18.1536)
(1.93559e-18 -1.34977e-18 17.7587)
(2.10777e-18 1.79951e-20 17.3408)
(-2.23057e-18 -1.27134e-18 16.8921)
(-1.50656e-19 -1.40229e-18 16.4035)
(-2.83631e-18 -7.84663e-20 15.8634)
(3.30103e-19 -2.9997e-18 15.2571)
(9.1394e-18 5.51582e-17 14.5643)
(-3.20055e-18 -5.02498e-17 13.7175)
(-4.49274e-18 5.06441e-18 12.6221)
(-1.15312e-17 -1.30995e-16 11.7364)
(6.8617e-18 1.39557e-16 11.5239)
(-1.62094e-17 -6.14761e-17 12.0247)
(1.07179e-17 -2.4735e-16 13.1184)
(1.469e-16 1.00829e-15 14.6868)
(2.81407e-17 4.71626e-17 16.4434)
(-6.03349e-17 -1.67666e-16 19.6796)
(-6.1867e-19 -4.5663e-17 24.8154)
(1.45916e-17 5.9619e-17 30.2893)
(-5.901e-17 -1.90309e-16 35.5987)
(2.13869e-16 6.74928e-16 40.5485)
(-2.42386e-18 1.28876e-17 45.1268)
(3.58669e-16 4.31192e-16 49.3431)
(-1.71705e-16 -1.20915e-16 53.1623)
(6.50042e-18 4.09421e-16 56.549)
(2.94534e-17 1.43782e-16 59.4112)
(-5.07393e-17 -4.49793e-16 61.8232)
(-3.24711e-16 -2.8465e-16 63.8827)
(-2.12389e-16 -2.03656e-16 65.6633)
(-3.87477e-17 -7.64993e-17 67.2189)
(4.61418e-18 8.72771e-18 68.2269)
(1.74596e-17 -2.60272e-17 69.2102)
(3.59313e-17 4.37419e-16 69.4832)
(-1.09712e-16 4.26353e-16 68.8558)
(-2.0893e-17 -3.78472e-16 66.6115)
(-5.73078e-17 -7.81152e-17 62.8797)
(1.19705e-17 9.84429e-18 57.1)
(-1.67055e-18 3.65828e-18 49.2592)
(2.69205e-18 -3.58992e-17 40.765)
(1.26728e-17 -7.70393e-17 32.8276)
(3.24445e-17 1.60881e-16 25.906)
(-2.00254e-17 4.53137e-16 20.2527)
(4.32387e-17 -3.98574e-16 16.1343)
(5.53248e-19 1.13957e-17 13.0036)
(-2.29048e-18 2.00421e-18 10.786)
(3.70289e-19 -3.32839e-18 9.14965)
(9.47162e-18 -1.13883e-16 7.92218)
(2.27015e-17 -9.33645e-16 7.00436)
(4.03958e-17 -4.97853e-16 6.28307)
(-1.41256e-18 5.14623e-17 5.6899)
(-4.47892e-17 4.53836e-16 5.18113)
(1.04197e-18 -4.45916e-16 4.73803)
(-8.70023e-18 4.22199e-17 4.34374)
(-3.33774e-17 4.32873e-16 3.98635)
(2.00743e-17 -4.56791e-16 3.65837)
(3.98534e-17 -4.64439e-16 3.35546)
(9.23778e-18 -3.62552e-16 3.07637)
(-1.78678e-18 2.4078e-17 2.8277)
(-1.56188e-17 1.50792e-17 2.59965)
(1.33158e-17 1.38195e-17 2.3918)
(-1.13145e-17 3.25397e-16 2.21116)
(3.9696e-19 -2.38338e-17 2.07105)
(7.82697e-18 -2.77526e-16 1.96085)
(4.68374e-19 2.72784e-16 1.89905)
(-4.88688e-20 -6.59644e-18 1.892)
(5.49033e-20 -1.1945e-19 1.96357)
(4.28299e-20 1.21108e-17 2.09368)
(3.34753e-19 4.93207e-17 2.27311)
(2.12433e-18 -1.03326e-16 2.51245)
(-1.39204e-19 -2.49787e-18 2.80599)
(8.90437e-18 -1.75589e-17 3.16311)
(9.51331e-18 -1.1295e-17 3.51008)
(-1.25914e-17 -3.17027e-17 3.8605)
(3.21475e-17 3.45756e-16 4.1055)
(1.83663e-17 3.38096e-16 4.37803)
(3.56167e-17 4.2594e-16 4.78709)
(2.25826e-17 4.21081e-17 5.54301)
(2.73841e-17 3.33253e-16 6.83582)
(3.85266e-17 4.21759e-16 8.83797)
(-1.19956e-18 -1.05955e-17 11.6612)
(5.55527e-17 4.39103e-16 15.3184)
(1.14338e-16 8.97422e-16 19.6981)
(6.86063e-18 6.19227e-17 24.6153)
(1.49777e-16 3.65854e-16 29.8598)
(2.26726e-18 7.77414e-17 35.2234)
(-1.33009e-16 -2.43139e-16 40.5431)
(-1.35939e-16 -2.68854e-16 45.6606)
(1.66212e-17 -2.81869e-17 50.3241)
(3.02345e-17 5.47906e-17 54.6182)
(-1.94575e-16 -2.28129e-16 58.575)
(1.48208e-16 1.11529e-16 61.1971)
(6.27971e-19 -1.59325e-17 63.3525)
(1.64484e-16 5.35569e-16 63.2983)
(1.24373e-17 2.26097e-16 61.6269)
(4.89665e-17 2.65019e-16 57.7901)
(-2.64765e-19 1.33084e-17 51.4003)
(-6.67397e-19 9.64569e-17 43.544)
(8.72484e-19 -8.34294e-18 35.5881)
(2.1638e-19 -6.9402e-19 28.1798)
(-1.49278e-18 -8.0186e-20 22.1083)
(4.31308e-17 -3.37173e-16 17.5)
(-1.91504e-17 4.84001e-16 14.1155)
(-3.39132e-19 2.81528e-17 11.6297)
(-3.19165e-17 3.4126e-16 9.78846)
(4.79774e-17 -8.75137e-16 8.47322)
(-4.17149e-17 4.9962e-16 7.48787)
(1.17834e-18 -4.60223e-16 6.70913)
(-2.52767e-17 8.12126e-17 6.08126)
(1.98593e-17 -4.03643e-16 5.56009)
(1.04957e-18 5.5818e-17 5.10913)
(-4.48204e-17 4.8398e-16 4.70683)
(3.25814e-17 -1.22292e-16 4.33997)
(-2.92967e-17 5.01645e-16 4.00246)
(-1.75724e-17 -1.34134e-17 3.6922)
(-2.4481e-18 -2.32112e-17 3.4044)
(2.00261e-17 -3.68111e-16 3.13648)
(-2.29508e-17 3.78501e-16 2.88498)
(1.46557e-18 -2.31624e-17 2.65938)
(1.17107e-17 6.84514e-18 2.46647)
(-9.49429e-18 3.06757e-16 2.2884)
(2.23607e-18 -7.26753e-17 2.14891)
(-1.96786e-17 3.34862e-16 2.04956)
(1.42023e-18 -1.69801e-17 1.99967)
(1.18328e-18 -1.81502e-16 2.02661)
(1.76067e-18 -1.12921e-16 2.12867)
(7.85866e-19 8.81146e-17 2.30716)
(-9.09045e-19 -6.05747e-17 2.56709)
(1.98659e-18 -1.7586e-18 2.90121)
(4.03418e-18 6.71115e-17 3.33209)
(3.17789e-18 2.37052e-17 3.81255)
(-2.37319e-17 -4.93964e-16 4.30956)
(4.84559e-18 6.09858e-17 4.73287)
(8.59138e-18 3.71087e-17 5.20528)
(1.36096e-17 3.10093e-16 5.76812)
(1.57988e-17 1.2274e-16 6.65287)
(-3.96978e-18 1.60346e-18 8.0748)
(-2.75559e-17 -3.02541e-17 10.2855)
(1.76293e-17 7.91633e-17 13.4718)
(-1.05578e-16 -9.07623e-16 17.8441)
(1.54213e-17 3.49827e-18 23.6359)
(1.37556e-16 3.46791e-16 30.656)
(4.29919e-19 4.97896e-16 40.7636)
(7.7938e-18 4.63881e-17 42.467)
(-3.81885e-17 -3.97378e-16 45.1774)
(-1.03687e-16 -5.26962e-16 46.7291)
(-1.00325e-17 -3.06087e-17 47.173)
(-1.95335e-17 -3.63062e-17 46.219)
(-2.35599e-17 -1.90415e-16 43.4499)
(-8.7776e-18 -5.18694e-17 38.8058)
(-2.92392e-18 -2.30525e-18 33.5674)
(-2.73935e-20 -6.33782e-19 29.8778)
(-1.67676e-18 -1.01584e-20 27.6972)
(1.6006e-18 -6.74084e-19 26.3282)
(1.40838e-19 -2.43248e-20 25.3422)
(-1.27248e-21 -6.00638e-17 24.5961)
(6.37297e-19 5.82175e-17 24.0172)
(-6.31501e-20 3.04034e-17 23.5576)
(-6.67902e-19 -3.00087e-17 23.1874)
(-3.35413e-20 2.87613e-17 22.8878)
(-1.48362e-19 -5.94303e-17 22.6455)
(1.25425e-19 2.82231e-17 22.4506)
(1.28721e-19 1.42222e-19 22.296)
(-1.18112e-19 -7.39194e-19 22.1766)
(-2.07115e-21 7.13884e-19 22.0895)
(7.14188e-20 -2.96403e-17 22.033)
(-7.84084e-20 2.80301e-17 22.0076)
(2.74833e-19 -2.85745e-17 22.0171)
(-2.77594e-19 2.78291e-17 22.068)
(2.43526e-19 -1.48582e-17 22.173)
(-2.48497e-19 1.3474e-17 22.3525)
(2.22508e-20 -7.9115e-19 22.6394)
(-2.4283e-20 -6.7472e-19 23.0868)
(-3.53062e-19 -7.84807e-21 23.7785)
(4.15267e-19 -6.59652e-19 24.8503)
(-4.71457e-20 -9.17508e-19 26.5375)
(5.8597e-19 -5.86645e-18 29.3274)
(-5.05166e-19 6.46263e-18 34.4148)
(-4.74567e-21 -4.61056e-19 42.3753)
(5.27259e-20 -8.4181e-20 39.7906)
(-9.81071e-20 -3.23668e-19 -1.97429)
(7.50639e-21 -1.12127e-19 12.4272)
(-7.19189e-20 -9.09471e-19 15.4617)
(1.16486e-18 1.95739e-18 15.8581)
(-2.19336e-18 -6.50317e-18 15.5146)
(8.53782e-19 -2.01979e-18 14.9106)
(7.87288e-20 4.08545e-18 14.2716)
(-1.60489e-19 -1.69215e-18 13.6807)
(-3.26674e-20 -1.22829e-18 13.1515)
(1.88142e-19 -1.22454e-18 12.6801)
(-7.29033e-19 -1.89182e-18 12.26)
(1.1177e-18 -1.65739e-17 11.8844)
(-9.34979e-19 1.54308e-17 11.5463)
(2.04182e-18 -1.55184e-17 11.2394)
(-8.10414e-19 2.94303e-17 10.9581)
(1.61039e-19 -3.28667e-17 10.6973)
(-8.68519e-19 1.31364e-17 10.4525)
(4.9377e-19 -1.6007e-17 10.22)
(1.6684e-18 -2.15945e-17 9.99618)
(-1.02933e-18 2.9477e-17 9.77786)
(-3.1229e-19 1.59455e-18 9.56201)
(1.31305e-20 -3.59245e-17 9.34566)
(-1.01216e-18 3.06659e-17 9.12582)
(2.37815e-18 3.65571e-17 8.89936)
(1.57886e-18 -3.08267e-17 8.66287)
(-2.06123e-18 9.72821e-20 8.4125)
(-3.87748e-18 -3.63945e-17 8.14373)
(3.90042e-18 -8.05169e-18 7.8511)
(-4.56289e-19 7.4823e-17 7.5277)
(1.98908e-18 1.27989e-17 7.16187)
(-2.48157e-18 -3.44071e-17 6.69891)
(3.14489e-18 -3.01351e-17 6.03956)
(-1.18755e-17 -1.03171e-16 5.33679)
(-8.52569e-18 -2.54463e-16 4.71351)
(-4.47783e-17 -2.07807e-16 4.20183)
(-1.13094e-16 -3.11944e-16 3.7898)
(1.39607e-17 -5.31258e-17 3.49901)
(8.03302e-17 2.12172e-16 3.37935)
(-1.29652e-17 2.64583e-17 3.39424)
(-1.32188e-16 -1.35754e-16 3.56539)
(-1.00607e-16 -1.15607e-16 3.96183)
(-2.40849e-16 -3.59443e-16 4.50353)
(-3.93008e-17 9.02419e-18 5.13481)
(-5.13327e-16 -6.22201e-16 5.83611)
(2.64669e-16 2.22553e-16 6.58709)
(-3.14532e-16 -2.30582e-16 7.35508)
(2.47132e-16 8.23583e-17 8.11269)
(7.33115e-18 5.82791e-17 8.89554)
(1.47335e-17 4.56117e-17 9.70193)
(2.83168e-16 2.66041e-16 10.6012)
(-3.02977e-16 -8.34966e-17 11.5092)
(3.31012e-17 -6.85762e-17 12.4627)
(2.80972e-16 8.84159e-17 13.5294)
(-9.77118e-17 -3.91856e-17 14.9802)
(2.27991e-16 9.81202e-17 16.854)
(1.4491e-17 2.57195e-17 19.117)
(6.4902e-17 4.51478e-17 21.5837)
(-2.64647e-17 -9.67302e-18 24.1917)
(-4.23569e-19 -7.08119e-18 26.1226)
(-2.96244e-18 1.41871e-17 26.5393)
(-1.34254e-17 1.06617e-16 25.3109)
(-3.40116e-17 2.66926e-16 22.6549)
(-7.0327e-17 2.59068e-16 19.3207)
(-4.59929e-17 3.7804e-16 16.379)
(-3.65071e-18 -5.23807e-17 13.5578)
(7.60215e-18 3.9197e-17 11.3569)
(2.85928e-19 -2.36352e-18 9.64887)
(-8.4833e-18 5.8029e-17 8.31503)
(-8.04576e-17 8.70532e-16 7.2995)
(-7.88975e-18 -4.26066e-16 6.51555)
(-8.14306e-19 7.31904e-18 5.89535)
(-1.52601e-17 5.33405e-16 5.38113)
(-5.43597e-17 3.94531e-16 4.94206)
(-3.8413e-17 4.89062e-16 4.55552)
(2.52365e-17 -9.97919e-17 4.20597)
(3.13782e-18 -5.32579e-17 3.88329)
(-2.6e-17 -3.49445e-16 3.58416)
(-2.89747e-17 4.33508e-16 3.29764)
(9.99125e-20 1.78643e-17 3.03455)
(7.0382e-18 3.06209e-16 2.78731)
(-6.2195e-18 -3.3324e-16 2.55765)
(1.07195e-17 9.36068e-18 2.33031)
(5.03994e-20 -3.3558e-20 2.13189)
(-7.58734e-18 -3.34256e-18 1.92878)
(1.0086e-17 -2.61206e-16 1.73802)
(-3.43803e-19 1.48416e-17 1.51641)
(7.73669e-19 -1.46828e-17 1.25986)
(-3.69879e-19 1.54602e-17 0.934156)
(-9.0927e-19 -2.02482e-17 0.551131)
(8.60528e-19 2.52852e-16 0.192319)
(-1.29177e-18 -9.85693e-18 -0.0637682)
(-1.25422e-17 -6.82442e-18 -0.147622)
(4.87735e-18 2.94463e-16 -0.0634041)
(6.06425e-18 -3.10595e-16 0.114862)
(3.46218e-18 3.31577e-16 0.366531)
(-5.13495e-17 -3.72644e-16 0.660642)
(-3.24274e-17 2.34828e-16 1.01571)
(4.40691e-18 3.96512e-16 1.37819)
(-5.17907e-17 -3.46275e-16 1.74592)
(-3.96457e-17 -4.08429e-16 2.13527)
(6.9534e-19 -6.45239e-17 2.58996)
(2.54076e-17 3.14869e-16 3.15665)
(-1.43652e-16 -4.02181e-16 3.86384)
(2.75276e-17 3.19957e-18 4.72322)
(-3.72741e-17 -1.20104e-16 5.72325)
(-2.47378e-18 -7.66495e-17 6.84675)
(3.28944e-16 4.60994e-16 8.07159)
(4.01634e-16 5.63108e-16 9.29979)
(2.20978e-16 2.34267e-16 10.5339)
(1.79006e-16 1.20246e-16 11.8479)
(2.31391e-16 3.10268e-16 13.1645)
(-4.03095e-16 -2.30736e-16 14.4118)
(1.00348e-17 -2.51282e-17 15.99)
(-2.30713e-16 -1.51353e-16 17.9163)
(4.31325e-18 -1.47432e-17 20.0721)
(-5.80568e-17 -4.94115e-17 22.3294)
(-4.39648e-18 -8.29651e-18 24.322)
(-1.10574e-18 -9.15476e-18 25.3289)
(1.0734e-18 -6.09859e-18 24.9045)
(-1.34587e-18 4.82098e-18 22.967)
(3.58079e-19 1.28452e-17 20.0477)
(-5.74138e-17 3.51113e-16 17.0091)
(1.59558e-17 -1.79303e-17 14.1472)
(5.71069e-18 -5.73393e-17 11.8712)
(6.87926e-17 -3.97309e-16 10.0411)
(-9.14303e-17 5.2962e-16 8.64979)
(8.37345e-18 3.58434e-16 7.60204)
(-7.80955e-17 8.69875e-16 6.79328)
(-7.05169e-17 8.06966e-16 6.15511)
(-2.197e-17 3.26478e-16 5.63845)
(-6.58424e-18 5.63308e-17 5.20228)
(-3.21434e-19 2.85325e-16 4.81855)
(5.28368e-17 -8.13958e-16 4.47011)
(2.42291e-17 1.44983e-16 4.14495)
(-2.25213e-17 2.6273e-16 3.83995)
(-6.5572e-18 -1.35495e-17 3.5515)
(-1.06017e-18 -7.78669e-21 3.27621)
(3.50648e-17 -6.30157e-17 3.01576)
(2.34964e-18 -9.01784e-17 2.76096)
(1.40817e-18 -2.08184e-16 2.52696)
(2.30101e-18 -5.79858e-17 2.30591)
(9.98776e-19 7.69567e-18 2.08178)
(6.09331e-18 1.04037e-16 1.87548)
(6.65054e-18 -1.2094e-16 1.65163)
(-9.00811e-18 1.8022e-16 1.41339)
(-2.28751e-18 -4.27055e-18 1.11871)
(4.215e-19 5.65419e-17 0.747075)
(-1.47566e-18 -6.06567e-17 0.374786)
(1.65319e-18 1.2119e-16 0.0776322)
(-9.63243e-18 -2.42059e-18 -0.0477089)
(3.53137e-18 2.20631e-18 0.0117089)
(1.44304e-17 1.06528e-17 0.181088)
(-1.76794e-17 -5.18599e-17 0.442583)
(2.38599e-17 7.37516e-16 0.771726)
(-9.86362e-18 1.84401e-16 1.14789)
(4.53984e-18 1.05274e-16 1.58002)
(-2.26784e-17 -6.41429e-17 2.07488)
(-3.87728e-17 -4.98126e-16 2.67489)
(3.47721e-17 9.609e-17 3.4622)
(1.22056e-16 4.58139e-16 4.5321)
(1.4176e-17 7.97938e-17 6.03248)
(-1.17617e-16 -3.06667e-16 8.10311)
(1.80093e-17 1.33701e-17 9.64445)
(1.7091e-17 2.84995e-17 8.85362)
(-1.18226e-16 -1.51579e-16 9.66411)
(1.37476e-16 1.51092e-16 10.9835)
(4.32593e-18 1.89345e-17 12.5123)
(-2.83782e-18 -3.85988e-18 14.0152)
(2.51672e-17 4.87198e-17 15.2861)
(1.12025e-17 2.66959e-17 16.1094)
(-7.1671e-18 -1.79776e-17 16.2136)
(-2.26206e-18 8.96788e-21 15.7542)
(-2.16499e-18 -3.24289e-17 15.15)
(1.60913e-18 2.96897e-17 14.5904)
(3.67954e-20 1.97653e-18 14.1123)
(5.94767e-19 3.51704e-17 13.7159)
(-7.82077e-19 1.3332e-18 13.3867)
(2.61159e-19 -1.78545e-17 13.1102)
(7.59739e-20 -1.62522e-17 12.8763)
(-1.40538e-19 -1.78103e-17 12.6779)
(2.26229e-19 1.76235e-17 12.5101)
(-1.57517e-19 -8.68608e-20 12.3688)
(6.19528e-20 1.83032e-17 12.251)
(-3.90751e-20 -1.82666e-17 12.1545)
(-7.64506e-21 -8.58027e-19 12.0779)
(2.43791e-20 -1.63517e-17 12.0207)
(-2.83632e-20 1.9585e-17 11.9834)
(1.01913e-19 -1.77069e-17 11.9685)
(-2.99854e-19 1.94078e-17 11.981)
(3.01067e-19 -7.0628e-18 12.0297)
(-1.12181e-19 9.44309e-18 12.129)
(-6.4026e-20 -2.3929e-19 12.3021)
(-2.03575e-20 1.81761e-18 12.5853)
(-4.24606e-19 7.13324e-18 13.0353)
(3.14262e-19 -7.73743e-18 13.7396)
(-1.3542e-19 1.54578e-18 14.8299)
(-4.52831e-19 3.14369e-19 16.4486)
(7.98022e-19 -7.20798e-19 18.2793)
(2.32119e-19 4.2118e-19 16.6366)
(-6.06737e-19 -1.06469e-19 -2.63041)
(-3.08132e-19 3.88862e-19 -8.56207)
(-1.9197e-18 1.9511e-19 1.55315)
(9.97846e-19 -7.54422e-19 5.17681)
(-1.48925e-19 3.09959e-19 6.61641)
(1.74543e-19 -5.14443e-19 7.20578)
(1.83422e-18 1.97418e-18 7.39155)
(-2.3495e-18 -1.41633e-18 7.38523)
(6.02375e-19 4.98349e-19 7.28724)
(2.58799e-19 1.00107e-18 7.14332)
(4.35758e-19 2.61204e-18 6.97766)
(2.42628e-19 1.36284e-18 6.80467)
(1.17667e-18 3.86121e-18 6.63277)
(-1.48803e-18 -1.04345e-17 6.46646)
(2.34005e-18 2.04989e-17 6.30777)
(-2.07902e-18 -7.23835e-18 6.15719)
(2.31165e-18 1.17686e-17 6.01435)
(-1.25793e-18 -5.91249e-18 5.87834)
(3.24202e-19 1.8187e-18 5.748)
(4.62942e-18 2.60489e-17 5.62204)
(-4.53811e-18 -1.91622e-17 5.4991)
(3.65546e-19 -6.96873e-20 5.37778)
(3.79429e-18 6.61593e-18 5.25661)
(-5.16729e-18 -2.69266e-17 5.13412)
(-3.62247e-19 2.23652e-17 5.00874)
(3.28999e-18 3.06285e-17 4.87881)
(-4.57274e-18 -1.63214e-17 4.7425)
(4.00539e-18 -3.27953e-17 4.59778)
(2.4791e-18 2.3376e-17 4.44225)
(-3.49124e-18 2.5814e-18 4.27302)
(-3.80071e-18 -4.66031e-20 4.08588)
(7.64429e-18 1.85686e-19 3.85644)
(-3.43053e-19 -1.84002e-17 3.52943)
(2.87562e-17 1.17771e-16 3.13489)
(5.89355e-17 2.37575e-16 2.73128)
(-3.71062e-17 -1.50305e-16 2.34748)
(4.83054e-17 3.7655e-17 1.99475)
(-1.06813e-16 -2.38699e-16 1.68134)
(1.7532e-17 -4.09906e-17 1.48046)
(1.44257e-16 2.05169e-16 1.36837)
(-2.81701e-17 -5.63764e-17 1.32858)
(3.8692e-16 4.19486e-16 1.39283)
(9.38601e-18 1.46078e-16 1.53559)
(-1.66431e-16 -7.34988e-17 1.74084)
(-1.35949e-16 -1.10408e-16 2.01189)
(1.2779e-17 -8.37015e-17 2.34789)
(2.28492e-16 2.69711e-16 2.75239)
(-5.73378e-16 -2.93083e-16 3.18054)
(-1.73925e-16 -1.26525e-16 3.60762)
(-4.53975e-17 -1.68468e-17 3.96337)
(-3.4842e-17 -5.21989e-17 4.34177)
(1.79366e-16 1.58831e-16 4.79223)
(-7.46559e-17 -7.46755e-18 5.2536)
(-7.84126e-17 -9.07297e-17 5.71179)
(1.60411e-17 -1.9629e-17 6.23775)
(1.83644e-16 -2.31104e-17 7.02619)
(-7.26285e-17 5.81635e-17 8.08054)
(-8.92437e-17 1.08813e-17 9.42004)
(3.80008e-17 -2.93473e-17 11.0398)
(5.08432e-18 5.37641e-18 13.0917)
(2.27534e-19 5.37948e-19 14.9834)
(-8.82102e-18 9.49328e-18 16.3322)
(1.27215e-17 -1.34826e-17 16.7503)
(1.53786e-18 -9.42823e-17 16.1877)
(1.10872e-16 -2.06115e-16 14.705)
(-7.98099e-17 2.2828e-16 12.8919)
(1.04921e-16 -3.1413e-16 11.2061)
(-1.91828e-17 3.11125e-17 9.6729)
(2.65096e-18 -4.70871e-17 8.36698)
(1.59911e-16 -7.86727e-16 7.32436)
(-1.29643e-16 8.76055e-16 6.50664)
(1.98723e-17 -9.20185e-17 5.86711)
(6.51089e-17 -4.11339e-16 5.3523)
(1.58103e-17 -1.66213e-17 4.92381)
(-6.00821e-18 2.70661e-16 4.55236)
(4.04677e-17 -4.82178e-16 4.21715)
(4.40881e-18 -2.32869e-16 3.90378)
(-7.76511e-17 8.01469e-16 3.60707)
(2.06688e-17 -9.21151e-17 3.31061)
(1.90388e-17 -7.42597e-17 3.02388)
(5.15996e-17 -5.99745e-16 2.74092)
(-4.88532e-17 6.62771e-16 2.46318)
(-1.12282e-17 -1.60022e-17 2.1673)
(9.72821e-18 -7.08553e-18 1.87911)
(3.92536e-19 -6.38085e-19 1.55988)
(-1.67798e-17 2.57165e-16 1.22467)
(3.50902e-19 -7.83598e-18 0.836612)
(1.03677e-18 -5.60196e-17 0.413133)
(3.81088e-20 8.42398e-20 -0.0188105)
(7.10707e-19 -3.71535e-17 -0.385409)
(-7.88088e-18 -2.3738e-16 -0.593788)
(-1.32934e-18 -1.13993e-18 -0.613238)
(-1.81369e-17 -5.17831e-16 -0.438651)
(-1.52281e-17 -3.36012e-16 -0.0974713)
(3.77636e-17 5.93345e-16 0.309)
(-1.58879e-17 5.31142e-17 0.74788)
(8.86667e-18 -2.72944e-16 1.10895)
(-4.37931e-17 -6.73881e-16 1.37998)
(-4.35649e-17 -4.1735e-16 1.50946)
(4.22445e-17 -1.13973e-17 1.52466)
(3.14357e-17 3.09111e-16 1.47035)
(-2.39043e-19 6.21554e-17 1.40823)
(-1.06046e-16 -3.66985e-16 1.40062)
(3.0179e-17 -2.88042e-17 1.49181)
(1.0764e-16 2.81687e-16 1.7026)
(-1.47645e-16 -2.60023e-16 2.03066)
(2.08186e-18 3.12495e-17 2.46145)
(-4.50481e-16 -4.89178e-16 2.97901)
(-3.01268e-16 -3.72928e-16 3.57446)
(-5.45006e-17 -9.47466e-17 4.22594)
(-2.51305e-16 -1.87348e-16 4.90445)
(-3.78706e-17 -8.4868e-17 5.56453)
(2.72516e-16 1.31854e-16 6.2325)
(1.33362e-18 4.45519e-17 6.98659)
(-1.21905e-16 2.59942e-17 7.91645)
(1.31863e-17 -1.72235e-17 9.07157)
(1.16693e-17 3.17548e-18 10.3953)
(1.43133e-18 -1.55285e-18 12.0124)
(4.10653e-18 8.00164e-18 13.6321)
(3.69557e-20 1.50676e-18 15.0586)
(2.09294e-18 -3.08687e-18 15.8011)
(-4.66045e-18 8.67122e-18 15.5387)
(1.80938e-17 -1.57835e-17 14.3206)
(1.23291e-17 -8.6752e-18 12.6691)
(-2.22647e-18 -1.69232e-17 11.1414)
(5.9661e-17 -2.70885e-16 9.61721)
(-5.50173e-17 3.09338e-16 8.33594)
(1.43328e-16 -8.20709e-16 7.31782)
(1.03421e-16 -4.09107e-16 6.52377)
(5.00877e-17 -1.25177e-16 5.90326)
(6.78567e-17 -3.50181e-16 5.4109)
(1.03972e-17 2.49882e-17 5.00553)
(4.21169e-17 -4.04477e-16 4.65458)
(-1.14196e-17 7.72449e-19 4.33626)
(7.4551e-18 -8.96956e-18 4.03337)
(2.85992e-18 -6.99322e-17 3.73855)
(-2.40198e-17 8.18298e-17 3.44808)
(2.89086e-17 -3.66908e-16 3.15739)
(4.40056e-17 -6.00998e-16 2.86948)
(-5.95177e-19 6.26828e-17 2.56796)
(-1.06118e-17 3.07476e-16 2.26668)
(-1.15786e-17 3.04514e-16 1.96295)
(1.36015e-17 -9.5282e-17 1.62974)
(9.79937e-18 -1.89672e-16 1.28692)
(2.02533e-18 -1.04059e-16 0.901915)
(1.43556e-19 1.13744e-16 0.487779)
(-1.74579e-18 2.45574e-17 0.0609543)
(2.21822e-20 1.26792e-18 -0.320204)
(-6.09721e-19 -1.69908e-16 -0.556035)
(-5.48963e-18 -1.16317e-16 -0.590246)
(-1.21874e-17 -3.33764e-16 -0.464037)
(1.38688e-17 1.3823e-16 -0.129771)
(-3.23669e-18 -5.62044e-17 0.26676)
(-1.12818e-17 -2.7735e-16 0.705688)
(-6.22913e-17 -6.74245e-16 1.09184)
(-4.67611e-17 -4.0122e-16 1.3812)
(6.63178e-18 7.62421e-18 1.55578)
(-2.92065e-17 -3.76975e-16 1.63489)
(1.6157e-16 9.33357e-16 1.68217)
(7.32022e-18 8.9686e-17 1.78964)
(-5.49862e-18 -2.50168e-17 2.05167)
(1.06924e-16 2.3095e-16 2.57842)
(3.83948e-17 6.1591e-17 3.27107)
(-3.61997e-18 -1.52548e-17 3.85554)
(7.17225e-17 4.96611e-17 3.85555)
(1.82976e-16 1.72998e-16 4.11385)
(-2.6127e-18 1.86124e-17 4.69383)
(4.4268e-18 6.86346e-18 5.41415)
(-3.43575e-17 -1.96724e-17 6.15851)
(1.81774e-17 1.50496e-17 6.87366)
(-3.00555e-18 6.87751e-18 7.50868)
(-2.82532e-18 2.86278e-18 7.95623)
(-6.62728e-18 -1.28119e-17 8.13533)
(1.38138e-18 -9.31637e-19 8.10276)
(-3.14317e-18 -7.66741e-19 7.97992)
(1.30749e-18 -1.01128e-18 7.83317)
(-1.62824e-18 -2.1326e-17 7.68996)
(-8.07751e-19 -3.68701e-18 7.55687)
(2.23818e-18 2.29848e-17 7.43473)
(9.83907e-21 -3.93308e-19 7.32378)
(6.10049e-19 1.20938e-17 7.22426)
(-3.44314e-19 -1.19478e-17 7.13638)
(-2.27565e-19 7.16382e-19 7.06024)
(1.9227e-20 5.48088e-21 6.99584)
(5.57117e-21 9.47792e-19 6.94326)
(5.12692e-21 1.27024e-18 6.90271)
(-1.90084e-20 -1.30698e-17 6.87487)
(2.02874e-20 1.10779e-17 6.86118)
(2.06106e-20 -1.16609e-17 6.86448)
(-2.42288e-19 2.24886e-17 6.89022)
(3.00731e-19 -1.8471e-17 6.94601)
(-1.81121e-20 6.05754e-18 7.04399)
(-5.98085e-20 1.84227e-18 7.20252)
(8.67736e-20 -8.89818e-19 7.44683)
(3.59732e-19 1.5554e-19 7.80926)
(-4.27688e-19 1.40058e-18 8.32669)
(2.84006e-20 -7.20625e-19 9.01715)
(4.64349e-20 1.51681e-19 9.74369)
(-5.77456e-19 4.39427e-20 9.54739)
(1.36488e-18 -1.9156e-19 4.44019)
(1.88983e-18 7.17146e-19 -12.2739)
(-9.95368e-19 4.48091e-19 -7.84096)
(3.91444e-20 -3.26518e-19 -1.56766)
(-5.29288e-19 2.68368e-19 1.21424)
(-1.06622e-18 2.38752e-19 2.58653)
(5.92491e-19 -1.09951e-18 3.35413)
(1.89853e-18 1.01751e-18 3.79946)
(-1.38813e-18 -1.41979e-20 4.05766)
(4.95533e-19 -2.04769e-19 4.19837)
(-1.28732e-19 3.99392e-19 4.26213)
(-1.77014e-18 -1.36618e-18 4.27521)
(7.27117e-19 -1.76318e-19 4.25568)
(-3.32443e-19 -7.23928e-19 4.21583)
(-2.34887e-20 1.70908e-19 4.16377)
(-1.37481e-18 -1.93716e-18 4.10464)
(4.78026e-19 -1.7097e-19 4.04156)
(-8.82488e-19 1.73881e-19 3.97633)
(-2.0672e-20 -1.25221e-18 3.90986)
(-6.39838e-19 -1.27401e-17 3.8425)
(-1.37928e-18 2.48129e-17 3.7742)
(1.01662e-18 -1.38975e-17 3.70467)
(1.90928e-18 -3.2775e-18 3.63344)
(-4.90818e-19 1.77884e-17 3.55991)
(-2.50968e-19 -1.64903e-17 3.48336)
(-2.09691e-18 -4.11055e-18 3.40302)
(-2.77628e-18 2.3e-18 3.31802)
(-8.10079e-19 -2.5079e-17 3.22741)
(3.36128e-18 1.92177e-17 3.13011)
(-2.79885e-18 -8.13244e-19 3.0249)
(3.04634e-18 2.8629e-17 2.91025)
(-1.2714e-18 -2.58463e-17 2.78283)
(5.05536e-18 3.27694e-17 2.62728)
(-7.95898e-18 -3.60751e-17 2.42436)
(-3.59372e-17 -1.01511e-16 2.16389)
(-2.66858e-17 -5.86193e-17 1.86272)
(4.86599e-17 3.61784e-17 1.54067)
(-2.23239e-17 -1.13366e-17 1.22357)
(-1.37772e-17 -7.60621e-17 0.929396)
(7.92051e-18 -2.65636e-17 0.721776)
(-1.62972e-17 -1.742e-17 0.577176)
(-2.66987e-17 -1.93368e-17 0.481943)
(-1.77517e-17 -5.1921e-17 0.457494)
(-2.48518e-17 -9.86556e-17 0.496229)
(4.97171e-16 3.46817e-16 0.596238)
(1.81837e-16 2.16233e-16 0.760807)
(4.74455e-17 5.97503e-17 0.986922)
(1.27985e-18 8.2072e-18 1.2617)
(8.10453e-17 1.59706e-17 1.57651)
(6.08714e-16 2.77464e-16 1.88723)
(2.55044e-16 1.96793e-16 2.15959)
(3.16354e-17 -2.5645e-17 2.33576)
(5.10312e-16 1.35398e-16 2.49714)
(-2.56262e-18 1.0491e-16 2.67555)
(-2.73621e-16 -3.79854e-17 2.84908)
(-9.21833e-19 -3.37344e-17 3.06817)
(-4.10826e-17 -5.03709e-17 3.38594)
(1.21041e-16 -2.13661e-17 3.85494)
(5.836e-17 5.13185e-18 4.54346)
(-6.52068e-17 3.93252e-17 5.39967)
(1.22562e-17 -1.58994e-17 6.57013)
(-3.30974e-18 7.26275e-19 7.97653)
(3.39855e-18 1.92907e-17 9.43419)
(4.93323e-18 -8.61799e-18 10.7644)
(8.88618e-17 -1.27722e-16 11.3733)
(-1.14418e-16 1.94152e-16 11.3506)
(1.94385e-16 -4.009e-16 10.7867)
(1.18457e-18 7.20873e-17 9.71699)
(-1.19346e-16 3.07296e-16 8.64393)
(-1.43914e-17 5.05804e-17 7.59034)
(-1.35622e-16 4.06426e-16 6.66813)
(1.44305e-16 -5.74462e-16 5.89292)
(5.69445e-17 -2.70523e-16 5.26762)
(-2.16882e-17 1.6464e-17 4.76864)
(6.53658e-17 -4.25771e-16 4.36241)
(6.22144e-17 -3.38201e-16 4.01849)
(-3.50743e-17 6.89436e-17 3.71214)
(-1.09641e-16 7.11455e-16 3.42405)
(9.05309e-17 -4.96192e-16 3.14509)
(-8.46405e-18 5.15005e-17 2.85578)
(3.07958e-17 -2.93914e-16 2.56105)
(-5.98934e-17 3.51334e-16 2.25605)
(6.76863e-17 -3.4585e-16 1.94135)
(-2.08401e-17 2.7925e-16 1.59651)
(1.74838e-17 -2.76121e-16 1.24263)
(-8.16235e-18 1.55479e-17 0.854119)
(6.94781e-18 -1.04208e-17 0.448851)
(1.65165e-19 -6.24993e-18 0.0216539)
(-2.95928e-18 7.04712e-17 -0.384035)
(1.15503e-19 -1.67064e-18 -0.706995)
(1.58254e-18 6.84904e-17 -0.867912)
(8.02805e-18 1.21817e-16 -0.83105)
(-3.64478e-18 -4.0426e-17 -0.595392)
(3.38811e-17 2.99011e-16 -0.151301)
(8.992e-18 2.85689e-16 0.336347)
(-3.32812e-17 -2.99633e-16 0.842954)
(-1.25919e-17 -5.30013e-17 1.27865)
(3.543e-17 2.95153e-16 1.58423)
(4.16866e-17 3.68097e-16 1.7154)
(2.18316e-17 3.94308e-17 1.67555)
(-1.95214e-18 3.19131e-16 1.49615)
(-1.01552e-16 -5.95989e-16 1.23995)
(3.96701e-19 -5.57057e-17 0.980467)
(2.60087e-17 2.80855e-17 0.781215)
(-2.90929e-20 3.10776e-17 0.680205)
(-1.54787e-16 -2.93843e-16 0.688589)
(1.85224e-17 -1.74347e-17 0.797409)
(5.18808e-18 1.82851e-18 0.989864)
(6.34926e-17 1.18437e-16 1.24812)
(-1.49597e-16 -6.68608e-17 1.55732)
(-2.18558e-16 -1.76228e-16 1.90535)
(7.41993e-18 -2.17053e-17 2.28299)
(0 -0 2.64253)
(-1.11335e-17 -7.67277e-18 2.99966)
(-1.86937e-17 -2.0393e-17 3.40696)
(1.10852e-16 8.32364e-18 3.89565)
(5.64401e-17 -8.49894e-18 4.4868)
(3.45109e-18 6.44789e-18 5.21326)
(1.0984e-18 -1.47259e-18 6.13885)
(-2.05967e-18 4.89667e-19 7.26984)
(-3.12585e-19 8.16282e-20 8.48916)
(-2.58829e-19 1.04438e-19 9.67937)
(5.14321e-18 -2.33441e-18 10.3924)
(-3.61046e-18 -5.11459e-18 10.4545)
(8.43798e-17 -1.45805e-16 10.0882)
(4.43724e-18 2.1365e-17 9.20509)
(-1.13798e-16 3.01936e-16 8.15958)
(1.16646e-16 -3.69289e-16 7.18133)
(-1.32132e-16 4.38918e-16 6.32048)
(-2.45919e-17 -2.50717e-17 5.60512)
(8.83013e-17 -3.66062e-16 5.03253)
(-6.1738e-17 3.41305e-16 4.57811)
(4.62084e-17 -2.44352e-16 4.21235)
(-7.5417e-17 3.70806e-16 3.90394)
(1.53179e-17 -4.70668e-17 3.62701)
(-1.01399e-17 -2.30395e-17 3.36025)
(-1.11313e-18 2.91703e-17 3.09065)
(-2.62278e-17 2.28779e-16 2.81276)
(-2.99633e-17 1.24124e-16 2.52058)
(-6.80824e-17 3.37171e-16 2.21621)
(-2.62626e-17 4.41828e-17 1.88462)
(5.13016e-17 -3.81915e-16 1.53658)
(4.57163e-17 -5.18426e-16 1.17487)
(1.75492e-17 -2.72219e-16 0.783877)
(-6.10899e-18 7.55538e-17 0.383146)
(-5.74095e-18 5.32248e-17 -0.0297813)
(3.08654e-18 -5.80911e-17 -0.418085)
(5.48069e-20 2.83234e-17 -0.726982)
(-1.30805e-18 -2.78096e-18 -0.881932)
(7.29918e-18 2.33011e-16 -0.835788)
(2.42714e-18 -5.36603e-18 -0.602614)
(2.71346e-17 3.28148e-16 -0.160382)
(2.38366e-18 2.10977e-16 0.329071)
(1.62119e-18 -2.00047e-18 0.848045)
(3.50663e-17 2.33128e-16 1.28995)
(6.08329e-17 4.56095e-16 1.59053)
(1.38606e-17 -1.935e-16 1.71891)
(1.93403e-17 1.77699e-16 1.67719)
(7.75228e-17 4.61967e-16 1.51079)
(-1.21399e-16 -3.95112e-16 1.30112)
(-7.52238e-17 -3.47284e-16 1.14199)
(1.1842e-16 2.86036e-16 1.11112)
(-1.78697e-16 -3.25755e-16 1.26847)
(1.13773e-16 1.24327e-16 1.55264)
(5.81146e-17 9.32224e-17 1.63308)
(-1.86118e-16 -1.58618e-16 1.8053)
(-2.60188e-17 -4.5231e-17 1.96957)
(8.69707e-17 4.1509e-17 2.30136)
(1.95316e-17 1.35925e-17 2.69896)
(4.49218e-17 2.35086e-17 3.09911)
(-3.73588e-17 -6.9211e-18 3.5065)
(1.02989e-17 2.58894e-18 3.90743)
(-9.17123e-18 -3.28436e-18 4.27167)
(3.38532e-18 -1.74504e-18 4.54551)
(-1.66564e-18 5.76564e-19 4.69197)
(-3.52636e-18 -1.17144e-17 4.76073)
(3.79227e-18 1.04122e-17 4.78836)
(3.99329e-18 1.5593e-17 4.79372)
(-1.49943e-18 -1.12329e-17 4.78513)
(-1.05315e-18 7.18419e-18 4.76739)
(-7.63471e-19 -7.29334e-18 4.74433)
(-5.61883e-22 -5.13311e-19 4.71918)
(5.76749e-19 9.76559e-18 4.69464)
(-5.44608e-19 -8.20333e-18 4.67284)
(4.14005e-19 9.32764e-18 4.65549)
(-1.90737e-19 -8.37898e-18 4.64404)
(-8.71838e-20 -1.39408e-18 4.6399)
(-3.3198e-20 8.85332e-19 4.64475)
(1.37444e-20 -1.08769e-21 4.66101)
(-2.5892e-19 1.56179e-20 4.69264)
(4.57871e-19 8.46534e-19 4.74497)
(-4.14395e-19 -2.14721e-20 4.8264)
(5.68797e-20 -8.29242e-20 4.94834)
(3.00863e-19 -1.83112e-18 5.12402)
(-4.14982e-19 7.86002e-20 5.36406)
(3.99672e-19 -3.50885e-19 5.66755)
(1.84384e-18 -1.76817e-18 6.00448)
(-1.1607e-18 1.184e-18 6.27118)
(2.83208e-19 -1.84802e-19 6.1305)
(-1.67897e-19 3.35084e-20 4.51008)
(-4.47314e-19 2.34727e-19 -0.738959)
(-1.59559e-18 -3.81914e-19 -12.0406)
(1.27133e-18 1.51927e-19 -6.63564)
(-1.5342e-18 8.14367e-19 -2.43875)
(-2.20109e-18 -3.94955e-19 -0.305275)
(3.49113e-18 -3.14386e-19 0.846144)
(-5.98257e-18 1.61053e-18 1.56794)
(1.67638e-18 -1.73602e-18 2.05699)
(5.04778e-19 7.03761e-19 2.39186)
(-1.06595e-18 -2.78036e-19 2.6193)
(-4.14371e-20 7.28514e-19 2.77001)
(-2.95686e-18 -2.7719e-18 2.86595)
(3.07316e-18 1.06702e-18 2.92315)
(-9.58217e-19 4.90291e-19 2.95303)
(-2.22541e-18 -4.17821e-18 2.96351)
(2.92044e-18 2.2261e-18 2.95996)
(-6.9655e-19 -2.93029e-19 2.94598)
(-3.98269e-19 -1.3057e-21 2.92395)
(7.80322e-19 -1.58783e-18 2.89542)
(1.62017e-18 6.66299e-18 2.86133)
(-4.24864e-18 -1.83638e-17 2.82227)
(3.72794e-18 7.78883e-18 2.77849)
(2.81998e-18 1.53494e-17 2.73003)
(-4.88142e-18 -1.1701e-17 2.67679)
(2.23439e-18 -2.02358e-18 2.61853)
(6.25552e-19 2.19241e-18 2.5549)
(4.78553e-19 5.89492e-19 2.48549)
(1.86491e-18 4.02536e-19 2.40983)
(-3.73468e-18 -1.86907e-17 2.32737)
(-2.93676e-18 -3.38232e-18 2.23742)
(-7.09788e-18 -6.88426e-18 2.13918)
(8.31716e-18 1.78998e-17 2.02963)
(2.05435e-19 -5.13276e-18 1.89619)
(2.06385e-17 4.53581e-17 1.73231)
(2.36216e-17 3.25572e-17 1.5193)
(1.5445e-17 -2.9769e-18 1.26561)
(7.96099e-17 2.07749e-16 0.990929)
(-1.04859e-16 -1.35128e-16 0.725623)