/*--------------------------------*- C++ -*----------------------------------*\
| =========                 |                                                 |
| \\      /  F ield         | OpenFOAM: The Open Source CFD Toolbox           |
|  \\    /   O peration     | Version:  2506                                  |
|   \\  /    A nd           | Website:  www.openfoam.com                      |
|    \\/     M anipulation  |                                                 |
\*---------------------------------------------------------------------------*/
FoamFile
{
    version     2.0;
    format      ascii;
    arch        "LSB;label=32;scalar=64";
    class       volScalarField;
    location    "4.36833e-05";
    object      s;
}
// * * * * * * * * * * * * * * * * * * * * * * * * * * * * * * * * * * * * * //

dimensions      [0 0 0 0 0 0 0];

internalField   nonuniform List<scalar> 
4000
(
0.00163328
1.61128e-09
-5.13315e-10
-5.9416e-13
-5.72456e-16
-3.99543e-19
3.11842e-20
5.21629e-23
-5.9359e-24
-1.21226e-26
1.31019e-28
4.16908e-31
-1.16086e-32
-2.69546e-35
-9.72386e-37
-3.07456e-39
-5.79207e-42
-8.36081e-45
-1.02106e-47
-1.11012e-50
-1.10725e-53
-1.03277e-56
-9.12542e-60
-7.70715e-63
-6.2613e-66
-4.91435e-69
-3.73707e-72
-2.75717e-75
-1.97556e-78
-1.37398e-81
-9.25768e-85
-6.02016e-88
-3.7564e-91
-2.22771e-94
-1.22036e-97
-6.21495e-101
-3.09325e-104
-1.57143e-107
-8.31657e-111
-4.69472e-114
-2.90044e-117
-1.9705e-120
-1.44892e-123
-1.13683e-126
-9.42116e-130
-8.19127e-133
-7.43988e-136
-7.02548e-139
-6.8696e-142
-6.93777e-145
-7.21153e-148
-7.69455e-151
-8.40872e-154
-9.37751e-157
-1.06633e-159
-1.23131e-162
-1.44229e-165
-1.70949e-168
-2.04111e-171
-2.46078e-174
-2.96775e-177
-3.5891e-180
-4.33333e-183
-5.20389e-186
-6.22104e-189
-7.34571e-192
-8.59595e-195
-9.88689e-198
-1.12014e-200
-1.24372e-203
-1.3508e-206
-1.43535e-209
-1.48358e-212
-1.49213e-215
-1.45721e-218
-1.37712e-221
-1.25843e-224
-1.11043e-227
-9.43392e-231
-7.7074e-234
-6.04785e-237
-4.54939e-240
-3.2765e-243
-2.25619e-246
-1.48284e-249
-9.29913e-253
-5.55825e-256
-3.15874e-259
-1.70865e-262
-8.79317e-266
-4.29322e-269
-1.99404e-272
-8.80344e-276
-3.68816e-279
-1.47371e-282
-5.59672e-286
-2.03612e-289
-7.08212e-293
-2.37659e-296
-7.69098e-300
-2.42902e-303
-7.50482e-307
-2.29276e-310
-6.97525e-314
-2.1705e-317
0
0
0
0
0
0
0
0
0
0
0
0
0
0
0
0
0
0
0
0
0
0
0
0
0
0
0
0
0
0
0
0
0
0
0
0
0
0
0
0
0
0
0
0
0
0
0
0
0
0
0
0
0
0
0
0
0
0
0
0
0
0
0
0
0
0
0
0
0
0
0
0
0
0
0
0
0
0
0
0
0
0
0
0
0
0
0
0
0
0
0
0
0
0
0
0.0016378
1.6253e-09
-5.17848e-10
-6.01263e-13
-5.80953e-16
-4.0673e-19
3.17158e-20
5.32146e-23
-6.05733e-24
-1.24063e-26
1.34014e-28
4.27723e-31
-1.19082e-32
-2.77243e-35
-1.00043e-36
-3.17116e-39
-5.98897e-42
-8.66644e-45
-1.06094e-47
-1.15623e-50
-1.15597e-53
-1.08078e-56
-9.57274e-60
-8.1053e-63
-6.60246e-66
-5.19761e-69
-3.96653e-72
-2.94074e-75
-2.11932e-78
-1.48452e-81
-1.0096e-84
-6.65202e-88
-4.22899e-91
-2.58056e-94
-1.49483e-97
-8.29225e-101
-4.55402e-104
-2.51269e-107
-1.41557e-110
-8.30298e-114
-5.16953e-117
-3.39875e-120
-2.34668e-123
-1.70309e-126
-1.29574e-129
-1.03191e-132
-8.58762e-136
-7.44154e-139
-6.70744e-142
-6.27254e-145
-6.0697e-148
-6.06685e-151
-6.24115e-154
-6.59369e-157
-7.12683e-160
-7.85511e-163
-8.79439e-166
-9.96141e-169
-1.13525e-171
-1.29757e-174
-1.47843e-177
-1.67322e-180
-1.87179e-183
-2.05913e-186
-2.22243e-189
-2.33835e-192
-2.39826e-195
-2.38367e-198
-2.29695e-201
-2.13928e-204
-1.92351e-207
-1.67155e-210
-1.39978e-213
-1.13129e-216
-8.82459e-220
-6.63779e-223
-4.81962e-226
-3.38022e-229
-2.28871e-232
-1.4969e-235
-9.46213e-239
-5.7803e-242
-3.41357e-245
-1.94904e-248
-1.07555e-251
-5.74036e-255
-2.96341e-258
-1.47777e-261
-7.12787e-265
-3.32656e-268
-1.49963e-271
-6.54381e-275
-2.76307e-278
-1.12702e-281
-4.46068e-285
-1.70771e-288
-6.36191e-292
-2.30222e-295
-8.144e-299
-2.815e-302
-9.57847e-306
-3.21507e-309
-1.07132e-312
-3.55576e-316
0
0
0
0
0
0
0
0
0
0
0
0
0
0
0
0
0
0
0
0
0
0
0
0
0
0
0
0
0
0
0
0
0
0
0
0
0
0
0
0
0
0
0
0
0
0
0
0
0
0
0
0
0
0
0
0
0
0
0
0
0
0
0
0
0
0
0
0
0
0
0
0
0
0
0
0
0
0
0
0
0
0
0
0
0
0
0
0
0
0
0
0
0
0
0
0
0.00164234
1.63914e-09
-5.22268e-10
-6.08188e-13
-5.89375e-16
-4.13871e-19
3.22485e-20
5.42756e-23
-6.17969e-24
-1.26961e-26
1.37039e-28
4.38926e-31
-1.22249e-32
-2.85608e-35
-1.03067e-36
-3.27793e-39
-6.21221e-42
-9.0213e-45
-1.1085e-47
-1.21281e-50
-1.21759e-53
-1.14349e-56
-1.01774e-59
-8.66303e-63
-7.09813e-66
-5.62432e-69
-4.32371e-72
-3.23177e-75
-2.35121e-78
-1.66543e-81
-1.14794e-84
-7.68927e-88
-4.99428e-91
-3.13802e-94
-1.89772e-97
-1.11366e-100
-6.48822e-104
-3.81657e-107
-2.31918e-110
-1.4798e-113
-1.00751e-116
-7.24097e-120
-5.44317e-123
-4.27724e-126
-3.50087e-129
-2.97993e-132
-2.63222e-135
-2.40139e-138
-2.26165e-141
-2.19063e-144
-2.17592e-147
-2.21278e-150
-2.29373e-153
-2.4216e-156
-2.59288e-159
-2.81202e-162
-3.07984e-165
-3.39946e-168
-3.77553e-171
-4.21244e-174
-4.70521e-177
-5.25391e-180
-5.84954e-183
-6.47232e-186
-7.10828e-189
-7.70852e-192
-8.25291e-195
-8.67505e-198
-8.94923e-201
-9.02774e-204
-8.8853e-207
-8.53181e-210
-7.96138e-213
-7.21969e-216
-6.35562e-219
-5.42014e-222
-4.47674e-225
-3.57947e-228
-2.76662e-231
-2.06604e-234
-1.49019e-237
-1.03729e-240
-6.96532e-244
-4.50978e-247
-2.81305e-250
-1.69073e-253
-9.78949e-257
-5.45266e-260
-2.92417e-263
-1.50992e-266
-7.49408e-270
-3.5812e-273
-1.64907e-276
-7.31355e-280
-3.13286e-283
-1.29544e-286
-5.19128e-290
-2.01761e-293
-7.64091e-297
-2.82566e-300
-1.02621e-303
-3.67544e-307
-1.3058e-310
-4.62639e-314
-1.58678e-317
0
0
0
0
0
0
0
0
0
0
0
0
0
0
0
0
0
0
0
0
0
0
0
0
0
0
0
0
0
0
0
0
0
0
0
0
0
0
0
0
0
0
0
0
0
0
0
0
0
0
0
0
0
0
0
0
0
0
0
0
0
0
0
0
0
0
0
0
0
0
0
0
0
0
0
0
0
0
0
0
0
0
0
0
0
0
0
0
0
0
0
0
0
0
0
0.00164691
1.65285e-09
-5.26639e-10
-6.15013e-13
-5.97694e-16
-4.20914e-19
3.27965e-20
5.53585e-23
-6.30291e-24
-1.29876e-26
1.40116e-28
4.50261e-31
-1.25426e-32
-2.93959e-35
-1.06122e-36
-3.38583e-39
-6.43817e-42
-9.38243e-45
-1.15713e-47
-1.27094e-50
-1.28125e-53
-1.20864e-56
-1.08092e-59
-9.24949e-63
-7.62307e-66
-6.07993e-69
-4.70875e-72
-3.54956e-75
-2.60816e-78
-1.86941e-81
-1.30714e-84
-8.91238e-88
-5.92033e-91
-3.82973e-94
-2.40651e-97
-1.48056e-100
-9.08483e-104
-5.64612e-107
-3.61858e-110
-2.42908e-113
-1.73064e-116
-1.29252e-119
-1.00269e-122
-8.07829e-126
-6.74028e-129
-5.81813e-132
-5.18658e-135
-4.75524e-138
-4.48188e-141
-4.32795e-144
-4.27037e-147
-4.29853e-150
-4.39656e-153
-4.56536e-156
-4.79492e-159
-5.088e-162
-5.44123e-165
-5.85548e-168
-6.3322e-171
-6.87282e-174
-7.46939e-177
-8.11778e-180
-8.80421e-183
-9.5025e-186
-1.0195e-188
-1.08232e-191
-1.13654e-194
-1.17463e-197
-1.19402e-200
-1.18967e-203
-1.15913e-206
-1.10414e-209
-1.02441e-212
-9.25583e-216
-8.1348e-219
-6.94084e-222
-5.74743e-225
-4.61654e-228
-3.59229e-231
-2.70661e-234
-1.97401e-237
-1.39257e-240
-9.49896e-244
-6.26256e-247
-3.98763e-250
-2.45265e-253
-1.45698e-256
-8.34838e-260
-4.61809e-263
-2.46646e-266
-1.2702e-269
-6.31737e-273
-3.03607e-276
-1.40896e-279
-6.33327e-283
-2.75419e-286
-1.16361e-289
-4.77681e-293
-1.91455e-296
-7.50343e-300
-2.89209e-303
-1.10019e-306
-4.15435e-310
-1.56484e-313
-5.86654e-317
0
0
0
0
0
0
0
0
0
0
0
0
0
0
0
0
0
0
0
0
0
0
0
0
0
0
0
0
0
0
0
0
0
0
0
0
0
0
0
0
0
0
0
0
0
0
0
0
0
0
0
0
0
0
0
0
0
0
0
0
0
0
0
0
0
0
0
0
0
0
0
0
0
0
0
0
0
0
0
0
0
0
0
0
0
0
0
0
0
0
0
0
0
0
0
0.0016515
1.66675e-09
-5.31073e-10
-6.21961e-13
-6.06192e-16
-4.28136e-19
3.33588e-20
5.64747e-23
-6.43007e-24
-1.32898e-26
1.43321e-28
4.62116e-31
-1.28748e-32
-3.02741e-35
-1.09339e-36
-3.50011e-39
-6.67903e-42
-9.76975e-45
-1.20964e-47
-1.33418e-50
-1.35102e-53
-1.28062e-56
-1.15134e-59
-9.90923e-63
-8.21952e-66
-6.60318e-69
-5.15609e-72
-3.9235e-75
-2.91465e-78
-2.11622e-81
-1.5027e-84
-1.04388e-87
-7.09459e-91
-4.7204e-94
-3.07122e-97
-1.96911e-100
-1.2642e-103
-8.23653e-107
-5.52953e-110
-3.87756e-113
-2.87182e-116
-2.21785e-119
-1.77054e-122
-1.4609e-125
-1.24273e-128
-1.08891e-131
-9.81227e-135
-9.05795e-138
-8.56175e-141
-8.25991e-144
-8.11245e-147
-8.09887e-150
-8.18837e-153
-8.37819e-156
-8.64656e-159
-8.99351e-162
-9.40912e-165
-9.89136e-168
-1.04387e-170
-1.10513e-173
-1.17199e-176
-1.24402e-179
-1.31966e-182
-1.39595e-185
-1.47121e-188
-1.53858e-191
-1.59606e-194
-1.63471e-197
-1.65175e-200
-1.64101e-203
-1.59914e-206
-1.5278e-209
-1.42572e-212
-1.29903e-215
-1.15414e-218
-9.97851e-222
-8.39144e-225
-6.85947e-228
-5.44316e-231
-4.19043e-234
-3.12864e-237
-2.2636e-240
-1.58643e-243
-1.07655e-246
-7.06835e-250
-4.49073e-253
-2.7604e-256
-1.63963e-259
-9.41887e-263
-5.23314e-266
-2.80889e-269
-1.45857e-272
-7.33098e-276
-3.56415e-279
-1.68117e-282
-7.68505e-286
-3.41829e-289
-1.47964e-292
-6.26156e-296
-2.59425e-299
-1.0581e-302
-4.2627e-306
-1.70543e-309
-6.80803e-313
-2.72164e-316
0
0
0
0
0
0
0
0
0
0
0
0
0
0
0
0
0
0
0
0
0
0
0
0
0
0
0
0
0
0
0
0
0
0
0
0
0
0
0
0
0
0
0
0
0
0
0
0
0
0
0
0
0
0
0
0
0
0
0
0
0
0
0
0
0
0
0
0
0
0
0
0
0
0
0
0
0
0
0
0
0
0
0
0
0
0
0
0
0
0
0
0
0
0
0
0.00165612
1.68084e-09
-5.35568e-10
-6.29027e-13
-6.14865e-16
-4.35534e-19
3.39349e-20
5.76232e-23
-6.56098e-24
-1.36021e-26
1.46641e-28
4.74448e-31
-1.32204e-32
-3.1192e-35
-1.12707e-36
-3.62035e-39
-6.93381e-42
-1.01817e-44
-1.26583e-47
-1.40228e-50
-1.42669e-53
-1.35927e-56
-1.22889e-59
-1.06421e-62
-8.88825e-66
-7.19573e-69
-5.66819e-72
-4.35662e-75
-3.27413e-78
-2.40959e-81
-1.73849e-84
-1.23068e-87
-8.55445e-91
-5.84611e-94
-3.92666e-97
-2.61166e-100
-1.74462e-103
-1.18403e-106
-8.27012e-110
-6.0173e-113
-4.60323e-116
-3.65592e-119
-2.98971e-122
-2.5168e-125
-2.17567e-128
-1.92973e-131
-1.75354e-134
-1.6265e-137
-1.53923e-140
-1.48163e-143
-1.44714e-146
-1.43219e-149
-1.43132e-152
-1.44368e-155
-1.4653e-158
-1.49581e-161
-1.53337e-164
-1.57745e-167
-1.62768e-170
-1.68413e-173
-1.74578e-176
-1.81242e-179
-1.88242e-182
-1.95258e-185
-2.02145e-188
-2.08132e-191
-2.13056e-194
-2.15912e-197
-2.16423e-200
-2.13895e-203
-2.0792e-206
-1.98668e-209
-1.85912e-212
-1.70289e-215
-1.52462e-218
-1.33145e-221
-1.1335e-224
-9.39958e-228
-7.58244e-231
-5.94592e-234
-4.5306e-237
-3.35166e-240
-2.40627e-243
-1.67576e-246
-1.1312e-249
-7.40209e-253
-4.69453e-256
-2.88231e-259
-1.71452e-262
-9.88113e-266
-5.51181e-269
-2.97955e-272
-1.56172e-275
-7.93182e-279
-3.91479e-282
-1.87571e-285
-8.75806e-289
-3.98568e-292
-1.77556e-295
-7.75379e-299
-3.33646e-302
-1.41918e-305
-5.99777e-309
-2.52975e-312
-1.07053e-315
0
0
0
0
0
0
0
0
0
0
0
0
0
0
0
0
0
0
0
0
0
0
0
0
0
0
0
0
0
0
0
0
0
0
0
0
0
0
0
0
0
0
0
0
0
0
0
0
0
0
0
0
0
0
0
0
0
0
0
0
0
0
0
0
0
0
0
0
0
0
0
0
0
0
0
0
0
0
0
0
0
0
0
0
0
0
0
0
0
0
0
0
0
0
0
0.00166076
1.69511e-09
-5.40122e-10
-6.36209e-13
-6.2371e-16
-4.43106e-19
3.45249e-20
5.88036e-23
-6.69559e-24
-1.39247e-26
1.50072e-28
4.87247e-31
-1.35791e-32
-3.21492e-35
-1.16224e-36
-3.74651e-39
-7.2025e-42
-1.06185e-44
-1.32573e-47
-1.47532e-50
-1.50837e-53
-1.44475e-56
-1.31381e-59
-1.14511e-62
-9.63276e-66
-7.86155e-69
-6.24939e-72
-4.85351e-75
-3.69134e-78
-2.75435e-81
-2.0193e-84
-1.45639e-87
-1.03458e-90
-7.25088e-94
-5.01455e-97
-3.44689e-100
-2.38469e-103
-1.67682e-106
-1.21213e-109
-9.10142e-113
-7.15554e-116
-5.81864e-119
-4.85612e-122
-4.15745e-125
-3.64222e-128
-3.26243e-131
-2.98352e-134
-2.77594e-137
-2.62653e-140
-2.51995e-143
-2.44606e-146
-2.39907e-149
-2.37018e-152
-2.35775e-155
-2.35544e-158
-2.36256e-161
-2.3763e-164
-2.39601e-167
-2.4213e-170
-2.45255e-173
-2.48884e-176
-2.5304e-179
-2.57562e-182
-2.6212e-185
-2.666e-188
-2.70161e-191
-2.72686e-194
-2.7309e-197
-2.71119e-200
-2.66035e-203
-2.57386e-206
-2.45362e-209
-2.29644e-212
-2.1088e-215
-1.89719e-218
-1.66868e-221
-1.43391e-224
-1.20274e-227
-9.83425e-231
-7.83234e-234
-6.07316e-237
-4.58077e-240
-3.35935e-243
-2.39418e-246
-1.657e-249
-1.11367e-252
-7.26753e-256
-4.59967e-259
-2.82549e-262
-1.68453e-265
-9.73867e-269
-5.46559e-272
-2.97938e-275
-1.57652e-278
-8.11966e-282
-4.06669e-285
-1.98781e-288
-9.48471e-292
-4.43573e-295
-2.03604e-298
-9.21725e-302
-4.1279e-305
-1.83764e-308
-8.16624e-312
-3.63997e-315
-2.01841e-318
0
0
0
0
0
0
0
0
0
0
0
0
0
0
0
0
0
0
0
0
0
0
0
0
0
0
0
0
0
0
0
0
0
0
0
0
0
0
0
0
0
0
0
0
0
0
0
0
0
0
0
0
0
0
0
0
0
0
0
0
0
0
0
0
0
0
0
0
0
0
0
0
0
0
0
0
0
0
0
0
0
0
0
0
0
0
0
0
0
0
0
0
0
0
0.00166543
1.70955e-09
-5.44732e-10
-6.43506e-13
-6.32726e-16
-4.50851e-19
3.51285e-20
6.00158e-23
-6.83386e-24
-1.42572e-26
1.53612e-28
5.00507e-31
-1.39509e-32
-3.31452e-35
-1.19888e-36
-3.87855e-39
-7.48501e-42
-1.108e-44
-1.38937e-47
-1.55335e-50
-1.59614e-53
-1.53719e-56
-1.40627e-59
-1.23383e-62
-1.04558e-65
-8.60391e-69
-6.90342e-72
-5.41832e-75
-4.17078e-78
-3.15524e-81
-2.35006e-84
-1.72597e-87
-1.25184e-90
-8.98348e-94
-6.38198e-97
-4.51946e-100
-3.22591e-103
-2.34023e-106
-1.74295e-109
-1.34469e-112
-1.08211e-115
-8.97743e-119
-7.62291e-122
-6.61952e-125
-5.86366e-128
-5.29369e-131
-4.86394e-134
-4.53321e-137
-4.28369e-140
-4.09305e-143
-3.94646e-146
-3.83524e-149
-3.74626e-152
-3.67708e-155
-3.61849e-158
-3.5698e-161
-3.52733e-164
-3.49064e-167
-3.45972e-170
-3.43558e-173
-3.41762e-176
-3.40674e-179
-3.40135e-182
-3.39818e-185
-3.3963e-188
-3.38672e-191
-3.36872e-194
-3.33092e-197
-3.27104e-200
-3.18163e-203
-3.05797e-206
-2.90219e-209
-2.71048e-212
-2.48922e-215
-2.24456e-218
-1.98312e-221
-1.71547e-224
-1.4515e-227
-1.1997e-230
-9.67782e-234
-7.61566e-237
-5.84083e-240
-4.36373e-243
-3.17422e-246
-2.24642e-249
-1.54668e-252
-1.03584e-255
-6.74056e-259
-4.26489e-262
-2.62359e-265
-1.56795e-268
-9.1124e-272
-5.1528e-275
-2.83341e-278
-1.51895e-281
-7.93197e-285
-4.04852e-288
-2.02014e-291
-9.89256e-295
-4.76043e-298
-2.26139e-301
-1.06352e-304
-4.97416e-308
-2.3228e-311
-1.08805e-314
-5.05817e-318
0
0
0
0
0
0
0
0
0
0
0
0
0
0
0
0
0
0
0
0
0
0
0
0
0
0
0
0
0
0
0
0
0
0
0
0
0
0
0
0
0
0
0
0
0
0
0
0
0
0
0
0
0
0
0
0
0
0
0
0
0
0
0
0
0
0
0
0
0
0
0
0
0
0
0
0
0
0
0
0
0
0
0
0
0
0
0
0
0
0
0
0
0
0
0.00167012
1.72417e-09
-5.494e-10
-6.50917e-13
-6.41912e-16
-4.58769e-19
3.57455e-20
6.12593e-23
-6.97574e-24
-1.45997e-26
1.57259e-28
5.14218e-31
-1.43354e-32
-3.41796e-35
-1.23697e-36
-4.01635e-39
-7.78114e-42
-1.1566e-44
-1.4567e-47
-1.63632e-50
-1.68998e-53
-1.63661e-56
-1.50634e-59
-1.3305e-62
-1.1359e-65
-9.4251e-69
-7.63316e-72
-6.05447e-75
-4.71636e-78
-3.61662e-81
-2.73545e-84
-2.0444e-87
-1.51236e-90
-1.10958e-93
-8.08046e-97
-5.87953e-100
-4.31616e-103
-3.21924e-106
-2.46136e-109
-1.94431e-112
-1.59635e-115
-1.34731e-118
-1.16105e-121
-1.02043e-124
-9.1224e-128
-8.28716e-131
-7.63963e-134
-7.12399e-137
-6.7171e-140
-6.38776e-143
-6.11548e-146
-5.8882e-149
-5.68766e-152
-5.51092e-155
-5.34571e-158
-5.19186e-161
-5.0452e-164
-4.90602e-167
-4.77517e-170
-4.65461e-173
-4.54425e-176
-4.44576e-179
-4.35749e-182
-4.27612e-185
-4.20074e-188
-4.12181e-191
-4.03881e-194
-3.94002e-197
-3.82334e-200
-3.68148e-203
-3.50957e-206
-3.31005e-209
-3.07864e-212
-2.82149e-215
-2.54417e-218
-2.25261e-221
-1.9568e-224
-1.66601e-227
-1.38843e-230
-1.13156e-233
-9.01383e-237
-7.01158e-240
-5.32309e-243
-3.94207e-246
-2.84562e-249
-2.00209e-252
-1.37265e-255
-9.1613e-259
-5.95592e-262
-3.77122e-265
-2.32421e-268
-1.39537e-271
-8.16532e-275
-4.65463e-278
-2.59101e-281
-1.40734e-284
-7.48255e-288
-3.89519e-291
-1.99248e-294
-1.00276e-297
-4.98642e-301
-2.45666e-304
-1.20421e-307
-5.89474e-311
-2.89427e-314
-1.41971e-317
0
0
0
0
0
0
0
0
0
0
0
0
0
0
0
0
0
0
0
0
0
0
0
0
0
0
0
0
0
0
0
0
0
0
0
0
0
0
0
0
0
0
0
0
0
0
0
0
0
0
0
0
0
0
0
0
0
0
0
0
0
0
0
0
0
0
0
0
0
0
0
0
0
0
0
0
0
0
0
0
0
0
0
0
0
0
0
0
0
0
0
0
0
0
0.00167485
1.73896e-09
-5.54122e-10
-6.5844e-13
-6.51265e-16
-4.66857e-19
3.63757e-20
6.25338e-23
-7.12119e-24
-1.49519e-26
1.61008e-28
5.28371e-31
-1.47323e-32
-3.52514e-35
-1.27646e-36
-4.15977e-39
-8.09056e-42
-1.20759e-44
-1.52765e-47
-1.72417e-50
-1.78982e-53
-1.74294e-56
-1.61396e-59
-1.4351e-62
-1.2343e-65
-1.03262e-68
-8.44031e-72
-6.7643e-75
-5.33106e-78
-4.14205e-81
-3.17962e-84
-2.41629e-87
-1.82112e-90
-1.36404e-93
-1.01641e-96
-7.58171e-100
-5.70924e-103
-4.36574e-106
-3.41683e-109
-2.75585e-112
-2.3026e-115
-1.97253e-118
-1.72171e-121
-1.52881e-124
-1.3772e-127
-1.25724e-130
-1.1615e-133
-1.08265e-136
-1.0178e-139
-9.62805e-143
-9.14983e-146
-8.72791e-149
-8.33855e-152
-7.979e-155
-7.63413e-158
-7.30517e-161
-6.98799e-164
-6.68422e-167
-6.39604e-170
-6.12653e-173
-5.87621e-176
-5.64737e-179
-5.43798e-182
-5.24448e-185
-5.0655e-188
-4.89085e-191
-4.71974e-194
-4.5402e-197
-4.34999e-200
-4.14202e-203
-3.91128e-206
-3.66032e-209
-3.3845e-212
-3.08954e-215
-2.78026e-218
-2.46162e-221
-2.14261e-224
-1.8314e-227
-1.53535e-230
-1.26123e-233
-1.01459e-236
-7.98555e-240
-6.14588e-243
-4.62267e-246
-3.3956e-249
-2.43554e-252
-1.70546e-255
-1.16472e-258
-7.76226e-262
-5.04737e-265
-3.20053e-268
-1.98042e-271
-1.19654e-274
-7.05508e-278
-4.0687e-281
-2.2935e-284
-1.26739e-287
-6.86762e-291
-3.66129e-294
-1.92277e-297
-9.9862e-301
-5.14234e-304
-2.63582e-307
-1.34947e-310
-6.92907e-314
-3.65953e-317
0
0
0
0
0
0
0
0
0
0
0
0
0
0
0
0
0
0
0
0
0
0
0
0
0
0
0
0
0
0
0
0
0
0
0
0
0
0
0
0
0
0
0
0
0
0
0
0
0
0
0
0
0
0
0
0
0
0
0
0
0
0
0
0
0
0
0
0
0
0
0
0
0
0
0
0
0
0
0
0
0
0
0
0
0
0
0
0
0
0
0
0
0
0
0.00167959
1.75392e-09
-5.58901e-10
-6.66075e-13
-6.60784e-16
-4.75115e-19
3.7019e-20
6.38388e-23
-7.27012e-24
-1.53137e-26
1.64858e-28
5.42955e-31
-1.51414e-32
-3.63597e-35
-1.31731e-36
-4.30861e-39
-8.41283e-42
-1.2609e-44
-1.60212e-47
-1.81674e-50
-1.8955e-53
-1.85602e-56
-1.72899e-59
-1.54752e-62
-1.34068e-65
-1.13068e-68
-9.32506e-72
-7.54868e-75
-6.01649e-78
-4.73391e-81
-3.68567e-84
-2.84543e-87
-2.18255e-90
-1.66669e-93
-1.26868e-96
-9.68302e-100
-7.46365e-103
-5.83813e-106
-4.66652e-109
-3.83465e-112
-3.25408e-115
-2.82447e-118
-2.49315e-121
-2.23361e-124
-2.02503e-127
-1.85566e-130
-1.7164e-133
-1.5979e-136
-1.4968e-139
-1.40782e-142
-1.32773e-145
-1.25469e-148
-1.18583e-151
-1.12102e-154
-1.05852e-157
-9.98688e-161
-9.41193e-164
-8.86383e-167
-8.34634e-170
-7.86361e-173
-7.4165e-176
-7.00751e-179
-6.63357e-182
-6.29044e-185
-5.97549e-188
-5.67764e-191
-5.3951e-194
-5.11553e-197
-4.83604e-200
-4.5496e-203
-4.25082e-206
-3.94205e-209
-3.61827e-212
-3.28445e-215
-2.94441e-218
-2.60196e-221
-2.26474e-224
-1.93941e-227
-1.63211e-230
-1.3484e-233
-1.09304e-236
-8.68541e-240
-6.76136e-243
-5.15377e-246
-3.84374e-249
-2.80442e-252
-2.00124e-255
-1.39543e-258
-9.5127e-262
-6.33845e-265
-4.12635e-268
-2.62599e-271
-1.63465e-274
-9.9481e-278
-5.93128e-281
-3.46252e-284
-1.98452e-287
-1.11701e-290
-6.19359e-294
-3.38702e-297
-1.83343e-300
-9.84739e-304
-5.26702e-307
-2.81437e-310
-1.50804e-313
-8.05013e-317
0
0
0
0
0
0
0
0
0
0
0
0
0
0
0
0
0
0
0
0
0
0
0
0
0
0
0
0
0
0
0
0
0
0
0
0
0
0
0
0
0
0
0
0
0
0
0
0
0
0
0
0
0
0
0
0
0
0
0
0
0
0
0
0
0
0
0
0
0
0
0
0
0
0
0
0
0
0
0
0
0
0
0
0
0
0
0
0
0
0
0
0
0
0
0.00168437
1.76906e-09
-5.63735e-10
-6.7382e-13
-6.70469e-16
-4.8354e-19
3.76751e-20
6.51737e-23
-7.42247e-24
-1.5685e-26
1.68805e-28
5.57955e-31
-1.55621e-32
-3.75033e-35
-1.35946e-36
-4.46266e-39
-8.74743e-42
-1.31642e-44
-1.67995e-47
-1.91385e-50
-2.00678e-53
-1.97556e-56
-1.85114e-59
-1.66747e-62
-1.45477e-65
-1.23646e-68
-1.02857e-71
-8.4066e-75
-6.77239e-78
-5.39279e-81
-4.2551e-84
-3.33425e-87
-2.59998e-90
-2.02169e-93
-1.5698e-96
-1.22396e-99
-9.64024e-103
-7.69994e-106
-6.27497e-109
-5.245e-112
-4.51393e-115
-3.96469e-118
-3.53506e-121
-3.19202e-124
-2.9097e-127
-2.67404e-130
-2.47426e-133
-2.29895e-136
-2.14453e-139
-2.00471e-142
-1.87587e-145
-1.75609e-148
-1.64212e-151
-1.53416e-154
-1.43033e-157
-1.33137e-160
-1.23704e-163
-1.14793e-166
-1.06454e-169
-9.87346e-173
-9.16394e-176
-8.51864e-179
-7.93243e-182
-7.39958e-185
-6.91508e-188
-6.46647e-191
-6.04998e-194
-5.65255e-197
-5.2699e-200
-4.89471e-203
-4.52079e-206
-4.14981e-209
-3.77615e-212
-3.40364e-215
-3.03485e-218
-2.67222e-221
-2.32169e-224
-1.98816e-227
-1.67627e-230
-1.39007e-233
-1.13315e-236
-9.0718e-240
-7.12858e-243
-5.49507e-246
-4.15245e-249
-3.07539e-252
-2.23186e-255
-1.58567e-258
-1.10343e-261
-7.51871e-265
-5.01506e-268
-3.27584e-271
-2.09677e-274
-1.31446e-277
-8.08645e-281
-4.87926e-284
-2.89483e-287
-1.68924e-290
-9.72286e-294
-5.52604e-297
-3.11171e-300
-1.73986e-303
-9.69187e-307
-5.39452e-310
-3.01064e-313
-1.68545e-316
0
0
0
0
0
0
0
0
0
0
0
0
0
0
0
0
0
0
0
0
0
0
0
0
0
0
0
0
0
0
0
0
0
0
0
0
0
0
0
0
0
0
0
0
0
0
0
0
0
0
0
0
0
0
0
0
0
0
0
0
0
0
0
0
0
0
0
0
0
0
0
0
0
0
0
0
0
0
0
0
0
0
0
0
0
0
0
0
0
0
0
0
0
0
0.00168917
1.78437e-09
-5.68624e-10
-6.81677e-13
-6.80319e-16
-4.92133e-19
3.83438e-20
6.65381e-23
-7.57817e-24
-1.60654e-26
1.72845e-28
5.73358e-31
-1.59942e-32
-3.86807e-35
-1.40285e-36
-4.62166e-39
-9.0937e-42
-1.37405e-44
-1.76096e-47
-2.01523e-50
-2.12333e-53
-2.10121e-56
-1.97999e-59
-1.7945e-62
-1.57615e-65
-1.34955e-68
-1.13184e-71
-9.33476e-75
-7.5962e-78
-6.11699e-81
-4.88716e-84
-3.88308e-87
-3.07489e-90
-2.43171e-93
-1.92363e-96
-1.53012e-99
-1.22983e-102
-1.00175e-105
-8.31303e-109
-7.06026e-112
-6.15637e-115
-5.46718e-118
-4.92031e-121
-4.47449e-124
-4.09781e-127
-3.77391e-130
-3.49065e-133
-3.23487e-136
-3.00339e-139
-2.7893e-142
-2.58902e-145
-2.4009e-148
-2.22155e-151
-2.05171e-154
-1.88948e-157
-1.73605e-160
-1.59132e-163
-1.45603e-166
-1.33076e-169
-1.2159e-172
-1.11132e-175
-1.017e-178
-9.32046e-182
-8.55624e-185
-7.86843e-188
-7.2424e-191
-6.6711e-194
-6.1402e-197
-5.64306e-200
-5.1715e-203
-4.71791e-206
-4.28263e-209
-3.85912e-212
-3.4496e-215
-3.05503e-218
-2.67625e-221
-2.31726e-224
-1.98099e-227
-1.6704e-230
-1.38786e-233
-1.13559e-236
-9.14232e-240
-7.23766e-243
-5.6313e-246
-4.30326e-249
-3.22893e-252
-2.37845e-255
-1.71844e-258
-1.21836e-261
-8.47357e-265
-5.78002e-268
-3.86797e-271
-2.54098e-274
-1.63789e-277
-1.03778e-280
-6.46051e-284
-3.96063e-287
-2.3918e-290
-1.42651e-293
-8.41145e-297
-4.91845e-300
-2.85782e-303
-1.65505e-306
-9.57892e-310
-5.55809e-313
-3.23577e-316
0
0
0
0
0
0
0
0
0
0
0
0
0
0
0
0
0
0
0
0
0
0
0
0
0
0
0
0
0
0
0
0
0
0
0
0
0
0
0
0
0
0
0
0
0
0
0
0
0
0
0
0
0
0
0
0
0
0
0
0
0
0
0
0
0
0
0
0
0
0
0
0
0
0
0
0
0
0
0
0
0
0
0
0
0
0
0
0
0
0
0
0
0
0
0.001694
1.79985e-09
-5.73569e-10
-6.89647e-13
-6.90334e-16
-5.00894e-19
3.90249e-20
6.79313e-23
-7.73714e-24
-1.64547e-26
1.76974e-28
5.89146e-31
-1.6437e-32
-3.98906e-35
-1.44741e-36
-4.78531e-39
-9.45094e-42
-1.43364e-44
-1.84494e-47
-2.1206e-50
-2.24477e-53
-2.23247e-56
-2.11499e-59
-1.92802e-62
-1.70417e-65
-1.4693e-68
-1.2417e-71
-1.03273e-74
-8.48256e-78
-6.90187e-81
-5.57819e-84
-4.48938e-87
-3.60605e-90
-2.897e-93
-2.33204e-96
-1.89038e-99
-1.54894e-102
-1.28553e-105
-1.08556e-108
-9.36266e-112
-8.2681e-115
-7.42093e-118
-6.73831e-121
-6.16835e-124
-5.67208e-127
-5.23121e-130
-4.83335e-133
-4.46455e-136
-4.12333e-139
-3.80293e-142
-3.50061e-145
-3.21544e-148
-2.94427e-151
-2.68859e-154
-2.4466e-157
-2.21991e-160
-2.00848e-163
-1.81307e-166
-1.63414e-169
-1.47177e-172
-1.32546e-175
-1.19474e-178
-1.07813e-181
-9.74355e-185
-8.81948e-188
-7.99115e-191
-7.24663e-194
-6.5695e-197
-5.94956e-200
-5.37701e-203
-4.84203e-206
-4.34289e-209
-3.8716e-212
-3.42828e-215
-3.0119e-218
-2.62147e-221
-2.25882e-224
-1.92481e-227
-1.6206e-230
-1.34683e-233
-1.10426e-236
-8.92435e-240
-7.10525e-243
-5.56993e-246
-4.29648e-249
-3.26026e-252
-2.43317e-255
-1.78455e-258
-1.28676e-261
-9.11827e-265
-6.34952e-268
-4.34558e-271
-2.9249e-274
-1.93527e-277
-1.26079e-280
-8.08447e-284
-5.11284e-287
-3.19014e-290
-1.96835e-293
-1.20221e-296
-7.28809e-300
-4.3936e-303
-2.64111e-306
-1.58692e-309
-9.55794e-313
-5.7791e-316
0
0
0
0
0
0
0
0
0
0
0
0
0
0
0
0
0
0
0
0
0
0
0
0
0
0
0
0
0
0
0
0
0
0
0
0
0
0
0
0
0
0
0
0
0
0
0
0
0
0
0
0
0
0
0
0
0
0
0
0
0
0
0
0
0
0
0
0
0
0
0
0
0
0
0
0
0
0
0
0
0
0
0
0
0
0
0
0
0
0
0
0
0
0
0.00169886
1.81552e-09
-5.78572e-10
-6.97732e-13
-7.00518e-16
-5.09825e-19
3.97181e-20
6.93528e-23
-7.89932e-24
-1.68528e-26
1.81188e-28
6.053e-31
-1.68901e-32
-4.11314e-35
-1.49307e-36
-4.95332e-39
-9.81839e-42
-1.49505e-44
-1.93165e-47
-2.22958e-50
-2.37063e-53
-2.36879e-56
-2.25549e-59
-2.06729e-62
-1.83803e-65
-1.59486e-68
-1.35726e-71
-1.13754e-74
-9.42301e-78
-7.73947e-81
-6.32092e-84
-5.14689e-87
-4.18853e-90
-3.41425e-93
-2.79372e-96
-2.3057e-99
-1.92468e-102
-1.62692e-105
-1.39775e-108
-1.22422e-111
-1.09499e-114
-9.93375e-118
-9.10007e-121
-8.3832e-124
-7.7361e-127
-7.14009e-130
-6.58502e-133
-6.05846e-136
-5.56278e-139
-5.09281e-142
-4.64779e-145
-4.22814e-148
-3.83139e-151
-3.45988e-154
-3.11193e-157
-2.78943e-160
-2.49217e-163
-2.22061e-166
-1.97476e-169
-1.75404e-172
-1.55729e-175
-1.38324e-178
-1.22956e-181
-1.09429e-184
-9.75149e-188
-8.69862e-191
-7.76563e-194
-6.93288e-197
-6.18525e-200
-5.5103e-203
-4.89512e-206
-4.33502e-209
-3.82004e-212
-3.3476e-215
-2.91436e-218
-2.5172e-221
-2.15568e-224
-1.82847e-227
-1.53496e-230
-1.27406e-233
-1.04508e-236
-8.46499e-240
-6.76673e-243
-5.33565e-246
-4.1476e-249
-3.17748e-252
-2.39859e-255
-1.78279e-258
-1.30519e-261
-9.40793e-265
-6.67698e-268
-4.66597e-271
-3.21264e-274
-2.17852e-277
-1.45706e-280
-9.60892e-284
-6.25969e-287
-4.02945e-290
-2.56834e-293
-1.62249e-296
-1.01829e-299
-6.36001e-303
-3.96272e-306
-2.46834e-309
-1.54096e-312
-9.66233e-316
-1.03704e-318
0
0
0
0
0
0
0
0
0
0
0
0
0
0
0
0
0
0
0
0
0
0
0
0
0
0
0
0
0
0
0
0
0
0
0
0
0
0
0
0
0
0
0
0
0
0
0
0
0
0
0
0
0
0
0
0
0
0
0
0
0
0
0
0
0
0
0
0
0
0
0
0
0
0
0
0
0
0
0
0
0
0
0
0
0
0
0
0
0
0
0
0
0
0.00170375
1.83138e-09
-5.83638e-10
-7.05942e-13
-7.10879e-16
-5.18931e-19
4.04231e-20
7.08019e-23
-8.06461e-24
-1.72594e-26
1.85478e-28
6.21797e-31
-1.73531e-32
-4.24014e-35
-1.53977e-36
-5.12537e-39
-1.01952e-41
-1.55812e-44
-2.02082e-47
-2.34183e-50
-2.50041e-53
-2.50954e-56
-2.40072e-59
-2.21143e-62
-1.97675e-65
-1.72519e-68
-1.47741e-71
-1.24676e-74
-1.04059e-77
-8.61816e-81
-7.10403e-84
-5.84487e-87
-4.81253e-90
-3.97517e-93
-3.30253e-96
-2.77278e-99
-2.35708e-102
-2.02939e-105
-1.77464e-108
-1.57945e-111
-1.43188e-114
-1.31376e-117
-1.21457e-120
-1.12586e-123
-1.04209e-126
-9.61752e-130
-8.84607e-133
-8.10004e-136
-7.38909e-139
-6.71181e-142
-6.0709e-145
-5.46879e-148
-4.90411e-151
-4.37997e-154
-3.89461e-157
-3.4498e-160
-3.04469e-163
-2.67895e-166
-2.35157e-169
-2.06085e-172
-1.8045e-175
-1.58007e-178
-1.38396e-181
-1.21328e-184
-1.0646e-187
-9.35005e-191
-8.21725e-194
-7.22339e-197
-6.34688e-200
-5.57151e-203
-4.88021e-206
-4.26451e-209
-3.71178e-212
-3.21627e-215
-2.77193e-218
-2.37336e-221
-2.01767e-224
-1.70142e-227
-1.42223e-230
-1.17737e-233
-9.64842e-237
-7.82096e-240
-6.26764e-243
-4.96344e-246
-3.88205e-249
-2.99788e-252
-2.28539e-255
-1.71875e-258
-1.27561e-261
-9.33854e-265
-6.74477e-268
-4.80549e-271
-3.37974e-274
-2.34548e-277
-1.60825e-280
-1.0893e-283
-7.29984e-287
-4.84153e-290
-3.18378e-293
-2.07764e-296
-1.34824e-299
-8.71343e-303
-5.62025e-306
-3.62471e-309
-2.34256e-312
-1.51945e-315
-1.03914e-318
0
0
0
0
0
0
0
0
0
0
0
0
0
0
0
0
0
0
0
0
0
0
0
0
0
0
0
0
0
0
0
0
0
0
0
0
0
0
0
0
0
0
0
0
0
0
0
0
0
0
0
0
0
0
0
0
0
0
0
0
0
0
0
0
0
0
0
0
0
0
0
0
0
0
0
0
0
0
0
0
0
0
0
0
0
0
0
0
0
0
0
0
0
0.00170866
1.84746e-09
-5.88775e-10
-7.14291e-13
-7.21432e-16
-5.28224e-19
4.11397e-20
7.22779e-23
-8.23292e-24
-1.76741e-26
1.89836e-28
6.38602e-31
-1.78253e-32
-4.36991e-35
-1.58743e-36
-5.30115e-39
-1.05806e-41
-1.62268e-44
-2.1122e-47
-2.45692e-50
-2.63358e-53
-2.65401e-56
-2.54985e-59
-2.35946e-62
-2.11923e-65
-1.85904e-68
-1.60084e-71
-1.359e-74
-1.14165e-77
-9.52279e-81
-7.91198e-84
-6.56763e-87
-5.46262e-90
-4.56509e-93
-3.84551e-96
-3.28161e-99
-2.84042e-102
-2.49242e-105
-2.22101e-108
-2.01155e-111
-1.85102e-114
-1.71969e-117
-1.60557e-120
-1.4975e-123
-1.38927e-126
-1.28078e-129
-1.17364e-132
-1.06857e-135
-9.67741e-139
-8.71672e-142
-7.81144e-145
-6.96656e-148
-6.18194e-151
-5.46094e-154
-4.80123e-157
-4.20366e-160
-3.666e-163
-3.18635e-166
-2.76173e-169
-2.38881e-172
-2.06358e-175
-1.78187e-178
-1.53829e-181
-1.32868e-184
-1.14814e-187
-9.92873e-191
-8.58966e-194
-7.43378e-197
-6.43129e-200
-5.56103e-203
-4.80062e-206
-4.13702e-209
-3.55423e-212
-3.04288e-215
-2.59393e-218
-2.19951e-221
-1.8543e-224
-1.55278e-227
-1.29091e-230
-1.0645e-233
-8.70361e-237
-7.05086e-240
-5.65682e-243
-4.49266e-246
-3.5304e-249
-2.74418e-252
-2.1096e-255
-1.60297e-258
-1.20432e-261
-8.94178e-265
-6.5631e-268
-4.76096e-271
-3.41576e-274
-2.42283e-277
-1.70102e-280
-1.18187e-283
-8.13779e-287
-5.55459e-290
-3.76425e-293
-2.5347e-296
-1.69886e-299
-1.13488e-302
-7.56985e-306
-5.04968e-309
-3.37485e-312
-2.26256e-315
-1.04125e-318
0
0
0
0
0
0
0
0
0
0
0
0
0
0
0
0
0
0
0
0
0
0
0
0
0
0
0
0
0
0
0
0
0
0
0
0
0
0
0
0
0
0
0
0
0
0
0
0
0
0
0
0
0
0
0
0
0
0
0
0
0
0
0
0
0
0
0
0
0
0
0
0
0
0
0
0
0
0
0
0
0
0
0
0
0
0
0
0
0
0
0
0
0
0.00171361
1.86383e-09
-5.94006e-10
-7.22814e-13
-7.31829e-16
-5.37468e-19
4.18633e-20
7.3774e-23
-8.40356e-24
-1.80958e-26
1.9425e-28
6.55702e-31
-1.83078e-32
-4.50278e-35
-1.63612e-36
-5.48102e-39
-1.09754e-41
-1.6889e-44
-2.20605e-47
-2.57524e-50
-2.77054e-53
-2.80262e-56
-2.70319e-59
-2.51156e-62
-2.26547e-65
-1.99625e-68
-1.72714e-71
-1.47362e-74
-1.24466e-77
-1.04431e-80
-8.73233e-84
-7.30069e-87
-6.12248e-90
-5.16635e-93
-4.40464e-96
-3.81568e-99
-3.36282e-102
-3.01128e-105
-2.74024e-108
-2.53164e-111
-2.37026e-114
-2.23438e-117
-2.10955e-120
-1.97984e-123
-1.83926e-126
-1.69172e-129
-1.54279e-132
-1.39553e-135
-1.25399e-138
-1.11958e-141
-9.93785e-145
-8.77352e-148
-7.70401e-151
-6.73152e-154
-5.85263e-157
-5.06579e-160
-4.3664e-163
-3.75013e-166
-3.2102e-169
-2.74172e-172
-2.33785e-175
-1.99204e-178
-1.69628e-181
-1.44476e-184
-1.23056e-187
-1.04884e-190
-8.94189e-194
-7.62789e-197
-6.50607e-200
-5.54924e-203
-4.7282e-206
-4.02484e-209
-3.41881e-212
-2.89702e-215
-2.44719e-218
-2.05889e-221
-1.72461e-224
-1.43687e-227
-1.19033e-230
-9.79536e-234
-8.00507e-237
-6.49198e-240
-5.22241e-243
-4.16549e-246
-3.29279e-249
-2.57894e-252
-2.00098e-255
-1.53714e-258
-1.1696e-261
-8.80918e-265
-6.5713e-268
-4.85272e-271
-3.55075e-274
-2.57303e-277
-1.84876e-280
-1.3168e-283
-9.30979e-287
-6.53469e-290
-4.56015e-293
-3.16575e-296
-2.18963e-299
-1.51058e-302
-1.04104e-305
-7.17808e-309
-4.95734e-312
-3.4323e-315
-2.08674e-318
0
0
0
0
0
0
0
0
0
0
0
0
0
0
0
0
0
0
0
0
0
0
0
0
0
0
0
0
0
0
0
0
0
0
0
0
0
0
0
0
0
0
0
0
0
0
0
0
0
0
0
0
0
0
0
0
0
0
0
0
0
0
0
0
0
0
0
0
0
0
0
0
0
0
0
0
0
0
0
0
0
0
0
0
0
0
0
0
0
0
0
0
0