/*--------------------------------*- C++ -*----------------------------------*\
| =========                 |                                                 |
| \\      /  F ield         | OpenFOAM: The Open Source CFD Toolbox           |
|  \\    /   O peration     | Version:  2506                                  |
|   \\  /    A nd           | Website:  www.openfoam.com                      |
|    \\/     M anipulation  |                                                 |
\*---------------------------------------------------------------------------*/
FoamFile
{
    version     2.0;
    format      ascii;
    arch        "LSB;label=32;scalar=64";
    class       surfaceScalarField;
    location    "0.5";
    object      phi;
}
// * * * * * * * * * * * * * * * * * * * * * * * * * * * * * * * * * * * * * //

dimensions      [0 3 -1 0 0 0 0];

oriented        oriented;

internalField   nonuniform List<scalar> 
7780
(
2.08007e-09
4.19931e-10
1.64584e-09
4.34228e-10
1.34741e-09
2.98438e-10
1.16196e-09
1.8544e-10
1.05027e-09
1.11697e-10
9.80695e-10
6.95767e-11
9.34359e-10
4.63371e-11
9.0124e-10
3.31213e-11
8.75993e-10
2.52484e-11
8.55736e-10
2.02587e-11
8.38899e-10
1.68383e-11
8.24585e-10
1.4316e-11
8.12226e-10
1.23594e-11
8.01433e-10
1.0795e-11
7.91909e-10
9.52451e-12
7.83418e-10
8.49274e-12
7.75752e-10
7.66691e-12
7.68708e-10
7.04488e-12
7.62081e-10
6.62844e-12
7.55666e-10
6.41618e-12
7.49253e-10
6.41395e-12
7.42625e-10
6.62937e-12
7.35553e-10
7.07267e-12
7.27796e-10
7.75866e-12
7.19089e-10
8.70813e-12
7.09141e-10
9.94918e-12
6.9762e-10
1.15222e-11
6.84114e-10
1.35069e-11
6.68128e-10
1.59879e-11
6.48992e-10
1.91365e-11
6.25735e-10
2.32595e-11
5.96773e-10
2.89636e-11
5.59568e-10
3.72081e-11
5.03404e-10
5.61685e-11
4.52956e-10
5.04495e-11
4.32827e-10
2.01278e-11
4.29656e-10
3.1686e-12
4.33023e-10
-3.36251e-12
4.44369e-10
-1.13191e-11
4.67786e-10
-2.33559e-11
5.16732e-10
-4.88535e-11
5.73903e-10
-5.70802e-11
6.25301e-10
-5.13478e-11
6.72753e-10
-4.74616e-11
7.14335e-10
-4.16487e-11
7.52041e-10
-3.78109e-11
7.88222e-10
-3.62945e-11
8.17357e-10
-2.92289e-11
8.45598e-10
-2.82971e-11
8.70387e-10
-2.48032e-11
8.90234e-10
-1.98283e-11
9.09248e-10
-1.89768e-11
9.19859e-10
-1.05729e-11
9.29795e-10
-9.90698e-12
9.29748e-10
6.29013e-14
9.25714e-10
4.03942e-12
9.13788e-10
1.19253e-11
8.92252e-10
2.15333e-11
8.70112e-10
2.21327e-11
8.33143e-10
3.69536e-11
7.98261e-10
3.48513e-11
7.58172e-10
4.00311e-11
7.16828e-10
4.12497e-11
6.78334e-10
3.83639e-11
6.3781e-10
4.03768e-11
6.03531e-10
3.41591e-11
5.68815e-10
3.46796e-11
5.39885e-10
2.90301e-11
5.12406e-10
2.77349e-11
4.88622e-10
2.4169e-11
4.67999e-10
2.10702e-11
4.48036e-10
2.03821e-11
4.31503e-10
1.68404e-11
4.16226e-10
1.54199e-11
4.02181e-10
1.40096e-11
3.90233e-10
1.17599e-11
3.79555e-10
1.03842e-11
3.69898e-10
9.31617e-12
3.61877e-10
7.68505e-12
3.5521e-10
6.37603e-12
3.49691e-10
5.29679e-12
3.45489e-10
4.05595e-12
3.42472e-10
2.94081e-12
3.40586e-10
1.86652e-12
3.40023e-10
5.87191e-13
3.40351e-10
-2.75541e-13
3.41458e-10
-1.03759e-12
3.43958e-10
-2.4223e-12
3.46979e-10
-2.94233e-12
3.50313e-10
-3.261e-12
3.55061e-10
-4.68434e-12
3.59981e-10
-4.86525e-12
3.65073e-10
-5.04756e-12
3.71584e-10
-6.47491e-12
3.77275e-10
-5.6633e-12
3.84962e-10
-7.66494e-12
3.91594e-10
-6.61517e-12
4.00284e-10
-8.67699e-12
4.07638e-10
-7.34358e-12
4.18437e-10
-1.07916e-11
4.27915e-10
-9.47119e-12
4.39591e-10
-1.16717e-11
4.51308e-10
-1.17137e-11
4.62693e-10
-1.13834e-11
4.76211e-10
-1.35182e-11
4.88288e-10
-1.20803e-11
5.02389e-10
-1.4107e-11
5.15347e-10
-1.29671e-11
5.2862e-10
-1.32851e-11
5.41313e-10
-1.27067e-11
5.53593e-10
-1.22951e-11
5.64446e-10
-1.08645e-11
5.75056e-10
-1.06153e-11
5.82906e-10
-7.84319e-12
5.91744e-10
-8.81197e-12
5.98123e-10
-6.32667e-12
6.03586e-10
-5.37517e-12
6.08832e-10
-5.11281e-12
6.12502e-10
-3.4821e-12
6.15611e-10
-2.85765e-12
6.18794e-10
-2.86449e-12
6.21257e-10
-2.0823e-12
6.23339e-10
-1.65747e-12
6.25961e-10
-2.18586e-12
6.28587e-10
-2.22414e-12
6.31601e-10
-2.6934e-12
6.35165e-10
-3.36961e-12
6.39166e-10
-3.9642e-12
6.44153e-10
-5.12616e-12
6.50801e-10
-6.96403e-12
6.57404e-10
-7.08697e-12
6.65567e-10
-8.7974e-12
6.76487e-10
-1.16763e-11
6.87114e-10
-1.14588e-11
6.99767e-10
-1.34985e-11
7.16274e-10
-1.7282e-11
7.30584e-10
-1.49187e-11
7.49316e-10
-1.90882e-11
7.67286e-10
-1.80211e-11
7.8647e-10
-1.89351e-11
8.05222e-10
-1.82725e-11
8.2222e-10
-1.6407e-11
8.35863e-10
-1.3074e-11
8.46757e-10
-1.04482e-11
8.47952e-10
-9.19898e-13
8.48136e-10
-6.40599e-14
8.32784e-10
1.53664e-11
8.14252e-10
1.85012e-11
7.87136e-10
2.70804e-11
7.52438e-10
3.46787e-11
7.17561e-10
3.48735e-11
6.73603e-10
4.39643e-11
6.33893e-10
3.97213e-11
5.88524e-10
4.53821e-11
5.47739e-10
4.07963e-11
5.03027e-10
4.47205e-11
4.61243e-10
4.17844e-11
4.16683e-10
4.45452e-11
3.73389e-10
4.32654e-11
3.30262e-10
4.30923e-11
3.30278e-10
-4.43456e-14
3.31567e-10
-1.30662e-12
3.34709e-10
-3.15051e-12
3.41204e-10
-6.49921e-12
3.59166e-10
-1.7966e-11
3.87604e-10
-2.84425e-11
4.36808e-10
-4.92096e-11
4.87776e-10
-5.09728e-11
5.34369e-10
-4.65961e-11
5.78722e-10
-4.4356e-11
6.20429e-10
-4.17095e-11
6.58447e-10
-3.80195e-11
6.91797e-10
-3.33507e-11
7.19844e-10
-2.80477e-11
7.42358e-10
-2.25138e-11
7.59476e-10
-1.71183e-11
7.71611e-10
-1.21351e-11
7.79424e-10
-7.81236e-12
7.83761e-10
-4.3367e-12
7.85052e-10
-1.2905e-12
7.84159e-10
8.93417e-13
7.81649e-10
2.51103e-12
7.78108e-10
3.54219e-12
7.74065e-10
4.04442e-12
7.69903e-10
4.16428e-12
7.65914e-10
3.99124e-12
7.62312e-10
3.60355e-12
7.59245e-10
3.06904e-12
7.56803e-10
2.44488e-12
7.5503e-10
1.7751e-12
7.53963e-10
1.06887e-12
7.53506e-10
4.60147e-13
7.53624e-10
-1.16247e-13
7.54265e-10
-6.38938e-13
7.55308e-10
-1.042e-12
7.56671e-10
-1.36095e-12
7.58225e-10
-1.55335e-12
7.59768e-10
-1.54174e-12
7.609e-10
-1.13074e-12
3.65691e-13
2.63693e-09
2.83006e-10
2.59027e-09
4.80887e-10
2.44461e-09
4.441e-10
2.27868e-09
3.5137e-10
2.12984e-09
2.60543e-10
2.01055e-09
1.88867e-10
1.91746e-09
1.39431e-10
1.84357e-09
1.07008e-10
1.78347e-09
8.53484e-11
1.73353e-09
7.0202e-11
1.69132e-09
5.90568e-11
1.65518e-09
5.04504e-11
1.62399e-09
4.35564e-11
1.59688e-09
3.79058e-11
1.57318e-09
3.32191e-11
1.55235e-09
2.9333e-11
1.53386e-09
2.61529e-11
1.51726e-09
2.36479e-11
1.50208e-09
2.1811e-11
1.48785e-09
2.06438e-11
1.47411e-09
2.01591e-11
1.46036e-09
2.03748e-11
1.44612e-09
2.13139e-11
1.43088e-09
2.30067e-11
1.41409e-09
2.54947e-11
1.39521e-09
2.88359e-11
1.37361e-09
3.31162e-11
1.34864e-09
3.84843e-11
1.31949e-09
4.51326e-11
1.28524e-09
5.33906e-11
1.2447e-09
6.37993e-11
1.19639e-09
7.72824e-11
1.13809e-09
9.55091e-11
1.06425e-09
1.3001e-10
9.97381e-10
1.17322e-10
9.64519e-10
5.29876e-11
9.58362e-10
9.31262e-12
9.71908e-10
-1.69377e-11
1.00493e-09
-4.43832e-11
1.06136e-09
-7.98171e-11
1.14954e-09
-1.37032e-10
1.24956e-09
-1.57039e-10
1.34722e-09
-1.4892e-10
1.43988e-09
-1.40037e-10
1.52406e-09
-1.25772e-10
1.60119e-09
-1.14921e-10
1.67298e-09
-1.08117e-10
1.73518e-09
-9.14911e-11
1.793e-09
-8.61891e-11
1.84392e-09
-7.57832e-11
1.88692e-09
-6.28742e-11
1.92415e-09
-5.62207e-11
1.95037e-09
-3.67949e-11
1.96975e-09
-2.92762e-11
1.97535e-09
-5.52264e-12
1.9706e-09
8.80048e-12
1.95288e-09
2.96498e-11
1.92002e-09
5.43882e-11
1.8783e-09
6.38555e-11
1.81805e-09
9.7189e-11
1.75238e-09
1.00494e-10
1.67752e-09
1.14858e-10
1.59786e-09
1.20856e-10
1.51779e-09
1.18397e-10
1.43549e-09
1.22672e-10
1.35831e-09
1.11388e-10
1.28208e-09
1.11025e-10
1.21277e-09
9.84985e-11
1.14715e-09
9.35223e-11
1.087e-09
8.44254e-11
1.03231e-09
7.57801e-11
9.80764e-10
7.18247e-11
9.34432e-10
6.29674e-11
8.91678e-10
5.79051e-11
8.52163e-10
5.32444e-11
8.16557e-10
4.71235e-11
7.84196e-10
4.25742e-11
7.54769e-10
3.86576e-11
7.28669e-10
3.37809e-11
7.05781e-10
2.93269e-11
6.85869e-10
2.53151e-11
6.69037e-10
2.10153e-11
6.55167e-10
1.69393e-11
6.44179e-10
1.29712e-11
6.36179e-10
8.68383e-12
6.30848e-10
5.13042e-12
6.28057e-10
1.80781e-12
6.28067e-10
-2.39725e-12
6.30027e-10
-4.88361e-12
6.33843e-10
-7.0708e-12
6.40095e-10
-1.09393e-11
6.48139e-10
-1.2917e-11
6.57786e-10
-1.47053e-11
6.69844e-10
-1.85436e-11
6.82975e-10
-1.88035e-11
6.98861e-10
-2.35588e-11
7.1581e-10
-2.3571e-11
7.35592e-10
-2.84624e-11
7.56438e-10
-2.81921e-11
7.80134e-10
-3.44889e-11
8.04879e-10
-3.42163e-11
8.32151e-10
-3.89422e-11
8.60844e-10
-4.0405e-11
8.90754e-10
-4.12895e-11
9.22488e-10
-4.52483e-11
9.53484e-10
-4.3071e-11
9.85462e-10
-4.60805e-11
1.01599e-09
-4.34875e-11
1.0456e-09
-4.29028e-11
1.07343e-09
-4.05303e-11
1.09927e-09
-3.81475e-11
1.12295e-09
-3.45722e-11
1.14485e-09
-3.2538e-11
1.16369e-09
-2.6734e-11
1.18172e-09
-2.68994e-11
1.19696e-09
-2.1646e-11
1.21056e-09
-1.90672e-11
1.22314e-09
-1.77993e-11
1.234e-09
-1.44432e-11
1.24405e-09
-1.30063e-11
1.25394e-09
-1.28289e-11
1.26322e-09
-1.13884e-11
1.27244e-09
-1.08421e-11
1.28243e-09
-1.2057e-11
1.29296e-09
-1.25566e-11
1.30449e-09
-1.39624e-11
1.31727e-09
-1.58481e-11
1.33144e-09
-1.78055e-11
1.34761e-09
-2.09662e-11
1.36621e-09
-2.52603e-11
1.38623e-09
-2.68526e-11
1.40906e-09
-3.14227e-11
1.43558e-09
-3.80855e-11
1.46334e-09
-3.92209e-11
1.4946e-09
-4.49045e-11
1.52978e-09
-5.27523e-11
1.56478e-09
-5.03505e-11
1.60362e-09
-5.84313e-11
1.64234e-09
-5.7244e-11
1.68126e-09
-5.82571e-11
1.71859e-09
-5.58391e-11
1.75177e-09
-4.9612e-11
1.77897e-09
-4.01423e-11
1.7985e-09
-2.97472e-11
1.80492e-09
-7.10586e-12
1.80218e-09
2.86006e-12
1.78009e-09
3.75594e-11
1.74677e-09
5.18599e-11
1.69885e-09
7.50028e-11
1.63667e-09
9.68404e-11
1.56703e-09
1.045e-10
1.48437e-09
1.26609e-10
1.40004e-09
1.24049e-10
1.30792e-09
1.37505e-10
1.2171e-09
1.31614e-10
1.12151e-09
1.40307e-10
1.02726e-09
1.36032e-10
9.31712e-10
1.40072e-10
8.41267e-10
1.33693e-10
7.57645e-10
1.26707e-10
7.23404e-10
3.41962e-11
7.05363e-10
1.67324e-11
6.9985e-10
2.35956e-12
7.0866e-10
-1.53134e-11
7.3947e-10
-4.87814e-11
7.94365e-10
-8.33425e-11
8.78177e-10
-1.33027e-10
9.72583e-10
-1.45382e-10
1.06758e-09
-1.41601e-10
1.16071e-09
-1.37481e-10
1.24906e-09
-1.30063e-10
1.32988e-09
-1.18844e-10
1.40098e-09
-1.04449e-10
1.46095e-09
-8.80185e-11
1.50921e-09
-7.0778e-11
1.54592e-09
-5.38273e-11
1.57182e-09
-3.80401e-11
1.58805e-09
-2.40466e-11
1.59589e-09
-1.21763e-11
1.59704e-09
-2.44007e-12
1.59304e-09
4.89624e-12
1.5853e-09
1.02487e-11
1.57512e-09
1.37271e-11
1.56356e-09
1.56091e-11
1.55152e-09
1.61987e-11
1.53973e-09
1.57804e-11
1.52872e-09
1.46165e-11
1.51885e-09
1.29423e-11
1.51034e-09
1.09598e-11
1.50328e-09
8.83568e-12
1.49765e-09
6.70312e-12
1.49342e-09
4.68743e-12
1.49047e-09
2.84122e-12
1.48861e-09
1.21943e-12
1.48768e-09
-1.13387e-13
1.48748e-09
-1.15461e-12
1.48776e-09
-1.83275e-12
1.48825e-09
-2.03188e-12
1.48867e-09
-1.54911e-12
1.64411e-13
2.61191e-09
1.71094e-10
2.71373e-09
3.79076e-10
2.73215e-09
4.25676e-10
2.68756e-09
3.9597e-10
2.61134e-09
3.36767e-10
2.52344e-09
2.76763e-10
2.43818e-09
2.24697e-10
2.3612e-09
1.83983e-10
2.29333e-09
1.53227e-10
2.23389e-09
1.29636e-10
2.18189e-09
1.1106e-10
2.13634e-09
9.60032e-11
2.09637e-09
8.35256e-11
2.06123e-09
7.30466e-11
2.03026e-09
6.41927e-11
2.00286e-09
5.67365e-11
1.97846e-09
5.05495e-11
1.95654e-09
4.55764e-11
1.93654e-09
4.18045e-11
1.91794e-09
3.92456e-11
1.90018e-09
3.7925e-11
1.88268e-09
3.78781e-11
1.86485e-09
3.91476e-11
1.84607e-09
4.17835e-11
1.82572e-09
4.5848e-11
1.80313e-09
5.14248e-11
1.77761e-09
5.86347e-11
1.74844e-09
6.76613e-11
1.7148e-09
7.87716e-11
1.67582e-09
9.23737e-11
1.63053e-09
1.09091e-10
1.57792e-09
1.29891e-10
1.51706e-09
1.56379e-10
1.44574e-09
2.01329e-10
1.38119e-09
1.81873e-10
1.34678e-09
8.73997e-11
1.34377e-09
1.23176e-11
1.3687e-09
-4.18992e-11
1.42043e-09
-9.61594e-11
1.49852e-09
-1.57962e-10
1.60305e-09
-2.41606e-10
1.71743e-09
-2.71417e-10
1.83165e-09
-2.63079e-10
1.94059e-09
-2.48886e-10
2.04056e-09
-2.2566e-10
2.13209e-09
-2.06381e-10
2.21606e-09
-1.92067e-10
2.28994e-09
-1.6539e-10
2.35762e-09
-1.53922e-10
2.41672e-09
-1.34937e-10
2.46671e-09
-1.12926e-10
2.50864e-09
-9.81814e-11
2.53977e-09
-6.79376e-11
2.56138e-09
-5.08799e-11
2.57023e-09
-1.43549e-11
2.56693e-09
1.21035e-11
2.55021e-09
4.63841e-11
2.51848e-09
8.61157e-11
2.47499e-09
1.07337e-10
2.4147e-09
1.5747e-10
2.34467e-09
1.7051e-10
2.26375e-09
1.95751e-10
2.17536e-09
2.09226e-10
2.08256e-09
2.11188e-10
1.98635e-09
2.18921e-10
1.89137e-09
2.06462e-10
1.79686e-09
2.05668e-10
1.70664e-09
1.88845e-10
1.62003e-09
1.80218e-10
1.53825e-09
1.66201e-10
1.46193e-09
1.51972e-10
1.38968e-09
1.43855e-10
1.32284e-09
1.29516e-10
1.26053e-09
1.19913e-10
1.20247e-09
1.11054e-10
1.1491e-09
1.00333e-10
1.10003e-09
9.15834e-11
1.05508e-09
8.3632e-11
1.01447e-09
7.44967e-11
9.78236e-10
6.57036e-11
9.46252e-10
5.74644e-11
9.18637e-10
4.87912e-11
8.95353e-10
4.03608e-11
8.76373e-10
3.20575e-11
8.61775e-10
2.33558e-11
8.51222e-10
1.57264e-11
8.4441e-10
8.63859e-12
8.41709e-10
3.02422e-13
8.42682e-10
-5.87134e-12
8.47011e-10
-1.14227e-11
8.55005e-10
-1.89596e-11
8.66114e-10
-2.40525e-11
8.80026e-10
-2.86405e-11
8.97439e-10
-3.59759e-11
9.17104e-10
-3.84849e-11
9.40394e-10
-4.68615e-11
9.65786e-10
-4.89718e-11
9.94685e-10
-5.73679e-11
1.02541e-09
-5.89225e-11
1.05966e-09
-6.87414e-11
1.09542e-09
-6.99749e-11
1.13385e-09
-7.73709e-11
1.17362e-09
-8.01707e-11
1.21435e-09
-8.2016e-11
1.25612e-09
-8.70163e-11
1.29711e-09
-8.4055e-11
1.33797e-09
-8.69335e-11
1.37715e-09
-8.26639e-11
1.41462e-09
-8.03634e-11
1.44995e-09
-7.58574e-11
1.48281e-09
-7.10103e-11
1.5132e-09
-6.49717e-11
1.54124e-09
-6.0597e-11
1.56651e-09
-5.2043e-11
1.59018e-09
-5.06317e-11
1.61143e-09
-4.29898e-11
1.631e-09
-3.87554e-11
1.64935e-09
-3.62901e-11
1.66632e-09
-3.15877e-11
1.68255e-09
-2.94177e-11
1.6985e-09
-2.89708e-11
1.71413e-09
-2.71724e-11
1.72997e-09
-2.67737e-11
1.74649e-09
-2.86023e-11
1.7638e-09
-2.97922e-11
1.78228e-09
-3.22744e-11
1.80219e-09
-3.55069e-11
1.82377e-09
-3.90726e-11
1.84745e-09
-4.42947e-11
1.87346e-09
-5.0882e-11
1.90147e-09
-5.44813e-11
1.93223e-09
-6.17971e-11
1.96624e-09
-7.17483e-11
2.00189e-09
-7.45931e-11
2.04067e-09
-8.3528e-11
2.08198e-09
-9.40577e-11
2.12381e-09
-9.2354e-11
2.16737e-09
-1.02346e-10
2.21038e-09
-1.00726e-10
2.25187e-09
-1.00252e-10
2.2905e-09
-9.4904e-11
2.32355e-09
-8.29357e-11
2.34966e-09
-6.63318e-11
2.3663e-09
-4.6304e-11
2.37064e-09
-1.12763e-11
2.36322e-09
1.04691e-11
2.33823e-09
6.26903e-11
2.29917e-09
9.09885e-11
2.24477e-09
1.29422e-10
2.17454e-09
1.67065e-10
2.09307e-09
1.85955e-10
1.99733e-09
2.22342e-10
1.89476e-09
2.26612e-10
1.7827e-09
2.49566e-10
1.66733e-09
2.46993e-10
1.54637e-09
2.61262e-10
1.42396e-09
2.58438e-10
1.30099e-09
2.63035e-10
1.18564e-09
2.49044e-10
1.07876e-09
2.3359e-10
1.01381e-09
9.91443e-11
9.74746e-10
5.58003e-11
9.58867e-10
1.82334e-11
9.67739e-10
-2.41927e-11
1.00816e-09
-8.92088e-11
1.07996e-09
-1.55149e-10
1.18306e-09
-2.36128e-10
1.29948e-09
-2.6181e-10
1.4181e-09
-2.60225e-10
1.53422e-09
-2.53597e-10
1.64384e-09
-2.39684e-10
1.74372e-09
-2.18727e-10
1.83146e-09
-1.92192e-10
1.90556e-09
-1.62125e-10
1.96541e-09
-1.30625e-10
2.01115e-09
-9.95688e-11
2.04358e-09
-7.04704e-11
2.06396e-09
-4.44295e-11
2.0739e-09
-2.21218e-11
2.0753e-09
-3.84103e-12
2.06986e-09
1.03398e-11
2.05942e-09
2.06932e-11
2.04557e-09
2.75714e-11
2.02974e-09
3.14414e-11
2.01312e-09
3.28229e-11
1.99666e-09
3.22393e-11
1.98109e-09
3.01894e-11
1.96691e-09
2.71273e-11
1.95442e-09
2.34492e-11
1.94377e-09
1.9486e-11
1.93498e-09
1.55035e-11
1.92796e-09
1.17066e-11
1.92257e-09
8.23625e-12
1.9186e-09
5.19086e-12
1.91584e-09
2.64204e-12
1.91405e-09
6.36851e-13
1.91298e-09
-7.61696e-13
1.91242e-09
-1.466e-12
1.91224e-09
-1.3705e-12
-1.16033e-13
2.56372e-09
1.07378e-10
2.6707e-09
2.72095e-10
2.74859e-09
3.47789e-10
2.78298e-09
3.61583e-10
2.77798e-09
3.4177e-10
2.749e-09
3.05748e-10
2.70595e-09
2.67748e-10
2.65698e-09
2.32953e-10
2.60765e-09
2.02553e-10
2.56055e-09
1.76743e-10
2.51671e-09
1.54898e-10
2.47653e-09
1.36187e-10
2.44e-09
1.2006e-10
2.40691e-09
1.0613e-10
2.377e-09
9.41098e-11
2.34991e-09
8.38243e-11
2.32528e-09
7.518e-11
2.30272e-09
6.81416e-11
2.2818e-09
6.27177e-11
2.2621e-09
5.89478e-11
2.24315e-09
5.68848e-11
2.22443e-09
5.65959e-11
2.20542e-09
5.81599e-11
2.18554e-09
6.16612e-11
2.1642e-09
6.71935e-11
2.14075e-09
7.48709e-11
2.11454e-09
8.4845e-11
2.08488e-09
9.73274e-11
2.05104e-09
1.12618e-10
2.01227e-09
1.31144e-10
1.96784e-09
1.53519e-10
1.91713e-09
1.8061e-10
1.85978e-09
2.13731e-10
1.79466e-09
2.66451e-10
1.73559e-09
2.40941e-10
1.70252e-09
1.20479e-10
1.70012e-09
1.47196e-11
1.72779e-09
-6.959e-11
1.78392e-09
-1.52318e-10
1.86503e-09
-2.39138e-10
1.96711e-09
-3.43752e-10
2.07679e-09
-3.81136e-10
2.18762e-09
-3.73898e-10
2.29375e-09
-3.54965e-10
2.39169e-09
-3.23511e-10
2.48146e-09
-2.96066e-10
2.5636e-09
-2.74149e-10
2.63631e-09
-2.38087e-10
2.70291e-09
-2.20541e-10
2.76051e-09
-1.92581e-10
2.80999e-09
-1.62451e-10
2.85092e-09
-1.39149e-10
2.88234e-09
-9.93744e-11
2.90419e-09
-7.27327e-11
2.91527e-09
-2.54216e-11
2.91507e-09
1.23174e-11
2.90307e-09
5.83925e-11
2.87807e-09
1.11115e-10
2.84147e-09
1.4393e-10
2.79078e-09
2.08158e-10
2.72918e-09
2.32093e-10
2.65633e-09
2.68585e-10
2.57448e-09
2.91063e-10
2.48564e-09
3.00049e-10
2.39137e-09
3.13239e-10
2.29479e-09
3.03136e-10
2.19674e-09
3.03821e-10
2.09993e-09
2.85738e-10
2.00512e-09
2.75052e-10
1.91346e-09
2.5779e-10
1.82617e-09
2.39105e-10
1.74263e-09
2.27169e-10
1.66411e-09
2.07784e-10
1.59026e-09
1.93552e-10
1.52101e-09
1.80146e-10
1.45684e-09
1.64444e-10
1.39753e-09
1.5091e-10
1.34311e-09
1.3815e-10
1.29374e-09
1.24002e-10
1.2496e-09
1.09993e-10
1.21063e-09
9.65844e-11
1.17702e-09
8.25317e-11
1.14879e-09
6.86849e-11
1.12597e-09
5.49409e-11
1.10869e-09
4.06637e-11
1.09672e-09
2.76951e-11
1.08983e-09
1.55104e-11
1.08839e-09
1.70669e-12
1.09181e-09
-9.32127e-12
1.09981e-09
-1.94594e-11
1.11252e-09
-3.17067e-11
1.12938e-09
-4.09383e-11
1.14985e-09
-4.91353e-11
1.17456e-09
-6.07108e-11
1.202e-09
-6.59366e-11
1.23343e-09
-7.82947e-11
1.26698e-09
-8.25327e-11
1.30392e-09
-9.43098e-11
1.34224e-09
-9.7247e-11
1.38352e-09
-1.10021e-10
1.4254e-09
-1.11864e-10
1.46894e-09
-1.20905e-10
1.51259e-09
-1.23819e-10
1.55603e-09
-1.25454e-10
1.59916e-09
-1.30144e-10
1.64059e-09
-1.2548e-10
1.68072e-09
-1.27056e-10
1.71857e-09
-1.20504e-10
1.75406e-09
-1.15844e-10
1.7872e-09
-1.08978e-10
1.81772e-09
-1.01522e-10
1.84592e-09
-9.31684e-11
1.87191e-09
-8.65875e-11
1.89569e-09
-7.58436e-11
1.91806e-09
-7.30317e-11
1.9387e-09
-6.36979e-11
1.95817e-09
-5.83133e-11
1.97687e-09
-5.5118e-11
1.99483e-09
-4.97167e-11
2.0125e-09
-4.72959e-11
2.03032e-09
-4.70037e-11
2.04828e-09
-4.53512e-11
2.06685e-09
-4.55343e-11
2.08637e-09
-4.82409e-11
2.10697e-09
-5.04289e-11
2.12896e-09
-5.4208e-11
2.15254e-09
-5.89335e-11
2.1779e-09
-6.42155e-11
2.20531e-09
-7.14248e-11
2.23479e-09
-8.0044e-11
2.26638e-09
-8.5728e-11
2.3003e-09
-9.53691e-11
2.33677e-09
-1.07854e-10
2.37463e-09
-1.12112e-10
2.4148e-09
-1.23413e-10
2.45618e-09
-1.35256e-10
2.49795e-09
-1.34085e-10
2.53973e-09
-1.4426e-10
2.58035e-09
-1.4165e-10
2.61827e-09
-1.38581e-10
2.65269e-09
-1.29747e-10
2.68115e-09
-1.11743e-10
2.70287e-09
-8.82516e-11
2.7154e-09
-5.88676e-11
2.7176e-09
-1.33779e-11
2.70805e-09
2.01653e-11
2.68448e-09
8.64015e-11
2.64704e-09
1.2852e-10
2.59557e-09
1.8092e-10
2.52879e-09
2.33854e-10
2.44954e-09
2.6519e-10
2.35573e-09
3.16144e-10
2.25207e-09
3.30263e-10
2.13713e-09
3.64511e-10
2.01524e-09
3.68887e-10
1.8864e-09
3.90109e-10
1.75339e-09
3.91445e-10
1.61948e-09
3.96946e-10
1.49502e-09
3.73507e-10
1.37917e-09
3.49458e-10
1.30146e-09
1.76854e-10
1.25443e-09
1.02829e-10
1.23798e-09
3.46749e-11
1.25351e-09
-3.97269e-11
1.30649e-09
-1.42195e-10
1.39325e-09
-2.41921e-10
1.51002e-09
-3.52901e-10
1.63737e-09
-3.89162e-10
1.76428e-09
-3.87135e-10
1.88614e-09
-3.75467e-10
1.99936e-09
-3.52899e-10
2.10124e-09
-3.20611e-10
2.18997e-09
-2.80923e-10
2.26452e-09
-2.3668e-10
2.3246e-09
-1.90709e-10
2.37054e-09
-1.4551e-10
2.40319e-09
-1.03119e-10
2.4238e-09
-6.50432e-11
2.43393e-09
-3.22529e-11
2.43532e-09
-5.2254e-12
2.4297e-09
1.59605e-11
2.41882e-09
3.15717e-11
2.4043e-09
4.20948e-11
2.38758e-09
4.81644e-11
2.36989e-09
5.05055e-11
2.35226e-09
4.98719e-11
2.33546e-09
4.69977e-11
2.32003e-09
4.25613e-11
2.30632e-09
3.71599e-11
2.29451e-09
3.12969e-11
2.28464e-09
2.53769e-11
2.27664e-09
1.97093e-11
2.27036e-09
1.45136e-11
2.26562e-09
9.93647e-12
2.26219e-09
6.07184e-12
2.25985e-09
2.9773e-12
2.25839e-09
6.96464e-13
2.25765e-09
-7.26385e-13
2.25756e-09
-1.27678e-12
-6.51942e-13
2.53695e-09
7.04297e-11
2.61782e-09
1.91227e-10
2.70118e-09
2.64434e-10
2.76648e-09
2.96281e-10
2.80804e-09
3.00211e-10
2.8265e-09
2.87289e-10
2.82743e-09
2.66816e-10
2.81695e-09
2.43437e-10
2.79952e-09
2.19986e-10
2.77822e-09
1.98045e-10
2.7552e-09
1.77918e-10
2.73183e-09
1.59553e-10
2.70884e-09
1.43055e-10
2.68662e-09
1.28353e-10
2.66536e-09
1.15367e-10
2.64511e-09
1.04077e-10
2.6258e-09
9.44868e-11
2.60732e-09
8.66256e-11
2.58949e-09
8.05525e-11
2.57208e-09
7.63585e-11
2.55483e-09
7.41335e-11
2.53743e-09
7.39926e-11
2.51953e-09
7.60705e-11
2.50069e-09
8.05025e-11
2.48045e-09
8.74296e-11
2.45831e-09
9.70097e-11
2.43373e-09
1.09433e-10
2.40611e-09
1.24942e-10
2.37488e-09
1.43855e-10
2.33943e-09
1.66597e-10
2.29921e-09
1.93734e-10
2.25382e-09
2.26003e-10
2.20311e-09
2.64446e-10
2.14629e-09
3.23276e-10
2.09405e-09
2.93179e-10
2.06226e-09
1.52274e-10
2.05679e-09
2.02005e-11
2.07914e-09
-9.19424e-11
2.12779e-09
-2.00983e-10
2.19807e-09
-3.0947e-10
2.2848e-09
-4.30543e-10
2.37801e-09
-4.74409e-10
2.47403e-09
-4.69957e-10
2.56669e-09
-4.47614e-10
2.65263e-09
-4.09403e-10
2.73162e-09
-3.74983e-10
2.80397e-09
-3.46423e-10
2.86926e-09
-3.03332e-10
2.92774e-09
-2.79004e-10
2.97887e-09
-2.43728e-10
3.0235e-09
-2.07113e-10
3.06038e-09
-1.7606e-10
3.08966e-09
-1.28676e-10
3.11063e-09
-9.37045e-11
3.12325e-09
-3.80327e-11
3.12664e-09
8.93811e-12
3.12073e-09
6.43057e-11
3.10463e-09
1.27221e-10
3.07856e-09
1.69994e-10
3.04154e-09
2.45176e-10
2.99435e-09
2.79272e-10
2.93675e-09
3.26178e-10
2.87001e-09
3.57805e-10
2.79495e-09
3.75129e-10
2.71317e-09
3.95067e-10
2.62642e-09
3.89959e-10
2.53623e-09
3.94082e-10
2.44445e-09
3.77555e-10
2.35258e-09
3.66897e-10
2.26179e-09
3.48485e-10
2.1737e-09
3.27036e-10
2.08832e-09
3.12358e-10
2.00711e-09
2.88825e-10
1.9301e-09
2.70433e-10
1.85756e-09
2.52635e-10
1.79009e-09
2.31937e-10
1.72763e-09
2.13447e-10
1.67038e-09
1.95528e-10
1.61852e-09
1.75994e-10
1.57235e-09
1.56305e-10
1.53179e-09
1.37254e-10
1.4971e-09
1.17305e-10
1.46831e-09
9.75145e-11
1.44548e-09
7.7788e-11
1.42876e-09
5.73584e-11
1.41796e-09
3.84625e-11
1.41283e-09
2.05983e-11
1.41375e-09
7.42717e-13
1.41995e-09
-1.55727e-11
1.43125e-09
-3.0797e-11
1.44763e-09
-4.81183e-11
1.46847e-09
-6.18017e-11
1.493e-09
-7.36863e-11
1.5218e-09
-8.95298e-11
1.55306e-09
-9.72056e-11
1.58794e-09
-1.13178e-10
1.62431e-09
-1.18908e-10
1.66328e-09
-1.33279e-10
1.70268e-09
-1.36648e-10
1.74389e-09
-1.51235e-10
1.78456e-09
-1.52536e-10
1.82565e-09
-1.61989e-10
1.86567e-09
-1.63843e-10
1.90454e-09
-1.64319e-10
1.94208e-09
-1.67678e-10
1.97746e-09
-1.60852e-10
2.01093e-09
-1.60526e-10
2.0421e-09
-1.5166e-10
2.07087e-09
-1.44603e-10
2.09758e-09
-1.35675e-10
2.12203e-09
-1.25949e-10
2.14471e-09
-1.15836e-10
2.16567e-09
-1.07531e-10
2.18519e-09
-9.53476e-11
2.20371e-09
-9.15592e-11
2.22128e-09
-8.12851e-11
2.23824e-09
-7.53203e-11
2.25494e-09
-7.1906e-11
2.2715e-09
-6.6406e-11
2.28822e-09
-6.41911e-11
2.30545e-09
-6.44497e-11
2.32323e-09
-6.33648e-11
2.34194e-09
-6.44736e-11
2.36176e-09
-6.82637e-11
2.38286e-09
-7.16639e-11
2.40546e-09
-7.68607e-11
2.42968e-09
-8.31174e-11
2.45567e-09
-9.00901e-11
2.48352e-09
-9.91017e-11
2.51307e-09
-1.09368e-10
2.54468e-09
-1.17092e-10
2.57819e-09
-1.2861e-10
2.61339e-09
-1.42765e-10
2.64958e-09
-1.47991e-10
2.68727e-09
-1.60798e-10
2.72513e-09
-1.72857e-10
2.76311e-09
-1.71871e-10
2.79993e-09
-1.8102e-10
2.83525e-09
-1.77066e-10
2.86735e-09
-1.70911e-10
2.89594e-09
-1.58647e-10
2.91897e-09
-1.35091e-10
2.93624e-09
-1.05759e-10
2.9456e-09
-6.8349e-11
2.94692e-09
-1.46971e-11
2.93814e-09
2.90296e-11
2.91896e-09
1.05688e-10
2.88777e-09
1.59799e-10
2.84495e-09
2.23781e-10
2.78859e-09
2.90228e-10
2.72025e-09
3.3352e-10
2.63809e-09
3.98293e-10
2.54483e-09
4.23513e-10
2.43924e-09
4.70104e-10
2.32451e-09
4.83621e-10
2.2008e-09
5.13816e-10
2.07086e-09
5.21389e-10
1.93912e-09
5.2869e-10
1.81848e-09
4.94168e-10
1.70703e-09
4.60917e-10
1.63272e-09
2.51168e-10
1.59141e-09
1.4414e-10
1.58447e-09
4.15998e-11
1.61271e-09
-6.79712e-11
1.67982e-09
-2.09308e-10
1.7784e-09
-3.40507e-10
1.9018e-09
-4.76305e-10
2.03006e-09
-5.1743e-10
2.15339e-09
-5.10466e-10
2.26836e-09
-4.90442e-10
2.37248e-09
-4.57018e-10
2.46414e-09
-4.1228e-10
2.54249e-09
-3.59274e-10
2.60727e-09
-3.01465e-10
2.65875e-09
-2.42186e-10
2.69758e-09
-1.84344e-10
2.72476e-09
-1.30298e-10
2.74151e-09
-8.17968e-11
2.74924e-09
-3.99753e-11
2.74941e-09
-5.40201e-12
2.74354e-09
2.18323e-11
2.73309e-09
4.20261e-11
2.71943e-09
5.57558e-11
2.70381e-09
6.37898e-11
2.6873e-09
6.70185e-11
2.67079e-09
6.63828e-11
2.65498e-09
6.28123e-11
2.64036e-09
5.71746e-11
2.62729e-09
5.02393e-11
2.61593e-09
4.26596e-11
2.60634e-09
3.49655e-11
2.59849e-09
2.75627e-11
2.59226e-09
2.07413e-11
2.5875e-09
1.46937e-11
2.58404e-09
9.53632e-12
2.58169e-09
5.3298e-12
2.58029e-09
2.09788e-12
2.57972e-09
-1.54004e-13
2.57992e-09
-1.47873e-12
-1.55684e-12
2.52314e-09
4.72952e-11
2.58145e-09
1.32914e-10
2.65358e-09
1.92305e-10
2.72404e-09
2.25817e-10
2.78429e-09
2.39968e-10
2.83085e-09
2.40728e-10
2.86446e-09
2.33204e-10
2.88683e-09
2.21068e-10
2.90005e-09
2.06765e-10
2.90656e-09
1.91535e-10
2.90839e-09
1.7609e-10
2.90671e-09
1.61233e-10
2.90237e-09
1.47389e-10
2.89613e-09
1.34597e-10
2.88845e-09
1.23044e-10
2.87965e-09
1.12878e-10
2.86993e-09
1.04208e-10
2.85942e-09
9.714e-11
2.84818e-09
9.179e-11
2.83622e-09
8.83239e-11
2.82351e-09
8.68457e-11
2.80997e-09
8.75322e-11
2.79545e-09
9.05864e-11
2.77976e-09
9.62003e-11
2.76262e-09
1.0457e-10
2.74372e-09
1.15905e-10
2.72271e-09
1.30446e-10
2.69918e-09
1.48474e-10
2.67271e-09
1.70331e-10
2.64287e-09
1.9644e-10
2.60928e-09
2.27326e-10
2.57167e-09
2.63612e-10
2.52998e-09
3.06143e-10
2.48368e-09
3.69581e-10
2.43984e-09
3.37015e-10
2.40945e-09
1.82677e-10
2.39896e-09
3.06936e-11
2.41174e-09
-1.0471e-10
2.44677e-09
-2.36009e-10
2.49936e-09
-3.6209e-10
2.56462e-09
-4.95853e-10
2.63615e-09
-5.46002e-10
2.71245e-09
-5.46321e-10
2.78704e-09
-5.22227e-10
2.85661e-09
-4.78962e-10
2.92073e-09
-4.39061e-10
2.97957e-09
-4.052e-10
3.0338e-09
-3.57501e-10
3.0813e-09
-3.26468e-10
3.12362e-09
-2.86032e-10
3.16078e-09
-2.44279e-10
3.19177e-09
-2.07074e-10
3.21735e-09
-1.54269e-10
3.23644e-09
-1.1281e-10
3.24983e-09
-5.14136e-11
3.25646e-09
2.3062e-12
3.25664e-09
6.41369e-11
3.24973e-09
1.34138e-10
3.23525e-09
1.84468e-10
3.21322e-09
2.67202e-10
3.18289e-09
3.09592e-10
3.14396e-09
3.65106e-10
3.09693e-09
4.04847e-10
3.04158e-09
4.30515e-10
2.97926e-09
4.57432e-10
2.91046e-09
4.58813e-10
2.8369e-09
4.67685e-10
2.75953e-09
4.54919e-10
2.68017e-09
4.46197e-10
2.59983e-09
4.28712e-10
2.52035e-09
4.0638e-10
2.44214e-09
3.90428e-10
2.36681e-09
3.64054e-10
2.29475e-09
3.42449e-10
2.22648e-09
3.20926e-10
2.16277e-09
2.95719e-10
2.10372e-09
2.72617e-10
2.04965e-09
2.49719e-10
2.00079e-09
2.24987e-10
1.95746e-09
1.99737e-10
1.91958e-09
1.75203e-10
1.88739e-09
1.49535e-10
1.86088e-09
1.24022e-10
1.84008e-09
9.85703e-11
1.82513e-09
7.22616e-11
1.8158e-09
4.77299e-11
1.81182e-09
2.45234e-11
1.81356e-09
-1.04733e-12
1.82016e-09
-2.22144e-11
1.83151e-09
-4.21763e-11
1.84742e-09
-6.40592e-11
1.86737e-09
-8.17644e-11
1.8904e-09
-9.67364e-11
1.91708e-09
-1.1622e-10
1.9455e-09
-1.25632e-10
1.97669e-09
-1.44372e-10
2.00854e-09
-1.50759e-10
2.04199e-09
-1.66725e-10
2.075e-09
-1.69663e-10
2.10875e-09
-1.84988e-10
2.1412e-09
-1.84986e-10
2.17324e-09
-1.94026e-10
2.20365e-09
-1.94251e-10
2.23263e-09
-1.933e-10
2.25999e-09
-1.95029e-10
2.28549e-09
-1.86353e-10
2.30924e-09
-1.84267e-10
2.33134e-09
-1.73752e-10
2.35165e-09
-1.64893e-10
2.37071e-09
-1.5472e-10
2.38829e-09
-1.43504e-10
2.40498e-09
-1.32507e-10
2.42069e-09
-1.23207e-10
2.43583e-09
-1.10464e-10
2.45053e-09
-1.06226e-10
2.46501e-09
-9.57489e-11
2.47942e-09
-8.97344e-11
2.49402e-09
-8.65343e-11
2.50895e-09
-8.14035e-11
2.52435e-09
-7.97166e-11
2.5405e-09
-8.07717e-11
2.55742e-09
-8.05008e-11
2.5754e-09
-8.27026e-11
2.59452e-09
-8.76228e-11
2.61493e-09
-9.22742e-11
2.63676e-09
-9.88381e-11
2.66008e-09
-1.06494e-10
2.68496e-09
-1.14956e-10
2.71138e-09
-1.25434e-10
2.73908e-09
-1.36927e-10
2.76872e-09
-1.46568e-10
2.79931e-09
-1.59011e-10
2.8311e-09
-1.74344e-10
2.86337e-09
-1.80034e-10
2.89641e-09
-1.93576e-10
2.9288e-09
-2.04991e-10
2.96104e-09
-2.0387e-10
2.99142e-09
-2.11219e-10
3.02023e-09
-2.05802e-10
3.04577e-09
-1.96512e-10
3.06823e-09
-1.8127e-10
3.08599e-09
-1.53075e-10
3.09934e-09
-1.19334e-10
3.1065e-09
-7.56705e-11
3.10815e-09
-1.64102e-11
3.10194e-09
3.52482e-11
3.08893e-09
1.18765e-10
3.06658e-09
1.82224e-10
3.0356e-09
2.54801e-10
2.9937e-09
3.32141e-10
2.94156e-09
3.85662e-10
2.8774e-09
4.62449e-10
2.80239e-09
4.98515e-10
2.71516e-09
5.57329e-10
2.61781e-09
5.80971e-10
2.50966e-09
6.21963e-10
2.39411e-09
6.36943e-10
2.27562e-09
6.4719e-10
2.16966e-09
6.0014e-10
2.07365e-09
5.56941e-10
2.01345e-09
3.11373e-10
1.98646e-09
1.71132e-10
1.9943e-09
3.37596e-11
2.03668e-09
-1.10367e-10
2.11521e-09
-2.87839e-10
2.21915e-09
-4.44456e-10
2.33984e-09
-5.96991e-10
2.45893e-09
-6.36523e-10
2.56875e-09
-6.20288e-10
2.66733e-09
-5.8903e-10
2.75347e-09
-5.43157e-10
2.82669e-09
-4.85503e-10
2.88709e-09
-4.19684e-10
2.93523e-09
-3.49608e-10
2.97195e-09
-2.78909e-10
2.99829e-09
-2.10687e-10
3.01543e-09
-1.47435e-10
3.02461e-09
-9.09736e-11
3.02708e-09
-4.24487e-11
3.02408e-09
-2.39386e-12
3.01675e-09
2.91567e-11
3.00621e-09
5.25714e-11
2.99346e-09
6.85131e-11
2.97939e-09
7.78589e-11
2.96479e-09
8.16218e-11
2.9503e-09
8.08754e-11
2.93642e-09
7.66866e-11
2.92355e-09
7.00534e-11
2.91192e-09
6.18634e-11
2.90171e-09
5.28758e-11
2.89297e-09
4.3712e-11
2.88568e-09
3.48506e-11
2.87979e-09
2.66346e-11
2.87519e-09
1.92926e-11
2.87177e-09
1.29601e-11
2.8694e-09
7.70087e-12
2.86797e-09
3.52485e-12
2.8674e-09
4.12606e-13
2.86766e-09
-1.73021e-12
-2.58945e-12
2.51582e-09