/*--------------------------------*- C++ -*----------------------------------*\
| =========                 |                                                 |
| \\      /  F ield         | OpenFOAM: The Open Source CFD Toolbox           |
|  \\    /   O peration     | Version:  2506                                  |
|   \\  /    A nd           | Website:  www.openfoam.com                      |
|    \\/     M anipulation  |                                                 |
\*---------------------------------------------------------------------------*/
FoamFile
{
    version     2.0;
    format      ascii;
    arch        "LSB;label=32;scalar=64";
    class       volScalarField;
    location    "5";
    object      p;
}
// * * * * * * * * * * * * * * * * * * * * * * * * * * * * * * * * * * * * * //

dimensions      [0 2 -2 0 0 0 0];

internalField   nonuniform List<scalar> 
4000
(
-7.43562e-05
-2.75128e-05
-1.14095e-05
-6.59252e-06
-3.49302e-06
-1.54781e-06
-5.65624e-07
-6.19461e-08
2.18963e-07
3.67551e-07
4.34842e-07
4.59412e-07
4.67692e-07
4.77739e-07
5.02981e-07
5.53808e-07
6.38171e-07
7.61925e-07
9.28996e-07
1.14138e-06
1.39901e-06
1.69945e-06
2.03748e-06
2.40443e-06
2.78729e-06
3.16725e-06
3.5174e-06
3.79872e-06
3.9544e-06
3.92545e-06
3.5576e-06
2.23019e-06
5.40149e-07
-1.25493e-06
-3.26284e-06
-5.57877e-06
-8.00723e-06
-1.15337e-05
-1.38281e-05
-1.39264e-05
-1.38689e-05
-1.35371e-05
-1.28521e-05
-1.20355e-05
-1.12241e-05
-1.05065e-05
-9.90473e-06
-9.62523e-06
-9.55557e-06
-9.62618e-06
-9.60518e-06
-9.13959e-06
-8.78603e-06
-7.33891e-06
-5.44291e-06
-2.4185e-06
7.2437e-07
4.75789e-06
8.40101e-06
1.04285e-05
1.08943e-05
1.00484e-05
7.99571e-06
6.03135e-06
4.27618e-06
3.04465e-06
2.19713e-06
1.58539e-06
1.13443e-06
7.80543e-07
5.00398e-07
2.7731e-07
9.6752e-08
-5.41596e-08
-1.81955e-07
-2.91329e-07
-3.85483e-07
-4.66723e-07
-5.37308e-07
-5.98464e-07
-6.5124e-07
-6.96247e-07
-7.35219e-07
-7.67762e-07
-7.95482e-07
-8.17963e-07
-8.37326e-07
-8.53761e-07
-8.68068e-07
-8.82126e-07
-8.98992e-07
-9.19514e-07
-9.50523e-07
-9.92548e-07
-1.0562e-06
-1.14801e-06
-1.27553e-06
-1.46541e-06
-1.72501e-06
-2.08983e-06
-2.58663e-06
-3.23153e-06
-4.02147e-06
-4.92437e-06
-5.90318e-06
-6.8991e-06
-7.71467e-06
-8.22206e-06
-8.32892e-06
-7.9253e-06
-6.89767e-06
-4.98686e-06
-2.89706e-06
-3.60228e-08
2.54617e-06
4.92199e-06
6.63532e-06
7.28424e-06
7.03501e-06
6.2833e-06
5.1189e-06
3.92031e-06
2.92201e-06
2.2308e-06
1.73755e-06
1.38533e-06
1.1254e-06
9.27351e-07
7.77832e-07
6.61689e-07
5.69282e-07
4.95157e-07
4.34836e-07
3.85665e-07
3.4535e-07
3.12221e-07
2.85003e-07
2.62654e-07
2.44472e-07
2.29452e-07
2.17264e-07
2.07727e-07
1.99972e-07
1.94239e-07
1.89881e-07
1.86756e-07
1.84803e-07
1.83667e-07
1.82758e-07
1.8186e-07
1.79699e-07
1.7441e-07
1.63274e-07
1.43544e-07
1.07541e-07
4.93568e-08
-4.28769e-08
-1.90299e-07
-4.08517e-07
-7.06442e-07
-1.0692e-06
-1.42018e-06
-1.75837e-06
-1.0202e-06
-3.19608e-07
3.84546e-07
1.48672e-06
2.81993e-06
4.22617e-06
5.5072e-06
6.36887e-06
6.8494e-06
7.46599e-06
8.1792e-06
8.93677e-06
9.76382e-06
1.06911e-05
1.173e-05
1.28899e-05
1.41803e-05
1.56117e-05
1.72007e-05
1.89462e-05
2.08466e-05
2.29079e-05
2.51335e-05
2.75276e-05
3.00975e-05
3.28574e-05
3.58319e-05
3.90632e-05
4.26211e-05
4.66206e-05
5.12547e-05
5.68602e-05
6.40605e-05
7.40758e-05
8.96811e-05
0.000119315
0.000180827
-4.05429e-05
-2.11364e-05
-1.21846e-05
-7.81902e-06
-4.967e-06
-3.08579e-06
-1.9268e-06
-1.2052e-06
-7.4112e-07
-4.43254e-07
-2.53796e-07
-1.30025e-07
-4.11389e-08
3.5024e-08
1.1505e-07
2.11654e-07
3.34534e-07
4.90886e-07
6.85693e-07
9.21821e-07
1.19996e-06
1.51841e-06
1.87273e-06
2.2552e-06
2.65401e-06
3.05218e-06
3.42575e-06
3.74092e-06
3.95053e-06
4.01115e-06
3.82638e-06
2.87877e-06
1.59548e-06
1.89501e-07
-1.41464e-06
-3.29926e-06
-5.33579e-06
-8.01383e-06
-9.70253e-06
-1.0066e-05
-1.03566e-05
-1.0453e-05
-1.02565e-05
-9.94809e-06
-9.64879e-06
-9.42372e-06
-9.32451e-06
-9.39928e-06
-9.56458e-06
-9.71526e-06
-9.73718e-06
-9.41582e-06
-8.93349e-06
-7.66151e-06
-5.96038e-06
-3.52361e-06
-9.21119e-07
2.12765e-06
4.87148e-06
6.77418e-06
7.73265e-06
8.12979e-06
7.36084e-06
6.35891e-06
4.97004e-06
3.71734e-06
2.7086e-06
1.96903e-06
1.45334e-06
1.05443e-06
7.30039e-07
4.64749e-07
2.50678e-07
7.36648e-08
-7.38361e-08
-1.98781e-07
-3.05758e-07
-3.98047e-07
-4.78487e-07
-5.48599e-07
-6.09719e-07
-6.62551e-07
-7.08968e-07
-7.48664e-07
-7.83346e-07
-8.12639e-07
-8.38564e-07
-8.61877e-07
-8.83807e-07
-9.07076e-07
-9.35133e-07
-9.69956e-07
-1.0178e-06
-1.0825e-06
-1.17367e-06
-1.30007e-06
-1.47017e-06
-1.70847e-06
-2.03741e-06
-2.46429e-06
-3.0075e-06
-3.66617e-06
-4.42738e-06
-5.24839e-06
-6.06339e-06
-6.78185e-06
-7.28766e-06
-7.45112e-06
-7.20601e-06
-6.51843e-06
-5.34144e-06
-3.61204e-06
-1.79048e-06
4.71267e-07
2.41254e-06
4.13401e-06
5.36952e-06
5.88702e-06
5.8028e-06
5.40635e-06
4.722e-06
3.96288e-06
3.1483e-06
2.47116e-06
1.9343e-06
1.54641e-06
1.26686e-06
1.04531e-06
8.72865e-07
7.37342e-07
6.29707e-07
5.44281e-07
4.7497e-07
4.18623e-07
3.72423e-07
3.3437e-07
3.0301e-07
2.77101e-07
2.5586e-07
2.38194e-07
2.2362e-07
2.11936e-07
2.02171e-07
1.94552e-07
1.88407e-07
1.83538e-07
1.79725e-07
1.76426e-07
1.72656e-07
1.67668e-07
1.59785e-07
1.46354e-07
1.24263e-07
8.87101e-08
3.22014e-08
-5.87405e-08
-1.88817e-07
-3.67343e-07
-6.01723e-07
-8.74628e-07
-1.13231e-06
-1.26491e-06
-1.23566e-06
-2.62437e-07
4.34928e-07
1.14019e-06
2.1654e-06
3.30013e-06
4.4249e-06
5.45814e-06
6.24727e-06
6.79613e-06
7.44673e-06
8.18873e-06
8.98256e-06
9.84968e-06
1.08147e-05
1.18922e-05
1.30923e-05
1.4426e-05
1.5902e-05
1.75203e-05
1.92889e-05
2.12151e-05
2.33008e-05
2.55482e-05
2.79615e-05
3.05487e-05
3.33245e-05
3.63151e-05
3.95642e-05
4.31435e-05
4.71687e-05
5.18283e-05
5.74328e-05
6.45039e-05
7.38927e-05
8.68468e-05
0.000105196
0.000132541
-2.27132e-05
-1.63699e-05
-1.17291e-05
-8.39426e-06
-5.95519e-06
-4.20037e-06
-2.9801e-06
-2.14189e-06
-1.56392e-06
-1.16428e-06
-8.85773e-07
-6.85784e-07
-5.32369e-07
-4.01546e-07
-2.75023e-07
-1.38668e-07
1.84024e-08
2.04395e-07
4.25175e-07
6.8442e-07
9.83606e-07
1.32186e-06
1.69566e-06
2.09842e-06
2.51985e-06
2.94508e-06
3.3534e-06
3.71609e-06
3.99435e-06
4.15912e-06
4.15944e-06
3.58772e-06
2.74363e-06
1.7581e-06
5.60277e-07
-9.50881e-07
-2.64875e-06
-4.71717e-06
-6.10432e-06
-6.78706e-06
-7.43116e-06
-7.89135e-06
-8.08447e-06
-8.16013e-06
-8.22001e-06
-8.32556e-06
-8.48816e-06
-8.65667e-06
-8.84261e-06
-8.96409e-06
-8.91404e-06
-8.57236e-06
-7.98725e-06
-6.89524e-06
-5.5091e-06
-3.72985e-06
-1.88015e-06
1.82712e-07
2.17643e-06
3.87735e-06
5.06764e-06
6.17368e-06
6.21737e-06
5.96104e-06
5.11991e-06
4.13224e-06
3.18774e-06
2.3845e-06
1.7677e-06
1.29973e-06
9.42658e-07
6.48823e-07
4.09304e-07
2.07202e-07
3.88504e-08
-1.03707e-07
-2.24793e-07
-3.28744e-07
-4.19205e-07
-4.98251e-07
-5.67603e-07
-6.28234e-07
-6.82242e-07
-7.29303e-07
-7.71325e-07
-8.08085e-07
-8.4182e-07
-8.73614e-07
-9.05116e-07
-9.3959e-07
-9.80836e-07
-1.03159e-06
-1.09837e-06
-1.18614e-06
-1.30459e-06
-1.4624e-06
-1.67658e-06
-1.95199e-06
-2.30784e-06
-2.75367e-06
-3.29338e-06
-3.90175e-06
-4.55068e-06
-5.19275e-06
-5.75815e-06
-6.16438e-06
-6.32883e-06
-6.17007e-06
-5.66468e-06
-4.8221e-06
-3.65226e-06
-2.17049e-06
-6.73007e-07
9.33348e-07
2.24574e-06
3.36962e-06
4.19018e-06
4.62172e-06
4.70057e-06
4.62804e-06
4.23591e-06
3.7765e-06
3.17697e-06
2.60449e-06
2.09038e-06
1.68828e-06
1.38281e-06
1.14495e-06
9.58503e-07
8.09784e-07
6.88699e-07
5.92745e-07
5.14226e-07
4.50648e-07
3.98539e-07
3.55565e-07
3.20091e-07
2.9066e-07
2.66387e-07
2.46039e-07
2.29056e-07
2.15216e-07
2.03367e-07
1.93752e-07
1.85574e-07
1.78489e-07
1.72118e-07
1.65617e-07
1.57751e-07
1.47295e-07
1.32217e-07
1.08798e-07
7.42295e-08
1.95855e-08
-5.6805e-08
-1.61475e-07
-3.00935e-07
-4.72956e-07
-6.6446e-07
-8.24035e-07
-8.77571e-07
-7.41139e-07
-4.37179e-07
5.9383e-07
1.21988e-06
1.85831e-06
2.74895e-06
3.65872e-06
4.53368e-06
5.36782e-06
6.09545e-06
6.70336e-06
7.39491e-06
8.16449e-06
8.98837e-06
9.88619e-06
1.0881e-05
1.19871e-05
1.32151e-05
1.45751e-05
1.60753e-05
1.7721e-05
1.95182e-05
2.14704e-05
2.35784e-05
2.58441e-05
2.82708e-05
3.08658e-05
3.36423e-05
3.66243e-05
3.98518e-05
4.3389e-05
4.73373e-05
5.18527e-05
5.71707e-05
6.36308e-05
7.16376e-05
8.12771e-05
9.14451e-05
0.000102851
-1.49084e-05
-1.25393e-05
-1.01296e-05
-7.84752e-06
-6.0086e-06
-4.56731e-06
-3.47189e-06
-2.66605e-06
-2.07887e-06
-1.6513e-06
-1.33731e-06
-1.10043e-06
-9.11845e-07
-7.48859e-07
-5.93555e-07
-4.31758e-07
-2.52306e-07
-4.65836e-08
1.91769e-07
4.67005e-07
7.81269e-07
1.13448e-06
1.52408e-06
1.94469e-06
2.38759e-06
2.84007e-06
3.28441e-06
3.69611e-06
4.04271e-06
4.30207e-06
4.43961e-06
4.13991e-06
3.60036e-06
2.88748e-06
1.94144e-06
6.62596e-07
-8.23139e-07
-2.56516e-06
-3.86899e-06
-4.76574e-06
-5.59784e-06
-6.24645e-06
-6.66297e-06
-6.96627e-06
-7.22704e-06
-7.48898e-06
-7.71021e-06
-7.88218e-06
-8.04401e-06
-8.11504e-06
-7.95554e-06
-7.53379e-06
-6.87292e-06
-5.87841e-06
-4.69902e-06
-3.3293e-06
-1.9561e-06
-5.1168e-07
9.05902e-07
2.24253e-06
3.32721e-06
4.47169e-06
4.90726e-06
5.08792e-06
4.75552e-06
4.19996e-06
3.44551e-06
2.68858e-06
2.05852e-06
1.54752e-06
1.13033e-06
7.97797e-07
5.38297e-07
3.21015e-07
1.39916e-07
-1.67349e-08
-1.50414e-07
-2.65653e-07
-3.65621e-07
-4.52887e-07
-5.29499e-07
-5.96926e-07
-6.57712e-07
-7.11531e-07
-7.60495e-07
-8.04532e-07
-8.46143e-07
-8.86683e-07
-9.28106e-07
-9.74022e-07
-1.02843e-06
-1.0946e-06
-1.17968e-06
-1.28832e-06
-1.43498e-06
-1.61762e-06
-1.85152e-06
-2.14932e-06
-2.51528e-06
-2.94783e-06
-3.434e-06
-3.94965e-06
-4.45747e-06
-4.9078e-06
-5.23845e-06
-5.38683e-06
-5.30383e-06
-4.94644e-06
-4.32365e-06
-3.46723e-06
-2.41247e-06
-1.19302e-06
-3.60076e-09
1.12279e-06
2.0491e-06
2.83096e-06
3.41537e-06
3.77632e-06
3.91711e-06
3.97213e-06
3.75436e-06
3.44902e-06
3.03827e-06
2.61563e-06
2.15602e-06
1.77594e-06
1.47121e-06
1.22013e-06
1.01776e-06
8.62784e-07
7.33766e-07
6.32026e-07
5.46428e-07
4.77068e-07
4.19818e-07
3.72569e-07
3.33563e-07
3.01161e-07
2.74336e-07
2.51685e-07
2.32593e-07
2.16834e-07
2.03047e-07
1.91476e-07
1.81174e-07
1.71646e-07
1.62371e-07
1.52329e-07
1.40118e-07
1.23727e-07
1.0098e-07
6.65285e-08
2.07163e-08
-4.14776e-08
-1.24726e-07
-2.29379e-07
-3.53063e-07
-4.76724e-07
-5.7738e-07
-5.89441e-07
-4.53605e-07
-1.44164e-07
2.62944e-07
1.22582e-06
1.77205e-06
2.33533e-06
3.09484e-06
3.85017e-06
4.58425e-06
5.31218e-06
6.00141e-06
6.63656e-06
7.34444e-06
8.12307e-06
8.96092e-06
9.8758e-06
1.08882e-05
1.2012e-05
1.32579e-05
1.46358e-05
1.6154e-05
1.78184e-05
1.96331e-05
2.15997e-05
2.37186e-05
2.59902e-05
2.84158e-05
3.09996e-05
3.3751e-05
3.66879e-05
3.98407e-05
4.32581e-05
4.7014e-05
5.1215e-05
5.60016e-05
6.15293e-05
6.7879e-05
7.47416e-05
8.0779e-05
8.62642e-05
-1.04795e-05
-9.60337e-06
-8.4007e-06
-6.93878e-06
-5.60265e-06
-4.49878e-06
-3.60057e-06
-2.89592e-06
-2.35554e-06
-1.94439e-06
-1.62971e-06
-1.38306e-06
-1.18048e-06
-1.00208e-06
-8.31554e-07
-6.55575e-07
-4.63371e-07
-2.46412e-07
1.78617e-09
2.8577e-07
6.08136e-07
9.69417e-07
1.36785e-06
1.79908e-06
2.25569e-06
2.72672e-06
3.19674e-06
3.64434e-06
4.04139e-06
4.36833e-06
4.5956e-06
4.48203e-06
4.14441e-06
3.6057e-06
2.8204e-06
1.70266e-06
3.72858e-07
-1.1559e-06
-2.40761e-06
-3.40052e-06
-4.31117e-06
-5.05707e-06
-5.6052e-06
-6.04291e-06
-6.41493e-06
-6.72992e-06
-6.96273e-06
-7.16719e-06
-7.28513e-06
-7.24472e-06
-6.98158e-06
-6.49651e-06
-5.80946e-06
-4.90522e-06
-3.89286e-06
-2.80128e-06
-1.73606e-06
-6.76388e-07
3.41605e-07
1.3328e-06
2.19452e-06
3.172e-06
3.74879e-06
4.18298e-06
4.11695e-06
3.91256e-06
3.48001e-06
2.87217e-06
2.2756e-06
1.76196e-06
1.32468e-06
9.67915e-07
6.68879e-07
4.2488e-07
2.28423e-07
6.32017e-08
-7.79475e-08
-2.02248e-07
-3.11079e-07
-4.06985e-07
-4.91107e-07
-5.65242e-07
-6.32602e-07
-6.93062e-07
-7.48963e-07
-8.00391e-07
-8.5007e-07
-8.99587e-07
-9.51046e-07
-1.00831e-06
-1.0758e-06
-1.15655e-06
-1.26064e-06
-1.38759e-06
-1.54596e-06
-1.74594e-06
-1.99326e-06
-2.29136e-06
-2.6385e-06
-3.02635e-06
-3.43567e-06
-3.83903e-06
-4.19606e-06
-4.46318e-06
-4.59283e-06
-4.54615e-06
-4.30234e-06
-3.84313e-06
-3.19817e-06
-2.40642e-06
-1.50888e-06
-5.40538e-07
3.56076e-07
1.18217e-06
1.86299e-06
2.4317e-06
2.865e-06
3.15935e-06
3.30607e-06
3.39236e-06
3.29873e-06
3.11397e-06
2.81419e-06
2.52059e-06
2.15096e-06
1.81404e-06
1.52349e-06
1.27502e-06
1.07295e-06
9.08995e-07
7.69244e-07
6.61741e-07
5.72176e-07
4.99559e-07
4.38323e-07
3.87276e-07
3.44854e-07
3.09628e-07
2.80456e-07
2.55705e-07
2.34662e-07
2.17094e-07
2.01434e-07
1.87893e-07
1.75397e-07
1.63298e-07
1.50971e-07
1.37367e-07
1.20717e-07
9.79081e-08
6.78562e-08
2.89617e-08
-2.05397e-08
-8.41495e-08
-1.61569e-07
-2.45899e-07
-3.25099e-07
-3.75443e-07
-3.72433e-07
-2.48749e-07
2.09391e-08
4.09143e-07
8.2994e-07
1.68953e-06
2.16878e-06
2.66358e-06
3.31778e-06
3.96509e-06
4.60853e-06
5.26872e-06
5.92569e-06
6.56666e-06
7.277e-06
8.05591e-06
8.89882e-06
9.82189e-06
1.08433e-05
1.19762e-05
1.32316e-05
1.46191e-05
1.61465e-05
1.78193e-05
1.96404e-05
2.16104e-05
2.37283e-05
2.59923e-05
2.84008e-05
3.09537e-05
3.36548e-05
3.65133e-05
3.95472e-05
4.27856e-05
4.62718e-05
5.00625e-05
5.4216e-05
5.8755e-05
6.35791e-05
6.83008e-05
7.21291e-05
7.4901e-05
-7.66468e-06
-7.45303e-06
-6.89534e-06
-6.00204e-06
-5.05609e-06
-4.21817e-06
-3.51165e-06
-2.92425e-06
-2.45236e-06
-2.07901e-06
-1.78293e-06
-1.54309e-06
-1.34047e-06
-1.15839e-06
-9.8261e-07
-8.01144e-07
-6.04011e-07
-3.83123e-07
-1.32184e-07
1.53368e-07
4.76327e-07
8.37589e-07
1.23593e-06
1.66772e-06
2.12651e-06
2.60258e-06
3.08218e-06
3.54612e-06
3.96934e-06
4.3329e-06
4.60862e-06
4.61353e-06
4.40483e-06
3.97894e-06
3.30488e-06
2.31559e-06
1.12186e-06
-2.36336e-07
-1.42349e-06
-2.4373e-06
-3.36713e-06
-4.15762e-06
-4.77701e-06
-5.28536e-06
-5.70858e-06
-6.05029e-06
-6.29233e-06
-6.47854e-06
-6.51798e-06
-6.38297e-06
-6.05216e-06
-5.53857e-06
-4.8676e-06
-4.06042e-06
-3.19804e-06
-2.31821e-06
-1.47816e-06
-6.71074e-07
8.08045e-08
8.09224e-07
1.46194e-06
2.22801e-06
2.78884e-06
3.33582e-06
3.47089e-06
3.43974e-06
3.25511e-06
2.85857e-06
2.39834e-06
1.9279e-06
1.47336e-06
1.10398e-06
8.02648e-07
5.46566e-07
3.20265e-07
1.34181e-07
-1.78312e-08
-1.45977e-07
-2.58922e-07
-3.61344e-07
-4.52337e-07
-5.33149e-07
-6.07042e-07
-6.74057e-07
-7.36646e-07
-7.95204e-07
-8.5267e-07
-9.10803e-07
-9.71807e-07
-1.03983e-06
-1.12069e-06
-1.21448e-06
-1.32656e-06
-1.46582e-06
-1.63378e-06
-1.83821e-06
-2.08245e-06
-2.35996e-06
-2.66818e-06
-2.99241e-06
-3.3095e-06
-3.59213e-06
-3.80369e-06
-3.91226e-06
-3.88674e-06
-3.70909e-06
-3.37795e-06
-2.88932e-06
-2.28252e-06
-1.59329e-06
-8.57829e-07
-1.03464e-07
5.71648e-07
1.18341e-06
1.68763e-06
2.10817e-06
2.4348e-06
2.67143e-06
2.80699e-06
2.89533e-06
2.86504e-06
2.77489e-06
2.56702e-06
2.3603e-06
2.07315e-06
1.79422e-06
1.54114e-06
1.30347e-06
1.10269e-06
9.39068e-07
8.03685e-07
6.88476e-07
5.90551e-07
5.13789e-07
4.51314e-07
3.9848e-07
3.53479e-07
3.15691e-07
2.84283e-07
2.57557e-07
2.34757e-07
2.15608e-07
1.98316e-07
1.82972e-07
1.68438e-07
1.53936e-07
1.38791e-07
1.21932e-07
1.00847e-07
7.4124e-08
4.20086e-08
3.66191e-09
-4.30957e-08
-9.86094e-08
-1.53977e-07
-2.0091e-07
-2.21156e-07
-1.91584e-07
-9.53495e-08
1.30199e-07
4.7483e-07
8.78144e-07
1.27358e-06
2.02482e-06
2.44706e-06
2.88297e-06
3.45359e-06
4.02076e-06
4.59939e-06
5.21043e-06
5.83949e-06
6.47625e-06
7.18214e-06
7.95619e-06
8.79772e-06
9.7217e-06
1.07444e-05
1.18786e-05
1.31349e-05
1.45228e-05
1.60495e-05
1.77198e-05
1.95358e-05
2.14969e-05
2.36003e-05
2.58416e-05
2.82156e-05
3.07174e-05
3.3344e-05
3.6095e-05
3.89749e-05
4.19936e-05
4.51658e-05
4.85066e-05
5.20147e-05
5.56334e-05
5.91863e-05
6.233e-05
6.4622e-05
6.5803e-05
-5.81574e-06
-5.88109e-06
-5.65821e-06
-5.1207e-06
-4.47717e-06
-3.85434e-06
-3.29702e-06
-2.81864e-06
-2.41814e-06
-2.0902e-06
-1.82185e-06
-1.59781e-06
-1.40333e-06
-1.22503e-06
-1.05083e-06
-8.70261e-07
-6.74315e-07
-4.55578e-07
-2.08185e-07
7.22018e-08
3.88325e-07
7.412e-07
1.12988e-06
1.55118e-06
1.99931e-06
2.46546e-06
2.93712e-06
3.39691e-06
3.82229e-06
4.19442e-06
4.48589e-06
4.55869e-06
4.42925e-06
4.08011e-06
3.49303e-06
2.61874e-06
1.55414e-06
3.46513e-07
-7.61564e-07
-1.75184e-06
-2.66599e-06
-3.46549e-06
-4.11358e-06
-4.65034e-06
-5.09587e-06
-5.45066e-06
-5.67225e-06
-5.79675e-06
-5.76417e-06
-5.56594e-06
-5.19936e-06
-4.68643e-06
-4.05838e-06
-3.3499e-06
-2.62108e-06
-1.90714e-06
-1.24186e-06
-6.15872e-07
-3.83712e-08
5.06141e-07
9.97908e-07
1.57234e-06
2.04244e-06
2.55796e-06
2.83329e-06
2.9365e-06
2.89869e-06
2.66256e-06
2.34472e-06
1.99338e-06
1.58673e-06
1.20708e-06
8.85133e-07
6.25722e-07
4.0722e-07
2.15934e-07
4.28186e-08
-1.01832e-07
-2.21404e-07
-3.25384e-07
-4.1834e-07
-5.02809e-07
-5.81669e-07
-6.54818e-07
-7.23634e-07
-7.88692e-07
-8.53082e-07
-9.18775e-07
-9.88839e-07
-1.06658e-06
-1.15458e-06
-1.25593e-06
-1.3735e-06
-1.51819e-06
-1.68675e-06
-1.88175e-06
-2.10821e-06
-2.35015e-06
-2.6045e-06
-2.85296e-06
-3.07214e-06
-3.23914e-06
-3.32506e-06
-3.31088e-06
-3.17988e-06
-2.92912e-06
-2.56811e-06
-2.09938e-06
-1.56351e-06
-9.87855e-07
-4.00228e-07
1.80426e-07
6.90372e-07
1.14277e-06
1.52059e-06
1.83599e-06
2.08561e-06
2.27574e-06
2.39646e-06
2.47908e-06
2.47783e-06
2.43802e-06
2.30355e-06
2.16523e-06
1.94657e-06
1.72218e-06
1.50664e-06
1.29826e-06
1.11266e-06
9.47255e-07
8.12214e-07
7.0121e-07
6.06404e-07
5.23626e-07
4.55036e-07
4.00865e-07
3.55904e-07
3.17456e-07
2.84906e-07
2.56581e-07
2.32233e-07
2.11821e-07
1.93342e-07
1.76597e-07
1.60511e-07
1.44296e-07
1.26821e-07
1.07368e-07
8.47379e-08
5.86873e-08
2.87286e-08
-5.39412e-09
-4.09943e-08
-7.71629e-08
-9.96307e-08
-9.9849e-08
-5.8634e-08
4.23705e-08
2.0779e-07
4.95882e-07
8.68135e-07
1.25002e-06
1.60595e-06
2.25364e-06
2.62732e-06
3.01445e-06
3.51834e-06
4.02415e-06
4.5537e-06
5.12618e-06
5.73028e-06
6.35723e-06
7.05347e-06
7.81793e-06
8.65226e-06
9.57049e-06
1.05874e-05
1.17151e-05
1.29638e-05
1.43426e-05
1.58583e-05
1.75148e-05
1.93134e-05
2.1252e-05
2.3326e-05
2.55281e-05
2.78494e-05
3.02799e-05
3.28093e-05
3.5428e-05
3.81274e-05
4.08999e-05
4.37368e-05
4.66214e-05
4.95134e-05
5.2317e-05
5.48412e-05
5.68186e-05
5.80277e-05
5.84051e-05
-4.55049e-06
-4.71333e-06
-4.65764e-06
-4.33835e-06
-3.91044e-06
-3.44972e-06
-3.01602e-06
-2.63023e-06
-2.2951e-06
-2.01165e-06
-1.77384e-06
-1.56981e-06
-1.38784e-06
-1.21765e-06
-1.04938e-06
-8.74114e-07
-6.83931e-07
-4.72216e-07
-2.33715e-07
3.54989e-08
3.37924e-07
6.74503e-07
1.04438e-06
1.44459e-06
1.86982e-06
2.312e-06
2.75974e-06
3.19737e-06
3.60475e-06
3.96356e-06
4.24778e-06
4.35382e-06
4.27247e-06
3.98071e-06
3.46997e-06
2.70449e-06
1.76445e-06
6.94753e-07
-3.24737e-07
-1.26584e-06
-2.14265e-06
-2.92589e-06
-3.57211e-06
-4.10828e-06
-4.55133e-06
-4.88091e-06
-5.06448e-06
-5.1334e-06
-5.04937e-06
-4.8131e-06
-4.43514e-06
-3.94405e-06
-3.37335e-06
-2.75963e-06
-2.14715e-06
-1.56462e-06
-1.0298e-06
-5.44077e-07
-9.33947e-08
3.27554e-07
7.02807e-07
1.12875e-06
1.49848e-06
1.92104e-06
2.22509e-06
2.41734e-06
2.49862e-06
2.39218e-06
2.16692e-06
1.91728e-06
1.60663e-06
1.27143e-06
9.60105e-07
6.78877e-07
4.43361e-07
2.54912e-07
9.43165e-08
-5.12107e-08
-1.83645e-07
-2.99049e-07
-3.98348e-07
-4.82883e-07
-5.61382e-07
-6.37436e-07
-7.1029e-07
-7.8028e-07
-8.4996e-07
-9.2134e-07
-9.98386e-07
-1.08205e-06
-1.17233e-06
-1.2772e-06
-1.39644e-06
-1.53777e-06
-1.6959e-06
-1.87092e-06
-2.06785e-06
-2.26275e-06
-2.45445e-06
-2.62387e-06
-2.75045e-06
-2.81818e-06
-2.80693e-06
-2.70895e-06
-2.51797e-06
-2.24008e-06
-1.8889e-06
-1.46857e-06
-1.01593e-06
-5.49049e-07
-8.78215e-08
3.54845e-07
7.38074e-07
1.07949e-06
1.36375e-06
1.60311e-06
1.79601e-06
1.94906e-06
2.05427e-06
2.12894e-06
2.14212e-06
2.12632e-06
2.03892e-06
1.94914e-06
1.78919e-06
1.61556e-06
1.43519e-06
1.25255e-06
1.0896e-06
9.39256e-07
8.07997e-07
6.93214e-07
6.00058e-07
5.23251e-07
4.56349e-07
3.98582e-07
3.49562e-07
3.10496e-07
2.79034e-07
2.50868e-07
2.26105e-07
2.05298e-07
1.86356e-07
1.68768e-07
1.51791e-07
1.34598e-07
1.16535e-07
9.68575e-08
7.58512e-08
5.34868e-08
2.92913e-08
6.38145e-09
-1.08738e-08
-2.06656e-08
-5.22268e-09
4.17853e-08
1.37296e-07
2.9206e-07
4.98994e-07
8.15444e-07
1.1833e-06
1.52656e-06
1.84091e-06
2.39362e-06
2.7263e-06
3.07376e-06
3.52349e-06
3.98066e-06
4.47063e-06
5.01021e-06
5.59034e-06
6.20345e-06
6.88546e-06
7.63569e-06
8.45731e-06
9.36346e-06
1.03676e-05
1.14812e-05
1.27139e-05
1.40741e-05
1.55682e-05
1.71992e-05
1.89673e-05
2.08692e-05
2.28981e-05
2.50442e-05
2.72947e-05
2.96346e-05
3.20469e-05
3.4513e-05
3.7013e-05
3.95247e-05
4.20213e-05
4.44646e-05
4.67918e-05
4.88973e-05
5.06193e-05
5.18135e-05
5.24015e-05
5.23757e-05
-3.63779e-06
-3.82094e-06
-3.84514e-06
-3.65978e-06
-3.36941e-06
-3.0358e-06
-2.70197e-06
-2.39425e-06
-2.11768e-06
-1.87353e-06
-1.66461e-06
-1.48163e-06
-1.31439e-06
-1.15467e-06
-9.95028e-07
-8.28285e-07
-6.47488e-07
-4.46817e-07
-2.2173e-07
3.1133e-08
3.13864e-07
6.27233e-07
9.70369e-07
1.34044e-06
1.73251e-06
2.13925e-06
2.55043e-06
2.95231e-06
3.32711e-06
3.65778e-06
3.92066e-06
4.03822e-06
3.98679e-06
3.74249e-06
3.30311e-06
2.64142e-06
1.82023e-06
8.78246e-07
-4.80889e-08
-9.25433e-07
-1.75083e-06
-2.49926e-06
-3.12137e-06
-3.63635e-06
-4.05632e-06
-4.33382e-06
-4.48321e-06
-4.50918e-06
-4.38784e-06
-4.13181e-06
-3.76043e-06
-3.30479e-06
-2.79724e-06
-2.27107e-06
-1.75859e-06
-1.28172e-06
-8.48646e-07
-4.62034e-07
-1.1357e-07
2.13358e-07
5.10029e-07
8.2715e-07
1.11199e-06
1.4375e-06
1.70927e-06
1.92007e-06
2.06595e-06
2.07874e-06
1.94972e-06
1.75804e-06
1.51962e-06
1.25291e-06
9.83399e-07
7.16166e-07
4.78579e-07
2.7219e-07
1.01802e-07
-3.99568e-08
-1.60001e-07
-2.68727e-07
-3.74621e-07
-4.68569e-07
-5.50771e-07
-6.28531e-07
-7.01609e-07
-7.73002e-07
-8.45201e-07
-9.19029e-07
-9.97139e-07
-1.08105e-06
-1.17224e-06
-1.27598e-06
-1.3885e-06
-1.51903e-06
-1.65818e-06
-1.8045e-06
-1.96366e-06
-2.10544e-06
-2.23314e-06
-2.32885e-06
-2.37662e-06
-2.3679e-06
-2.29034e-06
-2.1444e-06
-1.92998e-06
-1.65715e-06
-1.33935e-06
-9.79939e-07
-6.09776e-07
-2.39159e-07
1.1816e-07
4.5318e-07
7.41183e-07
1.00217e-06
1.21678e-06
1.40006e-06
1.55055e-06
1.67408e-06
1.76438e-06
1.83049e-06
1.85109e-06
1.84764e-06
1.7891e-06
1.72891e-06
1.61278e-06
1.48296e-06
1.34029e-06
1.18203e-06
1.03406e-06
9.03858e-07
7.85639e-07
6.77041e-07
5.84039e-07
5.05537e-07
4.39695e-07
3.87314e-07
3.41937e-07
3.01349e-07
2.662e-07
2.36991e-07
2.13529e-07
1.94042e-07
1.76215e-07
1.59055e-07
1.42535e-07
1.25801e-07
1.08597e-07
9.18004e-08
7.50275e-08
5.94845e-08
4.55187e-08
3.88515e-08
4.4221e-08
6.35518e-08
1.16182e-07
2.0414e-07
3.40633e-07
5.28693e-07
7.5293e-07
1.07255e-06
1.41696e-06
1.71619e-06
1.99178e-06
2.45929e-06
2.75736e-06
3.07222e-06
3.47674e-06
3.89357e-06
4.34936e-06
4.85853e-06
5.41426e-06
6.01001e-06
6.6735e-06
7.4048e-06
8.20825e-06
9.09603e-06
1.00805e-05
1.11721e-05
1.23801e-05
1.37122e-05
1.51738e-05
1.67673e-05
1.84916e-05
2.03422e-05
2.23105e-05
2.43839e-05
2.65464e-05
2.8778e-05
3.10559e-05
3.33538e-05
3.56423e-05
3.78881e-05
4.00514e-05
4.20813e-05
4.39073e-05
4.54356e-05
4.65662e-05
4.7261e-05
4.7448e-05
4.72503e-05
-2.94542e-06
-3.11798e-06
-3.17701e-06
-3.07351e-06
-2.87705e-06
-2.63491e-06
-2.3795e-06
-2.13291e-06
-1.9075e-06
-1.70262e-06
-1.51664e-06
-1.35202e-06
-1.20131e-06
-1.05383e-06
-9.04822e-07
-7.4922e-07
-5.80818e-07
-3.94479e-07
-1.86539e-07
4.56715e-08
3.03708e-07
5.88239e-07
8.9847e-07
1.23158e-06
1.58303e-06
1.94636e-06
2.31265e-06
2.67001e-06
3.00346e-06
3.2977e-06
3.53219e-06
3.64874e-06
3.61709e-06
3.41471e-06
3.04287e-06
2.47885e-06
1.76915e-06
9.45449e-07
1.13194e-07
-6.92315e-07
-1.45698e-06
-2.15734e-06
-2.74051e-06
-3.22234e-06
-3.60601e-06
-3.82912e-06
-3.94504e-06
-3.93115e-06
-3.78365e-06
-3.52255e-06
-3.17039e-06
-2.75768e-06
-2.3136e-06
-1.86627e-06
-1.43909e-06
-1.04825e-06
-6.96796e-07
-3.87296e-07
-1.11162e-07
1.43459e-07
3.75974e-07
6.16527e-07
8.3588e-07
1.07992e-06
1.30088e-06
1.4903e-06
1.64521e-06
1.71889e-06
1.68903e-06
1.57235e-06
1.37779e-06
1.1576e-06
9.30103e-07
7.04271e-07
4.81124e-07
2.75857e-07
1.04719e-07
-4.41079e-08
-1.66286e-07
-2.70459e-07
-3.69127e-07
-4.58742e-07
-5.38072e-07
-6.15526e-07
-6.88838e-07
-7.61046e-07
-8.31762e-07
-9.04163e-07
-9.83354e-07
-1.06512e-06
-1.15109e-06
-1.24773e-06
-1.34729e-06
-1.46082e-06
-1.57452e-06
-1.68637e-06
-1.80395e-06
-1.89257e-06
-1.96157e-06
-1.99528e-06
-1.98285e-06
-1.92218e-06
-1.80674e-06
-1.64168e-06
-1.4297e-06
-1.18145e-06
-9.08036e-07
-6.11415e-07
-3.16033e-07
-2.6707e-08
2.47375e-07
5.00063e-07
7.19069e-07
9.14888e-07
1.07899e-06
1.21915e-06
1.33824e-06
1.43856e-06
1.51544e-06
1.57323e-06
1.5971e-06
1.60035e-06
1.56044e-06
1.51726e-06
1.43078e-06
1.33288e-06
1.22274e-06
1.09565e-06
9.62898e-07
8.40612e-07
7.39213e-07
6.42029e-07
5.54224e-07
4.80189e-07
4.15843e-07
3.63966e-07
3.19067e-07
2.81329e-07
2.49655e-07
2.23584e-07
2.00877e-07
1.79788e-07
1.62479e-07
1.46804e-07
1.32209e-07
1.18542e-07
1.04433e-07
9.20276e-08
8.21453e-08
7.67106e-08
7.59203e-08
8.81852e-08
1.1716e-07
1.6427e-07
2.48656e-07
3.67237e-07
5.29517e-07
7.32357e-07
9.56105e-07
1.26209e-06
1.57297e-06
1.82897e-06
2.06991e-06
2.46222e-06
2.73056e-06
3.01767e-06
3.38302e-06
3.76477e-06
4.18913e-06
4.66851e-06
5.19834e-06
5.77316e-06
6.41377e-06
7.12125e-06
7.90081e-06
8.76374e-06
9.72123e-06
1.07829e-05
1.19573e-05
1.32512e-05
1.46692e-05
1.62129e-05
1.78801e-05
1.9665e-05
2.15571e-05
2.35419e-05
2.56001e-05
2.77078e-05
2.98369e-05
3.19551e-05
3.40258e-05
3.60073e-05
3.7852e-05
3.95033e-05
4.08929e-05
4.19484e-05
4.2628e-05
4.29656e-05
4.29196e-05
4.2685e-05
-2.39604e-06
-2.54742e-06
-2.61843e-06
-2.56478e-06
-2.43281e-06
-2.25696e-06
-2.06202e-06
-1.86591e-06
-1.68007e-06
-1.50856e-06
-1.35072e-06
-1.20308e-06
-1.06369e-06
-9.29682e-07
-7.94267e-07
-6.5217e-07
-4.98604e-07
-3.29291e-07
-1.41478e-07
6.68483e-08
2.96531e-07
5.48157e-07
8.21313e-07
1.11319e-06
1.41966e-06
1.73522e-06
2.05239e-06
2.36128e-06
2.64961e-06
2.90424e-06
3.10788e-06
3.21687e-06
3.1992e-06
3.03467e-06
2.7259e-06
2.25206e-06
1.64534e-06
9.30853e-07
1.91237e-07
-5.383e-07
-1.23635e-06
-1.88005e-06
-2.41628e-06
-2.8587e-06
-3.18888e-06
-3.36704e-06
-3.44499e-06
-3.39845e-06
-3.2371e-06
-2.98241e-06
-2.65749e-06
-2.29069e-06
-1.90714e-06
-1.52958e-06
-1.17484e-06
-8.54555e-07
-5.69126e-07
-3.20564e-07
-1.0052e-07
9.85491e-08
2.82318e-07
4.66212e-07
6.34886e-07
8.1605e-07
9.86833e-07
1.14097e-06
1.27758e-06
1.36439e-06
1.38429e-06
1.34461e-06
1.21338e-06
1.03607e-06
8.27742e-07
6.28865e-07
4.38544e-07
2.51928e-07
7.95816e-08
-6.95401e-08
-1.86455e-07
-2.83259e-07
-3.7826e-07
-4.63622e-07
-5.36044e-07
-6.08159e-07
-6.756e-07
-7.45732e-07
-8.14222e-07
-8.81726e-07
-9.57186e-07
-1.03135e-06
-1.10734e-06
-1.19207e-06
-1.27382e-06
-1.36564e-06
-1.45014e-06
-1.52553e-06
-1.60224e-06
-1.64288e-06
-1.66325e-06
-1.65009e-06
-1.59712e-06
-1.50689e-06
-1.37638e-06
-1.21268e-06
-1.01902e-06
-8.04864e-07
-5.78357e-07
-3.40331e-07
-1.09264e-07
1.13331e-07
3.21358e-07
5.11055e-07
6.76788e-07
8.23563e-07
9.50107e-07
1.05633e-06
1.15175e-06
1.23389e-06
1.29924e-06
1.34943e-06
1.37404e-06
1.38086e-06
1.35347e-06
1.32052e-06
1.25371e-06
1.17721e-06
1.08996e-06
9.89303e-07
8.82038e-07
7.67633e-07
6.6995e-07
5.8646e-07
5.0698e-07
4.3844e-07
3.77426e-07
3.30703e-07
2.89402e-07
2.54234e-07
2.24339e-07
2.00171e-07
1.80671e-07
1.61669e-07
1.47417e-07
1.34102e-07
1.21735e-07
1.12493e-07
1.03029e-07
9.71876e-08
9.61188e-08
1.02761e-07
1.16244e-07
1.47706e-07
1.98238e-07
2.68703e-07
3.76708e-07
5.14468e-07
6.88601e-07
8.91849e-07
1.10362e-06
1.38532e-06
1.65811e-06
1.87456e-06
2.08472e-06
2.41158e-06
2.65345e-06
2.91562e-06
3.24568e-06
3.59549e-06
3.98945e-06
4.43838e-06
4.94e-06
5.48992e-06
6.10301e-06
6.78138e-06
7.53098e-06
8.36214e-06
9.28496e-06
1.03082e-05
1.14395e-05
1.26848e-05
1.40477e-05
1.5529e-05
1.71256e-05
1.88303e-05
2.06315e-05
2.25124e-05
2.44513e-05
2.64213e-05
2.83902e-05
3.0321e-05
3.21717e-05
3.38956e-05
3.5441e-05
3.67507e-05
3.77647e-05
3.84336e-05
3.87559e-05
3.88219e-05
3.86958e-05
3.84807e-05
-1.94235e-06
-2.07079e-06
-2.14271e-06
-2.11937e-06
-2.03178e-06
-1.90448e-06
-1.75618e-06
-1.60128e-06
-1.44945e-06
-1.30554e-06
-1.17052e-06
-1.04262e-06
-9.20004e-07
-8.00741e-07
-6.79483e-07
-5.50875e-07
-4.12669e-07
-2.62436e-07
-9.7243e-08
8.49646e-08
2.84871e-07
5.01787e-07
7.35247e-07
9.83663e-07
1.24357e-06
1.51029e-06
1.77769e-06
2.03784e-06
2.28095e-06
2.49618e-06
2.66921e-06
2.76751e-06
2.76011e-06
2.62944e-06
2.37827e-06
1.98623e-06
1.47354e-06
8.59628e-07
2.09834e-07
-4.41995e-07
-1.06987e-06
-1.65118e-06
-2.13397e-06
-2.52556e-06
-2.78948e-06
-2.93305e-06
-2.98018e-06
-2.91254e-06
-2.74726e-06
-2.50664e-06
-2.21323e-06
-1.89225e-06
-1.56458e-06
-1.24804e-06
-9.5465e-07
-6.92588e-07
-4.60938e-07
-2.61079e-07
-8.53166e-08
7.1799e-08
2.15052e-07
3.54286e-07
4.84633e-07
6.18717e-07
7.46832e-07
8.64879e-07
9.74019e-07
1.05228e-06
1.08492e-06
1.08291e-06
1.00803e-06
8.89671e-07
7.17907e-07
5.25327e-07
3.51854e-07
1.89536e-07
3.00017e-08
-1.17653e-07
-2.35455e-07
-3.24557e-07
-4.1247e-07
-4.87807e-07
-5.4995e-07
-6.14645e-07
-6.72684e-07
-7.3545e-07
-7.95504e-07
-8.51629e-07
-9.19069e-07
-9.80651e-07
-1.04268e-06
-1.11155e-06
-1.1723e-06
-1.23978e-06
-1.29438e-06
-1.33499e-06
-1.37515e-06
-1.3766e-06
-1.36071e-06
-1.31625e-06
-1.24039e-06
-1.13834e-06
-1.00887e-06
-8.59071e-07
-6.91662e-07
-5.14255e-07
-3.32273e-07
-1.45981e-07
3.129e-08
2.00235e-07
3.5567e-07
4.96332e-07
6.2045e-07
7.30055e-07
8.27096e-07
9.09451e-07
9.86109e-07
1.05378e-06
1.10951e-06
1.15308e-06
1.17702e-06
1.18554e-06
1.16669e-06
1.14038e-06
1.08699e-06
1.02474e-06
9.52783e-07
8.69855e-07
7.83655e-07
6.89414e-07
5.94843e-07
5.15258e-07
4.43644e-07
3.81618e-07
3.24707e-07
2.82974e-07
2.45192e-07
2.14133e-07
1.88478e-07
1.67788e-07
1.52767e-07
1.36625e-07
1.26621e-07
1.17326e-07
1.09128e-07
1.0652e-07
1.02983e-07
1.05252e-07
1.13898e-07
1.33212e-07
1.60349e-07
2.09178e-07
2.77104e-07
3.64927e-07
4.87724e-07
6.34215e-07
8.09041e-07
1.00267e-06
1.19572e-06
1.44651e-06
1.68003e-06
1.86161e-06
2.04407e-06
2.31455e-06
2.53168e-06
2.77e-06
3.06707e-06