/*--------------------------------*- C++ -*----------------------------------*\
| =========                 |                                                 |
| \\      /  F ield         | OpenFOAM: The Open Source CFD Toolbox           |
|  \\    /   O peration     | Version:  2506                                  |
|   \\  /    A nd           | Website:  www.openfoam.com                      |
|    \\/     M anipulation  |                                                 |
\*---------------------------------------------------------------------------*/
FoamFile
{
    version     2.0;
    format      ascii;
    arch        "LSB;label=32;scalar=64";
    class       surfaceScalarField;
    location    "5";
    object      phi;
}
// * * * * * * * * * * * * * * * * * * * * * * * * * * * * * * * * * * * * * //

dimensions      [0 3 -1 0 0 0 0];

oriented        oriented;

internalField   nonuniform List<scalar> 
7780
(
6.70096e-10
-6.70096e-10
1.1863e-09
-5.16204e-10
1.49971e-09
-3.13413e-10
1.71238e-09
-2.12665e-10
1.86289e-09
-1.50509e-10
1.97137e-09
-1.08485e-10
2.05285e-09
-8.14748e-11
2.11691e-09
-6.40674e-11
2.16921e-09
-5.22984e-11
2.21318e-09
-4.39682e-11
2.25103e-09
-3.78452e-11
2.2842e-09
-3.31758e-11
2.31369e-09
-2.94885e-11
2.34018e-09
-2.64882e-11
2.36416e-09
-2.39868e-11
2.38603e-09
-2.18615e-11
2.40606e-09
-2.00314e-11
2.4245e-09
-1.84437e-11
2.44157e-09
-1.70656e-11
2.45745e-09
-1.58801e-11
2.47233e-09
-1.48831e-11
2.48641e-09
-1.40831e-11
2.49992e-09
-1.3502e-11
2.51309e-09
-1.31775e-11
2.52626e-09
-1.31688e-11
2.53983e-09
-1.35665e-11
2.55434e-09
-1.45119e-11
2.57058e-09
-1.62362e-11
2.5897e-09
-1.91271e-11
2.61358e-09
-2.38744e-11
2.63659e-09
-6.79821e-11
2.62055e-09
-3.01143e-10
2.55914e-09
-5.99153e-10
2.46062e-09
-8.71204e-10
2.33217e-09
-1.10402e-09
2.19359e-09
-1.31603e-09
2.06088e-09
-1.51953e-09
1.89185e-09
-1.77336e-09
1.70437e-09
-1.9382e-09
1.54795e-09
-2.01364e-09
1.4225e-09
-2.07515e-09
1.3282e-09
-2.12599e-09
1.25762e-09
-2.16145e-09
1.20494e-09
-2.18359e-09
1.16555e-09
-2.19385e-09
1.13468e-09
-2.1919e-09
1.11052e-09
-2.17711e-09
1.08873e-09
-2.15025e-09
1.06658e-09
-2.11026e-09
1.04069e-09
-2.05461e-09
1.01072e-09
-1.97975e-09
9.8477e-10
-1.88221e-09
9.57884e-10
-1.76514e-09
9.48304e-10
-1.61261e-09
9.65761e-10
-1.42557e-09
1.03569e-09
-1.1835e-09
1.16038e-09
-8.90168e-10
1.34748e-09
-5.09117e-10
1.56529e-09
-6.24472e-11
1.76411e-09
3.97992e-10
1.92168e-09
8.20505e-10
2.03921e-09
1.20164e-09
2.12337e-09
1.4547e-09
2.19197e-09
1.67157e-09
2.2494e-09
1.80946e-09
2.30195e-09
1.92086e-09
2.35144e-09
2.00746e-09
2.39837e-09
2.06724e-09
2.4437e-09
2.11295e-09
2.48723e-09
2.14775e-09
2.52976e-09
2.17343e-09
2.57114e-09
2.18875e-09
2.61157e-09
2.19553e-09
2.65132e-09
2.19475e-09
2.69051e-09
2.18649e-09
2.72932e-09
2.17029e-09
2.76781e-09
2.14531e-09
2.80591e-09
2.10488e-09
2.84383e-09
2.05562e-09
2.88127e-09
1.99231e-09
2.91869e-09
1.90935e-09
2.95407e-09
1.78373e-09
2.98821e-09
1.64448e-09
3.01829e-09
1.4359e-09
3.04383e-09
1.19168e-09
3.05965e-09
8.33956e-10
3.06545e-09
4.39631e-10
3.05828e-09
-1.13392e-12
3.03927e-09
-4.61977e-10
3.00924e-09
-8.69471e-10
2.97364e-09
-1.18347e-09
2.93331e-09
-1.45496e-09
2.89193e-09
-1.63854e-09
2.84952e-09
-1.80013e-09
2.80797e-09
-1.90563e-09
2.767e-09
-1.98994e-09
2.72691e-09
-2.06262e-09
2.68737e-09
-2.10955e-09
2.64844e-09
-2.14522e-09
2.6095e-09
-2.17054e-09
2.57005e-09
-2.1868e-09
2.5292e-09
-2.19439e-09
2.48573e-09
-2.19234e-09
2.43849e-09
-2.18134e-09
2.38632e-09
-2.16152e-09
2.32847e-09
-2.13263e-09
2.2643e-09
-2.0937e-09
2.1925e-09
-2.03909e-09
2.1145e-09
-1.96765e-09
2.03043e-09
-1.88366e-09
1.94143e-09
-1.77933e-09
1.85748e-09
-1.62668e-09
1.77812e-09
-1.46207e-09
1.72271e-09
-1.2189e-09
1.69594e-09
-9.44e-10
1.70879e-09
-5.82146e-10
1.75905e-09
-1.51069e-10
1.82462e-09
2.91477e-10
1.88824e-09
7.10606e-10
1.94315e-09
1.09861e-09
1.98752e-09
1.37717e-09
2.02628e-09
1.60178e-09
2.06244e-09
1.75755e-09
2.09846e-09
1.89077e-09
2.13465e-09
1.97678e-09
2.17106e-09
2.04442e-09
2.20824e-09
2.09957e-09
2.2461e-09
2.13919e-09
2.28441e-09
2.16595e-09
2.32337e-09
2.18377e-09
2.36306e-09
2.19361e-09
2.40377e-09
2.19573e-09
2.44559e-09
2.19022e-09
2.48854e-09
2.17538e-09
2.53341e-09
2.15203e-09
2.57993e-09
2.11975e-09
2.62871e-09
2.07625e-09
2.6801e-09
2.01992e-09
2.73331e-09
1.93412e-09
2.78939e-09
1.83596e-09
2.84752e-09
1.71218e-09
2.90562e-09
1.52086e-09
2.9635e-09
1.31186e-09
3.01552e-09
9.97785e-10
3.06034e-09
6.34125e-10
3.093e-09
2.14409e-10
3.11199e-09
-2.48058e-10
3.11611e-09
-6.89827e-10
3.10984e-09
-1.04344e-09
3.09427e-09
-1.33885e-09
3.07281e-09
-1.56557e-09
3.04667e-09
-1.73464e-09
3.01808e-09
-1.85674e-09
2.98665e-09
-1.9646e-09
2.95363e-09
-2.03379e-09
2.91938e-09
-2.08787e-09
2.88366e-09
-2.12883e-09
2.84631e-09
-2.16087e-09
2.80692e-09
-2.17986e-09
2.75617e-09
-2.18072e-09
2.69065e-09
-2.17065e-09
2.61406e-09
-2.15701e-09
2.52009e-09
-2.12967e-09
2.43943e-09
-1.71655e-09
2.3601e-09
-1.49651e-09
2.28193e-09
-1.312e-09
2.21252e-09
-1.07502e-09
2.16418e-09
-8.21656e-10
2.14341e-09
-5.28692e-10
2.15194e-09
-2.22675e-10
2.1744e-09
-3.14286e-11
2.19099e-09
-1.65904e-11
2.2036e-09
-1.26092e-11
2.21357e-09
-9.96471e-12
2.22164e-09
-8.06521e-12
2.22816e-09
-6.52756e-12
2.23336e-09
-5.19807e-12
2.23729e-09
-3.92804e-12
2.23999e-09
-2.69758e-12
2.24145e-09
-1.46643e-12
2.24165e-09
-1.97129e-13
2.24073e-09
9.17073e-13
2.23875e-09
1.98243e-12
2.2357e-09
3.04456e-12
2.23163e-09
4.07425e-12
2.22652e-09
5.10288e-12
2.22034e-09
6.18549e-12
2.21293e-09
7.41069e-12
2.20401e-09
8.91535e-12
2.1931e-09
1.09095e-11
2.17938e-09
1.37259e-11
2.16146e-09
1.79181e-11
2.13699e-09
2.44645e-11
2.10178e-09
3.5216e-11
2.04785e-09
5.39251e-11
1.95927e-09
8.8586e-11
1.80246e-09
1.56805e-10
1.5021e-09
3.0036e-10
8.95122e-10
6.06979e-10
8.95122e-10
-3.47431e-11
-6.35352e-10
1.62503e-10
-7.1345e-10
4.26329e-10
-5.77239e-10
6.63356e-10
-4.49692e-10
8.6343e-10
-3.50583e-10
1.03026e-09
-2.75313e-10
1.16913e-09
-2.20343e-10
1.28552e-09
-1.80464e-10
1.38412e-09
-1.50901e-10
1.46855e-09
-1.28397e-10
1.54154e-09
-1.10836e-10
1.60516e-09
-9.67898e-11
1.66095e-09
-8.52845e-11
1.71012e-09
-7.56568e-11
1.75359e-09
-6.74523e-11
1.79208e-09
-6.03562e-11
1.8262e-09
-5.41505e-11
1.85644e-09
-4.86866e-11
1.88325e-09
-4.38684e-11
1.90701e-09
-3.96423e-11
1.92812e-09
-3.59915e-11
1.94697e-09
-3.29343e-11
1.96399e-09
-3.05261e-11
1.97968e-09
-2.88647e-11
1.99461e-09
-2.8101e-11
2.0095e-09
-2.84586e-11
2.02526e-09
-3.02668e-11
2.04304e-09
-3.40199e-11
2.06442e-09
-4.05082e-11
2.09154e-09
-5.09943e-11
2.11769e-09
-9.41244e-11
2.10147e-09
-2.84931e-10
2.03365e-09
-5.31325e-10
1.92567e-09
-7.63231e-10
1.79117e-09
-9.69517e-10
1.64989e-09
-1.17475e-09
1.51236e-09
-1.38199e-09
1.35232e-09
-1.61333e-09
1.18822e-09
-1.7741e-09
1.05352e-09
-1.87894e-09
9.47775e-10
-1.9694e-09
8.66772e-10
-2.04499e-09
8.05018e-10
-2.09969e-09
7.57953e-10
-2.13652e-09
7.21084e-10
-2.15698e-09
6.90263e-10
-2.16108e-09
6.62561e-10
-2.14941e-09
6.34323e-10
-2.12201e-09
6.02221e-10
-2.07816e-09
5.6423e-10
-2.01662e-09
5.20193e-10
-1.93572e-09
4.75351e-10
-1.83737e-09
4.29103e-10
-1.71889e-09
3.95048e-10
-1.57855e-09
3.84104e-10
-1.41463e-09
4.18667e-10
-1.21806e-09
5.13107e-10
-9.84608e-10
6.91848e-10
-6.87857e-10
9.52094e-10
-3.22693e-10
1.25761e-09
9.24776e-11
1.55795e-09
5.2016e-10
1.81352e-09
9.46077e-10
2.00066e-09
1.26756e-09
2.13479e-09
1.53745e-09
2.22768e-09
1.71657e-09
2.29666e-09
1.85188e-09
2.35308e-09
1.95104e-09
2.40273e-09
2.01758e-09
2.44867e-09
2.06701e-09
2.49184e-09
2.10458e-09
2.53367e-09
2.1316e-09
2.57435e-09
2.14807e-09
2.61422e-09
2.15567e-09
2.65354e-09
2.15543e-09
2.69242e-09
2.14761e-09
2.73102e-09
2.13169e-09
2.76936e-09
2.10697e-09
2.80737e-09
2.06687e-09
2.84523e-09
2.01776e-09
2.88264e-09
1.95489e-09
2.92005e-09
1.87194e-09
2.95546e-09
1.74831e-09
2.98966e-09
1.61029e-09
3.01984e-09
1.40572e-09
3.04551e-09
1.16601e-09
3.0615e-09
8.17959e-10
3.06754e-09
4.33593e-10
3.06066e-09
5.74754e-12
3.04199e-09
-4.43304e-10
3.01232e-09
-8.39802e-10
2.97713e-09
-1.14828e-09
2.93719e-09
-1.41503e-09
2.89626e-09
-1.5976e-09
2.85427e-09
-1.75814e-09
2.81309e-09
-1.86444e-09
2.77236e-09
-1.94922e-09
2.73213e-09
-2.02238e-09
2.69199e-09
-2.06941e-09
2.65164e-09
-2.10486e-09
2.6099e-09
-2.1288e-09
2.56527e-09
-2.14216e-09
2.51643e-09
-2.14555e-09
2.46218e-09
-2.13809e-09
2.4015e-09
-2.12067e-09
2.33321e-09
-2.09323e-09
2.25644e-09
-2.05587e-09
2.17082e-09
-2.00808e-09
2.07676e-09
-1.94504e-09
1.97649e-09
-1.86739e-09
1.87128e-09
-1.77846e-09
1.76438e-09
-1.67244e-09
1.66469e-09
-1.52701e-09
1.57422e-09
-1.37161e-09
1.50881e-09
-1.15348e-09
1.47344e-09
-9.08635e-10
1.48008e-09
-5.88778e-10
1.53487e-09
-2.05858e-10
1.62647e-09
1.9988e-10
1.73682e-09
6.00262e-10
1.84475e-09
9.90678e-10
1.93309e-09
1.28884e-09
2.00131e-09
1.53357e-09
2.05366e-09
1.70519e-09
2.0973e-09
1.84713e-09
2.13674e-09
1.93735e-09
2.1742e-09
2.00695e-09
2.21138e-09
2.0624e-09
2.24884e-09
2.10173e-09
2.28667e-09
2.12812e-09
2.32521e-09
2.14523e-09
2.36457e-09
2.15425e-09
2.40502e-09
2.15527e-09
2.44664e-09
2.14859e-09
2.48945e-09
2.13257e-09
2.53421e-09
2.10727e-09
2.58065e-09
2.07331e-09
2.62937e-09
2.02753e-09
2.68071e-09
1.96857e-09
2.7339e-09
1.88094e-09
2.78996e-09
1.7799e-09
2.84809e-09
1.65404e-09
2.9062e-09
1.46275e-09
2.9641e-09
1.25395e-09
3.01617e-09
9.45717e-10
3.06106e-09
5.89237e-10
3.09383e-09
1.81641e-10
3.11296e-09
-2.67188e-10
3.11725e-09
-6.94123e-10
3.11119e-09
-1.03738e-09
3.09585e-09
-1.3235e-09
3.07464e-09
-1.54435e-09
3.04872e-09
-1.70872e-09
3.02032e-09
-1.82833e-09
2.98894e-09
-1.93322e-09
2.95578e-09
-2.00063e-09
2.92102e-09
-2.0531e-09
2.88398e-09
-2.09179e-09
2.84377e-09
-2.12065e-09
2.79925e-09
-2.13533e-09
2.74074e-09
-2.12221e-09
2.66433e-09
-2.09426e-09
2.57294e-09
-2.06561e-09
2.46484e-09
-2.02158e-09
2.37064e-09
-1.62237e-09
2.27866e-09
-1.40454e-09
2.18915e-09
-1.22249e-09
2.10921e-09
-9.95082e-10
2.05053e-09
-7.62981e-10
2.01913e-09
-4.97296e-10
2.01831e-09
-2.21852e-10
2.03613e-09
-4.92515e-11
2.0528e-09
-3.32597e-11
2.06668e-09
-2.64882e-11
2.07761e-09
-2.08924e-11
2.08561e-09
-1.60722e-11
2.09076e-09
-1.16709e-11
2.093e-09
-7.44659e-12
2.09232e-09
-3.24641e-12
2.08866e-09
9.68472e-13
2.08199e-09
5.19891e-12
2.07238e-09
9.4121e-12
2.05979e-09
1.35154e-11
2.04426e-09
1.75081e-11
2.02591e-09
2.13954e-11
2.00479e-09
2.51937e-11
1.9809e-09
2.89883e-11
1.95415e-09
3.29428e-11
1.92423e-09
3.73238e-11
1.8906e-09
4.25452e-11
1.85227e-09
4.92462e-11
1.80756e-09
5.84374e-11
1.7537e-09
7.1778e-11
1.68604e-09
9.21151e-11
1.5967e-09
1.24555e-10
1.47205e-09
1.78582e-10
1.28876e-09
2.71876e-10
1.01023e-09
4.35328e-10
6.00452e-10
7.10144e-10
1.32743e-10
1.07469e-09
1.02787e-09
-1.33903e-10
-5.0145e-10
-1.28022e-10
-7.1933e-10
-2.00333e-11
-6.85228e-10
1.26361e-10
-5.96086e-10
2.78826e-10
-5.03048e-10
4.24727e-10
-4.21213e-10
5.58813e-10
-3.5443e-10
6.79538e-10
-3.01189e-10
7.87307e-10
-2.5867e-10
8.83232e-10
-2.24321e-10
9.68564e-10
-1.96168e-10
1.0445e-09
-1.72724e-10
1.1121e-09
-1.52882e-10
1.17227e-09
-1.35832e-10
1.2258e-09
-1.20982e-10
1.27335e-09
-1.07902e-10
1.31548e-09
-9.62838e-11
1.3527e-09
-8.59099e-11
1.38547e-09
-7.66397e-11
1.41423e-09
-6.83963e-11
1.4394e-09
-6.11615e-11
1.46144e-09
-5.49749e-11
1.48085e-09
-4.99372e-11
1.4982e-09
-4.62188e-11
1.51418e-09
-4.40742e-11
1.52958e-09
-4.38664e-11
1.54542e-09
-4.61061e-11
1.56292e-09
-5.15151e-11
1.58357e-09
-6.11615e-11
1.60916e-09
-7.65791e-11
1.634e-09
-1.18965e-10
1.62243e-09
-2.7336e-10
1.56616e-09
-4.7506e-10
1.4767e-09
-6.73766e-10
1.36833e-09
-8.61148e-10
1.2563e-09
-1.06272e-09
1.14713e-09
-1.27283e-09
1.02492e-09
-1.49113e-09
9.05784e-10
-1.65496e-09
8.09309e-10
-1.78247e-09
7.33293e-10
-1.89339e-09
6.73375e-10
-1.98507e-09
6.26124e-10
-2.05244e-09
5.88495e-10
-2.09889e-09
5.56937e-10
-2.12542e-09
5.27908e-10
-2.13205e-09
4.98359e-10
-2.11986e-09
4.66003e-10
-2.08965e-09
4.2777e-10
-2.03993e-09
3.82706e-10
-1.97156e-09
3.31818e-10
-1.88483e-09
2.78448e-10
-1.784e-09
2.24526e-10
-1.66497e-09
1.79381e-10
-1.53341e-09
1.51787e-10
-1.38703e-09
1.57129e-10
-1.2234e-09
2.08587e-10
-1.03607e-09
3.28242e-10
-8.07512e-10
5.28682e-10
-5.23133e-10
8.0399e-10
-1.8283e-10
1.12532e-09
1.98831e-10
1.45393e-09
6.17464e-10
1.7385e-09
9.82991e-10
1.96618e-09
1.30977e-09
2.1335e-09
1.54925e-09
2.25187e-09
1.73352e-09
2.33572e-09
1.86719e-09
2.39834e-09
1.95496e-09
2.45003e-09
2.01532e-09
2.4958e-09
2.05881e-09
2.53855e-09
2.08885e-09
2.57914e-09
2.10749e-09
2.61848e-09
2.11632e-09
2.65718e-09
2.11673e-09
2.69551e-09
2.10928e-09
2.73366e-09
2.09354e-09
2.77166e-09
2.06897e-09
2.80943e-09
2.0291e-09
2.84713e-09
1.98007e-09
2.88443e-09
1.91759e-09
2.92179e-09
1.83458e-09
2.95718e-09
1.71292e-09
2.99139e-09
1.57608e-09
3.02161e-09
1.37549e-09
3.04737e-09
1.14026e-09
3.06348e-09
8.01843e-10
3.06967e-09
4.27405e-10
3.06297e-09
1.24528e-11
3.04449e-09
-4.24825e-10
3.01501e-09
-8.10327e-10
2.98001e-09
-1.11328e-09
2.94023e-09
-1.37526e-09
2.8994e-09
-1.55677e-09
2.85738e-09
-1.71611e-09
2.81592e-09
-1.82299e-09
2.77467e-09
-1.90796e-09
2.73328e-09
-1.98099e-09
2.69086e-09
-2.02698e-09
2.64648e-09
-2.06048e-09
2.5988e-09
-2.08112e-09
2.54637e-09
-2.08973e-09
2.48808e-09
-2.08726e-09
2.42272e-09
-2.07273e-09
2.34937e-09
-2.04733e-09
2.26735e-09
-2.01121e-09
2.17663e-09
-1.96515e-09
2.07798e-09
-1.90944e-09
1.97283e-09
-1.8399e-09
1.86424e-09
-1.75879e-09
1.75443e-09
-1.66865e-09
1.64731e-09
-1.56532e-09
1.54994e-09
-1.42963e-09
1.46494e-09
-1.28661e-09
1.40209e-09
-1.09064e-09
1.36456e-09
-8.71103e-10
1.36083e-09
-5.85048e-10
1.3984e-09
-2.43432e-10
1.47551e-09
1.22769e-10
1.58498e-09
4.90794e-10
1.71186e-09
8.63801e-10
1.83259e-09
1.1681e-09
1.93592e-09
1.43024e-09
2.01744e-09
1.62368e-09
2.08074e-09
1.78383e-09
2.13099e-09
1.8871e-09
2.17368e-09
1.96426e-09
2.21323e-09
2.02284e-09
2.25159e-09
2.06337e-09
2.28952e-09
2.09019e-09
2.32783e-09
2.10692e-09
2.36683e-09
2.11525e-09
2.40694e-09
2.11516e-09
2.44828e-09
2.10726e-09
2.49085e-09
2.08999e-09
2.53543e-09
2.0627e-09
2.58172e-09
2.02701e-09
2.63034e-09
1.97891e-09
2.6816e-09
1.91731e-09
2.73472e-09
1.82782e-09
2.79075e-09
1.72388e-09
2.84886e-09
1.59593e-09
2.90697e-09
1.40464e-09
2.9649e-09
1.19602e-09
3.017e-09
8.9361e-10
3.06195e-09
5.44288e-10
3.0948e-09
1.48791e-10
3.11404e-09
-2.86422e-10
3.11845e-09
-6.98536e-10
3.11251e-09
-1.03144e-09
3.09727e-09
-1.30826e-09
3.07611e-09
-1.52319e-09
3.05015e-09
-1.68276e-09
3.02158e-09
-1.79976e-09
2.98978e-09
-1.90142e-09
2.9556e-09
-1.96645e-09
2.91876e-09
-2.01626e-09
2.87818e-09
-2.0512e-09
2.83274e-09
-2.07521e-09
2.78111e-09
-2.0837e-09
2.71362e-09
-2.05471e-09
2.62679e-09
-2.00743e-09
2.52488e-09
-1.9637e-09
2.40954e-09
-1.90624e-09
2.3099e-09
-1.52274e-09
2.21403e-09
-1.30867e-09
2.12246e-09
-1.13091e-09
2.04141e-09
-9.14023e-10
1.9806e-09
-7.02166e-10
1.9443e-09
-4.60995e-10
1.93497e-09
-2.12527e-10
1.94365e-09
-5.7936e-11
1.95427e-09
-4.38799e-11
1.96432e-09
-3.6531e-11
1.97263e-09
-2.92067e-11
1.97845e-09
-2.18871e-11
1.98124e-09
-1.4462e-11
1.9806e-09
-6.80919e-12
1.97623e-09
1.125e-12
1.96788e-09
9.3137e-12
1.9554e-09
1.76799e-11
1.93869e-09
2.61185e-11
1.9177e-09
3.45119e-11
1.89243e-09
4.27793e-11
1.86293e-09
5.08889e-11
1.82925e-09
5.8876e-11
1.79135e-09
6.68842e-11
1.7491e-09
7.52017e-11
1.70211e-09
8.43099e-11
1.64969e-09
9.49636e-11
1.5906e-09
1.08333e-10
1.52278e-09
1.26262e-10
1.44282e-09
1.51732e-10
1.34524e-09
1.89703e-10
1.22123e-09
2.48561e-10
1.05742e-09
3.42394e-10
8.35962e-10
4.93334e-10
5.42778e-10
7.28512e-10
2.027e-10
1.05022e-09
-4.45795e-11
1.32197e-09
9.83286e-10
-1.16272e-10
-3.85178e-10
-1.82798e-10
-6.52804e-10
-1.70735e-10
-6.97291e-10
-1.0889e-10
-6.57931e-10
-1.98077e-11
-5.9213e-10
8.09422e-11
-5.21963e-10
1.83813e-10
-4.57301e-10
2.83658e-10
-4.01034e-10
3.77914e-10
-3.52925e-10
4.65452e-10
-3.11859e-10
5.45918e-10
-2.76635e-10
6.19369e-10
-2.46174e-10
6.86065e-10
-2.19578e-10
7.46358e-10
-1.96125e-10
8.00629e-10
-1.75253e-10
8.49257e-10
-1.56531e-10
8.92613e-10
-1.3964e-10
9.31058e-10
-1.24355e-10
9.64949e-10
-1.10531e-10
9.94653e-10
-9.81001e-11
1.02056e-09
-8.70677e-11
1.0431e-09
-7.75152e-11
1.06277e-09
-6.96061e-11
1.08015e-09
-6.35977e-11
1.09593e-09
-5.98584e-11
1.11096e-09
-5.88944e-11
1.12624e-09
-6.13899e-11
1.143e-09
-6.82676e-11
1.16264e-09
-8.08044e-11
1.18676e-09
-1.007e-10
1.21113e-09
-1.43335e-10
1.2075e-09
-2.69727e-10
1.16986e-09
-4.37427e-10
1.10859e-09
-6.1249e-10
1.03597e-09
-7.88532e-10
9.61841e-10
-9.88585e-10
8.89416e-10
-1.2004e-09
8.08218e-10
-1.40993e-09
7.30536e-10
-1.57727e-09
6.67674e-10
-1.7196e-09
6.17081e-10
-1.8428e-09
5.75486e-10
-1.94348e-09
5.40972e-10
-2.01793e-09
5.11491e-10
-2.06941e-09
4.84462e-10
-2.09839e-09
4.56927e-10
-2.10451e-09
4.26541e-10
-2.08947e-09
3.9172e-10
-2.05483e-09
3.50724e-10
-1.99893e-09
3.02982e-10
-1.92382e-09
2.50329e-10
-1.83218e-09
1.9537e-10
-1.72904e-09
1.41019e-10
-1.61061e-09
9.37655e-11
-1.48615e-09
5.98452e-11
-1.35311e-09
4.88265e-11
-1.21238e-09
6.99332e-11
-1.05717e-09
1.3894e-10
-8.76518e-10
2.7096e-10
-6.55154e-10
4.74827e-10
-3.86697e-10
7.46598e-10
-7.29395e-11
1.0687e-09
2.95361e-10
1.39452e-09
6.57169e-10
1.69168e-09
1.01261e-09
1.93688e-09
1.30405e-09
2.12666e-09
1.54374e-09
2.26579e-09
1.72806e-09
2.36505e-09
1.8557e-09
2.4372e-09
1.94317e-09
2.49284e-09
2.00317e-09
2.54022e-09
2.04147e-09
2.58308e-09
2.06463e-09
2.62328e-09
2.07612e-09
2.66199e-09
2.07802e-09
2.69992e-09
2.07135e-09
2.73754e-09
2.05592e-09
2.77504e-09
2.03147e-09
2.81238e-09
1.99176e-09
2.84975e-09
1.9427e-09
2.88682e-09
1.88052e-09
2.92401e-09
1.7974e-09
2.95929e-09
1.67764e-09
2.99345e-09
1.54192e-09
3.02366e-09
1.34528e-09
3.04944e-09
1.11447e-09
3.06562e-09
7.85669e-10
3.07189e-09
4.21132e-10
3.06529e-09
1.9056e-11
3.04691e-09
-4.06448e-10
3.01751e-09
-7.80928e-10
2.98253e-09
-1.0783e-09
2.94267e-09
-1.3354e-09
2.90156e-09
-1.51566e-09
2.85905e-09
-1.6736e-09
2.8167e-09
-1.78065e-09
2.77363e-09
-1.86489e-09
2.72902e-09
-1.93638e-09
2.68186e-09
-1.97981e-09
2.63125e-09
-2.00988e-09
2.57577e-09
-2.02563e-09
2.51399e-09
-2.02796e-09
2.4449e-09
-2.01817e-09
2.36774e-09
-1.99557e-09
2.2823e-09
-1.9619e-09
2.18877e-09
-1.91768e-09
2.08815e-09
-1.86454e-09
1.98224e-09
-1.80352e-09
1.87327e-09
-1.73092e-09
1.76471e-09
-1.65024e-09
1.6591e-09
-1.56304e-09
1.55992e-09
-1.46614e-09
1.47234e-09
-1.34204e-09
1.39833e-09
-1.2126e-09
1.34281e-09
-1.03512e-09
1.30752e-09
-8.35806e-10
1.29755e-09
-5.75084e-10
1.31929e-09
-2.65169e-10
1.37457e-09
6.7493e-11
1.46414e-09
4.01219e-10
1.583e-09
7.44946e-10
1.71297e-09
1.03813e-09
1.83849e-09
1.30472e-09
1.94762e-09
1.51455e-09
2.03698e-09
1.69447e-09
2.10734e-09
1.81673e-09
2.16314e-09
1.90846e-09
2.20987e-09
1.97612e-09
2.25177e-09
2.02147e-09
2.29137e-09
2.05059e-09
2.33038e-09
2.06791e-09
2.36951e-09
2.07612e-09
2.40946e-09
2.07521e-09
2.45052e-09
2.0662e-09
2.49281e-09
2.0477e-09
2.53714e-09
2.01837e-09
2.58323e-09
1.98092e-09
2.63168e-09
1.93046e-09
2.68282e-09
1.86618e-09
2.73584e-09
1.77479e-09
2.7918e-09
1.66792e-09
2.84987e-09
1.53786e-09
2.90795e-09
1.34655e-09
2.96588e-09
1.1381e-09
3.01801e-09
8.41482e-10
3.063e-09
4.99298e-10
3.0959e-09
1.15885e-10
3.1152e-09
-3.05719e-10
3.11967e-09
-7.03003e-10
3.11375e-09
-1.02552e-09
3.09844e-09
-1.29295e-09
3.0771e-09
-1.50186e-09
3.0508e-09
-1.65646e-09
3.02146e-09
-1.77043e-09
2.9881e-09
-1.86805e-09
2.95128e-09
-1.92963e-09
2.91058e-09
-1.97556e-09
2.86475e-09
-2.00537e-09
2.81252e-09
-2.02297e-09
2.75249e-09
-2.02368e-09
2.67572e-09
-1.97794e-09
2.58002e-09
-1.91172e-09
2.4712e-09
-1.85488e-09
2.3526e-09
-1.78765e-09
2.2517e-09
-1.42186e-09
2.15644e-09
-1.21342e-09
2.06708e-09
-1.04156e-09
1.98859e-09
-8.35528e-10
1.92928e-09
-6.42856e-10
1.89192e-09
-4.23643e-10
1.87793e-09
-1.98533e-10
1.87969e-09
-5.96967e-11
1.88402e-09
-4.82133e-11
1.88881e-09
-4.13182e-11
1.89279e-09
-3.31817e-11
1.89489e-09
-2.39914e-11
1.89427e-09
-1.38399e-11
1.89023e-09
-2.76977e-12
1.88221e-09
9.13879e-12
1.86978e-09
2.17476e-11
1.85258e-09
3.48756e-11
1.83038e-09
4.83194e-11
1.80302e-09
6.18768e-11
1.77041e-09
7.53879e-11
1.73253e-09
8.87706e-11
1.68935e-09
1.02055e-10
1.6408e-09
1.15432e-10
1.58669e-09
1.29308e-10
1.52663e-09
1.44379e-10
1.45984e-09
1.61748e-10
1.38504e-09
1.83132e-10
1.30008e-09
2.11221e-10
1.20152e-09
2.50296e-10
1.08399e-09
3.07233e-10
9.3963e-10
3.9292e-10
7.58414e-10
5.2361e-10
5.32127e-10
7.1962e-10
2.68068e-10
9.92571e-10
1.89788e-11
1.29931e-09
-9.12889e-11
1.43223e-09
8.91998e-10
-8.75753e-11
-2.97603e-10
-1.69336e-10
-5.71043e-10
-2.02061e-10
-6.64566e-10
-1.92476e-10
-6.67516e-10
-1.53642e-10
-6.30965e-10
-9.57595e-11
-5.79846e-10
-2.78588e-11
-5.25202e-10
4.40762e-11
-4.72969e-10
1.16255e-10
-4.25104e-10
1.86373e-10
-3.81976e-10
2.53065e-10
-3.43327e-10
3.15569e-10
-3.08679e-10
3.73504e-10
-2.77513e-10
4.26722e-10
-2.49343e-10
4.7522e-10
-2.23751e-10
5.19084e-10
-2.00395e-10
5.5846e-10
-1.79016e-10
5.93537e-10
-1.59432e-10
6.24546e-10
-1.4154e-10
6.51759e-10
-1.25313e-10
6.75498e-10
-1.10806e-10
6.96151e-10
-9.81684e-11
7.1419e-10
-8.76451e-11
7.3019e-10
-7.95977e-11
7.44853e-10
-7.45212e-11
7.59031e-10
-7.30729e-11
7.73751e-10
-7.61094e-11
7.90225e-10
-8.47416e-11
8.09844e-10
-1.00423e-10
8.34123e-10
-1.24979e-10
8.60218e-10
-1.69431e-10
8.67111e-10
-2.7662e-10
8.50892e-10
-4.21208e-10
8.19841e-10
-5.81439e-10
7.82848e-10
-7.5154e-10
7.44694e-10
-9.50431e-10
7.05993e-10
-1.1617e-09
6.59307e-10
-1.36324e-09
6.13529e-10
-1.5315e-09
5.7557e-10
-1.68164e-09
5.43634e-10
-1.81086e-09
5.15603e-10
-1.91545e-09
4.90596e-10
-1.99292e-09
4.67254e-10
-2.04607e-09
4.43523e-10
-2.07466e-09
4.1729e-10
-2.07828e-09
3.87153e-10
-2.05933e-09
3.51398e-10
-2.01908e-09
3.09617e-10
-1.95715e-09
2.62109e-10
-1.87631e-09
2.10709e-10
-1.78078e-09
1.5776e-10
-1.67609e-09
1.06355e-10
-1.55921e-09
6.1008e-11
-1.4408e-09
2.59997e-11
-1.3181e-09
7.0734e-12
-1.19346e-09
1.01879e-11
-1.06029e-09
4.56369e-11
-9.11967e-10
1.25801e-10
-7.35319e-10
2.62859e-10
-5.23755e-10
4.64445e-10
-2.74525e-10
7.32033e-10
2.77735e-11
1.04026e-09
3.48946e-10
1.35977e-09
6.93087e-10
1.65579e-09
1.00804e-09
1.91072e-09
1.28881e-09
2.11531e-09
1.52346e-09
2.27053e-09
1.70048e-09
2.38483e-09
1.82887e-09
2.4681e-09
1.91989e-09
2.5308e-09
1.97878e-09
2.5812e-09
2.01423e-09
2.62509e-09
2.03223e-09
2.66572e-09
2.0374e-09
2.70445e-09
2.03261e-09
2.74217e-09
2.0182e-09
2.77938e-09
1.99426e-09
2.8163e-09
1.95484e-09
2.85324e-09
1.90576e-09
2.88993e-09
1.84383e-09
2.92683e-09
1.7605e-09
2.9619e-09
1.64257e-09
2.9959e-09
1.50792e-09
3.02603e-09
1.31516e-09
3.05176e-09
1.08874e-09
3.06792e-09
7.6951e-10
3.0742e-09
4.14852e-10
3.0676e-09
2.56536e-11
3.0492e-09
-3.88046e-10
3.01969e-09
-7.51423e-10
2.98447e-09
-1.04307e-09
2.94418e-09
-1.29511e-09
2.90239e-09
-1.47387e-09
2.85853e-09
-1.62973e-09
2.81376e-09
-1.73588e-09
2.76699e-09
-1.81811e-09
2.71738e-09
-1.88678e-09
2.66376e-09
-1.9262e-09
2.60512e-09
-1.95124e-09
2.54007e-09
-1.96058e-09
2.46754e-09
-1.95542e-09
2.38704e-09
-1.93767e-09
2.29857e-09
-1.90711e-09
2.20281e-09
-1.86614e-09
2.1009e-09
-1.81577e-09
1.99474e-09
-1.75837e-09
1.8868e-09
-1.69559e-09
1.77969e-09
-1.62382e-09
1.6768e-09
-1.54735e-09
1.58028e-09
-1.46652e-09
1.49264e-09
-1.3785e-09
1.41731e-09
-1.26672e-09
1.35462e-09
-1.14991e-09
1.30733e-09
-9.87824e-10
1.27574e-09
-8.04214e-10
1.26299e-09
-5.62336e-10
1.27412e-09
-2.76302e-10
1.31141e-09
3.0208e-11
1.37862e-09
3.34011e-10
1.47703e-09
6.46535e-10
1.5974e-09
9.17759e-10
1.72744e-09
1.17467e-09
1.85289e-09
1.38911e-09
1.96485e-09
1.58251e-09
2.05808e-09
1.7235e-09
2.13326e-09
1.83328e-09
2.19423e-09
1.91515e-09
2.2451e-09
1.9706e-09
2.28951e-09
2.00618e-09
2.33091e-09
2.02651e-09
2.37127e-09
2.03577e-09
2.4118e-09
2.03469e-09
2.45299e-09
2.025e-09
2.49519e-09
2.0055e-09
2.53932e-09
1.97424e-09
2.58519e-09
1.93505e-09
2.63344e-09
1.88221e-09
2.68441e-09
1.81522e-09
2.7373e-09
1.7219e-09
2.79315e-09
1.61208e-09
2.85114e-09
1.47987e-09
2.90917e-09
1.28852e-09
2.96707e-09
1.0802e-09
3.01918e-09
7.89365e-10
3.06418e-09
4.54305e-10
3.09709e-09
8.29735e-11
3.11637e-09
-3.25006e-10
3.12078e-09
-7.07408e-10
3.11469e-09
-1.01943e-09
3.09909e-09
-1.27735e-09
3.07718e-09
-1.47995e-09
3.04978e-09
-1.62906e-09
3.01852e-09
-1.73917e-09
2.98227e-09
-1.8318e-09
2.94144e-09
-1.88881e-09
2.89543e-09
-1.92955e-09
2.84289e-09
-1.95283e-09
2.78269e-09
-1.96276e-09
2.71394e-09
-1.95492e-09
2.62889e-09
-1.89288e-09
2.52674e-09
-1.80955e-09
2.41429e-09
-1.74243e-09
2.29543e-09
-1.66878e-09
2.19595e-09
-1.32238e-09
2.10362e-09
-1.1211e-09
2.01817e-09
-9.56107e-10
1.94352e-09
-7.60881e-10
1.88693e-09
-5.86264e-10
1.85025e-09
-3.86963e-10
1.83416e-09
-1.8244e-10
1.8316e-09
-5.71391e-11
1.83114e-09
-4.7757e-11
1.83121e-09
-4.13853e-11
1.83075e-09
-3.27284e-11
1.82877e-09
-2.20079e-11
1.82433e-09
-9.40282e-12
1.81663e-09
4.93379e-12
1.80496e-09
2.08114e-11
1.78872e-09
3.79849e-11
1.76743e-09
5.61652e-11
1.74071e-09
7.50409e-11
1.70828e-09
9.4309e-11
1.66994e-09
1.1372e-10
1.62559e-09
1.33126e-10
1.57511e-09
1.52532e-10
1.51839e-09
1.72157e-10
1.45519e-09
1.92503e-10
1.38512e-09
2.14454e-10
1.30743e-09
2.39431e-10
1.22092e-09
2.69648e-10
1.12357e-09
3.08562e-10
1.01229e-09
3.6158e-10
8.82472e-10
4.37051e-10
7.28146e-10
5.47246e-10
5.4374e-10
7.08017e-10
3.30241e-10
9.33119e-10
1.09128e-10
1.21368e-09
-5.89415e-11
1.46738e-09
-8.86023e-11
1.46189e-09
8.03395e-10
-6.24969e-11
-2.35106e-10
-1.39067e-10
-4.94473e-10
-1.90006e-10
-6.13627e-10
-2.09075e-10
-6.48446e-10
-2.01988e-10
-6.38052e-10
-1.76286e-10
-6.05547e-10
-1.37715e-10
-5.63773e-10
-9.16309e-11
-5.19054e-10
-4.1819e-11
-4.74916e-10
9.09626e-12
-4.32892e-10
5.93299e-11
-3.9356e-10
1.07704e-10
-3.57052e-10
1.53467e-10
-3.23276e-10
1.96158e-10
-2.92034e-10
2.35512e-10
-2.63104e-10
2.71403e-10
-2.36286e-10
3.03811e-10
-2.11424e-10
3.32797e-10
-1.88418e-10
3.58493e-10
-1.67236e-10
3.81101e-10
-1.4792e-10
4.00896e-10
-1.30602e-10
4.18242e-10
-1.15515e-10
4.33604e-10
-1.03007e-10
4.47565e-10
-9.35583e-11
4.60846e-10
-8.78026e-11
4.74326e-10
-8.6553e-11
4.89052e-10
-9.08357e-11
5.06243e-10
-1.01933e-10
5.27261e-10
-1.21441e-10
5.53548e-10
-1.51265e-10
5.83385e-10
-1.99268e-10
6.01919e-10
-2.95154e-10
6.06511e-10
-4.258e-10
6.02706e-10
-5.77634e-10
5.95628e-10
-7.44462e-10
5.86232e-10
-9.41036e-10
5.73535e-10
-1.149e-09
5.52261e-10
-1.34197e-09
5.28979e-10
-1.50821e-09
5.08417e-10
-1.66108e-09
4.89745e-10
-1.79219e-09
4.7158e-10
-1.89728e-09
4.53639e-10
-1.97498e-09
4.34979e-10
-2.02741e-09
4.13971e-10
-2.05365e-09
3.89132e-10
-2.05344e-09
3.59775e-10
-2.02998e-09
3.24414e-10
-1.98372e-09
2.83418e-10
-1.91615e-09
2.37665e-10
-1.83056e-09
1.89034e-10
-1.73215e-09
1.39679e-10
-1.62674e-09
9.24656e-11
-1.512e-09
5.05251e-11
-1.39886e-09
1.67793e-11
-1.28436e-09
-5.31754e-12
-1.17136e-09
-1.20104e-11
-1.05359e-09
3.01922e-12
-9.26997e-10
4.86789e-11
-7.80978e-10
1.3579e-10
-6.10867e-10
2.7455e-10
-4.13284e-10
4.75139e-10
-1.72815e-10
7.30679e-10
9.34057e-11
1.02692e-09
3.96841e-10
1.33347e-09
7.01487e-10
1.62586e-09
9.96419e-10
1.88483e-09
1.2645e-09
2.09894e-09
1.48637e-09
2.26744e-09
1.66037e-09
2.39528e-09
1.79205e-09
2.49077e-09
1.88329e-09
2.56236e-09
1.94264e-09
2.61798e-09
1.97661e-09
2.66443e-09
1.99095e-09
2.70611e-09
1.99092e-09
2.74549e-09
1.97883e-09
2.78349e-09
1.95626e-09
2.82059e-09
1.91774e-09
2.85736e-09
1.86898e-09
2.89375e-09
1.80745e-09
2.9303e-09
1.72394e-09
2.96506e-09
1.60781e-09
2.99881e-09
1.47416e-09
3.02874e-09
1.28524e-09
3.05432e-09
1.06316e-09
3.07035e-09
7.53479e-10
3.0765e-09
4.08697e-10
3.06975e-09
3.24083e-11
3.05109e-09
-3.69391e-10
3.02118e-09
-7.21511e-10
2.98536e-09
-1.00725e-09
2.94405e-09
-1.2538e-09
2.90047e-09
-1.43029e-09
2.85375e-09
-1.58302e-09
2.80501e-09
-1.68714e-09
2.75295e-09
-1.76605e-09
2.69654e-09
-1.83037e-09
2.63456e-09
-1.86421e-09
2.56613e-09
-1.88282e-09
2.49028e-09
-1.88472e-09
2.40653e-09
-1.87167e-09
2.31518e-09
-1.84631e-09
2.21709e-09
-1.80903e-09
2.11384e-09
-1.76288e-09
2.00735e-09
-1.70928e-09
1.9001e-09
-1.65112e-09
1.7948e-09
-1.59029e-09
1.69395e-09
-1.52297e-09
1.60036e-09
-1.45377e-09
1.51538e-09
-1.38154e-09
1.44035e-09
-1.30347e-09
1.37721e-09
-1.20358e-09
1.32493e-09
-1.09763e-09
1.28507e-09
-9.47959e-10
1.25723e-09
-7.76381e-10
1.24361e-09
-5.48708e-10
1.24829e-09
-2.80981e-10
1.27298e-09
5.51108e-12
1.32176e-09
2.85238e-10
1.39827e-09
5.70017e-10
1.4997e-09
8.16329e-10
1.61997e-09
1.05441e-09
1.74755e-09
1.26153e-09
1.8721e-09
1.45796e-09
1.98418e-09
1.61142e-09
2.0796e-09
1.73786e-09
2.15881e-09
1.83593e-09
2.22418e-09
1.90523e-09
2.2789e-09
1.95146e-09
2.32656e-09
1.97884e-09
2.37024e-09
1.99209e-09
2.41246e-09
1.99247e-09
2.45462e-09
1.98284e-09
2.4973e-09
1.96282e-09
2.54159e-09
1.92995e-09
2.58742e-09
1.88921e-09
2.63554e-09
1.83409e-09
2.68635e-09
1.76441e-09
2.73909e-09
1.66916e-09
2.7948e-09
1.55637e-09
2.85267e-09
1.422e-09
2.91062e-09
1.23058e-09
2.96844e-09
1.02238e-09
3.02049e-09
7.37312e-10
3.06542e-09
4.09378e-10
3.09824e-09
5.01519e-11
3.11737e-09
-3.4414e-10
3.1215e-09
-7.11539e-10
3.11496e-09
-1.01289e-09
3.09858e-09
-1.26097e-09
3.07531e-09
-1.45669e-09
3.04576e-09
-1.5995e-09
3.01142e-09
-1.70484e-09
2.97098e-09
-1.79136e-09
2.92472e-09
-1.84255e-09
2.87201e-09
-1.87684e-09
2.81175e-09
-1.89257e-09
2.74328e-09
-1.89429e-09
2.66651e-09
-1.87814e-09
2.57504e-09
-1.80141e-09
2.46909e-09
-1.7036e-09
2.3558e-09
-1.62914e-09
2.2389e-09
-1.55189e-09
2.14256e-09
-1.22604e-09
2.05436e-09
-1.0329e-09
1.97344e-09
-8.7519e-10
1.90295e-09
-6.90394e-10
1.84938e-09
-5.32695e-10
1.81406e-09
-3.51647e-10
1.79725e-09
-1.65633e-10
1.79218e-09
-5.20653e-11
1.78844e-09
-4.40182e-11
1.78485e-09
-3.77985e-11
1.78062e-09
-2.84994e-11
1.7749e-09
-1.6284e-11
1.76682e-09
-1.3283e-12
1.75559e-09
1.61723e-11
1.74043e-09
3.59639e-11
1.72069e-09
5.77229e-11
1.69579e-09
8.10694e-11
1.66524e-09
1.05592e-10
1.62866e-09
1.30889e-10
1.58576e-09
1.56617e-10
1.53633e-09
1.82554e-10
1.4802e-09
2.08663e-10
1.41719e-09
2.35167e-10
1.34706e-09
2.62634e-10
1.26942e-09
2.92094e-10
1.18363e-09
3.25223e-10
1.08862e-09
3.64653e-10
9.82712e-10
4.14474e-10
8.63336e-10
4.80956e-10
7.27015e-10
5.73371e-10
5.70054e-10
7.04207e-10