/*--------------------------------*- C++ -*----------------------------------*\
| =========                 |                                                 |
| \\      /  F ield         | OpenFOAM: The Open Source CFD Toolbox           |
|  \\    /   O peration     | Version:  2506                                  |
|   \\  /    A nd           | Website:  www.openfoam.com                      |
|    \\/     M anipulation  |                                                 |
\*---------------------------------------------------------------------------*/
FoamFile
{
    version     2.0;
    format      ascii;
    arch        "LSB;label=32;scalar=64";
    class       volScalarField;
    location    "5";
    object      s;
}
// * * * * * * * * * * * * * * * * * * * * * * * * * * * * * * * * * * * * * //

dimensions      [0 0 0 0 0 0 0];

internalField   nonuniform List<scalar> 
4000
(
-4.91392e-20
-3.55799e-20
-2.55639e-20
-1.7201e-20
-8.97758e-21
-1.55396e-22
9.45336e-21
1.96345e-20
2.98657e-20
3.93719e-20
4.71686e-20
5.21171e-20
5.30043e-20
4.86538e-20
3.80732e-20
2.0634e-20
-3.72107e-21
-3.42584e-20
-6.92437e-20
-1.05776e-19
-1.3971e-19
-1.65722e-19
-1.77588e-19
-1.68739e-19
-1.3312e-19
-6.65173e-20
3.21879e-20
1.58051e-19
3.01601e-19
4.3535e-19
5.45185e-19
5.14495e-19
1.46248e-19
-7.31415e-19
-2.25948e-18
-4.41271e-18
-7.0838e-18
-1.08562e-17
-1.73119e-17
-2.68413e-17
-3.8517e-17
-4.945e-17
-5.5164e-17
-4.7887e-17
-1.43012e-17
6.04737e-17
1.87049e-16
3.78541e-16
7.58866e-16
1.80878e-15
3.82732e-15
6.09155e-15
9.80857e-15
1.53664e-14
2.49888e-14
3.68792e-14
5.9832e-14
7.02264e-14
1.18198e-13
1.17089e-13
9.30339e-14
5.32314e-14
1.93418e-14
6.0143e-15
2.12235e-15
8.09071e-16
2.07809e-16
-3.32777e-17
-5.80732e-17
-2.11072e-17
6.45533e-18
1.35005e-17
9.53098e-18
3.76722e-18
1.24495e-19
-1.16391e-18
-1.11117e-18
-6.30405e-19
-1.88753e-19
7.39833e-20
1.7376e-19
1.74946e-19
1.35185e-19
9.28012e-20
6.23839e-20
4.89602e-20
5.53721e-20
5.22743e-20
2.37648e-19
-1.51862e-19
-7.71287e-19
-2.1683e-18
1.5408e-18
5.06259e-17
1.03494e-16
-2.33235e-16
6.20769e-16
7.03851e-15
3.62124e-14
1.59705e-13
7.4013e-13
2.6805e-12
1.17245e-11
3.81312e-11
1.58963e-10
5.42975e-10
1.9703e-09
1.06677e-08
5.64665e-08
1.80391e-07
4.07016e-07
6.61282e-07
1.04612e-06
1.0545e-06
9.20418e-07
4.77292e-07
-2.07374e-07
-7.30359e-07
-6.74684e-07
-3.74112e-07
-1.6e-07
-6.00622e-08
-2.00625e-08
-6.01354e-09
-1.72888e-09
-4.85918e-10
-1.31482e-10
-3.42707e-11
-8.41037e-12
-1.50729e-12
-1.7645e-13
1.5546e-13
1.45325e-13
9.31207e-14
5.23383e-14
2.75405e-14
1.39529e-14
6.91683e-15
3.42285e-15
1.70913e-15
8.72041e-16
4.22303e-16
1.738e-16
2.99889e-17
-2.34292e-17
-9.67119e-18
1.44528e-16
3.63338e-16
-4.49718e-15
-7.20331e-14
-8.4232e-13
-6.49878e-12
-3.71602e-11
-2.55876e-10
-9.86678e-10
-5.29101e-09
-2.20436e-08
-7.82098e-08
-3.48185e-07
-9.2361e-07
-3.12312e-06
-1.34967e-05
-5.44405e-05
-0.000123857
-0.000285056
-0.000289956
-0.000747855
-0.00290083
-0.00813187
-0.0151402
-0.0252751
-0.0389993
-0.0499565
-0.0575714
-0.0623633
-0.0646203
-0.0646245
-0.0626356
-0.0588097
-0.0534086
-0.0468216
-0.039506
-0.0319156
-0.0244298
-0.0174142
-0.0113782
-0.00675523
-0.00411615
-0.00363014
-0.00415747
-0.00508589
-0.00621004
-0.00743939
-0.00879457
-0.0104183
-0.0127256
-0.0182757
-0.033385
-0.0605416
-0.0724518
-1.44295e-20
3.65216e-21
3.88947e-21
8.94116e-22
-2.06036e-21
-4.12412e-21
-4.88163e-21
-4.13173e-21
-1.95279e-21
1.22374e-21
4.58809e-21
6.99994e-21
7.12619e-21
3.67809e-21
-4.25449e-21
-1.67916e-20
-3.28169e-20
-4.95629e-20
-6.23226e-20
-6.4403e-20
-4.74589e-20
-2.35316e-21
7.9314e-20
2.02924e-19
3.67755e-19
5.63483e-19
7.65991e-19
9.36183e-19
1.01344e-18
9.40678e-19
6.0395e-19
4.1834e-19
7.61464e-19
1.633e-18
2.94451e-18
4.38504e-18
5.18061e-18
5.05483e-18
5.31079e-18
6.91357e-18
9.52702e-18
1.20125e-17
1.30438e-17
1.05958e-17
1.31716e-18
-1.82464e-17
-5.03776e-17
-9.85147e-17
-2.0713e-16
-5.1907e-16
-6.624e-16
-2.32599e-16
-1.27571e-16
-5.85892e-17
-2.60202e-17
-8.9301e-18
1.89286e-18
1.00091e-17
2.44721e-17
2.97597e-14
8.55179e-14
1.32318e-13
1.04588e-13
5.65224e-14
2.10318e-14
6.34026e-15
2.36117e-15
8.54889e-16
1.87245e-16
-6.95917e-17
-9.57004e-17
-4.71005e-17
-3.67246e-18
1.49422e-17
1.54333e-17
9.04774e-18
2.91741e-18
-5.82006e-19
-1.7641e-18
-1.65451e-18
-1.08799e-18
-5.29218e-19
-1.32565e-19
8.84386e-20
1.87456e-19
2.21467e-19
1.85597e-19
2.02617e-19
-1.95115e-19
-1.65495e-18
9.9093e-20
4.93221e-18
2.77754e-17
1.79865e-17
-1.86693e-16
-1.00488e-17
2.01953e-15
1.26112e-14
6.11185e-14
2.61505e-13
1.07982e-12
4.22334e-12
1.60518e-11
6.08435e-11
2.38287e-10
8.72644e-10
5.19594e-09
2.77002e-08
7.79158e-08
1.17546e-07
1.04927e-07
-5.02968e-09
-2.59117e-07
-5.88975e-07
-9.98385e-07
-1.53364e-06
-2.34847e-06
-3.51213e-06
-3.71675e-06
-2.80207e-06
-1.43056e-06
-4.88662e-07
-1.55668e-07
-4.93955e-08
-1.41312e-08
-3.72989e-09
-9.49143e-10
-2.31796e-10
-4.62593e-11
-9.97589e-12
-3.25911e-13
2.18451e-12
1.67614e-12
9.88907e-13
5.25798e-13
2.62479e-13
1.2661e-13
6.02495e-14
2.86309e-14
1.37169e-14
6.8341e-15
3.78271e-15
2.3226e-15
1.59847e-15
1.27328e-15
1.05242e-15
2.90294e-16
-1.09646e-15
-1.89344e-14
-2.27366e-13
-2.21986e-12
-1.48855e-11
-8.23871e-11
-4.5967e-10
-1.86942e-09
-8.68548e-09
-3.24982e-08
-1.24374e-07
-4.32344e-07
-1.58807e-06
-7.26914e-06
-2.37917e-05
-4.90282e-05
-6.79933e-05
-0.000102204
-0.000580996
-0.00283901
-0.00794251
-0.0153198
-0.0235446
-0.0313977
-0.0390422
-0.0461651
-0.0524938
-0.057641
-0.0599776
-0.0597936
-0.058394
-0.0558864
-0.0524871
-0.0474621
-0.0401451
-0.0318821
-0.024666
-0.0203266
-0.0174202
-0.0155466
-0.0157065
-0.0183166
-0.0227782
-0.0279733
-0.0327048
-0.0361334
-0.0383463
-0.0408878
-0.047052
-0.0643072
-0.103504
-0.164531
-0.170648
1.03578e-20
-2.30623e-21
1.88355e-22
3.01362e-22
3.07746e-22
8.73856e-23
7.8715e-23
6.98654e-22
2.14588e-21
4.25216e-21
6.37897e-21
7.3962e-21
5.76582e-21
-2.49428e-22
-1.22372e-20
-3.11425e-20
-5.66458e-20
-8.64518e-20
-1.15554e-19
-1.35564e-19
-1.34213e-19
-9.51773e-20
1.5924e-21
1.78798e-19
4.59725e-19
8.65118e-19
1.40883e-18
2.09332e-18
2.90455e-18
3.80541e-18
4.75625e-18
5.29839e-18
5.0326e-18
4.03712e-18
2.70019e-18
1.09569e-18
-5.37822e-19
-1.54152e-18
-1.80587e-18
-1.98806e-18
-2.43935e-18
-2.92186e-18
-2.99371e-18
-2.05922e-18
7.48457e-19
6.20174e-18
1.47747e-17
2.83452e-17
6.57897e-17
1.40739e-16
1.03521e-16
5.42496e-17
2.42905e-17
1.10216e-17
4.46558e-18
1.00852e-18
-1.14082e-18
-8.93321e-19
-3.61891e-17
1.27213e-16
2.05057e-14
8.9076e-14
1.64397e-13
1.48082e-13
9.75293e-14
4.52452e-14
1.48446e-14
5.12433e-15
2.05117e-15
6.95127e-16
9.69714e-17
-9.45084e-17
-1.03624e-16
-5.29355e-17
-7.02017e-18
1.56928e-17
1.91621e-17
1.34975e-17
6.38679e-18
1.26916e-18
-1.36609e-18
-2.23752e-18
-2.19211e-18
-1.8403e-18
-1.4931e-18
-1.30923e-18
-1.34379e-18
-1.51664e-18
-2.30655e-18
-5.83097e-19
8.69351e-18
1.53262e-17
1.58639e-17
-1.11749e-16
-3.13229e-16
7.96936e-16
6.23637e-15
3.43775e-14
1.6235e-13
6.84343e-13
2.80263e-12
1.09215e-11
4.1465e-11
1.62105e-10
6.05395e-10
3.12557e-09
2.01465e-08
6.24856e-08
1.12031e-07
1.35832e-07
9.26238e-08
-3.79677e-08
-2.32179e-07
-4.67189e-07
-7.66928e-07
-1.2502e-06
-2.16225e-06
-3.86234e-06
-5.99296e-06
-6.68178e-06
-5.29497e-06
-2.80729e-06
-9.96968e-07
-2.79325e-07
-8.02989e-08
-2.09814e-08
-4.95393e-09
-1.01719e-09
-2.53093e-10
-4.64986e-11
1.556e-11
2.53914e-11
1.59166e-11
8.41503e-12
4.16415e-12
2.01068e-12
9.42758e-13
4.28621e-13
1.97399e-13
9.586e-14
5.02853e-14
2.90683e-14
1.80995e-14
1.18887e-14
7.74824e-15
2.44677e-15
-5.67497e-15
-1.40366e-14
-9.56385e-14
-8.91703e-13
-7.63615e-12
-4.84725e-11
-2.53871e-10
-1.29305e-09
-5.27974e-09
-2.30584e-08
-8.74783e-08
-3.28294e-07
-1.16163e-06
-5.6872e-06
-1.87445e-05
-4.25565e-05
-7.20846e-05
-0.000103249
-0.000602112
-0.00305517
-0.00868099
-0.0173721
-0.0282277
-0.0397242
-0.050742
-0.0614544
-0.0713971
-0.0799944
-0.0867136
-0.0911394
-0.0930017
-0.0921999
-0.088815
-0.0831545
-0.0757764
-0.0674469
-0.0591325
-0.0519387
-0.0469515
-0.0449456
-0.0461907
-0.0503436
-0.056352
-0.0625821
-0.0672688
-0.0693872
-0.0697589
-0.0717878
-0.080948
-0.101156
-0.132007
-0.175713
-0.2417
-0.235972
2.23607e-20
-2.52896e-21
2.3337e-22
-3.19333e-23
-1.04284e-22
-4.19582e-22
-8.60998e-22
-1.14219e-21
-8.11821e-22
6.22421e-22
3.50903e-21
7.87981e-21
1.32671e-20
1.85153e-20
2.15962e-20
1.94859e-20
8.15234e-21
-1.73297e-20
-6.25631e-20
-1.33586e-19
-2.36556e-19
-3.77146e-19
-5.59473e-19
-7.84573e-19
-1.04873e-18
-1.34219e-18
-1.649e-18
-1.94957e-18
-2.22458e-18
-2.46553e-18
-2.64366e-18
-2.95125e-18
-3.22862e-18
-2.97909e-18
-2.20338e-18
-1.28958e-18
-4.3356e-19
2.31441e-19
5.26499e-19
5.85017e-19
6.32751e-19
6.9644e-19
6.56186e-19
3.31775e-19
-5.00522e-19
-2.00031e-18
-4.27358e-18
-8.53439e-18
-2.06301e-17
-3.41326e-17
-2.34188e-17
-1.0564e-17
-4.60032e-18
-1.96462e-18
-6.82352e-19
-1.49924e-21
4.29717e-19
1.91358e-18
-2.97451e-17
4.30845e-16
-1.01107e-15
2.23372e-14
1.08482e-13
2.1041e-13
1.99951e-13
1.48835e-13
8.03153e-14
3.16152e-14
1.07038e-14
4.26143e-15
1.70795e-15
5.31813e-16
8.36493e-18
-1.35551e-16
-1.19233e-16
-6.11709e-17
-1.18521e-17
1.48785e-17
2.22087e-17
1.87878e-17
1.20525e-17
6.07904e-18
1.99071e-18
-2.96741e-19
-1.36694e-18
-1.71239e-18
-1.45676e-18
-1.05829e-18
1.75014e-18
1.24942e-17
1.74712e-17
-7.01462e-18
-8.47612e-17
-2.93029e-16
-1.09648e-16
3.17229e-15
1.83207e-14
9.40894e-14
4.32936e-13
1.80725e-12
7.35376e-12
2.85245e-11
1.11119e-10
4.25319e-10
1.98827e-09
1.42971e-08
5.02306e-08
9.72042e-08
1.25615e-07
8.91269e-08
-3.05455e-08
-2.10778e-07
-4.09732e-07
-6.0292e-07
-8.2513e-07
-1.20248e-06
-2.0411e-06
-3.86188e-06
-6.98727e-06
-9.98336e-06
-1.05753e-05
-8.16607e-06
-4.42699e-06
-1.60509e-06
-4.14215e-07
-1.10121e-07
-2.63856e-08
-5.21441e-09
-6.30365e-11
2.78211e-10
2.68526e-10
1.68801e-10
9.58961e-11
5.19191e-11
2.54253e-11
1.12326e-11
4.93982e-12
2.2571e-12
1.06038e-12
5.28368e-13
3.00449e-13
2.00447e-13
1.42039e-13
9.64465e-14
4.62704e-14
-1.13678e-14
-5.76952e-14
-1.17331e-13
-4.77421e-13
-3.49066e-12
-2.53168e-11
-1.52465e-10
-7.67994e-10
-3.65396e-09
-1.47755e-08
-6.2493e-08
-2.36176e-07
-8.6035e-07
-3.8776e-06
-1.54998e-05
-3.39374e-05
-6.33339e-05
-9.42394e-05
-0.000611885
-0.0030538
-0.00884489
-0.0178262
-0.0294921
-0.0426519
-0.0558857
-0.0683622
-0.0802098
-0.0910253
-0.100397
-0.108003
-0.113625
-0.117118
-0.118407
-0.117505
-0.114552
-0.109915
-0.104255
-0.0985263
-0.0938767
-0.0914305
-0.091948
-0.0954257
-0.100838
-0.106224
-0.10932
-0.108827
-0.106077
-0.106153
-0.116631
-0.142278
-0.176876
-0.206617
-0.234615
-0.287704
-0.273187
2.56445e-20
-8.65858e-22
-7.66211e-24
8.08605e-23
1.82435e-22
2.31839e-22
5.1377e-23
-5.00716e-22
-1.45487e-21
-2.64542e-21
-3.67777e-21
-3.85463e-21
-2.1048e-21
2.98433e-21
1.29044e-20
2.884e-20
5.14473e-20
8.11954e-20
1.19337e-19
1.68819e-19
2.33895e-19
3.17134e-19
4.13183e-19
5.00444e-19
5.34322e-19
4.47368e-19
1.61658e-19
-3.82998e-19
-1.18024e-18
-2.09662e-18
-2.86882e-18
-3.03699e-18
-2.28497e-18
-1.06136e-18
-1.41062e-19
2.25096e-19
2.08371e-19
2.94321e-20
-1.15053e-19
-1.61175e-19
-1.64238e-19
-1.61892e-19
-1.32806e-19
-2.50925e-20
2.18303e-19
6.25946e-19
1.25126e-18
2.69985e-18
6.05936e-18
7.67049e-18
4.66353e-18
2.02424e-18
8.41344e-19
3.35215e-19
8.75741e-20
-4.82108e-20
-1.7196e-19
-2.74755e-19
-4.84606e-18
1.44219e-16
-1.39182e-15
-2.8129e-16
3.03503e-14
1.42759e-13
2.76301e-13
2.70697e-13
2.14199e-13
1.30876e-13
5.95387e-14
2.06488e-14
7.98677e-15
3.46313e-15
1.39412e-15
4.12853e-16
-2.83401e-17
-1.52087e-16
-1.34396e-16
-7.74162e-17
-2.55028e-17
7.19236e-18
2.12793e-17
2.35297e-17
2.04659e-17
1.63378e-17
1.29647e-17
1.1223e-17
1.14924e-17
1.32687e-17
1.89917e-17
2.00299e-17
-2.70281e-17
-1.11155e-16
-2.52311e-16
-2.38579e-16
9.7166e-16
9.92727e-15
5.26995e-14
2.60479e-13
1.17432e-12
4.90241e-12
1.98105e-11
7.79952e-11
3.0371e-10
1.3717e-09
1.01707e-08
3.99628e-08
8.40238e-08
1.14695e-07
8.61558e-08
-1.22394e-08
-1.63262e-07
-3.23472e-07
-4.43246e-07
-5.24938e-07
-6.17258e-07
-8.37994e-07
-1.43842e-06
-3.01753e-06
-6.43152e-06
-1.14286e-05
-1.52229e-05
-1.52169e-05
-1.14855e-05
-6.26848e-06
-2.31285e-06
-5.60055e-07
-1.39752e-07
-3.15208e-08
-4.50558e-09
1.13444e-09
1.66757e-09
1.29888e-09
6.7941e-10
2.69942e-10
1.2169e-10
5.92987e-11
2.73883e-11
1.14762e-11
4.99123e-12
2.49567e-12
1.53764e-12
1.08911e-12
6.72988e-13
2.51472e-13
-8.53976e-14
-2.69925e-13
-4.03705e-13
-7.45351e-13
-2.57226e-12
-1.44629e-11
-8.56086e-11
-4.64018e-10
-2.30952e-09
-1.02099e-08
-4.23255e-08
-1.69709e-07
-6.28102e-07
-2.70498e-06
-1.14446e-05
-3.05354e-05
-4.92081e-05
-9.28753e-05
-0.000640076
-0.00304763
-0.0086785
-0.0176372
-0.0291776
-0.0424511
-0.0562354
-0.0695342
-0.0819808
-0.0936897
-0.104458
-0.114172
-0.122826
-0.130459
-0.137061
-0.142508
-0.146581
-0.149069
-0.149934
-0.149471
-0.148373
-0.147624
-0.148191
-0.150551
-0.154225
-0.1576
-0.158369
-0.154856
-0.148099
-0.143694
-0.151151
-0.178063
-0.220222
-0.257075
-0.26806
-0.27216
-0.299142
-0.288945
8.87562e-21
3.37172e-22
-7.83523e-23
-5.32361e-23
-3.61749e-23
8.33514e-23
3.14587e-22
5.98023e-22
7.7302e-22
5.66427e-22
-3.93471e-22
-2.51464e-21
-6.01781e-21
-1.08198e-20
-1.6935e-20
-2.56197e-20
-4.02789e-20
-6.49575e-20
-9.84682e-20
-1.24928e-19
-1.09258e-19
-9.30282e-21
1.9244e-19
4.5153e-19
6.45649e-19
6.05293e-19
1.99798e-19
-5.46691e-19
-1.38396e-18
-1.92722e-18
-1.8923e-18
-1.25678e-18
-4.90841e-19
-6.92199e-20
1.35391e-20
-2.03713e-20
-4.34762e-20
-2.13086e-20
1.86323e-20
3.95291e-20
4.11848e-20
3.61485e-20
2.30869e-20
-1.13468e-20
-8.076e-20
-1.90518e-19
-3.76208e-19
-8.52319e-19
-1.63455e-18
-1.65533e-18
-9.15602e-19
-3.77029e-19
-1.50173e-19
-5.44329e-20
-6.31655e-21
2.28649e-20
5.83013e-20
7.76827e-20
2.77754e-18
-3.88074e-17
3.84793e-16
-1.31449e-15
2.0831e-15
4.65443e-14
1.94835e-13
3.72523e-13
3.70396e-13
3.05517e-13
2.04403e-13
1.03523e-13
4.07143e-14
1.57566e-14
6.79798e-15
3.0249e-15
1.24277e-15
3.77601e-16
-2.99285e-17
-1.58692e-16
-1.57185e-16
-1.09638e-16
-5.74375e-17
-1.85046e-17
4.66248e-18
1.57556e-17
1.99786e-17
2.09593e-17
1.96209e-17
1.78104e-17
1.97376e-18
-5.79637e-17
-1.69706e-16
-2.2186e-16
-2.01152e-16
5.50356e-16
4.09599e-15
2.97736e-14
1.5254e-13
7.35675e-13
3.27725e-12
1.3662e-11
5.53284e-11
2.18328e-10
9.68654e-10
7.24576e-09
3.15081e-08
7.19786e-08
1.03304e-07
8.1474e-08
-3.45952e-09
-1.2928e-07
-2.65912e-07
-3.59941e-07
-3.75814e-07
-3.65391e-07
-3.69278e-07
-4.6638e-07
-8.21321e-07
-1.88875e-06
-4.82468e-06
-1.03244e-05
-1.76785e-05
-2.18786e-05
-2.08423e-05
-1.53216e-05
-8.43812e-06
-3.15864e-06
-7.27838e-07
-1.72728e-07
-3.87796e-08
-5.8711e-09
1.0642e-09
2.78502e-09
2.65159e-09
1.85493e-09
9.01787e-10
3.04351e-10
1.17444e-10
5.20832e-11
2.31149e-11
9.98879e-12
3.86893e-12
6.45176e-13
-9.99647e-13
-1.44989e-12
-1.72012e-12
-2.03511e-12
-2.56067e-12
-4.36671e-12
-1.38775e-11
-6.42146e-11
-3.21688e-10
-1.45932e-09
-6.84397e-09
-2.93585e-08
-1.21133e-07
-4.57536e-07
-1.87472e-06
-8.36218e-06
-2.49241e-05
-4.62604e-05
-6.44575e-05
-0.000452237
-0.00299053
-0.00840824
-0.0169976
-0.0280928
-0.0405489
-0.0534316
-0.0658064
-0.0773309
-0.0881866
-0.0984719
-0.108274
-0.117857
-0.127588
-0.137814
-0.148699
-0.160076
-0.171415
-0.181954
-0.190959
-0.198024
-0.203256
-0.207204
-0.210502
-0.213315
-0.214864
-0.21343
-0.207275
-0.196641
-0.186222
-0.185988
-0.206941
-0.250434
-0.299075
-0.322946
-0.304669
-0.287911
-0.298871
-0.287249
-1.16085e-20
5.59519e-22
2.91437e-24
2.84541e-24
-4.34979e-23
-1.13525e-22
-1.66597e-22
-1.26043e-22
1.1391e-22
6.55154e-22
1.55299e-21
2.83786e-21
4.70375e-21
7.83326e-21
1.31591e-20
1.97781e-20
2.19346e-20
8.98057e-21
-2.60626e-20
-6.81461e-20
-7.39294e-20
-2.29149e-21
1.30517e-19
2.22777e-19
1.33983e-19
-2.01966e-19
-6.7839e-19
-1.04592e-18
-1.09543e-18
-8.35761e-19
-4.66737e-19
-1.80071e-19
-4.76517e-20
-3.82555e-21
1.06116e-20
1.1665e-20
1.06045e-20
6.83774e-21
-1.89076e-21
-8.52317e-21
-9.61948e-21
-7.4664e-21
-2.5653e-21
8.08053e-21
2.73548e-20
5.7534e-20
1.16558e-19
2.57642e-19
4.08951e-19
3.47231e-19
1.75318e-19
6.87546e-20
2.62084e-20
8.16008e-21
-1.37671e-21
-8.75109e-21
-2.26265e-20
-2.84778e-20
-6.47331e-19
9.52303e-19
1.50329e-17
-2.86715e-17
-1.85551e-15
5.50627e-15
6.9657e-14
2.72156e-13
4.98459e-13
5.22817e-13
4.50396e-13
3.1732e-13
1.75535e-13
7.66617e-14
3.08707e-14
1.37232e-14
6.36115e-15
2.96357e-15
1.30044e-15
4.55279e-16
2.74977e-17
-1.43134e-16
-1.83345e-16
-1.6287e-16
-1.23769e-16
-8.85971e-17
-6.45237e-17
-5.40521e-17
-5.90715e-17
-7.35855e-17
-1.2993e-16
-2.20118e-16
-2.17965e-16
6.01827e-17
7.77064e-16
3.01049e-15
1.36332e-14
9.00087e-14
4.50468e-13
2.13789e-12
9.42999e-12
3.91347e-11
1.5764e-10
6.89138e-10
5.12517e-09
2.47613e-08
6.1309e-08
9.20865e-08
7.64192e-08
3.16293e-09
-1.06914e-07
-2.15909e-07
-3.0151e-07
-2.88212e-07
-2.40271e-07
-1.87249e-07
-1.5763e-07
-1.87307e-07
-3.51353e-07
-9.41186e-07
-2.81918e-06
-7.69646e-06
-1.58683e-05
-2.68504e-05
-3.02401e-05
-2.72238e-05
-1.96824e-05
-1.09583e-05
-4.17609e-06
-9.74335e-07
-2.3072e-07
-5.58283e-08
-1.18783e-08
-4.81106e-10
2.4568e-09
3.10639e-09
2.83103e-09
1.91422e-09
9.90716e-10
3.92736e-10
1.12125e-10
2.61864e-11
-4.68354e-12
-1.34067e-11
-1.39432e-11
-1.30281e-11
-1.20554e-11
-1.23156e-11
-1.4673e-11
-2.49686e-11
-7.37927e-11
-2.91886e-10
-1.2642e-09
-5.2673e-09
-2.05251e-08
-9.03426e-08
-3.30295e-07
-1.40253e-06
-5.93194e-06
-1.99742e-05
-4.05934e-05
-5.79011e-05
-0.000484944
-0.00264434
-0.00833939
-0.0163008
-0.0265606
-0.0378431
-0.0490401
-0.0593744
-0.0683753
-0.0764702
-0.0843641
-0.0921155
-0.100124
-0.10903
-0.119571
-0.132426
-0.147994
-0.166159
-0.186129
-0.206504
-0.225606
-0.241979
-0.254827
-0.264068
-0.269933
-0.272362
-0.270596
-0.263453
-0.250673
-0.235286
-0.225729
-0.234514
-0.269784
-0.322422
-0.364016
-0.363527
-0.315275
-0.287052
-0.296775
-0.275276
-8.84747e-21
-3.02505e-23
1.12413e-23
1.63288e-23
3.52953e-23
4.03648e-23
5.37534e-24
-1.01177e-22
-3.04193e-22
-6.21223e-22
-1.09977e-21
-1.86482e-21
-3.00349e-21
-4.0862e-21
-3.63046e-21
2.50844e-22
7.17341e-21
1.23042e-20
1.00557e-20
6.11528e-21
1.76341e-20
4.52997e-20
4.92694e-20
-2.4422e-20
-1.7795e-19
-3.33617e-19
-3.94234e-19
-3.3293e-19
-2.05905e-19
-8.77084e-20
-1.13848e-20
3.08761e-20
4.08591e-20
2.40674e-20
3.59664e-21
-3.97756e-21
-3.52187e-21
-2.12363e-21
-2.16155e-22
1.54222e-21
1.99519e-21
1.29466e-21
-3.56225e-22
-3.529e-21
-8.79086e-21
-1.75488e-20
-3.63832e-20
-7.3145e-20
-9.62595e-20
-7.08713e-20
-3.29233e-20
-1.23361e-20
-4.45618e-21
-1.04263e-21
9.53382e-22
3.16039e-21
7.52443e-21
-7.9526e-21
2.94396e-19
2.09403e-18
-2.07384e-17
1.77126e-16
-1.64445e-15
-7.82174e-16
1.37332e-14
1.08222e-13
3.92967e-13
6.44134e-13
7.38965e-13
6.71289e-13
5.01154e-13
3.02644e-13
1.46337e-13
6.11593e-14
2.76976e-14
1.3567e-14
6.73688e-15
3.38861e-15
1.66121e-15
7.58602e-16
2.57549e-16
-2.34428e-17
-1.4687e-16
-1.88182e-16
-1.96217e-16
-1.96931e-16
-2.00227e-16
-1.97871e-16
-1.5128e-16
3.66746e-17
5.46439e-16
1.57981e-15
4.5227e-15
1.12042e-14
4.73693e-14
2.79797e-13
1.36482e-12
6.40312e-12
2.77136e-11
1.13623e-10
4.93217e-10
3.60855e-09
1.93884e-08
5.20907e-08
8.13501e-08
7.12043e-08
8.34651e-09
-8.98402e-08
-1.81058e-07
-2.45387e-07
-2.24413e-07
-1.70745e-07
-1.0932e-07
-6.36991e-08
-4.45242e-08
-5.48982e-08
-1.10307e-07
-3.72781e-07
-1.30252e-06
-4.49066e-06
-1.18167e-05
-2.3763e-05
-3.83144e-05
-3.92998e-05
-3.45809e-05
-2.49904e-05
-1.41307e-05
-5.55368e-06
-1.37478e-06
-3.44638e-07
-9.55055e-08
-2.67833e-08
-6.32832e-09
1.65842e-10
2.1782e-09
2.42956e-09
2.22951e-09
1.57699e-09
8.77376e-10
3.86472e-10
1.13747e-10
-1.46891e-11
-6.44045e-11
-6.85924e-11
-6.40522e-11
-6.49472e-11
-7.97676e-11
-1.4098e-10
-3.91133e-10
-1.37432e-09
-5.0828e-09
-1.9747e-08
-6.99672e-08
-2.64134e-07
-1.04474e-06
-4.56888e-06
-1.52357e-05
-3.49361e-05
-5.35496e-05
-0.000515299
-0.00268483
-0.0077519
-0.0157393
-0.024854
-0.0347681
-0.0441158
-0.05186
-0.0578001
-0.062019
-0.0657005
-0.0698544
-0.074422
-0.0799931
-0.0874863
-0.0979702
-0.112499
-0.131883
-0.156282
-0.184864
-0.215748
-0.246283
-0.273632
-0.295377
-0.310301
-0.318565
-0.320474
-0.315901
-0.304679
-0.288296
-0.272424
-0.268104
-0.287634
-0.332798
-0.383642
-0.406369
-0.373746
-0.304952
-0.275054
-0.290621
-0.259833
5.32848e-21
-1.75819e-22
-5.84384e-24
-1.15747e-23
-9.97533e-24
4.95036e-24
4.22217e-23
1.08927e-22
2.12292e-22
3.69692e-22
6.01421e-22
8.47079e-22
8.18629e-22
4.20922e-23
-1.604e-21
-3.17962e-21
-2.88391e-21
6.80827e-22
7.92652e-21
1.88195e-20
3.21639e-20
4.2324e-20
4.06623e-20
2.62777e-20
1.20694e-20
1.37089e-20
3.34378e-20
5.81753e-20
7.05009e-20
6.22983e-20
3.97843e-20
1.20682e-20
-7.26852e-21
-9.96248e-21
-3.68613e-21
5.90425e-22
1.12435e-21
6.9828e-22
2.45888e-22
-1.811e-22
-3.25994e-22
-1.22126e-22
3.92084e-22
1.30464e-21
2.75377e-21
5.43542e-21
1.11182e-20
1.94804e-20
2.1581e-20
1.40608e-20
6.06493e-21
2.18156e-21
7.33248e-22
7.76323e-23
-3.84567e-22
-1.13326e-21
-2.62977e-21
-3.70704e-22
-1.33567e-19
-4.5955e-19
6.7046e-18
-7.90871e-17
7.0414e-16
-9.04547e-16
4.161e-15
3.58191e-14
2.09707e-13
5.76856e-13
9.14405e-13
1.06107e-12
9.95735e-13
7.82894e-13
5.17534e-13
2.79722e-13
1.27491e-13
5.81017e-14
2.91337e-14
1.53495e-14
8.24376e-15
4.48238e-15
2.51716e-15
1.42412e-15
8.11268e-16
4.71469e-16
2.79343e-16
2.08937e-16
2.66562e-16
5.25799e-16
9.96006e-16
1.95756e-15
3.96111e-15
7.99226e-15
1.95422e-14
4.51951e-14
1.6845e-13
8.82643e-13
4.27689e-12
1.94505e-11
8.1932e-11
3.55721e-10
2.53686e-09
1.51633e-08
4.41045e-08
7.14347e-08
6.50473e-08
1.30382e-08
-7.62702e-08
-1.54537e-07
-2.03091e-07
-1.81606e-07
-1.29543e-07
-7.28293e-08
-3.19219e-08
-1.40974e-08
-1.08309e-08
-1.55818e-08
-3.40292e-08
-1.25197e-07
-5.04615e-07
-1.98618e-06
-6.98398e-06
-1.74454e-05
-3.32029e-05
-5.03067e-05
-5.03565e-05
-4.4028e-05
-3.20199e-05
-1.85311e-05
-7.63141e-06
-2.07717e-06
-5.74547e-07
-1.87072e-07
-6.53059e-08
-2.32733e-08
-7.6757e-09
-1.84118e-09
1.57355e-10
6.54408e-10
4.83104e-10
1.89315e-10
-7.62768e-11
-2.33345e-10
-2.8691e-10
-2.92783e-10
-2.89484e-10
-3.15567e-10
-4.22209e-10
-7.86513e-10
-2.07905e-09
-6.55815e-09
-2.13918e-08
-7.57925e-08
-2.53629e-07
-8.09473e-07
-3.97934e-06
-1.20537e-05
-3.07278e-05
-5.12377e-05
-0.000540523
-0.00279826
-0.00758638
-0.0148845
-0.0233527
-0.0317382
-0.0388817
-0.0445557
-0.0472338
-0.0478552
-0.0475886
-0.047548
-0.0484321
-0.0500457
-0.0529891
-0.0582876
-0.0672228
-0.0812815
-0.101885
-0.129907
-0.165033
-0.205311
-0.247106
-0.285618
-0.317566
-0.341163
-0.352226
-0.35421
-0.348793
-0.336848
-0.321203
-0.309279
-0.312929
-0.341617
-0.389273
-0.427818
-0.421619
-0.365257
-0.281941
-0.256668
-0.280772
-0.233227
4.37844e-23
7.5331e-23
2.28273e-24
2.81946e-24
-2.89198e-24
-1.46491e-23
-3.47811e-23
-6.53372e-23
-1.09797e-22
-1.66343e-22
-1.98901e-22
-1.08909e-22
1.95926e-22
5.83046e-22
5.56789e-22
-3.9065e-22
-2.02053e-21
-2.94314e-21
-1.00289e-21
5.84466e-21
1.82359e-20
3.41445e-20
4.92542e-20
5.92921e-20
6.16648e-20
5.5031e-20
3.94424e-20
1.82319e-20
-1.55661e-21
-1.28367e-20
-1.37158e-20
-7.49783e-21
-2.08079e-22
2.66372e-21
1.5665e-21
8.52993e-23
-3.09585e-22
-2.29568e-22
-1.20198e-22
-2.11647e-23
1.88983e-23
-3.69978e-23
-1.87601e-22
-4.43834e-22
-8.57727e-22
-1.69061e-21
-3.26106e-21
-4.90057e-21
-4.65207e-21
-2.71877e-21
-1.09852e-21
-3.81248e-22
-1.14645e-22
1.53958e-23
1.37159e-22
4.07213e-22
1.05822e-21
2.35389e-21
1.91431e-20
-1.17359e-20
-6.08256e-19
1.15087e-17
-2.0646e-16
1.78692e-15
2.41634e-15
1.40477e-14
1.08925e-13
4.50178e-13
9.82477e-13
1.42535e-12
1.60362e-12
1.50541e-12
1.21907e-12
8.59863e-13
5.16439e-13
2.66549e-13
1.25939e-13
6.34574e-14
3.43349e-14
1.9488e-14
1.16171e-14
7.32898e-15
4.91387e-15
3.59943e-15
2.92367e-15
2.73211e-15
3.00977e-15
4.01183e-15
6.17504e-15
1.04457e-14
1.90491e-14
3.64777e-14
7.97936e-14
1.89275e-13
5.78362e-13
2.89083e-12
1.36384e-11
5.89286e-11
2.5944e-10
1.80424e-09
1.18632e-08
3.72569e-08
6.24625e-08
5.88893e-08
1.6095e-08
-6.3791e-08
-1.33408e-07
-1.70147e-07
-1.49144e-07
-1.02156e-07
-5.25503e-08
-1.95691e-08
-6.23619e-09
-3.15832e-09
-2.82108e-09
-4.51936e-09
-1.04016e-08
-3.90674e-08
-1.6992e-07
-7.35736e-07
-3.03194e-06
-1.0358e-05
-2.42707e-05
-4.38813e-05
-6.43902e-05
-6.41505e-05
-5.62144e-05
-4.15685e-05
-2.496e-05
-1.10364e-05
-3.44499e-06
-1.05705e-06
-3.88358e-07
-1.58761e-07
-6.93588e-08
-3.15896e-08
-1.50089e-08
-7.55721e-09
-4.23223e-09
-2.79499e-09
-2.12467e-09
-1.77701e-09
-1.55292e-09
-1.41429e-09
-1.39226e-09
-1.59306e-09
-2.28108e-09
-4.39109e-09
-1.10541e-08
-3.13693e-08
-9.39985e-08
-3.07142e-07
-8.66698e-07
-3.58136e-06
-1.14214e-05
-2.8442e-05
-5.52705e-05
-0.000591288
-0.00290325
-0.00765798
-0.014204
-0.0220261
-0.0287202
-0.034242
-0.0371312
-0.0370139
-0.0356564
-0.0333486
-0.0307416
-0.0286245
-0.0274286
-0.0269892
-0.0277906
-0.0306575
-0.0367862
-0.0478316
-0.0658504
-0.0928381
-0.129797
-0.175651
-0.226569
-0.276486
-0.319242
-0.349215
-0.368686
-0.371716
-0.368744
-0.360552
-0.350278
-0.345861
-0.358182
-0.392191
-0.434576
-0.453189
-0.42014
-0.342949
-0.25331
-0.237113
-0.26752
-0.177774
-3.22429e-22
3.66884e-24
6.83208e-25
1.61467e-24
5.1121e-24
1.07281e-23
1.8999e-23
3.02802e-23
4.26406e-23
4.43626e-23
1.00839e-23
-7.1216e-23
-1.33616e-22
-3.48316e-23
2.57492e-22
4.26032e-22
-8.04779e-23
-1.4552e-21
-3.02282e-21
-3.49952e-21
-2.07247e-21
4.83753e-22
1.90264e-21
1.60595e-22
-4.54491e-21
-9.52705e-21
-1.14747e-20
-8.99184e-21
-3.68725e-21
1.18833e-21
3.32598e-21
2.58657e-21
6.25662e-22
-5.51893e-22
-5.00708e-22
-9.40604e-23
7.36681e-23
7.26465e-23
4.8426e-23
2.63571e-23
1.6177e-23
3.08141e-23
7.29155e-23
1.446e-22
2.6773e-22
5.18218e-22
9.10593e-22
1.17492e-21
9.71449e-22
5.14728e-22
1.96544e-22
6.58685e-23
1.62028e-23
-1.10326e-23
-4.71039e-23
-1.44931e-22
-4.36372e-22
-1.09921e-21
2.52528e-21
-3.52334e-20
-1.28475e-19
3.25974e-18
7.58422e-18
-4.775e-16
5.37379e-16
-1.25277e-14
3.89067e-14
2.7277e-13
9.74188e-13
1.86468e-12
2.50609e-12
2.68554e-12
2.44972e-12
1.97093e-12
1.41693e-12
9.1196e-13
5.14546e-13
2.64878e-13
1.40603e-13
8.08638e-14
4.99513e-14
3.28816e-14
2.30922e-14
1.75964e-14
1.47786e-14
1.40912e-14
1.55403e-14
2.02527e-14
3.02662e-14
4.96674e-14
8.67457e-14
1.63819e-13
3.28048e-13
7.85583e-13
2.06696e-12
1.00158e-11
4.25612e-11
1.93232e-10
1.3197e-09
9.33334e-09
3.13921e-08
5.44591e-08
5.28198e-08
1.75667e-08
-5.24951e-08
-1.1556e-07
-1.42811e-07
-1.23858e-07
-8.3313e-08
-4.05462e-08
-1.32935e-08
-3.34702e-09
-1.25394e-09
-7.7108e-10
-7.59401e-10
-1.31928e-09
-3.10446e-09
-1.18885e-08
-5.25695e-08
-2.4361e-07
-1.05061e-06
-4.45768e-06
-1.44489e-05
-3.21505e-05
-5.62721e-05
-8.14508e-05
-8.17278e-05
-7.24013e-05
-5.48646e-05
-3.45124e-05
-1.66512e-05
-6.0401e-06
-2.10518e-06
-8.66578e-07
-3.95704e-07
-1.92765e-07
-9.95613e-08
-5.45296e-08
-3.19096e-08
-2.0148e-08
-1.37496e-08
-1.02021e-08
-8.15663e-09
-7.1221e-09
-7.07148e-09
-8.41549e-09
-1.2616e-08
-2.45643e-08
-5.79263e-08
-1.53569e-07
-4.29048e-07
-1.17204e-06
-3.96967e-06
-1.1789e-05
-2.67629e-05
-7.54833e-05
-0.000753625
-0.00306792
-0.00774048
-0.0137746
-0.0205784
-0.0262143
-0.0303122
-0.0300836
-0.0285672
-0.0258821
-0.0226938
-0.0191886
-0.0159365
-0.0134071
-0.0117226
-0.0107139
-0.0105864
-0.011762
-0.0150168
-0.0217615
-0.034259
-0.055447
-0.088043
-0.132959
-0.187762
-0.246328
-0.300096
-0.340893
-0.365472
-0.376292
-0.378716
-0.377305
-0.375735
-0.380886
-0.400954
-0.435702
-0.466566
-0.46094
-0.407004
-0.314733
-0.22363
-0.221839
-0.248936
-0.0915929
-6.73449e-23
-2.09216e-23
-1.99564e-24
-2.2698e-24
-3.5475e-24
-5.54984e-24
-8.18812e-24
-1.07868e-23
-1.03847e-23
-1.05737e-24
1.85235e-23
2.95626e-23
-1.27466e-24
-6.46787e-23
-6.0026e-23
1.06887e-22
3.02861e-22
1.19553e-22
-8.13469e-22
-2.44439e-21
-4.27182e-21
-5.66549e-21
-6.14412e-21
-5.42378e-21
-3.50162e-21
-9.14801e-22
1.26961e-21
2.0921e-21
1.46657e-21
2.21749e-22
-6.57913e-22
-7.30771e-22
-2.88133e-22
8.54593e-23
1.3783e-22
4.17561e-23
-1.50672e-23
-2.19473e-23
-1.77278e-23
-1.31578e-23
-1.07082e-23
-1.43724e-23
-2.58e-23
-4.6142e-23
-8.33225e-23
-1.54023e-22
-2.41931e-22
-2.70607e-22
-1.97717e-22
-9.59015e-23
-3.48809e-23
-1.11946e-23
-1.74322e-24
4.43078e-24
1.60462e-23
5.03926e-23
1.87909e-22
4.4646e-22
6.46396e-22
2.40516e-20
-1.11207e-19
-1.64709e-18
2.21449e-17
-1.36218e-17
-1.6852e-16
-1.74804e-14
-7.35196e-15
1.04146e-13
6.41336e-13
2.06003e-12
3.75832e-12
4.90846e-12
5.12901e-12
4.56028e-12
3.55695e-12
2.51295e-12
1.64467e-12
9.98916e-13
5.86125e-13
3.50475e-13
2.20994e-13
1.48566e-13
1.06798e-13
8.31804e-14
7.10669e-14
6.84353e-14
7.56961e-14
9.76976e-14
1.44052e-13
2.32502e-13
3.91324e-13
7.32426e-13
1.35688e-12
3.20662e-12
8.24158e-12
3.30627e-11
1.44801e-10
1.0352e-09
7.44224e-09
2.64148e-08
4.73439e-08
4.68471e-08
1.78783e-08
-4.33103e-08
-9.90247e-08
-1.20318e-07
-1.03542e-07
-6.8191e-08
-3.12732e-08
-9.12449e-09
-2.12582e-09
-6.75796e-10
-2.81547e-10
-1.85427e-10
-1.96782e-10
-3.73724e-10
-8.92018e-10
-3.53669e-09
-1.57392e-08
-7.31446e-08
-3.28961e-07
-1.4319e-06
-6.13814e-06
-1.9007e-05
-4.07323e-05
-7.12238e-05
-9.86024e-05
-0.000105008
-9.55856e-05
-7.50884e-05
-5.00951e-05
-2.68573e-05
-1.1437e-05
-4.4328e-06
-1.97913e-06
-9.81577e-07
-5.18895e-07
-2.90448e-07
-1.72501e-07
-1.09055e-07
-7.34321e-08
-5.33276e-08
-4.19655e-08
-3.66379e-08
-3.73022e-08
-4.59802e-08
-7.08852e-08
-1.3647e-07
-3.04829e-07
-7.59888e-07
-1.91591e-06
-5.06463e-06
-1.5009e-05
-3.01546e-05
-0.000160811
-0.00100943
-0.00344411
-0.00782019
-0.0134522
-0.0190099
-0.0239217
-0.0255925
-0.024209
-0.0217079
-0.0183903
-0.0146989
-0.0112949
-0.00826188
-0.00591582
-0.00433839
-0.00342355
-0.0030318
-0.00305985
-0.00353596
-0.00472796
-0.00757481
-0.0140675
-0.0272424
-0.0509414
-0.0883083
-0.139586
-0.200418
-0.262116
-0.314556
-0.350472
-0.370636
-0.380929
-0.388228
-0.396991
-0.412304
-0.438323
-0.469621
-0.485106
-0.460027
-0.385587
-0.286446
-0.201092
-0.212338
-0.231341
0.00645898
7.69703e-23
1.21325e-23
1.78774e-24
1.51956e-24
1.78458e-24
2.29505e-24
2.79431e-24
2.61256e-24
4.0405e-25
-4.27662e-24
-7.18129e-24
-2.42894e-25
1.43089e-23
1.21147e-23
-2.491e-23
-5.37922e-23
1.29091e-23