/*--------------------------------*- C++ -*----------------------------------*\
| =========                 |                                                 |
| \\      /  F ield         | OpenFOAM: The Open Source CFD Toolbox           |
|  \\    /   O peration     | Version:  2506                                  |
|   \\  /    A nd           | Website:  www.openfoam.com                      |
|    \\/     M anipulation  |                                                 |
\*---------------------------------------------------------------------------*/
FoamFile
{
    version     2.0;
    format      ascii;
    arch        "LSB;label=32;scalar=64";
    class       volVectorField;
    location    "5";
    object      U;
}
// * * * * * * * * * * * * * * * * * * * * * * * * * * * * * * * * * * * * * //

dimensions      [0 1 -1 0 0 0 0];

internalField   nonuniform List<vector> 
4000
(
(0.00276104 -0.00119687 5.26542e-23)
(0.00377211 -0.000966213 0)
(0.00527777 -0.000475668 1.0789e-23)
(0.00638114 -0.000245939 6.47992e-24)
(0.00705106 -0.000148647 3.7574e-24)
(0.00749573 -9.19727e-05 0)
(0.00781691 -5.77177e-05 1.08878e-24)
(0.00805515 -3.80811e-05 5.50225e-25)
(0.00823635 -2.64863e-05 0)
(0.00837855 -1.91804e-05 0)
(0.0084929 -1.43453e-05 -6.19354e-24)
(0.00858635 -1.10041e-05 1.24054e-23)
(0.00866351 -8.58615e-06 -6.10906e-24)
(0.00872763 -6.76277e-06 6.6285e-24)
(0.00878104 -5.34607e-06 -6.60473e-24)
(0.00882546 -4.22537e-06 -3.20973e-25)
(0.00886223 -3.3337e-06 -9.36473e-24)
(0.00889242 -2.63055e-06 9.33441e-24)
(0.00891694 -2.09238e-06 -6.70664e-25)
(0.00893659 -1.70727e-06 0)
(0.0089521 -1.4721e-06 0)
(0.00896425 -1.39133e-06 1.32454e-24)
(0.00897379 -1.47715e-06 1.6048e-24)
(0.00898163 -1.75145e-06 0)
(0.00898879 -2.25106e-06 2.22014e-24)
(0.00899656 -3.03846e-06 2.53012e-24)
(0.00900659 -4.22259e-06 0)
(0.00902115 -6.01043e-06 0)
(0.00904305 -8.69228e-06 -1.01611e-22)
(0.00907973 -1.30878e-05 1.04436e-22)
(0.00914298 -2.60821e-05 0)
(0.00916082 -6.47526e-05 9.24029e-23)
(0.00908096 -0.000146723 -9.04744e-23)
(0.00890891 -0.00028102 -7.52649e-23)
(0.00867268 -0.00047671 -2.15878e-22)
(0.00839268 -0.000746255 2.10752e-21)
(0.00813861 -0.00109533 -2.31331e-22)
(0.00785051 -0.00160068 -8.3324e-22)
(0.0074437 -0.00225607 0)
(0.00700172 -0.0029067 4.11054e-22)
(0.00664912 -0.00346351 -4.16891e-22)
(0.00638311 -0.00391703 3.09596e-21)
(0.00618117 -0.00426914 0)
(0.00603513 -0.00451866 2.3465e-21)
(0.0059342 -0.00467156 -9.31137e-22)
(0.00586252 -0.00474032 1.30571e-21)
(0.00580895 -0.0047337 0)
(0.00576833 -0.0046641 -1.20854e-21)
(0.00572523 -0.00454658 -1.35891e-21)
(0.00566716 -0.00438633 -1.07745e-21)
(0.00557809 -0.00418761 0)
(0.0054791 -0.00392697 0)
(0.00537877 -0.00361585 -1.31612e-22)
(0.00529307 -0.00321446 9.91056e-22)
(0.00529358 -0.00270761 7.14371e-23)
(0.00547808 -0.00207455 -3.03915e-22)
(0.00591292 -0.00137278 -2.05712e-23)
(0.00664448 -0.000679372 -1.10494e-22)
(0.00760402 -0.000140095 0)
(0.00853584 0.000142904 1.60013e-22)
(0.00923687 0.000216396 3.79732e-22)
(0.00966881 0.000167804 -1.04825e-22)
(0.0098887 9.62758e-05 -8.45289e-22)
(0.00998345 3.9177e-05 6.35051e-22)
(0.0100187 7.35909e-06 0)
(0.010025 -6.82377e-06 0)
(0.0100228 -1.14132e-05 0)
(0.0100178 -1.03675e-05 1.61614e-23)
(0.0100134 -8.85119e-06 2.12794e-22)
(0.0100102 -7.39946e-06 7.29425e-23)
(0.010008 -6.10709e-06 0)
(0.0100063 -5.01501e-06 -2.34694e-23)
(0.0100052 -4.14652e-06 6.76016e-24)
(0.0100044 -3.47408e-06 4.51756e-24)
(0.0100038 -2.96752e-06 1.04039e-23)
(0.0100034 -2.58121e-06 -2.40688e-23)
(0.0100031 -2.27992e-06 -3.54615e-23)
(0.0100028 -2.042e-06 -3.98347e-23)
(0.0100027 -1.8442e-06 0)
(0.0100025 -1.67151e-06 0)
(0.0100024 -1.51359e-06 1.945e-24)
(0.0100023 -1.37605e-06 6.25111e-23)
(0.0100023 -1.23896e-06 0)
(0.0100024 -1.1058e-06 -6.90036e-23)
(0.0100025 -9.55554e-07 7.17862e-23)
(0.0100028 -7.84119e-07 0)
(0.0100033 -5.5238e-07 0)
(0.010004 -2.20198e-07 4.58623e-24)
(0.0100052 3.57798e-07 1.59557e-23)
(0.0100069 1.32731e-06 -3.87619e-23)
(0.0100091 2.857e-06 1.17856e-25)
(0.0100121 5.13593e-06 2.7355e-24)
(0.0100156 8.37018e-06 -6.03184e-24)
(0.0100199 1.25139e-05 0)
(0.010025 1.75715e-05 1.1107e-22)
(0.0100308 2.3621e-05 1.29506e-22)
(0.0100376 3.06365e-05 1.31048e-22)
(0.010045 3.8351e-05 9.89653e-24)
(0.010053 4.63533e-05 1.95888e-22)
(0.0100596 5.34433e-05 2.48078e-22)
(0.0100645 5.70932e-05 -3.93056e-24)
(0.0100658 5.6258e-05 3.51305e-22)
(0.0100587 4.75823e-05 8.80877e-22)
(0.010039 2.78105e-05 2.59573e-23)
(0.0100001 -1.02349e-05 6.34669e-22)
(0.00993842 -6.81923e-05 0)
(0.00985263 -0.00014701 -8.31478e-22)
(0.00973184 -0.000246314 -8.20083e-22)
(0.00957647 -0.00036143 -5.86878e-23)
(0.00939009 -0.000483498 0)
(0.00917092 -0.000600087 -7.15868e-22)
(0.00894187 -0.00068547 5.11712e-22)
(0.00872608 -0.000719142 0)
(0.00856651 -0.00066898 -2.22795e-23)
(0.00852174 -0.000541042 -1.29038e-22)
(0.0086316 -0.000345236 -6.16437e-22)
(0.00891099 -0.000137965 0)
(0.00927414 6.59766e-06 -2.20531e-22)
(0.00959736 6.95524e-05 2.42835e-23)
(0.0098205 6.36389e-05 -3.39795e-24)
(0.00994042 3.86455e-05 -1.95572e-23)
(0.00999375 1.42341e-05 4.34952e-22)
(0.0100126 -4.67443e-08 -3.19266e-22)
(0.0100159 -6.50324e-06 -1.28242e-23)
(0.0100139 -6.99822e-06 -1.74919e-22)
(0.0100106 -6.43594e-06 2.79981e-22)
(0.0100077 -5.42448e-06 -1.04633e-22)
(0.0100058 -4.4494e-06 1.03007e-22)
(0.0100044 -3.59138e-06 3.85587e-24)
(0.0100035 -2.88453e-06 6.40491e-23)
(0.0100028 -2.32783e-06 0)
(0.0100023 -1.90298e-06 -4.80389e-23)
(0.0100019 -1.57379e-06 3.02244e-24)
(0.0100016 -1.31806e-06 -4.21324e-23)
(0.0100014 -1.11572e-06 0)
(0.0100012 -9.52352e-07 0)
(0.0100011 -8.18373e-07 2.72483e-23)
(0.010001 -7.05614e-07 -2.5716e-23)
(0.0100009 -6.13725e-07 0)
(0.0100008 -5.35212e-07 0)
(0.0100008 -4.63134e-07 -2.0443e-23)
(0.0100008 -4.01274e-07 4.77658e-24)
(0.0100008 -3.39177e-07 -2.3534e-23)
(0.0100008 -2.76828e-07 0)
(0.0100009 -2.05255e-07 1.3393e-23)
(0.010001 -1.09224e-07 8.92506e-24)
(0.0100013 2.60832e-08 -6.69611e-24)
(0.0100017 2.61268e-07 4.47605e-24)
(0.0100023 6.49146e-07 0)
(0.0100032 1.26471e-06 -4.48478e-24)
(0.0100043 2.19405e-06 9.44291e-26)
(0.0100059 3.49949e-06 2.6292e-23)
(0.0100078 5.22618e-06 -4.26543e-24)
(0.0100101 7.41152e-06 -2.77649e-24)
(0.0100128 9.99422e-06 -8.92503e-24)
(0.010016 1.28664e-05 -1.97229e-24)
(0.0100191 1.55335e-05 0)
(0.0100219 1.69856e-05 0)
(0.0100237 1.63234e-05 0)
(0.0100215 1.20366e-05 -1.50983e-22)
(0.010011 3.51786e-08 3.14601e-23)
(0.00998833 -2.30018e-05 1.44603e-22)
(0.00992811 -5.78172e-05 1.39865e-22)
(0.00983172 -0.000100106 0)
(0.00972892 -0.000137254 -3.55304e-23)
(0.00962354 -0.000163221 1.0366e-22)
(0.00951996 -0.000171285 -3.48361e-23)
(0.00943991 -0.000155101 6.16999e-23)
(0.00940738 -0.000116841 3.55186e-22)
(0.00944217 -6.55103e-05 1.40586e-22)
(0.00952072 -2.60927e-05 0)
(0.0095823 -8.84141e-06 3.07288e-24)
(0.00961404 -2.71716e-06 0)
(0.00962916 3.01111e-07 3.67442e-24)
(0.00963538 2.18244e-06 4.01717e-24)
(0.00963467 3.75026e-06 2.97486e-22)
(0.00962777 4.74418e-06 -2.97551e-22)
(0.00961526 5.70034e-06 -1.75975e-22)
(0.0095975 6.47566e-06 1.81586e-22)
(0.00957458 7.0492e-06 -2.0613e-22)
(0.00954647 7.5195e-06 4.53167e-22)
(0.00951345 8.25657e-06 -2.25897e-22)
(0.00947603 9.14302e-06 0)
(0.0094344 9.92611e-06 9.34328e-24)
(0.00938863 1.05927e-05 -1.02567e-23)
(0.00933886 1.12017e-05 3.85017e-22)
(0.00928504 1.18194e-05 -3.61237e-22)
(0.00922686 1.25334e-05 4.46295e-22)
(0.00916352 1.34702e-05 -4.31414e-22)
(0.00909356 1.48178e-05 2.81194e-22)
(0.00901448 1.68698e-05 -2.47749e-22)
(0.00892206 2.01158e-05 1.8975e-23)
(0.00880921 2.54398e-05 2.07537e-23)
(0.00866357 3.45905e-05 0)
(0.00846249 5.13422e-05 2.53391e-23)
(0.00816195 8.42048e-05 2.8577e-23)
(0.00766699 0.000153702 3.25688e-22)
(0.00674874 0.00032649 -3.35318e-22)
(0.00503261 0.000826322 0)
(0.00356287 0.00137648 7.07799e-23)
(-1.3875e-05 -0.00243346 -2.66658e-23)
(6.26375e-05 -0.0023521 7.1032e-24)
(0.00113951 -0.00168826 -1.25306e-23)
(0.002195 -0.00121463 3.62272e-23)
(0.00304438 -0.000880526 -6.40779e-23)
(0.00373471 -0.000643735 1.2408e-23)
(0.00430204 -0.000482593 1.89668e-23)
(0.00476813 -0.000373207 -3.9742e-24)
(0.00515303 -0.000296545 -2.2798e-24)
(0.00547406 -0.000240819 -1.57663e-24)
(0.00574429 -0.000198967 -1.02136e-24)
(0.00597327 -0.000166534 -2.1118e-24)
(0.0061682 -0.000140639 1.11018e-24)
(0.00633457 -0.000119419 1.14474e-24)
(0.00647664 -0.000101648 -3.7687e-24)
(0.00659776 -8.65091e-05 7.01646e-24)
(0.00670061 -7.34501e-05 -3.76997e-24)
(0.00678743 -6.21022e-05 9.44236e-24)
(0.00686013 -5.22283e-05 1.69498e-23)
(0.00692042 -4.36938e-05 -2.23298e-23)
(0.00696988 -3.64496e-05 2.0138e-24)
(0.00701009 -3.05271e-05 5.09733e-23)
(0.00704267 -2.6041e-05 -5.14405e-23)
(0.00706939 -2.32026e-05 -6.76404e-23)
(0.0070923 -2.23478e-05 6.88721e-23)
(0.00711382 -2.39893e-05 2.61302e-24)
(0.00713692 -2.89126e-05 1.03365e-22)
(0.0071654 -3.83574e-05 8.44598e-25)
(0.0072037 -5.44294e-05 -2.23882e-22)
(0.0072609 -8.05962e-05 -1.7682e-24)
(0.00735179 -0.000124011 1.10706e-22)
(0.00739089 -0.000209273 6.2044e-23)
(0.00730324 -0.000359176 1.16032e-22)
(0.00709716 -0.000587924 -4.91646e-24)
(0.00682234 -0.000908878 -2.57285e-22)
(0.00652093 -0.00134122 -7.51312e-22)
(0.00624672 -0.00189905 -1.12323e-22)
(0.00595426 -0.00261948 9.27932e-22)
(0.00557853 -0.00343731 -2.88242e-22)
(0.00519551 -0.00422191 -7.04803e-22)
(0.00489915 -0.00491091 -1.06617e-21)
(0.00466801 -0.00548803 -1.45187e-21)
(0.00448069 -0.00594287 0)
(0.00433249 -0.0062731 -2.7029e-21)
(0.00421316 -0.00648834 1.29249e-21)
(0.00410818 -0.00659967 -1.25353e-21)
(0.00400584 -0.0066156 1.26759e-21)
(0.00389938 -0.00655091 0)
(0.00377241 -0.00641999 4.56908e-23)
(0.00361241 -0.00622641 1.25519e-21)
(0.00341143 -0.00597305 -1.38528e-21)
(0.0031813 -0.00564867 1.60103e-22)
(0.00293907 -0.00526113 1.29242e-21)
(0.00269612 -0.00477747 -2.62098e-22)
(0.00252692 -0.004185 9.24854e-22)
(0.00250951 -0.00346055 0)
(0.0027423 -0.00264298 -3.65668e-24)
(0.00332371 -0.0017487 1.38515e-22)
(0.0043299 -0.000888932 3.31339e-23)
(0.00565051 -0.000211476 -1.32415e-22)
(0.00703854 0.000178864 -5.11798e-22)
(0.00823878 0.000324933 -1.04521e-21)
(0.00907918 0.000282186 -9.52206e-22)
(0.00958586 0.000178643 -7.32201e-22)
(0.00985637 8.26255e-05 6.21702e-23)
(0.00997574 1.92368e-05 -6.07578e-23)
(0.0100205 -1.40559e-05 0)
(0.0100357 -2.80326e-05 0)
(0.0100363 -3.02179e-05 -3.11129e-22)
(0.010032 -2.7535e-05 1.24763e-22)
(0.0100263 -2.36432e-05 7.84524e-24)
(0.0100213 -1.9914e-05 -7.05085e-23)
(0.0100171 -1.66902e-05 -2.95549e-23)
(0.0100141 -1.40315e-05 -9.99668e-25)
(0.0100119 -1.19263e-05 -9.58697e-24)
(0.0100103 -1.02787e-05 -1.26834e-25)
(0.0100092 -8.99463e-06 -3.08801e-23)
(0.0100084 -7.99304e-06 4.33796e-23)
(0.0100078 -7.18381e-06 2.76966e-24)
(0.0100074 -6.50233e-06 5.46462e-23)
(0.0100072 -5.90469e-06 -6.10185e-23)
(0.0100071 -5.38675e-06 0)
(0.0100072 -4.8893e-06 0)
(0.0100074 -4.41344e-06 0)
(0.0100078 -3.90787e-06 -7.97578e-23)
(0.0100086 -3.36593e-06 2.48818e-24)
(0.0100097 -2.7084e-06 -5.37003e-24)
(0.0100113 -1.8331e-06 5.84111e-24)
(0.0100135 -5.6783e-07 -5.65652e-24)
(0.0100164 1.28407e-06 9.65148e-23)
(0.01002 3.91292e-06 -5.94532e-24)
(0.0100244 7.49255e-06 1.15697e-23)
(0.0100296 1.21468e-05 1.06404e-22)
(0.0100355 1.79712e-05 -1.21877e-22)
(0.0100423 2.49825e-05 1.33217e-22)
(0.0100495 3.31055e-05 -1.25168e-22)
(0.0100571 4.22183e-05 1.56583e-22)
(0.0100635 5.15808e-05 1.94116e-22)
(0.0100683 6.02041e-05 -1.98821e-22)
(0.0100681 6.62063e-05 -2.33719e-22)
(0.0100587 6.52799e-05 0)
(0.0100341 5.52711e-05 3.98954e-22)
(0.00998854 2.93615e-05 -4.48486e-22)
(0.00991754 -1.69133e-05 1.89192e-23)
(0.00981484 -8.90231e-05 -2.69043e-23)
(0.00967527 -0.000190293 0)
(0.00949301 -0.00031986 1.58536e-21)
(0.00926563 -0.000473325 1.70029e-21)
(0.00899742 -0.000641743 7.34368e-22)
(0.00869459 -0.000810436 6.13044e-22)
(0.00836492 -0.000959159 7.321e-22)
(0.00803494 -0.00106028 -9.03052e-22)
(0.00773556 -0.00109227 2.14118e-23)
(0.00750385 -0.00103664 3.96624e-23)
(0.00739531 -0.000898973 -3.8895e-23)
(0.00744741 -0.000680508 2.97657e-22)
(0.00770137 -0.000417452 4.19743e-23)
(0.00813753 -0.000170429 1.83929e-22)
(0.0086693 5.08153e-06 2.35157e-23)
(0.00918477 8.85027e-05 -2.26209e-23)
(0.00957436 8.7594e-05 0)
(0.00981581 5.76965e-05 -4.81253e-22)
(0.00994352 2.25968e-05 -1.048e-23)
(0.00999886 -1.90149e-06 2.6449e-23)
(0.0100188 -1.39597e-05 1.96746e-22)
(0.0100242 -1.84973e-05 -1.67697e-22)
(0.0100222 -1.75327e-05 -1.49878e-22)
(0.0100185 -1.54785e-05 -2.3316e-22)
(0.0100148 -1.30883e-05 -1.93329e-22)
(0.0100117 -1.08283e-05 -6.76497e-23)
(0.0100093 -8.87517e-06 -9.34554e-24)
(0.0100075 -7.29604e-06 -6.17489e-23)
(0.0100062 -6.03514e-06 1.02451e-22)
(0.0100052 -5.04325e-06 -1.06066e-23)
(0.0100045 -4.25865e-06 -3.05208e-23)
(0.0100039 -3.62908e-06 0)
(0.0100035 -3.11714e-06 0)
(0.0100031 -2.69262e-06 -1.45956e-24)
(0.0100029 -2.34549e-06 6.38736e-24)
(0.0100027 -2.05134e-06 1.84759e-23)
(0.0100026 -1.78977e-06 5.53107e-24)
(0.0100026 -1.56476e-06 -2.70784e-25)
(0.0100026 -1.34881e-06 -1.03018e-23)
(0.0100028 -1.13971e-06 9.71294e-24)
(0.010003 -9.16253e-07 -1.42588e-23)
(0.0100035 -6.4886e-07 0)
(0.0100041 -2.94008e-07 -4.49505e-24)
(0.010005 2.14103e-07 4.4166e-24)
(0.0100063 9.63962e-07 -8.12979e-24)
(0.0100079 2.06064e-06 0)
(0.01001 3.59848e-06 0)
(0.0100124 5.65673e-06 0)
(0.0100152 8.22691e-06 0)
(0.0100182 1.12842e-05 -1.82458e-23)
(0.010021 1.4568e-05 2.33591e-24)
(0.0100232 1.76399e-05 3.47876e-25)
(0.0100239 1.96434e-05 -6.90007e-24)
(0.0100199 1.86039e-05 -6.42159e-23)
(0.0100073 1.28396e-05 3.24349e-23)
(0.00998062 -1.41905e-06 7.22878e-23)
(0.009934 -2.71379e-05 -4.90895e-24)
(0.00985941 -6.51804e-05 -1.06173e-22)
(0.00973172 -0.000109242 2.09605e-23)
(0.0095704 -0.000154917 -2.39414e-23)
(0.00941063 -0.000195648 9.54834e-23)
(0.00924848 -0.000224495 -8.84269e-23)
(0.00908905 -0.000233044 0)
(0.00895502 -0.000221921 0)
(0.00886957 -0.000187911 -1.30039e-22)
(0.00885485 -0.000136662 -1.85877e-22)
(0.00890424 -8.79806e-05 1.75421e-22)
(0.00896447 -5.55757e-05 -3.41929e-24)
(0.00900674 -3.37619e-05 2.57674e-22)
(0.00903226 -1.79818e-05 -2.5387e-22)
(0.00904462 -5.99194e-06 -1.34221e-23)
(0.00904436 3.86991e-06 -3.33936e-22)
(0.00903136 1.26762e-05 -2.71372e-23)
(0.0090057 2.09907e-05 1.74109e-22)
(0.00896737 2.89915e-05 1.78748e-22)
(0.00891638 3.67028e-05 2.33302e-22)
(0.0088529 4.41696e-05 -2.32164e-22)
(0.00877711 5.16627e-05 8.84515e-24)
(0.00868921 5.9047e-05 -3.2042e-22)
(0.00858961 6.60767e-05 3.31041e-22)
(0.00847881 7.27959e-05 1.14202e-23)
(0.00835711 7.94333e-05 3.85303e-22)
(0.0082245 8.636e-05 -4.64908e-22)
(0.00808038 9.41508e-05 5.05646e-22)
(0.00792324 0.000103681 -5.55564e-22)
(0.00775024 0.000116291 2.4683e-22)
(0.00755637 0.000134095 -3.2075e-22)
(0.00733326 0.000160589 2.16972e-23)
(0.00706696 0.000201887 -7.0437e-23)
(0.00673394 0.000269352 -4.36657e-22)
(0.00629393 0.00038537 4.67196e-22)
(0.00567793 0.000595807 -9.70319e-23)
(0.00477029 0.000994544 -3.75872e-23)
(0.00339232 0.00175616 1.31438e-22)
(0.00141203 0.00302516 0)
(0.000188835 0.00353245 -1.91621e-22)
(-0.000239364 -0.00208516 0)
(-0.000641662 -0.00257376 -6.94896e-23)
(-0.000324802 -0.00226675 3.00337e-23)
(0.000230426 -0.00186812 1.34309e-23)
(0.000834531 -0.00150824 -3.0695e-23)
(0.00141768 -0.00121327 3.04551e-23)
(0.00195471 -0.00098517 -3.01738e-23)
(0.00243554 -0.000811037 3.48389e-24)
(0.00285997 -0.000676621 2.37773e-24)
(0.0032326 -0.000571051 7.40208e-24)
(0.00355907 -0.000486584 1.15616e-24)
(0.0038448 -0.000417677 4.41745e-24)
(0.00409462 -0.000360377 -7.46656e-24)
(0.00431273 -0.000311885 1.50747e-23)
(0.00450269 -0.000270214 -5.18182e-24)
(0.00466754 -0.000233954 8.73193e-25)
(0.00480989 -0.000202102 -8.26636e-25)
(0.004932 -0.00017396 -9.80283e-25)
(0.0050359 -0.000149065 -1.82122e-23)
(0.00512348 -0.000127147 1.55174e-23)
(0.00519655 -0.000108108 -2.08948e-24)
(0.00525694 -9.20094e-05 -7.38814e-24)
(0.0053066 -7.90837e-05 5.76154e-23)
(0.00534767 -6.9754e-05 -6.15058e-23)
(0.00538261 -6.46786e-05 -8.23443e-23)
(0.00541432 -6.48268e-05 6.5542e-23)
(0.0054463 -7.16082e-05 1.05677e-22)
(0.0054828 -8.70929e-05 -9.82855e-23)
(0.00552857 -0.000114509 0)
(0.00559205 -0.000158758 0)
(0.00568704 -0.000227643 0)
(0.00573947 -0.000347353 0)
(0.00568002 -0.000542047 -3.04048e-22)
(0.00551948 -0.000826373 -2.20327e-22)
(0.00531187 -0.00121392 1.76453e-22)
(0.00509813 -0.00172297 -1.76778e-22)
(0.0049131 -0.00236434 -5.19301e-22)
(0.00471959 -0.00313987 1.61523e-22)
(0.00447348 -0.00396631 6.3327e-22)
(0.00423298 -0.00474589 1.26691e-22)
(0.00405071 -0.00543866 1.89739e-21)
(0.00390212 -0.00602636 0)
(0.00377233 -0.00649579 -9.19084e-22)
(0.00366031 -0.00684364 -9.48289e-22)
(0.00355836 -0.00707332 1.30466e-22)
(0.00345392 -0.00719626 8.62717e-22)
(0.003337 -0.00721744 -2.04357e-21)
(0.00320013 -0.00715394 -9.27888e-22)
(0.00303169 -0.00701576 -1.89125e-22)
(0.00282125 -0.00681792 -6.01097e-25)
(0.00256819 -0.00654374 4.17345e-22)
(0.00228291 -0.00619899 -2.91232e-22)
(0.00198159 -0.00578812 -1.29062e-22)
(0.00167994 -0.00529149 2.19434e-23)
(0.00143458 -0.00470637 8.49852e-22)
(0.00130051 -0.00402236 -2.59267e-22)
(0.00135459 -0.00326164 -1.58889e-22)
(0.00167785 -0.00242804 2.23449e-23)
(0.00237208 -0.00158018 -3.37548e-23)
(0.00344909 -0.000808456 0)
(0.00480781 -0.000204577 -1.03007e-22)
(0.00628028 0.000179068 9.62111e-23)
(0.00758416 0.000328231 5.98909e-23)
(0.00858735 0.000303559 7.68235e-22)
(0.00927218 0.000215521 -5.80396e-22)
(0.00968448 0.000115904 4.75194e-22)
(0.00990022 3.82725e-05 0)
(0.00999827 -9.6307e-06 0)
(0.0100343 -3.20632e-05 3.80642e-22)
(0.0100465 -4.05983e-05 -2.77764e-22)
(0.0100466 -3.96193e-05 0)
(0.0100421 -3.58774e-05 5.14999e-23)
(0.0100357 -3.12125e-05 -1.21289e-23)
(0.0100298 -2.67879e-05 -2.33891e-23)
(0.010025 -2.29584e-05 -2.0208e-24)
(0.0100212 -1.97715e-05 -5.99383e-24)
(0.0100184 -1.71949e-05 4.81666e-23)
(0.0100164 -1.5142e-05 -1.76089e-24)
(0.0100149 -1.34941e-05 -2.9117e-24)
(0.010014 -1.2142e-05 -9.66455e-23)
(0.0100133 -1.10023e-05 1.13132e-22)
(0.010013 -1.00366e-05 2.05646e-24)
(0.010013 -9.14918e-06 1.58132e-25)
(0.0100133 -8.31814e-06 -2.19993e-24)
(0.0100139 -7.46899e-06 7.75305e-23)
(0.0100149 -6.57879e-06 0)
(0.0100165 -5.54262e-06 -2.13835e-23)
(0.0100186 -4.23586e-06 -3.5107e-25)
(0.0100214 -2.51064e-06 -1.7391e-23)
(0.010025 -1.85782e-07 -9.41509e-23)
(0.0100294 2.91427e-06 -6.01613e-24)
(0.0100345 6.9162e-06 -2.07365e-22)
(0.0100403 1.19295e-05 -1.06821e-22)
(0.0100465 1.794e-05 2.40852e-22)
(0.0100531 2.49329e-05 2.21863e-23)
(0.0100591 3.26119e-05 -1.67056e-22)
(0.0100641 4.06147e-05 -3.44579e-22)
(0.0100652 4.80056e-05 -1.89937e-22)
(0.0100584 5.30704e-05 0)
(0.0100391 5.31915e-05 2.99097e-22)
(0.0100023 4.45585e-05 0)
(0.00994257 2.27893e-05 -4.02315e-22)
(0.0098542 -1.74302e-05 8.16162e-24)
(0.00973157 -8.10548e-05 5.38465e-22)
(0.00956979 -0.000172107 -6.47131e-22)
(0.00936554 -0.000291974 0)
(0.00911726 -0.000438003 -1.42166e-21)
(0.00882797 -0.000603118 -7.80416e-22)
(0.00850606 -0.000776119 -1.68362e-22)
(0.00816245 -0.000941415 -6.76575e-22)
(0.00781032 -0.00107946 0)
(0.00747541 -0.00116918 3.61785e-22)
(0.00718542 -0.00118931 0)
(0.0069658 -0.00114712 1.4834e-22)
(0.00685067 -0.00103096 -1.32997e-23)
(0.00686206 -0.000847735 0)
(0.00703226 -0.000616142 0)
(0.00737187 -0.000371589 -1.88129e-22)
(0.0078559 -0.00015334 0)
(0.0084277 5.84633e-06 1.83067e-23)
(0.00897286 7.80416e-05 -3.36672e-23)
(0.00940767 8.37763e-05 1.55048e-23)
(0.00970623 6.02375e-05 0)
(0.00988478 2.6109e-05 0)
(0.00997537 -4.52589e-07 2.61472e-22)
(0.0100139 -1.57231e-05 -2.24024e-22)
(0.0100271 -2.25265e-05 3.24079e-22)
(0.0100296 -2.36071e-05 1.23386e-22)
(0.0100272 -2.18383e-05 -1.92159e-24)
(0.0100232 -1.91201e-05 8.65361e-23)
(0.0100192 -1.6284e-05 -8.81137e-24)
(0.0100157 -1.37058e-05 6.32887e-23)
(0.010013 -1.14774e-05 1.79343e-23)
(0.0100109 -9.63826e-06 -7.79405e-25)
(0.0100092 -8.14288e-06 1.87604e-24)
(0.010008 -6.93021e-06 -1.00324e-23)
(0.010007 -5.94416e-06 3.4511e-23)
(0.0100063 -5.13427e-06 6.07548e-23)
(0.0100058 -4.47375e-06 0)
(0.0100054 -3.92109e-06 -2.49422e-23)
(0.0100052 -3.44195e-06 -2.92382e-23)
(0.0100051 -3.03329e-06 5.62409e-24)
(0.0100051 -2.65564e-06 1.53893e-23)
(0.0100053 -2.29959e-06 9.73009e-24)
(0.0100057 -1.93382e-06 -9.42391e-24)
(0.0100064 -1.51517e-06 -2.41125e-24)
(0.0100073 -9.92413e-07 -3.96339e-26)
(0.0100086 -2.98613e-07 1.21028e-23)
(0.0100103 6.56882e-07 8.1503e-24)
(0.0100124 1.98347e-06 1.67657e-23)
(0.0100147 3.73818e-06 -6.38991e-24)
(0.0100173 5.94239e-06 2.96063e-24)
(0.0100198 8.47845e-06 4.68529e-24)
(0.0100218 1.1186e-05 4.27481e-24)
(0.0100228 1.37418e-05 -1.21313e-24)
(0.01002 1.54089e-05 0)
(0.0100109 1.49653e-05 -3.24883e-23)
(0.00999113 1.05246e-05 1.16824e-22)
(0.0099558 -9.36448e-08 1.30444e-23)
(0.00989875 -1.93648e-05 0)
(0.00981394 -4.84501e-05 6.80835e-23)
(0.0096954 -8.4697e-05 0)
(0.00952708 -0.000118457 0)
(0.00933707 -0.000150164 -7.60647e-23)
(0.00915701 -0.00018014 -1.20421e-22)
(0.00897843 -0.000201922 0)
(0.0088069 -0.000210736 0)
(0.00866101 -0.000204389 2.31687e-22)
(0.00855593 -0.000182417 -2.96853e-22)
(0.00850618 -0.000148019 -2.51779e-23)
(0.00851128 -0.000111213 -9.21889e-24)
(0.00853788 -8.10385e-05 2.07188e-22)
(0.00856156 -5.52524e-05 -7.49739e-24)
(0.00857721 -3.19711e-05 1.64318e-23)
(0.00858307 -1.05315e-05 2.71374e-23)
(0.00857663 9.89142e-06 3.34384e-22)
(0.00855586 3.00085e-05 5.56857e-23)
(0.00851944 5.02196e-05 -3.79614e-22)
(0.00846645 7.06018e-05 1.32025e-23)
(0.00839618 9.10672e-05 -2.45858e-22)
(0.00830823 0.00011142 2.6196e-22)
(0.00820245 0.000131329 -1.76494e-23)
(0.00807887 0.000150613 0)
(0.00793786 0.000169258 -2.13825e-23)
(0.00777984 0.000187404 -4.74132e-23)
(0.0076051 0.00020545 4.60147e-22)
(0.00741358 0.000224164 -4.06645e-22)
(0.00720453 0.000244806 5.19193e-22)
(0.00697617 0.000269336 -1.05293e-21)
(0.00672499 0.000300781 9.13534e-22)
(0.00644488 0.000343914 -3.09702e-22)
(0.00612568 0.000406521 -1.31893e-22)
(0.00575067 0.000501806 4.81249e-23)
(0.00529285 0.000652954 0)
(0.00470961 0.000901468 -1.74937e-22)
(0.00393882 0.00132004 6.60095e-23)
(0.00290871 0.00202036 0)
(0.00158906 0.00309862 -8.68569e-23)
(0.000112143 0.00428952 1.76681e-22)
(-0.000253063 0.00366214 3.00703e-22)
(-0.000180426 -0.00154825 -5.18835e-23)
(-0.000670847 -0.00241142 0)
(-0.000715704 -0.00244741 0)
(-0.000539506 -0.00222795 -3.14586e-23)
(-0.000218095 -0.00194227 2.49521e-23)
(0.000167254 -0.00166502 3.47174e-23)
(0.000567505 -0.0014236 -3.45706e-23)
(0.000958585 -0.00122144 1.18777e-23)
(0.00132707 -0.00105361 0)
(0.00166715 -0.000913769 -5.92762e-24)
(0.00197702 -0.000796252 0)
(0.00225686 -0.000696392 1.44711e-24)
(0.00250789 -0.00061051 0)
(0.00273174 -0.000535779 -2.35782e-24)
(0.00293023 -0.000470058 0)
(0.00310513 -0.00041174 0)
(0.00325818 -0.000359646 -4.71648e-25)
(0.00339105 -0.000312932 1.47853e-24)
(0.00350535 -0.000271043 -1.16673e-23)
(0.00360269 -0.000233671 1.0463e-23)
(0.00368472 -0.000200741 0)
(0.0037532 -0.000172416 -3.70429e-23)
(0.0038101 -0.000149104 4.17137e-23)
(0.00385763 -0.000131494 7.31461e-24)
(0.00389839 -0.000120611 0)
(0.0039355 -0.000117905 9.5398e-23)
(0.00397265 -0.000125388 -9.45783e-23)
(0.00401428 -0.000145856 0)
(0.00406524 -0.000183337 -1.27643e-22)
(0.0041335 -0.000243388 1.26915e-22)
(0.00423132 -0.000333916 -1.29468e-22)
(0.00430048 -0.000480402 2.5583e-22)
(0.00428566 -0.000706269 2.82412e-22)
(0.00420087 -0.00102642 4.13758e-23)
(0.00409632 -0.0014536 1.34021e-22)
(0.00400328 -0.00200237 -1.58517e-22)
(0.00393796 -0.00267393 2.47211e-23)
(0.00386565 -0.00344711 4.62126e-23)
(0.0037542 -0.00424134 -6.13866e-23)
(0.00364465 -0.00498723 -5.82966e-23)
(0.0035632 -0.00565597 -9.88765e-24)
(0.00348907 -0.00622739 -1.86339e-22)
(0.00341354 -0.00668665 1.70598e-21)
(0.00333756 -0.00702947 7.34576e-22)
(0.00325519 -0.00725791 2.26388e-22)
(0.00315637 -0.00737628 0)
(0.00303374 -0.007389 9.87985e-23)
(0.00288044 -0.00732459 2.06647e-21)
(0.00269 -0.00717362 9.84328e-22)
(0.00245641 -0.00694929 1.35632e-22)
(0.002183 -0.00665484 2.17048e-21)
(0.0018815 -0.00629507 0)
(0.00156743 -0.00587446 -1.16369e-21)
(0.00125879 -0.00538689 1.95389e-23)
(0.00099573 -0.00483662 -2.13753e-23)
(0.000814811 -0.00422369 3.11749e-22)
(0.00076624 -0.00356285 9.46503e-23)
(0.000903648 -0.00285321 -2.51092e-23)
(0.00130796 -0.00211559 -3.90068e-24)
(0.00203493 -0.00138956 -5.47035e-23)
(0.00307982 -0.000730846 1.91842e-22)
(0.00441483 -0.000190829 7.12747e-23)
(0.00582923 0.000158482 8.42568e-22)
(0.00713681 0.000303255 -7.8844e-22)
(0.00819967 0.000297295 1.07483e-21)
(0.00897478 0.000231262 1.08568e-22)
(0.0094878 0.000139041 -4.4761e-22)
(0.00979282 5.82797e-05 -3.2909e-23)
(0.00994995 2.81027e-06 -2.01048e-22)
(0.0100208 -2.90851e-05 1.95613e-22)
(0.0100471 -4.21367e-05 1.13013e-22)
(0.0100557 -4.5518e-05 0)
(0.0100544 -4.34427e-05 4.97245e-23)
(0.0100494 -3.93473e-05 2.45381e-23)
(0.010043 -3.46214e-05 2.99804e-24)
(0.010037 -3.02103e-05 3.83513e-24)
(0.0100318 -2.64062e-05 -2.19815e-23)
(0.0100279 -2.32285e-05 2.65615e-24)
(0.0100249 -2.06073e-05 -3.45633e-23)
(0.0100228 -1.84342e-05 4.83842e-23)
(0.0100213 -1.66223e-05 -5.55902e-23)
(0.0100204 -1.51135e-05 5.86236e-23)
(0.01002 -1.37822e-05 -6.48463e-23)
(0.0100201 -1.25737e-05 0)
(0.0100207 -1.13862e-05 -2.44515e-24)
(0.0100219 -1.01761e-05 -2.72444e-24)
(0.0100236 -8.82325e-06 2.66824e-23)
(0.0100261 -7.197e-06 0)
(0.0100293 -5.1668e-06 2.93722e-23)
(0.0100333 -2.57027e-06 4.85368e-23)
(0.010038 7.47348e-07 -1.29766e-23)
(0.0100431 4.83717e-06 1.21101e-22)
(0.0100485 9.75216e-06 1.16457e-22)
(0.0100536 1.53486e-05 -1.26159e-22)
(0.0100579 2.14632e-05 1.23795e-23)
(0.0100602 2.78674e-05 1.47679e-22)
(0.010056 3.38892e-05 1.81312e-22)
(0.0100423 3.83455e-05 1.30616e-23)
(0.0100145 3.91293e-05 2.66083e-22)
(0.00996782 3.32932e-05 -6.12491e-22)
(0.00989653 1.69782e-05 0)
(0.00979488 -1.41001e-05 0)
(0.009658 -6.45659e-05 0)
(0.00948226 -0.000138455 -5.36429e-22)
(0.00926587 -0.000238109 -3.60512e-23)
(0.00900956 -0.000362948 1.87124e-23)
(0.00871655 -0.000508598 1.16091e-22)
(0.00839469 -0.000666929 -5.12944e-22)
(0.00805585 -0.000826646 -5.94565e-22)
(0.00771353 -0.00097367 0)
(0.00738223 -0.00109228 0)
(0.00708332 -0.00116858 0)
(0.00683724 -0.00119088 0)
(0.00665907 -0.00115821 -6.02731e-23)
(0.00656329 -0.00107228 -1.33595e-22)
(0.0065597 -0.000935264 0)
(0.00666677 -0.000754215 -1.41269e-23)
(0.00690053 -0.000545418 0)
(0.00726645 -0.000330983 0)
(0.00776171 -0.000136879 0)
(0.00831991 1.3089e-06 0)
(0.00885484 6.74989e-05 -1.28047e-23)
(0.00929596 7.84174e-05 3.61408e-22)
(0.00961776 5.91217e-05 1.05922e-23)
(0.00982554 2.90889e-05 -2.50139e-22)
(0.00994338 3.10421e-06 2.1273e-22)
(0.0100015 -1.42692e-05 -1.75102e-22)
(0.0100251 -2.26202e-05 0)
(0.0100329 -2.56041e-05 1.10995e-22)
(0.0100331 -2.49231e-05 -8.206e-23)
(0.0100304 -2.27653e-05 6.26325e-23)
(0.0100263 -1.99747e-05 -6.97612e-23)
(0.0100223 -1.71881e-05 1.11999e-23)
(0.0100189 -1.46845e-05 6.07875e-24)
(0.0100161 -1.25241e-05 -8.18097e-24)
(0.0100138 -1.07035e-05 -3.11772e-23)
(0.0100121 -9.18815e-06 -8.06114e-24)
(0.0100108 -7.93355e-06 -3.11691e-23)
(0.0100098 -6.90694e-06 -6.87295e-24)
(0.0100091 -6.05465e-06 3.30877e-23)
(0.0100086 -5.32861e-06 4.76724e-23)
(0.0100083 -4.71549e-06 2.7424e-23)
(0.0100083 -4.16499e-06 -5.30915e-24)
(0.0100085 -3.65739e-06 -4.86322e-24)
(0.0100089 -3.15205e-06 4.56604e-24)
(0.0100097 -2.59637e-06 -2.24497e-24)
(0.0100109 -1.93654e-06 -2.68038e-25)
(0.0100124 -1.11223e-06 -1.5144e-23)
(0.0100142 -3.18955e-08 0)
(0.0100163 1.39796e-06 -1.61313e-23)
(0.0100183 3.1517e-06 -5.56751e-24)
(0.01002 5.14537e-06 0)
(0.0100211 7.29685e-06 -4.97703e-24)
(0.0100196 9.41352e-06 1.36043e-24)
(0.0100135 1.11259e-05 -9.80689e-24)
(0.00999952 1.16623e-05 1.92516e-23)
(0.00997435 9.71848e-06 4.308e-23)
(0.0099332 3.79247e-06 -5.80906e-23)
(0.00986979 -7.45196e-06 -6.2683e-23)
(0.009779 -2.51069e-05 5.61411e-23)
(0.00965805 -4.85685e-05 -8.26187e-23)
(0.00950584 -7.36321e-05 -1.38545e-23)
(0.00931397 -9.17748e-05 -1.88907e-23)
(0.00911341 -0.000108201 1.22023e-22)
(0.00893023 -0.000127683 0)
(0.00875369 -0.000144113 -2.98077e-22)
(0.00858812 -0.000153441 -1.05839e-22)
(0.00844693 -0.000154415 -2.57479e-22)
(0.00833877 -0.00014651 2.8002e-22)
(0.00827182 -0.000130311 -1.82808e-22)
(0.00824624 -0.00010895 1.84512e-22)
(0.00824141 -8.624e-05 0)
(0.00824037 -6.1374e-05 1.48936e-23)
(0.00823736 -3.42303e-05 2.61579e-22)
(0.00822852 -5.35013e-06 -2.96168e-22)
(0.00820969 2.51499e-05 -3.37567e-22)
(0.00817741 5.73372e-05 2.93257e-22)
(0.0081291 9.11415e-05 -2.05158e-22)
(0.00806276 0.000126272 2.04885e-22)
(0.00797683 0.000162291 0)
(0.00787017 0.000198666 -3.07593e-22)
(0.00774207 0.000234831 2.74905e-22)
(0.00759222 0.000270394 -3.73426e-22)
(0.00742061 0.000305193 3.3387e-22)
(0.00722745 0.000339357 4.79178e-23)
(0.00701285 0.000373475 -5.27348e-23)
(0.00677665 0.000408755 0)
(0.00651808 0.000447232 0)
(0.00623527 0.000492101 -6.88079e-23)
(0.00592462 0.000548321 0)
(0.00557992 0.00062367 0)
(0.00519082 0.000730652 1.77863e-22)
(0.0047408 0.000889769 0)
(0.00420443 0.00113482 0)
(0.0035456 0.00151999 4.76384e-22)
(0.00272246 0.00212303 -2.44457e-22)
(0.00171564 0.00301832 0)
(0.00060485 0.00413865 0)
(-0.000353291 0.00486227 -1.97041e-23)
(-0.0002397 0.00330929 -1.86475e-22)
(-0.000121201 -0.00117695 2.53694e-23)
(-0.0005441 -0.0021438 -4.74918e-23)
(-0.000742113 -0.00240706 -3.25697e-23)
(-0.000757177 -0.00235075 6.3818e-23)
(-0.000644231 -0.00217229 -9.02801e-23)
(-0.000435837 -0.00195503 4.32113e-23)
(-0.00018009 -0.00173885 0)
(9.61813e-05 -0.00154075 -1.20283e-23)
(0.000375284 -0.00136467 0)
(0.000646364 -0.00120973 -3.93057e-23)
(0.000903134 -0.00107354 3.05044e-23)
(0.00114215 -0.00095341 -5.26974e-24)
(0.00136177 -0.000846846 -1.84227e-23)
(0.00156144 -0.000751688 1.37896e-23)
(0.00174127 -0.000666163 -3.78822e-24)
(0.00190177 -0.000588862 0)
(0.00204368 -0.000518719 -2.20741e-24)