/*--------------------------------*- C++ -*----------------------------------*\
| =========                 |                                                 |
| \\      /  F ield         | OpenFOAM: The Open Source CFD Toolbox           |
|  \\    /   O peration     | Version:  2506                                  |
|   \\  /    A nd           | Website:  www.openfoam.com                      |
|    \\/     M anipulation  |                                                 |
\*---------------------------------------------------------------------------*/
FoamFile
{
    version     2.0;
    format      ascii;
    arch        "LSB;label=32;scalar=64";
    class       volVectorField;
    location    "5";
    object      vorticityField;
}
// * * * * * * * * * * * * * * * * * * * * * * * * * * * * * * * * * * * * * //

dimensions      [0 0 -1 0 0 0 0];

internalField   nonuniform List<vector> 
4000
(
(3.71303e-19 1.51441e-19 30.8083)
(1.37641e-20 7.12361e-20 33.3428)
(1.85258e-19 5.47031e-19 28.0395)
(2.10253e-19 7.54708e-19 22.9849)
(-2.9279e-20 8.80326e-19 19.6119)
(2.3994e-20 4.63683e-21 17.2037)
(8.49872e-20 1.03345e-18 15.3392)
(2.83016e-20 1.09096e-18 13.8719)
(-4.41035e-21 9.17747e-22 12.7008)
(-3.60538e-21 1.05589e-20 11.7463)
(3.94304e-20 2.40572e-17 10.9546)
(-4.04657e-20 -4.57852e-17 10.2905)
(3.57968e-21 2.16782e-17 9.7288)
(-1.53425e-21 -2.31334e-17 9.25108)
(-4.36183e-21 2.30389e-17 8.84358)
(1.93634e-20 1.26659e-18 8.49573)
(-1.4994e-20 2.31199e-17 8.19914)
(2.81909e-20 -2.30455e-17 7.94696)
(3.25885e-20 1.28917e-18 7.73336)
(-4.05288e-20 -1.31303e-21 7.55318)
(3.90499e-21 -2.24495e-21 7.40167)
(9.21318e-20 -1.27409e-18 7.27417)
(-9.19373e-20 -1.26754e-18 7.16592)
(-1.20786e-19 -1.56965e-21 7.07176)
(1.25195e-19 -1.26705e-18 6.9858)
(6.51602e-21 -1.25618e-18 6.90103)
(1.81783e-19 5.07618e-21 6.80865)
(-2.38844e-20 1.7339e-19 6.69742)
(-4.89281e-19 4.4588e-17 6.55234)
(1.44828e-19 -4.6003e-17 6.33111)
(1.89066e-19 2.44435e-20 5.97411)
(-2.73762e-19 -9.24357e-17 5.75004)
(2.96915e-18 1.24251e-16 5.97556)
(8.45677e-18 -3.94933e-17 6.69901)
(1.09811e-17 -9.42782e-17 7.86152)
(4.53563e-17 7.52241e-16 9.45101)
(2.98231e-17 -5.68638e-17 11.2734)
(-4.35608e-17 -1.21903e-16 14.257)
(-3.06316e-20 -3.02861e-18 18.9045)
(2.17544e-17 4.83711e-17 24.0082)
(-2.50409e-17 -5.86596e-17 28.9581)
(1.46075e-16 4.75008e-16 33.4309)
(-2.90354e-19 1.69728e-18 37.2968)
(3.0925e-16 2.86975e-16 40.5027)
(-1.45397e-16 -1.14599e-16 43.0337)
(3.80443e-19 3.33047e-16 44.9188)
(1.80151e-18 8.39406e-18 46.1214)
(-2.86171e-18 -3.41953e-16 46.7653)
(-2.10334e-16 -1.90923e-16 46.9615)
(-1.62333e-16 -1.37512e-16 46.8124)
(-2.79484e-18 -5.1134e-18 46.3947)
(3.32859e-19 5.66293e-19 45.4951)
(-1.11875e-17 -2.18974e-17 44.491)
(3.6205e-18 3.23069e-16 42.986)
(-9.42404e-17 2.15224e-16 40.9295)
(5.78423e-18 -2.82538e-16 37.83)
(-3.62691e-17 -8.57629e-17 33.7195)
(8.99256e-18 3.65557e-17 28.3313)
(1.59889e-19 -4.74074e-19 21.9266)
(8.73173e-19 -3.4562e-17 15.4886)
(1.97602e-18 -9.28438e-17 9.91423)
(4.75838e-18 3.88033e-17 5.71142)
(-4.42857e-18 3.45725e-16 2.90585)
(3.92744e-18 -3.5335e-16 1.26554)
(-5.38062e-20 1.38612e-18 0.373137)
(-1.50892e-19 1.32033e-19 -0.0239454)
(4.90606e-21 -4.40987e-20 -0.171397)
(5.26014e-20 -4.8357e-17 -0.209063)
(-9.12366e-19 -7.13895e-16 -0.199798)
(3.9006e-19 -3.77516e-16 -0.17211)
(-4.95859e-21 2.51638e-19 -0.141012)
(-2.20874e-19 3.21526e-16 -0.113847)
(-2.18892e-20 -3.14565e-16 -0.091922)
(-3.13097e-19 -4.41825e-17 -0.0751606)
(2.53059e-19 3.40913e-16 -0.0624307)
(-4.07102e-20 -2.88229e-16 -0.0527056)
(-1.27124e-19 -3.17642e-16 -0.0451668)
(-1.42592e-19 -3.04644e-16 -0.0392213)
(8.08241e-21 -1.04885e-19 -0.0345296)
(9.79254e-20 -9.57611e-20 -0.0306626)
(-9.99904e-20 8.17273e-18 -0.0274295)
(1.06836e-19 2.39319e-16 -0.0247773)
(-4.54245e-21 2.74435e-19 -0.0227651)
(-1.13136e-19 -2.11623e-16 -0.0211988)
(-1.14041e-20 1.99327e-16 -0.0202738)
(1.68178e-21 1.30534e-19 -0.020107)
(-8.58281e-21 -6.5562e-21 -0.0211739)
(1.77923e-20 1.00679e-17 -0.0235656)
(1.43114e-20 3.50808e-17 -0.0279076)
(1.03482e-19 -8.48263e-17 -0.0352816)
(-9.14637e-21 -7.62328e-20 -0.0463309)
(-1.17228e-19 4.24974e-19 -0.0625105)
(1.77804e-19 -1.42384e-17 -0.085109)
(-1.97983e-19 -4.1239e-19 -0.11643)
(4.29481e-19 2.57879e-16 -0.156382)
(-7.62778e-19 2.72416e-16 -0.205464)
(5.34846e-19 2.77417e-16 -0.26623)
(3.00827e-19 1.89392e-17 -0.332719)
(-1.61028e-18 3.0156e-16 -0.404627)
(-1.93098e-18 3.28863e-16 -0.469958)
(1.74407e-20 -5.48768e-18 -0.5027)
(1.45858e-18 3.4315e-16 -0.478237)
(-4.36766e-19 6.92962e-16 -0.351958)
(5.91341e-20 1.75271e-17 -0.0913373)
(3.09124e-18 3.48473e-16 0.372124)
(1.13432e-19 3.83285e-18 1.09224)
(-6.80754e-18 -3.52154e-16 2.09141)
(-1.05906e-17 -3.27331e-16 3.39242)
(7.94491e-19 -2.26251e-17 4.9535)
(1.56291e-18 2.81595e-18 6.71159)
(-2.77285e-17 -3.12699e-16 8.59372)
(2.89224e-17 2.89569e-16 10.2713)
(1.36277e-19 1.18105e-18 11.724)
(2.73418e-17 5.77168e-16 12.4599)
(-1.21334e-18 1.38568e-16 12.4397)
(7.62247e-18 2.8415e-16 11.439)
(5.82769e-20 -6.92398e-19 9.48458)
(-9.81223e-20 7.30348e-17 7.02282)
(1.63364e-19 -9.43559e-18 4.60906)
(-7.66599e-20 -5.72301e-20 2.62914)
(-1.3391e-19 8.97827e-18 1.2884)
(1.1022e-18 -3.34861e-16 0.506419)
(-7.5349e-19 3.48763e-16 0.103817)
(3.52934e-20 2.12877e-17 -0.0657945)
(3.69769e-19 3.27295e-16 -0.118587)
(-1.84065e-19 -6.82527e-16 -0.128735)
(-5.44129e-19 3.31838e-16 -0.112407)
(-6.50018e-19 -3.74269e-16 -0.0930258)
(-6.75636e-19 1.89068e-19 -0.0744487)
(-2.36243e-19 -3.22838e-16 -0.0590143)
(1.6748e-21 2.88763e-19 -0.0468859)
(-2.11284e-19 3.31205e-16 -0.0375129)
(3.14757e-19 -4.04457e-17 -0.0303141)
(-9.01636e-20 3.52365e-16 -0.0247496)
(-6.42327e-20 -3.67563e-20 -0.0204272)
(-6.45298e-21 -6.11827e-20 -0.0170236)
(5.29737e-20 -2.80019e-16 -0.014311)
(6.20088e-21 2.68028e-16 -0.0121282)
(4.51606e-21 -6.34143e-20 -0.0103925)
(3.54734e-20 1.60501e-20 -0.00904764)
(-2.50878e-20 2.28754e-16 -0.00795233)
(5.81043e-21 -5.37755e-17 -0.00712716)
(-3.384e-20 2.54909e-16 -0.00657225)
(7.77099e-21 -7.04842e-20 -0.00627463)
(-7.60173e-21 -1.39562e-16 -0.00634373)
(1.72829e-20 -9.13124e-17 -0.00684342)
(-1.78813e-20 6.90803e-17 -0.00792359)
(1.41774e-20 -4.77745e-17 -0.00991762)
(-1.19387e-20 1.18484e-20 -0.0131738)
(-1.70311e-20 5.37192e-17 -0.0181922)
(-1.22311e-20 -5.92677e-20 -0.0256598)
(9.18202e-20 -3.68914e-16 -0.0363334)
(-3.02056e-20 6.54178e-17 -0.0504846)
(2.23223e-19 -4.15812e-19 -0.0694513)
(7.1596e-20 2.20033e-16 -0.0919369)
(-9.37491e-20 7.7145e-17 -0.117863)
(-1.40163e-20 -1.98014e-20 -0.144234)
(-1.28352e-19 -1.4092e-19 -0.158904)
(1.21184e-19 5.24847e-19 -0.146474)
(1.48866e-20 -7.23643e-16 -0.0848099)
(4.06771e-20 9.29674e-17 0.0653337)
(2.03285e-18 3.87106e-16 0.354882)
(3.60671e-20 3.06348e-16 0.955867)
(3.02719e-20 4.38683e-19 1.52556)
(9.53423e-20 -3.07019e-16 2.22808)
(-4.47083e-18 -5.04721e-16 2.93188)
(-8.7451e-20 -5.86948e-19 3.55991)
(-1.11682e-18 -6.52423e-17 4.0328)
(-9.11133e-19 -1.88807e-16 4.22146)
(-5.56539e-19 -5.89832e-17 4.04026)
(4.3133e-19 2.38347e-19 3.61709)
(-3.85565e-21 -8.96658e-19 3.26113)
(5.62588e-19 4.54896e-22 3.0487)
(-5.46494e-19 -9.04379e-19 2.93452)
(-9.94704e-20 -1.39542e-18 2.87711)
(2.70239e-20 -5.91754e-17 2.86447)
(-6.08634e-19 6.02933e-17 2.89387)
(-1.39035e-19 2.8311e-17 2.96355)
(7.97223e-19 -2.98527e-17 3.07126)
(-1.87249e-20 2.74617e-17 3.21674)
(5.22517e-19 -5.81365e-17 3.39998)
(-3.91676e-19 2.84296e-17 3.61934)
(-7.20956e-19 -4.02367e-19 3.87194)
(7.21798e-19 -8.17689e-19 4.15621)
(-5.9981e-20 1.86049e-19 4.47116)
(1.70242e-18 -2.77129e-17 4.81568)
(-1.75795e-18 2.64944e-17 5.18957)
(2.02378e-18 -2.68531e-17 5.59452)
(-2.05619e-18 2.63861e-17 6.03501)
(1.09764e-18 -1.42735e-17 6.51982)
(-1.16058e-18 1.2846e-17 7.06439)
(6.73515e-20 -1.19268e-18 7.69485)
(-8.96392e-20 -6.84196e-19 8.45539)
(-8.89968e-19 -1.02597e-20 9.42263)
(1.01891e-18 -7.07624e-19 10.7337)
(-1.19839e-19 -1.13139e-18 12.6423)
(8.172e-19 -5.07072e-18 15.6671)
(-6.658e-19 6.12665e-18 20.9715)
(-7.37831e-21 -6.91649e-19 29.0045)
(-2.45135e-20 -4.56777e-20 28.8114)
(-3.09173e-21 -2.05213e-19 -2.17878)
(3.07656e-19 -1.3148e-19 10.0432)
(-1.50505e-19 -6.10596e-19 12.9903)
(1.15043e-18 1.58832e-18 13.4342)
(-1.93952e-18 -7.34619e-18 13.0919)
(3.37906e-19 -1.00899e-18 12.4636)
(6.65131e-19 4.50312e-18 11.7692)
(-2.33224e-19 -2.28772e-18 11.1032)
(-1.60682e-19 -1.36532e-18 10.4947)
(-1.23129e-19 -1.47413e-18 9.9482)
(-1.19474e-19 -2.76253e-18 9.46111)
(-5.24503e-19 -1.79192e-17 9.02847)
(4.2007e-19 1.74253e-17 8.64481)
(-2.78399e-19 -1.69997e-17 8.30493)
(4.82901e-19 3.23826e-17 8.00416)
(-5.15924e-19 -3.7808e-17 7.73842)
(1.80601e-19 1.55232e-17 7.50412)
(-2.03047e-19 -1.97306e-17 7.2981)
(-1.75272e-19 -2.12038e-17 7.11749)
(2.45846e-19 3.36741e-17 6.9596)
(-1.30046e-20 -2.08045e-18 6.82185)
(-1.88494e-19 -3.65615e-17 6.70162)
(2.2246e-19 3.72863e-17 6.59615)
(1.69303e-20 3.37483e-17 6.50244)
(-2.48359e-19 -3.46163e-17 6.41699)
(1.08444e-19 -7.61289e-19 6.33573)
(1.73267e-20 -3.57962e-17 6.2536)
(-2.97758e-19 2.36241e-18 6.16429)
(7.43264e-19 7.15497e-17 6.05905)
(8.37932e-20 1.05409e-18 5.92463)
(-4.85051e-19 -3.59967e-17 5.74137)
(-1.53941e-18 -3.57866e-17 5.50528)
(-5.8637e-18 -1.07504e-16 5.30625)
(-1.60694e-17 -2.21896e-16 5.14763)
(-1.38653e-17 -1.58152e-16 4.98049)
(-1.56944e-17 -1.98186e-16 4.77335)
(2.72554e-17 -5.42373e-18 4.56909)
(3.96215e-17 1.34646e-16 4.55553)
(-2.50979e-17 -3.15916e-17 4.76049)
(-9.92657e-17 -9.30675e-17 5.11802)
(-1.46985e-16 -1.24624e-16 5.72094)
(-1.47391e-16 -1.75722e-16 6.50733)
(-2.0829e-18 8.60443e-19 7.36608)
(-3.5122e-16 -3.41846e-16 8.23737)
(1.85181e-16 1.65172e-16 9.08355)
(-2.5846e-16 -1.43928e-16 9.88671)
(2.57852e-16 1.33952e-16 10.6027)
(2.08825e-19 3.37021e-18 11.2448)
(-3.9518e-17 4.60313e-17 11.812)
(1.83864e-16 1.64316e-16 12.3438)
(-2.3743e-16 -1.1272e-16 12.773)
(2.44155e-17 7.87443e-18 13.151)
(2.03466e-16 9.38134e-17 13.5589)
(-4.0787e-17 -2.26294e-17 13.9834)
(1.27935e-16 1.33626e-16 14.4906)
(-1.03162e-19 1.70786e-18 15.0609)
(3.7872e-17 7.55754e-17 15.6288)
(-1.67156e-17 -4.79696e-17 15.9547)
(-2.45714e-18 -5.75358e-18 15.5786)
(-5.39607e-19 2.53367e-17 14.0691)
(-4.72702e-18 1.05642e-16 11.5438)
(-6.51698e-18 2.61459e-16 8.48075)
(-9.29155e-18 3.20538e-16 5.58106)
(-3.18819e-18 3.46061e-16 3.33888)
(-1.01464e-18 -4.55566e-17 1.77522)
(9.22215e-19 4.5119e-17 0.804039)
(1.88362e-20 -1.55703e-19 0.265037)
(-1.2511e-19 8.9371e-19 -0.000579199)
(2.32261e-18 7.52942e-16 -0.101035)
(-1.97644e-18 -3.74649e-16 -0.140267)
(-1.44447e-19 -4.57066e-17 -0.141265)
(1.34653e-18 4.5519e-16 -0.128296)
(7.4354e-19 3.11918e-16 -0.109052)
(3.06485e-19 3.90791e-16 -0.0908218)
(3.04668e-19 3.73646e-19 -0.0752809)
(7.0727e-21 -2.04282e-17 -0.062809)
(-2.8597e-19 -3.55424e-16 -0.0530421)
(2.27111e-19 3.02225e-16 -0.0453338)
(8.61053e-21 1.80706e-17 -0.0393544)
(8.64823e-20 2.85092e-16 -0.0345951)
(-3.42358e-20 -2.70528e-16 -0.0307853)
(-1.01739e-19 -5.563e-20 -0.02757)
(2.69252e-22 -1.79279e-22 -0.0251511)
(1.0974e-19 9.14532e-20 -0.0231117)
(-1.10324e-19 -2.12997e-16 -0.0217191)
(4.70437e-21 5.96242e-18 -0.0207054)
(-3.74937e-20 -1.1774e-17 -0.0203328)
(-5.29491e-21 1.23268e-17 -0.0203625)
(-4.83712e-20 -1.19062e-17 -0.0207275)
(-1.09364e-19 2.0686e-16 -0.0214389)
(-8.54077e-21 -1.26264e-17 -0.0224998)
(-3.66842e-19 1.33901e-17 -0.0237193)
(-4.55575e-19 2.30017e-16 -0.0250602)
(8.81387e-19 -2.59617e-16 -0.0263301)
(-8.27623e-19 2.73949e-16 -0.0272318)
(2.46687e-19 -2.71596e-16 -0.0259456)
(-1.96311e-18 2.75082e-16 -0.0224233)
(-1.89866e-18 3.0778e-16 -0.0121894)
(1.2909e-18 -3.13824e-16 0.0123202)
(1.97996e-18 -3.16193e-16 0.051808)
(1.28839e-20 -1.60811e-18 0.119256)
(-2.80358e-18 3.37311e-16 0.224519)
(-4.272e-19 -3.48077e-16 0.370971)
(1.11133e-18 1.09439e-17 0.572752)
(1.20585e-19 -2.17006e-17 0.825162)
(-1.34752e-19 -4.13424e-18 1.14583)
(2.08457e-17 6.86828e-16 1.54896)
(3.41974e-17 6.99917e-16 2.00608)
(2.59388e-17 3.19083e-16 2.50412)
(2.81726e-17 2.81233e-16 3.03689)
(2.94995e-17 3.14522e-16 3.57475)
(-7.06152e-17 -5.71675e-16 4.08181)
(2.09668e-18 1.44089e-17 4.55993)
(-2.87594e-17 -2.71491e-16 4.98198)
(3.66544e-18 2.83481e-17 5.38244)
(-6.52883e-18 -1.19667e-16 5.7139)
(-9.93386e-19 -1.36779e-17 5.84856)
(-1.90396e-18 -5.69126e-17 5.5899)
(1.55202e-21 -7.96482e-18 4.82457)
(1.05858e-20 8.62574e-18 3.65704)
(1.89603e-21 9.1798e-19 2.43227)
(-2.1983e-18 3.26022e-16 1.43067)
(7.05059e-19 8.8801e-18 0.72661)
(3.2765e-21 -3.2745e-17 0.296593)
(6.65403e-19 -3.27385e-16 0.0666176)
(-6.42353e-19 3.52822e-16 -0.0349539)
(1.64315e-18 3.51359e-16 -0.0734701)
(1.08432e-18 7.01355e-16 -0.083925)
(8.58679e-19 6.94185e-16 -0.0780573)
(2.09181e-19 2.99035e-16 -0.0669132)
(2.39045e-20 4.206e-17 -0.055491)
(5.37188e-19 3.28752e-16 -0.0452933)
(-3.84056e-19 -6.41759e-16 -0.0368742)
(1.39952e-19 7.80445e-17 -0.0301335)
(1.52612e-19 2.258e-16 -0.0248199)
(-2.46552e-20 -5.02722e-20 -0.0206386)
(1.33112e-20 -7.99065e-21 -0.01733)
(2.04914e-19 -8.02867e-20 -0.0147113)
(-1.88193e-20 -6.33558e-17 -0.0126092)
(-9.98977e-20 -1.8056e-16 -0.0109799)
(-1.97132e-20 -5.70505e-17 -0.00970529)
(6.22015e-21 2.89081e-20 -0.00869949)
(9.7945e-20 1.02134e-16 -0.00801354)
(5.20484e-21 -9.69722e-17 -0.00756014)
(-2.45281e-20 1.40344e-16 -0.00740478)
(-2.02172e-20 -1.52723e-20 -0.00752303)
(1.02192e-20 4.63631e-17 -0.00790055)
(1.29869e-20 -4.80494e-17 -0.00852056)
(6.07833e-21 1.0123e-16 -0.00930159)
(3.44435e-20 2.40042e-21 -0.0101557)
(-1.11333e-20 -6.96842e-21 -0.0109364)
(-4.08002e-20 -3.01066e-20 -0.0114826)
(1.99787e-20 5.74737e-20 -0.0114543)
(-6.48523e-19 6.24973e-16 -0.0103435)
(-1.90967e-19 1.46173e-16 -0.00736814)
(-1.17094e-19 7.66823e-17 0.00188973)
(1.09157e-19 -7.99615e-17 0.0185995)
(8.99962e-19 -4.9973e-16 0.0499446)
(-5.63921e-20 1.71613e-16 0.10272)
(-3.73143e-20 3.5661e-16 0.183003)
(-1.38169e-19 1.17779e-18 0.299389)
(-1.57595e-18 -2.84358e-16 0.467783)
(9.10089e-19 9.49435e-17 0.699693)
(1.60085e-19 -1.62847e-18 0.847266)
(-7.21815e-18 -3.54875e-16 1.07326)
(5.51097e-18 2.77973e-16 1.32039)
(4.38567e-20 -1.52031e-19 1.57055)
(4.38678e-19 3.49614e-19 1.82764)
(-6.31596e-19 6.28128e-17 2.08227)
(2.42286e-19 5.58613e-17 2.29252)
(-7.46037e-19 -5.23839e-17 2.40233)
(4.27477e-19 7.62202e-19 2.41958)
(-1.1303e-19 -5.72006e-17 2.389)
(2.6891e-19 5.71025e-17 2.35349)
(7.07815e-20 2.73364e-18 2.32854)
(3.14163e-20 5.63937e-17 2.32072)
(5.8286e-19 -1.87786e-18 2.33383)
(-4.52469e-19 -2.96138e-17 2.37028)
(-3.09036e-19 -2.48679e-17 2.43163)
(1.25334e-19 -2.5324e-17 2.51917)
(-4.70872e-19 2.64455e-17 2.63389)
(4.71542e-19 -5.83001e-19 2.77613)
(-2.43815e-19 2.53465e-17 2.94573)
(8.021e-20 -2.70838e-17 3.14243)
(-7.90531e-20 -9.26156e-19 3.36597)
(4.38072e-19 -2.14888e-17 3.6162)
(-3.81163e-19 2.65744e-17 3.89341)
(4.44646e-19 -2.34372e-17 4.19886)
(-1.57813e-18 2.61071e-17 4.53552)
(1.41198e-18 -9.50785e-18 4.90919)
(-2.91029e-19 1.23151e-17 5.33032)
(-2.90065e-19 -9.14635e-19 5.8173)
(1.48305e-20 2.66838e-18 6.40223)
(-5.05309e-19 8.49966e-18 7.14153)
(1.37841e-19 -1.03009e-17 8.13324)
(-1.01621e-19 2.34962e-18 9.53493)
(-7.18851e-19 1.63547e-19 11.52)
(1.02703e-18 -9.60526e-19 13.7818)
(3.58986e-19 5.55342e-19 12.8591)
(-3.95863e-19 -1.65201e-19 -3.62304)
(-5.0751e-20 1.18971e-19 -7.68766)
(-1.73914e-18 2.21537e-19 1.14518)
(8.77668e-19 -3.12455e-19 4.87426)
(5.06884e-19 5.1519e-20 6.66329)
(-1.00045e-18 -3.98307e-19 7.47984)
(1.5666e-18 2.33671e-18 7.80668)
(-1.62143e-18 -2.28027e-18 7.8825)
(2.3605e-19 1.1801e-18 7.82729)
(1.70982e-19 1.36122e-18 7.70373)
(6.34372e-19 3.14615e-18 7.54588)
(1.17679e-19 1.5783e-18 7.3734)
(4.79239e-19 3.72103e-18 7.19781)
(-9.01764e-19 -1.12863e-17 7.02576)
(1.94978e-18 2.53193e-17 6.86108)
(-7.06023e-19 -9.85802e-18 6.70589)
(6.16838e-19 1.43781e-17 6.56127)
(-3.37719e-19 -7.91838e-18 6.42761)
(1.80441e-19 4.67189e-18 6.30488)
(7.03451e-19 2.83918e-17 6.19269)
(-6.26471e-19 -2.4436e-17 6.09038)
(1.53675e-20 2.00328e-18 5.99707)
(-4.20971e-20 4.76244e-18 5.91156)
(-2.25214e-19 -2.71776e-17 5.83238)
(4.98307e-19 2.93696e-17 5.75768)
(2.34261e-19 2.71715e-17 5.68514)
(-4.76394e-20 -2.26616e-17 5.61184)
(-7.88143e-19 -2.72029e-17 5.53407)
(3.50654e-19 2.55625e-17 5.44706)
(1.94212e-19 -1.68244e-19 5.34394)
(2.23806e-19 2.85585e-21 5.21625)
(-4.15847e-19 -1.01279e-20 5.05031)
(2.44426e-19 5.52815e-19 4.79033)
(1.0769e-17 1.13061e-16 4.45031)
(2.16998e-17 1.3813e-16 4.02056)
(-3.22268e-17 -1.25136e-16 3.48156)
(1.89353e-17 1.59408e-18 2.84349)
(-5.94314e-17 -1.54982e-16 2.17446)
(2.08699e-17 2.48481e-17 1.62284)
(1.14522e-16 1.08046e-16 1.24008)
(-3.93829e-17 -1.01918e-17 1.03995)
(3.1228e-16 2.42141e-16 1.09134)
(1.2971e-18 8.53836e-18 1.35139)
(-2.01709e-16 -1.06116e-16 1.74405)
(-2.14162e-16 -1.06712e-16 2.22671)
(2.75905e-17 8.00734e-18 2.75035)
(1.71307e-16 1.04378e-16 3.2854)
(-4.51123e-16 -2.15073e-16 3.79297)
(-2.11125e-16 -8.98269e-17 4.29372)
(-7.04451e-17 -7.38372e-18 4.7199)
(-1.26145e-18 -2.62709e-18 5.1321)
(5.17964e-17 5.03222e-17 5.51512)
(-5.24597e-17 -1.8328e-17 5.84639)
(6.3648e-18 -2.63165e-17 6.18789)
(3.08651e-18 -2.85467e-19 6.54694)
(1.67841e-16 4.36875e-17 6.99489)
(-6.26951e-17 -1.40906e-17 7.56998)
(-6.15656e-17 -2.20099e-17 8.31671)
(2.97421e-17 1.49227e-17 9.2218)
(2.20212e-18 6.29285e-18 10.1401)
(1.83556e-19 9.3938e-20 10.742)
(1.91094e-18 2.11846e-17 10.679)
(2.95205e-18 -2.46334e-17 9.60392)
(5.63743e-18 -2.49654e-17 7.74935)
(1.1742e-17 -3.11837e-16 5.66019)
(-6.78439e-18 3.13467e-16 3.75394)
(6.96159e-18 -3.43854e-16 2.25239)
(-1.2242e-18 2.15948e-18 1.19319)
(2.78608e-20 -9.61368e-19 0.538726)
(-1.51967e-18 -7.42938e-16 0.176713)
(2.60408e-18 7.41125e-16 -0.00252338)
(3.04566e-19 -1.14318e-18 -0.0744473)
(-7.02901e-19 -3.15314e-16 -0.107029)
(6.01949e-19 6.54861e-19 -0.110926)
(1.06451e-18 3.01749e-16 -0.103495)
(-5.99758e-19 -3.55803e-16 -0.0902118)
(-7.52768e-19 -3.04667e-16 -0.0767156)
(1.1401e-18 6.46259e-16 -0.0647958)
(-1.10315e-19 -1.85815e-17 -0.0548297)
(-9.70178e-20 -1.76963e-17 -0.0468967)
(-6.48737e-19 -5.24191e-16 -0.0405931)
(5.86321e-19 5.14208e-16 -0.0356191)
(1.03891e-19 7.87088e-18 -0.0314717)
(-1.11157e-19 8.08164e-20 -0.0283161)
(-3.48935e-21 -6.99124e-18 -0.0256)
(2.4637e-19 2.069e-16 -0.0235612)
(-1.20429e-20 1.83681e-19 -0.0217574)
(1.85428e-20 -4.73662e-17 -0.0203754)
(-9.73604e-21 -7.36109e-19 -0.0191894)
(3.4911e-20 -3.5241e-17 -0.0180012)
(-8.91135e-20 -1.95555e-16 -0.016623)
(-1.86769e-20 -1.25903e-17 -0.0148486)
(4.57863e-19 -4.34132e-16 -0.0120396)
(3.27849e-19 -2.30402e-16 -0.00789793)
(-8.38312e-19 4.87595e-16 -0.00114848)
(-2.39385e-19 1.69825e-17 0.00910802)
(1.31496e-18 -2.85828e-16 0.024002)
(2.26508e-18 -5.67635e-16 0.0515835)
(1.15518e-18 -2.97156e-16 0.0926255)
(8.80243e-19 -3.05451e-19 0.15376)
(-2.08832e-18 3.15723e-16 0.236284)
(-6.45035e-21 1.77813e-18 0.338852)
(5.20524e-19 -3.35932e-16 0.463598)
(9.09799e-19 3.82821e-18 0.604514)
(2.69358e-18 3.31309e-16 0.764052)
(-4.63424e-18 -3.4299e-16 0.9372)
(1.15787e-19 1.96865e-18 1.12163)
(-3.40175e-17 -6.6058e-16 1.31294)
(-2.46428e-17 -3.35465e-16 1.50028)
(2.22559e-19 -2.00596e-17 1.68031)
(-3.26882e-17 -3.0191e-16 1.85463)
(-1.9317e-18 -3.77241e-18 2.02255)
(4.02451e-17 2.65906e-16 2.20409)
(-2.08383e-20 4.47206e-19 2.37478)
(-3.92704e-17 -2.31623e-16 2.55327)
(1.88556e-18 1.3566e-17 2.82711)
(-7.72563e-19 -1.63973e-19 3.17317)
(-1.25178e-19 3.20123e-19 3.57733)
(1.52781e-18 5.72714e-17 3.94086)
(-7.9065e-20 -3.43838e-19 4.10192)
(1.00754e-19 -8.37496e-18 3.85315)
(-1.2293e-19 1.7831e-17 3.21119)
(1.21612e-18 -1.02388e-17 2.36829)
(8.85558e-19 -6.07786e-19 1.55651)
(-6.23926e-20 -5.44431e-19 0.89697)
(-5.11209e-19 -3.63802e-16 0.446699)
(1.11252e-18 3.90886e-16 0.180562)
(-1.48298e-18 -7.23228e-16 0.0356732)
(-1.44653e-19 -3.48761e-16 -0.0279944)
(8.04114e-19 -2.18799e-17 -0.0554355)
(-7.33599e-19 -3.1964e-16 -0.0622185)
(2.07861e-19 4.17233e-17 -0.0599876)
(-3.74147e-19 -3.2725e-16 -0.0527653)
(-4.28662e-19 -7.96612e-17 -0.0447655)
(4.04832e-20 1.12563e-20 -0.0373529)
(1.42686e-19 -3.72521e-17 -0.0310408)
(-8.72583e-21 7.21077e-17 -0.0258782)
(-2.40502e-19 -2.7732e-16 -0.0217217)
(-3.20055e-19 -5.30554e-16 -0.0184209)
(-1.76474e-21 1.96034e-19 -0.0157609)
(1.03312e-19 2.40077e-16 -0.0136815)
(1.8061e-19 2.84968e-16 -0.0120638)
(1.7237e-20 -5.39113e-17 -0.0107647)
(-2.12475e-20 -1.535e-16 -0.00983226)
(-4.06466e-20 -9.73133e-17 -0.0091263)
(5.8585e-20 9.41149e-17 -0.00866945)
(-2.20284e-21 2.31216e-17 -0.00838683)
(4.2694e-22 -3.03841e-20 -0.0082026)
(-4.34615e-20 -1.45121e-16 -0.00800194)
(2.09941e-20 -1.01689e-16 -0.00753448)
(2.76914e-20 -2.70368e-16 -0.0064456)
(-5.17992e-20 1.15452e-16 -0.00443112)
(2.77104e-20 -6.14762e-17 -0.000871227)
(1.95875e-19 -2.60429e-16 0.00415043)
(6.31352e-19 -5.531e-16 0.0142243)
(3.88973e-19 -2.90616e-16 0.0304443)
(4.45478e-20 1.19937e-19 0.0560264)
(4.52212e-19 -3.1678e-16 0.0934884)
(-1.15553e-18 9.06083e-16 0.142498)
(1.48134e-19 8.28977e-17 0.205418)
(-5.42939e-20 -2.00185e-19 0.278703)
(1.57683e-18 3.49728e-16 0.366204)
(2.34986e-19 4.25029e-19 0.471474)
(-5.73429e-20 1.07106e-19 0.577303)
(3.20852e-18 2.21875e-16 0.641585)
(6.66881e-18 3.49944e-16 0.736348)
(-5.32594e-19 -4.87977e-19 0.836927)
(-3.3379e-19 -5.38149e-19 0.950443)
(-2.92834e-18 -1.16182e-16 1.08013)
(3.33871e-18 1.14109e-16 1.23528)
(-3.21326e-19 -6.5605e-19 1.41171)
(-3.05999e-19 -3.7185e-18 1.57813)
(-5.95501e-19 -5.33351e-17 1.70155)
(-4.6509e-19 2.03698e-18 1.77508)
(1.10178e-18 -3.31696e-18 1.8183)
(-7.04702e-19 -5.51209e-18 1.84689)
(1.09003e-19 -5.29139e-17 1.87143)
(1.01251e-18 -1.80441e-18 1.89895)
(-1.05661e-18 5.40754e-17 1.93439)
(2.99184e-20 -1.89174e-18 1.98139)
(-8.59742e-19 2.49928e-17 2.04287)
(1.42432e-19 -2.71752e-17 2.1212)
(5.99672e-19 2.05973e-18 2.21827)
(-1.09329e-19 3.78174e-21 2.33558)
(-1.03244e-20 1.63497e-18 2.47439)
(-9.79851e-20 1.97838e-18 2.63585)
(-2.01174e-19 -2.32813e-17 2.82108)
(3.61088e-19 2.0782e-17 3.03147)
(-2.1795e-19 -1.99087e-17 3.26903)
(-5.90711e-19 3.91396e-17 3.53711)
(7.49941e-19 -3.24852e-17 3.84146)
(2.96825e-19 1.14678e-17 4.19218)
(2.8225e-20 2.68711e-18 4.60705)
(1.97689e-19 -1.39429e-18 5.11696)
(9.07162e-19 3.89055e-19 5.77356)
(-5.42445e-19 2.38055e-18 6.65314)
(-1.34048e-19 -1.17187e-18 7.8226)
(8.14416e-20 2.63614e-19 9.13319)
(-7.04219e-19 1.40946e-19 9.42746)
(1.59177e-18 -6.24988e-19 4.46081)
(1.89629e-18 9.14615e-19 -12.8457)
(-9.22092e-19 1.9818e-19 -7.09913)
(4.45961e-20 -8.94837e-20 -1.75411)
(-1.24599e-19 5.26568e-20 1.14241)
(-1.51049e-18 4.14771e-19 2.81187)
(1.32685e-18 -4.18737e-19 3.85421)
(2.1725e-18 6.15109e-19 4.48401)
(-2.08347e-18 -4.68808e-19 4.87363)
(9.25182e-19 3.03292e-19 5.11451)
(-6.03348e-21 3.07188e-20 5.2594)
(-5.96259e-19 -1.67453e-18 5.34049)
(5.63762e-20 -1.17746e-20 5.3786)
(1.62916e-19 -9.1445e-19 5.38768)
(-2.09926e-20 6.16671e-21 5.37717)
(-2.86611e-19 -2.36012e-18 5.35363)
(2.94406e-21 -4.06664e-21 5.32157)
(-1.69474e-21 7.9568e-22 5.28417)
(-1.87957e-19 -2.6681e-18 5.24355)
(-9.2727e-19 -1.17903e-17 5.20114)
(2.12667e-18 2.76318e-17 5.15773)
(-1.35065e-18 -1.85512e-17 5.11367)
(-4.78485e-20 8.14708e-20 5.06884)
(8.13228e-19 1.6558e-17 5.0227)
(-9.21557e-19 -1.95277e-17 4.97427)
(-1.78447e-20 -1.99763e-18 4.92211)
(1.67086e-19 -1.50527e-19 4.86419)
(-7.01098e-19 -2.07643e-17 4.79788)
(5.96836e-19 2.01406e-17 4.71972)
(1.87192e-19 6.02756e-20 4.62521)
(1.14902e-18 2.0308e-17 4.508)
(-1.26429e-18 -2.04366e-17 4.36066)
(2.05338e-18 2.09235e-17 4.17001)
(-5.04501e-18 -3.99486e-17 3.87513)
(-1.01835e-17 -6.96424e-17 3.46125)
(-4.81807e-18 -2.72258e-17 2.91602)
(-5.99657e-18 2.22332e-17 2.24643)
(6.22287e-18 -2.01566e-17 1.49752)
(-4.50558e-17 -5.89453e-17 0.754182)
(4.51704e-18 -5.8544e-19 0.144479)
(3.98344e-17 6.3195e-18 -0.288749)
(-6.80622e-17 -3.65609e-17 -0.525862)
(4.39886e-17 1.0349e-17 -0.539539)
(-4.34022e-17 -2.95676e-17 -0.371159)
(4.13399e-16 2.1289e-16 -0.0804506)
(1.63543e-16 8.89418e-17 0.295125)
(5.70418e-17 2.76759e-17 0.729036)
(-9.94673e-20 1.78326e-19 1.18278)
(1.48444e-18 8.07408e-18 1.59538)
(4.95547e-16 1.97277e-16 1.99943)
(2.11828e-16 9.13867e-17 2.37542)
(2.98992e-17 8.07753e-18 2.67273)
(4.46751e-16 1.49114e-16 2.93758)
(-1.59509e-19 7.32461e-18 3.16346)
(-2.16101e-16 -6.42743e-17 3.37491)
(1.89531e-18 -1.35734e-18 3.59253)
(1.85035e-17 -7.51899e-18 3.86093)
(7.93054e-17 1.94208e-17 4.22348)
(3.69849e-17 1.36733e-17 4.74045)
(-5.10933e-17 -1.90168e-17 5.46173)
(9.38789e-18 4.20047e-18 6.39555)
(4.28893e-18 9.42905e-18 7.4322)
(-1.8376e-17 -3.47732e-17 8.33859)
(-1.31367e-18 -1.70181e-17 8.70617)
(9.83231e-18 -2.52942e-16 8.21821)
(-1.35123e-17 3.04312e-16 7.02622)
(1.84817e-17 -5.43101e-16 5.51065)
(2.03946e-18 -4.21201e-17 3.98102)
(-7.59521e-18 3.76125e-16 2.61026)
(-1.71435e-19 4.48571e-17 1.5516)
(-6.65327e-19 3.67852e-16 0.815841)
(-7.98595e-19 -4.58441e-16 0.368426)
(-1.28757e-18 -3.15281e-16 0.119796)
(-1.4611e-19 3.10154e-19 -0.00417734)
(-1.23254e-18 -3.49947e-16 -0.0574905)
(-9.41959e-19 -2.98698e-16 -0.0814464)
(-2.08876e-19 -4.14655e-17 -0.0869314)
(1.94244e-18 6.446e-16 -0.0829063)
(-8.63861e-19 -3.49851e-16 -0.0740306)
(9.82107e-20 3.73835e-17 -0.064207)
(-6.25658e-19 -2.86752e-16 -0.0551841)
(5.82482e-19 2.73453e-16 -0.0474796)
(-6.41999e-19 -2.60113e-16 -0.0411784)
(3.36362e-19 2.45999e-16 -0.035898)
(-2.70235e-19 -2.32927e-16 -0.0317941)
(1.21098e-19 -1.89861e-19 -0.0282666)
(-1.36062e-19 -6.42713e-18 -0.0254967)
(-3.93011e-21 -6.20745e-18 -0.0229713)
(8.05712e-20 5.94689e-17 -0.0208049)
(1.07454e-20 -4.47417e-21 -0.01872)
(8.44529e-20 5.92154e-17 -0.0164119)
(1.61241e-19 9.82401e-17 -0.0135039)
(-7.31608e-20 -2.58521e-17 -0.00957742)
(1.99993e-19 2.44396e-16 -0.0037271)
(-4.19818e-19 2.15543e-16 0.00486025)
(2.20293e-19 -2.43207e-16 0.0166795)
(-1.81331e-19 -8.33669e-19 0.0377134)
(-4.53382e-19 2.51911e-16 0.0698614)
(-7.98665e-19 2.82733e-16 0.120115)
(2.96822e-19 1.84989e-17 0.188479)
(-2.03286e-18 2.98368e-16 0.27542)
(2.11164e-18 -6.19652e-16 0.380472)
(1.09777e-20 -1.54151e-18 0.501625)
(7.93642e-19 8.57015e-19 0.635753)
(-2.04496e-22 1.34986e-18 0.775071)
(-4.71643e-18 -3.24282e-16 0.911646)
(8.03523e-19 -2.03718e-17 1.03655)
(3.22482e-19 9.78546e-18 1.14236)
(1.46933e-18 1.92464e-17 1.22358)
(-2.14007e-17 -2.89269e-16 1.27602)
(-2.82764e-17 -2.96511e-16 1.30297)
(9.41368e-19 -5.76878e-19 1.31264)
(0 -0 1.31463)
(-7.94746e-19 -5.21849e-19 1.33193)
(1.65275e-19 2.05066e-19 1.38268)
(1.80942e-17 1.12869e-16 1.44929)
(1.675e-17 1.00302e-16 1.60066)
(-2.22654e-19 -2.53365e-19 1.84431)
(8.06344e-19 6.07561e-18 2.19384)
(4.05992e-19 -7.51712e-20 2.62638)
(7.33396e-20 -1.91518e-20 3.06831)
(-8.22033e-20 3.31412e-20 3.3383)
(1.13543e-18 -5.57121e-19 3.27523)
(-1.42675e-19 8.60771e-18 2.86318)
(1.45986e-18 -3.0237e-16 2.2505)
(1.29745e-19 -8.82147e-18 1.59307)
(-1.14546e-18 3.42496e-16 1.01045)
(2.92777e-19 -3.69118e-16 0.571116)
(-4.69419e-20 3.71346e-16 0.279627)
(-2.78713e-19 -4.18432e-19 0.108611)
(-5.40604e-19 -3.43972e-16 0.0165777)
(6.61532e-19 2.96699e-16 -0.0235338)
(-7.40428e-19 -2.49732e-16 -0.0422752)
(7.34187e-19 3.25852e-16 -0.0478041)
(-2.84787e-19 -4.01124e-17 -0.0466742)
(-1.49248e-19 -3.83281e-17 -0.0419833)
(2.81147e-19 3.74356e-17 -0.0364022)
(3.55861e-19 2.15272e-16 -0.0310481)
(-1.30712e-19 6.88716e-17 -0.0263566)
(6.84649e-20 2.64142e-16 -0.0224512)
(-2.48069e-20 6.27514e-17 -0.0192224)
(-1.83143e-19 -2.99466e-16 -0.0166385)
(-2.7513e-19 -4.5536e-16 -0.0145925)
(-1.87048e-19 -2.69018e-16 -0.0129247)
(2.18234e-20 5.13408e-17 -0.0116628)
(1.60272e-20 4.88849e-17 -0.0106365)
(-3.68799e-22 -4.73082e-17 -0.00982893)
(7.9858e-21 2.33051e-17 -0.00912542)
(-8.7146e-21 5.58853e-21 -0.00838429)
(1.91055e-20 1.94656e-16 -0.00740522)
(-1.87042e-20 -3.74972e-21 -0.0056681)
(-7.65412e-20 2.7115e-16 -0.00266636)
(-2.61997e-20 1.73371e-16 0.00154775)
(-7.14326e-21 -5.84935e-21 0.00894028)
(-1.55716e-19 1.948e-16 0.0209951)
(-3.4468e-19 3.44155e-16 0.0410161)
(2.59958e-19 -2.16152e-16 0.0710074)
(-2.81161e-19 2.25229e-16 0.110633)
(-3.68382e-19 3.92176e-16 0.160343)
(9.08446e-20 -4.06341e-16 0.21897)
(-1.2828e-19 -3.34797e-16 0.28581)
(8.83013e-19 4.18002e-16 0.355669)
(-2.1564e-18 -4.28108e-16 0.426594)
(2.05627e-18 3.41412e-16 0.496845)
(5.999e-19 8.597e-17 0.547171)
(-4.11256e-18 -3.6448e-16 0.581736)
(3.21811e-19 1.01049e-18 0.613189)
(3.7884e-18 2.52458e-16 0.644919)
(1.27255e-18 5.9844e-17 0.687454)
(1.74867e-18 1.14875e-16 0.747132)
(-1.17307e-18 -1.09886e-16 0.833668)
(8.63487e-19 5.31599e-17 0.950609)
(-8.51358e-19 -5.2482e-17 1.08523)
(-8.41859e-19 2.85218e-19 1.21345)
(3.16156e-19 -3.63099e-18 1.31833)
(-1.30557e-19 -4.76137e-17 1.40072)
(2.3508e-19 5.55666e-17 1.46591)
(-1.22453e-18 4.98102e-17 1.51969)
(-6.13694e-19 -4.45661e-17 1.56717)
(1.31199e-18 2.51127e-17 1.61267)
(2.5586e-19 -2.5216e-17 1.65989)
(-2.44092e-20 8.84922e-19 1.71212)
(-9.39681e-19 2.64167e-17 1.77234)
(1.19888e-18 -2.36087e-17 1.84333)
(-1.56853e-18 2.54331e-17 1.92772)
(2.43108e-19 -2.34015e-17 2.02798)
(1.04141e-18 -2.14468e-18 2.14652)
(-1.24647e-18 2.6139e-18 2.28577)
(6.01137e-19 -8.69687e-20 2.44835)
(-1.91461e-18 1.01486e-19 2.63744)
(3.20406e-18 2.23635e-18 2.85746)
(-2.21062e-18 -1.3754e-19 3.11537)
(2.88016e-19 -3.06656e-19 3.42275)
(6.34585e-19 -3.85384e-18 3.79916)
(-1.29564e-18 2.93656e-19 4.2764)
(1.21108e-18 -8.11934e-19 4.89994)
(2.09332e-18 -4.50242e-18 5.71169)
(-1.43697e-18 3.09773e-18 6.66113)
(5.41564e-19 -4.16607e-19 7.31096)
(-3.66791e-19 2.96915e-20 6.13243)
(-5.21916e-19 4.16337e-19 -0.356267)
(-1.85188e-18 -4.5012e-19 -14.2696)
(7.01349e-19 -5.43692e-20 -5.99344)
(-1.65554e-18 5.01531e-19 -2.6733)
(-1.7932e-18 3.36804e-19 -0.500229)
(3.35945e-18 -8.86829e-19 0.850216)
(-5.99268e-18 1.59313e-18 1.754)
(2.75933e-18 -9.15617e-19 2.40297)
(6.36111e-20 9.70958e-20 2.85887)
(-9.8032e-19 -3.6568e-19 3.19202)
(2.43611e-22 4.76093e-20 3.44071)
(-4.01036e-18 -2.40643e-18 3.62873)
(3.15266e-18 2.05839e-18 3.77188)
(-5.90442e-19 -1.0707e-18 3.88127)
(-2.17693e-18 -3.98928e-18 3.96484)
(1.65787e-18 3.14209e-18 4.02839)
(-5.14969e-19 -8.53305e-19 4.07619)