/*--------------------------------*- C++ -*----------------------------------*\
| =========                 |                                                 |
| \\      /  F ield         | OpenFOAM: The Open Source CFD Toolbox           |
|  \\    /   O peration     | Version:  2506                                  |
|   \\  /    A nd           | Website:  www.openfoam.com                      |
|    \\/     M anipulation  |                                                 |
\*---------------------------------------------------------------------------*/
FoamFile
{
    version     2.0;
    format      ascii;
    arch        "LSB;label=32;scalar=64";
    class       volVectorField;
    location    "1.2";
    object      U;
}
// * * * * * * * * * * * * * * * * * * * * * * * * * * * * * * * * * * * * * //

dimensions      [0 1 -1 0 0 0 0];

internalField   nonuniform List<vector> 
4000
(
(0.0111819 0.000981927 0)
(0.00953959 0.00131188 2.82347e-21)
(0.00740221 0.000877065 -2.95888e-21)
(0.00552415 0.00048508 -6.16966e-21)
(0.00428094 0.000264978 1.26751e-20)
(0.00346284 0.000143227 -6.45716e-21)
(0.0028964 7.51192e-05 0)
(0.00249976 3.91386e-05 0)
(0.00221882 2.01248e-05 0)
(0.00201583 8.87835e-06 -1.30967e-20)
(0.00186611 1.68028e-06 1.31432e-20)
(0.00175332 -3.11731e-06 -2.60956e-20)
(0.0016663 -6.57711e-06 2.61482e-20)
(0.00159737 -9.18374e-06 0)
(0.00154091 -1.11372e-05 0)
(0.00149267 -1.26399e-05 0)
(0.00144949 -1.38531e-05 -2.56009e-20)
(0.00140904 -1.48643e-05 2.56218e-20)
(0.00136962 -1.5743e-05 0)
(0.00132997 -1.65516e-05 0)
(0.0012892 -1.73303e-05 0)
(0.00124664 -1.81003e-05 0)
(0.00120176 -1.88754e-05 0)
(0.00115409 -1.96638e-05 -4.95739e-20)
(0.00110319 -2.04696e-05 9.89659e-20)
(0.0010486 -2.12951e-05 -4.93952e-20)
(0.000989885 -2.21434e-05 0)
(0.000926557 -2.30181e-05 0)
(0.000858136 -2.39243e-05 0)
(0.000784084 -2.4852e-05 0)
(0.000703771 -2.56816e-05 4.80466e-20)
(0.000616948 -2.60549e-05 -4.81271e-20)
(0.000525802 -2.722e-05 0)
(0.000401104 -2.27278e-05 -4.15645e-20)
(0.000271414 -4.27218e-06 -4.71521e-20)
(0.000242265 3.66692e-05 2.37181e-19)
(0.000324669 0.00011326 1.89262e-19)
(0.000457461 0.00022061 -4.75163e-20)
(0.000621209 0.000359978 1.89639e-19)
(0.000817336 0.000539694 4.26286e-19)
(0.00110504 0.000771604 -4.73317e-20)
(0.0014808 0.00103467 -3.76069e-19)
(0.00185729 0.00127192 3.74821e-19)
(0.00219554 0.00146356 0)
(0.00250095 0.00161378 0)
(0.00277682 0.00172792 2.33616e-20)
(0.00304432 0.00181309 3.50721e-19)
(0.00328853 0.00185993 3.51173e-19)
(0.00350865 0.0018724 2.11e-19)
(0.00371766 0.00185096 1.87864e-19)
(0.00389362 0.00178927 -1.88188e-19)
(0.00404562 0.00169216 0)
(0.00414737 0.00155002 2.35835e-20)
(0.0042037 0.00137101 -4.01633e-19)
(0.00419542 0.00115234 0)
(0.00411188 0.000909771 9.44418e-20)
(0.00396346 0.00065178 2.34665e-20)
(0.00371955 0.000390236 -7.38485e-24)
(0.00342816 0.00014725 1.82565e-22)
(0.00305452 -7.34592e-05 1.19093e-20)
(0.0026347 -0.000250824 -2.31444e-20)
(0.00220739 -0.000377519 0)
(0.00176951 -0.000453518 0)
(0.00135755 -0.000483584 -4.50089e-20)
(0.000972176 -0.000472075 -3.13403e-19)
(0.000627627 -0.000432134 -4.3838e-20)
(0.000331 -0.000368759 4.42588e-20)
(7.29852e-05 -0.000294132 -4.24241e-20)
(-0.00013574 -0.000213211 -1.25186e-19)
(-0.000309659 -0.000133917 2.86231e-19)
(-0.000447517 -6.19115e-05 4.02123e-20)
(-0.000556411 4.12318e-06 -1.2626e-21)
(-0.000644688 6.15997e-05 0)
(-0.000707528 0.000110767 0)
(-0.000754113 0.000151602 0)
(-0.000786018 0.000184019 1.77711e-20)
(-0.000803893 0.000208866 2.63122e-19)
(-0.000811861 0.000227148 0)
(-0.000812817 0.000239591 -1.24433e-21)
(-0.000807076 0.000247401 -1.64855e-20)
(-0.000797214 0.000251676 2.61007e-19)
(-0.000785289 0.000253365 -2.33349e-19)
(-0.000771847 0.000253051 -9.24594e-23)
(-0.000758009 0.00025113 -2.51726e-19)
(-0.000744853 0.000247968 -9.59228e-22)
(-0.000731822 0.000243852 2.37864e-19)
(-0.00071963 0.000238782 2.37718e-19)
(-0.000709176 0.000232619 -2.38307e-19)
(-0.000698186 0.000225369 3.58443e-21)
(-0.000687512 0.000216863 2.24685e-19)
(-0.000678169 0.000206814 0)
(-0.000666992 0.000195325 2.24238e-19)
(-0.000655574 0.000182149 2.07272e-19)
(-0.000644197 0.000166987 -2.10732e-19)
(-0.000629206 0.000150619 1.16745e-19)
(-0.000614966 0.000132451 -1.27875e-20)
(-0.000596267 0.00011376 -1.00605e-19)
(-0.000577465 9.37502e-05 -1.23241e-20)
(-0.000554287 7.3931e-05 -8.54798e-20)
(-0.000530822 5.32238e-05 -6.02107e-20)
(-0.00050419 3.4934e-05 2.3818e-20)
(-0.000476068 1.89518e-05 -5.90057e-20)
(-0.000443994 7.2344e-06 5.86867e-21)
(-0.000407801 1.56673e-07 5.83395e-21)
(-0.000365408 -3.13385e-06 2.31786e-20)
(-0.000318405 -9.54796e-07 0)
(-0.00026478 6.52511e-06 0)
(-0.000204849 2.15084e-05 1.82244e-19)
(-0.000137396 4.42224e-05 5.80151e-21)
(-6.19082e-05 7.59499e-05 -9.60281e-20)
(2.25032e-05 0.000117072 -9.31377e-20)
(0.000114848 0.000168131 -2.90461e-21)
(0.000217514 0.000229061 9.6138e-20)
(0.000325588 0.000299581 1.85497e-22)
(0.000443816 0.000379641 0)
(0.00056885 0.000468249 -1.85527e-19)
(0.000697355 0.000563397 5.76534e-21)
(0.000832035 0.000664956 1.72762e-19)
(0.000969063 0.000770373 5.77391e-21)
(0.00110566 0.000877676 1.8367e-19)
(0.00124372 0.000986187 3.11476e-22)
(0.00138076 0.00109322 -1.82699e-19)
(0.0015131 0.0011964 -1.13622e-20)
(0.0016426 0.00129527 2.04606e-19)
(0.0017687 0.00138813 -1.13725e-20)
(0.00188965 0.00147328 -1.81239e-19)
(0.00200631 0.00155006 -2.25805e-20)
(0.0021182 0.00161735 2.26496e-20)
(0.00222549 0.00167506 -1.80702e-19)
(0.00233365 0.00172392 1.57908e-19)
(0.00243882 0.00176103 2.26141e-20)
(0.00253869 0.00178688 3.38448e-19)
(0.00264606 0.00180424 2.26114e-20)
(0.00275394 0.00180798 1.80616e-19)
(0.00285659 0.00179867 -2.03872e-22)
(0.00297462 0.00177955 0)
(0.00308634 0.00174081 0)
(0.00319474 0.00168598 1.34872e-22)
(0.00330294 0.0016109 0)
(0.00339729 0.00151325 2.24566e-20)
(0.00347605 0.00139106 6.72224e-20)
(0.00352534 0.00124198 2.23233e-20)
(0.00352896 0.0010696 4.44622e-20)
(0.00348982 0.000876721 2.23277e-20)
(0.00337279 0.000668298 6.58682e-20)
(0.00320374 0.00045811 -2.1853e-20)
(0.00294798 0.000251682 0)
(0.00261897 7.23474e-05 0)
(0.00225059 -7.43567e-05 0)
(0.00183236 -0.000175559 2.0081e-20)
(0.00141095 -0.000232417 -2.02026e-20)
(0.000982459 -0.000240243 -7.75102e-20)
(0.00057647 -0.000210135 -7.52633e-20)
(0.000205981 -0.000144414 0)
(-0.000126196 -5.93193e-05 7.00881e-20)
(-0.000405577 4.11937e-05 0)
(-0.000638699 0.000142313 1.5394e-20)
(-0.000813705 0.000239098 -7.64194e-20)
(-0.000935563 0.0003173 1.42403e-20)
(-0.00098782 0.000355465 -2.37115e-19)
(-0.00102005 0.000314825 5.32025e-20)
(-0.000949556 0.000249972 5.13258e-20)
(-0.000858397 0.000176126 0)
(-0.000730855 0.000108589 0)
(-0.000564307 5.16796e-05 0)
(-0.000355082 1.77238e-05 0)
(-8.53372e-05 -4.86192e-08 0)
(0.000217125 7.89942e-07 -9.99127e-21)
(0.00047794 7.26008e-06 3.28194e-22)
(0.00067779 1.36562e-05 3.12216e-22)
(0.000824811 1.97307e-05 9.29396e-21)
(0.000927563 2.49406e-05 0)
(0.000995201 2.879e-05 -8.36606e-21)
(0.00103718 3.11846e-05 8.34996e-21)
(0.00106226 3.235e-05 -2.46665e-22)
(0.00107782 3.26274e-05 0)
(0.00108958 3.22313e-05 0)
(0.00110153 3.12404e-05 6.82468e-21)
(0.00111599 2.97027e-05 -6.81344e-21)
(0.00113383 2.77575e-05 0)
(0.00115482 2.56126e-05 0)
(0.00117794 2.34514e-05 2.58875e-21)
(0.00120165 2.14139e-05 -1.57382e-22)
(0.0012242 1.95795e-05 -2.59918e-21)
(0.00124392 1.79317e-05 0)
(0.0012594 1.64364e-05 0)
(0.00126952 1.50658e-05 0)
(0.00127369 1.39986e-05 0)
(0.00127208 1.34781e-05 -1.08069e-22)
(0.00126526 1.32597e-05 0)
(0.00125399 1.33793e-05 0)
(0.0012392 1.33017e-05 0)
(0.00122163 1.29262e-05 -5.26053e-22)
(0.00120229 1.22993e-05 5.2549e-22)
(0.00118213 1.14627e-05 0)
(0.00116195 1.04678e-05 -4.22411e-23)
(0.0011424 9.36834e-06 -1.13239e-22)
(0.00112365 8.20749e-06 7.52584e-23)
(0.0011042 7.47161e-06 3.78178e-23)
(0.00108246 1.07837e-05 0)
(0.0136224 0.00172549 0)
(0.0141904 0.00306328 0)
(0.0137246 0.00275075 0)
(0.0127318 0.00223831 -5.74017e-21)
(0.0115438 0.00168959 1.17795e-20)
(0.0104509 0.00122402 -6.03867e-21)
(0.00951735 0.000868457 0)
(0.00875225 0.000617105 -1.24564e-20)
(0.00814124 0.000444585 1.26461e-20)
(0.00765996 0.000324883 -1.26817e-20)
(0.00728278 0.000241677 1.28011e-20)
(0.00698584 0.000184064 2.55399e-20)
(0.00674938 0.000143883 -2.56879e-20)
(0.0065581 0.00011602 -2.55467e-20)
(0.00639977 9.736e-05 1.31682e-22)
(0.00626455 8.54969e-05 5.10453e-20)
(0.00614483 7.8575e-05 -2.55236e-20)
(0.00603478 7.53086e-05 0)
(0.0059299 7.47315e-05 0)
(0.00582677 7.60941e-05 0)
(0.00572281 7.88902e-05 0)
(0.00561596 8.28269e-05 0)
(0.0055045 8.77514e-05 0)
(0.00538684 9.36063e-05 0)
(0.00526145 0.000100402 0)
(0.00512668 0.000108193 0)
(0.00498078 0.000117059 0)
(0.0048218 0.000127099 0)
(0.00464751 0.000138444 0)
(0.00445531 0.000151302 0)
(0.0042421 0.000166106 4.87329e-20)
(0.00400395 0.000183983 -2.80617e-22)
(0.00374315 0.000206461 -9.756e-20)
(0.00340694 0.000237391 4.28184e-20)
(0.00305463 0.000287319 4.8779e-20)
(0.00289413 0.000391082 -1.47528e-19)
(0.00297226 0.000594941 1.96355e-19)
(0.00319394 0.000898963 4.90475e-20)
(0.0035145 0.00129062 -4.92249e-19)
(0.00393473 0.00176258 -1.47689e-19)
(0.00452547 0.00231248 0)
(0.00525313 0.00289377 -4.86642e-20)
(0.00599426 0.00342708 -2.90614e-19)
(0.0066992 0.00387666 -4.824e-20)
(0.00736773 0.00423762 -3.8445e-19)
(0.00800382 0.00451524 3.8347e-19)
(0.00862697 0.00471815 4.13797e-23)
(0.00921684 0.00483466 0)
(0.00977479 0.0048689 1.90943e-19)
(0.010307 0.00481938 0)
(0.0107878 0.0046798 1.55829e-22)
(0.0112197 0.00445677 0)
(0.0115628 0.00413471 1.90889e-19)
(0.0118198 0.00372869 1.91224e-19)
(0.0119551 0.00323726 0)
(0.0119548 0.00268364 -1.87522e-22)
(0.011814 0.00208594 -9.51242e-20)
(0.0114882 0.00146381 -2.3739e-20)
(0.0110342 0.000856932 -4.72893e-20)
(0.0103926 0.000280901 1.19702e-20)
(0.00962421 -0.000227242 0)
(0.00876757 -0.000646835 -9.50645e-20)
(0.00784325 -0.000965235 4.78788e-20)
(0.0069149 -0.00118245 9.51008e-20)
(0.00599236 -0.00129975 2.84753e-19)
(0.00512685 -0.00133742 4.76646e-20)
(0.00432708 -0.00130297 -2.34694e-19)
(0.00360932 -0.00122202 4.71229e-20)
(0.00298218 -0.00110643 0)
(0.00243582 -0.000973719 -4.55243e-20)
(0.00197457 -0.000839505 4.56387e-20)
(0.00158703 -0.000706414 -2.56293e-21)
(0.00126167 -0.000584788 0)
(0.00100042 -0.000476377 3.47176e-19)
(0.000787419 -0.000381774 3.41169e-19)
(0.000617024 -0.0003039 -2.07086e-20)
(0.000486439 -0.000241402 2.06151e-20)
(0.000385843 -0.000191896 -1.99315e-20)
(0.000309071 -0.000154598 3.13594e-19)
(0.000253781 -0.000127429 -2.90165e-19)
(0.000214111 -0.000107396 3.03308e-19)
(0.000185069 -9.23553e-05 3.04017e-19)
(0.00016445 -8.02917e-05 -1.81347e-20)
(0.000149513 -6.99444e-05 2.94076e-19)
(0.000138304 -6.11063e-05 -2.75193e-19)
(0.000130175 -5.30914e-05 2.71519e-19)
(0.000122721 -4.55311e-05 -2.68165e-19)
(0.000115803 -3.96322e-05 2.61086e-19)
(0.000111762 -3.5147e-05 7.988e-21)
(0.000107973 -3.17072e-05 -7.90331e-21)
(0.000105187 -3.09103e-05 0)
(0.000106792 -3.21175e-05 0)
(0.000109612 -3.48023e-05 -1.18683e-19)
(0.000116461 -4.03347e-05 1.30185e-19)
(0.000129537 -4.75617e-05 -1.1364e-19)
(0.000146066 -5.76816e-05 -2.78697e-20)
(0.000170737 -6.86142e-05 -2.41183e-22)
(0.000200606 -8.10623e-05 9.55752e-23)
(0.00023944 -9.24552e-05 2.37211e-19)
(0.000287066 -0.000103675 3.876e-20)
(0.000347692 -0.000110365 -5.10711e-20)
(0.000419359 -0.00011166 5.03269e-20)
(0.000506157 -0.000104494 0)
(0.000605225 -8.70184e-05 6.13389e-21)
(0.000721502 -5.87904e-05 -6.12554e-21)
(0.000853724 -1.66056e-05 0)
(0.00100505 4.05665e-05 0)
(0.00117546 0.000116225 -9.62908e-20)
(0.0013645 0.000211778 9.58099e-20)
(0.00157266 0.000329338 -9.85272e-20)
(0.00179926 0.000470061 1.90941e-19)
(0.00204224 0.000634625 2.14739e-23)
(0.0023028 0.000823005 2.97999e-21)
(0.00257405 0.00103413 9.49507e-20)
(0.00286002 0.00126698 0)
(0.00315557 0.00151909 0)
(0.00345563 0.0017867 0)
(0.00376232 0.00206715 -1.93883e-19)
(0.00407023 0.00235556 -1.81101e-19)
(0.00437596 0.0026473 0)
(0.00468121 0.00293873 2.10118e-19)
(0.00498257 0.00322447 -3.49661e-20)
(0.00527639 0.00349952 2.32713e-20)
(0.00556513 0.00376087 -1.16589e-20)
(0.00584833 0.00400444 2.32116e-20)
(0.00612494 0.0042267 -1.86121e-19)
(0.00639656 0.00442518 1.62831e-19)
(0.00666358 0.00459743 -2.09629e-19)
(0.0069281 0.00474232 8.71923e-23)
(0.00719674 0.00485973 -1.63711e-19)
(0.00746514 0.00494558 0)
(0.00773363 0.00500005 -1.87595e-19)
(0.00801703 0.00502494 2.33981e-20)
(0.00830577 0.0050134 1.63931e-19)
(0.00859749 0.00496578 -1.87935e-19)
(0.00891175 0.00488449 2.33959e-20)
(0.00921989 0.00475485 -2.34988e-20)
(0.00952783 0.00458128 2.36841e-20)
(0.00982973 0.00435494 -2.34267e-20)
(0.0101086 0.00407426 2.32009e-20)
(0.010353 0.00373559 -1.16327e-19)
(0.0105405 0.00333784 1.15117e-19)
(0.0106433 0.0028859 -1.15126e-19)
(0.0106541 0.00238925 0)
(0.0105194 0.00185725 -2.25373e-20)
(0.0102692 0.00131767 2.22308e-20)
(0.00984055 0.000783719 1.09618e-20)
(0.00925807 0.000292837 0)
(0.00855171 -0.00013539 2.13607e-20)
(0.00771398 -0.000475803 -4.21058e-20)
(0.00681967 -0.000721828 0)
(0.00585924 -0.000859679 8.15202e-20)
(0.00490578 -0.000905446 1.96793e-20)
(0.00397405 -0.000858759 -1.99351e-20)
(0.00310495 -0.000750755 0)
(0.00230962 -0.000589121 -7.48061e-20)
(0.00160097 -0.000405541 7.22996e-20)
(0.000994165 -0.000213021 -7.06544e-20)
(0.000490562 -4.24901e-05 0)
(8.8045e-05 8.74325e-05 1.30675e-19)
(-0.000126617 3.10446e-05 7.82461e-20)
(-2.82195e-05 -0.000101477 -1.34127e-19)
(0.000180335 -0.000241736 1.38424e-20)
(0.000489955 -0.000366642 -1.35845e-20)
(0.000909943 -0.00046404 -1.237e-20)
(0.00143295 -0.000507929 -1.14903e-20)
(0.00207282 -0.000505302 1.00846e-20)
(0.00274689 -0.000446442 6.71117e-22)
(0.00332764 -0.000358049 0)
(0.00378746 -0.00026933 -6.14628e-22)
(0.00414201 -0.000191986 0)
(0.00440849 -0.000129459 5.67861e-22)
(0.00460465 -8.26221e-05 8.6018e-21)
(0.0047489 -5.05997e-05 -9.09293e-21)
(0.00485849 -3.11888e-05 7.58499e-22)
(0.00494776 -2.15708e-05 -7.61228e-21)
(0.0050275 -1.89211e-05 1.44017e-20)
(0.00510498 -2.07075e-05 -1.41994e-20)
(0.00518426 -2.4706e-05 7.34192e-21)
(0.00526658 -2.90083e-05 0)
(0.00535093 -3.21214e-05 -3.34227e-21)
(0.00543472 -3.303e-05 3.13124e-21)
(0.00551442 -3.1214e-05 3.37465e-22)
(0.00558631 -2.66422e-05 2.45652e-21)
(0.005647 -1.96945e-05 -2.15321e-21)
(0.00569385 -1.10329e-05 -2.12978e-21)
(0.00572529 -1.44612e-06 2.38021e-21)
(0.005741 8.41881e-06 -2.04882e-21)
(0.00574152 1.81679e-05 3.57643e-21)
(0.00572816 2.69759e-05 -2.2103e-21)
(0.00570322 3.45603e-05 7.50954e-22)
(0.0056692 4.04792e-05 1.59128e-22)
(0.00562904 4.43924e-05 0)
(0.00558548 4.64341e-05 -3.28855e-22)
(0.00554092 4.6881e-05 4.49993e-22)
(0.00549733 4.61168e-05 -2.37403e-23)
(0.00545618 4.46159e-05 1.50285e-22)
(0.00541819 4.30145e-05 0)
(0.00538269 4.21986e-05 0)
(0.00534628 4.71351e-05 1.03911e-23)
(0.0135633 0.0010292 0)
(0.0142018 0.0022351 2.79433e-21)
(0.0147523 0.00261243 -2.75412e-21)
(0.0150422 0.0025584 -5.47852e-21)
(0.0148511 0.00233702 5.51216e-21)
(0.0144586 0.00200192 0)
(0.0139315 0.00164013 0)
(0.0133655 0.00131431 0)
(0.0128247 0.00103968 1.14413e-20)
(0.0123365 0.000815416 -2.31163e-20)
(0.0119107 0.000639903 -1.15465e-20)
(0.0115454 0.000506212 2.34135e-20)
(0.0112345 0.000405383 2.3362e-20)
(0.0109705 0.000330841 -2.351e-20)
(0.0107449 0.00027759 0)
(0.0105489 0.000240934 2.33778e-20)
(0.0103749 0.000217025 -4.68094e-20)
(0.0102165 0.00020302 2.342e-20)
(0.010068 0.000196601 0)
(0.00992477 0.000195882 0)
(0.00978305 0.000199525 0)
(0.00963978 0.000206695 0)
(0.00949228 0.000216927 0)
(0.00933814 0.00023003 4.58272e-20)
(0.009175 0.000246026 -4.59519e-20)
(0.00900043 0.000265091 0)
(0.00881182 0.000287512 0)
(0.00860627 0.000313679 0)
(0.00838046 0.000344103 0)
(0.00813056 0.00037949 0)
(0.00785212 0.000420923 4.51044e-20)
(0.00753907 0.000470322 -4.53275e-20)
(0.0071937 0.000531185 0)
(0.00676532 0.000604433 -2.82424e-21)
(0.00630752 0.000708314 0)
(0.00603409 0.000891602 9.19177e-20)
(0.00602176 0.00119698 -1.83924e-19)
(0.00620605 0.00162836 0)
(0.00654635 0.00216949 3.67244e-19)
(0.00703872 0.00279863 4.57691e-24)
(0.00773259 0.00349367 4.53996e-20)
(0.00857785 0.00419775 -4.51682e-20)
(0.00946157 0.00484544 3.58597e-19)
(0.0103371 0.00540568 0)
(0.0111959 0.0058681 3.99619e-19)
(0.0120363 0.00623201 -3.76065e-19)
(0.0128676 0.00650236 -3.74738e-19)
(0.0136696 0.00666536 0)
(0.0144435 0.00672178 -1.75364e-19)
(0.0151885 0.00666827 0)
(0.0158831 0.00650027 3.49696e-19)
(0.016523 0.00622353 0)
(0.0170723 0.00582413 -1.53051e-19)
(0.0175304 0.00531723 -1.96106e-19)
(0.0178608 0.0047019 -1.73474e-19)
(0.0180468 0.0039972 -8.65939e-20)
(0.0180752 0.0032222 -8.58229e-20)
(0.0179015 0.00239584 -4.28407e-20)
(0.0175637 0.00155965 2.13904e-20)
(0.0169993 0.000729769 3.19408e-20)
(0.0162565 -4.97852e-05 0)
(0.0153545 -0.000751306 8.48231e-20)
(0.0143145 -0.00135147 -8.48362e-20)
(0.0131998 -0.00183651 0)
(0.0120239 -0.00219905 -3.39998e-19)
(0.0108579 -0.00244927 0)
(0.00971635 -0.0025905 -4.22728e-20)
(0.00864185 -0.0026469 4.28263e-20)
(0.0076505 -0.00263075 0)
(0.00674994 -0.0025631 -4.19176e-20)
(0.0059546 -0.00246316 4.22708e-20)
(0.00525342 -0.00233971 4.57494e-19)
(0.00464346 -0.00221126 -2.89115e-19)
(0.00412372 -0.00208344 2.10667e-21)
(0.00367856 -0.00196021 -3.20593e-19)
(0.0033019 -0.00184778 -1.96821e-20)
(0.00298822 -0.0017464 3.33039e-19)
(0.00272519 -0.00165462 0)
(0.00250511 -0.00157286 3.03034e-19)
(0.00232336 -0.00149944 5.74815e-19)
(0.00217214 -0.00143132 -5.55025e-19)
(0.00204492 -0.00136665 -2.95687e-19)
(0.00193729 -0.00130331 2.89935e-19)
(0.00184406 -0.00123986 -2.82733e-19)
(0.00176206 -0.0011764 0)
(0.00168915 -0.00111235 -2.63659e-19)
(0.00162164 -0.00104766 -3.45017e-21)
(0.00155971 -0.000984531 -5.15821e-19)
(0.00150456 -0.000922736 -2.34421e-19)
(0.00145305 -0.000862249 -2.52883e-19)
(0.00140715 -0.000805312 0)
(0.00136955 -0.000751319 0)
(0.0013375 -0.00069977 1.15118e-19)
(0.00131364 -0.000652099 0)
(0.00129856 -0.000607115 1.38054e-20)
(0.00129293 -0.000566438 -1.36337e-20)
(0.00129983 -0.000528255 1.06478e-19)
(0.00131919 -0.000493005 -1.04679e-19)
(0.00135356 -0.000458175 -8.98317e-20)
(0.00140526 -0.000423592 -1.26578e-20)
(0.00147746 -0.000386132 4.96265e-20)
(0.00157037 -0.000344199 -2.44434e-20)
(0.00168844 -0.000294583 1.80794e-20)
(0.00182989 -0.000233796 -5.98253e-21)
(0.00200012 -0.000158695 0)
(0.00219712 -6.47239e-05 -4.67643e-20)
(0.00242345 5.07876e-05 0)
(0.00267828 0.000191656 -9.21606e-20)
(0.00296007 0.000360374 -1.69111e-22)
(0.00326815 0.00055922 8.84311e-20)
(0.00360049 0.000789621 -9.07823e-20)
(0.00395388 0.00105212 2.82978e-21)
(0.00432797 0.00134624 0)
(0.00471544 0.00167044 -8.92172e-20)
(0.00511854 0.00202252 8.88175e-20)
(0.00553168 0.00239894 0)
(0.00594983 0.00279526 -5.48989e-21)
(0.00637378 0.00320683 1.80894e-19)
(0.00679855 0.00362767 1.64278e-19)
(0.00722104 0.00405185 -1.63337e-19)
(0.00764229 0.00447362 1.73843e-19)
(0.00805938 0.00488632 1.08253e-20)
(0.00846973 0.00528374 -1.62512e-19)
(0.00887551 0.00566087 -2.17042e-20)
(0.00927664 0.00601212 -1.94609e-19)
(0.00967303 0.00633284 3.89508e-19)
(0.0100665 0.0066191 -1.94953e-19)
(0.0104584 0.00686729 1.51718e-19)
(0.0108512 0.00707504 -1.29749e-19)
(0.0112507 0.00724072 -2.16385e-19)
(0.0116541 0.00736012 -1.29759e-19)
(0.0120627 0.00743239 -2.1705e-20)
(0.0124886 0.00745697 -1.51253e-19)
(0.0129238 0.00742741 -1.94985e-19)
(0.0133679 0.00734399 2.15443e-20)
(0.0138323 0.00720708 -2.15996e-20)
(0.0142926 0.00700278 -6.43173e-20)
(0.0147534 0.00673447 -2.10057e-20)
(0.015204 0.00639373 2.12689e-20)
(0.0156283 0.00597984 -2.13301e-20)
(0.0160114 0.00549067 8.4191e-20)
(0.0163294 0.00492686 -2.16142e-20)
(0.0165544 0.00429258 2.44436e-22)
(0.0166731 0.00360153 2.07681e-20)
(0.0166357 0.00286261 8.13748e-20)
(0.0164606 0.00210584 0)
(0.0160843 0.00134479 -3.93144e-20)
(0.0155239 0.00061927 2.45241e-20)
(0.0147928 -4.69635e-05 -1.92175e-20)
(0.0138786 -0.000624806 5.63876e-20)
(0.0128483 -0.00109646 1.81919e-20)
(0.0116843 -0.00144446 -7.30371e-20)
(0.0104698 -0.0016728 -8.94108e-20)
(0.00921323 -0.0017775 3.52779e-20)
(0.00798016 -0.00178261 -8.70218e-20)
(0.00678282 -0.00169572 6.78607e-20)
(0.0056603 -0.0015504 1.6352e-20)
(0.00463065 -0.00136413 6.43384e-20)
(0.00372996 -0.00117937 -1.6221e-20)
(0.00293597 -0.000999761 6.21864e-20)
(0.00248723 -0.00101089 -5.95845e-20)
(0.00246469 -0.00110793 4.26286e-20)
(0.00264535 -0.00120405 1.3644e-20)
(0.00297766 -0.00127389 2.52373e-20)
(0.00347289 -0.0013057 0)
(0.00410542 -0.00127294 2.20832e-20)
(0.00487345 -0.00118284 -1.97287e-20)
(0.00566866 -0.0010307 -2.76145e-22)
(0.00636419 -0.000843593 3.25234e-22)
(0.00693601 -0.000657286 8.7999e-22)
(0.00739872 -0.000491633 8.94871e-21)
(0.0077669 -0.000354892 -5.29293e-22)
(0.00805608 -0.000249857 0)
(0.00828404 -0.000175598 4.89576e-22)
(0.00846871 -0.000128425 -4.70143e-22)
(0.00862586 -0.000103077 -7.96468e-21)
(0.00876798 -9.36862e-05 7.46337e-21)
(0.00890387 -9.44062e-05 6.43085e-21)
(0.00903871 -9.98694e-05 -6.79178e-21)
(0.00917431 -0.000105548 0)
(0.00930968 -0.000107994 3.51303e-22)
(0.00944176 -0.000104931 0)
(0.00956624 -9.52778e-05 2.10499e-21)
(0.00967838 -7.90588e-05 -1.46154e-22)
(0.00977379 -5.71978e-05 -2.52652e-21)
(0.00984893 -3.12423e-05 -5.06881e-22)
(0.00990153 -3.10196e-06 -2.35643e-22)
(0.00993078 2.51977e-05 2.17456e-22)
(0.00993725 5.17238e-05 0)
(0.0099228 7.49656e-05 -1.81854e-22)
(0.00989036 9.38514e-05 -6.21334e-22)
(0.00984366 0.000107929 4.73552e-22)
(0.00978677 0.000117081 4.82711e-22)
(0.00972368 0.00012157 -5.94429e-22)
(0.009658 0.000122002 0)
(0.00959279 0.00011925 -9.46707e-23)
(0.00953051 0.000114349 -1.38169e-22)
(0.0094726 0.000108551 -3.47363e-23)
(0.0094204 0.000102846 3.47002e-23)
(0.00936566 0.000103183 -9.54207e-24)
(0.0134698 0.000548377 0)
(0.0138389 0.00143794 0)
(0.014438 0.00194984 0)
(0.0150214 0.00217146 -5.50137e-21)
(0.0154056 0.00220689 5.46722e-21)
(0.0156322 0.00209603 0)
(0.0156184 0.00189642 0)
(0.0155049 0.00166222 0)
(0.015308 0.00142215 0)
(0.0150559 0.00119547 0)
(0.0147838 0.000997768 0)
(0.0145145 0.000830654 2.20106e-20)
(0.0142585 0.000692092 -2.216e-20)
(0.0140216 0.000581663 2.2076e-20)
(0.0138049 0.00049742 -4.42729e-20)
(0.013607 0.000435243 2.21819e-20)
(0.0134254 0.000391428 2.20429e-20)
(0.0132573 0.000363067 -2.21195e-20)
(0.0130986 0.000347249 0)
(0.0129458 0.000341362 0)
(0.0127956 0.000343427 -4.36815e-20)
(0.0126447 0.000352102 4.37899e-20)
(0.0124905 0.000366556 0)
(0.0123301 0.000386396 4.32882e-20)
(0.012161 0.000411601 -4.33956e-20)
(0.0119805 0.000442442 0)
(0.0117857 0.000479422 0)
(0.0115735 0.000523249 -4.2776e-20)
(0.0113403 0.000574857 2.46129e-22)
(0.0110821 0.00063548 4.2808e-20)
(0.0107942 0.000706832 4.24717e-20)
(0.0104705 0.000791389 -8.50437e-20)
(0.0101129 0.00089376 4.25875e-20)
(0.00968077 0.00101307 -3.96241e-20)
(0.00921432 0.00116945 4.27688e-20)
(0.00889346 0.00141135 4.31839e-20)
(0.00880619 0.00177104 -4.3665e-20)
(0.00892512 0.00225221 -1.30527e-19)
(0.00922685 0.00284056 -2.16828e-19)
(0.00970703 0.00350871 -4.30015e-20)
(0.0103946 0.00422404 4.29099e-20)
(0.0112347 0.00493197 3.83087e-19)
(0.0121326 0.00558556 -3.81048e-19)
(0.0130465 0.00616143 -3.7922e-19)
(0.0139634 0.00664689 8.39757e-20)
(0.0148767 0.00703563 -6.27797e-20)
(0.015789 0.0073308 1.87612e-19)
(0.0166819 0.00750701 0)
(0.0175527 0.00756948 1.86777e-19)
(0.0183974 0.00751397 -2.07122e-20)
(0.0191977 0.00733955 -1.65474e-19)
(0.0199483 0.00706093 -2.05957e-20)
(0.0206235 0.00664276 2.05826e-19)
(0.021218 0.00610769 1.44378e-19)
(0.0217029 0.00545723 1.64648e-19)
(0.0220615 0.00470912 8.12505e-20)
(0.0222795 0.00387799 2.05124e-20)
(0.02232 0.00297867 -2.00431e-20)
(0.0222009 0.00204756 -1.98774e-20)
(0.0218689 0.00109676 -2.93658e-20)
(0.0213503 0.000168124 -1.93741e-20)
(0.0206465 -0.000711375 0)
(0.0197665 -0.00151493 -7.73654e-20)
(0.0187557 -0.00221933 0)
(0.0176215 -0.00281143 2.70464e-19)
(0.0164312 -0.00328569 1.54987e-19)
(0.0152005 -0.00364006 3.88709e-20)
(0.0139834 -0.00388573 0)
(0.0128032 -0.00403207 0)
(0.0116824 -0.00409595 1.54477e-19)
(0.0106472 -0.00409617 0)
(0.00969448 -0.00404363 -3.44244e-19)
(0.00883383 -0.00395857 3.42089e-19)
(0.00806724 -0.00385086 -3.20215e-19)
(0.00738449 -0.00372816 2.70761e-22)
(0.00678305 -0.00359959 2.66696e-22)
(0.00625782 -0.00346826 -2.55578e-19)
(0.00579733 -0.0033352 -3.61863e-20)
(0.00539446 -0.00320265 -2.66515e-19)
(0.00504382 -0.00307073 -2.80275e-19)
(0.00473705 -0.00293782 -1.79703e-21)
(0.00446689 -0.00280338 2.62964e-19)
(0.00422757 -0.00266676 -2.58452e-19)
(0.00401296 -0.0025274 0)
(0.00381905 -0.00238601 -4.01629e-21)
(0.00364222 -0.00224281 -2.50639e-19)
(0.00347768 -0.00209864 4.9688e-19)
(0.00332526 -0.00195659 7.36078e-19)
(0.00318507 -0.00181744 2.47441e-19)
(0.00305375 -0.00168219 -8.53315e-21)
(0.0029336 -0.00155363 0)
(0.00282689 -0.00143203 -7.08962e-21)
(0.0027314 -0.00131763 7.02519e-21)
(0.00265078 -0.00121228 0)
(0.00258572 -0.00111411 -1.08052e-19)
(0.00253782 -0.00102465 1.31665e-20)
(0.00250971 -0.000942119 -1.30315e-20)
(0.00250285 -0.000866924 -2.43747e-22)
(0.00251937 -0.000796368 -1.00141e-19)
(0.00256281 -0.000729848 1.22288e-20)
(0.00263586 -0.000663332 -2.41506e-20)
(0.00273979 -0.000594226 1.19248e-20)
(0.00287871 -0.000518032 6.21288e-24)
(0.00305103 -0.000429833 5.75357e-21)
(0.00326165 -0.000325265 -5.72652e-21)
(0.00350742 -0.000198411 4.51592e-20)
(0.00378997 -4.5334e-05 4.74652e-20)
(0.00410692 0.000138584 8.58811e-20)
(0.00445549 0.000356577 -1.75762e-19)
(0.00483349 0.000611032 8.44168e-20)
(0.00523754 0.000903339 2.71561e-21)
(0.00566335 0.00123367 2.6767e-21)
(0.00610932 0.00160097 -2.67957e-21)
(0.00656796 0.00200305 8.49981e-20)
(0.0070404 0.00243676 -5.4299e-21)
(0.00752103 0.00289754 3.57504e-23)
(0.00800555 0.00338044 -7.30729e-20)
(0.00849411 0.00387955 -2.55036e-19)
(0.00898279 0.00438813 1.65769e-19)
(0.00946937 0.00489951 1.6552e-19)
(0.00995477 0.00540676 -1.75387e-19)
(0.0104372 0.00590248 -1.54274e-19)
(0.0109153 0.00637986 1.54314e-19)
(0.0113912 0.00683259 1.84748e-19)
(0.0118654 0.00725421 1.54032e-19)
(0.0123386 0.00763923 -2.07097e-20)
(0.0128128 0.00798268 2.05581e-20)
(0.0132895 0.00828002 0)
(0.0137714 0.0085277 1.84677e-19)
(0.0142626 0.00872295 1.64065e-19)
(0.0147614 0.00886172 1.43561e-19)
(0.015269 0.00894165 0)
(0.0157939 0.00896016 1.84014e-19)
(0.0163302 0.00891169 -2.0431e-20)
(0.0168774 0.00879573 6.07632e-20)
(0.0174398 0.00861266 2.03026e-20)
(0.0179981 0.00835178 5.66284e-22)
(0.0185545 0.00801451 1.00585e-19)
(0.0190979 0.00759508 -2.0052e-20)
(0.0196136 0.00709392 9.88115e-20)
(0.020087 0.00651129 -1.77678e-19)
(0.0204968 0.00584957 -1.56856e-19)
(0.0208211 0.00511473 -7.73925e-20)
(0.0210449 0.00432043 0)
(0.0211279 0.00347572 1.8283e-20)
(0.0210788 0.00260698 -2.80604e-22)
(0.0208464 0.00172653 -8.88946e-21)
(0.0204365 0.000869511 3.13001e-20)
(0.0198506 5.84e-05 -1.77467e-20)
(0.0190698 -0.000680295 3.42391e-20)
(0.0181409 -0.0013224 -3.38906e-20)
(0.0170377 -0.00185143 0)
(0.0158306 -0.00225788 8.12198e-20)
(0.0145174 -0.00253536 -3.19385e-20)
(0.013166 -0.00269327 6.33124e-20)
(0.0117846 -0.00273694 1.56829e-20)
(0.0104259 -0.00269045 -7.55085e-20)
(0.00910942 -0.00257076 1.51441e-20)
(0.00791006 -0.00242344 0)
(0.00679176 -0.00224621 -7.10647e-20)
(0.00608533 -0.00220581 5.57583e-22)
(0.00583642 -0.00223742 5.20832e-22)
(0.00585252 -0.00225965 4.95988e-22)
(0.00606029 -0.00224309 -2.30879e-20)
(0.00647005 -0.00218013 4.34776e-22)
(0.00704238 -0.00205081 1.93673e-22)
(0.00776077 -0.00186364 9.65016e-21)
(0.00850772 -0.0016206 -8.35974e-21)
(0.00916927 -0.0013462 -8.82581e-21)
(0.00972797 -0.00107522 -7.87439e-22)
(0.0101978 -0.000831134 8.43833e-21)
(0.0105889 -0.000626013 -9.9901e-22)
(0.0109113 -0.000464988 -7.5571e-21)
(0.0111777 -0.000348046 7.52415e-21)
(0.0114021 -0.000271059 8.87468e-22)
(0.0115977 -0.000227128 8.50619e-22)
(0.0117759 -0.000207926 0)
(0.011945 -0.000204747 -6.06395e-21)
(0.0121104 -0.000209318 6.0325e-21)
(0.0122745 -0.000214462 0)
(0.0124365 -0.000214547 6.60355e-22)
(0.0125939 -0.000205726 0)
(0.0127423 -0.000186075 -5.85066e-22)
(0.0128768 -0.000155491 -2.12607e-21)
(0.0129926 -0.000115361 2.11886e-21)
(0.0130856 -6.81493e-05 4.77713e-22)
(0.0131529 -1.69959e-05 -4.41842e-22)
(0.0131929 3.46776e-05 0)
(0.0132057 8.36086e-05 1.43261e-21)
(0.013193 0.000127103 -1.43102e-21)
(0.0131577 0.000163154 -3.07811e-22)
(0.0131038 0.000190619 -5.18562e-22)
(0.0130356 0.000209123 5.17833e-22)
(0.0129579 0.000219024 -3.88895e-22)
(0.0128751 0.000221301 3.88574e-22)
(0.0127911 0.000217399 1.46314e-22)
(0.0127093 0.000209023 9.76715e-23)
(0.0126316 0.000198152 -6.49478e-23)
(0.0125619 0.000186042 -8.16433e-23)
(0.0124834 0.000178025 0)
(0.0134505 0.000334843 0)
(0.0136028 0.000950762 0)
(0.0139983 0.00140051 0)
(0.0145569 0.00167105 -5.59507e-21)
(0.0150671 0.00179782 5.53994e-21)
(0.0154606 0.00181389 0)
(0.0157417 0.00174952 -1.08521e-20)
(0.0159287 0.0016267 1.08421e-20)
(0.0160494 0.00147377 1.07642e-20)
(0.0160573 0.00131269 -2.15323e-20)
(0.0160204 0.00115647 1.07778e-20)
(0.0159441 0.00101027 0)
(0.0158378 0.000878246 0)
(0.015714 0.000766134 -2.14028e-20)
(0.0155829 0.000675298 1.05973e-22)
(0.0154493 0.000603575 4.27937e-20)
(0.015317 0.000549736 -2.141e-20)
(0.0151872 0.000512912 0)
(0.0150596 0.000490797 0)
(0.014933 0.000481024 -2.11306e-20)
(0.0148059 0.000481793 2.11749e-20)
(0.0146766 0.000491785 0)
(0.014543 0.00051007 0)
(0.0144028 0.000536181 4.16822e-20)
(0.0142537 0.000570103 -8.32887e-20)
(0.0140933 0.000612199 4.16077e-20)
(0.013919 0.000663154 4.12241e-20)
(0.0137279 0.000723951 -2.3419e-22)
(0.0135169 0.000795876 -8.20935e-20)
(0.0132822 0.000880576 4.1025e-20)
(0.01302 0.000980207 4.06554e-20)
(0.012725 0.00109752 -2.36778e-22)
(0.0123986 0.00123739 -4.06476e-20)
(0.0120107 0.00139885 -4.02657e-20)
(0.0115901 0.00160008 4.07028e-20)
(0.0112779 0.00188222 0)
(0.0111592 0.00226732 1.67244e-19)
(0.0112321 0.00275575 3.33097e-19)
(0.0114887 0.00333496 0)