/*--------------------------------*- C++ -*----------------------------------*\
| =========                 |                                                 |
| \\      /  F ield         | OpenFOAM: The Open Source CFD Toolbox           |
|  \\    /   O peration     | Version:  2506                                  |
|   \\  /    A nd           | Website:  www.openfoam.com                      |
|    \\/     M anipulation  |                                                 |
\*---------------------------------------------------------------------------*/
FoamFile
{
    version     2.0;
    format      ascii;
    arch        "LSB;label=32;scalar=64";
    class       volScalarField;
    location    "1.3";
    object      p;
}
// * * * * * * * * * * * * * * * * * * * * * * * * * * * * * * * * * * * * * //

dimensions      [0 2 -2 0 0 0 0];

internalField   nonuniform List<scalar> 
4000
(
-1.81424e-05
1.52099e-05
2.58385e-05
2.77899e-05
2.83887e-05
2.83174e-05
2.76281e-05
2.68153e-05
2.62094e-05
2.58098e-05
2.5691e-05
2.58915e-05
2.63988e-05
2.7183e-05
2.82015e-05
2.9513e-05
3.11335e-05
3.307e-05
3.53387e-05
3.79481e-05
4.09117e-05
4.42484e-05
4.79788e-05
5.2127e-05
5.67077e-05
6.17305e-05
6.72363e-05
7.32523e-05
7.98385e-05
8.70573e-05
9.50033e-05
0.000103758
0.000112843
0.000121529
0.00012947
0.000136511
0.000142837
0.000147511
0.000150926
0.000154131
0.000156567
0.000158286
0.000159375
0.000159739
0.000159241
0.000157737
0.000155123
0.000151111
0.000145608
0.000138599
0.000130177
0.000120645
0.000109947
9.86828e-05
8.67201e-05
7.43013e-05
6.08817e-05
4.61732e-05
2.94964e-05
1.06088e-05
-1.02048e-05
-3.25998e-05
-5.34227e-05
-7.17001e-05
-8.67388e-05
-9.85882e-05
-0.000107674
-0.000114242
-0.000118876
-0.0001219
-0.000123533
-0.000123874
-0.000123024
-0.000121056
-0.000118017
-0.000113937
-0.000108829
-0.000102666
-9.54755e-05
-8.7244e-05
-7.79342e-05
-6.74262e-05
-5.57729e-05
-4.28502e-05
-2.87275e-05
-1.33615e-05
2.92351e-06
1.97462e-05
3.65667e-05
5.2687e-05
6.74766e-05
8.06676e-05
9.19176e-05
0.000101425
0.000109178
0.00011576
0.000121422
0.000126204
0.000130294
0.000133587
0.000135819
0.000136685
0.000135959
0.000133497
0.000129474
0.000124132
0.00011771
0.000110378
0.000102892
9.55081e-05
8.7961e-05
8.01904e-05
7.22616e-05
6.34877e-05
5.35029e-05
4.16481e-05
2.75595e-05
1.11704e-05
-7.55354e-06
-2.8439e-05
-4.87507e-05
-6.71573e-05
-8.30344e-05
-9.61848e-05
-0.000106349
-0.000114081
-0.000119905
-0.000124009
-0.000126622
-0.000127924
-0.00012802
-0.000126985
-0.000124865
-0.000121676
-0.000117448
-0.000112191
-0.000105899
-9.85567e-05
-9.00642e-05
-8.04584e-05
-6.97e-05
-5.76223e-05
-4.43441e-05
-2.97555e-05
-1.40835e-05
2.36509e-06
1.9108e-05
3.54708e-05
5.07315e-05
6.44755e-05
7.63052e-05
8.61559e-05
9.41629e-05
0.000100663
0.000105793
0.00011001
0.000113391
0.000115799
0.00011691
0.000116347
0.000113517
0.000107489
9.62992e-05
7.82442e-05
6.98281e-05
6.42572e-05
5.76152e-05
5.10849e-05
4.51289e-05
3.98593e-05
3.57246e-05
3.26099e-05
2.96057e-05
2.66471e-05
2.3803e-05
2.11031e-05
1.85656e-05
1.61986e-05
1.39992e-05
1.19584e-05
1.00643e-05
8.30588e-06
6.6718e-06
5.15879e-06
3.77043e-06
2.51941e-06
1.42665e-06
5.23325e-07
-1.42794e-07
-5.01745e-07
-4.6551e-07
8.69094e-08
1.32648e-06
3.52803e-06
7.12845e-06
1.28135e-05
2.12743e-05
3.40725e-05
5.65799e-05
0.000100498
4.13827e-06
1.81428e-05
2.36631e-05
2.54776e-05
2.61038e-05
2.61271e-05
2.57763e-05
2.5336e-05
2.50015e-05
2.48335e-05
2.48835e-05
2.51859e-05
2.57495e-05
2.65702e-05
2.76417e-05
2.89866e-05
3.06217e-05
3.25593e-05
3.48121e-05
3.73927e-05
4.03157e-05
4.35966e-05
4.72522e-05
5.12987e-05
5.5763e-05
6.06829e-05
6.6066e-05
7.19499e-05
7.83619e-05
8.53711e-05
9.30594e-05
0.000101126
0.000109384
0.000117428
0.000124904
0.000131606
0.000137539
0.000141858
0.000145056
0.000147741
0.000149576
0.000150674
0.000151091
0.000150747
0.000149526
0.000147286
0.000143895
0.000139198
0.00013313
0.00012573
0.000117205
0.000107828
9.76612e-05
8.71602e-05
7.63082e-05
6.5332e-05
5.39079e-05
4.1915e-05
2.87796e-05
1.4277e-05
-2.00159e-06
-2.01065e-05
-3.78247e-05
-5.48932e-05
-7.02694e-05
-8.30453e-05
-9.34338e-05
-0.000101315
-0.000107123
-0.000111169
-0.000113712
-0.000114886
-0.000114809
-0.000113568
-0.000111218
-0.000107795
-0.000103324
-9.77766e-05
-9.11789e-05
-8.3526e-05
-7.47933e-05
-6.48648e-05
-5.37888e-05
-4.14553e-05
-2.79349e-05
-1.32048e-05
2.42229e-06
1.85257e-05
3.45521e-05
4.97695e-05
6.36176e-05
7.58422e-05
8.62693e-05
9.50885e-05
0.000102435
0.000108716
0.000114085
0.000118561
0.000122215
0.000124892
0.000126344
0.000126354
0.000124831
0.000121843
0.000117538
0.000111986
0.000105802
9.93402e-05
9.27522e-05
8.60848e-05
7.9148e-05
7.20032e-05
6.43687e-05
5.606e-05
4.67936e-05
3.64227e-05
2.4748e-05
1.1619e-05
-3.36589e-06
-2.01694e-05
-3.69429e-05
-5.33745e-05
-6.86019e-05
-8.17764e-05
-9.26551e-05
-0.000101177
-0.00010779
-0.000112636
-0.000115936
-0.000117863
-0.000118535
-0.000118039
-0.000116432
-0.000113735
-0.000109974
-0.000105167
-9.93134e-05
-9.24106e-05
-8.43623e-05
-7.51963e-05
-6.49028e-05
-5.33243e-05
-4.05787e-05
-2.65856e-05
-1.15633e-05
4.14574e-06
2.00458e-05
3.54148e-05
4.95534e-05
6.20591e-05
7.26903e-05
8.14534e-05
8.85852e-05
9.4392e-05
9.90242e-05
0.000102688
0.000105334
0.00010673
0.000106498
0.000104157
9.92582e-05
9.13858e-05
7.98843e-05
6.73591e-05
6.1768e-05
5.73925e-05
5.21288e-05
4.7033e-05
4.24542e-05
3.83606e-05
3.47446e-05
3.16548e-05
2.87339e-05
2.58625e-05
2.30964e-05
2.04783e-05
1.80235e-05
1.57331e-05
1.36022e-05
1.16206e-05
9.7766e-06
8.06037e-06
6.46415e-06
4.98577e-06
3.63019e-06
2.41035e-06
1.34863e-06
4.78863e-07
-1.51047e-07
-4.75101e-07
-3.99349e-07
2.00662e-07
1.5021e-06
3.77902e-06
7.47762e-06
1.3136e-05
2.13621e-05
3.28864e-05
4.84871e-05
6.94298e-05
1.5259e-05
1.95071e-05
2.1949e-05
2.32611e-05
2.3863e-05
2.40233e-05
2.39442e-05
2.37915e-05
2.36901e-05
2.37118e-05
2.39065e-05
2.43094e-05
2.49399e-05
2.58073e-05
2.69188e-05
2.82892e-05
2.99342e-05
3.18676e-05
3.41001e-05
3.66489e-05
3.95293e-05
4.27562e-05
4.63471e-05
5.03208e-05
5.46977e-05
5.94976e-05
6.47476e-05
7.04684e-05
7.66864e-05
8.34518e-05
9.08154e-05
9.83985e-05
0.000106154
0.000113799
0.000120946
0.000127344
0.000132908
0.00013696
0.0001398
0.000141826
0.000143005
0.000143437
0.000143138
0.000142049
0.000140109
0.000137191
0.000133152
0.000127923
0.00012154
0.000114047
0.000105638
9.65988e-05
8.70482e-05
7.73103e-05
6.74315e-05
5.7606e-05
4.76511e-05
3.75815e-05
2.70178e-05
1.56228e-05
2.95698e-06
-1.09575e-05
-2.59335e-05
-4.14248e-05
-5.58599e-05
-6.86747e-05
-7.98029e-05
-8.86925e-05
-9.55673e-05
-0.000100601
-0.00010405
-0.00010604
-0.000106715
-0.000106175
-0.000104493
-0.000101707
-9.78502e-05
-9.28998e-05
-8.6883e-05
-7.97985e-05
-7.16303e-05
-6.2275e-05
-5.17823e-05
-4.00541e-05
-2.71685e-05
-1.31259e-05
1.76313e-06
1.70673e-05
3.22233e-05
4.65445e-05
5.95531e-05
7.10328e-05
8.08956e-05
8.93009e-05
9.63913e-05
0.000102402
0.000107444
0.000111516
0.000114616
0.000116588
0.000117272
0.000116595
0.000114504
0.000111137
0.000106816
0.000101714
9.61116e-05
9.05173e-05
8.4695e-05
7.86071e-05
7.2156e-05
6.54026e-05
5.80296e-05
5.01559e-05
4.158e-05
3.24098e-05
2.25345e-05
1.17231e-05
-3.28406e-07
-1.35347e-05
-2.76228e-05
-4.24377e-05
-5.62818e-05
-6.89099e-05
-8.00656e-05
-8.90716e-05
-9.63193e-05
-0.000101806
-0.000105742
-0.000108257
-0.000109478
-0.000109499
-0.000108387
-0.000106167
-0.000102864
-9.85039e-05
-9.30854e-05
-8.6617e-05
-7.90132e-05
-7.02991e-05
-6.04814e-05
-4.94242e-05
-3.72526e-05
-2.39206e-05
-9.65624e-06
5.18043e-06
2.00932e-05
3.4379e-05
4.74165e-05
5.88805e-05
6.86018e-05
7.6644e-05
8.32468e-05
8.85696e-05
9.26799e-05
9.56632e-05
9.73903e-05
9.75836e-05
9.58927e-05
9.19542e-05
8.58278e-05
7.75713e-05
6.79007e-05
6.04421e-05
5.6588e-05
5.27723e-05
4.8494e-05
4.44412e-05
4.07482e-05
3.73102e-05
3.40224e-05
3.08371e-05
2.7886e-05
2.50692e-05
2.2361e-05
1.98171e-05
1.74439e-05
1.52282e-05
1.31648e-05
1.12418e-05
9.44701e-06
7.77077e-06
6.20911e-06
4.75985e-06
3.42778e-06
2.22548e-06
1.17375e-06
3.05396e-07
-3.31502e-07
-6.7216e-07
-6.28958e-07
-8.5152e-08
1.12071e-06
3.22443e-06
6.56936e-06
1.15898e-05
1.8735e-05
2.80166e-05
3.79749e-05
4.7921e-05
1.90857e-05
2.03247e-05
2.12682e-05
2.19888e-05
2.23594e-05
2.24999e-05
2.25172e-05
2.25015e-05
2.25321e-05
2.26689e-05
2.29557e-05
2.34252e-05
2.40992e-05
2.49928e-05
2.61185e-05
2.74901e-05
2.91219e-05
3.10278e-05
3.32209e-05
3.57163e-05
3.85292e-05
4.16748e-05
4.51698e-05
4.90318e-05
5.32796e-05
5.79326e-05
6.30117e-05
6.8535e-05
7.45197e-05
8.10121e-05
8.80448e-05
9.52683e-05
0.0001026
0.000109769
0.000116474
0.000122441
0.000127548
0.000131242
0.000133654
0.000135133
0.000135818
0.000135751
0.000134925
0.000133289
0.000130801
0.000127378
0.000122936
0.000117428
0.000110916
0.000103514
9.5392e-05
8.68154e-05
7.79273e-05
6.89685e-05
6.00152e-05
5.12201e-05
4.24749e-05
3.38102e-05
2.49672e-05
1.56188e-05
5.32113e-06
-5.89071e-06
-1.8471e-05
-3.15277e-05
-4.47376e-05
-5.72669e-05
-6.8329e-05
-7.7608e-05
-8.51372e-05
-9.09412e-05
-9.51908e-05
-9.79255e-05
-9.9289e-05
-9.93818e-05
-9.83035e-05
-9.60951e-05
-9.27944e-05
-8.83857e-05
-8.29014e-05
-7.63435e-05
-6.86991e-05
-5.98798e-05
-4.99386e-05
-3.87915e-05
-2.65247e-05
-1.31624e-05
9.84618e-07
1.54869e-05
2.97993e-05
4.32906e-05
5.555e-05
6.63888e-05
7.57606e-05
8.377e-05
9.05359e-05
9.62291e-05
0.000100891
0.0001045
0.000107043
0.000108386
0.000108481
0.000107292
0.000104926
0.000101575
9.74412e-05
9.28204e-05
8.79186e-05
8.28787e-05
7.75626e-05
7.19158e-05
6.58557e-05
5.94485e-05
5.24637e-05
4.51332e-05
3.7322e-05
2.91934e-05
2.06564e-05
1.14979e-05
1.43011e-06
-9.52761e-06
-2.16167e-05
-3.43282e-05
-4.69234e-05
-5.90847e-05
-6.9931e-05
-7.89678e-05
-8.65046e-05
-9.24259e-05
-9.68775e-05
-9.98884e-05
-0.000101578
-0.00010204
-0.000101357
-9.95549e-05
-9.66567e-05
-9.26961e-05
-8.76724e-05
-8.15987e-05
-7.44025e-05
-6.61092e-05
-5.67353e-05
-4.61677e-05
-3.45385e-05
-2.18343e-05
-8.29367e-06
5.71095e-06
1.96794e-05
3.29566e-05
4.50102e-05
5.55678e-05
6.4519e-05
7.19278e-05
7.7951e-05
8.26862e-05
8.61413e-05
8.83229e-05
8.9056e-05
8.81119e-05
8.52884e-05
8.04979e-05
7.42962e-05
6.72251e-05
5.99714e-05
5.5388e-05
5.21271e-05
4.87116e-05
4.52893e-05
4.20158e-05
3.89069e-05
3.58952e-05
3.28792e-05
2.98012e-05
2.6929e-05
2.41987e-05
2.15853e-05
1.91135e-05
1.68182e-05
1.46764e-05
1.26785e-05
1.0813e-05
9.06788e-06
7.43396e-06
5.90624e-06
4.48311e-06
3.16867e-06
1.97418e-06
9.1792e-07
3.23076e-08
-6.39038e-07
-1.03726e-06
-1.08582e-06
-6.86518e-07
2.88749e-07
2.01514e-06
4.73853e-06
8.77833e-06
1.44317e-05
2.15101e-05
2.82451e-05
3.37985e-05
2.04333e-05
2.0573e-05
2.0772e-05
2.10688e-05
2.12662e-05
2.13379e-05
2.13688e-05
2.14115e-05
2.15133e-05
2.1718e-05
2.20597e-05
2.25673e-05
2.32625e-05
2.41621e-05
2.52805e-05
2.66315e-05
2.82289e-05
3.00862e-05
3.2217e-05
3.46353e-05
3.73558e-05
4.03934e-05
4.37637e-05
4.7483e-05
5.15683e-05
5.60376e-05
6.09081e-05
6.61957e-05
7.19079e-05
7.80911e-05
8.47586e-05
9.16098e-05
9.84908e-05
0.000105148
0.000111348
0.000116837
0.000121472
0.00012479
0.000126807
0.000127863
0.000128167
0.000127709
0.000126445
0.000124388
0.0001215
0.000117716
0.000112993
0.00010734
0.000100843
9.36342e-05
8.58918e-05
7.78531e-05
6.96575e-05
6.14933e-05
5.34428e-05
4.56201e-05
3.79507e-05
3.04456e-05
2.29043e-05
1.50696e-05
6.53998e-06
-2.66405e-06
-1.31018e-05
-2.40769e-05
-3.5692e-05
-4.70973e-05
-5.77396e-05
-6.72696e-05
-7.52087e-05
-8.14864e-05
-8.62809e-05
-8.96707e-05
-9.17068e-05
-9.24238e-05
-9.19563e-05
-9.03364e-05
-8.76037e-05
-8.37482e-05
-7.88065e-05
-7.27894e-05
-6.56876e-05
-5.74274e-05
-4.80633e-05
-3.75284e-05
-2.59133e-05
-1.32645e-05
1.13866e-07
1.38027e-05
2.72843e-05
3.99838e-05
5.15411e-05
6.17812e-05
7.06571e-05
7.82586e-05
8.46559e-05
8.99616e-05
9.41875e-05
9.73109e-05
9.93147e-05
0.00010011
9.97291e-05
9.825e-05
9.58104e-05
9.25944e-05
8.87995e-05
8.46863e-05
8.032e-05
7.57267e-05
7.08263e-05
6.55578e-05
5.98615e-05
5.38267e-05
4.73178e-05
4.05883e-05
3.35466e-05
2.63432e-05
1.88885e-05
1.1011e-05
2.44319e-06
-6.81707e-06
-1.7104e-05
-2.80211e-05
-3.92982e-05
-5.03448e-05
-6.06801e-05
-6.97939e-05
-7.74378e-05
-8.35458e-05
-8.82692e-05
-9.16882e-05
-9.38073e-05
-9.46837e-05
-9.44157e-05
-9.30259e-05
-9.05261e-05
-8.69614e-05
-8.23336e-05
-7.66599e-05
-6.9882e-05
-6.20258e-05
-5.31175e-05
-4.30698e-05
-3.20163e-05
-1.99799e-05
-7.20366e-06
5.93715e-06
1.89564e-05
3.12571e-05
4.23829e-05
5.20946e-05
6.03007e-05
6.70471e-05
7.24396e-05
7.65087e-05
7.92237e-05
8.0563e-05
8.03498e-05
7.85158e-05
7.50052e-05
7.0184e-05
6.4684e-05
5.91441e-05
5.37444e-05
5.06953e-05
4.78711e-05
4.4951e-05
4.22204e-05
3.95089e-05
3.68243e-05
3.41541e-05
3.14146e-05
2.85539e-05
2.58329e-05
2.32187e-05
2.07242e-05
1.83565e-05
1.61415e-05
1.40786e-05
1.21508e-05
1.03464e-05
8.65467e-06
7.06672e-06
5.57687e-06
4.18321e-06
2.88881e-06
1.70287e-06
6.44533e-07
-2.58709e-07
-9.66617e-07
-1.42627e-06
-1.57144e-06
-1.32221e-06
-5.82409e-07
7.70755e-07
2.90631e-06
6.04813e-06
1.03918e-05
1.57546e-05
2.04468e-05
2.32923e-05
2.06221e-05
2.03213e-05
2.01524e-05
2.01859e-05
2.02611e-05
2.03177e-05
2.03562e-05
2.04231e-05
2.05658e-05
2.08129e-05
2.1187e-05
2.17144e-05
2.24146e-05
2.33048e-05
2.44e-05
2.57136e-05
2.7259e-05
2.90493e-05
3.10979e-05
3.3418e-05
3.60234e-05
3.89282e-05
4.21471e-05
4.56951e-05
4.95872e-05
5.3839e-05
5.84647e-05
6.34757e-05
6.8887e-05
7.4724e-05
8.09933e-05
8.74373e-05
9.38469e-05
9.9986e-05
0.000105677
0.000110698
0.000114889
0.000117847
0.000119522
0.00012024
0.000120233
0.000119447
0.000117828
0.000115422
0.000112223
0.000108181
0.000103294
9.76137e-05
9.1234e-05
8.43111e-05
7.70155e-05
6.95602e-05
6.20686e-05
5.46934e-05
4.75084e-05
4.05966e-05
3.38973e-05
2.74017e-05
2.09424e-05
1.43075e-05
7.15396e-06
-5.05796e-07
-9.18125e-06
-1.84221e-05
-2.84122e-05
-3.85424e-05
-4.84036e-05
-5.76033e-05
-6.55893e-05
-7.2265e-05
-7.76402e-05
-8.15619e-05
-8.41124e-05
-8.53843e-05
-8.5469e-05
-8.44186e-05
-8.22567e-05
-7.8973e-05
-7.45924e-05
-6.91339e-05
-6.25961e-05
-5.49202e-05
-4.61586e-05
-3.62657e-05
-2.53314e-05
-1.34223e-05
-8.28939e-07
1.20459e-05
2.47154e-05
3.66572e-05
4.75466e-05
5.72105e-05
6.55871e-05
7.27427e-05
7.87366e-05
8.36109e-05
8.73741e-05
9.00247e-05
9.15171e-05
9.18684e-05
9.11754e-05
8.95799e-05
8.71789e-05
8.42063e-05
8.08182e-05
7.71454e-05
7.32005e-05
6.8986e-05
6.44375e-05
5.95079e-05
5.41715e-05
4.85392e-05
4.2545e-05
3.64273e-05
3.01207e-05
2.37489e-05
1.72218e-05
1.0399e-05
3.04094e-06
-4.86749e-06
-1.36476e-05
-2.3036e-05
-3.29601e-05
-4.28391e-05
-5.24828e-05
-6.12381e-05
-6.877e-05
-7.50648e-05
-8.01044e-05
-8.37967e-05
-8.61926e-05
-8.74076e-05
-8.7511e-05
-8.65225e-05
-8.44215e-05
-8.12609e-05
-7.70399e-05
-7.178e-05
-6.54396e-05
-5.80441e-05
-4.96295e-05
-4.01377e-05
-2.96966e-05
-1.83657e-05
-6.38492e-06
5.87901e-06
1.79633e-05
2.93289e-05
3.95747e-05
4.84627e-05
5.59463e-05
6.20162e-05
6.67304e-05
7.00861e-05
7.20439e-05
7.25971e-05
7.16265e-05
6.92606e-05
6.56386e-05
6.12409e-05
5.67689e-05
5.25341e-05
4.84899e-05
4.63047e-05
4.38925e-05
4.14498e-05
3.92278e-05
3.69246e-05
3.45758e-05
3.2201e-05
2.97321e-05
2.71224e-05
2.45898e-05
2.2131e-05
1.97642e-05
1.75249e-05
1.54117e-05
1.34366e-05
1.15864e-05
9.85053e-06
8.21913e-06
6.68384e-06
5.23893e-06
3.88207e-06
2.6156e-06
1.44804e-06
3.96259e-07
-5.1365e-07
-1.24416e-06
-1.74628e-06
-1.9606e-06
-1.81975e-06
-1.24983e-06
-1.65383e-07
1.54525e-06
4.03551e-06
7.44002e-06
1.1487e-05
1.4321e-05
1.52057e-05
2.01241e-05
1.96774e-05
1.93644e-05
1.92719e-05
1.92605e-05
1.92836e-05
1.93454e-05
1.9452e-05
1.96253e-05
1.98972e-05
2.02896e-05
2.08254e-05
2.15196e-05
2.23894e-05
2.34497e-05
2.47133e-05
2.61928e-05
2.79013e-05
2.98512e-05
3.2055e-05
3.45258e-05
3.72766e-05
4.03208e-05
4.3672e-05
4.73438e-05
5.13495e-05
5.57015e-05
6.04095e-05
6.5484e-05
7.09464e-05
7.67954e-05
8.28045e-05
8.87337e-05
9.43665e-05
9.95711e-05
0.000104153
0.000107937
0.000110564
0.000111946
0.000112389
0.000112122
0.000111064
0.000109152
0.000106472
0.000103041
9.88345e-05
9.38841e-05
8.82738e-05
8.21094e-05
7.5538e-05
6.87366e-05
6.1889e-05
5.50984e-05
4.84903e-05
4.21227e-05
3.60544e-05
3.02294e-05
2.46259e-05
1.90995e-05
1.3463e-05
7.4322e-06
9.90691e-07
-6.27091e-06
-1.40886e-05
-2.26393e-05
-3.15309e-05
-4.0436e-05
-4.90691e-05
-5.68798e-05
-6.35882e-05
-6.91521e-05
-7.34807e-05
-7.66553e-05
-7.85391e-05
-7.90941e-05
-7.85523e-05
-7.69009e-05
-7.4174e-05
-7.03534e-05
-6.54564e-05
-5.94945e-05
-5.24175e-05
-4.42703e-05
-3.5034e-05
-2.47938e-05
-1.36345e-05
-1.82768e-06
1.02435e-05
2.2123e-05
3.33348e-05
4.35747e-05
5.26588e-05
6.05458e-05
6.72505e-05
7.27878e-05
7.72029e-05
8.05177e-05
8.26989e-05
8.37674e-05
8.38061e-05
8.29665e-05
8.135e-05
7.91134e-05
7.64343e-05
7.34068e-05
7.01019e-05
6.65053e-05
6.26145e-05
5.83768e-05
5.37705e-05
4.88013e-05
4.35926e-05
3.81235e-05
3.2605e-05
2.69876e-05
2.13697e-05
1.56616e-05
9.74375e-06
3.40137e-06
-3.39714e-06
-1.0939e-05
-1.90488e-05
-2.77463e-05
-3.65441e-05
-4.5367e-05
-5.36124e-05
-6.09376e-05
-6.71551e-05
-7.22363e-05
-7.61552e-05
-7.89347e-05
-8.05011e-05
-8.08921e-05
-8.02415e-05
-7.84986e-05
-7.5735e-05
-7.19195e-05
-6.70778e-05
-6.11848e-05
-5.42624e-05
-4.63552e-05
-3.74366e-05
-2.7623e-05
-1.70086e-05
-5.82536e-06
5.57498e-06
1.67563e-05
2.72338e-05
3.66433e-05
4.47172e-05
5.14491e-05
5.68613e-05
6.08763e-05
6.35022e-05
6.47715e-05
6.46557e-05
6.32491e-05
6.0725e-05
5.73562e-05
5.36519e-05
5.01797e-05
4.69638e-05
4.38599e-05
4.21884e-05
4.0157e-05
3.81256e-05
3.62788e-05
3.42896e-05
3.22205e-05
3.01065e-05
2.78934e-05
2.55377e-05
2.32115e-05
2.09288e-05
1.87178e-05
1.66114e-05
1.46184e-05
1.27446e-05
1.0983e-05
9.32559e-06
7.76389e-06
6.29044e-06
4.89979e-06
3.58954e-06
2.36172e-06
1.22417e-06
1.9251e-07
-7.07962e-07
-1.44094e-06
-1.95921e-06
-2.20685e-06
-2.12367e-06
-1.65011e-06
-7.2857e-07
7.02439e-07
2.72086e-06
5.36655e-06
8.07006e-06
9.54818e-06
9.39778e-06
1.92263e-05
1.87614e-05
1.84125e-05
1.82658e-05
1.82196e-05
1.82323e-05
1.82969e-05
1.84225e-05
1.86263e-05
1.89226e-05
1.93283e-05
1.98644e-05
2.05444e-05
2.13853e-05
2.24024e-05
2.36061e-05
2.50089e-05
2.66234e-05
2.84614e-05
3.05345e-05
3.28545e-05
3.54336e-05
3.82838e-05
4.14174e-05
4.48465e-05
4.85828e-05
5.26369e-05
5.70174e-05
6.1732e-05
6.67986e-05
7.2213e-05
7.77723e-05
8.32216e-05
8.83677e-05
9.31163e-05
9.7294e-05
0.00010071
0.000103035
0.000104165
0.000104381
0.0001039
0.000102618
0.000100475
9.75889e-05
9.40051e-05
8.97217e-05
8.47994e-05
7.93335e-05
7.34515e-05
6.72932e-05
6.10173e-05
5.47869e-05
4.86843e-05
4.28118e-05
3.72095e-05
3.1917e-05
2.68794e-05
2.20676e-05
1.73531e-05
1.25772e-05
7.49948e-06
2.07236e-06
-4.02396e-06
-1.06489e-05
-1.79476e-05
-2.56918e-05
-3.36246e-05
-4.15215e-05
-4.89377e-05
-5.559e-05
-6.13539e-05
-6.58854e-05
-6.92557e-05
-7.16044e-05
-7.28323e-05
-7.28645e-05
-7.16665e-05
-6.94633e-05
-6.6167e-05
-6.18056e-05
-5.64181e-05
-4.99481e-05
-4.24183e-05
-3.38449e-05
-2.43033e-05
-1.38936e-05
-2.86562e-06
8.41834e-06
1.95309e-05
3.00372e-05
3.96459e-05
4.81506e-05
5.55194e-05
6.17661e-05
6.68288e-05
7.07888e-05
7.36597e-05
7.54295e-05
7.61805e-05
7.60345e-05
7.51381e-05
7.36078e-05
7.15865e-05
6.91826e-05
6.64696e-05
6.34771e-05
6.01767e-05
5.65718e-05
5.26244e-05
4.83387e-05
4.37443e-05
3.89685e-05
3.40184e-05
2.90752e-05
2.40998e-05
1.91691e-05
1.41953e-05
9.07468e-06
3.61386e-06
-2.23469e-06
-8.71874e-06
-1.57352e-05
-2.33368e-05
-3.11511e-05
-3.91328e-05
-4.67697e-05
-5.37417e-05
-5.98751e-05
-6.5065e-05
-6.90364e-05
-7.18818e-05
-7.37907e-05
-7.45967e-05
-7.42819e-05
-7.28408e-05
-7.04559e-05
-6.70188e-05
-6.25874e-05
-5.71433e-05
-5.06991e-05
-4.33047e-05
-3.49656e-05
-2.5783e-05
-1.58821e-05
-5.48482e-06
5.0743e-06
1.53836e-05
2.4999e-05
3.35782e-05
4.09147e-05
4.69282e-05
5.16141e-05
5.49249e-05
5.6891e-05
5.75847e-05
5.70628e-05
5.54586e-05
5.30764e-05
5.01306e-05
4.71782e-05
4.45483e-05
4.2085e-05
3.96465e-05
3.83102e-05
3.66168e-05
3.4925e-05
3.33643e-05
3.16283e-05
2.97994e-05
2.7919e-05
2.59449e-05
2.38338e-05
2.17189e-05
1.96234e-05
1.75806e-05
1.56213e-05
1.37593e-05
1.1999e-05
1.03377e-05
8.76968e-06
7.28826e-06
5.88708e-06
4.56131e-06
3.30888e-06
2.1316e-06
1.03694e-06
4.01567e-08
-8.33801e-07
-1.54905e-06
-2.05907e-06
-2.30967e-06
-2.24534e-06
-1.81774e-06
-9.95159e-07
2.36546e-07
1.87989e-06
3.85577e-06
5.49689e-06
6.25371e-06
5.43847e-06
1.80969e-05
1.76624e-05
1.73245e-05
1.71608e-05
1.71016e-05
1.71149e-05
1.71925e-05
1.73381e-05
1.75556e-05
1.78609e-05
1.82738e-05
1.88044e-05
1.94662e-05
2.02733e-05
2.12389e-05
2.23741e-05
2.36909e-05
2.52015e-05
2.69166e-05
2.88468e-05
3.1003e-05
3.3396e-05
3.60369e-05
3.89365e-05
4.21056e-05
4.55546e-05
4.92929e-05
5.33281e-05
5.76669e-05
6.23245e-05
6.72928e-05
7.2401e-05
7.73759e-05
8.20569e-05
8.63809e-05
9.01882e-05
9.32688e-05
9.53217e-05
9.62355e-05
9.62666e-05
9.56119e-05
9.41553e-05
9.18365e-05
8.88115e-05
8.51489e-05
8.08691e-05
7.6046e-05
7.08004e-05
6.52546e-05
5.95472e-05
5.38162e-05
4.82028e-05
4.27682e-05
3.75946e-05
3.27046e-05
2.81227e-05
2.37944e-05
1.96875e-05
1.56875e-05
1.16592e-05
7.39985e-06
2.84464e-06
-2.25535e-06
-7.84616e-06
-1.40423e-05
-2.07237e-05
-2.7711e-05
-3.48351e-05
-4.17546e-05
-4.81419e-05
-5.38447e-05
-5.86151e-05
-6.24012e-05
-6.50597e-05
-6.6563e-05
-6.70185e-05
-6.64956e-05
-6.48895e-05
-6.20922e-05
-5.8235e-05
-5.34075e-05
-4.75403e-05
-4.06142e-05
-3.2701e-05
-2.38546e-05
-1.41859e-05
-3.92225e-06
6.59465e-06
1.69614e-05
2.67764e-05
3.57553e-05
4.37068e-05
5.05583e-05
5.6301e-05
6.08843e-05
6.44086e-05
6.68741e-05
6.83077e-05
6.88337e-05
6.86006e-05
6.77322e-05
6.63386e-05
6.45325e-05
6.23771e-05
5.99377e-05
5.72122e-05
5.41719e-05
5.08306e-05
4.71651e-05
4.3201e-05
3.89847e-05
3.46416e-05
3.0195e-05
2.57985e-05
2.14193e-05
1.71173e-05
1.28074e-05
8.39886e-06
3.7174e-06
-1.29464e-06
-6.84916e-06
-1.28947e-05
-1.95006e-05
-2.63967e-05
-3.35542e-05
-4.05655e-05
-4.71446e-05
-5.30658e-05
-5.81532e-05
-6.22647e-05
-6.53962e-05
-6.7449e-05
-6.84146e-05
-6.84089e-05
-6.74599e-05
-6.54409e-05
-6.23526e-05
-5.83205e-05
-5.33174e-05
-4.73486e-05
-4.04652e-05
-3.27033e-05
-2.41472e-05
-1.49475e-05
-5.31659e-06
4.42883e-06
1.38984e-05
2.26789e-05
3.04654e-05
3.70624e-05
4.23595e-05
4.63429e-05
4.89936e-05
5.04217e-05
5.07076e-05
4.99632e-05
4.83977e-05
4.63072e-05
4.38657e-05
4.15827e-05
3.96012e-05
3.76845e-05
3.57386e-05
3.46416e-05
3.32367e-05
3.18203e-05
3.04853e-05
2.89619e-05
2.73447e-05
2.5676e-05
2.3923e-05
2.20423e-05
2.01358e-05
1.82308e-05
1.63622e-05
1.45594e-05
1.28369e-05
1.12006e-05
9.65023e-06
8.18233e-06
6.79185e-06
5.4737e-06
4.22392e-06
3.04077e-06
1.92623e-06
8.87803e-07
-5.93962e-08
-8.90701e-07
-1.57065e-06
-2.05352e-06
-2.2871e-06
-2.22104e-06
-1.81897e-06
-1.07142e-06
1.09374e-10
1.34536e-06
2.70726e-06
3.75787e-06
3.91857e-06
2.82643e-06
1.68259e-05
1.64359e-05
1.61269e-05
1.5966e-05
1.59062e-05
1.59244e-05
1.60126e-05
1.61704e-05
1.6401e-05
1.67147e-05
1.71233e-05
1.7637e-05
1.82703e-05
1.90348e-05
1.99426e-05
2.10051e-05
2.22307e-05
2.36297e-05
2.52127e-05
2.699e-05
2.89716e-05
3.11672e-05
3.35868e-05
3.624e-05
3.91364e-05
4.22852e-05
4.56951e-05
4.93731e-05
5.33259e-05
5.7568e-05
6.20917e-05
6.67344e-05
7.12506e-05
7.54894e-05
7.94174e-05
8.28839e-05
8.56593e-05
8.74671e-05
8.81978e-05
8.80801e-05
8.72918e-05
8.57063e-05
8.32676e-05
8.01652e-05
7.64898e-05
7.2284e-05
6.76343e-05
6.26623e-05
5.75001e-05
5.22719e-05
4.70964e-05
4.20924e-05
3.73013e-05
3.27872e-05
2.85573e-05
2.46246e-05
2.09351e-05
1.74567e-05
1.40878e-05
1.07133e-05
7.16294e-06
3.36595e-06
-8.7264e-07
-5.55285e-06
-1.07676e-05
-1.64641e-05
-2.25265e-05
-2.88388e-05
-3.51594e-05
-4.1182e-05
-4.67283e-05
-5.15453e-05
-5.55082e-05
-5.84819e-05
-6.0482e-05
-6.14489e-05
-6.13297e-05
-6.01407e-05
-5.79178e-05
-5.46745e-05
-5.04726e-05
-4.51886e-05
-3.88461e-05
-3.15855e-05
-2.34252e-05
-1.4483e-05
-4.96527e-06
4.80578e-06
1.44462e-05
2.35838e-05
3.19382e-05
3.932e-05
4.56436e-05
5.08534e-05
5.50003e-05
5.81188e-05
6.02156e-05
6.13927e-05
6.17904e-05
6.15358e-05
6.07402e-05
5.94959e-05
5.7887e-05
5.59611e-05
5.3755e-05
5.12625e-05
4.84603e-05
4.53708e-05
4.19841e-05
3.83426e-05
3.45035e-05
3.05865e-05
2.66238e-05
2.27438e-05
1.89181e-05
1.51924e-05
1.14851e-05
7.71682e-06
3.73032e-06
-5.36399e-07
-5.26412e-06
-1.04365e-05
-1.61268e-05
-2.21502e-05
-2.8489e-05
-3.48366e-05
-4.09553e-05
-4.66069e-05
-5.15751e-05
-5.57185e-05
-5.89524e-05
-6.11994e-05
-6.25142e-05
-6.28495e-05
-6.2183e-05
-6.04572e-05
-5.78224e-05
-5.42215e-05
-4.9667e-05
-4.41746e-05
-3.77999e-05
-3.06073e-05
-2.26679e-05
-1.41509e-05
-5.26247e-06
3.6981e-06
1.23609e-05
2.03245e-05
2.73341e-05
3.32042e-05
3.78024e-05
4.10982e-05
4.32227e-05
4.42213e-05
4.42484e-05
4.34492e-05
4.20741e-05
4.03446e-05
3.83845e-05
3.66418e-05
3.51437e-05
3.36352e-05
3.2071e-05
3.11574e-05
2.99906e-05
2.87961e-05
2.76455e-05
2.63072e-05
2.48801e-05
2.34044e-05
2.18551e-05
2.0189e-05
1.84838e-05
1.67679e-05
1.50755e-05
1.34337e-05
1.18573e-05
1.03533e-05
8.92306e-06
7.56493e-06
6.27543e-06
5.05069e-06
3.88761e-06
2.78507e-06
1.74545e-06
7.76349e-07
-1.07333e-07
-8.81517e-07
-1.51181e-06
-1.9545e-06
-2.16108e-06
-2.0877e-06
-1.70912e-06
-1.03466e-06
-1.18371e-07
9.29225e-07
1.8267e-06
2.44779e-06
2.18793e-06
1.1201e-06
1.54625e-05
1.51167e-05
1.4841e-05
1.46917e-05
1.46374e-05
1.46616e-05
1.4757e-05
1.49215e-05
1.51568e-05
1.54693e-05
1.58675e-05
1.63607e-05
1.69604e-05
1.76764e-05
1.8518e-05
1.9496e-05
2.06211e-05
2.19017e-05
2.33466e-05
2.49647e-05
2.67644e-05
2.87547e-05
3.09447e-05
3.33428e-05
3.59578e-05
3.87981e-05
4.18716e-05
4.51851e-05
4.87457e-05
5.25681e-05
5.6645e-05
6.08295e-05
6.48944e-05
6.87092e-05
7.2265e-05
7.54159e-05
7.79116e-05
7.95001e-05
8.00784e-05
7.98468e-05
7.89641e-05
7.72954e-05
7.47901e-05
7.16705e-05
6.80479e-05
6.39746e-05
5.95564e-05
5.49128e-05
5.01712e-05
4.54422e-05
4.08257e-05
3.64182e-05
3.22429e-05
2.83482e-05
2.47281e-05
2.13872e-05
1.8273e-05
1.53551e-05
1.25441e-05
9.74316e-06
6.80916e-06
3.67279e-06
1.79371e-07
-3.69858e-06
-8.0395e-06
-1.28313e-05
-1.80069e-05
-2.34872e-05
-2.91109e-05
-3.464e-05
-3.99052e-05
-4.46519e-05
-4.87177e-05
-5.19581e-05
-5.42979e-05
-5.56677e-05
-5.60203e-05
-5.54034e-05
-5.37648e-05
-5.1102e-05
-4.74297e-05
-4.27254e-05
-3.70491e-05
-3.04464e-05
-2.29614e-05
-1.47312e-05
-5.94368e-06
3.09772e-06
1.20244e-05
2.04879e-05
2.82119e-05
3.50025e-05
4.0787e-05
4.55201e-05
4.91997e-05
5.19326e-05
5.37371e-05
5.47447e-05
5.5073e-05
5.48361e-05
5.41312e-05
5.30311e-05
5.16007e-05
4.9874e-05
4.7874e-05
4.55947e-05
4.30181e-05
4.01745e-05
3.70657e-05
3.37466e-05
3.02807e-05
2.67796e-05
2.32797e-05
1.98867e-05
1.6575e-05
1.33784e-05
1.02191e-05
7.02792e-06
3.66333e-06
6.33934e-08
-3.92631e-06
-8.3113e-06
-1.31624e-05
-1.83593e-05
-2.38924e-05
-2.95364e-05
-3.51088e-05
-4.03969e-05
-4.51803e-05
-4.92981e-05
-5.26215e-05
-5.50737e-05
-5.66295e-05
-5.72453e-05
-5.69151e-05
-5.56118e-05
-5.33829e-05
-5.02109e-05
-4.61089e-05
-4.10978e-05
-3.52325e-05
-2.86017e-05
-2.12698e-05
-1.34193e-05
-5.25407e-06
2.93935e-06
1.08058e-05
1.79933e-05
2.42275e-05
2.93307e-05
3.3295e-05
3.60594e-05
3.76811e-05
3.83689e-05
3.82777e-05
3.75624e-05
3.64389e-05
3.50664e-05
3.35179e-05
3.21912e-05
3.10543e-05
2.98618e-05
2.86013e-05
2.78326e-05
2.68574e-05
2.58432e-05
2.48485e-05
2.36759e-05
2.24214e-05
2.11225e-05
1.97607e-05
1.8294e-05
1.67813e-05
1.52504e-05
1.37333e-05
1.22546e-05
1.08287e-05
9.46301e-06
8.16036e-06
6.92031e-06
5.74069e-06
4.61878e-06
3.55243e-06
2.54122e-06
1.58796e-06
7.00316e-07
-1.07307e-07
-8.12063e-07
-1.38168e-06
-1.77591e-06
-1.95153e-06
-1.87284e-06
-1.52737e-06
-9.43469e-07
-1.94627e-07
6.10058e-07
1.2309e-06
1.44138e-06
9.93972e-07
4.10636e-08
1.40341e-05
1.37271e-05
1.34832e-05
1.33484e-05
1.33012e-05
1.333e-05
1.34286e-05
1.35938e-05
1.3826e-05
1.41291e-05
1.4509e-05
1.49736e-05
1.55316e-05
1.61917e-05
1.69623e-05
1.78526e-05
1.88715e-05
2.0027e-05
2.1327e-05
2.27791e-05
2.43911e-05
2.61706e-05
2.81254e-05
3.02631e-05
3.25915e-05
3.51184e-05
3.78513e-05
4.07967e-05
4.39625e-05
4.73633e-05
5.09937e-05
5.47236e-05
5.83458e-05
6.17515e-05
6.49534e-05
6.78089e-05
7.00473e-05
7.14412e-05
7.18965e-05
7.15853e-05
7.06472e-05
6.89403e-05
6.64203e-05
6.33406e-05
5.98299e-05
5.59509e-05
5.18149e-05
4.75431e-05
4.32518e-05
3.90358e-05
3.49766e-05
3.11488e-05
2.75598e-05
2.42444e-05
2.11861e-05
1.83837e-05
1.5787e-05
1.33689e-05
1.1051e-05
8.75339e-06
6.3562e-06
3.79527e-06
9.47163e-07
-2.22774e-06
-5.79631e-06
-9.76907e-06
-1.41133e-05
-1.87798e-05
-2.36601e-05
-2.85802e-05
-3.34072e-05
-3.79216e-05
-4.19537e-05
-4.53441e-05
-4.79622e-05
-4.97253e-05
-5.05584e-05
-5.04631e-05
-4.93747e-05
-4.72795e-05
-4.42137e-05
-4.01537e-05
-3.51171e-05
-2.91745e-05
-2.2371e-05
-1.48501e-05
-6.78878e-06
1.52553e-06
9.73659e-06
1.75174e-05
2.45984e-05
3.0792e-05
3.60228e-05
4.02606e-05
4.35312e-05
4.59311e-05
4.75042e-05
4.83903e-05
4.86824e-05
4.84799e-05
4.78648e-05
4.68947e-05
4.56222e-05
4.40719e-05
4.22605e-05
4.01822e-05
3.78242e-05
3.52237e-05
3.23928e-05
2.9395e-05
2.62968e-05
2.32002e-05
2.01422e-05
1.72083e-05
1.43739e-05
1.16633e-05
9.00243e-06
6.33176e-06
3.52441e-06
5.21595e-07
-2.80874e-06
-6.48477e-06
-1.05718e-05
-1.49949e-05
-1.97525e-05
-2.46786e-05
-2.96395e-05
-3.44597e-05
-3.89436e-05
-4.29313e-05
-4.62733e-05
-4.88739e-05
-5.06546e-05
-5.15676e-05
-5.16028e-05
-5.06925e-05
-4.8881e-05
-4.61496e-05
-4.25125e-05
-3.79953e-05
-3.26493e-05
-2.65814e-05
-1.98576e-05
-1.26684e-05
-5.22e-06
2.2126e-06
9.29091e-06
1.56926e-05
2.11648e-05
2.55884e-05
2.88995e-05
3.11577e-05
3.2455e-05
3.29619e-05
3.28569e-05
3.22817e-05
3.14098e-05
3.03491e-05
2.91319e-05
2.81191e-05
2.7256e-05
2.63143e-05
2.52967e-05
2.46423e-05
2.38205e-05
2.29548e-05
2.2096e-05
2.10744e-05
1.99787e-05
1.88429e-05
1.76544e-05
1.63732e-05
1.5044e-05
1.36926e-05
1.23482e-05
1.10328e-05
9.75984e-06
8.53695e-06
7.36759e-06
6.25234e-06
5.1901e-06
4.17918e-06
3.21833e-06
2.30784e-06
1.45088e-06
6.54915e-07
-6.63788e-08
-6.92006e-07
-1.1928e-06
-1.53325e-06
-1.67721e-06