/*--------------------------------*- C++ -*----------------------------------*\
| =========                 |                                                 |
| \\      /  F ield         | OpenFOAM: The Open Source CFD Toolbox           |
|  \\    /   O peration     | Version:  2506                                  |
|   \\  /    A nd           | Website:  www.openfoam.com                      |
|    \\/     M anipulation  |                                                 |
\*---------------------------------------------------------------------------*/
FoamFile
{
    version     2.0;
    format      ascii;
    arch        "LSB;label=32;scalar=64";
    class       volVectorField;
    location    "1.45";
    object      vorticityField;
}
// * * * * * * * * * * * * * * * * * * * * * * * * * * * * * * * * * * * * * //

dimensions      [0 0 -1 0 0 0 0];

internalField   nonuniform List<vector> 
4000
(
(2.7308e-19 4.81788e-20 21.6675)
(5.9884e-20 5.1526e-20 23.2863)
(9.54878e-20 2.86666e-19 20.0051)
(3.95729e-19 4.53584e-19 17.0342)
(-5.56497e-19 5.58338e-19 14.9733)
(2.3072e-20 4.98418e-21 13.3938)
(3.80526e-19 5.97526e-19 12.1136)
(-6.63574e-20 7.01337e-19 11.066)
(-8.52706e-20 3.21385e-20 10.199)
(-5.07253e-20 -5.93585e-19 9.47235)
(4.98496e-19 1.5568e-17 8.8574)
(-2.12293e-18 -2.73635e-17 8.3321)
(1.40418e-18 1.24659e-17 7.88212)
(-1.51214e-18 -1.40565e-17 7.49525)
(2.30051e-18 1.31895e-17 7.16163)
(-1.80396e-18 6.60101e-19 6.87382)
(1.54534e-18 1.48774e-17 6.62595)
(-2.0353e-18 -1.32447e-17 6.41299)
(-1.1807e-18 3.00925e-20 6.23032)
(1.95718e-18 6.26349e-20 6.07381)
(-1.51181e-19 6.65186e-20 5.93924)
(-2.72042e-18 -7.65422e-19 5.82279)
(2.55451e-18 -8.81809e-19 5.72072)
(2.75298e-18 2.31979e-20 5.62875)
(-2.91247e-18 -7.46175e-19 5.54191)
(-1.83279e-19 -9.06815e-19 5.45414)
(-3.60202e-18 -1.04924e-19 5.35786)
(4.87968e-19 -3.83935e-18 5.24324)
(1.1398e-17 3.20704e-17 5.0961)
(-4.11287e-18 -2.49612e-17 4.8851)
(-5.42539e-18 5.76068e-18 4.57398)
(-1.28991e-17 -7.81307e-17 4.3093)
(3.05839e-18 7.26839e-17 4.3211)
(-3.22651e-17 -1.63716e-17 4.65631)
(-4.19148e-18 -1.87088e-16 5.28043)
(1.06323e-16 5.57077e-16 6.16368)
(-1.39308e-18 1.05956e-16 7.22509)
(-2.50113e-17 -9.04001e-17 8.9254)
(-1.20526e-18 -4.64377e-17 11.5405)
(-6.08672e-18 3.03995e-17 14.4256)
(-4.18751e-17 -1.59779e-16 17.2192)
(1.18559e-16 3.63365e-16 19.7614)
(-2.72066e-18 1.50248e-17 21.9757)
(1.62456e-16 2.32549e-16 23.8067)
(-7.95075e-17 -4.2788e-17 25.2095)
(2.41966e-18 1.94793e-16 26.1684)
(2.84887e-17 1.26755e-16 26.6481)
(-4.20998e-17 -2.32722e-16 26.7159)
(-1.46951e-16 -1.96235e-16 26.4575)
(-7.74395e-17 -1.43532e-16 25.9974)
(-3.10103e-17 -6.0049e-17 25.4534)
(3.64216e-18 6.26683e-18 24.8424)
(2.19207e-17 -1.84221e-17 24.4352)
(2.22269e-17 2.26417e-16 24.1513)
(-2.45706e-17 1.80144e-16 23.9483)
(-1.29963e-17 -1.90897e-16 23.601)
(-1.79334e-17 -6.63998e-17 22.983)
(3.95286e-18 1.63608e-17 21.763)
(1.99932e-19 -4.69501e-19 19.6877)
(1.75855e-18 -2.208e-17 17.0382)
(3.63442e-18 -4.53859e-17 14.203)
(-8.23921e-18 9.93605e-17 11.425)
(-4.55736e-17 2.39326e-16 9.0116)
(1.58838e-17 -2.22443e-16 7.11891)
(5.49345e-19 1.987e-17 5.71399)
(-3.58291e-18 3.13511e-18 4.7634)
(4.75405e-19 -4.27323e-18 4.1597)
(1.12782e-17 -9.84538e-17 3.81412)
(6.19802e-18 -4.93971e-16 3.63502)
(5.18244e-17 -2.56143e-16 3.5425)
(-1.67323e-18 6.37714e-17 3.49246)
(-5.66006e-17 2.56325e-16 3.44638)
(8.54839e-19 -2.50758e-16 3.37495)
(-2.01658e-17 8.53337e-17 3.26907)
(-3.34718e-17 2.18202e-16 3.12869)
(2.48916e-17 -2.89961e-16 2.95797)
(4.97621e-17 -2.72515e-16 2.76299)
(5.80864e-18 -1.62957e-16 2.54929)
(-2.24768e-18 3.00285e-17 2.32788)
(-2.00112e-17 1.93325e-17 2.1013)
(1.72605e-17 9.75829e-18 1.87283)
(-1.49263e-17 1.75155e-16 1.64646)
(5.3595e-19 -3.22072e-17 1.42947)
(1.09891e-17 -1.40733e-16 1.21824)
(5.25254e-19 1.48979e-16 1.01716)
(-8.02732e-20 -9.86087e-18 0.827306)
(2.19122e-19 4.81386e-21 0.645165)
(-2.77142e-19 6.4287e-18 0.452589)
(3.76681e-20 2.52425e-17 0.226807)
(1.27507e-18 -5.76579e-17 -0.0583878)
(-2.2746e-19 -1.10611e-18 -0.435282)
(-2.19268e-18 7.2433e-18 -0.955527)
(8.49861e-18 -4.31424e-18 -1.61411)
(-1.09955e-17 -2.70685e-17 -2.42748)
(2.80611e-17 1.80249e-16 -3.31864)
(-1.73924e-17 2.00837e-16 -4.21037)
(3.30194e-17 2.41054e-16 -5.0577)
(1.8915e-17 3.10837e-17 -5.75498)
(-2.8074e-17 1.98624e-16 -6.27531)
(-2.97419e-17 2.74888e-16 -6.61282)
(-2.49271e-19 -6.89099e-18 -6.79967)
(4.87207e-17 2.24048e-16 -6.88783)
(-4.95524e-18 5.55837e-16 -6.91568)
(1.39079e-18 4.9926e-17 -6.89962)
(-6.80861e-18 2.88126e-16 -6.80705)
(1.87348e-18 6.43456e-17 -6.55814)
(5.45022e-17 -2.12834e-16 -6.03578)
(5.06381e-17 -2.48597e-16 -5.09176)
(2.16276e-17 -2.28164e-17 -3.59208)
(2.24012e-17 3.90982e-17 -1.48571)
(2.28604e-18 -2.42105e-16 1.19746)
(-1.61793e-17 1.65175e-16 4.39478)
(8.11203e-19 -3.44278e-18 7.84072)
(2.87585e-17 3.73729e-16 11.122)
(6.12173e-18 1.16561e-16 13.766)
(7.94021e-18 1.72761e-16 15.4535)
(3.22866e-19 3.95462e-18 15.7771)
(6.11881e-20 4.92878e-17 14.8635)
(1.339e-18 -6.70536e-18 13.1734)
(-3.0936e-19 6.95532e-19 11.0334)
(-1.84232e-18 -1.41584e-17 8.9568)
(1.39819e-17 -1.64439e-16 7.1804)
(-2.84916e-17 2.79155e-16 5.81021)
(4.36823e-19 1.28543e-17 4.82501)
(-1.07902e-17 1.40463e-16 4.18267)
(3.52665e-17 -4.64802e-16 3.80859)
(-5.54758e-17 3.0912e-16 3.61383)
(-2.06367e-17 -2.31951e-16 3.52694)
(-4.98082e-17 8.70494e-17 3.48955)
(1.01499e-17 -2.04894e-16 3.46052)
(1.20333e-18 6.88378e-17 3.41541)
(-5.551e-17 2.83565e-16 3.33625)
(4.95291e-17 -1.04768e-16 3.21588)
(-3.57723e-17 2.84413e-16 3.06105)
(-2.18729e-17 -1.59895e-17 2.87993)
(-3.03457e-18 -2.87717e-17 2.6775)
(2.48436e-17 -1.88349e-16 2.45813)
(-2.30883e-17 2.18489e-16 2.2264)
(1.93631e-18 -2.90086e-17 1.99207)
(1.50752e-17 8.96355e-18 1.75817)
(-1.22737e-17 1.61607e-16 1.52384)
(2.94835e-18 -3.82932e-17 1.30283)
(-2.1451e-17 1.79697e-16 1.08968)
(2.11837e-18 -2.40008e-17 0.896364)
(-4.371e-19 -9.67814e-17 0.71845)
(3.14682e-18 -5.25975e-17 0.543632)
(-7.02893e-19 4.68343e-17 0.355343)
(3.58117e-19 -3.2305e-17 0.128161)
(9.08561e-19 -6.73066e-19 -0.195208)
(1.22637e-18 3.67092e-17 -0.647423)
(1.59957e-18 1.83201e-17 -1.27317)
(-1.12978e-17 -2.65473e-16 -2.0782)
(-2.66811e-19 3.07849e-17 -2.98754)
(4.20999e-17 -6.37117e-18 -4.00136)
(1.96966e-17 1.58844e-16 -4.98436)
(5.27843e-18 7.82013e-17 -5.86948)
(-3.64482e-18 1.03515e-18 -6.59029)
(-2.53889e-17 -2.7875e-17 -7.14437)
(1.56697e-17 6.74082e-17 -7.53718)
(1.37183e-17 -5.51017e-16 -7.81899)
(-1.20178e-17 -1.50003e-17 -8.04853)
(-3.54235e-17 2.86387e-16 -8.20294)
(3.21486e-17 2.55868e-16 -9.16507)
(7.16439e-18 4.1307e-17 -7.31928)
(-3.67618e-17 -2.03051e-16 -5.60953)
(-3.96448e-18 -3.8988e-16 -3.54039)
(-5.05668e-18 -2.85948e-17 -1.26257)
(-1.90511e-18 -3.70284e-17 0.981768)
(-3.79088e-18 -1.32985e-16 3.02976)
(-1.91914e-18 -4.25005e-17 4.5532)
(-2.14208e-18 -1.95582e-18 5.36954)
(2.76809e-21 -5.31769e-19 5.71043)
(-9.52075e-19 -8.38636e-21 5.77642)
(9.14764e-19 -5.19059e-19 5.67845)
(6.53788e-20 -2.21343e-19 5.49059)
(-4.63867e-20 -3.52593e-17 5.26204)
(2.6202e-19 3.4417e-17 5.02851)
(-3.01456e-20 1.77003e-17 4.81256)
(-2.30652e-19 -1.77316e-17 4.62551)
(-6.40794e-21 1.67521e-17 4.4708)
(-3.53331e-20 -3.50714e-17 4.34928)
(2.47272e-20 1.66172e-17 4.25712)
(1.22199e-21 2.78092e-20 4.19433)
(2.78963e-21 -5.39479e-19 4.16137)
(-5.40783e-21 4.84771e-19 4.16025)
(1.54923e-19 -1.74609e-17 4.19519)
(-1.59921e-19 1.63387e-17 4.27389)
(3.00124e-19 -1.666e-17 4.40689)
(-3.01481e-19 1.61419e-17 4.60568)
(2.48511e-19 -8.67877e-18 4.89102)
(-2.47341e-19 7.71193e-18 5.28453)
(2.49843e-20 -5.82858e-19 5.81577)
(-1.9264e-20 -4.61731e-19 6.52541)
(-3.42826e-19 -7.89304e-21 7.46793)
(4.06908e-19 -4.40012e-19 8.72881)
(-4.34064e-20 -6.54571e-19 10.4476)
(4.65239e-19 -2.87872e-18 12.8851)
(-3.82038e-19 3.4127e-18 16.5966)
(-3.9367e-21 -3.71424e-19 21.4721)
(-2.45868e-20 -2.13372e-20 21.0871)
(-6.49464e-20 -1.71342e-19 -1.00496)
(-4.14481e-20 -3.13025e-20 6.02969)
(-2.11439e-20 -5.19531e-19 7.39304)
(7.19299e-19 1.49633e-18 7.33057)
(-1.3844e-18 -4.39349e-18 6.90355)
(5.39565e-19 -1.45146e-18 6.37021)
(5.68263e-20 3.04026e-18 5.82664)
(-1.34213e-19 -1.20806e-18 5.31117)
(-3.5058e-20 -1.02477e-18 4.83839)
(1.53206e-19 -1.03384e-18 4.41265)
(-7.16698e-19 -1.243e-18 4.03381)
(1.20319e-18 -1.31091e-17 3.69984)
(-1.05425e-18 1.18024e-17 3.40773)
(2.31087e-18 -1.23889e-17 3.154)
(-1.11512e-18 2.32163e-17 2.93555)
(4.81541e-19 -2.5484e-17 2.74955)
(-1.21134e-18 9.94768e-18 2.59321)
(8.67522e-19 -1.18442e-17 2.46414)
(2.35823e-18 -1.77242e-17 2.36021)
(-1.65114e-18 2.22099e-17 2.27946)
(-3.56036e-19 2.88847e-18 2.22008)
(6.65191e-19 -2.83707e-17 2.18026)
(-1.8679e-18 2.06499e-17 2.158)
(2.37986e-18 2.88306e-17 2.15091)
(2.70038e-18 -2.13727e-17 2.15676)
(-2.53674e-18 1.59218e-19 2.17337)
(-3.82485e-18 -2.50069e-17 2.19693)
(4.92054e-18 -1.00146e-17 2.22283)
(-3.13043e-18 4.92427e-17 2.24625)
(2.3439e-18 1.33683e-17 2.26067)
(-1.49628e-18 -1.92503e-17 2.26055)
(6.56705e-18 -1.20973e-17 2.2621)
(-3.84103e-18 -4.3568e-17 2.33552)
(1.51246e-17 -1.35465e-16 2.47896)
(-3.10186e-17 -1.24883e-16 2.65137)
(-1.02552e-16 -2.21411e-16 2.83623)
(-3.8974e-18 -7.72599e-17 3.08149)
(4.90846e-17 1.3672e-16 3.56142)
(3.46553e-18 5.98191e-17 4.261)
(-8.46703e-17 -5.23932e-17 5.01546)
(-2.50129e-17 -2.85464e-19 5.84172)
(-1.47411e-16 -2.47593e-16 6.65946)
(-3.99455e-17 7.12736e-18 7.39504)
(-2.89011e-16 -4.03878e-16 8.01656)
(1.4281e-16 1.1401e-16 8.50375)
(-1.7534e-16 -1.19961e-16 8.83906)
(1.06994e-16 -3.50386e-18 9.00894)
(3.77883e-18 5.08655e-17 9.04365)
(1.97443e-18 2.94193e-17 8.96015)
(1.23078e-16 1.92313e-16 8.79378)
(-1.29939e-16 -6.75024e-17 8.55522)
(1.37847e-17 -5.03594e-17 8.26421)
(1.10872e-16 1.03454e-16 7.98438)
(-4.76495e-17 -3.26838e-17 7.73819)
(8.23206e-17 1.08911e-16 7.56002)
(6.90591e-18 1.77194e-17 7.39823)
(2.12955e-17 5.12541e-17 7.27641)
(-8.13528e-18 -2.4195e-17 7.15141)
(-8.12065e-19 -4.37487e-18 6.87477)
(-3.85505e-18 1.7618e-17 6.3168)
(-1.48956e-17 7.07712e-17 5.41874)
(-1.27796e-17 1.54339e-16 4.29549)
(1.74702e-18 1.74488e-16 3.01461)
(-1.33334e-17 1.77866e-16 1.85387)
(-1.81803e-17 -3.12489e-17 0.871162)
(2.22489e-17 9.42247e-18 0.161419)
(4.47266e-19 -3.69717e-18 -0.254814)
(-1.11212e-17 7.67584e-17 -0.426921)
(-1.82286e-17 4.42567e-16 -0.421171)
(-6.4569e-17 -2.2858e-16 -0.293247)
(-4.3043e-18 5.33825e-17 -0.102274)
(2.72816e-17 2.74472e-16 0.0879928)
(-3.40989e-17 2.23545e-16 0.239121)
(-3.69382e-17 2.42952e-16 0.342495)
(5.12958e-17 -1.03465e-16 0.39946)
(3.25426e-18 -4.82925e-17 0.411038)
(-5.64771e-17 -1.17017e-16 0.380303)
(-3.07249e-17 2.53923e-16 0.308716)
(7.21783e-19 5.74752e-18 0.209533)
(2.72179e-17 1.24783e-16 0.0897661)
(-2.51742e-17 -1.73181e-16 -0.0448443)
(1.41263e-17 1.19377e-17 -0.201352)
(5.34233e-20 -3.55714e-20 -0.364673)
(-1.06383e-17 -5.22259e-18 -0.530457)
(2.42714e-19 -1.41044e-16 -0.692161)
(-2.46339e-19 1.44979e-17 -0.849624)
(1.10485e-18 -8.07068e-18 -1.00475)
(8.39064e-20 8.5742e-18 -1.143)
(-8.40819e-20 -1.13638e-17 -1.24618)
(3.16144e-19 1.45876e-16 -1.32504)
(-3.96369e-19 -6.39056e-18 -1.40363)
(-1.44924e-17 4.23315e-18 -1.51395)
(-1.75072e-17 1.88485e-16 -1.68338)
(3.72127e-17 -1.96086e-16 -1.93418)
(-3.64317e-17 2.12657e-16 -2.24686)
(-1.29322e-17 -2.34072e-16 -2.62197)
(-8.21696e-17 1.30843e-16 -3.04648)
(-6.15574e-17 2.77259e-16 -3.47228)
(7.2466e-18 -2.04091e-16 -3.8853)
(2.63214e-17 -2.68642e-16 -4.26157)
(6.1712e-19 -5.96711e-17 -4.59089)
(-9.8723e-17 2.50462e-16 -4.8713)
(-2.04116e-17 -2.8682e-16 -5.09699)
(1.96852e-17 1.87475e-18 -5.26656)
(-7.05822e-17 -4.33539e-17 -5.36293)
(-2.11621e-18 -6.55221e-17 -5.36666)
(-9.63306e-17 4.68409e-16 -5.25338)
(-6.41378e-17 5.90905e-16 -4.96214)
(-3.27313e-17 2.99654e-16 -4.45841)
(-4.58929e-17 2.11434e-16 -3.74425)
(2.5147e-17 2.99263e-16 -2.82824)
(-4.161e-18 -3.88663e-16 -1.7349)
(-1.17214e-18 -1.26206e-17 -0.593578)
(-5.35885e-17 -1.7873e-16 0.610316)
(-2.86907e-18 4.19681e-18 1.70612)
(-9.21714e-18 -6.0371e-17 2.57176)
(-6.97106e-19 -9.30411e-18 3.1922)
(4.57766e-19 -2.65992e-17 3.43779)
(-3.50474e-21 -1.6986e-18 3.27139)
(1.77039e-20 4.17419e-18 2.74527)
(2.7067e-19 2.24438e-17 1.93513)
(-3.98555e-17 2.00411e-16 1.05656)
(2.65063e-17 -4.09186e-17 0.246541)
(2.12769e-18 -5.07681e-17 -0.372253)
(6.71876e-17 -2.15418e-16 -0.753677)
(-9.49675e-17 3.63721e-16 -0.911498)
(7.82243e-17 1.7521e-16 -0.875642)
(-2.09626e-17 4.88971e-16 -0.717498)
(-2.15114e-17 4.03818e-16 -0.502522)
(-1.54062e-17 1.26318e-16 -0.278096)
(-5.26401e-18 3.26202e-17 -0.0803207)
(3.44929e-17 7.41938e-17 0.0635215)
(2.4875e-17 -4.36021e-16 0.153296)
(3.32182e-17 1.09841e-16 0.191184)
(-5.44556e-18 1.32139e-16 0.18123)
(-8.12496e-18 -1.69867e-17 0.13007)
(-1.3291e-18 -2.56722e-20 0.0482492)
(5.84807e-17 -6.24119e-17 -0.0566957)
(4.72219e-19 -5.46431e-17 -0.187098)
(-1.38769e-17 -1.0328e-16 -0.328708)
(7.94774e-19 -1.99724e-17 -0.472987)
(1.1838e-18 1.00263e-17 -0.623435)
(2.28077e-17 5.17151e-17 -0.769057)
(5.22339e-18 -6.41569e-17 -0.907832)
(-9.16477e-18 9.92829e-17 -1.04141)
(-4.14362e-18 -5.7259e-18 -1.168)
(1.67442e-18 3.16967e-17 -1.28005)
(-6.61418e-19 -3.46378e-17 -1.37361)
(-5.87881e-19 7.55009e-17 -1.45991)
(-6.40391e-18 -2.14514e-18 -1.57988)
(2.46266e-18 1.53732e-18 -1.76744)
(1.08061e-17 7.97793e-18 -2.04434)
(-1.49413e-17 -4.50047e-17 -2.40029)
(-7.53347e-17 4.61508e-16 -2.84627)
(-4.19133e-17 1.33311e-16 -3.32824)
(-1.0575e-17 7.2327e-17 -3.84187)
(-3.01789e-19 -3.80573e-17 -4.35234)
(1.26115e-16 -3.82592e-16 -4.84637)
(-3.71682e-17 8.30292e-17 -5.31447)
(7.61817e-18 3.26422e-16 -5.75161)
(1.86738e-17 6.33437e-17 -6.17325)
(1.90766e-18 -2.40679e-16 -6.55519)
(-3.25275e-17 3.89933e-17 -6.98746)
(1.81124e-17 3.53786e-17 -6.3017)
(8.46272e-17 -3.00144e-16 -6.14572)
(1.3042e-17 2.04202e-16 -5.7887)
(3.98144e-18 1.6966e-17 -5.22941)
(-1.5146e-18 -2.9383e-18 -4.56949)
(1.40197e-17 3.6398e-17 -3.81522)
(2.24257e-18 4.10245e-17 -2.97093)
(5.0424e-19 -3.25052e-17 -2.16048)
(-1.41746e-18 -1.01401e-19 -1.54134)
(-3.32484e-19 -3.57702e-17 -1.0962)
(7.83402e-20 3.35968e-17 -0.807426)
(3.82785e-20 2.01556e-18 -0.640805)
(3.72049e-19 3.50077e-17 -0.556146)
(-2.98479e-19 3.26081e-19 -0.524929)
(1.10204e-20 -1.81829e-17 -0.530448)
(-2.28627e-20 -1.58104e-17 -0.556404)
(-8.6242e-20 -1.71394e-17 -0.591261)
(9.54418e-20 1.68644e-17 -0.626052)
(-3.08234e-20 -5.25359e-19 -0.656314)
(7.24844e-21 1.75546e-17 -0.678321)
(-8.82549e-21 -1.80764e-17 -0.68801)
(-7.04581e-21 -5.93772e-19 -0.685373)
(8.26117e-20 -1.55986e-17 -0.669106)
(-9.38933e-20 1.88241e-17 -0.630997)
(1.82356e-19 -1.68652e-17 -0.563656)
(-3.77157e-19 1.8494e-17 -0.458897)
(3.24758e-19 -6.58268e-18 -0.306871)
(-1.75574e-19 8.68048e-18 -0.0922466)
(-4.12519e-20 -5.60051e-19 0.207258)
(-4.54921e-20 1.69502e-18 0.6214)
(-4.85396e-19 6.21264e-18 1.1952)
(3.95413e-19 -7.09782e-18 1.993)
(-1.34592e-19 1.37417e-18 3.10012)
(-3.89871e-19 1.29905e-19 4.56132)
(6.14274e-19 -5.89953e-19 6.09431)
(1.97453e-19 3.10209e-19 5.83843)
(-1.89792e-19 -9.8598e-20 -1.91381)
(-2.1327e-19 2.57785e-19 -4.63415)
(-1.07769e-18 5.51787e-21 0.561342)
(5.83241e-19 -4.2249e-19 2.60422)
(-6.82468e-20 4.18794e-19 3.54264)
(1.10583e-19 -6.36535e-19 3.98182)
(1.40347e-18 2.18723e-18 4.15709)
(-1.74328e-18 -1.79171e-18 4.18171)
(4.6484e-19 4.91702e-19 4.1209)
(2.14697e-19 8.38016e-19 4.01385)
(4.00185e-19 2.58502e-18 3.88467)
(2.1914e-19 1.14523e-18 3.74826)
(1.13024e-18 3.83763e-18 3.61459)
(-1.36068e-18 -1.07485e-17 3.48752)
(2.11079e-18 2.10792e-17 3.37002)
(-2.12495e-18 -7.675e-18 3.26451)
(2.37043e-18 1.16297e-17 3.1719)
(-1.31152e-18 -6.01838e-18 3.09199)
(2.74005e-19 1.15005e-18 3.02427)
(4.77707e-18 2.5443e-17 2.96834)
(-4.78803e-18 -1.82492e-17 2.92391)
(4.12867e-19 -8.22501e-19 2.89086)
(4.63432e-18 6.72339e-18 2.86845)
(-5.13593e-18 -2.44646e-17 2.85516)
(-2.12964e-18 1.77847e-17 2.84933)
(2.36045e-18 2.71625e-17 2.84934)
(-4.28828e-18 -1.14867e-17 2.85339)
(7.43648e-18 -2.73408e-17 2.85903)
(8.25228e-19 1.66938e-17 2.86288)
(-4.4516e-18 3.23249e-18 2.86)
(-4.56998e-18 -5.63728e-20 2.84491)
(9.19176e-18 2.23005e-19 2.81856)
(-5.78275e-19 -2.14249e-17 2.78166)
(1.28527e-17 5.49432e-17 2.74324)
(3.4365e-17 1.63886e-16 2.65676)
(1.02961e-18 -5.79682e-17 2.48262)
(3.801e-17 2.07776e-17 2.23144)
(-6.39082e-17 -1.31966e-16 1.98402)
(4.50448e-18 -7.41524e-17 1.87522)
(8.92618e-17 1.0329e-16 1.91941)
(-1.46573e-17 -3.14547e-17 2.04572)
(2.50333e-16 2.01541e-16 2.28184)
(9.80571e-18 1.53521e-16 2.58407)
(-8.16001e-17 3.36878e-17 2.90128)
(-4.20811e-17 -9.05857e-18 3.21011)
(-9.19214e-19 -9.37664e-17 3.4936)
(1.37294e-16 1.92236e-16 3.7352)
(-3.34544e-16 -1.49605e-16 3.92043)
(-6.96029e-17 -7.67985e-17 4.05269)
(-2.199e-17 -1.61375e-17 4.12544)
(-2.88168e-17 -4.54289e-17 4.13884)
(1.10275e-16 1.19177e-16 4.09484)
(-3.4833e-17 -1.15739e-17 3.99239)
(-4.82523e-17 -5.98187e-17 3.85689)
(1.04268e-17 -1.22715e-17 3.66733)
(5.97619e-17 5.45233e-17 3.48802)
(-2.45784e-17 -2.90172e-18 3.31258)
(-3.05378e-17 -3.64175e-17 3.14652)
(1.31946e-17 1.46403e-17 2.97049)
(6.32583e-19 5.31212e-18 2.7385)
(3.43626e-19 1.16104e-18 2.35812)
(1.0399e-17 8.62953e-18 1.83307)
(2.2558e-17 -2.57895e-17 1.07578)
(6.1137e-17 -3.61495e-17 0.141794)
(7.82657e-18 -1.80178e-16 -0.877536)
(3.61825e-17 1.72146e-16 -1.84213)
(9.55079e-18 -2.53262e-16 -2.64681)
(-2.9725e-17 4.94502e-17 -3.21798)
(3.49214e-18 -6.32073e-17 -3.55162)
(3.54126e-17 -4.58413e-16 -3.67289)
(-1.1526e-17 5.53999e-16 -3.60215)
(2.56935e-17 -1.18814e-16 -3.40903)
(4.84577e-17 -2.43716e-16 -3.15343)
(5.74791e-17 2.00978e-17 -2.8693)
(5.28963e-17 1.09484e-16 -2.58823)
(1.99208e-17 -2.88368e-16 -2.33927)
(-4.60722e-17 -5.10707e-17 -2.13587)
(-2.27428e-17 4.51804e-16 -1.98135)
(2.40973e-17 -9.89941e-17 -1.87296)
(2.17893e-17 -7.765e-17 -1.80799)
(1.1637e-17 -2.99116e-16 -1.77381)
(-1.09699e-17 3.88257e-16 -1.76229)
(-1.35201e-17 -2.74422e-17 -1.76167)
(1.25614e-17 -9.1252e-18 -1.77017)
(-1.46748e-19 6.54463e-18 -1.76558)
(-1.00862e-17 1.42076e-16 -1.75784)
(5.91467e-19 -1.18291e-17 -1.72402)
(-3.25722e-18 -3.39499e-17 -1.66478)
(1.90778e-19 6.50462e-19 -1.55517)
(-1.0678e-18 -2.45231e-17 -1.39297)
(-4.48017e-18 -1.47253e-16 -1.20629)
(-7.44418e-19 2.63754e-18 -1.02123)
(1.54729e-17 -3.29491e-16 -0.865396)
(8.92456e-18 -2.21954e-16 -0.773982)
(-3.27403e-17 3.8773e-16 -0.77853)
(-2.3645e-17 5.64653e-17 -0.885905)
(6.51796e-17 -1.74326e-16 -1.10232)
(7.79689e-17 -4.64609e-16 -1.41216)
(2.3204e-17 -2.99713e-16 -1.77003)
(3.92253e-17 -1.02112e-17 -2.14746)
(-7.40053e-17 2.49296e-16 -2.50464)
(-2.20452e-19 5.65792e-17 -2.81253)
(2.59525e-17 -2.9663e-16 -3.05122)
(2.46195e-17 -2.53203e-17 -3.20968)
(-8.60757e-17 2.9473e-16 -3.29429)
(5.23275e-17 -2.53918e-16 -3.3442)
(1.71465e-18 2.47818e-17 -3.34129)
(5.68589e-17 -5.93553e-16 -3.29654)
(-3.55239e-17 -3.97087e-16 -3.19478)
(-6.02505e-17 -4.50176e-17 -3.02901)
(2.67301e-18 -2.64905e-16 -2.7911)
(-2.72449e-17 -5.81807e-17 -2.47551)
(3.80508e-17 2.23819e-16 -2.07469)
(4.46825e-19 2.17537e-17 -1.64807)
(2.14534e-17 -1.41569e-16 -1.19443)
(1.65564e-19 1.93323e-18 -0.756201)
(1.90292e-18 6.64448e-19 -0.391761)
(-1.14075e-19 1.61526e-18 -0.120166)
(-2.98155e-18 2.67008e-17 -0.0203824)
(-6.70203e-19 -1.92259e-18 -0.151036)
(8.41877e-19 -3.6975e-18 -0.512644)
(-5.49228e-19 9.59189e-18 -1.11104)
(2.74265e-17 -2.38376e-17 -1.86401)
(2.24427e-17 -1.56492e-17 -2.63104)
(-3.26257e-18 -2.5311e-17 -3.31623)
(-6.19663e-17 -1.63803e-16 -3.81288)
(6.66841e-17 1.75235e-16 -4.1205)
(-6.58491e-19 -5.48757e-16 -4.22934)
(7.57232e-17 -2.3288e-16 -4.14385)
(1.0533e-16 -8.8319e-17 -3.92534)
(1.95001e-18 -2.18338e-16 -3.63946)
(1.98305e-17 -1.33738e-18 -3.33474)
(1.72329e-17 -2.2512e-16 -3.0333)
(-6.01538e-17 3.0532e-17 -2.75317)
(9.55118e-18 -1.04466e-17 -2.51812)
(2.83513e-17 -2.58059e-17 -2.33785)
(-2.03189e-17 4.09896e-17 -2.20608)
(-1.04284e-17 -2.38444e-16 -2.11365)
(-7.86319e-18 -3.05116e-16 -2.05542)
(-7.88718e-19 7.84456e-17 -2.01746)
(3.86841e-18 1.73519e-16 -1.99165)
(2.40853e-17 1.53569e-16 -1.96936)
(1.15332e-17 -7.57458e-17 -1.9392)
(3.3164e-18 -1.03221e-16 -1.9084)
(-6.76406e-18 -5.05731e-17 -1.85583)
(1.12558e-17 7.1946e-17 -1.78263)
(-8.19139e-19 1.11926e-17 -1.66913)
(-3.91184e-19 -2.06492e-18 -1.50562)
(-3.25582e-18 -1.10253e-16 -1.3196)
(-7.86367e-19 -6.97984e-17 -1.13636)
(1.08497e-17 -2.22965e-16 -0.987319)
(-9.74579e-19 9.22299e-17 -0.907975)
(4.9368e-18 -3.4394e-17 -0.927063)
(3.83705e-17 -1.88641e-16 -1.0579)
(5.49684e-17 -4.68472e-16 -1.31594)
(1.8217e-17 -2.83306e-16 -1.65899)
(6.41082e-18 8.02118e-18 -2.07561)
(7.59815e-17 -3.12346e-16 -2.52297)
(-1.50059e-16 7.34369e-16 -2.97089)
(-4.74323e-17 1.26284e-16 -3.39073)
(-3.66199e-18 -2.08268e-17 -3.75585)
(-9.39789e-17 2.91981e-16 -4.06876)
(3.45142e-17 5.59888e-17 -4.26234)
(-3.51195e-18 -1.48097e-17 -4.31745)
(-6.89285e-17 1.758e-16 -3.9252)
(-2.56187e-17 3.34065e-16 -3.97169)
(-3.40108e-18 1.63911e-17 -3.94891)
(3.29551e-18 5.07777e-18 -3.81249)
(1.8236e-17 -1.04684e-16 -3.63846)
(-1.47543e-17 8.36185e-17 -3.40406)
(1.55507e-18 1.50541e-18 -3.10121)
(1.64652e-18 -3.32439e-18 -2.71963)
(1.16169e-18 -3.90252e-17 -2.26548)
(7.29662e-19 1.19467e-19 -1.76551)
(-1.47792e-18 -2.24886e-18 -1.31755)
(5.9754e-19 -3.09378e-18 -0.955363)
(-6.63977e-19 -3.65477e-17 -0.674399)
(-3.12447e-19 -3.0592e-18 -0.474992)
(8.85122e-19 3.7602e-17 -0.332269)
(2.22833e-20 -9.17868e-19 -0.233116)
(2.21464e-19 1.84715e-17 -0.167643)
(-1.80443e-19 -1.94577e-17 -0.125042)
(-3.78512e-20 1.07527e-18 -0.0936035)
(2.75921e-21 2.05753e-21 -0.0679631)
(-1.61752e-21 1.12696e-18 -0.0434413)
(-1.15085e-20 2.18506e-18 -0.0161259)
(9.44337e-20 -1.91929e-17 0.0171668)
(-7.19356e-20 1.69119e-17 0.0599021)
(2.33418e-19 -1.74773e-17 0.115843)
(-7.15765e-19 3.37354e-17 0.192024)
(7.59879e-19 -2.6924e-17 0.29287)
(-1.9222e-19 8.73077e-18 0.430388)
(-1.57526e-19 2.79103e-18 0.619213)
(1.04575e-19 -9.84414e-19 0.881125)
(3.49046e-19 1.44154e-19 1.24766)
(-5.22673e-19 2.18193e-18 1.75198)
(4.18363e-20 -7.72864e-19 2.39639)
(4.08592e-20 1.30214e-19 3.03307)
(-4.35014e-19 1.38503e-19 3.00888)
(9.83957e-19 -4.83139e-19 0.511334)
(1.04163e-18 4.89116e-19 -7.43717)
(-5.24964e-19 2.79852e-19 -4.39124)
(1.70759e-20 -2.18446e-19 -1.09782)
(-3.58245e-19 1.83715e-19 0.645939)
(-7.60782e-19 2.99571e-21 1.77193)
(4.72413e-19 -5.62528e-19 2.53554)
(1.5569e-18 1.41575e-18 3.04309)
(-1.19401e-18 -7.2088e-19 3.37739)
(4.76655e-19 1.98184e-19 3.59362)
(-1.01008e-19 3.17127e-19 3.72991)
(-1.54347e-18 -1.53293e-18 3.81256)
(6.32885e-19 -1.47097e-19 3.85937)
(-3.11517e-19 -6.6326e-19 3.8826)
(-2.45538e-20 1.79247e-19 3.88979)
(-1.40851e-18 -2.08188e-18 3.88635)
(5.06123e-19 -1.78149e-19 3.87635)
(-1.02237e-18 2.04122e-19 3.86248)
(6.81828e-20 -1.12462e-18 3.8464)
(3.70797e-20 -1.37714e-17 3.82923)
(-3.98063e-18 2.57612e-17 3.81165)
(2.84729e-18 -1.37109e-17 3.79416)
(2.42175e-18 -4.11951e-18 3.77701)
(-2.6857e-18 1.71414e-17 3.75987)
(1.95123e-18 -1.46029e-17 3.74175)
(-2.28993e-18 -4.26409e-18 3.72143)
(-3.51576e-18 2.88517e-18 3.69753)
(2.29017e-18 -2.08258e-17 3.66809)
(7.80336e-19 1.36228e-17 3.63082)
(-3.46685e-18 -8.72673e-19 3.58232)
(-8.20154e-19 2.06713e-17 3.5171)
(3.05179e-18 -1.71819e-17 3.42968)
(3.52708e-19 2.18572e-17 3.31641)
(3.16855e-18 -8.60554e-18 3.14955)
(-2.19176e-17 -5.96492e-17 2.92048)
(-2.33197e-17 -4.53475e-17 2.59106)
(6.14927e-17 3.96238e-17 2.15372)
(-3.00405e-17 -1.09232e-17 1.64768)
(2.42304e-17 -8.55748e-18 1.16509)
(7.80035e-18 -2.96325e-17 0.813645)
(-3.7297e-17 -4.38487e-17 0.605327)
(6.17577e-18 3.44067e-17 0.509238)
(-3.81612e-17 -7.91408e-17 0.550408)
(-6.49676e-18 -7.21617e-17 0.695396)
(3.34461e-16 1.42828e-16 0.905199)
(1.13124e-16 1.40979e-16 1.15958)
(2.39317e-17 3.6369e-17 1.44065)
(1.81663e-19 6.98368e-18 1.72858)
(6.80601e-17 9.99734e-18 2.00289)
(3.51463e-16 1.67474e-16 2.25028)
(1.33493e-16 1.45677e-16 2.45242)
(1.48043e-17 -1.83731e-17 2.59677)
(2.34086e-16 1.33707e-16 2.67437)
(-1.90952e-18 7.79791e-17 2.68335)
(-1.13287e-16 -7.56134e-17 2.63735)
(-5.47664e-19 -2.45358e-17 2.5395)
(-2.2406e-17 -2.14629e-17 2.4198)
(4.54863e-17 3.16047e-17 2.29238)
(1.96038e-17 2.60036e-17 2.17925)
(-2.26893e-17 -2.75286e-17 2.07903)
(4.21204e-18 5.50413e-18 1.97119)
(3.75155e-18 6.49275e-18 1.78253)
(-1.39999e-17 -3.84008e-17 1.46329)
(5.85918e-18 -2.97037e-17 0.907346)
(1.40292e-17 -1.50472e-16 0.1547)
(-2.64656e-17 1.92066e-16 -0.813666)
(-2.45713e-18 -4.01637e-16 -1.85849)
(-8.03743e-17 5.25581e-17 -2.90027)
(2.91102e-17 2.76396e-16 -3.83502)
(-9.48668e-19 3.7676e-17 -4.58)
(-6.96136e-17 2.82647e-16 -5.11232)
(5.41217e-17 -4.30107e-16 -5.40291)
(-5.11351e-17 -1.74516e-16 -5.48409)
(-2.72465e-17 2.18764e-17 -5.38511)
(8.3972e-18 -2.70145e-16 -5.16194)
(2.19431e-17 -1.91394e-16 -4.86735)
(-5.291e-17 1.12879e-16 -4.54446)
(6.61023e-18 4.17541e-16 -4.22398)
(5.52751e-17 -3.38476e-16 -3.92676)
(-2.88462e-18 3.57236e-17 -3.65534)
(-2.92038e-17 -1.64576e-16 -3.41977)
(-3.7243e-17 2.1532e-16 -3.20921)
(5.01266e-17 -2.1961e-16 -3.01689)
(2.41443e-17 1.72063e-16 -2.82411)
(-2.29005e-17 -1.78502e-16 -2.64745)
(-1.06153e-17 2.00978e-17 -2.45334)
(9.18431e-18 -8.87319e-18 -2.25801)
(-3.36197e-19 -2.73113e-18 -2.02474)
(9.30976e-19 4.34199e-17 -1.76593)
(-2.97033e-20 -1.69483e-18 -1.4707)
(1.80538e-18 4.39768e-17 -1.1438)
(3.85858e-18 7.79725e-17 -0.803651)
(-1.48373e-18 -2.84897e-17 -0.476703)
(7.51425e-18 1.97128e-16 -0.193165)
(-1.96927e-17 2.0229e-16 0.00899582)
(6.82659e-18 -2.02522e-16 0.0982546)
(-1.47919e-17 -3.33507e-17 0.0645608)
(-1.78427e-17 2.04139e-16 -0.0915924)
(-2.49714e-17 2.70472e-16 -0.34705)
(1.54033e-17 3.24031e-17 -0.65326)
(-9.44064e-17 2.71935e-16 -0.96844)
(1.18093e-16 -5.07809e-16 -1.24448)
(3.62117e-19 -5.08494e-17 -1.44427)
(2.33107e-17 2.51721e-17 -1.55185)
(-3.54954e-20 2.70469e-17 -1.58803)
(3.93047e-17 -3.03708e-16 -1.55649)
(2.90075e-17 -2.05481e-17 -1.49801)
(-2.31162e-18 4.59524e-18 -1.43195)
(6.06319e-17 7.53195e-17 -1.36803)
(1.10926e-16 -2.01719e-16 -1.32114)
(4.99959e-17 -2.77446e-16 -1.28727)
(7.5488e-18 -1.45104e-17 -1.25216)
(0 -0 -1.19706)
(-9.1964e-18 -6.19842e-18 -1.0975)
(-6.73105e-18 -7.54019e-18 -0.972999)
(1.31867e-17 7.6406e-17 -0.793257)
(-3.05032e-18 6.41414e-17 -0.590253)
(-3.74302e-19 9.08113e-19 -0.370595)
(4.03843e-19 3.31885e-18 -0.180469)
(1.79808e-18 -3.24156e-19 -0.0863798)
(6.02328e-19 -1.57291e-19 -0.155899)
(-1.10784e-18 4.46578e-19 -0.448777)
(1.7677e-17 -8.49405e-18 -0.962005)
(-1.10328e-18 -1.213e-17 -1.69896)
(-4.19354e-17 -1.87361e-16 -2.55216)
(1.48141e-18 3.75338e-17 -3.47169)
(-2.33032e-17 2.27318e-16 -4.31322)
(2.22854e-17 -2.78282e-16 -5.01889)
(-4.88888e-17 3.45395e-16 -5.54291)
(-3.17164e-17 -3.22129e-17 -5.83439)
(1.5862e-17 -2.30891e-16 -5.92075)
(-4.31873e-18 2.19262e-16 -5.82094)
(-3.84329e-17 -1.73059e-16 -5.59898)
(1.72298e-17 2.70005e-16 -5.29469)
(-3.02185e-17 -7.54166e-17 -4.95448)
(-2.09638e-17 -2.38882e-18 -4.61227)
(3.95209e-17 4.77308e-17 -4.28831)
(3.12527e-17 1.47347e-16 -3.99431)
(-4.8617e-17 7.1817e-17 -3.72896)
(-4.21648e-17 2.11303e-16 -3.48947)
(-1.97118e-17 8.89597e-18 -3.26037)
(-2.17684e-18 -2.68492e-16 -3.04557)
(-2.31047e-17 -3.14017e-16 -2.83814)
(-2.88641e-17 -1.53769e-16 -2.61536)
(2.79945e-19 5.8046e-17 -2.39351)
(7.87851e-19 3.47262e-17 -2.1413)
(1.19506e-18 -3.57409e-17 -1.86508)
(1.70006e-18 1.88868e-17 -1.55789)
(-1.4749e-18 -3.23496e-18 -1.22295)
(4.17953e-18 1.56811e-16 -0.877398)
(7.38607e-19 -5.47173e-18 -0.546281)
(-2.02038e-18 2.21117e-16 -0.263706)
(-2.19488e-17 1.52181e-16 -0.06787)
(1.09002e-18 -2.18374e-18 0.0114793)
(-4.00521e-18 1.6058e-16 -0.039726)
(-2.10523e-17 3.37628e-16 -0.226821)
(7.01663e-17 -1.5737e-16 -0.5094)
(-5.4243e-17 1.57591e-16 -0.859884)
(-6.02272e-17 3.90278e-16 -1.22531)
(4.17661e-17 -3.48969e-16 -1.56634)
(7.57348e-17 -3.30237e-16 -1.84852)
(-1.1037e-16 3.74366e-16 -2.04458)
(7.08921e-17 -3.98685e-16 -2.15677)
(-9.93227e-17 2.80168e-16 -2.16803)
(6.64056e-19 1.3719e-16 -2.02354)
(4.92604e-17 -3.57779e-16 -1.72736)
(-2.35279e-17 -4.03386e-17 -1.69585)
(-5.99622e-17 2.34114e-16 -1.66994)
(-1.06895e-17 6.01403e-17 -1.61687)
(-6.80512e-18 1.06348e-16 -1.56645)
(1.09198e-17 -9.4233e-17 -1.49511)
(-3.85992e-18 4.11075e-17 -1.38943)
(4.52866e-18 -4.12748e-17 -1.20736)
(1.81966e-18 -1.04201e-18 -0.89276)
(-5.59775e-19 -1.92584e-18 -0.472055)
(-1.6915e-19 -3.54171e-17 -0.0273601)
(1.62625e-19 3.86377e-17 0.386425)
(1.19752e-18 3.71903e-17 0.737624)
(-3.94246e-19 -3.1635e-17 1.01806)
(-2.89189e-19 1.79094e-17 1.23339)
(-2.84628e-19 -1.79386e-17 1.39536)
(-9.98652e-21 -1.21901e-19 1.51884)
(2.01249e-19 2.0313e-17 1.61228)
(-1.64811e-19 -1.79072e-17 1.68529)
(5.08153e-20 1.99986e-17 1.74476)
(-4.41883e-20 -1.78459e-17 1.79539)
(2.92313e-20 -2.25237e-18 1.84495)
(-1.05433e-19 2.08619e-18 1.89961)
(4.84558e-20 -4.55435e-21 1.95884)
(-2.29096e-19 1.23353e-20 2.02501)
(3.41773e-19 1.99317e-18 2.10257)
(-3.61788e-19 -1.74153e-20 2.19866)
(6.52218e-20 -6.9831e-20 2.32177)
(4.63177e-19 -3.71815e-18 2.48275)
(-3.36857e-19 6.64991e-20 2.69629)
(3.23423e-19 -3.13028e-19 2.9779)
(2.11554e-18 -5.13919e-18 3.3226)
(-1.25127e-18 2.85663e-18 3.64016)
(2.47394e-19 -1.6561e-19 3.60071)
(-1.58136e-19 2.16433e-20 2.36002)
(-1.55585e-19 2.10464e-19 -1.51938)
(-1.03757e-18 -2.34657e-19 -8.89754)
(7.88498e-19 1.27609e-19 -3.79905)
(-8.77503e-19 5.00465e-19 -1.64778)
(-1.51559e-18 -3.67375e-19 -0.322929)
(2.42284e-18 6.0631e-20 0.664957)
(-4.62261e-18 4.93758e-19 1.44079)
(1.3944e-18 -9.01233e-19 2.03378)
(3.53609e-19 5.0955e-19 2.47144)
(-9.08768e-19 -5.39208e-19 2.79886)
(-4.36953e-20 6.55743e-19 3.04643)
(-2.79749e-18 -3.66529e-18 3.2361)
(2.8485e-18 2.00152e-18 3.38305)
(-9.18768e-19 1.89012e-19 3.49788)
(-2.05627e-18 -4.82085e-18 3.58782)
(2.84187e-18 2.78705e-18 3.65811)
(-6.28125e-19 -3.38624e-19 3.71264)
(-4.69911e-19 1.23058e-20 3.75423)
(1.12103e-18 -1.69299e-18 3.78492)
(1.26181e-18 7.21516e-18 3.80618)
(-2.06923e-18 -1.79979e-17 3.81902)
(2.42905e-18 6.22295e-18 3.82406)
(1.12367e-18 1.47809e-17 3.82158)
(-3.36821e-18 -9.55749e-18 3.81129)
(2.85312e-18 -2.58363e-18 3.79239)