/*--------------------------------*- C++ -*----------------------------------*\
| =========                 |                                                 |
| \\      /  F ield         | OpenFOAM: The Open Source CFD Toolbox           |
|  \\    /   O peration     | Version:  2506                                  |
|   \\  /    A nd           | Website:  www.openfoam.com                      |
|    \\/     M anipulation  |                                                 |
\*---------------------------------------------------------------------------*/
FoamFile
{
    version     2.0;
    format      ascii;
    arch        "LSB;label=32;scalar=64";
    class       volScalarField;
    location    "1.35";
    object      p;
}
// * * * * * * * * * * * * * * * * * * * * * * * * * * * * * * * * * * * * * //

dimensions      [0 2 -2 0 0 0 0];

internalField   nonuniform List<scalar> 
4000
(
7.53202e-06
2.63187e-05
3.2228e-05
3.29267e-05
3.24628e-05
3.15453e-05
3.04613e-05
2.94645e-05
2.86009e-05
2.79663e-05
2.76114e-05
2.75281e-05
2.77226e-05
2.82101e-05
2.90011e-05
3.01046e-05
3.15296e-05
3.32864e-05
3.53829e-05
3.78378e-05
4.06683e-05
4.38673e-05
4.74854e-05
5.15418e-05
5.6061e-05
6.10739e-05
6.66183e-05
7.27446e-05
7.95207e-05
8.70396e-05
9.55039e-05
0.000104993
0.000114922
0.000124518
0.000133426
0.000141487
0.000148738
0.000154535
0.000158548
0.000161662
0.000164046
0.000165658
0.000166531
0.000166639
0.000165911
0.000164204
0.000161377
0.000157232
0.000151639
0.00014442
0.000135584
0.000125271
0.000113566
0.000100639
8.66678e-05
7.16885e-05
5.58105e-05
3.85773e-05
1.99583e-05
4.072e-07
-1.98958e-05
-4.05695e-05
-5.90935e-05
-7.60693e-05
-8.96612e-05
-0.000100642
-0.000108978
-0.000114879
-0.000118768
-0.000120986
-0.000121738
-0.000121162
-0.000119391
-0.000116521
-0.000112613
-0.000107707
-0.000101823
-9.49334e-05
-8.70711e-05
-7.82234e-05
-6.83519e-05
-5.73312e-05
-4.52175e-05
-3.18785e-05
-1.73821e-05
-1.67695e-06
1.4917e-05
3.20224e-05
4.90966e-05
6.54724e-05
8.05678e-05
9.41276e-05
0.000105765
0.000115624
0.000123574
0.00013002
0.000135181
0.000139102
0.000142091
0.000144208
0.000145372
0.000145412
0.000144125
0.000141374
0.000137123
0.000131465
0.000124537
0.000116453
0.000107642
9.8522e-05
8.89054e-05
7.86501e-05
6.85173e-05
5.71003e-05
4.49964e-05
3.10989e-05
1.55503e-05
-1.31117e-06
-1.93464e-05
-3.83782e-05
-5.63542e-05
-7.30432e-05
-8.71361e-05
-9.91686e-05
-0.000108312
-0.000115246
-0.000120252
-0.000123503
-0.000125185
-0.000125517
-0.000124635
-0.000122634
-0.000119575
-0.000115484
-0.0001104
-0.000104337
-9.72945e-05
-8.92594e-05
-8.01267e-05
-6.99402e-05
-5.86574e-05
-4.61064e-05
-3.24058e-05
-1.7438e-05
-1.42652e-06
1.53208e-05
3.23545e-05
4.89924e-05
6.45529e-05
7.86498e-05
9.08953e-05
0.000101122
0.000109364
0.000115852
0.000120543
0.00012386
0.000125974
0.000126903
0.000126485
0.000124477
0.000120309
0.000112694
9.98246e-05
7.71109e-05
6.57764e-05
5.85718e-05
4.999e-05
4.18759e-05
3.5096e-05
3.00083e-05
2.72205e-05
2.60429e-05
2.44369e-05
2.25908e-05
2.07146e-05
1.87727e-05
1.67879e-05
1.48179e-05
1.28989e-05
1.1052e-05
9.28544e-06
7.60263e-06
6.00608e-06
4.49848e-06
3.08651e-06
1.78318e-06
6.07964e-07
-4.11283e-07
-1.22509e-06
-1.7803e-06
-1.9949e-06
-1.7567e-06
-9.15527e-07
6.467e-07
3.07596e-06
6.60835e-06
1.16575e-05
1.8927e-05
3.10155e-05
5.42285e-05
1.91448e-05
2.73196e-05
3.02677e-05
3.0853e-05
3.05627e-05
2.98768e-05
2.90472e-05
2.82551e-05
2.7581e-05
2.71237e-05
2.69219e-05
2.69427e-05
2.72026e-05
2.77378e-05
2.85638e-05
2.96878e-05
3.11189e-05
3.28671e-05
3.4943e-05
3.73613e-05
4.01384e-05
4.3313e-05
4.68774e-05
5.08601e-05
5.52884e-05
6.01915e-05
6.56025e-05
7.15616e-05
7.81195e-05
8.53454e-05
9.3309e-05
0.000102038
0.000111084
0.000119918
0.000128162
0.000135701
0.000142455
0.000147672
0.000151327
0.000154056
0.000155965
0.000157084
0.000157445
0.00015701
0.000155685
0.000153362
0.000149902
0.000145157
0.000139031
0.000131469
0.000122512
0.000112377
0.000101205
8.92388e-05
7.66988e-05
6.37198e-05
5.03728e-05
3.64967e-05
2.18805e-05
6.20786e-06
-1.01815e-05
-2.7263e-05
-4.40259e-05
-6.01681e-05
-7.40762e-05
-8.59367e-05
-9.53928e-05
-0.000102556
-0.00010761
-0.000110897
-0.000112608
-0.000112902
-0.00011192
-0.000109772
-0.000106531
-0.000102247
-9.69547e-05
-9.06292e-05
-8.3303e-05
-7.49727e-05
-6.5613e-05
-5.51066e-05
-4.35029e-05
-3.06882e-05
-1.67302e-05
-1.60276e-06
1.43844e-05
3.08198e-05
4.71689e-05
6.27224e-05
7.69353e-05
8.95421e-05
0.000100279
0.000109276
0.000116541
0.000122422
0.000127086
0.000130603
0.000133178
0.000134806
0.000135375
0.00013473
0.000132739
0.000129364
0.000124637
0.000118721
0.000111796
0.000104071
9.59224e-05
8.75214e-05
7.87022e-05
6.94993e-05
6.01813e-05
5.00994e-05
3.94639e-05
2.77886e-05
1.50695e-05
1.32653e-06
-1.32586e-05
-2.88234e-05
-4.45577e-05
-5.97998e-05
-7.33523e-05
-8.5485e-05
-9.51995e-05
-0.000102882
-0.000108642
-0.00011267
-0.000115084
-0.000116081
-0.000115801
-0.000114348
-0.000111795
-0.000108176
-0.00010353
-9.78811e-05
-9.12327e-05
-8.35858e-05
-7.48431e-05
-6.50388e-05
-5.41586e-05
-4.2044e-05
-2.88115e-05
-1.43763e-05
1.04647e-06
1.71236e-05
3.33568e-05
4.90677e-05
6.35772e-05
7.64858e-05
8.74719e-05
9.64583e-05
0.000103565
0.00010899
0.000112798
0.000115301
0.000116554
0.000116459
0.000114739
0.000110963
0.000104543
9.4716e-05
8.09339e-05
6.41506e-05
5.67911e-05
5.12848e-05
4.45433e-05
3.84479e-05
3.36403e-05
3.0099e-05
2.77716e-05
2.61651e-05
2.43117e-05
2.23859e-05
2.04373e-05
1.84558e-05
1.64609e-05
1.4505e-05
1.26123e-05
1.07946e-05
9.05764e-06
7.40392e-06
5.83482e-06
4.35372e-06
2.96802e-06
1.69115e-06
5.44558e-07
-4.39556e-07
-1.22164e-06
-1.73681e-06
-1.90313e-06
-1.60263e-06
-6.40311e-07
1.08426e-06
3.70458e-06
7.51646e-06
1.28197e-05
1.97598e-05
2.8618e-05
4.02777e-05
2.47684e-05
2.71625e-05
2.82987e-05
2.86619e-05
2.84925e-05
2.80206e-05
2.74336e-05
2.68647e-05
2.63952e-05
2.60924e-05
2.59943e-05
2.6108e-05
2.64503e-05
2.70449e-05
2.79086e-05
2.90536e-05
3.04908e-05
3.22313e-05
3.42898e-05
3.668e-05
3.94204e-05
4.25271e-05
4.60187e-05
4.99151e-05
5.42402e-05
5.902e-05
6.42834e-05
7.00626e-05
7.63961e-05
8.33497e-05
9.09756e-05
9.90367e-05
0.000107359
0.000115566
0.000123343
0.00013045
0.000136707
0.000141442
0.000144688
0.000146921
0.000148303
0.00014888
0.000148663
0.000147652
0.000145741
0.000142818
0.000138784
0.000133537
0.000127031
0.000119278
0.00011039
0.000100617
9.01322e-05
7.92135e-05
6.80697e-05
5.68878e-05
4.5683e-05
3.44218e-05
2.28138e-05
1.04892e-05
-2.58568e-06
-1.66631e-05
-3.15144e-05
-4.60041e-05
-5.96624e-05
-7.19236e-05
-8.21149e-05
-9.03706e-05
-9.64667e-05
-0.000100805
-0.000103466
-0.000104627
-0.000104432
-0.000103007
-0.000100433
-9.67705e-05
-9.20651e-05
-8.62994e-05
-7.95096e-05
-7.16976e-05
-6.28476e-05
-5.28569e-05
-4.17775e-05
-2.95077e-05
-1.61258e-05
-1.6271e-06
1.36773e-05
2.93654e-05
4.48855e-05
5.9553e-05
7.28722e-05
8.46004e-05
9.45716e-05
0.000102904
0.000109668
0.000115131
0.000119406
0.000122553
0.000124695
0.000125796
0.000125753
0.000124462
0.000121895
0.000118094
0.000113179
0.000107315
0.000100588
9.33924e-05
8.60689e-05
7.85452e-05
7.06818e-05
6.25541e-05
5.41009e-05
4.52282e-05
3.59541e-05
2.61327e-05
1.56959e-05
4.51967e-06
-7.44906e-06
-2.04623e-05
-3.42696e-05
-4.78536e-05
-6.075e-05
-7.27487e-05
-8.27802e-05
-9.1103e-05
-9.74798e-05
-0.000102225
-0.000105322
-0.000106959
-0.000107269
-0.000106359
-0.000104312
-0.000101167
-9.69632e-05
-9.17347e-05
-8.54874e-05
-7.82339e-05
-6.9889e-05
-6.04851e-05
-5.00253e-05
-3.83719e-05
-2.56522e-05
-1.18129e-05
2.91726e-06
1.81851e-05
3.34969e-05
4.81582e-05
6.15334e-05
7.32626e-05
8.31131e-05
9.10743e-05
9.72915e-05
0.000101915
0.000105019
0.000106775
0.000107135
0.00010591
0.000102771
9.73258e-05
8.93628e-05
7.89696e-05
6.69351e-05
5.60844e-05
5.13847e-05
4.68742e-05
4.17464e-05
3.73322e-05
3.38269e-05
3.09887e-05
2.85802e-05
2.6446e-05
2.43212e-05
2.22054e-05
2.01531e-05
1.81269e-05
1.6122e-05
1.41744e-05
1.23047e-05
1.05136e-05
8.80332e-06
7.17469e-06
5.62761e-06
4.16488e-06
2.79384e-06
1.52812e-06
3.88195e-07
-5.95427e-07
-1.38002e-06
-1.9044e-06
-2.08748e-06
-1.81559e-06
-9.22868e-07
7.12265e-07
3.24715e-06
6.94195e-06
1.19685e-05
1.80426e-05
2.41593e-05
3.00233e-05
2.6224e-05
2.67534e-05
2.6985e-05
2.70199e-05
2.68077e-05
2.64187e-05
2.59687e-05
2.55463e-05
2.52155e-05
2.50265e-05
2.50141e-05
2.51986e-05
2.55983e-05
2.62326e-05
2.71178e-05
2.82678e-05
2.96954e-05
3.14128e-05
3.34341e-05
3.57731e-05
3.84456e-05
4.14709e-05
4.4865e-05
4.86473e-05
5.2839e-05
5.7463e-05
6.25442e-05
6.81083e-05
7.41846e-05
8.08302e-05
8.80865e-05
9.56682e-05
0.000103434
0.000111083
0.000118339
0.000124917
0.000130635
0.000134909
0.000137725
0.00013949
0.000140436
0.000140593
0.000139929
0.000138438
0.000136069
0.000132704
0.000128265
0.000122701
0.000116011
0.000108266
9.96203e-05
9.03374e-05
8.06081e-05
7.07017e-05
6.08019e-05
5.11001e-05
4.15702e-05
3.22134e-05
2.27542e-05
1.28287e-05
2.15292e-06
-9.39856e-06
-2.19616e-05
-3.47699e-05
-4.78038e-05
-5.96769e-05
-7.02126e-05
-7.91644e-05
-8.60292e-05
-9.12963e-05
-9.48223e-05
-9.68033e-05
-9.73422e-05
-9.65969e-05
-9.46555e-05
-9.15817e-05
-8.74325e-05
-8.21972e-05
-7.59199e-05
-6.86078e-05
-6.02496e-05
-5.0759e-05
-4.01945e-05
-2.84666e-05
-1.56658e-05
-1.80877e-06
1.27873e-05
2.76975e-05
4.23773e-05
5.61766e-05
6.86539e-05
7.95971e-05
8.88998e-05
9.66655e-05
0.000102977
0.000108037
0.000111925
0.000114678
0.000116373
0.000116972
0.000116401
0.00011462
0.000111707
0.000107699
0.000102756
9.70897e-05
9.09318e-05
8.45037e-05
7.79135e-05
7.11406e-05
6.40851e-05
5.68388e-05
4.92733e-05
4.14866e-05
3.33959e-05
2.50236e-05
1.62622e-05
6.92591e-06
-3.16817e-06
-1.41389e-05
-2.60203e-05
-3.81665e-05
-5.04613e-05
-6.186e-05
-7.20222e-05
-8.07096e-05
-8.75075e-05
-9.28713e-05
-9.65524e-05
-9.8759e-05
-9.95902e-05
-9.91706e-05
-9.75841e-05
-9.48734e-05
-9.10795e-05
-8.6245e-05
-8.03777e-05
-7.34977e-05
-6.55335e-05
-5.65203e-05
-4.64726e-05
-3.52739e-05
-2.3065e-05
-9.82145e-06
4.2107e-06
1.86594e-05
3.30244e-05
4.66324e-05
5.89123e-05
6.95584e-05
7.84041e-05
8.54701e-05
9.0891e-05
9.47709e-05
9.71472e-05
9.80938e-05
9.75054e-05
9.51849e-05
9.08754e-05
8.44602e-05
7.62662e-05
6.70337e-05
5.78381e-05
5.11051e-05
4.74112e-05
4.35791e-05
3.96897e-05
3.63806e-05
3.36065e-05
3.11218e-05
2.87427e-05
2.63913e-05
2.41496e-05
2.19611e-05
1.9828e-05
1.77513e-05
1.57423e-05
1.38084e-05
1.19572e-05
1.01926e-05
8.50749e-06
6.9012e-06
5.37218e-06
3.92169e-06
2.55556e-06
1.28508e-06
1.29343e-07
-8.81467e-07
-1.70603e-06
-2.28841e-06
-2.5548e-06
-2.40905e-06
-1.73145e-06
-3.9665e-07
1.75775e-06
4.93302e-06
9.22155e-06
1.42154e-05
1.86523e-05
2.22314e-05
2.61913e-05
2.60314e-05
2.58365e-05
2.56516e-05
2.53761e-05
2.50152e-05
2.46446e-05
2.43198e-05
2.40861e-05
2.39815e-05
2.40364e-05
2.42732e-05
2.47108e-05
2.53673e-05
2.62582e-05
2.73979e-05
2.87997e-05
3.04763e-05
3.24413e-05
3.47086e-05
3.72931e-05
4.02118e-05
4.34816e-05
4.712e-05
5.1146e-05
5.55797e-05
6.04422e-05
6.57543e-05
7.15386e-05
7.78425e-05
8.46956e-05
9.18306e-05
9.9071e-05
0.000106145
0.000112821
0.000118843
0.000124018
0.000127847
0.000130261
0.000131637
0.000132239
0.000132044
0.000131006
0.000129134
0.000126391
0.000122683
0.000117959
0.000112212
0.000105486
9.78922e-05
8.96127e-05
8.09113e-05
7.19771e-05
6.30529e-05
5.42938e-05
4.58603e-05
3.77051e-05
2.98285e-05
2.19911e-05
1.38855e-05
5.16561e-06
-4.24141e-06
-1.4737e-05
-2.57521e-05
-3.73144e-05
-4.8441e-05
-5.90574e-05
-6.82564e-05
-7.58021e-05
-8.17361e-05
-8.60161e-05
-8.88206e-05
-9.00853e-05
-9.00294e-05
-8.87376e-05
-8.62713e-05
-8.26981e-05
-7.80106e-05
-7.22618e-05
-6.54698e-05
-5.76274e-05
-4.86646e-05
-3.86461e-05
-2.74966e-05
-1.53171e-05
-2.14517e-06
1.16995e-05
2.57958e-05
3.96183e-05
5.25587e-05
6.42276e-05
7.44393e-05
8.31199e-05
9.03553e-05
9.62177e-05
0.000100864
0.000104345
0.000106681
0.000107926
0.000108066
0.000107045
0.000104912
0.000101775
9.7748e-05
9.2995e-05
8.77425e-05
8.21857e-05
7.64411e-05
7.055e-05
6.44836e-05
5.81765e-05
5.17204e-05
4.49817e-05
3.81282e-05
3.10484e-05
2.3831e-05
1.63605e-05
8.46408e-06
-7.60691e-08
-9.31344e-06
-1.94967e-05
-3.0206e-05
-4.12861e-05
-5.18848e-05
-6.20855e-05
-7.08142e-05
-7.80203e-05
-8.37717e-05
-8.79364e-05
-9.07019e-05
-9.20293e-05
-9.2089e-05
-9.09632e-05
-8.86882e-05
-8.53076e-05
-8.08712e-05
-7.53923e-05
-6.88985e-05
-6.13323e-05
-5.27335e-05
-4.31285e-05
-3.24238e-05
-2.07713e-05
-8.17898e-06
5.0941e-06
1.86647e-05
3.20387e-05
4.45822e-05
5.57934e-05
6.54147e-05
7.33224e-05
7.95434e-05
8.41862e-05
8.7314e-05
8.89242e-05
8.90395e-05
8.75577e-05
8.43515e-05
7.9339e-05
7.27602e-05
6.53541e-05
5.80226e-05
5.12469e-05
4.68396e-05
4.36831e-05
4.05248e-05
3.76304e-05
3.50735e-05
3.27698e-05
3.0565e-05
2.83175e-05
2.59731e-05
2.37285e-05
2.1531e-05
1.93788e-05
1.72963e-05
1.52997e-05
1.33912e-05
1.15681e-05
9.83134e-06
8.17521e-06
6.59436e-06
5.08569e-06
3.64894e-06
2.28807e-06
1.01236e-06
-1.60352e-07
-1.20327e-06
-2.07871e-06
-2.73661e-06
-3.11322e-06
-3.13019e-06
-2.69452e-06
-1.69774e-06
9.89793e-10
2.56629e-06
6.06475e-06
1.0117e-05
1.35123e-05
1.54728e-05
2.54429e-05
2.50122e-05
2.46129e-05
2.43215e-05
2.40254e-05
2.37079e-05
2.33989e-05
2.31494e-05
2.29904e-05
2.29523e-05
2.30607e-05
2.33368e-05
2.37986e-05
2.44641e-05
2.53479e-05
2.6464e-05
2.78257e-05
2.9446e-05
3.13378e-05
3.35147e-05
3.59907e-05
3.87812e-05
4.19019e-05
4.53689e-05
4.91992e-05
5.34104e-05
5.80204e-05
6.30462e-05
6.85054e-05
7.44366e-05
8.08581e-05
8.75311e-05
9.42374e-05
0.000100732
0.000106833
0.000112316
0.000116983
0.0001204
0.00012246
0.000123516
0.00012383
0.00012334
0.000121976
0.000119781
0.000116735
0.000112767
0.000107859
0.000102043
9.54006e-05
8.80719e-05
8.02507e-05
7.21911e-05
6.40664e-05
5.60867e-05
4.83745e-05
4.10521e-05
3.40602e-05
2.73886e-05
2.08299e-05
1.41339e-05
6.97128e-06
-7.10252e-07
-9.38027e-06
-1.86442e-05
-2.86597e-05
-3.8774e-05
-4.87171e-05
-5.78084e-05
-6.58442e-05
-7.22919e-05
-7.72657e-05
-8.08033e-05
-8.27486e-05
-8.33555e-05
-8.26961e-05
-8.08445e-05
-7.78729e-05
-7.37622e-05
-6.85634e-05
-6.23123e-05
-5.50087e-05
-4.66012e-05
-3.71579e-05
-2.66214e-05
-1.50994e-05
-2.64995e-06
1.04113e-05
2.3673e-05
3.66358e-05
4.87382e-05
5.96355e-05
6.91604e-05
7.72527e-05
8.39785e-05
8.93911e-05
9.36124e-05
9.66755e-05
9.85851e-05
9.94e-05
9.91388e-05
9.77573e-05
9.54021e-05
9.22038e-05
8.8316e-05
8.38811e-05
7.91277e-05
7.4169e-05
6.90645e-05
6.38212e-05
5.84057e-05
5.27739e-05
4.70119e-05
4.10108e-05
3.4956e-05
2.87445e-05
2.24813e-05
1.60553e-05
9.32369e-06
2.07237e-06
-5.73697e-06
-1.44125e-05
-2.3676e-05
-3.34952e-05
-4.32384e-05
-5.28739e-05
-6.14197e-05
-6.89459e-05
-7.49917e-05
-7.96072e-05
-8.284e-05
-8.46045e-05
-8.51059e-05
-8.4429e-05
-8.25929e-05
-7.96439e-05
-7.56204e-05
-7.05455e-05
-6.4456e-05
-5.73111e-05
-4.91545e-05
-4.0026e-05
-2.98579e-05
-1.88079e-05
-6.91812e-06
5.54601e-06
1.82001e-05
3.05674e-05
4.20635e-05
5.22506e-05
6.09074e-05
6.79332e-05
7.33466e-05
7.72271e-05
7.96078e-05
8.04638e-05
7.98151e-05
7.76227e-05
7.38793e-05
6.87323e-05
6.26135e-05
5.64841e-05
5.08309e-05
4.58057e-05
4.28083e-05
4.01984e-05
3.76761e-05
3.54962e-05
3.34436e-05
3.14747e-05
2.95108e-05
2.74371e-05
2.52083e-05
2.30355e-05
2.08886e-05
1.87767e-05
1.67337e-05
1.47774e-05
1.29098e-05
1.11306e-05
9.4323e-06
7.81326e-06
6.26544e-06
4.78439e-06
3.36861e-06
2.02053e-06
7.48192e-07
-4.32814e-07
-1.49811e-06
-2.41313e-06
-3.13245e-06
-3.60008e-06
-3.75049e-06
-3.50861e-06
-2.78514e-06
-1.46378e-06
5.88121e-07
3.40674e-06
6.61734e-06
9.01491e-06
9.75035e-06
2.42669e-05
2.37599e-05
2.32994e-05
2.29677e-05
2.26663e-05
2.23978e-05
2.2168e-05
2.19849e-05
2.18856e-05
2.19032e-05
2.20554e-05
2.23609e-05
2.28381e-05
2.3503e-05
2.43697e-05
2.54516e-05
2.67616e-05
2.83125e-05
3.01166e-05
3.21869e-05
3.45364e-05
3.71788e-05
4.01286e-05
4.34002e-05
4.70087e-05
5.09695e-05
5.52977e-05
6.00078e-05
6.51127e-05
7.06456e-05
7.66156e-05
8.28069e-05
8.89782e-05
9.49106e-05
0.000100465
0.000105444
0.000109656
0.000112697
0.00011445
0.000115239
0.000115307
0.000114562
0.00011292
0.000110458
0.000107178
0.000103032
9.80347e-05
9.22531e-05
8.57968e-05
7.88229e-05
7.15258e-05
6.41412e-05
5.68181e-05
4.97333e-05
4.2976e-05
3.6634e-05
3.06411e-05
2.4977e-05
1.94608e-05
1.3887e-05
7.96096e-06
1.63203e-06
-5.51926e-06
-1.32597e-05
-2.17767e-05
-3.06794e-05
-3.96983e-05
-4.84119e-05
-5.64074e-05
-6.3175e-05
-6.85955e-05
-7.2741e-05
-7.55421e-05
-7.68244e-05
-7.67152e-05
-7.54343e-05
-7.3052e-05
-6.95367e-05
-6.4907e-05
-5.92157e-05
-5.24686e-05
-4.4636e-05
-3.57873e-05
-2.58867e-05
-1.50452e-05
-3.34066e-06
8.92173e-06
2.13456e-05
3.34614e-05
4.47558e-05
5.49199e-05
6.37958e-05
7.13262e-05
7.75565e-05
8.25199e-05
8.63136e-05
8.89563e-05
9.04509e-05
9.08845e-05
9.02827e-05
8.86879e-05
8.62285e-05
8.31338e-05
7.94909e-05
7.5477e-05
7.12436e-05
6.68441e-05
6.23197e-05
5.76551e-05
5.28193e-05
4.77837e-05
4.26308e-05
3.72847e-05
3.19246e-05
2.64671e-05
2.10138e-05
1.54621e-05
9.69538e-06
3.51204e-06
-3.12502e-06
-1.05161e-05
-1.8483e-05
-2.7079e-05
-3.58318e-05
-4.47021e-05
-5.29691e-05
-6.04202e-05
-6.66678e-05
-7.15523e-05
-7.52111e-05
-7.7569e-05
-7.84687e-05
-7.81631e-05
-7.672e-05
-7.42063e-05
-7.06034e-05
-6.59468e-05
-6.02774e-05
-5.35708e-05
-4.58765e-05
-3.72483e-05
-2.7647e-05
-1.72289e-05
-6.07135e-06
5.56069e-06
1.72904e-05
2.86648e-05
3.91533e-05
4.83716e-05
5.6123e-05
6.2317e-05
6.69583e-05
7.01041e-05
7.17731e-05
7.19442e-05
7.06763e-05
6.80216e-05
6.40984e-05
5.92816e-05
5.40982e-05
4.92166e-05
4.49629e-05
4.11862e-05
3.90627e-05
3.69491e-05
3.49505e-05
3.32636e-05
3.15621e-05
2.98505e-05
2.80965e-05
2.62079e-05
2.41435e-05
2.20909e-05
2.00412e-05
1.8015e-05
1.60489e-05
1.41616e-05
1.23577e-05
1.06365e-05
8.99306e-06
7.42282e-06
5.91891e-06
4.47637e-06
3.09286e-06
1.76991e-06
5.14495e-07
-6.59235e-07
-1.7283e-06
-2.65979e-06
-3.41075e-06
-3.92946e-06
-4.15794e-06
-4.03307e-06
-3.48294e-06
-2.42007e-06
-7.49379e-07
1.53927e-06
3.93609e-06
5.24522e-06
5.19103e-06
2.28424e-05
2.23451e-05
2.18935e-05
2.15648e-05
2.12907e-05
2.10604e-05
2.08791e-05
2.07642e-05
2.07336e-05
2.08005e-05
2.09865e-05
2.1313e-05
2.17981e-05
2.2455e-05
2.32966e-05
2.43354e-05
2.5584e-05
2.70546e-05
2.87589e-05
3.07088e-05
3.29165e-05
3.5394e-05
3.81543e-05
4.12102e-05
4.45753e-05
4.82629e-05
5.22864e-05
5.66557e-05
6.13844e-05
6.65008e-05
7.20064e-05
7.77063e-05
8.33507e-05
8.87463e-05
9.37922e-05
9.8317e-05
0.000102107
0.000104814
0.000106301
0.000106865
0.000106723
0.000105761
0.000103889
0.000101216
9.77694e-05
9.35258e-05
8.85285e-05
8.28724e-05
7.66874e-05
7.01369e-05
6.34072e-05
5.67096e-05
5.01653e-05
4.39193e-05
3.80301e-05
3.25577e-05
2.74323e-05
2.26268e-05
1.79835e-05
1.33313e-05
8.41361e-06
3.17254e-06
-2.73617e-06
-9.18879e-06
-1.6365e-05
-2.40492e-05
-3.20403e-05
-4.00678e-05
-4.77269e-05
-5.46128e-05
-6.03988e-05
-6.49243e-05
-6.82373e-05
-7.02323e-05
-7.09211e-05
-7.02457e-05
-6.83907e-05
-6.54382e-05
-6.13613e-05
-5.62392e-05
-5.00584e-05
-4.2816e-05
-3.45759e-05
-2.53262e-05
-1.51777e-05
-4.22815e-06
7.23419e-06
1.88314e-05
3.01243e-05
4.0646e-05
5.01141e-05
5.83737e-05
6.53643e-05
7.11103e-05
7.56278e-05
7.90009e-05
8.12309e-05
8.23488e-05
8.24626e-05
8.16184e-05
7.9925e-05
7.75287e-05
7.46206e-05
7.13132e-05
6.77447e-05
6.40055e-05
6.01181e-05
5.61124e-05
5.19594e-05
4.76361e-05
4.31273e-05
3.85146e-05
3.37531e-05
2.90073e-05
2.42135e-05
1.94634e-05
1.46632e-05
9.71727e-06
4.43826e-06
-1.21582e-06
-7.51313e-06
-1.43503e-05
-2.18173e-05
-2.95715e-05
-3.75958e-05
-4.53562e-05
-5.25508e-05
-5.89019e-05
-6.40402e-05
-6.79533e-05
-7.06654e-05
-7.20951e-05
-7.22799e-05
-7.1212e-05
-6.90995e-05
-6.58861e-05
-6.16479e-05
-5.64115e-05
-5.01541e-05
-4.29374e-05
-3.48265e-05
-2.58122e-05
-1.60429e-05
-5.63042e-06
5.16665e-06
1.5986e-05
2.64014e-05
3.59342e-05
4.42423e-05
5.11447e-05
5.65552e-05
6.04656e-05
6.29237e-05
6.3954e-05
6.35614e-05
6.18927e-05
5.90414e-05
5.53374e-05
5.10557e-05
4.68534e-05
4.31556e-05
3.99713e-05
3.71012e-05
3.55471e-05
3.38613e-05
3.22787e-05
3.09387e-05
2.94956e-05
2.79935e-05
2.64261e-05
2.47214e-05
2.28393e-05
2.09347e-05
1.90133e-05
1.71039e-05
1.52426e-05
1.34487e-05
1.17288e-05
1.00835e-05
8.50966e-06
7.00229e-06
5.55558e-06
4.16472e-06
2.82714e-06
1.54397e-06
3.21685e-07
-8.26084e-07
-1.87679e-06
-2.79788e-06
-3.54703e-06
-4.07423e-06
-4.32566e-06
-4.24731e-06
-3.78502e-06
-2.88523e-06
-1.50228e-06
3.15025e-07
1.92708e-06
2.52272e-06
1.93012e-06
2.12788e-05
2.08224e-05
2.04078e-05
2.0103e-05
1.98626e-05
1.96752e-05
1.95438e-05
1.94793e-05
1.94935e-05
1.96021e-05
1.98241e-05
2.01714e-05
2.06573e-05
2.12975e-05
2.21054e-05
2.30932e-05
2.42721e-05
2.56531e-05
2.72472e-05
2.90655e-05
3.11186e-05
3.34176e-05
3.59735e-05
3.8798e-05
4.19028e-05
4.53001e-05
4.90024e-05
5.3014e-05
5.73518e-05
6.20397e-05
6.70746e-05
7.22816e-05
7.74121e-05
8.22995e-05
8.68742e-05
9.09827e-05
9.43952e-05
9.68007e-05
9.80553e-05
9.84293e-05
9.81113e-05
9.69707e-05
9.49157e-05
9.20903e-05
8.85441e-05
8.42788e-05
7.9363e-05
7.39121e-05
6.80676e-05
6.19908e-05
5.58536e-05
4.98399e-05
4.40425e-05
3.85776e-05
3.34768e-05
2.87791e-05
2.44137e-05
2.03499e-05
1.6451e-05
1.25734e-05
8.49733e-06
4.15854e-06
-7.19824e-07
-6.08834e-06
-1.2098e-05
-1.86442e-05
-2.55974e-05
-3.27904e-05
-3.99003e-05
-4.65758e-05
-5.2514e-05
-5.74521e-05
-6.12426e-05
-6.37619e-05
-6.50258e-05
-6.5047e-05
-6.38888e-05
-6.15241e-05
-5.79897e-05
-5.34445e-05
-4.78194e-05
-4.11723e-05
-3.35504e-05
-2.49584e-05
-1.5506e-05
-5.30994e-06
5.36384e-06
1.61574e-05
2.66603e-05
3.64482e-05
4.52561e-05
5.29281e-05
5.93976e-05
6.4669e-05
6.87467e-05
7.17144e-05
7.35499e-05
7.43507e-05
7.42257e-05
7.32606e-05
7.1571e-05
6.93327e-05
6.66909e-05
6.37519e-05
6.06138e-05
5.73292e-05
5.39029e-05
5.03562e-05
4.66544e-05
4.27849e-05
3.87454e-05
3.46175e-05
3.03824e-05
2.61875e-05
2.19859e-05
1.78575e-05
1.37165e-05
9.48382e-06
4.98686e-06
1.78266e-07
-5.17568e-06
-1.10229e-05
-1.74653e-05
-2.42644e-05
-3.14231e-05
-3.85442e-05
-4.53461e-05
-5.15653e-05
-5.68473e-05
-6.10797e-05
-6.41237e-05
-6.59323e-05
-6.6501e-05
-6.59847e-05
-6.43168e-05
-6.14872e-05
-5.76731e-05
-5.28804e-05
-4.70723e-05
-4.0344e-05
-3.2762e-05
-2.43459e-05
-1.52307e-05
-5.56011e-06
4.41705e-06
1.43576e-05
2.38613e-05
3.24969e-05
3.99528e-05
4.6061e-05
5.07368e-05
5.39655e-05
5.58014e-05
5.62885e-05
5.54846e-05
5.36485e-05
5.09383e-05
4.75936e-05
4.40094e-05
4.07213e-05
3.79751e-05
3.55833e-05
3.33854e-05
3.22226e-05
3.08919e-05
2.96334e-05
2.85446e-05
2.73023e-05
2.5978e-05
2.45792e-05
2.3051e-05
2.13538e-05
1.96102e-05
1.78355e-05
1.60625e-05
1.43255e-05
1.26436e-05
1.10249e-05
9.47155e-06
7.98177e-06
6.55154e-06
5.17592e-06
3.85063e-06
2.57342e-06
1.34553e-06
1.73463e-07
-9.29079e-07
-1.93937e-06
-2.82459e-06
-3.54226e-06
-4.0432e-06
-4.27707e-06
-4.19955e-06
-3.77728e-06
-2.98722e-06
-1.84714e-06
-5.68716e-07
4.22262e-07
5.97851e-07
-2.76636e-07
1.96357e-05
1.92266e-05
1.88565e-05
1.85831e-05
1.83768e-05
1.82291e-05
1.81415e-05
1.81202e-05
1.81739e-05
1.83149e-05
1.85574e-05
1.89129e-05
1.93934e-05
2.00119e-05
2.07804e-05
2.17102e-05
2.28119e-05
2.40958e-05
2.55715e-05
2.72488e-05
2.91373e-05
3.12469e-05
3.35874e-05
3.61685e-05
3.9001e-05
4.2097e-05
4.54656e-05
4.91108e-05
5.30479e-05
5.73016e-05
6.18654e-05
6.6583e-05
7.12159e-05
7.56211e-05
7.97576e-05
8.34842e-05
8.65547e-05
8.86873e-05
8.97422e-05
8.99581e-05
8.94975e-05
8.82175e-05
8.6028e-05
8.31069e-05
7.95275e-05
7.53129e-05
7.05524e-05
6.53747e-05
5.99257e-05
5.4358e-05
4.88249e-05
4.34816e-05
3.83943e-05
3.36534e-05
2.92688e-05
2.52634e-05
2.15677e-05
1.81517e-05
1.48945e-05
1.16778e-05
8.31406e-06
4.73792e-06
7.27059e-07
-3.71564e-06
-8.715e-06
-1.4233e-05
-2.01927e-05
-2.64942e-05
-3.29155e-05
-3.91637e-05
-4.49834e-05
-5.00688e-05
-5.42075e-05
-5.72854e-05
-5.92021e-05
-5.98349e-05
-5.92441e-05
-5.75225e-05
-5.4736e-05
-5.08088e-05
-4.57446e-05
-3.97037e-05
-3.27104e-05
-2.47722e-05
-1.60114e-05
-6.55737e-06
3.34947e-06
1.33713e-05
2.31221e-05
3.22149e-05
4.03928e-05
4.75011e-05
5.34632e-05
5.82645e-05
6.1917e-05
6.44836e-05
6.59962e-05
6.65359e-05
6.62687e-05
6.52694e-05
6.36858e-05
6.1664e-05
5.93225e-05
5.67494e-05
5.40104e-05
5.1136e-05
4.812e-05
4.49785e-05
4.1676e-05
3.82113e-05
3.45941e-05
3.09069e-05
2.7151e-05
2.34567e-05
1.97898e-05
1.62185e-05
1.26638e-05
9.05993e-06
5.24874e-06
1.17972e-06
-3.34953e-06
-8.32158e-06
-1.38382e-05
-1.97394e-05
-2.60407e-05
-3.24535e-05
-3.87502e-05
-4.46833e-05
-4.9938e-05
-5.43185e-05
-5.76382e-05
-5.98808e-05
-6.09548e-05
-6.08513e-05
-5.95722e-05
-5.72646e-05
-5.39764e-05
-4.96384e-05
-4.42861e-05
-3.80607e-05
-3.10157e-05
-2.32003e-05
-1.47348e-05
-5.78947e-06
3.39687e-06
1.25011e-05
2.11462e-05
2.89429e-05
3.56003e-05
4.09613e-05
4.49515e-05
4.75564e-05
4.88696e-05
4.89144e-05
4.79264e-05
4.60864e-05
4.36463e-05
4.08457e-05
3.79572e-05
3.54529e-05
3.34315e-05
3.16284e-05
2.99414e-05
2.90602e-05
2.80141e-05
2.70061e-05
2.61055e-05
2.50272e-05
2.38583e-05
2.26135e-05
2.12519e-05
1.97343e-05
1.81559e-05
1.65373e-05
1.49122e-05
1.33123e-05
1.17558e-05
1.0252e-05
8.80423e-06
7.41187e-06
6.07204e-06
4.78086e-06
3.53486e-06
2.33239e-06
1.17515e-06
6.99849e-08
-9.69089e-07
-1.91909e-06
-2.74705e-06
-3.41081e-06
-3.86295e-06
-4.05835e-06
-3.96382e-06
-3.56737e-06
-2.88196e-06
-1.96149e-06
-1.13811e-06
-5.49647e-07
-7.29804e-07
-1.67734e-06
1.79432e-05
1.7578e-05
1.7251e-05
1.70098e-05
1.6835e-05
1.67212e-05
1.6669e-05
1.66818e-05
1.67656e-05
1.69295e-05
1.71837e-05
1.75388e-05
1.80054e-05
1.85944e-05
1.93163e-05
2.01813e-05
2.11987e-05
2.23779e-05
2.37274e-05
2.5256e-05
2.6972e-05
2.88842e-05
3.10011e-05
3.33312e-05
3.5883e-05
3.86708e-05
4.17004e-05
4.49767e-05
4.85105e-05
5.23264e-05
5.6421e-05
6.06548e-05
6.48053e-05
6.87518e-05
7.24783e-05
7.58522e-05
7.861e-05
8.04964e-05
8.13823e-05
8.14706e-05
8.09015e-05
7.95223e-05
7.72475e-05
7.4288e-05
7.07396e-05
6.66434e-05
6.21041e-05
5.72571e-05
5.22465e-05
4.72114e-05
4.22841e-05
3.75912e-05
3.3175e-05
2.91036e-05
2.53699e-05
2.19853e-05
1.88821e-05
1.60343e-05
1.33345e-05
1.06864e-05
7.93095e-06
5.00589e-06
1.73208e-06
-1.91345e-06
-6.03494e-06
-1.0633e-05
-1.56691e-05
-2.10868e-05
-2.67405e-05
-3.24101e-05
-3.78993e-05
-4.29165e-05
-4.7235e-05
-5.06772e-05
-5.30909e-05
-5.43651e-05
-5.45181e-05
-5.35164e-05
-5.13331e-05
-4.8002e-05
-4.36556e-05
-3.83138e-05
-3.19707e-05
-2.46881e-05
-1.66193e-05
-7.89471e-06
1.2685e-06
1.05509e-05
1.95842e-05
2.80144e-05
3.55799e-05
4.21329e-05
4.75994e-05
5.19252e-05
5.51773e-05
5.7396e-05
5.86201e-05
5.89941e-05
5.86548e-05
5.7707e-05
5.62856e-05
5.45067e-05
5.24678e-05
5.02403e-05
4.78613e-05
4.53532e-05
4.27013e-05
3.99185e-05
3.6972e-05
3.38726e-05
3.06406e-05
2.73594e-05
2.40448e-05
2.08106e-05
1.76314e-05
1.45641e-05
1.15358e-05
8.49137e-06
5.28666e-06
1.87077e-06
-1.93123e-06
-6.12434e-06
-1.08047e-05
-1.58697e-05
-2.13427e-05
-2.70154e-05
-3.27184e-05
-3.82405e-05
-4.33104e-05
-4.77124e-05
-5.12401e-05
-5.37989e-05
-5.52766e-05
-5.5643e-05
-5.4946e-05
-5.31503e-05
-5.03126e-05
-4.64569e-05
-4.16632e-05
-3.59789e-05
-2.94816e-05
-2.22679e-05
-1.44452e-05
-6.20365e-06
2.22475e-06
1.05353e-05
1.83696e-05
2.53705e-05
3.12728e-05
3.59251e-05
3.92669e-05
4.13043e-05
4.22223e-05
4.20534e-05
4.09543e-05
3.92735e-05
3.72096e-05
3.49672e-05
3.27031e-05
3.08322e-05
2.93565e-05
2.8e-05
2.67081e-05
2.60344e-05
2.52108e-05
2.43956e-05
2.3641e-05
2.27024e-05
2.16725e-05
2.05694e-05
1.9364e-05
1.80176e-05
1.66036e-05
1.51447e-05
1.36735e-05
1.22185e-05
1.07971e-05
9.41868e-06
8.08754e-06
6.80415e-06
5.56667e-06
4.37227e-06
3.21841e-06
2.10423e-06
1.03204e-06
9.13954e-09
-9.50276e-07
-1.82332e-06
-2.57778e-06
-3.17329e-06
-3.56601e-06
-3.71727e-06
-3.6055e-06
-3.23683e-06
-2.65066e-06
-1.99169e-06
-1.44476e-06
-1.15396e-06
-1.57573e-06
-2.48046e-06
1.62167e-05
1.58888e-05
1.55999e-05
1.53883e-05
1.52408e-05
1.51544e-05
1.51291e-05
1.51663e-05
1.52701e-05
1.54466e-05
1.57037e-05
1.60499e-05
1.64942e-05
1.70458e-05
1.77137e-05
1.85068e-05
1.94334e-05
2.05016e-05
2.17189e-05
2.30931e-05
2.46312e-05
2.63408e-05
2.82293e-05
3.03043e-05
3.2574e-05
3.50481e-05
3.77309e-05
4.06332e-05
4.3766e-05
4.71487e-05
5.07796e-05
5.45368e-05
5.82182e-05
6.17256e-05
6.50648e-05
6.81104e-05
7.05809e-05
7.2247e-05
7.29917e-05
7.29831e-05
7.23404e-05
7.0903e-05
6.8592e-05
6.56507e-05
6.21948e-05
5.82795e-05
5.40198e-05
4.95521e-05
4.50131e-05
4.05252e-05
3.61982e-05
3.21318e-05
2.83473e-05
2.48941e-05
2.17522e-05
1.89249e-05
1.6348e-05
1.39993e-05
1.17856e-05
9.62919e-06
7.39564e-06
5.02914e-06
2.38471e-06
-5.72862e-07
-3.93129e-06
-7.71201e-06
-1.19031e-05
-1.64774e-05
-2.13433e-05
-2.63432e-05
-3.13332e-05
-3.6076e-05
-4.03637e-05
-4.39953e-05
-4.67913e-05
-4.86146e-05
-4.93887e-05
-4.90684e-05
-4.76071e-05
-4.5041e-05
-4.14305e-05
-3.67738e-05
-3.11035e-05
-2.45507e-05
-1.71924e-05
-9.19176e-06
-7.59362e-07
7.80246e-06
1.61363e-05
2.39125e-05
3.08814e-05
3.68751e-05
4.18347e-05
4.57263e-05
4.85739e-05
5.04854e-05
5.15027e-05
5.17808e-05
5.14397e-05
5.05927e-05
4.93559e-05
4.78221e-05
4.60718e-05
4.41517e-05
4.20974e-05
3.99171e-05
3.7589e-05
3.51258e-05
3.25005e-05
2.97353e-05
2.68604e-05
2.39582e-05
2.10548e-05
1.82475e-05
1.55167e-05
1.29088e-05
1.03556e-05
7.81155e-06
5.14578e-06
2.30951e-06
-8.481e-07
-4.34563e-06
-8.2714e-06
-1.2563e-05
-1.72491e-05
-2.21806e-05
-2.72366e-05
-3.22451e-05
-3.69854e-05
-4.12578e-05
-4.48559e-05
-4.76398e-05
-4.94789e-05
-5.03014e-05
-5.01095e-05
-4.88302e-05
-4.65406e-05
-4.32569e-05
-3.90283e-05
-3.39095e-05
-2.79857e-05
-2.13828e-05
-1.42036e-05
-6.65223e-06
1.0405e-06
8.58474e-06
1.5637e-05
2.18703e-05
2.70418e-05
3.10226e-05
3.37691e-05
3.5375e-05
3.59535e-05
3.5649e-05
3.46555e-05
3.32318e-05
3.15726e-05
2.98316e-05
2.80872e-05
2.67063e-05
2.56405e-05
2.46285e-05
2.36433e-05
2.31223e-05
2.24693e-05
2.18025e-05
2.11655e-05
2.03498e-05
1.94464e-05
1.84751e-05
1.74159e-05
1.62319e-05
1.49789e-05
1.36797e-05
1.23649e-05
1.10595e-05
9.77956e-06
8.53449e-06
7.32896e-06
6.16423e-06
5.03941e-06
3.95267e-06
2.90243e-06
1.88863e-06
9.142e-07
-1.3221e-08