/*--------------------------------*- C++ -*----------------------------------*\
| =========                 |                                                 |
| \\      /  F ield         | OpenFOAM: The Open Source CFD Toolbox           |
|  \\    /   O peration     | Version:  2506                                  |
|   \\  /    A nd           | Website:  www.openfoam.com                      |
|    \\/     M anipulation  |                                                 |
\*---------------------------------------------------------------------------*/
FoamFile
{
    version     2.0;
    format      ascii;
    arch        "LSB;label=32;scalar=64";
    class       volScalarField;
    location    "0.2";
    object      p;
}
// * * * * * * * * * * * * * * * * * * * * * * * * * * * * * * * * * * * * * //

dimensions      [0 2 -2 0 0 0 0];

internalField   nonuniform List<scalar> 
4000
(
-7.65555e-05
-1.57034e-05
2.45815e-06
5.54773e-06
7.96261e-06
1.00991e-05
1.17124e-05
1.32606e-05
1.49411e-05
1.67726e-05
1.87458e-05
2.08605e-05
2.31182e-05
2.55215e-05
2.80761e-05
3.07901e-05
3.36731e-05
3.67353e-05
3.99874e-05
4.34398e-05
4.71029e-05
5.09863e-05
5.50989e-05
5.94482e-05
6.40404e-05
6.88797e-05
7.39681e-05
7.93048e-05
8.48889e-05
9.07721e-05
9.69266e-05
0.000102482
0.00010808
0.000113636
0.000118457
0.000122212
0.000125026
0.000125248
0.000125729
0.000127613
0.000128092
0.000127319
0.000125562
0.000122826
0.00011917
0.000114667
0.000109496
0.000103416
9.6641e-05
8.93634e-05
8.17873e-05
7.42442e-05
6.54612e-05
5.67156e-05
4.69105e-05
3.72127e-05
2.57064e-05
1.29178e-05
-3.18345e-06
-2.32259e-05
-4.6559e-05
-7.20411e-05
-9.39878e-05
-0.000109896
-0.000121878
-0.000129749
-0.000135
-0.000138097
-0.000139674
-0.000140144
-0.000139692
-0.000138365
-0.000136245
-0.00013341
-0.000129876
-0.000125631
-0.000120649
-0.000114869
-0.00010827
-0.000100818
-9.24485e-05
-8.30225e-05
-7.25573e-05
-6.09413e-05
-4.82153e-05
-3.43439e-05
-1.96561e-05
-4.6338e-06
1.02515e-05
2.40885e-05
3.60994e-05
4.63537e-05
5.50897e-05
6.23893e-05
6.8572e-05
7.43304e-05
7.95887e-05
8.41088e-05
8.77013e-05
9.04616e-05
9.23647e-05
9.33149e-05
9.32793e-05
9.22244e-05
9.01477e-05
8.7094e-05
8.31085e-05
7.83317e-05
7.28726e-05
6.65389e-05
5.96406e-05
5.34753e-05
4.50284e-05
3.72873e-05
2.70887e-05
1.57571e-05
1.46076e-06
-1.72667e-05
-3.9871e-05
-6.49697e-05
-8.86814e-05
-0.000106696
-0.000120455
-0.000130138
-0.000136561
-0.000140589
-0.000142985
-0.000144133
-0.000144296
-0.000143579
-0.000142046
-0.000139756
-0.000136747
-0.000133023
-0.000128577
-0.000123385
-0.000117412
-0.000110607
-0.000102856
-9.41457e-05
-8.44349e-05
-7.3555e-05
-6.15728e-05
-4.83917e-05
-3.42607e-05
-1.95548e-05
-4.7006e-06
9.47514e-06
2.21247e-05
3.28855e-05
4.20357e-05
4.95542e-05
5.57016e-05
6.11308e-05
6.60765e-05
7.01241e-05
7.31236e-05
7.49351e-05
7.53426e-05
7.3949e-05
7.06618e-05
6.68767e-05
6.3643e-05
7.62942e-05
7.13639e-05
6.30519e-05
5.80497e-05
5.29227e-05
4.75353e-05
4.24147e-05
3.65208e-05
2.98863e-05
2.52226e-05
2.16421e-05
1.85342e-05
1.59381e-05
1.38337e-05
1.21144e-05
1.06909e-05
9.50493e-06
8.5147e-06
7.68866e-06
7.00345e-06
6.44188e-06
5.99126e-06
5.64226e-06
5.38753e-06
5.22459e-06
5.15417e-06
5.18278e-06
5.33164e-06
5.65209e-06
6.25432e-06
7.38604e-06
9.59999e-06
1.41049e-05
2.35537e-05
4.34412e-05
8.65396e-05
0.000178336
-3.38054e-05
-9.49309e-06
-1.43616e-07
3.40949e-06
5.9041e-06
8.0474e-06
9.96478e-06
1.18492e-05
1.37941e-05
1.58189e-05
1.79302e-05
2.01384e-05
2.24546e-05
2.48901e-05
2.74565e-05
3.0166e-05
3.30307e-05
3.60627e-05
3.92738e-05
4.26752e-05
4.62777e-05
5.00912e-05
5.41246e-05
5.83855e-05
6.28798e-05
6.76114e-05
7.25812e-05
7.77862e-05
8.32201e-05
8.8916e-05
9.48614e-05
0.000100221
0.000105432
0.000110464
0.000114874
0.000118319
0.000120867
0.000121626
0.000122113
0.000122717
0.000122185
0.000120611
0.000118177
0.000114878
0.000110745
0.000105849
0.00010026
9.39453e-05
8.7189e-05
8.00924e-05
7.26408e-05
6.5048e-05
5.66659e-05
4.80291e-05
3.86381e-05
2.88834e-05
1.7715e-05
5.62916e-06
-8.72907e-06
-2.55148e-05
-4.40051e-05
-6.25358e-05
-8.05267e-05
-9.59467e-05
-0.000108718
-0.000117591
-0.000123828
-0.000127847
-0.00013019
-0.000131306
-0.00013145
-0.000130639
-0.000128954
-0.00012651
-0.000123352
-0.000119487
-0.000114902
-0.000109533
-0.000103352
-9.6336e-05
-8.8437e-05
-7.95206e-05
-6.9588e-05
-5.85635e-05
-4.64669e-05
-3.32469e-05
-1.9221e-05
-4.99633e-06
8.8633e-06
2.1717e-05
3.31671e-05
4.30205e-05
5.15532e-05
5.89425e-05
6.55211e-05
7.13879e-05
7.64561e-05
8.06851e-05
8.40244e-05
8.64084e-05
8.7816e-05
8.81919e-05
8.75444e-05
8.58757e-05
8.32131e-05
7.96049e-05
7.50962e-05
6.98503e-05
6.40116e-05
5.74892e-05
5.05254e-05
4.34946e-05
3.5076e-05
2.66089e-05
1.64639e-05
5.30203e-06
-7.71106e-06
-2.3674e-05
-4.20881e-05
-6.10284e-05
-7.94703e-05
-9.53809e-05
-0.000108727
-0.00011857
-0.000125477
-0.000130053
-0.000132919
-0.00013448
-0.000135051
-0.000134705
-0.000133493
-0.000131488
-0.000128738
-0.000125265
-0.000121066
-0.00011613
-0.000110426
-0.000103918
-9.64969e-05
-8.8137e-05
-7.88221e-05
-6.84276e-05
-5.69644e-05
-4.43764e-05
-3.09027e-05
-1.6987e-05
-3.17975e-06
9.83442e-06
2.15771e-05
3.17081e-05
4.02364e-05
4.75561e-05
5.38966e-05
5.93144e-05
6.39653e-05
6.75507e-05
6.99714e-05
7.103e-05
7.05588e-05
6.86281e-05
6.57948e-05
6.29927e-05
6.15599e-05
6.56444e-05
5.9463e-05
5.30477e-05
4.8606e-05
4.38425e-05
3.91179e-05
3.50242e-05
3.08801e-05
2.61534e-05
2.23929e-05
1.93589e-05
1.67763e-05
1.46192e-05
1.28388e-05
1.13558e-05
1.01089e-05
9.05742e-06
8.17156e-06
7.42844e-06
6.81078e-06
6.30561e-06
5.90316e-06
5.59618e-06
5.38019e-06
5.25287e-06
5.21497e-06
5.27275e-06
5.44261e-06
5.76349e-06
6.3267e-06
7.34114e-06
9.27692e-06
1.31857e-05
2.1211e-05
3.68494e-05
6.37471e-05
0.000105725
-1.22085e-05
-4.86596e-06
-3.46461e-07
2.53894e-06
4.80481e-06
6.89789e-06
8.93351e-06
1.09567e-05
1.30041e-05
1.50995e-05
1.72573e-05
1.94908e-05
2.18141e-05
2.42418e-05
2.67882e-05
2.94669e-05
3.22911e-05
3.52737e-05
3.84267e-05
4.17618e-05
4.52895e-05
4.90199e-05
5.29615e-05
5.71216e-05
6.15057e-05
6.61169e-05
7.09551e-05
7.60153e-05
8.12867e-05
8.6783e-05
9.24971e-05
9.78248e-05
0.000102935
0.000107726
0.000111855
0.000115031
0.000117289
0.000118175
0.000118417
0.000118212
0.000117048
0.000114962
0.000112082
0.000108421
0.000104025
9.89692e-05
9.33549e-05
8.73052e-05
8.08647e-05
7.40255e-05
6.68318e-05
5.9278e-05
5.11144e-05
4.26554e-05
3.35174e-05
2.372e-05
1.26908e-05
7.43726e-07
-1.26188e-05
-2.73385e-05
-4.3121e-05
-5.8393e-05
-7.33487e-05
-8.63952e-05
-9.77646e-05
-0.000106821
-0.000113801
-0.000118652
-0.000121476
-0.000123027
-0.000123681
-0.000123362
-0.000122107
-0.000120056
-0.000117241
-0.000113698
-0.000109448
-0.000104444
-9.86471e-05
-9.20183e-05
-8.45023e-05
-7.59988e-05
-6.65313e-05
-5.60425e-05
-4.45174e-05
-3.20512e-05
-1.89176e-05
-5.39029e-06
7.91065e-06
2.02816e-05
3.1488e-05
4.13711e-05
5.01106e-05
5.77129e-05
6.43896e-05
7.01556e-05
7.49589e-05
7.88485e-05
8.17705e-05
8.3695e-05
8.46176e-05
8.45209e-05
8.34218e-05
8.13405e-05
7.83252e-05
7.44479e-05
6.98128e-05
6.45847e-05
5.8757e-05
5.23099e-05
4.53631e-05
3.78887e-05
2.92975e-05
2.03181e-05
1.00245e-05
-1.28466e-06
-1.39238e-05
-2.82851e-05
-4.40259e-05
-5.97418e-05
-7.50708e-05
-8.86084e-05
-9.98644e-05
-0.000108787
-0.000115888
-0.000120919
-0.000123957
-0.000125685
-0.000126513
-0.000126469
-0.000125536
-0.00012379
-0.00012129
-0.000118057
-0.000114082
-0.000109355
-0.000103863
-9.75797e-05
-9.04389e-05
-8.24145e-05
-7.34746e-05
-6.3518e-05
-5.25786e-05
-4.07505e-05
-2.81592e-05
-1.50254e-05
-1.93843e-06
1.0396e-05
2.16181e-05
3.15131e-05
4.00798e-05
4.75216e-05
5.38839e-05
5.91313e-05
6.33686e-05
6.64294e-05
6.82479e-05
6.87536e-05
6.79851e-05
6.63561e-05
6.44028e-05
6.2657e-05
6.10171e-05
5.98764e-05
5.37781e-05
4.84284e-05
4.39005e-05
3.90555e-05
3.44343e-05
3.04492e-05
2.684e-05
2.31458e-05
2.00746e-05
1.75249e-05
1.53647e-05
1.35421e-05
1.20054e-05
1.07026e-05
9.59386e-06
8.65084e-06
7.85179e-06
7.17986e-06
6.62206e-06
6.1685e-06
5.81165e-06
5.54608e-06
5.3687e-06
5.27789e-06
5.275e-06
5.3657e-06
5.56293e-06
5.89578e-06
6.43003e-06
7.31487e-06
8.89173e-06
1.19369e-05
1.7979e-05
2.89626e-05
4.44082e-05
6.15958e-05
-3.39528e-06
-9.54861e-07
1.24111e-06
3.33151e-06
5.19827e-06
7.005e-06
8.8523e-06
1.07492e-05
1.27019e-05
1.47212e-05
1.6813e-05
1.89841e-05
2.12449e-05
2.36085e-05
2.60877e-05
2.8695e-05
3.1443e-05
3.43435e-05
3.74082e-05
4.0648e-05
4.4073e-05
4.76925e-05
5.15146e-05
5.55457e-05
5.97906e-05
6.42511e-05
6.89259e-05
7.38083e-05
7.88848e-05
8.41539e-05
8.95969e-05
9.47934e-05
9.96932e-05
0.000104148
0.000107933
0.000110824
0.000112842
0.000113639
0.000113576
0.000112846
0.000111256
0.000108814
0.000105623
0.000101726
9.71904e-05
9.21054e-05
8.65784e-05
8.06935e-05
7.44808e-05
6.79307e-05
6.11618e-05
5.40401e-05
4.64717e-05
3.85349e-05
2.99885e-05
2.07518e-05
1.05298e-05
-6.44685e-07
-1.30447e-05
-2.66169e-05
-4.1185e-05
-5.53035e-05
-6.90061e-05
-8.08017e-05
-9.11834e-05
-9.93424e-05
-0.000105631
-0.000110616
-0.000114036
-0.000116144
-0.000117062
-0.000116887
-0.000115889
-0.000114183
-0.000111714
-0.000108491
-0.000104534
-9.98229e-05
-9.43136e-05
-8.79926e-05
-8.08504e-05
-7.28071e-05
-6.38078e-05
-5.3804e-05
-4.27605e-05
-3.07936e-05
-1.81335e-05
-5.18057e-06
7.52977e-06
1.95201e-05
3.05287e-05
4.03297e-05
4.90238e-05
5.65487e-05
6.30618e-05
6.85714e-05
7.30438e-05
7.65466e-05
7.90403e-05
8.05204e-05
8.09932e-05
8.0461e-05
7.89558e-05
7.65193e-05
7.32239e-05
6.91636e-05
6.44408e-05
5.91669e-05
5.33527e-05
4.70151e-05
4.02033e-05
3.28297e-05
2.46662e-05
1.5963e-05
6.20928e-06
-4.48397e-06
-1.63432e-05
-2.95559e-05
-4.3946e-05
-5.82918e-05
-7.22253e-05
-8.44758e-05
-9.47321e-05
-0.00010265
-0.000108812
-0.000113363
-0.000116587
-0.00011866
-0.000119665
-0.00011965
-0.000118739
-0.00011711
-0.000114801
-0.000111772
-0.000107989
-0.000103457
-9.81846e-05
-9.21538e-05
-8.53123e-05
-7.75823e-05
-6.89691e-05
-5.94045e-05
-4.88291e-05
-3.74043e-05
-2.52586e-05
-1.27144e-05
-2.91175e-07
1.15137e-05
2.23746e-05
3.20334e-05
4.04376e-05
4.76473e-05
5.37016e-05
5.8547e-05
6.22845e-05
6.48219e-05
6.61609e-05
6.63404e-05
6.5495e-05
6.40617e-05
6.22883e-05
6.01243e-05
5.72472e-05
5.41901e-05
4.89621e-05
4.43736e-05
4.00915e-05
3.56742e-05
3.15279e-05
2.78507e-05
2.4551e-05
2.13939e-05
1.87038e-05
1.64262e-05
1.44889e-05
1.28428e-05
1.14419e-05
1.02459e-05
9.22378e-06
8.35242e-06
7.61391e-06
6.99424e-06
6.48272e-06
6.07117e-06
5.75346e-06
5.52567e-06
5.38657e-06
5.33579e-06
5.37576e-06
5.51313e-06
5.7612e-06
6.14648e-06
6.72348e-06
7.60783e-06
9.04153e-06
1.15698e-05
1.62092e-05
2.39641e-05
3.3089e-05
4.05812e-05
1.26303e-06
2.05422e-06
3.08754e-06
4.48551e-06
5.97198e-06
7.50891e-06
9.12205e-06
1.08298e-05
1.26252e-05
1.45029e-05
1.64657e-05
1.85201e-05
2.06735e-05
2.29339e-05
2.53111e-05
2.78155e-05
3.04577e-05
3.32483e-05
3.61977e-05
3.93158e-05
4.26118e-05
4.6094e-05
4.97696e-05
5.3644e-05
5.77208e-05
6.20008e-05
6.64809e-05
7.11531e-05
7.60027e-05
8.10203e-05
8.61788e-05
9.11617e-05
9.5798e-05
9.99215e-05
0.000103392
0.00010603
0.00010783
0.000108461
0.000108119
0.000107016
0.000105115
0.000102408
9.89914e-05
9.49421e-05
9.03479e-05
8.53049e-05
7.99129e-05
7.42395e-05
6.83197e-05
6.21695e-05
5.582e-05
4.91875e-05
4.22159e-05
3.48936e-05
2.70815e-05
1.86926e-05
9.54794e-06
-4.23936e-07
-1.14681e-05
-2.37158e-05
-3.71262e-05
-5.05302e-05
-6.38612e-05
-7.53781e-05
-8.53693e-05
-9.31123e-05
-9.91511e-05
-0.000103971
-0.000107274
-0.000109252
-0.000110198
-0.000110317
-0.000109674
-0.000108248
-0.000106065
-0.000103134
-9.94544e-05
-9.50209e-05
-8.98085e-05
-8.38307e-05
-7.70618e-05
-6.939e-05
-6.07178e-05
-5.1096e-05
-4.05124e-05
-2.91013e-05
-1.69956e-05
-4.59107e-06
7.62918e-06
1.926e-05
3.0005e-05
3.95991e-05
4.80895e-05
5.53899e-05
6.16219e-05
6.67942e-05
7.08831e-05
7.39652e-05
7.60143e-05
7.7041e-05
7.7065e-05
7.61072e-05
7.4219e-05
7.14643e-05
6.79358e-05
6.37365e-05
5.89601e-05
5.37037e-05
4.79986e-05
4.1871e-05
3.53246e-05
2.83153e-05
2.07314e-05
1.26451e-05
3.77347e-06
-5.88333e-06
-1.65658e-05
-2.84631e-05
-4.15629e-05
-5.49689e-05
-6.82393e-05
-8.00333e-05
-8.99751e-05
-9.73273e-05
-0.000103058
-0.00010728
-0.000110253
-0.000112105
-0.000112935
-0.000112854
-0.000112056
-0.00011057
-0.000108393
-0.000105516
-0.000101927
-9.76154e-05
-9.25686e-05
-8.67489e-05
-8.00953e-05
-7.2537e-05
-6.41382e-05
-5.48862e-05
-4.46813e-05
-3.37206e-05
-2.20923e-05
-1.01133e-05
1.75004e-06
1.30754e-05
2.35317e-05
3.28294e-05
4.08748e-05
4.76885e-05
5.33015e-05
5.76656e-05
6.08914e-05
6.29386e-05
6.38622e-05
6.37453e-05
6.27158e-05
6.11327e-05
5.90392e-05
5.62781e-05
5.26632e-05
4.90677e-05
4.45717e-05
4.0514e-05
3.662e-05
3.27412e-05
2.91152e-05
2.58682e-05
2.29454e-05
2.01866e-05
1.77646e-05
1.56769e-05
1.38868e-05
1.23548e-05
1.10433e-05
9.91892e-06
8.95606e-06
8.13587e-06
7.44265e-06
6.86405e-06
6.39075e-06
6.01579e-06
5.7343e-06
5.54455e-06
5.4454e-06
5.43869e-06
5.52936e-06
5.72695e-06
6.04842e-06
6.52391e-06
7.20938e-06
8.20738e-06
9.70288e-06
1.20623e-05
1.58817e-05
2.1074e-05
2.60462e-05
2.949e-05
3.93848e-06
4.05174e-06
4.54389e-06
5.5103e-06
6.68195e-06
7.97747e-06
9.38659e-06
1.0909e-05
1.25355e-05
1.42601e-05
1.60819e-05
1.80036e-05
2.00299e-05
2.21667e-05
2.44215e-05
2.68027e-05
2.93191e-05
3.19799e-05
3.47941e-05
3.77703e-05
4.09168e-05
4.42408e-05
4.77484e-05
5.14441e-05
5.53302e-05
5.94064e-05
6.36685e-05
6.81071e-05
7.27071e-05
7.74562e-05
8.2325e-05
8.70464e-05
9.13972e-05
9.52067e-05
9.83896e-05
0.000100785
0.000102365
0.000102807
0.000102225
0.000100844
9.87153e-05
9.58163e-05
9.22491e-05
8.81219e-05
8.35397e-05
7.86003e-05
7.33965e-05
6.7988e-05
6.24078e-05
5.66644e-05
5.07513e-05
4.46228e-05
3.82367e-05
3.15578e-05
2.45133e-05
1.70315e-05
9.01163e-06
3.28107e-07
-9.22988e-06
-1.98216e-05
-3.16607e-05
-4.40715e-05
-5.67851e-05
-6.84545e-05
-7.88187e-05
-8.70088e-05
-9.31542e-05
-9.77277e-05
-0.000100908
-0.000102933
-0.00010407
-0.000104332
-0.000103766
-0.000102436
-0.000100395
-9.7653e-05
-9.42003e-05
-9.00252e-05
-8.50849e-05
-7.93888e-05
-7.2913e-05
-6.5578e-05
-5.72943e-05
-4.81305e-05
-3.80253e-05
-2.71282e-05
-1.55394e-05
-3.63534e-06
8.11891e-06
1.9356e-05
2.97535e-05
3.90297e-05
4.71958e-05
5.41608e-05
6.0023e-05
6.47942e-05
6.8457e-05
7.10916e-05
7.26819e-05
7.3252e-05
7.28363e-05
7.14749e-05
6.92396e-05
6.62147e-05
6.25084e-05
5.82287e-05
5.34654e-05
4.8312e-05
4.28051e-05
3.69677e-05
3.07936e-05
2.4274e-05
1.73478e-05
1.00303e-05
2.15735e-06
-6.32799e-06
-1.56553e-05
-2.60467e-05
-3.76267e-05
-4.98947e-05
-6.24309e-05
-7.40312e-05
-8.41727e-05
-9.18264e-05
-9.76248e-05
-0.000101577
-0.000104186
-0.000105818
-0.000106572
-0.00010655
-0.000105813
-0.000104374
-0.000102231
-9.94096e-05
-9.59096e-05
-9.16936e-05
-8.67658e-05
-8.10879e-05
-7.46258e-05
-6.73096e-05
-5.91628e-05
-5.02306e-05
-4.03951e-05
-2.98712e-05
-1.873e-05
-7.26825e-06
4.06341e-06
1.48838e-05
2.48515e-05
3.36691e-05
4.12255e-05
4.75339e-05
5.26204e-05
5.64533e-05
5.91518e-05
6.07083e-05
6.12033e-05
6.07236e-05
5.93639e-05
5.74301e-05
5.49213e-05
5.17391e-05
4.79003e-05
4.42969e-05
4.03793e-05
3.67767e-05
3.33181e-05
2.99621e-05
2.68401e-05
2.40057e-05
2.14252e-05
1.90363e-05
1.69003e-05
1.50072e-05
1.33549e-05
1.19251e-05
1.06919e-05
9.62992e-06
8.71977e-06
7.94579e-06
7.2939e-06
6.75313e-06
6.31571e-06
5.9759e-06
5.73046e-06
5.57787e-06
5.51867e-06
5.55687e-06
5.69981e-06
5.95966e-06
6.35682e-06
6.92407e-06
7.71495e-06
8.81011e-06
1.03242e-05
1.2479e-05
1.55398e-05
1.90771e-05
2.14343e-05
2.19813e-05
5.43599e-06
5.30059e-06
5.53714e-06
6.23732e-06
7.18096e-06
8.28276e-06
9.5177e-06
1.08749e-05
1.23444e-05
1.39202e-05
1.55999e-05
1.73842e-05
1.92759e-05
2.12793e-05
2.34004e-05
2.56458e-05
2.80231e-05
3.05399e-05
3.32041e-05
3.60231e-05
3.90042e-05
4.21536e-05
4.54763e-05
4.89759e-05
5.26538e-05
5.65087e-05
6.05353e-05
6.47237e-05
6.90585e-05
7.35272e-05
7.81003e-05
8.25342e-05
8.6589e-05
9.00976e-05
9.30113e-05
9.51744e-05
9.65383e-05
9.67937e-05
9.60136e-05
9.44261e-05
9.21362e-05
8.911e-05
8.5459e-05
8.13201e-05
7.68118e-05
7.20308e-05
6.70615e-05
6.19561e-05
5.67387e-05
5.14075e-05
4.59455e-05
4.0325e-05
3.45135e-05
2.84778e-05
2.21873e-05
1.55886e-05
8.6296e-06
1.18362e-06
-6.9362e-06
-1.59396e-05
-2.59509e-05
-3.68416e-05
-4.85454e-05
-5.99196e-05
-7.05628e-05
-7.95574e-05
-8.65277e-05
-9.16443e-05
-9.50963e-05
-9.71886e-05
-9.82888e-05
-9.85222e-05
-9.79809e-05
-9.67291e-05
-9.48018e-05
-9.22158e-05
-8.89573e-05
-8.50171e-05
-8.03281e-05
-7.48938e-05
-6.87021e-05
-6.16935e-05
-5.37681e-05
-4.50078e-05
-3.53313e-05
-2.49046e-05
-1.38075e-05
-2.39639e-06
8.87498e-06
1.9662e-05
2.96274e-05
3.84902e-05
4.624e-05
5.27898e-05
5.82209e-05
6.25469e-05
6.57537e-05
6.79224e-05
6.90466e-05
6.91643e-05
6.83264e-05
6.6593e-05
6.40567e-05
6.08201e-05
5.70026e-05
5.27143e-05
4.80411e-05
4.30712e-05
3.7838e-05
3.23622e-05
2.6642e-05
2.06861e-05
1.44601e-05
7.96106e-06
1.08798e-06
-6.2395e-06
-1.42326e-05
-2.31095e-05
-3.30157e-05
-4.38541e-05
-5.53391e-05
-6.64932e-05
-7.67583e-05
-8.50501e-05
-9.1465e-05
-9.58159e-05
-9.85489e-05
-0.000100128
-0.00010077
-0.000100638
-9.98106e-05
-9.8329e-05
-9.61887e-05
-9.34032e-05
-8.99672e-05
-8.58312e-05
-8.10152e-05
-7.54746e-05
-6.91909e-05
-6.20885e-05
-5.41805e-05
-4.55434e-05
-3.60437e-05
-2.59212e-05
-1.5245e-05
-4.29516e-06
6.48721e-06
1.67441e-05
2.61327e-05
3.43694e-05
4.13433e-05
4.70711e-05
5.15767e-05
5.48447e-05
5.69957e-05
5.80407e-05
5.80708e-05
5.71693e-05
5.54158e-05
5.31109e-05
5.02919e-05
4.69474e-05
4.32011e-05
3.97998e-05
3.63641e-05
3.31842e-05
3.01587e-05
2.72752e-05
2.45982e-05
2.21563e-05
1.99246e-05
1.78537e-05
1.59586e-05
1.42588e-05
1.27574e-05
1.14419e-05
1.02977e-05
9.30868e-06
8.45888e-06
7.73503e-06
7.12625e-06
6.62434e-06
6.22345e-06
5.91893e-06
5.70849e-06
5.59139e-06
5.56899e-06
5.64765e-06
5.83578e-06
6.14577e-06
6.59872e-06
7.22477e-06
8.06702e-06
9.17934e-06
1.06178e-05
1.24662e-05
1.46961e-05
1.67803e-05
1.7561e-05
1.68883e-05
6.23035e-06
6.03107e-06
6.15141e-06
6.68058e-06
7.45552e-06
8.40026e-06
9.48555e-06
1.06963e-05
1.20223e-05
1.34572e-05
1.49983e-05
1.6645e-05
1.83991e-05
2.02639e-05
2.22442e-05
2.43453e-05
2.65736e-05
2.89356e-05
3.14381e-05
3.40877e-05
3.68903e-05
3.98514e-05
4.29753e-05
4.62645e-05
4.97198e-05
5.33391e-05
5.71167e-05
6.10423e-05
6.51006e-05
6.928e-05
7.35517e-05
7.76854e-05
8.14411e-05
8.46601e-05
8.73206e-05
8.9265e-05
9.04248e-05
9.05089e-05
8.95704e-05
8.78346e-05
8.54385e-05
8.23427e-05
7.86672e-05
7.45751e-05
7.01934e-05
6.5617e-05
6.09191e-05
5.61426e-05
5.13021e-05
4.63883e-05
4.13821e-05
3.62657e-05
3.10155e-05
2.56075e-05
2.00369e-05
1.42655e-05
8.26908e-06
1.93626e-06
-4.87641e-06
-1.23781e-05
-2.07297e-05
-2.994e-05
-4.00414e-05
-5.05434e-05
-6.09045e-05
-7.03217e-05
-7.81977e-05
-8.43224e-05
-8.86195e-05
-9.1263e-05
-9.26578e-05
-9.3022e-05
-9.25521e-05
-9.13586e-05
-8.94956e-05
-8.70006e-05
-8.38641e-05
-8.00888e-05
-7.55946e-05
-7.03818e-05
-6.4446e-05
-5.77289e-05
-5.01274e-05
-4.1736e-05
-3.24684e-05
-2.2496e-05
-1.18896e-05
-9.87296e-07
9.76713e-06
2.0043e-05
2.9502e-05
3.78769e-05
4.51447e-05
5.12241e-05
5.61816e-05
6.00313e-05
6.27608e-05
6.44523e-05
6.51103e-05
6.47881e-05
6.35551e-05
6.14927e-05
5.87133e-05
5.53341e-05
5.14811e-05
4.72618e-05
4.27556e-05
3.80412e-05
3.31466e-05
2.80905e-05
2.28768e-05
1.75204e-05
1.20023e-05
6.31332e-06
3.86197e-07
-5.86507e-06
-1.26215e-05
-2.00907e-05
-2.84298e-05
-3.7668e-05
-4.77403e-05
-5.8055e-05
-6.80269e-05
-7.66955e-05
-8.38239e-05
-8.89843e-05
-9.23502e-05
-9.42813e-05
-9.50585e-05
-9.49345e-05
-9.40588e-05
-9.25316e-05
-9.03696e-05
-8.75884e-05
-8.41917e-05
-8.01135e-05
-7.53868e-05
-6.99598e-05
-6.38223e-05
-5.69038e-05
-4.92136e-05
-4.08501e-05
-3.16811e-05
-2.19554e-05
-1.17527e-05
-1.34102e-06
8.84949e-06
1.84766e-05
2.72085e-05
3.47906e-05
4.11202e-05
4.62188e-05
5.01078e-05
5.27854e-05
5.43695e-05
5.48857e-05
5.44355e-05
5.31084e-05
5.09928e-05
4.84085e-05
4.54485e-05
4.21514e-05
3.86559e-05
3.55365e-05
3.25282e-05
2.97501e-05
2.71358e-05
2.46732e-05
2.23865e-05
2.02969e-05
1.83825e-05
1.65972e-05
1.49354e-05
1.34257e-05
1.20763e-05
1.08818e-05
9.83423e-06
8.9237e-06
8.1389e-06
7.47025e-06
6.90921e-06
6.45002e-06
6.08781e-06
5.81858e-06
5.6414e-06
5.55645e-06
5.56623e-06
5.6769e-06
5.89587e-06
6.23488e-06
6.7121e-06
7.34984e-06
8.1751e-06
9.21365e-06
1.04752e-05
1.19176e-05
1.33997e-05
1.45037e-05
1.45424e-05
1.36261e-05
6.58649e-06
6.39215e-06
6.46221e-06
6.87835e-06
7.5252e-06
8.3404e-06
9.29558e-06
1.03749e-05
1.15683e-05
1.28696e-05
1.42756e-05
1.57857e-05
1.74008e-05
1.91236e-05
2.09577e-05
2.29078e-05
2.49792e-05
2.71776e-05
2.95086e-05
3.1978e-05
3.4591e-05
3.73522e-05
4.02651e-05
4.33316e-05
4.65521e-05
4.99238e-05
5.34411e-05
5.70936e-05
6.08669e-05
6.47501e-05
6.87157e-05
7.25444e-05
7.6003e-05
7.8944e-05
8.13677e-05
8.31097e-05
8.4083e-05
8.40176e-05
8.29582e-05
8.11233e-05
7.86699e-05
7.55567e-05
7.19098e-05
6.79154e-05
6.37043e-05
5.93704e-05
5.49714e-05
5.0541e-05
4.60856e-05
4.15914e-05
3.70397e-05
3.24191e-05
2.7714e-05
2.2909e-05
1.80148e-05
1.30037e-05
7.86727e-06
2.51006e-06
-3.17413e-06
-9.36228e-06
-1.62052e-05
-2.384e-05
-3.2264e-05
-4.13436e-05
-5.07855e-05
-5.997e-05
-6.82448e-05
-7.52109e-05
-8.05502e-05
-8.41686e-05
-8.63183e-05
-8.71887e-05
-8.7033e-05
-8.60318e-05
-8.42942e-05
-8.19021e-05
-7.8871e-05
-7.52291e-05
-7.08989e-05
-6.58779e-05
-6.01706e-05
-5.37164e-05
-4.6421e-05
-3.83819e-05
-2.95167e-05
-1.99953e-05
-9.89101e-06
4.74786e-07
1.0671e-05
2.03809e-05
2.92767e-05
3.71112e-05
4.38525e-05
4.94242e-05
5.38791e-05
5.72311e-05
5.94699e-05
6.06804e-05
6.08804e-05
6.0141e-05
5.85518e-05
5.6216e-05
5.32627e-05
4.98188e-05
4.60103e-05
4.19373e-05
3.76687e-05
3.32712e-05
2.87662e-05
2.417e-05
1.94896e-05
1.47403e-05
9.91197e-06
4.99204e-06
-6.78879e-08
-5.35173e-06
-1.10089e-05
-1.72216e-05
-2.4141e-05
-3.1869e-05
-4.04122e-05
-4.94964e-05
-5.87066e-05
-6.72562e-05
-7.47588e-05
-8.06673e-05
-8.48763e-05
-8.75138e-05
-8.87882e-05
-8.8967e-05
-8.82468e-05
-8.67905e-05
-8.46611e-05
-8.19027e-05
-7.8545e-05
-7.45167e-05
-6.9866e-05
-6.45396e-05
-5.85336e-05
-5.17912e-05
-4.43178e-05
-3.62251e-05
-2.73996e-05
-1.80861e-05
-8.38355e-06
1.44936e-06
1.09971e-05
1.99362e-05
2.79565e-05
3.48371e-05
4.04845e-05
4.49241e-05
4.81745e-05
5.02476e-05
5.12596e-05
5.12547e-05
5.035e-05
4.86516e-05
4.6268e-05
4.35368e-05
4.05904e-05
3.74765e-05
3.43027e-05
3.14974e-05
2.88836e-05
2.64854e-05
2.42519e-05
2.21633e-05
2.02204e-05
1.8443e-05
1.68113e-05
1.52802e-05
1.3836e-05
1.25087e-05
1.13096e-05
1.02387e-05
9.29285e-06
8.46616e-06
7.75159e-06
7.14253e-06
6.63281e-06
6.21814e-06
5.89507e-06
5.66084e-06
5.5148e-06
5.45762e-06
5.49197e-06
5.62274e-06
5.85648e-06
6.2024e-06
6.67238e-06
7.27901e-06
8.03264e-06
8.93318e-06
9.95416e-06
1.10163e-05
1.19616e-05
1.24969e-05
1.22517e-05
1.1418e-05
6.64599e-06
6.47778e-06
6.52732e-06
6.86616e-06
7.41383e-06
8.12049e-06
8.96109e-06
9.9208e-06
1.09902e-05
1.21636e-05
1.3438e-05
1.48124e-05
1.62875e-05
1.78654e-05
1.95492e-05
2.13428e-05
2.32506e-05
2.52776e-05
2.74287e-05
2.97087e-05
3.21223e-05
3.46732e-05
3.73643e-05
4.01974e-05
4.31721e-05
4.62858e-05
4.95329e-05
5.29036e-05
5.63844e-05
5.99658e-05
6.36216e-05
6.71441e-05
7.03108e-05
7.2986e-05
7.51897e-05
7.67482e-05
7.7556e-05
7.73662e-05
7.62217e-05
7.43316e-05
7.18657e-05
6.87827e-05
6.52112e-05
6.13555e-05
5.73573e-05
5.32946e-05
4.92131e-05
4.514e-05
4.10743e-05
3.69996e-05
3.28981e-05
2.87631e-05
2.45845e-05
2.03538e-05
1.60896e-05
1.17715e-05
7.39901e-06
2.89165e-06
-1.82996e-06
-6.91245e-06
-1.24728e-05
-1.86819e-05
-2.55595e-05
-3.31226e-05
-4.12311e-05
-4.95411e-05
-5.75522e-05
-6.47993e-05
-7.08704e-05
-7.5464e-05
-7.8594e-05
-8.03056e-05
-8.07994e-05
-8.02683e-05
-7.88592e-05
-7.67017e-05
-7.3851e-05
-7.03734e-05
-6.622e-05
-6.13925e-05
-5.59083e-05
-4.97074e-05
-4.27145e-05
-3.50224e-05
-2.6563e-05
-1.74999e-05
-7.91795e-06
1.87954e-06
1.14785e-05
2.058e-05
2.88741e-05
3.6134e-05
4.23205e-05
4.736e-05
5.12931e-05
5.41337e-05
5.58759e-05
5.66098e-05
5.63698e-05
5.52475e-05
5.33546e-05
5.08134e-05
4.77651e-05
4.4339e-05
4.06544e-05
3.67989e-05
3.28282e-05
2.87956e-05
2.47158e-05
2.06019e-05
1.64614e-05
1.23072e-05
8.13389e-06
3.92657e-06
-3.52454e-07
-4.78138e-06
-9.48197e-06
-1.46093e-05
-2.02926e-05
-2.66711e-05
-3.37531e-05
-4.14789e-05
-4.95667e-05
-5.75158e-05
-6.48952e-05
-7.11728e-05
-7.60676e-05
-7.949e-05
-8.14861e-05
-8.22407e-05
-8.19335e-05
-8.07544e-05
-7.8807e-05
-7.61705e-05
-7.29104e-05
-6.89711e-05
-6.44205e-05
-5.92125e-05
-5.33496e-05
-4.67961e-05
-3.95573e-05
-3.17507e-05
-2.32952e-05
-1.44233e-05
-5.25722e-06
3.95353e-06
1.28135e-05
2.10227e-05
2.82983e-05
3.44512e-05
3.9396e-05
4.31614e-05
4.57659e-05
4.72377e-05
4.76965e-05
4.72101e-05
4.59156e-05
4.39381e-05
4.14034e-05
3.86531e-05
3.58362e-05
3.29847e-05
3.01615e-05
2.76835e-05
2.54386e-05
2.33951e-05
2.15092e-05
1.9753e-05
1.81137e-05
1.66115e-05
1.52294e-05
1.39239e-05
1.2679e-05
1.15233e-05
1.04695e-05
9.5212e-06
8.67829e-06
7.93814e-06
7.29676e-06
6.74992e-06
6.29357e-06
5.92457e-06
5.64045e-06
5.43953e-06
5.32137e-06
5.28669e-06
5.33767e-06
5.4778e-06
5.71169e-06
6.04486e-06
6.48294e-06
7.02934e-06
7.68124e-06
8.42183e-06
9.20817e-06
9.95743e-06
1.05381e-05
1.0762e-05
1.04372e-05
9.75238e-06
6.48924e-06
6.35022e-06
6.39244e-06
6.67577e-06
7.1443e-06
7.75812e-06
8.49624e-06
9.34562e-06
1.0298e-05
1.13482e-05
1.24935e-05
1.37331e-05
1.50675e-05
1.64983e-05
1.80282e-05
1.96605e-05
2.13991e-05
2.32481e-05
2.52117e-05
2.72943e-05
2.94996e-05
3.18311e-05
3.4291e-05
3.68807e-05
3.95999e-05
4.24459e-05
4.54137e-05
4.84943e-05
5.16756e-05
5.49495e-05
5.8292e-05
6.15083e-05
6.43889e-05
6.68105e-05
6.88116e-05
7.02068e-05
7.08722e-05
7.05853e-05
6.93908e-05
6.74867e-05
6.50504e-05
6.20411e-05
5.85855e-05
5.4907e-05
5.11563e-05
4.73833e-05
4.36332e-05
3.99254e-05
3.62528e-05
3.25967e-05
2.89403e-05
2.52794e-05
2.16078e-05
1.79216e-05
1.42417e-05
1.05533e-05
6.85947e-06
3.09266e-06
-8.06698e-07
-4.96131e-06
-9.4583e-06
-1.44628e-05
-1.99979e-05
-2.6141e-05
-3.28231e-05
-3.99233e-05
-4.71215e-05
-5.40357e-05
-6.02759e-05
-6.5464e-05
-6.94286e-05
-7.2051e-05
-7.33974e-05
-7.35893e-05
-7.27612e-05
-7.10607e-05
-6.85645e-05
-6.53607e-05
-6.14582e-05
-5.68743e-05
-5.16461e-05
-4.57205e-05
-3.90507e-05
-3.17205e-05
-2.36854e-05
-1.51005e-05
-6.06706e-06
3.13152e-06
1.21024e-05
2.05689e-05
2.82359e-05
3.49011e-05
4.05155e-05
4.50073e-05
4.84063e-05
5.07287e-05
5.19756e-05
5.22463e-05
5.15963e-05
5.01398e-05
4.8009e-05
4.53418e-05
4.2283e-05
3.89569e-05
3.54697e-05
3.1893e-05
2.82676e-05
2.4634e-05
2.10002e-05
1.73757e-05
1.37667e-05
1.01831e-05
6.62122e-06
3.06447e-06
-5.18183e-07
-4.19763e-06
-8.0726e-06
-1.22745e-05
-1.69079e-05
-2.21143e-05
-2.79142e-05
-3.42992e-05
-4.11503e-05
-4.81702e-05
-5.49861e-05
-6.1165e-05
-6.63689e-05
-7.03705e-05
-7.30664e-05
-7.45081e-05
-7.47973e-05
-7.40956e-05
-7.25204e-05
-7.01673e-05
-6.7121e-05
-6.33619e-05
-5.89797e-05
-5.39452e-05
-4.82704e-05
-4.19448e-05
-3.49797e-05
-2.74947e-05
-1.94481e-05
-1.10577e-05
-2.46762e-06
6.08276e-06
1.42221e-05
2.16767e-05
2.81915e-05
3.36056e-05
3.78409e-05
4.09307e-05
4.28986e-05
4.37928e-05
4.37426e-05
4.28421e-05
4.12474e-05
3.90977e-05
3.65259e-05
3.38614e-05
3.12533e-05
2.87076e-05
2.62439e-05
2.40955e-05
2.21949e-05
2.04788e-05
1.89075e-05
1.74466e-05
1.60754e-05
1.48154e-05
1.36529e-05
1.25475e-05
1.14833e-05
1.04868e-05
9.57097e-06
8.7414e-06
8.00007e-06
7.3466e-06
6.7792e-06
6.29546e-06
5.89289e-06
5.56937e-06
5.32323e-06
5.15335e-06
5.05944e-06
5.04201e-06
5.10239e-06
5.24257e-06
5.4648e-06
5.77099e-06
6.16148e-06
6.63271e-06
7.17349e-06
7.75912e-06
8.34381e-06
8.85509e-06
9.19628e-06
9.25408e-06
8.93149e-06
8.38554e-06
6.16573e-06
6.05289e-06
6.09342e-06
6.33611e-06
6.73758e-06
7.2696e-06
7.91453e-06
8.66091e-06
9.50167e-06
1.04325e-05
1.14511e-05
1.25567e-05
1.37497e-05
1.50316e-05
1.64047e-05
1.78718e-05
1.94362e-05
2.11015e-05
2.28713e-05
2.47492e-05
2.67387e-05
2.88424e-05
3.10625e-05
3.34e-05
3.58544e-05
3.84237e-05
4.11032e-05
4.38852e-05
4.67593e-05
4.97192e-05
5.27433e-05
5.56523e-05
5.82517e-05
6.04309e-05
6.22454e-05
6.34986e-05
6.40463e-05
6.36913e-05
6.24815e-05
6.0603e-05
5.82362e-05
5.53404e-05
5.20372e-05
4.85689e-05
4.50887e-05
4.16236e-05
3.82183e-05
3.48839e-05
3.16079e-05
2.837e-05
2.51533e-05
2.19552e-05
1.87707e-05
1.55993e-05
1.24601e-05
9.34423e-06
6.25456e-06
3.13499e-06
-5.91478e-08
-3.431e-06
-7.04458e-06
-1.10439e-05
-1.54487e-05
-2.03589e-05
-2.57439e-05
-3.15633e-05
-3.76715e-05
-4.38192e-05
-4.9688e-05
-5.49454e-05
-5.93412e-05
-6.26514e-05
-6.47992e-05
-6.57934e-05
-6.57039e-05
-6.46443e-05
-6.2716e-05
-5.99656e-05
-5.64565e-05
-5.22232e-05
-4.73303e-05
-4.17406e-05
-3.54453e-05
-2.8519e-05
-2.09454e-05
-1.2872e-05
-4.41749e-06
4.15482e-06
1.24751e-05
2.02885e-05
2.73174e-05
3.33773e-05
3.84095e-05
4.23437e-05
4.52018e-05
4.70051e-05
4.77662e-05
4.7599e-05
4.65833e-05
4.48561e-05
4.25668e-05
3.98603e-05
3.68767e-05
3.37279e-05
3.0502e-05
2.72532e-05
2.40075e-05
2.07935e-05
1.76138e-05
1.44738e-05
1.13781e-05
8.33301e-06
5.33495e-06
2.3668e-06
-5.98132e-07
-3.62267e-06
-6.78644e-06
-1.02006e-05
-1.39471e-05
-1.81528e-05
-2.28448e-05
-2.80486e-05
-3.36917e-05
-3.96401e-05
-4.56338e-05
-5.13257e-05
-5.64252e-05
-6.06582e-05
-6.38302e-05
-6.58732e-05
-6.67889e-05
-6.66684e-05
-6.56024e-05
-6.36973e-05
-6.10162e-05
-5.75679e-05
-5.34579e-05
-4.86854e-05
-4.32761e-05
-3.72452e-05
-3.06149e-05
-2.3506e-05
-1.59175e-05
-8.05351e-06
-7.72832e-08
7.78314e-06
1.51816e-05
2.18706e-05
2.76204e-05
3.22952e-05
3.58249e-05
3.82514e-05
3.96084e-05
3.99686e-05
3.94747e-05
3.82462e-05
3.64521e-05
3.4236e-05
3.1726e-05
2.92272e-05
2.68798e-05
2.46623e-05
2.25557e-05
2.07314e-05
1.91498e-05
1.77328e-05
1.64442e-05
1.52452e-05
1.41106e-05
1.30635e-05
1.20938e-05
1.11655e-05
1.02644e-05
9.41425e-06
8.62774e-06
7.91131e-06
7.26826e-06
6.69972e-06
6.20536e-06
5.78409e-06
5.43453e-06
5.15534e-06
4.94544e-06
4.804e-06
4.73073e-06
4.72574e-06
4.78945e-06