/*--------------------------------*- C++ -*----------------------------------*\
| =========                 |                                                 |
| \\      /  F ield         | OpenFOAM: The Open Source CFD Toolbox           |
|  \\    /   O peration     | Version:  2506                                  |
|   \\  /    A nd           | Website:  www.openfoam.com                      |
|    \\/     M anipulation  |                                                 |
\*---------------------------------------------------------------------------*/
FoamFile
{
    version     2.0;
    format      ascii;
    arch        "LSB;label=32;scalar=64";
    class       surfaceScalarField;
    location    "0.2";
    object      phi;
}
// * * * * * * * * * * * * * * * * * * * * * * * * * * * * * * * * * * * * * //

dimensions      [0 3 -1 0 0 0 0];

oriented        oriented;

internalField   nonuniform List<scalar> 
7780
(
9.05901e-10
-9.05902e-10
1.61571e-09
-7.09805e-10
2.05296e-09
-4.37256e-10
2.34924e-09
-2.96275e-10
2.55432e-09
-2.0508e-10
2.69515e-09
-1.40833e-10
2.79432e-09
-9.91703e-11
2.86737e-09
-7.3051e-11
2.92376e-09
-5.63862e-11
2.96918e-09
-4.54252e-11
3.0072e-09
-3.80151e-11
3.04005e-09
-3.28549e-11
3.0692e-09
-2.91508e-11
3.09563e-09
-2.64276e-11
3.12003e-09
-2.43979e-11
3.14291e-09
-2.28827e-11
3.16468e-09
-2.17679e-11
3.18566e-09
-2.0981e-11
3.20614e-09
-2.04765e-11
3.22637e-09
-2.02282e-11
3.24659e-09
-2.02241e-11
3.26705e-09
-2.04638e-11
3.28801e-09
-2.09576e-11
3.30974e-09
-2.17257e-11
3.33254e-09
-2.27996e-11
3.35676e-09
-2.42231e-11
3.38281e-09
-2.60525e-11
3.41117e-09
-2.83567e-11
3.44234e-09
-3.11727e-11
3.47667e-09
-3.4333e-11
3.50126e-09
-8.39412e-11
3.45499e-09
-3.72416e-10
3.32711e-09
-7.44056e-10
3.13421e-09
-1.08715e-09
2.89918e-09
-1.39182e-09
2.66663e-09
-1.68753e-09
2.46844e-09
-1.98277e-09
2.24985e-09
-2.34536e-09
2.03039e-09
-2.58644e-09
1.8614e-09
-2.6955e-09
1.72629e-09
-2.76966e-09
1.61697e-09
-2.82147e-09
1.52191e-09
-2.85121e-09
1.43457e-09
-2.86454e-09
1.35119e-09
-2.86449e-09
1.26816e-09
-2.85104e-09
1.18657e-09
-2.82407e-09
1.10321e-09
-2.78375e-09
1.01664e-09
-2.72821e-09
9.2515e-10
-2.65478e-09
8.33686e-10
-2.56138e-09
7.62404e-10
-2.44749e-09
7.09912e-10
-2.31297e-09
7.11298e-10
-2.14267e-09
7.86893e-10
-1.9343e-09
9.76977e-10
-1.65999e-09
1.28167e-09
-1.31513e-09
1.69773e-09
-8.41109e-10
2.14485e-09
-2.42047e-10
2.51091e-09
4.21714e-10
2.75747e-09
1.04449e-09
2.90416e-09
1.59461e-09
2.98359e-09
1.95185e-09
3.03662e-09
2.24399e-09
3.07853e-09
2.42239e-09
3.12525e-09
2.55819e-09
3.17565e-09
2.66477e-09
3.22859e-09
2.73777e-09
3.28282e-09
2.79469e-09
3.33662e-09
2.8387e-09
3.39004e-09
2.87164e-09
3.44274e-09
2.89107e-09
3.49484e-09
2.89936e-09
3.54648e-09
2.89789e-09
3.59769e-09
2.88666e-09
3.64869e-09
2.865e-09
3.69955e-09
2.83175e-09
3.75037e-09
2.77791e-09
3.80125e-09
2.71258e-09
3.85184e-09
2.62866e-09
3.90292e-09
2.51864e-09
3.95265e-09
2.35149e-09
4.00156e-09
2.16686e-09
4.04738e-09
1.88928e-09
4.0895e-09
1.5646e-09
4.12407e-09
1.08713e-09
4.15059e-09
5.61451e-10
4.16314e-09
-2.35055e-11
4.15842e-09
-6.30179e-10
4.12809e-09
-1.15702e-09
4.06887e-09
-1.54995e-09
3.9744e-09
-1.87933e-09
3.8479e-09
-2.09099e-09
3.69588e-09
-2.28012e-09
3.53356e-09
-2.40796e-09
3.37205e-09
-2.51929e-09
3.21707e-09
-2.6206e-09
3.0734e-09
-2.69312e-09
2.94021e-09
-2.74988e-09
2.81495e-09
-2.79126e-09
2.6943e-09
-2.81799e-09
2.57562e-09
-2.83184e-09
2.45728e-09
-2.83292e-09
2.33786e-09
-2.82232e-09
2.21584e-09
-2.80006e-09
2.08977e-09
-2.76535e-09
1.95743e-09
-2.71604e-09
1.81899e-09
-2.64793e-09
1.6793e-09
-2.56058e-09
1.53661e-09
-2.45471e-09
1.39177e-09
-2.32135e-09
1.28703e-09
-2.15329e-09
1.2162e-09
-1.96385e-09
1.24433e-09
-1.71021e-09
1.37315e-09
-1.41024e-09
1.6314e-09
-1.00971e-09
1.98253e-09
-4.84189e-10
2.32552e-09
1.2831e-10
2.57935e-09
7.68137e-10
2.73331e-09
1.3687e-09
2.80541e-09
1.80433e-09
2.83774e-09
2.13321e-09
2.85613e-09
2.34929e-09
2.87701e-09
2.52248e-09
2.90645e-09
2.62769e-09
2.94259e-09
2.71054e-09
2.98365e-09
2.77944e-09
3.02837e-09
2.82899e-09
3.0754e-09
2.86257e-09
3.12431e-09
2.88507e-09
3.17496e-09
2.89729e-09
3.22757e-09
2.89947e-09
3.28218e-09
2.89166e-09
3.33878e-09
2.8716e-09
3.3983e-09
2.84038e-09
3.46036e-09
2.79742e-09
3.52575e-09
2.73965e-09
3.59498e-09
2.66489e-09
3.66752e-09
2.55073e-09
3.74431e-09
2.42068e-09
3.82452e-09
2.2566e-09
3.90676e-09
2.00197e-09
3.99003e-09
1.72479e-09
4.06964e-09
1.30613e-09
4.14391e-09
8.21925e-10
4.20567e-09
2.6437e-10
4.24996e-09
-3.46658e-10
4.26775e-09
-9.22916e-10
4.25461e-09
-1.37248e-09
4.20319e-09
-1.73641e-09
4.11472e-09
-2.0064e-09
3.99355e-09
-2.20305e-09
3.85583e-09
-2.35091e-09
3.70992e-09
-2.48884e-09
3.56722e-09
-2.58547e-09
3.43282e-09
-2.6668e-09
3.30689e-09
-2.73126e-09
3.18662e-09
-2.78138e-09
3.06871e-09
-2.81152e-09
2.93861e-09
-2.81545e-09
2.77544e-09
-2.78862e-09
2.53347e-09
-2.70641e-09
2.08985e-09
-2.4916e-09
1.83534e-09
-2.11783e-09
1.66129e-09
-1.90604e-09
1.55074e-09
-1.72446e-09
1.53144e-09
-1.49131e-09
1.60474e-09
-1.22168e-09
1.78108e-09
-9.01621e-10
2.04044e-09
-5.42035e-10
2.28912e-09
-2.60507e-10
2.45037e-09
-1.61254e-10
2.55715e-09
-1.06775e-10
2.62904e-09
-7.18895e-11
2.67937e-09
-5.03285e-11
2.71654e-09
-3.71711e-11
2.74536e-09
-2.8824e-11
2.76862e-09
-2.32586e-11
2.78801e-09
-1.93831e-11
2.80457e-09
-1.65638e-11
2.81899e-09
-1.44181e-11
2.8317e-09
-1.27131e-11
2.843e-09
-1.13029e-11
2.85309e-09
-1.00896e-11
2.8621e-09
-9.00291e-12
2.87009e-09
-7.99453e-12
2.87709e-09
-6.99515e-12
2.88305e-09
-5.9682e-12
2.88788e-09
-4.82559e-12
2.8913e-09
-3.42251e-12
2.89274e-09
-1.43691e-12
2.89113e-09
1.61376e-12
2.8841e-09
7.02413e-12
2.8666e-09
1.75001e-11
2.82758e-09
3.90246e-11
2.74301e-09
8.45697e-11
2.5607e-09
1.82306e-10
2.16729e-09
3.93414e-10
1.32144e-09
8.45846e-10
1.32144e-09
-5.27238e-11
-8.53178e-10
1.98478e-10
-9.61005e-10
5.27696e-10
-7.66475e-10
8.12919e-10
-5.81497e-10
1.0427e-09
-4.34861e-10
1.22447e-09
-3.22604e-10
1.36703e-09
-2.4173e-10
1.47937e-09
-1.85393e-10
1.56907e-09
-1.46084e-10
1.64195e-09
-1.18308e-10
1.70237e-09
-9.84303e-11
1.75352e-09
-8.40091e-11
1.79778e-09
-7.34095e-11
1.83691e-09
-6.55599e-11
1.87227e-09
-5.97574e-11
1.90493e-09
-5.55353e-11
1.93574e-09
-5.25816e-11
1.96545e-09
-5.06889e-11
1.99469e-09
-4.97235e-11
2.02407e-09
-4.96051e-11
2.05414e-09
-5.02951e-11
2.08547e-09
-5.17887e-11
2.11862e-09
-5.41117e-11
2.15421e-09
-5.732e-11
2.19292e-09
-6.15029e-11
2.23548e-09
-6.67894e-11
2.28279e-09
-7.33595e-11
2.33589e-09
-8.14517e-11
2.3961e-09
-9.1383e-11
2.46507e-09
-1.03304e-10
2.52997e-09
-1.48846e-10
2.52935e-09
-3.71795e-10
2.46018e-09
-6.74881e-10
2.35232e-09
-9.79286e-10
2.23245e-09
-1.27196e-09
2.1226e-09
-1.57768e-09
2.02508e-09
-1.88525e-09
1.8989e-09
-2.21918e-09
1.75515e-09
-2.44269e-09
1.62204e-09
-2.56238e-09
1.49834e-09
-2.64597e-09
1.38345e-09
-2.70657e-09
1.27354e-09
-2.74129e-09
1.16647e-09
-2.75748e-09
1.06077e-09
-2.75879e-09
9.5504e-10
-2.7453e-09
8.49068e-10
-2.71809e-09
7.40106e-10
-2.67479e-09
6.26569e-10
-2.61467e-09
5.0856e-10
-2.53677e-09
3.87496e-10
-2.44032e-09
2.73101e-10
-2.3331e-09
1.66673e-10
-2.20654e-09
8.69042e-11
-2.06289e-09
5.10975e-11
-1.89849e-09
9.81224e-11
-1.70702e-09
2.57651e-10
-1.47465e-09
5.79495e-10
-1.16295e-09
1.07253e-09
-7.35085e-10
1.66446e-09
-1.70225e-10
2.22357e-09
4.85373e-10
2.65607e-09
1.1621e-09
2.92773e-09
1.68018e-09
3.08973e-09
2.082e-09
3.18147e-09
2.33067e-09
3.23923e-09
2.50044e-09
3.28368e-09
2.62031e-09
3.32432e-09
2.69713e-09
3.36658e-09
2.75244e-09
3.41137e-09
2.79392e-09
3.45839e-09
2.82463e-09
3.50659e-09
2.84289e-09
3.55577e-09
2.85019e-09
3.60572e-09
2.84794e-09
3.65618e-09
2.83621e-09
3.70718e-09
2.81402e-09
3.75869e-09
2.78024e-09
3.81085e-09
2.72576e-09
3.86381e-09
2.65963e-09
3.91709e-09
2.57539e-09
3.97148e-09
2.46427e-09
4.02498e-09
2.298e-09
4.07838e-09
2.11346e-09
4.12858e-09
1.83908e-09
4.174e-09
1.51919e-09
4.20628e-09
1.05485e-09
4.22046e-09
5.47271e-10
4.20765e-09
-1.06881e-11
4.16053e-09
-5.83066e-10
4.0704e-09
-1.06689e-09
3.9421e-09
-1.42165e-09
3.78235e-09
-1.71958e-09
3.61006e-09
-1.9187e-09
3.43494e-09
-2.10501e-09
3.26773e-09
-2.24075e-09
3.11023e-09
-2.36179e-09
2.96052e-09
-2.47089e-09
2.81665e-09
-2.54926e-09
2.67613e-09
-2.60936e-09
2.53632e-09
-2.65144e-09
2.39572e-09
-2.6774e-09
2.25313e-09
-2.68924e-09
2.10776e-09
-2.68754e-09
1.95882e-09
-2.67338e-09
1.80528e-09
-2.64651e-09
1.64607e-09
-2.60614e-09
1.48011e-09
-2.55008e-09
1.30807e-09
-2.47589e-09
1.13303e-09
-2.38554e-09
9.55961e-10
-2.27764e-09
7.81714e-10
-2.14711e-09
6.33948e-10
-2.00553e-09
5.15825e-10
-1.84573e-09
4.67716e-10
-1.6621e-09
5.07866e-10
-1.45039e-09
6.80501e-10
-1.18235e-09
1.0143e-09
-8.17988e-10
1.48062e-09
-3.38011e-10
1.98506e-09
2.63698e-10
2.41508e-09
9.38679e-10
2.70234e-09
1.51708e-09
2.86683e-09
1.96872e-09
2.95143e-09
2.26471e-09
2.99647e-09
2.47745e-09
3.02539e-09
2.59876e-09
3.05085e-09
2.68508e-09
3.07961e-09
2.75066e-09
3.11413e-09
2.79446e-09
3.15366e-09
2.82306e-09
3.19731e-09
2.84144e-09
3.24433e-09
2.85029e-09
3.29453e-09
2.84928e-09
3.34773e-09
2.83847e-09
3.40376e-09
2.81559e-09
3.46348e-09
2.78068e-09
3.52639e-09
2.73452e-09
3.59323e-09
2.67281e-09
3.6645e-09
2.59362e-09
3.73973e-09
2.47551e-09
3.82001e-09
2.34041e-09
3.90428e-09
2.17234e-09
3.99037e-09
1.91589e-09
4.07656e-09
1.63861e-09
4.15441e-09
1.22828e-09
4.21894e-09
7.5739e-10
4.2589e-09
2.24412e-10
4.26394e-09
-3.51694e-10
4.22144e-09
-8.80416e-10
4.13226e-09
-1.2833e-09
4.00267e-09
-1.60682e-09
3.84993e-09
-1.85367e-09
3.6898e-09
-2.04292e-09
3.53345e-09
-2.19456e-09
3.38151e-09
-2.3369e-09
3.23624e-09
-2.44019e-09
3.09384e-09
-2.52438e-09
2.9494e-09
-2.58681e-09
2.79571e-09
-2.62768e-09
2.62342e-09
-2.63921e-09
2.41415e-09
-2.60615e-09
2.14732e-09
-2.52177e-09
1.80403e-09
-2.36312e-09
1.40319e-09
-2.09078e-09
1.14174e-09
-1.85642e-09
9.47731e-10
-1.71206e-09
7.8848e-10
-1.56522e-09
6.84203e-10
-1.38703e-09
6.50471e-10
-1.18794e-09
7.09755e-10
-9.609e-10
8.75274e-10
-7.0755e-10
1.0923e-09
-4.77528e-10
1.27114e-09
-3.401e-10
1.41e-09
-2.45627e-10
1.51614e-09
-1.78035e-10
1.59707e-09
-1.31255e-10
1.65912e-09
-9.92185e-11
1.7071e-09
-7.68067e-11
1.74451e-09
-6.06725e-11
1.77386e-09
-4.87256e-11
1.7969e-09
-3.96057e-11
1.81489e-09
-3.24149e-11
1.82874e-09
-2.65565e-11
1.83906e-09
-2.16232e-11
1.84629e-09
-1.73241e-11
1.85073e-09
-1.34391e-11
1.85253e-09
-9.79173e-12
1.85174e-09
-6.20855e-12
1.84829e-09
-2.52109e-12
1.84193e-09
1.5399e-12
1.83217e-09
6.33935e-12
1.81815e-09
1.25781e-11
1.79813e-09
2.16296e-11
1.76864e-09
3.65182e-11
1.72227e-09
6.38701e-11
1.64319e-09
1.18102e-10
1.49883e-09
2.28933e-10
1.23095e-09
4.50189e-10
7.67868e-10
8.56493e-10
1.77599e-10
1.43611e-09
1.49904e-09
-1.8599e-10
-6.67188e-10
-2.0189e-10
-9.45105e-10
-1.01397e-10
-8.66967e-10
3.61637e-11
-7.19058e-10
1.76273e-10
-5.74971e-10
3.06172e-10
-4.52502e-10
4.20981e-10
-3.56539e-10
5.19978e-10
-2.8439e-10
6.04752e-10
-2.30857e-10
6.77574e-10
-1.9113e-10
7.40705e-10
-1.61561e-10
7.96164e-10
-1.39468e-10
8.45683e-10
-1.22929e-10
8.9072e-10
-1.10597e-10
9.32499e-10
-1.01536e-10
9.72054e-10
-9.50907e-11
1.01028e-09
-9.08101e-11
1.04798e-09
-8.83851e-11
1.08587e-09
-8.76136e-11
1.12464e-09
-8.8374e-11
1.16495e-09
-9.06094e-11
1.20748e-09
-9.43169e-11
1.25291e-09
-9.95436e-11
1.30198e-09
-1.06386e-10
1.35547e-09
-1.14995e-10
1.41427e-09
-1.25588e-10
1.47938e-09
-1.3847e-10
1.55199e-09
-1.54059e-10
1.63354e-09
-1.72941e-10
1.72592e-09
-1.95677e-10
1.82235e-09
-2.45277e-10
1.88154e-09
-4.30991e-10
1.89891e-09
-6.92252e-10
1.89046e-09
-9.7083e-10
1.86636e-09
-1.24785e-09
1.83302e-09
-1.54434e-09
1.78483e-09
-1.83707e-09
1.69823e-09
-2.13258e-09
1.58773e-09
-2.33219e-09
1.47573e-09
-2.45038e-09
1.36525e-09
-2.53549e-09
1.25795e-09
-2.59927e-09
1.15261e-09
-2.63596e-09
1.04845e-09
-2.65332e-09
9.44559e-10
-2.6549e-09
8.39733e-10
-2.64048e-09
7.32539e-10
-2.6109e-09
6.21279e-10
-2.56352e-09
5.04661e-10
-2.49806e-09
3.83072e-10
-2.41519e-09
2.58065e-10
-2.31531e-09
1.32421e-10
-2.20746e-09
8.31496e-12
-2.08244e-09
-1.0281e-10
-1.95177e-09
-1.89522e-10
-1.81178e-09
-2.29203e-10
-1.66734e-09
-1.9817e-10
-1.50569e-09
-5.14002e-11
-1.30973e-09
2.50456e-10
-1.03694e-09
7.24999e-10
-6.44772e-10
1.32508e-09
-1.14709e-10
1.95114e-09
5.36042e-10
2.47634e-09
1.15499e-09
2.8574e-09
1.70094e-09
3.09666e-09
2.09143e-09
3.23508e-09
2.36204e-09
3.32004e-09
2.53536e-09
3.38052e-09
2.63666e-09
3.42986e-09
2.70308e-09
3.47417e-09
2.74961e-09
3.51792e-09
2.78088e-09
3.56231e-09
2.79847e-09
3.60834e-09
2.80413e-09
3.65594e-09
2.80034e-09
3.70481e-09
2.78734e-09
3.75479e-09
2.76404e-09
3.80559e-09
2.72943e-09
3.85705e-09
2.67429e-09
3.90939e-09
2.60729e-09
3.96223e-09
2.52255e-09
4.01586e-09
2.41063e-09
4.06709e-09
2.24677e-09
4.11613e-09
2.06442e-09
4.15841e-09
1.79679e-09
4.19171e-09
1.4859e-09
4.20594e-09
1.04062e-09
4.19466e-09
5.58543e-10
4.14479e-09
3.918e-11
4.05041e-09
-4.88683e-10
3.91375e-09
-9.30228e-10
3.75099e-09
-1.25889e-09
3.57389e-09
-1.54248e-09
3.39975e-09
-1.74456e-09
3.23296e-09
-1.93823e-09
3.07769e-09
-2.08548e-09
2.93053e-09
-2.21463e-09
2.78711e-09
-2.32747e-09
2.64504e-09
-2.40718e-09
2.50259e-09
-2.46691e-09
2.35858e-09
-2.50744e-09
2.21238e-09
-2.53119e-09
2.06342e-09
-2.54028e-09
1.91123e-09
-2.53535e-09
1.7552e-09
-2.51734e-09
1.59454e-09
-2.48585e-09
1.42849e-09
-2.44009e-09
1.25669e-09
-2.37828e-09
1.08066e-09
-2.29985e-09
9.02177e-10
-2.20706e-09
7.23005e-10
-2.09846e-09
5.48989e-10
-1.9731e-09
3.90591e-10
-1.84713e-09
2.52106e-10
-1.70725e-09
1.56942e-10
-1.56694e-09
1.19934e-10
-1.41338e-09
1.74633e-10
-1.23705e-09
3.59407e-10
-1.00276e-09
6.94418e-10
-6.73021e-10
1.16897e-09
-2.10855e-10
1.71303e-09
3.9462e-10
2.20839e-09
1.02172e-09
2.58584e-09
1.59126e-09
2.82712e-09
2.02344e-09
2.96482e-09
2.33974e-09
3.04165e-09
2.52193e-09
3.09249e-09
2.63424e-09
3.13377e-09
2.70936e-09
3.17161e-09
2.75662e-09
3.21013e-09
2.78456e-09
3.25135e-09
2.80022e-09
3.29601e-09
2.80562e-09
3.34416e-09
2.80113e-09
3.39563e-09
2.78702e-09
3.45025e-09
2.76098e-09
3.50892e-09
2.722e-09
3.57112e-09
2.67231e-09
3.63739e-09
2.60653e-09
3.70777e-09
2.52323e-09
3.78086e-09
2.40242e-09
3.85757e-09
2.2637e-09
3.93647e-09
2.09344e-09
4.01376e-09
1.83861e-09
4.08779e-09
1.56458e-09
4.14764e-09
1.16844e-09
4.18535e-09
7.19672e-10
4.18499e-09
2.24777e-10
4.13605e-09
-3.0276e-10
4.03646e-09
-7.8082e-10
3.90166e-09
-1.14851e-09
3.7463e-09
-1.45146e-09
3.58695e-09
-1.69433e-09
3.43317e-09
-1.88914e-09
3.28769e-09
-2.04908e-09
3.14467e-09
-2.19389e-09
3.00124e-09
-2.29675e-09
2.85154e-09
-2.37468e-09
2.68939e-09
-2.42465e-09
2.50694e-09
-2.44521e-09
2.29425e-09
-2.42651e-09
2.03914e-09
-2.35102e-09
1.73822e-09
-2.22084e-09
1.40645e-09
-2.03134e-09
1.09348e-09
-1.77781e-09
8.64723e-10
-1.62767e-09
6.68734e-10
-1.51608e-09
4.90965e-10
-1.38747e-09
3.47995e-10
-1.24407e-09
2.52001e-10
-1.09195e-09
2.19829e-10
-9.28727e-10
2.67051e-10
-7.5477e-10
3.73337e-10
-5.83812e-10
4.81869e-10
-4.48632e-10
5.79158e-10
-3.42915e-10
6.62615e-10
-2.61492e-10
7.32065e-10
-2.00705e-10
7.88608e-10
-1.55761e-10
8.34009e-10
-1.22209e-10
8.70078e-10
-9.6741e-11
8.98378e-10
-7.70258e-11
9.2018e-10
-6.14077e-11
9.36477e-10
-4.87119e-11
9.48022e-10
-3.81017e-11
9.55367e-10
-2.89684e-11
9.58895e-10
-2.08516e-11
9.58844e-10
-1.3388e-11
9.55319e-10
-6.26669e-12
9.48299e-10
8.10786e-13
9.37581e-10
8.19756e-12
9.22762e-10
1.6359e-11
9.03123e-10
2.59775e-11
8.77458e-10
3.82431e-11
8.43652e-10
5.54359e-11
7.9792e-10
8.22506e-11
7.33021e-10
1.28768e-10
6.35681e-10
2.15442e-10
4.83838e-10
3.80775e-10
2.53512e-10
6.80516e-10
-3.33295e-11
1.14333e-09
-1.93391e-10
1.59618e-09
1.30565e-09
-1.61358e-10
-5.05831e-10
-2.68433e-10
-8.3803e-10
-2.83443e-10
-8.51957e-10
-2.48512e-10
-7.5399e-10
-1.89397e-10
-6.34086e-10
-1.18931e-10
-5.22968e-10
-4.56922e-11
-4.29778e-10
2.54426e-11
-3.55525e-10
9.22292e-11
-2.97644e-10
1.53978e-10
-2.52879e-10
2.10826e-10
-2.18409e-10
2.6337e-10
-1.92012e-10
3.12405e-10
-1.71964e-10
3.58757e-10
-1.56949e-10
4.03226e-10
-1.46005e-10
4.46566e-10
-1.38431e-10
4.89485e-10
-1.33729e-10
5.32652e-10
-1.31552e-10
5.76712e-10
-1.31674e-10
6.22297e-10
-1.33959e-10
6.70037e-10
-1.38349e-10
7.20573e-10
-1.44854e-10
7.74574e-10
-1.53544e-10
8.32743e-10
-1.64555e-10
8.95837e-10
-1.78088e-10
9.6468e-10
-1.94431e-10
1.04019e-09
-2.13976e-10
1.12338e-09
-2.37256e-10
1.21545e-09
-2.65008e-10
1.31784e-09
-2.98064e-10
1.42733e-09
-3.54769e-10
1.51808e-09
-5.21742e-10
1.58174e-09
-7.55908e-10
1.62144e-09
-1.01053e-09
1.63744e-09
-1.26386e-09
1.6314e-09
-1.5383e-09
1.59942e-09
-1.80508e-09
1.52918e-09
-2.06234e-09
1.43623e-09
-2.23925e-09
1.33908e-09
-2.35323e-09
1.24116e-09
-2.43756e-09
1.14433e-09
-2.50244e-09
1.04831e-09
-2.53994e-09
9.52742e-10
-2.55774e-09
8.56771e-10
-2.55893e-09
7.59083e-10
-2.54279e-09
6.58065e-10
-2.50988e-09
5.52316e-10
-2.45777e-09
4.41258e-10
-2.387e-09
3.24527e-10
-2.29846e-09
2.04322e-10
-2.19511e-09
8.14306e-11
-2.08457e-09
-4.17419e-11
-1.95927e-09
-1.58888e-10
-1.83462e-09
-2.63402e-10
-1.70727e-09
-3.43657e-10
-1.58708e-09
-3.85827e-10
-1.46352e-09
-3.61987e-10
-1.33357e-09
-2.34923e-10
-1.16401e-09
3.75875e-11
-9.17283e-10
4.77952e-10
-5.55071e-10
1.06207e-09
-4.80647e-11
1.68281e-09
5.34254e-10
2.25005e-09
1.13372e-09
2.69794e-09
1.64356e-09
3.0138e-09
2.0462e-09
3.21585e-09
2.33331e-09
3.33937e-09
2.51313e-09
3.42095e-09
2.6215e-09
3.48257e-09
2.68799e-09
3.53661e-09
2.72679e-09
3.58622e-09
2.74881e-09
3.6334e-09
2.75696e-09
3.68033e-09
2.75344e-09
3.7278e-09
2.73988e-09
3.77604e-09
2.7158e-09
3.82486e-09
2.6806e-09
3.87383e-09
2.62532e-09
3.92275e-09
2.55836e-09
3.9709e-09
2.4744e-09
4.01874e-09
2.36279e-09
4.06295e-09
2.20256e-09
4.10372e-09
2.02366e-09
4.13436e-09
1.76616e-09
4.15066e-09
1.4696e-09
4.13884e-09
1.05243e-09
4.09319e-09
6.04198e-10
4.00528e-09
1.27088e-10
3.87556e-09
-3.58962e-10
3.71302e-09
-7.67684e-10
3.53801e-09
-1.08388e-09
3.36178e-09
-1.36624e-09
3.19677e-09
-1.57956e-09
3.04194e-09
-1.7834e-09
2.89705e-09
-1.94058e-09
2.75686e-09
-2.07445e-09
2.6172e-09
-2.18782e-09
2.4766e-09
-2.26658e-09
2.3343e-09
-2.32461e-09
2.18983e-09
-2.36297e-09
2.04297e-09
-2.38433e-09
1.89349e-09
-2.3908e-09
1.74113e-09
-2.38299e-09
1.58549e-09
-2.3617e-09
1.42605e-09
-2.3264e-09
1.2624e-09
-2.27644e-09
1.09472e-09
-2.2106e-09
9.24411e-10
-2.12954e-09
7.53021e-10
-2.03566e-09
5.82486e-10
-1.92792e-09
4.17966e-10
-1.80858e-09
2.63711e-10
-1.69288e-09
1.23884e-10
-1.56743e-09
9.68695e-12
-1.45275e-09
-6.97786e-11
-1.33392e-09
-9.39731e-11
-1.21286e-09
-3.33179e-11
-1.06342e-09
1.44211e-10
-8.5055e-10
4.67123e-10
-5.33765e-10
9.35528e-10
-7.37839e-11
1.47193e-09
4.85311e-10
1.98487e-09
1.07832e-09
2.40459e-09
1.60371e-09
2.70989e-09
2.03443e-09
2.90636e-09
2.32546e-09
3.02614e-09
2.51447e-09
3.10401e-09
2.6315e-09
3.16206e-09
2.69859e-09
3.21211e-09
2.73449e-09
3.26016e-09
2.75215e-09
3.30808e-09
2.75772e-09
3.35731e-09
2.75191e-09
3.40853e-09
2.73581e-09
3.46184e-09
2.70766e-09
3.51814e-09
2.66567e-09
3.57689e-09
2.61354e-09
3.63883e-09
2.54457e-09
3.70427e-09
2.45779e-09
3.77149e-09
2.33521e-09
3.84121e-09
2.19399e-09
3.91063e-09
2.02403e-09
3.97346e-09
1.77578e-09
4.02676e-09
1.51127e-09
4.056e-09
1.1392e-09
4.05372e-09
7.21948e-10
4.0087e-09
2.69802e-10
3.91744e-09
-2.11495e-10
3.78628e-09
-6.49659e-10
3.63644e-09
-9.98668e-10
3.48186e-09
-1.29689e-09
3.33338e-09
-1.54585e-09
3.19239e-09
-1.74816e-09
3.05602e-09
-1.91272e-09
2.91574e-09
-2.05361e-09
2.76765e-09
-2.14866e-09
2.60618e-09
-2.21322e-09
2.42564e-09
-2.2441e-09
2.21955e-09
-2.23911e-09
1.98208e-09
-2.18903e-09
1.71187e-09
-2.08079e-09
1.41996e-09
-1.92892e-09
1.13039e-09
-1.74176e-09
8.81709e-10
-1.52912e-09
6.82421e-10
-1.42838e-09
4.991e-10
-1.33277e-09
3.30108e-10
-1.21849e-09
1.87469e-10
-1.10144e-09
7.76462e-11
-9.82131e-10
9.13876e-12
-8.60221e-10
-8.86571e-12
-7.36766e-10
1.78842e-11
-6.10562e-10
6.13494e-11
-4.92097e-10
1.10169e-10
-3.91734e-10
1.58691e-10
-3.10015e-10
2.03393e-10
-2.45407e-10
2.42505e-10
-1.94873e-10
2.75528e-10
-1.55231e-10
3.02605e-10
-1.23819e-10
3.24143e-10
-9.85636e-11
3.40617e-10
-7.78812e-11
3.52476e-10
-6.05712e-11
3.60096e-10
-4.5722e-11
3.63759e-10
-3.26308e-11
3.63646e-10
-2.07391e-11
3.59834e-10
-9.57591e-12
3.52281e-10
1.28625e-12
3.40804e-10
1.22881e-11
3.25013e-10
2.39885e-11
3.04312e-10
3.70597e-11
2.77759e-10
5.25305e-11
2.43883e-10
7.2119e-11
2.00357e-10
9.8962e-11
1.43479e-10
1.39129e-10
6.77687e-11
2.04479e-10
-3.44637e-11
3.17675e-10
-1.68135e-10
5.14446e-10
-3.17856e-10
8.30236e-10
-4.11846e-10
1.23732e-09
-2.95109e-10
1.47944e-09
1.01054e-09
-1.19082e-10
-3.86749e-10
-2.35721e-10
-7.21391e-10
-2.96724e-10
-7.90955e-10
-3.11364e-10
-7.3935e-10
-2.96409e-10
-6.49041e-10
-2.63514e-10
-5.55863e-10
-2.20346e-10
-4.72945e-10
-1.72287e-10
-4.03585e-10
-1.22693e-10
-3.47238e-10
-7.33291e-11
-3.02243e-10
-2.49931e-11
-2.66745e-10
2.20466e-11
-2.39052e-10
6.78511e-11
-2.17768e-10
1.12693e-10
-2.01791e-10
1.56959e-10
-1.90272e-10
2.01099e-10
-1.8257e-10
2.4559e-10
-1.7822e-10
2.90932e-10
-1.76894e-10
3.37634e-10
-1.78376e-10
3.86218e-10
-1.82543e-10
4.37222e-10
-1.89353e-10
4.91201e-10
-1.98832e-10
5.48735e-10
-2.11078e-10
6.10435e-10
-2.26255e-10
6.76948e-10
-2.44602e-10
7.48961e-10
-2.66444e-10
8.27199e-10
-2.92215e-10
9.1243e-10
-3.22487e-10
1.00544e-09
-3.58022e-10
1.1071e-09
-3.99715e-10
1.21529e-09
-4.62959e-10
1.31235e-09
-6.18804e-10
1.38834e-09
-8.31896e-10
1.44051e-09
-1.06271e-09
1.46595e-09
-1.2893e-09
1.46576e-09
-1.5381e-09
1.43854e-09
-1.77786e-09
1.37769e-09
-2.00149e-09
1.2975e-09
-2.15906e-09
1.21292e-09
-2.26865e-09
1.12697e-09
-2.35161e-09
1.04113e-09
-2.4166e-09
9.55598e-10
-2.4544e-09
8.70141e-10
-2.47229e-09
7.83759e-10
-2.47255e-09
6.95005e-10
-2.45403e-09
6.02285e-10
-2.41716e-09
5.04428e-10
-2.35991e-09
4.01004e-10
-2.28357e-09
2.92167e-10
-2.18962e-09
1.79405e-10
-2.08235e-09
6.35386e-11
-1.96871e-09
-5.28896e-11
-1.84284e-09
-1.66442e-10
-1.72107e-09
-2.73584e-10
-1.60012e-09
-3.69351e-10
-1.49131e-09
-4.46454e-10
-1.38642e-09
-4.897e-10
-1.29032e-09
-4.75625e-10
-1.17809e-09
-3.66694e-10
-1.02621e-09
-1.22492e-10
-7.99267e-10
2.87745e-10
-4.58286e-10
8.24755e-10
-2.74062e-12
1.42219e-09
5.363e-10
1.98805e-09
1.0777e-09
2.46786e-09
1.56639e-09
2.83754e-09
1.96363e-09
3.09914e-09
2.25153e-09
3.27572e-09
2.44493e-09
3.39392e-09
2.56977e-09
3.478e-09
2.6427e-09
3.54453e-09
2.68231e-09
3.60169e-09
2.69984e-09
3.65394e-09
2.7012e-09
3.70369e-09
2.69013e-09
3.75221e-09
2.66726e-09
3.79991e-09
2.63289e-09
3.84643e-09
2.57879e-09
3.89193e-09
2.51286e-09
3.9354e-09
2.43092e-09
3.97636e-09
2.32182e-09
4.01008e-09
2.16884e-09
4.03648e-09
1.99727e-09
4.04799e-09
1.75465e-09
4.04118e-09
1.47641e-09
4.00204e-09
1.09158e-09
3.92708e-09
6.79159e-10
3.81185e-09
2.42316e-10
3.66201e-09
-2.09123e-10
3.49123e-09
-5.96899e-10
3.31948e-09
-9.12138e-10
3.15421e-09
-1.20097e-09
3.00235e-09
-1.42769e-09
2.85895e-09
-1.64e-09
2.72186e-09
-1.8035e-09
2.58617e-09
-1.93876e-09
2.44886e-09
-2.05052e-09
2.30962e-09
-2.12734e-09
2.16836e-09
-2.18335e-09
2.02508e-09
-2.2197e-09
1.87985e-09
-2.2391e-09
1.73268e-09
-2.24363e-09
1.58353e-09
-2.23384e-09
1.43213e-09
-2.2103e-09
1.27818e-09
-2.17245e-09
1.12156e-09
-2.11982e-09
9.62684e-10
-2.05172e-09
8.02747e-10
-1.9696e-09
6.42979e-10
-1.87589e-09
4.85349e-10
-1.77029e-09
3.33244e-10
-1.65647e-09
1.88461e-10
-1.54809e-09
5.42866e-11
-1.43326e-09
-6.47526e-11
-1.33371e-09
-1.63787e-10
-1.23489e-09
-2.31803e-10
-1.14484e-09
-2.50169e-10
-1.04505e-09
-1.91216e-10
-9.09502e-10
-2.07912e-11
-7.04188e-10
2.94976e-10
-3.89548e-10
7.36903e-10
4.33774e-11
1.24915e-09
5.66077e-10
1.75054e-09
1.10232e-09
2.18615e-09
1.59882e-09
2.52327e-09
1.98833e-09
2.76497e-09
2.27278e-09
2.93148e-09
2.46501e-09
3.04677e-09
2.5833e-09
3.13031e-09
2.65094e-09
3.19709e-09
2.68539e-09
3.25597e-09
2.69887e-09
3.31159e-09
2.69631e-09
3.366e-09
2.68139e-09
3.42013e-09
2.65351e-09
3.47539e-09
2.61038e-09
3.53155e-09
2.55737e-09
3.58899e-09
2.48713e-09
3.64751e-09
2.39928e-09
3.70426e-09
2.27848e-09
3.75978e-09
2.13849e-09
3.8111e-09
1.9727e-09
3.85073e-09
1.73615e-09
3.87663e-09
1.48537e-09
3.87391e-09
1.14192e-09
3.83754e-09
7.58322e-10
3.7612e-09
3.46137e-10
3.64776e-09
-9.80576e-11
3.50895e-09
-5.10841e-10
3.36523e-09
-8.54949e-10
3.225e-09
-1.15666e-09
3.0917e-09
-1.41255e-09
2.96129e-09
-1.61776e-09
2.82853e-09
-1.77996e-09
2.68526e-09
-1.91035e-09
2.52861e-09
-1.99201e-09
2.35442e-09
-2.03904e-09
2.15888e-09
-2.04856e-09
1.93889e-09
-2.01912e-09
1.6947e-09
-1.94483e-09
1.43368e-09
-1.81976e-09
1.17204e-09
-1.66726e-09
9.30366e-10
-1.50007e-09
7.2752e-10
-1.32626e-09
5.52687e-10
-1.25355e-09
3.8856e-10
-1.16865e-09
2.39146e-10
-1.06909e-09
1.11201e-10
-9.73506e-10
7.27669e-12
-8.78211e-10
-6.8221e-11
-7.84726e-10
-1.11936e-10
-6.93051e-10
-1.26648e-10
-5.9585e-10
-1.23392e-10
-4.95353e-10
-1.08605e-10
-4.0652e-10
-8.76501e-11
-3.3097e-10
-6.4649e-11
-2.68407e-10
-4.22865e-11
-2.17235e-10
-2.21069e-11
-1.7541e-10
-4.90225e-12
-1.41024e-10
8.98163e-12
-1.12447e-10
1.94333e-11
-8.83329e-11
2.64485e-11
-6.75864e-11
3.00567e-11
-4.93302e-11
3.02752e-11
-3.28493e-11
2.70768e-11
-1.75407e-11
2.03653e-11
-2.86442e-12
9.94692e-12
1.17046e-11
-4.52433e-12
2.67594e-11
-2.3518e-11
4.29821e-11
-4.77474e-11
6.12891e-11
-7.8252e-11
8.30351e-11
-1.16525e-10
1.10392e-10
-1.64658e-10
1.47095e-10
-2.2538e-10
1.99851e-10
-3.01624e-10
2.80722e-10
-3.93439e-10
4.0949e-10
-4.89045e-10
6.10053e-10
-5.48619e-10
8.89809e-10
-4.91638e-10
1.18034e-09
-2.66321e-10
1.25412e-09
7.44218e-10
-8.24526e-11
-3.04296e-10
-1.82191e-10
-6.21652e-10
-2.51398e-10
-7.21748e-10
-2.8582e-10
-7.04928e-10
-2.93144e-10
-6.41718e-10
-2.8146e-10
-5.67547e-10
-2.57193e-10
-4.97212e-10
-2.25075e-10
-4.35702e-10
-1.88292e-10
-3.8402e-10
-1.48932e-10
-3.41604e-10
-1.08271e-10
-3.07406e-10
-6.70101e-11
-2.80313e-10
-2.54636e-11
-2.59315e-10
1.63147e-11
-2.43569e-10
5.8435e-11
-2.32392e-10
1.01119e-10
-2.25254e-10
1.44662e-10
-2.21763e-10
1.89408e-10
-2.21639e-10
2.35735e-10
-2.24704e-10
2.84053e-10
-2.30861e-10
3.34794e-10
-2.40094e-10
3.88414e-10
-2.52452e-10
4.45391e-10
-2.68055e-10
5.06225e-10
-2.87089e-10
5.71435e-10
-3.09812e-10
6.41557e-10
-3.36565e-10
7.17128e-10
-3.67786e-10
7.9867e-10
-4.04029e-10
8.8665e-10
-4.46002e-10
9.81457e-10
-4.94523e-10
1.08117e-09
-5.62673e-10
1.172e-09
-7.09634e-10
1.24429e-09
-9.04182e-10
1.29384e-09
-1.11226e-09
1.3176e-09
-1.31307e-09
1.3169e-09
-1.53741e-09
1.29183e-09
-1.75279e-09
1.23854e-09
-1.9482e-09
1.16937e-09
-2.08988e-09
1.09634e-09
-2.19563e-09
1.02202e-09
-2.27729e-09
9.47395e-10
-2.34198e-09
8.72912e-10
-2.37992e-09
7.98233e-10
-2.39761e-09
7.22072e-10
-2.39639e-09
6.42809e-10
-2.37477e-09
5.58861e-10
-2.33321e-09
4.69263e-10
-2.27031e-09
3.73847e-10
-2.18815e-09
2.73211e-10
-2.08899e-09
1.68689e-10
-1.97782e-09
6.12746e-11
-1.86129e-09
-4.65586e-11
-1.73501e-09
-1.5293e-10
-1.6147e-09
-2.55954e-10
-1.4971e-09
-3.53985e-10
-1.39328e-09
-4.43848e-10
-1.29655e-09
-5.18778e-10
-1.21539e-09
-5.64452e-10
-1.13241e-09
-5.58171e-10
-1.03249e-09
-4.66306e-10
-8.91125e-10
-2.43347e-10
-6.81234e-10
1.22347e-10
-3.68426e-10
6.13176e-10
4.54652e-11
1.1646e-09
5.26273e-10
1.71065e-09
1.02035e-09
2.19707e-09
1.47721e-09
2.59299e-09
1.85559e-09
2.89461e-09
2.14329e-09
3.11507e-09
2.34931e-09
3.27359e-09
2.4842e-09
3.38908e-09
2.56684e-09
3.47705e-09
2.61189e-09
3.548e-09
2.63022e-09
3.60848e-09
2.62963e-09
3.6624e-09
2.6133e-09
3.71176e-09
2.58352e-09
3.75684e-09
2.53372e-09
3.79831e-09
2.47139e-09
3.83551e-09
2.39371e-09
3.86773e-09
2.28961e-09
3.88985e-09
2.14674e-09
3.90192e-09
1.98522e-09
3.89572e-09
1.76085e-09
3.86832e-09
1.50381e-09
3.80681e-09
1.1531e-09
3.71121e-09
7.7476e-10
3.58161e-09
3.71917e-10
3.42702e-09
-5.45276e-11
3.26206e-09
-4.31947e-10
3.10318e-09
-7.5325e-10
2.95299e-09
-1.05078e-09
2.81405e-09
-1.28875e-09
2.67977e-09
-1.50572e-09
2.54807e-09
-1.6718e-09
2.41537e-09
-1.80606e-09
2.28e-09
-1.91516e-09
2.14253e-09
-1.98987e-09
2.00332e-09
-2.04415e-09
1.86272e-09
-2.07909e-09
1.72102e-09
-2.0974e-09
1.57844e-09
-2.10106e-09
1.43503e-09
-2.09042e-09
1.2906e-09
-2.06587e-09
1.14494e-09
-2.02678e-09
9.97993e-10
-1.97287e-09
8.50173e-10
-1.90389e-09
7.02449e-10
-1.82187e-09
5.55795e-10
-1.72924e-09
4.11966e-10
-1.62646e-09
2.73184e-10
-1.51768e-09
1.40114e-10
-1.41502e-09
1.51412e-11
-1.30828e-09
-1.00722e-10
-1.21785e-09
-2.05171e-10
-1.13044e-09
-2.93263e-10
-1.05675e-09
-3.54581e-10
-9.83735e-10
-3.70539e-10
-8.93543e-10
-3.13069e-10
-7.61656e-10
-1.43567e-10
-5.59049e-10
1.52809e-10
-2.53003e-10
5.64511e-10
1.54371e-10
1.03862e-09
6.28216e-10
1.51746e-09
1.11997e-09
1.9441e-09
1.56169e-09
2.29301e-09
1.92386e-09
2.56134e-09
2.19667e-09
2.76003e-09
2.38461e-09
2.90597e-09
2.50502e-09
3.01587e-09
2.57552e-09
3.10284e-09
2.61192e-09
3.17593e-09
2.62322e-09
3.24062e-09
2.61666e-09
3.2999e-09
2.5942e-09
3.35616e-09
2.55411e-09
3.40999e-09
2.50353e-09
3.46202e-09
2.43511e-09
3.51211e-09
2.34921e-09
3.55726e-09
2.23334e-09
3.59778e-09
2.09796e-09
3.63082e-09
1.93967e-09
3.64833e-09
1.71863e-09
3.64946e-09
1.48424e-09
3.62107e-09
1.17031e-09
3.56214e-09
8.17256e-10
3.47171e-09
4.36562e-10
3.35644e-09
1.72176e-11
3.22822e-09
-3.8262e-10
3.10206e-09
-7.2879e-10
2.97952e-09
-1.03412e-09
2.85859e-09
-1.29162e-09
2.73333e-09
-1.4925e-09
2.59903e-09
-1.64566e-09
2.44961e-09
-1.76094e-09
2.28402e-09
-1.82642e-09
2.10011e-09
-1.85513e-09
1.89674e-09
-1.8452e-09
1.67478e-09
-1.79716e-09
1.43926e-09
-1.70931e-09
1.20154e-09
-1.58203e-09
9.76149e-10
-1.44186e-09
7.75566e-10
-1.29947e-09
6.06754e-10
-1.15744e-09
4.54827e-10
-1.10162e-09
3.13096e-10
-1.02692e-09
1.86114e-10
-9.42107e-10
7.66827e-11
-8.64081e-10
-1.46336e-11
-7.869e-10
-8.65429e-11
-7.12819e-10
-1.37937e-10
-6.41657e-10
-1.68916e-10
-5.64871e-10
-1.84027e-10
-4.80241e-10
-1.87854e-10
-4.02693e-10
-1.84084e-10
-3.34739e-10
-1.75923e-10
-2.76568e-10
-1.65916e-10
-2.27242e-10
-1.55777e-10
-1.85549e-10
-1.4661e-10
-1.50191e-10
-1.39126e-10
-1.19931e-10
-1.33784e-10
-9.3675e-11
-1.30879e-10
-7.04917e-11
-1.30613e-10
-4.95956e-11
-1.33154e-10
-3.0309e-11
-1.38674e-10
-1.20207e-11
-1.47392e-10
5.85388e-12