/*--------------------------------*- C++ -*----------------------------------*\
| =========                 |                                                 |
| \\      /  F ield         | OpenFOAM: The Open Source CFD Toolbox           |
|  \\    /   O peration     | Version:  2506                                  |
|   \\  /    A nd           | Website:  www.openfoam.com                      |
|    \\/     M anipulation  |                                                 |
\*---------------------------------------------------------------------------*/
FoamFile
{
    version     2.0;
    format      ascii;
    arch        "LSB;label=32;scalar=64";
    class       volVectorField;
    location    "0.2";
    object      U;
}
// * * * * * * * * * * * * * * * * * * * * * * * * * * * * * * * * * * * * * //

dimensions      [0 1 -1 0 0 0 0];

internalField   nonuniform List<vector> 
4000
(
(0.00367701 -0.00166595 4.97386e-23)
(0.00512184 -0.00143568 0)
(0.00719862 -0.000758896 -1.01753e-24)
(0.00875315 -0.000396459 -3.85555e-24)
(0.00968622 -0.000236712 -5.8778e-24)
(0.0102716 -0.000144235 0)
(0.0106683 -8.72558e-05 -9.01296e-24)
(0.0109398 -5.45852e-05 -1.03721e-23)
(0.0111293 -3.61876e-05 0)
(0.0112663 -2.54757e-05 0)
(0.011369 -1.90431e-05 -2.72915e-22)
(0.0114481 -1.50836e-05 5.42289e-22)
(0.0115102 -1.25729e-05 -2.65852e-22)
(0.0115602 -1.0945e-05 3.45202e-22)
(0.011601 -9.89548e-06 -3.44014e-22)
(0.0116351 -9.25623e-06 -2.43715e-23)
(0.0116641 -8.93128e-06 -4.48921e-22)
(0.0116894 -8.8651e-06 4.47466e-22)
(0.0117121 -9.02624e-06 -3.13825e-23)
(0.0117334 -9.39822e-06 0)
(0.011754 -9.97443e-06 0)
(0.0117749 -1.07554e-05 3.96362e-23)
(0.0117969 -1.17475e-05 4.26911e-23)
(0.011821 -1.2962e-05 0)
(0.0118482 -1.44151e-05 4.92775e-23)
(0.0118797 -1.61269e-05 5.28103e-23)
(0.0119166 -1.8121e-05 0)
(0.0119604 -2.04424e-05 0)
(0.0120119 -2.29046e-05 -2.15074e-21)
(0.0120771 -2.50253e-05 2.21063e-21)
(0.012166 -3.49958e-05 0)
(0.0121407 -7.64036e-05 5.05043e-21)
(0.0119123 -0.000182361 -7.81825e-21)
(0.0114884 -0.000391579 1.58545e-22)
(0.0109428 -0.000741591 3.26451e-21)
(0.0103674 -0.00127519 -5.09059e-20)
(0.00991797 -0.00194723 2.64219e-22)
(0.0095242 -0.00286238 1.02441e-20)
(0.00905979 -0.00390748 0)
(0.00860495 -0.00481328 -3.69877e-21)
(0.00825909 -0.00551202 3.7527e-21)
(0.00797802 -0.00605853 -2.98371e-20)
(0.00772108 -0.00650255 0)
(0.00747414 -0.00686657 -2.50883e-20)
(0.00722647 -0.00716478 1.0332e-20)
(0.00696399 -0.00740635 -1.41088e-20)
(0.00668279 -0.00759011 0)
(0.00638461 -0.00772682 1.29706e-20)
(0.00605635 -0.00779906 1.31285e-20)
(0.00568847 -0.00779234 9.38032e-21)
(0.00527382 -0.00769624 0)
(0.00488066 -0.0074258 0)
(0.00455761 -0.0069935 1.01678e-21)
(0.00437101 -0.00631994 -7.7452e-21)
(0.00447123 -0.00537158 -1.42071e-21)
(0.00505874 -0.00412167 4.39733e-21)
(0.00619495 -0.00276231 1.91142e-21)
(0.00796194 -0.00140693 -2.89746e-22)
(0.0100877 -0.000383806 0)
(0.0120547 9.38793e-05 -5.00044e-22)
(0.0132773 0.000122813 -1.94209e-21)
(0.0138699 -2.00158e-06 4.79465e-22)
(0.0140611 -0.000157815 9.14311e-21)
(0.013973 -0.000242098 -9.69997e-21)
(0.0138238 -0.000259038 0)
(0.013687 -0.000247423 0)
(0.0135903 -0.000225267 0)
(0.013525 -0.000203322 -1.52165e-21)
(0.0134814 -0.000184922 -2.23085e-20)
(0.0134519 -0.000170278 -1.20482e-20)
(0.0134304 -0.000158404 0)
(0.0134142 -0.000148821 1.02974e-20)
(0.0134019 -0.000141066 -1.00835e-20)
(0.0133928 -0.00013458 -1.0995e-21)
(0.0133857 -0.000128974 1.07271e-20)
(0.0133802 -0.000123934 -9.25142e-21)
(0.013376 -0.000119185 -1.01825e-20)
(0.0133738 -0.000114928 -9.48214e-21)
(0.0133731 -0.0001109 0)
(0.0133735 -0.000106876 0)
(0.0133751 -0.000102591 2.33104e-22)
(0.0133812 -9.87557e-05 6.83309e-21)
(0.0133895 -9.43735e-05 0)
(0.0134043 -8.99379e-05 -5.07601e-21)
(0.013425 -8.44862e-05 4.00947e-21)
(0.0134601 -7.8399e-05 0)
(0.0135125 -6.89964e-05 0)
(0.0135841 -5.00921e-05 -1.95396e-23)
(0.0136636 -1.4648e-05 -2.18718e-22)
(0.0137228 4.114e-05 8.87045e-22)
(0.013729 0.000102893 -6.55363e-23)
(0.0136577 0.000145806 1.02977e-22)
(0.0134733 0.000125523 3.09312e-22)
(0.0131843 2.68142e-06 0)
(0.0128271 -0.000241152 -6.89305e-21)
(0.0124505 -0.000593032 -7.42199e-21)
(0.0120645 -0.00103632 -7.93924e-21)
(0.0116984 -0.00150917 -5.45825e-22)
(0.0113572 -0.00197387 -8.73357e-21)
(0.0110345 -0.00242797 -9.51018e-21)
(0.0107173 -0.00286737 1.5231e-22)
(0.0103962 -0.00329493 -1.01042e-20)
(0.0100632 -0.00370945 -1.96618e-20)
(0.0097129 -0.0041088 -4.69844e-22)
(0.00933998 -0.00448981 -9.25583e-21)
(0.00893893 -0.0048474 0)
(0.00850077 -0.00517842 8.95257e-21)
(0.00801655 -0.00547262 7.97344e-21)
(0.00750083 -0.00568334 5.52944e-22)
(0.00697153 -0.00579159 0)
(0.00640498 -0.00577397 6.70386e-21)
(0.00591382 -0.0055221 -6.01725e-21)
(0.00560547 -0.00502823 0)
(0.00564257 -0.00420107 -8.80752e-21)
(0.00620945 -0.00314275 -1.54889e-21)
(0.00740086 -0.00195745 -1.81245e-21)
(0.00921914 -0.000859741 0)
(0.0112192 -0.000156306 5.10138e-22)
(0.012796 3.95198e-05 -1.8256e-22)
(0.0136782 -2.93354e-05 -8.03375e-23)
(0.0140621 -0.000168625 2.44646e-22)
(0.0140655 -0.000263744 -1.03362e-20)
(0.0139375 -0.000289608 1.2012e-20)
(0.0137818 -0.000277537 7.93441e-22)
(0.0136643 -0.000251873 1.15223e-20)
(0.0135847 -0.000226434 -2.47903e-20)
(0.0135302 -0.000204621 1.23204e-20)
(0.0134928 -0.000186937 -1.35063e-20)
(0.0134672 -0.000172747 4.19121e-22)
(0.0134485 -0.000161161 -1.16971e-20)
(0.0134342 -0.000151554 0)
(0.0134233 -0.000143346 1.2444e-20)
(0.0134151 -0.000136106 -1.8509e-21)
(0.0134094 -0.000129628 1.3257e-20)
(0.0134056 -0.000123657 0)
(0.0134033 -0.000117915 0)
(0.0134024 -0.000112169 -1.02969e-20)
(0.0134024 -0.000105977 9.37868e-21)
(0.0134058 -9.98132e-05 0)
(0.013411 -9.32117e-05 0)
(0.0134172 -8.53214e-05 7.31198e-21)
(0.0134301 -7.67792e-05 -1.46261e-21)
(0.0134461 -6.636e-05 6.57921e-21)
(0.0134729 -5.38247e-05 0)
(0.013513 -3.74354e-05 -2.34003e-21)
(0.0135687 -1.47565e-05 -8.7247e-22)
(0.0136365 1.78215e-05 1.62836e-22)
(0.0136967 6.31091e-05 5.7527e-23)
(0.0137206 0.000116088 0)
(0.0136756 0.00016035 -8.74992e-22)
(0.0135365 0.000157614 -1.95519e-22)
(0.0132822 7.38647e-05 7.07246e-21)
(0.0129492 -0.000130902 -1.26785e-21)
(0.0125787 -0.000451627 -8.80718e-23)
(0.0121807 -0.000878117 -4.79006e-21)
(0.0117971 -0.0013568 -1.67263e-21)
(0.0114374 -0.00184648 0)
(0.0110959 -0.0023457 0)
(0.0107567 -0.00285545 0)
(0.010402 -0.00337855 1.44903e-20)
(0.00998642 -0.00390482 -1.72757e-21)
(0.00943432 -0.00443743 -6.51549e-21)
(0.00824499 -0.00494442 -4.99787e-21)
(0.00661133 -0.00512524 0)
(0.0060195 -0.00480084 8.32432e-21)
(0.00577732 -0.00432964 1.26102e-20)
(0.0057458 -0.00366343 1.52414e-22)
(0.00612437 -0.00282153 1.67027e-21)
(0.00694539 -0.00190447 4.06728e-21)
(0.00819722 -0.00105502 1.31399e-21)
(0.00951603 -0.000487259 0)
(0.0104361 -0.000229134 1.2395e-23)
(0.0109849 -0.00012467 0)
(0.0113203 -7.29916e-05 8.94557e-24)
(0.0115404 -4.42813e-05 7.67193e-24)
(0.0116882 -2.81486e-05 4.19275e-22)
(0.0117892 -1.87988e-05 -4.17286e-22)
(0.0118602 -1.30911e-05 -1.57239e-22)
(0.0119112 -9.43338e-06 1.61375e-22)
(0.0119478 -6.96711e-06 -1.19752e-22)
(0.0119739 -5.20512e-06 2.38143e-22)
(0.0119918 -3.87246e-06 -1.07636e-22)
(0.012003 -2.81286e-06 0)
(0.0120087 -1.93298e-06 2.71684e-24)
(0.0120096 -1.17647e-06 -2.5312e-24)
(0.0120061 -5.4857e-07 7.73904e-23)
(0.0119985 1.75785e-07 -7.2612e-23)
(0.0119868 8.38757e-07 7.03804e-23)
(0.0119707 1.51742e-06 -6.80953e-23)
(0.0119496 2.38446e-06 3.77711e-23)
(0.0119219 3.71993e-06 -3.32472e-23)
(0.0118846 6.2421e-06 2.40803e-24)
(0.0118311 1.11465e-05 2.65144e-24)
(0.0117478 2.10749e-05 0)
(0.0116045 4.20161e-05 3.97632e-24)
(0.0113356 8.7301e-05 5.75711e-24)
(0.0108026 0.000187335 1.2304e-22)
(0.00967223 0.000428462 -1.32002e-22)
(0.0073451 0.00112861 0)
(0.00532172 0.00199189 6.22984e-23)
(-1.70417e-05 -0.00329387 -3.29978e-23)
(4.18153e-05 -0.00320395 -7.64034e-24)
(0.00140044 -0.0023078 1.20572e-24)
(0.00271189 -0.00165177 -2.06573e-23)
(0.00371502 -0.0011697 8.25058e-23)
(0.0044821 -0.000814931 1.62794e-23)
(0.00507545 -0.00057206 -6.07024e-23)
(0.00553218 -0.000411981 3.47468e-23)
(0.00588459 -0.000305789 2.61188e-23)
(0.00616014 -0.00023375 2.99156e-23)
(0.00637929 -0.000183776 5.14492e-23)
(0.00655664 -0.000148288 3.63405e-22)
(0.00670286 -0.000122483 -3.45364e-22)
(0.00682586 -0.000103363 3.95741e-22)
(0.00693163 -8.90406e-05 -7.76161e-22)
(0.00702476 -7.83089e-05 9.8865e-22)
(0.00710893 -7.03785e-05 -4.09945e-22)
(0.00718715 -6.47322e-05 6.24679e-22)
(0.007262 -6.10362e-05 7.61775e-22)
(0.00733575 -5.90866e-05 -1.12627e-21)
(0.00741051 -5.87767e-05 8.36694e-23)
(0.00748831 -6.00787e-05 1.56037e-21)
(0.00757116 -6.30337e-05 -1.55805e-21)
(0.00766115 -6.77502e-05 -1.64241e-21)
(0.00776049 -7.4409e-05 1.68016e-21)
(0.00787163 -8.32741e-05 5.82917e-23)
(0.00799736 -9.47054e-05 2.12881e-21)
(0.0081409 -0.000109151 1.4437e-23)
(0.00830522 -0.000127149 -4.65413e-21)
(0.00849937 -0.000148341 -2.3923e-22)
(0.00874202 -0.000175635 2.52188e-21)
(0.00887685 -0.00025567 2.75992e-21)
(0.00881334 -0.000435623 8.41335e-21)
(0.00861746 -0.000748006 1.74594e-20)
(0.00840939 -0.0012096 1.22435e-20)
(0.00825842 -0.00182268 1.30401e-20)
(0.00820032 -0.00255927 -2.79011e-21)
(0.00812613 -0.00343075 -9.90826e-21)
(0.00792506 -0.00431658 3.28748e-21)
(0.00764298 -0.00508814 9.76003e-21)
(0.00735796 -0.00574648 1.31508e-20)
(0.00706093 -0.00632298 1.37812e-20)
(0.00674424 -0.00683306 0)
(0.00641057 -0.00728354 2.70355e-20)
(0.00605756 -0.00767713 -1.32354e-20)
(0.00567968 -0.00801188 1.3448e-20)
(0.00527381 -0.00828001 -1.29741e-20)
(0.00483698 -0.00846771 0)
(0.00435746 -0.00858236 -9.63629e-22)
(0.00383062 -0.00861624 -1.05468e-20)
(0.00325613 -0.00856345 9.9583e-21)
(0.00266425 -0.00840095 -1.11869e-21)
(0.00208571 -0.00810882 -8.0352e-21)
(0.00154834 -0.00760153 1.62945e-21)
(0.00116027 -0.0068833 -6.70005e-21)
(0.00105772 -0.00590353 0)
(0.00143098 -0.0047289 -1.76993e-21)
(0.00249024 -0.00338329 5.49146e-22)
(0.00439918 -0.00205489 -9.77307e-23)
(0.00707867 -0.000945366 6.20542e-22)
(0.00986454 -0.000301913 2.37058e-21)
(0.0120882 -0.000147414 6.93349e-21)
(0.0134635 -0.000277265 9.59302e-21)
(0.0140594 -0.000473004 1.09887e-20)
(0.0142806 -0.000617643 -1.46602e-21)
(0.0142462 -0.000701017 1.43387e-21)
(0.0141337 -0.000705896 0)
(0.0140047 -0.000668275 0)
(0.0138914 -0.000621613 2.53136e-20)
(0.0138054 -0.00057862 -1.22223e-20)
(0.013743 -0.000541562 -1.56081e-21)
(0.0136969 -0.000510502 1.50988e-20)
(0.0136627 -0.00048473 1.02778e-20)
(0.0136381 -0.000462886 1.36173e-20)
(0.0136205 -0.000444046 -6.2913e-22)
(0.0136081 -0.000427412 -7.28428e-22)
(0.0135999 -0.000412062 -1.16959e-20)
(0.0135966 -0.000398037 1.03758e-20)
(0.0135975 -0.000384527 6.11782e-22)
(0.0136023 -0.000370922 8.89718e-21)
(0.0136101 -0.000356555 -8.1702e-21)
(0.0136249 -0.000342164 0)
(0.0136435 -0.000325095 0)
(0.0136711 -0.000304934 0)
(0.0137031 -0.000278258 -4.26707e-21)
(0.0137434 -0.000241241 1.15265e-22)
(0.0137738 -0.000188072 -7.13106e-23)
(0.0137833 -0.000108274 7.51881e-23)
(0.0137528 4.32156e-06 9.0114e-23)
(0.0136414 0.000137914 -2.11929e-21)
(0.0134242 0.000250751 2.20707e-22)
(0.0131002 0.000294281 9.53288e-24)
(0.0127127 0.000220709 -4.77345e-21)
(0.012297 6.31722e-06 5.91068e-21)
(0.0118877 -0.000339514 -6.61416e-21)
(0.0114991 -0.000782094 7.07185e-21)
(0.0111254 -0.00128366 -7.17781e-21)
(0.0107588 -0.00181159 -8.13126e-21)
(0.0103893 -0.00234705 8.70378e-21)
(0.0100063 -0.00288064 8.77921e-21)
(0.00960241 -0.00340941 0)
(0.00917238 -0.00393257 -8.89339e-21)
(0.00871186 -0.00444725 9.42655e-21)
(0.00821739 -0.00494832 -2.79234e-22)
(0.00768491 -0.00542805 9.18017e-22)
(0.00710944 -0.00587537 0)
(0.00648417 -0.00627145 -1.68683e-20)
(0.00580755 -0.0065847 -1.65567e-20)
(0.00509046 -0.00680441 -7.1151e-21)
(0.00434323 -0.00691574 -6.12538e-21)
(0.0035729 -0.00687951 -6.80629e-21)
(0.00284786 -0.00665294 1.16782e-20)
(0.00226537 -0.00623957 -3.23582e-22)
(0.00191219 -0.00552035 4.50617e-21)
(0.00198001 -0.00459461 -2.83139e-22)
(0.00260664 -0.0034786 8.51883e-22)
(0.00403163 -0.00229684 -1.01135e-23)
(0.00622678 -0.00125815 -9.36989e-22)
(0.00893172 -0.000527884 -2.18751e-22)
(0.0113837 -0.000249446 2.00787e-22)
(0.0130932 -0.000309733 0)
(0.0139589 -0.000483568 1.12559e-20)
(0.014286 -0.000631915 3.84611e-22)
(0.0143175 -0.000723405 -1.18536e-21)
(0.0142234 -0.000743682 -1.28944e-20)
(0.0140928 -0.0007158 1.39788e-20)
(0.0139693 -0.000669158 1.3133e-20)
(0.013871 -0.000623635 2.72986e-20)
(0.013799 -0.000584206 2.71843e-20)
(0.0137467 -0.000550504 1.22084e-20)
(0.0137077 -0.000522351 1.66034e-21)
(0.0136786 -0.000498475 1.25588e-20)
(0.013657 -0.00047758 -2.51991e-20)
(0.013642 -0.000459047 2.99195e-21)
(0.0136322 -0.000442344 8.3791e-21)
(0.0136267 -0.000426824 0)
(0.0136251 -0.000411835 0)
(0.0136262 -0.000396346 -6.16471e-22)
(0.0136333 -0.000380859 -2.17041e-21)
(0.0136452 -0.000363829 -5.79974e-21)
(0.0136601 -0.000343817 -1.70684e-21)
(0.0136833 -0.000321099 2.51616e-22)
(0.0137097 -0.000291911 2.19056e-21)
(0.0137399 -0.000253847 -2.03113e-21)
(0.0137647 -0.000204189 2.38342e-21)
(0.0137747 -0.000136012 0)
(0.0137537 -3.90888e-05 -8.10167e-23)
(0.0136641 8.64203e-05 7.93132e-23)
(0.0134725 0.000206106 -9.83844e-22)
(0.0131628 0.000267353 0)
(0.0127697 0.000214597 0)
(0.012332 2.03491e-05 0)
(0.0118896 -0.000327489 0)
(0.0114534 -0.000793172 -1.25934e-20)
(0.0110266 -0.00133659 -2.98598e-21)
(0.0106054 -0.00192562 -1.55339e-21)
(0.0101741 -0.00254133 1.67484e-21)
(0.00970946 -0.00317863 9.99641e-21)
(0.00917726 -0.003836 -3.30165e-21)
(0.00853747 -0.00450281 -7.04646e-21)
(0.00773408 -0.00513396 -7.05441e-23)
(0.00666736 -0.00559867 5.03973e-21)
(0.00524276 -0.00575887 -1.72783e-21)
(0.00380485 -0.00558951 1.99366e-23)
(0.00314911 -0.00528428 8.71935e-21)
(0.00261746 -0.00496133 -7.23857e-21)
(0.00217289 -0.00445105 0)
(0.00204012 -0.0037488 0)
(0.00228685 -0.00291747 -1.67266e-21)
(0.0030045 -0.00205867 -1.11841e-21)
(0.00408083 -0.00136024 1.05937e-21)
(0.0050687 -0.000916576 -1.47713e-23)
(0.00580072 -0.000622598 7.20924e-22)
(0.00633925 -0.00042126 -7.04472e-22)
(0.00673979 -0.000289131 -2.57018e-23)
(0.00703598 -0.000204222 -4.5904e-22)
(0.0072547 -0.000148377 6.02048e-23)
(0.00741691 -0.000110189 2.30624e-22)
(0.0075372 -8.30677e-05 1.59042e-22)
(0.00762547 -6.30657e-05 1.34815e-22)
(0.00768867 -4.77365e-05 -1.35275e-22)
(0.00773172 -3.55429e-05 3.55026e-24)
(0.00775813 -2.54895e-05 -1.05473e-22)
(0.00777034 -1.6897e-05 1.08337e-22)
(0.00777006 -9.2725e-06 2.97839e-24)
(0.00775836 -2.23592e-06 7.94425e-23)
(0.00773586 4.55117e-06 -9.57688e-23)
(0.00770264 1.14456e-05 8.35563e-23)
(0.0076582 1.89305e-05 -9.1286e-23)
(0.0076012 2.781e-05 3.47819e-23)
(0.00752923 3.96416e-05 -4.53316e-23)
(0.00743757 5.77194e-05 2.95963e-24)
(0.0073168 8.87122e-05 -9.46848e-24)
(0.00714699 0.000147753 -6.60796e-23)
(0.00688571 0.000268747 7.04464e-23)
(0.00644444 0.000525398 -1.92975e-23)
(0.0056553 0.00106996 -1.1164e-23)
(0.00425107 0.00218158 5.29966e-23)
(0.00190584 0.00412738 0)
(0.000280661 0.00524581 -1.45973e-22)
(-0.000325352 -0.00278702 0)
(-0.000919122 -0.00342217 -2.02332e-23)
(-0.000632256 -0.00292493 5.45586e-24)
(-9.77799e-05 -0.00232802 -9.29968e-24)
(0.000469001 -0.00179512 1.57267e-23)
(0.000997371 -0.0013635 -6.75255e-23)
(0.00146438 -0.00103905 6.71462e-23)
(0.00186438 -0.00080315 -2.40309e-23)
(0.00220234 -0.000632413 -2.8054e-23)
(0.00248748 -0.000508166 -9.41923e-23)
(0.00272955 -0.000417077 -3.63687e-23)
(0.00293731 -0.000349684 -1.19759e-22)
(0.00311823 -0.0002994 3.76252e-22)
(0.00327858 -0.000261741 -8.8575e-22)
(0.00342357 -0.000233662 3.57389e-22)
(0.00355753 -0.000213082 -5.55897e-22)
(0.00368415 -0.000198577 3.00787e-22)
(0.0038066 -0.00018918 -2.09067e-22)
(0.00392772 -0.000184253 -1.34335e-21)
(0.00405012 -0.000183401 1.17647e-21)
(0.00417626 -0.000186421 -8.93487e-23)
(0.00430853 -0.000193268 -2.83702e-22)
(0.00444936 -0.000204037 1.69723e-21)
(0.00460125 -0.000218966 -1.79647e-21)
(0.00476688 -0.000238444 -1.94077e-21)
(0.00494916 -0.000263049 1.55416e-21)
(0.00515138 -0.000293602 2.20064e-21)
(0.00537731 -0.000331227 -2.03911e-21)
(0.00563077 -0.000377512 0)
(0.00592009 -0.000433706 0)
(0.0062639 -0.000505036 0)
(0.00656585 -0.000647062 0)
(0.00676553 -0.000899857 -1.13241e-20)
(0.00690152 -0.00127517 -1.4716e-20)
(0.00703638 -0.0017692 1.49165e-20)
(0.00718165 -0.00237513 -2.74033e-21)
(0.00732326 -0.00307028 1.60122e-20)
(0.00736717 -0.00384177 -3.22242e-21)
(0.00725834 -0.00460346 -1.27544e-20)
(0.00705563 -0.00528979 2.73478e-21)
(0.00681666 -0.00590421 -2.62281e-20)
(0.00654241 -0.00645865 0)
(0.00623691 -0.00695717 1.24696e-20)
(0.00590731 -0.0074008 1.21764e-20)
(0.0055532 -0.00778789 -1.48827e-21)
(0.0051702 -0.00811391 -9.23715e-21)
(0.00475414 -0.00837341 2.10735e-20)
(0.0042992 -0.0085629 9.00419e-21)
(0.00379689 -0.00867693 1.7263e-21)
(0.00324194 -0.00871684 -1.11407e-22)
(0.00264021 -0.00864114 -2.91673e-21)
(0.00200363 -0.00846841 1.96712e-21)
(0.00134573 -0.00819038 5.53181e-22)
(0.000690857 -0.00776726 -1.52036e-22)
(0.000108308 -0.00718939 -5.08498e-21)
(-0.000318835 -0.00642822 1.56106e-21)
(-0.000469736 -0.00550663 9.47483e-22)
(-0.000173019 -0.00441291 -1.25294e-22)
(0.000793139 -0.00322946 1.0055e-22)
(0.00258703 -0.0020548 0)
(0.00515031 -0.00103916 9.31622e-22)
(0.00807726 -0.000378236 -8.41362e-22)
(0.0106797 -0.000129656 5.0962e-22)
(0.012525 -0.000222366 -1.04506e-20)
(0.0136198 -0.000421335 1.00319e-20)
(0.0140966 -0.000604561 -1.05828e-20)
(0.0142287 -0.000723909 0)
(0.0142292 -0.000791275 0)
(0.0141695 -0.000810505 -2.37351e-20)
(0.0140848 -0.000799182 2.37957e-20)
(0.0140064 -0.000775642 0)
(0.0139396 -0.000748569 -1.05991e-20)
(0.0138859 -0.000721888 -6.35816e-22)
(0.0138459 -0.000696064 9.57168e-21)
(0.0138163 -0.000670351 -1.19127e-20)
(0.0137949 -0.000645479 -9.6648e-21)
(0.0137796 -0.000621819 2.09383e-20)
(0.0137702 -0.000599221 -6.17926e-22)
(0.013765 -0.000576547 -5.49324e-22)
(0.0137649 -0.000552272 -1.61183e-20)
(0.0137686 -0.000524246 1.52442e-20)
(0.0137763 -0.000491868 2.03864e-22)
(0.0137821 -0.000453577 -2.83583e-23)
(0.013788 -0.000407282 -1.75188e-22)
(0.0137871 -0.000349333 4.16332e-21)
(0.013775 -0.00027198 0)
(0.013737 -0.000168487 -4.35825e-22)
(0.01365 -3.45102e-05 -1.96356e-24)
(0.0134701 0.000125081 9.88562e-23)
(0.0131904 0.000281157 1.8526e-21)
(0.012826 0.000381041 1.53119e-22)
(0.0124074 0.000373613 7.89417e-21)
(0.0119819 0.000227271 4.88691e-21)
(0.0115746 -5.78251e-05 -1.12282e-20)
(0.0111962 -0.000456236 -2.92678e-22)
(0.0108407 -0.000932391 7.29889e-21)
(0.0104889 -0.00145317 1.49881e-20)
(0.0101267 -0.001994 8.05929e-21)
(0.00974497 -0.00254123 0)
(0.00933828 -0.00308877 -8.46361e-21)
(0.00890314 -0.00363407 0)
(0.00843658 -0.00417432 9.11244e-21)
(0.00793595 -0.00470439 -1.37656e-22)
(0.00739846 -0.00521682 -8.42793e-21)
(0.00682068 -0.00570137 8.91344e-21)
(0.00619859 -0.00614444 0)
(0.00552796 -0.00652815 1.60219e-20)
(0.00481162 -0.00683198 7.89943e-21)
(0.00405851 -0.00703873 6.42681e-22)
(0.00327689 -0.00713517 6.81124e-21)
(0.00248219 -0.0070772 0)
(0.00172063 -0.00686067 -5.36746e-21)
(0.00104015 -0.00648118 0)
(0.000498655 -0.00589951 2.67126e-21)
(0.00022172 -0.0051566 -1.36971e-22)
(0.000312878 -0.00424427 0)
(0.000988617 -0.00321528 0)
(0.00238847 -0.00218491 9.7826e-22)
(0.00456177 -0.00124498 0)
(0.00732188 -0.000550703 -2.90104e-22)
(0.00999595 -0.000223093 5.86759e-22)
(0.0120899 -0.00025577 -2.99419e-22)
(0.0133895 -0.000413973 0)
(0.014014 -0.000593412 0)
(0.0142205 -0.000712584 -1.25984e-20)
(0.0142404 -0.000780875 1.37041e-20)
(0.0141955 -0.000811477 -2.62717e-20)
(0.0141177 -0.000810275 -1.32062e-20)
(0.0140393 -0.000793295 -1.57091e-21)
(0.0139714 -0.000769838 -1.15129e-20)
(0.0139162 -0.000744142 1.54739e-21)
(0.013873 -0.000718135 -1.26194e-20)
(0.0138391 -0.000692628 -2.28545e-21)
(0.0138136 -0.000667788 4.38241e-23)
(0.0137952 -0.000643431 -1.9338e-21)
(0.0137829 -0.000618927 2.6888e-21)
(0.0137761 -0.000593416 -9.66004e-21)
(0.0137726 -0.000565757 -1.85783e-20)
(0.0137722 -0.000535381 0)
(0.0137723 -0.000500874 7.98611e-21)
(0.0137715 -0.000460883 8.21821e-21)
(0.0137715 -0.000412245 -1.58627e-21)
(0.0137646 -0.000351854 -3.97003e-21)
(0.0137487 -0.000275263 -1.87728e-21)
(0.0137097 -0.000175687 1.54716e-21)
(0.0136243 -4.68813e-05 3.4951e-22)
(0.0134528 0.000108587 -1.29366e-22)
(0.013178 0.000266342 6.12232e-22)
(0.0128076 0.000373701 1.00359e-21)
(0.0123731 0.000371697 3.79955e-21)
(0.0119157 0.00022032 -1.87299e-21)
(0.0114671 -8.51174e-05 1.0374e-21)
(0.0110426 -0.000521682 5.11482e-21)
(0.0106288 -0.00105146 1.12919e-20)
(0.0102096 -0.00163903 6.12385e-21)
(0.00976648 -0.00226303 0)
(0.00927732 -0.00291131 6.55729e-21)
(0.00871541 -0.00357746 -1.87501e-20)
(0.00804254 -0.00424789 -1.45504e-21)
(0.00722538 -0.00488917 0)
(0.00623635 -0.00542723 -6.66258e-21)
(0.00507664 -0.00576045 0)
(0.00381817 -0.00572123 0)
(0.00274674 -0.00546578 -5.16891e-21)
(0.00208658 -0.00525102 -8.88461e-21)
(0.00141805 -0.00499954 0)
(0.000815844 -0.00456913 0)
(0.000428367 -0.00398115 2.55418e-21)
(0.000295128 -0.00328198 -2.41331e-21)
(0.000496416 -0.00253883 1.34759e-22)
(0.00102576 -0.00188093 1.94503e-22)
(0.00163442 -0.0013982 8.90512e-22)
(0.00215772 -0.00103424 -2.36032e-23)
(0.0025957 -0.000762031 3.76379e-23)
(0.00295434 -0.000566019 5.07428e-23)
(0.00324037 -0.000426242 4.5011e-22)
(0.00346475 -0.000324992 -2.41296e-23)
(0.00363884 -0.000250079 -4.09574e-22)
(0.00377215 -0.000193418 1.07474e-23)
(0.00387214 -0.000149477 -1.43675e-22)
(0.00394459 -0.00011445 1.51451e-22)
(0.0039939 -8.57151e-05 -7.91564e-24)
(0.00402333 -6.14251e-05 0)
(0.00403523 -4.02264e-05 -6.73829e-24)
(0.0040312 -2.10816e-05 -1.24799e-23)
(0.00401221 -3.1455e-06 1.00146e-22)
(0.00397871 1.43821e-05 -8.82823e-23)
(0.00393046 3.23944e-05 9.08651e-23)
(0.00386645 5.20439e-05 -1.767e-22)
(0.00378473 7.51114e-05 1.44174e-22)
(0.00368177 0.000104737 -4.69551e-23)
(0.00355152 0.000147089 -1.9193e-23)
(0.00338323 0.000215383 6.84949e-24)
(0.00315661 0.000338853 0)
(0.00283283 0.000580147 -2.89879e-23)
(0.00234388 0.00106495 1.34395e-23)
(0.00160072 0.00200383 0)
(0.000557098 0.00362242 -3.42981e-23)
(-0.00066613 0.00563059 7.76029e-23)
(-0.000497678 0.00519082 1.75835e-22)
(-0.000245358 -0.00204259 -4.29375e-24)
(-0.000949164 -0.00312194 0)
(-0.00110749 -0.00303805 0)
(-0.00102371 -0.00261235 1.63175e-23)
(-0.000817772 -0.00214419 -2.35916e-23)
(-0.00055006 -0.00172688 -6.77868e-23)
(-0.00026562 -0.00138727 6.85342e-23)
(1.35868e-05 -0.001123 -4.69705e-23)
(0.000275791 -0.000920857 0)
(0.000516988 -0.000766871 6.45843e-23)
(0.000736877 -0.000649631 0)
(0.000937483 -0.000560381 2.07985e-24)
(0.00112198 -0.000492562 0)
(0.00129369 -0.000441362 1.01364e-22)
(0.00145583 -0.00040332 0)
(0.00161144 -0.00037596 0)
(0.00176331 -0.000357533 1.32619e-22)
(0.00191405 -0.000346826 7.37457e-22)
(0.00206612 -0.000343026 -1.87276e-21)
(0.00222188 -0.000345635 1.27459e-21)
(0.00238363 -0.000354409 0)
(0.00255369 -0.000369321 -1.40273e-21)
(0.00273439 -0.000390541 1.58542e-21)
(0.0029282 -0.00041844 2.16402e-22)
(0.00313772 -0.000453609 0)
(0.00336577 -0.000496905 2.08335e-21)
(0.00361547 -0.000549532 -2.0557e-21)
(0.0038903 -0.000613158 0)
(0.00419382 -0.000690127 -2.46387e-21)
(0.00453239 -0.000782917 2.43484e-21)
(0.00492017 -0.000898001 -2.71404e-21)
(0.00530603 -0.00108282 5.32783e-21)
(0.00564967 -0.001368 8.58762e-21)
(0.00595526 -0.00175771 3.06118e-21)
(0.00623953 -0.00224362 -4.6869e-22)
(0.00648723 -0.00281842 4.96517e-22)
(0.00667913 -0.00346168 9.02672e-21)
(0.00674544 -0.0041516 -9.80315e-24)
(0.00666771 -0.0048268 -2.58647e-21)
(0.00650546 -0.0054484 5.77251e-21)
(0.00630088 -0.00601645 -2.46276e-21)
(0.00605526 -0.00653418 3.17433e-21)
(0.00577629 -0.00699948 -2.46172e-20)
(0.00547187 -0.00740977 -9.45569e-21)
(0.00514136 -0.00776104 -2.966e-21)
(0.00478006 -0.00804754 0)
(0.00438294 -0.00826383 -8.23984e-22)
(0.00394261 -0.00840559 -2.01164e-20)
(0.00345375 -0.00846893 -8.72336e-21)
(0.0029137 -0.00845118 -1.15217e-21)
(0.00232792 -0.00834681 -1.62031e-20)
(0.00170651 -0.00815826 0)
(0.00105531 -0.0078818 7.4766e-21)
(0.000394946 -0.00749818 -1.43676e-22)
(-0.000233997 -0.00700755 -1.50229e-22)
(-0.000785624 -0.00640117 -1.83665e-21)
(-0.00118885 -0.00568833 -5.42576e-22)
(-0.00135231 -0.00484849 -1.402e-22)
(-0.00110937 -0.00389699 1.25994e-22)
(-0.000269033 -0.00285188 6.50254e-22)
(0.00132412 -0.00177504 -2.78959e-21)
(0.00373668 -0.000804786 -9.0588e-22)
(0.00653159 -0.000152111 -1.08223e-20)
(0.00917645 0.000118892 1.13244e-20)
(0.0112841 9.15213e-05 -1.92668e-20)
(0.0127311 -0.00010188 -1.90709e-21)
(0.0135547 -0.000332128 1.18267e-20)
(0.0139364 -0.00052432 1.40542e-21)
(0.0140696 -0.000649338 1.16191e-20)
(0.0140857 -0.00071396 -1.44298e-20)
(0.0140641 -0.000740001 -9.52835e-21)
(0.0140287 -0.000742896 0)
(0.0139835 -0.000735747 -1.12817e-20)
(0.0139423 -0.000723265 -9.71159e-21)
(0.0139074 -0.000707396 -1.32488e-21)
(0.0138788 -0.000688098 2.02679e-20)
(0.0138553 -0.000664708 -1.11494e-20)
(0.0138365 -0.000637492 1.18547e-21)
(0.0138206 -0.000607104 -8.51586e-21)
(0.0138049 -0.000573033 8.30043e-21)
(0.0137894 -0.000534462 -7.60499e-21)
(0.013774 -0.000488147 6.52486e-21)
(0.0137556 -0.000431266 -5.70625e-21)
(0.0137291 -0.000358942 0)
(0.0136841 -0.000267622 -1.06109e-22)
(0.0136027 -0.000149176 -3.54312e-23)
(0.0134639 -1.0097e-08 5.83513e-22)
(0.013249 0.000176872 0)
(0.0129429 0.000362115 -2.68254e-22)
(0.012552 0.000509731 -1.02458e-21)
(0.0121157 0.000564882 3.65862e-22)
(0.0116733 0.000488333 -4.46705e-21)
(0.0112618 0.00026749 -4.50448e-21)
(0.0108873 -8.09183e-05 5.68381e-21)
(0.0105419 -0.000523317 1.38987e-22)
(0.0102089 -0.00102492 -6.58052e-21)
(0.00986617 -0.0015569 -7.54202e-21)
(0.00950253 -0.00210047 -4.82701e-22)
(0.00911291 -0.00264667 -7.95444e-21)
(0.00869473 -0.00319097 1.68301e-20)
(0.00824644 -0.00373023 0)
(0.00776632 -0.00425999 0)
(0.00725298 -0.00477359 0)
(0.00670452 -0.00526205 8.52708e-21)
(0.00611863 -0.00571372 5.17058e-22)
(0.00549294 -0.00611427 -2.56929e-22)
(0.00482561 -0.0064469 -6.40259e-22)
(0.00412075 -0.00669482 6.82148e-21)
(0.00338672 -0.00684535 6.95464e-21)
(0.0026319 -0.00688607 0)
(0.00187136 -0.00680021 0)
(0.00113702 -0.00658956 0)
(0.000451368 -0.00625577 0)
(-0.000148288 -0.00578343 -1.57467e-21)
(-0.000595027 -0.00519711 -3.63879e-22)
(-0.000824481 -0.00448547 0)
(-0.000693188 -0.00366066 7.71591e-23)
(-4.96545e-05 -0.00275536 0)
(0.00126055 -0.00179908 0)
(0.0033748 -0.000891894 0)
(0.00602163 -0.000232016 0)
(0.00868459 8.10206e-05 3.5659e-22)
(0.0108819 0.000105253 -1.08792e-20)
(0.0124506 -6.00127e-05 -3.45118e-22)
(0.0133883 -0.000277947 1.21089e-20)
(0.0138378 -0.000467902 -1.30781e-20)
(0.0140093 -0.000601978 1.31878e-20)
(0.0140504 -0.000675057 0)
(0.0140344 -0.000709901 -1.24685e-20)
(0.0140039 -0.000720416 1.08704e-20)
(0.0139663 -0.00071588 -8.55807e-21)
(0.0139287 -0.000702349 1.1262e-20)
(0.0138945 -0.000685078 -7.92791e-22)
(0.0138646 -0.000664171 -1.34526e-21)
(0.0138383 -0.000639546 7.45708e-22)
(0.013814 -0.000611428 7.28792e-21)
(0.0137921 -0.000579519 2.96705e-21)
(0.0137718 -0.000543197 9.06222e-21)
(0.0137529 -0.000500736 1.93367e-21)
(0.0137334 -0.00044935 -8.99665e-21)
(0.0137082 -0.000389378 -1.29034e-20)
(0.0136726 -0.000314032 -6.58887e-21)
(0.0136151 -0.000219039 1.25972e-21)
(0.0135225 -9.98782e-05 9.25676e-22)
(0.0133748 4.73549e-05 -5.18806e-22)
(0.0131532 0.000219474 1.66813e-22)
(0.0128422 0.000398063 4.45187e-23)
(0.0124418 0.000538714 -1.10894e-21)
(0.011986 0.000582307 0)
(0.0115189 0.000483576 -3.90872e-21)
(0.0110713 0.00022798 -3.0379e-21)
(0.0106525 -0.00016667 0)
(0.0102544 -0.000666163 -3.86911e-21)
(0.00985007 -0.00123323 -7.13701e-21)
(0.00941704 -0.00183884 4.5032e-21)
(0.00893513 -0.00246705 -4.76768e-21)
(0.00838334 -0.00310611 -8.40866e-21)
(0.00773748 -0.00374124 8.55817e-21)
(0.00696752 -0.00434257 6.91733e-21)
(0.00606565 -0.00486182 -8.34701e-21)
(0.00505249 -0.0052286 8.72473e-21)
(0.00398175 -0.00536115 -6.67814e-21)
(0.00294171 -0.00523464 -1.69157e-21)
(0.00210891 -0.00501919 8.88253e-21)
(0.00146554 -0.00486057 0)
(0.000797992 -0.00463027 -5.66703e-21)
(0.000205042 -0.00426221 -1.30014e-21)
(-0.000238124 -0.00378852 -2.46951e-21)
(-0.000510824 -0.0032364 2.28219e-21)
(-0.000573834 -0.0026509 -9.4629e-22)
(-0.000411545 -0.00210698 9.55426e-22)
(-0.00013618 -0.0016623 0)
(0.000148538 -0.00129678 4.20225e-23)
(0.00042147 -0.00100572 5.31701e-22)
(0.000667496 -0.000781305 -6.05341e-22)
(0.000878815 -0.000609981 -4.48032e-22)
(0.00105453 -0.000478463 3.94513e-22)
(0.00119704 -0.000376328 -1.79054e-22)
(0.00130973 -0.000295763 1.78758e-22)
(0.00139604 -0.000230963 0)
(0.00145907 -0.000177652 -1.5141e-22)
(0.0015014 -0.000132683 1.33545e-22)
(0.00152504 -9.36993e-05 -1.29336e-22)
(0.00153144 -5.88767e-05 1.14545e-22)
(0.00152151 -2.67403e-05 1.31822e-23)
(0.00149568 3.99057e-06 -1.26129e-23)
(0.00145387 3.46669e-05 0)
(0.00139505 6.67954e-05 0)
(0.0013176 0.000102343 -1.23843e-23)
(0.00121874 0.000144257 0)
(0.00109405 0.000197576 0)
(0.000936541 0.000271802 2.80274e-23)
(0.000735334 0.00038616 0)
(0.000472519 0.000580346 0)
(0.00012076 0.000933421 8.77503e-23)
(-0.000350822 0.00158419 -4.54383e-23)
(-0.000931291 0.00270664 0)
(-0.00147161 0.0042932 0)
(-0.00167151 0.00548313 -1.8074e-23)
(-0.000521322 0.00413333 -9.83227e-23)
(-0.000164824 -0.00153367 1.33242e-23)
(-0.00074467 -0.00272163 1.46591e-23)
(-0.00105876 -0.00289352 1.57892e-23)
(-0.00117587 -0.00264365 -3.20995e-23)
(-0.00115052 -0.00227772 1.06536e-22)
(-0.00104159 -0.00191761 -5.69793e-23)
(-0.000883487 -0.00160463 0)
(-0.000701033 -0.00134758 4.6267e-23)
(-0.000510442 -0.00114182 0)
(-0.00032039 -0.000979178 3.30822e-22)
(-0.000134859 -0.000851589 -2.69574e-22)
(4.463e-05 -0.000752235 8.17373e-23)
(0.000217887 -0.0006756 3.78975e-22)
(0.000385833 -0.000617385 -2.79438e-22)
(0.000549867 -0.000574341 1.06839e-22)
(0.000711681 -0.000544051 0)
(0.000873081 -0.000524755 1.26842e-22)