/*--------------------------------*- C++ -*----------------------------------*\
| =========                 |                                                 |
| \\      /  F ield         | OpenFOAM: The Open Source CFD Toolbox           |
|  \\    /   O peration     | Version:  2506                                  |
|   \\  /    A nd           | Website:  www.openfoam.com                      |
|    \\/     M anipulation  |                                                 |
\*---------------------------------------------------------------------------*/
FoamFile
{
    version     2.0;
    format      ascii;
    arch        "LSB;label=32;scalar=64";
    class       surfaceScalarField;
    location    "0.15";
    object      phi;
}
// * * * * * * * * * * * * * * * * * * * * * * * * * * * * * * * * * * * * * //

dimensions      [0 3 -1 0 0 0 0];

oriented        oriented;

internalField   nonuniform List<scalar> 
7780
(
1.06485e-09
-1.06485e-09
1.85825e-09
-7.93393e-10
2.32435e-09
-4.66105e-10
2.63215e-09
-3.07799e-10
2.83953e-09
-2.07377e-10
2.97882e-09
-1.39296e-10
3.07623e-09
-9.74059e-11
3.14866e-09
-7.24279e-11
3.20556e-09
-5.68978e-11
3.25236e-09
-4.68055e-11
3.29244e-09
-4.00744e-11
3.32792e-09
-3.54882e-11
3.36024e-09
-3.23113e-11
3.39034e-09
-3.01076e-11
3.41896e-09
-2.86148e-11
3.44663e-09
-2.76687e-11
3.47379e-09
-2.71654e-11
3.50083e-09
-2.70404e-11
3.52809e-09
-2.72562e-11
3.55588e-09
-2.7795e-11
3.58454e-09
-2.86547e-11
3.61438e-09
-2.98466e-11
3.64578e-09
-3.13958e-11
3.67912e-09
-3.33427e-11
3.71487e-09
-3.57466e-11
3.75356e-09
-3.86916e-11
3.79586e-09
-4.22944e-11
3.84256e-09
-4.67066e-11
3.89461e-09
-5.20516e-11
3.95261e-09
-5.79997e-11
3.99613e-09
-1.17261e-10
3.93292e-09
-4.56979e-10
3.75495e-09
-9.05347e-10
3.49851e-09
-1.33392e-09
3.20232e-09
-1.72505e-09
2.92498e-09
-2.10822e-09
2.69599e-09
-2.48069e-09
2.42766e-09
-2.91718e-09
2.15104e-09
-3.2095e-09
1.93676e-09
-3.34463e-09
1.76165e-09
-3.43386e-09
1.61517e-09
-3.4948e-09
1.48396e-09
-3.52931e-09
1.36043e-09
-3.54396e-09
1.2397e-09
-3.54178e-09
1.11709e-09
-3.52273e-09
9.9432e-10
-3.4873e-09
8.67997e-10
-3.43583e-09
7.37371e-10
-3.36652e-09
6.0177e-10
-3.27642e-09
4.68294e-10
-3.16248e-09
3.64095e-10
-3.02519e-09
2.88398e-10
-2.86322e-09
2.91568e-10
-2.66355e-09
3.99504e-10
-2.41724e-09
6.64295e-10
-2.09104e-09
1.07619e-09
-1.66728e-09
1.63547e-09
-1.08738e-09
2.24113e-09
-3.50863e-10
2.75543e-09
4.64457e-10
3.11383e-09
1.24565e-09
3.34528e-09
1.932e-09
3.49333e-09
2.37571e-09
3.60806e-09
2.73916e-09
3.70145e-09
2.96834e-09
3.78789e-09
3.14997e-09
3.87039e-09
3.2909e-09
3.94872e-09
3.38888e-09
4.02424e-09
3.46399e-09
4.09683e-09
3.52108e-09
4.16772e-09
3.56326e-09
4.23666e-09
3.58848e-09
4.30404e-09
3.59962e-09
4.37033e-09
3.59833e-09
4.4357e-09
3.58476e-09
4.50048e-09
3.55817e-09
4.56474e-09
3.51717e-09
4.62839e-09
3.45085e-09
4.69178e-09
3.37e-09
4.75443e-09
3.26614e-09
4.81704e-09
3.13008e-09
4.87634e-09
2.92403e-09
4.93366e-09
2.69562e-09
4.98435e-09
2.35352e-09
5.02746e-09
1.95313e-09
5.05395e-09
1.36714e-09
5.0615e-09
7.22953e-10
5.04e-09
7.88205e-12
4.98186e-09
-7.30676e-10
4.87793e-09
-1.37126e-09
4.73353e-09
-1.85488e-09
4.54977e-09
-2.26852e-09
4.34639e-09
-2.55169e-09
4.133e-09
-2.80837e-09
3.93123e-09
-2.99161e-09
3.7455e-09
-3.14496e-09
3.56988e-09
-3.27284e-09
3.40532e-09
-3.35995e-09
3.24869e-09
-3.42538e-09
3.09691e-09
-3.47179e-09
2.94723e-09
-3.50136e-09
2.79691e-09
-3.51549e-09
2.64441e-09
-3.51422e-09
2.4881e-09
-3.49858e-09
2.32603e-09
-3.46838e-09
2.15607e-09
-3.42241e-09
1.97511e-09
-3.35793e-09
1.78477e-09
-3.27151e-09
1.59338e-09
-3.16348e-09
1.39715e-09
-3.03083e-09
1.19976e-09
-2.86665e-09
1.06232e-09
-2.668e-09
9.71951e-10
-2.43756e-09
1.01986e-09
-2.13777e-09
1.20057e-09
-1.77279e-09
1.55066e-09
-1.28374e-09
2.02321e-09
-6.37864e-10
2.49465e-09
1.14111e-10
2.85464e-09
9.09737e-10
3.09288e-09
1.65354e-09
3.23054e-09
2.19367e-09
3.32083e-09
2.60022e-09
3.38994e-09
2.87258e-09
3.45393e-09
3.09594e-09
3.51566e-09
3.23955e-09
3.57709e-09
3.35111e-09
3.63954e-09
3.4418e-09
3.70277e-09
3.50714e-09
3.76651e-09
3.55123e-09
3.83133e-09
3.58047e-09
3.8974e-09
3.59655e-09
3.9652e-09
3.59996e-09
4.0349e-09
3.59085e-09
4.10652e-09
3.56644e-09
4.18135e-09
3.52809e-09
4.25894e-09
3.47509e-09
4.34027e-09
3.40372e-09
4.42588e-09
3.31132e-09
4.51443e-09
3.17068e-09
4.60766e-09
3.0097e-09
4.70424e-09
2.80673e-09
4.80051e-09
2.49322e-09
4.89618e-09
2.1507e-09
4.98156e-09
1.63631e-09
5.05331e-09
1.04171e-09
5.10021e-09
3.58295e-10
5.11173e-09
-3.87186e-10
5.07485e-09
-1.08768e-09
4.99111e-09
-1.63779e-09
4.86138e-09
-2.09152e-09
4.69837e-09
-2.43971e-09
4.51777e-09
-2.70707e-09
4.33954e-09
-2.91371e-09
4.1655e-09
-3.09944e-09
4.00328e-09
-3.22735e-09
3.85031e-09
-3.3273e-09
3.70337e-09
-3.40293e-09
3.55675e-09
-3.45846e-09
3.40639e-09
-3.48924e-09
3.23448e-09
-3.48769e-09
3.01069e-09
-3.44354e-09
2.6674e-09
-3.31979e-09
2.04517e-09
-3.0245e-09
1.70967e-09
-2.61191e-09
1.49481e-09
-2.36949e-09
1.36834e-09
-2.15342e-09
1.36478e-09
-1.87329e-09
1.4801e-09
-1.5421e-09
1.72718e-09
-1.14821e-09
2.08228e-09
-7.06312e-10
2.41918e-09
-3.51594e-10
2.62857e-09
-2.09392e-10
2.76177e-09
-1.33202e-10
2.84931e-09
-8.75339e-11
2.90982e-09
-6.05171e-11
2.95415e-09
-4.43324e-11
2.98821e-09
-3.40589e-11
3.01537e-09
-2.71556e-11
3.03767e-09
-2.22982e-11
3.05639e-09
-1.87203e-11
3.07235e-09
-1.59629e-11
3.0861e-09
-1.37476e-11
3.098e-09
-1.18972e-11
3.10828e-09
-1.02871e-11
3.11712e-09
-8.83388e-12
3.12458e-09
-7.46375e-12
3.13069e-09
-6.10492e-12
3.1354e-09
-4.71475e-12
3.13859e-09
-3.19363e-12
3.13993e-09
-1.33654e-12
3.13903e-09
8.99742e-13
3.13499e-09
4.04455e-12
3.12596e-09
9.02899e-12
3.10794e-09
1.8014e-11
3.0716e-09
3.63397e-11
2.99462e-09
7.69839e-11
2.82359e-09
1.71028e-10
2.42859e-09
3.94998e-10
1.51368e-09
9.14911e-10
1.51368e-09
-9.03983e-11
-9.74455e-10
1.5859e-10
-1.04238e-09
4.78704e-10
-7.86219e-10
7.4569e-10
-5.74786e-10
9.57463e-10
-4.1915e-10
1.12312e-09
-3.04951e-10
1.25231e-09
-2.266e-10
1.3545e-09
-1.74615e-10
1.43727e-09
-1.39668e-10
1.50613e-09
-1.15663e-10
1.56501e-09
-9.89549e-11
1.61677e-09
-8.725e-11
1.66352e-09
-7.90612e-11
1.70684e-09
-7.34327e-11
1.74798e-09
-6.97492e-11
1.78792e-09
-6.7608e-11
1.8275e-09
-6.67454e-11
1.86745e-09
-6.6993e-11
1.90844e-09
-6.82508e-11
1.95112e-09
-7.04704e-11
1.99611e-09
-7.36444e-11
2.04407e-09
-7.7802e-11
2.09568e-09
-8.30086e-11
2.1517e-09
-8.93691e-11
2.213e-09
-9.7039e-11
2.28055e-09
-1.06242e-10
2.35555e-09
-1.173e-10
2.43952e-09
-1.3067e-10
2.53448e-09
-1.4702e-10
2.64344e-09
-1.66953e-10
2.75273e-09
-2.2655e-10
2.79003e-09
-4.94287e-10
2.75339e-09
-8.68699e-10
2.67599e-09
-1.25652e-09
2.58353e-09
-1.63258e-09
2.49269e-09
-2.01739e-09
2.40325e-09
-2.39125e-09
2.26992e-09
-2.78385e-09
2.10563e-09
-3.04521e-09
1.94477e-09
-3.18376e-09
1.78944e-09
-3.27854e-09
1.64119e-09
-3.34655e-09
1.49592e-09
-3.38405e-09
1.35099e-09
-3.39903e-09
1.20467e-09
-3.39546e-09
1.05536e-09
-3.37341e-09
9.02724e-10
-3.33467e-09
7.44566e-10
-3.27768e-09
5.79463e-10
-3.20142e-09
4.06963e-10
-3.10392e-09
2.30129e-10
-2.98564e-09
5.79283e-11
-2.85299e-09
-1.09684e-10
-2.6956e-09
-2.51836e-10
-2.5214e-09
-3.50358e-10
-2.31872e-09
-3.6085e-10
-2.08055e-09
-2.41877e-10
-1.78625e-09
7.94033e-11
-1.40866e-09
6.27355e-10
-8.98814e-10
1.33277e-09
-2.40955e-10
2.05322e-09
5.25208e-10
2.65923e-09
1.32599e-09
3.0829e-09
1.95205e-09
3.37328e-09
2.44878e-09
3.56413e-09
2.77749e-09
3.7e-09
3.01408e-09
3.80794e-09
3.18293e-09
3.90037e-09
3.29642e-09
3.98452e-09
3.37983e-09
4.06289e-09
3.44273e-09
4.13794e-09
3.48823e-09
4.20999e-09
3.51647e-09
4.27971e-09
3.52992e-09
4.3478e-09
3.53025e-09
4.41462e-09
3.51793e-09
4.48057e-09
3.4922e-09
4.54577e-09
3.45195e-09
4.60998e-09
3.38662e-09
4.67366e-09
3.30631e-09
4.7363e-09
3.20349e-09
4.79843e-09
3.06795e-09
4.85608e-09
2.86639e-09
4.91055e-09
2.64115e-09
4.95553e-09
2.30853e-09
4.98876e-09
1.9199e-09
4.99631e-09
1.35959e-09
4.9723e-09
7.46965e-10
4.90509e-09
7.50937e-11
4.79038e-09
-6.15962e-10
4.63204e-09
-1.21292e-09
4.45015e-09
-1.67299e-09
4.25702e-09
-2.0754e-09
4.07114e-09
-2.36581e-09
3.8934e-09
-2.63063e-09
3.72508e-09
-2.8233e-09
3.56131e-09
-2.98118e-09
3.39889e-09
-3.11043e-09
3.2371e-09
-3.19815e-09
3.07453e-09
-3.26281e-09
2.90966e-09
-3.30691e-09
2.74114e-09
-3.33283e-09
2.56781e-09
-3.34216e-09
2.38879e-09
-3.3352e-09
2.20297e-09
-3.31276e-09
2.00885e-09
-3.27426e-09
1.80488e-09
-3.21843e-09
1.58984e-09
-3.1429e-09
1.36511e-09
-3.04677e-09
1.13345e-09
-2.93182e-09
8.95617e-10
-2.793e-09
6.5723e-10
-2.62827e-09
4.42535e-10
-2.4533e-09
2.52281e-10
-2.24731e-09
1.34201e-10
-2.01968e-09
1.11132e-10
-1.74972e-09
2.42793e-10
-1.4154e-09
5.79323e-10
-9.74395e-10
1.09956e-09
-4.06125e-10
1.71441e-09
2.94888e-10
2.28972e-09
1.07823e-09
2.72069e-09
1.7627e-09
3.0128e-09
2.30811e-09
3.20141e-09
2.68397e-09
3.33241e-09
2.96494e-09
3.42968e-09
3.14226e-09
3.51091e-09
3.26988e-09
3.58561e-09
3.3671e-09
3.65702e-09
3.43574e-09
3.72641e-09
3.48185e-09
3.79526e-09
3.51164e-09
3.86426e-09
3.52756e-09
3.9342e-09
3.53001e-09
4.00549e-09
3.51956e-09
4.07823e-09
3.4937e-09
4.15374e-09
3.45258e-09
4.23167e-09
3.39715e-09
4.31299e-09
3.3224e-09
4.3982e-09
3.22611e-09
4.48545e-09
3.08343e-09
4.57656e-09
2.9186e-09
4.66981e-09
2.71348e-09
4.75978e-09
2.40325e-09
4.84553e-09
2.06495e-09
4.91283e-09
1.56901e-09
4.9546e-09
9.99931e-10
4.95536e-09
3.57534e-10
4.90516e-09
-3.36989e-10
4.80183e-09
-9.84349e-10
4.66312e-09
-1.49908e-09
4.50368e-09
-1.93207e-09
4.34135e-09
-2.27739e-09
4.18361e-09
-2.54933e-09
4.03238e-09
-2.76249e-09
3.87902e-09
-2.94607e-09
3.72326e-09
-3.07159e-09
3.56164e-09
-3.16567e-09
3.38957e-09
-3.23084e-09
3.19979e-09
-3.26867e-09
2.98099e-09
-3.27045e-09
2.7109e-09
-3.21761e-09
2.36505e-09
-3.09772e-09
1.92561e-09
-2.88036e-09
1.43173e-09
-2.53063e-09
1.10452e-09
-2.28469e-09
8.54227e-10
-2.11919e-09
6.35786e-10
-1.93497e-09
4.73132e-10
-1.71063e-09
3.88791e-10
-1.45776e-09
4.15412e-10
-1.17483e-09
5.78441e-10
-8.69341e-10
8.15075e-10
-5.88228e-10
1.00973e-09
-4.04048e-10
1.15886e-09
-2.82328e-10
1.27153e-09
-2.00205e-10
1.35677e-09
-1.45762e-10
1.4218e-09
-1.09358e-10
1.4719e-09
-8.41574e-11
1.51081e-09
-6.60701e-11
1.54116e-09
-5.26477e-11
1.56478e-09
-4.23417e-11
1.58297e-09
-3.41522e-11
1.59664e-09
-2.74197e-11
1.60644e-09
-2.16924e-11
1.61279e-09
-1.66403e-11
1.61598e-09
-1.20211e-11
1.61614e-09
-7.62499e-12
1.6133e-09
-3.26664e-12
1.60734e-09
1.24938e-12
1.59794e-09
6.20625e-12
1.5846e-09
1.20009e-11
1.56631e-09
1.91929e-11
1.5414e-09
2.89475e-11
1.50683e-09
4.36059e-11
1.45648e-09
6.83624e-11
1.37756e-09
1.15259e-10
1.24307e-09
2.11469e-10
1.00064e-09
4.13466e-10
5.79886e-10
8.15749e-10
7.41398e-11
1.42066e-09
1.58782e-09
-2.18688e-10
-7.55767e-10
-2.57425e-10
-1.00364e-09
-1.71058e-10
-8.72586e-10
-4.94326e-11
-6.96412e-10
7.4245e-11
-5.42828e-10
1.90489e-10
-4.21194e-10
2.94717e-10
-3.30828e-10
3.85821e-10
-2.6572e-10
4.65227e-10
-2.19074e-10
5.3514e-10
-1.85576e-10
5.97714e-10
-1.61528e-10
6.54815e-10
-1.44351e-10
7.08011e-10
-1.32258e-10
7.5861e-10
-1.24032e-10
8.07714e-10
-1.18853e-10
8.5627e-10
-1.16165e-10
9.05118e-10
-1.15592e-10
9.5502e-10
-1.16895e-10
1.0067e-09
-1.19928e-10
1.06085e-09
-1.24624e-10
1.11818e-09
-1.30975e-10
1.17941e-09
-1.39035e-10
1.24532e-09
-1.4891e-10
1.31671e-09
-1.60768e-10
1.39453e-09
-1.74856e-10
1.47981e-09
-1.91522e-10
1.57377e-09
-2.11256e-10
1.67785e-09
-2.34756e-10
1.79387e-09
-2.63037e-10
1.92422e-09
-2.97296e-10
2.06289e-09
-3.65228e-10
2.16639e-09
-5.97788e-10
2.22505e-09
-9.27356e-10
2.24961e-09
-1.28108e-09
2.24588e-09
-1.62884e-09
2.21969e-09
-1.9912e-09
2.1672e-09
-2.33875e-09
2.06554e-09
-2.68219e-09
1.93207e-09
-2.91175e-09
1.79365e-09
-3.04534e-09
1.65483e-09
-3.13971e-09
1.51759e-09
-3.2093e-09
1.37996e-09
-3.24642e-09
1.24073e-09
-3.2598e-09
1.0989e-09
-3.25363e-09
9.53383e-10
-3.2279e-09
8.03164e-10
-3.18445e-09
6.46451e-10
-3.12096e-09
4.82017e-10
-3.03699e-09
3.09439e-10
-2.93134e-09
1.3024e-10
-2.80644e-09
-5.29029e-11
-2.66985e-09
-2.39174e-10
-2.50933e-09
-4.18516e-10
-2.34206e-09
-5.78758e-10
-2.15848e-09
-6.91443e-10
-1.96787e-09
-7.28757e-10
-1.74894e-09
-6.36079e-10
-1.50134e-09
-3.57205e-10
-1.17769e-09
1.32499e-10
-7.30656e-10
7.92657e-10
-1.34946e-10
1.53037e-09
5.88284e-10
2.18768e-09
1.29474e-09
2.71882e-09
1.91764e-09
3.10849e-09
2.38781e-09
3.38592e-09
2.73662e-09
3.58484e-09
2.984e-09
3.73274e-09
3.14851e-09
3.85074e-09
3.26185e-09
3.95072e-09
3.34278e-09
4.04032e-09
3.39867e-09
4.12263e-09
3.43419e-09
4.19975e-09
3.45281e-09
4.27322e-09
3.45677e-09
4.34391e-09
3.44722e-09
4.41251e-09
3.42358e-09
4.47929e-09
3.38516e-09
4.54384e-09
3.32205e-09
4.60671e-09
3.24344e-09
4.66732e-09
3.14289e-09
4.72578e-09
3.00949e-09
4.77714e-09
2.81504e-09
4.82244e-09
2.59585e-09
4.85361e-09
2.27737e-09
4.86764e-09
1.90587e-09
4.84879e-09
1.37844e-09
4.79279e-09
8.02964e-10
4.69163e-09
1.76262e-10
4.54867e-09
-4.7301e-10
4.37652e-09
-1.04076e-09
4.19769e-09
-1.49416e-09
4.02032e-09
-1.89803e-09
3.85371e-09
-2.1992e-09
3.69246e-09
-2.46937e-09
3.53515e-09
-2.66599e-09
3.37752e-09
-2.82355e-09
3.21759e-09
-2.9505e-09
3.05546e-09
-3.03602e-09
2.89065e-09
-3.098e-09
2.72224e-09
-3.1385e-09
2.54933e-09
-3.15992e-09
2.3711e-09
-3.16392e-09
2.18675e-09
-3.15085e-09
1.99527e-09
-3.12129e-09
1.7955e-09
-3.0745e-09
1.58645e-09
-3.00938e-09
1.36772e-09
-2.92417e-09
1.1403e-09
-2.81936e-09
9.05316e-10
-2.69683e-09
6.65877e-10
-2.55356e-09
4.2576e-10
-2.38815e-09
1.93648e-10
-2.22119e-09
-2.40238e-11
-2.02963e-09
-2.03027e-10
-1.84068e-09
-3.24252e-10
-1.62849e-09
-3.44393e-10
-1.39526e-09
-2.12278e-10
-1.10651e-09
1.01904e-10
-7.20308e-10
5.95321e-10
-1.98528e-10
1.20892e-09
4.64633e-10
1.80601e-09
1.16561e-09
2.30839e-09
1.80574e-09
2.68555e-09
2.30681e-09
2.9603e-09
2.69017e-09
3.15573e-09
2.94682e-09
3.30044e-09
3.12517e-09
3.41592e-09
3.25163e-09
3.51415e-09
3.33753e-09
3.60177e-09
3.39424e-09
3.68332e-09
3.43009e-09
3.76138e-09
3.4495e-09
3.83776e-09
3.45362e-09
3.91351e-09
3.4438e-09
3.98906e-09
3.41815e-09
4.06589e-09
3.37574e-09
4.14386e-09
3.31918e-09
4.22388e-09
3.24238e-09
4.30629e-09
3.14369e-09
4.38854e-09
3.00119e-09
4.47222e-09
2.83492e-09
4.55502e-09
2.63068e-09
4.62946e-09
2.32882e-09
4.69439e-09
2.00002e-09
4.73313e-09
1.53027e-09
4.73899e-09
9.9407e-10
4.70019e-09
3.96334e-10
4.61471e-09
-2.51505e-10
4.4909e-09
-8.60542e-10
4.35144e-09
-1.35962e-09
4.20729e-09
-1.78792e-09
4.06619e-09
-2.1363e-09
3.92641e-09
-2.40954e-09
3.78445e-09
-2.62053e-09
3.63238e-09
-2.794e-09
3.46965e-09
-2.90886e-09
3.29294e-09
-2.98895e-09
3.09669e-09
-3.03459e-09
2.87202e-09
-3.04399e-09
2.60684e-09
-3.00526e-09
2.28782e-09
-2.89859e-09
1.91365e-09
-2.72355e-09
1.50603e-09
-2.47276e-09
1.12829e-09
-2.15291e-09
8.44481e-10
-2.00088e-09
5.90875e-10
-1.86558e-09
3.52502e-10
-1.69659e-09
1.52129e-10
-1.51025e-09
5.83884e-12
-1.31147e-09
-6.60684e-11
-1.10292e-09
-4.34341e-11
-8.91975e-10
5.38039e-11
-6.85466e-10
1.61199e-10
-5.11443e-10
2.59426e-10
-3.80554e-10
3.4401e-10
-2.84789e-10
4.14297e-10
-2.16049e-10
4.71417e-10
-1.66478e-10
5.17287e-10
-1.30027e-10
5.53793e-10
-1.02576e-10
5.82512e-10
-8.13669e-11
6.047e-10
-6.45299e-11
6.21327e-10
-5.07792e-11
6.33119e-10
-3.92115e-11
6.40599e-10
-2.91726e-11
6.44108e-10
-2.01496e-11
6.43861e-10
-1.17739e-11
6.39924e-10
-3.68783e-12
6.32229e-10
4.42799e-12
6.20489e-10
1.29895e-11
6.04208e-10
2.24872e-11
5.82606e-10
3.36035e-11
5.54365e-10
4.74338e-11
5.17392e-10
6.59205e-11
4.68193e-10
9.28044e-11
4.00783e-10
1.35773e-10
3.04895e-10
2.11147e-10
1.64533e-10
3.51831e-10
-3.42486e-11
6.12247e-10
-2.58327e-10
1.03983e-09
-3.13257e-10
1.47559e-09
1.27457e-09
-1.80157e-10
-5.7561e-10
-3.01237e-10
-8.82564e-10
-3.21523e-10
-8.523e-10
-2.89164e-10
-7.2877e-10
-2.3247e-10
-5.99522e-10
-1.64386e-10
-4.89278e-10
-9.32882e-11
-4.01926e-10
-2.37301e-11
-3.35278e-10
4.24365e-11
-2.85241e-10
1.04845e-10
-2.47984e-10
1.63819e-10
-2.20502e-10
2.2e-10
-2.00532e-10
2.74155e-10
-1.86412e-10
3.27079e-10
-1.76956e-10
3.79517e-10
-1.71291e-10
4.32176e-10
-1.68824e-10
4.85742e-10
-1.69158e-10
5.40872e-10
-1.72025e-10
5.98209e-10
-1.77265e-10
6.58394e-10
-1.84808e-10
7.22078e-10
-1.94659e-10
7.89934e-10
-2.06891e-10
8.62672e-10
-2.21648e-10
9.41051e-10
-2.39148e-10
1.0259e-09
-2.59702e-10
1.11811e-09
-2.83735e-10
1.21869e-09
-3.11835e-10
1.32874e-09
-3.44805e-10
1.44947e-09
-3.83765e-10
1.58227e-09
-4.30101e-10
1.72398e-09
-5.06936e-10
1.84705e-09
-7.20857e-10
1.93771e-09
-1.01802e-09
1.99452e-09
-1.33789e-09
2.01557e-09
-1.64989e-09
2.00465e-09
-1.98028e-09
1.96023e-09
-2.29433e-09
1.87058e-09
-2.59255e-09
1.75355e-09
-2.79471e-09
1.63035e-09
-2.92214e-09
1.50475e-09
-3.0141e-09
1.37838e-09
-3.08294e-09
1.25032e-09
-3.11836e-09
1.12001e-09
-3.12949e-09
9.86716e-10
-3.12034e-09
8.49497e-10
-3.09068e-09
7.07179e-10
-3.04213e-09
5.58356e-10
-2.97214e-09
4.02159e-10
-2.88079e-09
2.38465e-10
-2.76765e-09
6.83199e-11
-2.6363e-09
-1.07288e-10
-2.49424e-09
-2.86463e-10
-2.33016e-09
-4.63603e-10
-2.16492e-09
-6.31363e-10
-1.99072e-09
-7.75965e-10
-1.82327e-09
-8.77871e-10
-1.64703e-09
-9.08962e-10
-1.47025e-09
-8.3119e-10
-1.25546e-09
-5.92101e-10
-9.69743e-10
-1.6136e-10
-5.65684e-10
4.46042e-10
-1.91166e-11
1.12604e-09
6.14736e-10
1.78306e-09
1.2606e-09
2.34211e-09
1.82874e-09
2.78702e-09
2.29169e-09
3.12567e-09
2.64534e-09
3.37787e-09
2.89633e-09
3.56881e-09
3.07095e-09
3.7185e-09
3.19313e-09
3.84179e-09
3.27541e-09
3.94731e-09
3.32868e-09
4.04072e-09
3.35939e-09
4.12573e-09
3.37173e-09
4.20453e-09
3.36839e-09
4.27859e-09
3.3495e-09
4.34863e-09
3.3151e-09
4.4143e-09
3.25638e-09
4.47631e-09
3.18143e-09
4.53409e-09
3.08512e-09
4.58741e-09
2.95618e-09
4.63071e-09
2.77174e-09
4.66498e-09
2.56158e-09
4.68118e-09
2.26117e-09
4.67653e-09
1.91051e-09
4.63553e-09
1.41944e-09
4.5574e-09
8.81095e-10
4.43973e-09
2.93929e-10
4.29099e-09
-3.24267e-10
4.12562e-09
-8.75397e-10
3.9618e-09
-1.33033e-09
3.80142e-09
-1.73765e-09
3.6482e-09
-2.04599e-09
3.49537e-09
-2.31655e-09
3.34233e-09
-2.51295e-09
3.18642e-09
-2.66764e-09
3.02677e-09
-2.79085e-09
2.86405e-09
-2.8733e-09
2.69811e-09
-2.93207e-09
2.52836e-09
-2.96874e-09
2.35413e-09
-2.9857e-09
2.17484e-09
-2.98463e-09
1.98985e-09
-2.96586e-09
1.79838e-09
-2.92982e-09
1.59967e-09
-2.87578e-09
1.39324e-09
-2.80295e-09
1.17921e-09
-2.71013e-09
9.58646e-10
-2.59879e-09
7.32724e-10
-2.47091e-09
5.0311e-10
-2.32395e-09
2.74841e-10
-2.15989e-09
5.19877e-11
-1.99833e-09
-1.59828e-10
-1.81782e-09
-3.48786e-10
-1.65172e-09
-5.02385e-10
-1.47489e-09
-5.96963e-10
-1.30068e-09
-5.99815e-10
-1.10366e-09
-4.71807e-10
-8.48315e-10
-1.8e-10
-4.90335e-10
2.84207e-10
4.27587e-13
8.50229e-10
5.99584e-10
1.42663e-09
1.22933e-09
1.93526e-09
1.79816e-09
2.35202e-09
2.27341e-09
2.67178e-09
2.62706e-09
2.91367e-09
2.88329e-09
3.1001e-09
3.06522e-09
3.2484e-09
3.18924e-09
3.37113e-09
3.27152e-09
3.47738e-09
3.32384e-09
3.57294e-09
3.35394e-09
3.66164e-09
3.36491e-09
3.74586e-09
3.35957e-09
3.82679e-09
3.33722e-09
3.90628e-09
3.29624e-09
3.98461e-09
3.24085e-09
4.06266e-09
3.16433e-09
4.14073e-09
3.06563e-09
4.21576e-09
2.92616e-09
4.28915e-09
2.76153e-09
4.3583e-09
2.56153e-09
4.41458e-09
2.27254e-09
4.45739e-09
1.95721e-09
4.47043e-09
1.51723e-09
4.45051e-09
1.01399e-09
4.39221e-09
4.5463e-10
4.2996e-09
-1.58894e-10
4.18358e-09
-7.44523e-10
4.06195e-09
-1.23798e-09
3.93762e-09
-1.6636e-09
3.81103e-09
-2.00971e-09
3.67756e-09
-2.27608e-09
3.53411e-09
-2.47707e-09
3.37484e-09
-2.63474e-09
3.1996e-09
-2.73362e-09
3.00474e-09
-2.79409e-09
2.78442e-09
-2.81426e-09
2.53103e-09
-2.79059e-09
2.23796e-09
-2.71218e-09
1.90552e-09
-2.56614e-09
1.54908e-09
-2.36711e-09
1.19996e-09
-2.12365e-09
9.00818e-10
-1.85378e-09
6.52614e-10
-1.75269e-09
4.19021e-10
-1.63199e-09
2.02392e-10
-1.47995e-09
1.79306e-11
-1.32578e-09
-1.25755e-10
-1.16778e-09
-2.17668e-10
-1.01101e-09
-2.51521e-10
-8.58122e-10
-2.34916e-10
-7.02071e-10
-1.94869e-10
-5.51491e-10
-1.45896e-10
-4.29527e-10
-9.58558e-11
-3.34829e-10
-4.9337e-11
-2.62568e-10
-8.45912e-12
-2.07356e-10
2.61973e-11
-1.64684e-10
5.4814e-11
-1.31193e-10
7.7848e-11
-1.04401e-10
9.58006e-11
-8.24825e-11
1.09134e-10
-6.41124e-11
1.18218e-10
-4.82958e-11
1.23319e-10
-3.42738e-11
1.24631e-10
-2.1461e-11
1.22191e-10
-9.33462e-12
1.15922e-10
2.58128e-12
1.05647e-10
1.47036e-11
9.09478e-11
2.76884e-11
7.12389e-11
4.21962e-11
4.56065e-11
5.92358e-11
1.26665e-11
8.03738e-11
-2.96598e-11
1.08247e-10
-8.44264e-11
1.47571e-10
-1.55852e-10
2.07199e-10
-2.48591e-10
3.03885e-10
-3.62501e-10
4.65742e-10
-4.74313e-10
7.24059e-10
-5.00402e-10
1.06592e-09
-3.26822e-10
1.30201e-09
9.47744e-10
-1.27872e-10
-4.47737e-10
-2.46982e-10
-7.63454e-10
-3.05243e-10
-7.94039e-10
-3.15371e-10
-7.18643e-10
-2.95035e-10
-6.19859e-10
-2.57073e-10
-5.2724e-10
-2.09483e-10
-4.49516e-10
-1.57413e-10
-3.87348e-10
-1.03812e-10
-3.38842e-10
-5.01632e-11
-3.01633e-10
2.92447e-12
-2.7359e-10
5.53558e-11
-2.52963e-10
1.07323e-10
-2.38379e-10
1.59165e-10
-2.28798e-10
2.11336e-10
-2.23462e-10
2.64329e-10
-2.21817e-10
3.18639e-10
-2.23468e-10
3.7478e-10
-2.28167e-10
4.33282e-10
-2.35767e-10
4.94685e-10
-2.46211e-10
5.59547e-10
-2.59521e-10
6.2845e-10
-2.75793e-10
7.01998e-10
-2.95196e-10
7.80831e-10
-3.17981e-10
8.6562e-10
-3.44491e-10
9.57069e-10
-3.75185e-10
1.0559e-09
-4.1067e-10
1.16285e-09
-4.51752e-10
1.27858e-09
-4.99491e-10
1.40367e-09
-5.55189e-10
1.53542e-09
-6.38688e-10
1.65365e-09
-8.39084e-10
1.74451e-09
-1.10889e-09
1.80285e-09
-1.39623e-09
1.82516e-09
-1.67221e-09
1.81495e-09
-1.97007e-09
1.77253e-09
-2.25191e-09
1.69129e-09
-2.51131e-09
1.58722e-09
-2.69064e-09
1.47706e-09
-2.81198e-09
1.36369e-09
-2.90073e-09
1.24822e-09
-2.96746e-09
1.13045e-09
-3.00058e-09
1.01021e-09
-3.00925e-09
8.86877e-10
-2.997e-09
7.59531e-10
-2.96334e-09
6.27025e-10
-2.90962e-09
4.88293e-10
-2.83341e-09
3.4285e-10
-2.73535e-09
1.90931e-10
-2.61573e-09
3.35424e-11
-2.47891e-09
-1.28521e-10
-2.33218e-09
-2.92709e-10
-2.16597e-09
-4.5563e-10
-2.002e-09
-6.12864e-10
-1.83349e-09
-7.58414e-10
-1.67772e-09
-8.8328e-10
-1.52216e-09
-9.70928e-10
-1.3826e-09
-9.98002e-10
-1.22838e-09
-9.31004e-10
-1.03674e-09
-7.24359e-10
-7.72328e-10
-3.37654e-10
-4.05826e-10
1.92495e-10
8.45747e-11
8.0992e-10
6.43152e-10
1.42249e-09
1.21616e-09
1.97623e-09
1.73794e-09
2.44256e-09
2.17903e-09
2.81515e-09
2.52376e-09
3.10629e-09
2.77984e-09
3.3335e-09
2.96594e-09
3.51389e-09
3.09502e-09
3.66064e-09
3.18192e-09
3.78361e-09
3.2364e-09
3.88976e-09
3.26556e-09
3.98363e-09
3.27451e-09
4.06819e-09
3.26493e-09
4.14515e-09
3.23814e-09
4.21459e-09
3.18695e-09
4.27762e-09
3.1184e-09
4.33391e-09
3.02884e-09
4.38305e-09
2.90705e-09
4.41936e-09
2.73543e-09
4.44403e-09
2.53691e-09
4.44806e-09
2.25714e-09
4.42981e-09
1.92876e-09
4.37585e-09
1.4734e-09
4.28923e-09
9.67723e-10
4.17168e-09
4.11473e-10
4.03277e-09
-1.85349e-10
3.88413e-09
-7.26762e-10
3.73792e-09
-1.18412e-09
3.59176e-09
-1.59149e-09
3.44737e-09
-1.9016e-09
3.29909e-09
-2.16827e-09
3.14793e-09
-2.36179e-09
2.99276e-09
-2.51247e-09
2.8334e-09
-2.63149e-09
2.67083e-09
-2.71073e-09
2.50507e-09
-2.76631e-09
2.33574e-09
-2.79941e-09
2.16245e-09
-2.81241e-09
1.9848e-09
-2.80698e-09
1.80236e-09
-2.78341e-09
1.61462e-09
-2.74208e-09
1.42118e-09
-2.68235e-09
1.22198e-09
-2.60375e-09
1.01745e-09
-2.5056e-09
8.08753e-10
-2.3901e-09
5.97019e-10
-2.25918e-09
3.84339e-10
-2.11127e-09
1.74521e-10
-1.95007e-09
-3.0181e-11
-1.79363e-09
-2.24641e-10
-1.62336e-09
-4.04028e-10
-1.47233e-09
-5.61465e-10
-1.31745e-09
-6.84481e-10
-1.17766e-09
-7.55252e-10
-1.03289e-09
-7.47396e-10
-8.56171e-10
-6.22806e-10
-6.14925e-10
-3.44111e-10
-2.78268e-10
7.51108e-11
1.8036e-10
5.88032e-10
7.16405e-10
1.1162e-09
1.26999e-09
1.60756e-09
1.78205e-09
2.025e-09
2.20963e-09
2.36404e-09
2.54425e-09
2.63432e-09
2.79495e-09
2.84929e-09
2.97427e-09
3.02265e-09
3.09817e-09
3.16632e-09
3.18016e-09
3.28917e-09
3.23108e-09
3.39747e-09
3.25659e-09
3.49545e-09
3.26159e-09
3.58557e-09
3.2471e-09
3.67028e-09
3.21153e-09
3.75059e-09
3.16054e-09
3.82755e-09
3.08737e-09
3.90157e-09
2.99161e-09
3.96952e-09
2.85821e-09
4.03279e-09
2.69825e-09
4.0891e-09
2.50523e-09
4.1299e-09
2.23173e-09
4.15625e-09
1.93086e-09
4.15445e-09
1.51903e-09
4.12543e-09
1.04302e-09
4.06841e-09
5.11649e-10
3.98857e-09
-7.90538e-11
3.89301e-09
-6.48969e-10
3.79175e-09
-1.13672e-09
3.68192e-09
-1.55377e-09
3.5614e-09
-1.88919e-09
3.42654e-09
-2.14122e-09
3.27613e-09
-2.32666e-09
3.10617e-09
-2.46479e-09
2.91683e-09
-2.54428e-09
2.7048e-09
-2.58206e-09
2.46586e-09
-2.57532e-09
2.19651e-09
-2.52124e-09
1.89767e-09
-2.41333e-09
1.57987e-09
-2.24833e-09
1.26366e-09
-2.0509e-09
9.73732e-10
-1.83373e-09
7.3084e-10
-1.6109e-09
5.1574e-10
-1.5376e-09
3.12669e-10
-1.42892e-09
1.29089e-10
-1.29638e-09
-2.69618e-11
-1.16973e-09
-1.52359e-10
-1.04238e-09
-2.42739e-10
-9.20624e-10
-2.95316e-10
-8.05544e-10
-3.12927e-10
-6.8446e-10
-3.07544e-10
-5.56874e-10
-2.88586e-10
-4.48485e-10
-2.62981e-10
-3.60435e-10
-2.35658e-10
-2.8989e-10
-2.09449e-10
-2.33565e-10
-1.85804e-10
-1.88329e-10
-1.65413e-10
-1.51583e-10
-1.48531e-10
-1.21283e-10
-1.35198e-10
-9.58153e-11
-1.25385e-10
-7.39254e-11
-1.19027e-10
-5.46541e-11
-1.16074e-10
-3.72268e-11
-1.16537e-10
-2.09974e-11
-1.20477e-10
-5.39501e-12
-1.28039e-10
1.0143e-11
-1.39534e-10
2.61986e-11
-1.55328e-10
4.3483e-11
-1.76011e-10
6.28788e-11
-2.02406e-10
8.56309e-11
-2.35648e-10
1.13616e-10
-2.77183e-10
1.49782e-10
-3.28576e-10
1.98963e-10
-3.90759e-10
2.69382e-10
-4.61467e-10
3.74593e-10
-5.27604e-10
5.31879e-10
-5.54711e-10
7.51166e-10
-4.81137e-10
9.92342e-10
-2.5965e-10
1.08052e-09
6.88094e-10
-8.61828e-11
-3.61555e-10
-1.8255e-10
-6.67087e-10
-2.44054e-10
-7.32534e-10
-2.69629e-10
-6.93068e-10
-2.68255e-10
-6.21233e-10
-2.48431e-10
-5.47063e-10
-2.1677e-10
-4.81178e-10
-1.77906e-10
-4.26211e-10
-1.34865e-10
-3.81883e-10
-8.94884e-11
-3.4701e-10
-4.28135e-11
-3.20265e-10
4.65329e-12
-3.0043e-10
5.27557e-11
-2.86482e-10
1.01561e-10
-2.77604e-10
1.51271e-10
-2.73172e-10
2.02175e-10
-2.72721e-10
2.54625e-10
-2.75918e-10
3.09007e-10
-2.82548e-10
3.65735e-10
-2.92495e-10
4.25249e-10
-3.05725e-10
4.88007e-10
-3.2228e-10
5.54489e-10
-3.42275e-10
6.25191e-10
-3.65898e-10
7.00624e-10
-3.93414e-10
7.81308e-10
-4.25175e-10
8.67761e-10
-4.61637e-10
9.60471e-10
-5.03381e-10
1.05986e-09
-5.51143e-10
1.16622e-09
-6.05853e-10
1.27964e-09
-6.68608e-10
1.3974e-09
-7.56441e-10
1.50278e-09
-9.44472e-10
1.58349e-09
-1.1896e-09
1.6342e-09
-1.44695e-09
1.65189e-09
-1.68989e-09
1.6398e-09
-1.95798e-09
1.5991e-09
-2.21121e-09
1.52568e-09
-2.43788e-09
1.43321e-09
-2.59818e-09
1.33499e-09
-2.71376e-09
1.23332e-09
-2.79907e-09
1.12885e-09
-2.86299e-09
1.0219e-09
-2.89364e-09
9.12515e-10
-2.89987e-09
8.0002e-10
-2.88451e-09
6.83454e-10
-2.84677e-09
5.61718e-10
-2.78789e-09
4.34041e-10
-2.70573e-09
3.00295e-10
-2.6016e-09
1.61069e-10
-2.4765e-09
1.75394e-11
-2.33538e-09
-1.29305e-10
-2.18533e-09
-2.76606e-10
-2.01867e-09
-4.22162e-10
-1.85644e-09
-5.63175e-10
-1.69247e-09
-6.97468e-10
-1.54342e-09
-8.20973e-10
-1.39866e-09
-9.28135e-10
-1.27544e-09
-1.00505e-09
-1.15147e-09
-1.02962e-09
-1.01217e-09
-9.71542e-10
-8.30407e-10
-7.84601e-10
-5.92773e-10
-4.54428e-10
-2.45611e-10
8.6271e-12
1.80084e-10
5.49611e-10
6.75168e-10
1.10766e-09
1.1799e-09
1.63334e-09
1.65337e-09
2.09382e-09
2.06332e-09
2.47911e-09
2.39457e-09
2.79315e-09
2.6519e-09
3.04622e-09
2.84195e-09
3.25056e-09
2.97756e-09
3.41751e-09
3.06943e-09
3.5565e-09
3.12655e-09
3.67455e-09
3.15645e-09
3.77659e-09
3.16289e-09
3.86584e-09
3.14889e-09
3.94325e-09
3.10955e-09
4.0107e-09
3.05096e-09
4.06845e-09
2.97109e-09
4.1162e-09
2.8593e-09
4.14881e-09
2.70282e-09
4.16802e-09
2.5177e-09
4.16588e-09
2.25928e-09
4.14248e-09
1.95216e-09
4.08724e-09
1.52865e-09
4.00575e-09
1.04921e-09
3.90115e-09
5.16072e-10
3.78065e-09
-6.48538e-11
3.65139e-09
-5.97506e-10
3.52081e-09
-1.05353e-09
3.38503e-09
-1.45571e-09
3.24619e-09
-1.76276e-09
3.10061e-09
-2.02269e-09
2.95078e-09
-2.21196e-09
2.79658e-09
-2.35827e-09
2.63824e-09
-2.47315e-09
2.47691e-09
-2.5494e-09
2.31274e-09
-2.60214e-09
2.1456e-09
-2.63226e-09
1.97532e-09
-2.64213e-09
1.8017e-09
-2.63336e-09
1.62453e-09
-2.60624e-09
1.44351e-09
-2.56106e-09
1.25851e-09
-2.49735e-09
1.06968e-09
-2.41492e-09
8.77643e-10
-2.31356e-09
6.83601e-10
-2.19606e-09
4.88708e-10
-2.06428e-09
2.95296e-10
-1.91786e-09
1.06467e-10
-1.76124e-09
-7.65102e-11
-1.61066e-09
-2.49386e-10
-1.45048e-09
-4.11114e-10
-1.31061e-09
-5.58043e-10
-1.17053e-09
-6.85778e-10
-1.04993e-09
-7.84836e-10
-9.33829e-10
-8.38461e-10
-8.02545e-10
-8.2162e-10
-6.31766e-10
-6.9488e-10
-4.05008e-10
-4.41194e-10
-7.33289e-11
-6.58339e-11
3.4104e-10
3.85546e-10
8.18609e-10
8.62999e-10
1.3046e-09
1.31481e-09
1.75783e-09
1.71498e-09
2.14409e-09
2.05458e-09
2.45536e-09
2.33527e-09
2.69358e-09
2.56505e-09
2.86839e-09
2.7542e-09
2.99101e-09
2.91232e-09
3.07296e-09
3.04712e-09
3.12178e-09
3.16448e-09
3.14423e-09
3.26822e-09
3.14336e-09
3.36158e-09
3.11817e-09
3.44657e-09
3.07554e-09
3.52464e-09
3.00931e-09
3.59661e-09
2.91965e-09
3.6598e-09
2.79503e-09
3.71599e-09
2.64206e-09
3.76391e-09
2.45731e-09
3.79632e-09
2.19932e-09
3.81642e-09
1.91075e-09
3.8139e-09
1.52155e-09
3.79216e-09
1.06476e-09
3.75141e-09
5.52402e-10
3.69345e-09
-2.11015e-11
3.6193e-09
-5.74819e-10
3.533e-09
-1.05042e-09
3.4299e-09
-1.45066e-09
3.3087e-09
-1.76799e-09
3.16812e-09
-2.00064e-09
3.0087e-09
-2.16725e-09
2.82789e-09
-2.28398e-09
2.62642e-09
-2.34282e-09
2.4024e-09
-2.35804e-09
2.15458e-09
-2.3275e-09
1.88426e-09
-2.25092e-09
1.59812e-09
-2.12719e-09
1.31091e-09
-1.9611e-09
1.04047e-09
-1.78044e-09
8.01315e-10
-1.59457e-09
6.01239e-10
-1.41083e-09
4.17599e-10
-1.35397e-09
2.46692e-10
-1.25803e-09
9.56007e-11
-1.14529e-09
-3.2515e-11
-1.04162e-09
-1.36857e-10
-9.38035e-10
-2.16521e-10
-8.40958e-10
-2.71825e-10
-7.5024e-10
-3.03577e-10
-6.52707e-10
-3.15227e-10
-5.45224e-10
-3.13026e-10
-4.50686e-10
-3.02734e-10
-3.70727e-10
-2.88359e-10
-3.04265e-10
-2.72648e-10
-2.49276e-10
-2.57337e-10
-2.0364e-10
-2.4349e-10
-1.65431e-10
-2.31741e-10
-1.33032e-10
-2.2244e-10
-1.05116e-10
-2.15773e-10
-8.05924e-11
-2.11854e-10
-5.85732e-11
-2.10772e-10
-3.83088e-11
-2.12628e-10
-1.91422e-11