/*--------------------------------*- C++ -*----------------------------------*\
| =========                 |                                                 |
| \\      /  F ield         | OpenFOAM: The Open Source CFD Toolbox           |
|  \\    /   O peration     | Version:  2506                                  |
|   \\  /    A nd           | Website:  www.openfoam.com                      |
|    \\/     M anipulation  |                                                 |
\*---------------------------------------------------------------------------*/
FoamFile
{
    version     2.0;
    format      ascii;
    arch        "LSB;label=32;scalar=64";
    class       volVectorField;
    location    "0.15";
    object      vorticityField;
}
// * * * * * * * * * * * * * * * * * * * * * * * * * * * * * * * * * * * * * //

dimensions      [0 0 -1 0 0 0 0];

internalField   nonuniform List<vector> 
4000
(
(5.86569e-19 2.45398e-19 50.7432)
(2.19263e-20 1.0461e-19 55.4505)
(2.7593e-19 8.00231e-19 48.1882)
(3.3404e-19 1.08518e-18 41.1899)
(-1.00392e-19 1.24544e-18 36.7853)
(6.90854e-20 1.30281e-20 33.942)
(1.02037e-19 1.40569e-18 31.8944)
(5.04526e-20 1.4519e-18 30.3739)
(2.44416e-20 -4.70051e-21 29.2218)
(1.59874e-20 3.74868e-19 28.3139)
(-2.17211e-19 3.42263e-17 27.5697)
(1.37258e-18 -6.68109e-17 26.9394)
(-1.00043e-18 3.20072e-17 26.3897)
(1.3192e-18 -3.33389e-17 25.8968)
(-2.10493e-18 3.39713e-17 25.4435)
(1.84828e-18 1.82115e-18 25.0168)
(-1.55881e-18 3.25613e-17 24.6062)
(2.14607e-18 -3.39916e-17 24.2034)
(1.39944e-18 2.4018e-18 23.8009)
(-2.22997e-18 -6.6203e-20 23.3923)
(1.74453e-19 -7.21514e-20 22.9713)
(3.17432e-18 -1.68357e-18 22.5318)
(-3.01331e-18 -1.56719e-18 22.0676)
(-3.21921e-18 -2.56411e-20 21.5721)
(3.36864e-18 -1.73128e-18 21.038)
(1.85502e-19 -1.5722e-18 20.4572)
(4.04344e-18 1.13273e-19 19.8196)
(-5.5779e-19 3.84856e-18 19.1143)
(-1.19135e-17 6.33444e-17 18.3299)
(4.07396e-18 -7.26323e-17 17.3996)
(5.35231e-18 -4.68519e-18 16.2077)
(1.03101e-17 -1.3105e-16 15.4207)
(5.98788e-18 1.8859e-16 15.5734)
(5.15731e-17 -1.09015e-16 16.6136)
(3.36578e-17 -7.58289e-17 18.3298)
(3.85238e-17 1.13086e-15 20.8316)
(8.45975e-17 -2.40949e-16 23.5196)
(-8.7813e-17 -1.82261e-16 28.4907)
(9.78206e-20 3.03309e-17 36.5176)
(6.34809e-17 6.58904e-17 44.8757)
(-3.91114e-17 8.09827e-18 52.7544)
(2.32332e-16 7.33785e-16 59.9254)
(1.94209e-18 -1.09862e-17 66.5506)
(5.46719e-16 4.1342e-16 72.8234)
(-2.51811e-16 -2.00668e-16 78.8108)
(-4.98969e-18 5.64735e-16 84.5385)
(-1.23978e-17 -6.64553e-17 89.804)
(2.21697e-17 -5.5962e-16 94.672)
(-4.30104e-16 -1.65742e-16 99.0847)
(-3.51977e-16 -1.06252e-16 103.039)
(9.94648e-18 2.32539e-17 106.355)
(-1.16686e-18 -1.64611e-18 108.106)
(-4.73148e-17 -1.15351e-17 109.019)
(9.13759e-19 5.27654e-16 107.762)
(-2.41492e-16 4.89821e-16 104.133)
(1.47265e-17 -4.80518e-16 96.78)
(-9.79725e-17 -5.16975e-17 86.488)
(2.29427e-17 2.18861e-17 72.838)
(-2.41355e-18 4.97046e-18 56.4309)
(1.46068e-18 -4.56213e-17 39.9798)
(9.83934e-18 -1.32414e-16 25.7507)
(6.10258e-17 4.31415e-17 15.3998)
(6.47858e-17 5.52472e-16 8.75419)
(1.78071e-17 -5.41233e-16 4.87679)
(-2.80356e-19 -2.46803e-17 2.64082)
(3.99468e-18 -3.49541e-18 1.47392)
(-4.41527e-19 3.96872e-18 0.835771)
(-9.50569e-18 -1.62422e-17 0.460376)
(7.31978e-18 -1.1489e-15 0.229885)
(-4.56379e-17 -6.21921e-16 0.0703018)
(1.48209e-18 -5.38799e-17 -0.0500941)
(4.70069e-17 4.95892e-16 -0.144128)
(-1.12802e-18 -4.86979e-16 -0.221012)
(2.43195e-17 -1.49633e-16 -0.281392)
(1.72941e-17 5.58847e-16 -0.327853)
(-1.85509e-17 -4.04966e-16 -0.363578)
(-3.51795e-17 -4.82063e-16 -0.388731)
(1.03063e-18 -5.24079e-16 -0.403622)
(1.54532e-18 -2.10166e-17 -0.408344)
(1.32015e-17 -1.27552e-17 -0.404543)
(-1.12078e-17 1.05223e-17 -0.39203)
(9.85736e-18 3.84554e-16 -0.369709)
(-3.48033e-19 2.09048e-17 -0.336836)
(-7.01542e-18 -3.48786e-16 -0.2934)
(3.33271e-21 3.18524e-16 -0.235096)
(4.15971e-20 6.09598e-18 -0.149189)
(-8.63415e-20 4.41326e-20 -0.00555022)
(6.47119e-20 1.69747e-17 0.234143)
(-1.37091e-19 5.5882e-17 0.634914)
(-1.29377e-18 -1.35859e-16 1.25506)
(3.03648e-19 1.13738e-18 2.13162)
(4.39954e-18 -2.57479e-17 3.38305)
(-7.19012e-18 -2.67721e-17 5.09887)
(8.36403e-18 2.02645e-17 7.42843)
(-2.0668e-17 4.19136e-16 10.5027)
(5.69763e-17 3.67768e-16 14.3063)
(-2.54962e-17 4.18471e-16 18.7157)
(-7.04642e-18 1.21166e-17 23.4746)
(1.2005e-16 3.8605e-16 28.5826)
(1.4992e-16 3.64293e-16 33.9959)
(-2.17526e-18 -5.1978e-18 39.6956)
(-2.89696e-17 5.68868e-16 45.6647)
(2.0273e-16 8.83646e-16 51.8332)
(1.03455e-17 -8.27681e-18 58.1513)
(2.53106e-16 3.04191e-16 64.5632)
(-1.04283e-18 -3.60565e-17 70.9952)
(-3.2862e-16 -3.11831e-16 77.381)
(-3.21839e-16 -2.34685e-16 83.466)
(-2.83356e-17 -1.12816e-17 88.853)
(-7.49559e-18 -1.21924e-17 93.6677)
(-3.3132e-16 -1.452e-16 97.944)
(3.11419e-16 1.21909e-16 99.478)
(-7.00271e-19 -8.7836e-18 99.831)
(2.30727e-16 5.95123e-16 95.9427)
(-3.53778e-18 2.38257e-16 88.8368)
(7.26574e-17 3.09837e-16 77.8608)
(-8.89459e-19 5.56402e-18 63.016)
(-2.08053e-18 1.20729e-16 46.6594)
(-1.46659e-18 -9.29591e-18 31.1931)
(7.94074e-19 -2.65746e-18 18.8832)
(1.57534e-18 4.04215e-17 10.9226)
(2.02809e-17 -5.52812e-16 6.17476)
(3.19983e-17 5.16972e-16 3.5194)
(-1.17196e-18 3.88403e-17 2.0679)
(-6.71358e-18 5.93047e-16 1.2517)
(-1.91193e-17 -1.09286e-15 0.796815)
(5.23217e-17 4.60765e-16 0.511896)
(3.18524e-17 -6.16078e-16 0.311383)
(5.41647e-17 -6.29296e-17 0.166871)
(2.21304e-18 -5.29208e-16 0.059332)
(-9.29557e-19 -5.46531e-17 -0.0245494)
(4.23974e-17 4.97747e-16 -0.0914631)
(-4.44682e-17 -1.64938e-17 -0.144764)
(2.52127e-17 5.44828e-16 -0.188211)
(1.52313e-17 1.21852e-17 -0.220543)
(2.04196e-18 1.93605e-17 -0.242711)
(-1.66746e-17 -4.60245e-16 -0.256104)
(1.05451e-17 4.0966e-16 -0.260045)
(-1.09692e-18 1.89294e-17 -0.255386)
(-9.17119e-18 -5.72207e-18 -0.239815)
(7.72798e-18 3.7119e-16 -0.215509)
(-1.4531e-18 -8.61434e-17 -0.181975)
(1.08094e-17 4.11178e-16 -0.130125)
(-1.02793e-18 1.34277e-17 -0.0559845)
(4.16013e-19 -2.2701e-16 0.0600907)
(-1.4008e-18 -1.53896e-16 0.251015)
(-2.33989e-19 1.12566e-16 0.581108)
(3.71081e-19 -7.82357e-17 1.1179)
(-1.4946e-18 1.01752e-18 1.91831)
(1.65506e-19 8.38495e-17 3.04826)
(9.87239e-20 -1.79334e-17 4.67819)
(1.33701e-18 -5.76647e-16 6.93235)
(5.9186e-18 1.08939e-16 9.95379)
(-7.7007e-17 7.08235e-17 14.04)
(-3.36944e-17 3.74933e-16 18.8259)
(1.60362e-17 8.55445e-17 24.2078)
(2.29471e-18 -1.17776e-18 30.1255)
(1.6629e-17 1.82573e-17 36.6644)
(-9.78372e-18 -4.09924e-17 43.8076)
(-2.19006e-16 -9.46828e-16 51.87)
(7.10009e-17 1.42884e-16 61.3696)
(3.11028e-16 3.1606e-16 72.2241)
(-9.41042e-17 5.49103e-16 87.4047)
(-4.85805e-18 -2.69545e-17 83.6648)
(2.73011e-17 -5.05659e-16 83.7362)
(-1.43468e-16 -5.25331e-16 82.589)
(-4.80779e-18 2.00427e-17 79.8148)
(-3.20331e-17 -3.67455e-17 74.8843)
(-2.66639e-17 -2.13281e-16 67.3883)
(-1.27401e-17 -4.09792e-17 57.5821)
(1.74488e-18 1.42182e-18 47.577)
(-7.39893e-20 -7.24261e-19 40.6331)
(1.08831e-18 5.84529e-21 36.4028)
(-1.07692e-18 -8.52245e-19 33.7573)
(-1.36153e-19 -1.42583e-18 31.9593)
(-1.88561e-19 -7.82475e-17 30.6842)
(-3.60587e-19 7.93771e-17 29.757)
(2.52145e-20 3.8438e-17 29.0649)
(5.88263e-19 -4.00632e-17 28.5378)
(3.55971e-20 3.81362e-17 28.1322)
(2.13825e-19 -7.92632e-17 27.8196)
(-1.94609e-19 3.8594e-17 27.5805)
(-3.47322e-19 -2.18062e-19 27.4014)
(3.3987e-19 -9.14816e-19 27.2732)
(-1.94624e-20 6.81999e-19 27.1897)
(6.51676e-19 -3.92769e-17 27.147)
(-6.77559e-19 3.7525e-17 27.1427)
(7.39913e-19 -3.81894e-17 27.1763)
(-7.54287e-19 3.72968e-17 27.2497)
(3.95671e-19 -1.98939e-17 27.3676)
(-4.21116e-19 1.81013e-17 27.5389)
(2.58169e-20 -1.02977e-18 27.7783)
(-3.46408e-20 -8.49405e-19 28.1159)
(-3.62099e-19 -5.12086e-21 28.6149)
(4.18193e-19 -8.43508e-19 29.4121)
(-4.57808e-20 -1.09431e-18 30.8176)
(6.09572e-19 -8.40837e-18 33.5648)
(-5.54074e-19 8.95162e-18 39.4755)
(-4.71705e-21 -4.70993e-19 50.0022)
(1.40895e-19 -1.50626e-19 46.7966)
(-2.21608e-20 -3.46283e-19 -3.01128)
(4.09172e-19 -2.34276e-19 16.465)
(-2.26278e-19 -9.17682e-19 21.0713)
(1.48574e-18 1.51424e-18 22.2664)
(-2.54102e-18 -8.44683e-18 22.4111)
(4.77123e-19 -1.09901e-18 22.0385)
(7.97237e-19 4.65479e-18 21.4917)
(-2.41194e-19 -2.53479e-18 20.9501)
(-1.78155e-19 -1.21789e-18 20.4579)
(-2.38477e-19 -1.33119e-18 20.0138)
(2.75801e-19 -3.41582e-18 19.6084)
(-1.59606e-18 -1.72054e-17 19.2331)
(1.5393e-18 1.77641e-17 18.8798)
(-2.62847e-18 -1.61769e-17 18.5419)
(1.92646e-18 3.14906e-17 18.2137)
(-1.63426e-18 -3.8402e-17 17.8908)
(1.61897e-18 1.63543e-17 17.5692)
(-1.39756e-18 -2.17538e-17 17.2455)
(-3.28832e-18 -1.85209e-17 16.9166)
(2.67537e-18 3.56438e-17 16.5797)
(3.17158e-19 -6.83939e-18 16.2319)
(-1.70088e-18 -3.49492e-17 15.8705)
(3.16839e-18 4.53403e-17 15.4926)
(-2.06225e-18 3.10758e-17 15.0951)
(-4.17172e-18 -4.05195e-17 14.6747)
(2.9214e-18 -1.16875e-18 14.2276)
(3.08996e-18 -4.16277e-17 13.7491)
(-5.65557e-18 1.33027e-17 13.2341)
(6.46591e-18 8.73448e-17 12.6761)
(-1.80814e-18 -9.47237e-18 12.0611)
(-7.59841e-19 -5.07303e-17 11.2894)
(-1.03366e-17 -5.84103e-17 10.081)
(-1.47195e-17 -1.78317e-16 8.48363)
(-5.9007e-17 -3.29496e-16 6.61749)
(-1.64985e-17 -2.09728e-16 4.60116)
(3.25467e-17 -1.90421e-16 2.63401)
(5.22783e-17 8.45293e-17 1.04359)
(6.80227e-17 1.62685e-16 -0.476498)
(-5.32645e-17 -1.14354e-16 -1.90384)
(-1.30583e-16 -1.90834e-16 -2.81515)
(-2.59033e-16 -3.02588e-16 -3.23717)
(-2.15563e-16 -1.82213e-16 -3.32622)
(2.13473e-17 -1.38155e-18 -3.1785)
(-5.70199e-16 -4.04182e-16 -2.84617)
(3.13613e-16 2.40606e-16 -2.3605)
(-3.7837e-16 -2.29071e-16 -1.75652)
(4.32472e-16 2.74315e-16 -1.03474)
(-4.5317e-18 -2.67438e-17 -0.190267)
(-7.91019e-18 1.69565e-17 0.792218)
(3.86549e-16 1.21216e-16 1.94982)
(-4.36678e-16 -1.19077e-16 3.3557)
(4.79319e-17 2.77177e-17 5.27092)
(4.02873e-16 3.01507e-17 7.78785)
(-7.8684e-17 -6.16369e-18 11.3189)
(3.20135e-16 3.64656e-17 15.9653)
(2.42115e-18 -3.42495e-18 21.8194)
(1.00518e-16 3.31344e-17 27.9717)
(-4.46875e-17 -1.8493e-17 33.8471)
(-2.98555e-18 -7.23321e-18 37.8313)
(5.32055e-18 1.46434e-17 38.103)
(1.04404e-17 1.32051e-16 34.2446)
(-2.22597e-17 3.82591e-16 27.3608)
(-7.88323e-17 4.48145e-16 20.1878)
(-3.10415e-17 6.02199e-16 14.5188)
(3.11937e-17 -6.94376e-17 10.2916)
(-3.30125e-17 9.59192e-17 7.41669)
(-4.98669e-19 4.12207e-18 5.51198)
(1.02601e-17 -7.06149e-17 4.23189)
(-2.60395e-17 1.25391e-15 3.36934)
(8.21694e-17 -6.10494e-16 2.76645)
(5.82087e-18 -1.4608e-16 2.32581)
(-4.64452e-17 7.51338e-16 1.98512)
(1.05694e-17 4.88539e-16 1.71899)
(1.8392e-17 6.46569e-16 1.5085)
(-4.58925e-17 7.12308e-17 1.33637)
(-1.89673e-18 -7.9738e-18 1.19532)
(5.38806e-17 -6.55807e-16 1.08031)
(1.60335e-17 4.55792e-16 0.989513)
(-9.68104e-19 3.4288e-17 0.92253)
(-2.59298e-17 5.02591e-16 0.874781)
(2.28176e-17 -4.41579e-16 0.845837)
(-9.31443e-18 -7.61014e-18 0.842173)
(-4.20916e-20 2.80263e-20 0.868288)
(6.79036e-18 2.74503e-18 0.92849)
(2.12019e-18 -3.45219e-16 1.0371)
(1.10128e-19 3.78204e-18 1.21121)
(-4.02387e-19 -1.89397e-17 1.46829)
(-5.92849e-20 1.97157e-17 1.79925)
(5.82742e-19 -1.49271e-17 2.1132)
(-1.0301e-18 3.222e-16 2.29114)
(3.51589e-19 -2.21202e-17 2.25298)
(1.13365e-17 1.5742e-17 1.96849)
(2.03608e-17 3.12593e-16 1.49026)
(-4.50585e-17 -3.60437e-16 0.925212)
(5.35557e-17 3.67065e-16 0.37485)
(-3.49258e-17 -3.42784e-16 -0.01386)
(1.12356e-16 4.06864e-16 -0.240083)
(1.19247e-16 3.49444e-16 -0.34398)
(-1.11072e-16 -4.02853e-16 -0.325513)
(-1.4382e-16 -3.50652e-16 -0.185572)
(-4.00293e-19 3.63782e-17 0.0800684)
(2.33491e-16 3.57078e-16 0.471479)
(-1.91455e-16 -3.40316e-16 0.98217)
(-4.28227e-18 1.34939e-17 1.60904)
(2.80824e-17 -1.62153e-17 2.34824)
(1.02018e-18 3.15939e-17 3.19905)
(6.46309e-16 5.57765e-16 4.156)
(6.83387e-16 4.49333e-16 5.21832)
(3.42657e-16 1.44613e-16 6.53111)
(3.3014e-16 1.20422e-16 8.03442)
(3.21765e-16 1.29759e-16 9.66663)
(-6.41061e-16 -1.68022e-16 12.0648)
(1.94331e-17 1.23858e-17 15.3894)
(-2.56545e-16 -7.93466e-17 19.7763)
(2.21629e-17 1.42844e-18 24.9994)
(-7.58953e-17 -5.08842e-17 30.5026)
(-7.16628e-18 -1.73698e-18 35.14)
(-9.40389e-18 -1.28152e-17 37.2135)
(1.0502e-18 -1.44571e-17 35.4519)
(-1.69684e-18 8.21876e-18 29.7762)
(3.49594e-19 -2.83676e-17 22.6345)
(1.27223e-17 4.86154e-16 16.3813)
(-3.14825e-17 7.27856e-17 11.7025)
(9.08232e-19 -1.89653e-17 8.4884)
(-5.5924e-17 -5.13012e-16 6.3314)
(7.97768e-17 4.28236e-16 4.92074)
(-1.03087e-16 6.11846e-16 3.96415)
(-1.93391e-17 1.10226e-15 3.28164)
(-1.51757e-17 1.16321e-15 2.78077)
(2.53363e-18 5.47443e-16 2.4033)
(2.27768e-18 6.52244e-17 2.10821)
(-4.54678e-17 6.34877e-16 1.872)
(7.23488e-18 -1.02484e-15 1.67865)
(-2.6938e-17 8.36239e-17 1.5207)
(-7.07809e-18 3.73737e-16 1.39366)
(5.63147e-18 1.17319e-17 1.29027)
(1.05787e-18 -1.26596e-19 1.2075)
(-4.27543e-17 3.52689e-17 1.14378)
(9.77962e-19 -9.53496e-17 1.10279)
(1.3644e-17 -3.01142e-16 1.08746)
(-2.54672e-19 -1.03422e-16 1.09464)
(-7.65298e-19 -5.5048e-18 1.13636)
(-1.64309e-17 1.7097e-16 1.21962)
(-1.91406e-18 -1.57752e-16 1.35489)
(3.86342e-18 2.25725e-16 1.56647)
(1.84216e-18 3.26858e-18 1.86244)
(-8.7257e-19 7.28594e-17 2.19107)
(2.03491e-18 -7.38608e-17 2.42657)
(6.18253e-19 1.49699e-16 2.46724)
(7.54913e-18 2.00717e-18 2.30381)
(-2.77853e-18 -1.73656e-18 1.94764)
(-9.08315e-18 -6.70867e-18 1.51546)
(1.27903e-17 3.51806e-17 1.07874)
(1.60237e-16 8.32721e-16 0.773425)
(6.20334e-17 1.62388e-16 0.670825)
(2.68853e-17 8.59094e-17 0.76451)
(-3.01045e-17 -1.05605e-16 1.04851)
(-2.98403e-16 -5.33031e-16 1.5592)
(1.1023e-16 1.93889e-16 2.35269)
(1.96161e-16 3.40542e-16 3.51596)
(-1.91091e-17 -2.57982e-17 5.18922)
(-2.11659e-16 -2.28248e-16 7.28426)
(9.11282e-17 6.39929e-17 8.01815)
(-1.74579e-17 -3.78041e-17 6.93467)
(-3.07721e-16 -9.18521e-17 8.33755)
(1.81902e-16 9.67438e-17 10.9151)
(-2.60813e-18 -1.10806e-17 14.4947)
(1.87302e-18 2.30269e-18 18.4036)
(8.88065e-18 4.74354e-17 22.1165)
(1.21075e-17 1.04706e-17 25.0114)
(-1.32797e-17 -1.4086e-17 26.3801)
(1.40866e-18 1.02718e-18 26.3729)
(-3.965e-18 -3.04269e-17 25.8223)
(4.09775e-18 3.23496e-17 25.133)
(1.50031e-19 1.38446e-18 24.4813)
(1.3925e-18 3.83447e-17 23.9299)
(2.32087e-19 -6.30808e-19 23.4782)
(-1.14518e-18 -1.98362e-17 23.1087)
(-5.9879e-19 -1.78113e-17 22.8052)
(-2.11651e-19 -1.8741e-17 22.5551)
(2.68886e-20 2.0417e-17 22.3487)
(2.29295e-19 5.50902e-20 22.179)
(4.78402e-20 2.00663e-17 22.0406)
(-1.38566e-19 -2.04911e-17 21.9299)
(-3.44088e-20 -9.19006e-19 21.8444)
(1.46885e-19 -1.79356e-17 21.7826)
(-9.51335e-20 2.17144e-17 21.7439)
(1.75177e-19 -1.96537e-17 21.7292)
(-6.20929e-19 2.15476e-17 21.7413)
(5.91722e-19 -8.01278e-18 21.7844)
(-1.37695e-19 1.0585e-17 21.8656)
(-1.13629e-19 -6.50724e-20 21.9984)
(2.28541e-21 1.93577e-18 22.2098)
(-3.11619e-19 8.21037e-18 22.5542)
(1.71038e-19 -8.61229e-18 23.1437)
(-1.08833e-19 1.72737e-18 24.192)
(-4.36278e-19 5.21466e-19 25.991)
(9.02328e-19 -9.1579e-19 28.2356)
(2.31734e-19 4.62659e-19 25.7758)
(-1.03164e-18 -7.67547e-20 -3.50011)
(-6.66726e-20 1.78861e-19 -11.255)
(-2.45569e-18 4.84635e-19 2.22906)
(1.20672e-18 -5.59711e-19 7.30508)
(4.88995e-19 -3.06956e-19 9.34529)
(-1.08963e-18 9.22103e-20 10.301)
(1.52093e-18 1.04152e-18 10.6691)
(-1.63172e-18 -1.01617e-18 10.7498)
(1.54075e-19 1.07606e-18 10.6998)
(1.24587e-19 1.30127e-18 10.5861)
(5.88887e-19 2.08705e-18 10.4382)
(2.27627e-20 1.43074e-18 10.2712)
(-1.57038e-19 1.81482e-18 10.0934)
(-3.58418e-19 -5.88236e-18 9.90875)
(1.34274e-18 1.6108e-17 9.71894)
(7.86154e-19 -6.50027e-18 9.52457)
(-1.13249e-18 1.01051e-17 9.32607)
(6.91015e-19 -5.72693e-18 9.12312)
(1.98416e-19 6.49778e-18 8.91527)
(-3.39858e-18 1.84209e-17 8.70192)
(3.56935e-18 -1.97806e-17 8.48237)
(-3.97473e-19 4.52408e-18 8.25586)
(-5.08832e-18 6.69332e-19 8.02156)
(3.9774e-18 -2.02169e-17 7.77853)
(4.68462e-18 3.18127e-17 7.52573)
(-3.13329e-19 1.91886e-17 7.26191)
(3.18346e-18 -2.80501e-17 6.98559)
(-1.14856e-17 -2.17514e-17 6.695)
(1.93001e-18 2.99991e-17 6.38811)
(4.76804e-18 -3.724e-18 6.06268)
(4.79452e-18 5.97193e-20 5.71404)
(-9.34148e-18 -2.26544e-19 5.28004)
(1.1773e-18 1.9623e-17 4.56942)
(2.36673e-17 1.84296e-16 3.59365)
(3.3717e-17 1.58327e-16 2.53275)
(-8.71625e-17 -2.39843e-16 1.566)
(1.24092e-17 1.82762e-17 0.82027)
(-9.12612e-17 -2.49114e-16 0.302093)
(3.92604e-17 1.15524e-16 -0.0117723)
(1.59002e-16 2.06104e-16 -0.217893)
(-5.6901e-17 -2.61746e-17 -0.316564)
(4.08191e-16 4.61719e-16 -0.341729)
(-4.34395e-18 -8.49054e-17 -0.334255)
(-3.04179e-16 -2.84557e-16 -0.301101)
(-3.52291e-16 -2.51588e-16 -0.241299)
(5.04616e-17 7.8355e-17 -0.155496)
(2.42316e-16 1.02962e-16 -0.0426137)
(-6.47724e-16 -3.5446e-16 0.10531)
(-3.51265e-16 -1.35408e-16 0.293688)
(-9.70421e-17 -1.54519e-17 0.536624)
(1.13704e-17 2.08402e-17 0.858087)
(7.76674e-17 7.13862e-18 1.30481)
(-9.07727e-17 -1.50541e-17 1.95894)
(-1.08304e-18 -1.60809e-18 2.88124)
(1.82874e-18 2.03436e-18 4.24393)
(3.28398e-16 -5.31153e-17 6.17265)
(-1.24316e-16 4.60527e-17 8.80621)
(-1.33036e-16 5.14626e-17 12.1575)
(6.31452e-17 -4.28307e-17 16.3129)
(9.0693e-18 3.52399e-18 21.3738)
(-1.79567e-19 -2.50873e-18 26.5102)
(-3.2292e-17 2.8115e-17 30.1142)
(-3.34004e-17 1.31695e-18 30.4202)
(-1.11992e-16 -5.40577e-17 27.3919)
(9.72529e-17 -3.91435e-16 22.9499)
(-1.38474e-16 4.41581e-16 18.3988)
(5.59897e-17 -4.24653e-16 14.4617)
(3.78936e-17 -6.22937e-17 11.3559)
(-3.00253e-18 6.132e-17 9.04186)
(3.60803e-17 -1.18232e-15 7.37391)
(-4.92497e-17 1.0967e-15 6.1623)
(-2.47285e-17 1.08239e-16 5.26018)
(-2.2947e-17 -4.75862e-16 4.56923)
(-5.41655e-17 -2.35871e-17 4.02989)
(-6.22908e-17 5.45819e-16 3.59835)
(1.12451e-18 -5.3011e-16 3.24609)
(5.41009e-17 -5.93679e-16 2.95451)
(-1.57863e-17 1.01679e-15 2.71412)
(-1.56042e-17 3.08107e-17 2.5142)
(-1.44279e-17 1.52616e-17 2.3561)
(1.13614e-17 -8.72796e-16 2.23194)
(-9.31577e-18 7.95644e-16 2.1437)
(8.43134e-18 3.37068e-17 2.08708)
(-7.72539e-18 5.63844e-18 2.08058)
(2.26632e-19 -1.75865e-17 2.10878)
(3.45274e-18 3.32513e-16 2.19512)
(-3.09828e-19 6.77308e-18 2.31643)
(3.10896e-18 -7.28218e-17 2.45874)
(-5.25431e-20 -1.92741e-18 2.54281)
(1.48053e-18 -5.51637e-17 2.47994)
(7.82721e-18 -2.87792e-16 2.21588)
(9.84085e-19 -2.87231e-17 1.78051)
(-1.37279e-17 -6.15084e-16 1.26132)
(-1.44377e-17 -2.83645e-16 0.779861)
(5.3456e-17 6.50516e-16 0.406813)
(1.7163e-17 -2.45551e-17 0.16376)
(-8.59743e-17 -3.96328e-16 0.0360207)
(-1.64345e-16 -6.85037e-16 -0.0124838)
(-9.07269e-17 -3.11499e-16 -0.0180063)
(-2.65212e-17 7.05787e-18 0.00678629)
(1.65993e-16 3.42963e-16 0.0565055)
(1.46662e-19 -3.64569e-17 0.131897)
(-1.86668e-16 -3.22383e-16 0.235119)
(-1.08946e-17 2.37984e-17 0.367935)
(2.6445e-16 2.73618e-16 0.533955)
(-2.78164e-16 -3.06597e-16 0.737819)
(-8.73788e-19 -1.08198e-17 0.985581)
(-6.10034e-16 -4.26172e-16 1.28245)
(-2.97703e-16 -1.42469e-16 1.64057)
(1.08911e-17 -1.05421e-17 2.06534)
(-3.34162e-16 -1.1919e-16 2.76585)
(7.56309e-18 1.54147e-17 3.62889)
(3.07953e-16 4.1982e-17 4.69894)
(3.11707e-19 3.3196e-18 6.26856)
(-2.50469e-16 5.57509e-17 8.45992)
(1.75755e-17 -7.03245e-18 11.3634)
(7.57242e-18 1.76371e-18 15.0062)
(1.60434e-18 -5.33137e-18 19.4206)
(1.96036e-17 1.15423e-17 24.155)
(1.49718e-18 6.04658e-18 28.3151)
(1.40489e-19 -7.39813e-18 29.9889)
(-3.04292e-18 1.52861e-17 28.1367)
(-3.19933e-17 1.43427e-17 24.1131)
(-3.64701e-17 2.54153e-17 19.5832)
(3.40257e-18 2.9707e-17 15.5492)
(1.27734e-16 -5.84941e-16 12.3016)
(-1.21578e-16 6.4918e-16 9.88147)
(7.33474e-17 -1.03788e-15 8.12749)
(-4.34678e-17 -5.56822e-16 6.84011)
(-9.98318e-17 1.68364e-17 5.87865)
(2.84858e-17 -4.9501e-16 5.14538)
(-2.03736e-17 8.83772e-17 4.57095)
(6.95573e-18 -5.17891e-16 4.10936)
(5.58836e-17 -1.81336e-16 3.73213)
(-7.03713e-18 6.25687e-18 3.4209)
(-2.40739e-17 -6.63778e-17 3.16274)
(1.03734e-17 1.19064e-16 2.94874)
(2.33996e-17 -4.03558e-16 2.77124)
(2.88525e-17 -8.79117e-16 2.63012)
(3.75199e-19 -4.98997e-17 2.52075)
(-8.71856e-18 3.79296e-16 2.45033)
(-2.53347e-17 4.74445e-16 2.41706)
(-4.89339e-18 -6.31439e-17 2.41663)
(5.53696e-19 -2.48277e-16 2.46907)
(5.77548e-18 -1.62479e-16 2.5517)
(-9.14771e-18 1.41927e-16 2.66076)
(8.24937e-21 3.93152e-17 2.73212)
(1.15731e-18 2.30751e-19 2.67098)
(3.33095e-18 -2.11488e-16 2.41624)
(2.22014e-18 -1.54737e-16 1.98377)
(-1.21104e-17 -3.58397e-16 1.46016)
(2.93496e-18 1.564e-16 0.961629)
(-6.94989e-18 -9.54573e-17 0.567453)
(-5.83318e-17 -3.42481e-16 0.301888)
(-1.29601e-16 -6.63592e-16 0.176241)
(-7.42045e-17 -3.13103e-16 0.143044)
(-5.72852e-18 -6.48663e-18 0.186093)
(-1.63811e-16 -2.90666e-16 0.291369)
(4.85642e-16 9.31863e-16 0.474964)
(6.79415e-17 1.01764e-17 0.765438)
(-1.78877e-18 8.77693e-18 1.2065)
(2.82982e-16 2.33422e-16 1.85635)
(-2.32473e-17 -3.80075e-17 2.53492)
(1.84937e-18 1.13785e-17 2.51427)
(1.88005e-16 7.94484e-17 2.57826)
(2.55823e-16 5.75842e-17 3.1704)
(-1.17459e-18 -1.4061e-17 4.30086)
(-2.90796e-18 -4.29161e-18 5.77608)
(-7.12008e-17 1.55499e-17 7.45148)
(5.77445e-17 -3.1071e-18 9.20009)
(-6.62259e-18 -9.8883e-19 10.943)
(-5.82234e-18 2.29504e-18 12.5592)
(-1.20795e-17 1.04659e-18 13.5773)
(-6.65334e-19 1.4889e-18 14.0491)
(1.55078e-18 -1.764e-19 14.187)
(-1.43486e-18 -1.52913e-18 14.1664)
(-2.56329e-18 -1.21307e-17 14.0811)
(1.28545e-18 -3.77416e-19 13.9718)
(1.19728e-18 1.41916e-17 13.8571)
(-2.48283e-20 -1.20659e-18 13.7453)
(9.72e-20 7.51386e-18 13.6403)
(-6.07903e-19 -7.72317e-18 13.5439)
(3.92006e-19 1.18751e-18 13.4568)
(-8.1359e-20 -1.05211e-21 13.3793)
(3.66393e-20 9.2889e-19 13.312)
(1.44537e-20 2.49201e-19 13.255)
(-3.26689e-19 -8.61085e-18 13.2092)
(3.66874e-19 7.06368e-18 13.1758)
(-2.16e-19 -7.22365e-18 13.1574)
(-1.32695e-20 1.39199e-17 13.1571)
(1.74685e-19 -1.22801e-17 13.1797)
(1.29863e-19 4.25821e-18 13.2337)
(1.52984e-20 9.45999e-19 13.3354)
(8.26207e-20 -8.47586e-19 13.5167)
(3.69493e-19 1.70719e-19 13.8416)
(-2.81978e-19 7.3363e-19 14.4309)
(-9.13924e-21 -7.12127e-19 15.4497)
(4.30582e-20 1.46028e-19 16.8612)
(-6.66151e-19 5.84989e-20 16.9267)
(1.80541e-18 9.32642e-20 9.44314)
(2.7444e-18 8.5285e-19 -17.0746)
(-1.37737e-18 2.92007e-19 -10.1193)
(8.47947e-20 -1.25786e-19 -1.8906)
(-1.72612e-19 6.91504e-20 1.77679)
(-1.66179e-18 7.91093e-19 3.33862)
(1.40292e-18 -8.56927e-19 4.03116)
(2.03145e-18 -7.34298e-19 4.3602)
(-1.95797e-18 8.73988e-19 4.51255)
(8.43666e-19 -3.21233e-19 4.56897)
(3.09523e-20 -9.60382e-20 4.56939)
(1.38107e-19 -7.66163e-19 4.53395)
(-3.16666e-19 6.35221e-20 4.47524)
(4.67904e-19 -7.5146e-19 4.40099)
(-1.45066e-21 -1.62917e-19 4.31575)
(8.64784e-19 -1.30765e-18 4.22263)
(-4.77653e-19 1.6332e-19 4.12376)
(1.10231e-18 -2.26013e-19 4.01966)
(-4.54663e-19 -3.01748e-18 3.9114)
(-2.30506e-18 -3.42859e-18 3.7994)
(1.01407e-17 1.61368e-17 3.68388)
(-6.92863e-18 -1.51926e-17 3.56495)
(-2.87055e-18 4.93183e-18 3.44258)
(6.37897e-18 9.92054e-18 3.3167)
(-5.92652e-18 -1.80648e-17 3.18715)
(2.22991e-18 1.04122e-18 3.05372)
(4.21083e-18 -3.39033e-18 2.91608)
(-6.90271e-18 -1.74884e-17 2.77384)
(3.32961e-18 2.44223e-17 2.62648)
(3.96617e-18 7.16352e-19 2.47351)
(6.99022e-18 2.18871e-17 2.31483)
(-9.32702e-18 -2.58503e-17 2.14739)
(8.1258e-18 2.59806e-17 1.93711)
(-2.2286e-17 -8.11372e-17 1.63393)
(-1.41895e-17 -1.01362e-16 1.22626)
(5.87136e-18 -2.08012e-17 0.804545)
(-6.23767e-17 -1.67523e-18 0.449658)
(3.55099e-17 -1.88433e-17 0.215237)
(-1.17816e-16 -1.53844e-16 0.0703243)
(1.36752e-18 1.98913e-17 0.0230315)
(9.71538e-17 6.12588e-17 -0.00403205)
(-1.30594e-16 -1.2769e-16 -0.0169707)
(1.02827e-16 8.55421e-17 -0.0170525)
(-7.30059e-17 -2.68698e-17 -0.0123352)
(5.1456e-16 4.30024e-16 -0.0055142)
(2.18825e-16 1.21613e-16 0.00691118)
(8.55583e-17 4.14833e-17 0.027119)
(-7.30502e-19 -4.64756e-18 0.0566359)
(-2.79178e-17 1.20217e-17 0.100186)
(7.06256e-16 2.95992e-16 0.158475)
(3.26595e-16 8.69441e-17 0.239979)
(4.82215e-17 2.24461e-17 0.355358)
(7.39192e-16 1.51678e-16 0.525655)
(7.26096e-19 -2.35649e-17 0.791582)
(-3.88177e-16 -1.22229e-17 1.1623)
(2.66629e-18 9.33583e-18 1.7374)
(1.63114e-17 -1.45882e-17 2.56478)
(1.61523e-16 -5.19949e-17 3.7932)
(8.34909e-17 -2.52331e-17 5.57605)
(-1.0726e-16 7.17716e-17 7.96471)
(2.03595e-17 -2.40102e-17 11.2749)
(-4.09526e-18 4.02986e-18 15.6225)
(-1.89171e-18 5.5851e-17 20.5303)
(-1.7123e-17 3.47982e-17 24.5729)
(4.04618e-17 -2.50062e-16 26.0516)
(-4.98087e-17 3.3011e-16 25.1922)
(1.66466e-16 -5.49828e-16 22.656)
(1.4574e-16 -1.27077e-16 19.5853)
(-1.19881e-16 4.48523e-16 16.4843)
(-5.42691e-18 6.48641e-17 13.7406)
(3.49155e-17 5.15521e-16 11.5108)
(-6.68482e-18 -5.79462e-16 9.76213)
(8.62843e-17 -5.11019e-16 8.40244)
(2.32299e-17 -2.16426e-17 7.34069)
(1.76054e-17 -5.18478e-16 6.503)
(3.42371e-18 -4.794e-16 5.83037)
(4.50022e-17 -1.74884e-16 5.28075)
(-5.36012e-17 1.02034e-15 4.82415)
(-1.89592e-17 -4.76565e-16 4.44479)
(-3.66713e-19 5.01281e-17 4.12113)
(4.10521e-17 -4.65456e-16 3.85537)
(1.26861e-17 4.12751e-16 3.63557)
(-2.26269e-17 -3.8392e-16 3.46171)
(-3.00375e-17 3.78079e-16 3.31771)
(2.74023e-17 -3.48455e-16 3.23076)
(6.21068e-18 -1.22394e-17 3.1616)
(-5.17508e-18 -7.50315e-18 3.13437)
(4.59064e-19 -1.00259e-17 3.08883)
(-2.70069e-18 9.09198e-17 3.00481)
(-1.05163e-19 1.29919e-18 2.7965)
(-3.97877e-18 8.81709e-17 2.40978)
(-6.87137e-18 1.37513e-16 1.87906)
(2.67613e-18 -2.76233e-17 1.30573)
(-8.06219e-18 3.31192e-16 0.793002)
(2.24837e-17 2.51753e-16 0.41699)
(-1.90002e-17 -3.13223e-16 0.185096)
(1.21253e-17 1.45764e-17 0.0662202)
(4.64276e-17 3.10478e-16 0.0181964)
(7.04049e-17 3.07168e-16 0.007906)
(-6.66137e-18 8.6145e-18 0.0113374)
(1.55157e-16 2.95086e-16 0.0222737)
(-3.03567e-16 -6.42553e-16 0.0382436)
(-2.52978e-19 3.55238e-17 0.0601677)
(-1.4431e-17 -1.55833e-17 0.0897184)
(1.66786e-20 -1.65547e-17 0.128526)
(-2.30764e-16 -2.57005e-16 0.179322)
(-3.08172e-17 -1.23849e-17 0.245698)
(8.97907e-18 9.43301e-18 0.332424)
(-1.65311e-17 -8.91006e-18 0.442828)
(-3.34046e-16 -1.73023e-16 0.587396)
(-3.3042e-16 -1.226e-16 0.78544)
(-1.97841e-18 7.30919e-18 1.04009)
(0 -0 1.44355)
(1.78199e-18 1.17865e-18 2.04748)
(-2.60579e-18 -3.88696e-18 2.84001)
(1.37246e-16 -1.85164e-17 3.97728)
(9.52578e-17 -4.13821e-17 5.53833)
(3.57243e-18 3.81126e-18 7.69161)
(2.41049e-18 -3.51227e-18 10.5912)
(-6.33484e-18 1.21644e-18 14.3789)
(-1.71974e-18 4.49092e-19 18.8919)
(2.52537e-18 -1.0173e-18 23.0833)
(-4.23822e-17 2.07218e-17 25.3275)
(-4.19872e-19 3.70931e-17 25.0668)
(1.44788e-16 -2.38836e-16 22.9123)
(2.58461e-19 -7.24739e-17 19.9589)
(-2.81347e-17 4.63818e-16 16.9108)
(2.52463e-17 -4.89804e-16 14.2235)
(5.73742e-18 4.4875e-16 12.0234)
(2.91313e-17 3.45225e-17 10.2812)
(1.28127e-17 -5.25744e-16 8.92173)
(-2.42995e-17 4.45215e-16 7.85787)
(6.24679e-17 -3.74851e-16 7.01362)
(-5.0376e-17 4.60324e-16 6.33058)
(3.52541e-17 -1.35918e-17 5.77003)
(1.97949e-17 -7.95665e-17 5.30323)
(-4.06503e-17 3.44553e-17 4.91055)
(-4.3044e-17 3.3029e-16 4.58044)
(3.55331e-17 1.00306e-16 4.29958)
(1.29354e-17 3.95603e-16 4.06743)
(8.92698e-18 1.19494e-16 3.86956)
(2.29356e-17 -4.22166e-16 3.7146)
(3.95969e-17 -7.06194e-16 3.59804)
(3.44632e-17 -4.29131e-16 3.49461)
(-2.48216e-18 6.66583e-17 3.42704)
(-4.85e-18 7.11448e-17 3.3389)
(4.8246e-19 -7.21432e-17 3.20795)
(-1.90454e-18 3.4084e-17 2.96286)
(1.63499e-18 7.54513e-18 2.54892)
(-9.88228e-18 2.66373e-16 1.99204)
(-2.20122e-18 3.91388e-18 1.39143)
(4.45712e-19 3.60038e-16 0.856307)
(2.66242e-17 2.0449e-16 0.460345)
(-1.35029e-18 4.53512e-19 0.213213)
(1.87277e-17 2.42162e-16 0.0824359)
(6.55706e-17 3.63174e-16 0.0393374)
(-9.92439e-17 -2.49772e-16 0.0334252)
(1.04038e-16 2.45839e-16 0.0556375)
(1.80263e-16 3.45994e-16 0.0993079)
(-1.9708e-16 -3.81349e-16 0.17659)
(-2.19215e-16 -2.53718e-16 0.298975)
(3.0275e-16 2.68734e-16 0.487013)
(-3.09286e-16 -2.54899e-16 0.759828)
(2.69879e-16 1.69409e-16 1.00228)
(4.62756e-17 -2.56209e-17 0.847918)
(-2.55184e-16 -7.4201e-17 1.14763)
(1.76853e-17 3.39124e-17 1.35692)
(1.74819e-16 4.90152e-18 1.80011)
(3.73843e-17 -1.18036e-17 2.40331)
(5.77528e-17 -2.29588e-17 3.10795)
(-5.11706e-17 1.87109e-17 3.87246)
(1.82068e-17 -8.79525e-18 4.64331)
(-1.84289e-17 9.27387e-18 5.4634)
(-2.06978e-18 1.03957e-18 6.18063)
(2.49057e-19 -1.83955e-19 6.62744)
(-5.72597e-18 4.54559e-18 6.87511)
(6.46396e-18 -2.0041e-18 7.00495)
(2.50251e-18 -2.16993e-18 7.0659)
(-3.93136e-18 6.15699e-19 7.08507)
(2.73647e-18 8.66223e-19 7.07902)
(-1.1849e-18 -8.74478e-19 7.05849)
(-1.44856e-20 6.28839e-19 7.02905)
(4.50636e-19 1.63886e-18 6.99525)
(-2.35089e-19 -1.33815e-18 6.95998)
(-1.16384e-21 1.53864e-18 6.92523)
(-5.57734e-19 -1.9193e-18 6.89256)
(4.36899e-19 -2.66156e-19 6.86324)
(-4.5867e-19 3.25222e-20 6.83877)
(2.5332e-19 -3.87773e-20 6.82173)
(-7.81214e-19 4.23364e-20 6.8137)
(1.33624e-18 -4.70603e-20 6.8173)
(-8.84696e-19 -5.69242e-20 6.8375)
(1.08852e-19 -1.29749e-19 6.88251)
(2.57728e-19 -2.15693e-19 6.9675)
(-5.60124e-19 1.24021e-19 7.12125)
(5.25263e-19 -3.76043e-19 7.39696)
(1.33552e-18 1.229e-18 7.87977)
(-9.16628e-19 -3.32817e-19 8.60236)
(2.9387e-19 -1.90916e-19 9.13461)
(-1.82635e-19 2.99864e-20 7.67216)
(-6.49713e-19 2.63799e-19 0.634465)
(-2.13291e-18 -4.82087e-19 -15.7428)
(9.91138e-19 -9.86571e-20 -8.3894)
(-2.23389e-18 7.03543e-19 -3.0052)
(-2.04944e-18 5.62705e-19 -0.284966)
(3.80472e-18 -1.58004e-18 0.900434)
(-5.86847e-18 3.1345e-18 1.37289)
(2.73008e-18 -1.67558e-18 1.57955)
(3.82892e-20 3.87365e-20 1.67176)
(-7.82564e-19 2.88561e-19 1.71092)
(4.14116e-20 -3.83319e-19 1.72131)
(-3.39588e-18 9.24964e-19 1.71371)
(2.28567e-18 -9.93334e-20 1.69357)
(-1.07158e-19 -1.25637e-18 1.66443)
(-1.59241e-18 -6.57168e-19 1.62855)
(4.65972e-20 1.32111e-18 1.5878)
(-2.99679e-19 -8.72972e-19 1.54345)
(4.92637e-19 -3.43456e-20 1.49601)
(-1.97149e-18 1.08417e-19 1.44623)
(4.76577e-19 -1.78205e-19 1.39452)
(-5.40226e-18 -1.1041e-17 1.3412)
(2.31445e-18 1.44562e-17 1.28648)
(3.064e-18 4.79246e-18 1.23049)
(-1.01684e-18 -1.3328e-17 1.17334)
(-3.44032e-18 3.03922e-18 1.11506)
(8.46401e-20 1.94593e-18 1.05567)
(-6.98452e-19 -8.82946e-19 0.995176)
(-3.98956e-18 -6.30737e-18 0.933527)
(-7.21358e-18 -1.96365e-17 0.870679)
(2.61202e-18 1.29133e-18 0.80667)
(5.66639e-18 -7.24408e-19 0.741972)
(1.7541e-18 2.1268e-17 0.673332)
(-2.85339e-19 5.44382e-18 0.580562)
(1.52863e-17 6.27873e-17 0.479646)