/*--------------------------------*- C++ -*----------------------------------*\
| =========                 |                                                 |
| \\      /  F ield         | OpenFOAM: The Open Source CFD Toolbox           |
|  \\    /   O peration     | Version:  2506                                  |
|   \\  /    A nd           | Website:  www.openfoam.com                      |
|    \\/     M anipulation  |                                                 |
\*---------------------------------------------------------------------------*/
FoamFile
{
    version     2.0;
    format      ascii;
    arch        "LSB;label=32;scalar=64";
    class       surfaceScalarField;
    location    "1";
    object      phi;
}
// * * * * * * * * * * * * * * * * * * * * * * * * * * * * * * * * * * * * * //

dimensions      [0 3 -1 0 0 0 0];

oriented        oriented;

internalField   nonuniform List<scalar> 
7780
(
2.08063e-09
4.19371e-10
1.64618e-09
4.34449e-10
1.34775e-09
2.98427e-10
1.16255e-09
1.85196e-10
1.05122e-09
1.11325e-10
9.8198e-10
6.92381e-11
9.35842e-10
4.61351e-11
9.02753e-10
3.30864e-11
8.77398e-10
2.53533e-11
8.56926e-10
2.04707e-11
8.39779e-10
1.7145e-11
8.25054e-10
1.47231e-11
8.12169e-10
1.28838e-11
8.00707e-10
1.14601e-11
7.9035e-10
1.03554e-11
7.80837e-10
9.51223e-12
7.7194e-10
8.89578e-12
7.63454e-10
8.48391e-12
7.55187e-10
8.26576e-12
7.46954e-10
8.23222e-12
7.38575e-10
8.37691e-12
7.29875e-10
8.69896e-12
7.20672e-10
9.20207e-12
7.10775e-10
9.89571e-12
6.99978e-10
1.07963e-11
6.88045e-10
1.19314e-11
6.74697e-10
1.33471e-11
6.5959e-10
1.51054e-11
6.42279e-10
1.7309e-11
6.22153e-10
2.01235e-11
5.98314e-10
2.38364e-11
5.69304e-10
2.90056e-11
5.32771e-10
3.65277e-11
4.78753e-10
5.40138e-11
4.30059e-10
4.86912e-11
4.09283e-10
2.07771e-11
4.04533e-10
4.74864e-12
4.06239e-10
-1.72386e-12
4.15922e-10
-9.72937e-12
4.37508e-10
-2.16614e-11
4.83836e-10
-4.64072e-11
5.39586e-10
-5.57927e-11
5.91696e-10
-5.20952e-11
6.41447e-10
-4.96888e-11
6.86546e-10
-4.50118e-11
7.28426e-10
-4.17952e-11
7.68944e-10
-4.04521e-11
8.02856e-10
-3.38739e-11
8.35362e-10
-3.24951e-11
8.64155e-10
-2.88044e-11
8.87474e-10
-2.33422e-11
9.09349e-10
-2.19018e-11
9.22125e-10
-1.28022e-11
9.33569e-10
-1.14642e-11
9.34377e-10
-8.19822e-13
9.30575e-10
3.79686e-12
9.18246e-10
1.23319e-11
8.95864e-10
2.23899e-11
8.72568e-10
2.33118e-11
8.3412e-10
3.8476e-11
7.97617e-10
3.65436e-11
7.55842e-10
4.18269e-11
7.12842e-10
4.30489e-11
6.72764e-10
4.01032e-11
6.30868e-10
4.18741e-11
5.95274e-10
3.55097e-11
5.59437e-10
3.56878e-11
5.29442e-10
2.97989e-11
5.00838e-10
2.83889e-11
4.75955e-10
2.46929e-11
4.54261e-10
2.15698e-11
4.3325e-10
2.0988e-11
4.15464e-10
1.7881e-11
3.98755e-10
1.69166e-11
3.83038e-10
1.60088e-11
3.69025e-10
1.43478e-11
3.55915e-10
1.34381e-11
3.43479e-10
1.27101e-11
3.32229e-10
1.14377e-11
3.21897e-10
1.04191e-11
3.12312e-10
9.57594e-12
3.03576e-10
8.65236e-12
2.95538e-10
7.90998e-12
2.88111e-10
7.28294e-12
2.81367e-10
6.60384e-12
2.74903e-10
6.3406e-12
2.68619e-10
6.17876e-12
2.62908e-10
5.62442e-12
2.57256e-10
5.58031e-12
2.51604e-10
5.59282e-12
2.46623e-10
4.93254e-12
2.41772e-10
4.81245e-12
2.37222e-10
4.51938e-12
2.33706e-10
3.49276e-12
2.30423e-10
3.26517e-12
2.2876e-10
1.64988e-12
2.27634e-10
1.11622e-12
2.28396e-10
-7.69632e-13
2.29811e-10
-1.42048e-12
2.336e-10
-3.79455e-12
2.38838e-10
-5.24211e-12
2.46759e-10
-7.92458e-12
2.56224e-10
-9.46818e-12
2.6707e-10
-1.08479e-11
2.80741e-10
-1.3673e-11
2.9557e-10
-1.48295e-11
3.13374e-10
-1.78025e-11
3.3243e-10
-1.90542e-11
3.535e-10
-2.10685e-11
3.75831e-10
-2.23294e-11
3.99363e-10
-2.35327e-11
4.23348e-10
-2.39897e-11
4.48182e-10
-2.48457e-11
4.71787e-10
-2.36261e-11
4.96311e-10
-2.45595e-11
5.19111e-10
-2.2851e-11
5.40892e-10
-2.18498e-11
5.61664e-10
-2.08598e-11
5.79752e-10
-1.81916e-11
5.95839e-10
-1.62025e-11
6.10345e-10
-1.46261e-11
6.22344e-10
-1.21217e-11
6.32089e-10
-9.87125e-12
6.40534e-10
-8.57993e-12
6.47224e-10
-6.84869e-12
6.527e-10
-5.67289e-12
6.57318e-10
-4.86489e-12
6.61176e-10
-4.14455e-12
6.65066e-10
-4.18259e-12
6.69914e-10
-5.07909e-12
6.7418e-10
-4.35426e-12
6.79761e-10
-5.44858e-12
6.8808e-10
-7.92657e-12
6.9618e-10
-7.47267e-12
7.06582e-10
-9.62507e-12
7.21213e-10
-1.38332e-11
7.33952e-10
-1.20599e-11
7.51466e-10
-1.7057e-11
7.68453e-10
-1.6794e-11
7.86821e-10
-1.84224e-11
8.04838e-10
-1.82504e-11
8.21125e-10
-1.66103e-11
8.34048e-10
-1.32552e-11
8.44206e-10
-1.04402e-11
8.44567e-10
-5.65286e-13
8.44097e-10
3.46855e-13
8.27866e-10
1.61736e-11
8.08555e-10
1.92968e-11
7.80735e-10
2.78289e-11
7.45503e-10
3.52472e-11
7.10221e-10
3.52969e-11
6.66272e-10
4.39577e-11
6.26677e-10
3.95932e-11
5.81799e-10
4.48625e-11
5.41669e-10
4.00999e-11
4.97519e-10
4.41099e-11
4.56311e-10
4.11717e-11
4.12339e-10
4.39566e-11
3.69211e-10
4.31441e-11
3.26215e-10
4.30354e-11
3.2366e-10
2.58948e-12
3.21681e-10
1.99826e-12
3.20835e-10
8.50684e-13
3.2246e-10
-1.62749e-12
3.33978e-10
-1.15201e-11
3.54207e-10
-2.02272e-11
3.92214e-10
-3.80014e-11
4.32286e-10
-4.00677e-11
4.69968e-10
-3.76803e-11
5.07388e-10
-3.74209e-11
5.44196e-10
-3.68111e-11
5.79295e-10
-3.51027e-11
6.11516e-10
-3.22245e-11
6.39938e-10
-2.84246e-11
6.63997e-10
-2.406e-11
6.83495e-10
-1.94987e-11
6.98537e-10
-1.50406e-11
7.09528e-10
-1.09893e-11
7.17003e-10
-7.47293e-12
7.21633e-10
-4.62769e-12
7.24013e-10
-2.37765e-12
7.24709e-10
-6.9388e-13
7.24364e-10
3.45884e-13
7.23489e-10
8.759e-13
7.22515e-10
9.7499e-13
7.21765e-10
7.49556e-13
7.21457e-10
3.07804e-13
7.21699e-10
-2.42488e-13
7.22558e-10
-8.59843e-13
7.23948e-10
-1.3905e-12
7.25729e-10
-1.782e-12
7.27785e-10
-2.05698e-12
7.29948e-10
-2.16351e-12
7.3204e-10
-2.09295e-12
7.33879e-10
-1.83979e-12
7.35288e-10
-1.40873e-12
7.36041e-10
-7.53502e-13
7.35706e-10
3.34993e-13
7.33638e-10
2.06734e-12
6.04914e-12
2.63607e-09
2.83299e-10
2.5897e-09
4.80822e-10
2.44427e-09
4.43849e-10
2.27873e-09
3.50735e-10
2.13038e-09
2.59675e-10
2.01154e-09
1.88067e-10
1.9187e-09
1.3898e-10
1.84474e-09
1.07042e-10
1.78425e-09
8.58406e-11
1.73363e-09
7.10888e-11
1.69046e-09
6.03165e-11
1.65307e-09
5.21054e-11
1.62029e-09
4.56611e-11
1.59122e-09
4.05351e-11
1.56512e-09
3.6455e-11
1.54138e-09
3.32486e-11
1.51947e-09
3.08062e-11
1.4989e-09
2.90525e-11
1.47922e-09
2.79395e-11
1.46002e-09
2.74308e-11
1.4409e-09
2.74992e-11
1.42146e-09
2.81305e-11
1.40134e-09
2.93228e-11
1.38015e-09
3.1088e-11
1.35749e-09
3.3456e-11
1.33294e-09
3.64817e-11
1.30602e-09
4.02571e-11
1.27621e-09
4.49151e-11
1.24286e-09
5.06616e-11
1.20517e-09
5.78103e-11
1.16215e-09
6.6854e-11
1.11254e-09
7.86119e-11
1.05449e-09
9.45644e-11
9.83179e-10
1.25325e-10
9.19149e-10
1.12719e-10
8.87013e-10
5.29184e-11
8.80137e-10
1.16438e-11
8.92687e-10
-1.42438e-11
9.24874e-10
-4.18906e-11
9.80797e-10
-7.75884e-11
1.06883e-09
-1.34498e-10
1.17073e-09
-1.57777e-10
1.27288e-09
-1.54317e-10
1.37219e-09
-1.49036e-10
1.46467e-09
-1.37488e-10
1.55103e-09
-1.28125e-10
1.6325e-09
-1.21869e-10
1.70428e-09
-1.05601e-10
1.77097e-09
-9.91453e-11
1.82992e-09
-8.77212e-11
1.88019e-09
-7.35926e-11
1.92353e-09
-6.52371e-11
1.95465e-09
-4.39177e-11
1.97768e-09
-3.44989e-11
1.98576e-09
-8.90717e-12
1.98216e-09
7.39037e-12
1.96463e-09
2.98604e-11
1.93086e-09
5.61636e-11
1.8873e-09
6.68916e-11
1.82435e-09
1.01441e-10
1.75534e-09
1.05572e-10
1.6766e-09
1.20576e-10
1.59271e-09
1.2694e-10
1.50814e-09
1.2464e-10
1.42121e-09
1.28751e-10
1.33928e-09
1.17372e-10
1.25842e-09
1.16482e-10
1.18411e-09
1.04068e-10
1.11359e-09
9.89133e-11
1.04847e-09
8.98779e-11
9.88568e-10
8.1586e-11
9.31625e-10
7.80908e-11
8.79406e-10
7.0277e-11
8.30213e-10
6.62762e-11
7.83591e-10
6.27561e-11
7.39994e-10
5.80083e-11
6.98737e-10
5.46894e-11
6.59537e-10
5.18403e-11
6.22705e-10
4.81512e-11
5.88128e-10
4.48556e-11
5.55612e-10
4.19553e-11
5.2519e-10
3.89628e-11
4.96697e-10
3.63307e-11
4.69971e-10
3.39757e-11
4.44924e-10
3.16472e-11
4.21192e-10
3.00879e-11
3.98576e-10
2.88179e-11
3.77187e-10
2.7038e-11
3.56733e-10
2.60576e-11
3.37267e-10
2.50785e-11
3.19135e-10
2.30816e-11
3.02399e-10
2.15634e-11
2.87393e-10
1.95377e-11
2.7475e-10
1.61454e-11
2.64708e-10
1.33154e-11
2.58178e-10
8.18552e-12
2.55708e-10
3.58987e-12
2.57867e-10
-2.92717e-12
2.64387e-10
-7.93983e-12
2.76619e-10
-1.60275e-11
2.93995e-10
-2.26193e-11
3.17358e-10
-3.12904e-11
3.46852e-10
-3.89648e-11
3.82458e-10
-4.64572e-11
4.2414e-10
-5.5359e-11
4.70668e-10
-6.13596e-11
5.22413e-10
-6.95491e-11
5.77814e-10
-7.44557e-11
6.36499e-10
-7.97516e-11
6.97363e-10
-8.31865e-11
7.59477e-10
-8.56362e-11
8.21669e-10
-8.61661e-11
8.83423e-10
-8.65773e-11
9.42597e-10
-8.27708e-11
1.00037e-09
-8.23036e-11
1.05394e-09
-7.63837e-11
1.10344e-09
-7.1307e-11
1.14897e-09
-6.63648e-11
1.18943e-09
-5.86302e-11
1.22522e-09
-5.19843e-11
1.25674e-09
-4.61495e-11
1.28353e-09
-3.89045e-11
1.30621e-09
-3.2539e-11
1.32583e-09
-2.81717e-11
1.34253e-09
-2.34964e-11
1.3572e-09
-2.02739e-11
1.37055e-09
-1.81718e-11
1.38319e-09
-1.68014e-11
1.39621e-09
-1.73283e-11
1.41051e-09
-1.96374e-11
1.42543e-09
-1.9644e-11
1.44278e-09
-2.32256e-11
1.46382e-09
-2.93448e-11
1.48631e-09
-3.01862e-11
1.51283e-09
-3.61584e-11
1.54393e-09
-4.47292e-11
1.5755e-09
-4.32532e-11
1.61156e-09
-5.2679e-11
1.64801e-09
-5.28223e-11
1.685e-09
-5.5107e-11
1.7206e-09
-5.36791e-11
1.75208e-09
-4.80586e-11
1.77756e-09
-3.8796e-11
1.7953e-09
-2.82982e-11
1.79947e-09
-4.86576e-12
1.79463e-09
5.08034e-12
1.77036e-09
4.03764e-11
1.73467e-09
5.49567e-11
1.68431e-09
7.81789e-11
1.6197e-09
9.98691e-11
1.54771e-09
1.07305e-10
1.46301e-09
1.28674e-10
1.37688e-09
1.25726e-10
1.28342e-09
1.38321e-10
1.19174e-09
1.31768e-10
1.09497e-09
1.40878e-10
9.99796e-10
1.36362e-10
9.03351e-10
1.40431e-10
8.11289e-10
1.3524e-10
7.25477e-10
1.28869e-10
6.84715e-10
4.33541e-11
6.57497e-10
2.92102e-11
6.4065e-10
1.76925e-11
6.36127e-10
2.89185e-12
6.5055e-10
-2.59434e-11
6.86208e-10
-5.58859e-11
7.47825e-10
-9.96165e-11
8.21223e-10
-1.13464e-10
8.98637e-10
-1.15093e-10
9.77988e-10
-1.16772e-10
1.05646e-09
-1.15288e-10
1.13112e-09
-1.0976e-10
1.19939e-09
-1.00499e-10
1.2594e-09
-8.84347e-11
1.31004e-09
-7.46958e-11
1.35093e-09
-6.03914e-11
1.38236e-09
-4.64672e-11
1.40511e-09
-3.3743e-11
1.4203e-09
-2.26608e-11
1.42923e-09
-1.35521e-11
1.43331e-09
-6.45575e-12
1.43387e-09
-1.25232e-12
1.43241e-09
1.81035e-12
1.42986e-09
3.4245e-12
1.42712e-09
3.71994e-12
1.42482e-09
3.04579e-12
1.42335e-09
1.77532e-12
1.4229e-09
2.09663e-13
1.42351e-09
-1.47193e-12
1.42495e-09
-2.83201e-12
1.42695e-09
-3.7781e-12
1.4291e-09
-4.20711e-12
1.431e-09
-4.06359e-12
1.43226e-09
-3.35761e-12
1.43254e-09
-2.12187e-12
1.43156e-09
-4.29515e-13
1.42903e-09
1.78123e-12
1.4247e-09
4.65905e-12
1.41823e-09
8.54162e-12
1.47119e-11
2.6118e-09
1.7149e-10
2.71342e-09
3.79207e-10
2.73168e-09
4.25576e-10
2.68696e-09
3.95464e-10
2.61056e-09
3.36074e-10
2.52252e-09
2.76113e-10
2.43704e-09
2.24456e-10
2.35964e-09
1.84436e-10
2.29106e-09
1.54418e-10
2.23061e-09
1.31544e-10
2.17723e-09
1.13695e-10
2.12991e-09
9.94237e-11
2.08773e-09
8.78353e-11
2.04988e-09
7.83828e-11
2.01563e-09
7.07073e-11
1.98431e-09
6.45685e-11
1.95531e-09
5.9803e-11
1.92807e-09
5.62938e-11
1.90205e-09
5.39558e-11
1.87675e-09
5.2725e-11
1.8517e-09
5.25536e-11
1.82641e-09
5.34114e-11
1.80045e-09
5.52875e-11
1.77334e-09
5.81922e-11
1.74463e-09
6.21621e-11
1.71385e-09
6.72688e-11
1.68047e-09
7.36302e-11
1.64396e-09
8.14245e-11
1.60371e-09
9.09144e-11
1.55903e-09
1.02481e-10
1.5092e-09
1.16681e-10
1.45347e-09
1.34343e-10
1.3912e-09
1.56831e-10
1.32066e-09
1.95855e-10
1.25814e-09
1.7524e-10
1.22545e-09
8.56072e-11
1.2239e-09
1.32062e-11
1.2506e-09
-4.09075e-11
1.30477e-09
-9.60065e-11
1.38628e-09
-1.59063e-10
1.4955e-09
-2.43728e-10
1.61651e-09
-2.78861e-10
1.73925e-09
-2.77142e-10
1.85828e-09
-2.68149e-10
1.96947e-09
-2.4873e-10
2.07278e-09
-2.31439e-10
2.16864e-09
-2.17702e-10
2.25429e-09
-1.91209e-10
2.33234e-09
-1.7715e-10
2.40117e-09
-1.56514e-10
2.45991e-09
-1.32302e-10
2.50922e-09
-1.14535e-10
2.5464e-09
-8.10851e-11
2.5727e-09
-6.08052e-11
2.58489e-09
-2.10973e-11
2.58366e-09
8.60975e-12
2.5677e-09
4.58176e-11
2.53548e-09
8.83871e-11
2.49032e-09
1.12066e-10
2.42716e-09
1.64607e-10
2.35321e-09
1.79532e-10
2.26738e-09
2.06411e-10
2.17319e-09
2.21105e-10
2.07386e-09
2.23939e-10
1.97041e-09
2.32148e-10
1.86765e-09
2.20079e-10
1.76494e-09
2.19169e-10
1.66613e-09
2.02892e-10
1.57059e-09
1.94514e-10
1.47951e-09
1.81073e-10
1.39343e-09
1.67812e-10
1.31094e-09
1.60749e-10
1.23312e-09
1.48233e-10
1.159e-09
1.40504e-10
1.08812e-09
1.33666e-10
1.02074e-09
1.25359e-10
9.56412e-10
1.1892e-10
8.94974e-10
1.13136e-10
8.36602e-10
1.06362e-10
7.81372e-10
9.99319e-11
7.29193e-10
9.40105e-11
6.80148e-10
8.79279e-11
6.34163e-10
8.22822e-11
5.9112e-10
7.70257e-11
5.50918e-10
7.18804e-11
5.13301e-10
6.77495e-11
4.78039e-10
6.41271e-11
4.45167e-10
5.99526e-11
4.14483e-10
5.6779e-11
3.86049e-10
5.35443e-11
3.60194e-10
4.89629e-11
3.37166e-10
4.46131e-11
3.17385e-10
3.93365e-11
3.01714e-10
3.18301e-11
2.90445e-10
2.45939e-11
2.8483e-10
1.38086e-11
2.8494e-10
3.48444e-12
2.92216e-10
-1.0201e-11
3.0707e-10
-2.27924e-11
3.3055e-10
-3.95081e-11
3.62e-10
-5.40705e-11
4.02384e-10
-7.16758e-11
4.51223e-10
-8.78062e-11
5.0823e-10
-1.03467e-10
5.73266e-10
-1.20398e-10
6.44659e-10
-1.32756e-10
7.2229e-10
-1.47183e-10
8.04196e-10
-1.56363e-10
8.89398e-10
-1.64954e-10
9.7646e-10
-1.70245e-10
1.06392e-09
-1.73088e-10
1.15043e-09
-1.72661e-10
1.23487e-09
-1.70998e-10
1.31553e-09
-1.63396e-10
1.39248e-09
-1.59211e-10
1.46367e-09
-1.47527e-10
1.52903e-09
-1.36607e-10
1.58839e-09
-1.25654e-10
1.64107e-09
-1.1126e-10
1.68749e-09
-9.8347e-11
1.72808e-09
-8.67143e-11
1.7629e-09
-7.36937e-11
1.79278e-09
-6.2402e-11
1.81871e-09
-5.40667e-11
1.84129e-09
-4.60088e-11
1.86153e-09
-4.04109e-11
1.88031e-09
-3.68345e-11
1.89851e-09
-3.48943e-11
1.91712e-09
-3.59014e-11
1.93687e-09
-3.94973e-11
1.95795e-09
-4.10084e-11
1.98144e-09
-4.71699e-11
2.00823e-09
-5.6669e-11
2.03699e-09
-5.94602e-11
2.06951e-09
-6.90365e-11
2.10531e-09
-8.06667e-11
2.14242e-09
-8.02607e-11
2.18207e-09
-9.2028e-11
2.22182e-09
-9.21779e-11
2.26055e-09
-9.34377e-11
2.2967e-09
-8.95268e-11
2.32735e-09
-7.8536e-11
2.351e-09
-6.23817e-11
2.36496e-09
-4.22872e-11
2.36649e-09
-6.47305e-12
2.35578e-09
1.57147e-11
2.32728e-09
6.88051e-11
2.28436e-09
9.78307e-11
2.22577e-09
1.36752e-10
2.15107e-09
1.74579e-10
2.06492e-09
1.93464e-10
1.96442e-09
2.29189e-10
1.85717e-09
2.32974e-10
1.74069e-09
2.54801e-10
1.62134e-09
2.51115e-10
1.49596e-09
2.66272e-10
1.36981e-09
2.62523e-10
1.24299e-09
2.67286e-10
1.12299e-09
2.55259e-10
1.01053e-09
2.41339e-10
9.35093e-10
1.18786e-10
8.82149e-10
8.21469e-11
8.4945e-10
5.03872e-11
8.39017e-10
1.33237e-11
8.57378e-10
-4.43043e-11
9.05382e-10
-1.03889e-10
9.83959e-10
-1.78193e-10
1.07844e-09
-2.07946e-10
1.17913e-09
-2.15784e-10
1.28156e-09
-2.19199e-10
1.38165e-09
-2.15374e-10
1.47581e-09
-2.03923e-10
1.56118e-09
-1.85872e-10
1.63576e-09
-1.63015e-10
1.69843e-09
-1.37371e-10
1.74892e-09
-1.10882e-10
1.78769e-09
-8.5233e-11
1.81571e-09
-6.1766e-11
1.83443e-09
-4.13765e-11
1.84549e-09
-2.46051e-11
1.85066e-09
-1.16311e-11
1.85179e-09
-2.3779e-12
1.85023e-09
3.37485e-12
1.84744e-09
6.21155e-12
1.84449e-09
6.67705e-12
1.84213e-09
5.40742e-12
1.84085e-09
3.05561e-12
1.84082e-09
2.37853e-13
1.84187e-09
-2.52782e-12
1.84378e-09
-4.74338e-12
1.8461e-09
-6.09831e-12
1.8483e-09
-6.40656e-12
1.84983e-09
-5.5945e-12
1.85021e-09
-3.73135e-12
1.84901e-09
-9.27843e-13
1.84593e-09
2.64685e-12
1.84083e-09
6.88775e-12
1.8337e-09
1.17912e-11
1.82479e-09
1.74465e-11
2.4833e-11
2.56387e-09
1.07622e-10
2.67065e-09
2.7242e-10
2.74814e-09
3.48087e-10
2.78199e-09
3.61615e-10
2.77638e-09
3.41679e-10
2.74679e-09
3.05707e-10
2.70307e-09
2.68175e-10
2.65333e-09
2.34177e-10
2.60309e-09
2.04655e-10
2.55483e-09
1.79805e-10
2.50952e-09
1.58996e-10
2.46752e-09
1.4143e-10
2.42875e-09
1.26599e-10
2.39297e-09
1.14159e-10
2.35983e-09
1.03849e-10
2.32892e-09
9.54811e-11
2.2998e-09
8.89151e-11
2.27205e-09
8.40429e-11
2.24523e-09
8.0779e-11
2.2189e-09
7.90559e-11
2.19262e-09
7.88227e-11
2.16599e-09
8.00485e-11
2.13855e-09
8.27237e-11
2.10987e-09
8.68642e-11
2.07952e-09
9.25165e-11
2.04702e-09
9.97656e-11
2.0119e-09
1.08747e-10
1.97366e-09
1.19661e-10
1.93179e-09
1.32788e-10
1.88575e-09
1.48519e-10
1.83504e-09
1.67387e-10
1.77925e-09
1.90125e-10
1.71827e-09
2.17809e-10
1.65113e-09
2.62996e-10
1.59196e-09
2.34403e-10
1.56062e-09
1.16941e-10
1.56141e-09
1.24206e-11
1.5936e-09
-7.30639e-11
1.65568e-09
-1.58035e-10
1.7444e-09
-2.47726e-10
1.85592e-09
-3.55216e-10
1.97645e-09
-3.99411e-10
2.09894e-09
-3.99702e-10
2.21728e-09
-3.86585e-10
2.3276e-09
-3.59126e-10
2.4296e-09
-3.33481e-10
2.52353e-09
-3.11638e-10
2.60801e-09
-2.75665e-10
2.68411e-09
-2.53212e-10
2.75111e-09
-2.23482e-10
2.80871e-09
-1.89865e-10
2.85659e-09
-1.62397e-10
2.89375e-09
-1.18241e-10
2.92017e-09
-8.7222e-11
2.93456e-09
-3.54893e-11
2.93659e-09
6.57715e-12
2.92561e-09
5.67912e-11
2.90046e-09
1.13538e-10
2.86255e-09
1.49988e-10
2.80929e-09
2.17868e-10
2.74392e-09
2.44909e-10
2.66602e-09
2.843e-10
2.57788e-09
3.09217e-10
2.48154e-09
3.20247e-10
2.37858e-09
3.35071e-10
2.27224e-09
3.26391e-10
2.16333e-09
3.28084e-10
2.05492e-09
3.11338e-10
1.94766e-09
3.01847e-10
1.84277e-09
2.86076e-10
1.74143e-09
2.69282e-10
1.64302e-09
2.59286e-10
1.54865e-09
2.42692e-10
1.45786e-09
2.31335e-10
1.37048e-09
2.21022e-10
1.28683e-09
2.08939e-10
1.20665e-09
1.98977e-10
1.12996e-09
1.89688e-10
1.05695e-09
1.79226e-10
9.87866e-10
1.68893e-10
9.22739e-10
1.59052e-10
8.61798e-10
1.48827e-10
8.05103e-10
1.38976e-10
7.52662e-10
1.29495e-10
7.0453e-10
1.2006e-10
6.605e-10
1.1183e-10
6.20376e-10
1.043e-10
5.84348e-10
9.60227e-11
5.5204e-10
8.91211e-11
5.23476e-10
8.21368e-11
4.99092e-10
7.33693e-11
4.78895e-10
6.48277e-11
4.63176e-10
5.50695e-11
4.53127e-10
4.18895e-11
4.48472e-10
2.92561e-11
4.51103e-10
1.11825e-11
4.60359e-10
-5.76852e-12
4.78395e-10
-2.82356e-11
5.04394e-10
-4.87908e-11
5.40484e-10
-7.55983e-11
5.85091e-10
-9.86783e-11
6.39602e-10
-1.26188e-10
7.02862e-10
-1.51069e-10
7.74423e-10
-1.7503e-10
8.54098e-10
-2.00076e-10
9.3966e-10
-2.18321e-10
1.03093e-09
-2.38456e-10
1.12556e-09
-2.50993e-10
1.22232e-09
-2.61722e-10
1.31965e-09
-2.6757e-10
1.41582e-09
-2.69265e-10
1.50953e-09
-2.6636e-10
1.59951e-09
-2.60967e-10
1.68429e-09
-2.4816e-10
1.76373e-09
-2.38621e-10
1.83637e-09
-2.20118e-10
1.90215e-09
-2.02328e-10
1.96106e-09
-1.84498e-10
2.01286e-09
-1.62991e-10
2.05806e-09
-1.43481e-10
2.09731e-09
-1.25904e-10
2.13094e-09
-1.07289e-10
2.15995e-09
-9.13914e-11
2.18529e-09
-7.93887e-11
2.20776e-09
-6.84414e-11
2.22838e-09
-6.09587e-11
2.24804e-09
-5.63822e-11
2.26763e-09
-5.43308e-11
2.28796e-09
-5.60798e-11
2.30962e-09
-6.10984e-11
2.33308e-09
-6.45419e-11
2.3588e-09
-7.31674e-11
2.3873e-09
-8.562e-11
2.41767e-09
-9.03694e-11
2.45102e-09
-1.02905e-10
2.48637e-09
-1.16383e-10
2.52292e-09
-1.16957e-10
2.5603e-09
-1.2932e-10
2.59723e-09
-1.28835e-10
2.63199e-09
-1.2784e-10
2.66356e-09
-1.20762e-10
2.68928e-09
-1.03998e-10
2.70817e-09
-8.11249e-11
2.71761e-09
-5.16827e-11
2.71654e-09
-5.42221e-12
2.70311e-09
2.90816e-11
2.67522e-09
9.66386e-11
2.63291e-09
1.40091e-10
2.57597e-09
1.9367e-10
2.50308e-09
2.47466e-10
2.41714e-09
2.79405e-10
2.31612e-09
3.30214e-10
2.20489e-09
3.44205e-10
2.08223e-09
3.77469e-10
1.95244e-09
3.80907e-10
1.81574e-09
4.02982e-10
1.67537e-09
4.02909e-10
1.53388e-09
4.08798e-10
1.40119e-09
3.87959e-10
1.27601e-09
3.66516e-10
1.18478e-09
2.10006e-10
1.12106e-09
1.45865e-10
1.08514e-09
8.63046e-11
1.07922e-09
1.92468e-11
1.10948e-09
-7.45663e-11
1.17402e-09
-1.68429e-10
1.27073e-09
-2.74907e-10
1.38188e-09
-3.1909e-10
1.49668e-09
-3.30589e-10
1.61037e-09
-3.32883e-10
1.71892e-09
-3.23923e-10
1.81912e-09
-3.04123e-10
1.90858e-09
-2.75343e-10
1.9858e-09
-2.40234e-10
2.05007e-09
-2.01646e-10
2.10147e-09
-1.62276e-10
2.14069e-09
-1.24452e-10
2.16893e-09
-9.00052e-11
2.18775e-09
-6.0203e-11
2.19894e-09
-3.57859e-11
2.20433e-09
-1.70167e-11
2.20571e-09
-3.76216e-12
2.20466e-09
4.43374e-12
2.20256e-09
8.30924e-12
2.2005e-09
8.74285e-12
2.19921e-09
6.69077e-12
2.19915e-09
3.12049e-12
2.20041e-09
-1.02069e-12
2.20282e-09
-4.94423e-12
2.20605e-09
-7.96465e-12
2.20955e-09
-9.60517e-12
2.21274e-09
-9.59402e-12
2.215e-09
-7.85219e-12
2.21577e-09
-4.50268e-12
2.21461e-09
2.2622e-13
2.21125e-09
6.01115e-12
2.2056e-09
1.25321e-11
2.19786e-09
1.95303e-11
2.18854e-09
2.67714e-11
3.51878e-11
2.53703e-09
7.05905e-11
2.6178e-09
1.91649e-10
2.70089e-09
2.64998e-10
2.76568e-09
2.96814e-10
2.80667e-09
3.00695e-10
2.82431e-09
2.88059e-10
2.82434e-09
2.68152e-10
2.81306e-09
2.45449e-10
2.79477e-09
2.22951e-10
2.77244e-09
2.02129e-10
2.74821e-09
1.83224e-10
2.7234e-09
1.66243e-10
2.69869e-09
1.51307e-10
2.67445e-09
1.38402e-10
2.65081e-09
1.27485e-10
2.62776e-09
1.18525e-10
2.6052e-09
1.1148e-10
2.58293e-09
1.06309e-10
2.56074e-09
1.02971e-10
2.53836e-09
1.01429e-10
2.51553e-09
1.01657e-10
2.49192e-09
1.03649e-10
2.46723e-09
1.07417e-10
2.44109e-09
1.12998e-10
2.41315e-09
1.20461e-10
2.383e-09
1.29913e-10
2.35024e-09
1.41508e-10
2.31444e-09
1.5546e-10
2.27517e-09
1.72056e-10
2.23202e-09
1.91667e-10
2.18463e-09
2.14775e-10
2.13276e-09
2.41991e-10
2.0764e-09
2.74163e-10
2.0147e-09
3.24694e-10
1.95975e-09
2.89337e-10
1.92879e-09
1.47893e-10
1.92713e-09
1.4086e-11
1.95566e-09
-1.01582e-10
2.01269e-09
-2.15032e-10
2.09349e-09
-3.28465e-10
2.19279e-09
-4.54451e-10
2.29929e-09
-5.05885e-10
2.4084e-09
-5.08836e-10
2.51366e-09
-4.91907e-10
2.61142e-09
-4.56967e-10
2.70138e-09
-4.23508e-10
2.78382e-09
-3.94116e-10
2.85825e-09
-3.50096e-10
2.9249e-09
-3.19846e-10
2.98318e-09
-2.81741e-10
3.03387e-09
-2.40532e-10
3.07594e-09
-2.04445e-10
3.10947e-09
-1.5176e-10
3.1338e-09
-1.11543e-10
3.14886e-09
-5.05468e-11
3.15386e-09
1.57432e-12
3.14868e-09
6.19619e-11
3.13241e-09
1.29817e-10
3.10524e-09
1.77161e-10
3.06606e-09
2.57045e-10
3.0156e-09
2.9537e-10
2.95345e-09
3.46439e-10
2.88082e-09
3.81829e-10
2.79844e-09
4.02591e-10
2.70783e-09
4.25664e-10
2.61075e-09
4.23462e-10
2.5087e-09
4.30154e-10
2.40374e-09
4.16346e-10
2.29735e-09
4.08311e-10
2.19077e-09
3.92752e-10
2.08565e-09
3.74505e-10
1.98198e-09
3.63027e-10
1.88121e-09
3.43503e-10
1.78335e-09
3.29196e-10
1.6886e-09
3.15721e-10
1.59752e-09
2.99932e-10
1.51003e-09
2.86345e-10
1.42634e-09
2.73256e-10
1.34673e-09
2.58721e-10
1.27159e-09
2.43957e-10
1.201e-09
2.29586e-10
1.13537e-09
2.14454e-10
1.07485e-09
1.99516e-10
1.0196e-09
1.84797e-10
9.69836e-10
1.69873e-10
9.25429e-10
1.56288e-10
8.86228e-10
1.43545e-10
8.52653e-10
1.29634e-10
8.24085e-10
1.17716e-10
8.00511e-10
1.05732e-10
7.82385e-10
9.15105e-11
7.69427e-10
7.77977e-11
7.61572e-10
6.2933e-11
7.60166e-10
4.33015e-11
7.64195e-10
2.52309e-11
7.76009e-10
-6.29051e-13
7.94272e-10
-2.40304e-11
8.21463e-10
-5.54263e-11
8.56042e-10
-8.33697e-11
9.0079e-10
-1.20347e-10
9.53426e-10
-1.51316e-10
1.01575e-09
-1.88514e-10
1.08613e-09
-2.21445e-10
1.16409e-09
-2.52991e-10
1.24929e-09
-2.85286e-10
1.33926e-09
-3.08289e-10
1.43367e-09
-3.32871e-10
1.53003e-09
-3.4736e-10
1.62693e-09
-3.58624e-10
1.72282e-09
-3.63471e-10
1.81588e-09
-3.6233e-10
1.90496e-09
-3.55442e-10
1.9888e-09
-3.44818e-10
2.0663e-09
-3.25654e-10
2.13733e-09
-3.09639e-10
2.20096e-09
-2.83727e-10
2.25733e-09
-2.58661e-10
2.30672e-09
-2.33833e-10
2.34929e-09
-2.05489e-10
2.38571e-09
-1.7983e-10
2.41683e-09
-1.56955e-10
2.44323e-09
-1.33634e-10
2.46599e-09
-1.14112e-10
2.486e-09
-9.93879e-11
2.50414e-09
-8.65693e-11
2.52134e-09
-7.81297e-11
2.53839e-09
-7.33609e-11
2.55606e-09
-7.18653e-11
2.57489e-09
-7.47299e-11
2.59539e-09
-8.14108e-11
2.61808e-09
-8.71175e-11
2.64289e-09
-9.80228e-11
2.66995e-09
-1.12914e-10
2.69864e-09
-1.19465e-10
2.72956e-09
-1.34326e-10
2.76142e-09
-1.48725e-10
2.79417e-09
-1.50045e-10
2.82653e-09
-1.61812e-10
2.85805e-09
-1.60288e-10
2.88687e-09
-1.56425e-10
2.91249e-09
-1.46092e-10
2.93265e-09
-1.23893e-10
2.94697e-09
-9.52442e-11
2.95313e-09
-5.774e-11
2.95095e-09
-3.21468e-12
2.93811e-09
4.18994e-11
2.91429e-09
1.20419e-10
2.8778e-09
1.76542e-10
2.82888e-09
2.42568e-10
2.76551e-09
3.10816e-10
2.68928e-09
3.55634e-10
2.59828e-09
4.21223e-10
2.49534e-09
4.47146e-10
2.37934e-09
4.93465e-10
2.2535e-09
5.06754e-10
2.11894e-09
5.37557e-10
1.9778e-09
5.44059e-10
1.83483e-09
5.51784e-10
1.70234e-09
5.20444e-10
1.5782e-09
4.9065e-10
1.48873e-09
2.99462e-10
1.4302e-09
2.0439e-10
1.4044e-09
1.12105e-10
1.41315e-09
1.05065e-11
1.46166e-09
-1.23077e-10
1.54452e-09
-2.51286e-10
1.65688e-09
-3.87271e-10
1.77864e-09
-4.40853e-10
1.89921e-09
-4.51152e-10
2.01457e-09
-4.48245e-10
2.12154e-09
-4.30897e-10
2.21783e-09
-4.00413e-10
2.30194e-09
-3.59456e-10
2.37313e-09
-3.11429e-10
2.43134e-09
-2.59857e-10
2.47709e-09
-2.08029e-10
2.5114e-09
-1.58762e-10
2.53564e-09
-1.14249e-10
2.55143e-09
-7.59931e-11
2.56051e-09
-4.48553e-11
2.5646e-09
-2.1112e-11
2.56538e-09
-4.53725e-12
2.56431e-09
5.51056e-12
2.56262e-09
9.99615e-12
2.56128e-09
1.00854e-11
2.56093e-09
7.04427e-12
2.5619e-09
2.14733e-12
2.56427e-09
-3.38804e-12
2.56783e-09
-8.50252e-12
2.57219e-09
-1.2328e-11
2.57683e-09
-1.42435e-11
2.58113e-09
-1.38966e-11
2.58449e-09
-1.12033e-11
2.58631e-09
-6.3294e-12
2.58617e-09
3.66379e-13
2.58379e-09
8.39328e-12
2.57912e-09
1.72011e-11
2.57239e-09
2.62562e-11
2.56414e-09
3.502e-11
4.45136e-11
2.52316e-09
4.74265e-11
2.58145e-09
1.3336e-10
2.65344e-09
1.93005e-10
2.72358e-09
2.26664e-10
2.78332e-09
2.40953e-10
2.82933e-09
2.42048e-10
2.86239e-09
2.35097e-10
2.88409e-09
2.23744e-10
2.89665e-09
2.10389e-10
2.90253e-09
1.96248e-10
2.90365e-09
1.82111e-10
2.90116e-09
1.68725e-10
2.89595e-09
1.56519e-10
2.88872e-09
1.4563e-10
2.87994e-09
1.3627e-10
2.86988e-09
1.2858e-10
2.85872e-09
1.22639e-10
2.84654e-09
1.18493e-10
2.83333e-09
1.16178e-10
2.81905e-09
1.15703e-10
2.80361e-09
1.17097e-10
2.78686e-09
1.20396e-10
2.76863e-09
1.2565e-10
2.74869e-09
1.32938e-10
2.72678e-09
1.42366e-10
2.70262e-09
1.54071e-10
2.67589e-09
1.68235e-10
2.64626e-09
1.85092e-10
2.61338e-09
2.04933e-10
2.57693e-09
2.28111e-10
2.53665e-09
2.55056e-10
2.49236e-09
2.86277e-10
2.44405e-09
3.22468e-10
2.39097e-09
3.77769e-10
2.34229e-09
3.38017e-10
2.31134e-09
1.7883e-10
2.30414e-09
2.12728e-11
2.32328e-09
-1.20727e-10
2.36736e-09
-2.59094e-10
2.43131e-09
-3.92359e-10
2.50987e-09
-5.32952e-10
2.5948e-09
-5.90749e-10
2.68355e-09
-5.9757e-10
2.7693e-09
-5.77689e-10
2.84856e-09
-5.36288e-10
2.92106e-09
-4.9607e-10
2.98716e-09
-4.60266e-10
3.04667e-09
-4.09632e-10
3.09992e-09
-3.731e-10
3.14624e-09
-3.28054e-10
3.1867e-09
-2.80978e-10
3.22037e-09
-2.381e-10
3.24801e-09
-1.79386e-10
3.26863e-09
-1.3216e-10
3.28301e-09
-6.49233e-11
3.29016e-09
-5.57698e-12
3.29037e-09
6.1751e-11
3.28295e-09
1.37237e-10
3.2674e-09
1.92713e-10
3.2436e-09
2.80846e-10
3.21067e-09
3.28304e-10
3.16808e-09
3.8902e-10
3.1162e-09
4.33686e-10
3.05464e-09
4.64128e-10
2.98456e-09
4.95739e-10
2.90635e-09
5.01678e-10
2.82162e-09
5.14922e-10
2.73139e-09
5.06632e-10
2.63743e-09
5.02341e-10
2.5408e-09
4.89453e-10
2.44337e-09
4.71996e-10
2.34555e-09
4.60885e-10
2.24903e-09
4.40019e-10
2.15425e-09
4.23942e-10
2.06179e-09
4.08116e-10
1.97248e-09
3.89141e-10
1.88646e-09
3.72265e-10
1.80411e-09
3.55506e-10
1.72578e-09
3.36962e-10
1.65199e-09
3.17697e-10
1.58287e-09
2.98696e-10
1.51889e-09
2.78449e-10
1.4603e-09
2.58151e-10
1.40731e-09
2.37844e-10
1.36029e-09
2.1694e-10
1.31919e-09
1.97437e-10
1.28391e-09
1.78861e-10
1.25509e-09
1.58485e-10
1.23197e-09
1.40861e-10
1.21455e-09
1.23166e-10
1.20318e-09
1.02887e-10
1.19745e-09
8.35363e-11
1.19691e-09
6.34809e-11
1.20293e-09
3.72757e-11
1.21392e-09
1.42428e-11
1.23239e-09
-1.90944e-11
1.25642e-09
-4.80609e-11
1.28868e-09
-8.76874e-11
1.32718e-09
-1.2187e-10
1.37499e-09
-1.68162e-10
1.42946e-09
-2.05789e-10
1.49263e-09
-2.51679e-10
1.56257e-09
-2.91396e-10
1.63894e-09
-3.29357e-10
1.72116e-09
-3.67508e-10
1.80679e-09
-3.93929e-10
1.89528e-09
-4.21366e-10
1.98426e-09
-4.36338e-10
2.0721e-09
-4.46479e-10
2.15748e-09
-4.48864e-10
2.23853e-09
-4.43389e-10
2.3144e-09
-4.31326e-10
2.38394e-09
-4.14368e-10
2.44649e-09
-3.88213e-10
2.50202e-09
-3.65173e-10
2.55017e-09
-3.31883e-10
2.59132e-09
-2.99795e-10
2.62603e-09
-2.68519e-10
2.65485e-09
-2.34256e-10
2.67859e-09
-2.03509e-10
2.69825e-09
-1.76544e-10
2.71457e-09
-1.4988e-10
2.72862e-09
-1.28113e-10
2.74121e-09
-1.11952e-10
2.75317e-09
-9.85196e-11
2.76526e-09
-9.02232e-11
2.7781e-09
-8.61767e-11
2.79225e-09
-8.59362e-11
2.8079e-09
-9.02322e-11
2.82562e-09
-9.89247e-11
2.84584e-09
-1.07127e-10
2.86769e-09
-1.19738e-10
2.89156e-09
-1.36783e-10
2.9167e-09
-1.448e-10
2.94339e-09
-1.6137e-10
2.97018e-09
-1.75964e-10
2.99753e-09
-1.7782e-10
3.02368e-09
-1.8826e-10
3.04885e-09
-1.85566e-10
3.0712e-09
-1.78718e-10
3.09076e-09
-1.65476e-10
3.10573e-09
-1.38641e-10
3.11624e-09
-1.05557e-10
3.12035e-09
-6.17134e-11
3.11862e-09
-1.41653e-12
3.10856e-09
5.1977e-11
3.0911e-09
1.3786e-10
3.06364e-09
2.03976e-10
3.02668e-09
2.79503e-10
2.97779e-09
3.59693e-10
2.9176e-09
4.15825e-10
2.84412e-09
4.94701e-10
2.75859e-09
5.3268e-10
2.65958e-09
5.9247e-10
2.54934e-09
6.17006e-10
2.42826e-09
6.58642e-10
2.2986e-09
6.73736e-10
2.1659e-09
6.8449e-10
2.04532e-09
6.41009e-10
1.93423e-09
6.01728e-10
1.8588e-09
3.74885e-10
1.81626e-09
2.46927e-10
1.80873e-09
1.19639e-10
1.83699e-09
-1.77549e-11
1.90452e-09
-1.90599e-10
2.00224e-09
-3.49001e-10
2.1229e-09
-5.07939e-10
2.24644e-09
-5.64391e-10
2.36367e-09
-5.68383e-10
2.47182e-09
-5.56399e-10
2.56883e-09
-5.27904e-10
2.65347e-09
-4.85058e-10
2.72524e-09
-4.3123e-10
2.78421e-09
-3.70401e-10
2.83094e-09
-3.06586e-10
2.86639e-09
-2.43488e-10
2.89188e-09
-1.84252e-10
2.90891e-09
-1.31272e-10
2.91906e-09
-8.61431e-11
2.92394e-09
-4.97371e-11
2.92511e-09
-2.2275e-11
2.92398e-09
-3.40279e-12
2.92177e-09
7.71619e-12
2.9195e-09
1.22677e-11
2.91793e-09
1.1666e-11
2.91752e-09
7.45452e-12
2.91851e-09
1.15276e-12
2.92091e-09
-5.78614e-12
2.92451e-09
-1.20946e-11
2.92892e-09
-1.6746e-11
2.93368e-09
-1.90021e-11
2.93823e-09
-1.84439e-11
2.942e-09
-1.49765e-11
2.94448e-09
-8.80845e-12
2.94525e-09
-4.01461e-13
2.94404e-09
9.59995e-12
2.9408e-09
2.04411e-11
2.93571e-09
3.13449e-11
2.92921e-09
4.15172e-11
5.21224e-11
2.51583e-09
3.1594e-11
2.55898e-09
9.02111e-11
2.61808e-09
1.33899e-10