/*--------------------------------*- C++ -*----------------------------------*\
| =========                 |                                                 |
| \\      /  F ield         | OpenFOAM: The Open Source CFD Toolbox           |
|  \\    /   O peration     | Version:  2506                                  |
|   \\  /    A nd           | Website:  www.openfoam.com                      |
|    \\/     M anipulation  |                                                 |
\*---------------------------------------------------------------------------*/
FoamFile
{
    version     2.0;
    format      ascii;
    arch        "LSB;label=32;scalar=64";
    class       volScalarField;
    location    "1";
    object      s;
}
// * * * * * * * * * * * * * * * * * * * * * * * * * * * * * * * * * * * * * //

dimensions      [0 0 0 0 0 0 0];

internalField   nonuniform List<scalar> 
4000
(
3.80555e-17
8.28587e-14
1.24319e-10
2.72509e-08
4.2792e-06
0.000192028
0.00442419
0.0426285
0.193626
0.384188
0.398695
0.33137
0.171203
0.0442513
0.00920251
0.00614024
0.00377993
0.00208983
0.00110067
0.000577981
0.000304369
0.000153776
7.31202e-05
3.49153e-05
1.79616e-05
9.86013e-06
5.52752e-06
3.05047e-06
1.62039e-06
8.18486e-07
3.92642e-07
1.83525e-07
9.14671e-08
5.8534e-08
-3.01013e-09
-1.21311e-07
-3.22777e-07
-6.65562e-07
-1.37564e-06
-2.87485e-06
-6.05545e-06
-8.76408e-06
-9.61335e-06
-9.46036e-06
-8.22647e-06
-6.70994e-06
-5.3253e-06
-3.83036e-06
-2.80811e-06
-1.97438e-06
-1.28553e-06
-8.33064e-07
-4.25612e-07
-2.10072e-07
-6.45748e-08
-1.78748e-08
-4.74536e-09
-1.21561e-09
-3.00085e-10
-6.95452e-11
-1.25275e-11
7.9623e-13
3.03022e-12
2.48288e-12
1.49275e-12
7.35812e-13
3.20086e-13
1.25058e-13
4.40858e-14
1.38891e-14
3.84267e-15
9.70867e-16
2.30368e-16
3.56263e-17
-9.33067e-18
-1.0198e-17
-5.54504e-18
-1.75563e-18
-2.39177e-19
-3.40389e-20
-1.11863e-19
-6.55978e-20
-2.11683e-20
-7.69323e-21
-5.0759e-21
-3.11525e-21
-2.13886e-21
-1.93293e-21
-1.4046e-21
-9.47486e-22
-5.59423e-22
-3.41286e-22
-2.28455e-22
-1.87797e-22
-2.04201e-22
-2.37081e-23
-2.65874e-22
2.04891e-22
-4.32839e-21
-1.24276e-20
-2.49223e-20
-3.84153e-20
-4.4717e-20
-3.79883e-20
-4.3665e-20
-3.7633e-20
-2.44567e-20
-1.38936e-20
-7.49161e-21
-2.16218e-21
2.04209e-21
4.24714e-21
4.6178e-21
3.48719e-21
1.75723e-21
2.99555e-22
-4.12218e-22
-5.55904e-22
-4.30582e-22
-2.57943e-22
-1.29905e-22
-5.31907e-23
-1.78519e-23
-5.25567e-24
-1.27677e-24
-2.48301e-25
-2.94756e-26
6.12858e-27
8.22561e-27
6.87321e-27
4.01465e-27
2.66085e-27
2.25057e-27
1.44108e-27
1.07704e-27
1.00163e-27
6.38374e-28
5.56152e-28
3.99413e-28
2.89701e-28
1.90647e-28
1.06732e-28
4.76799e-29
1.74491e-29
3.34931e-30
6.02557e-31
9.76271e-32
2.91353e-33
-1.03675e-32
-7.37549e-33
-3.48357e-33
-1.17284e-33
1.6849e-35
3.33071e-34
2.06439e-34
5.56814e-35
-8.62472e-36
-1.32234e-35
-4.26356e-36
-1.64059e-37
9.83854e-38
-6.39481e-39
-5.48063e-38
-1.66087e-37
2.32358e-36
8.77265e-35
5.07082e-34
6.29969e-34
2.99366e-34
-7.85537e-35
-2.64222e-34
-2.5519e-34
-1.63072e-34
-7.75517e-35
-2.78657e-35
-7.12686e-36
-9.58782e-37
1.39009e-37
1.1934e-37
3.40144e-38
4.83546e-39
-5.16455e-42
-1.22032e-40
-1.87078e-41
-5.8675e-43
1.96563e-43
2.98704e-44
-2.13129e-44
-5.0236e-44
-5.58207e-44
-4.01505e-44
-2.06302e-44
-7.60067e-45
-1.93887e-45
-3.26565e-46
-3.70156e-47
-3.73673e-48
-6.17814e-49
-1.52959e-49
-2.6241e-50
-2.16269e-17
2.24423e-14
1.94287e-11
3.2086e-09
3.3118e-07
1.16836e-05
0.000264264
0.00334758
0.015569
0.0382704
0.0622325
0.0795895
0.0882947
0.101179
0.14453
0.232246
0.340859
0.423997
0.430102
0.408185
0.348156
0.236171
0.120495
0.0516342
0.0298928
0.0189144
0.0117188
0.0069466
0.0039038
0.00206456
0.00102166
0.000473189
0.00020576
8.27155e-05
2.99328e-05
7.20629e-06
-4.6958e-06
-1.42881e-05
-2.59979e-05
-4.48271e-05
-8.12056e-05
-0.00010741
-0.000115161
-0.000110417
-9.8873e-05
-8.58901e-05
-7.40298e-05
-6.27035e-05
-5.3599e-05
-4.53836e-05
-3.61529e-05
-2.71502e-05
-1.87107e-05
-1.2411e-05
-7.72653e-06
-3.87735e-06
-1.68958e-06
-8.78659e-07
-4.52057e-07
-2.19518e-07
-9.93114e-08
-4.04147e-08
-1.38629e-08
-3.21548e-09
2.53484e-10
8.94691e-10
6.8805e-10
3.83698e-10
1.73003e-10
6.53066e-11
1.88768e-11
4.47799e-12
1.12499e-12
2.77032e-13
6.40319e-14
1.34451e-14
2.52181e-15
4.51091e-16
6.52225e-17
3.72463e-18
6.82074e-18
6.55793e-18
3.15099e-18
1.11192e-18
3.32609e-19
-4.43522e-19
-2.70088e-19
-1.33677e-19
-1.92177e-19
-2.28973e-19
-2.1972e-19
-2.03743e-19
-2.18339e-19
-2.42231e-19
-2.55493e-19
-2.61587e-19
-2.579e-19
-2.01553e-19
-6.18354e-20
9.63181e-20
2.70852e-19
4.65299e-19
5.49596e-19
7.17614e-19
5.81597e-19
2.47746e-19
1.29392e-19
-1.43398e-19
-4.47257e-19
-7.472e-19
-7.40797e-19
-6.05619e-19
-4.32409e-19
-2.95394e-19
-1.87368e-19
-9.62922e-20
-3.97207e-20
-1.24428e-20
-2.53385e-21
-2.61845e-22
-1.09225e-22
-2.05635e-22
-1.92149e-22
-1.20829e-22
-5.84331e-23
-2.34043e-23
-8.13858e-24
-2.53822e-24
-7.36347e-25
-1.76139e-25
1.0069e-26
6.68989e-26
8.55535e-26
8.03855e-26
7.15528e-26
6.50821e-26
5.2126e-26
4.336e-26
3.36321e-26
2.50744e-26
1.75034e-26
1.1128e-26
6.26903e-27
3.07971e-27
1.11216e-27
3.10173e-28
6.0909e-29
2.55438e-30
-4.82008e-30
-2.92368e-30
-1.12942e-30
-3.66393e-31
-1.47626e-31
-8.41768e-32
-4.30371e-32
-1.31671e-32
2.51638e-34
2.25572e-33
8.90924e-34
4.98465e-35
-4.86965e-35
-1.21975e-35
9.34903e-36
1.11376e-35
1.64425e-34
1.39301e-33
-2.09002e-33
-1.50104e-32
-2.58862e-32
-2.81587e-32
-2.32318e-32
-1.57804e-32
-9.24671e-33
-4.79175e-33
-2.20984e-33
-8.97767e-34
-3.13284e-34
-8.98648e-35
-1.93287e-35
-2.23251e-36
3.45947e-37
2.7246e-37
8.52198e-38
1.93806e-38
3.85074e-39
7.79017e-40
1.76242e-40
4.3153e-41
1.12944e-41
2.72258e-42
2.39939e-43
-2.87473e-43
-2.12579e-43
-7.47471e-44
-1.24964e-44
4.16381e-46
6.58164e-46
1.78258e-46
3.32652e-47
5.33561e-48
-3.363e-16
6.67034e-15
3.83946e-12
5.38084e-10
3.53708e-08
1.47281e-06
6.50182e-06
1.19607e-05
2.15815e-05
5.10256e-05
0.000137426
0.00113566
0.00465771
0.0111936
0.0227112
0.0421754
0.0692634
0.0995502
0.1353
0.183378
0.249313
0.333167
0.425784
0.497526
0.504794
0.490243
0.451982
0.384532
0.265184
0.14103
0.0634076
0.0344836
0.0203911
0.0116498
0.0064742
0.00364321
0.0020803
0.00120988
0.000747538
0.000530628
0.000694173
0.00223989
0.00403361
0.00530521
0.00561546
0.00513053
0.00421443
0.00303206
0.00195219
0.00112246
0.000607201
0.000327458
0.000163563
6.90305e-05
1.5814e-05
-1.0794e-05
-2.17801e-05
-2.39281e-05
-2.14776e-05
-1.68174e-05
-1.17433e-05
-7.42251e-06
-4.09843e-06
-1.91242e-06
-6.75482e-07
-3.00615e-07
-1.34947e-07
-5.56459e-08
-1.93394e-08
-4.92649e-09
-3.6656e-10
5.28155e-10
4.05757e-10
1.83627e-10
5.64318e-11
1.10465e-11
1.67495e-12
3.31328e-13
5.64411e-14
1.11038e-14
1.78727e-15
1.38576e-16
-3.74521e-17
-3.22643e-17
3.40714e-18
6.85313e-17
4.41124e-17
1.99369e-17
1.48857e-17
1.40293e-17
1.1388e-17
7.84191e-18
6.42951e-18
5.84185e-18
5.54579e-18
5.83366e-18
8.77733e-18
1.26268e-17
1.87147e-17
2.2555e-17
3.23064e-17
3.78262e-17
4.04236e-17
3.68382e-17
3.2978e-17
2.77438e-17
3.23599e-17
2.38418e-17
1.63082e-17
1.01453e-17
5.62562e-18
1.88646e-18
-1.50278e-19
-1.28392e-18
-1.44246e-18
-9.57552e-19
-4.48221e-19
-1.32909e-19
7.97971e-21
5.23509e-20
4.90168e-20
3.07282e-20
1.49798e-20
5.99785e-21
1.9701e-21
5.01785e-22
7.10499e-23
-2.02678e-23
-2.50377e-23
-1.65834e-23
-9.66865e-24
-5.63357e-24
-3.4928e-24
-2.16768e-24
-1.39574e-24
-9.47749e-25
-6.11951e-25
-4.10735e-25
-2.67214e-25
-1.69204e-25
-1.02047e-25
-5.58417e-26
-2.6619e-26
-1.05824e-26
-3.16913e-27
-7.39468e-28
-1.31066e-28
-1.44858e-29
-3.40683e-30
-6.10259e-30
-5.14204e-30
-7.92911e-31
2.18802e-30
2.68571e-30
1.64849e-30
5.58246e-31
2.5035e-32
-7.0064e-32
-2.61566e-32
3.38139e-33
4.78833e-33
1.48049e-33
1.76825e-34
-5.46165e-34
-2.76744e-34
-2.04989e-32
-1.19639e-31
-2.04619e-31
-1.88698e-31
-1.10749e-31
-3.62865e-32
4.01568e-33
1.44849e-32
1.09581e-32
5.08391e-33
1.33655e-33
-1.15717e-34
-3.51767e-34
-2.22072e-34
-8.96362e-35
-2.47174e-35
-3.74e-36
3.16668e-37
4.3766e-37
1.80542e-37
5.49731e-38
1.45921e-38
3.84207e-39
1.36448e-39
6.95794e-40
3.75414e-40
1.76837e-40
6.66636e-41
1.84124e-41
3.0409e-42
8.76743e-44
-1.32066e-43
-6.00644e-44
-1.96143e-44
-6.10057e-45
-2.53653e-16
1.62736e-15
7.65638e-13
1.00963e-10
6.08249e-09
1.45276e-07
-2.62687e-07
-8.74955e-07
9.53211e-08
8.02395e-07
1.45711e-06
4.62077e-06
2.27574e-05
7.65102e-05
0.000210602
0.000529996
0.00122851
0.00292184
0.00740689
0.0168605
0.0341185
0.0621416
0.103894
0.165005
0.24254
0.33044
0.425797
0.526863
0.580285
0.56956
0.534222
0.478945
0.382479
0.260498
0.149368
0.0831992
0.0649037
0.0680321
0.0778322
0.0903981
0.10979
0.129491
0.142329
0.147046
0.143621
0.133983
0.120604
0.104055
0.0866966
0.0693077
0.0526739
0.0383894
0.0265758
0.0175577
0.0108853
0.00640895
0.00363764
0.0019766
0.00102178
0.000490906
0.000216017
8.04442e-05
1.85904e-05
-6.24228e-06
-1.32104e-05
-1.21151e-05
-7.99972e-06
-3.64432e-06
-1.07604e-06
-2.76264e-07
-9.65755e-08
-3.26658e-08
-1.04136e-08
-3.05742e-09
-7.41101e-10
-1.11481e-10
1.18898e-11
1.65096e-11
7.20337e-12
2.05848e-12
4.98971e-13
1.01861e-13
3.00532e-16
-1.51322e-14
-1.04012e-14
-4.71827e-15
-1.71429e-15
-5.87817e-16
-2.00948e-16
-1.00001e-16
-4.62344e-17
5.41605e-17
6.79048e-17
5.17251e-17
3.21328e-17
2.5431e-17
8.97423e-18
-2.15405e-17
-4.6434e-17
-6.4854e-17
-1.00923e-16
-1.27306e-16
-9.63333e-17
-9.89579e-17
-7.86844e-17
-3.70919e-17
-4.01512e-17
-1.13514e-17
1.7083e-17
4.6898e-17
6.88997e-17
5.53689e-17
5.31737e-17
3.64532e-17
2.34467e-17
1.36495e-17
7.27592e-18
3.29591e-18
1.23564e-18
4.76155e-19
2.3517e-19
1.38683e-19
8.24886e-20
4.53612e-20
2.2355e-20
9.82371e-21
3.84027e-21
1.318e-21
3.7687e-22
6.55499e-23
-2.34339e-23
-4.06088e-23
-3.84473e-23
-3.12711e-23
-2.43139e-23
-1.86599e-23
-1.37076e-23
-1.00125e-23
-7.07798e-24
-4.85377e-24
-3.19671e-24
-1.98568e-24
-1.14597e-24
-6.01848e-25
-2.71318e-25
-1.08563e-25
-3.74842e-26
-1.0024e-26
-1.05999e-27
9.81972e-28
9.13235e-28
4.89617e-28
1.9625e-28
6.41818e-29
2.24844e-29
1.21289e-29
7.55948e-30
3.5611e-30
9.50563e-31
-2.16165e-32
-1.11765e-31
-3.80228e-32
-5.75599e-33
-2.64437e-33
-4.19805e-32
-3.09879e-31
-5.07847e-31
4.92122e-33
8.3991e-31
1.38094e-30
1.43561e-30
1.16355e-30
7.95286e-31
4.7605e-31
2.5368e-31
1.20511e-31
5.04519e-32
1.81182e-32
5.26394e-33
1.03726e-33
-1.76722e-36
-1.19599e-34
-6.962e-35
-2.83216e-35
-9.77088e-36
-3.08905e-36
-9.3807e-37
-2.84049e-37
-8.78277e-38
-2.6373e-38
-6.77122e-39
-1.06912e-39
1.16398e-40
1.20131e-40
8.82733e-42
-1.71624e-41
-1.20454e-41
-5.14878e-42
-1.73386e-42
-4.48121e-43
-1.06282e-16
2.92448e-16
1.43599e-13
1.44256e-11
2.7965e-09
-8.96533e-09
-1.13244e-07
-1.14268e-07
-1.15719e-07
-3.30943e-07
-9.83821e-07
-1.13521e-06
2.00424e-07
3.28699e-06
9.34384e-06
2.33744e-05
5.71538e-05
0.000139857
0.000342104
0.000810445
0.00183196
0.00387192
0.00820606
0.0181548
0.0373573
0.0684821
0.117261
0.197835
0.299586
0.402749
0.498711
0.592697
0.623571
0.604479
0.56165
0.512337
0.461602
0.425036
0.408618
0.407557
0.419353
0.430774
0.433753
0.427019
0.410886
0.38789
0.360024
0.327481
0.292551
0.256246
0.219372
0.183527
0.148843
0.116895
0.0877499
0.0622997
0.0410688
0.0245134
0.0137001
0.00743891
0.00394592
0.00201267
0.000956768
0.000411933
0.000153861
4.46737e-05
4.00654e-06
-7.81707e-06
-8.54787e-06
-6.0402e-06
-3.37581e-06
-1.32818e-06
-5.38866e-07
-2.10454e-07
-7.50761e-08
-2.48543e-08
-7.61473e-09
-2.03362e-09
-3.86709e-10
1.08555e-11
5.81127e-11
3.56187e-11
1.61772e-11
6.72822e-12
2.65257e-12
9.50137e-13
3.01156e-13
8.09791e-14
1.52074e-14
-1.05249e-15
-3.81498e-15
-3.79399e-15
-3.6566e-15
-3.64611e-15
-3.90956e-15
-4.01691e-15
-5.41986e-15
-7.87492e-15
-9.03138e-15
-9.92915e-15
-9.44741e-15
-9.92651e-15
-8.21541e-15
-7.54807e-15
-6.54309e-15
-5.25094e-15
-4.05861e-15
-2.70247e-15
-1.80376e-15
-1.09859e-15
-5.28608e-16
-1.23181e-16
1.92341e-17
1.06339e-16
1.13152e-16
9.16576e-17
7.12441e-17
3.96204e-17
1.87485e-17
7.21359e-18
1.64382e-18
-2.22407e-19
-4.67328e-19
-2.93792e-19
-1.27655e-19
-4.05228e-20
-7.0303e-21
2.20814e-21
3.17548e-21
2.23883e-21
1.29581e-21
6.84428e-22
3.4367e-22
1.63627e-22
7.32008e-23
2.98567e-23
9.0613e-24
1.89114e-25
-3.08776e-24
-3.88005e-24
-3.55975e-24
-2.87895e-24
-2.12188e-24
-1.4168e-24
-8.3104e-25
-4.42033e-25
-2.10345e-25
-8.95742e-26
-3.20386e-26
-7.53134e-27
1.01594e-27
2.66044e-27
1.98589e-27
9.8815e-28
3.3305e-28
4.85934e-29
-1.96443e-29
-1.26449e-29
3.65622e-31
3.84045e-30
2.27266e-30
6.60041e-31
5.29143e-32
-2.04808e-32
-5.14951e-31
-7.57628e-31
2.58875e-30
7.84362e-30
1.06452e-29
1.00236e-29
7.4985e-30
4.79502e-30
2.76773e-30
1.51084e-30
8.07051e-31
4.26176e-31
2.18772e-31
1.05621e-31
4.61666e-32
1.74837e-32
5.32844e-33
1.03175e-33
-8.9e-35
-2.15543e-34
-1.38278e-34
-6.66934e-35
-2.7966e-35
-1.09727e-35
-4.29032e-36
-1.73154e-36
-7.15348e-37
-2.89543e-37
-1.07876e-37
-3.40811e-38
-7.92764e-39
-9.193e-40
3.34859e-40
3.10893e-40
1.55013e-40
6.07355e-41
-4.52122e-17
4.93705e-17
1.9002e-14
1.45274e-12
9.94753e-10
-3.19819e-09
-6.40986e-09
-5.42801e-09
-3.53254e-09
-1.02636e-08
-7.67055e-08
-1.63044e-07
-1.96739e-07
3.23102e-08
5.94662e-07
1.82109e-06
4.7958e-06
1.22908e-05
3.11493e-05
7.73892e-05
0.000187415
0.000435604
0.00100011
0.00227297
0.00493056
0.0100489
0.0200949
0.0405122
0.0759251
0.130758
0.21614
0.32792
0.440941
0.538306
0.613139
0.659918
0.668547
0.665235
0.659717
0.654771
0.651516
0.64817
0.643054
0.633929
0.618351
0.594472
0.564863
0.529898
0.490937
0.448624
0.403638
0.3574
0.310206
0.263748
0.218412
0.175521
0.135958
0.100371
0.0703007
0.0459413
0.0278413
0.0151232
0.00727411
0.00343099
0.00157989
0.000681131
0.000250528
6.74713e-05
2.10234e-06
-1.52447e-05
-1.59015e-05
-1.20049e-05
-7.39863e-06
-3.31934e-06
-1.37495e-06
-5.93234e-07
-2.45359e-07
-9.49179e-08
-3.48206e-08
-1.18303e-08
-3.25829e-09
-2.83729e-10
4.9535e-10
5.00587e-10
3.18256e-10
1.45267e-10
4.62249e-11
2.24442e-11
9.98029e-12
4.00428e-12
1.43726e-12
4.40031e-13
8.82347e-14
-2.8125e-14
-6.99678e-14
-9.05841e-14
-1.14034e-13
-1.4437e-13
-1.57828e-13
-1.63991e-13
-1.68418e-13
-1.83634e-13
-1.91248e-13
-1.85373e-13
-1.67892e-13
-1.39743e-13
-1.09864e-13
-7.91211e-14
-5.1495e-14
-3.1227e-14
-1.55484e-14
-6.20881e-15
-2.54105e-15
-8.87224e-16
-2.42187e-16
-3.43202e-17
3.01899e-18
2.42833e-17
2.92366e-17
2.90873e-17
1.04909e-17
-1.92182e-20
-2.74934e-18
-2.34357e-18
-1.3725e-18
-6.54432e-19
-2.63561e-19
-8.67563e-20
-1.88394e-20
2.42222e-21
6.72304e-21
5.94769e-21
4.28383e-21
2.86566e-21
1.86881e-21
1.21753e-21
7.86274e-22
5.08069e-22
3.2467e-22
2.03447e-22
1.241e-22
7.2424e-23
3.99389e-23
2.04184e-23
9.30949e-24
3.79488e-24
1.2968e-24
2.7923e-25
-5.72071e-26
-1.18333e-25
-9.09428e-26
-5.15307e-26
-2.35627e-26
-8.68639e-27
-2.51845e-27
-6.01345e-28
-2.23307e-28
-1.82763e-28
-1.3814e-28
-7.45353e-29
-2.8302e-29
-6.74565e-30
-2.43854e-31
-2.90767e-31
-9.37423e-31
1.03632e-29
3.05616e-29
3.84498e-29
2.9613e-29
1.41632e-29
1.51772e-30
-4.99007e-30
-6.46854e-30
-5.33911e-30
-3.50833e-30
-1.94425e-30
-9.19246e-31
-3.63449e-31
-1.11153e-31
-1.8229e-32
6.21127e-33
7.77527e-33
4.74861e-33
2.24461e-33
9.04145e-34
3.18817e-34
9.8457e-35
2.60348e-35
4.38776e-36
-1.28799e-36
-2.13894e-36
-1.65695e-36
-9.83158e-37
-4.7095e-37
-1.77746e-37
-5.33286e-38
-1.04121e-38
9.12729e-40
2.40736e-39
1.66422e-39
-2.66749e-17
-1.98022e-16
2.71291e-15
3.79037e-13
-1.83604e-11
3.75313e-11
-5.42311e-11
1.15262e-10
7.83886e-10
1.7416e-09
3.71592e-09
6.04541e-09
1.6603e-11
1.47719e-09
6.82252e-08
2.54945e-07
7.38499e-07
2.00711e-06
5.35707e-06
1.41223e-05
3.66745e-05
9.25863e-05
0.000228899
0.0005548
0.00129878
0.00288251
0.00614319
0.0126582
0.0243994
0.0442266
0.0787943
0.132505
0.211121
0.313742
0.423462
0.515239
0.586693
0.641091
0.664553
0.675436
0.682339
0.687285
0.689792
0.689136
0.685678
0.677472
0.662339
0.638344
0.607466
0.571111
0.530034
0.485408
0.437802
0.388703
0.33878
0.289355
0.241353
0.195437
0.153255
0.115117
0.0826053
0.0558898
0.0352091
0.0205411
0.0107997
0.00492067
0.00210606
0.000881259
0.000336594
9.68698e-05
5.47379e-06
-2.09919e-05
-2.3598e-05
-1.96047e-05
-1.43409e-05
-8.20791e-06
-3.59666e-06
-1.64196e-06
-7.92602e-07
-3.80058e-07
-1.75854e-07
-7.88126e-08
-3.37056e-08
-1.29216e-08
-3.54525e-09
3.15825e-10
1.44902e-09
1.38272e-09
9.32756e-10
4.90386e-10
1.87114e-10
6.23814e-11
3.39124e-11
1.68398e-11
8.16554e-12
5.61338e-12
1.91957e-12
8.90839e-13
8.26981e-13
8.62568e-13
2.95406e-13
-3.69926e-13
-7.33398e-13
-8.26142e-13
-7.78971e-13
-6.63911e-13
-5.23216e-13
-3.87649e-13
-2.71911e-13
-1.85096e-13
-1.21834e-13
-7.46065e-14
-4.16783e-14
-1.92182e-14
-9.33504e-15
-4.62152e-15
-2.26964e-15
-1.09546e-15
-5.2637e-16
-2.57546e-16
-7.3406e-17
-1.00578e-17
3.85216e-18
3.95206e-18
2.11183e-18
9.08531e-19
3.638e-19
1.55766e-19
7.97619e-20
4.8248e-20
3.16708e-20
2.11367e-20
1.4129e-20
9.46228e-21
6.33871e-21
4.27391e-21
2.8731e-21
1.92134e-21
1.26902e-21
8.23351e-22
5.22355e-22
3.21613e-22
1.91069e-22
1.0831e-22
5.75431e-23
2.88305e-23
1.33156e-23
5.48503e-24
1.8435e-24
3.39864e-25
-1.53738e-25
-2.30919e-25
-1.74732e-25
-1.01778e-25
-4.92971e-26
-1.99508e-26
-6.63392e-27
-1.7794e-27
-4.43438e-28
-1.92222e-28
-1.41716e-28
-9.93601e-29
-5.81718e-29
-2.33966e-29
3.30836e-29
8.81751e-29
8.65798e-29
2.22821e-29
-5.05688e-29
-9.39965e-29
-1.02633e-28
-8.87432e-29
-6.64784e-29
-4.49571e-29
-2.80181e-29
-1.62371e-29
-8.76251e-30
-4.38539e-30
-2.01628e-30
-8.36858e-31
-3.02446e-31
-8.63115e-32
-1.15463e-32
7.88718e-33
9.23858e-33
6.40286e-33
3.6871e-33
1.92259e-33
9.38115e-34
4.34093e-34
1.90817e-34
7.92253e-35
3.06947e-35
1.08821e-35
3.40731e-36
8.53225e-37
1.00456e-37
-6.43527e-38
-6.73182e-38
-4.26728e-38
-3.44429e-18
-2.05269e-16
1.42037e-15
3.24473e-13
-2.61694e-12
-1.72389e-12
-2.95278e-12
3.35008e-11
1.25988e-10
3.81022e-10
9.97553e-10
2.3444e-09
6.59774e-09
1.67151e-08
4.49984e-08
1.29908e-07
3.81182e-07
1.08963e-06
3.0383e-06
8.36733e-06
2.27307e-05
6.05412e-05
0.000156572
0.000386801
0.000904435
0.0019989
0.00416019
0.00816429
0.0151765
0.0267963
0.0452995
0.0734035
0.115524
0.177251
0.257
0.341783
0.420953
0.490174
0.547911
0.594118
0.629153
0.656078
0.676522
0.690737
0.697795
0.69761
0.692592
0.67992
0.658758
0.630728
0.59657
0.55731
0.513741
0.467207
0.41863
0.369289
0.320287
0.272325
0.226683
0.183566
0.144346
0.109521
0.0797271
0.0554125
0.0363711
0.0222618
0.0125778
0.00643925
0.00282158
0.0011421
0.000444717
0.000151306
2.79731e-05
-1.71349e-05
-2.83679e-05
-2.80476e-05
-2.36043e-05
-1.82136e-05
-1.10099e-05
-5.40116e-06
-2.72312e-06
-1.48649e-06
-8.29547e-07
-4.57577e-07
-2.45119e-07
-1.2675e-07
-6.23569e-08
-2.82934e-08
-1.09316e-08
-2.6859e-09
7.00197e-10
1.65851e-09
1.5515e-09
1.12448e-09
7.17087e-10
4.56264e-10
3.22514e-10
2.60912e-10
1.98132e-10
1.3862e-10
7.8332e-11
3.99719e-11
2.07333e-11
1.08979e-11
5.44157e-12
2.43168e-12
9.49194e-13
2.80135e-13
-1.79324e-14
-1.60251e-13
-2.24225e-13
-2.4285e-13
-2.20526e-13
-1.79392e-13
-1.16595e-13
-6.85665e-14
-3.69285e-14
-1.82452e-14
-8.13898e-15
-3.13016e-15
-8.9295e-16
-1.11973e-16
1.11069e-16
1.13235e-16
7.2741e-17
3.91752e-17
1.9067e-17
8.64903e-18
3.70793e-18
1.50847e-18
5.7567e-19
1.99271e-19
5.67436e-20
7.50409e-21
-6.51908e-21
-8.29631e-21
-6.57613e-21
-4.44384e-21
-2.72785e-21
-1.54641e-21
-8.10155e-22
-3.78753e-22
-1.46742e-22
-3.46339e-23
1.1607e-23
2.31555e-23
2.03855e-23
1.41944e-23
8.47359e-24
4.39429e-24
1.93384e-24
6.54077e-25
1.00567e-25
-7.69986e-26
-9.44616e-26
-6.38557e-26
-3.21887e-26
-1.22264e-26
-2.97645e-27
1.81582e-28
7.54786e-28
6.00202e-28
3.57601e-28
2.76501e-28
2.48017e-28
6.95381e-29
-2.50431e-28
-5.01678e-28
-5.7738e-28
-5.16979e-28
-3.98426e-28
-2.78983e-28
-1.83793e-28
-1.16459e-28
-7.17392e-29
-4.30074e-29
-2.49566e-29
-1.38984e-29
-7.35644e-30
-3.66195e-30
-1.69165e-30
-7.10303e-31
-2.59607e-31
-7.23017e-32
-5.13377e-33
1.2738e-32
1.33428e-32
9.60465e-33
5.92792e-33
3.34015e-33
1.76135e-33
8.77982e-34
4.14644e-34
1.84918e-34
7.7211e-35
2.97787e-35
1.02898e-35
2.93041e-36
4.83476e-37
-3.26938e-37
-1.64744e-18
-2.09727e-16
1.38995e-15
7.08012e-14
-5.31305e-14
1.78281e-13
3.58793e-12
1.72036e-11
6.19476e-11
2.22172e-10
7.39253e-10
2.36956e-09
7.4389e-09
2.2215e-08
6.3793e-08
1.82222e-07
5.15778e-07
1.42838e-06
3.86327e-06
1.02729e-05
2.69295e-05
6.91796e-05
0.000172176
0.000410074
0.000926416
0.0019791
0.00399213
0.00760664
0.0137364
0.0235716
0.0385022
0.0601681
0.0904298
0.131828
0.186465
0.251691
0.321818
0.3915
0.456764
0.515267
0.565496
0.608128
0.64343
0.670894
0.690096
0.699946
0.700703
0.695381
0.681282
0.659428
0.630522
0.59551
0.555338
0.51132
0.464596
0.416481
0.368248
0.320835
0.275314
0.232011
0.191811
0.15504
0.122131
0.0934463
0.0690714
0.0491282
0.0334071
0.0215951
0.0130588
0.00733665
0.00378499
0.00167528
0.000662878
0.000246178
7.35686e-05
2.13396e-06
-2.5498e-05
-3.35291e-05
-3.37695e-05
-2.99814e-05
-2.50811e-05
-1.7783e-05
-1.09514e-05
-5.96065e-06
-3.39453e-06
-2.01791e-06
-1.20696e-06
-7.16362e-07
-4.16105e-07
-2.32627e-07
-1.23777e-07
-6.18219e-08
-2.81893e-08
-1.09428e-08
-2.71977e-09
7.51734e-10
1.91381e-09
2.06347e-09
1.83342e-09
1.54249e-09
1.2194e-09
9.21014e-10
6.43364e-10
4.05311e-10
2.48628e-10
1.50434e-10
9.03806e-11
5.27403e-11
2.89406e-11
1.43528e-11
6.00505e-12
1.74814e-12
-4.46965e-14
-6.0511e-13
-5.74721e-13
-3.8306e-13
-2.12402e-13
-1.01813e-13
-4.21208e-14
-1.46801e-14
-3.839e-15
-2.39438e-16
5.92174e-16
5.94039e-16
3.97163e-16
2.25068e-16
1.1558e-16
5.52619e-17
2.48703e-17
1.05313e-17
4.12486e-18
1.42366e-18
3.66544e-19
-1.9801e-21
-9.99388e-20
-1.02543e-19
-7.88746e-20
-5.37375e-20
-3.40305e-20
-2.04046e-20
-1.16897e-20
-6.39118e-21
-3.32782e-21
-1.63668e-21
-7.46345e-22
-3.09781e-22
-1.10289e-22
-2.70499e-23
2.2055e-24
8.9447e-24
7.84793e-24
5.05362e-24
2.7185e-24
1.23943e-24
4.65325e-25
1.23858e-25
5.36797e-27
-1.91986e-26
-1.49182e-26
-6.89984e-27
-2.22982e-27
-3.10159e-28
2.22575e-28
-1.70082e-28
-1.13322e-27
-2.01776e-27
-2.39225e-27
-2.13364e-27
-1.56269e-27
-9.98057e-28
-5.82388e-28
-3.26108e-28
-1.85047e-28
-1.11157e-28
-7.12369e-29
-4.73477e-29
-3.14131e-29
-2.02142e-29
-1.24069e-29
-7.19646e-30
-3.92041e-30
-1.99286e-30
-9.34514e-31
-3.94589e-31
-1.41365e-31
-3.46012e-32
3.56004e-33
1.2875e-32
1.19256e-32
8.48889e-33
5.3111e-33
3.05141e-33
1.6394e-33
8.29652e-34
3.96022e-34
1.77757e-34
7.4325e-35
2.83433e-35
9.4751e-36
9.31762e-37
-8.21498e-19
-2.03467e-16
1.33913e-15
1.84318e-14
3.29548e-14
6.40736e-13
3.53889e-12
1.60452e-11
6.4902e-11
2.41663e-10
8.34079e-10
2.70734e-09
8.39382e-09
2.53248e-08
7.38283e-08
2.10939e-07
5.90781e-07
1.61246e-06
4.29355e-06
1.12233e-05
2.88784e-05
7.27327e-05
0.000177336
0.000414096
0.00091909
0.00193168
0.00384142
0.00723589
0.0129381
0.0220155
0.0357297
0.055454
0.0825064
0.118085
0.16326
0.217797
0.279524
0.344695
0.409484
0.470923
0.526623
0.57596
0.618277
0.652846
0.679072
0.696266
0.702571
0.700386
0.691507
0.673548
0.647621
0.614729
0.576008
0.532875
0.486737
0.439043
0.391198
0.34435
0.299475
0.257122
0.217878
0.181963
0.149537
0.120681
0.0953566
0.0736021
0.0552759
0.0402864
0.0283586
0.0192076
0.0124777
0.00766519
0.00442448
0.00238971
0.00117211
0.000476829
0.000170109
4.27795e-05
-1.04732e-05
-3.13859e-05
-3.87492e-05
-3.97978e-05
-3.70556e-05
-3.24968e-05
-2.60769e-05
-1.87483e-05
-1.27133e-05
-8.14553e-06
-4.7907e-06
-2.73835e-06
-1.58125e-06
-9.1363e-07
-5.20979e-07
-2.92111e-07
-1.57839e-07
-7.95678e-08
-3.53e-08
-1.24747e-08
-2.07706e-09
1.97697e-09
3.16694e-09
3.22696e-09
2.86425e-09
2.38217e-09
1.70921e-09
1.13876e-09
7.05535e-10
4.02337e-10
2.08399e-10
9.58895e-11
3.72905e-11
1.05144e-11
5.87822e-13
-1.7714e-12
-1.61636e-12
-1.15051e-12
-6.67452e-13
-3.32653e-13
-1.44822e-13
-5.44921e-14
-1.67758e-14
-3.30753e-15
6.97144e-16
1.23984e-15
1.00273e-15
6.26442e-16
3.43963e-16
1.73351e-16
8.15341e-17
3.58514e-17
1.45246e-17
5.18631e-18
1.40601e-18
4.79617e-20
-3.28147e-19
-3.48902e-19
-2.68969e-19
-1.81459e-19
-1.13138e-19
-6.66286e-20
-3.74606e-20
-2.01655e-20
-1.03962e-20
-5.11438e-21
-2.37957e-21
-1.02947e-21
-3.96732e-22
-1.20581e-22
-1.36415e-23
1.89112e-23
2.25421e-23
1.71973e-23
1.09297e-23
6.10473e-24
3.04989e-24
1.33826e-24
4.912e-25
1.26783e-25
-4.46985e-28
-3.08864e-26
-2.9909e-26
-2.24554e-26
-1.61176e-26
-1.27958e-26
-1.0642e-26
-8.11645e-27
-5.17906e-27
-2.58774e-27
-8.86293e-28
-3.78536e-29
2.46061e-28
2.51997e-28
1.67557e-28
8.28243e-29
2.60183e-29
-3.30511e-30
-1.41595e-29
-1.52244e-29
-1.23289e-29
-8.61941e-30
-5.44525e-30
-3.16625e-30
-1.70444e-30
-8.46702e-31
-3.82539e-31
-1.51174e-31
-4.63312e-32
-4.71618e-33
8.17681e-33
9.63044e-33
7.50746e-33
4.94778e-33
2.94255e-33
1.62035e-33
8.35328e-34
4.04339e-34
1.83203e-34
7.68731e-35
2.94243e-35
5.71298e-36
-7.12478e-19
-1.87369e-16
1.23353e-15
1.3395e-14
1.0123e-13
6.05389e-13
3.25324e-12
1.47406e-11
6.0137e-11
2.24406e-10
7.7675e-10
2.52747e-09
7.84937e-09
2.37123e-08
6.92646e-08
1.98201e-07
5.55813e-07
1.51878e-06
4.04659e-06
1.05753e-05
2.7182e-05
6.83608e-05
0.000166447
0.000388178
0.000860593
0.00180681
0.00358926
0.00675366
0.0120622
0.0205028
0.033257
0.0516228
0.0768552
0.110042
0.151783
0.201838
0.258935
0.320541
0.383527
0.445095
0.502699
0.555028
0.601149
0.640108
0.670814
0.692008
0.702049
0.702361
0.696088
0.679196
0.653254
0.619401
0.579196
0.53441
0.486867
0.438255
0.390079
0.34359
0.299576
0.258708
0.221281
0.187457
0.157201
0.130372
0.106767
0.0861966
0.0684419
0.0533457
0.0407135
0.0303539
0.0220668
0.015587
0.0106743
0.00707182
0.00451325
0.00274326
0.00158072
0.000855932
0.000425841
0.000174103
3.96639e-05
-1.49894e-05
-3.54457e-05
-4.16655e-05
-4.23557e-05
-3.97106e-05
-3.47419e-05
-2.84692e-05
-2.15544e-05
-1.5524e-05
-1.07071e-05
-7.08406e-06
-4.48527e-06
-2.7238e-06
-1.57636e-06
-8.64711e-07
-4.42216e-07
-2.15323e-07
-1.03181e-07
-4.59183e-08
-1.65415e-08
-2.24485e-09
3.69433e-09
5.12511e-09
4.33719e-09
3.17062e-09
2.01708e-09
1.14236e-09
5.78551e-10
2.5912e-10
9.86777e-11
2.82315e-11
2.87519e-12
-3.40234e-12
-3.41191e-12
-2.39259e-12
-1.39637e-12
-7.02756e-13
-3.11763e-13
-1.2181e-13
-4.03311e-14
-1.00239e-14
-7.33348e-16
1.45512e-15
1.51678e-15
1.04255e-15
6.02277e-16
3.12748e-16
1.49495e-16
6.59873e-17
2.64537e-17
9.11733e-18
2.19531e-18
-1.85525e-19
-7.60389e-19
-7.13711e-19
-5.16525e-19
-3.30997e-19
-1.96422e-19
-1.09991e-19
-5.85937e-20
-2.97528e-20
-1.4348e-20
-6.50767e-21
-2.71289e-21
-9.77858e-22
-2.44506e-22
2.73004e-23
1.00813e-22
9.88182e-23
7.5385e-23
5.075e-23
3.15882e-23
1.83821e-23
1.00676e-23
5.14457e-24
2.42101e-24
1.0196e-24
3.71157e-25
9.65153e-26
-2.18619e-28
-2.67882e-26
-2.82169e-26
-2.05474e-26
-1.05825e-26
-2.29863e-27
2.84337e-27
4.67848e-27
4.37078e-27
3.23064e-27
2.04869e-27
1.14687e-27
5.68893e-28
2.43926e-28
8.18399e-29
1.13633e-29
-1.32932e-29
-1.77974e-29
-1.49982e-29
-1.06046e-29
-6.7547e-30
-3.97385e-30
-2.17714e-30
-1.11016e-30
-5.21759e-31
-2.20335e-31
-7.81919e-32
-1.80071e-32
3.41323e-33
8.38043e-33
7.47963e-33
5.21475e-33
3.19333e-33
1.78782e-33
9.3036e-34
4.52628e-34
2.05544e-34
8.62476e-35
3.28875e-35
6.40957e-36
1.16439e-17
-1.72797e-16
1.02056e-15
1.18464e-14
7.23545e-14
1.89409e-13
2.10252e-12
1.18839e-11
4.73897e-11
1.74572e-10
5.97096e-10
1.93394e-09
6.01422e-09
1.82382e-08
5.34547e-08
1.54015e-07
4.37014e-07
1.21167e-06
3.27528e-06
8.67481e-06
2.2586e-05
5.75544e-05
0.000142063
0.000335928
0.000754832
0.00160483
0.00322454
0.00612836
0.0110392
0.0188978
0.0308314
0.0480823
0.0718618
0.103249
0.142841
0.190431
0.244978
0.30451
0.366394
0.428027
0.48694
0.541736
0.591536
0.634805
0.6695
0.692831
0.702637
0.702425
0.69492
0.674502
0.643125
0.60304
0.556912
0.507187
0.456216
0.405838
0.357455
0.312162
0.270325
0.232564
0.198719
0.168799
0.142519
0.119558
0.0995946
0.0822774
0.0673194
0.0544568
0.0434734
0.034188
0.0264387
0.0200712
0.0149363
0.010877
0.0077393
0.00536967
0.00362303
0.00237114
0.00150031
0.000908729
0.000517243
0.000270051
0.000121264
3.64445e-05
-9.15938e-06
-3.15008e-05
-3.8473e-05
-3.65894e-05
-3.30252e-05
-2.72705e-05
-2.11748e-05
-1.56317e-05
-1.10235e-05
-7.44075e-06
-4.79717e-06
-2.9489e-06
-1.71837e-06
-9.42481e-07
-4.79048e-07
-2.20018e-07
-8.51534e-08
-2.18637e-08
2.55737e-09
8.21829e-09
7.5466e-09
5.49588e-09
3.44611e-09
1.8951e-09
9.23794e-10
3.9609e-10
1.42804e-10
3.80902e-11
2.82066e-12
-4.74419e-12
-4.76795e-12
-3.0662e-12
-1.77569e-12
-8.87287e-13
-3.91922e-13
-1.53308e-13
-5.17012e-14
-1.37289e-14
-1.71149e-15
1.33875e-15
1.58811e-15
1.11345e-15
6.39962e-16
3.25766e-16
1.50277e-16
6.256e-17
2.26278e-17
6.19123e-18
3.17884e-19
-1.25032e-18
-1.30044e-18
-9.54386e-19
-6.04026e-19
-3.49105e-19
-1.88345e-19
-9.56256e-20
-4.55888e-20
-2.01783e-20
-8.0116e-21
-2.58903e-21
-3.95163e-22
3.456e-22
4.8888e-22
4.25547e-22
3.15872e-22
2.16292e-22
1.41368e-22
8.93491e-23
5.50684e-23
3.30893e-23
1.93731e-23
1.09815e-23
5.98903e-24
3.11676e-24
1.56586e-24
7.55533e-25
3.66001e-25
1.82396e-25
1.00705e-25
6.60215e-26
4.95491e-26
3.75745e-26
2.66974e-26
1.7168e-26
9.93013e-27
5.16432e-27
2.38573e-27
9.40526e-28
2.74783e-28
1.23739e-29
-6.55762e-29
-7.11446e-29
-5.50108e-29
-3.69005e-29
-2.27524e-29
-1.31901e-29
-7.24508e-30
-3.77514e-30
-1.85784e-30
-8.53558e-31
-3.57109e-31
-1.28309e-31
-3.2509e-32
1.78003e-33
1.02964e-32
9.63262e-33
6.74493e-33
4.09448e-33
2.25757e-33
1.15215e-33
5.48307e-34
2.43192e-34
9.95666e-35
3.66514e-35
1.13514e-35
5.62713e-37
7.75616e-18
-1.56338e-16
8.52797e-16
1.32289e-14
3.86401e-13
-1.36613e-12
-1.30208e-12
9.22832e-12
3.92729e-11
1.48446e-10
5.02215e-10
1.50294e-09
4.40104e-09
1.26039e-08
3.42616e-08
9.75477e-08
2.83649e-07
8.14237e-07
2.28337e-06
6.28985e-06
1.70095e-05
4.49516e-05
0.000114881
0.000280522
0.000648588
0.00141331
0.00289934
0.00560607
0.0102411
0.0177279
0.0291719
0.0457817
0.068731
0.0990157
0.137253
0.183426
0.236735
0.295629
0.357708
0.420484
0.482144
0.541623
0.596997
0.644394
0.679411
0.698555
0.701822
0.695585
0.677434
0.644084
0.597175
0.543774
0.487724
0.43171
0.378009
0.32798
0.282372
0.241704
0.205635
0.174492
0.147537
0.124526
0.104882
0.0881301
0.0738521
0.0616306
0.0511756
0.042208
0.0345199
0.0279543
0.0223638
0.0176563
0.0137281
0.0104956
0.00787928
0.00579809
0.00417455
0.00293421
0.00200771
0.00133189