/*--------------------------------*- C++ -*----------------------------------*\
| =========                 |                                                 |
| \\      /  F ield         | OpenFOAM: The Open Source CFD Toolbox           |
|  \\    /   O peration     | Version:  2506                                  |
|   \\  /    A nd           | Website:  www.openfoam.com                      |
|    \\/     M anipulation  |                                                 |
\*---------------------------------------------------------------------------*/
FoamFile
{
    version     2.0;
    format      ascii;
    arch        "LSB;label=32;scalar=64";
    class       volVectorField;
    location    "1";
    object      U;
}
// * * * * * * * * * * * * * * * * * * * * * * * * * * * * * * * * * * * * * //

dimensions      [0 1 -1 0 0 0 0];

internalField   nonuniform List<vector> 
4000
(
(0.00798683 0.000745645 0)
(0.00721208 0.000874467 -4.58994e-21)
(0.00604205 0.000505384 4.75491e-21)
(0.00498149 0.000237925 9.60233e-21)
(0.00437552 0.000119408 -1.94576e-20)
(0.00404041 6.74477e-05 9.79593e-21)
(0.00382336 4.33141e-05 0)
(0.00366923 3.21799e-05 0)
(0.00355456 2.72588e-05 0)
(0.00346445 2.52428e-05 1.94085e-20)
(0.00339012 2.45814e-05 -1.94432e-20)
(0.00332689 2.45887e-05 3.85742e-20)
(0.00327199 2.49706e-05 -3.86233e-20)
(0.00322352 2.55886e-05 0)
(0.00318003 2.6372e-05 0)
(0.00314038 2.72871e-05 0)
(0.00310363 2.83154e-05 3.78546e-20)
(0.00306889 2.94567e-05 -3.78828e-20)
(0.0030354 3.0718e-05 0)
(0.00300238 3.21078e-05 0)
(0.00296911 3.36357e-05 0)
(0.0029349 3.5312e-05 0)
(0.00289901 3.71434e-05 0)
(0.00286071 3.91422e-05 7.35981e-20)
(0.00281921 4.1325e-05 -1.46973e-19)
(0.00277363 4.37157e-05 7.33802e-20)
(0.00272295 4.63553e-05 0)
(0.00266592 4.93146e-05 0)
(0.00260099 5.27109e-05 0)
(0.00252606 5.67473e-05 0)
(0.00243812 6.18221e-05 -7.19111e-20)
(0.0023328 6.88059e-05 7.20598e-20)
(0.00220623 7.80857e-05 0)
(0.00201595 9.56406e-05 6.2683e-20)
(0.00179141 0.000154546 7.15916e-20)
(0.00164784 0.000265903 -3.60787e-19)
(0.00160563 0.000404159 -2.89314e-19)
(0.00161228 0.000547116 7.26641e-20)
(0.0016495 0.000695389 -2.90015e-19)
(0.00172759 0.000856003 -6.50461e-19)
(0.00188933 0.00103987 7.20334e-20)
(0.00215836 0.00123569 5.69938e-19)
(0.00245602 0.00140727 -5.65326e-19)
(0.0027384 0.00154911 0)
(0.00301454 0.00166849 0)
(0.00328073 0.00176594 -3.42646e-20)
(0.00354789 0.00184266 -5.10196e-19)
(0.00380762 0.00188963 -5.06724e-19)
(0.00404993 0.00190657 -3.01497e-19)
(0.00428949 0.00189275 -2.64495e-19)
(0.00450844 0.00184112 2.61164e-19)
(0.00471207 0.00175613 0)
(0.00488835 0.00162816 -3.17449e-20)
(0.00503289 0.00146766 5.36981e-19)
(0.00514113 0.00126694 0)
(0.00519681 0.00103774 -1.23351e-19)
(0.00520895 0.000782921 -3.02552e-20)
(0.00514913 0.000513198 -1.60262e-23)
(0.00505468 0.000248464 -4.29983e-22)
(0.00488971 -2.05999e-05 -1.50644e-20)
(0.00467836 -0.000262072 2.88192e-20)
(0.00444491 -0.000478072 0)
(0.00418079 -0.000661197 0)
(0.0039199 -0.000808986 5.55808e-20)
(0.00364883 -0.000924559 3.86391e-19)
(0.00339656 -0.00100785 5.42044e-20)
(0.00315162 -0.00106547 -5.45602e-20)
(0.00292903 -0.00109928 5.28344e-20)
(0.00272309 -0.00111512 1.56965e-19)
(0.00253438 -0.00111421 -3.62518e-19)
(0.0023685 -0.00110216 -5.13573e-20)
(0.00221138 -0.00108037 1.08536e-21)
(0.0020714 -0.00105096 0)
(0.00194434 -0.00101692 0)
(0.00182495 -0.000978336 0)
(0.00171728 -0.000937041 -2.40503e-20)
(0.0016189 -0.000894613 -3.58413e-19)
(0.00152674 -0.000851191 0)
(0.001443 -0.000807678 9.84578e-22)
(0.00136695 -0.000764946 2.31461e-20)
(0.00129706 -0.000723111 -3.68403e-19)
(0.00123353 -0.000682383 3.3162e-19)
(0.00117559 -0.000642872 7.02602e-23)
(0.00112247 -0.000604418 3.64299e-19)
(0.00107456 -0.000567167 2.01446e-21)
(0.00103008 -0.000530954 -3.49673e-19)
(0.00098796 -0.00049533 -3.5208e-19)
(0.000950068 -0.000460627 3.55039e-19)
(0.00091427 -0.000426908 -5.37513e-21)
(0.000879577 -0.000393693 -3.4006e-19)
(0.000848945 -0.000361458 0)
(0.000820051 -0.000330416 -3.4413e-19)
(0.000792998 -0.000300214 -3.20204e-19)
(0.000770651 -0.000271334 3.27481e-19)
(0.000749734 -0.000243638 -1.82495e-19)
(0.000734815 -0.000216953 2.00907e-20)
(0.000722641 -0.000191416 1.59069e-19)
(0.000716806 -0.000166037 1.96383e-20)
(0.000714423 -0.000140685 1.36533e-19)
(0.000718938 -0.000114212 9.66105e-20)
(0.00072948 -8.69983e-05 -3.83533e-20)
(0.000747626 -5.8538e-05 9.52469e-20)
(0.000773395 -2.94719e-05 -9.48321e-21)
(0.000804404 1.75155e-06 -9.44169e-21)
(0.000843203 3.75318e-05 -3.75993e-20)
(0.000889841 7.7791e-05 0)
(0.00094372 0.000124023 0)
(0.00100703 0.000175759 -2.95021e-19)
(0.00107672 0.00023373 -9.37002e-21)
(0.00115441 0.000298593 1.54655e-19)
(0.00123854 0.000369992 1.49774e-19)
(0.0013284 0.000447687 4.67463e-21)
(0.00142349 0.000531374 -1.5454e-19)
(0.00152232 0.000619902 -3.0391e-22)
(0.00162255 0.00071292 0)
(0.00172816 0.000809092 2.97839e-19)
(0.00183151 0.000905868 -9.24241e-21)
(0.0019358 0.00100239 -2.76146e-19)
(0.00203941 0.00109628 -9.22249e-21)
(0.00213775 0.00118637 -2.92279e-19)
(0.0022338 0.00127277 -1.12906e-21)
(0.00232768 0.00135379 2.88166e-19)
(0.00241601 0.00142799 1.77642e-20)
(0.00250074 0.00149581 -3.18655e-19)
(0.00258415 0.00155664 1.76361e-20)
(0.00266469 0.00160979 2.77588e-19)
(0.00274424 0.00165561 3.40674e-20)
(0.00282374 0.00169399 -3.4148e-20)
(0.00290377 0.00172539 2.67799e-19)
(0.00298884 0.0017509 -2.29887e-19)
(0.00307922 0.0017686 -3.28398e-20)
(0.00317072 0.00177894 -4.79787e-19)
(0.00327423 0.00178412 -3.18628e-20)
(0.00338927 0.00177976 -2.48302e-19)
(0.00350652 0.00176575 1.59418e-21)
(0.00364226 0.00174409 0)
(0.00378966 0.00170575 0)
(0.00393718 0.00165412 -7.48627e-22)
(0.00410066 0.00158375 0)
(0.00426165 0.0014922 -2.703e-20)
(0.00442271 0.00137632 -7.92297e-20)
(0.00457292 0.00123283 -2.56488e-20)
(0.00469985 0.00106092 -5.02144e-20)
(0.00480154 0.000862821 -2.50644e-20)
(0.0048534 0.000637491 -7.13872e-20)
(0.00486397 0.000400438 2.35059e-20)
(0.00481254 0.000143612 0)
(0.00469039 -0.000100644 0)
(0.00452854 -0.000331764 0)
(0.00430783 -0.000534942 -2.01657e-20)
(0.00406743 -0.000703982 2.02283e-20)
(0.00379138 -0.000842414 7.72017e-20)
(0.00351158 -0.000939992 7.50327e-20)
(0.00322469 -0.00100542 0)
(0.00294867 -0.00103665 -7.08898e-20)
(0.002674 -0.00103854 0)
(0.00240957 -0.00101207 -1.62734e-20)
(0.00214878 -0.000961586 8.19508e-20)
(0.00188606 -0.000881947 -1.5764e-20)
(0.0016066 -0.000749901 2.66137e-19)
(0.00149619 -0.00061454 -6.1495e-20)
(0.00147864 -0.000508483 -6.03859e-20)
(0.00145621 -0.000413079 0)
(0.00144216 -0.000322864 0)
(0.0014612 -0.000237013 0)
(0.0015225 -0.000162071 0)
(0.00164923 -0.000102811 0)
(0.00182795 -7.5735e-05 1.26807e-20)
(0.00199899 -6.93302e-05 -3.44207e-22)
(0.0021585 -6.81642e-05 -3.54877e-22)
(0.00231569 -6.73495e-05 -1.19195e-20)
(0.00246729 -6.57221e-05 0)
(0.0026077 -6.30071e-05 1.07021e-20)
(0.00273229 -5.92974e-05 -1.06643e-20)
(0.00283795 -5.48379e-05 3.13144e-22)
(0.00292322 -4.9946e-05 0)
(0.00298813 -4.48537e-05 0)
(0.00303406 -3.96928e-05 -8.55212e-21)
(0.00306326 -3.49422e-05 8.53816e-21)
(0.00307856 -3.05129e-05 0)
(0.0030828 -2.67255e-05 0)
(0.00307863 -2.37609e-05 -3.21895e-21)
(0.0030687 -2.14806e-05 2.00777e-22)
(0.00305556 -1.95992e-05 3.23254e-21)
(0.00304127 -1.80614e-05 0)
(0.00302741 -1.67859e-05 0)
(0.00301512 -1.5718e-05 0)
(0.00300503 -1.48243e-05 0)
(0.00299749 -1.40983e-05 1.33981e-22)
(0.00299243 -1.34874e-05 0)
(0.00298934 -1.29186e-05 0)
(0.00298764 -1.22007e-05 0)
(0.00298674 -1.12678e-05 6.47182e-22)
(0.00298591 -1.0138e-05 -6.46356e-22)
(0.00298442 -8.78857e-06 0)
(0.00298156 -7.22787e-06 5.16422e-23)
(0.00297666 -5.35731e-06 1.37399e-22)
(0.00296835 -3.11978e-06 -9.16534e-23)
(0.00295263 5.96111e-07 -4.55418e-23)
(0.00292442 1.09305e-05 0)
(0.00987725 0.00142576 0)
(0.0104338 0.00199421 0)
(0.0101834 0.00163475 0)
(0.00947464 0.00114212 9.448e-21)
(0.00877589 0.000749852 -1.92303e-20)
(0.00824452 0.000490671 9.74771e-21)
(0.00783564 0.000335375 0)
(0.00750832 0.00024456 1.96258e-20)
(0.00724277 0.00018925 -1.97683e-20)
(0.00702343 0.000153243 1.96936e-20)
(0.00683801 0.000128179 -1.97888e-20)
(0.0066784 0.000109678 -3.93619e-20)
(0.0065392 9.54639e-05 3.95007e-20)
(0.0064164 8.43175e-05 3.92463e-20)
(0.0063068 7.55324e-05 -1.87077e-22)
(0.00620776 6.86848e-05 -7.83347e-20)
(0.00611699 6.35241e-05 3.91595e-20)
(0.00603247 5.98888e-05 0)
(0.00595232 5.77041e-05 0)
(0.00587483 5.69035e-05 0)
(0.00579834 5.74348e-05 0)
(0.00572128 5.92836e-05 0)
(0.00564212 6.24689e-05 0)
(0.00555933 6.70445e-05 0)
(0.00547133 7.31102e-05 0)
(0.00537647 8.08429e-05 0)
(0.00527296 9.05424e-05 0)
(0.00515873 0.000102591 0)
(0.00503139 0.000117618 0)
(0.00488796 0.000136612 0)
(0.00472473 0.000161206 -7.52104e-20)
(0.00453683 0.000194318 3.09411e-22)
(0.00432137 0.000241429 1.50613e-19)
(0.0040466 0.000311054 -6.6043e-20)
(0.00374424 0.00044184 -7.54733e-20)
(0.00353769 0.000659262 2.28668e-19)
(0.00347196 0.000940446 -3.07295e-19)
(0.00350723 0.00125562 -7.71412e-20)
(0.00362676 0.00159772 7.74752e-19)
(0.00384475 0.00196704 2.33071e-19)
(0.00420776 0.00236164 0)
(0.00472243 0.00275781 7.5875e-20)
(0.0052908 0.00311918 4.50964e-19)
(0.00585712 0.0034355 7.47681e-20)
(0.00642043 0.00370642 5.88195e-19)
(0.0069742 0.003929 -5.8142e-19)
(0.00752543 0.00409929 2.15322e-21)
(0.0080623 0.00420422 0)
(0.00857443 0.00424161 -2.81381e-19)
(0.00907075 0.00420611 0)
(0.00953276 0.00409076 -7.77873e-22)
(0.00996013 0.00389873 0)
(0.0103356 0.00361873 -2.67296e-19)
(0.0106518 0.00326608 -2.64514e-19)
(0.0108937 0.00283305 0)
(0.0110443 0.00233987 4.11327e-24)
(0.0111048 0.00179563 1.2759e-19)
(0.0110465 0.00121562 3.12346e-20)
(0.0108989 0.000634255 6.20224e-20)
(0.0106253 4.69213e-05 -1.5615e-20)
(0.0102561 -0.000500492 0)
(0.00981452 -0.00100065 1.21743e-19)
(0.00930624 -0.00143902 -6.09039e-20)
(0.00877164 -0.00180819 -1.19886e-19)
(0.00820612 -0.00210323 -3.57066e-19)
(0.0076519 -0.00232918 -5.94497e-20)
(0.00710212 -0.00249273 2.92632e-19)
(0.00658161 -0.00259722 -5.85658e-20)
(0.00608827 -0.00265305 0)
(0.00562611 -0.00266571 5.70608e-20)
(0.00520242 -0.00264364 -5.70915e-20)
(0.00480333 -0.00259296 2.2539e-21)
(0.00443674 -0.00251962 0)
(0.00409863 -0.00242886 -4.43048e-19)
(0.00378286 -0.00232463 -4.38766e-19)
(0.00349214 -0.00221106 2.69882e-20)
(0.00322405 -0.00209161 -2.6939e-20)
(0.00297473 -0.00196909 2.64703e-20)
(0.00274541 -0.0018459 -4.20042e-19)
(0.00253522 -0.00172391 3.91565e-19)
(0.00234219 -0.00160466 -4.13543e-19)
(0.00216578 -0.00148892 -4.20273e-19)
(0.00200462 -0.00137709 2.52771e-20)
(0.00185718 -0.00126941 -4.13546e-19)
(0.00172296 -0.00116602 3.92084e-19)
(0.00159961 -0.00106638 -3.89437e-19)
(0.00148531 -0.000970747 3.88251e-19)
(0.00138093 -0.000879201 -3.82553e-19)
(0.00128405 -0.000791859 -1.18152e-20)
(0.00119375 -0.000709261 1.17398e-20)
(0.00111218 -0.000631894 0)
(0.00103752 -0.000560266 0)
(0.000970594 -0.000495086 1.81033e-19)
(0.000913944 -0.000436607 -2.00647e-19)
(0.000865919 -0.000385202 1.76382e-19)
(0.000831079 -0.000340556 4.35694e-20)
(0.000808433 -0.000302452 1.88832e-22)
(0.000801846 -0.000269817 -7.54193e-23)
(0.00080941 -0.000241222 -3.78202e-19)
(0.000834393 -0.000213634 -6.22048e-20)
(0.00087643 -0.000185103 8.22026e-20)
(0.000936812 -0.000153421 -8.13715e-20)
(0.00101707 -0.000116585 0)
(0.00111725 -7.07776e-05 -1.00002e-20)
(0.0012381 -1.21767e-05 9.97635e-21)
(0.0013784 6.19762e-05 0)
(0.00153659 0.000154217 0)
(0.0017131 0.000265942 1.57804e-19)
(0.00190409 0.000398487 -1.57237e-19)
(0.00210919 0.000552052 1.61836e-19)
(0.0023256 0.000726271 -3.13742e-19)
(0.00255094 0.000919978 -2.37631e-23)
(0.00278312 0.0011314 -4.89643e-21)
(0.00301908 0.00135802 -1.56231e-19)
(0.00325579 0.00159712 0)
(0.00349461 0.0018436 0)
(0.00372742 0.00209497 0)
(0.0039564 0.00234607 3.18441e-19)
(0.00418055 0.00259283 2.96057e-19)
(0.00439607 0.00283209 0)
(0.0046053 0.00306118 -3.42413e-19)
(0.00480846 0.00327678 5.66585e-20)
(0.00500338 0.00347633 -3.74654e-20)
(0.00519288 0.0036587 1.87123e-20)
(0.00538004 0.00382239 -3.66805e-20)
(0.00556483 0.00396657 2.9213e-19)
(0.00575026 0.00409125 -2.52383e-19)
(0.00593868 0.00419645 3.21615e-19)
(0.00613246 0.00428276 -5.67521e-22)
(0.00633676 0.00435075 2.47058e-19)
(0.00655253 0.00439857 0)
(0.00677806 0.00442683 2.74989e-19)
(0.00702406 0.00443593 -3.32913e-20)
(0.00728949 0.00442061 -2.29848e-19)
(0.0075675 0.00437998 2.6164e-19)
(0.0078718 0.00431253 -3.14788e-20)
(0.0081934 0.00420722 3.15897e-20)
(0.00852129 0.00406668 -3.15233e-20)
(0.00886388 0.00388074 3.01994e-20)
(0.00920145 0.00364673 -2.86373e-20)
(0.0095283 0.00335885 1.4255e-19)
(0.00982737 0.00301387 -1.36818e-19)
(0.0100793 0.00261172 1.34754e-19)
(0.0102737 0.00215825 0)
(0.0103784 0.00165462 2.55999e-20)
(0.0103965 0.00112887 -2.42484e-20)
(0.0103003 0.000576132 -1.18749e-20)
(0.0100865 4.00959e-05 0)
(0.0097777 -0.000469743 -2.24278e-20)
(0.00936183 -0.00093042 4.36386e-20)
(0.00888034 -0.00132379 0)
(0.00832356 -0.00165264 -8.29351e-20)
(0.00773748 -0.00189606 -1.99151e-20)
(0.00712238 -0.00206569 2.0029e-20)
(0.0065129 -0.00215795 0)
(0.00589982 -0.00217763 7.58121e-20)
(0.00530142 -0.00212964 -7.36685e-20)
(0.00471499 -0.00202085 7.27338e-20)
(0.00414868 -0.00185299 0)
(0.00358122 -0.00161283 -1.38782e-19)
(0.00323796 -0.00133819 -8.56507e-20)
(0.00305729 -0.00107997 1.50678e-19)
(0.00292962 -0.0008524 -1.61301e-20)
(0.00285166 -0.000659409 1.60443e-20)
(0.00285193 -0.000497519 1.52402e-20)
(0.00294567 -0.000371782 1.45917e-20)
(0.00315657 -0.000287371 -1.28047e-20)
(0.00346198 -0.000253496 -8.70614e-22)
(0.00379452 -0.00024731 0)
(0.00413212 -0.000246762 8.08327e-22)
(0.00446996 -0.000241599 0)
(0.0047961 -0.000227901 -7.4586e-22)
(0.0050977 -0.000205731 -1.12577e-20)
(0.00536483 -0.000177089 1.18655e-20)
(0.00559109 -0.0001446 -9.83749e-22)
(0.00577351 -0.000110868 9.81727e-21)
(0.00591228 -7.8011e-05 -1.8536e-20)
(0.00601017 -4.82718e-05 1.82242e-20)
(0.00607179 -2.21317e-05 -9.41787e-21)
(0.00610282 -6.56034e-07 0)
(0.00610944 1.58741e-05 4.27355e-21)
(0.0060979 2.6749e-05 -4.01314e-21)
(0.00607453 3.39669e-05 -4.32238e-22)
(0.00604474 3.73814e-05 -3.14897e-21)
(0.00601255 3.76655e-05 2.76557e-21)
(0.00598121 3.56495e-05 2.73484e-21)
(0.00595293 3.21268e-05 -3.05999e-21)
(0.00592889 2.78918e-05 2.63195e-21)
(0.00590951 2.36636e-05 -4.593e-21)
(0.00589434 1.97433e-05 2.83641e-21)
(0.00588226 1.65613e-05 -9.62961e-22)
(0.0058718 1.45361e-05 -2.03677e-22)
(0.00586124 1.38369e-05 0)
(0.00584893 1.44545e-05 4.18169e-22)
(0.00583336 1.63398e-05 -5.72409e-22)
(0.00581331 1.95222e-05 2.97378e-23)
(0.00578775 2.41854e-05 -1.90066e-22)
(0.00575563 3.09782e-05 0)
(0.00571416 4.16613e-05 0)
(0.00565422 6.09759e-05 -1.26406e-23)
(0.00987709 0.00089559 0)
(0.0105631 0.00168329 -4.60696e-21)
(0.0110101 0.00172834 4.5831e-21)
(0.0108842 0.00150723 9.11533e-21)
(0.0105984 0.00119672 -9.21606e-21)
(0.0102515 0.000921375 0)
(0.00989991 0.000710696 0)
(0.00957359 0.000561182 0)
(0.00928202 0.000456477 -1.87425e-20)
(0.00902534 0.000381111 3.76608e-20)
(0.00879929 0.00032476 1.87196e-20)
(0.00859931 0.000281114 -3.78188e-20)
(0.00842155 0.000246493 -3.76336e-20)
(0.00826261 0.000218734 3.77875e-20)
(0.00811938 0.000196489 0)
(0.00798907 0.000178889 -3.75083e-20)
(0.00786912 0.000165363 7.50577e-20)
(0.00775719 0.000155514 -3.75395e-20)
(0.00765106 0.000149066 0)
(0.00754864 0.000145818 0)
(0.00744796 0.000145625 0)
(0.00734711 0.000148398 0)
(0.00724422 0.000154108 0)
(0.00713743 0.000162795 -7.36006e-20)
(0.00702489 0.000174586 7.37588e-20)
(0.00690468 0.000189722 0)
(0.00677477 0.000208597 0)
(0.006633 0.000231824 0)
(0.00647693 0.000260315 0)
(0.00630383 0.000295426 0)
(0.00611064 0.000339196 -7.26114e-20)
(0.00589376 0.000394842 7.28575e-20)
(0.00565308 0.00046797 0)
(0.00536825 0.000566032 4.53619e-21)
(0.00506823 0.000715332 0)
(0.00486466 0.000941916 -1.47286e-19)
(0.00481795 0.00123901 2.97761e-19)
(0.00490939 0.00159075 0)
(0.00512569 0.00198982 -5.95588e-19)
(0.00547288 0.00243012 6.40034e-22)
(0.00597736 0.00289631 -7.29319e-20)
(0.00662111 0.00335709 7.24285e-20)
(0.00731605 0.00378468 -5.70953e-19)
(0.00801421 0.00416912 0)
(0.00870863 0.0045038 -6.26028e-19)
(0.00939248 0.00478151 5.84736e-19)
(0.0100679 0.00499392 5.76921e-19)
(0.010724 0.0051285 0)
(0.0113523 0.00518111 2.64054e-19)
(0.0119556 0.00514414 0)
(0.0125186 0.00501318 -5.16131e-19)
(0.0130364 0.00478895 0)
(0.0134935 0.00446438 2.21018e-19)
(0.0138817 0.00405145 2.80743e-19)
(0.0141849 0.00354824 2.47141e-19)
(0.0143895 0.00297297 1.22169e-19)
(0.0144898 0.00233829 1.20651e-19)
(0.014463 0.00165667 5.94345e-20)
(0.0143277 0.000960719 -2.96183e-20)
(0.0140552 0.000255703 -4.37671e-20)
(0.013668 -0.000417374 0)
(0.0131808 -0.00104412 -1.14178e-19)
(0.0126043 -0.00160737 1.13387e-19)
(0.0119722 -0.00209207 0)
(0.0112887 -0.00249631 4.49275e-19)
(0.0105938 -0.00281314 0)
(0.00988904 -0.00305109 5.53567e-20)
(0.0092012 -0.00320757 -5.56686e-20)
(0.00853499 -0.0032983 0)
(0.00789779 -0.00332883 5.45741e-20)
(0.00729933 -0.00330765 -5.47782e-20)
(0.00673173 -0.00324351 -5.95762e-19)
(0.0062016 -0.00314443 3.77702e-19)
(0.00570707 -0.00301773 -1.92849e-21)
(0.00524351 -0.00287022 4.24052e-19)
(0.00481243 -0.00270795 2.62748e-20)
(0.00441215 -0.00253622 -4.46222e-19)
(0.00403945 -0.00235995 0)
(0.00369463 -0.00218303 -4.1368e-19)
(0.00337706 -0.00200843 -7.93779e-19)
(0.00308497 -0.00183862 7.74694e-19)
(0.00281754 -0.00167524 4.16566e-19)
(0.00257337 -0.00151918 -4.12974e-19)
(0.00235069 -0.00137093 4.08008e-19)
(0.00214846 -0.00123069 0)
(0.00196438 -0.00109837 3.88431e-19)
(0.0017962 -0.000974127 4.24136e-21)
(0.00164387 -0.000858126 7.73023e-19)
(0.0015052 -0.000750812 3.54507e-19)
(0.00137884 -0.000653063 3.85828e-19)
(0.0012661 -0.000565656 0)
(0.00116598 -0.000489461 0)
(0.00107905 -0.000425438 -1.80428e-19)
(0.00100781 -0.000374111 0)
(0.000951798 -0.000335389 -2.20086e-20)
(0.000914557 -0.000309079 2.18248e-20)
(0.000896199 -0.000293893 -1.72111e-19)
(0.000899961 -0.000288505 1.70011e-19)
(0.000927151 -0.000289429 1.46727e-19)
(0.000980953 -0.000293442 2.07176e-20)
(0.00106118 -0.000295529 -8.16994e-20)
(0.00116841 -0.000291463 4.03641e-20)
(0.00130432 -0.000275887 -2.99376e-20)
(0.00146714 -0.000243962 9.90615e-21)
(0.0016579 -0.000191917 0)
(0.00187411 -0.000114882 7.78286e-20)
(0.00211376 -1.02071e-05 0)
(0.00237545 0.000124772 1.5376e-19)
(0.00265469 0.000291205 2.62288e-22)
(0.00294953 0.000489123 -1.47809e-19)
(0.00325626 0.000717544 1.51906e-19)
(0.00357133 0.00097442 -4.73359e-21)
(0.00389198 0.00125671 0)
(0.00421419 0.00156062 1.49518e-19)
(0.00453524 0.0018817 -1.48843e-19)
(0.00485439 0.00221426 0)
(0.00516555 0.00255346 9.19496e-21)
(0.0054696 0.00289388 -3.02344e-19)
(0.0057654 0.00323007 -2.74983e-19)
(0.00605054 0.00355719 2.7149e-19)
(0.00632696 0.00387064 -2.87896e-19)
(0.00659536 0.00416603 -1.78339e-20)
(0.00685523 0.00444014 2.66386e-19)
(0.00710958 0.00469068 3.55543e-20)
(0.00736158 0.00491543 3.14062e-19)
(0.0076126 0.00511331 -6.2515e-19)
(0.00786598 0.0052838 3.10943e-19)
(0.00812477 0.00542664 -2.39628e-19)
(0.00839187 0.00554211 2.00469e-19)
(0.00867156 0.0056301 3.30544e-19)
(0.00896536 0.00568898 1.95114e-19)
(0.00927332 0.00571925 3.25231e-20)
(0.00960249 0.00571994 2.20962e-19)
(0.00995155 0.00568601 2.81889e-19)
(0.010316 0.00561629 -3.02041e-20)
(0.0107035 0.00550699 3.02632e-20)
(0.0111048 0.00534904 8.7731e-20)
(0.0115114 0.00514368 2.79461e-20)
(0.0119231 0.00488157 -2.75621e-20)
(0.0123232 0.00456076 2.76188e-20)
(0.0127013 0.00417734 -1.05856e-19)
(0.01304 0.00373021 2.60769e-20)
(0.0133199 0.00322201 -7.69095e-22)
(0.0135276 0.00266002 -2.48853e-20)
(0.0136363 0.00204968 -9.55424e-20)
(0.0136452 0.00141763 0)
(0.0135273 0.000767109 4.45815e-20)
(0.0132806 0.000132993 -2.76392e-20)
(0.0129181 -0.000471256 2.11736e-20)
(0.0124328 -0.00102453 -6.14692e-20)
(0.011857 -0.00150476 -1.98943e-20)
(0.011186 -0.00190671 7.82237e-20)
(0.010461 -0.00221271 9.59241e-20)
(0.00968698 -0.00242609 -3.75684e-20)
(0.0089002 -0.00254805 9.26128e-20)
(0.00809906 -0.00256488 -7.19749e-20)
(0.00730733 -0.00250283 -1.75162e-20)
(0.00652781 -0.00236346 -6.90132e-20)
(0.00578047 -0.00214948 1.73742e-20)
(0.00504524 -0.00186764 -6.7734e-20)
(0.00450959 -0.00154462 6.65483e-20)
(0.00416168 -0.00123645 -4.9095e-20)
(0.00392031 -0.000978108 -1.61594e-20)
(0.00377596 -0.000782662 -3.11876e-20)
(0.00375534 -0.000648644 0)
(0.00387246 -0.000568 -2.89455e-20)
(0.00414244 -0.00053872 2.62389e-20)
(0.00452837 -0.000546747 4.86076e-22)
(0.00495626 -0.000564236 -3.62938e-22)
(0.0053941 -0.000572095 -1.14735e-21)
(0.00582861 -0.000560925 -1.21307e-20)
(0.00624377 -0.000528082 7.17158e-22)
(0.00662452 -0.000476028 0)
(0.00695977 -0.000409897 -6.57756e-22)
(0.00724265 -0.000335635 6.29117e-22)
(0.00747024 -0.000258988 1.05954e-20)
(0.00764323 -0.000184917 -9.93732e-21)
(0.00776517 -0.000117336 -8.52662e-21)
(0.00784182 -5.88576e-05 9.02943e-21)
(0.00788038 -1.10096e-05 0)
(0.00788875 2.57537e-05 -4.67731e-22)
(0.00787516 5.17455e-05 0)
(0.00784698 6.82938e-05 -2.80883e-21)
(0.00781044 7.63601e-05 1.98118e-22)
(0.00777108 7.74963e-05 3.38485e-21)
(0.00773298 7.35666e-05 6.79326e-22)
(0.00769881 6.64419e-05 3.16265e-22)
(0.00767001 5.79631e-05 -2.91917e-22)
(0.00764656 4.9762e-05 0)
(0.00762752 4.2934e-05 2.43646e-22)
(0.00761141 3.83842e-05 8.31479e-22)
(0.00759615 3.66586e-05 -6.33918e-22)
(0.00757943 3.79579e-05 -6.43934e-22)
(0.00755905 4.21869e-05 7.92483e-22)
(0.00753316 4.90562e-05 0)
(0.0075003 5.82707e-05 1.25784e-22)
(0.00745967 6.96858e-05 1.82898e-22)
(0.00741094 8.37123e-05 4.55728e-23)
(0.0073539 0.000101276 -4.55205e-23)
(0.00727526 0.000126355 1.215e-23)
(0.00979414 0.000518894 0)
(0.0103547 0.0012024 0)
(0.0108908 0.0014701 0)
(0.0111199 0.0014628 9.08071e-21)
(0.011118 0.00133104 -9.09929e-21)
(0.0110456 0.00114932 0)
(0.0108921 0.000972981 0)
(0.0106976 0.000823735 0)
(0.0104943 0.000703133 0)
(0.0102963 0.000606651 0)
(0.0101092 0.000528873 0)
(0.00993506 0.000465233 -3.64969e-20)
(0.0097742 0.000412739 3.66604e-20)
(0.00962592 0.000369442 -3.64597e-20)
(0.00948888 0.000333995 7.30118e-20)
(0.00936149 0.000305464 -3.65394e-20)
(0.00924204 0.000283189 -3.63021e-20)
(0.00912875 0.000266683 3.64018e-20)
(0.00901984 0.000255578 0)
(0.00891353 0.00024959 0)
(0.00880806 0.000248506 7.19448e-20)
(0.00870168 0.00025219 -7.20986e-20)
(0.00859263 0.000260584 0)
(0.00847914 0.000273723 -7.13819e-20)
(0.00835938 0.000291753 7.15304e-20)
(0.0082315 0.000314963 0)
(0.00809352 0.000343829 0)
(0.0079434 0.00037907 7.06898e-20)
(0.00777894 0.000421725 -3.18079e-22)
(0.00759786 0.000473269 -7.07267e-20)
(0.0073978 0.000535783 -7.02994e-20)
(0.00717625 0.000612231 1.40698e-19)
(0.00693487 0.000707202 -7.03986e-20)
(0.00665661 0.000825393 6.55814e-20)
(0.00636977 0.000981929 -7.0516e-20)
(0.00618133 0.00119909 -7.10845e-20)
(0.00615552 0.00148332 7.22889e-20)
(0.00628374 0.00182895 2.16204e-19)
(0.00655462 0.00222948 3.58797e-19)
(0.00696706 0.00267448 7.14077e-20)
(0.00753182 0.00314422 -7.02372e-20)
(0.00821498 0.00360995 -6.20442e-19)
(0.00893978 0.00404905 6.12694e-19)
(0.00966738 0.00444975 6.04624e-19)
(0.0103896 0.00480171 -1.33044e-19)
(0.0111008 0.00509476 9.87955e-20)
(0.011801 0.00531873 -2.92307e-19)
(0.0124816 0.0054645 0)
(0.0131355 0.0055195 -2.86082e-19)
(0.013761 0.00548198 3.16017e-20)
(0.0143474 0.00535513 2.48934e-19)
(0.0148879 0.00512566 3.05754e-20)
(0.0153685 0.00479604 -3.04737e-19)
(0.0157816 0.00437516 -2.11037e-19)
(0.0161125 0.00386507 -2.39444e-19)
(0.0163501 0.00327949 -1.1873e-19)
(0.0164866 0.00263134 -2.88224e-20)
(0.016504 0.00193367 2.89814e-20)
(0.016412 0.00121368 2.84173e-20)
(0.0161884 0.000480693 4.1947e-20)
(0.0158477 -0.000232302 2.77266e-20)
(0.0153966 -0.00090812 0)
(0.0148442 -0.00152918 1.09368e-19)
(0.0142161 -0.00207827 0)
(0.0135187 -0.00254851 -3.77405e-19)
(0.0127863 -0.00293091 -2.15594e-19)
(0.0120248 -0.00322766 -5.36579e-20)
(0.0112615 -0.00343859 0)
(0.0105057 -0.003571 0)
(0.00976845 -0.00363232 -2.11669e-19)
(0.00906216 -0.00363072 0)
(0.00838455 -0.00357542 4.71123e-19)
(0.00774354 -0.00347587 -4.68715e-19)
(0.00713985 -0.00334067 4.40191e-19)
(0.006571 -0.00317837 -2.16088e-22)
(0.00603891 -0.00299686 -2.1005e-22)
(0.00554281 -0.00280297 3.56807e-19)
(0.00508026 -0.00260303 5.0809e-20)
(0.00465143 -0.00240241 3.77862e-19)
(0.00425609 -0.00220518 4.00759e-19)
(0.00389274 -0.0020144 1.53946e-21)
(0.00356064 -0.00183233 -3.83173e-19)
(0.00325868 -0.00166022 3.80371e-19)
(0.0029852 -0.00149872 0)
(0.00273923 -0.00134809 6.03338e-21)
(0.00251864 -0.00120819 3.7859e-19)
(0.00232081 -0.001079 -7.5811e-19)
(0.00214559 -0.000960824 -1.13304e-18)
(0.00199077 -0.000854175 -3.84227e-19)
(0.001854 -0.000759266 1.25431e-20)
(0.00173641 -0.000677247 0)
(0.00163701 -0.000608908 1.12593e-20)
(0.00155485 -0.000554913 -1.11833e-20)
(0.00149318 -0.000516215 0)
(0.00145086 -0.000491791 1.74438e-19)
(0.00143167 -0.000481681 -2.14688e-20)
(0.00143552 -0.000482918 2.12912e-20)
(0.00146558 -0.000493478 1.78861e-22)
(0.00152235 -0.000508162 1.65004e-19)
(0.00160937 -0.000524303 -2.02601e-20)
(0.0017264 -0.000535202 4.00317e-20)
(0.00187368 -0.000536231 -1.97732e-20)
(0.00205261 -0.000520919 1.89853e-24)
(0.00226007 -0.000483581 -9.61208e-21)
(0.00249743 -0.000420039 9.54754e-21)
(0.00276078 -0.000324844 -7.55572e-20)
(0.00304787 -0.000195593 -7.95296e-20)
(0.00335619 -2.9504e-05 -1.44158e-19)
(0.00368062 0.000174056 2.95466e-19)
(0.00401842 0.00041458 -1.42111e-19)
(0.00436537 0.000690391 -4.57564e-21)
(0.00471738 0.000998623 -4.52695e-21)
(0.00507163 0.00133531 4.53125e-21)
(0.00542381 0.00169576 -1.44127e-19)
(0.00577178 0.00207444 9.52603e-21)
(0.00611445 0.00246507 -6.76742e-23)
(0.00644734 0.00286182 1.23711e-19)
(0.00677133 0.00325833 4.32523e-19)
(0.00708599 0.00364833 -2.79873e-19)
(0.00739018 0.00402625 -2.80073e-19)
(0.00768606 0.00438686 2.95721e-19)
(0.00797506 0.00472544 2.57462e-19)
(0.0082578 0.00503842 -2.5789e-19)
(0.00853744 0.00532298 -3.04708e-19)
(0.00881722 0.00557671 -2.53666e-19)
(0.00909917 0.00579827 3.53555e-20)
(0.00938662 0.00598684 -3.32856e-20)
(0.00968266 0.00614189 0)
(0.00998997 0.00626341 -2.91421e-19)
(0.0103119 0.00635095 -2.55421e-19)
(0.01065 0.00640325 -2.20651e-19)
(0.0110044 0.00642057 0)
(0.011379 0.00640172 -2.74205e-19)
(0.011772 0.00634222 3.01472e-20)
(0.0121794 0.00624045 -8.76188e-20)
(0.0126043 0.0060925 -2.898e-20)
(0.0130382 0.00589168 -8.91747e-22)
(0.0134731 0.00563805 -1.37161e-19)
(0.013905 0.00532494 2.7127e-20)
(0.0143194 0.00495128 -1.3005e-19)
(0.0147047 0.00451568 2.29893e-19)
(0.0150453 0.00401919 1.99047e-19)
(0.015324 0.00346632 9.69338e-20)
(0.015528 0.00286523 0)
(0.0156362 0.00222434 -2.27477e-20)
(0.015645 0.0015633 3.3806e-22)
(0.0155319 0.000889756 1.05532e-20)
(0.0152947 0.000232261 -3.69776e-20)
(0.014939 -0.000393772 2.08217e-20)
(0.0144588 -0.000969735 -3.99317e-20)
(0.013877 -0.00147514 3.87381e-20)
(0.0131898 -0.00190144 0)
(0.0124304 -0.00223236 -9.20564e-20)
(0.0116044 -0.00246618 3.62033e-20)
(0.0107442 -0.00260076 -7.13077e-20)
(0.00985615 -0.00262265 -1.76556e-20)
(0.00896745 -0.00256425 8.55859e-20)
(0.00808295 -0.00241394 -1.70625e-20)
(0.00723494 -0.00218938 0)
(0.00640566 -0.00190174 8.14764e-20)
(0.00575794 -0.00158711 -3.83043e-22)
(0.00531464 -0.00129329 -3.80524e-22)
(0.00501583 -0.00106045 -3.717e-22)
(0.00485083 -0.000907375 3.01049e-20)
(0.00484655 -0.00083467 -3.54232e-22)
(0.00501041 -0.00082434 -1.82592e-22)
(0.00534963 -0.000862335 -1.33204e-20)
(0.00580763 -0.000915387 1.15024e-20)
(0.00629917 -0.000953465 1.22525e-20)
(0.00678943 -0.000962436 1.13412e-21)
(0.00726482 -0.000936188 -1.16201e-20)
(0.0077103 -0.000874832 1.36929e-21)
(0.00811234 -0.000783944 1.03322e-20)
(0.00846167 -0.000672065 -1.02686e-20)
(0.00875318 -0.000548536 -1.20422e-21)
(0.00898538 -0.000422231 -1.15627e-21)
(0.00916003 -0.000300802 0)
(0.00928157 -0.000190264 8.21833e-21)
(0.00935644 -9.47112e-05 -8.20904e-21)
(0.00939237 -1.65057e-05 0)
(0.00939773 4.35901e-05 -9.0014e-22)
(0.00938093 8.60662e-05 0)
(0.00934968 0.000112279 8.0138e-22)
(0.00931065 0.000124677 2.92018e-21)
(0.00926945 0.000126088 -2.91676e-21)
(0.00923021 0.000119563 -6.58716e-22)
(0.00919558 0.000108193 6.08884e-22)
(0.00916677 9.48644e-05 0)
(0.00914365 8.21024e-05 -1.97435e-21)
(0.00912507 7.20849e-05 1.97075e-21)
(0.00910915 6.62937e-05 4.23221e-22)
(0.00909347 6.55531e-05 7.12386e-22)
(0.00907542 7.00806e-05 -7.11326e-22)
(0.00905253 7.95719e-05 5.32612e-22)
(0.00902271 9.33033e-05 -5.32055e-22)
(0.00898447 0.000110365 -1.99464e-22)
(0.00893718 0.000129985 -1.32601e-22)
(0.00888096 0.000151722 8.83354e-23)
(0.00881756 0.000175352 1.09902e-22)
(0.00872974 0.000204199 0)
(0.00976246 0.000328436 0)
(0.0101857 0.000851948 0)
(0.0106658 0.0011474 0)
(0.0109644 0.00125595 9.14928e-21)
(0.0111445 0.00124064 -9.11613e-21)
(0.0112634 0.00115757 0)
(0.01129 0.00105116 1.79899e-20)
(0.0112637 0.000942446 -1.80391e-20)
(0.0112001 0.000840485 -1.79254e-20)
(0.011116 0.000749821 3.58902e-20)
(0.0110217 0.000670694 -1.79649e-20)
(0.010923 0.000601801 0)
(0.0108238 0.000542407 0)
(0.0107261 0.000491834 3.55932e-20)
(0.0106306 0.000449484 -1.69403e-22)
(0.0105376 0.000414882 -7.10653e-20)
(0.0104466 0.000387631 3.55339e-20)
(0.0103571 0.000367397 0)
(0.010268 0.000353903 0)
(0.0101785 0.000346917 3.50843e-20)
(0.0100874 0.000346269 -3.51489e-20)
(0.00999341 0.000351859 0)
(0.00989531 0.00036367 0)
(0.00979166 0.000381783 -6.9336e-20)
(0.00968094 0.000406401 1.38578e-19)
(0.00956156 0.00043787 -6.92428e-20)
(0.00943181 0.00047673 -6.87204e-20)
(0.00928987 0.000523756 3.1545e-22)
(0.00913387 0.000580019 1.36997e-19)
(0.00896189 0.000646964 -6.84741e-20)
(0.00877213 0.000726512 -6.80007e-20)
(0.00856263 0.000821195 2.96566e-22)
(0.00833592 0.000934607 6.79746e-20)
(0.00807556 0.00106906 6.74642e-20)
(0.00780844 0.00123422 -6.79946e-20)
(0.00763664 0.00144885 0)
(0.0076224 0.00172301 -2.79025e-19)
(0.00776144 0.0020555 -5.56406e-19)
(0.00804366 0.00244091 0)