/*--------------------------------*- C++ -*----------------------------------*\
| =========                 |                                                 |
| \\      /  F ield         | OpenFOAM: The Open Source CFD Toolbox           |
|  \\    /   O peration     | Version:  2506                                  |
|   \\  /    A nd           | Website:  www.openfoam.com                      |
|    \\/     M anipulation  |                                                 |
\*---------------------------------------------------------------------------*/
FoamFile
{
    version     2.0;
    format      ascii;
    arch        "LSB;label=32;scalar=64";
    class       volVectorField;
    location    "1.4";
    object      U;
}
// * * * * * * * * * * * * * * * * * * * * * * * * * * * * * * * * * * * * * //

dimensions      [0 1 -1 0 0 0 0];

internalField   nonuniform List<vector> 
4000
(
(0.00262432 0.000337608 0)
(0.00240457 0.000328774 -3.84627e-21)
(0.00183707 0.000177629 3.90536e-21)
(0.00135744 0.000101275 7.79921e-21)
(0.0010363 6.59053e-05 -1.56769e-20)
(0.000800879 4.55949e-05 7.8622e-21)
(0.000619454 3.36284e-05 0)
(0.000476207 2.66882e-05 0)
(0.000360095 2.24287e-05 0)
(0.000264086 1.96648e-05 1.55283e-20)
(0.000183681 1.77787e-05 -1.55568e-20)
(0.000115663 1.6459e-05 3.08548e-20)
(5.77043e-05 1.55742e-05 -3.08949e-20)
(7.94405e-06 1.50257e-05 0)
(-3.50944e-05 1.47279e-05 0)
(-7.2643e-05 1.46265e-05 0)
(-0.000105757 1.46991e-05 3.0114e-20)
(-0.000135354 1.49185e-05 -3.00947e-20)
(-0.000162224 1.52594e-05 0)
(-0.000187037 1.56992e-05 0)
(-0.000210367 1.62218e-05 0)
(-0.000232688 1.68188e-05 0)
(-0.000254393 1.74863e-05 0)
(-0.000275781 1.8217e-05 5.79453e-20)
(-0.0002971 1.89831e-05 -1.15546e-19)
(-0.000318533 1.97555e-05 5.76002e-20)
(-0.000340222 2.05574e-05 0)
(-0.000362255 2.14354e-05 0)
(-0.000384468 2.23053e-05 0)
(-0.000406663 2.29129e-05 0)
(-0.000428113 2.29101e-05 -5.58236e-20)
(-0.000447069 2.18639e-05 5.5802e-20)
(-0.000458635 1.91198e-05 0)
(-0.000443043 1.00346e-05 4.81987e-20)
(-0.000396313 -1.84674e-05 5.47284e-20)
(-0.000347587 -6.22442e-05 -2.75051e-19)
(-0.000302546 -0.000103825 -2.20636e-19)
(-0.00024581 -0.00013268 5.56413e-20)
(-0.000174659 -0.000144827 -2.23512e-19)
(-9.23637e-05 -0.000138717 -5.05768e-19)
(-1.55943e-06 -0.000114226 5.66195e-20)
(0.000103178 -6.73441e-05 4.51828e-19)
(0.000223842 -1.41086e-06 -4.50566e-19)
(0.000350559 7.09889e-05 0)
(0.000475655 0.000141003 0)
(0.000593873 0.000204025 -2.77364e-20)
(0.000704447 0.000257622 -4.14876e-19)
(0.000805344 0.000299506 -4.1365e-19)
(0.00089332 0.000327434 -2.47198e-19)
(0.000969816 0.000341865 -2.18009e-19)
(0.00103044 0.000342825 2.16315e-19)
(0.0010765 0.000331991 0)
(0.00110544 0.000309105 -2.65464e-20)
(0.00111533 0.000276611 4.50145e-19)
(0.00110587 0.000234866 0)
(0.00107275 0.000190202 -1.03996e-19)
(0.00102153 0.000145627 -2.55767e-20)
(0.000948956 0.000103707 -5.29895e-24)
(0.000862361 6.85153e-05 -3.28733e-22)
(0.000759881 4.23441e-05 -1.27619e-20)
(0.000647487 2.83687e-05 2.44156e-20)
(0.000532011 2.7684e-05 0)
(0.000414959 3.8845e-05 0)
(0.000301471 6.11741e-05 4.67635e-20)
(0.000191994 9.2811e-05 3.24406e-19)
(9.01015e-05 0.000132821 4.53133e-20)
(-4.96744e-06 0.000179184 -4.55556e-20)
(-9.16177e-05 0.000228539 4.37687e-20)
(-0.000172425 0.000280596 1.29356e-19)
(-0.000246131 0.000332919 -2.97101e-19)
(-0.000315855 0.000385862 -4.18823e-20)
(-0.00038017 0.000437611 9.69474e-22)
(-0.000439611 0.000487026 0)
(-0.000496525 0.000534712 0)
(-0.000547713 0.000578504 0)
(-0.000594982 0.000618222 -1.90775e-20)
(-0.000638624 0.000653863 -2.83124e-19)
(-0.000676228 0.000683959 0)
(-0.000708839 0.000708436 8.09234e-22)
(-0.000737866 0.000727974 1.80267e-20)
(-0.000762761 0.000742341 -2.85831e-19)
(-0.00078438 0.0007518 2.5617e-19)
(-0.000803734 0.000756955 6.25288e-23)
(-0.000821434 0.000758125 2.78971e-19)
(-0.000839268 0.000756273 1.52508e-21)
(-0.000857342 0.0007519 -2.65412e-19)
(-0.000875112 0.000744184 -2.66064e-19)
(-0.000895049 0.000734183 2.67054e-19)
(-0.000917278 0.000721667 -4.02667e-21)
(-0.000939338 0.000704951 -2.53476e-19)
(-0.000964453 0.000685022 0)
(-0.000991656 0.000661811 -2.54094e-19)
(-0.00101728 0.000633127 -2.35353e-19)
(-0.00104519 0.000599898 2.39556e-19)
(-0.00107123 0.000561269 -1.32926e-19)
(-0.0010969 0.000516549 1.45785e-20)
(-0.00112042 0.000466619 1.14931e-19)
(-0.00114056 0.000410317 1.41334e-20)
(-0.00115574 0.000349044 9.80092e-20)
(-0.00116698 0.000282056 6.91739e-20)
(-0.00117455 0.000212066 -2.742e-20)
(-0.00117478 0.000138659 6.80196e-20)
(-0.00117172 6.4628e-05 -6.77128e-21)
(-0.00115946 -9.08248e-06 -6.74256e-21)
(-0.00114249 -8.09627e-05 -2.68666e-20)
(-0.0011182 -0.0001491 0)
(-0.00108539 -0.000212995 0)
(-0.00104747 -0.000269952 -2.1242e-19)
(-0.000999964 -0.000318791 -6.77458e-21)
(-0.000945979 -0.000358695 1.12347e-19)
(-0.000884223 -0.000388462 1.09418e-19)
(-0.000815093 -0.000407506 3.43455e-21)
(-0.000738916 -0.000415778 -1.14294e-19)
(-0.000655411 -0.000412562 -1.73586e-22)
(-0.000565278 -0.000398844 0)
(-0.000471032 -0.000374918 2.25068e-19)
(-0.000370784 -0.000340827 -7.04106e-21)
(-0.000267977 -0.000298974 -2.12123e-19)
(-0.000163932 -0.000250415 -7.12855e-21)
(-5.98192e-05 -0.000196679 -2.27759e-19)
(4.23126e-05 -0.000139819 -6.6205e-22)
(0.000141166 -8.133e-05 2.26409e-19)
(0.000235594 -2.27198e-05 1.40084e-20)
(0.000324142 3.44127e-05 -2.51806e-19)
(0.000406495 8.8804e-05 1.39643e-20)
(0.000482516 0.000138901 2.20657e-19)
(0.000552119 0.000182658 2.71921e-20)
(0.000614213 0.000219743 -2.72854e-20)
(0.000668901 0.000250333 2.14929e-19)
(0.000717318 0.00027466 -1.85368e-19)
(0.000760196 0.000292643 -2.65154e-20)
(0.000796678 0.000304822 -3.89671e-19)
(0.000829582 0.000311833 -2.59416e-20)
(0.000859806 0.000313101 -2.03396e-19)
(0.00088495 0.000309355 1.05795e-21)
(0.000908645 0.00030124 0)
(0.00093033 0.000287481 0)
(0.000945961 0.000269679 -5.06033e-22)
(0.000960319 0.000247045 0)
(0.000967966 0.000220002 -2.30207e-20)
(0.000969603 0.000188531 -6.7929e-20)
(0.000962106 0.000152992 -2.21608e-20)
(0.000942766 0.000114364 -4.36221e-20)
(0.000910341 7.39067e-05 -2.18226e-20)
(0.000860391 3.31049e-05 -6.2736e-20)
(0.000792662 -2.05684e-06 2.0697e-20)
(0.000707923 -2.99296e-05 0)
(0.000606251 -4.61979e-05 0)
(0.000494797 -4.98747e-05 0)
(0.000375136 -4.00273e-05 -1.79298e-20)
(0.000252407 -1.7222e-05 1.79559e-20)
(0.000130029 1.88548e-05 6.82319e-20)
(1.06663e-05 6.51431e-05 6.58201e-20)
(-0.000105207 0.000122396 0)
(-0.000217667 0.000186486 -6.08058e-20)
(-0.000329772 0.000258932 0)
(-0.000442726 0.000335356 -1.35765e-20)
(-0.000553417 0.000412161 6.7731e-20)
(-0.000637186 0.000464159 -1.28577e-20)
(-0.000664693 0.00045556 2.15319e-19)
(-0.000721743 0.000408466 -4.88977e-20)
(-0.000825882 0.000375073 -4.75671e-20)
(-0.000892543 0.000323465 0)
(-0.000931486 0.000254225 0)
(-0.000952365 0.000173514 0)
(-0.000964356 9.33752e-05 0)
(-0.000980063 2.60242e-05 0)
(-0.000979435 -9.28587e-06 9.90027e-21)
(-0.000919247 -2.42738e-05 -2.61916e-22)
(-0.000822492 -3.18513e-05 -2.73884e-22)
(-0.000714069 -3.55328e-05 -9.44875e-21)
(-0.00060761 -3.62117e-05 0)
(-0.000511988 -3.48439e-05 8.57343e-21)
(-0.000432279 -3.22816e-05 -8.57764e-21)
(-0.000370515 -2.91085e-05 2.52812e-22)
(-0.000326625 -2.56742e-05 0)
(-0.000298982 -2.20374e-05 0)
(-0.000284795 -1.83698e-05 -6.94383e-21)
(-0.000281185 -1.53892e-05 6.93585e-21)
(-0.000285791 -1.31569e-05 0)
(-0.000295544 -1.12096e-05 0)
(-0.000307492 -9.67884e-06 -2.61965e-21)
(-0.000319541 -8.62656e-06 1.60165e-22)
(-0.000330029 -7.99095e-06 2.6308e-21)
(-0.000337844 -7.64643e-06 0)
(-0.000342392 -7.39521e-06 0)
(-0.000343603 -7.15515e-06 0)
(-0.000342055 -7.11038e-06 0)
(-0.000338644 -7.05445e-06 1.09731e-22)
(-0.000334286 -6.88192e-06 0)
(-0.000330024 -6.52345e-06 0)
(-0.000326851 -5.96698e-06 0)
(-0.000325822 -5.25838e-06 5.32284e-22)
(-0.000327662 -4.26349e-06 -5.31494e-22)
(-0.000332691 -3.08086e-06 0)
(-0.000341227 -1.72841e-06 4.24557e-23)
(-0.000353451 -2.39874e-07 1.12731e-22)
(-0.000371018 1.60688e-06 -7.52271e-23)
(-0.000399694 5.67508e-06 -3.72159e-23)
(-0.000435043 1.32036e-05 0)
(0.00342515 0.000724316 0)
(0.00359178 0.000966053 0)
(0.00319643 0.00080886 0)
(0.00265549 0.000627575 8.24869e-21)
(0.00216212 0.000483451 -1.66729e-20)
(0.0017288 0.00037606 8.41247e-21)
(0.00135678 0.000297747 0)
(0.00104102 0.000240525 1.68804e-20)
(0.000772971 0.000197846 -1.70018e-20)
(0.000544395 0.000165048 1.69361e-20)
(0.000349182 0.000139139 -1.70241e-20)
(0.0001813 0.000118245 -3.38629e-20)
(3.65999e-05 0.000101182 3.39746e-20)
(-8.86373e-05 8.72106e-05 3.36413e-20)
(-0.000197479 7.58085e-05 -1.65514e-22)
(-0.000292975 6.66002e-05 -6.64986e-20)
(-0.00037762 5.92795e-05 3.31067e-20)
(-0.000453611 5.3573e-05 0)
(-0.00052285 4.92355e-05 0)
(-0.000586948 4.6048e-05 0)
(-0.000647301 4.38108e-05 0)
(-0.000705016 4.23387e-05 0)
(-0.000760963 4.14645e-05 0)
(-0.000815748 4.10393e-05 0)
(-0.000869819 4.09182e-05 0)
(-0.000923447 4.09558e-05 0)
(-0.000976683 4.1022e-05 0)
(-0.00102952 4.09052e-05 0)
(-0.00108088 4.01824e-05 0)
(-0.00113013 3.79993e-05 0)
(-0.00117494 3.27959e-05 -6.04001e-20)
(-0.001212 2.14434e-05 2.70824e-22)
(-0.00123455 -1.99523e-06 1.19899e-19)
(-0.00122844 -4.68916e-05 -5.23348e-20)
(-0.00118396 -0.000133911 -5.92937e-20)
(-0.00110409 -0.000253247 1.78338e-19)
(-0.000989623 -0.000365157 -2.39408e-19)
(-0.000840371 -0.000442404 -6.04679e-20)
(-0.000659428 -0.000470783 6.14712e-19)
(-0.000453806 -0.00044513 1.87846e-19)
(-0.000224821 -0.000362754 0)
(2.50686e-05 -0.000224739 6.38598e-20)
(0.000287392 -5.43773e-05 3.8336e-19)
(0.00054858 0.000122614 6.39461e-20)
(0.000799263 0.000291146 5.07201e-19)
(0.00103307 0.000441735 -5.05024e-19)
(0.00124946 0.000569023 1.46006e-21)
(0.00144288 0.000668323 0)
(0.00161025 0.000736558 -2.49666e-19)
(0.001753 0.000774619 0)
(0.00186455 0.000782375 -6.16925e-22)
(0.00194522 0.000761969 0)
(0.00198865 0.000713836 -2.43604e-19)
(0.00199185 0.000644143 -2.42317e-19)
(0.00195361 0.000556375 0)
(0.00186926 0.000459354 8.70857e-23)
(0.00174192 0.000360091 1.18272e-19)
(0.00156695 0.000265527 2.91374e-20)
(0.00135603 0.000183746 5.78284e-20)
(0.00110797 0.000123039 -1.45888e-20)
(0.000833019 8.74425e-05 0)
(0.000544562 8.30501e-05 1.13476e-19)
(0.000247845 0.000108628 -5.66287e-20)
(-4.57551e-05 0.000163088 -1.10756e-19)
(-0.00033059 0.000244361 -3.25791e-19)
(-0.000600505 0.000347275 -5.34241e-20)
(-0.000853143 0.000469676 2.58889e-19)
(-0.00108707 0.000602747 -5.10715e-20)
(-0.00130155 0.000745094 0)
(-0.00149771 0.000890902 4.82823e-20)
(-0.00167773 0.00103841 -4.77524e-20)
(-0.00184109 0.00118398 2.04315e-21)
(-0.00198934 0.00132349 0)
(-0.00212446 0.0014564 -3.57116e-19)
(-0.0022446 0.00157891 -3.49829e-19)
(-0.00235132 0.00168911 2.12691e-20)
(-0.00244527 0.00178582 -2.10492e-20)
(-0.00252473 0.001867 2.0464e-20)
(-0.00259067 0.00193223 -3.21968e-19)
(-0.00264484 0.00198237 2.97637e-19)
(-0.00268757 0.00201758 -3.11819e-19)
(-0.00272032 0.00203852 -3.14368e-19)
(-0.00274488 0.00204669 1.87704e-20)
(-0.00276283 0.00204343 -3.0497e-19)
(-0.00277686 0.00203053 2.87088e-19)
(-0.00278853 0.00200947 -2.83322e-19)
(-0.0027985 0.00198017 2.80647e-19)
(-0.00281032 0.00194356 -2.74681e-19)
(-0.00282491 0.00189968 -8.42646e-21)
(-0.00284021 0.00184686 8.32995e-21)
(-0.00285931 0.001785 0)
(-0.00288181 0.00171369 0)
(-0.00290452 0.00163052 1.26135e-19)
(-0.00292963 0.00153505 -1.39021e-19)
(-0.00295375 0.00142666 1.2166e-19)
(-0.00297692 0.00130352 2.98995e-20)
(-0.00299688 0.00116657 8.59736e-23)
(-0.00301182 0.0010136 -6.45295e-23)
(-0.00301929 0.000847481 -2.57459e-19)
(-0.00301889 0.000670193 -4.23112e-20)
(-0.00300866 0.000485418 5.59295e-20)
(-0.00298574 0.000293798 -5.54333e-20)
(-0.002951 0.000101208 0)
(-0.00290038 -8.90972e-05 -6.84475e-21)
(-0.00283595 -0.000273205 6.86642e-21)
(-0.00275553 -0.000445742 0)
(-0.00265816 -0.000604027 0)
(-0.00254573 -0.000741992 1.10839e-19)
(-0.00241547 -0.000857485 -1.1148e-19)
(-0.00226888 -0.000947965 1.15942e-19)
(-0.0021064 -0.00101129 -2.2733e-19)
(-0.00192936 -0.00104617 -1.73197e-23)
(-0.00173732 -0.00105198 -3.63818e-21)
(-0.00153422 -0.0010285 -1.17565e-19)
(-0.00132256 -0.000978563 0)
(-0.00110497 -0.000904046 0)
(-0.00088309 -0.000806197 0)
(-0.000660885 -0.000688482 2.53252e-19)
(-0.000441334 -0.000555013 2.3891e-19)
(-0.000227296 -0.000410486 0)
(-2.14148e-05 -0.000259483 -2.82511e-19)
(0.000173988 -0.000106145 4.70105e-20)
(0.000356667 4.53792e-05 -3.11668e-20)
(0.000525345 0.000191274 1.55947e-20)
(0.000679582 0.000328021 -3.07094e-20)
(0.000818426 0.000452391 2.45186e-19)
(0.000942311 0.000561428 -2.12667e-19)
(0.00105217 0.000654497 2.71987e-19)
(0.00114867 0.000731586 -4.10239e-22)
(0.00123362 0.000793047 2.10471e-19)
(0.00130791 0.000838922 0)
(0.00137168 0.000870031 2.36766e-19)
(0.00142867 0.000887476 -2.89336e-20)
(0.00147899 0.000891085 -2.00942e-19)
(0.00152103 0.000882076 2.29918e-19)
(0.00155887 0.000862161 -2.79909e-20)
(0.00158959 0.000830445 2.8191e-20)
(0.00161018 0.000789036 -2.83338e-20)
(0.00162328 0.000737367 2.7443e-20)
(0.00162183 0.000676338 -2.64135e-20)
(0.00160446 0.000606487 1.32208e-19)
(0.0015654 0.000529279 -1.28287e-19)
(0.00149906 0.000447061 1.27276e-19)
(0.00140214 0.00036333 0)
(0.00126811 0.000282386 2.44465e-20)
(0.00109889 0.000212254 -2.34669e-20)
(0.000890512 0.000159167 -1.1534e-20)
(0.000646132 0.000128163 0)
(0.000376033 0.00012489 -2.19354e-20)
(8.43628e-05 0.000151934 4.26423e-20)
(-0.000217306 0.000208304 0)
(-0.000521158 0.000296895 -7.90397e-20)
(-0.00081803 0.000409676 -1.85985e-20)
(-0.00110302 0.000550619 1.84335e-20)
(-0.00137322 0.000708425 0)
(-0.00162725 0.000885905 6.66043e-20)
(-0.00186822 0.00106885 -6.32752e-20)
(-0.00209108 0.00124412 6.11134e-20)
(-0.00227258 0.00136339 0)
(-0.00238944 0.00137568 -1.12443e-19)
(-0.00254348 0.00127051 -6.71658e-20)
(-0.00272792 0.00113998 1.16623e-19)
(-0.00285998 0.000951055 -1.23475e-20)
(-0.00293181 0.000721704 1.22298e-20)
(-0.00294638 0.000472125 1.15904e-20)
(-0.00291184 0.000236992 1.11209e-20)
(-0.00283276 4.29502e-05 -9.86419e-21)
(-0.002699 -7.76622e-05 -6.76924e-22)
(-0.00248575 -0.000145035 0)
(-0.0022321 -0.000176646 6.43836e-22)
(-0.00197268 -0.000181947 0)
(-0.0017309 -0.000169247 -6.09734e-22)
(-0.00152051 -0.000145992 -9.30395e-21)
(-0.00134825 -0.000117892 9.89997e-21)
(-0.0012158 -8.87845e-05 -8.27228e-22)
(-0.00112114 -6.12908e-05 8.30312e-21)
(-0.00105977 -3.69491e-05 -1.57424e-20)
(-0.00102612 -1.68004e-05 1.55204e-20)
(-0.00101311 -1.87327e-06 -8.03208e-21)
(-0.00101384 7.80988e-06 0)
(-0.00102249 1.31769e-05 3.64808e-21)
(-0.00103392 1.47855e-05 -3.4231e-21)
(-0.00104392 1.33225e-05 -3.68899e-22)
(-0.00104943 9.64969e-06 -2.69136e-21)
(-0.00104882 4.78447e-06 2.36224e-21)
(-0.00104164 -3.81646e-07 2.34163e-21)
(-0.00102882 -5.1123e-06 -2.61889e-21)
(-0.00101201 -8.71298e-06 2.25827e-21)
(-0.000993191 -1.07027e-05 -3.9441e-21)
(-0.000974947 -1.08594e-05 2.43881e-21)
(-0.00095974 -9.164e-06 -8.28873e-22)
(-0.000949667 -5.82258e-06 -1.75627e-22)
(-0.000946357 -1.23128e-06 0)
(-0.000951071 4.47605e-06 3.60881e-22)
(-0.000964571 1.08994e-05 -4.93514e-22)
(-0.000986959 1.79188e-05 2.55714e-23)
(-0.00101768 2.57683e-05 -1.63402e-22)
(-0.00105826 3.53505e-05 0)
(-0.00111432 4.794e-05 0)
(-0.00116915 6.05529e-05 -1.10169e-23)
(0.00346599 0.000562632 0)
(0.00385657 0.0010306 -4.03939e-21)
(0.00382141 0.00109124 4.03739e-21)
(0.00359256 0.00101988 8.03513e-21)
(0.00327415 0.00089929 -8.10616e-21)
(0.00292247 0.000769802 0)
(0.00257431 0.00065223 0)
(0.00224865 0.000552007 0)
(0.00195282 0.000468602 -1.64066e-20)
(0.00168876 0.0003994 3.29755e-20)
(0.00145528 0.000341808 1.63911e-20)
(0.00124993 0.00029372 -3.3136e-20)
(0.00106917 0.000253501 -3.29759e-20)
(0.000909752 0.000219968 3.31222e-20)
(0.000768504 0.000192228 0)
(0.00064246 0.000169564 -3.28747e-20)
(0.000528929 0.000151328 6.57869e-20)
(0.000425472 0.000136934 -3.29013e-20)
(0.000329917 0.000125841 0)
(0.00024036 0.000117553 0)
(0.000155158 0.000111599 0)
(7.29211e-05 0.000107521 0)
(-7.48318e-06 0.000104888 0)
(-8.69355e-05 0.000103311 -6.4118e-20)
(-0.000166078 0.000102449 6.39964e-20)
(-0.000245279 0.000101955 0)
(-0.000324648 0.000101397 0)
(-0.00040407 0.000100167 0)
(-0.00048291 9.75177e-05 0)
(-0.000560227 9.22507e-05 0)
(-0.000634157 8.21453e-05 -6.11958e-20)
(-0.000702259 6.31178e-05 6.11188e-20)
(-0.000760635 2.78236e-05 0)
(-0.000812805 -3.42316e-05 3.77128e-21)
(-0.00084234 -0.000143895 0)
(-0.000803511 -0.000288781 -1.1965e-19)
(-0.000685165 -0.000420306 2.40827e-19)
(-0.000508729 -0.000506356 0)
(-0.000285381 -0.000527872 -4.93816e-19)
(-2.24048e-05 -0.000475474 3.90647e-22)
(0.000285215 -0.000345118 -6.29692e-20)
(0.000625293 -0.000147658 6.31275e-20)
(0.00096884 8.1968e-05 -5.01561e-19)
(0.00130131 0.000314997 0)
(0.00161631 0.000535138 -5.58555e-19)
(0.00190875 0.000731032 5.25681e-19)
(0.00217989 0.000896524 5.22992e-19)
(0.00242313 0.00102634 0)
(0.00263531 0.0011182 2.4313e-19)
(0.0028173 0.00117222 0)
(0.00296152 0.00118729 -4.82093e-19)
(0.00306776 0.00116504 0)
(0.0031287 0.00110777 2.09061e-19)
(0.00314221 0.00102191 2.66348e-19)
(0.00310282 0.000913143 2.34698e-19)
(0.00300618 0.000787749 1.16539e-19)
(0.00285399 0.000655109 1.15588e-19)
(0.00263887 0.00052464 5.73476e-20)
(0.00237375 0.0004063 -2.86365e-20)
(0.00205243 0.000311971 -4.25444e-20)
(0.00168693 0.0002459 0)
(0.00129267 0.000218681 -1.1135e-19)
(0.000875104 0.000231395 1.10544e-19)
(0.000451531 0.000283956 0)
(3.0587e-05 0.000376166 4.34932e-19)
(-0.000378284 0.000499799 0)
(-0.000767744 0.000653834 5.17845e-20)
(-0.00113441 0.000827522 -5.11093e-20)
(-0.00147391 0.00101769 0)
(-0.00178766 0.00121602 4.8154e-20)
(-0.00207372 0.00141757 -4.75369e-20)
(-0.00233306 0.00161737 -5.0782e-19)
(-0.00256687 0.00180884 3.16489e-19)
(-0.0027757 0.00198938 -1.73984e-21)
(-0.00296095 0.00215495 3.44435e-19)
(-0.00312321 0.00230157 2.10219e-20)
(-0.00326236 0.00242609 -3.52512e-19)
(-0.00337892 0.00252744 0)
(-0.00347448 0.00260552 -3.18717e-19)
(-0.00355045 0.00266138 -6.04478e-19)
(-0.00360815 0.00269594 5.83625e-19)
(-0.00364936 0.00271015 3.10694e-19)
(-0.0036761 0.002706 -3.05078e-19)
(-0.00369066 0.00268577 2.98648e-19)
(-0.00369591 0.00265167 0)
(-0.00369426 0.00260615 2.79619e-19)
(-0.00368775 0.00255024 3.09098e-21)
(-0.00367952 0.00248425 5.48175e-19)
(-0.00367091 0.00240968 2.49629e-19)
(-0.00366245 0.0023249 2.69868e-19)
(-0.00365596 0.00222899 0)
(-0.00365118 0.00212213 0)
(-0.00364725 0.00200214 -1.23867e-19)
(-0.00364428 0.00186766 0)
(-0.00363995 0.00171844 -1.49519e-20)
(-0.00363425 0.00155256 1.47757e-20)
(-0.00362409 0.00137124 -1.16138e-19)
(-0.00360923 0.00117378 1.14524e-19)
(-0.00358591 0.000963368 9.89626e-20)
(-0.00355343 0.000740391 1.40012e-20)
(-0.00350832 0.000509684 -5.5329e-20)
(-0.00345039 0.000273392 2.74312e-20)
(-0.00337599 3.74052e-05 -2.0427e-20)
(-0.00328374 -0.000194038 6.80477e-21)
(-0.00317245 -0.000415883 0)
(-0.00304034 -0.000621503 5.43164e-20)
(-0.00288729 -0.000806877 0)
(-0.00271243 -0.000965711 1.09739e-19)
(-0.00251616 -0.00109522 2.08795e-22)
(-0.00229945 -0.00119077 -1.08419e-19)
(-0.002064 -0.00124913 1.13113e-19)
(-0.00181201 -0.00127038 -3.58074e-21)
(-0.00154644 -0.00125654 0)
(-0.00127078 -0.00120311 1.16952e-19)
(-0.000986046 -0.00111449 -1.18492e-19)
(-0.000698658 -0.000993372 0)
(-0.000412632 -0.000844229 7.5715e-21)
(-0.000130491 -0.00067156 -2.53003e-19)
(0.000143865 -0.00048071 -2.31832e-19)
(0.000406686 -0.000277929 2.297e-19)
(0.000656236 -6.89878e-05 -2.44182e-19)
(0.000890072 0.000140291 -1.51672e-20)
(0.00110592 0.000344116 2.27125e-19)
(0.00130361 0.000537598 3.03734e-20)
(0.00148294 0.000716373 2.69658e-19)
(0.00164328 0.000876914 -5.38557e-19)
(0.00178548 0.00101732 2.68888e-19)
(0.00191079 0.00113626 -2.08188e-19)
(0.00202073 0.00123327 1.75418e-19)
(0.0021179 0.0013087 2.90912e-19)
(0.00220317 0.00136257 1.72845e-19)
(0.00227714 0.00139575 2.89528e-20)
(0.00234412 0.0014099 1.98607e-19)
(0.00240339 0.0014057 2.55053e-19)
(0.00245415 0.00138466 -2.76454e-20)
(0.00250111 0.00134915 2.78562e-20)
(0.00253921 0.00129869 8.15602e-20)
(0.00256611 0.00123524 2.62531e-20)
(0.00258266 0.00115912 -2.62041e-20)
(0.00258135 0.00107141 2.63841e-20)
(0.0025596 0.000973501 -1.02247e-19)
(0.00251025 0.000867545 2.56042e-20)
(0.00242636 0.000756675 -6.33821e-22)
(0.0023041 0.000645603 -2.45457e-20)
(0.00213356 0.000540378 -9.48371e-20)
(0.00191763 0.000446699 0)
(0.00164837 0.000373507 4.49774e-20)
(0.0013281 0.000324989 -2.79891e-20)
(0.000968469 0.000310298 2.16119e-20)
(0.000570687 0.00033409 -6.28894e-20)
(0.000152798 0.000395775 -2.01845e-20)
(-0.000278662 0.000501329 7.89376e-20)
(-0.000709936 0.000639712 9.43479e-20)
(-0.00112946 0.000816941 -3.61854e-20)
(-0.00153167 0.00101839 8.68694e-20)
(-0.00190792 0.00124527 -6.58822e-20)
(-0.00225918 0.00147632 -1.55372e-20)
(-0.00257676 0.00169272 -5.97711e-20)
(-0.00285083 0.00183521 1.47197e-20)
(-0.00307392 0.00187253 -5.58691e-20)
(-0.00329419 0.00172385 5.29299e-20)
(-0.00346991 0.00150315 -3.83663e-20)
(-0.00358174 0.00120377 -1.24743e-20)
(-0.0036171 0.000853096 -2.38641e-20)
(-0.00355922 0.000483121 0)
(-0.00341085 0.000141686 -2.23974e-20)
(-0.00317094 -0.000136459 2.06237e-20)
(-0.00284819 -0.000315349 3.97941e-22)
(-0.00248309 -0.00041169 -2.83593e-22)
(-0.0021114 -0.000446366 -9.38156e-22)
(-0.00175795 -0.000434837 -1.01804e-20)
(-0.00143928 -0.000392171 6.11627e-22)
(-0.00116422 -0.000331522 0)
(-0.000940348 -0.000263255 -5.75812e-22)
(-0.000767638 -0.000195107 5.55986e-22)
(-0.000642243 -0.000132545 9.43409e-21)
(-0.000557563 -7.91097e-05 -8.89193e-21)
(-0.000505716 -3.68125e-05 -7.65444e-21)
(-0.000478079 -6.19069e-06 8.11873e-21)
(-0.000465947 1.32539e-05 0)
(-0.00046168 2.24793e-05 -4.20533e-22)
(-0.000459074 2.35567e-05 0)
(-0.000453279 1.81956e-05 -2.52824e-21)
(-0.000441116 8.73661e-06 1.75129e-22)
(-0.00042115 -2.58178e-06 3.04956e-21)
(-0.000393661 -1.37695e-05 6.12948e-22)
(-0.000360045 -2.30672e-05 2.85816e-22)
(-0.000322703 -2.88364e-05 -2.64206e-22)
(-0.000284843 -3.03242e-05 0)
(-0.000249817 -2.73085e-05 2.21439e-22)
(-0.000220863 -2.00362e-05 7.57509e-22)
(-0.000200878 -9.15509e-06 -5.77678e-22)
(-0.000191913 4.47031e-06 -5.88048e-22)
(-0.00019509 1.98698e-05 7.23021e-22)
(-0.000211079 3.61787e-05 0)
(-0.000239456 5.28322e-05 1.14531e-22)
(-0.000278789 6.97138e-05 1.6611e-22)
(-0.000328537 8.69698e-05 4.11748e-23)
(-0.00039255 0.00010494 -4.10241e-23)
(-0.000456585 0.000121971 1.10251e-23)
(0.00344357 0.000367145 0)
(0.0038592 0.00084061 0)
(0.00405536 0.00106521 0)
(0.00411028 0.00113688 7.93849e-21)
(0.00405724 0.00110766 -7.95131e-21)
(0.00392331 0.00102978 0)
(0.0037419 0.000927145 0)
(0.00353935 0.000821309 0)
(0.00333249 0.000721375 0)
(0.00313145 0.000630886 0)
(0.00294162 0.000550832 0)
(0.00276543 0.000481047 -3.18113e-20)
(0.00260348 0.000420964 3.19659e-20)
(0.00245521 0.000369846 -3.17908e-20)
(0.00231943 0.000326891 6.36755e-20)
(0.00219467 0.000291344 -3.1872e-20)
(0.0020793 0.00026246 -3.16599e-20)
(0.00197172 0.000239495 3.17515e-20)
(0.00187032 0.000221721 0)
(0.00177362 0.000208441 0)
(0.00168025 0.000198978 6.27173e-20)
(0.00158897 0.00019267 -6.28515e-20)
(0.00149869 0.000188872 0)
(0.00140847 0.000186964 -6.21777e-20)
(0.0013176 0.000186372 6.23012e-20)
(0.0012255 0.000186532 0)
(0.00113184 0.000186782 0)
(0.00103644 0.000186269 6.14628e-20)
(0.00093944 0.000183933 -2.977e-22)
(0.000841199 0.000178272 -6.14371e-20)
(0.000742394 0.000166882 -6.10015e-20)
(0.000643904 0.000145701 1.22046e-19)
(0.000547813 0.000108663 -6.10691e-20)
(0.000436931 4.65586e-05 5.69588e-20)
(0.000329763 -5.34273e-05 -6.09145e-20)
(0.000305792 -0.000177525 -6.0397e-20)
(0.000387913 -0.00028294 6.06878e-20)
(0.000543373 -0.000339836 1.82109e-19)
(0.000757579 -0.000329522 3.04681e-19)
(0.0010246 -0.000241707 6.1253e-20)
(0.00135284 -7.41205e-05 -6.13392e-20)
(0.00172326 0.000157265 -5.48342e-19)
(0.00209417 0.000415905 5.4568e-19)
(0.002451 0.000675089 5.42774e-19)
(0.00278951 0.00091877 -1.20245e-19)
(0.00310582 0.0011356 8.99319e-20)
(0.00340248 0.00131938 -2.68228e-19)
(0.00367328 0.00146442 0)
(0.00391522 0.00156797 -2.66243e-19)
(0.00412865 0.00162921 2.95768e-20)
(0.00430582 0.00164654 2.34742e-19)
(0.00444627 0.00162205 2.90427e-20)
(0.00454179 0.00155829 -2.90256e-19)
(0.00459026 0.00145978 -2.01553e-19)
(0.00458501 0.00133143 -2.28337e-19)
(0.00452076 0.00118003 -1.13129e-19)
(0.00439733 0.00101465 -2.78876e-20)
(0.0042044 0.000844508 2.79529e-20)
(0.00395347 0.000680879 2.75718e-20)
(0.00363306 0.000535043 4.08866e-20)
(0.00325434 0.000414626 2.7051e-20)
(0.0028298 0.000331076 0)
(0.00236355 0.000289321 1.07329e-19)
(0.00187471 0.000291717 0)
(0.00137022 0.000340645 -3.70812e-19)
(0.000867907 0.000430263 -2.1123e-19)
(0.00037571 0.000559808 -5.25266e-20)
(-9.80671e-05 0.000719384 0)
(-0.000544722 0.000904163 0)
(-0.000963327 0.00110489 -1.97291e-19)
(-0.00134779 0.00131392 0)
(-0.00169995 0.00152525 4.21238e-19)
(-0.00201921 0.00173064 -4.10705e-19)
(-0.00230432 0.00192474 3.78445e-19)
(-0.00255753 0.00210251 -2.16373e-22)
(-0.00277885 0.00225823 -2.05868e-22)
(-0.00296913 0.00238962 2.91379e-19)
(-0.00313103 0.0024957 4.08783e-20)
(-0.00326565 0.00257595 2.99567e-19)
(-0.00337425 0.00263095 3.13457e-19)
(-0.00345896 0.00266261 1.26722e-21)
(-0.00352175 0.00267199 -2.92461e-19)
(-0.00356467 0.00266144 2.87129e-19)
(-0.00359033 0.00263378 0)
(-0.00360131 0.00259162 4.46283e-21)
(-0.00360042 0.00253766 2.77734e-19)
(-0.00359079 0.00247375 -5.5153e-19)
(-0.00357479 0.00240047 -8.17682e-19)
(-0.00355457 0.00231855 -2.75272e-19)
(-0.00353273 0.00222786 8.97053e-21)
(-0.00351003 0.00212708 0)
(-0.00348689 0.00201517 7.90987e-21)
(-0.0034643 0.00189041 -7.82338e-21)
(-0.00344099 0.0017512 0)
(-0.00341591 0.00159762 1.20884e-19)
(-0.00338837 0.00142783 -1.48149e-20)
(-0.00335516 0.00124236 1.46855e-20)
(-0.00331603 0.00104122 8.74698e-23)
(-0.00326729 0.000826628 1.14219e-19)
(-0.00320801 0.000600026 -1.40685e-20)
(-0.00313293 0.000365788 2.79137e-20)
(-0.00304213 0.000127434 -1.38709e-20)
(-0.00293083 -0.00010961 7.68295e-24)
(-0.00279919 -0.000340081 -6.83762e-21)
(-0.00264415 -0.000558322 6.86571e-21)
(-0.00246475 -0.000757438 -5.49191e-20)
(-0.00226177 -0.000932226 -5.85444e-20)
(-0.00203375 -0.00107634 -1.07606e-19)
(-0.00178402 -0.00118576 2.23908e-19)
(-0.00151334 -0.00125636 -1.09448e-19)
(-0.0012249 -0.00128492 -3.58344e-21)
(-0.000922 -0.00127226 -3.60864e-21)
(-0.000608383 -0.00121627 3.67641e-21)
(-0.000289335 -0.0011191 -1.19019e-19)
(3.19235e-05 -0.000983583 7.86684e-21)
(0.000351717 -0.000813161 -4.93825e-23)
(0.000663732 -0.000613558 1.04315e-19)
(0.000966615 -0.000390199 3.65161e-19)
(0.00125642 -0.000149554 -2.36949e-19)
(0.00152966 0.000101283 -2.37392e-19)
(0.00178585 0.000355742 2.51389e-19)
(0.00202328 0.000607151 2.19805e-19)
(0.00224036 0.000849135 -2.20606e-19)
(0.00243799 0.00107645 -2.62048e-19)
(0.00261678 0.00128456 -2.18852e-19)
(0.00277692 0.00146995 3.04234e-20)
(0.00292009 0.0016304 -2.90028e-20)
(0.0030479 0.00176441 0)
(0.0031623 0.00187152 -2.57235e-19)
(0.00326614 0.00195215 -2.27074e-19)
(0.00336032 0.00200652 -1.97538e-19)
(0.00344543 0.00203584 0)
(0.00352605 0.00204235 -2.49607e-19)
(0.00360122 0.00202703 2.76339e-20)
(0.00366946 0.00199196 -8.11616e-20)
(0.0037355 0.00193933 -2.70613e-20)
(0.00379402 0.00186864 -8.38424e-22)
(0.00384263 0.00178199 -1.30695e-19)
(0.00388156 0.00168022 2.59979e-20)
(0.003903 0.0015647 -1.25961e-19)
(0.00390382 0.00143719 2.24333e-19)
(0.00387637 0.00129998 1.95535e-19)
(0.00381301 0.00115633 9.55979e-20)
(0.00370931 0.00101099 0)
(0.00355351 0.000869367 -2.24541e-20)
(0.00334784 0.00073778 3.50093e-22)
(0.00308111 0.000624441 1.06416e-20)
(0.002753 0.000534934 -3.74988e-20)
(0.00237404 0.000478261 2.12323e-20)
(0.00194051 0.000461099 -4.08301e-20)
(0.00147174 0.000484316 3.98563e-20)
(0.000971737 0.000555694 0)
(0.000457406 0.000666569 -9.45065e-20)
(-5.71321e-05 0.000822805 3.67206e-20)
(-0.000561149 0.00101068 -7.06664e-20)
(-0.00103985 0.0012284 -1.70454e-20)
(-0.00148979 0.00145304 7.99204e-20)
(-0.00189929 0.0016617 -1.55572e-20)
(-0.002265 0.00180029 0)
(-0.00258566 0.00183857 7.01143e-20)
(-0.00284202 0.00168458 -3.7667e-22)
(-0.00297397 0.00141202 -3.48891e-22)
(-0.00303152 0.00105179 -3.23085e-22)
(-0.00298995 0.000638561 2.39548e-20)
(-0.00283609 0.000212592 -2.87457e-22)
(-0.00256398 -0.000171811 -1.48651e-22)
(-0.00217769 -0.000477625 -1.10131e-20)
(-0.00171345 -0.000671642 9.69113e-21)
(-0.00125175 -0.000764351 1.05477e-20)
(-0.000817437 -0.000777864 1.00664e-21)
(-0.000420394 -0.000732578 -1.04033e-20)
(-7.1526e-05 -0.000648153 1.24531e-21)
(0.000223033 -0.000541578 9.45256e-21)
(0.000461587 -0.000426782 -9.4156e-21)
(0.000646583 -0.000314858 -1.10664e-21)
(0.000783171 -0.000213758 -1.06292e-21)
(0.000878556 -0.000128626 0)
(0.000941164 -6.21861e-05 7.56357e-21)
(0.00097997 -1.50175e-05 -7.55236e-21)
(0.00100363 1.38582e-05 0)
(0.00102009 2.64095e-05 -8.26346e-22)
(0.00103583 2.57043e-05 0)
(0.00105567 1.53047e-05 7.3472e-22)
(0.00108258 -1.14094e-06 2.67841e-21)
(0.0011177 -1.97787e-05 -2.67002e-21)
(0.0011607 -3.71371e-05 -6.02928e-22)
(0.00120988 -5.02922e-05 5.56813e-22)
(0.00126236 -5.71598e-05 0)
(0.00131459 -5.66257e-05 -1.8067e-21)
(0.00136282 -4.8404e-05 1.80169e-21)
(0.00140341 -3.29314e-05 3.87569e-22)
(0.0014331 -1.1417e-05 6.53243e-22)
(0.00144936 1.45413e-05 -6.52123e-22)
(0.00145085 4.31045e-05 4.88481e-22)
(0.00143707 7.24759e-05 -4.87331e-22)
(0.00140864 0.00010127 -1.82633e-22)
(0.00136752 0.000128589 -1.21338e-22)
(0.00131586 0.000153721 8.0907e-23)
(0.00125121 0.000176275 1.00225e-22)
(0.00118197 0.00019659 0)
(0.00342574 0.000232897 0)
(0.00380257 0.000613204 0)
(0.00405178 0.000875408 0)
(0.00425155 0.00102696 7.94008e-21)
(0.0043968 0.00108397 -7.90848e-21)
(0.00446764 0.00107242 0)
(0.00447654 0.00102312 1.55751e-20)
(0.0044447 0.000947019 -1.56092e-20)
(0.00438302 0.000861499 -1.55013e-20)
(0.00430244 0.000775709 3.10319e-20)
(0.00421137 0.00069405 -1.55331e-20)