/*--------------------------------*- C++ -*----------------------------------*\
| =========                 |                                                 |
| \\      /  F ield         | OpenFOAM: The Open Source CFD Toolbox           |
|  \\    /   O peration     | Version:  2506                                  |
|   \\  /    A nd           | Website:  www.openfoam.com                      |
|    \\/     M anipulation  |                                                 |
\*---------------------------------------------------------------------------*/
FoamFile
{
    version     2.0;
    format      ascii;
    arch        "LSB;label=32;scalar=64";
    class       surfaceScalarField;
    location    "0.8";
    object      phi;
}
// * * * * * * * * * * * * * * * * * * * * * * * * * * * * * * * * * * * * * //

dimensions      [0 3 -1 0 0 0 0];

oriented        oriented;

internalField   nonuniform List<scalar> 
7780
(
1.32955e-09
3.70567e-10
9.09463e-10
4.20079e-10
6.06898e-10
3.02638e-10
3.97789e-10
2.0916e-10
2.52018e-10
1.45771e-10
1.48007e-10
1.04008e-10
7.13901e-11
7.66142e-11
1.31092e-11
5.8278e-11
-3.23008e-11
4.54077e-11
-6.82997e-11
3.59972e-11
-9.72082e-11
2.8907e-11
-1.20626e-10
2.34164e-11
-1.39755e-10
1.91278e-11
-1.5554e-10
1.57833e-11
-1.68737e-10
1.31952e-11
-1.79941e-10
1.12027e-11
-1.89636e-10
9.69385e-12
-1.98219e-10
8.58081e-12
-2.06006e-10
7.78627e-12
-2.13257e-10
7.24946e-12
-2.20162e-10
6.90303e-12
-2.26855e-10
6.69146e-12
-2.33427e-10
6.5701e-12
-2.39929e-10
6.50057e-12
-2.46377e-10
6.44573e-12
-2.52745e-10
6.36607e-12
-2.58969e-10
6.22034e-12
-2.64935e-10
5.96247e-12
-2.70465e-10
5.5249e-12
-2.75259e-10
4.78823e-12
-2.78789e-10
3.52124e-12
-2.79928e-10
1.1281e-12
-2.77317e-10
-2.62445e-12
-2.67512e-10
-9.82143e-12
-2.51934e-10
-1.55913e-11
-2.3485e-10
-1.70824e-11
-2.1434e-10
-2.04917e-11
-1.89169e-10
-2.51406e-11
-1.59987e-10
-2.915e-11
-1.27714e-10
-3.22604e-11
-8.95919e-11
-3.81492e-11
-4.69699e-11
-4.26966e-11
-5.63037e-12
-4.1451e-11
3.25339e-11
-3.83007e-11
6.56309e-11
-3.32475e-11
9.37323e-11
-2.82586e-11
1.17987e-10
-2.4412e-11
1.35891e-10
-1.80507e-11
1.49969e-10
-1.42102e-11
1.59046e-10
-9.18509e-12
1.62779e-10
-3.81251e-12
1.62929e-10
-2.00724e-13
1.55962e-10
6.94121e-12
1.45455e-10
1.05021e-11
1.28055e-10
1.74071e-11
1.05903e-10
2.21625e-11
7.84027e-11
2.75093e-11
4.52288e-11
3.31816e-11
1.0091e-11
3.5149e-11
-3.00647e-11
4.01786e-11
-6.94245e-11
3.93992e-11
-1.08672e-10
3.93051e-11
-1.46041e-10
3.74366e-11
-1.80436e-10
3.44608e-11
-2.11995e-10
3.16132e-11
-2.40191e-10
2.82307e-11
-2.65385e-10
2.51953e-11
-2.88047e-10
2.26279e-11
-3.08294e-10
2.01743e-11
-3.26958e-10
1.85551e-11
-3.44416e-10
1.73123e-11
-3.59992e-10
1.54021e-11
-3.7491e-10
1.47273e-11
-3.88612e-10
1.34957e-11
-4.00897e-10
1.20707e-11
-4.12449e-10
1.13408e-11
-4.22916e-10
1.0262e-11
-4.32039e-10
8.92512e-12
-4.40425e-10
8.19965e-12
-4.48066e-10
7.47202e-12
-4.54921e-10
6.70523e-12
-4.61344e-10
6.29474e-12
-4.67423e-10
5.97334e-12
-4.73261e-10
5.75425e-12
-4.79266e-10
5.93929e-12
-4.85083e-10
5.76439e-12
-4.90552e-10
5.42468e-12
-4.96534e-10
5.94364e-12
-5.02043e-10
5.47317e-12
-5.06613e-10
4.5373e-12
-5.11584e-10
4.94028e-12
-5.15214e-10
3.60191e-12
-5.17274e-10
2.03334e-12
-5.19015e-10
1.7176e-12
-5.17563e-10
-1.47325e-12
-5.1598e-10
-1.60246e-12
-5.10647e-10
-5.35032e-12
-5.04501e-10
-6.1605e-12
-4.94813e-10
-9.70133e-12
-4.84916e-10
-9.90997e-12
-4.71433e-10
-1.34945e-11
-4.5669e-10
-1.47546e-11
-4.39365e-10
-1.73354e-11
-4.19112e-10
-2.0262e-11
-3.97291e-10
-2.18285e-11
-3.72541e-10
-2.47561e-11
-3.46976e-10
-2.55673e-11
-3.19512e-10
-2.74644e-11
-2.91057e-10
-2.84528e-11
-2.6174e-10
-2.93134e-11
-2.32031e-10
-2.97048e-11
-2.0235e-10
-2.96766e-11
-1.73064e-10
-2.92826e-11
-1.44885e-10
-2.81801e-11
-1.17699e-10
-2.71916e-11
-9.23553e-11
-2.53555e-11
-6.89645e-11
-2.34101e-11
-4.74551e-11
-2.15372e-11
-2.85022e-11
-1.89909e-11
-1.20371e-11
-1.65159e-11
2.06837e-12
-1.41724e-11
1.39859e-11
-1.20044e-11
2.37513e-11
-9.87517e-12
3.18406e-11
-8.22355e-12
3.8221e-11
-6.53778e-12
4.32322e-11
-5.18896e-12
4.7172e-11
-4.13438e-12
5.01979e-11
-3.23417e-12
5.26666e-11
-2.68845e-12
5.50603e-11
-2.62403e-12
5.68252e-11
-2.00594e-12
5.85926e-11
-2.01946e-12
6.09986e-11
-2.66872e-12
6.28332e-11
-2.1049e-12
6.48009e-11
-2.24152e-12
6.77104e-11
-3.17996e-12
6.88891e-11
-1.43556e-12
7.06674e-11
-2.01365e-12
7.08801e-11
-4.15759e-13
6.9894e-11
8.27086e-13
6.66398e-11
3.15049e-12
6.02523e-11
6.34417e-12
4.98034e-11
1.0466e-11
3.51059e-11
1.47667e-11
1.46966e-11
2.0512e-11
-9.33641e-12
2.41496e-11
-4.00512e-11
3.08194e-11
-7.39312e-11
3.39598e-11
-1.1082e-10
3.69378e-11
-1.49397e-10
3.86003e-11
-1.87605e-10
3.82148e-11
-2.2491e-10
3.73026e-11
-2.59939e-10
3.50211e-11
-2.9155e-10
3.15958e-11
-3.20511e-10
2.8935e-11
-3.45138e-10
2.45844e-11
-3.67284e-10
2.20863e-11
-3.84251e-10
1.68881e-11
-3.94182e-10
9.83778e-12
-3.90909e-10
-3.36221e-12
-4.14149e-10
2.31838e-11
-4.3249e-10
1.83005e-11
-4.43097e-10
1.05808e-11
-4.45137e-10
2.02345e-12
-4.4441e-10
-7.38478e-13
-4.38608e-10
-5.81198e-12
-4.31155e-10
-7.46518e-12
-4.09731e-10
-2.14357e-11
-3.78229e-10
-3.15131e-11
-3.44321e-10
-3.39186e-11
-3.12461e-10
-3.18712e-11
-2.85125e-10
-2.73451e-11
-2.6326e-10
-2.18727e-11
-2.46892e-10
-1.63742e-11
-2.35547e-10
-1.13496e-11
-2.28459e-10
-7.09267e-12
-2.24851e-10
-3.61097e-12
-2.23624e-10
-1.22987e-12
-2.23802e-10
1.7641e-13
-2.2471e-10
9.07243e-13
-2.25788e-10
1.07784e-12
-2.26646e-10
8.57197e-13
-2.27066e-10
4.20539e-13
-2.26997e-10
-6.8884e-14
-2.26524e-10
-4.7262e-13
-2.25839e-10
-6.84519e-13
-2.25199e-10
-6.39669e-13
-2.24886e-10
-3.13333e-13
-2.25167e-10
2.81395e-13
-2.2631e-10
1.14306e-12
-2.28325e-10
2.01519e-12
-2.3135e-10
3.02526e-12
-2.35421e-10
4.07039e-12
-2.40501e-10
5.08041e-12
-2.46507e-10
6.00576e-12
-2.53354e-10
6.8479e-12
-2.61011e-10
7.65713e-12
-2.69564e-10
8.55417e-12
-2.79617e-10
1.00539e-11
1.33402e-11
1.80496e-09
2.6561e-10
1.7274e-09
4.97654e-10
1.54056e-09
4.8947e-10
1.3246e-09
4.25106e-10
1.11911e-09
3.51247e-10
9.40358e-10
2.82737e-10
7.90397e-10
2.26567e-10
6.66399e-10
1.82272e-10
5.64394e-10
1.47409e-10
4.80365e-10
1.20025e-10
4.10929e-10
9.8341e-11
3.5336e-10
8.09846e-11
3.05369e-10
6.71174e-11
2.65023e-10
5.61276e-11
2.30722e-10
4.74958e-11
2.01126e-10
4.07965e-11
1.75114e-10
3.57047e-11
1.51747e-10
3.19461e-11
1.30252e-10
2.92793e-11
1.10001e-10
2.74991e-11
9.0482e-11
2.64201e-11
7.12941e-11
2.58778e-11
5.2131e-11
2.57314e-11
3.27674e-11
2.58622e-11
1.30456e-11
2.61653e-11
-7.13318e-12
2.65424e-11
-2.78128e-11
2.6897e-11
-4.89774e-11
2.71234e-11
-7.05399e-11
2.70827e-11
-9.23235e-11
2.65659e-11
-1.14048e-10
2.52385e-11
-1.35496e-10
2.25665e-11
-1.55899e-10
1.77672e-11
-1.75597e-10
9.86488e-12
-1.81658e-10
-9.54195e-12
-1.6216e-10
-3.65909e-11
-1.21496e-10
-6.1158e-11
-6.54108e-11
-8.12178e-11
3.36038e-12
-9.79009e-11
8.38394e-11
-1.1271e-10
1.78372e-10
-1.3265e-10
2.75631e-10
-1.3993e-10
3.66108e-10
-1.31912e-10
4.47869e-10
-1.20054e-10
5.18922e-10
-1.04298e-10
5.80185e-10
-8.95212e-11
6.32837e-10
-7.70658e-11
6.74492e-10
-5.97091e-11
7.07962e-10
-4.76885e-11
7.32308e-10
-3.35423e-11
7.46812e-10
-1.83259e-11
7.52672e-10
-6.07043e-12
7.46262e-10
1.33422e-11
7.30428e-10
2.63335e-11
7.00896e-10
4.69424e-11
6.60433e-10
6.26349e-11
6.07701e-10
8.02548e-11
5.42333e-10
9.85614e-11
4.69489e-10
1.07998e-10
3.84239e-10
1.25431e-10
2.95886e-10
1.27754e-10
2.03605e-10
1.31596e-10
1.10944e-10
1.30119e-10
2.13294e-11
1.24112e-10
-6.52636e-11
1.18256e-10
-1.45165e-10
1.08184e-10
-2.20049e-10
1.00124e-10
-2.8825e-10
9.08634e-11
-3.50947e-10
8.28957e-11
-4.07779e-10
7.53914e-11
-4.59206e-10
6.87268e-11
-5.05775e-10
6.19491e-11
-5.47675e-10
5.65933e-11
-5.85324e-10
5.10991e-11
-6.18794e-10
4.54961e-11
-6.48366e-10
4.08701e-11
-6.74272e-10
3.61208e-11
-6.96681e-10
3.12891e-11
-7.15949e-10
2.74296e-11
-7.32428e-10
2.39202e-11
-7.46399e-10
2.06524e-11
-7.58287e-10
1.8166e-11
-7.68456e-10
1.61328e-11
-7.77245e-10
1.45389e-11
-7.84997e-10
1.36877e-11
-7.91795e-10
1.25588e-11
-7.97663e-10
1.12859e-11
-8.02718e-10
1.09895e-11
-8.06579e-10
9.32179e-12
-8.08931e-10
6.87456e-12
-8.09772e-10
5.76904e-12
-8.08249e-10
2.06496e-12
-8.03629e-10
-2.60028e-12
-7.95371e-10
-6.55325e-12
-7.82777e-10
-1.40787e-11
-7.66108e-10
-1.82814e-11
-7.44612e-10
-2.68552e-11
-7.18427e-10
-3.23536e-11
-6.86603e-10
-4.15337e-11
-6.49501e-10
-4.70209e-11
-6.07016e-10
-5.59883e-11
-5.59463e-10
-6.23167e-11
-5.07202e-10
-6.96065e-11
-4.51111e-10
-7.63635e-11
-3.91288e-10
-8.16626e-11
-3.28883e-10
-8.71726e-11
-2.63649e-10
-9.08127e-11
-1.97315e-10
-9.381e-11
-1.30363e-10
-9.54158e-11
-6.40116e-11
-9.56759e-11
9.49369e-13
-9.46766e-11
6.34635e-11
-9.22007e-11
1.23135e-10
-8.89613e-11
1.78407e-10
-8.34566e-11
2.30113e-10
-7.88975e-11
2.76425e-10
-7.16645e-11
3.17658e-10
-6.46352e-11
3.53915e-10
-5.77806e-11
3.8461e-10
-4.96653e-11
4.10367e-10
-4.22474e-11
4.31821e-10
-3.55961e-11
4.48547e-10
-2.86998e-11
4.61322e-10
-2.2621e-11
4.71094e-10
-1.79721e-11
4.78121e-10
-1.3547e-11
4.83131e-10
-1.01874e-11
4.86717e-10
-7.71282e-12
4.89347e-10
-5.85925e-12
4.91724e-10
-5.05956e-12
4.94355e-10
-5.24745e-12
4.9685e-10
-4.49108e-12
5.00146e-10
-5.30693e-12
5.04847e-10
-7.36326e-12
5.09409e-10
-6.66794e-12
5.15039e-10
-7.88096e-12
5.21831e-10
-9.9956e-12
5.26838e-10
-6.47771e-12
5.32196e-10
-7.42288e-12
5.35089e-10
-3.37427e-12
5.35439e-10
3.96473e-13
5.31341e-10
7.1582e-12
5.20389e-10
1.72071e-11
5.01442e-10
2.93339e-11
4.7362e-10
4.25321e-11
4.32985e-10
6.11201e-11
3.83084e-10
7.40558e-11
3.18002e-10
9.59299e-11
2.43991e-10
1.0801e-10
1.60372e-10
1.20595e-10
6.91145e-11
1.29883e-10
-2.45934e-11
1.31938e-10
-1.21207e-10
1.33923e-10
-2.14658e-10
1.28475e-10
-3.05912e-10
1.22847e-10
-3.91065e-10
1.14083e-10
-4.7014e-10
1.0365e-10
-5.40952e-10
9.28821e-11
-6.0293e-10
7.88399e-11
-6.55765e-10
6.26458e-11
-6.96502e-10
3.73627e-11
-7.32093e-10
5.87768e-11
-7.55197e-10
4.14086e-11
-7.60751e-10
1.6141e-11
-7.45865e-10
-1.28564e-11
-7.10508e-10
-3.60911e-11
-6.54467e-10
-6.1852e-11
-5.7993e-10
-8.20054e-11
-4.92487e-10
-1.08885e-10
-4.02255e-10
-1.21752e-10
-3.16606e-10
-1.19576e-10
-2.40052e-10
-1.08434e-10
-1.74922e-10
-9.24849e-11
-1.22041e-10
-7.47619e-11
-8.09499e-11
-5.74719e-11
-5.02533e-11
-4.20512e-11
-2.80944e-11
-2.92554e-11
-1.23383e-11
-1.93697e-11
-1.1358e-12
-1.24342e-11
7.19193e-12
-8.1523e-12
1.41253e-11
-6.02642e-12
2.0712e-11
-5.50878e-12
2.75903e-11
-6.02062e-12
3.50151e-11
-7.00361e-12
4.29084e-11
-7.96154e-12
5.09309e-11
-8.49471e-12
5.85664e-11
-8.31968e-12
6.52078e-11
-7.281e-12
7.02506e-11
-5.35633e-12
7.31948e-11
-2.66321e-12
7.37131e-11
6.2418e-13
7.14406e-11
4.287e-12
6.64271e-11
8.03809e-12
5.88042e-11
1.16927e-11
4.88248e-11
1.50593e-11
3.68249e-11
1.80055e-11
2.31642e-11
2.05086e-11
8.1658e-12
2.26561e-11
-7.95588e-12
2.46773e-11
-2.50813e-11
2.71805e-11
3.16937e-11
1.80379e-09
1.61789e-10
1.91489e-09
3.86638e-10
1.93188e-09
4.7244e-10
1.87522e-09
4.81674e-10
1.77673e-09
4.49675e-10
1.65844e-09
4.00999e-10
1.53675e-09
3.48248e-10
1.42149e-09
2.97532e-10
1.31687e-09
2.52025e-10
1.22394e-09
2.12954e-10
1.14253e-09
1.79748e-10
1.07182e-09
1.51688e-10
1.01055e-09
1.28394e-10
9.57303e-10
1.0937e-10
9.10777e-10
9.40208e-11
8.69746e-10
8.18257e-11
8.33072e-10
7.23772e-11
7.99736e-10
6.52808e-11
7.68855e-10
6.01592e-11
7.39661e-10
5.66914e-11
7.11489e-10
5.45912e-11
6.83772e-10
5.35934e-11
6.56038e-10
5.34644e-11
6.27894e-10
5.40045e-11
5.99018e-10
5.50401e-11
5.69141e-10
5.64181e-11
5.38038e-10
5.79977e-11
5.05522e-10
5.96366e-11
4.71434e-10
6.1167e-11
4.35632e-10
6.23633e-11
3.97959e-10
6.29054e-11
3.58167e-10
6.23504e-11
3.15936e-10
5.99895e-11
2.67678e-10
5.81141e-11
2.33889e-10
2.42359e-11
2.37336e-10
-4.00504e-11
2.72213e-10
-9.60432e-11
3.30102e-10
-1.39103e-10
4.07505e-10
-1.75282e-10
5.02565e-10
-2.07724e-10
6.15752e-10
-2.45773e-10
7.31456e-10
-2.55564e-10
8.40557e-10
-2.4095e-10
9.4054e-10
-2.19982e-10
1.02908e-09
-1.92792e-10
1.10709e-09
-1.67488e-10
1.17562e-09
-1.45548e-10
1.23255e-09
-1.16609e-10
1.28031e-09
-9.54241e-11
1.31801e-09
-7.12394e-11
1.34515e-09
-4.54748e-11
1.36208e-09
-2.30192e-11
1.36594e-09
9.45235e-12
1.35863e-09
3.3611e-11
1.33629e-09
6.9257e-11
1.30043e-09
9.84771e-11
1.24942e-09
1.31261e-10
1.18213e-09
1.6585e-10
1.10248e-09
1.87646e-10
1.00503e-09
2.22865e-10
8.98414e-10
2.34352e-10
7.81553e-10
2.48427e-10
6.58629e-10
2.53014e-10
5.33828e-10
2.48896e-10
4.07668e-10
2.44416e-10
2.86011e-10
2.29855e-10
1.67988e-10
2.18174e-10
5.80913e-11
2.00797e-10
-4.47855e-11
1.85807e-10
-1.39294e-10
1.69926e-10
-2.25291e-10
1.54742e-10
-3.0414e-10
1.4081e-10
-3.74624e-10
1.27082e-10
-4.37816e-10
1.14293e-10
-4.94068e-10
1.01753e-10
-5.4318e-10
8.9982e-11
-5.85782e-10
7.87195e-11
-6.22368e-10
6.78761e-11
-6.53053e-10
5.8119e-11
-6.78386e-10
4.92625e-11
-6.98925e-10
4.12042e-11
-7.15098e-10
3.43562e-11
-7.2747e-10
2.85242e-11
-7.36553e-10
2.36408e-11
-7.42715e-10
1.98658e-11
-7.46449e-10
1.6304e-11
-7.47959e-10
1.28013e-11
-7.4705e-10
1.0081e-11
-7.43759e-10
6.02801e-12
-7.37625e-10
7.35411e-13
-7.28087e-10
-3.77574e-12
-7.1503e-10
-1.09975e-11
-6.97815e-10
-1.98212e-11
-6.75627e-10
-2.87463e-11
-6.48859e-10
-4.0851e-11
-6.15463e-10
-5.16821e-11
-5.76751e-10
-6.55709e-11
-5.30985e-10
-7.81236e-11
-4.79754e-10
-9.27691e-11
-4.21138e-10
-1.05643e-10
-3.57464e-10
-1.19669e-10
-2.87584e-10
-1.32204e-10
-2.13019e-10
-1.4418e-10
-1.34634e-10
-1.54758e-10
-5.22027e-11
-1.64104e-10
3.16169e-11
-1.71003e-10
1.17606e-10
-1.76814e-10
2.03161e-10
-1.79377e-10
2.87913e-10
-1.80181e-10
3.70488e-10
-1.78262e-10
4.49874e-10
-1.74074e-10
5.24965e-10
-1.67302e-10
5.95312e-10
-1.59317e-10
6.59297e-10
-1.47446e-10
7.17971e-10
-1.37571e-10
7.69486e-10
-1.23174e-10
8.14358e-10
-1.09495e-10
8.52896e-10
-9.6298e-11
8.84689e-10
-8.14288e-11
9.10592e-10
-6.81104e-11
9.31382e-10
-5.63369e-11
9.47102e-10
-4.43635e-11
9.58674e-10
-3.41312e-11
9.67162e-10
-2.63978e-11
9.72998e-10
-1.93222e-11
9.77072e-10
-1.42016e-11
9.80096e-10
-1.06781e-11
9.82657e-10
-8.36003e-12
9.85582e-10
-7.91996e-12
9.89504e-10
-9.09645e-12
9.94016e-10
-8.92365e-12
1.00018e-09
-1.13864e-11
1.00863e-09
-1.57281e-11
1.01754e-09
-1.54891e-11
1.02834e-09
-1.86148e-11
1.04069e-09
-2.22775e-11
1.05178e-09
-1.75292e-11
1.06347e-09
-1.9103e-11
1.07278e-09
-1.27033e-11
1.07875e-09
-5.63067e-12
1.08013e-09
5.69262e-12
1.07427e-09
2.29513e-11
1.05949e-09
4.39831e-11
1.03391e-09
6.79924e-11
9.94037e-10
1.00881e-10
9.41598e-10
1.26421e-10
8.70497e-10
1.66997e-10
7.85614e-10
1.92894e-10
6.85811e-10
2.20417e-10
5.72172e-10
2.43544e-10
4.50322e-10
2.53802e-10
3.18271e-10
2.65979e-10
1.8533e-10
2.61412e-10
5.00302e-11
2.58137e-10
-8.00911e-11
2.44192e-10
-2.0633e-10
2.29876e-10
-3.22872e-10
2.09415e-10
-4.29363e-10
1.85325e-10
-5.22123e-10
1.55412e-10
-6.00131e-10
1.15389e-10
-6.38987e-10
9.76588e-11
-6.52734e-10
5.51804e-11
-6.39317e-10
2.74638e-12
-5.97482e-10
-5.46725e-11
-5.2412e-10
-1.09436e-10
-4.22961e-10
-1.62997e-10
-2.95687e-10
-2.09271e-10
-1.63254e-10
-2.41317e-10
-3.78125e-11
-2.47196e-10
7.68942e-11
-2.34288e-10
1.78179e-10
-2.09726e-10
2.64665e-10
-1.7898e-10
3.36301e-10
-1.46406e-10
3.94057e-10
-1.15236e-10
4.39616e-10
-8.76165e-11
4.75117e-10
-6.47613e-11
5.02898e-10
-4.71551e-11
5.25183e-10
-3.47223e-11
5.43971e-10
-2.69418e-11
5.60926e-10
-2.29827e-11
5.77259e-10
-2.18414e-11
5.9369e-10
-2.24511e-11
6.10474e-10
-2.37857e-11
6.27456e-10
-2.49425e-11
6.44166e-10
-2.52029e-11
6.59907e-10
-2.40598e-11
6.73871e-10
-2.12437e-11
6.85256e-10
-1.67406e-11
6.93358e-10
-1.07648e-11
6.97661e-10
-3.67895e-12
6.97916e-10
4.03083e-12
6.9407e-10
1.18832e-11
6.86333e-10
1.94289e-11
6.75109e-10
2.62826e-11
6.60935e-10
3.21798e-11
6.44422e-10
3.70207e-11
6.26207e-10
4.08723e-11
6.06909e-10
4.39761e-11
5.87334e-10
4.67578e-11
5.12373e-11
1.76539e-09
9.64719e-11
1.88743e-09
2.64601e-10
1.988e-09
3.71882e-10
2.04919e-09
4.20412e-10
2.06797e-09
4.30821e-10
2.05028e-09
4.18644e-10
2.00964e-09
3.88864e-10
1.95573e-09
3.51454e-10
1.89544e-09
3.12319e-10
1.83332e-09
2.75067e-10
1.77278e-09
2.40283e-10
1.71563e-09
2.08836e-10
1.66248e-09
1.81546e-10
1.61347e-09
1.58378e-10
1.56851e-09
1.38978e-10
1.52728e-09
1.23059e-10
1.48924e-09
1.10417e-10
1.45382e-09
1.007e-10
1.42046e-09
9.35141e-11
1.38861e-09
8.85458e-11
1.3577e-09
8.55001e-11
1.32721e-09
8.40817e-11
1.29665e-09
8.40201e-11
1.26557e-09
8.50806e-11
1.23356e-09
8.70524e-11
1.20023e-09
8.97518e-11
1.16521e-09
9.30177e-11
1.12814e-09
9.66999e-11
1.08867e-09
1.00641e-10
1.04637e-09
1.04654e-10
1.00078e-09
1.08496e-10
9.51259e-10
1.11866e-10
8.9686e-10
1.14383e-10
8.33331e-10
1.21638e-10
7.8085e-10
7.67096e-11
7.64441e-10
-2.36534e-11
7.80954e-10
-1.12569e-10
8.24045e-10
-1.822e-10
8.90467e-10
-2.41692e-10
9.77265e-10
-2.94484e-10
1.08308e-09
-3.51517e-10
1.19274e-09
-3.65145e-10
1.29918e-09
-3.47308e-10
1.39892e-09
-3.19647e-10
1.48924e-09
-2.83049e-10
1.57066e-09
-2.48842e-10
1.64387e-09
-2.18711e-10
1.70719e-09
-1.79877e-10
1.76208e-09
-1.50282e-10
1.80829e-09
-1.17442e-10
1.84505e-09
-8.22432e-11
1.87236e-09
-5.03517e-11
1.88844e-09
-6.66327e-12
1.89417e-09
2.78292e-11
1.88689e-09
7.64927e-11
1.86701e-09
1.18309e-10
1.833e-09
1.65238e-10
1.78319e-09
2.15641e-10
1.71979e-09
2.51032e-10
1.63758e-09
3.05057e-10
1.54259e-09
3.29308e-10
1.43296e-09
3.58002e-10
1.31204e-09
3.73873e-10
1.18326e-09
3.7762e-10
1.04763e-09
3.79992e-10
9.11242e-10
3.66216e-10
7.73861e-10
3.55549e-10
6.41145e-10
3.33527e-10
5.13201e-10
3.13778e-10
3.92644e-10
2.90515e-10
2.80847e-10
2.66575e-10
1.76641e-10
2.45053e-10
8.236e-11
2.21396e-10
-3.13377e-12
1.9982e-10
-8.01481e-11
1.78795e-10
-1.48021e-10
1.57875e-10
-2.07456e-10
1.38174e-10
-2.58987e-10
1.19425e-10
-3.02538e-10
1.01689e-10
-3.38649e-10
8.53949e-11
-3.68067e-10
7.06448e-11
-3.9119e-10
5.75033e-11
-4.08698e-10
4.60573e-11
-4.21237e-10
3.62029e-11
-4.29171e-10
2.78193e-11
-4.33345e-10
2.04906e-11
-4.34258e-10
1.37216e-11
-4.3148e-10
7.30589e-12
-4.25798e-10
3.45919e-13
-4.17421e-10
-7.64344e-12
-4.0459e-10
-1.6609e-11
-3.88107e-10
-2.74838e-11
-3.67523e-10
-4.04081e-11
-3.41133e-10
-5.51384e-11
-3.1008e-10
-7.19055e-11
-2.71547e-10
-9.02175e-11
-2.27412e-10
-1.09709e-10
-1.75173e-10
-1.30365e-10
-1.17101e-10
-1.50844e-10
-5.05148e-11
-1.72233e-10
2.1536e-11
-1.91724e-10
1.00621e-10
-2.11294e-10
1.84747e-10
-2.28312e-10
2.73027e-10
-2.43045e-10
3.65419e-10
-2.56503e-10
4.58982e-10
-2.64575e-10
5.54114e-10
-2.71956e-10
6.48109e-10
-2.73384e-10
7.40259e-10
-2.72343e-10
8.29157e-10
-2.67172e-10
9.13587e-10
-2.58516e-10
9.92576e-10
-2.46301e-10
1.06553e-09
-2.32279e-10
1.1312e-09
-2.13129e-10
1.1904e-09
-1.96765e-10
1.24179e-09
-1.74565e-10
1.28593e-09
-1.53631e-10
1.32327e-09
-1.33625e-10
1.35375e-09
-1.11883e-10
1.37825e-09
-9.25739e-11
1.39764e-09
-7.5679e-11
1.41226e-09
-5.892e-11
1.4231e-09
-4.49146e-11
1.43119e-09
-3.44219e-11
1.43713e-09
-2.51898e-11
1.4418e-09
-1.88108e-11
1.44593e-09
-1.47411e-11
1.45014e-09
-1.25082e-11
1.45516e-09
-1.2865e-11
1.46149e-09
-1.53505e-11
1.46913e-09
-1.64709e-11
1.47872e-09
-2.08873e-11
1.4908e-09
-2.76959e-11
1.50386e-09
-2.84448e-11
1.5191e-09
-3.37557e-11
1.53575e-09
-3.88337e-11
1.55203e-09
-3.37326e-11
1.56868e-09
-3.57037e-11
1.58359e-09
-2.7594e-11
1.59558e-09
-1.76384e-11
1.60333e-09
-2.11912e-12
1.60466e-09
2.15204e-11
1.59819e-09
5.0326e-11
1.58166e-09
8.43628e-11
1.55245e-09
1.29945e-10
1.51079e-09
1.67956e-10
1.45145e-09
2.26237e-10
1.37704e-09
2.67261e-10
1.28595e-09
3.11496e-10
1.17764e-09
3.51857e-10
1.05672e-09
3.74719e-10
9.2004e-10
4.0266e-10
7.76462e-10
4.0498e-10
6.23662e-10
4.1092e-10
4.70675e-10
3.97159e-10
3.16159e-10
3.84378e-10
1.68116e-10
3.57451e-10
2.79286e-11
3.25518e-10
-9.52711e-11
2.78629e-10
-2.0159e-10
2.21733e-10
-2.43783e-10
1.39888e-10
-2.49317e-10
6.07498e-11
-2.21208e-10
-2.5333e-11
-1.60479e-10
-1.15375e-10
-6.31359e-11
-2.06755e-10
6.29302e-11
-2.8904e-10
2.14418e-10
-3.60739e-10
3.63397e-10
-3.90284e-10
4.98924e-10
-3.82717e-10
6.20311e-10
-3.55674e-10
7.26961e-10
-3.16377e-10
8.18794e-10
-2.70818e-10
8.96349e-10
-2.23968e-10
9.60741e-10
-1.79637e-10
1.01355e-09
-1.40432e-10
1.05668e-09
-1.07899e-10
1.09221e-09
-8.26862e-11
1.12218e-09
-6.47009e-11
1.14849e-09
-5.32542e-11
1.17272e-09
-4.72187e-11
1.19607e-09
-4.51941e-11
1.21929e-09
-4.5662e-11
1.24265e-09
-4.71461e-11
1.26604e-09
-4.83344e-11
1.28902e-09
-4.81762e-11
1.31086e-09
-4.59037e-11
1.3307e-09
-4.10818e-11
1.34763e-09
-3.36674e-11
1.36082e-09
-2.39546e-11
1.36963e-09
-1.2484e-11
1.37362e-09
3.78467e-14
1.37267e-09
1.28379e-11
1.36691e-09
2.51894e-11
1.35674e-09
3.64492e-11
1.34277e-09
4.61515e-11
1.32573e-09
5.40534e-11
1.30647e-09
6.01329e-11
1.28587e-09
6.45822e-11
1.26498e-09
6.76487e-11
7.16479e-11
1.73753e-09
5.90121e-11
1.82631e-09
1.75869e-10
1.93147e-09
2.66733e-10
2.02668e-09
3.25145e-10
2.10185e-09
3.55583e-10
2.15599e-09
3.64486e-10
2.18852e-09
3.56299e-10
2.20134e-09
3.38608e-10
2.19829e-09
3.15402e-10
2.18462e-09
2.88742e-10
2.16413e-09
2.60762e-10
2.13931e-09
2.33653e-10
2.11165e-09
2.09205e-10
2.0826e-09
1.87426e-10
2.05326e-09
1.6832e-10
2.02422e-09
1.52095e-10
1.99567e-09
1.38974e-10
1.96768e-09
1.28683e-10
1.94028e-09
1.20915e-10
1.91332e-09
1.15505e-10
1.88657e-09
1.12247e-10
1.85976e-09
1.109e-10
1.83254e-09
1.11234e-10
1.80457e-09
1.13057e-10
1.77545e-09
1.16171e-10
1.74479e-09
1.20404e-10
1.7122e-09
1.25612e-10
1.67724e-09
1.31664e-10
1.63943e-09
1.38444e-10
1.59826e-09
1.45828e-10
1.55307e-09
1.5368e-10
1.50309e-09
1.61849e-10
1.4472e-09
1.70268e-10
1.38158e-09
1.87256e-10
1.32215e-09
1.36138e-10
1.29046e-09
8.02055e-12
1.28711e-09
-1.09236e-10
1.30965e-09
-2.04753e-10
1.35607e-09
-2.88111e-10
1.42305e-09
-3.61451e-10
1.50821e-09
-4.36627e-10
1.59916e-09
-4.56018e-10
1.69107e-09
-4.39142e-10
1.77945e-09
-4.07943e-10
1.86125e-09
-3.64786e-10
1.93653e-09
-3.24064e-10
2.00566e-09
-2.87786e-10
2.06736e-09
-2.41543e-10
2.12208e-09
-2.04968e-10
2.17067e-09
-1.66017e-10
2.21153e-09
-1.23103e-10
2.2448e-09
-8.36516e-11
2.26998e-09
-3.18797e-11
2.28707e-09
1.06919e-11
2.29474e-09
6.87633e-11
2.29276e-09
1.20243e-10
2.28007e-09
1.77882e-10
2.255e-09
2.40674e-10
2.21834e-09
2.87671e-10
2.1659e-09
3.57477e-10
2.10072e-09
3.94465e-10
2.02038e-09
4.38298e-10
1.92656e-09
4.6762e-10
1.82097e-09
4.8314e-10
1.70429e-09
4.96591e-10
1.58112e-09
4.89318e-10
1.45177e-09
4.84849e-10
1.32145e-09
4.63827e-10
1.19118e-09
4.44038e-10
1.06415e-09
4.17556e-10
9.42789e-10
3.87959e-10
8.26716e-10
3.6116e-10
7.19113e-10
3.2904e-10
6.19407e-10
2.99571e-10
5.27791e-10
2.70456e-10
4.45316e-10
2.40389e-10
3.7143e-10
2.12096e-10
3.05825e-10
1.85062e-10
2.48729e-10
1.58814e-10
1.99837e-10
1.34317e-10
1.58446e-10
1.12065e-10
1.24333e-10
9.16473e-11
9.68977e-11
7.35224e-11
7.55393e-11
5.7589e-11
5.99559e-11
4.34255e-11
4.91719e-11
3.12911e-11
4.2489e-11
2.04149e-11
4.03924e-11
9.40804e-12
4.168e-11
-9.38748e-13
4.62032e-11
-1.21654e-11
5.51397e-11
-2.55451e-11
6.78522e-11
-4.01963e-11
8.45104e-11
-5.70662e-11
1.071e-10
-7.77282e-11
1.34198e-10
-9.90033e-11
1.68982e-10
-1.25002e-10
2.09494e-10
-1.50222e-10
2.5862e-10
-1.79492e-10
3.14044e-10
-2.0627e-10
3.78716e-10
-2.36908e-10
4.49486e-10
-2.62496e-10
5.27971e-10
-2.89783e-10
6.11955e-10
-3.12299e-10
7.00508e-10
-3.31602e-10
7.9314e-10
-3.49141e-10
8.86932e-10
-3.58373e-10
9.81724e-10
-3.66755e-10
1.07491e-09
-3.66577e-10
1.1654e-09
-3.62847e-10
1.2519e-09
-3.5368e-10
1.33306e-09
-3.39688e-10
1.40814e-09
-3.21392e-10
1.47649e-09
-3.00643e-10
1.53737e-09
-2.74024e-10
1.59134e-09
-2.50739e-10
1.63773e-09
-2.20961e-10
1.67712e-09
-1.9302e-10
1.71009e-09
-1.66588e-10
1.73692e-09
-1.38701e-10
1.75848e-09
-1.14108e-10
1.77567e-09
-9.28326e-11
1.78899e-09
-7.21915e-11
1.79942e-09
-5.52935e-11
1.80783e-09
-4.27677e-11
1.81485e-09
-3.21517e-11
1.82126e-09
-2.5172e-11
1.82768e-09
-2.11105e-11
1.83467e-09
-1.94469e-11
1.84269e-09
-2.08334e-11
1.85216e-09
-2.47631e-11
1.86338e-09
-2.76207e-11
1.87646e-09
-3.38963e-11
1.89173e-09
-4.28835e-11
1.90816e-09
-4.4774e-11
1.9266e-09
-5.21041e-11
1.94602e-09
-5.8168e-11
1.96566e-09
-5.32883e-11
1.98532e-09
-5.53002e-11
2.00389e-09
-4.61315e-11
2.02009e-09
-3.38229e-11
2.03328e-09
-1.53432e-11
2.04139e-09
1.33422e-11
2.04382e-09
4.77946e-11
2.03841e-09
8.96378e-11
2.02361e-09
1.44594e-10
1.9986e-09
1.9282e-10
1.95985e-09
2.64873e-10
1.90771e-09
3.19311e-10
1.84067e-09
3.78496e-10
1.75669e-09
4.35811e-10
1.65869e-09
4.72718e-10
1.5425e-09
5.18838e-10
1.41493e-09
5.32534e-10
1.27274e-09
5.53086e-10
1.1239e-09
5.45966e-10
9.66677e-10
5.41578e-10
8.09205e-10
5.14907e-10
6.54606e-10
4.80113e-10
5.17713e-10
4.15538e-10
3.97505e-10
3.41972e-10
3.51037e-10
1.86399e-10
3.46817e-10
6.50127e-11
3.7998e-10
-5.84588e-11
4.46904e-10
-1.82267e-10
5.50737e-10
-3.10558e-10
6.80264e-10
-4.18534e-10
8.29978e-10
-5.10422e-10
9.71712e-10
-5.31991e-10
1.09696e-09
-5.07946e-10
1.20711e-09
-4.65811e-10
1.30317e-09
-4.12431e-10
1.38616e-09
-3.53808e-10
1.45716e-09
-2.94973e-10
1.51738e-09
-2.3986e-10
1.56817e-09
-1.91236e-10
1.61105e-09
-1.50787e-10
1.64761e-09
-1.19249e-10
1.67943e-09
-9.65309e-11
1.70802e-09
-8.18458e-11
1.73466e-09
-7.38692e-11
1.76038e-09
-7.09148e-11
1.78583e-09
-7.11107e-11
1.8113e-09
-7.26188e-11
1.83675e-09
-7.37747e-11
1.86182e-09
-7.32484e-11
1.88592e-09
-6.99972e-11
1.9082e-09
-6.3366e-11
1.92779e-09
-5.32532e-11
1.94384e-09
-3.99941e-11
1.95561e-09
-2.4253e-11
1.96256e-09
-6.91642e-12
1.96439e-09
1.10057e-11
1.96109e-09
2.84901e-11
1.95293e-09
4.46132e-11
1.94042e-09
5.86596e-11
1.92428e-09
7.01898e-11
1.90537e-09
7.90411e-11
1.88464e-09
8.53198e-11
1.86313e-09
8.91577e-11
9.28002e-11
1.72185e-09
3.72102e-11
1.78182e-09
1.15957e-10
1.86439e-09
1.84174e-10
1.95513e-09
2.3437e-10
2.04331e-09
2.67358e-10
2.1224e-09
2.85345e-10
2.18824e-09
2.90453e-10
2.24084e-09
2.8602e-10
2.28132e-09
2.74921e-10
2.31084e-09
2.5922e-10
2.3298e-09
2.41806e-10
2.33942e-09
2.24031e-10
2.34247e-09
2.06158e-10
2.34045e-09
1.89443e-10
2.33466e-09
1.74113e-10
2.3259e-09
1.6085e-10
2.31468e-09
1.50196e-10
2.30169e-09
1.41672e-10
2.28739e-09
1.3522e-10
2.27197e-09
1.30919e-10
2.25555e-09
1.28666e-10
2.23815e-09
1.28301e-10
2.21968e-09
1.29704e-10
2.19995e-09
1.32787e-10
2.17872e-09
1.37401e-10
2.15569e-09
1.43433e-10
2.13051e-09
1.50788e-10
2.10279e-09
1.59389e-10
2.07206e-09
1.69175e-10
2.03778e-09
1.80102e-10
1.99933e-09
1.92136e-10
1.95592e-09
2.0526e-10
1.90655e-09
2.19636e-10
1.84827e-09
2.45534e-10
1.79151e-09
1.92897e-10
1.75194e-09
4.75846e-11
1.73338e-09
-9.06949e-11
1.73712e-09
-2.08517e-10
1.76267e-09
-3.1367e-10
1.80703e-09
-4.05818e-10
1.86764e-09
-4.97212e-10
1.93566e-09
-5.23986e-10
2.00823e-09
-5.11646e-10
2.07996e-09
-4.79601e-10
2.14762e-09
-4.32397e-10
2.21093e-09
-3.87319e-10
2.26999e-09
-3.46807e-10
2.32395e-09
-2.95479e-10
2.37308e-09
-2.54061e-10
2.41753e-09
-2.10459e-10
2.45661e-09
-1.62195e-10
2.4905e-09
-1.1756e-10
2.5193e-09
-6.07186e-11
2.54278e-09
-1.28334e-11
2.56066e-09
5.08348e-11
2.57249e-09
1.08368e-10
2.57789e-09
1.72452e-10
2.57557e-09
2.42959e-10
2.56541e-09
2.97824e-10
2.54479e-09
3.78084e-10
2.51431e-09
4.24934e-10
2.47152e-09
4.81055e-10
2.41661e-09
5.22485e-10
2.34947e-09
5.50208e-10
2.27022e-09
5.75761e-10
2.18099e-09
5.78463e-10
2.08214e-09
5.83622e-10
1.97714e-09
5.68764e-10
1.86735e-09
5.53774e-10
1.7555e-09
5.29376e-10
1.64442e-09
4.99023e-10
1.53439e-09
4.71189e-10
1.42895e-09
4.34496e-10
1.32822e-09
4.00335e-10
1.23295e-09
3.65761e-10
1.14463e-09
3.28752e-10
1.0631e-09
2.93661e-10
9.88527e-10
2.59674e-10
9.21315e-10
2.26067e-10
8.61534e-10
1.9414e-10
8.08706e-10
1.64936e-10
7.62888e-10
1.37508e-10
7.23745e-10
1.12708e-10
6.90914e-10
9.04599e-11
6.64287e-10
7.00857e-11
6.43037e-10
5.25666e-11
6.26491e-10
3.6979e-11
6.15153e-10
2.07592e-11
6.07765e-10
6.45851e-12
6.04098e-10
-8.49088e-12
6.04954e-10
-2.63956e-11
6.09803e-10
-4.50397e-11
6.18534e-10
-6.57936e-11
6.33158e-10
-9.23482e-11
6.52155e-10
-1.17997e-10
6.7877e-10
-1.51615e-10
7.11093e-10
-1.82543e-10
7.52147e-10
-2.20544e-10
7.99691e-10
-2.53812e-10
8.5674e-10
-2.93955e-10
9.20141e-10
-3.25896e-10
9.91479e-10
-3.6112e-10
1.06833e-09
-3.89155e-10
1.14975e-09
-4.13016e-10
1.23479e-09
-4.34191e-10
1.32065e-09
-4.44237e-10
1.40668e-09
-4.52786e-10
1.49046e-09
-4.50362e-10
1.57066e-09
-4.43058e-10
1.6462e-09
-4.29231e-10
1.71576e-09
-4.09258e-10
1.77892e-09
-3.8457e-10
1.83515e-09
-3.56882e-10
1.88423e-09
-3.2312e-10
1.92664e-09
-2.93164e-10
1.96236e-09
-2.56686e-10
1.99202e-09
-2.22696e-10
2.01638e-09
-1.90947e-10
2.036e-09
-1.58319e-10
2.05172e-09
-1.29815e-10
2.06442e-09
-1.05513e-10
2.07468e-09
-8.24118e-11
2.08336e-09
-6.39348e-11
2.09112e-09
-5.04758e-11
2.09852e-09
-3.95104e-11
2.10616e-09
-3.27627e-11
2.11445e-09
-2.93573e-11
2.12378e-09
-2.8745e-11
2.13423e-09
-3.12453e-11
2.14626e-09
-3.67647e-11
2.1604e-09
-4.17295e-11
2.17603e-09
-4.94831e-11
2.19324e-09
-6.00437e-11
2.21155e-09
-6.30225e-11
2.23149e-09
-7.19685e-11
2.25194e-09
-7.85564e-11
2.27292e-09
-7.4207e-11
2.29355e-09
-7.58713e-11
2.31363e-09
-6.6168e-11
2.33188e-09
-5.20588e-11
2.34834e-09
-3.18118e-11
2.36142e-09
2.27974e-13
2.37109e-09
3.80589e-11
2.37559e-09
8.50341e-11
2.37454e-09
1.45528e-10
2.36645e-09
2.00783e-10
2.34976e-09
2.81442e-10
2.32318e-09
3.45802e-10
2.28574e-09
4.15882e-10
2.2346e-09
4.86918e-10
2.17103e-09
5.36264e-10
2.09055e-09
5.9931e-10
1.99714e-09
6.25924e-10
1.88695e-09
6.63247e-10
1.7654e-09
6.67479e-10
1.63e-09
6.76942e-10
1.48721e-09
6.5766e-10
1.34128e-09
6.26011e-10
1.21107e-09
5.45747e-10
1.0948e-09
4.58264e-10
1.04763e-09
2.33615e-10
1.04206e-09
7.06267e-11
1.07316e-09
-8.95063e-11
1.13601e-09
-2.45077e-10
1.23233e-09
-4.06843e-10
1.34878e-09
-5.34955e-10
1.47868e-09
-6.40278e-10
1.59738e-09
-6.50651e-10
1.69914e-09
-6.09677e-10
1.7866e-09
-5.53244e-10
1.86171e-09
-4.87528e-10
1.9262e-09
-4.18294e-10
1.98154e-09
-3.50316e-10
2.02903e-09
-2.8735e-10
2.06985e-09
-2.32069e-10
2.10518e-09
-1.8612e-10
2.13614e-09
-1.50215e-10
2.16382e-09
-1.24222e-10
2.18925e-09
-1.0728e-10
2.21331e-09
-9.79354e-11
2.2367e-09
-9.43153e-11
2.25988e-09
-9.42951e-11
2.28306e-09
-9.57914e-11
2.30615e-09
-9.68717e-11
2.32898e-09
-9.60639e-11
2.35106e-09
-9.20804e-11
2.37166e-09