/*--------------------------------*- C++ -*----------------------------------*\
| =========                 |                                                 |
| \\      /  F ield         | OpenFOAM: The Open Source CFD Toolbox           |
|  \\    /   O peration     | Version:  2506                                  |
|   \\  /    A nd           | Website:  www.openfoam.com                      |
|    \\/     M anipulation  |                                                 |
\*---------------------------------------------------------------------------*/
FoamFile
{
    version     2.0;
    format      ascii;
    arch        "LSB;label=32;scalar=64";
    class       volVectorField;
    location    "0.8";
    object      vorticityField;
}
// * * * * * * * * * * * * * * * * * * * * * * * * * * * * * * * * * * * * * //

dimensions      [0 0 -1 0 0 0 0];

internalField   nonuniform List<vector> 
4000
(
(1.86639e-20 -6.32623e-18 -22.9891)
(6.62019e-18 7.23588e-18 -23.5269)
(-7.02021e-18 1.88922e-17 -20.2331)
(-2.79237e-17 -3.40775e-17 -15.9377)
(5.75281e-17 1.32524e-18 -12.4871)
(-2.95809e-17 2.65441e-17 -9.84793)
(2.40628e-19 -1.35937e-17 -7.76483)
(-2.98282e-17 -0 -6.10992)
(2.94385e-17 2.69775e-17 -4.78835)
(-5.82495e-17 -2.67058e-17 -3.72327)
(5.82699e-17 2.60414e-17 -2.8561)
(4.542e-18 -2.54881e-17 -2.1447)
(-2.04153e-18 -5.39749e-17 -1.5576)
(-6.25726e-17 5.31499e-17 -1.06944)
(2.95009e-19 -0 -0.659222)
(1.1853e-16 5.16592e-17 -0.30947)
(-1.1326e-16 -5.0452e-17 -0.00657086)
(5.79115e-17 -5.28303e-17 0.261727)
(-2.74141e-18 5.16231e-17 0.50452)
(0 -0 0.730127)
(0 -0 0.944699)
(0 -0 1.15307)
(-6.73794e-18 9.92981e-17 1.35895)
(-9.24261e-17 -1.95018e-16 1.56492)
(2.11984e-16 -6.61682e-18 1.77272)
(-1.20391e-16 2.01019e-16 1.98325)
(7.56951e-18 -9.86817e-17 2.19658)
(0 -0 2.41192)
(0 -0 2.62752)
(8.45208e-18 -9.54958e-17 2.84017)
(2.06599e-16 9.20485e-17 3.04339)
(-1.11683e-16 9.89276e-17 3.22201)
(-2.22433e-16 -1.30903e-17 3.3527)
(-4.07754e-19 9.63819e-17 3.40366)
(6.61298e-17 -5.47749e-16 3.34304)
(2.21578e-16 -4.46524e-16 3.19689)
(7.76265e-16 8.04531e-16 2.98318)
(1.15714e-17 -9.40569e-18 2.65662)
(-6.19395e-16 -1.35547e-15 2.15848)
(5.32652e-16 9.07241e-16 1.42433)
(-3.05286e-16 1.78495e-15 0.250097)
(-8.98126e-16 -1.73267e-15 -1.40825)
(2.49767e-16 -7.73717e-16 -3.31953)
(-2.14476e-16 8.21243e-16 -5.28245)
(-1.02878e-15 -7.18847e-16 -7.14963)
(1.18465e-15 -1.24119e-16 -8.86662)
(9.55283e-16 -1.33717e-16 -10.4498)
(9.17034e-16 8.80719e-16 -11.791)
(1.12356e-15 9.64802e-16 -12.9248)
(4.5187e-16 1.15548e-15 -13.8289)
(-5.47241e-16 1.34727e-16 -14.4484)
(3.72399e-17 -4.62443e-16 -14.8444)
(5.95646e-16 1.08177e-15 -14.8954)
(-5.66762e-16 -1.81542e-16 -14.6821)
(8.78768e-17 -1.02673e-15 -14.1256)
(2.82467e-16 3.27801e-17 -13.2476)
(-2.61327e-16 1.72918e-16 -12.0703)
(-8.3185e-17 4.53788e-17 -10.5408)
(-1.52963e-16 -2.63583e-17 -8.80092)
(7.07446e-17 4.50828e-17 -6.78336)
(-7.20212e-17 2.85258e-17 -4.5873)
(-3.06369e-16 -4.03284e-18 -2.33592)
(1.45228e-16 6.08887e-17 -0.0407364)
(1.02063e-16 6.00907e-16 2.20078)
(8.65395e-18 5.13702e-18 4.34478)
(1.08715e-16 -7.40222e-16 6.35318)
(-5.86335e-16 1.98594e-16 8.17907)
(-1.7217e-17 3.67797e-16 9.8278)
(-2.62216e-16 -5.80165e-16 11.272)
(6.73167e-16 -6.94205e-16 12.5189)
(1.58666e-16 5.14752e-16 13.5725)
(2.70936e-17 1.72518e-16 14.437)
(1.8601e-19 -2.1781e-18 15.1054)
(8.40548e-16 -5.33153e-16 15.6047)
(8.07717e-16 -5.72878e-16 15.9322)
(3.13647e-17 -6.57189e-16 16.0941)
(6.6093e-16 -4.24134e-16 16.1207)
(-7.79567e-17 6.80618e-16 16.0213)
(7.23484e-16 -3.55805e-16 15.8059)
(-6.19731e-16 -1.90702e-16 15.5045)
(1.16839e-15 -3.29915e-16 15.1326)
(1.50508e-16 6.44966e-16 14.7034)
(-3.32882e-17 7.77627e-17 14.2343)
(5.74572e-17 -1.83687e-17 13.737)
(-5.59564e-16 -8.92759e-16 13.2215)
(9.6587e-16 -1.26999e-15 12.6989)
(-3.15865e-17 1.14477e-15 12.1674)
(6.28953e-17 6.22191e-16 11.6289)
(8.82793e-18 -1.09751e-15 11.097)
(3.93371e-16 -2.53925e-16 10.5602)
(-1.37031e-18 3.42733e-18 10.0182)
(3.83595e-16 -7.04006e-16 9.48667)
(1.83595e-16 8.61473e-16 8.94971)
(-1.31087e-16 3.10851e-16 8.41335)
(-8.33594e-18 -4.65128e-16 7.88907)
(-5.39921e-17 4.88961e-16 7.367)
(-1.60241e-16 8.72865e-17 6.86874)
(-2.06258e-17 -2.34417e-17 6.38292)
(2.42847e-16 5.3038e-17 5.92838)
(-3.98326e-17 -1.98688e-16 5.50157)
(-4.31301e-17 -1.84244e-19 5.1101)
(-1.44556e-17 4.37316e-17 4.75026)
(7.29507e-18 -1.27441e-16 4.42161)
(1.89429e-17 -3.48757e-17 4.10766)
(2.79789e-17 1.39216e-17 3.8078)
(5.08465e-19 4.61579e-17 3.50662)
(-2.76378e-18 -3.71124e-16 3.20537)
(1.41781e-16 2.05324e-17 2.88931)
(1.79291e-16 6.30144e-16 2.5506)
(-3.3586e-16 9.10491e-17 2.18057)
(1.81899e-16 -1.28252e-16 1.77293)
(-7.53917e-18 -4.21522e-16 1.3247)
(1.76412e-16 8.36556e-17 0.831277)
(1.82318e-16 3.13605e-16 0.301947)
(5.27193e-18 4.46176e-16 -0.273674)
(-3.50917e-16 -2.31947e-16 -0.877312)
(-3.39214e-18 -8.82994e-16 -1.50379)
(-6.7102e-17 -1.0554e-17 -2.15196)
(-3.73945e-16 -2.76591e-16 -2.8013)
(3.81023e-16 2.86255e-16 -3.44477)
(5.1439e-16 1.28017e-15 -4.08002)
(-4.74195e-16 -3.17597e-16 -4.69471)
(-1.77738e-17 -1.04063e-15 -5.28322)
(4.34654e-16 3.30957e-16 -5.84948)
(9.05358e-17 1.09228e-15 -6.38119)
(-8.8612e-16 -6.27361e-16 -6.88037)
(3.19887e-16 -3.1843e-16 -7.34882)
(-4.50881e-16 9.06807e-17 -7.78467)
(-4.84791e-16 -7.02296e-16 -8.19594)
(-1.205e-16 -5.4505e-16 -8.60054)
(5.41301e-18 -4.31026e-16 -8.96865)
(3.35742e-16 3.12533e-16 -9.32406)
(1.71066e-16 5.33896e-16 -9.69613)
(9.70716e-16 6.69657e-16 -10.027)
(-5.28816e-16 2.02034e-16 -10.3433)
(6.88884e-17 3.73999e-17 -10.6886)
(-7.10146e-17 -3.85355e-17 -10.9286)
(9.00684e-17 6.42934e-18 -11.1688)
(-7.98979e-17 -8.29198e-17 -11.3064)
(1.10188e-16 -8.90167e-17 -11.3542)
(-1.78609e-16 -2.87652e-17 -11.2666)
(4.27689e-16 1.9172e-16 -10.998)
(-2.36484e-16 -3.31882e-17 -10.4964)
(5.71538e-17 -2.18038e-17 -9.77331)
(1.31849e-16 1.04947e-16 -8.72071)
(2.99024e-17 1.15621e-16 -7.46664)
(2.65089e-17 -3.94608e-17 -5.85357)
(0 -0 -4.00175)
(5.80109e-17 -3.91298e-17 -1.96356)
(-6.56049e-17 3.97561e-17 0.237778)
(-2.71138e-17 1.80499e-16 2.47615)
(4.44176e-17 8.73774e-17 4.72673)
(-1.52255e-16 -9.36853e-17 6.8799)
(-8.57964e-17 -2.33808e-16 8.90204)
(1.6758e-16 -6.53885e-17 10.7395)
(-1.67933e-16 1.72377e-16 12.3649)
(2.39073e-16 7.49852e-17 13.7411)
(-3.3375e-16 1.83355e-16 14.8107)
(7.1546e-17 2.93285e-16 15.2407)
(-2.15585e-16 1.78803e-16 14.7885)
(2.11421e-16 -6.75258e-16 13.9882)
(-1.70431e-16 1.16685e-16 13.5998)
(4.19361e-17 8.59208e-17 13.0461)
(-2.89911e-17 6.75839e-18 12.364)
(-2.70493e-17 4.16009e-18 11.6434)
(-2.57082e-17 2.13596e-18 10.9643)
(2.50699e-17 1.8412e-17 10.3328)
(-2.07277e-17 5.60035e-18 9.50656)
(-1.36578e-18 -1.98372e-17 8.37793)
(-2.42086e-18 -1.75101e-17 7.14816)
(2.0803e-17 -4.55848e-18 5.98347)
(4.55283e-18 3.34009e-17 4.95572)
(6.71505e-19 -1.18257e-17 4.10137)
(-4.78666e-18 -1.92707e-17 3.42767)
(2.63177e-18 1.5846e-17 2.92084)
(-1.82031e-17 -5.18445e-19 2.55679)
(3.33869e-17 -1.27441e-17 2.30819)
(-1.82052e-17 9.51477e-18 2.14467)
(3.75696e-18 1.60717e-17 2.03556)
(-8.78837e-19 -1.27999e-17 1.95693)
(-8.23135e-18 -4.9123e-18 1.89137)
(1.29465e-17 -1.22304e-18 1.8266)
(1.02184e-18 9.79755e-18 1.75567)
(2.72329e-19 1.29428e-18 1.67664)
(-5.31996e-18 -4.91909e-18 1.59169)
(-4.9978e-18 -1.49078e-20 1.50604)
(5.56587e-18 1.66023e-20 1.42673)
(-4.75938e-18 1.89907e-19 1.36142)
(8.05825e-18 5.66361e-20 1.31742)
(-5.10225e-18 -2.18874e-19 1.30066)
(1.72272e-18 5.13867e-21 1.31339)
(3.87242e-19 9.84583e-19 1.35671)
(-1.08989e-18 -2.17792e-19 1.43078)
(3.01366e-19 -1.74489e-18 1.53361)
(1.02912e-18 1.06087e-18 1.66169)
(-1.32477e-19 2.53367e-19 1.81068)
(1.08685e-19 1.9581e-19 1.97574)
(1.45826e-19 -4.7839e-19 2.15858)
(7.40947e-20 -7.23488e-20 2.38672)
(2.33463e-20 6.9941e-20 2.63036)
(0 -0 3.01013)
(7.41292e-20 -0 -5.44654)
(6.49052e-20 1.32671e-17 -10.7177)
(1.46217e-18 -2.90958e-17 -12.731)
(-1.60399e-17 4.2696e-18 -13.2355)
(1.45137e-17 2.53142e-17 -12.9683)
(-3.34285e-19 1.42218e-17 -12.4392)
(9.8992e-19 -3.03438e-17 -11.8417)
(2.77206e-17 2.36518e-18 -11.256)
(-2.75051e-17 -1.69193e-18 -10.7136)
(-5.46394e-17 -8.35928e-17 -10.2255)
(1.11011e-16 8.77575e-17 -9.79208)
(-3.74295e-18 1.1139e-16 -9.40974)
(-5.49732e-17 -5.89974e-17 -9.07298)
(7.34053e-18 -1.70025e-16 -8.77581)
(5.40135e-17 5.96788e-17 -8.51247)
(-6.41316e-17 1.12218e-16 -8.27634)
(4.73439e-18 -5.67353e-17 -8.06232)
(0 -0 -7.86474)
(0 -0 -7.67943)
(0 -0 -7.50227)
(0 -0 -7.32934)
(0 -0 -7.15728)
(2.18347e-16 -0 -6.98314)
(-3.24288e-16 -0 -6.80445)
(1.05697e-16 -0 -6.61893)
(0 -0 -6.42444)
(0 -0 -6.21904)
(0 -0 -6.00113)
(9.37379e-18 -1.0591e-16 -5.76926)
(7.42336e-18 -9.03192e-19 -5.52228)
(-3.74807e-17 3.15213e-16 -5.25979)
(9.20131e-18 -8.83725e-17 -4.98409)
(1.12071e-16 -3.15063e-16 -4.66543)
(5.90433e-17 4.01925e-16 -4.35112)
(-2.48222e-16 -3.57606e-16 -4.15979)
(-7.88462e-16 -6.22992e-16 -4.13689)
(-6.65263e-17 1.5731e-15 -4.2762)
(4.2273e-16 6.20415e-16 -4.59844)
(-8.20535e-16 -1.67976e-15 -5.15772)
(2.48024e-16 -9.7809e-17 -6.06319)
(6.92811e-16 1.25667e-15 -7.27255)
(7.05614e-17 -6.51972e-17 -8.63954)
(-1.51142e-17 2.14384e-16 -10.0697)
(1.25769e-15 -4.9699e-16 -11.4876)
(-1.1022e-15 -1.51917e-15 -12.8678)
(-2.13404e-15 -1.32774e-16 -14.1966)
(-9.08402e-16 -9.93518e-16 -15.4176)
(-1.12795e-15 -5.45463e-16 -16.5539)
(-5.61899e-16 2.03388e-16 -17.5623)
(1.65286e-15 6.70219e-16 -18.4277)
(3.53023e-17 -4.34932e-16 -19.1595)
(-5.64375e-16 -5.33601e-16 -19.6942)
(4.90211e-16 6.50566e-16 -20.0712)
(-6.12475e-16 2.81109e-16 -20.2214)
(-5.99966e-16 1.16945e-16 -20.167)
(-3.63218e-16 -2.18973e-17 -19.8772)
(-1.38114e-16 -1.11265e-16 -19.3278)
(8.23121e-17 -8.71613e-17 -18.5569)
(8.45205e-17 -1.02195e-16 -17.5128)
(4.35983e-17 2.28568e-16 -16.2529)
(3.05257e-16 -1.7335e-16 -14.7943)
(-2.42005e-16 -3.48274e-16 -13.1788)
(1.90214e-16 -5.61174e-16 -11.4672)
(-2.65051e-16 1.89701e-16 -9.69743)
(-1.30956e-17 1.13702e-15 -7.93205)
(-2.47524e-16 1.22416e-16 -6.21158)
(3.07657e-16 -6.47138e-16 -4.59182)
(3.13073e-16 5.15175e-17 -3.10201)
(-8.66574e-16 3.56403e-16 -1.7574)
(2.20863e-17 -1.1654e-16 -0.57972)
(1.28161e-15 -6.24038e-16 0.447132)
(-7.16434e-16 -3.58394e-16 1.30413)
(3.92933e-18 -8.86121e-16 1.99725)
(-9.36212e-16 1.28317e-15 2.54777)
(-1.35859e-16 8.12534e-16 2.955)
(1.74477e-16 -1.11638e-16 3.23849)
(3.62668e-17 -6.90799e-16 3.42064)
(6.07752e-16 8.54927e-17 3.50761)
(1.35881e-15 -7.97373e-16 3.51632)
(-1.77768e-15 -2.54546e-16 3.4646)
(-2.00871e-16 7.42008e-16 3.36181)
(5.9464e-16 -3.91555e-16 3.21898)
(-1.27194e-16 5.31712e-16 3.04609)
(4.27092e-17 1.2101e-16 2.84668)
(-1.02281e-15 5.6523e-16 2.63017)
(-4.11147e-16 4.20361e-16 2.40196)
(-5.53729e-16 -3.69215e-16 2.15566)
(-4.31323e-16 8.64537e-16 1.90042)
(-8.60518e-16 5.46902e-16 1.64185)
(-2.69438e-19 -1.71007e-17 1.3693)
(-3.88913e-16 4.75723e-16 1.09699)
(-1.52223e-16 -1.51483e-16 0.828745)
(3.47767e-16 -2.22007e-16 0.555115)
(-1.56207e-16 4.32719e-16 0.291204)
(-4.42429e-18 -2.22486e-16 0.0329735)
(3.42553e-16 -1.7972e-16 -0.212844)
(-1.6486e-16 -4.24413e-16 -0.444289)
(-1.9737e-17 -1.24854e-16 -0.661033)
(8.91383e-17 5.39484e-16 -0.860081)
(4.35003e-17 -2.11225e-17 -1.04835)
(5.30042e-17 -1.12546e-16 -1.22021)
(2.23815e-17 8.48136e-17 -1.38904)
(-1.93346e-17 1.11004e-17 -1.55437)
(-3.7762e-17 1.0062e-17 -1.72369)
(-8.15383e-17 -2.23874e-17 -1.90638)
(1.49872e-18 2.0125e-16 -2.10131)
(-4.70115e-16 -3.09888e-16 -2.32352)
(-6.65403e-18 1.35957e-17 -2.57038)
(3.18964e-16 -1.20612e-16 -2.84988)
(-3.88804e-18 -2.11927e-16 -3.16575)
(1.27288e-17 4.37715e-16 -3.51928)
(-1.72431e-16 -3.0944e-16 -3.91373)
(-1.7225e-16 -7.41945e-17 -4.34244)
(1.77888e-16 3.27562e-16 -4.81418)
(3.50513e-16 2.02891e-16 -5.31578)
(-1.33569e-17 4.91735e-16 -5.84856)
(5.8335e-17 4.75144e-16 -6.40845)
(3.61906e-16 -3.65529e-16 -6.98267)
(-7.72097e-16 -1.55802e-15 -7.57104)
(3.7899e-16 3.94789e-16 -8.169)
(4.44417e-16 8.08467e-16 -8.76517)
(-3.67039e-16 -3.06299e-16 -9.35869)
(-5.13402e-16 -3.72738e-16 -9.9496)
(-4.31809e-16 1.8885e-16 -10.5272)
(1.45249e-15 5.03153e-16 -11.095)
(-5.05853e-16 -1.61556e-16 -11.6506)
(4.57382e-16 5.9813e-16 -12.1921)
(9.30151e-17 -6.24365e-17 -12.7246)
(-9.73564e-16 -7.15905e-16 -13.2548)
(-4.14333e-16 -2.26479e-16 -13.7642)
(-9.28051e-16 -7.44952e-16 -14.2745)
(-6.20611e-16 -1.29074e-15 -14.7928)
(-1.071e-15 4.57425e-17 -15.2823)
(1.48764e-16 3.78835e-16 -15.7767)
(-1.32189e-16 -4.76419e-16 -16.2785)
(-1.93046e-16 -1.12766e-16 -16.7156)
(-5.26432e-17 -7.1184e-17 -17.1657)
(7.36741e-17 2.19479e-17 -17.5398)
(-1.03228e-16 1.74491e-16 -17.8667)
(6.17633e-17 -2.22966e-16 -18.1067)
(-1.66587e-16 3.5097e-17 -18.2339)
(-6.8441e-17 1.85256e-16 -18.2196)
(-3.20335e-17 -2.04949e-16 -18.0556)
(7.10423e-17 -6.20389e-17 -17.6714)
(5.02744e-17 -6.30578e-17 -17.1264)
(-1.18354e-16 4.75505e-17 -16.2977)
(7.42713e-17 -2.06308e-17 -15.2595)
(-4.85463e-17 9.72743e-17 -13.9855)
(1.28862e-16 7.32783e-18 -12.4881)
(7.33468e-17 -2.54542e-16 -10.8416)
(-3.30442e-17 -1.57878e-17 -9.03048)
(-5.33635e-17 2.06788e-16 -7.16604)
(1.10063e-16 7.40399e-18 -5.27602)
(-4.00337e-16 2.55936e-16 -3.45614)
(1.84874e-16 -1.8531e-16 -1.72628)
(-1.29322e-17 -4.66334e-17 -0.174285)
(3.81324e-16 -2.74776e-19 1.10789)
(-1.20295e-16 -3.3101e-16 2.01207)
(6.14924e-16 -6.03014e-16 2.46553)
(-2.21009e-16 5.1576e-16 2.23976)
(3.68927e-17 2.26215e-16 1.80235)
(-9.21039e-20 -2.31108e-16 1.29547)
(6.77337e-17 4.68184e-17 0.739095)
(7.30973e-19 8.88376e-18 0.153899)
(4.74135e-17 -3.7498e-17 -0.463859)
(-5.2045e-17 -3.15007e-17 -1.13827)
(2.39468e-17 1.8936e-17 -1.92399)
(3.84723e-19 2.54557e-18 -2.69943)
(1.49352e-18 1.82211e-19 -3.42508)
(1.98633e-18 -2.31263e-18 -4.09452)
(-2.92681e-18 -1.76095e-17 -4.69646)
(2.07907e-17 1.80659e-17 -5.22297)
(-1.63035e-17 1.77085e-17 -5.67014)
(-9.07636e-19 -2.88245e-18 -6.04064)
(-2.20694e-17 -2.79716e-17 -6.34223)
(1.96044e-17 1.30634e-17 -6.58535)
(2.03481e-18 1.47988e-17 -6.78231)
(-4.00974e-18 -2.92956e-17 -6.94551)
(1.50237e-18 2.22367e-17 -7.08549)
(4.51095e-19 -6.94328e-18 -7.21032)
(-6.02913e-18 -7.60066e-18 -7.32541)
(5.57575e-18 1.68286e-18 -7.43356)
(5.4856e-18 5.53541e-18 -7.53524)
(-5.66766e-18 9.59309e-18 -7.62904)
(-1.68444e-18 -9.9182e-18 -7.71217)
(-5.70366e-19 5.28943e-19 -7.78105)
(4.35304e-19 -3.28307e-18 -7.83205)
(2.2607e-19 1.25543e-18 -7.86167)
(-2.13141e-19 5.50115e-18 -7.86718)
(-1.62823e-18 -4.7133e-18 -7.8478)
(1.1494e-18 1.88611e-18 -7.80394)
(2.22629e-18 1.02125e-18 -7.73645)
(-2.45201e-18 -8.02476e-19 -7.64772)
(-4.30038e-20 -4.73847e-19 -7.54098)
(-1.21746e-19 8.10595e-19 -7.41952)
(-1.09019e-19 -1.3364e-20 -7.28683)
(-2.26306e-19 3.08577e-19 -7.14563)
(3.3971e-21 -2.14427e-20 -6.9979)
(-4.63087e-20 1.8651e-19 -6.87761)
(1.90077e-20 -6.44276e-18 5.09826)
(-4.0342e-19 7.87894e-18 1.69726)
(2.14784e-19 1.77084e-17 -2.05216)
(1.60114e-18 -2.21703e-17 -5.29137)
(-1.59872e-17 -9.84192e-18 -7.70097)
(1.45026e-17 1.28676e-17 -9.19724)
(0 -0 -10.1549)
(3.05078e-17 -2.64609e-17 -10.7232)
(-3.22012e-17 5.74111e-17 -11.0234)
(2.97748e-17 4.51808e-17 -11.1555)
(-2.67896e-17 -1.10456e-16 -11.1834)
(-4.56498e-18 -7.31931e-17 -11.1447)
(1.96662e-18 1.14083e-16 -11.0641)
(1.13393e-16 4.74172e-17 -10.959)
(-1.04412e-16 -1.07666e-16 -10.8412)
(-7.2185e-17 1.12882e-16 -10.7187)
(1.15622e-16 -1.06574e-17 -10.5964)
(-4.92684e-17 -1.02323e-16 -10.4771)
(-2.85604e-18 5.37816e-17 -10.3623)
(0 -0 -10.2524)
(-1.07372e-16 -0 -10.147)
(1.07627e-16 -0 -10.045)
(7.14727e-18 -1.05331e-16 -9.94477)
(9.8444e-17 1.13337e-16 -9.84427)
(-1.13615e-16 9.75537e-17 -9.74135)
(7.78572e-18 -1.0556e-16 -9.63373)
(0 -0 -9.51906)
(-1.05309e-16 -0 -9.39488)
(5.37859e-19 -0 -9.25869)
(1.14512e-16 -1.03433e-16 -9.10782)
(-1.85706e-17 1.08675e-16 -8.9391)
(-2.17789e-16 9.85258e-17 -8.74844)
(3.37888e-16 -9.73082e-17 -8.53443)
(-1.95422e-16 8.28303e-19 -8.28382)
(1.6754e-17 -2.12493e-16 -8.00873)
(3.88565e-16 4.75877e-16 -7.7513)
(-5.67803e-16 6.16202e-17 -7.55499)
(-2.8618e-16 -1.42327e-15 -7.46591)
(6.09427e-16 3.59281e-16 -7.52005)
(1.51572e-16 9.39277e-16 -7.74576)
(9.41337e-17 1.95313e-16 -8.18438)
(1.20645e-15 -1.00658e-16 -8.77959)
(-2.94291e-16 -1.93584e-16 -9.51569)
(-9.06857e-16 -6.52027e-16 -10.3682)
(1.12122e-15 1.87489e-15 -11.2848)
(-1.3445e-15 1.11416e-15 -12.2491)
(7.09908e-16 -8.08887e-16 -13.2363)
(4.46873e-17 -5.18968e-16 -14.2125)
(6.77861e-17 -1.29037e-16 -15.1921)
(3.90481e-17 -1.31696e-15 -16.1304)
(-6.23034e-16 5.39947e-18 -17.0237)
(-1.64223e-16 1.18536e-15 -17.8686)
(7.10884e-17 3.97241e-16 -18.6391)
(-7.79147e-17 -1.73618e-16 -19.3476)
(6.15447e-16 -2.75748e-16 -19.9536)
(3.05716e-16 -1.96443e-16 -20.4678)
(4.05371e-16 -1.19751e-16 -20.8561)
(3.56851e-17 -2.64565e-16 -21.1066)
(1.01758e-16 -1.50597e-16 -21.1998)
(-1.49885e-16 7.00231e-17 -21.1032)
(-5.45215e-17 -1.17807e-16 -20.8178)
(2.87853e-16 1.87267e-16 -20.3135)
(-4.48954e-16 2.4871e-16 -19.6151)
(-3.76822e-16 6.89126e-16 -18.732)
(3.54846e-17 -1.12264e-16 -17.6968)
(4.6573e-16 -8.39581e-16 -16.542)
(8.39364e-16 -4.25674e-16 -15.3167)
(-1.24482e-16 -4.3711e-17 -14.0689)
(-2.24418e-17 2.15135e-16 -12.8459)
(6.28114e-16 -4.01018e-16 -11.6744)
(-6.75552e-18 -1.20419e-15 -10.5833)
(-1.1696e-15 1.34363e-15 -9.58602)
(9.44369e-16 5.83168e-16 -8.68589)
(-1.7459e-15 1.1932e-15 -7.90053)
(-7.40799e-16 6.47383e-16 -7.21285)
(1.53735e-16 -1.6547e-15 -6.61616)
(-7.66424e-16 3.50444e-16 -6.11005)
(-5.72018e-17 9.89112e-17 -5.67884)
(-1.32068e-15 -5.93719e-16 -5.31368)
(-2.56455e-16 1.97777e-15 -5.00845)
(-5.77368e-16 2.71914e-15 -4.75217)
(9.20379e-17 -1.95495e-15 -4.53619)
(-5.82222e-16 2.60141e-16 -4.35616)
(-5.12358e-16 1.1786e-15 -4.20615)
(5.13037e-16 -3.906e-16 -4.0826)
(-9.66064e-16 7.69192e-16 -3.98351)
(1.48736e-15 -3.88438e-16 -3.90424)
(1.07523e-15 5.78298e-17 -3.84338)
(4.9578e-16 -8.26908e-16 -3.80187)
(2.07488e-17 -4.68706e-16 -3.77078)
(-8.93345e-18 -5.66988e-16 -3.74897)
(-1.84879e-17 -2.47578e-16 -3.73705)
(1.94819e-16 -1.41033e-16 -3.72766)
(-2.08692e-16 3.20802e-16 -3.71753)
(-8.22262e-18 2.62397e-17 -3.71132)
(6.42665e-17 -2.18487e-16 -3.69416)
(-2.48208e-17 1.71546e-16 -3.68012)
(1.01359e-17 4.21144e-16 -3.65308)
(-5.5255e-16 -2.62487e-17 -3.6304)
(-4.66146e-17 -2.73986e-16 -3.59691)
(3.928e-17 9.63162e-18 -3.57271)
(-5.8395e-17 7.3017e-17 -3.54603)
(1.61589e-19 -3.80749e-17 -3.53155)
(4.31689e-19 3.75112e-17 -3.52981)
(9.5952e-19 8.72515e-17 -3.54348)
(7.62677e-17 5.78035e-18 -3.58136)
(8.41983e-17 1.154e-16 -3.64206)
(3.12393e-16 5.8569e-17 -3.73188)
(-4.85028e-16 -5.24263e-16 -3.85383)
(3.31977e-16 3.22321e-16 -4.01157)
(-3.40919e-16 5.75352e-17 -4.20705)
(3.84204e-18 -2.10131e-16 -4.44137)
(-9.02824e-18 2.1961e-16 -4.71777)
(-8.00432e-18 -2.68163e-16 -5.0312)
(-2.47808e-17 -1.87819e-16 -5.39198)
(2.96523e-18 2.41177e-16 -5.78453)
(-1.60237e-16 -5.68162e-16 -6.21916)
(-2.02124e-16 -4.29707e-16 -6.68946)
(7.39342e-16 1.4611e-15 -7.18632)
(4.26074e-16 9.1059e-17 -7.71331)
(-9.49475e-16 -9.31921e-16 -8.2637)
(-2.49943e-16 7.81917e-16 -8.82757)
(4.0005e-16 1.71883e-16 -9.40628)
(4.97553e-16 3.99745e-16 -9.99655)
(3.66185e-16 -1.14885e-15 -10.5873)
(2.22588e-16 5.69558e-16 -11.1816)
(-2.33638e-16 3.47332e-16 -11.7745)
(4.67413e-16 2.55591e-16 -12.3626)
(6.87729e-16 1.27582e-15 -12.9476)
(1.04024e-15 3.57587e-16 -13.5304)
(4.49841e-16 -4.74294e-16 -14.0976)
(5.41598e-16 3.64481e-16 -14.6668)
(6.46248e-16 5.83606e-16 -15.2359)
(-4.97075e-16 -9.6477e-16 -15.7772)
(6.58641e-16 -5.55638e-17 -16.3269)
(3.91967e-17 2.04715e-16 -16.8722)
(1.1932e-16 -6.45529e-17 -17.3725)
(2.47144e-16 -1.89781e-16 -17.8937)
(-4.04732e-18 2.91585e-17 -18.3608)
(2.35861e-16 -8.26437e-17 -18.8118)
(-2.68396e-16 6.22741e-17 -19.2218)
(-8.40728e-16 -3.07479e-17 -19.5806)
(8.60878e-17 -6.68037e-17 -19.8785)
(-3.70566e-17 -1.49665e-16 -20.1069)
(1.15659e-16 1.70093e-16 -20.2259)
(-2.5621e-17 2.51352e-16 -20.2654)
(-6.41852e-17 -9.91776e-17 -20.1307)
(9.01844e-17 -1.42759e-17 -19.8688)
(-1.28586e-16 -6.80236e-17 -19.4078)
(2.17415e-16 -7.15221e-17 -18.7506)
(-6.74735e-17 3.08281e-16 -17.913)
(-1.91172e-16 2.57141e-16 -16.8567)
(1.678e-16 -3.3453e-16 -15.6493)
(-4.96591e-17 1.68333e-17 -14.2917)
(1.87958e-16 -1.62899e-16 -12.8817)
(1.80143e-16 -3.32008e-16 -11.436)
(-3.89476e-16 1.76611e-16 -10.0472)
(1.84926e-16 -7.54436e-17 -8.78958)
(6.86281e-18 1.43384e-17 -7.75889)
(-4.76079e-16 2.96118e-16 -7.04403)
(-1.34993e-16 1.59175e-16 -6.82407)
(2.50686e-16 -2.75503e-16 -6.97081)
(-2.84896e-17 2.69445e-17 -7.16557)
(-2.865e-17 1.75147e-17 -7.35647)
(2.87116e-17 -4.94708e-19 -7.52128)
(3.24165e-17 2.33403e-17 -7.688)
(5.14442e-18 5.59941e-17 -7.87164)
(-2.90268e-17 -4.39038e-17 -8.08509)
(-2.35492e-17 -4.73679e-18 -8.27415)
(-2.16134e-18 -2.08699e-17 -8.45526)
(2.42135e-17 4.28619e-18 -8.65453)
(-2.06691e-18 1.95996e-17 -8.87214)
(-3.98963e-17 -2.50457e-18 -9.10535)
(4.09264e-17 1.43353e-18 -9.34662)
(1.8771e-18 1.8006e-17 -9.58455)
(1.84756e-17 -2.51765e-17 -9.80904)
(-3.64192e-17 -2.4012e-17 -10.0133)
(2.13291e-17 3.82378e-17 -10.1938)
(-1.76424e-18 6.06456e-18 -10.3498)
(-1.05117e-18 -1.53485e-17 -10.4822)
(9.57891e-18 3.20606e-19 -10.5931)
(-7.64895e-18 -3.85964e-18 -10.6853)
(-2.17402e-18 4.26555e-18 -10.7616)
(-1.04982e-17 1.00806e-17 -10.8248)
(1.02419e-17 -3.74595e-18 -10.8771)
(5.91286e-18 -6.59824e-18 -10.9199)
(-6.72296e-18 -1.92477e-18 -10.9537)
(4.75803e-18 -1.67249e-19 -10.9785)
(-4.8292e-18 8.45528e-19 -10.9935)
(1.72768e-18 1.01831e-18 -10.997)
(-2.45805e-18 -3.73387e-18 -10.9871)
(-1.68305e-18 -4.01744e-19 -10.9626)
(1.19858e-18 4.53901e-18 -10.9227)
(-5.7009e-20 -1.49991e-18 -10.8673)
(-1.30983e-19 -1.06629e-18 -10.7968)
(4.29037e-19 -5.38108e-19 -10.7125)
(-6.15938e-20 -1.15416e-18 -10.616)
(-1.22278e-19 -8.4705e-19 -10.51)
(-2.15203e-19 4.22306e-19 -10.3976)
(1.46998e-21 -1.14777e-19 -10.2958)
(0 -0 3.25552)
(-6.86277e-18 -0 2.87764)
(6.70047e-18 1.2702e-17 1.62267)
(8.22676e-19 -1.58615e-17 -0.2872)
(-7.51459e-19 -9.51635e-18 -2.13494)
(-1.86984e-19 1.26758e-17 -3.80928)
(-2.65108e-17 -0 -5.25568)
(2.65194e-17 -0 -6.41553)
(-1.84427e-18 -0 -7.26672)
(4.0914e-18 -0 -7.91472)
(5.63729e-17 -5.10609e-17 -8.39921)
(-6.02342e-17 6.20244e-17 -8.74734)
(-5.59568e-17 -1.07518e-17 -8.99077)
(2.04654e-18 6.12094e-17 -9.15572)
(1.91889e-18 -1.99958e-17 -9.26333)
(5.37793e-17 -1.43847e-16 -9.32902)
(5.65459e-17 1.11853e-16 -9.36497)
(-5.9281e-17 4.17968e-17 -9.38067)
(2.72046e-18 -5.12286e-17 -9.38323)
(-5.77314e-17 1.01268e-16 -9.37787)
(5.90725e-17 -1.1839e-16 -9.36839)
(5.35724e-18 -8.43867e-17 -9.35714)
(2.26047e-19 1.08213e-18 -9.3452)
(-1.80014e-17 1.16377e-16 -9.33267)
(-9.80963e-17 8.47018e-17 -9.31895)
(1.09531e-16 -1.00652e-16 -9.3029)
(9.33528e-17 9.93223e-17 -9.28304)
(5.5279e-19 -1.45002e-17 -9.25768)
(-1.85106e-16 -1.98193e-16 -9.22495)
(1.08538e-16 -8.46746e-17 -9.18278)
(-3.7993e-17 3.09313e-16 -9.12867)
(1.12553e-16 -2.44083e-17 -9.05941)
(-9.1739e-17 -9.34861e-17 -8.9736)
(-9.15428e-17 -9.38829e-18 -8.87453)
(1.18632e-16 -1.77534e-16 -8.74494)
(-2.39747e-16 1.79386e-16 -8.55037)
(7.94819e-16 5.83742e-16 -8.30385)
(7.69298e-16 6.15532e-16 -8.07995)
(-8.57339e-16 -6.4765e-16 -7.92893)
(-3.46217e-16 -8.35362e-16 -7.87252)
(1.01317e-16 -1.08738e-15 -7.92732)
(-1.02633e-15 8.0128e-16 -8.0641)
(-1.89596e-16 1.69471e-15 -8.32489)
(1.10772e-15 -9.37383e-16 -8.71171)
(-4.85772e-16 -1.11359e-15 -9.19595)
(9.92386e-16 2.48969e-16 -9.76595)
(5.59713e-16 3.46734e-16 -10.3977)
(4.20131e-16 2.27811e-16 -11.0717)
(5.23733e-16 4.89781e-16 -11.799)
(4.37246e-16 1.08202e-15 -12.5386)
(-1.04293e-15 -6.09399e-16 -13.2897)
(5.97123e-16 -7.27428e-16 -14.0488)
(-1.41174e-16 -1.8111e-16 -14.8138)
(6.60711e-16 4.54565e-16 -15.5846)
(-1.08106e-17 3.21706e-16 -16.3467)
(-2.9386e-17 4.42694e-16 -17.1017)
(4.71244e-16 3.03582e-16 -17.8316)
(1.42577e-16 8.28073e-17 -18.5352)
(-7.34491e-18 3.10459e-18 -19.1771)
(-7.5034e-17 -3.23043e-17 -19.7528)
(1.39115e-16 -1.03433e-16 -20.2241)
(-3.08052e-16 1.75894e-16 -20.5523)
(4.17931e-16 -1.59539e-16 -20.7256)
(-1.53301e-16 -8.01469e-16 -20.714)
(8.23159e-16 -4.00445e-16 -20.533)
(-6.68146e-16 9.01945e-16 -20.1737)
(2.17247e-16 3.22679e-16 -19.6762)
(-1.47207e-16 1.55052e-16 -19.042)
(5.10688e-16 -6.13904e-16 -18.3232)
(-3.19406e-16 2.25686e-16 -17.5467)
(-2.48247e-16 1.41855e-15 -16.7409)
(-6.43109e-16 -5.93193e-16 -15.9446)
(5.95385e-16 -4.1228e-16 -15.1554)
(1.00231e-17 9.4249e-16 -14.4027)
(8.7159e-16 -1.37894e-15 -13.6856)
(-4.17344e-17 7.01597e-16 -13.0015)
(-6.56075e-16 6.0174e-16 -12.3586)
(-3.84925e-17 6.22261e-17 -11.7517)
(-1.36466e-15 1.62468e-15 -11.1752)
(-1.17969e-15 2.07436e-16 -10.6305)
(2.5101e-15 -3.14327e-15 -10.1157)
(5.55755e-16 1.87104e-16 -9.62637)
(-5.79635e-16 1.16343e-15 -9.16457)
(5.9408e-16 -1.04432e-15 -8.72996)
(-2.48153e-18 6.39836e-16 -8.32116)
(1.06428e-15 -1.90859e-15 -7.94203)
(-1.09498e-15 -1.92028e-15 -7.59094)
(1.17475e-16 3.21812e-16 -7.26238)
(4.03416e-16 1.50247e-15 -6.96353)
(1.38013e-15 -2.23766e-16 -6.6867)
(2.26381e-16 -1.24144e-16 -6.42504)
(-1.35114e-17 -8.28297e-18 -6.18383)
(-2.12043e-16 8.71364e-17 -5.9555)
(3.16883e-17 2.50058e-16 -5.7306)
(3.65516e-16 -1.72965e-16 -5.52235)
(1.75583e-17 -2.21724e-16 -5.3086)
(-1.76534e-16 9.21775e-17 -5.11008)
(5.4912e-16 1.81117e-17 -4.90585)
(2.92351e-16 -1.00457e-16 -4.71686)
(1.77236e-17 -1.67396e-16 -4.5247)
(-8.37053e-17 1.34867e-17 -4.35079)
(8.05974e-17 -5.92013e-17 -4.18217)
(-4.93955e-17 1.6688e-17 -4.03135)
(1.07457e-18 1.27557e-17 -3.89828)
(-1.27114e-18 -8.52061e-17 -3.78292)
(1.69042e-16 -9.13761e-17 -3.69407)
(2.76536e-18 -7.80154e-17 -3.62821)
(1.65979e-16 5.45238e-16 -3.59205)
(1.47086e-16 -9.06305e-18 -3.58649)
(-3.10513e-16 -4.67505e-16 -3.61426)
(1.33284e-17 1.96044e-16 -3.67764)
(-5.38621e-18 1.19144e-17 -3.77867)
(-1.35879e-18 -2.03928e-16 -3.92018)
(1.59282e-16 1.24126e-16 -4.10049)
(-3.25249e-16 6.43271e-17 -4.32753)
(-7.52695e-18 1.7141e-16 -4.59116)
(5.52756e-16 9.062e-16 -4.90072)
(-1.44545e-16 -9.50173e-16 -5.25179)
(-8.2552e-16 -1.44192e-15 -5.63849)
(3.48982e-16 1.31003e-15 -6.06412)
(-6.53853e-16 2.92413e-16 -6.52297)
(7.79867e-16 -6.57065e-16 -7.00711)
(2.40086e-16 -6.14917e-16 -7.51721)
(-3.19448e-17 2.83436e-16 -8.04851)
(3.50127e-16 1.02333e-15 -8.59125)
(-1.3324e-15 -4.66923e-16 -9.14594)
(6.99198e-17 3.08742e-17 -9.70669)
(-3.87038e-16 -7.1588e-16 -10.2689)
(1.21025e-16 -8.15335e-17 -10.8311)
(4.29173e-16 6.70567e-16 -11.3917)
(1.39169e-16 7.81274e-16 -11.9406)
(4.73895e-17 -6.53491e-17 -12.488)
(3.03998e-16 5.62385e-16 -13.03)
(5.76638e-16 6.31196e-16 -13.5463)
(-8.20357e-17 -5.32721e-19 -14.0665)
(7.03801e-17 2.38923e-16 -14.5763)
(4.87096e-16 -1.15828e-17 -15.0571)
(-1.13265e-18 2.4756e-16 -15.5538)
(-1.10904e-16 -7.56374e-17 -16.0184)
(-1.96868e-16 5.41994e-16 -16.4821)
(-4.16363e-17 1.74964e-16 -16.9367)
(4.32113e-16 -4.71218e-16 -17.382)
(1.67938e-16 -5.1811e-16 -17.8224)
(-2.22919e-16 -2.56329e-16 -18.2554)
(-3.31665e-16 2.08736e-17 -18.6675)
(-1.05883e-16 5.50921e-17 -19.0742)
(1.15988e-16 -8.42494e-17 -19.4221)
(-8.09062e-17 8.52854e-17 -19.7356)
(6.20802e-17 -4.55738e-17 -19.9456)
(-2.74304e-16 1.45144e-16 -20.038)
(-4.35785e-17 4.00624e-17 -19.9936)
(2.80661e-16 -3.1438e-16 -19.7639)
(8.50916e-17 1.20048e-16 -19.3769)
(-9.66254e-17 3.42896e-17 -18.7795)
(2.25726e-16 -1.61649e-16 -18.0324)
(-1.04286e-16 3.7492e-16 -17.1391)
(2.45461e-16 -1.59313e-16 -16.174)
(-3.04198e-16 -3.08625e-17 -15.1805)
(2.60303e-17 1.9109e-16 -14.2678)
(2.7349e-17 3.57643e-17 -13.5178)
(1.47066e-16 -2.20787e-16 -13.0357)
(-1.31255e-16 4.32426e-17 -12.773)
(-2.5844e-17 5.91895e-17 -12.5657)
(-1.18218e-16 3.69555e-17 -12.3055)
(2.099e-17 -5.49288e-17 -11.9886)
(-3.05465e-17 -2.47222e-17 -11.6354)
(8.0599e-17 2.1835e-17 -11.2671)
(-8.9677e-19 3.98467e-17 -10.9101)
(-1.22526e-17 -2.45318e-17 -10.5879)
(-2.47372e-17 -4.21036e-17 -10.3175)
(6.17893e-18 9.68757e-18 -10.1198)
(6.72295e-18 3.31805e-17 -10.0063)
(9.62454e-19 -3.17427e-17 -9.97324)
(-9.00137e-19 -5.19432e-18 -10.0069)
(-3.71643e-18 1.67697e-17 -10.0887)
(3.98486e-17 3.70113e-18 -10.1993)
(-3.30394e-17 1.4655e-17 -10.321)
(-1.716e-17 -2.94537e-17 -10.4391)
(1.26431e-17 3.0997e-18 -10.5426)
(4.10041e-18 1.16912e-17 -10.6248)
(-8.45152e-18 2.49753e-18 -10.6826)
(6.18923e-18 2.79674e-18 -10.7163)
(-8.09707e-19 2.03064e-18 -10.7287)
(-5.06934e-18 -1.47727e-17 -10.7241)
(1.09372e-17 3.14772e-18 -10.7079)
(-7.02153e-19 7.27428e-18 -10.6855)
(1.61426e-18 -1.67463e-18 -10.6615)
(1.19874e-18 -4.08126e-18 -10.6396)
(-3.20214e-18 1.2218e-17 -10.6218)
(3.93051e-18 -5.26339e-18 -10.6084)
(3.61258e-18 -4.71949e-18 -10.5979)
(-3.46889e-18 -6.3472e-18 -10.5873)
(9.36113e-19 4.23477e-18 -10.5736)
(1.39954e-18 -4.11428e-18 -10.5536)
(-2.46045e-19 3.2429e-18 -10.5242)
(-7.66462e-19 2.21305e-18 -10.4835)
(5.06044e-19 2.53939e-18 -10.4303)
(1.29402e-19 -6.73237e-19 -10.3647)
(-4.20348e-21 -3.63456e-18 -10.2858)
(1.0027e-19 -1.73127e-19 -10.1922)
(0 -0 2.06258)
(0 -0 2.33558)
(-1.13858e-19 1.28642e-17 2.14525)
(4.44373e-19 -1.59276e-17 1.54071)
(-2.33493e-19 -9.70474e-18 0.751479)
(-6.32184e-19 3.78417e-17 -0.295643)
(-2.50267e-17 -3.19017e-17 -1.32412)
(5.30274e-17 -4.31669e-17 -2.28265)
(-2.92732e-17 8.17871e-17 -3.15909)
(1.86711e-18 -1.36991e-17 -3.93093)
(6.23393e-19 -4.30518e-17 -4.60931)
(-5.5049e-17 2.49589e-17 -5.13583)
(1.04343e-16 4.95464e-17 -5.57155)
(-1.05024e-16 -1.32177e-17 -5.92827)
(1.15242e-16 -1.48407e-16 -6.21974)
(-5.86989e-17 7.52047e-17 -6.45233)
(-7.05647e-18 8.64227e-17 -6.63943)
(5.82143e-18 -4.95488e-17 -6.79209)
(-2.74388e-18 4.89501e-17 -6.91815)
(-4.69247e-17 -6.09831e-17 -7.02422)
(5.97715e-17 -3.70218e-17 -7.11605)
(-1.0172e-17 4.90549e-17 -7.19818)
(1.06362e-16 -9.67042e-17 -7.27386)
(-1.22166e-16 2.15756e-16 -7.34521)
(1.03026e-17 -4.44627e-17 -7.41348)
(2.02692e-17 -2.66935e-16 -7.47915)
(-8.87689e-18 1.1837e-16 -7.54215)
(-1.58123e-17 2.86227e-16 -7.60204)
(1.08711e-16 -1.37167e-16 -7.65814)
(-8.23912e-17 -2.65242e-16 -7.70958)
(-1.81732e-17 1.15196e-16 -7.75534)
(-1.39633e-18 1.88947e-16 -7.79388)
(-1.56851e-17 7.51329e-17 -7.82535)
(1.18618e-16 -2.07485e-16 -7.86068)
(-9.74314e-17 -8.05761e-17 -7.8672)