/*--------------------------------*- C++ -*----------------------------------*\
| =========                 |                                                 |
| \\      /  F ield         | OpenFOAM: The Open Source CFD Toolbox           |
|  \\    /   O peration     | Version:  2506                                  |
|   \\  /    A nd           | Website:  www.openfoam.com                      |
|    \\/     M anipulation  |                                                 |
\*---------------------------------------------------------------------------*/
FoamFile
{
    version     2.0;
    format      ascii;
    arch        "LSB;label=32;scalar=64";
    class       surfaceScalarField;
    location    "3";
    object      phi;
}
// * * * * * * * * * * * * * * * * * * * * * * * * * * * * * * * * * * * * * //

dimensions      [0 3 -1 0 0 0 0];

oriented        oriented;

internalField   nonuniform List<scalar> 
7780
(
2.08043e-09
4.19569e-10
1.64631e-09
4.34122e-10
1.34821e-09
2.981e-10
1.16329e-09
1.84917e-10
1.05218e-09
1.11105e-10
9.83119e-10
6.90649e-11
9.37112e-10
4.6006e-11
9.04119e-10
3.29928e-11
8.78832e-10
2.52868e-11
8.58407e-10
2.0425e-11
8.41292e-10
1.71145e-11
8.26588e-10
1.47034e-11
8.13716e-10
1.28717e-11
8.02263e-10
1.14534e-11
7.91909e-10
1.03531e-11
7.82395e-10
9.51383e-12
7.73494e-10
8.90097e-12
7.65001e-10
8.49242e-12
7.56724e-10
8.27733e-12
7.48477e-10
8.24674e-12
7.40083e-10
8.39436e-12
7.31363e-10
8.71936e-12
7.22137e-10
9.22561e-12
7.12214e-10
9.92278e-12
7.01387e-10
1.08275e-11
6.89419e-10
1.19676e-11
6.7603e-10
1.3389e-11
6.60876e-10
1.51536e-11
6.43511e-10
1.73644e-11
6.23324e-10
2.01868e-11
5.99415e-10
2.39086e-11
5.70329e-10
2.90864e-11
5.33717e-10
3.66134e-11
4.79622e-10
5.40963e-11
4.30858e-10
4.87661e-11
4.10014e-10
2.08434e-11
4.05073e-10
4.93733e-12
4.06512e-10
-1.44116e-12
4.15816e-10
-9.29644e-12
4.37083e-10
-2.12415e-11
4.82989e-10
-4.58641e-11
5.38294e-10
-5.52655e-11
5.90005e-10
-5.16927e-11
6.3942e-10
-4.94296e-11
6.84262e-10
-4.48841e-11
7.25971e-10
-4.17666e-11
7.6641e-10
-4.04953e-11
8.00345e-10
-3.39768e-11
8.32968e-10
-3.26419e-11
8.619e-10
-2.89287e-11
8.85445e-10
-2.35268e-11
9.07574e-10
-2.21044e-11
9.20631e-10
-1.30369e-11
9.32333e-10
-1.16892e-11
9.33387e-10
-1.04911e-12
9.29756e-10
3.63038e-12
9.17579e-10
1.21737e-11
8.95264e-10
2.23129e-11
8.71939e-10
2.33248e-11
8.33399e-10
3.85418e-11
7.96737e-10
3.66635e-11
7.54756e-10
4.1979e-11
7.11525e-10
4.32204e-11
6.71211e-10
4.02942e-11
6.2913e-10
4.2056e-11
5.93363e-10
3.57493e-11
5.57423e-10
3.59484e-11
5.27323e-10
3.01448e-11
4.98604e-10
2.87991e-11
4.73682e-10
2.50179e-11
4.51875e-10
2.18912e-11
4.30714e-10
2.1205e-11
4.12711e-10
1.79896e-11
3.95755e-10
1.68853e-11
3.79784e-10
1.58599e-11
3.65539e-10
1.4121e-11
3.52286e-10
1.31463e-11
3.39838e-10
1.23811e-11
3.28758e-10
1.10608e-11
3.18853e-10
9.92974e-12
3.09976e-10
8.93388e-12
3.02259e-10
7.78644e-12
2.95601e-10
6.72457e-12
2.89875e-10
5.77894e-12
2.85092e-10
4.82044e-12
2.80836e-10
4.27639e-12
2.7692e-10
3.92517e-12
2.73618e-10
3.30358e-12
2.70298e-10
3.31733e-12
2.66773e-10
3.5201e-12
2.63622e-10
3.14633e-12
2.60155e-10
3.46324e-12
2.56412e-10
3.73916e-12
2.53022e-10
3.38699e-12
2.49063e-10
3.95723e-12
2.45819e-10
3.24267e-12
2.42161e-10
3.65744e-12
2.39402e-10
2.75896e-12
2.36445e-10
2.95686e-12
2.34849e-10
1.59682e-12
2.33336e-10
1.51306e-12
2.33113e-10
2.22369e-13
2.33668e-10
-5.54923e-13
2.34951e-10
-1.28365e-12
2.37881e-10
-2.93185e-12
2.41559e-10
-3.68149e-12
2.47104e-10
-5.54911e-12
2.53748e-10
-6.65088e-12
2.62087e-10
-8.34953e-12
2.71939e-10
-9.86577e-12
2.83501e-10
-1.15809e-11
2.9663e-10
-1.31536e-11
3.11761e-10
-1.51631e-11
3.2795e-10
-1.62299e-11
3.46587e-10
-1.86871e-11
3.6612e-10
-1.95889e-11
3.86914e-10
-2.08538e-11
4.08949e-10
-2.20905e-11
4.31413e-10
-2.25003e-11
4.54223e-10
-2.28125e-11
4.77331e-10
-2.30546e-11
4.9974e-10
-2.22823e-11
5.21239e-10
-2.12887e-11
5.42204e-10
-2.0675e-11
5.61903e-10
-1.93481e-11
5.80422e-10
-1.81451e-11
5.97761e-10
-1.69938e-11
6.13737e-10
-1.57184e-11
6.28864e-10
-1.50113e-11
6.43885e-10
-1.50841e-11
6.57222e-10
-1.35933e-11
6.70583e-10
-1.37869e-11
6.85374e-10
-1.53339e-11
6.98719e-10
-1.39249e-11
7.13176e-10
-1.49871e-11
7.30803e-10
-1.80304e-11
7.4554e-10
-1.49609e-11
7.64292e-10
-1.87819e-11
7.81808e-10
-1.7378e-11
8.00158e-10
-1.80956e-11
8.17677e-10
-1.72191e-11
8.33053e-10
-1.50958e-11
8.44721e-10
-1.14547e-11
8.53385e-10
-8.53582e-12
8.52082e-10
1.35164e-12
8.50036e-10
2.04157e-12
8.32041e-10
1.79641e-11
8.11319e-10
2.06887e-11
7.82338e-10
2.89571e-11
7.46187e-10
3.61392e-11
7.1025e-10
3.59352e-11
6.65902e-10
4.43515e-11
6.26104e-10
3.9804e-11
5.81155e-10
4.49538e-11
5.41049e-10
4.01087e-11
4.96947e-10
4.40992e-11
4.55784e-10
4.11558e-11
4.11816e-10
4.39573e-11
3.68668e-10
4.31392e-11
3.25624e-10
4.30413e-11
3.22948e-10
2.67722e-12
3.20788e-10
2.16161e-12
3.19748e-10
1.04118e-12
3.21168e-10
-1.4203e-12
3.32369e-10
-1.12012e-11
3.52218e-10
-1.98485e-11
3.89619e-10
-3.74003e-11
4.29044e-10
-3.9425e-11
4.66111e-10
-3.70681e-11
5.02914e-10
-3.68032e-11
5.3908e-10
-3.61669e-11
5.73498e-10
-3.44194e-11
6.04992e-10
-3.14936e-11
6.32634e-10
-2.76422e-11
6.55862e-10
-2.32286e-11
6.74485e-10
-1.8623e-11
6.88628e-10
-1.41428e-11
6.98665e-10
-1.00373e-11
7.05182e-10
-6.51772e-12
7.08914e-10
-3.73267e-12
7.1023e-10
-1.31648e-12
7.09944e-10
2.84768e-13
7.08651e-10
1.29236e-12
7.06913e-10
1.73734e-12
7.05197e-10
1.71484e-12
7.03872e-10
1.32538e-12
7.03197e-10
6.74221e-13
7.03327e-10
-1.29892e-13
7.04353e-10
-1.02555e-12
7.06133e-10
-1.78011e-12
7.08587e-10
-2.45302e-12
7.11558e-10
-2.97107e-12
7.14841e-10
-3.28188e-12
7.18208e-10
-3.36633e-12
7.2143e-10
-3.22215e-12
7.24271e-10
-2.84079e-12
7.26474e-10
-2.20254e-12
7.27687e-10
-1.21303e-12
7.27281e-10
4.0706e-13
3.7707e-12
2.63641e-09
2.83163e-10
2.59001e-09
4.80515e-10
2.4448e-09
4.43313e-10
2.27958e-09
3.50137e-10
2.13157e-09
2.59113e-10
2.01303e-09
1.87604e-10
1.92043e-09
1.38611e-10
1.84666e-09
1.06759e-10
1.78632e-09
8.56308e-11
1.7358e-09
7.09391e-11
1.6927e-09
6.02129e-11
1.65537e-09
5.20372e-11
1.62262e-09
4.56202e-11
1.59356e-09
4.05157e-11
1.56746e-09
3.64539e-11
1.54371e-09
3.32642e-11
1.52177e-09
3.08377e-11
1.50116e-09
2.90996e-11
1.48144e-09
2.80018e-11
1.46218e-09
2.75083e-11
1.44298e-09
2.75924e-11
1.42346e-09
2.82401e-11
1.40323e-09
2.94497e-11
1.38192e-09
3.12337e-11
1.35913e-09
3.36223e-11
1.33442e-09
3.66706e-11
1.30734e-09
4.04702e-11
1.27734e-09
4.51531e-11
1.24378e-09
5.09242e-11
1.20587e-09
5.80965e-11
1.16262e-09
6.71596e-11
1.11278e-09
7.89265e-11
1.05453e-09
9.48652e-11
9.83064e-10
1.25561e-10
9.18875e-10
1.12956e-10
8.86402e-10
5.33163e-11
8.79085e-10
1.22502e-11
8.91047e-10
-1.34175e-11
9.22559e-10
-4.08326e-11
9.77624e-10
-7.63309e-11
1.06474e-09
-1.32989e-10
1.16579e-09
-1.56292e-10
1.26724e-09
-1.53104e-10
1.36602e-09
-1.48159e-10
1.45815e-09
-1.36976e-10
1.54433e-09
-1.27934e-10
1.62577e-09
-1.21942e-10
1.69771e-09
-1.05938e-10
1.76467e-09
-9.96379e-11
1.82405e-09
-8.83355e-11
1.87484e-09
-7.43329e-11
1.91876e-09
-6.60314e-11
1.95049e-09
-4.4759e-11
1.9741e-09
-3.52952e-11
1.98277e-09
-9.71315e-12
1.97964e-09
6.7634e-12
1.96244e-09
2.93688e-11
1.92889e-09
5.58631e-11
1.88539e-09
6.68205e-11
1.82237e-09
1.01563e-10
1.75311e-09
1.05917e-10
1.67399e-09
1.21096e-10
1.58959e-09
1.27611e-10
1.50443e-09
1.25458e-10
1.41685e-09
1.2964e-10
1.3342e-09
1.18416e-10
1.25267e-09
1.17509e-10
1.17754e-09
1.05307e-10
1.10621e-09
1.00146e-10
1.04013e-09
9.10788e-11
9.79203e-10
8.27712e-11
9.2114e-10
7.91907e-11
8.6768e-10
7.13666e-11
8.17161e-10
6.73387e-11
7.69164e-10
6.38286e-11
7.24172e-10
5.91295e-11
6.81593e-10
5.57815e-11
6.4124e-10
5.28151e-11
6.03508e-10
4.88772e-11
5.68408e-10
4.50981e-11
5.35867e-10
4.15174e-11
5.05998e-10
3.7668e-11
4.78715e-10
3.39955e-11
4.53877e-10
3.05904e-11
4.31318e-10
2.73476e-11
4.10575e-10
2.49905e-11
3.91278e-10
2.32002e-11
3.73255e-10
2.1311e-11
3.55976e-10
2.05871e-11
3.39185e-10
2.03071e-11
3.22826e-10
1.95032e-11
3.06716e-10
1.9573e-11
2.90885e-10
1.95708e-11
2.75546e-10
1.87278e-11
2.60815e-10
1.86892e-11
2.47067e-10
1.69915e-11
2.34632e-10
1.60927e-11
2.23912e-10
1.34799e-11
2.1539e-10
1.14785e-11
2.09411e-10
7.57538e-12
2.06515e-10
4.40878e-12
2.07246e-10
-5.08828e-13
2.11373e-10
-4.68195e-12
2.19727e-10
-9.6381e-12
2.32467e-10
-1.56723e-11
2.49627e-10
-2.08405e-11
2.71567e-10
-2.74866e-11
2.98119e-10
-3.31996e-11
3.29408e-10
-3.96334e-11
3.65289e-10
-4.57398e-11
4.05659e-10
-5.1942e-11
4.50213e-10
-5.76966e-11
4.98874e-10
-6.38131e-11
5.50581e-10
-6.79267e-11
6.05853e-10
-7.39536e-11
6.62947e-10
-7.66876e-11
7.21566e-10
-7.9496e-11
7.81244e-10
-8.18183e-11
8.40458e-10
-8.17991e-11
8.98978e-10
-8.14557e-11
9.56327e-10
-8.05613e-11
1.01137e-09
-7.75046e-11
1.06378e-09
-7.38792e-11
1.11366e-09
-7.06967e-11
1.16046e-09
-6.62269e-11
1.20434e-09
-6.20071e-11
1.24546e-09
-5.79812e-11
1.284e-09
-5.40139e-11
1.32069e-09
-5.13831e-11
1.35625e-09
-5.0277e-11
1.38997e-09
-4.69654e-11
1.42351e-09
-4.70406e-11
1.45816e-09
-4.98233e-11
1.49183e-09
-4.75774e-11
1.52718e-09
-5.04419e-11
1.56492e-09
-5.59891e-11
1.60115e-09
-5.14569e-11
1.6402e-09
-5.81023e-11
1.67817e-09
-5.55724e-11
1.71549e-09
-5.55621e-11
1.7504e-09
-5.21923e-11
1.78034e-09
-4.50209e-11
1.80357e-09
-3.46171e-11
1.81848e-09
-2.33676e-11
1.81949e-09
3.99666e-13
1.81139e-09
1.01825e-11
1.7837e-09
4.56698e-11
1.74478e-09
5.96076e-11
1.6915e-09
8.22242e-11
1.6244e-09
1.03236e-10
1.5504e-09
1.09928e-10
1.46413e-09
1.30615e-10
1.37687e-09
1.27071e-10
1.28261e-09
1.3921e-10
1.19037e-09
1.32342e-10
1.09319e-09
1.41277e-10
9.9768e-10
1.36671e-10
9.00892e-10
1.40749e-10
8.08483e-10
1.35555e-10
7.22381e-10
1.2915e-10
6.80997e-10
4.40629e-11
6.53105e-10
3.00525e-11
6.35546e-10
1.85983e-11
6.30254e-10
3.8706e-12
6.438e-10
-2.47472e-11
6.78341e-10
-5.43895e-11
7.38465e-10
-9.75241e-11
8.10245e-10
-1.11206e-10
8.86018e-10
-1.12841e-10
9.63653e-10
-1.14439e-10
1.0403e-09
-1.12812e-10
1.11297e-09
-1.07095e-10
1.1791e-09
-9.7618e-11
1.23678e-09
-8.53292e-11
1.28493e-09
-7.13775e-11
1.32319e-09
-5.68864e-11
1.35188e-09
-4.28263e-11
1.3718e-09
-2.99633e-11
1.38412e-09
-1.88361e-11
1.39011e-09
-9.72749e-12
1.3913e-09
-2.50154e-12
1.38934e-09
2.2404e-12
1.38543e-09
5.20889e-12
1.38074e-09
6.41876e-12
1.37628e-09
6.18097e-12
1.37277e-09
4.83357e-12
1.37068e-09
2.76141e-12
1.37028e-09
2.7703e-13
1.37157e-09
-2.31481e-12
1.37439e-09
-4.6047e-12
1.37837e-09
-6.43444e-12
1.38305e-09
-7.64464e-12
1.38791e-09
-8.14869e-12
1.39247e-09
-7.92501e-12
1.39626e-09
-7.01137e-12
1.39888e-09
-5.45801e-12
1.39997e-09
-3.29647e-12
1.39922e-09
-4.59949e-13
1.39633e-09
3.29732e-12
8.80632e-12
2.61181e-09
1.71351e-10
2.71333e-09
3.78994e-10
2.73154e-09
4.251e-10
2.68684e-09
3.94836e-10
2.61059e-09
3.35363e-10
2.52274e-09
2.75459e-10
2.43742e-09
2.23922e-10
2.36016e-09
1.84019e-10
2.29169e-09
1.541e-10
2.23132e-09
1.31309e-10
2.17801e-09
1.13527e-10
2.13073e-09
9.9312e-11
2.08858e-09
8.77708e-11
2.05074e-09
7.83591e-11
2.01647e-09
7.07208e-11
1.98512e-09
6.46171e-11
1.95607e-09
5.98858e-11
1.92876e-09
5.64102e-11
1.90266e-09
5.41062e-11
1.87725e-09
5.29104e-11
1.85207e-09
5.2776e-11
1.82664e-09
5.36736e-11
1.80049e-09
5.55924e-11
1.77318e-09
5.85428e-11
1.74424e-09
6.25616e-11
1.71319e-09
6.772e-11
1.67953e-09
7.41345e-11
1.6427e-09
8.19812e-11
1.6021e-09
9.15201e-11
1.55707e-09
1.03129e-10
1.50688e-09
1.17355e-10
1.45079e-09
1.35017e-10
1.38819e-09
1.57458e-10
1.31743e-09
1.96329e-10
1.25465e-09
1.75729e-10
1.22154e-09
8.64279e-11
1.21942e-09
1.43758e-11
1.2454e-09
-3.94139e-11
1.29874e-09
-9.41913e-11
1.37932e-09
-1.56938e-10
1.48758e-09
-2.41275e-10
1.60778e-09
-2.7649e-10
1.72989e-09
-2.75187e-10
1.84849e-09
-2.66726e-10
1.95947e-09
-2.47906e-10
2.06273e-09
-2.31167e-10
2.15871e-09
-2.17909e-10
2.24465e-09
-1.91887e-10
2.32311e-09
-1.78119e-10
2.39249e-09
-1.57737e-10
2.45188e-09
-1.33743e-10
2.50191e-09
-1.16071e-10
2.53982e-09
-8.26774e-11
2.56686e-09
-6.23334e-11
2.5797e-09
-2.25494e-11
2.57907e-09
7.39567e-12
2.56357e-09
4.48686e-11
2.53167e-09
8.77639e-11
2.48665e-09
1.11835e-10
2.42347e-09
1.64749e-10
2.34927e-09
1.80115e-10
2.26298e-09
2.0738e-10
2.16814e-09
2.22444e-10
2.06796e-09
2.2564e-10
1.96348e-09
2.3413e-10
1.85952e-09
2.22393e-10
1.75545e-09
2.21607e-10
1.65509e-09
2.05676e-10
1.55783e-09
1.97402e-10
1.46481e-09
1.84062e-10
1.37661e-09
1.70911e-10
1.29184e-09
1.63901e-10
1.21156e-09
1.5159e-10
1.1348e-09
1.44065e-10
1.06117e-09
1.3747e-10
9.909e-10
1.29447e-10
9.23627e-10
1.23124e-10
8.59293e-10
1.17224e-10
7.98161e-10
1.10071e-10
7.40432e-10
1.02865e-10
6.86196e-10
9.57648e-11
6.35663e-10
8.81876e-11
5.88857e-10
8.07744e-11
5.45736e-10
7.36791e-11
5.06166e-10
6.68876e-11
4.69748e-10
6.1384e-11
4.36044e-10
5.68883e-11
4.04713e-10
5.26324e-11
3.75205e-10
5.00904e-11
3.47183e-10
4.83275e-11
3.20408e-10
4.62791e-11
2.94743e-10
4.5239e-11
2.70172e-10
4.41443e-11
2.46955e-10
4.19461e-11
2.25287e-10
4.03588e-11
2.05699e-10
3.65804e-11
1.88601e-10
3.31918e-11
1.74678e-10
2.74039e-11
1.64417e-10
2.17392e-11
1.58653e-10
1.33394e-11
1.57884e-10
5.17752e-12
1.62599e-10
-5.22346e-12
1.73798e-10
-1.58817e-11
1.91607e-10
-2.74465e-11
2.16526e-10
-4.0591e-11
2.4854e-10
-5.28534e-11
2.88063e-10
-6.70074e-11
3.34779e-10
-7.9912e-11
3.88593e-10
-9.34418e-11
4.49191e-10
-1.0633e-10
5.16047e-10
-1.18787e-10
5.88483e-10
-1.30119e-10
6.65836e-10
-1.41148e-10
7.46839e-10
-1.48909e-10
8.31152e-10
-1.58245e-10
9.16997e-10
-1.62515e-10
1.00356e-09
-1.66056e-10
1.09001e-09
-1.68275e-10
1.17475e-09
-1.66581e-10
1.25713e-09
-1.63916e-10
1.33659e-09
-1.60147e-10
1.41212e-09
-1.53204e-10
1.48346e-09
-1.45419e-10
1.55059e-09
-1.38031e-10
1.61327e-09
-1.29076e-10
1.67175e-09
-1.20603e-10
1.72636e-09
-1.12606e-10
1.77753e-09
-1.05085e-10
1.82602e-09
-9.96483e-11
1.87244e-09
-9.63921e-11
1.91688e-09
-9.10393e-11
1.96043e-09
-9.02428e-11
2.00417e-09
-9.32693e-11
2.04689e-09
-9.0117e-11
2.09046e-09
-9.39732e-11
2.13462e-09
-1.00239e-10
2.17764e-09
-9.46702e-11
2.22108e-09
-1.01788e-10
2.26282e-09
-9.75431e-11
2.30201e-09
-9.49474e-11
2.3374e-09
-8.76998e-11
2.36626e-09
-7.3929e-11
2.38728e-09
-5.56202e-11
2.39795e-09
-3.39809e-11
2.39582e-09
2.58639e-12
2.38091e-09
2.51468e-11
2.34826e-09
7.83427e-11
2.30117e-09
1.06699e-10
2.23862e-09
1.44776e-10
2.16028e-09
1.81562e-10
2.07096e-09
1.99244e-10
1.96774e-09
2.33838e-10
1.85828e-09
2.36524e-10
1.74005e-09
2.57447e-10
1.61926e-09
2.53128e-10
1.49275e-09
2.6779e-10
1.36567e-09
2.63752e-10
1.238e-09
2.68422e-10
1.11719e-09
2.56377e-10
1.00395e-09
2.42392e-10
9.27373e-10
1.20638e-10
8.73171e-10
8.42521e-11
8.39133e-10
5.26352e-11
8.27288e-10
1.57152e-11
8.44057e-10
-4.15164e-11
8.90207e-10
-1.00539e-10
9.66584e-10
-1.73901e-10
1.05874e-09
-2.03362e-10
1.15703e-09
-2.1113e-10
1.25691e-09
-2.1432e-10
1.35425e-09
-2.10147e-10
1.44541e-09
-1.98261e-10
1.52752e-09
-1.79727e-10
1.59857e-09
-1.56377e-10
1.65746e-09
-1.30268e-10
1.70394e-09
-1.03372e-10
1.73852e-09
-7.74021e-11
1.76226e-09
-5.37063e-11
1.77666e-09
-3.32313e-11
1.78345e-09
-1.65207e-11
1.78466e-09
-3.71508e-12
1.78191e-09
4.98739e-12
1.77701e-09
1.01164e-11
1.77139e-09
1.20313e-11
1.76627e-09
1.13055e-11
1.76251e-09
8.59095e-12
1.7607e-09
4.57084e-12
1.76104e-09
-5.90519e-14
1.76342e-09
-4.69395e-12
1.76756e-09
-8.7447e-12
1.77292e-09
-1.1793e-11
1.77886e-09
-1.35857e-11
1.7847e-09
-1.39938e-11
1.7898e-09
-1.30218e-11
1.79358e-09
-1.07929e-11
1.7956e-09
-7.47644e-12
1.79559e-09
-3.28693e-12
1.79345e-09
1.68567e-12
1.78934e-09
7.40335e-12
1.4427e-11
2.56378e-09
1.0757e-10
2.67045e-09
2.72325e-10
2.74773e-09
3.47824e-10
2.78135e-09
3.61213e-10
2.77558e-09
3.4113e-10
2.74591e-09
3.05135e-10
2.70216e-09
2.67671e-10
2.6524e-09
2.3377e-10
2.60217e-09
2.04338e-10
2.55391e-09
1.79568e-10
2.50861e-09
1.58823e-10
2.4666e-09
1.41318e-10
2.42783e-09
1.26544e-10
2.39203e-09
1.14158e-10
2.35885e-09
1.03901e-10
2.32788e-09
9.55859e-11
2.29869e-09
8.90738e-11
2.27085e-09
8.42564e-11
2.2439e-09
8.10494e-11
2.21743e-09
7.93859e-11
2.19099e-09
7.92169e-11
2.16415e-09
8.05124e-11
2.13648e-09
8.3263e-11
2.10753e-09
8.74846e-11
2.07687e-09
9.32228e-11
2.04403e-09
1.00561e-10
2.00853e-09
1.09634e-10
1.96988e-09
1.20635e-10
1.92755e-09
1.33843e-10
1.88104e-09
1.4964e-10
1.82985e-09
1.68548e-10
1.77358e-09
1.91283e-10
1.71215e-09
2.18895e-10
1.64461e-09
2.63868e-10
1.58504e-09
2.35294e-10
1.55321e-09
1.18262e-10
1.55342e-09
1.41718e-11
1.58494e-09
-7.09414e-11
1.64631e-09
-1.5557e-10
1.7343e-09
-2.44956e-10
1.84515e-09
-3.52151e-10
1.96516e-09
-3.96525e-10
2.08733e-09
-3.97348e-10
2.20553e-09
-3.84912e-10
2.31589e-09
-3.58225e-10
2.41807e-09
-3.33308e-10
2.51229e-09
-3.12112e-10
2.59717e-09
-2.76761e-10
2.67377e-09
-2.54717e-10
2.74135e-09
-2.25339e-10
2.79958e-09
-1.91987e-10
2.84814e-09
-1.64644e-10
2.88599e-09
-1.20536e-10
2.91307e-09
-8.94183e-11
2.92805e-09
-3.75276e-11
2.93061e-09
4.84477e-12
2.92004e-09
5.54385e-11
2.89516e-09
1.12639e-10
2.85737e-09
1.49627e-10
2.80406e-09
2.18058e-10
2.73841e-09
2.45764e-10
2.66001e-09
2.85773e-10
2.57114e-09
3.11316e-10
2.47379e-09
3.22987e-10
2.36956e-09
3.38374e-10
2.26168e-09
3.30293e-10
2.15086e-09
3.32441e-10
2.0403e-09
3.1624e-10
1.93055e-09
3.07136e-10
1.82282e-09
2.91747e-10
1.71833e-09
2.75357e-10
1.61647e-09
2.6571e-10
1.51837e-09
2.49666e-10
1.42357e-09
2.38868e-10
1.33191e-09
2.29154e-10
1.2437e-09
2.17711e-10
1.15872e-09
2.08165e-10
1.07705e-09
1.9895e-10
9.98963e-10
1.88191e-10
9.248e-10
1.77039e-10
8.54753e-10
1.658e-10
7.892e-10
1.53715e-10
7.28327e-10
1.41616e-10
6.72245e-10
1.29732e-10
6.21015e-10
1.18094e-10
5.74355e-10
1.08028e-10
5.31878e-10
9.9356e-11
4.93383e-10
9.11233e-11
4.58162e-10
8.53104e-11
4.25781e-10
8.071e-11
3.96055e-10
7.60074e-11
3.68583e-10
7.27133e-11
3.43183e-10
6.95476e-11
3.2033e-10
6.48011e-11
2.9968e-10
6.1011e-11
2.8233e-10
5.39317e-11
2.68012e-10
4.751e-11
2.58088e-10
3.73285e-11
2.52353e-10
2.74748e-11
2.5258e-10
1.31128e-11
2.58336e-10
-5.78965e-13
2.71245e-10
-1.81324e-11
2.91429e-10
-3.60656e-11
3.19391e-10
-5.54078e-11
3.56007e-10
-7.72065e-11
4.00714e-10
-9.75589e-11
4.54409e-10
-1.20701e-10
5.16254e-10
-1.41754e-10
5.86163e-10
-1.63346e-10
6.635e-10
-1.83659e-10
7.47358e-10
-2.02635e-10
8.36785e-10
-2.19532e-10
9.30736e-10
-2.3508e-10
1.02754e-09
-2.45689e-10
1.12666e-09
-2.57339e-10
1.22602e-09
-2.61844e-10
1.32469e-09
-2.64692e-10
1.42165e-09
-2.65211e-10
1.51547e-09
-2.60391e-10
1.60548e-09
-2.53951e-10
1.69119e-09
-2.45923e-10
1.77184e-09
-2.33971e-10
1.8474e-09
-2.21141e-10
1.91796e-09
-2.08787e-10
1.98356e-09
-1.94879e-10
2.04461e-09
-1.81849e-10
2.10159e-09
-1.6971e-10
2.15506e-09
-1.58593e-10
2.20574e-09
-1.50259e-10
2.25423e-09
-1.44691e-10
2.30089e-09
-1.37425e-10
2.34639e-09
-1.3541e-10
2.39162e-09
-1.38184e-10
2.43573e-09
-1.33964e-10
2.4799e-09
-1.37987e-10
2.52337e-09
-1.4368e-10
2.56561e-09
-1.36995e-10
2.60653e-09
-1.42882e-10
2.64517e-09
-1.36384e-10
2.68012e-09
-1.30082e-10
2.71066e-09
-1.18386e-10
2.73436e-09
-9.77071e-11
2.75046e-09
-7.17457e-11
2.75654e-09
-4.00367e-11
2.75151e-09
7.66637e-12
2.73388e-09
4.28244e-11
2.70158e-09
1.10666e-10
2.65478e-09
1.53519e-10
2.5934e-09
2.06154e-10
2.51626e-09
2.58692e-10
2.4264e-09
2.89103e-10
2.32182e-09
3.38415e-10
2.20748e-09
3.50867e-10
2.08212e-09
3.82802e-10
1.95004e-09
3.85213e-10
1.81146e-09
4.06375e-10
1.66942e-09
4.05792e-10
1.52651e-09
4.11338e-10
1.39247e-09
3.90423e-10
1.26597e-09
3.68888e-10
1.17311e-09
2.13495e-10
1.10759e-09
1.4977e-10
1.06975e-09
9.04737e-11
1.06182e-09
2.36469e-11
1.08989e-09
-6.95893e-11
1.15208e-09
-1.62728e-10
1.24622e-09
-2.6804e-10
1.35469e-09
-3.11827e-10
1.46668e-09
-3.23129e-10
1.57735e-09
-3.24989e-10
1.68262e-09
-3.15412e-10
1.77923e-09
-2.94869e-10
1.86478e-09
-2.6528e-10
1.93776e-09
-2.29358e-10
1.9975e-09
-1.90012e-10
2.04412e-09
-1.49987e-10
2.07837e-09
-1.11657e-10
2.10156e-09
-7.68955e-11
2.11535e-09
-4.70211e-11
2.12164e-09
-2.28073e-11
2.12246e-09
-4.54084e-12
2.11962e-09
7.83144e-12
2.11493e-09
1.48065e-11
2.10989e-09
1.707e-11
2.1057e-09
1.5493e-11
2.10322e-09
1.10689e-11
2.10299e-09
4.80363e-12
2.10512e-09
-2.18248e-12
2.10946e-09
-9.03594e-12
2.1156e-09
-1.48867e-11
2.12292e-09
-1.91096e-11
2.13068e-09
-2.13511e-11
2.13813e-09
-2.14452e-11
2.14455e-09
-1.94349e-11
2.14931e-09
-1.55568e-11
2.152e-09
-1.01637e-11
2.15239e-09
-3.67589e-12
2.15055e-09
3.52935e-12
2.14684e-09
1.11063e-11
1.96065e-11
2.53698e-09
7.05889e-11
2.61766e-09
1.91647e-10
2.70056e-09
2.64924e-10
2.76513e-09
2.96644e-10
2.80583e-09
3.0043e-10
2.82321e-09
2.8775e-10
2.82304e-09
2.67839e-10
2.81164e-09
2.45176e-10
2.79323e-09
2.22747e-10
2.77081e-09
2.01978e-10
2.74652e-09
1.8312e-10
2.72164e-09
1.66196e-10
2.69687e-09
1.51314e-10
2.67256e-09
1.38464e-10
2.64885e-09
1.27609e-10
2.62572e-09
1.18715e-10
2.60306e-09
1.1174e-10
2.58067e-09
1.06643e-10
2.55833e-09
1.03384e-10
2.53579e-09
1.01927e-10
2.51276e-09
1.02247e-10
2.48893e-09
1.04341e-10
2.46398e-09
1.08219e-10
2.43754e-09
1.13918e-10
2.40926e-09
1.21508e-10
2.37873e-09
1.31091e-10
2.34554e-09
1.42819e-10
2.30928e-09
1.56901e-10
2.26951e-09
1.73616e-10
2.22582e-09
1.93326e-10
2.17787e-09
2.16498e-10
2.12542e-09
2.43727e-10
2.06849e-09
2.75831e-10
2.00622e-09
3.26134e-10
1.95073e-09
2.90787e-10
1.91922e-09
1.49779e-10
1.91702e-09
1.63688e-11
1.94503e-09
-9.89475e-11
2.00159e-09
-2.1213e-10
2.08198e-09
-3.25365e-10
2.181e-09
-4.51199e-10
2.28739e-09
-5.0294e-10
2.39653e-09
-5.06508e-10
2.50197e-09
-4.90349e-10
2.60004e-09
-4.56272e-10
2.6904e-09
-4.23638e-10
2.77331e-09
-3.9499e-10
2.84822e-09
-3.51657e-10
2.9154e-09
-3.21895e-10
2.97425e-09
-2.84194e-10
3.0255e-09
-2.43249e-10
3.06813e-09
-2.07284e-10
3.1022e-09
-1.54613e-10
3.12702e-09
-1.14247e-10
3.14251e-09
-5.30126e-11
3.14786e-09
-5.04857e-13
3.14293e-09
6.03673e-11
3.12678e-09
1.28797e-10
3.09961e-09
1.76791e-10
3.06027e-09
2.57391e-10
3.00944e-09
2.96592e-10
2.94672e-09
3.48495e-10
2.87327e-09
3.84763e-10
2.7898e-09
4.06465e-10
2.69777e-09
4.30423e-10
2.59892e-09
4.29156e-10
2.49468e-09
4.36689e-10
2.38712e-09
4.2379e-10
2.27768e-09
4.16551e-10
2.16759e-09
4.01807e-10
2.05848e-09
3.84425e-10
1.9504e-09
3.73762e-10
1.84479e-09
3.55276e-10
1.74165e-09
3.42026e-10
1.64119e-09
3.29654e-10
1.54393e-09
3.15018e-10
1.44981e-09
3.02334e-10
1.35904e-09
2.89754e-10
1.27195e-09
2.75293e-10
1.18897e-09
2.60009e-10
1.11031e-09
2.44433e-10
1.03647e-09
2.27526e-10
9.67745e-10
2.10308e-10
9.04396e-10
1.93056e-10
8.46703e-10
1.75769e-10
7.94522e-10
1.60199e-10
7.47598e-10
1.46276e-10
7.06031e-10
1.3269e-10
6.68975e-10
1.22369e-10
6.36002e-10
1.13686e-10
6.07016e-10
1.04998e-10
5.81349e-10
9.83834e-11
5.5857e-10
9.23304e-11
5.39384e-10
8.39895e-11
5.22793e-10
7.76035e-11
5.10461e-10
6.62652e-11
5.01384e-10
5.65877e-11
4.97558e-10
4.11552e-11
4.98101e-10
2.6932e-11
5.05593e-10
5.62097e-12
5.18927e-10
-1.39123e-11
5.40315e-10
-3.95205e-11
5.69465e-10
-6.52153e-11
6.07037e-10
-9.29788e-11
6.54051e-10
-1.24221e-10
7.09468e-10
-1.52975e-10
7.74338e-10
-1.85569e-10
8.47332e-10
-2.14746e-10
9.28144e-10
-2.44154e-10
1.01585e-09
-2.71362e-10
1.10913e-09
-2.95904e-10
1.20678e-09
-3.17174e-10
1.30745e-09
-3.35732e-10
1.40923e-09
-3.47455e-10
1.51154e-09
-3.59616e-10
1.61217e-09
-3.62438e-10
1.71024e-09
-3.62721e-10
1.80485e-09
-3.59771e-10
1.89478e-09
-3.50287e-10
1.97962e-09
-3.38764e-10
2.05915e-09
-3.25457e-10
2.13294e-09
-3.07813e-10
2.2013e-09
-2.89597e-10
2.26453e-09
-2.72167e-10
2.32295e-09
-2.53493e-10
2.37716e-09
-2.36273e-10
2.42774e-09
-2.20481e-10
2.47534e-09
-2.06338e-10
2.52064e-09
-1.95627e-10
2.56417e-09
-1.88172e-10
2.60636e-09
-1.7946e-10
2.64752e-09
-1.76319e-10
2.68853e-09
-1.789e-10
2.72844e-09
-1.73587e-10
2.76797e-09
-1.77292e-10
2.80617e-09
-1.81738e-10
2.84316e-09
-1.73958e-10
2.87789e-09
-1.77692e-10
2.91021e-09
-1.68837e-10
2.93848e-09
-1.5852e-10
2.96253e-09
-1.42585e-10
2.98033e-09
-1.15611e-10
2.9917e-09
-8.31646e-11
2.99446e-09
-4.27998e-11
2.98848e-09
1.36774e-11
2.97164e-09
5.96969e-11
2.94361e-09
1.38718e-10
2.90277e-09
1.94375e-10
2.84947e-09
2.59461e-10
2.78179e-09
3.26374e-10
2.70138e-09
3.69505e-10
2.60642e-09
4.33377e-10
2.49982e-09
4.57459e-10
2.38049e-09
5.0214e-10
2.25169e-09
5.14015e-10
2.11453e-09
5.4353e-10
1.97098e-09
5.4935e-10
1.826e-09
5.56326e-10
1.69163e-09
5.24797e-10
1.56566e-09
4.94859e-10
1.47421e-09
3.0494e-10
1.41356e-09
2.10422e-10
1.38551e-09
1.18522e-10
1.39191e-09
1.72431e-11
1.43798e-09
-1.15655e-10
1.51833e-09
-2.43079e-10
1.62813e-09
-3.77843e-10
1.74724e-09
-4.30934e-10
1.86496e-09
-4.40846e-10
1.97721e-09
-4.37239e-10
2.08076e-09
-4.18962e-10
2.17329e-09
-3.87399e-10
2.2533e-09
-3.45292e-10
2.32007e-09
-2.96129e-10
2.37358e-09
-2.43523e-10
2.41442e-09
-1.90826e-10
2.44368e-09
-1.40916e-10
2.46283e-09
-9.60501e-11
2.47362e-09
-5.78048e-11
2.4779e-09
-2.70884e-11
2.47757e-09
-4.21443e-12
2.4744e-09
1.09997e-11
2.47003e-09
1.91847e-11
2.46581e-09
2.12897e-11
2.46281e-09
1.84859e-11
2.46179e-09
1.2091e-11
2.46311e-09
3.48065e-12
2.46691e-09
-5.97503e-12
2.47293e-09
-1.50566e-11
2.48073e-09
-2.26861e-11
2.48968e-09
-2.8059e-11
2.49904e-09
-3.07149e-11
2.50805e-09
-3.0457e-11
2.51599e-09
-2.73708e-11
2.52224e-09
-2.18049e-11
2.52637e-09
-1.42989e-11
2.52821e-09
-5.51159e-12
2.52785e-09
3.89104e-12
2.5257e-09
1.32569e-11
2.33162e-11
2.52315e-09
4.74411e-11
2.58139e-09
1.33402e-10
2.65328e-09
1.93033e-10
2.72327e-09
2.26654e-10
2.7828e-09
2.40903e-10
2.82858e-09
2.41966e-10
2.86142e-09
2.35007e-10
2.88292e-09
2.23671e-10
2.89533e-09
2.10334e-10
2.90109e-09
1.96217e-10
2.90208e-09
1.82133e-10
2.89948e-09
1.68797e-10
2.89416e-09
1.56629e-10
2.88683e-09
1.45793e-10
2.87794e-09
1.36498e-10
2.86778e-09
1.28881e-10
2.8565e-09
1.2302e-10
2.84418e-09
1.18963e-10
2.83081e-09
1.16746e-10
2.81637e-09
1.16374e-10
2.80073e-09
1.17885e-10
2.78376e-09
1.21314e-10
2.76527e-09
1.26708e-10
2.74504e-09
1.34149e-10
2.7228e-09
1.4374e-10
2.69828e-09
1.55615e-10
2.67114e-09
1.69953e-10
2.64106e-09
1.86982e-10
2.6077e-09
2.06983e-10
2.57072e-09
2.30299e-10
2.52988e-09
2.57345e-10
2.48499e-09
2.88611e-10
2.43606e-09
3.24765e-10
2.38232e-09
3.79872e-10
2.33299e-09
3.40114e-10
2.3015e-09
1.81274e-10
2.29384e-09
2.40303e-11
2.31265e-09
-1.17751e-10
2.35652e-09
-2.5599e-10
2.42038e-09
-3.89239e-10
2.49906e-09
-5.29894e-10
2.58423e-09
-5.88139e-10
2.67334e-09
-5.95644e-10
2.75956e-09
-5.76576e-10
2.83935e-09
-5.36059e-10
2.91242e-09
-4.96686e-10
2.9791e-09
-4.61645e-10
3.03916e-09
-4.11699e-10
3.09295e-09
-3.75669e-10
3.13978e-09
-3.31018e-10
3.1807e-09
-2.84179e-10
3.21479e-09
-2.41383e-10
3.24279e-09
-1.82619e-10
3.26372e-09
-1.35182e-10
3.27833e-09
-6.76198e-11
3.28562e-09
-7.80284e-12
3.28588e-09
6.01091e-11
3.27839e-09
1.36287e-10
3.2627e-09
1.92481e-10
3.23861e-09
2.81479e-10
3.20519e-09
3.30008e-10
3.16196e-09
3.91726e-10
3.10924e-09
4.3749e-10
3.04655e-09
4.69161e-10
2.97501e-09
5.01974e-10
2.89498e-09
5.09191e-10
2.80797e-09
5.23701e-10
2.71498e-09
5.1677e-10
2.61773e-09
5.13779e-10
2.51725e-09
5.02253e-10
2.4154e-09
4.86255e-10
2.31257e-09
4.76579e-10
2.21048e-09
4.57377e-10
2.10954e-09
4.42996e-10
2.01029e-09
4.28938e-10
1.91355e-09
4.11804e-10
1.81939e-09
3.96525e-10
1.72819e-09
3.80967e-10
1.64031e-09
3.63166e-10
1.55626e-09
3.44044e-10
1.47619e-09
3.24476e-10
1.40063e-09
3.03056e-10
1.32991e-09
2.81001e-10
1.26436e-09
2.58589e-10
1.20443e-09
2.35684e-10
1.15012e-09
2.14506e-10
1.10133e-09
1.95062e-10
1.05855e-09
1.75475e-10
1.02091e-09
1.60016e-10
9.88146e-10
1.46454e-10
9.60247e-10
1.32901e-10
9.3648e-10
1.22154e-10
9.16162e-10
1.12651e-10
9.00219e-10
9.99349e-11
8.87101e-10
9.07234e-11
8.78891e-10
7.44764e-11
8.74046e-10
6.14331e-11
8.75043e-10
4.0159e-11
8.80515e-10
2.14595e-11
8.93715e-10
-7.57872e-12
9.13008e-10
-3.32046e-11
9.41081e-10
-6.75933e-11
9.77291e-10
-1.01425e-10
1.02236e-09
-1.38046e-10
1.07714e-09
-1.79005e-10
1.14029e-09
-2.16118e-10
1.2126e-09
-2.57882e-10
1.2924e-09
-2.9455e-10
1.37895e-09
-3.30695e-10
1.47108e-09
-3.63488e-10
1.567e-09
-3.91823e-10
1.6654e-09
-4.1557e-10
1.76462e-09
-4.34943e-10
1.86278e-09
-4.45596e-10
1.95919e-09
-4.56004e-10
2.05184e-09
-4.55052e-10
2.13998e-09
-4.50825e-10
2.22298e-09
-4.42718e-10
2.29999e-09
-4.27245e-10
2.37093e-09
-4.09646e-10
2.43596e-09
-3.90453e-10
2.49508e-09
-3.66916e-10
2.54892e-09
-3.43473e-10
2.59803e-09
-3.2136e-10
2.64298e-09
-2.98581e-10
2.68451e-09
-2.77979e-10
2.72326e-09
-2.59437e-10
2.75994e-09
-2.43215e-10
2.79516e-09
-2.31004e-10
2.82932e-09
-2.22399e-10
2.86274e-09
-2.12853e-10
2.89565e-09
-2.09097e-10
2.92882e-09
-2.11855e-10
2.96088e-09
-2.05394e-10
2.99263e-09
-2.08785e-10
3.02281e-09
-2.11723e-10
3.05203e-09
-2.03064e-10
3.07868e-09
-2.04323e-10
3.10318e-09
-1.93398e-10
3.12391e-09
-1.79361e-10
3.14113e-09
-1.59937e-10
3.15326e-09
-1.27842e-10
3.1606e-09
-9.05769e-11
3.16129e-09
-4.35215e-11
3.15604e-09
1.89358e-11
3.14236e-09
7.3395e-11
3.12118e-09
1.59927e-10
3.08986e-09
2.25706e-10
3.049e-09
3.00332e-10
2.99616e-09
3.79207e-10
2.93202e-09
4.33642e-10
2.85467e-09
5.10727e-10
2.76541e-09
5.46725e-10
2.66282e-09
6.04726e-10
2.54921e-09
6.27628e-10
2.42506e-09
6.67679e-10
2.29251e-09
6.81909e-10
2.15723e-09
6.91607e-10
2.0343e-09
6.47735e-10
1.92096e-09
6.08197e-10
1.84335e-09
3.82544e-10
1.7986e-09
2.55175e-10
1.78879e-09
1.28333e-10
1.81473e-09
-8.69799e-12
1.87993e-09
-1.80857e-10
1.97536e-09
-3.38511e-10
2.09381e-09
-4.96294e-10
2.21502e-09
-5.52143e-10
2.32967e-09
-5.55492e-10
2.43492e-09
-5.42493e-10
2.52869e-09
-5.12734e-10
2.60977e-09
-4.68472e-10
2.67765e-09
-4.1317e-10
2.73245e-09
-3.50929e-10
2.7748e-09
-2.85874e-10
2.80575e-09
-2.21774e-10
2.82667e-09
-1.61839e-10
2.83917e-09
-1.08551e-10
2.84497e-09
-6.36007e-11
2.84579e-09
-2.79106e-11
2.84331e-09
-1.73124e-12
2.83905e-09
1.52559e-11
2.83437e-09
2.38609e-11
2.83039e-09
2.5269e-11
2.82795e-09
2.09257e-11
2.82761e-09
1.24355e-11
2.82963e-09
1.4641e-12
2.83401e-09
-1.03644e-11
2.84053e-09
-2.15722e-11
2.84874e-09
-3.0895e-11
2.85807e-09
-3.73919e-11
2.86786e-09
-4.05009e-11
2.8774e-09
-4.0001e-11
2.88605e-09
-3.60162e-11
2.89324e-09
-2.89936e-11
2.89857e-09
-1.96356e-11
2.90187e-09
-8.81097e-12
2.90321e-09
2.55642e-12
2.90292e-09
1.35429e-11
2.5167e-11
2.51583e-09
3.16104e-11
2.55897e-09
9.02604e-11