/*--------------------------------*- C++ -*----------------------------------*\
| =========                 |                                                 |
| \\      /  F ield         | OpenFOAM: The Open Source CFD Toolbox           |
|  \\    /   O peration     | Version:  2506                                  |
|   \\  /    A nd           | Website:  www.openfoam.com                      |
|    \\/     M anipulation  |                                                 |
\*---------------------------------------------------------------------------*/
FoamFile
{
    version     2.0;
    format      ascii;
    arch        "LSB;label=32;scalar=64";
    class       volVectorField;
    location    "3";
    object      vorticityField;
}
// * * * * * * * * * * * * * * * * * * * * * * * * * * * * * * * * * * * * * //

dimensions      [0 0 -1 0 0 0 0];

internalField   nonuniform List<vector> 
4000
(
(-2.63007e-20 8.91476e-18 -32.7424)
(-9.62702e-18 -7.96758e-18 -35.7513)
(1.02567e-17 -2.88902e-17 -33.6377)
(3.92144e-17 4.53454e-17 -29.632)
(-8.06743e-17 3.04054e-18 -26.6301)
(4.13477e-17 -3.95345e-17 -24.7293)
(-3.37949e-19 1.90916e-17 -23.407)
(4.09148e-17 -0 -22.4125)
(-4.0219e-17 -3.78488e-17 -21.6382)
(8.0518e-17 3.52653e-17 -21.0134)
(-8.05939e-17 -3.47312e-17 -20.4916)
(-2.94929e-18 3.23042e-17 -20.045)
(-9.55505e-19 8.03442e-17 -19.6563)
(8.48045e-17 -7.53337e-17 -19.3134)
(-3.90712e-19 -0 -19.0068)
(-1.60052e-16 -7.38456e-17 -18.7289)
(1.57194e-16 6.91221e-17 -18.4732)
(-8.29053e-17 7.86265e-17 -18.2338)
(3.92458e-18 -7.3903e-17 -18.0053)
(0 -0 -17.7828)
(0 -0 -17.5615)
(0 -0 -17.3367)
(9.74422e-18 -1.43602e-16 -17.1041)
(1.3363e-16 2.7798e-16 -16.8589)
(-3.0703e-16 1.78768e-17 -16.5964)
(1.74651e-16 -2.95443e-16 -16.3113)
(-1.09834e-17 1.43188e-16 -15.9978)
(0 -0 -15.6491)
(0 -0 -15.2568)
(-1.24229e-17 1.4036e-16 -14.81)
(-2.94928e-16 -1.33275e-16 -14.2934)
(1.64352e-16 -1.47749e-16 -13.6884)
(3.13663e-16 1.82335e-17 -12.965)
(7.26054e-18 -1.4462e-16 -11.9198)
(-9.21571e-17 8.20299e-16 -10.7048)
(-3.49227e-16 6.67804e-16 -10.0563)
(-1.14147e-15 -1.19879e-15 -10.2258)
(-1.02414e-17 4.186e-18 -10.9495)
(8.38241e-16 1.97254e-15 -12.1362)
(-8.25039e-16 -1.25595e-15 -13.8698)
(4.37777e-16 -2.5503e-15 -16.4397)
(1.25486e-15 2.41084e-15 -19.5717)
(-3.72525e-16 1.06942e-15 -22.7129)
(2.91402e-16 -1.1395e-15 -25.7288)
(1.36612e-15 9.55686e-16 -28.6184)
(-1.56729e-15 1.88416e-16 -31.4173)
(-1.41363e-15 4.29307e-16 -34.1696)
(-1.21318e-15 -1.19279e-15 -36.7061)
(-1.38774e-15 -1.42022e-15 -39.0795)
(-5.90649e-16 -1.51177e-15 -41.2586)
(7.83975e-16 -3.5424e-16 -43.1444)
(-4.81397e-17 5.97806e-16 -44.8217)
(-7.37367e-16 -1.3484e-15 -46.1062)
(8.09464e-16 3.41655e-17 -47.127)
(-1.10932e-16 1.29619e-15 -47.7434)
(-3.74095e-16 5.41548e-17 -47.9859)
(2.91565e-16 -1.11836e-16 -47.8871)
(9.53414e-17 -3.55457e-17 -47.3118)
(1.76841e-16 5.45656e-17 -46.5214)
(-8.52063e-17 -5.45992e-17 -45.308)
(8.88242e-17 -2.49043e-17 -43.7537)
(3.54267e-16 7.89722e-18 -42.0759)
(-1.66765e-16 -7.87932e-17 -40.1718)
(-1.00319e-16 -7.73167e-16 -38.2094)
(5.85944e-17 -1.16157e-16 -36.1763)
(-1.26697e-16 9.18676e-16 -34.1078)
(7.15401e-16 -1.59526e-16 -32.1057)
(2.89636e-17 -4.79097e-16 -30.0828)
(3.38649e-16 7.53528e-16 -28.1666)
(-8.75778e-16 8.97066e-16 -26.2693)
(-2.01783e-16 -6.64957e-16 -24.468)
(-4.60634e-17 -2.50792e-16 -22.7345)
(-2.19035e-19 2.56481e-18 -21.0377)
(-1.10849e-15 7.03108e-16 -19.4431)
(-1.07797e-15 7.64965e-16 -17.9067)
(-4.30803e-17 8.86345e-16 -16.4426)
(-8.93128e-16 5.76e-16 -15.0751)
(1.06753e-16 -9.20336e-16 -13.7922)
(-9.78359e-16 5.44367e-16 -12.5967)
(8.76003e-16 2.58604e-16 -11.5026)
(-1.64749e-15 4.69049e-16 -10.5036)
(-1.99513e-16 -8.28608e-16 -9.59535)
(4.87537e-17 -1.2487e-16 -8.77476)
(-1.07074e-16 4.41723e-17 -8.03237)
(7.89193e-16 1.20384e-15 -7.36086)
(-1.42272e-15 1.86288e-15 -6.75268)
(7.15876e-17 -1.6865e-15 -6.19508)
(-7.9953e-17 -8.29365e-16 -5.68238)
(-1.42735e-17 1.62425e-15 -5.21202)
(-5.86369e-16 3.78636e-16 -4.77483)
(2.26783e-18 6.87833e-18 -4.36849)
(-5.82114e-16 1.07135e-15 -3.99627)
(-2.68054e-16 -1.32031e-15 -3.6513)
(2.01704e-16 -4.36551e-16 -3.33754)
(1.16167e-17 6.80923e-16 -3.05445)
(8.79602e-17 -7.60792e-16 -2.80247)
(2.59965e-16 -1.12588e-16 -2.58391)
(3.31863e-17 3.57421e-17 -2.39818)
(-4.03298e-16 -5.87631e-17 -2.24573)
(6.21078e-17 3.29445e-16 -2.12798)
(7.2917e-17 -5.5898e-18 -2.04616)
(1.94253e-17 -6.30504e-17 -1.99906)
(-1.17218e-17 2.0553e-16 -1.99111)
(-3.09338e-17 5.52572e-17 -2.01888)
(-4.46556e-17 -2.23668e-17 -2.08864)
(-8.18084e-19 -7.42649e-17 -2.20263)
(4.41212e-18 5.92465e-16 -2.36498)
(-2.204e-16 -3.76256e-17 -2.58236)
(-2.86575e-16 -1.00341e-15 -2.85699)
(5.313e-16 -1.41876e-16 -3.19732)
(-2.84188e-16 2.00624e-16 -3.61086)
(1.18001e-17 6.57881e-16 -4.10348)
(-2.73463e-16 -1.29643e-16 -4.68744)
(-2.75257e-16 -5.01051e-16 -5.36211)
(-7.9846e-18 -6.75752e-16 -6.14799)
(5.3149e-16 3.51128e-16 -7.03979)
(4.56137e-18 1.3269e-15 -8.04338)
(6.63929e-17 8.73397e-17 -9.16884)
(5.54529e-16 3.99799e-16 -10.4035)
(-5.57397e-16 -4.18431e-16 -11.7494)
(-6.84742e-16 -1.96412e-15 -13.2067)
(6.82478e-16 4.56908e-16 -14.7547)
(2.80529e-17 1.48067e-15 -16.3811)
(-6.2168e-16 -4.59652e-16 -18.0856)
(-1.23357e-16 -1.53928e-15 -19.8427)
(1.22846e-15 8.70961e-16 -21.6412)
(-4.25995e-16 4.39193e-16 -23.4661)
(5.97928e-16 -1.138e-16 -25.2981)
(6.56248e-16 9.44115e-16 -27.1319)
(2.20478e-17 9.28472e-16 -28.9742)
(-1.88013e-17 5.69734e-16 -30.7616)
(-5.95804e-16 -2.02595e-16 -32.5258)
(-2.32991e-16 -6.96062e-16 -34.2938)
(-1.23449e-15 -8.55302e-16 -35.9648)
(5.00284e-16 -1.21563e-18 -37.5883)
(-8.35616e-17 -4.37828e-17 -39.2294)
(8.61971e-17 4.74294e-17 -40.6666)
(-3.5327e-17 -1.62715e-16 -42.103)
(9.41774e-17 9.77992e-17 -43.3634)
(-1.37388e-16 1.28596e-16 -44.5008)
(1.44749e-16 1.73849e-16 -45.4481)
(-4.90281e-16 -1.98007e-16 -46.1666)
(2.24092e-16 1.58854e-16 -46.5883)
(-7.193e-17 4.54887e-17 -46.7644)
(-1.54561e-16 -9.69235e-17 -46.4731)
(-1.66278e-17 -2.34187e-16 -45.9821)
(-2.76107e-17 4.45028e-17 -44.9628)
(0 -0 -43.5888)
(-5.99041e-17 4.30091e-17 -41.9536)
(6.52111e-17 -2.87408e-17 -39.9681)
(2.82706e-17 -2.15584e-16 -37.8646)
(-3.12901e-17 -1.03162e-16 -35.5307)
(1.75037e-16 1.03288e-16 -33.1095)
(9.40437e-17 2.66111e-16 -30.631)
(-1.914e-16 7.46829e-17 -28.1244)
(1.86952e-16 -1.9431e-16 -25.6032)
(-2.78665e-16 -1.13113e-16 -23.0379)
(3.88855e-16 -2.13417e-16 -20.4597)
(-8.71651e-17 -3.58885e-16 -17.7094)
(2.72473e-16 -1.95484e-16 -14.7242)
(-2.64724e-16 8.20892e-16 -12.4542)
(2.12122e-16 -1.62646e-16 -11.2973)
(-5.36632e-17 -1.06756e-16 -10.4054)
(3.76821e-17 -8.78443e-18 -9.77652)
(3.56713e-17 -5.48613e-18 -9.5222)
(3.40892e-17 -2.83228e-18 -9.70816)
(-3.27332e-17 -2.43035e-17 -10.4371)
(2.73148e-17 -5.88404e-18 -11.5498)
(1.9705e-18 2.4816e-17 -12.6607)
(3.33959e-18 2.20602e-17 -13.7111)
(-2.72971e-17 6.90573e-18 -14.7363)
(-5.93637e-18 -4.4091e-17 -15.7136)
(3.43559e-19 1.17565e-17 -16.6051)
(4.82679e-18 2.92512e-17 -17.3801)
(-3.3345e-18 -2.12064e-17 -18.0188)
(2.23332e-17 6.76219e-19 -18.5125)
(-4.0672e-17 1.65702e-17 -18.8631)
(2.07808e-17 -6.52834e-18 -19.0812)
(-3.35303e-18 -2.67055e-17 -19.1829)
(1.14198e-18 1.66325e-17 -19.1885)
(9.9344e-18 6.31388e-18 -19.1178)
(-1.60654e-17 4.076e-18 -18.9908)
(-1.22882e-18 -1.26125e-17 -18.8288)
(1.52444e-19 -4.52466e-18 -18.6494)
(6.42154e-18 6.31698e-18 -18.4671)
(6.00949e-18 1.79256e-20 -18.2938)
(-6.70305e-18 -1.99944e-20 -18.1376)
(5.73635e-18 -2.44553e-19 -18.0036)
(-9.70343e-18 -4.62154e-19 -17.8935)
(6.16024e-18 2.79463e-19 -17.8056)
(-2.08115e-18 -6.20783e-21 -17.7358)
(-4.70361e-19 -1.26633e-18 -17.6794)
(1.40487e-18 -1.05422e-18 -17.6308)
(-4.48377e-19 3.57494e-18 -17.5838)
(-1.24581e-18 -1.36525e-18 -17.5321)
(1.69633e-19 -6.90871e-19 -17.4704)
(-1.11012e-19 -8.68167e-19 -17.3938)
(-1.88784e-19 9.30471e-19 -17.296)
(-9.6566e-20 3.89789e-19 -17.1571)
(-2.71123e-20 -8.91317e-20 -16.9866)
(0 -0 2.6079)
(-1.87555e-20 -0 -6.31675)
(-2.26429e-19 -1.84311e-17 -11.5216)
(-1.18818e-18 3.40064e-17 -13.4349)
(2.09476e-17 6.22564e-18 -13.6326)
(-1.96739e-17 -4.08445e-17 -13.1664)
(4.55418e-19 -1.93318e-17 -12.5837)
(-7.82594e-19 3.29424e-17 -12.0539)
(-3.90166e-17 5.56995e-18 -11.5993)
(3.78121e-17 -5.32201e-18 -11.2113)
(7.58842e-17 1.20943e-16 -10.8765)
(-1.55433e-16 -1.05782e-16 -10.5839)
(8.05636e-18 -1.64126e-16 -10.3254)
(7.57918e-17 6.78088e-17 -10.095)
(-9.97301e-18 2.3038e-16 -9.88795)
(-7.45924e-17 -5.77696e-17 -9.70002)
(8.4607e-17 -1.62955e-16 -9.52754)
(-2.93774e-18 7.66857e-17 -9.36713)
(0 -0 -9.21576)
(0 -0 -9.07067)
(0 -0 -8.9292)
(0 -0 -8.78875)
(0 -0 -8.64683)
(-3.07321e-16 -0 -8.501)
(4.61023e-16 -0 -8.34881)
(-1.53367e-16 -0 -8.18771)
(0 -0 -8.01523)
(0 -0 -7.82871)
(0 -0 -7.62511)
(-1.30541e-17 1.47491e-16 -7.40103)
(-1.60248e-18 1.37552e-17 -7.15237)
(4.27252e-17 -4.4359e-16 -6.87368)
(-1.14413e-17 1.03628e-16 -6.55708)
(-1.65961e-16 4.56417e-16 -6.18801)
(-9.1594e-17 -5.71632e-16 -5.79395)
(3.99345e-16 4.8999e-16 -5.54952)
(1.13765e-15 9.59736e-16 -5.61653)
(8.52489e-17 -2.23174e-15 -6.02928)
(-5.25389e-16 -9.84376e-16 -6.77909)
(1.18791e-15 2.424e-15 -7.88026)
(-3.4623e-16 1.40849e-16 -9.3565)
(-9.66352e-16 -1.75314e-15 -10.9586)
(6.51908e-17 -1.34809e-16 -12.6042)
(3.59049e-17 -3.00491e-16 -14.2925)
(-1.45262e-15 2.59434e-16 -15.954)
(1.21496e-15 2.44355e-15 -17.6059)
(2.70287e-15 3.93487e-16 -19.2291)
(1.20972e-15 1.30073e-15 -20.7583)
(1.38387e-15 8.61027e-16 -22.2379)
(7.33512e-16 -2.5258e-16 -23.5909)
(-2.03032e-15 -9.81106e-16 -24.8169)
(-4.33623e-17 5.34227e-16 -25.9218)
(5.79994e-16 9.81934e-16 -26.8368)
(-7.12591e-16 -6.26272e-16 -27.6155)
(7.43992e-16 -3.43468e-16 -28.1847)
(7.18405e-16 -5.97704e-17 -28.5841)
(4.54188e-16 -6.58381e-17 -28.7849)
(1.61522e-16 1.39804e-16 -28.782)
(-9.37474e-17 4.22394e-17 -28.5802)
(-9.76818e-17 1.31508e-16 -28.1926)
(-5.53174e-17 -2.64486e-16 -27.5776)
(-3.60748e-16 6.54835e-17 -26.7842)
(2.84597e-16 4.82518e-16 -25.8325)
(-2.17861e-16 7.35199e-16 -24.7077)
(2.47541e-16 3.85658e-17 -23.4987)
(1.23334e-17 -1.29648e-15 -22.1669)
(2.67454e-16 -2.34499e-16 -20.8183)
(-3.61876e-16 7.9798e-16 -19.3783)
(-4.03521e-16 -5.49836e-17 -17.9646)
(1.09956e-15 -4.67068e-16 -16.5369)
(-1.01814e-17 1.51367e-16 -15.1236)
(-1.57981e-15 6.60585e-16 -13.7705)
(8.77949e-16 5.11468e-16 -12.4316)
(9.36191e-18 1.24074e-15 -11.1589)
(1.20396e-15 -1.63443e-15 -9.95088)
(1.81476e-16 -1.08062e-15 -8.80067)
(-2.09504e-16 1.2934e-16 -7.72941)
(-4.81487e-17 9.70678e-16 -6.74229)
(-8.5325e-16 -1.94783e-16 -5.83278)
(-1.83408e-15 1.15173e-15 -5.00685)
(2.43191e-15 3.56039e-16 -4.26464)
(2.46957e-16 -1.11993e-15 -3.60103)
(-8.46508e-16 5.81628e-16 -3.01094)
(1.42255e-16 -8.7e-16 -2.48772)
(-2.10428e-17 -1.00276e-16 -2.02425)
(1.44584e-15 -9.10601e-16 -1.61677)
(6.49725e-16 -5.2704e-16 -1.25808)
(8.13105e-16 4.85659e-16 -0.938285)
(6.54912e-16 -1.32181e-15 -0.6588)
(1.3058e-15 -8.26781e-16 -0.416557)
(4.17401e-19 2.64915e-17 -0.203056)
(5.8927e-16 -7.39251e-16 -0.0215833)
(2.40927e-16 2.89649e-16 0.130037)
(-5.50653e-16 3.04799e-16 0.25562)
(2.52396e-16 -6.61574e-16 0.353226)
(1.17314e-17 3.67079e-16 0.427291)
(-5.46703e-16 2.91055e-16 0.477963)
(2.69194e-16 6.99316e-16 0.508546)
(2.72373e-17 1.48315e-16 0.521328)
(-1.43228e-16 -8.98325e-16 0.519044)
(-7.30584e-17 4.54067e-17 0.502654)
(-8.32473e-17 1.76912e-16 0.473892)
(-3.69324e-17 -1.40682e-16 0.432688)
(3.14809e-17 -1.923e-17 0.378425)
(6.05443e-17 -1.58037e-17 0.310196)
(1.31095e-16 3.64493e-17 0.223508)
(-2.41937e-18 -3.24876e-16 0.11532)
(7.48959e-16 5.01499e-16 -0.0204304)
(1.45288e-17 -2.47572e-18 -0.188922)
(-5.09427e-16 1.60037e-16 -0.395941)
(9.97576e-18 3.65547e-16 -0.649659)
(-1.99351e-17 -6.85315e-16 -0.95387)
(2.67171e-16 4.78066e-16 -1.31528)
(2.6437e-16 1.32313e-16 -1.73644)
(-2.76369e-16 -5.05797e-16 -2.22877)
(-5.30881e-16 -3.07295e-16 -2.78435)
(2.03513e-17 -7.37083e-16 -3.41508)
(-5.34875e-17 -7.84599e-16 -4.12561)
(-4.47965e-16 3.73545e-16 -4.90782)
(1.13362e-15 2.29047e-15 -5.76094)
(-6.29662e-16 -4.49122e-16 -6.6862)
(-6.191e-16 -1.20809e-15 -7.67523)
(5.05693e-16 4.61324e-16 -8.72674)
(7.34894e-16 5.12765e-16 -9.83601)
(5.77969e-16 -2.29831e-16 -10.9841)
(-1.79365e-15 -1.01173e-15 -12.171)
(4.8557e-16 5.36821e-16 -13.3838)
(-3.53566e-16 -1.19706e-15 -14.6106)
(-1.38359e-16 8.44594e-17 -15.8486)
(1.39579e-15 7.72345e-16 -17.0877)
(5.36144e-16 3.07116e-16 -18.2933)
(1.36774e-15 7.4239e-16 -19.4985)
(7.54921e-16 1.68456e-15 -20.6817)
(1.10285e-15 3.8846e-16 -21.7872)
(-3.10048e-17 -7.46008e-16 -22.8794)
(1.3445e-16 6.45587e-16 -23.9275)
(2.57196e-16 8.07965e-17 -24.8342)
(9.3411e-17 1.39517e-17 -25.7468)
(-5.93979e-17 -8.49889e-17 -26.4994)
(9.91721e-17 -1.35521e-16 -27.1799)
(2.2917e-17 2.57009e-17 -27.7268)
(7.79745e-17 3.40331e-16 -28.1362)
(1.43674e-16 -4.40107e-16 -28.3915)
(3.91767e-17 2.29479e-16 -28.4988)
(-5.21624e-17 -2.44952e-17 -28.3895)
(-5.80145e-17 8.95203e-17 -28.1552)
(1.22387e-16 -1.50134e-17 -27.6604)
(-7.83043e-17 2.10166e-17 -27.0082)
(5.12207e-17 -3.72987e-17 -26.1348)
(-1.34933e-16 -1.24618e-16 -25.0719)
(-7.97236e-17 2.63986e-16 -23.8473)
(3.92326e-17 2.0992e-16 -22.453)
(3.89099e-17 -1.81883e-16 -20.9176)
(-1.17291e-16 -3.64761e-17 -19.2862)
(4.27146e-16 -2.7989e-16 -17.5657)
(-2.12172e-16 1.09592e-16 -15.7896)
(2.39877e-17 6.9341e-17 -13.9849)
(-4.40764e-16 -5.07954e-17 -12.182)
(1.4036e-16 3.95114e-16 -10.366)
(-7.43497e-16 7.13907e-16 -8.59708)
(2.57621e-16 -6.39971e-16 -6.91693)
(-2.69413e-17 -2.55934e-16 -5.80617)
(-5.00618e-19 2.87183e-16 -5.12619)
(-8.38791e-17 -5.59983e-17 -4.73897)
(-1.1244e-18 -7.64711e-18 -4.61089)
(-6.24315e-17 4.77032e-17 -4.7465)
(6.5866e-17 3.84708e-17 -5.1265)
(-3.11363e-17 -2.43431e-17 -5.66808)
(-3.96886e-19 -3.29832e-18 -6.2615)
(-1.92511e-18 -1.02109e-18 -6.84304)
(-2.27498e-19 2.96474e-18 -7.39404)
(3.80489e-18 2.32885e-17 -7.9064)
(-2.607e-17 -7.33902e-18 -8.36976)
(2.02777e-17 -3.8804e-17 -8.77379)
(1.19456e-18 5.73657e-18 -9.11068)
(2.64634e-17 1.53778e-17 -9.37623)
(-2.31721e-17 2.06758e-17 -9.57026)
(-1.74038e-18 -5.71231e-17 -9.6964)
(3.8675e-18 5.68906e-17 -9.76145)
(-1.81709e-18 -2.68929e-17 -9.77473)
(-5.15877e-19 -3.31771e-18 -9.74701)
(7.67735e-18 1.94972e-17 -9.68953)
(-6.81095e-18 -3.4207e-19 -9.61297)
(-7.07881e-18 3.22531e-18 -9.52659)
(6.94016e-18 -1.96752e-17 -9.43828)
(2.07674e-18 2.11198e-18 -9.35402)
(6.56916e-19 1.08435e-17 -9.27768)
(-5.00352e-19 -7.5014e-18 -9.21121)
(-3.46935e-19 1.83588e-17 -9.15481)
(3.03164e-19 -1.95074e-17 -9.10683)
(1.97618e-18 1.05261e-17 -9.06439)
(-1.42041e-18 -6.0606e-19 -9.02422)
(-2.79683e-18 -1.23555e-18 -8.98291)
(3.09703e-18 -2.07146e-18 -8.93692)
(1.19633e-20 5.24523e-18 -8.88313)
(1.45132e-19 -1.28033e-18 -8.81894)
(9.35025e-20 2.28226e-18 -8.74249)
(2.86338e-19 -3.72157e-19 -8.65273)
(1.04484e-22 2.48777e-20 -8.54986)
(1.20436e-20 1.26044e-18 -8.4702)
(-2.65474e-20 8.99836e-18 5.00767)
(-2.69514e-19 -6.8542e-18 1.71321)
(5.33056e-19 -2.88996e-17 -1.74852)
(-6.17158e-19 2.27856e-17 -4.27458)
(2.04907e-17 2.19796e-17 -5.75685)
(-2.00755e-17 -1.80097e-17 -6.47733)
(0 -0 -6.74559)
(-4.18561e-17 3.66848e-17 -6.80911)
(4.29692e-17 -6.66177e-17 -6.79275)
(-3.8572e-17 -8.73904e-17 -6.74395)
(3.69419e-17 1.41213e-16 -6.68102)
(2.1755e-18 1.23916e-16 -6.6114)
(-1.14798e-18 -1.35147e-16 -6.53864)
(-1.54811e-16 -8.67019e-17 -6.46481)
(1.46016e-16 1.47559e-16 -6.39113)
(9.45408e-17 -1.34801e-16 -6.31815)
(-1.57323e-16 -2.44028e-17 -6.24607)
(6.82235e-17 1.59283e-16 -6.17479)
(3.90825e-18 -7.35955e-17 -6.10402)
(0 -0 -6.03338)
(1.49819e-16 -0 -5.96234)
(-1.50155e-16 -0 -5.89027)
(-9.79708e-18 1.44381e-16 -5.81641)
(-1.38831e-16 -1.22694e-16 -5.7399)
(1.59625e-16 -1.66395e-16 -5.65979)
(-1.06731e-17 1.44708e-16 -5.57506)
(0 -0 -5.48462)
(1.47317e-16 -0 -5.38736)
(-6.63888e-19 -0 -5.28222)
(-1.60054e-16 1.42574e-16 -5.16828)
(2.30562e-17 -1.24452e-16 -5.04466)
(3.06782e-16 -1.61206e-16 -4.90993)
(-4.75066e-16 1.3417e-16 -4.76215)
(2.75455e-16 -2.9599e-18 -4.59285)
(-1.9696e-17 2.98462e-16 -4.42137)
(-5.64744e-16 -6.4901e-16 -4.30661)
(8.3098e-16 -1.37444e-16 -4.30992)
(4.12285e-16 2.00851e-15 -4.48405)
(-9.19873e-16 -3.06309e-16 -4.8436)
(-2.25203e-16 -1.26248e-15 -5.39253)
(-1.45684e-16 -2.27603e-16 -6.11286)
(-1.61655e-15 8.44098e-17 -6.87676)
(2.36086e-16 5.64167e-16 -7.67635)
(1.20655e-15 8.43278e-16 -8.52354)
(-1.72615e-15 -2.00954e-15 -9.38925)
(2.00804e-15 -1.91685e-15 -10.2786)
(-6.63568e-16 5.43979e-16 -11.1744)
(-5.87957e-17 6.8329e-16 -12.06)
(8.07331e-17 -2.06705e-16 -12.9386)
(-4.7967e-17 1.64924e-15 -13.7714)
(4.91871e-16 7.12744e-16 -14.5703)
(2.03421e-16 -1.46748e-15 -15.3126)
(6.68906e-18 -7.64955e-16 -15.9846)
(2.39241e-16 -2.85484e-16 -16.5895)
(-6.38873e-16 -1.21047e-16 -17.11)
(-3.38242e-16 6.9018e-17 -17.5495)
(-4.43627e-16 -8.30231e-17 -17.8951)
(-2.88848e-17 2.33396e-16 -18.1492)
(-1.22621e-16 2.2576e-16 -18.2779)
(1.74576e-16 -1.55411e-17 -18.3133)
(6.59248e-17 1.3478e-16 -18.1988)
(-3.25271e-16 -8.01436e-17 -17.9414)
(5.12711e-16 -4.12803e-16 -17.5445)
(4.3296e-16 -7.86346e-16 -16.9858)
(-1.42932e-16 -3.85588e-16 -16.3221)
(-5.41006e-16 9.62162e-16 -15.5139)
(-1.01002e-15 4.52624e-16 -14.6234)
(1.64591e-16 9.33441e-17 -13.6338)
(2.5833e-17 -2.47703e-16 -12.6235)
(-7.51958e-16 4.44211e-16 -11.5679)
(2.56308e-17 1.47803e-15 -10.4964)
(1.4524e-15 -1.38454e-15 -9.4552)
(-1.17263e-15 -9.26079e-16 -8.42588)
(2.21722e-15 -1.40535e-15 -7.44373)
(9.85887e-16 -8.97604e-16 -6.51797)
(-2.0196e-16 2.14493e-15 -5.64798)
(9.80569e-16 -3.41351e-16 -4.84741)
(6.59011e-17 -9.5417e-17 -4.12132)
(1.77033e-15 8.86455e-16 -3.46536)
(2.38758e-16 -2.69766e-15 -2.88079)
(8.79312e-16 -3.75496e-15 -2.36571)
(-4.8676e-17 2.71441e-15 -1.91477)
(7.6862e-16 -3.88773e-16 -1.52267)
(8.07537e-16 -1.63587e-15 -1.18387)
(-7.6311e-16 5.58897e-16 -0.892754)
(1.46062e-15 -1.05295e-15 -0.646138)
(-2.19285e-15 4.90018e-16 -0.439054)
(-1.46755e-15 -6.98145e-17 -0.267541)
(-7.00503e-16 1.25693e-15 -0.131102)
(-2.67968e-18 7.58702e-16 -0.0247958)
(1.37239e-17 8.71025e-16 0.0522899)
(2.83188e-17 3.90992e-16 0.101643)
(-3.2709e-16 1.88674e-16 0.127438)
(3.34411e-16 -5.07801e-16 0.130383)
(-4.43934e-19 -4.05637e-17 0.11479)
(-1.01492e-16 3.57781e-16 0.0821226)
(2.98798e-17 -3.08573e-16 0.036896)
(-1.70768e-17 -6.72565e-16 -0.0186359)
(9.03444e-16 6.47696e-17 -0.0792957)
(7.84695e-17 4.50693e-16 -0.144073)
(-6.76197e-17 -2.52801e-17 -0.210721)
(9.75435e-17 -1.16138e-16 -0.276452)
(1.31752e-18 6.28164e-17 -0.34186)
(-7.97219e-19 -6.10482e-17 -0.405554)
(-1.73943e-18 -1.40055e-16 -0.469624)
(-1.29322e-16 -1.88183e-17 -0.537358)
(-1.37402e-16 -1.855e-16 -0.609389)
(-5.1393e-16 -1.26415e-16 -0.692335)
(7.85087e-16 8.68088e-16 -0.787549)
(-5.29425e-16 -4.9727e-16 -0.901022)
(5.34134e-16 -1.22039e-16 -1.03623)
(-6.31818e-18 3.36488e-16 -1.19707)
(1.41416e-17 -3.44265e-16 -1.38663)
(2.77912e-17 3.30988e-16 -1.60647)
(9.24382e-18 3.88602e-16 -1.86281)
(-4.59827e-18 -3.74326e-16 -2.15398)
(2.47009e-16 8.52315e-16 -2.48637)
(1.90659e-16 9.03795e-16 -2.86131)
(-1.18561e-15 -2.01411e-15 -3.27974)
(-4.79413e-16 -4.36247e-16 -3.74438)
(1.20506e-15 1.68841e-15 -4.25339)
(3.45634e-16 -1.10791e-15 -4.80458)
(-3.59752e-16 -5.93451e-16 -5.40096)
(-6.69129e-16 -5.81681e-16 -6.04121)
(-2.1557e-16 1.10887e-15 -6.71599)
(-8.5551e-16 8.58722e-17 -7.42596)
(5.70018e-16 -8.71151e-16 -8.16409)
(-8.25766e-16 -3.30305e-17 -8.92334)
(-6.49652e-16 -2.09071e-15 -9.70019)
(-9.44164e-16 -1.12953e-15 -10.4863)
(-3.04816e-16 1.66691e-16 -11.2627)
(-6.57381e-16 -5.21517e-16 -12.0435)
(-4.85754e-16 -1.28809e-15 -12.8122)
(9.39362e-16 6.57765e-16 -13.5377)
(-8.55698e-16 1.49319e-16 -14.2533)
(-5.84758e-18 -3.21744e-16 -14.9317)
(-7.58458e-18 -2.11353e-16 -15.5311)
(-2.10716e-16 3.57874e-17 -16.1189)
(-3.09972e-17 5.5513e-17 -16.6139)
(-2.36659e-16 1.91315e-18 -17.0583)
(1.67197e-16 3.45854e-16 -17.4274)
(9.43706e-16 5.33653e-17 -17.7204)
(-9.70659e-17 7.29935e-17 -17.9365)
(1.85125e-17 2.54109e-16 -18.0739)
(-1.88245e-16 1.75005e-16 -18.1139)
(2.6832e-17 -2.70563e-16 -18.0792)
(8.04191e-17 -6.4936e-17 -17.9247)
(-1.03342e-16 1.23916e-16 -17.6786)
(1.34348e-16 5.29217e-18 -17.2934)
(-2.16594e-16 2.59723e-16 -16.7775)
(7.91776e-17 -2.27725e-16 -16.123)
(1.72926e-16 -4.50874e-16 -15.3261)
(-2.18767e-16 3.51679e-17 -14.3927)
(6.61062e-17 7.35002e-17 -13.346)
(-2.38906e-16 -6.94429e-17 -12.1603)
(-1.78528e-16 4.43279e-16 -10.9058)
(4.24986e-16 -1.60249e-16 -9.66355)
(-2.02129e-16 1.33586e-16 -8.38192)
(-9.19184e-18 -2.51174e-17 -7.14634)
(5.53117e-16 -2.84955e-16 -6.01059)
(1.77873e-16 -1.88519e-16 -4.98815)
(-3.25957e-16 3.33085e-16 -4.31009)
(3.67138e-17 -3.05464e-17 -4.00008)
(3.50219e-17 -6.79583e-18 -3.93334)
(-3.73622e-17 1.28727e-18 -4.03705)
(-3.70564e-17 -2.34931e-17 -4.27305)
(-1.14494e-17 -8.4757e-17 -4.60195)
(3.46133e-17 5.03235e-17 -4.95753)
(2.87714e-17 2.01169e-18 -5.27597)
(3.19088e-18 2.2745e-17 -5.53333)
(-2.52405e-17 1.50249e-17 -5.73769)
(2.46391e-18 -2.49653e-17 -5.90445)
(4.9801e-17 3.07376e-18 -6.04544)
(-5.06796e-17 -3.29278e-19 -6.16719)
(-2.3908e-18 -2.35287e-17 -6.27237)
(-2.41489e-17 -7.57848e-18 -6.36138)
(4.56928e-17 6.41014e-17 -6.43361)
(-2.5158e-17 -1.20512e-17 -6.48843)
(1.27522e-18 -4.35615e-17 -6.52585)
(1.28126e-18 1.8708e-17 -6.54697)
(-1.15876e-17 1.33087e-18 -6.55396)
(9.2209e-18 4.67714e-18 -6.54968)
(2.59367e-18 1.0642e-17 -6.53704)
(1.2789e-17 -1.22004e-17 -6.5187)
(-1.24376e-17 -1.46324e-17 -6.49702)
(-7.13668e-18 2.68711e-18 -6.47378)
(8.14521e-18 6.36799e-19 -6.45005)
(-5.74039e-18 1.91049e-18 -6.42623)
(5.68021e-18 -1.03551e-18 -6.40237)
(-1.9389e-18 -2.9469e-18 -6.37792)
(3.06299e-18 -4.10545e-18 -6.3521)
(2.03959e-18 7.46598e-18 -6.32408)
(-1.60057e-18 2.99344e-18 -6.29282)
(2.25247e-19 -8.35145e-18 -6.25732)
(1.15901e-19 1.30885e-18 -6.21659)
(-4.84447e-19 -1.93228e-18 -6.16977)
(1.38372e-19 -2.70345e-18 -6.11638)
(2.02783e-19 -9.63073e-19 -6.05698)
(2.19603e-19 1.47789e-18 -5.99394)
(4.04004e-20 -1.35247e-18 -5.97211)
(0 -0 3.46966)
(9.58497e-18 -0 2.53597)
(-9.37625e-18 -1.77829e-17 1.16723)
(3.49945e-19 1.34888e-17 -0.426944)
(-4.81279e-19 2.21151e-17 -1.67782)
(2.62883e-19 -1.78211e-17 -2.68269)
(3.73584e-17 -0 -3.36832)
(-3.74648e-17 -0 -3.85702)
(1.8427e-18 -0 -4.20935)
(-3.98178e-18 -0 -4.47102)
(-7.86986e-17 7.15968e-17 -4.67063)
(8.08399e-17 -5.65741e-17 -4.82433)
(7.89385e-17 -1.5405e-17 -4.94232)
(-2.20617e-18 -5.64755e-17 -5.03207)
(3.34833e-19 -2.94026e-17 -5.09934)
(-7.9568e-17 2.29254e-16 -5.1486)
(-7.62312e-17 -1.28885e-16 -5.1833)
(8.23268e-17 -8.55799e-17 -5.20621)
(-3.79549e-18 7.14723e-17 -5.21953)
(8.13036e-17 -1.41302e-16 -5.22502)
(-8.12352e-17 1.14344e-16 -5.22404)
(-9.39948e-18 1.68577e-16 -5.21763)
(-3.24157e-19 -1.38018e-18 -5.2065)
(1.87486e-17 -1.14326e-16 -5.19107)
(1.4486e-16 -1.66458e-16 -5.17149)
(-1.54445e-16 1.40546e-16 -5.14769)
(-1.31936e-16 -1.38942e-16 -5.11939)
(1.72635e-18 -2.3835e-17 -5.08621)
(2.61916e-16 2.7854e-16 -5.0477)
(-1.55987e-16 1.61524e-16 -5.00347)
(4.62506e-17 -3.93108e-16 -4.95322)
(-1.48629e-16 -4.43379e-17 -4.89624)
(1.26066e-16 1.69542e-16 -4.83181)
(1.33207e-16 -1.97027e-17 -4.7486)
(-1.71356e-16 2.84511e-16 -4.66529)
(3.31581e-16 -2.2169e-16 -4.60624)
(-1.13026e-15 -8.65842e-16 -4.57422)
(-1.07584e-15 -1.00812e-15 -4.59676)
(1.24857e-15 7.51177e-16 -4.69089)
(4.84839e-16 1.18753e-15 -4.86333)
(-1.54783e-16 1.52595e-15 -5.10469)
(1.16969e-15 -4.85754e-16 -5.36647)
(5.10218e-16 -2.91952e-15 -5.65812)
(-1.17817e-15 5.44593e-16 -5.98986)
(5.68897e-16 1.63796e-15 -6.35715)
(-1.23927e-15 -4.59566e-16 -6.76281)
(-9.1165e-16 -4.09005e-18 -7.19448)
(-5.41165e-16 -3.04232e-16 -7.66252)
(-8.49856e-16 -1.96698e-16 -8.16018)
(-5.34424e-16 -1.42274e-15 -8.62892)
(1.45827e-15 3.49604e-16 -9.1182)
(-7.2856e-16 8.42182e-16 -9.61843)
(-1.60466e-17 8.67614e-16 -10.0982)
(-9.20869e-16 -1.68995e-16 -10.5577)
(-8.4868e-17 7.01722e-17 -10.9993)
(-9.82617e-18 -2.67907e-16 -11.4139)
(-5.76391e-16 -3.53183e-16 -11.7966)
(-1.59195e-16 -1.63722e-16 -12.1475)
(1.00777e-17 -5.91171e-17 -12.4367)
(8.99392e-17 -5.47925e-17 -12.6828)
(-1.69485e-16 5.41095e-17 -12.8432)
(3.56243e-16 -2.06289e-16 -12.9109)
(-5.0281e-16 -5.37164e-17 -12.876)
(1.89681e-16 9.37692e-16 -12.7158)
(-8.24846e-16 1.11225e-15 -12.4509)
(8.68047e-16 -6.54929e-16 -12.0551)
(-2.3715e-16 -2.94706e-16 -11.5655)
(1.67887e-16 -1.79e-16 -10.9778)
(-6.10396e-16 7.20961e-16 -10.3251)
(4.65737e-16 4.40891e-18 -9.61827)
(2.91883e-16 -1.65488e-15 -8.87684)
(6.56852e-16 2.89944e-16 -8.13696)
(-6.48875e-16 7.55007e-16 -7.39919)
(-8.3048e-17 -1.29847e-15 -6.69109)
(-1.10519e-15 1.67388e-15 -6.02433)
(4.86416e-17 -8.64944e-16 -5.40375)
(8.56659e-16 -8.59789e-16 -4.83969)
(4.43044e-17 -1.23937e-16 -4.33499)
(1.77143e-15 -2.15781e-15 -3.88608)
(1.63416e-15 -3.71907e-16 -3.49161)
(-3.3815e-15 4.07204e-15 -3.14731)
(-8.0629e-16 -2.40986e-16 -2.84675)
(8.5032e-16 -1.58979e-15 -2.58471)
(-8.56962e-16 1.45735e-15 -2.35588)
(3.7339e-18 -9.08735e-16 -2.15613)
(-1.51099e-15 2.68122e-15 -1.98375)
(1.46879e-15 2.83478e-15 -1.83595)
(-3.38991e-16 -4.11753e-16 -1.71203)
(-6.46196e-16 -2.2044e-15 -1.61369)
(-2.03057e-15 2.5094e-16 -1.53792)
(-3.21875e-16 1.74975e-16 -1.48447)
(1.98016e-17 1.37223e-17 -1.45414)
(3.32634e-16 -1.38393e-16 -1.44197)
(-4.71524e-17 -3.87579e-16 -1.44694)
(-5.49037e-16 2.49663e-16 -1.46747)
(-2.83718e-17 3.42652e-16 -1.49915)
(2.86016e-16 -1.46675e-16 -1.54187)
(-8.74817e-16 -5.54882e-17 -1.58964)
(-4.80395e-16 1.45428e-16 -1.64329)
(-2.80524e-17 2.65435e-16 -1.69914)
(1.34915e-16 -2.3574e-17 -1.75885)
(-1.29851e-16 9.56362e-17 -1.81728)
(8.1419e-17 -2.33458e-17 -1.87644)
(-9.13413e-19 -1.9314e-17 -1.93443)
(1.31263e-18 1.3766e-16 -1.99277)
(-2.69131e-16 1.58667e-16 -2.05254)
(1.83933e-18 1.55252e-16 -2.11269)
(-2.59686e-16 -8.56665e-16 -2.17583)
(-2.48717e-16 -9.57867e-17 -2.24171)
(4.99807e-16 8.35962e-16 -2.31308)
(-2.01579e-17 -3.1518e-16 -2.38896)
(8.11574e-18 -1.64174e-17 -2.47204)
(2.57767e-18 3.18508e-16 -2.56391)
(-2.71192e-16 -1.11565e-16 -2.66389)
(4.97534e-16 -7.28237e-17 -2.77797)
(1.20596e-17 -2.61249e-16 -2.90346)
(-7.80569e-16 -1.50662e-15 -3.04621)
(4.10591e-16 9.97065e-16 -3.20854)
(1.05755e-15 2.51779e-15 -3.39029)
(-6.69506e-16 -1.62976e-15 -3.59687)
(1.13434e-15 -7.73849e-16 -3.82991)
(-8.7846e-16 5.3065e-16 -4.08866)
(-5.45425e-16 1.20772e-15 -4.37739)
(-2.77758e-16 1.4713e-16 -4.6975)
(-7.28504e-16 -1.03708e-15 -5.04512)
(1.80418e-15 6.81756e-16 -5.42209)
(-1.41737e-16 2.2021e-17 -5.82536)
(5.18199e-16 9.46825e-16 -6.25124)
(-5.31741e-16 6.9477e-16 -6.69737)
(-8.99409e-16 -3.38314e-16 -7.1587)
(-4.80278e-16 -5.18436e-16 -7.62407)
(-6.20845e-17 6.77108e-17 -8.09888)
(-7.91421e-16 1.69597e-17 -8.5737)
(-6.66825e-16 -8.8512e-16 -9.02967)
(-6.14668e-17 3.24097e-16 -9.48322)
(-1.3499e-16 -1.92081e-16 -9.91746)
(-5.56838e-16 -7.41653e-17 -10.314)
(-2.09837e-16 2.02762e-16 -10.7)
(1.72762e-16 -2.85048e-17 -11.0406)
(2.18191e-17 -8.94291e-18 -11.3527)
(3.75709e-16 -1.22748e-15 -11.6288)
(-2.28692e-16 -3.91611e-16 -11.8696)
(-6.85865e-17 7.11381e-17 -12.0785)
(2.50765e-16 2.87344e-16 -12.2544)
(3.40052e-16 1.3811e-16 -12.3939)
(1.2109e-16 -5.11436e-17 -12.5001)
(-1.19431e-16 3.01162e-17 -12.556)
(7.63714e-17 1.01256e-16 -12.5651)
(-6.18147e-17 -5.82213e-17 -12.4974)
(2.9398e-16 6.53061e-17 -12.3438)
(3.2722e-17 -2.00433e-16 -12.0936)
(-2.90608e-16 3.27425e-16 -11.7271)
(-2.82197e-17 2.02117e-16 -11.2487)
(7.67159e-17 -1.7262e-16 -10.6492)
(-1.92475e-16 3.7177e-16 -9.9103)
(1.16937e-16 -3.30576e-16 -9.12556)
(-3.09377e-16 -9.46952e-17 -8.30223)
(3.34838e-16 6.6166e-17 -7.4217)
(-2.98385e-17 -2.02142e-16 -6.61916)
(-2.77243e-17 -1.30631e-16 -5.9132)
(-1.75064e-16 2.46632e-16 -5.42618)
(1.56007e-16 -5.00168e-17 -5.19039)
(3.1312e-17 -7.00911e-17 -5.23236)
(1.37529e-16 -5.97977e-17 -5.43928)
(-2.61129e-17 6.31628e-17 -5.72796)
(3.78519e-17 1.99105e-17 -6.03438)
(-9.15548e-17 -3.49571e-18 -6.31535)
(-5.7026e-18 -6.66419e-17 -6.52037)
(6.64652e-18 -1.77121e-18 -6.61868)
(2.96412e-17 4.2511e-17 -6.6198)
(-5.44386e-19 2.31486e-17 -6.55538)
(-9.24936e-18 -4.69699e-17 -6.45836)
(-6.08014e-18 -4.81e-18 -6.35459)
(5.95617e-18 5.03946e-17 -6.261)
(5.15688e-18 -1.38999e-17 -6.187)
(-4.8899e-17 5.06234e-19 -6.13625)
(4.07617e-17 -1.81123e-17 -6.10821)
(2.00814e-17 -1.39533e-17 -6.09965)
(-1.44782e-17 4.63827e-17 -6.10599)
(-5.10813e-18 -1.44872e-17 -6.12231)
(1.05409e-17 4.21095e-18 -6.144)
(-7.7458e-18 -3.45776e-18 -6.16707)
(8.45062e-19 -9.81044e-18 -6.18849)
(6.41077e-18 -7.23238e-18 -6.20578)
(-1.35655e-17 2.15468e-17 -6.21712)
(9.14477e-19 -3.63085e-18 -6.22118)
(-1.99351e-18 -5.21548e-18 -6.21723)
(-1.53062e-18 5.09081e-18 -6.20506)
(3.92002e-18 1.03171e-17 -6.18508)
(-4.81389e-18 -1.89148e-17 -6.15835)
(-4.44709e-18 -1.38622e-18 -6.12669)
(4.49217e-18 -4.72269e-18 -6.09194)
(-1.37932e-18 7.32243e-18 -6.05545)
(-1.49837e-18 -7.33137e-18 -6.01857)
(9.02085e-20 8.38928e-18 -5.98223)
(8.79868e-19 2.39391e-18 -5.94678)
(-7.91326e-19 2.85207e-18 -5.91219)
(-8.74698e-20 -2.1958e-18 -5.87857)
(3.13417e-19 -5.20109e-18 -5.84508)
(-1.20396e-19 2.1574e-19 -5.86389)
(0 -0 2.33291)
(0 -0 2.06215)
(1.59049e-19 -1.79701e-17 1.555)
(5.6732e-19 1.35837e-17 0.86511)
(-8.30323e-19 2.22894e-17 0.023334)
(8.89537e-19 -5.3236e-17 -0.710182)
(3.73998e-17 2.66235e-17 -1.37483)
(-7.68378e-17 7.93581e-17 -1.96584)
(3.93027e-17 -9.72345e-17 -2.46101)
(9.99529e-19 -1.72754e-17 -2.8778)
(-2.60031e-18 7.91638e-17 -3.23384)
(7.71987e-17 -3.53025e-17 -3.53442)
(-1.46662e-16 -6.99703e-17 -3.78722)
(1.49702e-16 -1.63476e-17 -3.9994)
(-1.61351e-16 2.09851e-16 -4.17732)
(7.83353e-17 -3.72877e-17 -4.32651)
(1.08765e-17 -1.56122e-16 -4.45165)
(-7.34591e-18 6.98762e-17 -4.55677)
(3.86834e-18 -6.90101e-17 -4.64532)
(6.76312e-17 5.33192e-17 -4.72025)
(-8.40056e-17 8.48339e-17 -4.78408)
(1.26055e-17 -6.9143e-17 -4.83886)
(-1.50176e-16 1.36427e-16 -4.88628)
(1.67833e-16 -2.42296e-16 -4.92764)
(-6.83964e-18 -6.05852e-17 -4.96392)
(-3.1684e-17 4.37973e-16 -4.99575)
(9.05749e-18 -1.07682e-16 -5.02349)
(2.36548e-17 -4.05406e-16 -5.04727)
(-1.46016e-16 7.84812e-17 -5.06702)