/*--------------------------------*- C++ -*----------------------------------*\
| =========                 |                                                 |
| \\      /  F ield         | OpenFOAM: The Open Source CFD Toolbox           |
|  \\    /   O peration     | Version:  2506                                  |
|   \\  /    A nd           | Website:  www.openfoam.com                      |
|    \\/     M anipulation  |                                                 |
\*---------------------------------------------------------------------------*/
FoamFile
{
    version     2.0;
    format      ascii;
    arch        "LSB;label=32;scalar=64";
    class       volScalarField;
    location    "1.3";
    object      p;
}
// * * * * * * * * * * * * * * * * * * * * * * * * * * * * * * * * * * * * * //

dimensions      [0 2 -2 0 0 0 0];

internalField   nonuniform List<scalar> 
4000
(
-0.00369764
-0.00371745
-0.00371933
-0.00371089
-0.00369878
-0.00368474
-0.0036695
-0.00365358
-0.00363726
-0.00362066
-0.00360386
-0.00358689
-0.00356979
-0.00355258
-0.0035353
-0.00351796
-0.00350058
-0.00348317
-0.00346575
-0.00344833
-0.00343092
-0.00341352
-0.00339616
-0.00337885
-0.0033616
-0.00334442
-0.00332735
-0.00331039
-0.00329359
-0.00327698
-0.00326061
-0.00324455
-0.00322894
-0.00321393
-0.00319995
-0.00318706
-0.00317447
-0.00316166
-0.00314842
-0.00313456
-0.00311977
-0.00310414
-0.0030882
-0.00307212
-0.00305595
-0.00303962
-0.00302298
-0.00300604
-0.00298849
-0.0029703
-0.00295127
-0.0029312
-0.00291018
-0.0028878
-0.00286427
-0.00283938
-0.00281324
-0.00278594
-0.0027574
-0.00272807
-0.00269782
-0.00266713
-0.0026361
-0.002605
-0.00257403
-0.00254335
-0.00251308
-0.00248335
-0.00245417
-0.00242566
-0.00239779
-0.00237048
-0.00234383
-0.00231775
-0.00229225
-0.00226739
-0.00224316
-0.00221958
-0.00219674
-0.00217467
-0.0021534
-0.00213295
-0.00211335
-0.00209461
-0.00207674
-0.00205968
-0.00204341
-0.00202795
-0.0020132
-0.00199912
-0.00198573
-0.00197292
-0.00196065
-0.00194894
-0.00193765
-0.00192687
-0.00191644
-0.00190643
-0.00189667
-0.00188724
-0.00187796
-0.00186888
-0.00185987
-0.00185085
-0.00184179
-0.00183255
-0.00182318
-0.00181352
-0.00180359
-0.0017933
-0.00178264
-0.00177158
-0.00176016
-0.00174836
-0.00173624
-0.00172378
-0.00171106
-0.00169811
-0.00168497
-0.00167168
-0.00165826
-0.00164474
-0.00163112
-0.00161739
-0.00160351
-0.00158946
-0.00157515
-0.00156056
-0.00154562
-0.00153027
-0.00151446
-0.00149809
-0.00148109
-0.00146346
-0.0014451
-0.00142592
-0.00140602
-0.00138516
-0.00136347
-0.00134081
-0.00131717
-0.00129251
-0.00126684
-0.00124006
-0.00121233
-0.00118356
-0.00115411
-0.00112394
-0.00109336
-0.00106261
-0.00103191
-0.00100155
-0.000971733
-0.000942571
-0.000914369
-0.00088704
-0.00086083
-0.000835395
-0.000810604
-0.000786864
-0.000767018
-0.000747304
-0.000727828
-0.000708526
-0.000689586
-0.000670433
-0.000650748
-0.000629689
-0.000608111
-0.000586708
-0.000565735
-0.000545292
-0.000525363
-0.000505869
-0.000486712
-0.00046779
-0.000448989
-0.000430204
-0.000411377
-0.000392455
-0.000373416
-0.000354236
-0.000334916
-0.000315477
-0.000295951
-0.000276375
-0.000256784
-0.000237229
-0.000217748
-0.000198367
-0.000179098
-0.000159951
-0.000140917
-0.000121996
-0.000103175
-8.44309e-05
-6.57405e-05
-4.70867e-05
-2.84584e-05
-9.67204e-06
-0.00373331
-0.00372828
-0.0037206
-0.00370978
-0.00369714
-0.00368321
-0.00366832
-0.00365276
-0.00363673
-0.00362038
-0.00360378
-0.00358698
-0.00357003
-0.00355296
-0.00353579
-0.00351855
-0.00350126
-0.00348393
-0.00346659
-0.00344923
-0.00343188
-0.00341454
-0.00339723
-0.00337996
-0.00336274
-0.0033456
-0.00332856
-0.00331163
-0.00329485
-0.00327826
-0.0032619
-0.00324583
-0.00323009
-0.00321489
-0.00320033
-0.00318631
-0.0031725
-0.00315853
-0.0031442
-0.00312939
-0.00311394
-0.00309816
-0.00308229
-0.00306631
-0.00305026
-0.00303402
-0.00301747
-0.00300059
-0.0029831
-0.00296497
-0.0029461
-0.00292628
-0.0029056
-0.00288374
-0.00286089
-0.00283676
-0.0028115
-0.00278521
-0.00275777
-0.00272974
-0.00270079
-0.00267146
-0.0026418
-0.002612
-0.00258232
-0.00255277
-0.00252359
-0.00249478
-0.00246646
-0.00243862
-0.00241134
-0.00238458
-0.00235835
-0.00233267
-0.00230749
-0.00228285
-0.00225877
-0.00223525
-0.00221236
-0.00219015
-0.00216865
-0.0021479
-0.00212792
-0.00210874
-0.00209036
-0.00207277
-0.00205595
-0.00203989
-0.00202455
-0.00200987
-0.00199584
-0.0019824
-0.00196951
-0.00195712
-0.00194519
-0.00193369
-0.00192255
-0.00191177
-0.00190123
-0.00189095
-0.00188084
-0.00187087
-0.00186096
-0.00185107
-0.00184113
-0.00183105
-0.00182079
-0.00181028
-0.0017995
-0.00178841
-0.00177698
-0.00176523
-0.00175316
-0.00174081
-0.00172818
-0.0017153
-0.00170224
-0.00168901
-0.00167565
-0.0016622
-0.00164866
-0.00163504
-0.00162134
-0.00160752
-0.00159355
-0.00157938
-0.00156499
-0.00155031
-0.00153527
-0.00151979
-0.00150384
-0.00148734
-0.00147021
-0.00145248
-0.00143403
-0.00141482
-0.00139492
-0.00137413
-0.00135259
-0.00133018
-0.00130686
-0.00128264
-0.00125751
-0.00123145
-0.00120466
-0.00117689
-0.00114862
-0.00111962
-0.00109028
-0.00106079
-0.00103126
-0.00100209
-0.000973301
-0.00094522
-0.000917904
-0.000891527
-0.000866081
-0.000841539
-0.000817672
-0.000794533
-0.000773272
-0.000752743
-0.000732389
-0.000712131
-0.000691924
-0.000671429
-0.000650466
-0.000628842
-0.000607026
-0.000585452
-0.000564367
-0.00054387
-0.000523908
-0.000504385
-0.000485208
-0.000466272
-0.000447479
-0.000428744
-0.000409982
-0.000391139
-0.000372181
-0.000353081
-0.000333838
-0.000314468
-0.000295001
-0.000275476
-0.000255942
-0.000236433
-0.000216987
-0.000197635
-0.0001784
-0.000159293
-0.000140319
-0.000121459
-0.000102698
-8.40177e-05
-6.53955e-05
-4.68159e-05
-2.82735e-05
-9.61275e-06
-0.00374949
-0.00373403
-0.003721
-0.00370901
-0.00369603
-0.00368195
-0.00366719
-0.00365187
-0.00363609
-0.00361997
-0.00360357
-0.00358695
-0.00357015
-0.00355321
-0.00353616
-0.00351902
-0.00350181
-0.00348455
-0.00346726
-0.00344996
-0.00343264
-0.00341534
-0.00339806
-0.00338081
-0.00336362
-0.00334649
-0.00332944
-0.0033125
-0.00329569
-0.00327905
-0.00326262
-0.00324644
-0.00323056
-0.00321519
-0.00320014
-0.00318525
-0.0031705
-0.00315563
-0.00314048
-0.00312502
-0.00310918
-0.00309337
-0.00307759
-0.00306168
-0.00304568
-0.00302948
-0.00301296
-0.00299611
-0.00297865
-0.00296059
-0.00294181
-0.00292214
-0.00290167
-0.00288008
-0.00285763
-0.00283407
-0.00280954
-0.00278416
-0.00275771
-0.00273083
-0.00270302
-0.00267489
-0.00264639
-0.00261765
-0.00258899
-0.00256031
-0.00253198
-0.00250387
-0.00247619
-0.00244891
-0.0024221
-0.00239578
-0.00236989
-0.00234452
-0.0023196
-0.00229514
-0.00227116
-0.00224769
-0.00222475
-0.0022024
-0.00218068
-0.00215964
-0.00213931
-0.00211972
-0.0021009
-0.00208285
-0.00206556
-0.00204902
-0.00203319
-0.00201804
-0.00200353
-0.00198961
-0.00197623
-0.00196335
-0.00195093
-0.00193891
-0.00192725
-0.00191589
-0.00190482
-0.00189396
-0.00188326
-0.00187264
-0.00186207
-0.00185148
-0.0018408
-0.00183
-0.00181901
-0.00180779
-0.0017963
-0.00178453
-0.00177248
-0.00176015
-0.00174756
-0.00173474
-0.00172169
-0.0017085
-0.00169517
-0.00168173
-0.00166823
-0.00165467
-0.00164105
-0.00162737
-0.00161361
-0.00159973
-0.00158569
-0.00157145
-0.00155694
-0.00154212
-0.00152692
-0.00151127
-0.00149516
-0.00147849
-0.00146121
-0.00144337
-0.00142483
-0.00140558
-0.00138572
-0.00136497
-0.00134352
-0.00132123
-0.00129816
-0.00127428
-0.0012496
-0.00122411
-0.00119797
-0.00117097
-0.00114361
-0.00111558
-0.0010873
-0.0010589
-0.0010304
-0.00100229
-0.000974393
-0.000947222
-0.000920602
-0.000894919
-0.000870028
-0.000846098
-0.000822965
-0.000800696
-0.000778831
-0.000757844
-0.000736818
-0.000715728
-0.000694403
-0.000672778
-0.000650643
-0.000628364
-0.000606172
-0.000584354
-0.000563129
-0.000542547
-0.000522548
-0.000503034
-0.000483897
-0.000465023
-0.000446305
-0.00042765
-0.000408975
-0.000390214
-0.000371314
-0.000352264
-0.000333064
-0.000313729
-0.000294288
-0.000274782
-0.000255259
-0.00023576
-0.000216327
-0.000196992
-0.000177779
-0.000158698
-0.000139752
-0.000120932
-0.000102222
-8.36023e-05
-6.5049e-05
-4.65454e-05
-2.80908e-05
-9.56351e-06
-0.00375626
-0.00373752
-0.0037219
-0.00370915
-0.0036956
-0.0036811
-0.00366628
-0.00365101
-0.00363538
-0.00361945
-0.00360323
-0.00358678
-0.00357015
-0.00355335
-0.00353643
-0.00351939
-0.00350228
-0.00348511
-0.00346789
-0.00345064
-0.00343338
-0.00341611
-0.00339886
-0.00338163
-0.00336444
-0.00334731
-0.00333024
-0.00331326
-0.0032964
-0.00327968
-0.00326313
-0.00324679
-0.00323067
-0.003215
-0.00319947
-0.00318386
-0.0031684
-0.00315288
-0.00313716
-0.00312129
-0.00310525
-0.00308947
-0.00307372
-0.00305781
-0.00304179
-0.00302553
-0.00300894
-0.00299201
-0.00297447
-0.00295633
-0.00293751
-0.00291787
-0.00289748
-0.00287609
-0.00285396
-0.00283086
-0.00280696
-0.00278235
-0.00275681
-0.00273096
-0.00270425
-0.00267727
-0.00264992
-0.00262228
-0.00259467
-0.00256692
-0.00253946
-0.00251208
-0.00248508
-0.00245838
-0.00243206
-0.00240619
-0.00238067
-0.00235561
-0.00233096
-0.00230671
-0.00228289
-0.0022595
-0.00223658
-0.00221417
-0.00219232
-0.00217106
-0.00215045
-0.00213052
-0.00211131
-0.00209283
-0.00207508
-0.00205806
-0.00204176
-0.00202613
-0.00201114
-0.00199675
-0.0019829
-0.00196954
-0.00195664
-0.00194412
-0.00193195
-0.00192005
-0.0019084
-0.00189692
-0.00188559
-0.00187431
-0.00186306
-0.00185177
-0.00184038
-0.00182886
-0.00181714
-0.00180522
-0.00179306
-0.00178066
-0.00176802
-0.00175516
-0.0017421
-0.00172889
-0.00171551
-0.00170207
-0.00168854
-0.00167496
-0.00166136
-0.00164773
-0.00163405
-0.00162032
-0.00160649
-0.00159252
-0.00157839
-0.00156401
-0.00154935
-0.00153434
-0.00151894
-0.00150308
-0.00148675
-0.00146987
-0.00145241
-0.0014344
-0.00141573
-0.00139639
-0.00137646
-0.00135573
-0.00133438
-0.00131225
-0.00128942
-0.0012659
-0.00124167
-0.00121674
-0.00119127
-0.00116505
-0.00113859
-0.00111153
-0.00108427
-0.00105693
-0.00102942
-0.00100231
-0.000975246
-0.000948884
-0.000922905
-0.000897837
-0.000873435
-0.000849992
-0.00082725
-0.00080576
-0.000783633
-0.00076239
-0.000740829
-0.000718933
-0.000696582
-0.000673947
-0.000650869
-0.000628004
-0.000605441
-0.000583378
-0.000562016
-0.000541368
-0.000521352
-0.000501857
-0.000482763
-0.000463946
-0.000445291
-0.000426697
-0.000408078
-0.000389368
-0.000370519
-0.00035151
-0.000332341
-0.000313026
-0.000293598
-0.0002741
-0.000254581
-0.000235088
-0.000215665
-0.000196346
-0.000177155
-0.000158105
-0.000139198
-0.000120426
-0.000101772
-8.32173e-05
-6.47372e-05
-4.63137e-05
-2.79439e-05
-9.54951e-06
-0.00376015
-0.00374033
-0.00372335
-0.00370944
-0.00369533
-0.00368057
-0.00366552
-0.00365017
-0.0036346
-0.00361882
-0.00360274
-0.00358644
-0.00356998
-0.00355336
-0.00353657
-0.00351967
-0.00350268
-0.00348562
-0.00346849
-0.00345132
-0.00343412
-0.0034169
-0.00339969
-0.00338248
-0.0033653
-0.00334816
-0.00333107
-0.00331405
-0.00329712
-0.00328029
-0.0032636
-0.00324706
-0.00323068
-0.00321465
-0.00319864
-0.00318246
-0.00316644
-0.00315044
-0.00313432
-0.0031182
-0.00310207
-0.00308628
-0.00307049
-0.00305449
-0.00303835
-0.00302194
-0.00300516
-0.00298802
-0.00297029
-0.00295191
-0.00293295
-0.00291324
-0.0028928
-0.0028715
-0.00284955
-0.0028268
-0.00280339
-0.00277941
-0.00275469
-0.00272974
-0.00270411
-0.00267826
-0.00265209
-0.00262563
-0.00259917
-0.0025725
-0.00254602
-0.00251952
-0.0024933
-0.00246728
-0.00244152
-0.00241616
-0.00239105
-0.00236633
-0.00234197
-0.00231793
-0.00229427
-0.00227099
-0.00224809
-0.00222563
-0.00220366
-0.0021822
-0.00216132
-0.00214105
-0.00212145
-0.00210254
-0.00208434
-0.00206684
-0.00205006
-0.00203395
-0.00201847
-0.00200361
-0.00198929
-0.00197546
-0.00196208
-0.00194907
-0.00193639
-0.00192397
-0.00191177
-0.0018997
-0.00188776
-0.00187583
-0.00186391
-0.00185193
-0.00183983
-0.00182761
-0.0018152
-0.0018026
-0.0017898
-0.00177681
-0.00176364
-0.00175032
-0.00173686
-0.00172333
-0.0017097
-0.00169607
-0.0016824
-0.00166872
-0.00165505
-0.00164135
-0.0016276
-0.00161379
-0.00159986
-0.00158575
-0.00157144
-0.00155686
-0.00154196
-0.00152669
-0.00151101
-0.00149487
-0.00147826
-0.0014611
-0.00144337
-0.00142514
-0.00140627
-0.00138679
-0.00136674
-0.00134598
-0.00132464
-0.00130264
-0.00128003
-0.0012568
-0.00123298
-0.00120859
-0.00118377
-0.00115835
-0.00113276
-0.0011067
-0.00108048
-0.00105422
-0.00102777
-0.00100171
-0.000975565
-0.000950065
-0.000924791
-0.000900354
-0.000876438
-0.000853424
-0.000830948
-0.000809719
-0.000787434
-0.000765939
-0.000743919
-0.000721332
-0.000698129
-0.000674703
-0.000650956
-0.000627711
-0.000604916
-0.00058269
-0.000561241
-0.000540557
-0.000520531
-0.000501039
-0.000481954
-0.000463151
-0.00044451
-0.000425929
-0.000407322
-0.000388622
-0.000369783
-0.000350784
-0.000331623
-0.000312316
-0.000292898
-0.000273412
-0.00025391
-0.000234435
-0.000215036
-0.000195746
-0.00017659
-0.000157579
-0.000138716
-0.000119992
-0.000101392
-8.28949e-05
-6.44787e-05
-4.61249e-05
-2.78231e-05
-9.54908e-06
-0.00376255
-0.00374246
-0.00372467
-0.00370995
-0.00369532
-0.00368018
-0.00366487
-0.00364949
-0.00363398
-0.00361827
-0.00360224
-0.00358604
-0.00356977
-0.0035533
-0.00353666
-0.00351989
-0.00350304
-0.00348609
-0.00346907
-0.00345199
-0.00343486
-0.00341771
-0.00340054
-0.00338337
-0.00336621
-0.00334907
-0.00333196
-0.00331489
-0.00329789
-0.00328096
-0.00326412
-0.00324739
-0.00323075
-0.00321438
-0.00319795
-0.00318133
-0.00316488
-0.00314852
-0.00313213
-0.00311582
-0.00309961
-0.00308374
-0.00306783
-0.00305168
-0.00303533
-0.00301868
-0.00300164
-0.00298419
-0.00296617
-0.00294752
-0.00292834
-0.00290841
-0.00288782
-0.00286651
-0.00284462
-0.00282209
-0.00279901
-0.0027755
-0.00275145
-0.00272722
-0.00270252
-0.00267768
-0.00265261
-0.0026273
-0.00260199
-0.00257647
-0.00255106
-0.00252557
-0.00250025
-0.00247504
-0.00244997
-0.00242521
-0.00240061
-0.00237631
-0.00235229
-0.00232852
-0.00230505
-0.0022819
-0.00225906
-0.00223659
-0.00221453
-0.00219291
-0.00217179
-0.00215122
-0.00213126
-0.00211194
-0.0020933
-0.00207533
-0.00205806
-0.00204147
-0.00202551
-0.00201017
-0.00199539
-0.00198109
-0.00196725
-0.00195376
-0.0019406
-0.00192766
-0.00191494
-0.0019023
-0.00188977
-0.00187723
-0.00186466
-0.00185202
-0.00183925
-0.00182636
-0.0018133
-0.00180009
-0.00178672
-0.00177321
-0.00175959
-0.00174589
-0.00173213
-0.00171835
-0.00170454
-0.00169077
-0.00167701
-0.00166326
-0.00164951
-0.00163572
-0.00162186
-0.00160791
-0.00159379
-0.00157947
-0.0015649
-0.00155002
-0.00153479
-0.00151918
-0.00150313
-0.00148663
-0.00146966
-0.00145212
-0.00143408
-0.00141558
-0.00139647
-0.00137678
-0.00135657
-0.00133574
-0.00131439
-0.00129247
-0.00127003
-0.00124705
-0.0012236
-0.00119969
-0.00117544
-0.00115077
-0.00112597
-0.00110084
-0.00107562
-0.0010504
-0.00102503
-0.00100001
-0.000974873
-0.000950287
-0.000925813
-0.000902052
-0.000878659
-0.000856054
-0.000833723
-0.000812618
-0.000790046
-0.000768274
-0.000745892
-0.000722774
-0.000698962
-0.000675046
-0.000650956
-0.000627582
-0.000604734
-0.000582465
-0.000560994
-0.000540298
-0.000520252
-0.000500726
-0.000481596
-0.000462739
-0.00044404
-0.000425399
-0.000406735
-0.000387985
-0.000369107
-0.000350081
-0.000330906
-0.0003116
-0.000292194
-0.000272734
-0.00025327
-0.000233833
-0.000214481
-0.000195241
-0.000176135
-0.000157173
-0.000138357
-0.000119677
-0.00010112
-8.26659e-05
-6.42937e-05
-4.59869e-05
-2.7727e-05
-9.54935e-06
-0.00376404
-0.00374392
-0.00372571
-0.00371049
-0.00369549
-0.00368008
-0.00366458
-0.0036491
-0.00363352
-0.00361779
-0.00360188
-0.00358583
-0.00356965
-0.0035533
-0.00353676
-0.00352012
-0.00350341
-0.00348658
-0.00346966
-0.00345268
-0.00343563
-0.00341855
-0.00340144
-0.00338431
-0.00336717
-0.00335003
-0.00333291
-0.00331581
-0.00329874
-0.00328172
-0.00326475
-0.00324784
-0.00323099
-0.0032143
-0.00319754
-0.0031806
-0.00316382
-0.00314717
-0.00313057
-0.00311411
-0.00309779
-0.00308177
-0.00306567
-0.00304931
-0.00303269
-0.00301573
-0.00299836
-0.00298056
-0.00296216
-0.00294328
-0.00292377
-0.00290354
-0.00288277
-0.00286139
-0.00283948
-0.00281706
-0.0027942
-0.00277103
-0.00274748
-0.00272379
-0.00269983
-0.00267582
-0.00265167
-0.00262736
-0.00260308
-0.00257865
-0.00255428
-0.00252983
-0.00250547
-0.00248116
-0.0024569
-0.00243284
-0.00240885
-0.00238508
-0.00236151
-0.0023381
-0.00231491
-0.00229197
-0.00226927
-0.00224685
-0.00222477
-0.00220306
-0.00218178
-0.00216098
-0.00214071
-0.00212103
-0.00210199
-0.00208358
-0.00206586
-0.00204879
-0.00203236
-0.00201654
-0.00200129
-0.00198652
-0.00197222
-0.00195826
-0.00194463
-0.0019312
-0.00191797
-0.0019048
-0.0018917
-0.00187857
-0.00186539
-0.00185213
-0.00183874
-0.00182525
-0.0018116
-0.00179786
-0.00178401
-0.00177008
-0.0017561
-0.00174211
-0.00172812
-0.00171417
-0.00170024
-0.00168637
-0.00167251
-0.00165866
-0.0016448
-0.00163087
-0.00161683
-0.00160265
-0.00158826
-0.00157362
-0.00155869
-0.00154343
-0.00152779
-0.00151175
-0.00149527
-0.00147834
-0.00146095
-0.00144302
-0.00142466
-0.00140581
-0.00138641
-0.00136651
-0.00134612
-0.00132521
-0.00130383
-0.00128197
-0.00125963
-0.00123692
-0.0012138
-0.00119032
-0.00116658
-0.00114257
-0.00111846
-0.00109416
-0.00106981
-0.00104552
-0.00102116
-0.000997104
-0.000972963
-0.000949267
-0.000925635
-0.00090257
-0.000879743
-0.00085755
-0.000835362
-0.000814289
-0.000791489
-0.000769432
-0.000746791
-0.000723354
-0.000699227
-0.000675141
-0.000651032
-0.000627746
-0.000605003
-0.000582802
-0.000561364
-0.000540665
-0.000520573
-0.000500962
-0.000481718
-0.000462727
-0.000443886
-0.000425104
-0.000406308
-0.000387444
-0.000368475
-0.000349386
-0.000330177
-0.000310864
-0.000291479
-0.000272058
-0.000252654
-0.000233287
-0.000214008
-0.00019484
-0.000175802
-0.0001569
-0.000138134
-0.000119495
-0.00010097
-8.25409e-05
-6.419e-05
-4.59041e-05
-2.76583e-05
-9.54315e-06
-0.00376497
-0.00374494
-0.0037265
-0.00371095
-0.00369574
-0.00368016
-0.00366453
-0.00364895
-0.00363333
-0.0036176
-0.00360175
-0.00358577
-0.00356965
-0.00355339
-0.00353699
-0.00352047
-0.00350386
-0.00348711
-0.00347028
-0.0034534
-0.00343644
-0.00341942
-0.00340237
-0.00338528
-0.00336817
-0.00335105
-0.00333392
-0.0033168
-0.00329968
-0.00328259
-0.00326551
-0.00324845
-0.00323142
-0.00321448
-0.00319746
-0.00318029
-0.00316325
-0.00314637
-0.00312957
-0.00311294
-0.00309647
-0.00308025
-0.0030639
-0.00304727
-0.00303034
-0.00301304
-0.0029953
-0.00297712
-0.00295836
-0.00293916
-0.00291928
-0.0028988
-0.00287783
-0.00285633
-0.00283437
-0.002812
-0.00278931
-0.00276638
-0.00274322
-0.00271992
-0.00269652
-0.00267317
-0.00264975
-0.00262624
-0.00260281
-0.00257933
-0.00255588
-0.00253238
-0.00250894
-0.00248554
-0.00246212
-0.00243882
-0.00241553
-0.00239239
-0.00236937
-0.00234643
-0.00232363
-0.00230099
-0.00227854
-0.00225629
-0.0022343
-0.0022126
-0.00219125
-0.00217031
-0.00214983
-0.00212987
-0.0021105
-0.00209171
-0.00207357
-0.00205606
-0.00203917
-0.00202288
-0.00200717
-0.00199193
-0.00197717
-0.00196273
-0.00194864
-0.00193472
-0.00192099
-0.0019073
-0.00189367
-0.00187998
-0.00186624
-0.00185242
-0.00183847
-0.00182445
-0.00181032
-0.00179613
-0.00178189
-0.00176763
-0.0017534
-0.00173919
-0.00172504
-0.00171096
-0.00169691
-0.00168293
-0.00166895
-0.00165495
-0.0016409
-0.00162673
-0.00161242
-0.0015979
-0.00158313
-0.00156807
-0.0015527
-0.00153697
-0.00152085
-0.00150432
-0.00148736
-0.00146997
-0.00145212
-0.00143385
-0.00141512
-0.0013959
-0.00137623
-0.00135612
-0.00133558
-0.00131459
-0.00129319
-0.00127139
-0.00124922
-0.00122671
-0.0012039
-0.0011808
-0.00115752
-0.00113409
-0.00111059
-0.001087
-0.00106341
-0.00103989
-0.00101641
-0.000993209
-0.00096997
-0.000947075
-0.00092426
-0.000901863
-0.000879611
-0.000857836
-0.000835857
-0.000814775
-0.000791945
-0.000769666
-0.000746888
-0.000723361
-0.000699215
-0.000675237
-0.00065137
-0.000628325
-0.000605792
-0.000583736
-0.000562361
-0.000541648
-0.000521469
-0.000501711
-0.000482277
-0.000463072
-0.000444006
-0.000425003
-0.000406003
-0.000386963
-0.000367858
-0.000348673
-0.000329413
-0.000310092
-0.000290735
-0.000271375
-0.000252043
-0.00023278
-0.000213599
-0.000194527
-0.000175574
-0.000156744
-0.000138032
-0.000119431
-0.000100928
-8.25094e-05
-6.41602e-05
-4.58714e-05
-2.76154e-05
-9.52588e-06
-0.00376551
-0.00374561
-0.00372708
-0.00371132
-0.00369599
-0.00368033
-0.00366463
-0.003649
-0.00363337
-0.00361765
-0.00360184
-0.0035859
-0.00356985
-0.00355367
-0.00353736
-0.00352093
-0.00350439
-0.00348774
-0.003471
-0.00345419
-0.00343729
-0.00342034
-0.00340334
-0.0033863
-0.00336922
-0.00335212
-0.00333499
-0.00331786
-0.00330071
-0.00328355
-0.00326638
-0.00324922
-0.00323204
-0.0032149
-0.00319768
-0.00318034
-0.0031631
-0.003146
-0.00312902
-0.00311221
-0.00309555
-0.00307907
-0.00306244
-0.0030455
-0.00302823
-0.00301056
-0.00299245
-0.00297387
-0.00295476
-0.00293516
-0.00291497
-0.00289426
-0.00287308
-0.00285146
-0.00282945
-0.00280712
-0.00278455
-0.0027618
-0.00273893
-0.00271599
-0.00269308
-0.00267021
-0.00264733
-0.00262443
-0.00260169
-0.002579
-0.0025563
-0.00253361
-0.00251099
-0.00248842
-0.00246582
-0.00244325
-0.00242068
-0.00239823
-0.00237583
-0.00235345
-0.00233113
-0.0023089
-0.0022868
-0.00226485
-0.00224308
-0.00222151
-0.00220021
-0.00217925
-0.00215867
-0.00213855
-0.00211894
-0.00209984
-0.00208135
-0.00206345
-0.00204613
-0.0020294
-0.00201322
-0.00199751
-0.00198228
-0.00196737
-0.0019528
-0.0019384
-0.00192418
-0.00190998
-0.00189585
-0.00188165
-0.00186741
-0.00185308
-0.00183866
-0.0018242
-0.00180967
-0.00179513
-0.0017806
-0.00176611
-0.00175167
-0.00173731
-0.00172302
-0.0017088
-0.00169461
-0.00168046
-0.00166628
-0.00165203
-0.00163768
-0.00162317
-0.00160846
-0.0015935
-0.00157824
-0.00156268
-0.00154679
-0.00153052
-0.00151387
-0.00149682
-0.00147937
-0.0014615
-0.00144323
-0.00142459
-0.00140549
-0.00138596
-0.00136606
-0.00134578
-0.00132511
-0.00130408
-0.00128269
-0.00126098
-0.00123896
-0.00121668
-0.00119416
-0.00117144
-0.00114858
-0.00112564
-0.00110267
-0.00107972
-0.00105674
-0.00103386
-0.00101116
-0.000988684
-0.000966214
-0.000944002
-0.000921938
-0.000900144
-0.000878434
-0.000857077
-0.000835401
-0.000814319
-0.000791681
-0.000769309
-0.000746552
-0.000723146
-0.000699231
-0.000675566
-0.000652111
-0.000629393
-0.00060712
-0.000585243
-0.000563932
-0.000543169
-0.000522848
-0.000502877
-0.000483181
-0.000463685
-0.000444319
-0.000425025
-0.00040576
-0.000386496
-0.000367215
-0.000347912
-0.000328591
-0.000309264
-0.000289949
-0.00027067
-0.000251435
-0.000232287
-0.000213225
-0.000194265
-0.000175416
-0.000156668
-0.000138014
-0.000119449
-0.000100962
-8.25428e-05
-6.41814e-05
-4.58727e-05
-2.75895e-05
-9.49316e-06
-0.00376577
-0.00374597
-0.00372744
-0.00371159
-0.00369623
-0.00368056
-0.00366484
-0.00364921
-0.00363359
-0.00361791
-0.00360213
-0.00358625
-0.00357025
-0.00355414
-0.0035379
-0.00352153
-0.00350506
-0.00348848
-0.00347181
-0.00345505
-0.00343822
-0.00342132
-0.00340437
-0.00338737
-0.00337032
-0.00335324
-0.00333612
-0.00331898
-0.00330181
-0.00328461
-0.00326737
-0.00325011
-0.00323282
-0.00321554
-0.00319816
-0.00318069
-0.00316328
-0.003146
-0.00312882
-0.00311181
-0.00309493
-0.00307817
-0.00306121
-0.00304395
-0.00302631
-0.00300825
-0.00298976
-0.00297079
-0.00295132
-0.00293136
-0.00291088
-0.00288994
-0.00286858
-0.00284686
-0.00282481
-0.00280253
-0.00278008
-0.00275751
-0.00273491
-0.00271227
-0.00268973
-0.00266723
-0.00264477
-0.00262241
-0.00260026
-0.00257819
-0.00255611
-0.00253408
-0.00251213
-0.00249027
-0.00246837
-0.00244642
-0.00242454
-0.00240277
-0.00238105
-0.00235928
-0.0023375
-0.00231575
-0.00229408
-0.00227255
-0.00225112
-0.00222983
-0.00220871
-0.00218784
-0.00216729
-0.00214712
-0.00212738
-0.00210809
-0.00208933
-0.00207111
-0.00205342
-0.00203627
-0.00201965
-0.00200348
-0.00198777
-0.00197238
-0.00195733
-0.00194244
-0.00192774
-0.00191307
-0.00189846
-0.00188379
-0.0018691
-0.00185435
-0.00183954
-0.00182473
-0.00180989
-0.00179509
-0.00178035
-0.00176566
-0.00175105
-0.00173652
-0.00172207
-0.00170767
-0.00169328
-0.00167887
-0.00166437
-0.00164974
-0.00163495
-0.00161997
-0.00160475
-0.00158924
-0.00157341
-0.00155728
-0.00154082
-0.00152399
-0.00150678
-0.00148921
-0.00147127
-0.00145297
-0.0014343
-0.00141528
-0.00139587
-0.00137611
-0.00135602
-0.00133561
-0.00131487
-0.00129383
-0.00127249
-0.0012509
-0.00122906
-0.00120701
-0.00118478
-0.00116242
-0.00113996
-0.00111747
-0.00109497
-0.00107251
-0.0010501
-0.00102785
-0.00100579
-0.000983902
-0.000962021
-0.000940383
-0.000918997
-0.000897721
-0.000876502
-0.000855565
-0.000834282
-0.000813251
-0.000790976
-0.000768662
-0.000746108
-0.000722967
-0.000699487
-0.000676266
-0.000653301
-0.000630933
-0.000608924
-0.000587231
-0.000565965
-0.000545103
-0.000524572
-0.000504319
-0.000484298
-0.00046445
-0.000444726
-0.000425086
-0.000405511
-0.000385987
-0.000366506
-0.000347067
-0.000327678
-0.000308347
-0.000289089
-0.000269917
-0.00025082
-0.000231803
-0.000212868
-0.000194023
-0.000175278
-0.000156616
-0.000138023
-0.000119493
-0.00010102
-8.25964e-05
-6.42166e-05
-4.58802e-05
-2.75643e-05
-9.43978e-06
-0.0037658
-0.00374606
-0.00372758
-0.00371177
-0.00369645
-0.00368082
-0.00366515
-0.00364957
-0.00363399
-0.00361835
-0.00360263
-0.0035868
-0.00357085
-0.00355479
-0.0035386
-0.00352229
-0.00350587
-0.00348935
-0.00347273
-0.00345602
-0.00343923
-0.00342238
-0.00340547
-0.0033885
-0.00337148
-0.00335442
-0.00333731
-0.00332017
-0.00330298
-0.00328576
-0.00326847
-0.00325112
-0.00323375
-0.00321635
-0.00319886
-0.00318128
-0.00316373
-0.00314627
-0.0031289
-0.00311167
-0.00309454
-0.00307746
-0.00306017
-0.00304255
-0.00302453
-0.00300609
-0.00298721
-0.00296786
-0.00294804
-0.00292775
-0.00290702
-0.00288587
-0.00286437
-0.00284258
-0.00282053
-0.00279833
-0.00277601
-0.00275362
-0.00273127
-0.00270891
-0.0026867
-0.00266455
-0.00264251
-0.0026206
-0.00259886
-0.00257723
-0.00255566
-0.00253416
-0.00251276
-0.00249152
-0.00247028
-0.00244893
-0.00242762
-0.00240644
-0.00238534
-0.00236417
-0.00234291
-0.00232168
-0.00230056
-0.00227948
-0.00225846
-0.00223757
-0.00221677
-0.00219612
-0.00217569
-0.00215559
-0.00213586
-0.00211649
-0.00209756
-0.00207911
-0.00206112
-0.0020436
-0.00202658
-0.00200997
-0.0019938
-0.00197793
-0.0019624
-0.00194703
-0.00193186
-0.00191673
-0.00190168
-0.0018866
-0.00187152
-0.00185641
-0.00184128
-0.00182618
-0.00181111
-0.0017961
-0.00178118
-0.00176633
-0.00175153
-0.00173676
-0.00172205
-0.00170734
-0.00169259
-0.00167778
-0.00166288
-0.00164779
-0.00163246
-0.00161688
-0.00160103
-0.0015849
-0.00156846
-0.00155172
-0.00153466
-0.00151726
-0.00149953
-0.00148147
-0.00146308
-0.00144437
-0.00142535
-0.00140601
-0.00138637
-0.00136643
-0.00134621
-0.00132572
-0.00130496
-0.00128395
-0.00126272
-0.00124127
-0.00121963
-0.00119783
-0.00117591
-0.00115389
-0.00113182
-0.00110974
-0.00108767
-0.00106569
-0.0010438
-0.00102204
-0.00100049
-0.000979023
-0.000957684
-0.000936643
-0.000915845
-0.000894986
-0.000874188
-0.000853624
-0.000832776
-0.000811854
-0.000790054
-0.000767988
-0.000745686
-0.000722974
-0.000700057
-0.00067734
-0.000654876
-0.000632812
-0.000611014
-0.000589516
-0.000568313
-0.000547305
-0.000526481
-0.000505872
-0.000485473
-0.000465234
-0.000445116
-0.000425099
-0.000405187
-0.000385393
-0.000365713
-0.000346148
-0.000326702
-0.000307378
-0.000288172
-0.000269078
-0.000250095
-0.000231228
-0.000212462
-0.000193769
-0.000175126
-0.00015653
-0.000137991
-0.000119497
-0.000101039
-8.26136e-05
-6.42198e-05
-4.58599e-05
-2.75182e-05
-9.36122e-06
-0.00376559
-0.00374587
-0.0037275
-0.00371185
-0.00369665
-0.00368112
-0.00366555
-0.00365006
-0.00363456
-0.003619
-0.00360333
-0.00358755
-0.00357165
-0.00355563
-0.00353949
-0.00352321
-0.00350683
-0.00349034
-0.00347376
-0.00345709
-0.00344034
-0.00342352
-0.00340664
-0.0033897
-0.0033727
-0.00335566
-0.00333856
-0.00332142
-0.00330422
-0.00328697
-0.00326965
-0.00325227
-0.00323483
-0.00321731
-0.00319971
-0.00318205
-0.00316438
-0.00314676
-0.00312919
-0.00311172
-0.00309432
-0.00307689
-0.00305927
-0.00304128
-0.00302287
-0.00300403
-0.00298477
-0.00296506
-0.00294492
-0.00292435
-0.00290338
-0.00288208
-0.00286048
-0.00283867
-0.00281667
-0.00279457
-0.00277242
-0.00275023
-0.00272813
-0.00270604
-0.00268413
-0.0026623
-0.00264062
-0.00261908
-0.00259769
-0.00257647
-0.00255535
-0.00253434
-0.00251339
-0.00249255
-0.00247177
-0.00245098
-0.00243023
-0.0024096
-0.00238905
-0.0023684
-0.00234767
-0.00232699
-0.0023064
-0.0022858
-0.00226524
-0.00224477
-0.00222438
-0.00220404
-0.00218382
-0.00216391
-0.00214429
-0.00212495
-0.00210597
-0.00208739
-0.0020692
-0.00205138
-0.00203399
-0.00201699
-0.00200039
-0.00198408
-0.00196808
-0.00195226
-0.00193663
-0.00192107
-0.00190562
-0.00189017
-0.00187477
-0.00185936
-0.00184395
-0.00182859
-0.00181328
-0.00179805
-0.00178288
-0.00176779
-0.00175283
-0.00173783
-0.0017227
-0.00170754
-0.00169233
-0.00167699
-0.00166147
-0.00164576
-0.00162982
-0.00161361
-0.00159709
-0.0015803
-0.00156324
-0.0015459
-0.00152826
-0.00151033
-0.0014921
-0.0014736
-0.00145482
-0.00143577
-0.00141645
-0.00139688
-0.00137707
-0.001357
-0.00133671
-0.0013162
-0.00129547
-0.00127455
-0.00125345
-0.00123218
-0.00121078
-0.00118924
-0.00116764
-0.00114596
-0.00112426
-0.00110257
-0.00108092
-0.00105936
-0.00103792
-0.0010166
-0.000995488
-0.000974461
-0.000953647
-0.000933012
-0.000912584
-0.00089212
-0.000871742
-0.000851519
-0.000831198
-0.000810512
-0.000789204
-0.000767482
-0.000745441
-0.000723256
-0.000700914
-0.00067869
-0.000656713
-0.000634965
-0.000613345
-0.0005919
-0.000570616
-0.00054943
-0.000528337
-0.000507361
-0.00048655
-0.000465902
-0.000445379
-0.000424975
-0.000404724
-0.000384668
-0.000364801
-0.000345122
-0.000325633
-0.000306325
-0.000287182
-0.000268188
-0.00024933
-0.000230592
-0.000211949
-0.000193371
-0.000174836
-0.000156334
-0.000137861
-0.000119407
-0.000100969
-8.25501e-05
-6.4153e-05