/*--------------------------------*- C++ -*----------------------------------*\
| =========                 |                                                 |
| \\      /  F ield         | OpenFOAM: The Open Source CFD Toolbox           |
|  \\    /   O peration     | Version:  2506                                  |
|   \\  /    A nd           | Website:  www.openfoam.com                      |
|    \\/     M anipulation  |                                                 |
\*---------------------------------------------------------------------------*/
FoamFile
{
    version     2.0;
    format      ascii;
    arch        "LSB;label=32;scalar=64";
    class       surfaceScalarField;
    location    "1.3";
    object      phi;
}
// * * * * * * * * * * * * * * * * * * * * * * * * * * * * * * * * * * * * * //

dimensions      [0 3 -1 0 0 0 0];

oriented        oriented;

internalField   nonuniform List<scalar> 
7780
(
1.32955e-09
3.70569e-10
9.09453e-10
4.20087e-10
6.06879e-10
3.02647e-10
3.97759e-10
2.0917e-10
2.51977e-10
1.45782e-10
1.47953e-10
1.04021e-10
7.13201e-11
7.66301e-11
1.30209e-11
5.82962e-11
-3.24096e-11
4.5428e-11
-6.84311e-11
3.60197e-11
-9.73644e-11
2.89317e-11
-1.2081e-10
2.34437e-11
-1.39968e-10
1.91564e-11
-1.55783e-10
1.58143e-11
-1.69013e-10
1.32283e-11
-1.80253e-10
1.12385e-11
-1.89988e-10
9.73275e-12
-1.98614e-10
8.62447e-12
-2.06452e-10
7.8368e-12
-2.13762e-10
7.30805e-12
-2.20734e-10
6.97056e-12
-2.27504e-10
6.76853e-12
-2.34163e-10
6.65766e-12
-2.40764e-10
6.59937e-12
-2.47321e-10
6.5547e-12
-2.53807e-10
6.48328e-12
-2.60153e-10
6.34339e-12
-2.66245e-10
6.08756e-12
-2.71894e-10
5.64498e-12
-2.76794e-10
4.89353e-12
-2.80404e-10
3.60145e-12
-2.81565e-10
1.1501e-12
-2.78906e-10
-2.67254e-12
-2.68916e-10
-1.00062e-11
-2.53159e-10
-1.57695e-11
-2.36158e-10
-1.7e-11
-2.15938e-10
-2.0203e-11
-1.913e-10
-2.46084e-11
-1.62821e-10
-2.84488e-11
-1.31475e-10
-3.13341e-11
-9.46954e-11
-3.68077e-11
-5.34066e-11
-4.13628e-11
-1.31901e-11
-4.03266e-11
2.41337e-11
-3.74578e-11
5.67372e-11
-3.27509e-11
8.46465e-11
-2.8063e-11
1.0896e-10
-2.44675e-11
1.27222e-10
-1.84052e-11
1.41838e-10
-1.47442e-11
1.51679e-10
-9.94788e-12
1.56185e-10
-4.5822e-12
1.57164e-10
-1.02837e-12
1.51119e-10
6.02079e-12
1.41389e-10
9.72471e-12
1.24778e-10
1.66178e-11
1.03295e-10
2.14926e-11
7.6333e-11
2.69713e-11
4.35487e-11
3.27919e-11
8.62922e-12
3.49305e-11
-3.14494e-11
4.01015e-11
-7.08927e-11
3.94831e-11
-1.10343e-10
3.95079e-11
-1.4801e-10
3.77346e-11
-1.82781e-10
3.48376e-11
-2.14753e-10
3.20258e-11
-2.43407e-10
2.86878e-11
-2.69064e-10
2.56569e-11
-2.92249e-10
2.31505e-11
-3.12939e-10
2.06178e-11
-3.3207e-10
1.902e-11
-3.50052e-10
1.78363e-11
-3.66118e-10
1.58944e-11
-3.81552e-10
1.52442e-11
-3.9567e-10
1.39129e-11
-4.08285e-10
1.24034e-11
-4.19988e-10
1.14948e-11
-4.30342e-10
1.01495e-11
-4.3904e-10
8.50263e-12
-4.46659e-10
7.43765e-12
-4.53155e-10
6.33277e-12
-4.58488e-10
5.18942e-12
-4.63055e-10
4.44628e-12
-4.67026e-10
3.87149e-12
-4.70622e-10
3.51878e-12
-4.744e-10
3.71939e-12
-4.78152e-10
3.70614e-12
-4.81883e-10
3.69561e-12
-4.86638e-10
4.72539e-12
-4.91564e-10
4.90089e-12
-4.96315e-10
4.72778e-12
-5.02341e-10
6.00528e-12
-5.08085e-10
5.7258e-12
-5.13355e-10
5.2533e-12
-5.19641e-10
6.27127e-12
-5.23872e-10
4.21757e-12
-5.29389e-10
5.5046e-12
-5.32284e-10
2.88264e-12
-5.36004e-10
3.70967e-12
-5.36262e-10
2.46743e-13
-5.37487e-10
1.2144e-12
-5.34936e-10
-2.56047e-12
-5.32115e-10
-2.83072e-12
-5.27437e-10
-4.68737e-12
-5.19793e-10
-7.65229e-12
-5.1103e-10
-8.76837e-12
-4.98175e-10
-1.2859e-11
-4.84456e-10
-1.37195e-11
-4.67243e-10
-1.72093e-11
-4.47992e-10
-1.9245e-11
-4.26038e-10
-2.19452e-11
-4.01645e-10
-2.43831e-11
-3.74639e-10
-2.69952e-11
-3.45826e-10
-2.8803e-11
-3.14824e-10
-3.09945e-11
-2.82919e-10
-3.19013e-11
-2.49723e-10
-3.31967e-11
-2.16139e-10
-3.35914e-11
-1.82621e-10
-3.35326e-11
-1.49795e-10
-3.28513e-11
-1.1819e-10
-3.16459e-11
-8.81168e-11
-3.0133e-11
-6.01207e-11
-2.80779e-11
-3.45559e-11
-2.56715e-11
-1.13532e-11
-2.33348e-11
9.04582e-12
-2.05554e-11
2.65314e-11
-1.76642e-11
4.13482e-11
-1.50154e-11
5.36843e-11
-1.25514e-11
6.37759e-11
-1.0321e-11
7.21612e-11
-8.62747e-12
7.82789e-11
-6.37176e-12
8.29208e-11
-4.90831e-12
8.69333e-11
-4.29044e-12
8.91335e-11
-2.48591e-12
9.05081e-11
-1.66338e-12
9.20966e-11
-1.87561e-12
9.12027e-11
6.20287e-13
9.0555e-11
3.99961e-13
8.79097e-11
2.43452e-12
8.37206e-11
4.02629e-12
7.72425e-11
6.37332e-12
6.77604e-11
9.44193e-12
5.42838e-11
1.35004e-11
3.71403e-11
1.72214e-11
1.44539e-11
2.27975e-11
-1.14456e-11
2.6023e-11
-4.361e-11
3.22737e-11
-7.84629e-11
3.49354e-11
-1.15943e-10
3.75305e-11
-1.5478e-10
3.88613e-11
-1.93028e-10
3.82553e-11
-2.30165e-10
3.71356e-11
-2.64961e-10
3.47886e-11
-2.96252e-10
3.12767e-11
-3.24919e-10
2.86423e-11
-3.49242e-10
2.42826e-11
-3.71132e-10
2.18327e-11
-3.87748e-10
1.65388e-11
-3.97276e-10
9.4378e-12
-3.93549e-10
-3.81489e-12
-4.1651e-10
2.2905e-11
-4.3452e-10
1.79706e-11
-4.44727e-10
1.01805e-11
-4.46444e-10
1.7008e-12
-4.45539e-10
-9.16862e-13
-4.39804e-10
-5.74562e-12
-4.32871e-10
-6.94529e-12
-4.12313e-10
-2.05698e-11
-3.81959e-10
-3.03658e-11
-3.49478e-10
-3.24922e-11
-3.19268e-10
-3.022e-11
-2.93796e-10
-2.54816e-11
-2.73983e-10
-1.98206e-11
-2.59799e-10
-1.41902e-11
-2.50729e-10
-9.07514e-12
-2.46109e-10
-4.62341e-12
-2.44895e-10
-1.218e-12
-2.45868e-10
9.70655e-13
-2.48174e-10
2.30463e-12
-2.50957e-10
2.78251e-12
-2.5366e-10
2.7023e-12
-2.55771e-10
2.11035e-12
-2.56984e-10
1.21281e-12
-2.57201e-10
2.17011e-13
-2.56507e-10
-6.93764e-13
-2.55063e-10
-1.44343e-12
-2.53141e-10
-1.92182e-12
-2.51151e-10
-1.9896e-12
-2.49477e-10
-1.67405e-12
-2.48493e-10
-9.84183e-13
-2.48359e-10
-1.33206e-13
-2.4932e-10
9.6072e-13
-2.51295e-10
1.9745e-12
-2.54393e-10
3.09809e-12
-2.5858e-10
4.18729e-12
-2.6377e-10
5.18961e-12
-2.69875e-10
6.10621e-12
-2.7688e-10
7.00575e-12
-2.85149e-10
8.26943e-12
1.07434e-11
1.80496e-09
2.65615e-10
1.72738e-09
4.97672e-10
1.54052e-09
4.89497e-10
1.32455e-09
4.2514e-10
1.11902e-09
3.51288e-10
9.40237e-10
2.82785e-10
7.90235e-10
2.26624e-10
6.6619e-10
1.82338e-10
5.64132e-10
1.47483e-10
4.8004e-10
1.20109e-10
4.10535e-10
9.84356e-11
3.52887e-10
8.10901e-11
3.04808e-10
6.72345e-11
2.64363e-10
5.62579e-11
2.29949e-10
4.76411e-11
2.00225e-10
4.096e-11
1.74065e-10
3.58913e-11
1.50526e-10
3.21619e-11
1.2883e-10
2.95312e-11
1.08341e-10
2.77949e-11
8.85446e-11
2.67655e-11
6.90346e-11
2.62768e-11
4.95021e-11
2.61883e-11
2.97196e-11
2.63797e-11
9.53003e-12
2.6742e-11
-1.11625e-11
2.71732e-11
-3.23944e-11
2.75722e-11
-5.41373e-11
2.78267e-11
-7.62857e-11
2.77887e-11
-9.86358e-11
2.72375e-11
-1.20868e-10
2.58264e-11
-1.42732e-10
2.30041e-11
-1.63391e-10
1.79752e-11
-1.83099e-10
9.68961e-12
-1.89188e-10
-9.69227e-12
-1.70215e-10
-3.59827e-11
-1.30597e-10
-5.98242e-11
-7.58003e-11
-7.93978e-11
-8.69939e-12
-9.55305e-11
6.9782e-11
-1.09788e-10
1.62038e-10
-1.29035e-10
2.57114e-10
-1.36415e-10
3.45901e-10
-1.29099e-10
4.26528e-10
-1.18079e-10
4.97049e-10
-1.0327e-10
5.58337e-10
-8.93511e-11
6.11507e-10
-7.76385e-11
6.54159e-10
-6.10593e-11
6.88977e-10
-4.95679e-11
7.14881e-10
-3.58628e-11
7.31211e-10
-2.09191e-11
7.3893e-10
-8.75471e-12
7.3451e-10
1.0434e-11
7.20592e-10
2.36416e-11
6.92829e-10
4.43844e-11
6.53943e-10
6.03886e-11
6.02544e-10
7.83832e-11
5.38222e-10
9.71259e-11
4.66086e-10
1.07072e-10
3.81194e-10
1.24996e-10
2.92833e-10
1.27846e-10
2.00195e-10
1.32157e-10
1.0686e-10
1.31092e-10
1.63039e-11
1.25432e-10
-7.14245e-11
1.19806e-10
-1.52684e-10
1.10001e-10
-2.29067e-10
1.02086e-10
-2.98874e-10
9.2997e-11
-3.63338e-10
8.5107e-11
-4.21973e-10
7.76622e-11
-4.75231e-10
7.10861e-11
-5.23654e-10
6.4298e-11
-5.67452e-10
5.90075e-11
-6.0686e-10
5.32778e-11
-6.41899e-10
4.73981e-11
-6.72829e-10
4.23774e-11
-6.99725e-10
3.69958e-11
-7.22643e-10
3.13751e-11
-7.41898e-10
2.66531e-11
-7.57793e-10
2.21929e-11
-7.70594e-10
1.7964e-11
-7.80803e-10
1.46348e-11
-7.8892e-10
1.19749e-11
-7.95496e-10
1.00848e-11
-8.01137e-10
9.35317e-12
-8.06232e-10
8.79366e-12
-8.11135e-10
8.58974e-12
-8.16362e-10
9.94236e-12
-8.21875e-10
1.04022e-11
-8.27686e-10
1.05268e-11
-8.33959e-10
1.22666e-11
-8.40325e-10
1.20798e-11
-8.46387e-10
1.1305e-11
-8.52151e-10
1.20253e-11
-8.56727e-10
8.78441e-12
-8.60179e-10
8.94823e-12
-8.61652e-10
4.3476e-12
-8.61257e-10
3.30729e-12
-8.56794e-10
-4.22314e-12
-8.49245e-10
-6.34227e-12
-8.37284e-10
-1.45292e-11
-8.20985e-10
-1.91383e-11
-7.99208e-10
-2.64728e-11
-7.72339e-10
-3.45313e-11
-7.40257e-10
-4.08607e-11
-7.02394e-10
-5.07326e-11
-6.58594e-10
-5.75297e-11
-6.09145e-10
-6.66693e-11
-5.54115e-10
-7.4285e-11
-4.94059e-10
-8.20111e-11
-4.29462e-10
-8.89894e-11
-3.61199e-10
-9.52688e-11
-2.89819e-10
-1.00193e-10
-2.16783e-10
-1.04039e-10
-1.42368e-10
-1.06321e-10
-6.85768e-11
-1.0699e-10
3.85367e-12
-1.06022e-10
7.41322e-11
-1.03803e-10
1.40871e-10
-9.9574e-11
2.03526e-10
-9.42775e-11
2.61618e-10
-8.81975e-11
3.14242e-10
-8.06721e-11
3.6119e-10
-7.25918e-11
4.02621e-10
-6.47419e-11
4.38315e-10
-5.62321e-11
4.68693e-10
-4.80296e-11
4.94003e-10
-4.03168e-11
5.14497e-10
-3.30376e-11
5.31042e-10
-2.68587e-11
5.44409e-10
-2.19866e-11
5.54261e-10
-1.62135e-11
5.61964e-10
-1.26011e-11
5.68525e-10
-1.08459e-11
5.72616e-10
-6.57741e-12
5.75954e-10
-5.01199e-12
5.78913e-10
-4.85639e-12
5.79042e-10
4.54814e-13
5.78764e-10
6.23424e-13
5.75502e-10
5.62628e-12
5.68878e-10
1.05667e-11
5.5767e-10
1.74901e-11
5.40113e-10
2.69073e-11
5.14964e-10
3.85719e-11
4.81234e-10
5.08975e-11
4.35477e-10
6.85323e-11
3.81252e-10
8.02575e-11
3.1266e-10
1.00898e-10
2.35931e-10
1.11706e-10
1.50367e-10
1.23132e-10
5.78569e-11
1.31399e-10
-3.65275e-11
1.32655e-10
-1.33356e-10
1.33972e-10
-2.26773e-10
1.28209e-10
-3.17775e-10
1.22276e-10
-4.02562e-10
1.13424e-10
-4.81145e-10
1.02858e-10
-5.51438e-10
9.21109e-11
-6.12791e-10
7.78656e-11
-6.64839e-10
6.14585e-11
-7.04798e-10
3.61323e-11
-7.39843e-10
5.7951e-11
-7.62447e-10
4.05783e-11
-7.67588e-10
1.5327e-11
-7.52494e-10
-1.33876e-11
-7.17465e-10
-3.59421e-11
-6.62448e-10
-6.07616e-11
-5.89934e-10
-7.94637e-11
-5.05262e-10
-1.05248e-10
-4.18381e-10
-1.17254e-10
-3.36691e-10
-1.14191e-10
-2.64733e-10
-1.02188e-10
-2.04721e-10
-8.55022e-11
-1.57368e-10
-6.71819e-11
-1.22131e-10
-4.94341e-11
-9.74925e-11
-3.3719e-11
-8.13125e-11
-2.08073e-11
-7.14468e-11
-1.10864e-11
-6.58878e-11
-4.59013e-12
-6.25597e-11
-1.02435e-12
-5.98438e-11
6.62177e-14
-5.65787e-11
-5.62689e-13
-5.19491e-11
-2.51871e-12
-4.5574e-11
-5.16157e-12
-3.74805e-11
-7.87571e-12
-2.80189e-11
-1.01547e-11
-1.78298e-11
-1.16321e-11
-7.68338e-12
-1.20682e-11
1.67135e-12
-1.13445e-11
9.50435e-12
-9.50744e-12
1.52419e-11
-6.7223e-12
1.83886e-11
-3.28075e-12
1.87792e-11
5.69226e-13
1.62697e-11
4.48312e-12
1.111e-11
8.25712e-12
3.5999e-12
1.16968e-11
-5.88099e-12
1.46703e-11
-1.6933e-11
1.71586e-11
-2.921e-11
1.9284e-11
-4.24373e-11
2.14977e-11
2.49248e-11
1.80379e-09
1.61798e-10
1.91487e-09
3.86665e-10
1.93185e-09
4.72484e-10
1.87517e-09
4.81732e-10
1.77665e-09
4.49748e-10
1.65831e-09
4.01091e-10
1.53657e-09
3.48356e-10
1.42125e-09
2.97658e-10
1.31655e-09
2.52172e-10
1.22354e-09
2.13122e-10
1.14203e-09
1.79939e-10
1.07122e-09
1.51905e-10
1.00981e-09
1.2864e-10
9.56417e-10
1.09649e-10
9.0972e-10
9.43373e-11
8.68491e-10
8.21879e-11
8.31584e-10
7.27962e-11
7.97975e-10
6.57698e-11
7.66772e-10
6.07323e-11
7.37198e-10
5.73677e-11
7.08578e-10
5.53842e-11
6.8034e-10
5.45142e-11
6.52001e-10
5.4525e-11
6.23166e-10
5.52135e-11
5.93507e-10
5.63998e-11
5.62755e-10
5.79233e-11
5.30691e-10
5.96337e-11
4.97139e-10
6.13759e-11
4.61959e-10
6.29657e-11
4.25035e-10
6.41561e-11
3.86254e-10
6.46017e-11
3.45419e-10
6.38307e-11
3.02279e-10
6.11066e-11
2.53361e-10
5.85979e-11
2.18945e-10
2.47131e-11
2.21462e-10
-3.85128e-11
2.55049e-10
-9.34203e-11
3.11268e-10
-1.35613e-10
3.86768e-10
-1.71009e-10
4.79791e-10
-2.02767e-10
5.90945e-10
-2.40127e-10
7.04932e-10
-2.50335e-10
8.12805e-10
-2.36911e-10
9.1212e-10
-2.17343e-10
1.00058e-09
-1.91685e-10
1.07906e-09
-1.67786e-10
1.14854e-09
-1.4708e-10
1.20688e-09
-1.19365e-10
1.25638e-09
-9.90487e-11
1.29605e-09
-7.55246e-11
1.32536e-09
-5.02405e-11
1.3446e-09
-2.80085e-11
1.35077e-09
4.24275e-12
1.34576e-09
2.8625e-11
1.32559e-09
6.45316e-11
1.2917e-09
9.42545e-11
1.24242e-09
1.27657e-10
1.17656e-09
1.62983e-10
1.09799e-09
1.85646e-10
1.00121e-09
2.21762e-10
8.94811e-10
2.34223e-10
7.77704e-10
2.49235e-10
6.54063e-10
2.54704e-10
5.28092e-10
2.51388e-10
4.0032e-10
2.4758e-10
2.76711e-10
2.33628e-10
1.56422e-10
2.22407e-10
4.39744e-11
2.05484e-10
-6.17143e-11
1.90833e-10
-1.5928e-10
1.75256e-10
-2.48504e-10
1.60332e-10
-3.30684e-10
1.46492e-10
-4.04573e-10
1.32901e-10
-4.71189e-10
1.19898e-10
-5.30739e-10
1.06949e-10
-5.83018e-10
9.46511e-11
-6.2856e-10
8.25327e-11
-6.67733e-10
7.05462e-11
-7.00589e-10
5.95109e-11
-7.27627e-10
4.92368e-11
-7.49364e-10
3.97107e-11
-7.66285e-10
3.15674e-11
-7.79064e-10
2.47681e-11
-7.88415e-10
1.94502e-11
-7.95042e-10
1.59923e-11
-7.9978e-10
1.35403e-11
-8.0326e-10
1.20751e-11
-8.05893e-10
1.25756e-11
-8.08177e-10
1.26843e-11
-8.10338e-10
1.2684e-11
-8.12054e-10
1.39787e-11
-8.13528e-10
1.35505e-11
-8.14362e-10
1.21351e-11
-8.13949e-10
1.16078e-11
-8.12238e-10
7.06949e-12
-8.08008e-10
4.71404e-12
-8.01424e-10
-2.23937e-12
-7.90883e-10
-7.23861e-12
-7.77492e-10
-1.76191e-11
-7.58759e-10
-2.50803e-11
-7.35395e-10
-3.79e-11
-7.05659e-10
-4.8882e-11
-6.69466e-10
-6.26739e-11
-6.2665e-10
-7.73564e-11
-5.76104e-10
-9.14172e-11
-5.18905e-10
-1.07942e-10
-4.53776e-10
-1.22671e-10
-3.8205e-10
-1.38408e-10
-3.03588e-10
-1.5276e-10
-2.19449e-10
-1.66164e-10
-1.30503e-10
-1.77949e-10
-3.81053e-11
-1.87678e-10
5.69271e-11
-1.95237e-10
1.5233e-10
-1.99453e-10
2.48113e-10
-2.02112e-10
3.41591e-10
-2.00471e-10
4.32034e-10
-1.96461e-10
5.18522e-10
-1.9028e-10
5.99438e-10
-1.80468e-10
6.74344e-10
-1.69148e-10
7.42888e-10
-1.56695e-10
8.04196e-10
-1.41923e-10
8.58293e-10
-1.26626e-10
9.05544e-10
-1.11926e-10
9.4593e-10
-9.6553e-11
9.80052e-10
-8.20867e-11
1.00844e-09
-6.86404e-11
1.03167e-09
-5.6195e-11
1.0507e-09
-4.58197e-11
1.0664e-09
-3.7607e-11
1.07871e-09
-2.8436e-11
1.08901e-09
-2.28025e-11
1.0985e-09
-2.0241e-11
1.1058e-09
-1.37885e-11
1.11285e-09
-1.19852e-11
1.11984e-09
-1.17801e-11
1.12406e-09
-3.72688e-12
1.12797e-09
-3.26901e-12
1.12897e-09
4.60423e-12
1.12665e-09
1.283e-11
1.11954e-09
2.4508e-11
1.1053e-09
4.10269e-11
1.08259e-09
6.11524e-11
1.04959e-09
8.377e-11
1.003e-09
1.15007e-10
9.44677e-10
1.38512e-10
8.68503e-10
1.77042e-10
7.7943e-10
2.00783e-10
6.76287e-10
2.26297e-10
5.60098e-10
2.47611e-10
4.36402e-10
2.56367e-10
3.03134e-10
2.67245e-10
1.69498e-10
2.61841e-10
3.38851e-11
2.57879e-10
-9.63063e-11
2.43603e-10
-2.22404e-10
2.28944e-10
-3.38632e-10
2.08329e-10
-4.44638e-10
1.83867e-10
-5.36633e-10
1.53459e-10
-6.1428e-10
1.13797e-10
-6.52708e-10
9.64041e-11
-6.66388e-10
5.42832e-11
-6.53194e-10
2.15484e-12
-6.11927e-10
-5.46358e-11
-5.39841e-10
-1.08012e-10
-4.40862e-10
-1.59727e-10
-3.169e-10
-2.03419e-10
-1.88513e-10
-2.33634e-10
-6.77425e-11
-2.38029e-10
4.16133e-11
-2.23553e-10
1.36861e-10
-1.97443e-10
2.1663e-10
-1.6528e-10
2.80938e-10
-1.315e-10
3.30903e-10
-9.9407e-11
3.68409e-10
-7.12322e-11
3.95859e-10
-4.82627e-11
4.15814e-10
-3.10463e-11
4.30774e-10
-1.95528e-11
4.43026e-10
-1.3279e-11
4.5447e-10
-1.13783e-11
4.66661e-10
-1.27537e-11
4.80458e-10
-1.63154e-11
4.96214e-10
-2.09156e-11
5.13812e-10
-2.54722e-11
5.32731e-10
-2.90718e-11
5.52133e-10
-3.10319e-11
5.71016e-10
-3.09507e-11
5.88362e-10
-2.86899e-11
6.03212e-10
-2.43564e-11
6.14774e-10
-1.82849e-11
6.22471e-10
-1.09782e-11
6.26025e-10
-2.98593e-12
6.2548e-10
5.02756e-12
6.211e-10
1.26358e-11
6.13382e-10
1.94144e-11
6.02948e-10
2.51037e-11
5.90493e-10
2.96131e-11
5.76735e-10
3.30437e-11
5.62512e-10
3.5722e-11
3.92505e-11
1.76538e-09
9.6483e-11
1.88742e-09
2.64634e-10
1.98798e-09
3.71937e-10
2.04916e-09
4.20488e-10
2.0679e-09
4.3092e-10
2.05018e-09
4.18771e-10
2.0095e-09
3.89017e-10
1.95552e-09
3.51638e-10
1.89517e-09
3.12537e-10
1.83297e-09
2.7532e-10
1.77233e-09
2.40573e-10
1.71506e-09
2.0917e-10
1.66177e-09
1.81931e-10
1.6126e-09
1.5882e-10
1.56745e-09
1.39486e-10
1.52599e-09
1.23646e-10
1.48768e-09
1.11101e-10
1.45195e-09
1.01501e-10
1.41823e-09
9.44526e-11
1.38594e-09
8.96577e-11
1.35451e-09
8.68058e-11
1.32343e-09
8.56001e-11
1.29218e-09
8.57755e-11
1.2603e-09
8.70921e-11
1.22736e-09
8.93308e-11
1.19299e-09
9.22981e-11
1.1568e-09
9.58199e-11
1.11845e-09
9.97286e-11
1.07757e-09
1.03844e-10
1.03377e-09
1.07949e-10
9.86603e-10
1.11766e-10
9.35476e-10
1.14953e-10
8.79495e-10
1.17082e-10
8.14492e-10
1.23596e-10
7.60641e-10
7.85569e-11
7.42844e-10
-2.07291e-11
7.57923e-10
-1.08512e-10
7.99507e-10
-1.77203e-10
8.64427e-10
-2.35918e-10
9.49855e-10
-2.88158e-10
1.05459e-09
-3.44797e-10
1.16357e-09
-3.5924e-10
1.26973e-09
-3.42987e-10
1.36961e-09
-3.17157e-10
1.4605e-09
-2.82511e-10
1.54287e-09
-2.50098e-10
1.6174e-09
-2.21552e-10
1.68231e-09
-1.84231e-10
1.73905e-09
-1.55757e-10
1.78722e-09
-1.23688e-10
1.82609e-09
-8.91223e-11
1.85557e-09
-5.75005e-11
1.87378e-09
-1.40059e-11
1.88165e-09
2.07141e-11
1.87638e-09
6.97565e-11
1.85837e-09
1.12224e-10
1.82603e-09
1.5996e-10
1.77766e-09
2.11339e-10
1.71542e-09
2.47869e-10
1.63402e-09
3.03136e-10
1.53946e-09
3.28751e-10
1.42981e-09
3.58834e-10
1.30838e-09
3.7608e-10
1.17856e-09
3.8115e-10
1.04135e-09
3.84746e-10
9.02835e-10
3.72112e-10
7.62819e-10
3.62421e-10
6.26992e-10
3.41329e-10
4.95494e-10
3.22362e-10
3.70981e-10
2.99807e-10
2.54868e-10
2.76485e-10
1.46039e-10
2.55359e-10
4.68985e-11
2.32077e-10
-4.3748e-11
2.10576e-10
-1.26077e-10
1.89301e-10
-1.99335e-10
1.67926e-10
-2.6417e-10
1.47383e-10
-3.21033e-10
1.27423e-10
-3.69775e-10
1.08269e-10
-4.10896e-10
9.03735e-11
-4.45102e-10
7.39347e-11
-4.72823e-10
5.93073e-11
-4.94836e-10
4.68011e-11
-5.11954e-10
3.65874e-11
-5.24832e-10
2.88867e-11
-5.34636e-10
2.33563e-11
-5.42256e-10
1.97021e-11
-5.47789e-10
1.81122e-11
-5.52355e-10
1.72508e-11
-5.56406e-10
1.67336e-11
-5.5924e-10
1.68111e-11
-5.61528e-10
1.58366e-11
-5.63022e-10
1.3627e-11
-5.62411e-10
1.09946e-11
-5.60626e-10
5.28254e-12
-5.55266e-10
-6.49257e-13
-5.47134e-10
-1.03738e-11
-5.33779e-10
-2.05976e-11
-5.16441e-10
-3.49616e-11
-4.91904e-10
-4.96233e-11
-4.61508e-10
-6.8302e-11
-4.22738e-10
-8.76581e-11
-3.75947e-10
-1.09473e-10
-3.20775e-10
-1.32537e-10
-2.55973e-10
-1.56228e-10
-1.83343e-10
-1.80583e-10
-1.01535e-10
-2.04491e-10
-1.26311e-11
-2.27323e-10
8.3115e-11
-2.48519e-10
1.84225e-10
-2.67288e-10
2.89302e-10
-2.8304e-10
3.9671e-10
-2.951e-10
5.05192e-10
-3.0373e-10
6.12337e-10
-3.0661e-10
7.17987e-10
-3.07772e-10
8.19438e-10
-3.01928e-10
9.16003e-10
-2.93026e-10
1.00687e-09
-2.81138e-10
1.09068e-09
-2.6426e-10
1.1672e-09
-2.45635e-10
1.2363e-09
-2.25758e-10
1.29746e-09
-2.03024e-10
1.35099e-09
-1.80089e-10
1.3974e-09
-1.58271e-10
1.43696e-09
-1.36038e-10
1.47039e-09
-1.15441e-10
1.49836e-09
-9.6537e-11
1.52161e-09
-7.93707e-11
1.54112e-09
-6.5244e-11
1.55771e-09
-5.4109e-11
1.57159e-09
-4.22201e-11
1.58392e-09
-3.50267e-11
1.59589e-09
-3.20927e-11
1.60634e-09
-2.41246e-11
1.61696e-09
-2.24949e-11
1.62743e-09
-2.21545e-11
1.63628e-09
-1.24913e-11
1.64468e-09
-1.1615e-11
1.6507e-09
-1.39707e-12
1.65382e-09
9.68385e-12
1.65289e-09
2.53708e-11
1.6456e-09
4.82143e-11
1.63089e-09
7.5718e-11
1.60662e-09
1.07882e-10
1.57021e-09
1.5126e-10
1.52202e-09
1.86576e-10
1.45679e-09
2.42183e-10
1.3772e-09
2.80325e-10
1.28164e-09
3.21846e-10
1.16956e-09
3.59699e-10
1.04557e-09
3.80354e-10
9.06427e-10
4.06391e-10
7.60969e-10
4.07288e-10
6.0677e-10
4.12061e-10
4.52795e-10
3.97559e-10
2.97613e-10
3.84112e-10
1.49174e-10
3.56762e-10
8.68881e-12
3.24357e-10
-1.15215e-10
2.7738e-10
-2.20415e-10
2.19021e-10
-2.63266e-10
1.39291e-10
-2.69592e-10
6.06435e-11
-2.42577e-10
-2.48307e-11
-1.83431e-10
-1.13757e-10
-8.83932e-11
-2.03025e-10
3.45871e-11
-2.82684e-10
1.82154e-10
-3.50967e-10
3.26642e-10
-3.7811e-10
4.57166e-10
-3.68549e-10
5.72989e-10
-3.39375e-10
6.73472e-10
-2.97929e-10
7.58514e-10
-2.50328e-10
8.28688e-10
-2.01681e-10
8.85217e-10
-1.55945e-10
9.29854e-10
-1.15878e-10
9.64742e-10
-8.31576e-11
9.92228e-10
-5.85383e-11
1.01467e-09
-4.19971e-11
1.03425e-09
-3.28666e-11
1.05286e-09
-2.99893e-11
1.07198e-09
-3.18757e-11
1.09255e-09
-3.68894e-11
1.115e-09
-4.33591e-11
1.13924e-09
-4.97098e-11
1.16476e-09
-5.45937e-11
1.19072e-09
-5.69826e-11
1.21605e-09
-5.62798e-11
1.23964e-09
-5.22823e-11
1.2604e-09
-4.51145e-11
1.27738e-09
-3.5259e-11
1.28986e-09
-2.34579e-11
1.29746e-09
-1.05906e-11
1.30008e-09
2.40874e-12
1.29799e-09
1.47249e-11
1.29172e-09
2.56909e-11
1.28198e-09
3.48423e-11
1.26964e-09
4.19497e-11
1.25565e-09
4.70357e-11
1.24109e-09
5.02832e-11
5.36515e-11
1.73753e-09
5.90241e-11
1.8263e-09
1.75905e-10
1.93146e-09
2.66793e-10
2.02666e-09
3.25232e-10
2.10181e-09
3.55699e-10
2.15593e-09
3.64635e-10
2.18843e-09
3.56484e-10
2.20121e-09
3.38835e-10
2.19811e-09
3.15671e-10
2.18437e-09
2.8906e-10
2.1638e-09
2.61132e-10
2.13888e-09
2.34085e-10
2.1111e-09
2.09709e-10
2.08191e-09
1.88011e-10
2.0524e-09
1.69e-10
2.02316e-09
1.52888e-10
1.99435e-09
1.39904e-10
1.96608e-09
1.29775e-10
1.93834e-09
1.22188e-10
1.91098e-09
1.17022e-10
1.88376e-09
1.14029e-10
1.85639e-09
1.12968e-10
1.82853e-09
1.13632e-10
1.79981e-09
1.15813e-10
1.76983e-09
1.19308e-10
1.7382e-09
1.23934e-10
1.70448e-09
1.29532e-10
1.66826e-09
1.35955e-10
1.62904e-09
1.43058e-10
1.5863e-09
1.50686e-10
1.53941e-09
1.58661e-10
1.48758e-09
1.66783e-10
1.42973e-09
1.74924e-10
1.36208e-09
1.91244e-10
1.3007e-09
1.39934e-10
1.26732e-09
1.26359e-11
1.26254e-09
-1.0374e-10
1.28389e-09
-1.98567e-10
1.32941e-09
-2.8145e-10
1.39591e-09
-3.54632e-10
1.48109e-09
-4.29932e-10
1.57247e-09
-4.50547e-10
1.6651e-09
-4.35541e-10
1.75446e-09
-4.06441e-10
1.83747e-09
-3.65455e-10
1.91415e-09
-3.2672e-10
1.98484e-09
-2.92192e-10
2.04819e-09
-2.47542e-10
2.1047e-09
-2.12227e-10
2.15502e-09
-1.73994e-10
2.19772e-09
-1.31837e-10
2.23272e-09
-9.2525e-11
2.25953e-09
-4.08588e-11
2.27829e-09
1.91836e-12
2.28745e-09
6.05431e-11
2.28685e-09
1.12767e-10
2.27542e-09
1.71354e-10
2.25144e-09
2.35284e-10
2.21571e-09
2.83579e-10
2.16398e-09
3.5485e-10
2.09925e-09
3.93454e-10
2.01903e-09
4.39008e-10
1.92495e-09
4.70089e-10
1.81864e-09
4.87383e-10
1.70072e-09
5.02594e-10
1.57574e-09
4.9703e-10
1.44396e-09
4.94153e-10
1.3106e-09
4.74667e-10
1.17668e-09
4.56281e-10
1.04539e-09
4.31106e-10
9.19212e-10
4.02697e-10
7.9777e-10
3.7684e-10
6.84312e-10
3.45581e-10
5.78265e-10
3.1667e-10
4.7983e-10
2.87779e-10
3.90121e-10
2.57672e-10
3.08611e-10
2.28926e-10
2.35019e-10
2.01044e-10
1.6962e-10
1.73694e-10
1.12146e-10
1.47873e-10
6.19433e-11
1.24162e-10
1.8807e-11
1.02468e-10
-1.78754e-11
8.35074e-11
-4.87844e-11
6.75183e-11
-7.43736e-11
5.44941e-11
-9.5817e-11
4.48129e-11
-1.14076e-10
3.79697e-11
-1.29084e-10
3.3124e-11
-1.42296e-10
3.04645e-11
-1.54265e-10
2.87025e-11
-1.64307e-10
2.68517e-11
-1.73207e-10
2.47353e-11
-1.80885e-10
2.13034e-11
-1.85609e-10
1.57162e-11
-1.88522e-10
8.19295e-12
-1.86647e-10
-2.52761e-12
-1.81152e-10
-1.58721e-11
-1.68888e-10
-3.28661e-11
-1.51197e-10
-5.26571e-11
-1.2433e-10
-7.64957e-11
-9.00273e-11
-1.0261e-10
-4.54245e-11
-1.32267e-10
8.74991e-12
-1.63653e-10
7.28034e-11
-1.96598e-10
1.47687e-10
-2.3112e-10
2.31156e-10
-2.6406e-10
3.24109e-10
-2.97454e-10
4.23968e-10
-3.27192e-10
5.29872e-10
-3.54434e-10
6.40012e-10
-3.77441e-10
7.52482e-10
-3.95522e-10
8.65503e-10
-4.08134e-10
9.77487e-10
-4.15726e-10
1.08617e-09
-4.15301e-10
1.1912e-09
-4.12816e-10
1.29025e-09
-4.00987e-10
1.38279e-09
-3.85572e-10
1.46828e-09
-3.66627e-10
1.54584e-09
-3.41808e-10
1.61552e-09
-3.15301e-10
1.67755e-09
-2.8775e-10
1.73179e-09
-2.57221e-10
1.77887e-09
-2.27112e-10
1.81942e-09
-1.98762e-10
1.85396e-09
-1.7051e-10
1.88328e-09
-1.44698e-10
1.90811e-09
-1.21307e-10
1.92923e-09
-1.00433e-10
1.94751e-09
-8.34662e-11
1.96366e-09
-7.0186e-11
1.97792e-09
-5.64111e-11
1.99133e-09
-4.83538e-11
2.00487e-09
-4.55348e-11
2.01741e-09
-3.65613e-11
2.03038e-09
-3.53714e-11
2.04316e-09
-3.48324e-11
2.05528e-09
-2.453e-11
2.06686e-09
-2.31235e-11
2.07705e-09
-1.15544e-11
2.08489e-09
1.84786e-12
2.08984e-09
2.0387e-11
2.08997e-09
4.80104e-11
2.08474e-09
8.08385e-11
2.07204e-09
1.2043e-10
2.05038e-09
1.72759e-10
2.01898e-09
2.17826e-10
1.97426e-09
2.86785e-10
1.91664e-09
3.3786e-10
1.84458e-09
3.93866e-10
1.75606e-09
4.482e-10
1.65405e-09
4.8236e-10
1.53433e-09
5.26101e-10
1.40375e-09
5.37851e-10
1.25899e-09
5.56797e-10
1.10803e-09
5.48497e-10
9.49023e-10
5.43089e-10
7.90103e-10
5.15666e-10
6.34317e-10
4.80141e-10
4.96544e-10
4.15168e-10
3.74855e-10
3.40739e-10
3.27305e-10
1.86884e-10
3.216e-10
6.63907e-11
3.52799e-10
-5.59924e-11
4.17278e-10
-1.78205e-10
5.18119e-10
-3.03836e-10
6.44133e-10
-4.08667e-10
7.89865e-10
-4.96669e-10
9.27264e-10
-5.15483e-10
1.04781e-09
-4.89078e-10
1.15287e-09
-4.4442e-10
1.24342e-09
-3.88478e-10
1.32048e-09
-3.27386e-10
1.38513e-09
-2.66344e-10
1.43867e-09
-2.09482e-10
1.48255e-09
-1.59771e-10
1.51847e-09
-1.19085e-10
1.54824e-09
-8.83131e-11
1.5737e-09
-6.74674e-11
1.59663e-09
-5.58027e-11
1.6186e-09
-5.19657e-11
1.64089e-09
-5.41672e-11
1.66437e-09
-6.0374e-11
1.6895e-09
-6.84795e-11
1.71626e-09
-7.64703e-11
1.74426e-09
-8.25922e-11
1.77274e-09
-8.5454e-11
1.80074e-09
-8.42756e-11
1.82722e-09
-7.8764e-11
1.85107e-09
-6.89617e-11
1.87128e-09
-5.54648e-11
1.88704e-09
-3.9212e-11
1.89781e-09
-2.13582e-11
1.90335e-09
-3.13721e-12
1.90379e-09
1.42908e-11
1.89952e-09
2.9953e-11
1.89123e-09
4.3134e-11
1.87977e-09
5.34088e-11
1.86613e-09
6.06753e-11
1.85142e-09
6.4991e-11
6.83753e-11
1.72185e-09
3.72228e-11
1.78181e-09
1.15995e-10
1.86438e-09
1.84239e-10
1.95512e-09
2.34463e-10
2.04329e-09
2.67483e-10
2.12237e-09
2.85507e-10
2.18819e-09
2.90656e-10
2.24076e-09
2.86269e-10
2.28122e-09
2.75219e-10
2.3107e-09
2.59576e-10
2.3296e-09
2.4223e-10
2.33916e-09
2.24531e-10
2.34212e-09
2.06744e-10
2.34001e-09
1.90128e-10
2.33409e-09
1.74919e-10
2.32518e-09
1.61801e-10
2.31376e-09
1.51317e-10
2.30055e-09
1.42987e-10
2.28598e-09
1.36754e-10
2.27026e-09
1.32747e-10
2.25347e-09
1.30818e-10
2.23564e-09
1.3079e-10
2.21668e-09
1.32598e-10
2.19637e-09
1.36117e-10
2.17448e-09
1.412e-10
2.15069e-09
1.47726e-10
2.12464e-09
1.55586e-10
2.09591e-09
1.64685e-10
2.06402e-09
1.74939e-10
2.02844e-09
1.86271e-10
1.98849e-09
1.98605e-10
1.9434e-09
2.11874e-10
1.89215e-09
2.26176e-10
1.83177e-09
2.51628e-10
1.77291e-09
1.98786e-10
1.73161e-09
5.39248e-11
1.71178e-09
-8.39235e-11
1.71472e-09
-2.01525e-10
1.73998e-09
-3.06725e-10
1.78463e-09
-3.99291e-10
1.84618e-09
-4.91453e-10
1.91552e-09
-5.19842e-10
1.98962e-09
-5.09571e-10
2.063e-09
-4.79752e-10
2.13236e-09
-4.3476e-10
2.19737e-09
-3.91686e-10
2.25814e-09
-3.52923e-10
2.31373e-09
-3.03103e-10
2.36432e-09
-2.62797e-10
2.41035e-09
-2.19992e-10
2.45081e-09
-1.72307e-10
2.48595e-09
-1.27695e-10
2.51585e-09
-7.07951e-11
2.54029e-09
-2.25686e-11
2.55904e-09
4.17463e-11
2.57163e-09
1.00131e-10
2.57768e-09
1.65271e-10
2.5759e-09
2.3703e-10
2.56621e-09
2.93255e-10
2.54597e-09
3.75084e-10
2.51575e-09
4.23666e-10
2.47305e-09
4.81678e-10
2.41801e-09
5.25072e-10
2.35048e-09
5.54851e-10
2.27043e-09
5.82563e-10
2.17995e-09
5.87436e-10
2.07928e-09
5.94741e-10
1.97186e-09
5.82023e-10
1.85898e-09
5.69115e-10
1.74332e-09
5.46732e-10
1.62772e-09
5.1829e-10
1.51242e-09
4.92145e-10
1.40099e-09
4.57033e-10
1.29353e-09
4.2417e-10
1.19076e-09
3.90581e-10
1.09419e-09
3.54284e-10
1.00366e-09
3.19501e-10
9.19288e-10
2.85452e-10
8.41491e-10
2.51531e-10
7.70334e-10
2.19071e-10
7.05379e-10
1.89157e-10
6.46738e-10
1.61148e-10
5.94116e-10
1.36166e-10
5.4717e-10
1.14498e-10
5.05783e-10
9.59102e-11
4.69082e-10
8.15357e-11
4.36304e-10
7.07628e-11
4.07761e-10
6.16773e-11
3.81989e-10
5.62427e-11
3.58558e-10
5.21376e-11
3.37992e-10
4.7421e-11
3.19606e-10
4.31217e-11
3.03295e-10
3.76154e-11
2.91028e-10
2.79826e-11
2.8156e-10
1.76591e-11
2.78221e-10
8.09604e-13
2.79755e-10
-1.74091e-11
2.89682e-10
-4.27953e-11
3.06537e-10
-6.95159e-11
3.34376e-10
-1.04338e-10
3.71067e-10
-1.39305e-10
4.19561e-10
-1.80764e-10
4.78632e-10
-2.22728e-10
5.48381e-10
-2.66351e-10
6.29181e-10
-3.11925e-10
7.18415e-10
-3.53299e-10
8.16318e-10
-3.95364e-10
9.19967e-10
-4.30848e-10
1.02789e-09
-4.62363e-10
1.13809e-09
-4.87654e-10
1.24827e-09
-5.05717e-10
1.35671e-09
-5.16586e-10
1.46168e-09
-5.207e-10
1.56126e-09
-5.14894e-10
1.6551e-09
-5.06667e-10
1.74145e-09
-4.87349e-10
1.82008e-09
-4.64215e-10
1.89087e-09
-4.37426e-10
1.95352e-09
-4.04458e-10
2.00845e-09
-3.70219e-10
2.05624e-09
-3.35513e-10
2.09717e-09
-2.9812e-10
2.13213e-09
-2.6203e-10
2.16186e-09
-2.28444e-10
2.18706e-09
-1.95656e-10
2.20854e-09
-1.66132e-10
2.22702e-09
-1.39737e-10
2.24322e-09
-1.16593e-10
2.25784e-09
-9.80441e-11
2.27135e-09
-8.36535e-11
2.2838e-09
-6.88241e-11
2.29653e-09
-6.10344e-11
2.3099e-09
-5.88502e-11
2.32252e-09
-4.91125e-11
2.33587e-09
-4.865e-11
2.34911e-09
-4.80009e-11
2.36252e-09
-3.78792e-11
2.37539e-09
-3.59379e-11
2.38776e-09
-2.38807e-11
2.39851e-09
-8.88556e-12
2.40765e-09
1.12313e-11
2.41373e-09
4.18926e-11
2.41676e-09
7.77278e-11
2.41497e-09
1.22112e-10
2.40799e-09
1.79609e-10
2.39429e-09
2.31384e-10
2.37227e-09
3.08687e-10
2.34061e-09
3.69425e-10
2.29833e-09
4.36092e-10
2.24258e-09
5.03918e-10
2.17472e-09
5.50205e-10
2.0902e-09
6.10611e-10
1.9931e-09
6.34935e-10
1.8795e-09
6.70367e-10
1.75488e-09
6.73082e-10
1.61667e-09
6.81258e-10
1.47136e-09
6.6094e-10
1.32314e-09
6.28341e-10
1.1908e-09
5.475e-10
1.07227e-09
4.59299e-10
1.02303e-09
2.36163e-10
1.01523e-09
7.42383e-11
1.04375e-09
-8.44668e-11
1.10367e-09
-2.3809e-10
1.19676e-09
-3.9689e-10
1.30976e-09
-5.21625e-10
1.43606e-09
-6.22937e-10
1.55097e-09
-6.30348e-10
1.64866e-09
-5.86742e-10
1.73179e-09
-5.27529e-10
1.80235e-09
-4.59024e-10
1.86209e-09
-3.8712e-10
1.91252e-09
-3.16773e-10
1.95499e-09
-2.5196e-10
1.9908e-09
-1.95582e-10
2.0212e-09
-1.49498e-10
2.04748e-09
-1.14602e-10
2.0709e-09
-9.08987e-11
2.09268e-09
-7.7593e-11
2.11393e-09
-7.32166e-11
2.13555e-09
-7.57935e-11
2.1582e-09
-8.30323e-11
2.18224e-09
-9.2519e-11
2.20768e-09
-1.01907e-10
2.23421e-09
-1.09123e-10
2.26115e-09
-1.1239e-10
2.28774e-09
-1.10865e-10
2.31318e-09
-1.0419e-10
2.3364e-09