/*--------------------------------*- C++ -*----------------------------------*\
| =========                 |                                                 |
| \\      /  F ield         | OpenFOAM: The Open Source CFD Toolbox           |
|  \\    /   O peration     | Version:  2506                                  |
|   \\  /    A nd           | Website:  www.openfoam.com                      |
|    \\/     M anipulation  |                                                 |
\*---------------------------------------------------------------------------*/
FoamFile
{
    version     2.0;
    format      ascii;
    arch        "LSB;label=32;scalar=64";
    class       surfaceScalarField;
    location    "0.95";
    object      phi;
}
// * * * * * * * * * * * * * * * * * * * * * * * * * * * * * * * * * * * * * //

dimensions      [0 3 -1 0 0 0 0];

oriented        oriented;

internalField   nonuniform List<scalar> 
7780
(
4.08523e-10
-4.08523e-10
7.04562e-10
-2.96039e-10
8.79766e-10
-1.75204e-10
9.99933e-10
-1.20167e-10
1.08793e-09
-8.79957e-11
1.15464e-09
-6.67101e-11
1.20706e-09
-5.2425e-11
1.24954e-09
-4.2474e-11
1.28479e-09
-3.52569e-11
1.31467e-09
-2.988e-11
1.34047e-09
-2.57919e-11
1.3631e-09
-2.26296e-11
1.38325e-09
-2.01495e-11
1.40142e-09
-1.81767e-11
1.41802e-09
-1.65946e-11
1.43334e-09
-1.53278e-11
1.44767e-09
-1.43213e-11
1.4612e-09
-1.35359e-11
1.47415e-09
-1.29491e-11
1.4867e-09
-1.25471e-11
1.49903e-09
-1.23294e-11
1.51134e-09
-1.23093e-11
1.52383e-09
-1.24979e-11
1.53678e-09
-1.2942e-11
1.55047e-09
-1.36924e-11
1.5653e-09
-1.48287e-11
1.58176e-09
-1.6466e-11
1.60058e-09
-1.88152e-11
1.62281e-09
-2.22321e-11
1.65019e-09
-2.73776e-11
1.67983e-09
-6.0217e-11
1.68622e-09
-2.22079e-10
1.66644e-09
-4.29396e-10
1.62668e-09
-6.19663e-10
1.57069e-09
-7.82082e-10
1.51009e-09
-9.28527e-10
1.45266e-09
-1.0661e-09
1.37213e-09
-1.24029e-09
1.27755e-09
-1.35089e-09
1.19552e-09
-1.39361e-09
1.1254e-09
-1.42628e-09
1.06877e-09
-1.45316e-09
1.02246e-09
-1.47147e-09
9.84597e-10
-1.4828e-09
9.53946e-10
-1.48795e-09
9.28788e-10
-1.48633e-09
9.08559e-10
-1.47663e-09
8.9061e-10
-1.45904e-09
8.72291e-10
-1.43172e-09
8.50302e-10
-1.39275e-09
8.22408e-10
-1.33872e-09
7.90353e-10
-1.2655e-09
7.49068e-10
-1.17729e-09
7.06504e-10
-1.06052e-09
6.67144e-10
-9.18159e-10
6.48126e-10
-7.38208e-10
6.58627e-10
-5.31025e-10
7.16715e-10
-2.77056e-10
8.21528e-10
8.31474e-13
9.44804e-10
2.82552e-10
1.06922e-09
5.40677e-10
1.18434e-09
7.81917e-10
1.27675e-09
9.54015e-10
1.35301e-09
1.10706e-09
1.41294e-09
1.20957e-09
1.46211e-09
1.29277e-09
1.50367e-09
1.35718e-09
1.54007e-09
1.40126e-09
1.5732e-09
1.43449e-09
1.60403e-09
1.45923e-09
1.63378e-09
1.47708e-09
1.66265e-09
1.48759e-09
1.69081e-09
1.49229e-09
1.71866e-09
1.4916e-09
1.74631e-09
1.48581e-09
1.77378e-09
1.47473e-09
1.80097e-09
1.45779e-09
1.82765e-09
1.43057e-09
1.85409e-09
1.39718e-09
1.88012e-09
1.3542e-09
1.90599e-09
1.29793e-09
1.92989e-09
1.2131e-09
1.95319e-09
1.11815e-09
1.97348e-09
9.76578e-10
1.99134e-09
8.09848e-10
2.00287e-09
5.66323e-10
2.00936e-09
2.96398e-10
2.01041e-09
-6.69975e-12
2.00892e-09
-3.25578e-10
2.0068e-09
-6.09544e-10
2.00633e-09
-8.28497e-10
2.00626e-09
-1.01673e-09
2.00456e-09
-1.14064e-09
1.99958e-09
-1.24795e-09
1.9887e-09
-1.3132e-09
1.97009e-09
-1.36242e-09
1.94463e-09
-1.40438e-09
1.91204e-09
-1.42879e-09
1.87435e-09
-1.44753e-09
1.83332e-09
-1.46142e-09
1.79038e-09
-1.47091e-09
1.74629e-09
-1.47588e-09
1.70032e-09
-1.47438e-09
1.65122e-09
-1.46634e-09
1.59685e-09
-1.45094e-09
1.53536e-09
-1.42802e-09
1.46557e-09
-1.39755e-09
1.38699e-09
-1.35681e-09
1.30177e-09
-1.30582e-09
1.2101e-09
-1.24637e-09
1.11222e-09
-1.17259e-09
1.01661e-09
-1.06761e-09
9.1914e-10
-9.50702e-10
8.39621e-10
-7.87011e-10
7.82539e-10
-6.03047e-10
7.67908e-10
-3.72491e-10
8.04998e-10
-1.05635e-10
8.79095e-10
1.68691e-10
9.70994e-10
4.34573e-10
1.06666e-09
6.88731e-10
1.14808e-09
8.85221e-10
1.21492e-09
1.04874e-09
1.26734e-09
1.1673e-09
1.31002e-09
1.26755e-09
1.34519e-09
1.33365e-09
1.37601e-09
1.38415e-09
1.40421e-09
1.4248e-09
1.43107e-09
1.45354e-09
1.45738e-09
1.47258e-09
1.48388e-09
1.48495e-09
1.51088e-09
1.49164e-09
1.53854e-09
1.4931e-09
1.56706e-09
1.48926e-09
1.59637e-09
1.47916e-09
1.62699e-09
1.46328e-09
1.65874e-09
1.44131e-09
1.69204e-09
1.41173e-09
1.72716e-09
1.37336e-09
1.76326e-09
1.31529e-09
1.80157e-09
1.24828e-09
1.8417e-09
1.16368e-09
1.88183e-09
1.03356e-09
1.92314e-09
8.90113e-10
1.96117e-09
6.7584e-10
1.99603e-09
4.2682e-10
2.02537e-09
1.38667e-10
2.04964e-09
-1.80035e-10
2.06995e-09
-4.86595e-10
2.08882e-09
-7.32677e-10
2.10501e-09
-9.37191e-10
2.11761e-09
-1.09178e-09
2.12447e-09
-1.20418e-09
2.1237e-09
-1.28125e-09
2.11462e-09
-1.34822e-09
2.0959e-09
-1.3867e-09
2.06842e-09
-1.41555e-09
2.03342e-09
-1.43688e-09
1.99297e-09
-1.45434e-09
1.9484e-09
-1.46454e-09
1.89401e-09
-1.46302e-09
1.82707e-09
-1.45367e-09
1.74776e-09
-1.43955e-09
1.64946e-09
-1.41376e-09
1.53363e-09
-1.10625e-09
1.41708e-09
-9.55007e-10
1.30474e-09
-8.32964e-10
1.20715e-09
-6.80614e-10
1.13607e-09
-5.20518e-10
1.1034e-09
-3.4097e-10
1.11584e-09
-1.58055e-10
1.15146e-09
-4.17164e-11
1.1797e-09
-2.82404e-11
1.20352e-09
-2.38281e-11
1.22422e-09
-2.07e-11
1.24226e-09
-1.80384e-11
1.2579e-09
-1.56416e-11
1.27142e-09
-1.3518e-11
1.28312e-09
-1.16971e-11
1.29329e-09
-1.01716e-11
1.3022e-09
-8.90585e-12
1.31005e-09
-7.85544e-12
1.31702e-09
-6.96707e-12
1.3232e-09
-6.17714e-12
1.32861e-09
-5.41345e-12
1.33321e-09
-4.59559e-12
1.33683e-09
-3.62108e-12
1.3392e-09
-2.37351e-12
1.33989e-09
-6.85723e-13
1.33822e-09
1.66179e-12
1.33336e-09
4.86681e-12
1.32406e-09
9.29324e-12
1.30883e-09
1.52328e-11
1.28553e-09
2.32963e-11
1.25104e-09
3.44981e-11
1.2006e-09
5.04385e-11
1.126e-09
7.46022e-11
1.01091e-09
1.15086e-10
8.20114e-10
1.90796e-10
4.7827e-10
3.41844e-10
4.7827e-10
-2.59266e-11
-3.82596e-10
9.53744e-11
-4.1734e-10
2.60041e-10
-3.3987e-10
4.13394e-10
-2.7352e-10
5.47773e-10
-2.22374e-10
6.63309e-10
-1.82246e-10
7.61852e-10
-1.50968e-10
8.45853e-10
-1.26475e-10
9.17677e-10
-1.07081e-10
9.79367e-10
-9.15701e-11
1.03264e-09
-7.90601e-11
1.07887e-09
-6.88671e-11
1.11917e-09
-6.04436e-11
1.15441e-09
-5.34191e-11
1.18536e-09
-4.75409e-11
1.21262e-09
-4.25967e-11
1.23673e-09
-3.84251e-11
1.2581e-09
-3.49129e-11
1.27715e-09
-3.1993e-11
1.29423e-09
-2.96312e-11
1.30971e-09
-2.78036e-11
1.32391e-09
-2.65122e-11
1.3372e-09
-2.57923e-11
1.34999e-09
-2.57285e-11
1.36273e-09
-2.64349e-11
1.37599e-09
-2.80811e-11
1.39041e-09
-3.08944e-11
1.40683e-09
-3.52275e-11
1.42625e-09
-4.16563e-11
1.45009e-09
-5.12131e-11
1.47474e-09
-8.48689e-11
1.47685e-09
-2.24192e-10
1.44899e-09
-4.01532e-10
1.39519e-09
-5.65863e-10
1.322e-09
-7.08895e-10
1.24223e-09
-8.48752e-10
1.16247e-09
-9.86346e-10
1.0656e-09
-1.14342e-09
9.61654e-10
-1.24695e-09
8.72404e-10
-1.30436e-09
7.99237e-10
-1.35311e-09
7.41785e-10
-1.39571e-09
6.97847e-10
-1.42753e-09
6.65615e-10
-1.45057e-09
6.42978e-10
-1.46531e-09
6.27273e-10
-1.47062e-09
6.16122e-10
-1.46548e-09
6.05626e-10
-1.44855e-09
5.91897e-10
-1.41799e-09
5.71167e-10
-1.37202e-09
5.41148e-10
-1.3087e-09
5.02459e-10
-1.22681e-09
4.53097e-10
-1.12793e-09
4.00527e-10
-1.00795e-09
3.5241e-10
-8.70042e-10
3.23947e-10
-7.09745e-10
3.26384e-10
-5.33462e-10
3.78707e-10
-3.2938e-10
4.83042e-10
-1.03504e-10
6.30564e-10
1.3503e-10
7.99942e-10
3.71298e-10
9.70845e-10
6.11015e-10
1.12169e-09
8.03168e-10
1.24806e-09
9.807e-10
1.34747e-09
1.11016e-09
1.42461e-09
1.21564e-09
1.48332e-09
1.29846e-09
1.52802e-09
1.35654e-09
1.56341e-09
1.39908e-09
1.59248e-09
1.43015e-09
1.61776e-09
1.45179e-09
1.64104e-09
1.46431e-09
1.66374e-09
1.46961e-09
1.68661e-09
1.46875e-09
1.71013e-09
1.46231e-09
1.73456e-09
1.45031e-09
1.75994e-09
1.43241e-09
1.78614e-09
1.40436e-09
1.81327e-09
1.37003e-09
1.84118e-09
1.32629e-09
1.87019e-09
1.26891e-09
1.89922e-09
1.18407e-09
1.92912e-09
1.08825e-09
1.95901e-09
9.46686e-10
1.98942e-09
7.79436e-10
2.01922e-09
5.36533e-10
2.05013e-09
2.65479e-10
2.0817e-09
-3.82656e-11
2.11427e-09
-3.58149e-10
2.14482e-09
-6.40096e-10
2.17162e-09
-8.5529e-10
2.19142e-09
-1.03654e-09
2.20112e-09
-1.15034e-09
2.19902e-09
-1.24586e-09
2.18372e-09
-1.29789e-09
2.15589e-09
-1.33459e-09
2.11853e-09
-1.36702e-09
2.07351e-09
-1.38377e-09
2.02379e-09
-1.39781e-09
1.97125e-09
-1.40888e-09
1.91631e-09
-1.41596e-09
1.85787e-09
-1.41745e-09
1.79364e-09
-1.41015e-09
1.72078e-09
-1.39348e-09
1.63652e-09
-1.36668e-09
1.53957e-09
-1.33108e-09
1.43044e-09
-1.28841e-09
1.31094e-09
-1.23732e-09
1.1846e-09
-1.17948e-09
1.05424e-09
-1.11601e-09
9.22558e-10
-1.04091e-09
7.96491e-10
-9.41546e-10
6.77765e-10
-8.31975e-10
5.81738e-10
-6.90984e-10
5.15125e-10
-5.36435e-10
4.93152e-10
-3.50517e-10
5.26142e-10
-1.38626e-10
6.09224e-10
8.56091e-11
7.29201e-10
3.14595e-10
8.66677e-10
5.51253e-10
9.97819e-10
7.5408e-10
1.11209e-09
9.34471e-10
1.20469e-09
1.0747e-09
1.27637e-09
1.19587e-09
1.32984e-09
1.28018e-09
1.36956e-09
1.34442e-09
1.40034e-09
1.39402e-09
1.42541e-09
1.42847e-09
1.44683e-09
1.45115e-09
1.46698e-09
1.4648e-09
1.48754e-09
1.47107e-09
1.50976e-09
1.47089e-09
1.5341e-09
1.46492e-09
1.56058e-09
1.45268e-09
1.58962e-09
1.43425e-09
1.62107e-09
1.40987e-09
1.65536e-09
1.37743e-09
1.6927e-09
1.33602e-09
1.73275e-09
1.27524e-09
1.7764e-09
1.20463e-09
1.8234e-09
1.11667e-09
1.87325e-09
9.83715e-10
1.92618e-09
8.37176e-10
1.98068e-09
6.21347e-10
2.03758e-09
3.69917e-10
2.09504e-09
8.12051e-11
2.15234e-09
-2.3733e-10
2.2057e-09
-5.39958e-10
2.25277e-09
-7.79745e-10
2.28968e-09
-9.74109e-10
2.31452e-09
-1.11662e-09
2.32429e-09
-1.21396e-09
2.31851e-09
-1.27548e-09
2.2985e-09
-1.32821e-09
2.26576e-09
-1.35396e-09
2.22355e-09
-1.37332e-09
2.17446e-09
-1.38777e-09
2.12072e-09
-1.40058e-09
2.06249e-09
-1.4063e-09
1.99095e-09
-1.39147e-09
1.90139e-09
-1.36414e-09
1.79499e-09
-1.33317e-09
1.66671e-09
-1.28551e-09
1.52379e-09
-9.63341e-10
1.37809e-09
-8.09302e-10
1.23751e-09
-6.92375e-10
1.11356e-09
-5.56654e-10
1.02043e-09
-4.27388e-10
9.68483e-10
-2.89019e-10
9.62116e-10
-1.51689e-10
9.86802e-10
-6.64019e-11
1.01829e-09
-5.97285e-11
1.05154e-09
-5.70753e-11
1.08393e-09
-5.30907e-11
1.11398e-09
-4.80943e-11
1.14105e-09
-4.27116e-11
1.165e-09
-3.74684e-11
1.18596e-09
-3.26495e-11
1.20419e-09
-2.84032e-11
1.22006e-09
-2.47766e-11
1.23389e-09
-2.16864e-11
1.24592e-09
-1.90018e-11
1.25631e-09
-1.65666e-11
1.26509e-09
-1.41932e-11
1.27215e-09
-1.1654e-11
1.27719e-09
-8.66438e-12
1.27968e-09
-4.86001e-12
1.27876e-09
2.33297e-13
1.27316e-09
7.2657e-12
1.26099e-09
1.70342e-11
1.23965e-09
3.06321e-11
1.20563e-09
4.9254e-11
1.15395e-09
7.49782e-11
1.0776e-09
1.10849e-10
9.67313e-10
1.60723e-10
8.11205e-10
2.30711e-10
5.96339e-10
3.29951e-10
3.21196e-10
4.65939e-10
5.19915e-11
6.11049e-10
5.30262e-10
-7.46461e-11
-3.0795e-10
-5.5792e-11
-4.36194e-10
3.13189e-11
-4.26981e-10
1.44249e-10
-3.86451e-10
2.61556e-10
-3.39681e-10
3.74038e-10
-2.94728e-10
4.7761e-10
-2.5454e-10
5.70946e-10
-2.19811e-10
6.54102e-10
-1.90237e-10
7.27724e-10
-1.65192e-10
7.9266e-10
-1.43996e-10
8.49791e-10
-1.25998e-10
8.99958e-10
-1.10611e-10
9.43924e-10
-9.73846e-11
9.82364e-10
-8.5981e-11
1.01588e-09
-7.61172e-11
1.04503e-09
-6.75692e-11
1.07029e-09
-6.01729e-11
1.09212e-09
-5.38204e-11
1.11093e-09
-4.84468e-11
1.12714e-09
-4.40136e-11
1.14115e-09
-4.05251e-11
1.1534e-09
-3.8042e-11
1.16436e-09
-3.668e-11
1.17453e-09
-3.66142e-11
1.18454e-09
-3.809e-11
1.19509e-09
-4.14369e-11
1.20694e-09
-4.70807e-11
1.22096e-09
-5.56797e-11
1.238e-09
-6.82526e-11
1.25406e-09
-1.00923e-10
1.24662e-09
-2.16759e-10
1.20907e-09
-3.63983e-10
1.14766e-09
-5.04445e-10
1.07139e-09
-6.3263e-10
9.91241e-10
-7.68603e-10
9.11792e-10
-9.06897e-10
8.21441e-10
-1.05306e-09
7.31081e-10
-1.15659e-09
6.56503e-10
-1.22978e-09
5.98135e-10
-1.29475e-09
5.54667e-10
-1.35224e-09
5.24433e-10
-1.3973e-09
5.05523e-10
-1.43166e-09
4.95258e-10
-1.45505e-09
4.90409e-10
-1.46577e-09
4.8763e-10
-1.4627e-09
4.82845e-10
-1.44376e-09
4.72357e-10
-1.4075e-09
4.53283e-10
-1.35295e-09
4.24539e-10
-1.27996e-09
3.87163e-10
-1.18943e-09
3.42484e-10
-1.08325e-09
2.96912e-10
-9.62381e-10
2.58084e-10
-8.31214e-10
2.37641e-10
-6.89303e-10
2.45312e-10
-5.41133e-10
2.93572e-10
-3.77639e-10
3.87338e-10
-1.97271e-10
5.23342e-10
-9.7407e-13
6.89806e-10
2.04834e-10
8.71864e-10
4.28959e-10
1.04873e-09
6.26305e-10
1.20857e-09
8.20871e-10
1.34206e-09
9.76675e-10
1.44785e-09
1.10985e-09
1.52764e-09
1.21865e-09
1.5852e-09
1.29896e-09
1.6256e-09
1.35867e-09
1.65397e-09
1.40177e-09
1.675e-09
1.43077e-09
1.69195e-09
1.44737e-09
1.70768e-09
1.4539e-09
1.72413e-09
1.45232e-09
1.74228e-09
1.44417e-09
1.76269e-09
1.42991e-09
1.78557e-09
1.40952e-09
1.81114e-09
1.37878e-09
1.83934e-09
1.34182e-09
1.87007e-09
1.29555e-09
1.90398e-09
1.235e-09
1.94073e-09
1.14732e-09
1.98059e-09
1.04839e-09
2.02346e-09
9.0382e-10
2.06941e-09
7.33486e-10
2.11792e-09
4.88018e-10
2.16811e-09
2.15293e-10
2.21658e-09
-8.67376e-11
2.26179e-09
-4.03358e-10
2.29905e-09
-6.77353e-10
2.32621e-09
-8.82457e-10
2.34017e-09
-1.05049e-09
2.33946e-09
-1.14963e-09
2.32371e-09
-1.23011e-09
2.29407e-09
-1.26826e-09
2.25284e-09
-1.29336e-09
2.20377e-09
-1.31795e-09
2.14925e-09
-1.32924e-09
2.0917e-09
-1.34025e-09
2.03149e-09
-1.34866e-09
1.96714e-09
-1.35161e-09
1.89608e-09
-1.34638e-09
1.81497e-09
-1.32904e-09
1.72086e-09
-1.29937e-09
1.61247e-09
-1.2583e-09
1.49072e-09
-1.20934e-09
1.35863e-09
-1.15633e-09
1.22025e-09
-1.09894e-09
1.08051e-09
-1.03974e-09
9.42974e-10
-9.78471e-10
8.1114e-10
-9.09074e-10
6.9073e-10
-8.21133e-10
5.85557e-10
-7.26801e-10
5.04419e-10
-6.09846e-10
4.53799e-10
-4.85815e-10
4.4385e-10
-3.40568e-10
4.81264e-10
-1.7604e-10
5.63576e-10
3.2968e-12
6.8252e-10
1.95651e-10
8.25581e-10
4.08192e-10
9.7418e-10
6.05482e-10
1.1137e-09
7.94953e-10
1.23403e-09
9.54376e-10
1.33036e-09
1.09954e-09
1.40297e-09
1.20757e-09
1.45381e-09
1.29359e-09
1.48762e-09
1.3602e-09
1.51024e-09
1.40584e-09
1.52599e-09
1.4354e-09
1.53847e-09
1.45232e-09
1.55046e-09
1.45909e-09
1.56451e-09
1.45685e-09
1.58194e-09
1.4475e-09
1.60349e-09
1.43113e-09
1.62984e-09
1.4079e-09
1.66059e-09
1.37912e-09
1.69615e-09
1.34187e-09
1.73686e-09
1.2953e-09
1.78291e-09
1.22918e-09
1.83474e-09
1.1528e-09
1.89207e-09
1.05934e-09
1.95559e-09
9.20197e-10
2.02457e-09
7.68205e-10
2.09805e-09
5.4786e-10
2.17469e-09
2.93285e-10
2.24992e-09
5.97518e-12
2.32059e-09
-3.08008e-10
2.38103e-09
-6.00392e-10
2.42786e-09
-8.2658e-10
2.45748e-09
-1.00373e-09
2.46909e-09
-1.12822e-09
2.46188e-09
-1.20676e-09
2.43803e-09
-1.25163e-09
2.40038e-09
-1.29056e-09
2.35247e-09
-1.30605e-09
2.29788e-09
-1.31872e-09
2.23851e-09
-1.3284e-09
2.17479e-09
-1.33683e-09
2.10478e-09
-1.33628e-09
2.01758e-09
-1.30425e-09
1.90832e-09
-1.25488e-09
1.78005e-09
-1.20493e-09
1.63249e-09
-1.13797e-09
1.48362e-09
-8.1449e-10
1.33714e-09
-6.62825e-10
1.20063e-09
-5.55857e-10
1.08425e-09
-4.40268e-10
9.99581e-10
-3.42716e-10
9.5153e-10
-2.40967e-10
9.40596e-10
-1.40754e-10
9.56914e-10
-8.27199e-11
9.83337e-10
-8.61515e-11
1.01387e-09
-8.7612e-11
1.04545e-09
-8.46672e-11
1.07622e-09
-7.88623e-11
1.10509e-09
-7.15824e-11
1.13147e-09
-6.38502e-11
1.15517e-09
-5.63499e-11
1.17623e-09
-4.94629e-11
1.1948e-09
-4.33504e-11
1.2111e-09
-3.79865e-11
1.2253e-09
-3.32016e-11
1.2375e-09
-2.87625e-11
1.24768e-09
-2.43724e-11
1.25568e-09
-1.9655e-11
1.26114e-09
-1.41289e-11
1.26345e-09
-7.16747e-12
1.26165e-09
2.03977e-12
1.25418e-09
1.47272e-11
1.23893e-09
3.22918e-11
1.21273e-09
5.68306e-11
1.17065e-09
9.13328e-11
1.10626e-09
1.39369e-10
1.01163e-09
2.05478e-10
8.76789e-10
2.95564e-10
6.92117e-10
4.15382e-10
4.56296e-10
5.65772e-10
1.97063e-10
7.25173e-10
6.51015e-12
8.01601e-10
5.36772e-10
-6.31744e-11
-2.44776e-10
-8.99201e-11
-4.09448e-10
-6.42154e-11
-4.52686e-10
-4.62819e-12
-4.46038e-10
7.25487e-11
-4.16858e-10
1.56179e-10
-3.78359e-10
2.398e-10
-3.38161e-10
3.1982e-10
-2.99831e-10
3.94412e-10
-2.64829e-10
4.6279e-10
-2.3357e-10
5.24741e-10
-2.05947e-10
5.80374e-10
-1.81631e-10
6.29984e-10
-1.60221e-10
6.73945e-10
-1.41346e-10
7.12656e-10
-1.24692e-10
7.46528e-10
-1.09989e-10
7.7597e-10
-9.70116e-11
8.01388e-10
-8.55912e-11
8.23178e-10
-7.56101e-11
8.41729e-10
-6.69975e-11
8.57437e-10
-5.97218e-11
8.7072e-10
-5.38077e-11
8.82023e-10
-4.9345e-11
8.91835e-10
-4.64923e-11
9.00701e-10
-4.54799e-11
9.09244e-10
-4.66336e-11
9.18178e-10
-5.03703e-11
9.28308e-10
-5.72107e-11
9.40486e-10
-6.78578e-11
9.55594e-10
-8.33613e-11
9.70034e-10
-1.15362e-10
9.63009e-10
-2.09735e-10
9.30272e-10
-3.31245e-10
8.79448e-10
-4.5362e-10
8.1954e-10
-5.72721e-10
7.57733e-10
-7.06796e-10
6.96606e-10
-8.4577e-10
6.27882e-10
-9.8434e-10
5.61824e-10
-1.09053e-09
5.0984e-10
-1.1778e-09
4.71772e-10
-1.25668e-09
4.46103e-10
-1.32657e-09
4.31503e-10
-1.3827e-09
4.25903e-10
-1.42606e-09
4.2629e-10
-1.45544e-09
4.29199e-10
-1.46868e-09
4.3108e-10
-1.46458e-09
4.28308e-10
-1.44099e-09
4.18032e-10
-1.39723e-09
3.98574e-10
-1.33349e-09
3.7e-10
-1.25138e-09
3.34155e-10
-1.15359e-09
2.93879e-10
-1.04297e-09
2.54969e-10
-9.23471e-10
2.23907e-10
-8.00152e-10
2.08988e-10
-6.74384e-10
2.17413e-10
-5.49558e-10
2.57907e-10
-4.18133e-10
3.36626e-10
-2.7599e-10
4.55233e-10
-1.19581e-10
6.09144e-10
5.0924e-11
7.90361e-10
2.47745e-10
9.8192e-10
4.34751e-10
1.17013e-09
6.32664e-10
1.34096e-09
8.0585e-10
1.4866e-09
9.64189e-10
1.60331e-09
1.10193e-09
1.6914e-09
1.21085e-09
1.75361e-09
1.29645e-09
1.79435e-09
1.36104e-09
1.81939e-09
1.40574e-09
1.83417e-09
1.43262e-09
1.84313e-09
1.44496e-09
1.85041e-09
1.44505e-09
1.85906e-09
1.43552e-09
1.87103e-09
1.41794e-09
1.88735e-09
1.39319e-09
1.90887e-09
1.35725e-09
1.93553e-09
1.31515e-09
1.96699e-09
1.26408e-09
2.00377e-09
1.19822e-09
2.04545e-09
1.10564e-09
2.09169e-09
1.00215e-09
2.14233e-09
8.53186e-10
2.19643e-09
6.79388e-10
2.25255e-09
4.31899e-10
2.30816e-09
1.59679e-10
2.35857e-09
-1.37148e-10
2.40123e-09
-4.46019e-10
2.43068e-09
-7.06801e-10
2.4455e-09
-8.97274e-10
2.4434e-09
-1.04838e-09
2.42513e-09
-1.13135e-09
2.39173e-09
-1.19671e-09
2.34662e-09
-1.22315e-09
2.29309e-09
-1.23983e-09
2.23463e-09
-1.25949e-09
2.17308e-09
-1.2677e-09
2.1093e-09
-1.27647e-09
2.04166e-09
-1.28102e-09
1.96711e-09
-1.27706e-09
1.88204e-09
-1.2613e-09
1.78328e-09
-1.23028e-09
1.66951e-09
-1.18559e-09
1.54179e-09
-1.13058e-09
1.40375e-09
-1.07131e-09
1.26055e-09
-1.01314e-09
1.11742e-09
-9.55819e-10
9.79267e-10
-9.01587e-10
8.48945e-10
-8.48149e-10
7.2915e-10
-7.89277e-10
6.23945e-10
-7.15926e-10
5.36037e-10
-6.38891e-10
4.71364e-10
-5.45172e-10
4.34166e-10
-4.48616e-10
4.31088e-10
-3.3749e-10
4.67342e-10
-2.12295e-10
5.43383e-10
-7.27436e-11
6.56328e-10
8.27058e-11
7.99593e-10
2.64928e-10
9.59496e-10
4.4558e-10
1.12185e-09
6.32599e-10
1.27357e-09
8.02655e-10
1.40514e-09
9.67968e-10
1.51176e-09
1.10094e-09
1.5917e-09
1.21365e-09
1.64655e-09
1.30534e-09
1.68091e-09
1.37147e-09
1.70011e-09
1.4162e-09
1.70993e-09
1.44251e-09
1.71504e-09
1.45398e-09
1.71979e-09
1.45211e-09
1.72731e-09
1.43997e-09
1.73984e-09
1.41861e-09
1.75926e-09
1.38847e-09
1.7856e-09
1.35278e-09
1.81941e-09
1.30806e-09
1.86075e-09
1.25396e-09
1.90983e-09
1.1801e-09
1.96666e-09
1.09597e-09
2.03054e-09
9.95465e-10
2.10199e-09
8.48749e-10
2.17904e-09
6.91153e-10
2.25982e-09
4.67077e-10
2.34143e-09
2.11676e-10
2.41765e-09
-7.02458e-11
2.48414e-09
-3.74498e-10
2.5344e-09
-6.50646e-10
2.56571e-09
-8.57889e-10
2.57558e-09
-1.01359e-09
2.56531e-09
-1.11795e-09
2.53643e-09
-1.17788e-09
2.49362e-09
-1.20883e-09
2.44057e-09
-1.23752e-09
2.38119e-09
-1.24668e-09
2.31799e-09
-1.25553e-09
2.251e-09
-1.2614e-09
2.17825e-09
-1.26407e-09
2.096e-09
-1.25401e-09
1.99285e-09
-1.20109e-09
1.86528e-09
-1.1273e-09
1.71844e-09
-1.0581e-09
1.55569e-09
-9.75237e-10
1.40446e-09
-6.63272e-10
1.26213e-09
-5.2051e-10
1.13421e-09
-4.27931e-10
1.02873e-09
-3.34787e-10
9.52538e-10
-2.66523e-10
9.0753e-10
-1.95957e-10
8.92983e-10
-1.26207e-10
9.00633e-10
-9.03689e-11
9.16932e-10
-1.02451e-10
9.37776e-10
-1.08457e-10
9.60803e-10
-1.07694e-10
9.84488e-10
-1.02548e-10
1.00779e-09
-9.48833e-11
1.02998e-09
-8.6041e-11
1.05061e-09
-7.69754e-11
1.06943e-09
-6.82874e-11
1.08635e-09
-6.02696e-11
1.10133e-09
-5.29659e-11
1.11437e-09
-4.62411e-11
1.12545e-09
-3.9843e-11
1.13449e-09
-3.34108e-11
1.14129e-09
-2.64549e-11
1.14548e-09
-1.83182e-11
1.14642e-09
-8.11169e-12
1.14311e-09
5.35417e-12
1.13398e-09
2.38486e-11
1.11673e-09
4.95476e-11
1.08797e-09
8.55847e-11
1.04316e-09
1.36144e-10
9.76095e-10
2.06438e-10
8.78844e-10
3.02728e-10
7.43029e-10
4.31379e-10
5.63721e-10
5.94691e-10
3.4915e-10
7.80343e-10
1.36794e-10
9.37529e-10
1.43916e-12
9.36956e-10
5.38211e-10
-4.92686e-11
-1.95507e-10
-9.22818e-11
-3.66435e-10
-1.03727e-10
-4.41241e-10
-8.66221e-11
-4.63143e-10
-4.90404e-11
-4.5444e-10
7.68355e-13
-4.28168e-10
5.64844e-11
-3.93877e-10
1.13868e-10
-3.57214e-10
1.70286e-10
-3.21247e-10
2.24129e-10
-2.87413e-10
2.74462e-10
-2.5628e-10
3.20801e-10
-2.2797e-10
3.62957e-10
-2.02377e-10
4.00922e-10
-1.79311e-10
4.34797e-10
-1.58567e-10
4.64758e-10
-1.3995e-10
4.91035e-10
-1.23288e-10
5.13891e-10
-1.08447e-10
5.33616e-10
-9.53351e-11
5.50524e-10
-8.39051e-11
5.64959e-10
-7.41569e-11
5.77302e-10
-6.61508e-11
5.87975e-10
-6.00186e-11
5.97457e-10
-5.59742e-11
6.0627e-10
-5.42925e-11
6.15061e-10
-5.5425e-11
6.24518e-10
-5.98276e-11
6.35464e-10
-6.81561e-11
6.48817e-10
-8.12105e-11
6.65497e-10
-1.00042e-10
6.82853e-10
-1.32718e-10
6.83895e-10
-2.10778e-10
6.65938e-10
-3.13289e-10
6.35726e-10
-4.23408e-10
6.0024e-10
-5.37235e-10
5.62953e-10
-6.6951e-10
5.25102e-10
-8.07918e-10
4.81222e-10
-9.4046e-10
4.4027e-10
-1.04958e-09
4.1052e-10
-1.14805e-09
3.91691e-10
-1.23785e-09
3.82279e-10
-1.31716e-09
3.81063e-10
-1.38148e-09
3.85803e-10
-1.4308e-09
3.93363e-10
-1.463e-09
4.00347e-10
-1.47567e-09
4.03494e-10
-1.46773e-09
3.99949e-10
-1.43745e-09
3.87867e-10
-1.38514e-09
3.66675e-10
-1.3123e-09
3.37324e-10
-1.22203e-09
3.02194e-10
-1.11846e-09
2.64567e-10
-1.00534e-09
2.29389e-10
-8.88293e-10
2.01718e-10
-7.72481e-10
1.87339e-10
-6.60005e-10
1.91332e-10
-5.53552e-10
2.20201e-10
-4.47003e-10
2.80156e-10
-3.35944e-10
3.7576e-10
-2.15185e-10
5.08537e-10
-8.18514e-11
6.77016e-10
7.92691e-11
8.69762e-10
2.42009e-10
1.07579e-09
4.26639e-10
1.27951e-09
6.02121e-10
1.46907e-09
7.74615e-10
1.63503e-09
9.35952e-10
1.77209e-09
1.07378e-09
1.87822e-09
1.19033e-09
1.95377e-09
1.28551e-09
2.0033e-09
1.35622e-09
2.03237e-09
1.40357e-09
2.04674e-09
1.4306e-09
2.05237e-09
1.43942e-09
2.05477e-09
1.43312e-09
2.05789e-09
1.41481e-09
2.0647e-09
1.38637e-09
2.07731e-09
1.34463e-09
2.09643e-09
1.29603e-09
2.12203e-09
1.23848e-09
2.15486e-09
1.1654e-09
2.19434e-09
1.06616e-09
2.23963e-09
9.56856e-10
2.28996e-09
8.0286e-10
2.34354e-09
6.25812e-10
2.39773e-09
3.77703e-10
2.44902e-09
1.08393e-10
2.49158e-09
-1.79707e-10
2.52221e-09
-4.76651e-10
2.53544e-09
-7.20028e-10
2.53111e-09
-8.92947e-10
2.50829e-09
-1.02556e-09
2.46999e-09
-1.09306e-09
2.41875e-09
-1.14547e-09
2.35941e-09
-1.16381e-09
2.29529e-09
-1.17571e-09
2.229e-09
-1.1932e-09
2.16108e-09
-1.19978e-09
2.09031e-09
-1.20571e-09
2.01327e-09
-1.20398e-09
1.92584e-09
-1.18963e-09
1.82457e-09
-1.16003e-09
1.70785e-09
-1.11355e-09
1.57685e-09
-1.05459e-09
1.43544e-09
-9.89171e-10
1.28943e-09
-9.25302e-10
1.14494e-09
-8.6865e-10
1.00689e-09
-8.17772e-10
8.78772e-10
-7.73476e-10
7.61824e-10
-7.31202e-10
6.57184e-10
-6.84636e-10
5.67267e-10
-6.26008e-10
4.93329e-10
-5.64952e-10
4.39488e-10
-4.9133e-10
4.0838e-10
-4.17508e-10
4.04758e-10
-3.33868e-10
4.33304e-10
-2.40841e-10
4.96635e-10
-1.36074e-10
5.96203e-10
-1.68625e-11
7.30971e-10
1.30162e-10
8.92304e-10
2.84249e-10
1.06954e-09
4.55363e-10
1.24933e-09
6.22859e-10
1.4198e-09
7.97498e-10
1.57129e-09
9.4945e-10
1.69725e-09
1.08768e-09
1.79438e-09
1.20821e-09
1.86284e-09
1.30302e-09
1.90632e-09
1.37272e-09
1.93066e-09
1.41817e-09
1.94149e-09
1.44316e-09
1.94505e-09
1.44855e-09
1.94691e-09
1.43811e-09
1.95121e-09
1.41431e-09
1.96182e-09
1.37786e-09
1.97982e-09
1.33478e-09
2.00666e-09
1.28121e-09
2.04281e-09
1.21781e-09
2.0885e-09
1.13442e-09
2.14346e-09
1.04101e-09
2.20638e-09
9.32542e-10
2.27718e-09
7.77953e-10
2.353e-09
6.15337e-10
2.43063e-09
3.89445e-10
2.50613e-09
1.36174e-10
2.57202e-09
-1.3614e-10
2.62326e-09
-4.25733e-10
2.6533e-09
-6.80682e-10
2.66104e-09
-8.65627e-10
2.64566e-09
-9.98217e-10
2.61116e-09
-1.08345e-09
2.56138e-09
-1.12809e-09
2.50228e-09
-1.14972e-09
2.43715e-09
-1.17239e-09
2.3692e-09
-1.17875e-09
2.29896e-09
-1.1853e-09
2.22398e-09
-1.18643e-09
2.14014e-09
-1.18023e-09
2.04254e-09
-1.15641e-09
1.92126e-09
-1.07978e-09
1.77542e-09
-9.81445e-10
1.61248e-09
-8.95148e-10
1.43867e-09
-8.01433e-10
1.28736e-09
-5.11965e-10
1.15134e-09
-3.84504e-10
1.03316e-09
-3.09766e-10
9.37946e-10
-2.39571e-10
8.68263e-10
-1.96839e-10
8.24198e-10
-1.5189e-10
8.04866e-10
-1.06874e-10
8.03175e-10
-8.86775e-11
8.07793e-10
-1.07068e-10
8.1647e-10
-1.17134e-10
8.27942e-10
-1.19166e-10
8.41125e-10
-1.15731e-10
8.55258e-10
-1.09016e-10
8.69611e-10
-1.00394e-10
8.83617e-10
-9.09816e-11
8.96847e-10
-8.15167e-11
9.08979e-10
-7.24022e-11
9.19781e-10
-6.3768e-11
9.29079e-10
-5.55387e-11
9.36717e-10
-4.74808e-11
9.42512e-10
-3.92067e-11
9.46205e-10
-3.01473e-11
9.47383e-10
-1.94965e-11
9.45397e-10
-6.1257e-12
9.39211e-10
1.15403e-11
9.27353e-10
3.57066e-11
9.0758e-10
6.93206e-11
8.76782e-10
1.16383e-10
8.30785e-10
1.8214e-10
7.6417e-10
2.73053e-10
6.70656e-10
3.96242e-10
5.45028e-10
5.57007e-10
3.87874e-10
7.51845e-10
2.14416e-10
9.53801e-10
6.28042e-11
1.08914e-09
-1.21632e-11
1.01192e-09
5.26048e-10
-3.73527e-11
-1.58155e-10
-8.35777e-11
-3.2021e-10
-1.13961e-10
-4.10858e-10
-1.2358e-10
-4.53523e-10
-1.15469e-10
-4.62551e-10
-9.3866e-11
-4.49771e-10
-6.36991e-11
-4.24044e-10
-2.87773e-11
-3.92136e-10
8.20799e-12
-3.58233e-10
4.53806e-11
-3.24585e-10
8.14935e-11
-2.92393e-10
1.1576e-10
-2.62237e-10
1.47707e-10
-2.34324e-10
1.77071e-10
-2.08674e-10
2.03737e-10
-1.85234e-10
2.27702e-10
-1.63915e-10
2.49042e-10
-1.44628e-10
2.67892e-10
-1.27297e-10
2.84438e-10
-1.11882e-10
2.98911e-10
-9.83781e-11
3.11588e-10
-8.68337e-11
3.22795e-10
-7.73576e-11
3.3291e-10
-7.01335e-11
3.4237e-10
-6.5435e-11
3.51696e-10
-6.36176e-11
3.61459e-10
-6.51881e-11
3.72347e-10
-7.07163e-11
3.85141e-10
-8.09502e-11
4.00729e-10
-9.67983e-11
4.20038e-10
-1.1935e-10
4.4136e-10
-1.5404e-10
4.52226e-10
-2.21644e-10
4.50618e-10
-3.1168e-10
4.41157e-10
-4.13947e-10
4.28302e-10
-5.24381e-10
4.12983e-10
-6.5419e-10
3.95846e-10
-7.90782e-10
3.73802e-10
-9.18416e-10
3.54293e-10
-1.03007e-09
3.43229e-10
-1.13698e-09
3.4029e-10
-1.23491e-09
3.43903e-10
-1.32078e-09
3.5276e-10
-1.39034e-09
3.64493e-10
-1.44253e-09
3.76017e-10
-1.47452e-09
3.84238e-10
-1.48389e-09
3.86446e-10
-1.46994e-09
3.80642e-10
-1.43164e-09
3.6592e-10
-1.37042e-09
3.42583e-10
-1.28896e-09
3.12182e-10
-1.19163e-09
2.77332e-10
-1.08361e-09
2.41246e-10
-9.69258e-10
2.07949e-10
-8.54996e-10
1.81191e-10
-7.45724e-10
1.64932e-10
-6.43746e-10
1.62614e-10
-5.51233e-10
1.79022e-10
-4.63411e-10
2.1951e-10
-3.76431e-10
2.89439e-10
-2.85113e-10
3.93301e-10
-1.85712e-10
5.3506e-10
-6.24878e-11
7.09748e-10
6.73217e-11
9.12208e-10
2.24174e-10
1.12956e-09
3.84757e-10
1.34994e-09
5.5423e-10
1.5608e-09
7.25086e-10
1.7514e-09
8.83179e-10
1.91516e-09
1.02658e-09
2.04708e-09
1.1536e-09
2.14631e-09
1.25701e-09
2.21443e-09
1.33546e-09
2.25661e-09
1.38841e-09
2.27848e-09
1.41755e-09
2.28758e-09
1.424e-09
2.28963e-09
1.41275e-09
2.29057e-09
1.38542e-09
2.29418e-09
1.34102e-09
2.30304e-09
1.28717e-09
2.31827e-09
1.22325e-09
2.34151e-09
1.14216e-09
2.37231e-09
1.03537e-09
2.40988e-09
9.19294e-10
2.45279e-09
7.59949e-10
2.49867e-09
5.79929e-10
2.54359e-09
3.32784e-10
2.58326e-09
6.8726e-11
2.61091e-09
-2.07363e-10
2.62307e-09
-4.88805e-10
2.61489e-09
-7.11849e-10
2.58792e-09
-8.65982e-10
2.54288e-09
-9.80516e-10
2.4848e-09
-1.03497e-09
2.41726e-09
-1.07794e-09
2.34565e-09
-1.09219e-09
2.27261e-09
-1.10267e-09
2.19916e-09
-1.11975e-09
2.12395e-09
-1.12457e-09
2.0438e-09
-1.12557e-09
1.95416e-09
-1.11434e-09
1.85096e-09
-1.08643e-09
1.73219e-09
-1.04126e-09
1.59875e-09
-9.80116e-10
1.45471e-09
-9.10546e-10
1.30624e-09
-8.407e-10
1.16018e-09
-7.79244e-10
1.02215e-09
-7.30615e-10
8.95463e-10
-6.91092e-10
7.81462e-10
-6.59478e-10
6.79536e-10
-6.29278e-10
5.89408e-10
-5.94509e-10
5.12317e-10
-5.48916e-10
4.48598e-10
-5.01232e-10
4.01248e-10
-4.43979e-10
3.71902e-10
-3.88162e-10
3.64172e-10
-3.26138e-10
3.82179e-10
-2.58848e-10
4.29313e-10
-1.83208e-10
5.09118e-10
-9.66677e-11
6.24675e-10
1.46064e-11
7.72444e-10
1.36481e-10
9.47106e-10
2.80699e-10
1.1384e-09
4.31558e-10
1.33572e-09
6.00182e-10
1.52661e-09
7.58558e-10
1.70094e-09
9.13347e-10
1.85153e-09
1.05763e-09
1.9731e-09
1.18145e-09
2.06383e-09
1.28199e-09
2.12565e-09
1.35636e-09
2.16343e-09
1.40539e-09
2.18327e-09
1.42871e-09
2.19234e-09
1.42905e-09
2.19647e-09
1.41017e-09
2.20236e-09
1.37197e-09
2.21264e-09
1.3245e-09
2.23056e-09
1.26329e-09
2.2577e-09
1.19067e-09
2.29479e-09
1.09732e-09
2.34196e-09
9.93847e-10
2.39751e-09
8.76988e-10
2.4606e-09
7.14867e-10
2.52783e-09
5.48103e-10
2.59449e-09
3.22787e-10
2.65584e-09
7.48285e-11
2.70342e-09
-1.8372e-10
2.73192e-09
-4.54233e-10
2.73568e-09
-6.84449e-10
2.71586e-09
-8.458e-10
2.67445e-09
-9.56804e-10
2.61748e-09
-1.02648e-09
2.54995e-09
-1.06056e-09
2.47811e-09
-1.07788e-09
2.40405e-09
-1.09833e-09
2.32901e-09
-1.10372e-09
2.25086e-09
-1.10716e-09
2.16489e-09
-1.10047e-09
2.06574e-09
-1.0811e-09
1.94891e-09
-1.03958e-09
1.80776e-09
-9.38631e-10
1.64509e-09
-8.18752e-10
1.4705e-09
-7.2054e-10
1.29233e-09
-6.23259e-10
1.14563e-09
-3.65267e-10
1.01953e-09
-2.58414e-10
9.13168e-10
-2.03408e-10
8.28562e-10
-1.54969e-10
7.65101e-10
-1.33379e-10
7.21942e-10
-1.08729e-10
6.98284e-10
-8.32146e-11
6.88167e-10
-7.85605e-11
6.82266e-10
-1.01166e-10
6.79657e-10
-1.14526e-10
6.79949e-10
-1.19457e-10
6.82555e-10
-1.18337e-10
6.8694e-10
-1.13401e-10
6.92483e-10
-1.05937e-10
6.98622e-10
-9.71202e-11
7.04848e-10
-8.77428e-11
7.10722e-10
-7.82766e-11
7.15878e-10
-6.89238e-11
7.20008e-10
-5.96691e-11
7.22837e-10
-5.03097e-11
7.24078e-10
-4.0448e-11
7.23383e-10
-2.94514e-11
7.20266e-10
-1.63795e-11
7.14019e-10
1.21048e-13
7.03589e-10
2.19697e-11
6.87486e-10
5.18097e-11
6.63599e-10
9.32081e-11
6.29128e-10
1.50854e-10