/*--------------------------------*- C++ -*----------------------------------*\
| =========                 |                                                 |
| \\      /  F ield         | OpenFOAM: The Open Source CFD Toolbox           |
|  \\    /   O peration     | Version:  2506                                  |
|   \\  /    A nd           | Website:  www.openfoam.com                      |
|    \\/     M anipulation  |                                                 |
\*---------------------------------------------------------------------------*/
FoamFile
{
    version     2.0;
    format      ascii;
    arch        "LSB;label=32;scalar=64";
    class       volVectorField;
    location    "0.95";
    object      U;
}
// * * * * * * * * * * * * * * * * * * * * * * * * * * * * * * * * * * * * * //

dimensions      [0 1 -1 0 0 0 0];

internalField   nonuniform List<vector> 
4000
(
(0.00175095 -0.000704105 6.12019e-23)
(0.00226332 -0.000506081 0)
(0.00311836 -0.000230889 3.09762e-23)
(0.00372576 -0.000123534 2.58755e-23)
(0.0041084 -7.78665e-05 2.26896e-23)
(0.00438029 -5.05775e-05 0)
(0.00458629 -3.37732e-05 1.97939e-23)
(0.00474519 -2.34156e-05 1.94018e-23)
(0.00487007 -1.67019e-05 0)
(0.00497016 -1.21325e-05 0)
(0.00505162 -8.89795e-06 3.50992e-22)
(0.00511884 -6.51774e-06 -6.74887e-22)
(0.00517503 -4.71284e-06 3.22118e-22)
(0.00522239 -3.28372e-06 -3.83441e-22)
(0.00526278 -2.09473e-06 3.82173e-22)
(0.00529759 -1.0776e-06 2.60906e-23)
(0.0053279 -1.92053e-07 4.60327e-22)
(0.00535468 5.91375e-07 -4.58893e-22)
(0.00537869 1.29259e-06 3.1574e-23)
(0.0054007 1.92083e-06 0)
(0.00542141 2.47843e-06 0)
(0.00544149 2.97015e-06 -3.88342e-23)
(0.00546169 3.40327e-06 -4.17267e-23)
(0.00548282 3.76518e-06 0)
(0.00550588 4.03158e-06 -4.83682e-23)
(0.00553207 4.15171e-06 -5.2184e-23)
(0.0055629 4.03981e-06 0)
(0.00560042 3.51811e-06 0)
(0.00564747 2.23918e-06 2.2397e-21)
(0.00571018 -8.23268e-07 -2.30267e-21)
(0.00579457 -1.13754e-05 0)
(0.00585811 -4.37232e-05 -5.75754e-21)
(0.00587014 -0.000101903 9.03778e-21)
(0.00583704 -0.000183165 -3.23705e-22)
(0.00577389 -0.000285687 -4.27566e-21)
(0.00569268 -0.000412894 6.41845e-20)
(0.00562032 -0.000569062 -7.51657e-22)
(0.00553778 -0.00078496 -1.36953e-20)
(0.00538127 -0.00105991 0)
(0.00518445 -0.00133687 5.08954e-21)
(0.0050202 -0.00157666 -5.14253e-21)
(0.0048861 -0.00177917 4.07141e-20)
(0.00477376 -0.00194515 0)
(0.00468383 -0.00207079 3.42387e-20)
(0.00461578 -0.00215409 -1.41802e-20)
(0.0045654 -0.00219645 1.94965e-20)
(0.0045285 -0.00219884 0)
(0.00450313 -0.00216606 -1.81208e-20)
(0.00447796 -0.00210675 -1.86334e-20)
(0.00444028 -0.00203023 -1.35066e-20)
(0.00437393 -0.00194321 0)
(0.0042742 -0.00184019 0)
(0.00413818 -0.00172771 -1.49332e-21)
(0.00395271 -0.00158301 1.14004e-20)
(0.00375195 -0.00139132 1.90984e-21)
(0.00358121 -0.00112846 -6.26147e-21)
(0.00351303 -0.000800002 -2.78395e-21)
(0.00362561 -0.000413975 3.89329e-22)
(0.00397558 -4.64564e-05 0)
(0.00447782 0.000202189 6.54095e-22)
(0.00498952 0.000334762 2.16409e-21)
(0.0054608 0.000366223 -7.19181e-22)
(0.00580458 0.000344465 -9.37852e-21)
(0.00605306 0.000303381 9.63869e-21)
(0.00620965 0.0002648 0)
(0.00630622 0.000237235 0)
(0.00636413 0.000220594 0)
(0.00639665 0.000213056 1.54989e-21)
(0.00641691 0.000210865 2.28194e-20)
(0.00643025 0.000211254 1.26027e-20)
(0.00644086 0.000212388 0)
(0.0064502 0.000213105 -1.11662e-20)
(0.00645909 0.00021244 1.11641e-20)
(0.00646808 0.000209447 1.15066e-21)
(0.00647773 0.000204353 -1.21587e-20)
(0.00648759 0.000197492 1.07594e-20)
(0.00649733 0.000188961 1.20003e-20)
(0.00650534 0.000179378 1.12608e-20)
(0.0065129 0.000168723 0)
(0.00651985 0.00015697 0)
(0.00652646 0.000143926 -2.90103e-22)
(0.0065295 0.000130239 -8.54274e-21)
(0.00653392 0.00011514 0)
(0.00653585 9.89394e-05 6.50537e-21)
(0.0065394 8.10885e-05 -5.24996e-21)
(0.00654191 6.11646e-05 0)
(0.00654842 4.08454e-05 0)
(0.00656074 2.13086e-05 -1.22906e-23)
(0.00658738 5.05165e-06 1.30062e-22)
(0.00663708 -3.1424e-09 -7.66145e-22)
(0.0067078 1.56877e-05 8.51066e-23)
(0.00679737 5.76166e-05 -6.2596e-23)
(0.00689106 0.000124528 -3.39383e-22)
(0.00698234 0.000209473 0)
(0.00706177 0.00030088 8.31459e-21)
(0.00711668 0.000385427 9.10701e-21)
(0.00714615 0.000453947 9.92167e-21)
(0.00714942 0.000498431 6.91087e-22)
(0.00712878 0.000515271 1.11137e-20)
(0.00709015 0.000506145 1.22217e-20)
(0.00703963 0.000475494 -1.97591e-22)
(0.00698145 0.000427961 1.33067e-20)
(0.00691539 0.000366022 2.60327e-20)
(0.00683729 0.000289038 6.32427e-22)
(0.00673832 0.000193034 1.24944e-20)
(0.00660915 7.31373e-05 0)
(0.0064419 -7.37814e-05 -1.24237e-20)
(0.0062268 -0.000247101 -1.11949e-20)
(0.00596972 -0.000438058 -7.83825e-22)
(0.00567249 -0.000628563 0)
(0.00533676 -0.000799581 -9.54734e-21)
(0.00496995 -0.000924923 8.32159e-21)
(0.00460421 -0.000974959 0)
(0.0042488 -0.000906806 1.09981e-20)
(0.0039876 -0.000733849 1.71795e-21)
(0.00387396 -0.000455443 1.35522e-21)
(0.00399964 -0.000126474 0)
(0.00433946 0.000149237 -9.39494e-22)
(0.0047828 0.00032851 2.23606e-22)
(0.00524613 0.000393306 6.15866e-23)
(0.00562688 0.000385604 -2.71569e-22)
(0.00591194 0.000345398 1.04333e-20)
(0.00610046 0.000300921 -1.19785e-20)
(0.00622469 0.000264676 -7.9086e-22)
(0.00629672 0.000241425 -1.14157e-20)
(0.00634016 0.000229696 2.49839e-20)
(0.00636768 0.00022561 -1.26832e-20)
(0.00638286 0.000226028 1.40555e-20)
(0.00639239 0.000227461 -5.34835e-22)
(0.00640065 0.000228395 1.26333e-20)
(0.00640842 0.000227876 0)
(0.00641599 0.000225646 -1.40601e-20)
(0.00642369 0.000220673 2.22834e-21)
(0.00643109 0.000213313 -1.55026e-20)
(0.00643833 0.000203855 0)
(0.00644534 0.000192483 0)
(0.00645212 0.000179225 1.26218e-20)
(0.00645925 0.000163758 -1.16216e-20)
(0.00646375 0.000146756 0)
(0.00646929 0.000127762 0)
(0.00647624 0.000106062 -9.47145e-21)
(0.00648013 8.22477e-05 1.94878e-21)
(0.0064889 5.61354e-05 -8.83583e-21)
(0.00649766 2.78835e-05 0)
(0.00651026 -8.75877e-07 3.42894e-21)
(0.00652819 -2.82591e-05 1.4964e-21)
(0.00655584 -5.17265e-05 -5.63274e-22)
(0.0066017 -6.41165e-05 1.8827e-22)
(0.00667037 -5.62689e-05 0)
(0.00675693 -2.42468e-05 8.32443e-22)
(0.00685266 3.68262e-05 2.8591e-22)
(0.00694795 0.000117213 -7.57516e-21)
(0.00703117 0.000207696 1.39537e-21)
(0.007097 0.000299942 1.3288e-22)
(0.00713753 0.000379372 5.77261e-21)
(0.0071488 0.000436276 2.04568e-21)
(0.00713242 0.000465731 0)
(0.00709418 0.000467841 0)
(0.00703975 0.000445168 0)
(0.00697025 0.000399164 -1.97327e-20)
(0.00688321 0.00033152 2.49696e-21)
(0.00676983 0.000249665 9.1554e-21)
(0.00664359 0.000169827 7.05971e-21)
(0.00632521 4.20334e-05 0)
(0.00596762 -0.000114765 -8.55129e-21)
(0.00560771 -0.000245577 -1.28661e-20)
(0.00526362 -0.000306967 -2.98363e-22)
(0.00499271 -0.000293775 -1.52926e-21)
(0.00483316 -0.000218043 -3.19363e-21)
(0.00483978 -0.00010993 -9.44313e-22)
(0.00497707 -3.40145e-05 0)
(0.00511413 -1.43547e-05 -7.35495e-24)
(0.00521232 -9.89598e-06 0)
(0.00529135 -7.79082e-06 -4.97692e-24)
(0.00535798 -6.26015e-06 -4.17925e-24)
(0.0054132 -4.90661e-06 -2.14941e-22)
(0.00545807 -3.68186e-06 2.14038e-22)
(0.00549408 -2.61758e-06 7.87184e-23)
(0.0055226 -1.72951e-06 -8.08831e-23)
(0.00554492 -9.85659e-07 5.71264e-23)
(0.0055622 -3.55684e-07 -1.11554e-22)
(0.00557526 1.90774e-07 4.92513e-23)
(0.00558473 7.06572e-07 0)
(0.00559092 1.24743e-06 -9.98753e-25)
(0.00559382 1.86471e-06 7.56936e-25)
(0.00559304 2.69683e-06 -1.16619e-23)
(0.00558775 3.81847e-06 1.094e-23)
(0.00557655 5.34839e-06 1.05262e-23)
(0.00555725 7.43649e-06 -9.9805e-24)
(0.00552689 1.03821e-05 2.28126e-23)
(0.0054813 1.4352e-05 -2.00439e-23)
(0.00541513 1.94135e-05 2.57131e-24)
(0.00532129 2.60092e-05 3.70743e-24)
(0.00518996 3.49756e-05 0)
(0.0050056 4.79032e-05 7.14572e-24)
(0.00474452 6.91103e-05 9.70031e-24)
(0.00435851 0.000109928 1.36444e-22)
(0.00372779 0.00020764 -1.4195e-22)
(0.00268634 0.000478351 0)
(0.00197782 0.000752758 3.65584e-23)
(-1.85177e-05 -0.00145716 -1.94585e-23)
(2.81735e-05 -0.00134702 3.04623e-23)
(0.000691695 -0.000954105 -3.52811e-23)
(0.00134932 -0.000698092 1.41153e-22)
(0.00191029 -0.000525368 -3.37467e-22)
(0.00238563 -0.000403276 1.16769e-23)
(0.00278677 -0.000315996 1.63158e-22)
(0.00312306 -0.000252189 -6.6424e-23)
(0.00340473 -0.000204362 -4.43707e-23)
(0.00364139 -0.000167822 -4.48158e-23)
(0.00384065 -0.000139475 -6.84861e-23)
(0.00400927 -0.00011716 -4.34115e-22)
(0.00415219 -9.93108e-05 4.09106e-22)
(0.0042732 -8.48505e-05 -4.24803e-22)
(0.00437587 -7.30672e-05 8.16722e-22)
(0.00446299 -6.34328e-05 -1.00691e-21)
(0.00453677 -5.55753e-05 4.11879e-22)
(0.00459918 -4.92332e-05 -6.01212e-22)
(0.00465179 -4.42444e-05 -7.14066e-22)
(0.00469623 -4.05384e-05 1.06732e-21)
(0.00473393 -3.80789e-05 -7.83358e-23)
(0.00476619 -3.68714e-05 -1.44652e-21)
(0.00479438 -3.7003e-05 1.44551e-21)
(0.00481995 -3.86703e-05 1.52601e-21)
(0.00484452 -4.2172e-05 -1.5636e-21)
(0.00486999 -4.79121e-05 -5.4861e-23)
(0.0048986 -5.64524e-05 -2.03557e-21)
(0.00493309 -6.88311e-05 -4.51782e-23)
(0.00497675 -8.67507e-05 4.5806e-21)
(0.00503463 -0.000113213 2.96673e-22)
(0.00511133 -0.000154608 -2.57609e-21)
(0.00517298 -0.000225773 -3.04704e-21)
(0.00517293 -0.000331587 -9.58442e-21)
(0.00510371 -0.000472372 -2.06835e-20)
(0.00498478 -0.000655636 -1.52284e-20)
(0.00484083 -0.000895037 -1.73717e-20)
(0.00469839 -0.00120236 3.3242e-21)
(0.00454999 -0.00158838 1.43842e-20)
(0.00433484 -0.00202763 -4.78672e-21)
(0.00409046 -0.00245853 -1.40051e-20)
(0.00389138 -0.00284064 -1.91761e-20)
(0.00373153 -0.00316626 -2.0779e-20)
(0.00360226 -0.00342982 0)
(0.00350615 -0.0036238 -4.10387e-20)
(0.00344102 -0.00374526 2.01514e-20)
(0.00339961 -0.00379588 -2.04042e-20)
(0.00337278 -0.00377974 1.97919e-20)
(0.00335241 -0.00370619 0)
(0.00332091 -0.00358761 1.54486e-21)
(0.0032612 -0.00343471 1.65577e-20)
(0.0031566 -0.00325402 -1.57246e-20)
(0.00299818 -0.00304861 1.77921e-21)
(0.00278992 -0.00282365 1.28713e-20)
(0.00252202 -0.00256828 -2.63959e-21)
(0.00224176 -0.00225438 1.06664e-20)
(0.00199747 -0.00185343 0)
(0.00186483 -0.0013785 2.70935e-21)
(0.00191707 -0.000829126 -8.31465e-22)
(0.0022316 -0.000269992 5.11609e-23)
(0.0027794 0.000188528 -6.16788e-22)
(0.00348193 0.000493682 -2.73418e-21)
(0.00423358 0.000649182 -7.58893e-21)
(0.00488862 0.000665637 -9.65655e-21)
(0.00542261 0.000617233 -1.13135e-20)
(0.00580279 0.00054285 1.47581e-21)
(0.00606354 0.000475873 -1.44089e-21)
(0.00622825 0.000432769 0)
(0.00631652 0.000415761 0)
(0.00635815 0.000420002 -2.62788e-20)
(0.00637212 0.000436776 1.27779e-20)
(0.00636924 0.00045923 1.69139e-21)
(0.00635889 0.000480276 -1.63943e-20)
(0.0063478 0.00049794 -1.13522e-20)
(0.00633946 0.000506037 -1.55992e-20)
(0.00633497 0.000504358 9.17062e-22)
(0.00633531 0.000493599 8.36375e-22)
(0.00634037 0.000474672 1.38608e-20)
(0.00634823 0.000448415 -1.26049e-20)
(0.0063601 0.000415701 -7.43641e-22)
(0.00637504 0.00037768 -1.09767e-20)
(0.00639336 0.00033478 1.01985e-20)
(0.006413 0.000287368 0)
(0.00643888 0.000234813 0)
(0.00646892 0.000177206 0)
(0.00650948 0.00011576 5.65021e-21)
(0.0065623 5.18973e-05 -1.53691e-22)
(0.00663724 -9.33012e-06 1.22723e-22)
(0.00674166 -6.0594e-05 -1.28647e-22)
(0.00687975 -8.70464e-05 -6.91677e-23)
(0.00704468 -7.00604e-05 1.89445e-21)
(0.00722005 1.99929e-06 -2.39349e-22)
(0.00739432 0.000127872 -9.64922e-24)
(0.00754735 0.000295018 5.53518e-21)
(0.00767071 0.000484142 -7.09996e-21)
(0.00775402 0.00067151 8.13539e-21)
(0.00779236 0.000835218 -9.04918e-21)
(0.00779261 0.000959789 9.17369e-21)
(0.00776169 0.00103473 1.05617e-20)
(0.00770696 0.00105862 -1.17067e-20)
(0.00763579 0.0010372 -1.19538e-20)
(0.00755285 0.000979134 0)
(0.00745615 0.000891902 1.20553e-20)
(0.00733592 0.000777723 -1.32138e-20)
(0.00718258 0.000633472 3.96215e-22)
(0.006979 0.000451369 -1.62665e-21)
(0.00671409 0.00022365 0)
(0.00638188 -5.16577e-05 2.45471e-20)
(0.00598331 -0.000367245 2.43586e-20)
(0.00552711 -0.000701638 1.03165e-20)
(0.00502878 -0.00102101 8.86592e-21)
(0.00450158 -0.00128601 1.02667e-20)
(0.0039579 -0.00145357 -1.68078e-20)
(0.00344399 -0.0014943 4.70426e-22)
(0.00297083 -0.00140315 -5.93965e-21)
(0.00263125 -0.00116661 3.72313e-22)
(0.0024638 -0.000795237 -7.28651e-22)
(0.00254814 -0.000350211 2.55172e-23)
(0.00289236 7.07086e-05 9.70079e-22)
(0.00344069 0.000388905 2.28873e-22)
(0.0041084 0.000577123 -2.21577e-22)
(0.00475213 0.000628231 0)
(0.00530049 0.00059765 -1.17278e-20)
(0.00571784 0.000529347 -3.89804e-22)
(0.00601618 0.000461505 1.20307e-21)
(0.0062035 0.000414935 1.32367e-20)
(0.00630743 0.00039298 -1.44881e-20)
(0.00636069 0.000397446 -1.35713e-20)
(0.00637874 0.000419384 -2.89711e-20)
(0.00637482 0.000449401 -2.93792e-20)
(0.00636017 0.000478625 -1.35414e-20)
(0.00634381 0.000501732 -1.84527e-21)
(0.0063303 0.000517956 -1.42617e-20)
(0.00632238 0.000522363 2.93717e-20)
(0.00631975 0.0005162 -3.57938e-21)
(0.00632186 0.000500681 -1.0068e-20)
(0.00632792 0.000476817 0)
(0.00633835 0.00044498 0)
(0.00635299 0.000406266 8.45888e-22)
(0.00636918 0.000361691 2.79886e-21)
(0.00639075 0.000311448 7.55112e-21)
(0.00641752 0.000256187 2.27183e-21)
(0.00644735 0.000195369 -2.80273e-22)
(0.00648782 0.000130874 -3.05667e-21)
(0.00653755 6.41683e-05 2.88937e-21)
(0.00660632 -1.8202e-07 -3.55189e-21)
(0.00670123 -5.41311e-05 0)
(0.00682828 -8.89921e-05 -1.57482e-22)
(0.0069842 -8.72347e-05 1.55408e-22)
(0.00715781 -3.24513e-05 7.2057e-22)
(0.0073332 7.89243e-05 0)
(0.00749548 0.000237353 0)
(0.00763039 0.00042388 0)
(0.00772473 0.000614989 0)
(0.00777715 0.00078911 1.52071e-20)
(0.00778812 0.000926037 3.58438e-21)
(0.00776137 0.00101319 1.96144e-21)
(0.0077049 0.00104669 -2.22155e-21)
(0.00762727 0.00103042 -1.2971e-20)
(0.0075331 0.000971451 4.27216e-21)
(0.00741607 0.000874374 9.93038e-21)
(0.00726263 0.000744225 7.60984e-23)
(0.00706527 0.000593861 -7.39482e-21)
(0.00681789 0.000446641 2.04112e-21)
(0.00637724 0.000235387 -2.41617e-22)
(0.00588895 -1.41833e-05 -8.6949e-21)
(0.00539217 -0.00021859 7.40882e-21)
(0.00491168 -0.00034527 0)
(0.00451743 -0.000377296 0)
(0.00425536 -0.000332065 1.25657e-21)
(0.00417034 -0.00024427 7.11489e-22)
(0.0042377 -0.000170092 -6.76619e-22)
(0.00436735 -0.000138811 8.26268e-24)
(0.00450407 -0.00012146 -4.03412e-22)
(0.00463711 -0.000106269 3.94494e-22)
(0.00476139 -9.12595e-05 1.39232e-23)
(0.00487251 -7.67065e-05 2.4109e-22)
(0.00496882 -6.33513e-05 -3.51482e-23)
(0.00505082 -5.16207e-05 -1.2124e-22)
(0.00511932 -4.16389e-05 -8.07522e-23)
(0.00517614 -3.33246e-05 -6.44753e-23)
(0.00522306 -2.63973e-05 6.45683e-23)
(0.00526136 -2.05081e-05 -1.68197e-24)
(0.00529208 -1.52648e-05 4.00318e-23)
(0.00531576 -1.02149e-05 -4.11007e-23)
(0.0053324 -4.83289e-06 -8.38879e-25)
(0.00534132 1.51189e-06 -1.10502e-23)
(0.00534093 9.61289e-06 1.34802e-23)
(0.0053286 2.04491e-05 1.17732e-23)
(0.00530014 3.53797e-05 -1.34785e-23)
(0.00524937 5.61778e-05 2.12266e-23)
(0.00516755 8.49228e-05 -2.6513e-23)
(0.0050428 0.000123773 2.82144e-24)
(0.00485826 0.000176816 -1.23299e-23)
(0.00459124 0.000250661 -1.11323e-22)
(0.00420924 0.000354716 1.19724e-22)
(0.00367117 0.000507383 -3.24203e-23)
(0.00292323 0.000746154 -1.45991e-23)
(0.00190237 0.00113419 5.70601e-23)
(0.000667866 0.00169854 0)
(5.92901e-05 0.00182183 -9.67022e-23)
(-0.000139857 -0.00126335 0)
(-0.000335049 -0.00153136 -1.52151e-22)
(-6.6416e-05 -0.001375 7.12217e-23)
(0.000358513 -0.00117278 5.34004e-23)
(0.000820312 -0.000985534 -1.1194e-22)
(0.00126991 -0.000823518 1.94057e-22)
(0.00168478 -0.000688396 -1.92351e-22)
(0.00205643 -0.000577256 4.54747e-23)
(0.00238409 -0.000486056 4.52034e-23)
(0.00267045 -0.000411095 1.37508e-22)
(0.00291919 -0.000349252 4.66608e-23)
(0.0031344 -0.0002979 1.44529e-22)
(0.00331985 -0.000254833 -4.11314e-22)
(0.00347893 -0.000218447 9.44095e-22)
(0.00361477 -0.000187603 -3.73385e-22)
(0.00373009 -0.000161354 5.37072e-22)
(0.00382728 -0.000138954 -2.93049e-22)
(0.00390849 -0.000119866 1.94742e-22)
(0.00397568 -0.000103745 1.21818e-21)
(0.00403065 -9.03872e-05 -1.06932e-21)
(0.00407509 -7.96497e-05 7.95659e-23)
(0.00411064 -7.15046e-05 2.52309e-22)
(0.00413897 -6.60959e-05 -1.5051e-21)
(0.00416186 -6.3739e-05 1.59774e-21)
(0.00418125 -6.49062e-05 1.73891e-21)
(0.00419931 -7.03183e-05 -1.39701e-21)
(0.00421858 -8.08576e-05 -2.02025e-21)
(0.00424191 -9.78674e-05 1.87965e-21)
(0.00427228 -0.000123459 0)
(0.00431392 -0.000161168 0)
(0.00437039 -0.000216264 0)
(0.00440486 -0.00029784 0)
(0.00436888 -0.000416865 1.23091e-20)
(0.00426285 -0.000583897 1.67726e-20)
(0.00411802 -0.000812824 -1.74947e-20)
(0.00396372 -0.00111832 3.05746e-21)
(0.00381762 -0.00150808 -2.10395e-20)
(0.00367216 -0.00197404 4.43823e-21)
(0.00347907 -0.00247483 1.77438e-20)
(0.00327635 -0.00295479 -3.33501e-21)
(0.00312183 -0.00338212 3.79663e-20)
(0.00300673 -0.00374567 0)
(0.00292158 -0.00403583 -1.8214e-20)
(0.00286926 -0.00424362 -1.79239e-20)
(0.00284563 -0.00436587 2.23295e-21)
(0.00284058 -0.00440442 1.39855e-20)
(0.00284178 -0.00436496 -3.18592e-20)
(0.00283733 -0.00425797 -1.35836e-20)
(0.00280927 -0.00409613 -2.40867e-21)
(0.00274281 -0.00389126 1.43963e-22)
(0.00262654 -0.00365197 4.7871e-21)
(0.00245647 -0.0033835 -3.05673e-21)
(0.0022433 -0.00309002 -1.16158e-21)
(0.00199015 -0.00276284 2.21184e-22)
(0.00174213 -0.00239474 8.29785e-21)
(0.00154072 -0.00197857 -2.72578e-21)
(0.00144955 -0.00152599 -2.12207e-21)
(0.00152005 -0.00104528 7.36626e-22)
(0.00180881 -0.000576181 -5.13143e-23)
(0.00231121 -0.000168034 0)
(0.00297973 0.000133935 -7.42528e-22)
(0.00375366 0.000319767 7.12532e-22)
(0.00451262 0.000375577 2.23473e-22)
(0.00519659 0.000345937 9.69348e-21)
(0.00574344 0.000271271 -9.52073e-21)
(0.0061469 0.000191798 1.02192e-20)
(0.00641609 0.00013779 0)
(0.00657147 0.000119072 0)
(0.00664056 0.000132545 2.41342e-20)
(0.00665038 0.000171694 -2.4605e-20)
(0.00662713 0.000226456 0)
(0.00658624 0.000284115 1.14781e-20)
(0.006541 0.000332578 9.1807e-22)
(0.00650113 0.000367891 -1.056e-20)
(0.00646997 0.000388712 1.36481e-20)
(0.00644957 0.000394513 1.10753e-20)
(0.00643997 0.00038553 -2.46211e-20)
(0.00644046 0.000362361 7.31794e-22)
(0.00645153 0.000326739 6.70265e-22)
(0.00647192 0.000280283 1.97881e-20)
(0.00650175 0.000224413 -1.89559e-20)
(0.00654179 0.000158524 -2.58826e-22)
(0.00659594 8.63939e-05 3.1375e-23)
(0.00666312 9.2127e-06 2.23833e-22)
(0.00674852 -6.77805e-05 -5.49451e-21)
(0.00685761 -0.000142042 0)
(0.00699668 -0.000202241 6.52377e-22)
(0.00716274 -0.000232565 4.63069e-24)
(0.00735074 -0.000215608 -1.71576e-24)
(0.00755061 -0.000136333 -1.58796e-21)
(0.00774127 9.64683e-06 -1.45823e-22)
(0.00790912 0.000214121 -8.41937e-21)
(0.00803806 0.00045783 -5.49141e-21)
(0.00812297 0.000715965 1.29172e-20)
(0.00816097 0.000960382 1.56864e-22)
(0.00815442 0.00116727 -8.70735e-21)
(0.00811473 0.00132019 -1.84913e-20)
(0.00805125 0.00141061 -1.02503e-20)
(0.0079706 0.00144025 0)
(0.00787831 0.00141787 1.07091e-20)
(0.00776981 0.00135395 0)
(0.0076364 0.00125634 -1.2118e-20)
(0.0074637 0.00112615 1.82993e-22)
(0.00723547 0.000958151 1.10526e-20)
(0.00693863 0.000743324 -1.22756e-20)
(0.00656814 0.00047395 0)
(0.00612807 0.000150831 -2.21064e-20)
(0.00563021 -0.000212215 -1.12691e-20)
(0.00509307 -0.000586755 -1.52935e-21)
(0.0045378 -0.000932396 -9.7771e-21)
(0.00398211 -0.00120586 0)
(0.00344334 -0.00137301 7.51222e-21)
(0.0029637 -0.00141448 0)
(0.00255721 -0.00132271 -3.51996e-21)
(0.00228677 -0.0011186 1.88028e-22)
(0.00218389 -0.000823797 0)
(0.00230063 -0.000487353 0)
(0.00264648 -0.000172454 -9.85167e-22)
(0.00318074 7.5712e-05 0)
(0.00385219 0.000234767 2.52714e-22)
(0.00456075 0.000286216 -5.38493e-22)
(0.00522559 0.000250944 2.84737e-22)
(0.00578094 0.000170647 0)
(0.00620622 8.83252e-05 0)
(0.00649494 3.09063e-05 1.23625e-20)
(0.00666549 1.11409e-05 -1.36392e-20)
(0.00674046 2.82853e-05 2.68146e-20)
(0.00674887 7.4375e-05 1.38584e-20)
(0.00671973 0.000139565 1.93388e-21)
(0.00667005 0.000210149 1.23106e-20)
(0.00661346 0.000274583 -1.72168e-21)
(0.00656026 0.00032345 1.42651e-20)
(0.00651733 0.000354336 2.41678e-21)
(0.00648767 0.000367973 -1.9448e-23)
(0.00647185 0.000364577 2.5108e-21)
(0.00646878 0.000345642 -3.23149e-21)
(0.00647641 0.000313074 1.18662e-20)
(0.00649514 0.000267777 2.32942e-20)
(0.00652395 0.000210064 0)
(0.00656549 0.00014341 -1.03375e-20)
(0.00661826 7.18123e-05 -1.084e-20)
(0.00668326 -5.5261e-06 2.09853e-21)
(0.0067674 -8.2249e-05 5.40275e-21)
(0.00687055 -0.00015537 2.68434e-21)
(0.00700107 -0.000215733 -2.28629e-21)
(0.00715759 -0.000249198 -5.21985e-22)
(0.00733718 -0.000238231 1.5512e-22)
(0.00753302 -0.000166434 2.26951e-23)
(0.00772669 -2.61723e-05 -7.12164e-22)
(0.0078998 0.000176584 -3.38633e-21)
(0.00803876 0.00042386 1.84534e-21)
(0.00813364 0.000689437 -1.05604e-21)
(0.0081794 0.000944719 -5.51089e-21)
(0.00817988 0.00116466 -1.28496e-20)
(0.00814276 0.00132919 -7.31146e-21)
(0.00807582 0.00142891 0)
(0.00798667 0.00146416 -7.84375e-21)
(0.00788077 0.00144288 2.35137e-20)
(0.00775471 0.0013756 1.27076e-21)
(0.00759469 0.0012697 0)
(0.00738307 0.00113116 7.7577e-21)
(0.0071131 0.000972845 0)
(0.00677174 0.000815099 0)
(0.00628715 0.00061232 4.60465e-21)
(0.00578936 0.000364635 8.49999e-21)
(0.00529534 0.000143232 0)
(0.00483158 -2.52676e-05 0)
(0.00445695 -0.000136439 -1.89281e-21)
(0.00420551 -0.00019507 1.71414e-21)
(0.00409562 -0.000216704 -1.41248e-22)
(0.00411544 -0.000223231 -1.49648e-22)
(0.00420786 -0.000228623 -5.37174e-22)
(0.00432534 -0.000225123 1.30715e-23)
(0.00445202 -0.000211324 -2.10946e-23)
(0.0045786 -0.000190697 -2.7355e-23)
(0.00469831 -0.000166985 -2.36564e-22)
(0.0048069 -0.000143014 1.69756e-23)
(0.00490266 -0.000120507 2.10638e-22)
(0.00498573 -0.000100356 -5.18135e-24)
(0.00505645 -8.28876e-05 6.75211e-23)
(0.00511612 -6.7873e-05 -7.12779e-23)
(0.00516575 -5.47438e-05 3.33106e-24)
(0.00520615 -4.27877e-05 0)
(0.00523776 -3.11441e-05 2.26937e-24)
(0.00526042 -1.87618e-05 3.59141e-24)
(0.00527331 -4.32671e-06 -1.51292e-23)
(0.00527458 1.3845e-05 1.34373e-23)
(0.00526142 3.79964e-05 1.01091e-23)
(0.00522889 7.10281e-05 -3.52027e-23)
(0.00516985 0.000116834 5.18845e-23)
(0.00507395 0.000180615 -2.33727e-23)
(0.00492797 0.000269309 -1.61372e-23)
(0.00470375 0.000392323 8.2418e-24)
(0.00437794 0.000562582 0)
(0.00391346 0.000797257 -4.58957e-23)
(0.00326806 0.00111876 2.15748e-23)
(0.00240962 0.00154971 0)
(0.00135394 0.00207403 -3.69698e-23)
(0.000281212 0.00248687 7.88531e-23)
(-9.97321e-05 0.00192138 1.4352e-22)
(-0.000101327 -0.000968427 -1.26753e-22)
(-0.00034857 -0.00149296 0)
(-0.000318624 -0.0015622 0)
(-0.00012625 -0.00148209 -1.10219e-22)
(0.000157879 -0.00134076 1.03563e-22)
(0.000480387 -0.00118533 1.95649e-22)
(0.000808033 -0.0010354 -1.94376e-22)
(0.00112237 -0.000899184 9.28475e-23)
(0.00141434 -0.00077894 0)
(0.00168005 -0.000674288 -9.36022e-23)
(0.00191844 -0.000583748 0)
(0.00213001 -0.000505464 -9.10044e-25)
(0.00231609 -0.000437573 0)
(0.0024784 -0.000378525 -1.06528e-22)
(0.00261881 -0.000327082 0)
(0.00273918 -0.000282183 0)
(0.00284133 -0.000242973 -1.24567e-22)
(0.00292706 -0.000208804 -6.73598e-22)
(0.00299808 -0.000179228 1.69106e-21)
(0.00305608 -0.000153955 -1.14728e-21)
(0.00310269 -0.000132815 0)
(0.0031396 -0.000115815 1.23118e-21)
(0.00316858 -0.000103172 -1.39709e-21)
(0.00319151 -9.53289e-05 -1.90827e-22)
(0.00321047 -9.29384e-05 0)
(0.00322778 -9.69281e-05 -1.86836e-21)
(0.00324611 -0.000108601 1.85411e-21)
(0.00326842 -0.000129457 0)
(0.00329778 -0.000161873 2.33052e-21)
(0.0033385 -0.000209247 -2.31906e-21)
(0.00339475 -0.000275991 2.71513e-21)
(0.00343051 -0.000371921 -5.41154e-21)
(0.00340137 -0.000511909 -9.28989e-21)
(0.00331698 -0.000709514 -3.53412e-21)
(0.00321294 -0.000977836 8.20683e-22)
(0.00311448 -0.00132735 -9.22054e-22)
(0.00302571 -0.00175865 -1.13248e-20)
(0.00293961 -0.00225223 1.17222e-22)
(0.0028169 -0.00276398 3.23784e-21)
(0.00269283 -0.00324921 -7.60826e-21)
(0.00261086 -0.00368292 3.19243e-21)
(0.00256267 -0.00405138 -4.50575e-21)
(0.00253811 -0.0043424 3.55746e-20)
(0.00253915 -0.0045462 1.38358e-20)
(0.00255954 -0.00465908 4.31045e-21)
(0.00258706 -0.00468249 0)
(0.00260784 -0.00462229 1.36184e-21)
(0.00260922 -0.00448851 3.00137e-20)
(0.00257594 -0.00429332 1.31511e-20)
(0.00249783 -0.00404877 1.72271e-21)
(0.0023695 -0.00376524 2.44664e-20)
(0.00219289 -0.00345148 0)
(0.00198375 -0.00311463 -1.15381e-20)
(0.00175355 -0.00275657 2.03513e-22)
(0.00154165 -0.00238069 4.73757e-23)
(0.00138108 -0.00199145 3.2762e-21)
(0.00131805 -0.00160153 1.25819e-21)
(0.00138827 -0.00122056 -8.39753e-22)
(0.00163314 -0.00086678 7.37937e-23)
(0.00206777 -0.000561754 -4.07639e-22)
(0.00267176 -0.000329704 1.62485e-21)
(0.00341824 -0.000179739 6.0771e-22)
(0.00421975 -0.000129962 8.67637e-21)
(0.00501195 -0.000161439 -9.77606e-21)
(0.00571854 -0.000247902 1.70347e-20)
(0.00629919 -0.000352957 1.31081e-21)
(0.00673479 -0.000440247 -1.10122e-20)
(0.00702772 -0.000489479 -1.37151e-21)
(0.00719555 -0.000494298 -1.1595e-20)
(0.00725996 -0.000457199 1.45765e-20)
(0.00725133 -0.00038793 9.57885e-21)
(0.00719512 -0.000301257 0)
(0.00711497 -0.000211215 1.20926e-20)
(0.00702766 -0.000131159 1.06222e-20)
(0.00694715 -6.86806e-05 1.4495e-21)
(0.00688164 -2.71517e-05 -2.28397e-20)
(0.00683473 -7.55625e-06 1.29132e-20)
(0.00680815 -1.01496e-05 -1.37283e-21)
(0.0068026 -3.22419e-05 1.00488e-20)
(0.00681567 -7.0112e-05 -1.00737e-20)
(0.00684611 -0.000120486 9.35609e-21)
(0.00689504 -0.000181775 -8.0617e-21)
(0.00696336 -0.000247574 7.15994e-21)
(0.00705083 -0.000315705 0)
(0.00715951 -0.000378083 1.41641e-22)
(0.00729325 -0.000429243 6.07048e-23)
(0.0074535 -0.000454656 -8.52981e-22)
(0.0076322 -0.0004375 0)
(0.00782119 -0.000362624 1.19236e-22)
(0.0080061 -0.000219426 8.79408e-22)
(0.00816551 -8.43402e-06 -3.48367e-22)
(0.00828704 0.000257524 4.57892e-21)
(0.00836033 0.000555066 4.7001e-21)
(0.00838579 0.000856502 -6.30405e-21)
(0.00836683 0.00113242 -3.51127e-22)
(0.00831313 0.00135952 7.70192e-21)
(0.00823743 0.00152282 9.00234e-21)
(0.00814707 0.00161706 5.73626e-22)
(0.00804607 0.00164734 9.5048e-21)
(0.00793141 0.00162491 -2.06512e-20)
(0.00779235 0.0015616 0)
(0.00761343 0.00146476 0)
(0.00737746 0.00133419 0)
(0.00707105 0.00116277 -1.10693e-20)
(0.00668911 0.000940404 -6.64126e-22)
(0.00623749 0.000660027 3.31425e-22)
(0.00573146 0.000325273 1.34107e-21)
(0.00519154 -4.55453e-05 -8.63956e-21)
(0.00464051 -0.00042002 -9.30139e-21)
(0.00409866 -0.000757015 0)
(0.00358118 -0.00101696 0)
(0.00310263 -0.0011743 0)
(0.00269438 -0.00122041 0)
(0.00236859 -0.00116277 2.1066e-21)
(0.00216612 -0.00102711 5.94597e-22)
(0.00210778 -0.000838372 0)
(0.00222915 -0.000632416 -5.46292e-23)
(0.00254392 -0.00044536 0)
(0.00303718 -0.000303738 0)
(0.00368548 -0.000224348 0)
(0.00442142 -0.000221726 0)
(0.00517369 -0.000288908 -2.98008e-22)
(0.00586696 -0.000401741 9.27283e-21)
(0.00645307 -0.000523065 3.13654e-22)
(0.00690367 -0.00062221 -1.16215e-20)
(0.0072122 -0.000678837 1.27944e-20)
(0.00739065 -0.000683471 -1.31259e-20)
(0.00745704 -0.000639845 0)
(0.00744404 -0.000559936 1.28906e-20)
(0.00737891 -0.000460413 -1.14666e-20)
(0.00728622 -0.000357103 9.01076e-21)
(0.00718487 -0.000264113 -1.2208e-20)
(0.00708969 -0.00018926 6.52116e-22)
(0.00701009 -0.00013738 1.54879e-21)
(0.0069519 -0.000110342 -6.76962e-22)
(0.00691698 -0.000106364 -8.54976e-21)
(0.00690356 -0.000122668 -3.68778e-21)
(0.00691053 -0.000155861 -1.12209e-20)
(0.00693696 -0.000203794 -2.45064e-21)
(0.00698414 -0.000261148 1.14423e-20)
(0.00704825 -0.000321541 1.68e-20)
(0.00713143 -0.000384269 8.80857e-21)
(0.00723616 -0.000439725 -1.68817e-21)
(0.00736167 -0.000481871 -1.31144e-21)
(0.00751147 -0.000498451 8.48513e-22)
(0.00767996 -0.000473356 -3.14829e-22)
(0.00785957 -0.000390992 -3.80957e-23)
(0.0080393 -0.000240277 2.44072e-22)
(0.00819925 -2.01375e-05 0)
(0.00832274 0.000257399 3.34667e-21)
(0.00840054 0.000568455 2.77183e-21)
(0.00842971 0.000883075 0)
(0.0084121 0.00117141 4.06919e-21)
(0.00835935 0.0014089 7.74807e-21)
(0.00828047 0.00157901 -4.7945e-21)
(0.00818248 0.00167732 5.20992e-21)
(0.00806938 0.00170901 9.80252e-21)
(0.00793839 0.00168571 -1.00456e-20)
(0.00777866 0.00162041 -8.1896e-21)
(0.00757053 0.00152207 8.96123e-21)
(0.00729841 0.00139583 -9.78079e-21)
(0.00695891 0.00125022 6.32939e-21)
(0.00653898 0.00109917 1.4943e-21)
(0.00602046 0.000911498 -7.89577e-21)
(0.00552762 0.000673296 0)
(0.0050552 0.000439282 4.27368e-21)
(0.00462319 0.00022992 9.45448e-22)
(0.00427613 5.28766e-05 1.77064e-21)
(0.00403326 -8.67531e-05 -1.51551e-21)
(0.00390491 -0.000189803 5.85002e-22)
(0.00388383 -0.000258711 -5.85787e-22)
(0.00392726 -0.000297571 0)
(0.0039982 -0.000310383 -2.33273e-23)
(0.004085 -0.000302816 -2.88265e-22)
(0.00417936 -0.000282044 3.26864e-22)
(0.00427421 -0.000254147 2.32984e-22)
(0.00436487 -0.000223487 -2.05374e-22)
(0.00444844 -0.000193026 8.91428e-23)
(0.00452342 -0.000164539 -8.89289e-23)
(0.00458913 -0.000138846 0)
(0.00464551 -0.000115962 6.67778e-23)
(0.00469271 -9.533e-05 -5.87476e-23)
(0.00473099 -7.60722e-05 4.77997e-23)
(0.0047604 -5.70195e-05 -4.19582e-23)
(0.00478064 -3.66537e-05 -3.63449e-24)
(0.00479083 -1.2999e-05 2.74399e-24)
(0.00478921 1.65551e-05 0)
(0.00477274 5.55761e-05 0)
(0.00473663 0.00010874 -1.22217e-24)
(0.00467344 0.00018254 0)
(0.00457213 0.000285793 0)
(0.00441739 0.00043082 1.94415e-23)
(0.00418756 0.000632766 0)
(0.00385497 0.000910417 0)
(0.00338526 0.00128576 1.22666e-22)
(0.00274619 0.0017748 -6.6499e-23)
(0.0019305 0.00236075 0)
(0.00100214 0.00291818 0)
(0.000170307 0.00305042 -1.32135e-23)
(-8.18843e-05 0.00188755 -8.68201e-23)
(-6.85848e-05 -0.000762698 4.5471e-23)
(-0.000299461 -0.00136443 -1.44834e-22)
(-0.000390334 -0.00158481 -1.10015e-22)
(-0.000363781 -0.00161487 2.19328e-22)
(-0.0002392 -0.00154931 -4.00198e-22)
(-5.63698e-05 -0.00143019 1.99067e-22)
(0.000156318 -0.00129317 0)
(0.000378204 -0.00115503 -9.4141e-23)
(0.00059707 -0.00102419 0)
(0.00080542 -0.000904145 -4.74055e-22)
(0.000999047 -0.000795793 3.79248e-22)
(0.00117583 -0.000698789 -9.93778e-23)
(0.00133498 -0.000612223 -4.18222e-22)
(0.00147655 -0.000535078 3.1135e-22)