/*--------------------------------*- C++ -*----------------------------------*\
| =========                 |                                                 |
| \\      /  F ield         | OpenFOAM: The Open Source CFD Toolbox           |
|  \\    /   O peration     | Version:  2506                                  |
|   \\  /    A nd           | Website:  www.openfoam.com                      |
|    \\/     M anipulation  |                                                 |
\*---------------------------------------------------------------------------*/
FoamFile
{
    version     2.0;
    format      ascii;
    arch        "LSB;label=32;scalar=64";
    class       surfaceScalarField;
    location    "2.1";
    object      phi;
}
// * * * * * * * * * * * * * * * * * * * * * * * * * * * * * * * * * * * * * //

dimensions      [0 3 -1 0 0 0 0];

oriented        oriented;

internalField   nonuniform List<scalar> 
7780
(
9.93279e-10
-9.93279e-10
1.71553e-09
-7.22251e-10
2.13794e-09
-4.22406e-10
2.42009e-09
-2.8215e-10
2.61562e-09
-1.95538e-10
2.75336e-09
-1.37732e-10
2.85549e-09
-1.02137e-10
2.93584e-09
-8.0342e-11
3.002e-09
-6.61684e-11
3.05845e-09
-5.64455e-11
3.10798e-09
-4.95338e-11
3.15245e-09
-4.44624e-11
3.19309e-09
-4.06392e-11
3.23079e-09
-3.77057e-11
3.26623e-09
-3.54389e-11
3.29993e-09
-3.36951e-11
3.33231e-09
-3.23813e-11
3.36375e-09
-3.14392e-11
3.39458e-09
-3.08362e-11
3.42514e-09
-3.05603e-11
3.45576e-09
-3.06182e-11
3.4868e-09
-3.10349e-11
3.51865e-09
-3.18552e-11
3.5518e-09
-3.31494e-11
3.58683e-09
-3.50259e-11
3.62447e-09
-3.76468e-11
3.66573e-09
-4.12587e-11
3.71198e-09
-4.62456e-11
3.76516e-09
-5.31846e-11
3.8279e-09
-6.2743e-11
3.88379e-09
-1.29633e-10
3.84558e-09
-4.81975e-10
3.70742e-09
-9.45162e-10
3.50037e-09
-1.3833e-09
3.24911e-09
-1.76998e-09
2.99437e-09
-2.13081e-09
2.75694e-09
-2.47225e-09
2.45014e-09
-2.87871e-09
2.11417e-09
-3.15015e-09
1.83805e-09
-3.28279e-09
1.61378e-09
-3.38469e-09
1.43869e-09
-3.4662e-09
1.30239e-09
-3.52421e-09
1.19671e-09
-3.5618e-09
1.11388e-09
-3.57968e-09
1.0452e-09
-3.57666e-09
9.87694e-10
-3.55256e-09
9.32295e-10
-3.50676e-09
8.73879e-10
-3.43874e-09
8.06596e-10
-3.34475e-09
7.30991e-10
-3.22036e-09
6.64623e-10
-3.06303e-09
5.99946e-10
-2.87424e-09
5.77049e-10
-2.63749e-09
6.17402e-10
-2.34966e-09
7.73526e-10
-1.98237e-09
1.05012e-09
-1.53198e-09
1.4654e-09
-9.43372e-10
1.9515e-09
-2.31316e-10
2.40414e-09
5.26122e-10
2.76958e-09
1.23861e-09
3.04712e-09
1.88591e-09
3.24694e-09
2.32393e-09
3.40633e-09
2.69451e-09
3.53268e-09
2.93538e-09
3.64385e-09
3.12524e-09
3.74447e-09
3.27279e-09
3.83576e-09
3.37595e-09
3.9209e-09
3.45443e-09
4.00083e-09
3.51379e-09
4.07748e-09
3.55752e-09
4.1509e-09
3.58399e-09
4.22174e-09
3.59612e-09
4.29073e-09
3.59558e-09
4.35822e-09
3.58259e-09
4.42463e-09
3.55649e-09
4.49007e-09
3.51596e-09
4.55425e-09
3.45031e-09
4.61779e-09
3.36986e-09
4.68016e-09
3.26642e-09
4.7419e-09
3.13095e-09
4.79893e-09
2.92631e-09
4.85333e-09
2.69853e-09
4.89882e-09
2.35871e-09
4.93462e-09
1.96044e-09
4.94822e-09
1.38003e-09
4.93718e-09
7.41552e-10
4.89202e-09
3.1536e-11
4.80973e-09
-7.06526e-10
4.6932e-09
-1.35866e-09
4.56149e-09
-1.86756e-09
4.42557e-09
-2.31636e-09
4.30952e-09
-2.63902e-09
4.21335e-09
-2.92559e-09
4.14193e-09
-3.12197e-09
4.08815e-09
-3.27691e-09
4.0423e-09
-3.40262e-09
3.99723e-09
-3.47944e-09
3.94697e-09
-3.53175e-09
3.88673e-09
-3.56333e-09
3.81213e-09
-3.57645e-09
3.7217e-09
-3.57538e-09
3.61606e-09
-3.56108e-09
3.49706e-09
-3.53589e-09
3.36638e-09
-3.49977e-09
3.22493e-09
-3.45089e-09
3.07179e-09
-3.38575e-09
2.90573e-09
-3.29577e-09
2.72851e-09
-3.17765e-09
2.53613e-09
-3.03468e-09
2.32687e-09
-2.8548e-09
2.12674e-09
-2.60531e-09
1.93247e-09
-2.33367e-09
1.80748e-09
-1.96488e-09
1.76266e-09
-1.54725e-09
1.84782e-09
-1.01881e-09
2.06215e-09
-3.79645e-10
2.33473e-09
3.12973e-10
2.59695e-09
1.0075e-09
2.81979e-09
1.66895e-09
2.98144e-09
2.16967e-09
3.10653e-09
2.56542e-09
3.20652e-09
2.84169e-09
3.29628e-09
3.07018e-09
3.37673e-09
3.22084e-09
3.45189e-09
3.3374e-09
3.52477e-09
3.4314e-09
3.59594e-09
3.49923e-09
3.6657e-09
3.54522e-09
3.73514e-09
3.57582e-09
3.80478e-09
3.59296e-09
3.87529e-09
3.59723e-09
3.94696e-09
3.58884e-09
4.01988e-09
3.56514e-09
4.09543e-09
3.52735e-09
4.1733e-09
3.47481e-09
4.25451e-09
3.40385e-09
4.33963e-09
3.31182e-09
4.42676e-09
3.1721e-09
4.51825e-09
3.01146e-09
4.6126e-09
2.80896e-09
4.70461e-09
2.49748e-09
4.79508e-09
2.15591e-09
4.87121e-09
1.64555e-09
4.92932e-09
1.05534e-09
4.95698e-09
3.7754e-10
4.94568e-09
-3.64374e-10
4.89196e-09
-1.07084e-09
4.81039e-09
-1.63996e-09
4.7123e-09
-2.12317e-09
4.61837e-09
-2.50879e-09
4.54032e-09
-2.80962e-09
4.48224e-09
-3.03387e-09
4.43534e-09
-3.22658e-09
4.397e-09
-3.35122e-09
4.35982e-09
-3.44309e-09
4.31642e-09
-3.50646e-09
4.26014e-09
-3.5488e-09
4.18521e-09
-3.56465e-09
4.07407e-09
-3.54847e-09
3.91397e-09
-3.50724e-09
3.68951e-09
-3.43866e-09
3.3465e-09
-3.30376e-09
3.10509e-09
-2.70602e-09
2.89703e-09
-2.37629e-09
2.71331e-09
-2.09615e-09
2.582e-09
-1.74553e-09
2.52019e-09
-1.36497e-09
2.54851e-09
-9.29439e-10
2.66691e-09
-4.69604e-10
2.80364e-09
-1.51427e-10
2.88194e-09
-7.82987e-11
2.92651e-09
-4.45747e-11
2.95285e-09
-2.63367e-11
2.97003e-09
-1.71802e-11
2.98304e-09
-1.3005e-11
2.99423e-09
-1.11929e-11
3.00458e-09
-1.0351e-11
3.01437e-09
-9.78911e-12
3.02356e-09
-9.19002e-12
3.03198e-09
-8.41989e-12
3.03941e-09
-7.43654e-12
3.04564e-09
-6.22777e-12
3.05048e-09
-4.83604e-12
3.05365e-09
-3.17105e-12
3.05475e-09
-1.10022e-12
3.05357e-09
1.17931e-12
3.04968e-09
3.88554e-12
3.0425e-09
7.18048e-12
3.03137e-09
1.11298e-11
3.01544e-09
1.59297e-11
2.99351e-09
2.19322e-11
2.96363e-09
2.98864e-11
2.9221e-09
4.15221e-11
2.86108e-09
6.10227e-11
2.76241e-09
9.86694e-11
2.58236e-09
1.80053e-10
2.20945e-09
3.72908e-10
1.37001e-09
8.3944e-10
1.37001e-09
-9.23596e-11
-9.00919e-10
1.40827e-10
-9.55437e-10
4.50194e-10
-7.31773e-10
7.19505e-10
-5.51462e-10
9.43871e-10
-4.19904e-10
1.12961e-09
-3.23468e-10
1.28377e-09
-2.56296e-10
1.41341e-09
-2.09986e-10
1.52431e-09
-1.77068e-10
1.62073e-09
-1.52867e-10
1.70581e-09
-1.3461e-10
1.78187e-09
-1.2053e-10
1.85071e-09
-1.0947e-10
1.91367e-09
-1.0067e-10
1.97186e-09
-9.36261e-11
2.02616e-09
-8.7995e-11
2.07732e-09
-8.35466e-11
2.12601e-09
-8.01313e-11
2.17284e-09
-7.7662e-11
2.21838e-09
-7.61036e-11
2.26323e-09
-7.54679e-11
2.30801e-09
-7.58134e-11
2.35341e-09
-7.72497e-11
2.40021e-09
-7.99499e-11
2.44935e-09
-8.41722e-11
2.502e-09
-9.02937e-11
2.55961e-09
-9.88692e-11
2.62409e-09
-1.10726e-10
2.69807e-09
-1.27164e-10
2.7854e-09
-1.50069e-10
2.87532e-09
-2.19555e-10
2.89996e-09
-5.06619e-10
2.84845e-09
-8.9365e-10
2.74174e-09
-1.27659e-09
2.59974e-09
-1.62799e-09
2.4438e-09
-1.97487e-09
2.28391e-09
-2.31237e-09
2.08014e-09
-2.67494e-09
1.85616e-09
-2.92617e-09
1.65754e-09
-3.08418e-09
1.48831e-09
-3.21545e-09
1.34758e-09
-3.32547e-09
1.22926e-09
-3.4059e-09
1.12785e-09
-3.4604e-09
1.03799e-09
-3.48981e-09
9.54219e-10
-3.49289e-09
8.72015e-10
-3.47035e-09
7.84892e-10
-3.41962e-09
6.88427e-10
-3.34227e-09
5.77756e-10
-3.23408e-09
4.52561e-10
-3.09517e-09
3.1879e-10
-2.92927e-09
1.7404e-10
-2.7295e-09
3.64716e-11
-2.49992e-09
-7.71093e-11
-2.23608e-09
-1.2763e-10
-1.93185e-09
-8.2268e-11
-1.57734e-09
1.24906e-10
-1.15055e-09
5.18788e-10
-6.25198e-10
1.05087e-09
-5.95886e-12
1.62967e-09
6.59812e-10
2.1722e-09
1.34339e-09
2.60312e-09
1.89301e-09
2.93845e-09
2.3592e-09
3.18562e-09
2.68821e-09
3.37658e-09
2.93427e-09
3.53048e-09
3.1189e-09
3.65803e-09
3.24841e-09
3.76855e-09
3.34391e-09
3.86692e-09
3.41541e-09
3.95725e-09
3.46716e-09
4.04096e-09
3.50026e-09
4.11952e-09
3.51754e-09
4.19424e-09
3.52085e-09
4.26591e-09
3.51093e-09
4.33522e-09
3.48719e-09
4.40244e-09
3.44875e-09
4.46723e-09
3.38553e-09
4.53026e-09
3.30683e-09
4.59117e-09
3.20552e-09
4.65025e-09
3.07187e-09
4.70283e-09
2.87373e-09
4.7506e-09
2.65077e-09
4.7865e-09
2.32282e-09
4.80903e-09
1.93792e-09
4.80511e-09
1.38395e-09
4.7739e-09
7.72764e-10
4.71082e-09
9.46087e-11
4.62177e-09
-6.17475e-10
4.51882e-09
-1.25571e-09
4.42279e-09
-1.77153e-09
4.34055e-09
-2.23413e-09
4.27625e-09
-2.57472e-09
4.22474e-09
-2.87408e-09
4.18309e-09
-3.08031e-09
4.14097e-09
-3.2348e-09
4.09202e-09
-3.35367e-09
4.0326e-09
-3.42002e-09
3.95948e-09
-3.45863e-09
3.8693e-09
-3.47316e-09
3.7624e-09
-3.46956e-09
3.64114e-09
-3.45411e-09
3.50796e-09
-3.4279e-09
3.36454e-09
-3.39248e-09
3.21088e-09
-3.34612e-09
3.0457e-09
-3.28571e-09
2.86673e-09
-3.20678e-09
2.67172e-09
-3.10076e-09
2.46041e-09
-2.96632e-09
2.23018e-09
-2.80444e-09
1.98125e-09
-2.60586e-09
1.72793e-09
-2.35199e-09
1.47213e-09
-2.07787e-09
1.24612e-09
-1.73888e-09
1.06894e-09
-1.37007e-09
9.89532e-10
-9.39404e-10
1.05648e-09
-4.46591e-10
1.27588e-09
9.35742e-11
1.60789e-09
6.75494e-10
1.98567e-09
1.29117e-09
2.32511e-09
1.83024e-09
2.60334e-09
2.28719e-09
2.81807e-09
2.62696e-09
2.98945e-09
2.89881e-09
3.12672e-09
3.08358e-09
3.24192e-09
3.22221e-09
3.34398e-09
3.32935e-09
3.43677e-09
3.40643e-09
3.52265e-09
3.45932e-09
3.60419e-09
3.49427e-09
3.683e-09
3.51414e-09
3.76045e-09
3.51978e-09
3.83731e-09
3.51199e-09
3.91389e-09
3.48856e-09
3.99173e-09
3.44952e-09
4.07069e-09
3.39585e-09
4.15181e-09
3.32273e-09
4.23557e-09
3.22807e-09
4.31971e-09
3.08796e-09
4.40637e-09
2.92479e-09
4.49384e-09
2.72149e-09
4.57594e-09
2.41538e-09
4.6528e-09
2.07904e-09
4.71049e-09
1.58786e-09
4.74547e-09
1.02037e-09
4.74887e-09
3.74136e-10
4.72081e-09
-3.36317e-10
4.66895e-09
-1.01897e-09
4.61469e-09
-1.5857e-09
4.56863e-09
-2.07711e-09
4.5354e-09
-2.47557e-09
4.51035e-09
-2.78458e-09
4.49025e-09
-3.01377e-09
4.46568e-09
-3.202e-09
4.43068e-09
-3.31622e-09
4.38002e-09
-3.39242e-09
4.30799e-09
-3.43442e-09
4.20981e-09
-3.45061e-09
4.08229e-09
-3.43711e-09
3.91109e-09
-3.37725e-09
3.68791e-09
-3.28404e-09
3.41344e-09
-3.16418e-09
3.09619e-09
-2.98652e-09
2.84312e-09
-2.45296e-09
2.61231e-09
-2.1455e-09
2.3943e-09
-1.87815e-09
2.20321e-09
-1.55444e-09
2.05725e-09
-1.21901e-09
1.9751e-09
-8.47282e-10
1.97253e-09
-4.6704e-10
2.02145e-09
-2.00339e-10
2.0604e-09
-1.17251e-10
2.08591e-09
-7.00863e-11
2.10125e-09
-4.16735e-11
2.11049e-09
-2.64265e-11
2.11682e-09
-1.93279e-11
2.12199e-09
-1.63684e-11
2.1267e-09
-1.50591e-11
2.13095e-09
-1.40403e-11
2.13443e-09
-1.26669e-11
2.1367e-09
-1.06917e-11
2.13728e-09
-8.01159e-12
2.13567e-09
-4.61784e-12
2.13137e-09
-5.44521e-13
2.1238e-09
4.4029e-12
2.11231e-09
1.03924e-11
2.09591e-09
1.75763e-11
2.07353e-09
2.62666e-11
2.0439e-09
3.68134e-11
2.0054e-09
4.96312e-11
1.95597e-09
6.53543e-11
1.89284e-09
8.50626e-11
1.81188e-09
1.10852e-10
1.70625e-09
1.47152e-10
1.56352e-09
2.03744e-10
1.36003e-09
3.02165e-10
1.05324e-09
4.86839e-10
5.94264e-10
8.31888e-10
7.88365e-11
1.35487e-09
1.44885e-09
-1.99721e-10
-7.01198e-10
-2.21164e-10
-9.33994e-10
-1.13269e-10
-8.39669e-10
3.78499e-11
-7.0258e-10
1.96697e-10
-5.78751e-10
3.50804e-10
-4.77575e-10
4.94014e-10
-3.99505e-10
6.24323e-10
-3.40296e-10
7.42172e-10
-2.94917e-10
8.48839e-10
-2.59535e-10
9.45734e-10
-2.31505e-10
1.03419e-09
-2.08985e-10
1.11539e-09
-1.90675e-10
1.19039e-09
-1.75663e-10
1.26007e-09
-1.63305e-10
1.32522e-09
-1.53147e-10
1.38655e-09
-1.44875e-10
1.4447e-09
-1.38281e-10
1.50028e-09
-1.33245e-10
1.5539e-09
-1.29722e-10
1.60617e-09
-1.2774e-10
1.65776e-09
-1.27399e-10
1.70938e-09
-1.28878e-10
1.76189e-09
-1.32453e-10
1.81624e-09
-1.38526e-10
1.87361e-09
-1.47665e-10
1.93541e-09
-1.60671e-10
2.00337e-09
-1.78679e-10
2.07956e-09
-2.03354e-10
2.16651e-09
-2.37017e-10
2.25748e-09
-3.10532e-10
2.30499e-09
-5.54123e-10
2.29401e-09
-8.82673e-10
2.2347e-09
-1.21728e-09
2.1402e-09
-1.53349e-09
2.02723e-09
-1.8619e-09
1.90236e-09
-2.18749e-09
1.74547e-09
-2.51805e-09
1.57904e-09
-2.75974e-09
1.43174e-09
-2.93688e-09
1.30468e-09
-3.08839e-09
1.19539e-09
-3.21618e-09
1.09944e-09
-3.30995e-09
1.01278e-09
-3.37373e-09
9.31143e-10
-3.40818e-09
8.5018e-10
-3.41192e-09
7.65773e-10
-3.38594e-09
6.73076e-10
-3.32692e-09
5.68574e-10
-3.23776e-09
4.49159e-10
-3.11465e-09
3.14862e-10
-2.96087e-09
1.68253e-10
-2.78266e-09
1.04531e-11
-2.5717e-09
-1.47376e-10
-2.3421e-09
-2.9289e-10
-2.09057e-09
-4.00705e-10
-1.82404e-09
-4.47551e-10
-1.53049e-09
-3.90752e-10
-1.20734e-09
-1.88229e-10
-8.27721e-10
1.75666e-10
-3.69854e-10
6.69934e-10
1.65547e-10
1.24427e-09
7.69064e-10
1.78901e-09
1.34827e-09
2.27004e-09
1.87817e-09
2.65529e-09
2.30296e-09
2.95956e-09
2.63e-09
3.19913e-09
2.87935e-09
3.38847e-09
3.05908e-09
3.54286e-09
3.18951e-09
3.67266e-09
3.28559e-09
3.78583e-09
3.35396e-09
3.88651e-09
3.39956e-09
3.97782e-09
3.42622e-09
4.0621e-09
3.43657e-09
4.14088e-09
3.43216e-09
4.21533e-09
3.41275e-09
4.28607e-09
3.37802e-09
4.35287e-09
3.31875e-09
4.41646e-09
3.24324e-09
4.47651e-09
3.14547e-09
4.53331e-09
3.01509e-09
4.58211e-09
2.82493e-09
4.62451e-09
2.60837e-09
4.65349e-09
2.29385e-09
4.66808e-09
1.92334e-09
4.65691e-09
1.39512e-09
4.62212e-09
8.07549e-10
4.56402e-09
1.52706e-10
4.49262e-09
-5.46078e-10
4.41969e-09
-1.18278e-09
4.35935e-09
-1.71119e-09
4.31011e-09
-2.18488e-09
4.27128e-09
-2.53589e-09
4.23522e-09
-2.83802e-09
4.19534e-09
-3.04043e-09
4.14528e-09
-3.18474e-09
4.0815e-09
-3.28988e-09
4.00065e-09
-3.33917e-09
3.90222e-09
-3.3602e-09
3.78774e-09
-3.35867e-09
3.66004e-09
-3.34187e-09
3.52173e-09
-3.3158e-09
3.37456e-09
-3.28073e-09
3.2189e-09
-3.23682e-09
3.05337e-09
-3.18059e-09
2.87583e-09
-3.10818e-09
2.68413e-09
-3.01508e-09
2.47667e-09
-2.89329e-09
2.25372e-09
-2.74337e-09
2.01468e-09
-2.56539e-09
1.76272e-09
-2.35389e-09
1.50797e-09
-2.09724e-09
1.25222e-09
-1.82212e-09
1.01375e-09
-1.50041e-09
8.07404e-10
-1.16373e-09
6.63626e-10
-7.95628e-10
6.21478e-10
-4.04444e-10
7.0862e-10
6.43223e-12
9.32673e-10
4.5144e-10
1.26973e-09
9.54116e-10
1.64632e-09
1.45365e-09
2.00851e-09
1.92501e-09
2.32009e-09
2.31538e-09
2.57952e-09
2.63938e-09
2.78867e-09
2.87445e-09
2.95866e-09
3.05222e-09
3.10149e-09
3.1865e-09
3.2247e-09
3.2832e-09
3.33344e-09
3.35057e-09
3.43215e-09
3.39555e-09
3.52388e-09
3.42241e-09
3.61099e-09
3.43267e-09
3.695e-09
3.42799e-09
3.77668e-09
3.40689e-09
3.85776e-09
3.36845e-09
3.93838e-09
3.31523e-09
4.01963e-09
3.24149e-09
4.10202e-09
3.14567e-09
4.18319e-09
3.00679e-09
4.26506e-09
2.84293e-09
4.34592e-09
2.64063e-09
4.4195e-09
2.3418e-09
4.48639e-09
2.01216e-09
4.53428e-09
1.53996e-09
4.56271e-09
9.91938e-10
4.5687e-09
3.6815e-10
4.55795e-09
-3.25567e-10
4.53968e-09
-1.0007e-09
4.52802e-09
-1.57405e-09
4.52266e-09
-2.07174e-09
4.5208e-09
-2.47371e-09
4.51519e-09
-2.77897e-09
4.50034e-09
-2.99894e-09
4.46564e-09
-3.16731e-09
4.40917e-09
-3.25976e-09
4.32803e-09
-3.31128e-09
4.21931e-09
-3.32568e-09
4.08175e-09
-3.31305e-09
3.91468e-09
-3.27003e-09
3.70732e-09
-3.16988e-09
3.45872e-09
-3.03542e-09
3.18149e-09
-2.88694e-09
2.89669e-09
-2.70172e-09
2.6624e-09
-2.21869e-09
2.44477e-09
-1.92788e-09
2.23862e-09
-1.67202e-09
2.05378e-09
-1.36961e-09
1.90321e-09
-1.06844e-09
1.79683e-09
-7.40899e-10
1.74417e-09
-4.14381e-10
1.73291e-09
-1.89075e-10
1.72995e-09
-1.1429e-10
1.72811e-09
-6.82471e-11
1.72592e-09
-3.94807e-11
1.72318e-09
-2.3693e-11
1.72028e-09
-1.64246e-11
1.71754e-09
-1.36273e-11
1.71494e-09
-1.24607e-11
1.71219e-09
-1.1287e-11
1.70882e-09
-9.30155e-12
1.70432e-09
-6.1881e-12
1.69811e-09
-1.80729e-12
1.68961e-09
3.88632e-12
1.67805e-09
1.10139e-11
1.6626e-09
1.98506e-11
1.64226e-09
3.07395e-11
1.61571e-09
4.41282e-11
1.58139e-09
6.05811e-11
1.53742e-09
8.07873e-11
1.48143e-09
1.05616e-10
1.41049e-09
1.36301e-10
1.32073e-09
1.74818e-10
1.2069e-09
2.24682e-10
1.06145e-09
2.92599e-10
8.73527e-10
3.9167e-10
6.29135e-10
5.46557e-10
3.19458e-10
7.96515e-10
-1.98489e-11
1.17119e-09
-2.00552e-10
1.53557e-09
1.2483e-09
-1.61253e-10
-5.39946e-10
-2.58147e-10
-8.37099e-10
-2.54292e-10
-8.43524e-10
-1.92126e-10
-7.64746e-10
-9.93339e-11
-6.71543e-10
7.96665e-12
-5.84875e-10
1.19419e-10
-5.10958e-10
2.29021e-10
-4.49897e-10
3.33892e-10
-3.99788e-10
4.3287e-10
-3.58512e-10
5.25664e-10
-3.24299e-10
6.12429e-10
-2.9575e-10
6.93537e-10
-2.71784e-10
7.69456e-10
-2.51582e-10
8.40682e-10
-2.34531e-10
9.07714e-10
-2.2018e-10
9.71048e-10
-2.08209e-10
1.03117e-09
-1.98405e-10
1.08858e-09
-1.90652e-10
1.14378e-09
-1.84922e-10
1.19731e-09
-1.81272e-10
1.24976e-09
-1.79852e-10
1.3018e-09
-1.80913e-10
1.35418e-09
-1.8483e-10
1.40778e-09
-1.9213e-10
1.46365e-09
-2.03534e-10
1.523e-09
-2.20023e-10
1.58725e-09
-2.42923e-10
1.65794e-09
-2.74051e-10
1.73674e-09
-3.15817e-10
1.81865e-09
-3.92437e-10
1.86836e-09
-6.03839e-10
1.87237e-09
-8.86684e-10
1.83697e-09
-1.18188e-09
1.77247e-09
-1.46898e-09
1.69156e-09
-1.781e-09
1.59911e-09
-2.09504e-09
1.4833e-09
-2.40224e-09
1.36246e-09
-2.6389e-09
1.25503e-09
-2.82945e-09
1.16017e-09
-2.99352e-09
1.07519e-09
-3.1312e-09
9.96955e-10
-3.23172e-09
9.2245e-10
-3.29923e-09
8.48216e-10
-3.33395e-09
7.70671e-10
-3.33438e-09
6.8676e-10
-3.30203e-09
5.93602e-10
-3.23376e-09
4.8772e-10
-3.13187e-09
3.68229e-10
-2.99516e-09
2.35866e-10
-2.8285e-09
9.26658e-11
-2.63946e-09
-5.80095e-11
-2.42103e-09
-2.08033e-10
-2.19208e-09
-3.48354e-10
-1.95025e-09
-4.64817e-10
-1.70758e-09
-5.40431e-10
-1.45488e-09
-5.52716e-10
-1.19506e-09
-4.76221e-10
-9.04216e-10
-2.8044e-10
-5.65634e-10
4.74257e-11
-1.62318e-10
5.00738e-10
3.15752e-10
1.0135e-09
8.35513e-10
1.53442e-09
1.35724e-09
2.00719e-09
1.8302e-09
2.40888e-09
2.22831e-09
2.74163e-09
2.5466e-09
3.00932e-09
2.79139e-09
3.22552e-09
2.97329e-09
3.40241e-09
3.10869e-09
3.55076e-09
3.2056e-09
3.67777e-09
3.27255e-09
3.7889e-09
3.3151e-09
3.88816e-09
3.33731e-09
3.97827e-09
3.34206e-09
4.0612e-09
3.32984e-09
4.13816e-09
3.30107e-09
4.20929e-09
3.24763e-09
4.2756e-09
3.17694e-09
4.33692e-09
3.08415e-09
4.39364e-09
2.95836e-09
4.44141e-09
2.77716e-09
4.48207e-09
2.56771e-09
4.50941e-09
2.26651e-09
4.52364e-09
1.9091e-09
4.5161e-09
1.40267e-09
4.49163e-09
8.32009e-10
4.45302e-09
1.91316e-10
4.40983e-09
-5.02885e-10
4.36904e-09
-1.14199e-09
4.33798e-09
-1.68014e-09
4.31094e-09
-2.15784e-09
4.28448e-09
-2.50943e-09
4.24865e-09
-2.80218e-09
4.19875e-09
-2.99053e-09
4.13151e-09
-3.11749e-09
4.04489e-09
-3.20326e-09
3.93967e-09
-3.23395e-09
3.81848e-09
-3.23901e-09
3.6845e-09
-3.22469e-09
3.54112e-09
-3.19849e-09
3.39062e-09
-3.16531e-09
3.23365e-09
-3.12376e-09
3.06924e-09
-3.0724e-09
2.89517e-09
-3.00653e-09
2.70929e-09
-2.92231e-09
2.51023e-09
-2.81603e-09
2.29767e-09
-2.68074e-09
2.07319e-09
-2.51888e-09
1.83813e-09
-2.33033e-09
1.59672e-09
-2.11248e-09
1.35627e-09
-1.85679e-09
1.11979e-09
-1.58564e-09
8.98162e-10
-1.27878e-09
7.00685e-10
-9.66251e-10
5.44343e-10
-6.39287e-10
4.52259e-10
-3.1236e-10
4.47702e-10
1.0989e-11
5.52172e-10
3.4697e-10
7.76909e-10
7.29379e-10
1.08895e-09
1.14161e-09
1.44299e-09
1.57097e-09
1.79074e-09
1.96763e-09
2.10684e-09
2.32328e-09
2.37817e-09
2.60312e-09
2.60483e-09
2.82556e-09
2.79488e-09
2.99643e-09
2.9557e-09
3.12236e-09
3.0938e-09
3.21247e-09
3.21512e-09
3.27422e-09
3.32414e-09
3.3134e-09
3.42433e-09
3.33249e-09
3.51811e-09
3.33422e-09
3.60696e-09
3.31806e-09
3.69292e-09
3.28248e-09
3.7766e-09
3.23156e-09
3.85921e-09
3.15887e-09
3.94151e-09
3.06337e-09
4.02139e-09
2.92691e-09
4.10084e-09
2.76347e-09
4.17865e-09
2.56282e-09
4.24948e-09
2.27096e-09
4.31521e-09
1.94643e-09
4.36658e-09
1.4886e-09
4.40637e-09
9.52144e-10
4.43459e-09
3.39933e-10
4.45707e-09
-3.48047e-10
4.47762e-09
-1.02126e-09
4.50179e-09
-1.59821e-09
4.52302e-09
-2.09298e-09
4.53506e-09
-2.48575e-09
4.52947e-09
-2.77339e-09
4.49954e-09
-2.96901e-09
4.44038e-09
-3.10816e-09
4.35322e-09
-3.1726e-09
4.23692e-09
-3.19498e-09
4.09266e-09
-3.18142e-09
3.92202e-09
-3.14239e-09
3.72659e-09
-3.0746e-09
3.50056e-09
-2.94383e-09
3.24839e-09
-2.78323e-09
2.98593e-09
-2.62446e-09
2.73096e-09
-2.44675e-09
2.51846e-09
-2.00618e-09
2.32168e-09
-1.73111e-09
2.13784e-09
-1.4882e-09
1.97445e-09
-1.20622e-09
1.84113e-09
-9.35132e-10
1.74209e-09
-6.41859e-10
1.67986e-09
-3.52144e-10
1.64637e-09
-1.55585e-10
1.62391e-09
-9.18363e-11
1.60676e-09
-5.10946e-11
1.59246e-09
-2.51819e-11
1.5797e-09
-1.09276e-11
1.56772e-09
-4.45066e-12
1.55624e-09
-2.14694e-12
1.54499e-09
-1.2122e-12
1.53371e-09
-8.73524e-15
1.52206e-09
2.35635e-12
1.50959e-09
6.28324e-12
1.49579e-09
1.19876e-11
1.48002e-09
1.96527e-11
1.46147e-09
2.95673e-11
1.43913e-09
4.21901e-11
1.41175e-09
5.81237e-11
1.37776e-09
7.8114e-11
1.33528e-09
1.03062e-10
1.28201e-09
1.3406e-10
1.21515e-09
1.72477e-10
1.13125e-09
2.20192e-10
1.02605e-09
2.80025e-10
8.94177e-10
3.56553e-10
7.29259e-10
4.57517e-10
5.25103e-10
5.95826e-10
2.8097e-10
7.9069e-10
1.71652e-11
1.06032e-09
-1.90889e-10
1.37925e-09
-2.03896e-10
1.54858e-09
1.0444e-09
-1.14626e-10
-4.25319e-10
-2.16429e-10
-7.35297e-10
-2.57075e-10
-8.02878e-10
-2.46446e-10
-7.75375e-10
-2.01666e-10
-7.16324e-10
-1.35522e-10
-6.51019e-10
-5.75375e-11
-5.88943e-10
2.56663e-11
-5.33101e-10
1.09932e-10
-4.84054e-10
1.92834e-10
-4.41415e-10
2.73031e-10
-4.04496e-10
3.49836e-10
-3.72555e-10
4.22971e-10
-3.44919e-10
4.92403e-10
-3.21014e-10
5.58248e-10
-3.00376e-10
6.20717e-10
-2.82648e-10
6.80076e-10
-2.67568e-10
7.36639e-10
-2.54968e-10
7.90754e-10
-2.44767e-10
8.42809e-10
-2.36978e-10
8.93242e-10
-2.31705e-10
9.42546e-10
-2.29156e-10
9.91293e-10
-2.29661e-10
1.04015e-09
-2.33687e-10
1.08989e-09
-2.41875e-10
1.14144e-09
-2.55078e-10
1.19583e-09
-2.74416e-10
1.25425e-09
-3.01345e-10
1.31797e-09
-3.37762e-10
1.38821e-09
-3.86063e-10
1.46105e-09
-4.65277e-10
1.50943e-09
-6.52214e-10
1.52312e-09
-9.00375e-10
1.50719e-09
-1.16595e-09
1.46964e-09
-1.43143e-09
1.41871e-09
-1.73007e-09
1.35723e-09
-2.03356e-09
1.27705e-09
-2.32206e-09
1.19219e-09
-2.55404e-09
1.115e-09
-2.75227e-09
1.04424e-09
-2.92276e-09
9.77458e-10
-3.06442e-09
9.12612e-10
-3.16688e-09
8.4751e-10
-3.23413e-09
7.79454e-10
-3.26589e-09
7.0578e-10
-3.26071e-09
6.23912e-10
-3.22016e-09
5.32105e-10
-3.14195e-09
4.28337e-10
-3.0281e-09
3.12726e-10
-2.87954e-09
1.86788e-10
-2.70256e-09
5.29309e-11
-2.5056e-09
-8.44829e-11
-2.28361e-09
-2.19216e-10
-2.05734e-09
-3.44596e-10
-1.82487e-09
-4.52438e-10
-1.59974e-09
-5.33544e-10
-1.37377e-09
-5.74302e-10
-1.1543e-09
-5.58097e-10
-9.2042e-10
-4.64843e-10
-6.58886e-10
-2.7516e-10
-3.52e-10
2.88544e-11
1.17342e-11
4.28678e-10
4.35682e-10
8.90622e-10
8.95291e-10
1.3664e-09
1.35442e-09
1.81337e-09
1.78135e-09
2.21108e-09
2.14889e-09
2.54929e-09
2.45317e-09
2.83133e-09
2.69123e-09
3.06452e-09
2.87549e-09
3.25827e-09
3.01184e-09
3.42086e-09
3.10997e-09
3.55946e-09
3.17652e-09
3.67976e-09
3.21702e-09
3.78596e-09
3.23588e-09
3.88113e-09
3.23468e-09
3.96737e-09
3.21483e-09
4.04548e-09
3.16952e-09
4.11696e-09
3.10545e-09
4.18212e-09
3.01899e-09
4.24165e-09
2.89883e-09
4.292e-09
2.7268e-09
4.33554e-09
2.52417e-09
4.36746e-09
2.23459e-09
4.38934e-09
1.88722e-09
4.39512e-09
1.39688e-09
4.39083e-09
8.36298e-10
4.37891e-09
2.03231e-10
4.36572e-09
-4.89694e-10
4.3527e-09
-1.12897e-09
4.34192e-09
-1.66936e-09
4.32475e-09
-2.14068e-09
4.29671e-09
-2.48139e-09
4.24854e-09
-2.75401e-09
4.17973e-09
-2.92173e-09
4.08937e-09
-3.02713e-09
3.9784e-09
-3.09228e-09
3.85027e-09
-3.10583e-09
3.7096e-09
-3.09834e-09
3.56051e-09
-3.0756e-09
3.40598e-09
-3.04396e-09
3.24718e-09
-3.0065e-09
3.08335e-09
-2.95993e-09
2.91256e-09
-2.90162e-09
2.73247e-09
-2.82644e-09
2.54162e-09
-2.73147e-09
2.3399e-09
-2.61431e-09
2.12836e-09
-2.4692e-09
1.90964e-09
-2.30017e-09
1.6861e-09
-2.10679e-09
1.46174e-09
-1.88811e-09
1.24192e-09
-1.63697e-09
1.02946e-09
-1.37317e-09
8.31595e-10
-1.08091e-09
6.5435e-10
-7.89006e-10
5.07216e-10
-4.92154e-10
4.02582e-10
-2.07728e-10
3.54785e-10
5.87862e-11
3.81543e-10
3.20212e-10
5.0307e-10
6.07851e-10
7.1764e-10
9.27035e-10
1.00421e-09
1.2844e-09
1.32559e-09
1.64624e-09
1.65095e-09
1.99793e-09
1.9528e-09
2.30127e-09
2.22008e-09
2.55827e-09
2.45179e-09
2.76471e-09
2.65039e-09
2.92375e-09
2.82056e-09
3.04231e-09
2.968e-09
3.12679e-09
3.09776e-09
3.18366e-09
3.21408e-09
3.21617e-09
3.32023e-09
3.22807e-09
3.41843e-09
3.21986e-09
3.51123e-09
3.18969e-09
3.59979e-09
3.14301e-09
3.68569e-09
3.07297e-09
3.77007e-09
2.97899e-09
3.85152e-09
2.84546e-09
3.93245e-09
2.68254e-09
4.01256e-09
2.48271e-09
4.08821e-09
2.19531e-09
4.16266e-09
1.87198e-09
4.22966e-09
1.42159e-09
4.29341e-09
8.88393e-10
4.35347e-09
2.79876e-10
4.41166e-09
-4.06238e-10
4.46517e-09
-1.07476e-09
4.51246e-09
-1.64551e-09
4.54284e-09
-2.12336e-09
4.55039e-09
-2.49331e-09
4.52572e-09
-2.74872e-09
4.46784e-09
-2.91114e-09
4.37657e-09
-3.0169e-09
4.25423e-09
-3.05025e-09
4.10432e-09
-3.04507e-09
3.93072e-09
-3.00783e-09
3.73714e-09
-2.94881e-09
3.52716e-09
-2.86462e-09
3.29822e-09
-2.71489e-09
3.05625e-09
-2.54125e-09
2.81519e-09
-2.38339e-09
2.58546e-09
-2.21701e-09
2.39327e-09
-1.81398e-09
2.21688e-09
-1.55472e-09
2.05477e-09
-1.32609e-09
1.91284e-09
-1.06429e-09
1.7986e-09
-8.20892e-10
1.71366e-09
-5.56925e-10
1.65762e-09
-2.96099e-10
1.62244e-09
-1.20406e-10
1.59528e-09
-6.46841e-11
1.5723e-09
-2.81126e-11
1.55152e-09
-4.39943e-12
1.5316e-09
8.98862e-12
1.51183e-09
1.53204e-11
1.49189e-09
1.77948e-11
1.47176e-09
1.89233e-11
1.45143e-09
2.03166e-11
1.43088e-09
2.29116e-11
1.40992e-09
2.72422e-11
1.38821e-09
3.36985e-11
1.36516e-09
4.26935e-11
1.33996e-09
5.47717e-11
1.31149e-09
7.06563e-11
1.27838e-09
9.12407e-11
1.23891e-09
1.17585e-10
1.19103e-09
1.50938e-10
1.1323e-09
1.92787e-10
1.0598e-09
2.44981e-10
9.70029e-10
3.09963e-10
8.58868e-10
3.91186e-10
7.21694e-10
4.93727e-10
5.54207e-10
6.25004e-10
3.55166e-10
7.94867e-10
1.33479e-10
1.01238e-09
-7.77656e-11
1.27156e-09
-2.03762e-10
1.50525e-09
-1.62941e-10
1.50776e-09
8.81458e-10
-7.86564e-11
-3.46663e-10
-1.67028e-10
-6.46925e-10
-2.21609e-10
-7.48297e-10
-2.38602e-10
-7.58381e-10
-2.25387e-10
-7.29539e-10
-1.90222e-10
-6.86184e-10
-1.40666e-10
-6.38499e-10
-8.24686e-11
-5.91299e-10
-1.97346e-11
-5.46788e-10
4.47437e-11
-5.05893e-10
1.0914e-10
-4.68892e-10
1.72321e-10
-4.35736e-10
2.33612e-10
-4.0621e-10
2.9265e-10
-3.80051e-10
3.49281e-10
-3.57008e-10
4.03497e-10
-3.36864e-10
4.55391e-10
-3.19463e-10
5.05134e-10
-3.0471e-10
5.52958e-10
-2.92591e-10
5.99153e-10
-2.83174e-10
6.44075e-10
-2.76626e-10
6.88145e-10
-2.73226e-10
7.31868e-10
-2.73384e-10
7.75844e-10
-2.77663e-10
8.20785e-10
-2.86815e-10
8.67519e-10
-3.01812e-10
9.16998e-10
-3.23895e-10
9.70279e-10
-3.54626e-10
1.02848e-09
-3.9596e-10
1.09268e-09
-4.50263e-10
1.15991e-09
-5.32513e-10
1.20954e-09
-7.01838e-10
1.23408e-09
-9.24918e-10
1.2373e-09
-1.16917e-09
1.22445e-09
-1.41857e-09
1.19979e-09
-1.70541e-09
1.16444e-09
-1.99821e-09
1.11252e-09
-2.27014e-09
1.05479e-09
-2.49631e-09
9.99998e-10
-2.69747e-09
9.47123e-10
-2.86989e-09
8.94004e-10
-3.01131e-09
8.39408e-10
-3.11228e-09
7.81823e-10
-3.17655e-09
7.19168e-10
-3.20324e-09
6.494e-10
-3.19094e-09
5.70709e-10
-3.14148e-09
4.81865e-10
-3.05311e-09
3.82186e-10
-2.92842e-09
2.72611e-10
-2.76996e-09
1.55237e-10
-2.58518e-09
3.28018e-11
-2.38316e-09
-9.01277e-11
-2.16068e-09
-2.08727e-10
-1.93874e-09
-3.18046e-10
-1.71555e-09
-4.1325e-10
-1.50453e-09
-4.88609e-10
-1.29842e-09
-5.37245e-10
-1.10567e-09
-5.49455e-10
-9.0821e-10
-5.10476e-10
-6.97863e-10
-4.05141e-10
-4.57334e-10
-2.16059e-10
-1.77349e-10
6.26003e-11
1.5702e-10
4.22728e-10
5.3516e-10
8.34151e-10
9.42996e-10
1.26409e-09
1.35141e-09
1.67887e-09
1.73409e-09
2.0586e-09
2.07343e-09
2.39158e-09
2.35825e-09
2.6772e-09
2.58988e-09
2.91881e-09
2.77024e-09
3.12245e-09
2.90634e-09
3.29487e-09
3.00411e-09
3.44231e-09
3.06959e-09
3.56996e-09
3.10824e-09
3.68198e-09
3.12266e-09
3.78146e-09
3.11534e-09
3.87013e-09
3.08084e-09
3.95019e-09
3.02539e-09
4.02266e-09
2.94652e-09
4.08884e-09
2.83265e-09
4.14632e-09
2.66932e-09
4.19811e-09
2.47238e-09
4.24102e-09
2.19167e-09
4.27767e-09
1.85056e-09
4.30374e-09
1.37082e-09
4.3246e-09
8.15431e-10
4.34036e-09
1.8747e-10
4.35301e-09
-5.02349e-10
4.35883e-09
-1.13479e-09
4.35656e-09
-1.66709e-09
4.33651e-09
-2.12063e-09
4.2946e-09
-2.43948e-09
4.22603e-09
-2.68544e-09
4.1333e-09
-2.829e-09
4.01744e-09
-2.91126e-09
3.88259e-09
-2.95743e-09
3.73454e-09
-2.95778e-09
3.57882e-09
-2.94261e-09
3.41927e-09
-2.91604e-09
3.25756e-09
-2.88225e-09
3.09336e-09
-2.8423e-09
2.92479e-09
-2.79136e-09
2.74963e-09
-2.72646e-09
2.56613e-09
-2.64294e-09
2.37395e-09
-2.53929e-09
2.17421e-09
-2.41457e-09
1.96892e-09
-2.26391e-09
1.76108e-09
-2.09233e-09
1.55301e-09
-1.89873e-09
1.34785e-09
-1.68294e-09
1.14955e-09
-1.43866e-09
9.60427e-10
-1.18405e-09
7.8593e-10
-9.06414e-10
6.30455e-10
-6.3353e-10
4.99895e-10
-3.61593e-10
4.01112e-10
-1.08946e-10
3.41175e-10
1.18723e-10
3.30675e-10
3.30712e-10
3.85326e-10
5.53202e-10
5.15879e-10
7.96484e-10
7.20774e-10
1.07951e-09
9.80878e-10
1.38614e-09
1.27376e-09
1.70504e-09
1.56904e-09
2.00598e-09
1.85061e-09
2.27669e-09
2.10701e-09
2.50831e-09
2.33457e-09
2.6962e-09
2.53331e-09
2.84357e-09
2.70661e-09
2.9535e-09
2.8585e-09
3.03178e-09
2.99308e-09
3.0816e-09
3.11396e-09
3.1072e-09
3.22392e-09
3.1099e-09
3.32599e-09
3.08761e-09
3.42199e-09
3.04701e-09
3.51402e-09
2.98094e-09
3.60383e-09
2.88918e-09
3.69098e-09
2.7583e-09
3.77855e-09
2.59497e-09
3.86735e-09
2.39391e-09
3.95563e-09
2.10702e-09
4.04747e-09
1.78014e-09
4.13843e-09
1.33063e-09
4.23179e-09
7.95032e-10
4.32393e-09
1.87736e-10
4.41128e-09
-4.9359e-10
4.48431e-09
-1.1478e-09
4.53698e-09
-1.69818e-09
4.55944e-09
-2.14581e-09
4.54421e-09
-2.47808e-09
4.48852e-09
-2.69302e-09
4.39658e-09
-2.81921e-09
4.26971e-09
-2.89003e-09
4.11459e-09
-2.89514e-09
3.9377e-09
-2.86818e-09
3.74452e-09
-2.81465e-09
3.53961e-09
-2.7439e-09
3.32711e-09
-2.65212e-09
3.10548e-09
-2.49325e-09
2.87949e-09
-2.31526e-09
2.65927e-09
-2.16316e-09
2.4503e-09
-2.00803e-09
2.27582e-09
-1.63949e-09
2.11748e-09
-1.39637e-09
1.97407e-09
-1.18268e-09
1.85019e-09
-9.40417e-10
1.75181e-09
-7.22516e-10
1.67957e-09
-4.84691e-10
1.63216e-09
-2.48688e-10
1.60113e-09
-8.93804e-11
1.57481e-09
-3.83609e-11
1.5503e-09
-3.59848e-12
1.52596e-09
1.99339e-11
1.50079e-09
3.41596e-11
1.47437e-09
4.17457e-11
1.44676e-09
4.54011e-11
1.41834e-09
4.73408e-11
1.38954e-09
4.91215e-11
1.36067e-09
5.17825e-11
1.33183e-09
5.60748e-11
1.30286e-09
6.26708e-11
1.27325e-09
7.23016e-11
1.24219e-09
8.58356e-11
1.20854e-09
1.04305e-10
1.17088e-09
1.28906e-10
1.12746e-09
1.60997e-10
1.07626e-09
2.02143e-10
1.01487e-09
2.54175e-10
9.40524e-10
3.19326e-10
8.50033e-10