/*--------------------------------*- C++ -*----------------------------------*\
| =========                 |                                                 |
| \\      /  F ield         | OpenFOAM: The Open Source CFD Toolbox           |
|  \\    /   O peration     | Version:  2506                                  |
|   \\  /    A nd           | Website:  www.openfoam.com                      |
|    \\/     M anipulation  |                                                 |
\*---------------------------------------------------------------------------*/
FoamFile
{
    version     2.0;
    format      ascii;
    arch        "LSB;label=32;scalar=64";
    class       volVectorField;
    location    "2.1";
    object      U;
}
// * * * * * * * * * * * * * * * * * * * * * * * * * * * * * * * * * * * * * //

dimensions      [0 1 -1 0 0 0 0];

internalField   nonuniform List<vector> 
4000
(
(0.00414291 -0.00182229 1.11016e-22)
(0.00552965 -0.0014613 0)
(0.00755427 -0.000730499 4.61865e-23)
(0.00906196 -0.000372047 3.86368e-23)
(0.00993819 -0.000224134 3.28959e-23)
(0.010496 -0.00013996 0)
(0.0108929 -8.91162e-05 2.54352e-23)
(0.0111859 -6.02142e-05 2.32273e-23)
(0.0114088 -4.32608e-05 0)
(0.0115855 -3.25179e-05 0)
(0.0117302 -2.53257e-05 3.25785e-22)
(0.0118517 -2.02941e-05 -6.05855e-22)
(0.0119557 -1.66067e-05 2.80872e-22)
(0.0120463 -1.37901e-05 -3.02774e-22)
(0.0121265 -1.15689e-05 3.01536e-22)
(0.0121987 -9.77411e-06 1.96275e-23)
(0.0122646 -8.29732e-06 3.3087e-22)
(0.0123259 -7.06752e-06 -3.29599e-22)
(0.0123837 -6.03862e-06 2.2203e-23)
(0.0124395 -5.18215e-06 0)
(0.0124944 -4.48366e-06 0)
(0.0125496 -3.94212e-06 -2.66546e-23)
(0.0126066 -3.57252e-06 -2.86159e-23)
(0.0126668 -3.40867e-06 0)
(0.012732 -3.50724e-06 -3.34077e-23)
(0.0128047 -3.96423e-06 -3.63166e-23)
(0.0128876 -4.94731e-06 0)
(0.0129848 -6.76743e-06 0)
(0.0131008 -9.75612e-06 1.63348e-21)
(0.0132499 -1.47895e-05 -1.67735e-21)
(0.0134533 -3.76007e-05 0)
(0.0135 -0.000130075 -4.57569e-21)
(0.0132813 -0.000339094 7.37791e-21)
(0.0128527 -0.000706297 -3.52627e-22)
(0.0123106 -0.00123104 -3.9961e-21)
(0.0117271 -0.00194624 5.99219e-20)
(0.0112457 -0.00277694 -1.01238e-21)
(0.0106876 -0.00396741 -1.40228e-20)
(0.00990395 -0.00545043 0)
(0.00906163 -0.00684795 5.65301e-21)
(0.00836845 -0.00802725 -5.77215e-21)
(0.00780772 -0.00900324 4.67982e-20)
(0.00734571 -0.0097918 0)
(0.00697229 -0.0103911 4.0717e-20)
(0.00667029 -0.0108071 -1.72469e-20)
(0.00641182 -0.0110566 2.40479e-20)
(0.00617636 -0.0111521 0)
(0.0059522 -0.0111135 -2.34429e-20)
(0.00570813 -0.01096 -2.51279e-20)
(0.00541829 -0.0106981 -1.90074e-20)
(0.0050575 -0.0103248 0)
(0.00467734 -0.00978411 0)
(0.00430178 -0.00910893 -2.54597e-21)
(0.00398265 -0.00817759 2.00767e-20)
(0.00388371 -0.00696083 3.29548e-21)
(0.00423254 -0.00539628 -1.46066e-20)
(0.00515039 -0.00368186 -8.66123e-21)
(0.0067642 -0.00193023 2.70094e-21)
(0.00896288 -0.000485858 0)
(0.0111769 0.000369763 -3.46644e-22)
(0.0129322 0.000721532 -7.4908e-22)
(0.0141684 0.000757365 -9.62468e-22)
(0.0148959 0.000665399 -3.15152e-21)
(0.0153395 0.000554716 3.82804e-21)
(0.0156004 0.000461556 0)
(0.0157622 0.000389228 0)
(0.0158761 0.000334742 0)
(0.015957 0.000294043 1.10017e-21)
(0.0160153 0.000262382 1.63407e-20)
(0.0160603 0.000236645 9.38175e-21)
(0.016097 0.000214838 0)
(0.0161268 0.000196127 -8.56093e-21)
(0.0161512 0.000179924 8.61528e-21)
(0.0161716 0.000165681 8.61665e-22)
(0.0161889 0.000152969 -9.3553e-21)
(0.0162038 0.000141466 8.23145e-21)
(0.0162167 0.000130882 9.106e-21)
(0.0162269 0.000121441 8.47962e-21)
(0.0162352 0.00011275 0)
(0.0162421 0.000104597 0)
(0.0162473 9.67747e-05 -2.04489e-22)
(0.0162481 9.00555e-05 -5.94991e-21)
(0.0162465 8.33425e-05 0)
(0.0162394 7.74041e-05 4.16827e-21)
(0.0162264 7.10959e-05 -3.0699e-21)
(0.0161994 6.50624e-05 0)
(0.016151 5.72494e-05 0)
(0.0160682 4.25835e-05 9.21718e-23)
(0.0159329 1.43574e-05 4.87797e-22)
(0.0157357 -5.36402e-05 -1.59005e-21)
(0.0154942 -0.000181341 8.55514e-23)
(0.0152353 -0.000383078 -1.63394e-22)
(0.0150273 -0.000651068 -4.70144e-22)
(0.0148923 -0.000922018 0)
(0.0148305 -0.00114459 1.00567e-20)
(0.0148372 -0.00130269 1.04749e-20)
(0.0148896 -0.00139851 1.11224e-20)
(0.0149505 -0.00143866 7.56654e-22)
(0.0149955 -0.00144951 1.19906e-20)
(0.0150129 -0.00146136 1.31596e-20)
(0.0149778 -0.00149904 -2.12557e-22)
(0.0148793 -0.00158185 1.44806e-20)
(0.0147117 -0.00172165 2.87778e-20)
(0.0144774 -0.00192069 7.0839e-22)
(0.0141819 -0.00217215 1.42625e-20)
(0.0138293 -0.00246274 0)
(0.0134169 -0.00277697 -1.46443e-20)
(0.0129354 -0.00309713 -1.34677e-20)
(0.012383 -0.00340118 -9.44705e-22)
(0.0117588 -0.00367247 0)
(0.0110323 -0.00389753 -1.27855e-20)
(0.0102559 -0.00396375 1.18164e-20)
(0.00949313 -0.00384545 0)
(0.00888532 -0.00343279 1.92755e-20)
(0.00864124 -0.00273943 3.7084e-21)
(0.00893329 -0.00179403 6.61594e-21)
(0.00991496 -0.000740033 0)
(0.0113712 8.91756e-05 4.90499e-22)
(0.0128003 0.000548292 3.75822e-23)
(0.0139707 0.000698945 5.85039e-23)
(0.0147422 0.000672472 -8.98365e-23)
(0.0152122 0.000588422 4.58176e-21)
(0.0154953 0.000506643 -6.54043e-21)
(0.0156838 0.000435445 -4.9728e-22)
(0.0158104 0.000379185 -7.17532e-21)
(0.0158978 0.000335475 1.69064e-20)
(0.0159629 0.000299931 -9.07549e-21)
(0.0160133 0.000270228 1.02088e-20)
(0.0160523 0.000245269 -4.99808e-22)
(0.0160834 0.000223936 9.53615e-21)
(0.016109 0.00020531 0)
(0.0161305 0.000188748 -1.08158e-20)
(0.0161486 0.000173755 1.73276e-21)
(0.0161636 0.000160149 -1.18782e-20)
(0.0161761 0.000147623 0)
(0.0161865 0.000135855 0)
(0.0161953 0.000124614 9.43499e-21)
(0.0162029 0.000113418 -8.59903e-21)
(0.0162069 0.000102938 0)
(0.016209 9.25197e-05 0)
(0.0162102 8.12224e-05 -6.60197e-21)
(0.0162052 7.01917e-05 1.28225e-21)
(0.0161961 5.757e-05 -5.72495e-21)
(0.0161763 4.32448e-05 0)
(0.0161403 2.5323e-05 1.76778e-21)
(0.0160786 1.11145e-06 4.14233e-22)
(0.0159724 -2.96032e-05 2.39502e-22)
(0.0158023 -8.53982e-05 -3.48556e-22)
(0.0155785 -0.000186518 0)
(0.0153173 -0.000355151 1.39224e-21)
(0.0150658 -0.000603959 2.72073e-22)
(0.0148787 -0.000885507 -1.08881e-20)
(0.0147719 -0.00113937 1.92983e-21)
(0.0147322 -0.00134769 2.94946e-22)
(0.0147385 -0.00149379 6.92729e-21)
(0.0147737 -0.00158126 2.38848e-21)
(0.0148088 -0.00163352 0)
(0.0148211 -0.0016799 0)
(0.0147782 -0.00174978 0)
(0.014655 -0.00186906 -2.19803e-20)
(0.0144199 -0.00205068 2.81613e-21)
(0.0140327 -0.00229113 1.03486e-20)
(0.0132767 -0.00259592 8.03122e-21)
(0.0121904 -0.00271143 0)
(0.0116039 -0.00262315 -8.73628e-21)
(0.0111597 -0.00245359 -1.39256e-20)
(0.0107894 -0.00215536 -2.98288e-22)
(0.0106362 -0.0017261 -1.67161e-21)
(0.0107955 -0.00119913 -3.59922e-21)
(0.0113239 -0.000660172 -1.04939e-21)
(0.0120255 -0.000271703 0)
(0.0125037 -0.000103344 -9.37714e-24)
(0.012727 -4.01596e-05 0)
(0.0128242 -1.46636e-05 -6.38229e-24)
(0.0128693 -3.2523e-06 -5.09627e-24)
(0.0128896 1.71875e-06 -2.27388e-22)
(0.0128976 3.72337e-06 2.25976e-22)
(0.0129003 4.41565e-06 4.72642e-23)
(0.0129004 4.66379e-06 -4.81424e-23)
(0.0128982 4.84603e-06 -9.88769e-24)
(0.0128933 5.22463e-06 4.73735e-23)
(0.0128847 5.79966e-06 -3.51258e-23)
(0.0128715 6.49501e-06 0)
(0.0128529 7.51164e-06 3.29316e-24)
(0.0128281 8.68989e-06 -4.18472e-24)
(0.0127957 9.92583e-06 1.84588e-22)
(0.0127544 1.16938e-05 -1.73097e-22)
(0.0127032 1.40506e-05 2.53777e-22)
(0.0126399 1.67404e-05 -2.44948e-22)
(0.0125622 1.9802e-05 1.8469e-22)
(0.0124671 2.33979e-05 -1.62647e-22)
(0.0123507 2.78214e-05 1.38492e-23)
(0.0122071 3.37538e-05 1.61841e-23)
(0.0120258 4.28963e-05 0)
(0.0117855 5.95841e-05 2.23556e-23)
(0.0114385 9.47598e-05 2.67264e-23)
(0.0108663 0.000177377 3.39568e-22)
(0.0097614 0.000404341 -3.52677e-22)
(0.00753368 0.00114153 0)
(0.00570343 0.00209813 9.44215e-23)
(-5.81417e-05 -0.00352066 -4.12282e-23)
(-0.000126004 -0.00319184 4.50967e-23)
(0.00114306 -0.00218427 -5.5459e-23)
(0.00236287 -0.00154091 2.20616e-22)
(0.00332784 -0.00109679 -5.15644e-22)
(0.00409436 -0.000786468 3.23765e-23)
(0.00472259 -0.000583571 2.33017e-22)
(0.00524026 -0.000452387 -8.50408e-23)
(0.00567112 -0.000363921 -5.28918e-23)
(0.00603567 -0.0003015 -4.97344e-23)
(0.00634891 -0.000255962 -7.07628e-23)
(0.00662155 -0.000221796 -4.10658e-22)
(0.00686163 -0.000195549 3.84188e-22)
(0.00707534 -0.000175051 -3.6209e-22)
(0.00726754 -0.000158908 6.815e-22)
(0.00744215 -0.000146205 -8.10595e-22)
(0.00760239 -0.000136335 3.26418e-22)
(0.00775104 -0.000128905 -4.55198e-22)
(0.00789058 -0.000123684 -5.26203e-22)
(0.0080233 -0.00012057 7.92856e-22)
(0.00815143 -0.000119577 -5.75461e-23)
(0.00827725 -0.000120828 -1.05222e-21)
(0.00840319 -0.000124576 1.04891e-21)
(0.00853196 -0.000131223 1.11081e-21)
(0.0086667 -0.00014138 -1.13561e-21)
(0.00881118 -0.000155956 -4.04646e-23)
(0.00897009 -0.000176327 -1.51313e-21)
(0.00914951 -0.000204599 -5.72045e-23)
(0.00935674 -0.000244154 3.46559e-21)
(0.00960624 -0.000299329 2.67687e-22)
(0.00992359 -0.00038371 -1.98751e-21)
(0.0101654 -0.00057498 -2.47792e-21)
(0.0102208 -0.000916294 -7.87038e-21)
(0.0101153 -0.00140417 -1.72846e-20)
(0.00992772 -0.00202404 -1.30559e-20)
(0.00970687 -0.00277946 -1.54182e-20)
(0.00949304 -0.00367819 2.82743e-21)
(0.00922256 -0.00479292 1.33442e-20)
(0.0087853 -0.00602521 -4.48797e-21)
(0.00826199 -0.00719668 -1.31712e-20)
(0.00780184 -0.00825115 -1.83302e-20)
(0.00739993 -0.00917667 -2.03518e-20)
(0.00703661 -0.0099572 0)
(0.00670633 -0.010582 -4.1339e-20)
(0.00639595 -0.0110498 2.06516e-20)
(0.00608727 -0.0113656 -2.15137e-20)
(0.00576149 -0.0115349 2.1416e-20)
(0.00540498 -0.0115698 0)
(0.00499095 -0.0114977 1.50815e-21)
(0.00449814 -0.0113328 1.9898e-20)
(0.00390992 -0.011058 -2.0365e-20)
(0.00323217 -0.0106476 2.37189e-21)
(0.00249204 -0.010116 1.94254e-20)
(0.00168101 -0.00939039 -4.38737e-21)
(0.000914825 -0.00843894 1.97547e-20)
(0.000317691 -0.00717055 0)
(7.48519e-05 -0.00561072 8.95144e-21)
(0.000425526 -0.00373637 -4.84653e-21)
(0.00173035 -0.00173826 -6.24307e-22)
(0.00387112 4.45643e-05 7.09849e-22)
(0.00646405 0.0012974 7.29798e-22)
(0.00907012 0.00199886 -2.65077e-22)
(0.0111332 0.0020888 -6.72152e-22)
(0.0126394 0.00196319 -4.5026e-21)
(0.0136467 0.00174632 7.23454e-22)
(0.0143044 0.00152021 -6.99158e-22)
(0.0147496 0.00132156 0)
(0.0150547 0.00116136 0)
(0.0152688 0.00103319 -1.77681e-20)
(0.0154256 0.000928793 8.80558e-21)
(0.0155456 0.0008415 1.23751e-21)
(0.0156387 0.000767429 -1.1977e-20)
(0.0157115 0.000703755 -8.39985e-21)
(0.0157691 0.000648244 -1.17259e-20)
(0.0158152 0.000599183 7.17604e-22)
(0.0158521 0.000555283 6.28637e-22)
(0.0158818 0.000515438 1.03346e-20)
(0.0159034 0.000479963 -9.2943e-21)
(0.0159181 0.000447606 -5.47524e-22)
(0.0159273 0.000417586 -7.95554e-21)
(0.0159315 0.000389264 7.27825e-21)
(0.0159251 0.00036443 0)
(0.0159099 0.000340152 0)
(0.0158798 0.000318062 0)
(0.0158336 0.000295225 3.38518e-21)
(0.0157583 0.000272623 -8.62694e-23)
(0.0156464 0.000244301 1.00848e-24)
(0.0154963 0.000199005 1.62542e-24)
(0.0153114 0.000114905 -1.84707e-22)
(0.0151166 -3.37196e-05 3.77456e-21)
(0.0149534 -0.000256402 -3.40431e-22)
(0.0148569 -0.000540386 -8.74742e-23)
(0.0148351 -0.000840211 6.74364e-21)
(0.0148683 -0.00110822 -8.07523e-21)
(0.0149427 -0.00130793 8.77676e-21)
(0.0150271 -0.00142877 -9.43128e-21)
(0.0150911 -0.00148293 9.17224e-21)
(0.0151171 -0.00149719 1.03533e-20)
(0.0150972 -0.00150777 -1.13061e-20)
(0.0150114 -0.00153999 -1.15051e-20)
(0.0148504 -0.00161863 0)
(0.0146215 -0.00176066 1.19119e-20)
(0.0143301 -0.00197105 -1.30798e-20)
(0.0139819 -0.00224386 4.0208e-22)
(0.0135784 -0.00256526 -1.50147e-21)
(0.0131146 -0.00291735 0)
(0.0125793 -0.0032812 2.59342e-20)
(0.0119588 -0.00363743 2.63169e-20)
(0.0112441 -0.00396719 1.16787e-20)
(0.0104272 -0.00425117 1.04846e-20)
(0.00949561 -0.00444431 1.22839e-20)
(0.0084681 -0.00448614 -2.20773e-20)
(0.00740553 -0.00440834 6.59367e-22)
(0.00635193 -0.00408344 -1.00119e-20)
(0.00547602 -0.00348718 9.57889e-22)
(0.00492364 -0.00258185 -3.4602e-21)
(0.00499376 -0.00141347 -3.57333e-22)
(0.00583894 -0.000171956 -7.49763e-22)
(0.00737207 0.000909511 9.62684e-25)
(0.00927467 0.00162321 -8.9128e-25)
(0.0110394 0.00191867 0)
(0.0124294 0.00191793 -5.1473e-21)
(0.0134093 0.00177956 -2.00998e-22)
(0.014096 0.00159435 6.66964e-22)
(0.0145668 0.0014176 8.25821e-21)
(0.0148908 0.00126625 -9.55163e-21)
(0.015127 0.00113835 -8.94001e-21)
(0.0153035 0.00103045 -2.02881e-20)
(0.0154364 0.000939405 -2.11285e-20)
(0.0155381 0.000861711 -1.00163e-20)
(0.0156179 0.000794412 -1.3592e-21)
(0.0156814 0.000735337 -1.05976e-20)
(0.0157325 0.000682736 2.19912e-20)
(0.0157728 0.000635731 -2.6756e-21)
(0.0158042 0.000593353 -7.50138e-21)
(0.0158282 0.000554513 0)
(0.0158455 0.000518525 0)
(0.0158575 0.000484137 5.82859e-22)
(0.0158601 0.000453091 1.99564e-21)
(0.0158543 0.000423557 5.33884e-21)
(0.0158424 0.000393388 1.54609e-21)
(0.0158143 0.000366124 -2.57492e-22)
(0.0157729 0.000336841 -1.96442e-21)
(0.0157059 0.000307477 1.69357e-21)
(0.0156053 0.000274226 -1.81617e-21)
(0.0154657 0.000232067 0)
(0.0152843 0.000160403 3.73882e-22)
(0.0150759 2.72181e-05 -3.63844e-22)
(0.014882 -0.000186231 1.66985e-21)
(0.0147424 -0.000475546 0)
(0.0146811 -0.000804852 0)
(0.0146843 -0.00111982 0)
(0.0147234 -0.00137692 0)
(0.0147912 -0.0015567 1.68923e-20)
(0.0148437 -0.00166248 3.74434e-21)
(0.0148656 -0.00172204 2.03156e-21)
(0.0148287 -0.00177254 -2.21866e-21)
(0.0147121 -0.00184649 -1.29538e-20)
(0.0144898 -0.0019721 4.27891e-21)
(0.0141485 -0.0021667 9.97553e-21)
(0.0136669 -0.00242225 8.52224e-23)
(0.0130103 -0.00268984 -7.56881e-21)
(0.0121554 -0.00287032 1.99691e-21)
(0.0111774 -0.00284005 -2.90669e-22)
(0.0105013 -0.00276929 -8.70214e-21)
(0.00989087 -0.00265673 7.52619e-21)
(0.00926969 -0.00243319 0)
(0.00876233 -0.00208069 0)
(0.00845787 -0.00161189 1.35122e-21)
(0.00842243 -0.00108317 8.6213e-22)
(0.00864937 -0.000631789 -8.29001e-22)
(0.00890469 -0.000356883 1.08782e-23)
(0.00905122 -0.000194336 -5.38206e-22)
(0.00911765 -9.95276e-05 5.27631e-22)
(0.00914361 -4.96531e-05 1.73358e-23)
(0.00914851 -2.64251e-05 2.53223e-22)
(0.00914328 -1.64543e-05 -7.93868e-23)
(0.00913434 -1.1901e-05 -1.25546e-22)
(0.00912379 -8.78524e-06 -4.7338e-23)
(0.00911097 -5.23116e-06 1.52732e-23)
(0.00909416 -5.271e-07 -1.40388e-23)
(0.00907141 5.55886e-06 2.08417e-24)
(0.00904068 1.31707e-05 -1.08765e-22)
(0.00899991 2.17931e-05 1.12695e-22)
(0.00894706 3.21372e-05 4.88336e-24)
(0.00887967 4.42233e-05 1.95468e-22)
(0.00879448 5.89004e-05 -2.35397e-22)
(0.00868747 7.66364e-05 3.01576e-22)
(0.00855395 9.77521e-05 -3.32163e-22)
(0.00838829 0.000123053 1.7176e-22)
(0.00818338 0.00015382 -2.21756e-22)
(0.00792995 0.00019228 1.65993e-23)
(0.007615 0.000243003 -5.74866e-23)
(0.00721816 0.000316261 -3.9207e-22)
(0.00670392 0.000436236 4.20668e-22)
(0.00600603 0.000660609 -9.47878e-23)
(0.00500166 0.00112421 -3.91625e-23)
(0.00349159 0.00211572 1.44153e-22)
(0.00117845 0.00399742 0)
(0.000111056 0.0052232 -2.40755e-22)
(-0.000355416 -0.0029223 0)
(-0.000985555 -0.00337392 -2.40121e-22)
(-0.000693844 -0.00280344 1.12675e-22)
(-0.000122064 -0.00223243 8.15297e-23)
(0.000506711 -0.00176071 -1.77082e-22)
(0.00111949 -0.00139441 2.82627e-22)
(0.00169086 -0.00112536 -2.80081e-22)
(0.00220869 -0.000929528 6.03952e-23)
(0.00267189 -0.000784061 5.58984e-23)
(0.00308537 -0.000673426 1.58177e-22)
(0.00345534 -0.000587565 5.01721e-23)
(0.00378769 -0.000519718 1.46329e-22)
(0.0040877 -0.000465281 -3.84509e-22)
(0.00435998 -0.000421118 8.61288e-22)
(0.0046085 -0.000385071 -3.33721e-22)
(0.00483672 -0.000355645 4.45867e-22)
(0.00504765 -0.000331808 -2.4444e-22)
(0.00524403 -0.000312876 1.55209e-22)
(0.00542836 -0.000298436 9.45148e-22)
(0.00560307 -0.000288308 -8.28126e-22)
(0.00577056 -0.000282522 6.02832e-23)
(0.00593331 -0.000281314 1.90728e-22)
(0.00609398 -0.000285147 -1.1333e-21)
(0.00625556 -0.000294764 1.19927e-21)
(0.00642145 -0.00031127 1.31354e-21)
(0.00659571 -0.00033627 -1.0506e-21)
(0.00678321 -0.000372095 -1.54582e-21)
(0.00698994 -0.000422163 1.43177e-21)
(0.00722275 -0.000491718 0)
(0.00749209 -0.000588284 0)
(0.00781666 -0.000726187 0)
(0.00811007 -0.000965312 0)
(0.00827972 -0.00134063 1.01518e-20)
(0.00832107 -0.0018507 1.41142e-20)
(0.00828217 -0.00248756 -1.48364e-20)
(0.00819885 -0.00325943 2.58136e-21)
(0.00809345 -0.00417632 -1.87155e-20)
(0.00792882 -0.00525091 4.07245e-21)
(0.00764265 -0.00638899 1.63759e-20)
(0.00730473 -0.00747883 -2.91295e-21)
(0.00700595 -0.00847777 3.61949e-20)
(0.00673212 -0.00936345 0)
(0.00646404 -0.0101163 -1.79409e-20)
(0.00619912 -0.010724 -1.80248e-20)
(0.00592703 -0.0111823 2.3214e-21)
(0.00563182 -0.0114921 1.47135e-20)
(0.00529788 -0.0116538 -3.47109e-20)
(0.00491254 -0.0116838 -1.53623e-20)
(0.00445352 -0.0116126 -3.00484e-21)
(0.00390589 -0.0114148 8.35925e-23)
(0.00325908 -0.0110988 6.07464e-21)
(0.00251557 -0.0106631 -4.29394e-21)
(0.00169513 -0.010107 -1.73764e-21)
(0.00079697 -0.00939025 1.56164e-22)
(-9.56702e-05 -0.00848891 1.57707e-20)
(-0.000914595 -0.00735363 -6.32121e-21)
(-0.00149333 -0.00598072 -7.15397e-21)
(-0.00172384 -0.00435205 4.03505e-21)
(-0.00132312 -0.0025473 6.11384e-22)
(-0.000117624 -0.000734391 0)
(0.00179911 0.000868847 5.18391e-22)
(0.00431895 0.00204907 -4.65517e-22)
(0.00683271 0.00272393 1.2444e-21)
(0.00906096 0.00294795 1.43912e-21)
(0.0108148 0.00287063 -2.96602e-21)
(0.012109 0.00264906 4.35974e-21)
(0.0130441 0.0023843 0)
(0.0137073 0.0021318 0)
(0.0141759 0.00190989 1.57596e-20)
(0.0145144 0.00172114 -1.69314e-20)
(0.0147664 0.00156153 0)
(0.0149578 0.00142607 8.49756e-21)
(0.015105 0.00131008 7.91752e-22)
(0.0152198 0.00120962 -7.91979e-21)
(0.0153099 0.00112149 1.03316e-20)
(0.0153806 0.00104331 8.3813e-21)
(0.0154362 0.000973048 -1.85626e-20)
(0.0154768 0.000910576 5.4986e-22)
(0.0155043 0.000854026 4.94503e-22)
(0.0155203 0.000801978 1.45353e-20)
(0.0155261 0.000753446 -1.37136e-20)
(0.0155154 0.000710235 -1.80593e-22)
(0.0154904 0.000668569 2.87679e-23)
(0.0154444 0.000629403 1.52422e-22)
(0.0153768 0.000588032 -3.33247e-21)
(0.0152776 0.000542498 0)
(0.0151463 0.000480705 2.09531e-22)
(0.0149943 0.000384462 -2.6919e-24)
(0.0148434 0.00023019 -3.15707e-22)
(0.0147286 2.05017e-06 -3.28628e-21)
(0.0146792 -0.000290696 -2.47305e-22)
(0.014707 -0.000615323 -1.12622e-20)
(0.0147816 -0.000926012 -6.77807e-21)
(0.0148911 -0.00118217 1.47323e-20)
(0.0149961 -0.00135873 6.52411e-23)
(0.0150615 -0.00145656 -8.99457e-21)
(0.0150879 -0.00149566 -1.85912e-20)
(0.0150453 -0.00150806 -1.01108e-20)
(0.0149308 -0.00152503 0)
(0.0147439 -0.00157382 1.05893e-20)
(0.0144909 -0.00167631 0)
(0.0141811 -0.00184437 -1.21078e-20)
(0.0138204 -0.00207732 1.87107e-22)
(0.0134109 -0.00236465 1.14475e-20)
(0.0129481 -0.00268975 -1.27511e-20)
(0.0124223 -0.00303318 0)
(0.0118204 -0.00337487 -2.39895e-20)
(0.0111308 -0.00369525 -1.24136e-20)
(0.0103477 -0.00397532 -1.42808e-21)
(0.00946824 -0.00419277 -1.1635e-20)
(0.0084927 -0.00431346 0)
(0.00744287 -0.00430102 1.02901e-20)
(0.00636369 -0.0041391 0)
(0.00527533 -0.00378279 -7.55619e-21)
(0.00428388 -0.00322693 4.64181e-22)
(0.00348276 -0.00244214 0)
(0.00307345 -0.00143595 0)
(0.00324538 -0.000299448 7.98263e-22)
(0.00409166 0.000846459 0)
(0.00561461 0.00183669 2.85436e-23)
(0.00745381 0.00248716 -1.05756e-22)
(0.00925926 0.00278016 7.42313e-23)
(0.0107763 0.0028035 0)
(0.0119748 0.00266336 0)
(0.0128671 0.0024567 6.81628e-21)
(0.0135142 0.00224098 -8.23225e-21)
(0.0139887 0.00203881 1.77187e-20)
(0.0143421 0.00185917 9.75426e-21)
(0.0146074 0.00170339 1.63742e-21)
(0.0148091 0.00156876 8.93967e-21)
(0.0149651 0.00145172 -1.28759e-21)
(0.015087 0.0013492 1.07512e-20)
(0.0151833 0.00125844 1.77817e-21)
(0.0152585 0.00117767 -1.3188e-23)
(0.0153161 0.00110537 1.87591e-21)
(0.015359 0.00103968 -2.43222e-21)
(0.0153889 0.000979475 8.88208e-21)
(0.015408 0.000923007 1.72397e-20)
(0.0154118 0.000871778 0)
(0.0154006 0.000823451 -7.42308e-21)
(0.0153775 0.000774927 -7.6344e-21)
(0.0153313 0.000729035 1.46556e-21)
(0.0152652 0.000679025 3.5519e-21)
(0.0151696 0.000623542 1.59552e-21)
(0.015042 0.000552659 -1.28318e-21)
(0.01489 0.00045015 -2.58531e-22)
(0.0147312 0.000291843 1.77128e-22)
(0.0145974 5.61536e-05 -1.38805e-21)
(0.0145234 -0.000253621 -1.68577e-21)
(0.0145229 -0.000607149 -5.40281e-21)
(0.0145769 -0.000957009 2.59008e-21)
(0.0146639 -0.00125625 -1.3906e-21)
(0.0147521 -0.00147833 -6.34469e-21)
(0.0148132 -0.00161935 -1.41125e-20)
(0.0148113 -0.00169831 -7.73318e-21)
(0.0147452 -0.00174833 0)
(0.0145875 -0.0018032 -7.95033e-21)
(0.0143293 -0.00189202 2.37417e-20)
(0.0139599 -0.00203352 1.28756e-21)
(0.0134717 -0.00222799 0)
(0.0128596 -0.00244554 7.88719e-21)
(0.0121316 -0.00262616 0)
(0.011317 -0.00266303 0)
(0.0104906 -0.00257586 4.66479e-21)
(0.00986973 -0.00248022 8.6636e-21)
(0.00928014 -0.00235026 0)
(0.00868552 -0.00212799 0)
(0.00817394 -0.00181063 -2.24842e-21)
(0.00778846 -0.00141973 2.06785e-21)
(0.00756053 -0.000997672 -1.5814e-22)
(0.00751016 -0.000624854 -1.77443e-22)
(0.00752637 -0.000369238 -7.23584e-22)
(0.00752897 -0.000203164 1.80102e-23)
(0.00751183 -0.000100555 -2.7869e-23)
(0.0074842 -4.47638e-05 -3.39769e-23)
(0.00745089 -1.89554e-05 -2.42308e-22)
(0.00741531 -8.65836e-06 6.44276e-23)
(0.00737983 -4.35217e-06 1.69575e-22)
(0.00734471 -6.03403e-07 -1.99326e-24)
(0.00730854 5.1441e-06 -1.97682e-23)
(0.00726921 1.3837e-05 2.23663e-23)
(0.00722438 2.59558e-05 -4.11196e-24)
(0.00717168 4.13982e-05 0)
(0.00710837 6.03379e-05 -8.17417e-24)
(0.00703111 8.33869e-05 -2.09208e-23)
(0.00693632 0.000111412 2.36922e-22)
(0.00681941 0.000145415 -2.0895e-22)
(0.00667463 0.000186695 3.15796e-22)
(0.00649514 0.000236949 -6.65654e-22)
(0.00627258 0.000298295 6.13607e-22)
(0.00599662 0.000373791 -2.17636e-22)
(0.00565414 0.00046854 -1.02451e-22)
(0.00522777 0.000592165 4.00642e-23)
(0.00469326 0.0007643 0)
(0.00401526 0.00102644 -1.64332e-22)
(0.00314424 0.00146478 6.57008e-23)
(0.00202929 0.0022401 0)
(0.000681695 0.00356193 -9.5715e-23)
(-0.0007615 0.00526542 1.91631e-22)
(-0.000464723 0.00495548 3.44343e-22)
(-0.000254177 -0.00215986 -1.98504e-22)
(-0.000927668 -0.00309898 0)
(-0.00103318 -0.00297295 0)
(-0.000862307 -0.00259982 -1.64729e-22)
(-0.000530647 -0.00221228 1.52499e-22)
(-0.000124727 -0.00187268 2.78364e-22)
(0.000306925 -0.00159555 -2.79093e-22)
(0.000734911 -0.00137451 1.21324e-22)
(0.00114398 -0.00119794 0)
(0.00152766 -0.00105558 -1.08629e-22)
(0.00188418 -0.000939599 0)
(0.002214 -0.000844147 -8.12809e-25)
(0.00251867 -0.000764886 0)
(0.00280022 -0.000698634 -9.82211e-23)
(0.00306083 -0.000643073 0)
(0.00330271 -0.000596521 0)
(0.00352797 -0.000557788 -1.02909e-22)
(0.00373873 -0.000526072 -5.40585e-22)
(0.00393702 -0.0005009 1.33836e-21)
(0.00412493 -0.000482094 -9.0108e-22)
(0.0043046 -0.000469753 0)
(0.00447831 -0.000464263 9.41439e-22)
(0.00464858 -0.000466327 -1.06456e-21)
(0.00481822 -0.000477029 -1.45326e-22)
(0.00499051 -0.000497935 0)
(0.00516926 -0.000531244 -1.43039e-21)
(0.00535899 -0.000580009 1.41427e-21)
(0.00556506 -0.000648479 0)
(0.0057933 -0.000742707 1.8327e-21)
(0.00605156 -0.000870938 -1.81342e-21)
(0.0063526 -0.00104602 2.19923e-21)
(0.00663856 -0.00131222 -4.35775e-21)
(0.00683624 -0.00170184 -7.70198e-21)
(0.00693647 -0.0022206 -3.01279e-21)
(0.00697611 -0.00286705 7.80128e-22)
(0.0069836 -0.00364864 -8.9649e-22)
(0.00696928 -0.00456746 -9.91387e-21)
(0.00690647 -0.00560448 2.10723e-22)
(0.00675164 -0.00667422 2.97331e-21)
(0.00655746 -0.0076993 -6.89576e-21)
(0.00637947 -0.00864535 2.98897e-21)
(0.00620129 -0.00948728 -4.31474e-21)
(0.00600523 -0.0102032 3.51251e-20)
(0.00579074 -0.0107791 1.39115e-20)
(0.00554933 -0.0112082 4.41537e-21)
(0.0052672 -0.0114892 0)
(0.00493133 -0.0116276 1.39032e-21)
(0.0045325 -0.0116211 3.43538e-20)
(0.00405503 -0.0114896 1.5606e-20)
(0.00348898 -0.0112328 2.12218e-21)
(0.00283238 -0.0108556 3.25669e-20)
(0.00208944 -0.0103612 0)
(0.0012814 -0.00974956 -1.79013e-20)
(0.000417834 -0.00900477 1.53872e-22)
(-0.000437281 -0.00812012 -9.61447e-24)
(-0.00123904 -0.00708065 7.77091e-21)
(-0.00189688 -0.00588418 4.31459e-21)
(-0.00229574 -0.004516 -5.87341e-21)
(-0.00235031 -0.00300999 1.13829e-21)
(-0.00188121 -0.00142232 7.96467e-22)
(-0.000800998 0.000138237 -3.03601e-21)
(0.000967479 0.00154849 -5.61205e-22)
(0.00314244 0.00259727 -7.58979e-22)
(0.00545285 0.0032307 -1.44847e-21)
(0.00757816 0.00352188 4.88419e-21)
(0.00936333 0.00347389 -1.74707e-22)
(0.0107827 0.0032858 -5.24413e-21)
(0.0118654 0.00303667 -8.39039e-22)
(0.0126691 0.00277507 -7.6705e-21)
(0.0132646 0.00252896 1.0071e-20)
(0.0137097 0.00230915 6.73398e-21)
(0.0140456 0.00211723 0)
(0.0143022 0.00195076 9.16544e-21)
(0.0145005 0.00180607 8.13662e-21)
(0.014655 0.00167933 1.10913e-21)
(0.0147757 0.00156728 -1.76257e-20)
(0.01487 0.00146704 9.92502e-21)
(0.0149402 0.00137779 -1.05506e-21)
(0.0149898 0.00129707 7.69074e-21)
(0.0150216 0.00122274 -7.54527e-21)
(0.0150374 0.0011533 6.90525e-21)
(0.015032 0.00108964 -5.92515e-21)
(0.0150084 0.00102704 5.13243e-21)
(0.0149616 0.000964434 0)
(0.0148937 0.000894465 8.42111e-23)
(0.0148009 0.000810302 8.33359e-24)
(0.0146919 0.000694709 -3.07193e-22)
(0.0145879 0.000527013 0)
(0.0145172 0.00028912 6.52048e-22)
(0.0145075 -1.91769e-05 1.70826e-21)
(0.0145659 -0.00037154 -5.30504e-22)
(0.0146815 -0.00072544 6.11529e-21)
(0.0148206 -0.00103677 5.59972e-21)
(0.0149515 -0.00127313 -7.1577e-21)
(0.0150335 -0.00142151 -4.5414e-22)
(0.015052 -0.00149304 7.97756e-21)
(0.0149998 -0.00151503 9.09176e-21)
(0.0148651 -0.00152168 5.74755e-22)
(0.014657 -0.00154351 9.4824e-21)
(0.0143838 -0.001605 -2.06463e-20)
(0.0140566 -0.00172377 0)
(0.0136852 -0.00190607 0)
(0.0132732 -0.00214617 0)
(0.0128176 -0.00242982 -1.15315e-20)
(0.0123095 -0.002738 -7.07689e-22)
(0.0117373 -0.00305002 3.56501e-22)
(0.0110898 -0.00334524 1.24159e-21)
(0.0103608 -0.00360419 -1.00717e-20)
(0.00955114 -0.00380773 -1.09746e-20)
(0.00866595 -0.00393377 0)
(0.00771433 -0.00395412 0)
(0.00671743 -0.00384738 0)
(0.00571247 -0.00360675 0)
(0.00471206 -0.00321949 4.23129e-21)
(0.00378076 -0.0026914 2.70115e-21)
(0.00297115 -0.00201831 0)
(0.00239563 -0.00120568 1.15352e-22)
(0.00218533 -0.000280019 0)
(0.00245401 0.000719271 0)
(0.00333203 0.00171928 0)
(0.00472816 0.00255337 0)
(0.00641043 0.00311583 -1.04597e-22)
(0.00807963 0.00339034 3.47111e-21)
(0.00958076 0.00341631 1.36842e-22)
(0.0108193 0.00329212 -6.65717e-21)
(0.0117903 0.00309626 8.02546e-21)
(0.0125368 0.00287451 -8.76974e-21)
(0.013107 0.00265587 0)
(0.0135415 0.00245436 9.40983e-21)
(0.0138739 0.00227398 -8.57684e-21)
(0.0141308 0.00211409 6.7997e-21)
(0.0143309 0.00197269 -9.37262e-21)
(0.0144876 0.00184706 4.95548e-22)
(0.0146099 0.00173495 1.20041e-21)
(0.0147035 0.00163446 -5.70384e-22)
(0.0147738 0.00154308 -6.63076e-21)
(0.0148235 0.00145915 -2.76034e-21)
(0.0148561 0.00138044 -8.48256e-21)
(0.0148682 0.00130747 -1.82136e-21)
(0.0148605 0.00123722 8.51578e-21)
(0.0148373 0.00116541 1.21667e-20)
(0.0147891 0.00109227 6.18224e-21)
(0.0147219 0.00100885 -1.16733e-21)
(0.0146322 0.000908447 -8.65406e-22)
(0.0145267 0.00077576 3.43679e-22)
(0.0144238 0.000590981 -7.63838e-23)
(0.0143485 0.000334786 3.13828e-24)
(0.0143294 3.26861e-06 2.02112e-21)
(0.0143739 -0.000378514 0)
(0.0144746 -0.000766017 5.34319e-21)
(0.0145984 -0.00111219 3.62339e-21)
(0.0147101 -0.00138259 0)
(0.0147804 -0.00156344 4.75419e-21)
(0.0147682 -0.00166501 8.48093e-21)
(0.0146805 -0.00171712 -5.01633e-21)
(0.0144964 -0.00175347 5.32697e-21)
(0.0142119 -0.00180327 1.00136e-20)
(0.0138279 -0.00188843 -1.02701e-20)
(0.0133428 -0.00201432 -8.40725e-21)
(0.0127612 -0.00216646 9.16367e-21)
(0.0120988 -0.00230802 -1.00806e-20)
(0.0113847 -0.00238372 6.5237e-21)
(0.010654 -0.00234548 1.53995e-21)
(0.00995578 -0.00223158 -8.07326e-21)
(0.0094063 -0.00211758 0)
(0.00888535 -0.00196818 4.95287e-21)
(0.00837877 -0.00174599 1.12071e-21)
(0.00794544 -0.00146008 2.13048e-21)
(0.00760242 -0.00113543 -1.931e-21)
(0.00735499 -0.000805386 7.7722e-22)
(0.00720515 -0.000513256 -7.91076e-22)
(0.00711295 -0.000295834 0)
(0.0070364 -0.000146781 -3.19492e-23)
(0.00696158 -5.27648e-05 -3.64216e-22)
(0.00688823 -1.58754e-06 4.15413e-22)
(0.00681573 2.11303e-05 2.27255e-22)
(0.00674356 2.89989e-05 -2.0371e-22)
(0.00667253 3.17198e-05 4.10183e-23)
(0.00660258 3.51539e-05 -4.10039e-23)
(0.00653277 4.22184e-05 0)
(0.00646145 5.41091e-05 -6.1293e-23)
(0.00638662 7.12988e-05 5.64466e-23)
(0.00630584 9.41237e-05 -1.33561e-22)
(0.00621609 0.000123203 1.20333e-22)
(0.00611368 0.000159694 2.13245e-23)
(0.00599406 0.000205159 -2.59633e-23)
(0.00585158 0.000261536 0)
(0.0056793 0.000331281 0)
(0.00546887 0.000417394 -4.29174e-23)
(0.0052102 0.000523636 0)
(0.00489103 0.000655276 0)
(0.00449628 0.000820555 1.37671e-22)
(0.00400725 0.00103364 0)
(0.00340087 0.00132034 0)
(0.00265085 0.00172805 4.52184e-22)
(0.00173689 0.00233809 -2.35623e-22)
(0.000679174 0.00325816 0)
(-0.000383889 0.0045003 0)
(-0.00103078 0.0054227 -2.74758e-23)
(-0.000415509 0.00403605 -2.09137e-22)
(-0.000164504 -0.00166045 7.53887e-23)
(-0.000698938 -0.00274525 -2.18246e-22)
(-0.000942489 -0.00290207 -1.63729e-22)
(-0.000971827 -0.00272618 3.28179e-22)
(-0.000836027 -0.00246111 -5.73775e-22)
(-0.000600447 -0.00219001 2.83753e-22)
(-0.000307763 -0.00194412 0)
(1.10865e-05 -0.00173069 -1.22092e-22)
(0.000336237 -0.00154832 0)
(0.000655978 -0.00139309 -5.31256e-22)
(0.000963873 -0.00126086 4.22039e-22)
(0.00125666 -0.00114792 -1.0158e-22)
(0.00153299 -0.00105117 -3.97144e-22)
(0.00179273 -0.000968122 2.96841e-22)
(0.00203637 -0.000896814 -9.80795e-23)
(0.00226487 -0.000835769 0)
(0.00247941 -0.00078391 -1.01888e-22)
(0.00268133 -0.000740514 3.30594e-22)
(0.00287212 -0.000705187 -1.34225e-21)
(0.0030534 -0.000677847 9.03471e-22)
(0.00322693 -0.000658728 8.87661e-22)
(0.0033947 -0.000648404 -1.00135e-21)
(0.00355895 -0.000647832 0)
(0.00372225 -0.000658428 1.4862e-22)
(0.00388762 -0.000682167 0)
(0.0040586 -0.000721733 -1.71666e-22)
(0.00423933 -0.000780719 -1.52504e-21)
(0.00443464 -0.000863904 -1.41873e-22)
(0.00464966 -0.000977697 -3.69688e-22)
(0.0048909 -0.00113038 1.55135e-21)
(0.00516772 -0.00133386 0)