/*--------------------------------*- C++ -*----------------------------------*\
| =========                 |                                                 |
| \\      /  F ield         | OpenFOAM: The Open Source CFD Toolbox           |
|  \\    /   O peration     | Version:  2506                                  |
|   \\  /    A nd           | Website:  www.openfoam.com                      |
|    \\/     M anipulation  |                                                 |
\*---------------------------------------------------------------------------*/
FoamFile
{
    version     2.0;
    format      ascii;
    arch        "LSB;label=32;scalar=64";
    class       volScalarField;
    location    "4.8";
    object      p;
}
// * * * * * * * * * * * * * * * * * * * * * * * * * * * * * * * * * * * * * //

dimensions      [0 2 -2 0 0 0 0];

internalField   nonuniform List<scalar> 
4000
(
0.000554804
0.000496882
0.000465526
0.000451973
0.000443764
0.000438041
0.000434044
0.000431038
0.000428547
0.000426349
0.000424338
0.000422458
0.000420674
0.000418969
0.000417331
0.000415754
0.000414238
0.000412781
0.000411385
0.000410053
0.000408788
0.000407594
0.000406477
0.000405441
0.000404494
0.00040364
0.000402888
0.000402245
0.000401719
0.000401319
0.000401055
0.000400944
0.000401001
0.000401116
0.00040175
0.000402801
0.000403536
0.000403792
0.000403538
0.000402514
0.000400425
0.000396092
0.000389488
0.000381317
0.000371598
0.000360526
0.00034823
0.000334622
0.000320341
0.000305283
0.00028972
0.000274165
0.000258436
0.000243482
0.000228858
0.000215577
0.000203505
0.000192833
0.000184252
0.000176709
0.000171623
0.000167848
0.00016563
0.00016486
0.000164967
0.000166244
0.000167967
0.000170414
0.000173089
0.000176068
0.000179178
0.000182289
0.00018546
0.000188542
0.000191545
0.000194459
0.000197241
0.000199894
0.000202423
0.000204817
0.000207083
0.000209231
0.000211265
0.000213194
0.000215027
0.00021677
0.000218432
0.000220015
0.000221522
0.000222957
0.000224319
0.000225604
0.000226817
0.00022796
0.000229034
0.000230042
0.000230987
0.000231873
0.000232709
0.000233497
0.000234245
0.000234957
0.000235637
0.000236289
0.000236917
0.000237517
0.000238094
0.000238638
0.000239148
0.00023961
0.000240011
0.000240331
0.000240552
0.000240632
0.000240564
0.000240274
0.000239743
0.00023892
0.000237736
0.000236156
0.000234122
0.000231559
0.000228429
0.000224691
0.000220271
0.000215149
0.000209293
0.000202676
0.000195299
0.000187161
0.000178223
0.000168601
0.000158294
0.00014724
0.000135664
0.000123609
0.000110885
9.81273e-05
8.49504e-05
7.18235e-05
5.87856e-05
4.60806e-05
3.3942e-05
2.27403e-05
1.23342e-05
3.75745e-06
-3.91916e-06
-9.34988e-06
-1.33589e-05
-1.58022e-05
-1.64995e-05
-1.62756e-05
-1.45339e-05
-1.22692e-05
-9.08935e-06
-5.70604e-06
-1.90199e-06
1.87442e-06
5.67517e-06
9.31677e-06
1.33643e-05
1.64527e-05
1.92522e-05
2.18019e-05
2.41641e-05
2.62387e-05
2.80872e-05
2.92706e-05
2.99189e-05
3.02098e-05
3.01622e-05
2.98157e-05
2.922e-05
2.84217e-05
2.74624e-05
2.63791e-05
2.52039e-05
2.39643e-05
2.26831e-05
2.13787e-05
2.0066e-05
1.87561e-05
1.74578e-05
1.61772e-05
1.49191e-05
1.36869e-05
1.24823e-05
1.13092e-05
1.01681e-05
9.06103e-06
7.99001e-06
6.95705e-06
5.96408e-06
5.01276e-06
4.10436e-06
3.23963e-06
2.41862e-06
1.63929e-06
8.98092e-07
2.38441e-07
0.000503138
0.000480009
0.000462102
0.000452315
0.000445449
0.000439885
0.000435595
0.000432268
0.000429523
0.000427131
0.000424975
0.000422989
0.000421127
0.000419363
0.000417682
0.000416073
0.000414533
0.000413059
0.000411651
0.000410311
0.000409041
0.000407845
0.000406728
0.000405694
0.00040475
0.000403902
0.000403158
0.000402525
0.000402011
0.000401625
0.000401378
0.000401283
0.000401357
0.00040146
0.000401966
0.000402786
0.000403182
0.000403006
0.000402177
0.000400377
0.000397306
0.00039202
0.000384734
0.000376076
0.000366027
0.000354763
0.000342421
0.00032897
0.000314994
0.000300411
0.00028548
0.000270665
0.000255818
0.000241792
0.000228239
0.000215891
0.000204619
0.000194573
0.000186363
0.000179116
0.000174005
0.00017012
0.000167638
0.000166522
0.00016626
0.000167132
0.000168489
0.00017058
0.000172959
0.000175672
0.000178573
0.000181512
0.000184548
0.000187534
0.000190464
0.000193331
0.000196087
0.000198729
0.00020126
0.000203666
0.00020595
0.000208119
0.000210175
0.000212127
0.000213985
0.000215751
0.000217437
0.000219048
0.000220584
0.000222052
0.000223456
0.000224792
0.000226064
0.000227271
0.000228409
0.000229495
0.000230515
0.000231481
0.000232386
0.000233245
0.000234051
0.000234819
0.000235545
0.000236234
0.000236892
0.000237508
0.000238093
0.000238628
0.000239114
0.000239532
0.000239868
0.000240097
0.0002402
0.000240128
0.000239874
0.000239358
0.000238563
0.000237436
0.000235906
0.000233942
0.000231486
0.000228471
0.000224866
0.000220634
0.000215713
0.000210095
0.000203756
0.000196682
0.000188885
0.000180376
0.000171131
0.000161277
0.000150824
0.000139712
0.000128203
0.000116304
0.000103894
9.15188e-05
7.8894e-05
6.64173e-05
5.41623e-05
4.23335e-05
3.11529e-05
2.09108e-05
1.15778e-05
3.79153e-06
-3.1153e-06
-8.08859e-06
-1.17753e-05
-1.40825e-05
-1.4803e-05
-1.4684e-05
-1.31633e-05
-1.11406e-05
-8.23498e-06
-5.11009e-06
-1.55086e-06
2.01391e-06
5.6477e-06
9.04856e-06
1.30261e-05
1.6108e-05
1.89334e-05
2.15109e-05
2.38813e-05
2.59111e-05
2.76852e-05
2.87874e-05
2.94038e-05
2.96955e-05
2.96588e-05
2.93281e-05
2.87548e-05
2.79849e-05
2.70583e-05
2.60106e-05
2.48728e-05
2.36715e-05
2.24285e-05
2.11616e-05
1.9885e-05
1.86095e-05
1.73433e-05
1.60925e-05
1.48614e-05
1.36531e-05
1.24704e-05
1.13141e-05
1.01876e-05
9.09194e-06
8.02929e-06
7.00185e-06
6.01183e-06
5.06128e-06
4.15193e-06
3.28496e-06
2.46062e-06
1.67678e-06
9.28261e-07
2.53875e-07
0.000478807
0.000471238
0.000460668
0.000452705
0.000446439
0.000441322
0.000437025
0.000433509
0.000430559
0.000427982
0.000425678
0.000423572
0.000421615
0.000419778
0.000418039
0.000416385
0.00041481
0.000413308
0.000411877
0.00041052
0.000409236
0.000408029
0.000406903
0.000405862
0.000404913
0.000404061
0.000403313
0.000402678
0.000402162
0.000401775
0.000401524
0.000401419
0.000401476
0.000401521
0.000401877
0.000402448
0.000402466
0.000401799
0.00040036
0.000397802
0.000393881
0.000387878
0.000380167
0.000371277
0.000361153
0.000349952
0.000337826
0.000324796
0.000311369
0.000297504
0.000283411
0.000269511
0.000255725
0.000242665
0.000230083
0.000218545
0.000207987
0.000198483
0.000190554
0.000183465
0.000178188
0.000174017
0.000171103
0.000169473
0.000168673
0.000169
0.00016985
0.000171479
0.000173459
0.00017583
0.000178459
0.00018117
0.000184035
0.000186888
0.000189719
0.000192521
0.000195234
0.000197851
0.000200373
0.000202783
0.000205076
0.00020726
0.000209335
0.000211306
0.000213183
0.00021497
0.000216675
0.000218312
0.000219875
0.000221374
0.000222817
0.000224194
0.000225512
0.000226775
0.000227968
0.000229106
0.000230176
0.000231198
0.000232154
0.000233067
0.000233919
0.000234732
0.000235494
0.000236212
0.000236891
0.000237513
0.000238095
0.000238608
0.000239056
0.000239414
0.000239667
0.000239786
0.000239749
0.000239505
0.000239047
0.000238291
0.000237221
0.000235785
0.000233915
0.000231583
0.000228736
0.000225317
0.0002213
0.000216657
0.000211341
0.00020535
0.000198675
0.000191309
0.000183273
0.000174586
0.000165248
0.000155364
0.00014496
0.000134014
0.000122747
0.000111177
9.92537e-05
8.74193e-05
7.54758e-05
6.3751e-05
5.23379e-05
4.13951e-05
3.11165e-05
2.17083e-05
1.31346e-05
5.92714e-06
-4.55335e-07
-5.18582e-06
-8.76327e-06
-1.11492e-05
-1.2085e-05
-1.2266e-05
-1.11056e-05
-9.46275e-06
-6.91132e-06
-4.12713e-06
-8.54286e-07
2.45208e-06
5.9155e-06
9.0324e-06
1.30185e-05
1.59952e-05
1.87519e-05
2.12995e-05
2.36469e-05
2.55963e-05
2.72914e-05
2.82948e-05
2.88655e-05
2.91561e-05
2.91264e-05
2.88051e-05
2.82483e-05
2.75021e-05
2.66048e-05
2.55904e-05
2.44889e-05
2.33257e-05
2.2122e-05
2.08944e-05
1.96565e-05
1.84183e-05
1.71877e-05
1.59702e-05
1.47696e-05
1.35888e-05
1.24301e-05
1.12949e-05
1.01849e-05
9.10251e-06
8.04979e-06
7.02902e-06
6.04275e-06
5.09345e-06
4.18328e-06
3.31385e-06
2.48569e-06
1.69677e-06
9.39899e-07
2.51368e-07
0.000467814
0.000465029
0.000458576
0.000452082
0.000446776
0.000442226
0.000438089
0.000434608
0.00043156
0.000428845
0.000426411
0.000424181
0.000422117
0.000420193
0.000418381
0.000416666
0.000415039
0.000413494
0.000412026
0.000410636
0.000409323
0.000408089
0.000406937
0.000405872
0.000404898
0.00040402
0.000403246
0.000402581
0.000402033
0.000401608
0.00040131
0.000401143
0.000401116
0.000401043
0.000401226
0.000401551
0.000401213
0.000400079
0.000398086
0.000394906
0.000390368
0.000383913
0.000375988
0.00036704
0.000357017
0.00034607
0.00033436
0.000321942
0.000309267
0.000296292
0.000283155
0.000270307
0.000257666
0.000245646
0.000234103
0.000223412
0.000213565
0.000204578
0.00019686
0.000189848
0.000184305
0.000179724
0.000176242
0.000173936
0.000172441
0.000172054
0.000172239
0.000173254
0.0001747
0.000176609
0.000178861
0.000181257
0.000183879
0.000186541
0.000189224
0.000191923
0.000194562
0.000197129
0.000199624
0.000202021
0.000204312
0.000206503
0.000208588
0.000210572
0.000212465
0.000214266
0.000215986
0.000217643
0.000219226
0.000220749
0.000222224
0.000223637
0.000224996
0.000226309
0.000227553
0.000228754
0.000229881
0.000230964
0.000231973
0.000232943
0.000233839
0.000234694
0.000235489
0.000236228
0.000236921
0.000237539
0.000238105
0.000238582
0.000238974
0.000239253
0.000239401
0.000239387
0.000239188
0.000238748
0.000238063
0.000237047
0.000235686
0.000233932
0.000231719
0.000229026
0.000225809
0.000222015
0.000217631
0.000212637
0.000207
0.000200728
0.00019382
0.000186281
0.00017814
0.000169424
0.000160147
0.000150403
0.000140232
0.000129638
0.000118804
0.00010776
9.65053e-05
8.53832e-05
7.42689e-05
6.3415e-05
5.292e-05
4.28943e-05
3.34945e-05
2.48579e-05
1.69554e-05
1.01948e-05
4.15775e-06
-5.37101e-07
-4.23387e-06
-6.92125e-06
-8.3043e-06
-8.99429e-06
-8.39334e-06
-7.29538e-06
-5.23925e-06
-2.90228e-06
7.27472e-09
3.00108e-06
6.28769e-06
9.13294e-06
1.31448e-05
1.59967e-05
1.8646e-05
2.11355e-05
2.34479e-05
2.53076e-05
2.69239e-05
2.78164e-05
2.83205e-05
2.85946e-05
2.85583e-05
2.82325e-05
2.76796e-05
2.69472e-05
2.60713e-05
2.50842e-05
2.40149e-05
2.28876e-05
2.17222e-05
2.05345e-05
1.93368e-05
1.81387e-05
1.69471e-05
1.57668e-05
1.46012e-05
1.34526e-05
1.23227e-05
1.12131e-05
1.01253e-05
9.0616e-06
8.0239e-06
7.01474e-06
6.03686e-06
5.09303e-06
4.18573e-06
3.3168e-06
2.48686e-06
1.69396e-06
9.31389e-07
2.3386e-07
0.000461083
0.000459756
0.000455782
0.000451087
0.000446758
0.000442687
0.000438934
0.000435597
0.000432502
0.000429722
0.000427206
0.000424851
0.000422669
0.000420647
0.000418745
0.000416948
0.00041525
0.000413643
0.000412119
0.000410677
0.000409316
0.000408035
0.000406837
0.000405724
0.0004047
0.00040377
0.000402939
0.000402213
0.000401595
0.000401089
0.000400697
0.000400413
0.000400242
0.000400002
0.000399968
0.00040001
0.00039931
0.000397731
0.000395235
0.000391542
0.000386544
0.000379809
0.000371811
0.000362935
0.000353155
0.000342617
0.000331483
0.000319839
0.000307998
0.000295992
0.000284023
0.000272333
0.00026089
0.000249983
0.000239536
0.000229764
0.000220683
0.000212276
0.000204833
0.000197959
0.000192205
0.000187244
0.000183187
0.000180151
0.000177882
0.000176648
0.000176021
0.000176249
0.000176991
0.00017827
0.000179989
0.000181932
0.000184189
0.000186558
0.00018901
0.000191535
0.000194046
0.00019652
0.000198955
0.000201316
0.000203587
0.000205773
0.000207862
0.000209855
0.000211763
0.000213578
0.000215313
0.000216989
0.000218592
0.000220137
0.000221644
0.000223093
0.000224492
0.000225858
0.000227152
0.000228415
0.000229601
0.000230748
0.000231812
0.000232838
0.000233777
0.000234671
0.00023549
0.000236241
0.000236932
0.000237527
0.000238055
0.000238469
0.000238774
0.000238941
0.000238946
0.000238759
0.000238357
0.00023768
0.00023673
0.000235417
0.000233737
0.000231643
0.000229076
0.000226023
0.000222449
0.00021831
0.000213603
0.000208319
0.000202437
0.000195974
0.000188939
0.000181349
0.000173237
0.000164638
0.000155576
0.000146136
0.000136373
0.000126304
0.000116059
0.000105701
9.5258e-05
8.49785e-05
7.47946e-05
6.48891e-05
5.53537e-05
4.62575e-05
3.77171e-05
2.98163e-05
2.25374e-05
1.61583e-05
1.03856e-05
5.64296e-06
1.72614e-06
-1.36277e-06
-3.32887e-06
-4.66324e-06
-4.79646e-06
-4.40515e-06
-3.02662e-06
-1.29118e-06
1.11133e-06
3.68348e-06
6.72898e-06
9.28524e-06
1.32794e-05
1.59977e-05
1.85058e-05
2.09053e-05
2.31604e-05
2.4907e-05
2.64164e-05
2.71739e-05
2.75897e-05
2.78329e-05
2.77818e-05
2.74462e-05
2.6895e-05
2.61775e-05
2.53269e-05
2.4373e-05
2.33433e-05
2.22606e-05
2.11432e-05
2.00055e-05
1.88587e-05
1.77115e-05
1.65701e-05
1.54386e-05
1.43193e-05
1.3214e-05
1.21242e-05
1.10511e-05
9.99615e-06
8.96124e-06
7.94848e-06
6.96029e-06
5.99942e-06
5.06872e-06
4.17077e-06
3.30747e-06
2.47959e-06
1.68541e-06
9.20675e-07
2.10583e-07
0.000456591
0.000455834
0.00045327
0.000449864
0.000446369
0.000442911
0.000439553
0.000436345
0.000433282
0.000430526
0.000427983
0.000425511
0.000423225
0.000421112
0.000419111
0.000417221
0.000415442
0.000413758
0.000412162
0.00041065
0.000409222
0.000407873
0.000406606
0.000405422
0.000404323
0.000403313
0.000402394
0.000401569
0.000400842
0.000400213
0.000399679
0.00039923
0.000398863
0.000398414
0.000398119
0.00039783
0.000396763
0.000394771
0.000391835
0.00038773
0.000382403
0.000375529
0.000367582
0.000358894
0.000349473
0.000339463
0.000329017
0.000318224
0.000307293
0.000296337
0.000285606
0.000275096
0.000264853
0.000255079
0.000245725
0.000236904
0.000228624
0.000220858
0.000213784
0.000207155
0.000201333
0.000196125
0.000191599
0.000187915
0.000184923
0.000182828
0.000181339
0.000180679
0.000180591
0.000181092
0.000182117
0.000183455
0.000185193
0.000187134
0.000189235
0.000191482
0.000193775
0.000196085
0.0001984
0.000200679
0.000202896
0.000205051
0.000207127
0.000209119
0.000211035
0.000212863
0.000214613
0.000216311
0.000217934
0.000219504
0.000221041
0.000222525
0.000223962
0.000225379
0.000226723
0.000228048
0.000229287
0.000230496
0.000231611
0.000232691
0.000233665
0.000234588
0.000235417
0.000236161
0.000236828
0.000237372
0.000237829
0.000238141
0.000238318
0.000238327
0.000238142
0.000237735
0.000237082
0.000236125
0.000234872
0.000233234
0.000231212
0.000228769
0.000225854
0.00022246
0.000218562
0.000214129
0.000209167
0.000203675
0.000197645
0.0001911
0.00018406
0.000176548
0.000168603
0.000160263
0.000151559
0.000142569
0.000133353
0.000123919
0.000114398
0.000104847
9.52931e-05
8.59177e-05
7.66964e-05
6.77522e-05
5.91607e-05
5.09604e-05
4.32311e-05
3.60191e-05
2.92982e-05
2.32628e-05
1.7718e-05
1.29121e-05
8.75801e-06
5.26153e-06
2.67891e-06
6.56945e-07
-2.99955e-07
-7.13625e-07
-1.59896e-07
8.30787e-07
2.56845e-06
4.58511e-06
7.2757e-06
9.49467e-06
1.3355e-05
1.5915e-05
1.82466e-05
2.05133e-05
2.2673e-05
2.42736e-05
2.56351e-05
2.62361e-05
2.65489e-05
2.67495e-05
2.66792e-05
2.63356e-05
2.57922e-05
2.50993e-05
2.42865e-05
2.33798e-05
2.24048e-05
2.13827e-05
2.03296e-05
1.92581e-05
1.81782e-05
1.70982e-05
1.60232e-05
1.49563e-05
1.38989e-05
1.28522e-05
1.18173e-05
1.07951e-05
9.78697e-06
8.79464e-06
7.81999e-06
6.86521e-06
5.93279e-06
5.02539e-06
4.14545e-06
3.29477e-06
2.47421e-06
1.68212e-06
9.18004e-07
1.8684e-07
0.000453575
0.000453087
0.000451306
0.000448729
0.000445861
0.000442876
0.000439846
0.000436847
0.000433939
0.000431188
0.000428571
0.000426057
0.000423731
0.000421549
0.000419441
0.000417455
0.000415591
0.000413826
0.000412149
0.000410555
0.000409046
0.000407614
0.000406259
0.000404983
0.000403785
0.000402667
0.000401629
0.000400674
0.000399802
0.000399009
0.000398291
0.000397632
0.000397026
0.000396333
0.000395739
0.000395084
0.000393654
0.000391297
0.000387995
0.00038358
0.000378042
0.000371154
0.000363363
0.000354959
0.000345987
0.000336585
0.000326889
0.000316982
0.000307066
0.000297218
0.000287607
0.00027825
0.000269179
0.000260507
0.000252206
0.000244314
0.00023683
0.000229729
0.000223097
0.000216795
0.000211065
0.000205775
0.00020092
0.000196748
0.000193186
0.000190334
0.00018804
0.0001865
0.000185547
0.000185195
0.000185416
0.000186026
0.000187103
0.000188474
0.000190088
0.000191926
0.000193884
0.000195928
0.000198034
0.000200157
0.000202258
0.000204334
0.00020636
0.000208323
0.000210228
0.000212058
0.000213817
0.000215534
0.000217176
0.00021877
0.000220336
0.000221852
0.000223324
0.000224787
0.000226173
0.000227553
0.000228839
0.000230103
0.000231259
0.000232381
0.000233376
0.000234311
0.000235129
0.000235841
0.000236452
0.000236911
0.000237254
0.000237422
0.000237423
0.000237226
0.000236803
0.000236132
0.000235187
0.000233918
0.000232337
0.000230359
0.000227997
0.000225219
0.000221984
0.000218295
0.000214135
0.000209483
0.000204355
0.000198757
0.000192691
0.000186186
0.000179267
0.000171962
0.000164312
0.000156358
0.000148131
0.000139699
0.000131133
0.00012241
0.000113696
0.000105007
9.63597e-05
8.78933e-05
7.96117e-05
7.15898e-05
6.38828e-05
5.65089e-05
4.9515e-05
4.292e-05
3.66939e-05
3.09808e-05
2.5649e-05
2.07863e-05
1.64154e-05
1.25568e-05
9.39085e-06
6.7063e-06
4.92199e-06
3.68185e-06
3.33082e-06
3.48093e-06
4.42638e-06
5.76452e-06
7.96051e-06
9.77705e-06
1.33296e-05
1.56839e-05
1.78003e-05
1.98815e-05
2.18908e-05
2.33091e-05
2.44804e-05
2.49167e-05
2.51224e-05
2.52713e-05
2.51805e-05
2.4836e-05
2.43128e-05
2.36608e-05
2.29042e-05
2.20641e-05
2.11638e-05
2.02228e-05
1.92545e-05
1.82688e-05
1.7275e-05
1.62809e-05
1.52912e-05
1.43074e-05
1.33298e-05
1.23588e-05
1.13953e-05
1.04401e-05
9.49449e-06
8.55997e-06
7.63812e-06
6.73057e-06
5.8393e-06
4.96657e-06
4.11445e-06
3.28435e-06
2.47709e-06
1.69063e-06
9.29223e-07
1.66953e-07
0.000451571
0.000451212
0.000449865
0.000447806
0.000445376
0.000442733
0.000439962
0.000437146
0.000434354
0.000431638
0.000429018
0.000426503
0.000424116
0.000421848
0.000419681
0.000417626
0.000415682
0.000413833
0.000412072
0.000410393
0.000408792
0.000407267
0.000405813
0.00040443
0.000403115
0.000401868
0.000400688
0.000399575
0.000398527
0.000397539
0.000396602
0.000395699
0.000394821
0.000393855
0.000392933
0.000391891
0.000390113
0.000387438
0.000383845
0.000379215
0.00037357
0.00036677
0.00035922
0.000351175
0.000342714
0.000333972
0.000325063
0.000316068
0.000307154
0.000298384
0.000289855
0.000281598
0.000273629
0.000265988
0.000258663
0.000251644
0.000244924
0.000238474
0.000232319
0.000226384
0.000220887
0.000215672
0.000210612
0.000206125
0.000202184
0.000198743
0.000195774
0.000193455
0.00019169
0.000190496
0.000189885
0.000189707
0.000190027
0.000190716
0.000191723
0.000193024
0.000194517
0.000196175
0.000197961
0.000199824
0.00020172
0.000203642
0.000205554
0.000207436
0.000209288
0.000211089
0.000212834
0.000214553
0.000216204
0.000217814
0.000219402
0.000220945
0.000222443
0.000223943
0.00022536
0.000226781
0.0002281
0.000229402
0.000230581
0.000231725
0.00023272
0.000233642
0.00023442
0.000235067
0.000235586
0.000235919
0.000236106
0.000236086
0.000235866
0.000235422
0.000234724
0.000233758
0.000232499
0.000230907
0.000228996
0.000226695
0.000224021
0.000220953
0.000217458
0.000213546
0.00020921
0.000204436
0.000199249
0.000193661
0.000187681
0.000181338
0.000174662
0.000167683
0.000160441
0.000152973
0.000145316
0.000137527
0.000129655
0.000121709
0.000113812
0.000105967
9.82028e-05
9.06115e-05
8.32083e-05
7.60344e-05
6.91249e-05
6.24873e-05
5.61399e-05
5.00827e-05
4.42828e-05
3.88704e-05
3.37523e-05
2.88425e-05
2.42925e-05
2.0139e-05
1.64517e-05
1.31662e-05
1.06162e-05
8.59304e-06
7.31913e-06
6.58525e-06
6.66084e-06
7.22914e-06
8.79015e-06
1.01288e-05
1.318e-05
1.52569e-05
1.71096e-05
1.89447e-05
2.07354e-05
2.19355e-05
2.28815e-05
2.31609e-05
2.32678e-05
2.3361e-05
2.32534e-05
2.29219e-05
2.24375e-05
2.18476e-05
2.11699e-05
2.04191e-05
1.96167e-05
1.87802e-05
1.79187e-05
1.70399e-05
1.61528e-05
1.52656e-05
1.43817e-05
1.35003e-05
1.26203e-05
1.17421e-05
1.08662e-05
9.99345e-06
9.12556e-06
8.26381e-06
7.40902e-06
6.562e-06
5.72406e-06
4.89697e-06
4.0822e-06
3.28047e-06
2.49227e-06
1.71475e-06
9.56955e-07
1.54888e-07
0.000450322
0.000450027
0.000448913
0.000447156
0.000445
0.00044258
0.000439985
0.000437296
0.000434586
0.000431908
0.000429297
0.000426771
0.000424346
0.000422027
0.000419811
0.000417697
0.000415681
0.000413758
0.000411919
0.000410159
0.000408466
0.000406844
0.000405286
0.000403787
0.000402344
0.000400955
0.000399618
0.000398328
0.000397083
0.000395878
0.0003947
0.000393528
0.000392352
0.000391092
0.000389825
0.000388389
0.000386279
0.000383333
0.000379516
0.00037475
0.000369083
0.000362449
0.000355204
0.000347573
0.000339667
0.000331615
0.000323507
0.000315422
0.00030748
0.000299735
0.000292237
0.000285004
0.000278042
0.000271342
0.000264901
0.000258679
0.000252664
0.00024683
0.00024116
0.000235657
0.000230384
0.00022532
0.000220277
0.000215592
0.000211385
0.000207535
0.000204082
0.000201158
0.000198697
0.000196745
0.000195355
0.0001944
0.000193933
0.000193883
0.000194205
0.000194875
0.000195787
0.000196941
0.000198291
0.000199776
0.000201357
0.000203025
0.000204735
0.000206456
0.000208185
0.000209897
0.000211581
0.000213262
0.000214892
0.000216494
0.000218082
0.000219632
0.000221138
0.000222654
0.000224084
0.000225524
0.000226855
0.000228165
0.000229341
0.000230477
0.00023144
0.000232316
0.00023302
0.000233566
0.000233955
0.000234126
0.000234121
0.00023388
0.00023341
0.000232696
0.000231708
0.000230441
0.000228876
0.000226982
0.000224776
0.000222202
0.000219279
0.000215997
0.000212332
0.000208296
0.000203889
0.000199106
0.00019398
0.000188523
0.000182748
0.000176683
0.000170359
0.000163805
0.000157058
0.000150152
0.000143121
0.000136016
0.000128855
0.000121689
0.000114581
0.000107544
0.000100606
9.38213e-05
8.72079e-05
8.07871e-05
7.45748e-05
6.85754e-05
6.27838e-05
5.71961e-05
5.17956e-05
4.66161e-05
4.16147e-05
3.67173e-05
3.20899e-05
2.77006e-05
2.35537e-05
1.97361e-05
1.65331e-05
1.38098e-05
1.16359e-05
1.00149e-05
9.19023e-06
8.93163e-06
9.74175e-06
1.05121e-05
1.28925e-05
1.46022e-05
1.61318e-05
1.76556e-05
1.91545e-05
2.01067e-05
2.08081e-05
2.09531e-05
2.09801e-05
2.10194e-05
2.09048e-05
2.06098e-05
2.01924e-05
1.9692e-05
1.91171e-05
1.84782e-05
1.77996e-05
1.70922e-05
1.6357e-05
1.56014e-05
1.48378e-05
1.40785e-05
1.33235e-05
1.25642e-05
1.17982e-05
1.10283e-05
1.02536e-05
9.47506e-06
8.69721e-06
7.92095e-06
7.14521e-06
6.36969e-06
5.59499e-06
4.8225e-06
4.05303e-06
3.28621e-06
2.52185e-06
1.75597e-06
9.9996e-07
1.53654e-07
0.0004497
0.000449432
0.000448423
0.000446808
0.000444785
0.000442477
0.00043997
0.000437345
0.000434676
0.000432018
0.000429408
0.00042687
0.00042442
0.000422066
0.000419809
0.000417647
0.000415575
0.00041359
0.000411682
0.000409845
0.000408071
0.000406355
0.000404693
0.000403077
0.000401503
0.000399967
0.000398464
0.000396988
0.000395533
0.000394102
0.000392676
0.000391217
0.000389727
0.000388158
0.000386539
0.000384713
0.000382288
0.000379106
0.00037512
0.000370283
0.000364658
0.000358245
0.000351347
0.000344169
0.000336848
0.000329498
0.00032219
0.000314995
0.000307984
0.000301202
0.000294663
0.000288366
0.000282308
0.00027645
0.000270793
0.000265281
0.000259898
0.000254627
0.000249415
0.000244319
0.000239275
0.000234383
0.000229527
0.000224869
0.000220486
0.000216323
0.000212548
0.000209199
0.000206181
0.000203594
0.00020154
0.00019988
0.000198656
0.000197869
0.000197484
0.000197456
0.000197734
0.000198293
0.000199116
0.000200111
0.000201253
0.000202556
0.000203964
0.000205424
0.000206931
0.000208465
0.00021001
0.000211584
0.000213134
0.00021468
0.000216221
0.000217739
0.000219216
0.000220709
0.000222117
0.000223537
0.000224844
0.000226128
0.000227266
0.000228353
0.000229249
0.00023004
0.000230635
0.000231049
0.000231276
0.000231262
0.000231043
0.000230569
0.000229847
0.000228871
0.000227613
0.000226077
0.000224248
0.00022211
0.000219679
0.000216916
0.000213843
0.000210455
0.000206735
0.000202689
0.000198325
0.000193653
0.000188712
0.000183504
0.000178039
0.000172351
0.000166467
0.000160411
0.000154215
0.00014791
0.000141526
0.000135098
0.000128651
0.000122227
0.000115857
0.000109564
0.00010337
9.73021e-05
9.13775e-05
8.56069e-05
7.99888e-05
7.453e-05
6.92056e-05
6.4015e-05
5.89355e-05
5.39572e-05
4.90741e-05
4.42319e-05
3.95169e-05
3.49542e-05
3.04937e-05
2.62239e-05
2.24119e-05
1.90255e-05
1.60397e-05
1.35943e-05
1.18907e-05
1.07743e-05
1.07465e-05
1.08816e-05
1.24401e-05
1.36855e-05
1.48315e-05
1.59854e-05
1.7128e-05
1.78179e-05
1.82824e-05
1.8331e-05
1.83075e-05
1.8305e-05
1.81922e-05
1.79492e-05
1.76351e-05
1.72694e-05
1.68239e-05
1.63147e-05
1.57938e-05
1.52503e-05
1.46578e-05
1.40292e-05
1.33858e-05
1.27602e-05
1.21524e-05
1.15347e-05
1.08986e-05
1.02522e-05
9.59141e-06
8.91554e-06
8.23588e-06
7.55303e-06
6.86408e-06
6.16693e-06
5.46131e-06
4.74908e-06
4.03026e-06
3.30281e-06
2.56571e-06
1.8141e-06
1.05149e-06
1.61935e-07
0.000449648
0.000449382
0.000448379
0.000446772
0.000444756
0.000442451
0.000439945
0.00043732
0.000434646
0.00043198
0.000429358
0.000426805
0.000424334
0.000421955
0.000419669
0.000417471
0.000415357
0.000413322
0.000411358
0.000409456
0.000407608
0.000405807
0.000404046
0.000402319
0.000400618
0.000398937
0.000397269
0.000395605
0.000393932
0.000392277
0.000390613
0.000388863
0.000387047
0.000385162
0.00038319
0.000380984
0.000378259
0.000374867
0.000370749
0.000365886
0.000360348
0.000354191
0.000347665
0.000340965
0.000334247
0.000327603
0.000321081
0.000314743
0.000308613
0.000302724
0.00029706
0.000291603
0.000286343
0.000281223
0.000276248
0.000271353
0.000266523
0.000261751
0.000256959
0.000252244
0.000247477
0.000242798
0.000238121
0.000233522
0.000229103
0.000224867
0.0002209
0.000217204
0.000213731
0.000210673
0.000208103
0.000205844
0.000203936
0.000202466
0.000201418
0.000200692
0.000200301
0.000200204
0.000200403
0.000200881
0.000201475
0.000202301
0.000203308
0.000204411
0.000205589
0.000206837
0.000208137
0.000209504
0.000210889
0.000212302
0.000213724
0.000215142
0.000216529
0.000217937
0.00021927
0.000220612
0.000221846
0.00022305
0.000224106
0.000225096
0.000225888
0.000226557
0.000227012
0.000227272
0.00022732
0.000227117
0.000226688
0.000226001
0.000225061
0.00022387
0.000222405
0.000220673
0.000218662
0.000216371
0.000213816
0.000210971
0.000207861
0.00020449
0.000200848
0.000196917
0.000192711
0.000188271
0.000183631
0.000178772
0.000173699
0.000168458
0.00016307
0.000157553
0.000151933
0.000146235
0.000140485
0.000134712
0.000128934
0.000123188
0.000117486
0.000111854
0.000106309
0.000100859
9.55199e-05
9.02977e-05
8.51743e-05
8.01644e-05
7.52244e-05
7.03616e-05
6.55422e-05
6.07442e-05
5.59761e-05
5.11813e-05
4.63935e-05
4.16722e-05
3.69844e-05
3.2448e-05
2.8129e-05
2.41018e-05
2.03593e-05
1.7168e-05
1.46217e-05
1.26331e-05
1.1667e-05
1.12522e-05
1.18458e-05
1.25027e-05
1.31995e-05
1.39408e-05
1.46802e-05
1.50998e-05
1.53599e-05
1.53751e-05
1.5362e-05
1.53731e-05
1.52715e-05
1.50352e-05
1.48272e-05
1.46624e-05
1.43861e-05
1.40173e-05
1.36609e-05
1.32891e-05
1.28631e-05
1.24043e-05
1.19343e-05
1.14643e-05
1.09935e-05
1.05072e-05
9.99055e-06
9.45024e-06
8.89905e-06
8.33771e-06
7.76571e-06
7.18163e-06
6.58366e-06
5.96711e-06
5.33078e-06
4.68042e-06
4.0143e-06
3.32796e-06
2.61804e-06
1.87739e-06
1.10555e-06
1.79123e-07
0.000450167
0.000449878
0.000448785
0.000447054
0.000444917
0.000442509
0.000439917
0.000437223
0.000434499
0.000431796
0.000429148
0.000426575
0.000424088
0.000421694
0.00041939
0.000417169
0.000415027
0.000412959
0.000410952
0.000408998
0.000407088
0.000405213
0.000403365
0.000401535
0.000399716
0.0003979
0.000396077
0.000394239
0.000392376
0.000390484
0.00038854
0.000386516
0.000384411
0.000382214
0.000379886
0.000377311
0.000374296
0.000370705
0.000366476
0.000361614
0.000356189
0.000350306
0.000344167
0.000337959
0.00033185
0.000325908
0.000320149
0.000314628
0.000309318
0.000304244
0.000299363
0.000294644
0.000290074
0.000285586
0.000281189
0.00027682
0.00027246
0.000268121
0.000263703
0.000259334
0.000254846
0.000250399
0.000245916
0.000241453
0.000237086
0.000232819
0.000228716
0.0002248
0.000221117
0.000217751
0.000214709
0.000211948
0.000209445
0.000207401
0.000205779
0.000204426
0.000203361
0.000202591
0.000202154
0.000202052
0.000202101
0.000202356
0.000202835
0.000203491
0.000204249
0.000205109
0.00020605
0.000207088
0.000208201
0.000209391
0.000210605
0.00021183
0.000213041
0.000214275
0.000215458
0.000216648
0.000217746
0.000218806
0.000219728
0.000220571
0.000221223
0.000221737
0.000222038
0.000222138
0.000222017
0.000221644
0.000221036
0.000220177
0.000219075
0.000217744
0.00021617
0.000214357
0.000212292
0.000209989
0.000207458
0.000204696
0.000201699
0.000198462
0.000194991
0.000191267
0.000187313
0.000183195
0.000178919
0.000174471
0.000169851
0.000165094
0.000160221
0.000155247
0.000150192
0.000145077
0.000139923
0.000134751
0.000129573
0.000124429
0.000119308
0.000114246
0.00010925
0.000104321
9.94661e-05
9.46962e-05
8.99763e-05
8.53325e-05
8.07033e-05
7.61086e-05
7.15011e-05
6.68622e-05
6.21976e-05
5.74553e-05
5.26438e-05
4.78402e-05
4.29631e-05
3.81695e-05
3.33919e-05
2.88675e-05
2.45564e-05
2.06738e-05
1.72349e-05
1.43776e-05
1.24453e-05
1.14311e-05
1.10694e-05
1.106e-05
1.12645e-05
1.15935e-05
1.19044e-05
1.20085e-05
1.20824e-05
1.21447e-05
1.21714e-05
1.21883e-05
1.21932e-05
1.21448e-05
1.20986e-05
1.20571e-05
1.1909e-05
1.17052e-05
1.15595e-05
1.13825e-05
1.11232e-05
1.08289e-05
1.05205e-05
1.01979e-05
9.858e-06
9.49544e-06
9.10528e-06
8.69045e-06
8.25632e-06
7.80378e-06
7.33014e-06
6.83777e-06
6.32772e-06
5.78748e-06
5.2148e-06
4.62533e-06
4.0101e-06
3.36315e-06
2.68292e-06
1.96198e-06
1.21941e-06
2.45203e-07
0.000451314
0.000450968
0.000449664
0.000447653
0.000445257
0.000442632
0.000439864
0.000437035
0.000434218
0.000431454
0.000428772
0.000426179
0.000423679
0.000421287
0.000418984
0.00041675
0.000414595
0.000412511
0.00041048
0.000408489
0.000406531
0.000404596
0.000402674
0.000400757
0.000398834
0.000396895
0.000394931
0.00039293
0.000390881
0.000388771
0.000386583
0.000384301
0.00038191
0.000379404
0.000376725
0.000373792
0.000370488
0.000366695
0.000362359
0.000357508
0.000352204