/*--------------------------------*- C++ -*----------------------------------*\
| =========                 |                                                 |
| \\      /  F ield         | OpenFOAM: The Open Source CFD Toolbox           |
|  \\    /   O peration     | Version:  2506                                  |
|   \\  /    A nd           | Website:  www.openfoam.com                      |
|    \\/     M anipulation  |                                                 |
\*---------------------------------------------------------------------------*/
FoamFile
{
    version     2.0;
    format      ascii;
    arch        "LSB;label=32;scalar=64";
    class       volScalarField;
    location    "0.00126986";
    object      s;
}
// * * * * * * * * * * * * * * * * * * * * * * * * * * * * * * * * * * * * * //

dimensions      [0 0 0 0 0 0 0];

internalField   nonuniform List<scalar> 
4000
(
0.0476615
3.98009e-06
-1.26035e-06
-1.98338e-08
-1.13237e-10
-6.3274e-13
-3.29309e-15
-1.75923e-17
5.06432e-18
7.94119e-20
-7.32247e-21
-1.40131e-22
9.79251e-24
1.33981e-25
-1.67776e-26
-9.31128e-29
2.94373e-29
1.14107e-31
-4.54066e-32
-3.51738e-34
5.32307e-35
6.60116e-37
-4.70621e-38
-8.03691e-40
3.08882e-41
6.08571e-43
-1.7864e-44
-3.27352e-46
1.11143e-47
1.34579e-49
-8.22063e-51
-8.7978e-53
4.64883e-54
5.27482e-56
-2.06826e-57
-2.7328e-59
6.68003e-61
1.15792e-62
-1.82043e-64
-4.72035e-66
3.59999e-68
1.83542e-69
-2.74713e-73
-6.50519e-73
-5.37005e-75
1.68777e-76
3.30559e-78
-2.05526e-80
-1.22474e-81
-7.86295e-84
2.37694e-85
4.69979e-87
-2.65724e-90
-1.11527e-90
-1.34952e-92
4.0896e-95
2.55389e-96
1.39159e-98
-3.87149e-100
-6.55189e-102
5.39885e-104
3.94772e-105
8.55769e-107
1.04409e-108
1.17114e-111
-3.6133e-112
-1.36185e-113
-3.6304e-115
-8.36161e-117
-1.73764e-118
-3.3441e-120
-6.02997e-122
-1.02175e-123
-1.64285e-125
-2.50948e-127
-3.64781e-129
-5.06028e-131
-6.70064e-133
-8.46144e-135
-1.01988e-136
-1.17301e-138
-1.28651e-140
-1.34551e-142
-1.34125e-144
-1.27333e-146
-1.15196e-148
-9.92293e-151
-8.12387e-153
-6.33296e-155
-4.6959e-157
-3.30394e-159
-2.21307e-161
-1.40898e-163
-8.5162e-166
-4.91129e-168
-2.68999e-170
-1.41106e-172
-7.06263e-175
-3.40424e-177
-1.57687e-179
-7.1009e-182
-3.1105e-184
-1.33894e-186
-5.69418e-189
-2.40918e-191
-1.02315e-193
-4.38466e-196
-1.91097e-198
-8.51052e-201
-3.893e-203
-1.83637e-205
-8.95992e-208
-4.53535e-210
-2.38349e-212
-1.30436e-214
-7.4301e-217
-4.40966e-219
-2.72826e-221
-1.7583e-223
-1.18054e-225
-8.25717e-228
-6.01062e-230
-4.55076e-232
-3.58297e-234
-2.93038e-236
-2.48804e-238
-2.19127e-240
-1.99982e-242
-1.89004e-244
-1.84892e-246
-1.8683e-248
-1.94968e-250
-2.10034e-252
-2.32983e-254
-2.66045e-256
-3.12706e-258
-3.76866e-260
-4.66162e-262
-5.90012e-264
-7.63355e-266
-1.00747e-267
-1.35341e-269
-1.84595e-271
-2.55037e-273
-3.5567e-275
-4.99288e-277
-7.03393e-279
-9.89038e-281
-1.38533e-282
-1.92015e-284
-2.61615e-286
-3.50543e-288
-4.57061e-290
-5.80383e-292
-7.09707e-294
-8.35909e-296
-9.36683e-298
-9.95605e-300
-9.86529e-302
-8.95134e-304
-7.05196e-306
-5.27171e-308
-3.78174e-310
-2.63542e-312
-1.8074e-314
-1.27445e-316
0
0
0
0
0
0
0
0
0
0
0
0
0
0
0
0
0
0
0
0
0
0
0
0
0
0
0
0
0
0
0
0
0
0
0.0478166
4.19459e-06
-1.3344e-06
-2.15944e-08
-1.33082e-10
-8.21153e-13
-4.92977e-15
-3.20447e-17
6.1493e-18
1.05339e-19
-9.99148e-21
-2.17144e-22
1.17455e-23
2.08067e-25
-2.07953e-26
-1.90929e-28
3.5821e-29
2.12785e-31
-5.72325e-32
-5.54335e-34
6.78266e-35
9.76384e-37
-6.05528e-38
-1.19068e-39
3.88891e-41
9.07219e-43
-2.18369e-44
-4.97823e-46
1.34502e-47
2.07451e-49
-1.05939e-50
-1.39519e-52
6.13035e-54
8.4355e-56
-2.9556e-57
-4.90608e-59
1.04449e-60
2.33149e-62
-2.93366e-64
-1.01539e-65
4.57727e-68
3.91421e-69
1.0786e-71
-1.29951e-72
-1.46847e-74
2.93562e-76
7.36192e-78
-1.78919e-80
-2.37719e-81
-2.18427e-83
3.63737e-85
9.45148e-87
2.5298e-89
-1.78489e-90
-2.76435e-92
-2.84188e-95
3.62629e-96
2.80589e-98
-5.09846e-100
-1.00807e-101
8.62493e-104
6.79723e-105
1.59663e-106
2.27922e-108
1.38821e-110
-3.85262e-112
-1.89807e-113
-5.38177e-115
-1.25299e-116
-2.57349e-118
-4.82459e-120
-8.39087e-122
-1.36151e-123
-2.08283e-125
-3.01227e-127
-4.12938e-129
-5.38564e-131
-6.69187e-133
-7.92334e-135
-8.95446e-137
-9.66645e-139
-9.96995e-141
-9.83276e-143
-9.27608e-145
-8.37071e-147
-7.23464e-149
-5.98899e-151
-4.74388e-153
-3.60354e-155
-2.62472e-157
-1.8304e-159
-1.22596e-161
-7.88286e-164
-4.86226e-166
-2.88996e-168
-1.65003e-170
-9.10884e-173
-4.85169e-175
-2.51022e-177
-1.26076e-179
-6.19527e-182
-2.9833e-184
-1.41738e-186
-6.67332e-189
-3.1362e-191
-1.47482e-193
-6.99898e-196
-3.35516e-198
-1.63594e-200
-8.12872e-203
-4.1316e-205
-2.15156e-207
-1.15212e-209
-6.33033e-212
-3.59725e-214
-2.10003e-216
-1.26691e-218
-7.90109e-221
-5.07977e-223
-3.38025e-225
-2.32937e-227
-1.6578e-229
-1.222e-231
-9.35476e-234
-7.41458e-236
-6.10466e-238
-5.22455e-240
-4.64952e-242
-4.32601e-244
-4.21128e-246
-4.23309e-248
-4.49994e-250
-5.04549e-252
-5.74427e-254
-6.98647e-256
-8.91269e-258
-1.11304e-259
-1.52032e-261
-2.02429e-263
-2.78826e-265
-3.83234e-267
-5.2001e-269
-6.96427e-271
-9.28355e-273
-1.10671e-274
-1.47194e-276
-1.30163e-278
-1.34395e-280
-1.73525e-282
-2.43759e-284
-3.39426e-286
-4.65292e-288
-6.23532e-290
-8.14527e-292
-1.02902e-293
-1.25405e-295
-1.46172e-297
-1.62374e-299
-1.70243e-301
-1.67424e-303
-1.48682e-305
-1.25186e-307
-1.01575e-309
-1.10518e-311
-1.46554e-313
-1.66076e-315
-1.81971e-317
0
0
0
0
0
0
0
0
0
0
0
0
0
0
0
0
0
0
0
0
0
0
0
0
0
0
0
0
0
0
0
0
0
0.0479471
4.21479e-06
-1.34129e-06
-2.17772e-08
-1.34592e-10
-8.32712e-13
-5.00984e-15
-3.26301e-17
6.31105e-18
1.08592e-19
-1.02757e-20
-2.24605e-22
1.21546e-23
2.17412e-25
-2.16059e-26
-2.02155e-28
3.74004e-29
2.29308e-31
-6.00134e-32
-5.93706e-34
7.14093e-35
1.04577e-36
-6.3985e-38
-1.27931e-39
4.11995e-41
9.80881e-43
-2.32067e-44
-5.43642e-46
1.44056e-47
2.3059e-49
-1.15357e-50
-1.58275e-52
6.80041e-54
9.86587e-56
-3.40016e-57
-6.0641e-59
1.24082e-60
3.0298e-62
-3.58749e-64
-1.42595e-65
4.79921e-68
5.90049e-69
2.64373e-71
-2.03586e-72
-2.843e-74
4.42021e-76
1.40141e-77
2.60248e-81
-4.35259e-81
-5.19198e-83
5.53451e-85
1.95388e-86
1.02703e-88
-3.04143e-90
-5.76658e-92
-1.4444e-94
7.26727e-96
8.23904e-98
-4.46331e-100
-1.11597e-101
3.39786e-103
1.76576e-104
4.20964e-106
6.8316e-108
7.14204e-110
-8.32069e-113
-3.05784e-113
-1.09882e-114
-2.92971e-116
-6.73419e-118
-1.40405e-119
-2.71524e-121
-4.91523e-123
-8.40857e-125
-1.36417e-126
-2.10375e-128
-3.09172e-130
-4.33447e-132
-5.79714e-134
-7.40131e-136
-9.0217e-138
-1.04971e-139
-1.16604e-141
-1.23644e-143
-1.25098e-145
-1.20821e-147
-1.11387e-149
-9.79242e-152
-8.21819e-154
-6.58478e-156
-5.03179e-158
-3.6738e-160
-2.56354e-162
-1.70917e-164
-1.09242e-166
-6.68659e-169
-3.93798e-171
-2.2322e-173
-1.22425e-175
-6.50963e-178
-3.37594e-180
-1.71482e-182
-8.58352e-185
-4.25717e-187
-2.10583e-189
-1.04424e-191
-5.22959e-194
-2.65432e-196
-1.37353e-198
-7.27177e-201
-3.95398e-203
-2.21375e-205
-1.28033e-207
-7.65031e-210
-4.74413e-212
-3.04688e-214
-2.03162e-216
-1.40748e-218
-1.01212e-220
-7.5627e-223
-5.87279e-225
-4.73436e-227
-3.96228e-229
-3.44329e-231
-3.10339e-233
-2.8999e-235
-2.80754e-237
-2.81371e-239
-2.91774e-241
-3.12823e-243
-3.45957e-245
-3.94755e-247
-4.64319e-249
-5.61022e-251
-6.96562e-253
-8.8751e-255
-1.15446e-256
-1.5358e-258
-2.07875e-260
-2.85932e-262
-3.98407e-264
-5.60684e-266
-7.9473e-268
-1.13192e-269
-1.6135e-271
-2.30169e-273
-3.26727e-275
-4.62709e-277
-6.52828e-279
-9.10766e-281
-1.25061e-282
-1.6932e-284
-2.25298e-286
-2.93721e-288
-3.73248e-290
-4.60725e-292
-5.48844e-294
-6.27963e-296
-6.84e-298
-7.04494e-300
-6.65425e-302
-5.92352e-304
-5.04448e-306
-4.16005e-308
-3.37625e-310
-2.75167e-312
-2.27923e-314
-1.81974e-316
0
0
0
0
0
0
0
0
0
0
0
0
0
0
0
0
0
0
0
0
0
0
0
0
0
0
0
0
0
0
0
0
0.0480788
4.23761e-06
-1.34823e-06
-2.19285e-08
-1.35504e-10
-8.37774e-13
-5.03075e-15
-3.26763e-17
6.40903e-18
1.10393e-19
-1.04141e-20
-2.27968e-22
1.24167e-23
2.22381e-25
-2.21162e-26
-2.07517e-28
3.84794e-29
2.39137e-31
-6.19328e-32
-6.19091e-34
7.39911e-35
1.09409e-36
-6.65641e-38
-1.34377e-39
4.30724e-41
1.0376e-42
-2.44252e-44
-5.81215e-46
1.53364e-47
2.51642e-49
-1.2481e-50
-1.7713e-52
7.51271e-54
1.1448e-55
-3.88564e-57
-7.42061e-59
1.47663e-60
3.95266e-62
-4.29357e-64
-1.92397e-65
4.35817e-68
8.00383e-69
4.48267e-71
-2.70535e-72
-4.13073e-74
5.48858e-76
1.91335e-77
1.97328e-80
-5.65998e-81
-7.07756e-83
6.61223e-85
2.47424e-86
1.32527e-88
-3.76589e-90
-7.1204e-92
-1.86178e-94
8.27932e-96
8.47737e-98
-7.69012e-100
-1.68193e-101
3.01561e-103
1.73544e-104
3.99081e-106
5.96408e-108
5.00656e-110
-4.50036e-112
-3.42018e-113
-1.06176e-114
-2.60755e-116
-5.61333e-118
-1.10341e-119
-2.01833e-121
-3.4603e-123
-5.61605e-125
-8.65495e-127
-1.26969e-128
-1.77866e-130
-2.38206e-132
-3.05057e-134
-3.74014e-136
-4.3927e-138
-4.94247e-140
-5.33066e-142
-5.51226e-144
-5.46434e-146
-5.19755e-148
-4.74383e-150
-4.15055e-152
-3.48718e-154
-2.81295e-156
-2.17599e-158
-1.61787e-160
-1.15605e-162
-7.9334e-165
-5.24832e-167
-3.3396e-169
-2.05496e-171
-1.22147e-173
-7.05359e-176
-3.95901e-178
-2.17405e-180
-1.17113e-182
-6.22663e-185
-3.28304e-187
-1.72674e-189
-9.101e-192
-4.83572e-194
-2.59979e-196
-1.42102e-198
-7.92114e-201
-4.51713e-203
-2.64068e-205
-1.58658e-207
-9.79652e-210
-6.23885e-212
-4.09082e-214
-2.76682e-216
-1.93139e-218
-1.39029e-220
-1.03292e-222
-7.92255e-225
-6.2683e-227
-5.11691e-229
-4.31127e-231
-3.74643e-233
-3.35806e-235
-3.10393e-237
-2.95745e-239
-2.9051e-241
-2.94161e-243
-3.06458e-245
-3.28858e-247
-3.63412e-249
-4.11971e-251
-4.80182e-253
-5.74593e-255
-7.01471e-257
-8.78065e-259
-1.11796e-260
-1.44886e-262
-1.9041e-264
-2.52879e-266
-3.38758e-268
-4.56717e-270
-6.16151e-272
-8.36668e-274
-1.12626e-275
-1.52073e-277
-2.05576e-279
-2.76904e-281
-3.70667e-283
-4.90891e-285
-6.40265e-287
-8.20844e-289
-1.02888e-290
-1.25843e-292
-1.49265e-294
-1.71185e-296
-1.88316e-298
-1.97789e-300
-1.9174e-302
-1.76464e-304
-1.5607e-306
-1.35254e-308
-1.16744e-310
-1.00232e-312
-8.71136e-315
-7.2998e-317
0
0
0
0
0
0
0
0
0
0
0
0
0
0
0
0
0
0
0
0
0
0
0
0
0
0
0
0
0
0
0
0
0.0482122
4.26797e-06
-1.35769e-06
-2.21361e-08
-1.37039e-10
-8.48758e-13
-5.10392e-15
-3.31947e-17
6.54469e-18
1.13078e-19
-1.06498e-20
-2.34059e-22
1.27568e-23
2.29995e-25
-2.27905e-26
-2.16561e-28
3.98176e-29
2.52903e-31
-6.43245e-32
-6.52872e-34
7.71559e-35
1.15586e-36
-6.96967e-38
-1.42555e-39
4.52876e-41
1.10892e-42
-2.58288e-44
-6.28331e-46
1.63984e-47
2.77801e-49
-1.35954e-50
-2.0063e-52
8.35635e-54
1.34053e-55
-4.45573e-57
-9.08086e-59
1.74094e-60
5.05793e-62
-5.08251e-64
-2.56761e-65
3.17956e-68
1.09117e-68
7.47273e-71
-3.67808e-72
-6.28502e-74
6.96575e-76
2.82424e-77
6.632e-80
-8.02352e-81
-1.11792e-82
8.05344e-85
3.62051e-86
2.29804e-88
-4.98921e-90
-1.02345e-91
-3.15526e-94
1.15046e-95
1.2929e-97
-7.98284e-100
-1.87385e-101
4.80134e-103
2.46496e-104
5.58642e-106
8.444e-108
7.69573e-110
-3.82584e-112
-4.13205e-113
-1.34761e-114
-3.40651e-116
-7.53419e-118
-1.52353e-119
-2.87386e-121
-5.09964e-123
-8.58934e-125
-1.37762e-126
-2.10899e-128
-3.08893e-130
-4.33237e-132
-5.81939e-134
-7.49077e-136
-9.24246e-138
-1.09297e-139
-1.23912e-141
-1.34684e-143
-1.40316e-145
-1.40198e-147
-1.34364e-149
-1.23418e-151
-1.08794e-153
-9.20464e-156
-7.46901e-158
-5.82333e-160
-4.36409e-162
-3.14266e-164
-2.1819e-166
-1.4586e-168
-9.43242e-171
-5.8992e-173
-3.58639e-175
-2.12184e-177
-1.22885e-179
-6.98808e-182
-3.92412e-184
-2.18596e-186
-1.21515e-188
-6.76946e-191
-3.80218e-193
-2.1604e-195
-1.24778e-197
-7.34808e-200
-4.42596e-202
-2.73265e-204
-1.73397e-206
-1.13098e-208
-7.61079e-211
-5.27582e-213
-3.77497e-215
-2.79013e-217
-2.12869e-219
-1.67803e-221
-1.36716e-223
-1.15027e-225
-9.9958e-228
-8.97363e-230
-8.31479e-232
-7.95009e-234
-7.8396e-236
-7.96698e-238
-8.34058e-240
-8.98858e-242
-9.95095e-244
-1.13178e-245
-1.32132e-247
-1.57788e-249
-1.9281e-251
-2.40693e-253
-3.05471e-255
-3.94694e-257
-5.16646e-259
-6.84262e-261
-9.14275e-263
-1.22895e-264
-1.65815e-266
-2.2412e-268
-3.02462e-270
-4.07804e-272
-5.46346e-274
-7.29952e-276
-9.73233e-278
-1.28524e-279
-1.68142e-281
-2.17712e-283
-2.78338e-285
-3.50674e-287
-4.33678e-289
-5.25347e-291
-6.20245e-293
-7.11572e-295
-7.87886e-297
-8.39002e-299
-8.36067e-301
-7.95724e-303
-7.30052e-305
-6.52547e-307
-5.74864e-309
-5.04212e-311
-4.44771e-313
-3.93509e-315
-3.64776e-317
0
0
0
0
0
0
0
0
0
0
0
0
0
0
0
0
0
0
0
0
0
0
0
0
0
0
0
0
0
0
0
0.0483466
4.30095e-06
-1.36794e-06
-2.23584e-08
-1.38696e-10
-8.60708e-13
-5.18481e-15
-3.37797e-17
6.6819e-18
1.15801e-19
-1.08944e-20
-2.40383e-22
1.31028e-23
2.37804e-25
-2.34869e-26
-2.26035e-28
4.12052e-29
2.67379e-31
-6.68316e-32
-6.88826e-34
8.05019e-35
1.22212e-36
-7.30413e-38
-1.51426e-39
4.76736e-41
1.18725e-42
-2.73574e-44
-6.80969e-46
1.75732e-47
3.07698e-49
-1.48513e-50
-2.28047e-52
9.31462e-54
1.5718e-55
-5.10344e-57
-1.10594e-58
2.03719e-60
6.40409e-62
-5.8841e-64
-3.34639e-65
8.63269e-69
1.43767e-68
1.14804e-70
-4.79649e-72
-8.99061e-74
8.38937e-76
3.90485e-77
1.31159e-79
-1.06678e-80
-1.60413e-82
9.2576e-85
4.87347e-86
3.3855e-88
-6.30094e-90
-1.36089e-91
-4.6368e-94
1.45592e-95
1.66887e-97
-9.9141e-100
-2.33628e-101
6.00798e-103
3.02573e-104
6.72758e-106
9.94036e-108
8.73033e-110
-5.01125e-112
-4.81086e-113
-1.53247e-114
-3.81324e-116
-8.32956e-118
-1.66718e-119
-3.11861e-121
-5.49723e-123
-9.21443e-125
-1.47344e-126
-2.25301e-128
-3.30254e-130
-4.64486e-132
-6.26946e-134
-8.12664e-136
-1.012e-137
-1.21059e-139
-1.39161e-141
-1.53738e-143
-1.63191e-145
-1.66544e-147
-1.63427e-149
-1.54076e-151
-1.39747e-153
-1.21936e-155
-1.02283e-157
-8.26225e-160
-6.42925e-162
-4.81752e-164
-3.48726e-166
-2.43535e-168
-1.64812e-170
-1.08055e-172
-6.89668e-175
-4.28977e-177
-2.61482e-179
-1.56651e-181
-9.27336e-184
-5.44831e-186
-3.19443e-188
-1.87681e-190
-1.11117e-192
-6.65109e-195
-4.0428e-197
-2.50276e-199
-1.58254e-201
-1.02419e-203
-6.80034e-206
-4.63308e-208
-3.24963e-210
-2.34319e-212
-1.73997e-214
-1.33138e-216
-1.04903e-218
-8.51793e-221
-7.12903e-223
-6.14513e-225
-5.45593e-227
-4.99005e-229
-4.69765e-231
-4.55096e-233
-4.53477e-235
-4.64467e-237
-4.88814e-239
-5.28273e-241
-5.85198e-243
-6.6446e-245
-7.72748e-247
-9.1753e-249
-1.11258e-250
-1.37549e-252
-1.72618e-254
-2.20114e-256
-2.83898e-258
-3.69845e-260
-4.85322e-262
-6.39709e-264
-8.45285e-266
-1.11754e-267
-1.47423e-269
-1.94195e-271
-2.54489e-273
-3.32554e-275
-4.31742e-277
-5.57675e-279
-7.15241e-281
-9.09627e-283
-1.14495e-284
-1.4242e-286
-1.74482e-288
-2.10176e-290
-2.47828e-292
-2.85293e-294
-3.18581e-296
-3.44149e-298
-3.50586e-300
-3.42717e-302
-3.23863e-304
-2.98712e-306
-2.71652e-308
-2.45467e-310
-2.22355e-312
-2.01377e-314
-1.82934e-316
0
0
0
0
0
0
0
0
0
0
0
0
0
0
0
0
0
0
0
0
0
0
0
0
0
0
0
0
0
0
0
0.048482
4.3356e-06
-1.37875e-06
-2.25942e-08
-1.40488e-10
-8.73847e-13
-5.27559e-15
-3.44506e-17
6.82765e-18
1.1872e-19
-1.1158e-20
-2.47263e-22
1.34671e-23
2.46232e-25
-2.42238e-26
-2.36404e-28
4.26729e-29
2.83127e-31
-6.9503e-32
-7.2792e-34
8.40865e-35
1.29435e-36
-7.66463e-38
-1.61164e-39
5.02548e-41
1.27401e-42
-2.90185e-44
-7.39956e-46
1.88632e-47
3.41744e-49
-1.6255e-50
-2.59778e-52
1.03922e-53
1.84247e-55
-5.83369e-57
-1.33997e-58
2.36624e-60
8.01354e-62
-6.70465e-64
-4.28759e-65
-2.81829e-68
1.85536e-68
1.67964e-70
-6.11519e-72
-1.24553e-73
9.79376e-76
5.25047e-77
2.23803e-79
-1.38277e-80
-2.22527e-82
1.02229e-84
6.39151e-86
4.78551e-88
-7.77408e-90
-1.76275e-91
-6.46643e-94
1.81252e-95
2.12122e-97
-1.1764e-99
-2.79337e-101
7.4905e-103
3.67004e-104
8.01537e-106
1.16258e-107
9.95659e-110
-6.06869e-112
-5.50059e-113
-1.72676e-114
-4.25457e-116
-9.23054e-118
-1.83926e-119
-3.43257e-121
-6.05058e-123
-1.01631e-124
-1.63201e-126
-2.51128e-128
-3.71174e-130
-5.27372e-132
-7.20459e-134
-9.46863e-136
-1.19759e-137
-1.45751e-139
-1.70744e-141
-1.92544e-143
-2.08973e-145
-2.18411e-147
-2.19852e-149
-2.12985e-151
-1.98831e-153
-1.78866e-155
-1.54968e-157
-1.2951e-159
-1.04447e-161
-8.12588e-164
-6.11731e-166
-4.45089e-168
-3.14311e-170
-2.15385e-172
-1.43881e-174
-9.37985e-177
-5.9988e-179
-3.77425e-181
-2.34798e-183
-1.45033e-185
-8.94134e-188
-5.52315e-190
-3.43651e-192
-2.16044e-194
-1.37806e-196
-8.94345e-199
-5.92138e-201
-4.00754e-203
-2.77861e-205
-1.97407e-207
-1.44149e-209
-1.0805e-211
-8.3272e-214
-6.60225e-216
-5.38182e-218
-4.51358e-220
-3.89545e-222
-3.45707e-224
-3.155e-226
-2.96122e-228
-2.85606e-230
-2.82995e-232
-2.87914e-234
-3.00547e-236
-3.21754e-238
-3.53013e-240
-3.96199e-242
-4.54765e-244
-5.33404e-246
-6.37273e-248
-7.75603e-250
-9.59895e-252
-1.20305e-253
-1.52786e-255
-1.95793e-257
-2.52799e-259
-3.28047e-261
-4.26711e-263
-5.55409e-265
-7.22167e-267
-9.35899e-269
-1.20984e-270
-1.55496e-272
-1.99116e-274
-2.53845e-276
-3.21715e-278
-4.05245e-280
-5.06943e-282
-6.28932e-284
-7.72969e-286
-9.38414e-288
-1.12382e-289
-1.32243e-291
-1.52529e-293
-1.71382e-295
-1.87176e-297
-1.94102e-299
-1.94037e-301
-1.88094e-303
-1.78236e-305
-1.66524e-307
-1.54396e-309
-1.4314e-311
-1.32422e-313
-1.22937e-315
-1.82854e-317
0
0
0
0
0
0
0
0
0
0
0
0
0
0
0
0
0
0
0
0
0
0
0
0
0
0
0
0
0
0
0.0486182
4.37139e-06
-1.38996e-06
-2.28399e-08
-1.4238e-10
-8.87871e-13
-5.37361e-15
-3.51833e-17
6.98074e-18
1.21806e-19
-1.14371e-20
-2.54602e-22
1.38482e-23
2.55209e-25
-2.49977e-26
-2.47568e-28
4.42164e-29
3.00082e-31
-7.23289e-32
-7.70016e-34
8.7897e-35
1.37236e-36
-8.04989e-38
-1.71747e-39
5.30224e-41
1.36906e-42
-3.08061e-44
-8.05276e-46
2.02648e-47
3.80029e-49
-1.7805e-50
-2.96025e-52
1.15895e-53
2.15542e-55
-6.6486e-57
-1.61385e-58
2.72776e-60
9.91786e-62
-7.51395e-64
-5.40851e-65
-8.21154e-68
2.35017e-68
2.36487e-70
-7.63881e-72
-1.67788e-73
1.10833e-75
6.88123e-77
3.48884e-79
-1.75032e-80
-2.9912e-82
1.08292e-84
8.17138e-86
6.50152e-88
-9.40428e-90
-2.22835e-91
-8.65725e-94
2.21012e-95
2.62581e-97
-1.39028e-99
-3.30597e-101
9.09004e-103
4.35313e-104
9.34335e-106
1.3293e-107
1.10485e-109
-7.35302e-112
-6.1956e-113
-1.91138e-114
-4.65443e-116
-1.00109e-117
-1.98183e-119
-3.68198e-121
-6.47437e-123
-1.08693e-124
-1.74793e-126
-2.69886e-128
-4.01026e-130
-5.73883e-132
-7.9112e-134
-1.05106e-135
-1.34627e-137
-1.66224e-139
-1.97898e-141
-2.27196e-143
-2.51478e-145
-2.68514e-147
-2.76603e-149
-2.74715e-151
-2.63374e-153
-2.43732e-155
-2.17632e-157
-1.87764e-159
-1.56602e-161
-1.26224e-163
-9.86085e-166
-7.45855e-168
-5.48385e-170
-3.91889e-172
-2.73376e-174
-1.86357e-176
-1.24756e-178
-8.22387e-181
-5.36363e-183
-3.47477e-185
-2.24698e-187
-1.45568e-189
-9.49464e-192
-6.25347e-194
-4.17521e-196
-2.83337e-198
-1.95921e-200
-1.38305e-202
-9.98741e-205
-7.3797e-207
-5.59521e-209
-4.34808e-211
-3.46829e-213
-2.84131e-215
-2.38917e-217
-2.06337e-219
-1.83059e-221
-1.6671e-223
-1.5585e-225
-1.49566e-227
-1.4723e-229
-1.48614e-231
-1.53733e-233
-1.62855e-235
-1.76575e-237
-1.95801e-239
-2.21658e-241
-2.5607e-243
-3.01631e-245
-3.61132e-247
-4.39468e-249
-5.42566e-251
-6.76983e-253
-8.53962e-255
-1.08484e-256
-1.38574e-258
-1.77589e-260
-2.27768e-262
-2.91921e-264
-3.73315e-266
-4.75469e-268
-6.03594e-270
-7.61709e-272
-9.57725e-274
-1.1988e-275
-1.49303e-277
-1.85016e-279
-2.2802e-281
-2.79221e-283
-3.39466e-285
-4.0876e-287
-4.86948e-289
-5.71897e-291
-6.60633e-293
-7.46085e-295
-8.22276e-297
-8.65578e-299
-8.81957e-301
-8.74008e-303
-8.48079e-305
-8.11623e-307
-7.7016e-309
-7.29315e-311
-6.87923e-313
-6.46016e-315
-5.50247e-317
0
0
0
0
0
0
0
0
0
0
0
0
0
0
0
0
0
0
0
0
0
0
0
0
0
0
0
0
0
0
0.0487552
4.40805e-06
-1.40147e-06
-2.30938e-08
-1.44354e-10
-9.02624e-13
-5.4776e-15
-3.5967e-17
7.1408e-18
1.25051e-19
-1.17303e-20
-2.62365e-22
1.42459e-23
2.64717e-25
-2.58074e-26
-2.59499e-28
4.58343e-29
3.18243e-31
-7.53059e-32
-8.15096e-34
9.19282e-35
1.45611e-36
-8.45918e-38
-1.83167e-39
5.5969e-41
1.47235e-42
-3.27139e-44
-8.76924e-46
2.17729e-47
4.22624e-49
-1.94987e-50
-3.36962e-52
1.2906e-53
2.51326e-55
-7.5493e-57
-1.93105e-58
3.12084e-60
1.21463e-61
-8.28358e-64
-6.72731e-65
-1.56684e-67
2.92869e-68
3.22773e-70
-9.37411e-72
-2.20699e-73
1.21662e-75
8.82254e-77
5.11507e-79
-2.17099e-80
-3.91512e-82
1.09723e-84
1.02231e-85
8.55362e-88
-1.11871e-89
-2.75849e-91
-1.12053e-93
2.64991e-95
3.18306e-97
-1.62928e-99
-3.86209e-101
1.08144e-102
5.0719e-104
1.07018e-105
1.49296e-107
1.20082e-109
-8.81374e-112
-6.88067e-113
-2.08316e-114
-5.00769e-116
-1.06646e-117
-2.09469e-119
-3.86818e-121
-6.77379e-123
-1.13454e-124
-1.82364e-126
-2.81976e-128
-4.20355e-130
-6.04584e-132
-8.39201e-134
-1.12463e-135
-1.4556e-137
-1.81927e-139
-2.19635e-141
-2.56139e-143
-2.88507e-145
-3.14016e-147
-3.30313e-149
-3.3559e-151
-3.29695e-153
-3.13188e-155
-2.87588e-157
-2.55592e-159
-2.19982e-161
-1.83298e-163
-1.48274e-165
-1.16335e-167
-8.88597e-170
-6.60759e-172
-4.80264e-174
-3.41577e-176
-2.38818e-178
-1.64565e-180
-1.12264e-182
-7.61017e-185
-5.14973e-187
-3.49063e-189
-2.38103e-191
-1.63901e-193
-1.14266e-195
-8.08855e-198
-5.827e-200
-4.27986e-202
-3.21095e-204
-2.46142e-206
-1.93286e-208
-1.55328e-210
-1.27911e-212
-1.07996e-214
-9.3434e-217
-8.28788e-219
-7.53864e-221
-7.02641e-223
-6.71072e-225
-6.5672e-227
-6.58002e-229
-6.74774e-231
-7.07786e-233
-7.58803e-235
-8.30971e-237
-9.2879e-239
-1.05772e-240
-1.22663e-242
-1.4474e-244
-1.73241e-246
-2.10321e-248
-2.58494e-250
-3.20503e-252
-4.00923e-254
-5.04227e-256
-6.36577e-258
-8.05151e-260
-1.01788e-261
-1.28462e-263
-1.61632e-265
-2.02446e-267
-2.52617e-269
-3.13385e-271
-3.87377e-273
-4.76829e-275
-5.84426e-277
-7.13456e-279
-8.67381e-281
-1.04955e-282
-1.26341e-284
-1.5099e-286
-1.78994e-288
-2.09819e-290
-2.42649e-292
-2.75188e-294
-3.05604e-296
-3.25866e-298
-3.3758e-300
-3.41084e-302
-3.38009e-304
-3.30533e-306
-3.20309e-308
-3.09279e-310
-2.96996e-312
-2.83947e-314
-2.57579e-316
0
0
0
0
0
0
0
0
0
0
0
0
0
0
0
0
0
0
0
0
0
0
0
0
0
0
0
0
0
0
0.048893
4.44547e-06
-1.41323e-06
-2.33548e-08
-1.464e-10
-9.18022e-13
-5.58684e-15
-3.67954e-17
7.30765e-18
1.28449e-19
-1.20369e-20
-2.70534e-22
1.46598e-23
2.74747e-25
-2.66519e-26
-2.72184e-28
4.75253e-29
3.37607e-31
-7.84298e-32
-8.63129e-34
9.61727e-35
1.5455e-36
-8.89151e-38
-1.95407e-39
5.90851e-41
1.58368e-42
-3.47337e-44
-9.54797e-46
2.33809e-47
4.69526e-49
-2.13311e-50
-3.8269e-52
1.4339e-53
2.91801e-55
-8.53551e-57
-2.29461e-58
3.54383e-60
1.47268e-61
-8.98087e-64
-8.26176e-65
-2.5568e-67
3.59725e-68
4.29356e-70
-1.13258e-71
-2.84405e-73
1.29398e-75
1.10991e-76
7.16888e-79
-2.64595e-80
-5.00959e-82
1.05483e-84
1.25546e-85
1.09584e-87
-1.31183e-89
-3.35351e-91
-1.41055e-93
3.13192e-95
3.79114e-97
-1.89276e-99
-4.45589e-101
1.26575e-102
5.82056e-104
1.20769e-105
1.65171e-107
1.28268e-109
-1.04236e-111
-7.54599e-113
-2.24015e-114
-5.31174e-116
-1.11903e-117
-2.17831e-119
-3.99332e-121
-6.9543e-123
-1.16026e-124
-1.86101e-126
-2.87657e-128
-4.29429e-130
-6.19574e-132
-8.64256e-134
-1.16594e-135
-1.52179e-137
-1.9214e-139
-2.34737e-141
-2.77505e-143
-3.17419e-145
-3.51446e-147
-3.76718e-149
-3.90716e-151
-3.92537e-153
-3.81974e-155
-3.59966e-157
-3.28877e-159
-2.91496e-161
-2.50575e-163
-2.09454e-165
-1.70114e-167
-1.34711e-169
-1.04015e-171
-7.86079e-174
-5.82079e-176
-4.24137e-178
-3.04864e-180
-2.17068e-182
-1.53635e-184
-1.08554e-186
-7.68171e-189
-5.46761e-191
-3.92473e-193
-2.85062e-195
-2.10005e-197
-1.57252e-199
-1.19895e-201
-9.3235e-204
-7.39729e-206
-6.00201e-208
-4.97595e-210
-4.22015e-212
-3.66325e-214
-3.25288e-216
-2.95625e-218
-2.75008e-220
-2.61677e-222
-2.5468e-224
-2.53506e-226
-2.57877e-228
-2.67979e-230
-2.84296e-232
-3.07671e-234
-3.39454e-236
-3.81487e-238
-4.35977e-240
-5.06359e-242
-5.9719e-244
-7.13062e-246
-8.61927e-248
-1.05271e-249
-1.29497e-251
-1.60428e-253
-1.99536e-255
-2.48779e-257
-3.10397e-259
-3.86719e-261
-4.80644e-263
-5.95219e-265
-7.33595e-267
-9.00552e-269
-1.09934e-270
-1.3374e-272
-1.62086e-274
-1.95746e-276
-2.35692e-278
-2.82975e-280
-3.3868e-282
-4.03995e-284
-4.79497e-286
-5.65889e-288
-6.62178e-290
-7.66525e-292
-8.72495e-294
-9.75346e-296
-1.05194e-297
-1.10595e-299
-1.13699e-301
-1.14835e-303
-1.14518e-305
-1.13132e-307
-1.11216e-309
-1.08592e-311
-1.05341e-313
-1.01509e-315
-1.83923e-317
0
0
0
0
0
0
0
0
0
0
0
0
0
0
0
0
0
0
0
0
0
0
0
0
0
0
0
0
0
0.0490317
4.48357e-06
-1.42523e-06
-2.36225e-08
-1.48514e-10
-9.34024e-13
-5.70099e-15
-3.76656e-17
7.48127e-18
1.32002e-19
-1.23564e-20
-2.79098e-22
1.50897e-23
2.85287e-25
-2.75306e-26
-2.85583e-28
4.92878e-29
3.58109e-31
-8.16972e-32
-9.13997e-34
1.00624e-34
1.64036e-36
-9.34583e-38
-2.0844e-39
6.23589e-41
1.70279e-42
-3.68546e-44
-1.03867e-45
2.50796e-47
5.20638e-49
-2.3294e-50
-4.33208e-52
1.58835e-53
3.37081e-55
-9.60522e-57
-2.70698e-58
3.99433e-60
1.76846e-61
-9.56964e-64
-1.00291e-64
-3.8316e-67
4.36211e-68
5.58944e-70
-1.3497e-71
-3.60088e-73
1.32898e-75
1.37356e-76
9.70446e-79
-3.17605e-80
-6.2868e-82
9.45355e-85
1.51724e-85
1.37303e-87
-1.51935e-89
-4.01337e-91
-1.73494e-93
3.65602e-95
4.44797e-97
-2.17993e-99
-5.08157e-101
1.46123e-102
6.59348e-104
1.34558e-105
1.804e-107
1.34998e-109
-1.21537e-111
-8.18316e-113
-2.38099e-114
-5.56559e-116
-1.15904e-117
-2.23405e-119
-4.06139e-121
-7.0253e-123
-1.16601e-124
-1.86352e-126
-2.87497e-128
-4.29086e-130
-6.19955e-132
-8.67506e-134
-1.17598e-135
-1.54494e-137
-1.96678e-139
-2.42684e-141
-2.90272e-143
-3.36513e-145
-3.78277e-147
-4.12387e-149
-4.35776e-151
-4.4684e-153
-4.44551e-155
-4.2911e-157
-4.02251e-159
-3.66451e-161
-3.24351e-163
-2.79622e-165
-2.34632e-167
-1.92253e-169
-1.53844e-171
-1.20652e-173
-9.2834e-176
-7.03591e-178
-5.26488e-180
-3.90476e-182
-2.87974e-184
-2.12026e-186
-1.56315e-188
-1.15856e-190
-8.65396e-193
-6.53459e-195
-4.99937e-197
-3.88276e-199
-3.06633e-201
-2.46612e-203
-2.02063e-205
-1.69024e-207
-1.44237e-209
-1.25699e-211
-1.11922e-213
-1.01768e-215
-9.4538e-218
-8.97311e-220
-8.69588e-222
-8.60407e-224
-8.69044e-226
-8.95374e-228
-9.40619e-230
-1.00688e-231
-1.0974e-233
-1.21699e-235
-1.37206e-237
-1.57013e-239
-1.82249e-241
-2.14402e-243
-2.54907e-245
-3.06263e-247
-3.71136e-249
-4.52353e-251
-5.5438e-253
-6.81309e-255
-8.38366e-257
-1.03147e-258
-1.26632e-260
-1.55017e-262
-1.89012e-264
-2.29357e-266
-2.77196e-268
-3.33263e-270
-3.994e-272
-4.77091e-274
-5.68305e-276
-6.75597e-278
-8.01789e-280
-9.49969e-282
-1.1237e-283
-1.3253e-285
-1.55774e-287
-1.82003e-289
-2.1089e-291
-2.4086e-293
-2.70879e-295
-2.95222e-297
-3.14599e-299
-3.28613e-301
-3.3774e-303
-3.42954e-305
-3.44892e-307
-3.44755e-309
-3.41883e-311
-3.36384e-313
-3.27707e-315
-3.69009e-317
0
0
0
0
0
0
0
0
0
0
0
0
0
0
0
0
0
0
0
0
0
0
0
0
0
0
0
0
0
0.0491712
4.52237e-06
-1.43747e-06
-2.38971e-08
-1.50695e-10
-9.50625e-13
-5.81989e-15
-3.8605e-17
7.65213e-18
1.39656e-19
-1.24607e-20
-3.0927e-22
1.40387e-23
3.64134e-25
-2.26652e-26
-4.04307e-28
3.69859e-29
4.32421e-31
-6.13883e-32
-7.67861e-34
7.98118e-35
1.27585e-36
-8.20547e-38
-1.67083e-39
6.4911e-41
1.57784e-42
-4.32695e-44
-1.10593e-45
2.96891e-47
6.63149e-49
-2.34573e-50
-4.53283e-52
1.81011e-53
3.95654e-55
-1.06351e-56
-3.15366e-58
4.48995e-60
2.10676e-61
-9.97706e-64
-1.20419e-64
-5.42947e-67
5.23022e-68
7.14579e-70
-1.58881e-71
-4.49009e-73
1.30889e-75
1.67579e-76
1.27797e-78
-3.7619e-80
-7.75888e-82
7.58332e-85
1.80821e-85
1.68821e-87
-1.7408e-89
-4.73771e-91
-2.09266e-93
4.22185e-95
5.15117e-97
-2.48994e-99
-5.73359e-101
1.66709e-102
7.38514e-104
1.4827e-105
1.94855e-107
1.40263e-109
-1.39756e-111
-8.78526e-113
-2.50484e-114
-5.76964e-116
-1.18705e-117
-2.26392e-119
-4.07783e-121
-6.99912e-123
-1.15428e-124
-1.83581e-126
-2.82291e-128
-4.20593e-130
-6.07596e-132
-8.51502e-134
-1.15791e-135
-1.52853e-137
-1.95853e-139
-2.43649e-141
-2.94318e-143
-3.45189e-145
-3.93236e-147
-4.35199e-149
-4.67697e-151
-4.8857e-153
-4.96042e-155
-4.89544e-157
-4.69987e-159
-4.39275e-161
-3.99616e-163
-3.54665e-165
-3.06914e-167
-2.59742e-169
-2.15019e-171
-1.74675e-173
-1.39402e-175
-1.09693e-177
-8.52933e-180
-6.5771e-182
-5.04484e-184
-3.86318e-186
-2.96162e-188
-2.28132e-190
-1.7698e-192
-1.38658e-194
-1.09947e-196
-8.83881e-199
-7.21545e-201
-5.98941e-203
-5.05746e-205
-4.35229e-207
-3.81481e-209
-3.4088e-211
-3.1066e-213
-2.88624e-215
-2.73457e-217
-2.64238e-219
-2.60225e-221
-2.61174e-223
-2.67079e-225
-2.78081e-227
-2.9467e-229
-3.17571e-231
-3.47821e-233
-3.86892e-235
-4.3668e-237
-4.99392e-239
-5.78209e-241
-6.77313e-243
-8.00505e-245
-9.54544e-247
-1.14621e-248
-1.38262e-250
-1.6747e-252
-2.03215e-254
-2.46676e-256
-2.9919e-258
-3.61925e-260
-4.36437e-262
-5.24128e-264
-6.26496e-266
-7.45927e-268
-8.83886e-270
-1.04439e-271
-1.23068e-273
-1.44723e-275
-1.70006e-277
-1.9959e-279
-2.34259e-281
-2.74946e-283
-3.22387e-285
-3.7754e-287
-4.40572e-289
-5.11091e-291
-5.85713e-293
-6.62546e-295
-7.2932e-297
-7.87171e-299
-8.34626e-301
-8.71964e-303
-9.00565e-305
-9.20893e-307
-9.35013e-309
-9.40763e-311
-9.37938e-313
-9.28683e-315
-9.25466e-317
0
0
0
0
0
0
0
0
0
0
0
0
0
0
0
0
0
0
0
0
0
0
0
0
0
0
0
0
0
0.0493115
4.56193e-06
-1.44998e-06
-2.41789e-08
-1.52947e-10
-9.67841e-13
-5.94368e-15
-3.95561e-17
7.83979e-18
1.43627e-19
-1.27999e-20
-3.19214e-22
1.44545e-23
3.77746e-25
-2.3409e-26
-4.22332e-28
3.83379e-29
4.55764e-31
-6.39082e-32
-8.12251e-34
8.34484e-35
1.35378e-36
-8.61898e-38
-1.78149e-39
6.85012e-41
1.69456e-42
-4.59034e-44
-1.2001e-45
3.17632e-47
7.30402e-49
-2.54271e-50
-5.08319e-52
1.99214e-53
4.51705e-55
-1.18344e-56
-3.66344e-58
4.98983e-60
2.48452e-61
-1.02193e-63
-1.43231e-64
-7.40695e-67
6.20686e-68
8.99422e-70
-1.85011e-71
-5.52611e-73
1.21841e-75
2.01925e-76
1.64565e-78
-4.40391e-80
-9.43825e-82
4.82633e-85
2.12883e-85
2.04253e-87
-1.97569e-89
-5.52591e-91
-2.4826e-93
4.82859e-95
5.89781e-97
-2.82226e-99
-6.40718e-101
1.88233e-102
8.1899e-104
1.61792e-105
2.08422e-107
1.44067e-109
-1.58626e-111
-9.34671e-113
-2.61124e-114
-5.92523e-116
-1.20381e-117
-2.27034e-119
-4.04872e-121
-6.88926e-123
-1.1278e-124
-1.78298e-126
-2.72932e-128
-4.05416e-130
-5.84768e-132
-8.19545e-134
-1.11625e-135
-1.47828e-137
-1.90336e-139
-2.38333e-141
-2.90265e-143
-3.43828e-145
-3.96263e-147
-4.4444e-149
-4.84909e-151
-5.15171e-153
-5.3287e-155
-5.36758e-157
-5.26864e-159
-5.04364e-161
-4.70788e-163
-4.29426e-165
-3.82596e-167
-3.33873e-169