/*--------------------------------*- C++ -*----------------------------------*\
| =========                 |                                                 |
| \\      /  F ield         | OpenFOAM: The Open Source CFD Toolbox           |
|  \\    /   O peration     | Version:  2506                                  |
|   \\  /    A nd           | Website:  www.openfoam.com                      |
|    \\/     M anipulation  |                                                 |
\*---------------------------------------------------------------------------*/
FoamFile
{
    version     2.0;
    format      ascii;
    arch        "LSB;label=32;scalar=64";
    class       volVectorField;
    location    "2.2";
    object      vorticityField;
}
// * * * * * * * * * * * * * * * * * * * * * * * * * * * * * * * * * * * * * //

dimensions      [0 0 -1 0 0 0 0];

internalField   nonuniform List<vector> 
4000
(
(4.54785e-19 2.45042e-19 40.2494)
(-2.91104e-20 8.72743e-20 43.8095)
(2.71627e-19 7.64044e-19 36.9208)
(4.87028e-20 1.00716e-18 30.026)
(4.55106e-19 1.1586e-18 25.3404)
(2.2963e-20 3.73763e-21 22.0453)
(-1.68228e-19 1.42299e-18 19.522)
(1.17895e-19 1.44689e-18 17.5635)
(6.66618e-20 -2.53607e-20 16.026)
(3.90742e-20 5.22674e-19 14.794)
(-3.34312e-19 3.23597e-17 13.7877)
(1.74332e-18 -6.35589e-17 12.9543)
(-1.20929e-18 3.05328e-17 12.2572)
(1.3139e-18 -3.19416e-17 11.6695)
(-2.02587e-18 3.25037e-17 11.1716)
(1.65028e-18 1.82488e-18 10.7484)
(-1.37603e-18 3.12353e-17 10.3884)
(1.83328e-18 -3.2489e-17 10.0822)
(1.12004e-18 2.40561e-18 9.82189)
(-1.82163e-18 -5.62988e-20 9.60082)
(1.41623e-19 -6.07743e-20 9.41292)
(2.58259e-18 -1.74952e-18 9.25254)
(-2.44059e-18 -1.63998e-18 9.11407)
(-2.65487e-18 -2.26718e-20 8.99158)
(2.79834e-18 -1.75478e-18 8.87864)
(1.6949e-19 -1.60036e-18 8.76796)
(3.48689e-18 9.838e-20 8.65081)
(-4.59105e-19 3.52842e-18 8.51715)
(-1.07061e-17 5.76027e-17 8.35658)
(3.70831e-18 -6.61923e-17 8.12659)
(5.00405e-18 -4.74082e-18 7.75845)
(1.04309e-17 -1.09025e-16 7.66379)
(2.50708e-18 1.72113e-16 8.23961)
(4.1726e-17 -6.58203e-17 9.51327)
(2.24394e-17 -2.3667e-17 11.4016)
(-6.21148e-18 9.34331e-16 13.9004)
(5.95466e-17 -2.11725e-16 16.6941)
(-6.48739e-17 -1.43244e-16 21.3825)
(5.95663e-19 3.50745e-17 28.9303)
(5.49479e-17 5.54043e-17 37.2809)
(-2.20928e-17 4.05133e-17 45.364)
(1.96887e-16 5.61786e-16 52.6194)
(1.70911e-18 -8.96552e-18 58.8482)
(4.93377e-16 2.93071e-16 63.9866)
(-2.24751e-16 -1.64558e-16 67.989)
(-5.07452e-18 4.66448e-16 70.9378)
(-2.11267e-17 -1.04795e-16 72.7831)
(3.65412e-17 -4.51812e-16 73.6703)
(-3.0303e-16 -1.57616e-16 73.8087)
(-2.60327e-16 -1.13384e-16 73.3709)
(2.39376e-17 4.93965e-17 72.4427)
(-2.82329e-18 -5.18808e-18 70.7379)
(-4.78561e-17 -1.87969e-17 68.8964)
(-1.60346e-17 4.19017e-16 66.1802)
(-1.72588e-16 2.62805e-16 62.4925)
(2.83392e-17 -3.78869e-16 56.8475)
(-6.16447e-17 -8.75194e-17 49.4375)
(1.62796e-17 5.19542e-17 39.5942)
(4.02407e-19 -1.1866e-18 27.8352)
(8.5582e-20 -4.72422e-17 15.6712)
(-1.6842e-18 -1.39077e-16 5.82995)
(9.17391e-18 -2.06846e-17 -1.12253)
(2.9426e-17 4.53689e-16 -5.23602)
(-1.60463e-17 -4.96662e-16 -6.81044)
(-4.85335e-19 -1.45603e-17 -7.26189)
(2.71888e-18 -2.37907e-18 -7.02121)
(-4.04496e-19 3.63586e-18 -6.44144)
(-9.854e-18 -6.82071e-18 -5.81073)
(-1.57705e-17 -9.40574e-16 -5.24593)
(-4.33026e-17 -4.99866e-16 -4.75636)
(1.52357e-18 -5.44254e-17 -4.33649)
(4.72163e-17 3.93089e-16 -3.96849)
(-1.2721e-18 -3.83461e-16 -3.64322)
(1.35528e-17 -1.56025e-16 -3.35308)
(3.03224e-17 4.62164e-16 -3.09189)
(-2.07114e-17 -3.02923e-16 -2.85339)
(-4.05958e-17 -3.73769e-16 -2.63292)
(-6.75e-18 -4.38697e-16 -2.42904)
(1.81691e-18 -2.46188e-17 -2.24639)
(1.58717e-17 -1.53344e-17 -2.07767)
(-1.35887e-17 7.47208e-18 -1.92164)
(1.18133e-17 3.06261e-16 -1.78289)
(-4.19344e-19 2.51898e-17 -1.67124)
(-8.44722e-18 -2.81437e-16 -1.57882)
(-3.52233e-19 2.53004e-16 -1.51783)
(5.60726e-20 7.38141e-18 -1.48946)
(-1.18126e-19 5.64662e-20 -1.50246)
(1.0486e-19 1.4178e-17 -1.52712)
(-1.96408e-19 4.40159e-17 -1.55845)
(-1.2554e-18 -1.17193e-16 -1.58711)
(1.34479e-19 1.61966e-18 -1.56945)
(-5.34479e-18 6.72608e-18 -1.48507)
(-7.77405e-18 -2.47173e-17 -1.26748)
(1.02681e-17 2.58419e-17 -0.845677)
(-2.63851e-17 3.35887e-16 -0.201215)
(2.04101e-18 3.52787e-16 0.584479)
(-3.03238e-17 3.15606e-16 1.43738)
(-1.69663e-17 8.43518e-18 2.15823)
(1.13777e-17 4.1445e-16 2.44474)
(1.05003e-17 3.96385e-16 2.32141)
(3.31184e-19 -4.71842e-18 1.92028)
(-4.20922e-17 4.63122e-16 1.44201)
(-1.81134e-17 8.51654e-16 1.11573)
(-1.60072e-18 -1.30333e-17 1.21883)
(-9.40895e-18 4.31029e-16 1.85976)
(-1.48922e-18 -5.1311e-17 3.18348)
(-4.2188e-17 -4.99227e-16 5.19398)
(-5.00912e-17 -4.14622e-16 7.77084)
(-1.72228e-17 -2.22818e-17 10.7363)
(-1.68966e-17 -3.01496e-17 13.9136)
(-5.77753e-17 -3.69798e-16 17.1893)
(7.94861e-17 3.85317e-16 19.9584)
(-3.50012e-19 7.39994e-18 22.3732)
(4.21498e-17 7.27579e-16 23.4772)
(-1.02507e-17 1.65096e-16 23.1777)
(1.40769e-17 3.56581e-16 20.809)
(-5.59948e-20 -6.40446e-18 16.0577)
(-3.41068e-19 9.66622e-17 9.44921)
(-6.12275e-19 -1.26553e-17 2.73775)
(-5.38943e-20 -8.16399e-19 -2.7129)
(1.18305e-18 2.7955e-17 -6.1843)
(-1.84356e-17 -5.05927e-16 -7.66701)
(2.20827e-17 4.26722e-16 -8.04134)
(1.05424e-21 2.90297e-17 -7.61132)
(2.2026e-17 5.14705e-16 -6.91725)
(-4.18151e-17 -9.11439e-16 -6.22154)
(4.51864e-17 3.67914e-16 -5.60927)
(6.62836e-18 -5.19105e-16 -5.07864)
(3.29805e-17 -7.81138e-17 -4.62809)
(-1.49225e-17 -4.42572e-16 -4.24301)
(-1.09193e-18 -5.74197e-17 -3.90374)
(4.55673e-17 3.88872e-16 -3.59923)
(-3.6744e-17 1.24104e-17 -3.32296)
(2.92762e-17 4.27936e-16 -3.07126)
(1.75318e-17 1.37106e-17 -2.84148)
(2.44846e-18 2.32146e-17 -2.629)
(-2.00294e-17 -3.71157e-16 -2.43116)
(2.04831e-17 3.25913e-16 -2.24432)
(-1.42191e-18 2.31296e-17 -2.07541)
(-1.16231e-17 -7.05969e-18 -1.92876)
(9.61864e-18 2.97096e-16 -1.79103)
(-2.24973e-18 -6.93042e-17 -1.67863)
(1.86367e-17 3.3517e-16 -1.59009)
(-1.45722e-18 1.7692e-17 -1.53163)
(-7.70834e-19 -1.85262e-16 -1.51841)
(-2.13876e-18 -1.2837e-16 -1.53483)
(-1.73993e-19 9.34179e-17 -1.57535)
(4.04257e-19 -6.48163e-17 -1.6492)
(-1.42e-18 1.21589e-18 -1.68179)
(-2.66343e-18 7.29248e-17 -1.65654)
(-2.07631e-18 -1.94993e-17 -1.53098)
(1.60266e-17 -4.76598e-16 -1.19229)
(-1.99463e-18 1.03192e-16 -0.614926)
(-2.53303e-17 -5.33458e-18 0.183631)
(-1.75691e-17 2.81085e-16 1.12699)
(-6.50433e-18 7.74708e-17 2.12316)
(3.23114e-18 -1.38142e-18 2.80493)
(2.23582e-17 2.45475e-17 3.05856)
(-1.39001e-17 -6.17759e-17 2.96819)
(7.33269e-18 -9.18091e-16 2.74052)
(8.99147e-18 1.97592e-16 2.62846)
(1.24935e-17 5.09592e-16 2.92472)
(-2.54592e-17 3.59973e-16 4.36742)
(-6.01212e-18 -3.44081e-17 5.30624)
(3.03832e-17 -4.10475e-16 7.00201)
(-3.61628e-19 -6.23698e-16 8.62323)
(4.48681e-18 2.12218e-17 9.83939)
(-2.15547e-18 -8.78894e-17 10.4595)
(8.4592e-19 -2.38281e-16 10.1515)
(-7.1775e-19 -7.0106e-17 8.82882)
(2.76418e-18 2.19776e-18 6.95273)
(-2.1554e-20 -1.16472e-18 5.41535)
(1.7527e-18 9.70592e-21 4.42831)
(-1.69928e-18 -1.20484e-18 3.86354)
(-1.90947e-19 -2.08627e-18 3.58851)
(4.55686e-22 -8.16121e-17 3.50918)
(-8.49281e-19 8.35757e-17 3.55673)
(-3.93926e-20 3.89732e-17 3.67689)
(1.01858e-18 -4.13595e-17 3.83234)
(1.25283e-20 3.83909e-17 4.00106)
(4.36106e-19 -8.05642e-17 4.17188)
(-3.38467e-19 3.91354e-17 4.34303)
(-5.3985e-19 -3.60119e-19 4.51805)
(5.30741e-19 -1.10937e-18 4.70324)
(-3.50744e-20 7.34723e-19 4.90704)
(1.01354e-18 -3.93321e-17 5.13879)
(-1.04373e-18 3.73298e-17 5.4095)
(1.13493e-18 -3.80063e-17 5.72966)
(-1.15253e-18 3.70117e-17 6.11092)
(6.19846e-19 -1.99298e-17 6.57004)
(-6.49309e-19 1.78403e-17 7.12784)
(4.31508e-20 -1.27412e-18 7.81336)
(-4.78047e-20 -9.81872e-19 8.67286)
(-5.68047e-19 -8.90927e-21 9.78897)
(6.61686e-19 -9.68133e-19 11.3234)
(-6.9713e-20 -1.32281e-18 13.609)
(8.0548e-19 -7.77758e-18 17.3505)
(-7.03263e-19 8.6079e-18 24.2477)
(-6.50268e-21 -6.26235e-19 35.5806)
(8.07249e-20 -1.17059e-19 35.8805)
(4.80585e-20 -2.40861e-19 -3.04832)
(6.09597e-19 -2.28714e-19 13.5375)
(-2.73356e-19 -6.74798e-19 17.8205)
(1.57203e-18 1.52246e-18 18.9309)
(-2.57039e-18 -9.63813e-18 18.9361)
(1.56162e-19 -6.37348e-19 18.4387)
(1.29483e-18 5.61313e-18 17.7533)
(-3.46089e-19 -3.20445e-18 17.0334)
(-2.87595e-19 -1.62191e-18 16.3481)
(-3.87537e-19 -1.82208e-18 15.7191)
(3.70479e-19 -4.08897e-18 15.1498)
(-2.06304e-18 -2.20634e-17 14.6376)
(1.77935e-18 2.23469e-17 14.1772)
(-2.65865e-18 -2.10386e-17 13.7627)
(1.95171e-18 4.04661e-17 13.3887)
(-1.49639e-18 -4.86903e-17 13.0501)
(1.42932e-18 2.04875e-17 12.7425)
(-1.16167e-18 -2.67179e-17 12.4619)
(-2.55422e-18 -2.43121e-17 12.2047)
(2.0498e-18 4.39212e-17 11.9675)
(2.81997e-19 -6.47351e-18 11.747)
(-1.00334e-18 -4.39291e-17 11.5399)
(2.22414e-18 5.2203e-17 11.3424)
(-2.15062e-18 3.83718e-17 11.1513)
(-3.00054e-18 -4.65504e-17 10.9625)
(2.52474e-18 -1.50723e-18 10.7714)
(3.46923e-18 -4.57312e-17 10.5726)
(-4.95051e-18 1.3097e-17 10.3594)
(3.99288e-18 9.21666e-17 10.1232)
(-1.81115e-18 -9.56026e-18 9.84914)
(4.46862e-19 -5.1102e-17 9.49565)
(-7.97476e-18 -5.64466e-17 8.99575)
(-7.48964e-18 -1.64293e-16 8.39635)
(-4.11155e-17 -2.98795e-16 7.63301)
(1.61115e-18 -1.86288e-16 6.59418)
(5.50771e-17 -1.71433e-16 5.30945)
(4.94566e-17 6.21672e-17 3.89936)
(4.02574e-17 1.24948e-16 2.46996)
(-5.10902e-17 -1.08283e-16 1.21747)
(-1.13787e-16 -1.31726e-16 0.417413)
(-2.56952e-16 -2.34856e-16 0.182599)
(-1.74998e-16 -9.24916e-17 0.414501)
(3.02994e-17 -5.22885e-18 0.979478)
(-4.77459e-16 -2.42058e-16 1.78137)
(2.60081e-16 1.83915e-16 2.76267)
(-3.41174e-16 -1.65952e-16 3.77474)
(4.03169e-16 2.64594e-16 4.78067)
(-6.21757e-18 -4.27433e-17 5.82215)
(-5.05871e-17 2.54504e-17 6.79638)
(2.6534e-16 1.17214e-16 7.81961)
(-3.31666e-16 -1.74098e-16 8.83358)
(3.46126e-17 6.53766e-17 9.8938)
(2.80959e-16 1.02616e-16 11.138)
(-3.16716e-17 -1.14568e-17 12.7066)
(1.83314e-16 1.37607e-16 14.732)
(-7.95553e-18 -1.42479e-17 17.2411)
(6.02283e-17 8.52021e-17 19.8884)
(-2.82194e-17 -6.49309e-17 22.3056)
(-4.91471e-18 -5.28949e-18 23.3311)
(2.99213e-18 3.32976e-17 21.8388)
(4.46566e-18 1.42952e-16 17.2459)
(2.94674e-18 3.73758e-16 11.1485)
(3.03136e-19 4.85373e-16 5.56972)
(1.49172e-17 5.20077e-16 1.09776)
(1.12417e-17 -6.3267e-17 -1.90378)
(-1.4735e-17 8.06055e-17 -3.32043)
(-3.39407e-19 2.80559e-18 -3.98609)
(9.22871e-18 -6.30138e-17 -4.25468)
(5.35292e-17 1.08624e-15 -4.22332)
(2.86516e-17 -5.41585e-16 -4.01706)
(2.2127e-18 -1.32079e-16 -3.74682)
(-1.42604e-18 6.5066e-16 -3.47386)
(4.4148e-17 4.16504e-16 -3.21513)
(3.40879e-17 5.37057e-16 -2.97196)
(-3.23841e-17 9.55438e-17 -2.744)
(-2.63464e-18 1.71563e-19 -2.52966)
(3.55544e-17 -5.79118e-16 -2.32847)
(2.67337e-17 3.60809e-16 -2.13261)
(-3.5566e-19 2.95462e-17 -1.94946)
(-1.33228e-17 4.38507e-16 -1.77444)
(1.18968e-17 -3.73494e-16 -1.60838)
(-1.11884e-17 -9.35345e-18 -1.4369)
(-4.71902e-20 3.14212e-20 -1.27733)
(8.18898e-18 3.7241e-18 -1.10414)
(-6.93954e-18 -2.9415e-16 -0.924977)
(3.04601e-19 5.14216e-19 -0.703985)
(-9.05934e-19 -1.60602e-17 -0.43902)
(2.10717e-19 1.67245e-17 -0.109233)
(4.90478e-19 -1.20091e-17 0.259481)
(-1.4537e-18 2.82841e-16 0.580658)
(9.24376e-19 -2.11739e-17 0.774189)
(1.00176e-17 3.05463e-17 0.800208)
(6.13927e-19 2.91424e-16 0.662428)
(-1.42126e-17 -3.44428e-16 0.338515)
(1.11648e-17 3.57405e-16 -0.0623193)
(2.53936e-17 -3.20484e-16 -0.381661)
(5.18142e-17 4.37494e-16 -0.523861)
(2.9543e-17 3.6892e-16 -0.454045)
(7.21027e-18 -4.31873e-16 -0.205743)
(-7.64336e-18 -3.78918e-16 0.082834)
(-5.56736e-19 5.00877e-17 0.465598)
(5.02391e-17 4.61793e-16 0.890479)
(3.87368e-17 -4.29604e-16 1.31324)
(-1.60279e-17 2.02453e-17 1.70803)
(4.55925e-17 1.02196e-17 2.14147)
(1.55554e-18 4.82524e-17 2.58459)
(7.15675e-17 9.40844e-16 3.07005)
(7.55291e-17 8.52473e-16 3.60232)
(5.20164e-17 3.62672e-16 4.16825)
(7.55015e-17 3.57934e-16 4.81616)
(3.71115e-17 3.23047e-16 5.54623)
(-1.3605e-16 -7.03728e-16 6.38807)
(5.39249e-18 3.65383e-17 7.38566)
(-1.90584e-17 -3.0549e-16 8.62553)
(1.24394e-17 4.25431e-17 10.2184)
(-8.39657e-18 -1.4417e-16 12.034)
(-2.10973e-18 -1.25919e-17 13.5937)
(-6.49951e-18 -6.5201e-17 13.9249)
(-2.07866e-19 -1.19359e-17 12.0089)
(2.54988e-19 1.18002e-17 8.1682)
(-2.12481e-19 -1.53833e-17 4.04858)
(3.58846e-17 4.60591e-16 0.234593)
(-1.99275e-17 4.96365e-17 -2.38484)
(-3.66075e-18 -2.26032e-17 -3.71012)
(-6.42973e-17 -4.50793e-16 -4.32567)
(8.89e-17 3.75547e-16 -4.51629)
(-3.26665e-17 5.49641e-16 -4.43062)
(5.51571e-17 9.52226e-16 -4.19661)
(4.98585e-17 1.00442e-15 -3.90415)
(1.80622e-17 4.61201e-16 -3.61719)
(5.56699e-18 5.37188e-17 -3.35003)
(-1.20022e-17 5.72391e-16 -3.09982)
(-3.76789e-17 -8.63624e-16 -2.86389)
(-2.59316e-17 5.89499e-17 -2.63983)
(1.47197e-17 3.25022e-16 -2.42827)
(6.46731e-18 1.3556e-17 -2.22769)
(1.42523e-18 -3.94257e-19 -2.03591)
(-3.89211e-17 5.71436e-17 -1.85326)
(-1.46882e-18 -7.59161e-17 -1.66886)
(3.18887e-18 -2.61899e-16 -1.49175)
(-1.98336e-18 -9.12218e-17 -1.31959)
(-9.48284e-19 -7.69375e-18 -1.1354)
(-1.01916e-17 1.58858e-16 -0.955494)
(-5.80202e-18 -1.32945e-16 -0.743199)
(8.54046e-18 1.87274e-16 -0.504287)
(2.65203e-18 4.28631e-18 -0.2051)
(-7.62171e-19 6.39414e-17 0.160073)
(1.06538e-18 -6.45502e-17 0.517784)
(-1.49577e-18 1.37531e-16 0.765656)
(7.57295e-18 2.08677e-18 0.851259)
(-2.82847e-18 -1.76696e-18 0.775263)
(-1.14267e-17 -8.43603e-18 0.531748)
(1.47121e-17 4.30281e-17 0.191078)
(2.74601e-17 8.27576e-16 -0.123791)
(2.45024e-17 1.76745e-16 -0.284605)
(4.80301e-18 8.74618e-17 -0.26225)
(5.69871e-18 -1.25487e-16 -0.0211713)
(-6.28254e-17 -6.73871e-16 0.280397)
(1.24219e-17 2.77914e-16 0.653682)
(-2.51692e-17 4.1191e-16 1.10499)
(-1.5397e-17 -5.15985e-17 1.60293)
(7.92616e-18 -3.46478e-16 2.14372)
(2.19689e-17 1.53126e-16 2.81883)
(-1.35874e-17 -3.37892e-17 3.12793)
(-5.81473e-17 -4.32614e-16 3.57403)
(-3.71491e-18 3.46967e-16 4.06588)
(-3.12174e-18 -1.41439e-17 4.68873)
(2.43316e-18 3.32973e-18 5.50119)
(-1.13132e-17 8.17338e-17 6.45881)
(-4.61516e-19 6.28715e-17 7.39832)
(-2.79525e-18 -6.44351e-17 8.08484)
(2.14526e-18 1.63048e-18 8.41555)
(-7.46364e-19 -7.08969e-17 8.47424)
(1.19429e-18 7.25868e-17 8.44836)
(6.46952e-20 2.8847e-18 8.40888)
(6.25571e-20 7.12786e-17 8.39072)
(8.37082e-19 -2.93454e-18 8.4078)
(-7.32215e-19 -3.72302e-17 8.45855)
(-3.80273e-19 -3.12558e-17 8.53498)
(1.11865e-19 -3.20544e-17 8.62898)
(-3.98323e-19 3.35369e-17 8.73448)
(4.08575e-19 -7.47951e-19 8.84814)
(-1.53999e-19 3.27087e-17 8.96924)
(3.24519e-20 -3.41485e-17 9.09952)
(-4.49206e-20 -1.09734e-18 9.24206)
(3.01498e-19 -2.86662e-17 9.40205)
(-2.67724e-19 3.47508e-17 9.58626)
(3.53478e-19 -3.11248e-17 9.80233)
(-1.01005e-18 3.41135e-17 10.06)
(8.7978e-19 -1.25021e-17 10.3718)
(-2.63267e-19 1.62232e-17 10.7546)
(-1.46896e-19 -7.69968e-19 11.2316)
(-2.69139e-20 2.99774e-18 11.8392)
(-5.68939e-19 1.24216e-17 12.6403)
(3.74062e-19 -1.36842e-17 13.753)
(-1.70171e-19 2.60329e-18 15.3966)
(-6.25456e-19 4.98717e-19 17.8868)
(1.13513e-18 -1.37199e-18 20.9849)
(3.08181e-19 5.48176e-19 20.044)
(-9.06075e-19 -9.73471e-20 -5.12663)
(1.01784e-19 -1.06361e-20 -10.1966)
(-2.27964e-18 4.38587e-19 1.46158)
(1.11436e-18 -2.14091e-19 6.46371)
(1.03396e-18 -3.16722e-19 8.98415)
(-2.01522e-18 -1.03905e-19 10.2959)
(1.77551e-18 2.23685e-18 10.9379)
(-1.57296e-18 -2.49169e-18 11.2025)
(4.06684e-20 1.75343e-18 11.2603)
(1.45267e-19 1.78539e-18 11.2013)
(8.82118e-19 3.46934e-18 11.0755)
(3.58823e-20 1.92404e-18 10.9128)
(-7.62096e-20 3.40683e-18 10.7312)
(-5.45923e-19 -1.1192e-17 10.5414)
(1.91348e-18 2.79425e-17 10.3499)
(5.2587e-19 -1.136e-17 10.1605)
(-9.12468e-19 1.63084e-17 9.97538)
(5.28025e-19 -9.31754e-18 9.79553)
(1.79644e-19 7.76467e-18 9.62138)
(-3.0462e-18 3.00003e-17 9.45278)
(3.158e-18 -2.91726e-17 9.28916)
(-3.45575e-19 4.59357e-18 9.12963)
(-4.29521e-18 2.79047e-18 8.97296)
(4.16785e-18 -2.88484e-17 8.81753)
(2.91457e-18 3.9181e-17 8.66134)
(-1.49956e-18 2.65145e-17 8.50196)
(3.80094e-18 -3.23232e-17 8.33635)
(-8.3013e-18 -2.66302e-17 8.16073)
(3.45938e-20 3.31971e-17 7.97046)
(4.04858e-18 -3.25691e-18 7.759)
(4.55868e-18 5.65488e-20 7.51777)
(-8.90646e-18 -2.16508e-19 7.21183)
(1.29308e-18 1.98223e-17 6.69133)
(8.39334e-18 1.65047e-16 5.945)
(9.39292e-18 1.18205e-16 5.00275)
(-5.79498e-17 -1.87196e-16 3.90629)
(2.0891e-18 -9.26137e-18 2.72241)
(-5.44955e-17 -1.78672e-16 1.5236)
(3.40872e-17 1.10044e-16 0.433234)
(1.35083e-16 1.21069e-16 -0.468533)
(-5.53101e-17 1.21151e-18 -1.07585)
(3.72726e-16 2.91157e-16 -1.33464)
(-5.71841e-18 -1.13495e-16 -1.29495)
(-3.08006e-16 -2.36269e-16 -1.02936)
(-3.66028e-16 -2.02364e-16 -0.592571)
(5.28373e-17 9.77816e-17 -0.0272785)
(2.11059e-16 2.85926e-17 0.64567)
(-5.62581e-16 -3.0041e-16 1.27156)
(-3.3555e-16 -1.24916e-16 1.89411)
(-1.02936e-16 -2.10135e-17 2.49194)
(2.49188e-17 3.71457e-17 3.01089)
(3.46537e-18 -2.54568e-17 3.52265)
(-6.44889e-17 -3.22483e-17 4.03697)
(4.75924e-17 2.46261e-17 4.61231)
(-4.71287e-18 1.30283e-17 5.33849)
(2.51906e-16 6.33168e-17 6.32401)
(-9.31761e-17 -3.80739e-17 7.69888)
(-8.66431e-17 -1.32603e-17 9.58031)
(4.53313e-17 1.7893e-17 12.06)
(3.90699e-18 5.8152e-18 14.9729)
(2.23879e-19 -9.63449e-19 17.8779)
(-2.51848e-18 3.30094e-17 19.1471)
(-1.49663e-17 -2.58067e-17 17.6921)
(-3.07492e-17 -1.75595e-17 14.0121)
(-1.64011e-17 -4.77323e-16 9.47601)
(-8.96908e-18 4.95596e-16 5.41104)
(-3.60129e-17 -4.90209e-16 2.21051)
(2.31069e-17 -3.78755e-17 -0.0823018)
(-2.85147e-18 5.12425e-17 -1.34514)
(-1.02966e-16 -1.10034e-15 -1.95029)
(8.04955e-17 1.00982e-15 -2.27615)
(-2.11645e-17 9.74719e-17 -2.42805)
(-5.55939e-17 -4.06401e-16 -2.43414)
(-2.7667e-17 5.17848e-18 -2.36283)
(-1.36414e-17 5.05924e-16 -2.24229)
(-2.99081e-17 -4.43729e-16 -2.09288)
(1.24939e-17 -5.53118e-16 -1.93038)
(5.30792e-17 8.75795e-16 -1.76224)
(-2.02254e-17 4.38358e-17 -1.5846)
(-1.84343e-17 2.76328e-17 -1.40615)
(-3.46221e-17 -7.62172e-16 -1.22582)
(3.31709e-17 6.74124e-16 -1.04367)
(1.10717e-17 3.62704e-17 -0.846402)
(-9.8614e-18 7.1881e-18 -0.644234)
(-2.06904e-19 -1.77687e-17 -0.414022)
(1.41124e-17 2.82181e-16 -0.162416)
(-4.16279e-19 8.68212e-18 0.12838)
(4.16328e-19 -6.56619e-17 0.441029)
(-1.03495e-19 -1.9543e-18 0.747462)
(1.70619e-19 -5.15187e-17 0.998376)
(7.09367e-18 -2.63642e-16 1.12068)
(1.10146e-18 -2.90818e-17 1.04396)
(1.08627e-17 -5.82335e-16 0.758472)
(7.52516e-18 -2.57301e-16 0.324022)
(-1.27069e-17 6.33411e-16 -0.164384)
(1.55816e-17 -1.23465e-17 -0.555878)
(-2.9425e-17 -4.26415e-16 -0.740551)
(-1.6836e-17 -7.2996e-16 -0.714374)
(3.67374e-18 -3.26098e-16 -0.470485)
(-3.39722e-17 8.78512e-18 -0.0573333)
(2.52059e-17 4.26503e-16 0.420049)
(1.85661e-19 -4.72042e-17 0.914695)
(1.13716e-17 -4.15663e-16 1.34686)
(-2.05632e-17 3.04909e-17 1.67219)
(3.20014e-17 4.17097e-16 1.88419)
(-1.62383e-17 -4.65162e-16 2.02747)
(-1.29618e-18 -1.80864e-17 2.12805)
(-3.25448e-17 -8.05297e-16 2.22746)
(1.49717e-17 -3.1474e-16 2.34422)
(3.9312e-17 8.10789e-18 2.49438)
(-4.49234e-17 -3.5074e-16 2.69412)
(2.025e-17 4.52638e-17 2.94736)
(3.67908e-17 2.89568e-16 3.30996)
(-6.20802e-19 -2.16302e-17 3.80652)
(-9.1708e-17 -2.57846e-16 4.49136)
(2.43425e-18 2.21112e-17 5.53402)
(-4.85178e-18 -1.33676e-18 7.03679)
(-4.38747e-19 -1.90347e-19 9.05638)
(7.17589e-18 6.58723e-17 11.399)
(2.75638e-19 3.72949e-19 13.1838)
(-8.83223e-19 -1.15315e-17 13.1844)
(1.34438e-18 2.42864e-17 11.0561)
(-1.91921e-17 -6.6249e-19 7.80611)
(-1.64051e-17 1.14932e-17 4.54571)
(2.47898e-18 1.92026e-17 1.66611)
(2.83476e-19 -6.04227e-16 -0.36048)
(2.57805e-18 6.54292e-16 -1.48787)
(-8.42174e-17 -1.00233e-15 -2.03622)
(-8.91632e-17 -4.9255e-16 -2.33685)
(-6.48384e-17 5.5376e-17 -2.44155)
(-4.3415e-17 -4.6508e-16 -2.4251)
(-1.28369e-17 8.28139e-17 -2.34004)
(-3.04987e-17 -4.46385e-16 -2.21472)
(2.4855e-17 -1.97947e-16 -2.06742)
(-7.48813e-18 8.43606e-18 -1.90413)
(-9.67488e-18 -3.56624e-17 -1.73244)
(2.05645e-17 1.05458e-16 -1.55615)
(-1.40277e-17 -3.49157e-16 -1.37578)
(-2.35692e-17 -7.75143e-16 -1.19433)
(5.89026e-19 -6.11832e-17 -1.00096)
(5.3568e-18 3.1878e-16 -0.799162)
(2.93837e-19 4.30375e-16 -0.588948)
(-1.16457e-17 -4.47897e-17 -0.355993)
(-7.22782e-18 -2.10711e-16 -0.111829)
(5.62266e-19 -1.47717e-16 0.161317)
(-3.4123e-18 1.27649e-16 0.460175)
(1.39329e-18 3.5549e-17 0.765768)
(1.57049e-19 9.43607e-21 1.02544)
(2.41535e-18 -1.98493e-16 1.18118)
(4.13761e-18 -1.43206e-16 1.13844)
(6.96343e-18 -3.48449e-16 0.879061)
(-8.65567e-18 1.51631e-16 0.457628)
(6.0372e-19 -9.5014e-17 -0.039555)
(-8.44458e-18 -3.616e-16 -0.472722)
(3.40005e-18 -6.96562e-16 -0.701359)
(8.20561e-18 -3.26912e-16 -0.688119)
(-5.58967e-18 -6.26941e-18 -0.478845)
(-3.03546e-17 -3.73151e-16 -0.090193)
(4.12671e-17 1.18807e-15 0.374746)
(1.94712e-17 6.86753e-17 0.881637)
(3.45843e-18 1.78758e-17 1.33236)
(3.40479e-17 4.57725e-16 1.70082)
(-2.8773e-17 -4.65332e-17 1.99579)
(2.61438e-18 1.24035e-17 2.22023)
(3.4803e-17 2.9038e-16 2.22007)
(5.75053e-18 3.96746e-16 2.32088)
(7.29153e-19 -1.51689e-17 2.47552)
(-3.67334e-18 -5.67911e-18 2.74724)
(-1.50426e-17 -1.24781e-16 3.16904)
(1.87016e-17 1.32884e-16 3.7775)
(-1.30193e-18 -4.72336e-18 4.59136)
(-1.49503e-18 -5.01484e-18 5.47657)
(-2.7565e-18 -5.85186e-17 6.22247)
(-1.33875e-18 3.55971e-18 6.72883)
(3.02183e-18 -3.59862e-18 7.03472)
(-1.66712e-18 -6.43103e-18 7.20154)
(1.89024e-19 -5.83699e-17 7.28906)
(1.54125e-18 -9.32291e-19 7.3432)
(-1.60061e-18 5.96227e-17 7.39285)
(1.78881e-21 -2.52464e-18 7.45224)
(-8.09345e-19 2.74421e-17 7.526)
(1.30711e-19 -2.94402e-17 7.61353)
(5.6326e-19 2.37007e-18 7.71223)
(-9.73601e-20 -2.00791e-21 7.81971)
(8.17402e-21 1.91802e-18 7.93491)
(-5.55541e-20 2.45109e-18 8.05874)
(-6.85366e-20 -2.68951e-17 8.19417)
(1.68519e-19 2.3558e-17 8.34637)
(7.84689e-20 -2.37093e-17 8.52251)
(-8.1691e-19 4.57463e-17 8.73164)
(9.28711e-19 -3.73359e-17 8.98574)
(-3.54322e-20 1.23862e-17 9.3019)
(-1.05421e-19 3.52039e-18 9.70616)
(1.50479e-19 -1.63345e-18 10.2417)
(5.79053e-19 2.5237e-19 10.9847)
(-5.90062e-19 2.88243e-18 12.0665)
(-6.78325e-22 -1.35972e-18 13.66)
(6.38081e-20 2.08663e-19 15.7181)
(-8.1559e-19 3.88501e-19 16.7222)
(2.30181e-18 -4.71102e-19 9.61057)
(2.98835e-18 9.25673e-19 -18.8981)
(-1.2422e-18 1.16805e-19 -9.27233)
(6.8301e-20 3.21264e-20 -2.38533)
(9.12523e-20 -6.71501e-20 1.37305)
(-2.15412e-18 7.90616e-19 3.4675)
(2.08174e-18 -3.02036e-19 4.73341)
(2.75562e-18 -2.77341e-19 5.52413)
(-2.91725e-18 -8.70582e-20 6.02071)
(1.34488e-18 3.14788e-19 6.33563)
(8.17858e-20 -2.39769e-19 6.53183)
(2.90311e-19 -1.66619e-18 6.64639)
(-4.97529e-19 1.16418e-19 6.70387)
(6.03858e-19 -1.13473e-18 6.72105)
(5.65844e-21 -1.59575e-19 6.70968)
(7.3856e-19 -2.46817e-18 6.67797)
(-4.61127e-19 1.62647e-19 6.63172)
(9.55093e-19 -1.94257e-19 6.57502)
(-4.25572e-19 -3.98646e-18 6.51072)
(-1.90415e-18 -9.11049e-18 6.44074)
(8.05359e-18 2.75732e-17 6.36628)
(-5.41223e-18 -2.19577e-17 6.28797)
(-2.40754e-18 4.07326e-18 6.20593)
(4.26427e-18 1.51117e-17 6.11984)
(-3.72181e-18 -2.31606e-17 6.0289)
(2.0353e-18 2.37703e-19 5.93188)
(3.5485e-18 -2.96951e-18 5.82701)
(-3.63873e-18 -2.01108e-17 5.71191)
(7.06862e-19 2.56214e-17 5.58351)
(3.50397e-18 8.70553e-19 5.43795)
(3.11146e-18 1.98291e-17 5.26985)
(-5.36749e-18 -2.33103e-17 5.0721)
(3.57934e-18 2.03198e-17 4.81886)
(-1.24985e-17 -6.84853e-17 4.40689)
(7.03258e-19 -7.96025e-17 3.811)
(1.16463e-17 -1.18243e-17 3.05721)
(-6.52708e-17 6.02519e-18 2.18835)
(3.80402e-17 -2.69773e-17 1.26795)
(-1.02855e-16 -1.06933e-16 0.354416)
(1.69476e-18 2.44163e-17 -0.439264)
(1.05048e-16 5.01215e-17 -1.06501)
(-1.30661e-16 -1.00812e-16 -1.46484)
(1.13262e-16 8.7713e-17 -1.61217)
(-7.52272e-17 4.08203e-18 -1.53663)
(4.88123e-16 2.95201e-16 -1.29194)
(2.10545e-16 5.3108e-17 -0.920197)
(8.65417e-17 2.42867e-17 -0.458722)
(-8.18259e-19 -6.21196e-18 0.0753111)
(-5.7011e-17 1.27041e-18 0.609085)
(6.14152e-16 2.80881e-16 1.08842)
(2.75723e-16 6.57058e-17 1.54158)
(4.18841e-17 3.88693e-17 1.92853)
(6.04655e-16 2.40527e-16 2.24711)
(1.56109e-18 -6.20094e-17 2.51652)
(-2.87094e-16 -9.33039e-17 2.76277)
(4.2502e-18 2.25771e-17 3.05385)
(5.11185e-17 1.88281e-17 3.46018)
(1.01104e-16 2.07099e-17 4.09413)
(5.05223e-17 3.13934e-18 5.08334)
(-7.50888e-17 -1.59695e-17 6.59402)
(1.40187e-17 4.74826e-18 8.77766)
(7.09963e-18 1.09665e-17 11.6798)
(-3.05344e-17 -2.66625e-17 14.8467)
(-1.14185e-17 -4.53705e-18 17.0551)
(-2.4791e-17 -3.72559e-16 17.2012)
(3.07493e-17 4.50576e-16 15.1545)
(-3.18457e-17 -7.64115e-16 11.9351)
(5.44316e-17 -1.40915e-16 8.34567)
(2.22595e-17 5.50156e-16 5.25488)
(7.46097e-18 6.1509e-17 2.90329)
(1.03195e-16 5.09636e-16 1.29228)
(-1.03864e-16 -5.6934e-16 0.216779)
(-1.41074e-17 -5.12197e-16 -0.406261)
(2.24772e-17 -1.79715e-17 -0.724511)
(-4.32083e-17 -4.704e-16 -0.895462)
(-4.52418e-17 -4.30609e-16 -0.974725)
(3.86858e-17 -1.76141e-16 -0.976912)
(6.46525e-17 9.37835e-16 -0.9211)
(-7.23397e-17 -4.06381e-16 -0.828856)
(6.06184e-18 4.44275e-17 -0.710898)
(-9.4428e-18 -4.36827e-16 -0.57481)
(4.80032e-17 3.55997e-16 -0.421113)
(-5.69851e-17 -3.27468e-16 -0.250674)
(5.26474e-18 3.4867e-16 -0.0554084)
(-3.66843e-18 -3.18389e-16 0.14605)
(8.35448e-18 -1.58016e-17 0.368104)
(-7.24425e-18 -5.93047e-18 0.60756)
(7.32869e-21 -9.74912e-18 0.855831)
(1.64661e-18 8.20899e-17 1.09287)
(-3.92698e-20 1.51231e-18 1.27012)
(-1.70825e-18 8.20279e-17 1.3265)
(-6.5282e-18 1.28959e-16 1.20678)
(2.92339e-18 -2.59739e-17 0.895583)
(-2.47733e-17 3.18426e-16 0.426283)
(-1.43485e-18 2.54497e-16 -0.0997525)
(1.75729e-17 -3.10171e-16 -0.548533)
(1.18077e-17 3.67985e-17 -0.802827)
(-9.92342e-18 3.28129e-16 -0.829154)
(-7.47764e-18 3.31966e-16 -0.602886)
(-1.57086e-17 7.94889e-18 -0.161708)
(4.36121e-17 3.75887e-16 0.353804)
(-2.29806e-17 -8.2678e-16 0.903061)
(-3.05819e-19 4.29438e-17 1.36815)
(-1.92262e-17 -2.07614e-17 1.70293)
(2.65725e-20 -2.14793e-17 1.89746)
(4.00188e-18 -3.94329e-16 1.98207)
(-2.04165e-17 -2.31963e-17 1.99442)
(9.25328e-19 1.58184e-17 1.97331)
(-4.23226e-17 -3.22366e-17 1.95092)
(-8.55292e-17 -4.08015e-16 1.94239)
(-5.72279e-17 -3.44014e-16 1.95893)
(-3.36435e-18 1.34767e-17 2.00692)
(0 -0 2.09178)
(5.23943e-18 3.63535e-18 2.24043)
(9.25863e-18 9.67232e-18 2.47808)
(2.35464e-17 1.23661e-16 2.83812)
(2.93604e-17 9.23844e-17 3.40782)
(-1.09643e-18 -2.6052e-18 4.3176)
(1.50912e-18 5.15751e-18 5.73595)
(-2.31834e-20 -2.80135e-20 7.78105)
(-2.45908e-19 6.4216e-20 10.3436)
(7.06831e-19 -2.84746e-19 12.6247)
(-1.24737e-17 5.97967e-18 13.4234)
(1.6008e-18 2.56569e-17 12.4456)
(7.7726e-19 -3.99731e-16 10.1624)
(-2.254e-18 -4.76092e-17 7.18898)
(6.27818e-17 5.10181e-16 4.527)
(-7.07987e-17 -5.27396e-16 2.49621)
(9.37981e-17 4.76229e-16 1.1014)
(2.54899e-17 2.59667e-17 0.181099)
(-6.05856e-17 -5.06789e-16 -0.373004)
(4.00377e-17 4.16423e-16 -0.654204)
(-1.66894e-17 -3.80394e-16 -0.801938)
(4.14281e-17 4.51185e-16 -0.847719)
(-5.39965e-19 -4.18174e-17 -0.839325)
(1.2701e-17 -7.53139e-17 -0.785282)
(-1.12269e-17 5.54883e-17 -0.687875)
(6.1042e-18 3.17137e-16 -0.564687)
(3.28371e-17 6.32249e-17 -0.418299)
(5.34524e-17 3.44851e-16 -0.256682)
(2.16494e-17 1.15981e-16 -0.0816546)
(-2.97766e-17 -3.81983e-16 0.0993183)
(-2.05171e-17 -6.46925e-16 0.295397)
(-1.63361e-18 -4.11443e-16 0.512267)
(3.63366e-18 5.58689e-17 0.742707)
(2.93644e-18 7.01015e-17 0.971454)
(-2.27089e-18 -6.3852e-17 1.19056)
(-5.98116e-19 3.10931e-17 1.35759)
(1.52939e-18 3.27411e-18 1.41316)
(-7.93005e-18 2.58442e-16 1.29246)
(-1.67348e-18 4.87165e-18 0.973923)
(-1.86936e-17 3.5333e-16 0.489327)
(4.03239e-18 2.17204e-16 -0.0662962)
(-1.2918e-18 1.58411e-18 -0.539068)
(-1.73078e-17 2.50344e-16 -0.819521)
(-1.94121e-17 3.96617e-16 -0.844525)
(-3.77217e-17 -3.10009e-16 -0.639512)
(1.89664e-17 3.29391e-16 -0.206448)
(5.89435e-18 4.59757e-16 0.296807)
(1.4927e-17 -5.27572e-16 0.837629)
(-2.2296e-17 -3.96696e-16 1.30302)
(3.11762e-17 5.31201e-16 1.63689)
(-3.23259e-18 -5.25867e-16 1.84701)
(3.46022e-17 4.47889e-16 1.96306)
(-1.23797e-17 5.40367e-17 2.01005)
(-1.08427e-18 -4.17836e-16 1.9429)
(2.03186e-17 3.66462e-17 1.91701)
(2.88045e-17 2.82343e-16 1.92782)
(6.75599e-18 6.02171e-17 2.00656)
(3.5341e-18 1.17915e-16 2.17615)
(-4.20824e-18 -1.17507e-16 2.45006)
(3.69551e-18 5.71978e-17 2.86031)
(-4.39282e-18 -5.58585e-17 3.37491)
(-3.23758e-18 1.58069e-18 3.87258)
(1.17464e-18 -4.24176e-18 4.26587)
(-3.95551e-19 -4.6949e-17 4.53451)
(6.0812e-19 5.7166e-17 4.69646)
(-2.29704e-18 4.816e-17 4.78789)
(-6.39691e-19 -4.43783e-17 4.84615)
(2.07816e-18 2.47989e-17 4.89901)
(3.30021e-19 -2.47297e-17 4.96252)
(-2.16876e-20 9.59076e-19 5.04272)
(-7.34155e-19 2.58096e-17 5.13902)
(9.10043e-19 -2.29779e-17 5.2478)
(-1.08692e-18 2.47705e-17 5.36514)
(1.02773e-19 -2.26443e-17 5.48851)
(7.16863e-19 -2.47802e-18 5.61755)
(-7.7272e-19 2.46051e-18 5.75423)
(3.70025e-19 -5.46677e-20 5.90272)
(-1.10369e-18 5.79907e-20 6.06929)
(1.77211e-18 2.16053e-18 6.26257)
(-1.25731e-18 -7.86462e-20 6.49443)
(1.60145e-19 -1.82418e-19 6.7825)
(6.33397e-19 -4.03484e-18 7.15514)
(-8.08038e-19 1.74209e-19 7.66076)
(7.64758e-19 -5.47821e-19 8.38236)
(2.55644e-18 -4.54419e-18 9.44173)
(-1.61089e-18 2.71879e-18 10.9108)
(3.98238e-19 -2.83456e-19 12.3656)
(-2.37186e-19 4.28619e-20 11.431)
(-4.52263e-19 5.34664e-19 1.94188)
(-2.51315e-18 -5.12764e-19 -20.8602)
(5.88132e-19 -2.16959e-19 -7.72859)
(-2.29005e-18 4.81964e-19 -3.52583)
(-1.98654e-18 9.71557e-19 -0.720391)
(4.11464e-18 -1.73923e-18 0.906458)
(-7.12828e-18 2.66522e-18 1.89926)
(3.96136e-18 -9.69511e-19 2.55343)
(-2.0938e-19 -2.83353e-19 3.02227)
(-1.0478e-18 -1.1473e-19 3.36597)
(4.20715e-20 -5.37613e-19 3.62341)
(-5.13648e-18 -6.98444e-19 3.81718)
(3.42691e-18 1.69442e-18 3.96251)
(-2.74998e-19 -2.14688e-18 4.07048)
(-2.28474e-18 -2.67202e-18 4.14947)
(5.13937e-19 3.08352e-18 4.20571)
(-4.03749e-19 -1.23201e-18 4.24385)
(4.36583e-19 -1.75087e-20 4.2674)
(-1.80244e-18 -3.19862e-19 4.27887)
(3.5803e-19 1.94987e-18 4.28006)
(-4.15647e-18 -1.65728e-17 4.27212)
(1.55381e-18 1.69373e-17 4.25569)
(1.47542e-18 7.76861e-18 4.23092)
(3.30401e-19 -1.52315e-17 4.19751)
(-2.85751e-18 2.56931e-18 4.15469)
(-1.64591e-19 2.24044e-18 4.10122)
(-6.28247e-19 -7.71665e-19 4.03532)
(-3.12393e-18 -5.99572e-18 3.95462)
(-2.97765e-18 -1.6179e-17 3.8561)