/*--------------------------------*- C++ -*----------------------------------*\
| =========                 |                                                 |
| \\      /  F ield         | OpenFOAM: The Open Source CFD Toolbox           |
|  \\    /   O peration     | Version:  2506                                  |
|   \\  /    A nd           | Website:  www.openfoam.com                      |
|    \\/     M anipulation  |                                                 |
\*---------------------------------------------------------------------------*/
FoamFile
{
    version     2.0;
    format      ascii;
    arch        "LSB;label=32;scalar=64";
    class       surfaceScalarField;
    location    "0.1";
    object      phi;
}
// * * * * * * * * * * * * * * * * * * * * * * * * * * * * * * * * * * * * * //

dimensions      [0 3 -1 0 0 0 0];

oriented        oriented;

internalField   nonuniform List<scalar> 
7780
(
3.53047e-09
5.69522e-10
2.84579e-09
6.84678e-10
2.32688e-09
5.18905e-10
1.973e-09
3.53882e-10
1.75539e-09
2.176e-10
1.6307e-09
1.24694e-10
1.562e-09
6.86954e-11
1.52585e-09
3.61498e-11
1.50776e-09
1.80867e-11
1.49889e-09
8.87105e-12
1.49447e-09
4.42684e-12
1.49163e-09
2.83468e-12
1.48922e-09
2.40416e-12
1.48678e-09
2.44487e-12
1.48403e-09
2.75151e-12
1.48079e-09
3.23104e-12
1.47693e-09
3.85869e-12
1.4723e-09
4.62985e-12
1.46674e-09
5.55562e-12
1.46009e-09
6.6573e-12
1.45213e-09
7.95126e-12
1.44267e-09
9.46488e-12
1.43139e-09
1.12713e-11
1.41793e-09
1.34595e-11
1.40186e-09
1.60734e-11
1.38265e-09
1.92078e-11
1.35965e-09
2.29944e-11
1.33204e-09
2.76092e-11
1.29874e-09
3.32981e-11
1.25832e-09
4.04258e-11
1.20875e-09
4.95741e-11
1.14685e-09
6.18937e-11
1.06799e-09
7.88632e-11
9.5162e-10
1.16373e-10
8.56746e-10
9.48733e-11
8.3758e-10
1.91633e-11
8.54368e-10
-1.6789e-11
8.79694e-10
-2.53264e-11
9.13521e-10
-3.38279e-11
9.63675e-10
-5.01571e-11
1.0554e-09
-9.17323e-11
1.14749e-09
-9.2092e-11
1.21546e-09
-6.79666e-11
1.26934e-09
-5.38626e-11
1.31204e-09
-4.26794e-11
1.3506e-09
-3.85185e-11
1.39089e-09
-4.0261e-11
1.42334e-09
-3.24265e-11
1.45919e-09
-3.58426e-11
1.493e-09
-3.38131e-11
1.52201e-09
-2.90264e-11
1.55179e-09
-2.98002e-11
1.56903e-09
-1.72551e-11
1.58755e-09
-1.85459e-11
1.58979e-09
-2.24741e-12
1.58585e-09
3.93072e-12
1.56854e-09
1.73087e-11
1.53356e-09
3.49692e-11
1.49777e-09
3.57861e-11
1.43375e-09
6.3996e-11
1.37359e-09
6.01397e-11
1.30322e-09
7.03433e-11
1.2305e-09
7.27014e-11
1.16373e-09
6.67673e-11
1.09409e-09
6.96515e-11
1.03804e-09
5.60885e-11
9.81212e-10
5.68625e-11
9.37406e-10
4.38151e-11
8.96695e-10
4.06792e-11
8.63987e-10
3.26355e-11
8.38523e-10
2.53612e-11
8.1475e-10
2.36612e-11
7.98511e-10
1.61422e-11
7.85318e-10
1.3131e-11
7.74641e-10
1.06597e-11
7.68451e-10
6.22417e-12
7.64576e-10
3.95972e-12
7.62066e-10
2.64139e-12
7.6248e-10
-2.43002e-13
7.6487e-10
-2.19101e-12
7.68328e-10
-3.24986e-12
7.73207e-10
-4.68338e-12
7.79133e-10
-5.7615e-12
7.86013e-10
-6.75461e-12
7.94578e-10
-8.48451e-12
8.03508e-10
-8.89089e-12
8.12555e-10
-9.04161e-12
8.24156e-10
-1.16186e-11
8.35666e-10
-1.15421e-11
8.46419e-10
-1.07904e-11
8.60627e-10
-1.42461e-11
8.73827e-10
-1.3235e-11
8.86139e-10
-1.23427e-11
9.02663e-10
-1.65492e-11
9.14441e-10
-1.17995e-11
9.32225e-10
-1.78e-11
9.4455e-10
-1.23382e-11
9.62184e-10
-1.7643e-11
9.73617e-10
-1.14405e-11
9.91611e-10
-1.79977e-11
1.00321e-09
-1.16022e-11
1.01796e-09
-1.47475e-11
1.03034e-09
-1.23816e-11
1.03961e-09
-9.2809e-12
1.05155e-09
-1.19383e-11
1.05819e-09
-6.64387e-12
1.06776e-09
-9.5727e-12
1.07362e-09
-5.86985e-12
1.07946e-09
-5.8457e-12
1.08301e-09
-3.56107e-12
1.08592e-09
-2.92577e-12
1.087e-09
-1.10149e-12
1.08896e-09
-1.99041e-12
1.0869e-09
2.02956e-12
1.08863e-09
-1.76708e-12
1.08719e-09
1.39955e-12
1.08582e-09
1.32901e-12
1.08577e-09
6.32444e-15
1.08431e-09
1.41961e-12
1.08332e-09
9.68149e-13
1.0838e-09
-4.80956e-13
1.08402e-09
-1.83395e-13
1.0845e-09
-4.00488e-13
1.08682e-09
-2.18706e-12
1.08974e-09
-2.74524e-12
1.09387e-09
-3.92835e-12
1.09943e-09
-5.35556e-12
1.10606e-09
-6.45756e-12
1.11466e-09
-8.47047e-12
1.12643e-09
-1.16995e-11
1.13816e-09
-1.17183e-11
1.15287e-09
-1.47398e-11
1.17279e-09
-1.99742e-11
1.19224e-09
-1.95095e-11
1.21551e-09
-2.33019e-11
1.2456e-09
-3.00857e-11
1.2712e-09
-2.55606e-11
1.30528e-09
-3.40246e-11
1.33811e-09
-3.277e-11
1.37254e-09
-3.43962e-11
1.40573e-09
-3.31923e-11
1.43554e-09
-2.9845e-11
1.45916e-09
-2.36796e-11
1.4778e-09
-1.87006e-11
1.47844e-09
-6.98942e-13
1.47816e-09
2.30199e-13
1.44816e-09
2.99749e-11
1.41421e-09
3.39437e-11
1.36443e-09
4.97689e-11
1.30009e-09
6.43186e-11
1.23618e-09
6.38911e-11
1.15476e-09
8.13964e-11
1.08278e-09
7.19706e-11
9.99831e-10
8.29464e-11
9.27059e-10
7.27964e-11
8.47316e-10
7.97939e-11
7.76084e-10
7.13067e-11
6.99833e-10
7.63487e-11
6.28659e-10
7.12821e-11
5.62209e-10
6.65478e-11
6.15003e-10
-5.27432e-11
6.80214e-10
-6.51884e-11
7.50137e-10
-6.99199e-11
8.23598e-10
-7.34641e-11
9.18381e-10
-9.47815e-11
1.02749e-09
-1.09095e-10
1.16975e-09
-1.42244e-10
1.27749e-09
-1.07728e-10
1.3383e-09
-6.07953e-11
1.37202e-09
-3.37102e-11
1.39024e-09
-1.82187e-11
1.39996e-09
-9.72819e-12
1.40529e-09
-5.33013e-12
1.40843e-09
-3.14092e-12
1.4105e-09
-2.07845e-12
1.41235e-09
-1.85424e-12
1.4142e-09
-1.84615e-12
1.41616e-09
-1.96934e-12
1.41833e-09
-2.16342e-12
1.42071e-09
-2.38544e-12
1.42328e-09
-2.57529e-12
1.42606e-09
-2.77844e-12
1.42904e-09
-2.98058e-12
1.43222e-09
-3.18045e-12
1.4356e-09
-3.37913e-12
1.43918e-09
-3.57915e-12
1.44296e-09
-3.78326e-12
1.44695e-09
-3.993e-12
1.45116e-09
-4.20937e-12
1.4556e-09
-4.43443e-12
1.46027e-09
-4.67124e-12
1.46519e-09
-4.92269e-12
1.47038e-09
-5.19064e-12
1.47585e-09
-5.4751e-12
1.48163e-09
-5.77374e-12
1.48771e-09
-6.07957e-12
1.49408e-09
-6.37781e-12
1.50073e-09
-6.64891e-12
1.50749e-09
-6.75521e-12
-6.18664e-12
4.33778e-09
3.3174e-10
4.34509e-09
6.77363e-10
4.18377e-09
6.80217e-10
3.96251e-09
5.75136e-10
3.74332e-09
4.36791e-10
3.56518e-09
3.02833e-10
3.44023e-09
1.93644e-10
3.35973e-09
1.16649e-10
3.31035e-09
6.74649e-11
3.28078e-09
3.84376e-11
3.26302e-09
2.2191e-11
3.25177e-09
1.40822e-11
3.24378e-09
1.03992e-11
3.23719e-09
9.0331e-12
3.23097e-09
8.97192e-12
3.22449e-09
9.7078e-12
3.21733e-09
1.10191e-11
3.20913e-09
1.28211e-11
3.19958e-09
1.51038e-11
3.18834e-09
1.79001e-11
3.17503e-09
2.12601e-11
3.15923e-09
2.52606e-11
3.14045e-09
3.00525e-11
3.11808e-09
3.58239e-11
3.09141e-09
4.27429e-11
3.05955e-09
5.10628e-11
3.02142e-09
6.11194e-11
2.97567e-09
7.33604e-11
2.92057e-09
8.83976e-11
2.8539e-09
1.07091e-10
2.77275e-09
1.30722e-10
2.67335e-09
1.61292e-10
2.54982e-09
2.02394e-10
2.38919e-09
2.77002e-10
2.24303e-09
2.41035e-10
2.17142e-09
9.07677e-11
2.15534e-09
-7.14834e-13
2.16982e-09
-3.98063e-11
2.2096e-09
-7.36212e-11
2.28042e-09
-1.20979e-10
2.39785e-09
-2.09179e-10
2.52465e-09
-2.18914e-10
2.63993e-09
-1.8327e-10
2.74327e-09
-1.57224e-10
2.83541e-09
-1.34844e-10
2.92249e-09
-1.25604e-10
3.00776e-09
-1.25538e-10
3.08623e-09
-1.10884e-10
3.16485e-09
-1.14448e-10
3.23956e-09
-1.08507e-10
3.30867e-09
-9.81281e-11
3.37239e-09
-9.35202e-11
3.42353e-09
-6.8395e-11
3.46837e-09
-6.33884e-11
3.49463e-09
-2.85204e-11
3.50632e-09
-7.75961e-12
3.49793e-09
2.56846e-11
3.46599e-09
6.69014e-11
3.41916e-09
8.26157e-11
3.33966e-09
1.43486e-10
3.24961e-09
1.50187e-10
3.14137e-09
1.78586e-10
3.02319e-09
1.90878e-10
2.90364e-09
1.86327e-10
2.77981e-09
1.93476e-10
2.6662e-09
1.69701e-10
2.55475e-09
1.68286e-10
2.45731e-09
1.41228e-10
2.36781e-09
1.30139e-10
2.29031e-09
1.10106e-10
2.22543e-09
9.02297e-11
2.16713e-09
8.19647e-11
2.121e-09
6.23024e-11
2.08268e-09
5.14918e-11
2.05072e-09
4.26665e-11
2.02632e-09
3.06729e-11
2.00744e-09
2.2864e-11
1.99283e-09
1.72663e-11
1.98323e-09
9.36665e-12
1.97799e-09
3.02734e-12
1.97583e-09
-1.14072e-12
1.97644e-09
-5.35952e-12
1.9792e-09
-8.5986e-12
1.98385e-09
-1.14911e-11
1.99079e-09
-1.55114e-11
1.99892e-09
-1.70938e-11
2.00773e-09
-1.78993e-11
2.01897e-09
-2.29021e-11
2.03073e-09
-2.33187e-11
2.04251e-09
-2.25798e-11
2.05626e-09
-2.79968e-11
2.07019e-09
-2.7161e-11
2.08386e-09
-2.60025e-11
2.09897e-09
-3.16516e-11
2.11296e-09
-2.57826e-11
2.12873e-09
-3.3559e-11
2.143e-09
-2.66072e-11
2.15873e-09
-3.33616e-11
2.17232e-09
-2.50278e-11
2.18806e-09
-3.37402e-11
2.2012e-09
-2.47375e-11
2.21522e-09
-2.87656e-11
2.22779e-09
-2.49526e-11
2.23924e-09
-2.07287e-11
2.25191e-09
-2.46116e-11
2.26095e-09
-1.56906e-11
2.27154e-09
-2.01618e-11
2.27933e-09
-1.36576e-11
2.28674e-09
-1.32511e-11
2.29301e-09
-9.83037e-12
2.29846e-09
-8.36699e-12
2.30273e-09
-5.36238e-12
2.30737e-09
-6.62629e-12
2.30978e-09
-3.68085e-13
2.31465e-09
-6.63138e-12
2.31774e-09
-1.69152e-12
2.32126e-09
-2.18994e-12
2.32594e-09
-4.68924e-12
2.33024e-09
-2.91107e-12
2.33545e-09
-4.29325e-12
2.3424e-09
-7.50108e-12
2.34985e-09
-7.72345e-12
2.35866e-09
-9.31138e-12
2.37014e-09
-1.37657e-11
2.38343e-09
-1.61076e-11
2.39927e-09
-1.98133e-11
2.41799e-09
-2.40794e-11
2.43956e-09
-2.79887e-11
2.46501e-09
-3.38736e-11
2.49519e-09
-4.18239e-11
2.52823e-09
-4.47163e-11
2.56663e-09
-5.31308e-11
2.6122e-09
-6.55734e-11
2.66054e-09
-6.79073e-11
2.71548e-09
-7.83254e-11
2.77741e-09
-9.20895e-11
2.83987e-09
-8.80698e-11
2.9107e-09
-1.04867e-10
2.98284e-09
-1.04885e-10
3.05528e-09
-1.06782e-10
3.1264e-09
-1.04256e-10
3.19186e-09
-9.52594e-11
3.24882e-09
-8.06097e-11
3.2943e-09
-6.4175e-11
3.31904e-09
-2.54686e-11
3.32984e-09
-1.06007e-11
3.30888e-09
5.09016e-11
3.26997e-09
7.28221e-11
3.20588e-09
1.13832e-10
3.11672e-09
1.53464e-10
3.0149e-09
1.657e-10
2.88892e-09
2.07373e-10
2.76066e-09
2.00215e-10
2.61693e-09
2.26672e-10
2.47572e-09
2.13991e-10
2.32506e-09
2.30448e-10
2.17917e-09
2.17176e-10
2.02944e-09
2.26055e-10
1.89023e-09
2.10468e-10
1.7688e-09
1.87924e-10
1.7905e-09
-7.44869e-11
1.86775e-09
-1.42468e-10
1.97633e-09
-1.78512e-10
2.10326e-09
-2.00395e-10
2.25757e-09
-2.49085e-10
2.43021e-09
-2.81729e-10
2.62483e-09
-3.36859e-10
2.78726e-09
-2.70155e-10
2.90279e-09
-1.76323e-10
2.98186e-09
-1.12777e-10
3.03457e-09
-7.09301e-11
3.06954e-09
-4.46972e-11
3.09308e-09
-2.88739e-11
3.10947e-09
-1.95367e-11
3.12153e-09
-1.41384e-11
3.13089e-09
-1.12128e-11
3.13857e-09
-9.52365e-12
3.14518e-09
-8.58481e-12
3.15112e-09
-8.10034e-12
3.15662e-09
-7.88874e-12
3.16188e-09
-7.84122e-12
3.16702e-09
-7.91478e-12
3.17212e-09
-8.07543e-12
3.17724e-09
-8.3035e-12
3.18245e-09
-8.58864e-12
3.1878e-09
-8.92715e-12
3.19333e-09
-9.31816e-12
3.1991e-09
-9.75891e-12
3.20513e-09
-1.02468e-11
3.21148e-09
-1.0784e-11
3.21819e-09
-1.13758e-11
3.22529e-09
-1.20284e-11
3.23285e-09
-1.27462e-11
3.2409e-09
-1.35302e-11
3.24951e-09
-1.43774e-11
3.2587e-09
-1.52777e-11
3.26854e-09
-1.6213e-11
3.27903e-09
-1.71397e-11
3.29031e-09
-1.80347e-11
-1.7997e-11
4.2436e-09
1.88137e-10
4.43667e-09
4.8429e-10
4.53421e-09
5.82671e-10
4.54163e-09
5.6771e-10
4.48877e-09
4.8965e-10
4.40865e-09
3.82952e-10
4.32463e-09
2.77662e-10
4.25175e-09
1.89527e-10
4.19598e-09
1.23238e-10
4.15665e-09
7.77668e-11
4.12984e-09
4.89967e-11
4.11169e-09
3.22411e-11
4.09888e-09
2.32097e-11
4.08905e-09
1.88569e-11
4.08067e-09
1.73499e-11
4.07274e-09
1.76429e-11
4.06457e-09
1.91845e-11
4.05567e-09
2.17223e-11
4.0456e-09
2.51695e-11
4.03397e-09
2.95292e-11
4.02036e-09
3.48691e-11
4.0043e-09
4.13183e-11
3.98527e-09
4.90748e-11
3.9627e-09
5.83931e-11
3.93586e-09
6.95783e-11
3.9039e-09
8.30276e-11
3.86576e-09
9.92579e-11
3.82017e-09
1.18946e-10
3.76557e-09
1.42992e-10
3.70005e-09
1.72618e-10
3.62123e-09
2.0954e-10
3.52635e-09
2.56169e-10
3.41218e-09
3.16564e-10
3.27236e-09
4.1682e-10
3.13453e-09
3.78858e-10
3.04091e-09
1.84388e-10
2.99503e-09
4.51594e-11
2.99117e-09
-3.5947e-11
3.02572e-09
-1.08173e-10
3.098e-09
-1.93267e-10
3.20927e-09
-3.20454e-10
3.3357e-09
-3.45362e-10
3.46473e-09
-3.12317e-10
3.58958e-09
-2.82108e-10
3.70561e-09
-2.50896e-10
3.81504e-09
-2.35045e-10
3.91915e-09
-2.2965e-10
4.01765e-09
-2.09379e-10
4.11219e-09
-2.08981e-10
4.20122e-09
-1.97512e-10
4.28409e-09
-1.80984e-10
4.36047e-09
-1.69893e-10
4.42593e-09
-1.33853e-10
4.4819e-09
-1.19361e-10
4.52307e-09
-6.97004e-11
4.55031e-09
-3.50051e-11
4.55929e-09
1.66925e-11
4.54743e-09
7.87505e-11
4.51864e-09
1.11408e-10
4.46404e-09
1.98081e-10
4.39306e-09
2.21166e-10
4.30238e-09
2.69278e-10
4.19726e-09
2.96002e-10
4.08318e-09
3.00416e-10
3.96125e-09
3.1541e-10
3.84047e-09
2.90476e-10
3.7195e-09
2.89239e-10
3.60589e-09
2.54809e-10
3.49883e-09
2.37157e-10
3.40119e-09
2.07722e-10
3.31516e-09
1.76255e-10
3.23699e-09
1.60145e-10
3.17015e-09
1.29177e-10
3.11243e-09
1.09249e-10
3.06263e-09
9.25197e-11
3.02063e-09
7.26989e-11
2.98508e-09
5.84367e-11
2.95515e-09
4.72052e-11
2.93071e-09
3.3797e-11
2.91098e-09
2.2731e-11
2.89462e-09
1.51691e-11
2.88148e-09
7.71135e-12
2.87088e-09
1.92511e-12
2.86216e-09
-2.85488e-12
2.85536e-09
-8.78338e-12
2.84961e-09
-1.14082e-11
2.84431e-09
-1.26442e-11
2.84047e-09
-1.90832e-11
2.83676e-09
-1.96192e-11
2.83289e-09
-1.8718e-11
2.82979e-09
-2.48896e-11
2.82664e-09
-2.39996e-11
2.82279e-09
-2.21466e-11
2.81995e-09
-2.88066e-11
2.81586e-09
-2.1679e-11
2.81334e-09
-3.10335e-11
2.80983e-09
-2.30881e-11
2.80808e-09
-3.16067e-11
2.80559e-09
-2.25297e-11
2.80579e-09
-3.39406e-11
2.8061e-09
-2.50463e-11
2.80901e-09
-3.16738e-11
2.81327e-09
-2.92139e-11
2.81938e-09
-2.68388e-11
2.82809e-09
-3.33234e-11
2.83804e-09
-2.56354e-11
2.85041e-09
-3.25366e-11
2.86408e-09
-2.73284e-11
2.87912e-09
-2.82877e-11
2.89589e-09
-2.65974e-11
2.91337e-09
-2.58366e-11
2.93186e-09
-2.38428e-11
2.95076e-09
-2.55168e-11
2.96997e-09
-1.95667e-11
2.98998e-09
-2.66364e-11
3.00999e-09
-2.16887e-11
3.03032e-09
-2.2511e-11
3.05133e-09
-2.57063e-11
3.07245e-09
-2.40427e-11
3.09428e-09
-2.61558e-11
3.11719e-09
-3.04654e-11
3.1409e-09
-3.15062e-11
3.16589e-09
-3.43991e-11
3.19258e-09
-4.05649e-11
3.22119e-09
-4.48184e-11
3.25219e-09
-5.08933e-11
3.28598e-09
-5.79086e-11
3.3225e-09
-6.45009e-11
3.36258e-09
-7.38987e-11
3.40683e-09
-8.60038e-11
3.45477e-09
-9.25928e-11
3.50765e-09
-1.0596e-10
3.56705e-09
-1.24954e-10
3.6301e-09
-1.30984e-10
3.69863e-09
-1.46915e-10
3.77144e-09
-1.64978e-10
3.84697e-09
-1.63674e-10
3.92713e-09
-1.85077e-10
4.00813e-09
-1.85887e-10
4.08856e-09
-1.87187e-10
4.16689e-09
-1.82527e-10
4.23866e-09
-1.66982e-10
4.30209e-09
-1.43997e-10
4.35317e-09
-1.15245e-10
4.38778e-09
-6.00916e-11
4.40679e-09
-2.96405e-11
4.40108e-09
5.65825e-11
4.37485e-09
9.90169e-11
4.32524e-09
1.63416e-10
4.25073e-09
2.2797e-10
4.15884e-09
2.57583e-10
4.04303e-09
3.23179e-10
3.91592e-09
3.2733e-10
3.77054e-09
3.72044e-10
3.61826e-09
3.66265e-10
3.45271e-09
3.95986e-10
3.28531e-09
3.84561e-10
3.11342e-09
3.97923e-10
2.95633e-09
3.67519e-10
2.81663e-09
3.27577e-10
2.78562e-09
-4.35135e-11
2.81558e-09
-1.72454e-10
2.89011e-09
-2.53039e-10
2.99542e-09
-3.05706e-10
3.13105e-09
-3.84707e-10
3.28357e-09
-4.34243e-10
3.44745e-09
-5.00736e-10
3.59236e-09
-4.15064e-10
3.70884e-09
-2.928e-10
3.79933e-09
-2.03266e-10
3.86758e-09
-1.39183e-10
3.91806e-09
-9.51758e-11
3.95508e-09
-6.58891e-11
3.98229e-09
-4.6756e-11
4.00254e-09
-3.4383e-11
4.01776e-09
-2.64381e-11
4.0295e-09
-2.12626e-11
4.03877e-09
-1.78572e-11
4.04628e-09
-1.56112e-11
4.05253e-09
-1.41406e-11
4.05789e-09
-1.32031e-11
4.06263e-09
-1.26496e-11
4.06693e-09
-1.2383e-11
4.07097e-09
-1.2339e-11
4.07486e-09
-1.2476e-11
4.0787e-09
-1.27709e-11
4.08259e-09
-1.32108e-11
4.08661e-09
-1.378e-11
4.09083e-09
-1.44661e-11
4.09532e-09
-1.52679e-11
4.10013e-09
-1.61914e-11
4.10535e-09
-1.72442e-11
4.11103e-09
-1.84324e-11
4.11726e-09
-1.97591e-11
4.12411e-09
-2.1223e-11
4.13164e-09
-2.28156e-11
4.13995e-09
-2.45223e-11
4.14911e-09
-2.6295e-11
4.15925e-09
-2.81744e-11
-2.96135e-11
4.17109e-09
1.17042e-10
4.32941e-09
3.25963e-10
4.47186e-09
4.40226e-10
4.56823e-09
4.71332e-10
4.61397e-09
4.43908e-10
4.61733e-09
3.7959e-10
4.59632e-09
2.9867e-10
4.56596e-09
2.19891e-10
4.53405e-09
1.55144e-10
4.50536e-09
1.06464e-10
4.482e-09
7.23564e-11
4.46401e-09
5.02256e-11
4.45037e-09
3.68516e-11
4.43972e-09
2.95101e-11
4.43083e-09
2.62366e-11
4.42276e-09
2.57117e-11
4.41481e-09
2.71337e-11
4.40643e-09
3.00964e-11
4.39718e-09
3.44215e-11
4.38665e-09
4.00585e-11
4.37445e-09
4.70677e-11
4.36016e-09
5.5602e-11
4.34334e-09
6.58952e-11
4.32347e-09
7.8261e-11
4.29995e-09
9.30971e-11
4.27207e-09
1.10907e-10
4.23899e-09
1.32334e-10
4.19974e-09
1.58197e-10
4.15317e-09
1.8956e-10
4.09797e-09
2.27817e-10
4.03267e-09
2.74833e-10
3.95578e-09
3.33062e-10
3.86613e-09
4.06217e-10
3.76148e-09
5.21462e-10
3.65266e-09
4.87678e-10
3.56357e-09
2.73478e-10
3.50881e-09
9.99142e-11
3.49424e-09
-2.13765e-11
3.52049e-09
-1.34424e-10
3.58358e-09
-2.56359e-10
3.6782e-09
-4.15068e-10
3.79036e-09
-4.57529e-10
3.91303e-09
-4.35006e-10
4.03784e-09
-4.06938e-10
4.15668e-09
-3.6976e-10
4.26905e-09
-3.47436e-10
4.37588e-09
-3.36491e-10
4.476e-09
-3.095e-10
4.57078e-09
-3.03754e-10
4.65878e-09
-2.85494e-10
4.73999e-09
-2.62184e-10
4.81551e-09
-2.45397e-10
4.88244e-09
-2.00779e-10
4.93997e-09
-1.76889e-10
4.98685e-09
-1.16585e-10
5.02146e-09
-6.96298e-11
5.04358e-09
-5.43116e-12
5.04948e-09
7.28364e-11
5.04195e-09
1.18932e-10
5.01748e-09
2.22558e-10
4.97725e-09
2.61406e-10
4.92047e-09
3.26063e-10
4.84965e-09
3.66833e-10
4.76656e-09
3.83516e-10
4.67332e-09
4.0866e-10
4.57403e-09
3.89759e-10
4.47071e-09
3.92541e-10
4.36731e-09
3.58172e-10
4.26604e-09
3.38392e-10
4.16893e-09
3.04815e-10
4.07848e-09
2.66703e-10
3.99403e-09
2.44614e-10
3.91742e-09
2.05827e-10
3.8485e-09
1.78198e-10
3.78673e-09
1.54322e-10
3.7311e-09
1.28358e-10
3.68117e-09
1.0838e-10
3.63669e-09
9.16953e-11
3.59708e-09
7.34014e-11
3.56202e-09
5.7761e-11
3.53013e-09
4.70092e-11
3.50116e-09
3.66239e-11
3.47457e-09
2.8451e-11
3.44981e-09
2.18404e-11
3.42665e-09
1.43283e-11
3.40454e-09
1.06638e-11
3.38297e-09
8.8984e-12
3.36232e-09
1.55545e-12
3.34185e-09
8.49916e-13
3.32172e-09
1.42175e-12
3.30183e-09
-4.99843e-12
3.28236e-09
-4.51589e-12
3.26276e-09
-2.53744e-12
3.24415e-09
-1.01823e-11
3.2255e-09
-3.02458e-12
3.20831e-09
-1.38362e-11
3.19173e-09
-6.49375e-12
3.17719e-09
-1.70607e-11
3.16393e-09
-9.26988e-12
3.15362e-09
-2.36313e-11
3.14553e-09
-1.69563e-11
3.14098e-09
-2.71137e-11
3.13945e-09
-2.76843e-11
3.14154e-09
-2.89274e-11
3.1472e-09
-3.89857e-11
3.15635e-09
-3.47831e-11
3.16882e-09
-4.50139e-11
3.18452e-09
-4.30208e-11
3.20283e-09
-4.65945e-11
3.22398e-09
-4.77518e-11
3.24706e-09
-4.89062e-11
3.27219e-09
-4.89726e-11
3.29873e-09
-5.20471e-11
3.32667e-09
-4.74897e-11
3.35582e-09
-5.57815e-11
3.38595e-09
-5.17961e-11
3.41695e-09
-5.35031e-11
3.44893e-09
-5.76724e-11
3.48169e-09
-5.68025e-11
3.51538e-09
-5.98494e-11
3.55023e-09
-6.53458e-11
3.5861e-09
-6.7429e-11
3.62336e-09
-7.17265e-11
3.66216e-09
-7.9451e-11
3.70269e-09
-8.54559e-11
3.74528e-09
-9.35731e-11
3.79006e-09
-1.0276e-10
3.83736e-09
-1.11826e-10
3.88763e-09
-1.24152e-10
3.94106e-09
-1.39366e-10
3.99764e-09
-1.49092e-10
4.05775e-09
-1.65997e-10
4.12276e-09
-1.89905e-10
4.18988e-09
-1.98072e-10
4.26085e-09
-2.17909e-10
4.3344e-09
-2.38585e-10
4.41018e-09
-2.39527e-10
4.48666e-09
-2.61622e-10
4.56276e-09
-2.62022e-10
4.63759e-09
-2.62025e-10
4.70927e-09
-2.54185e-10
4.77446e-09
-2.32142e-10
4.83254e-09
-2.02038e-10
4.87985e-09
-1.62537e-10
4.91566e-09
-9.58977e-11
4.93782e-09
-5.18207e-11
4.94399e-09
5.03928e-11
4.9321e-09
1.10873e-10
4.90291e-09
1.92586e-10
4.85399e-09
2.76887e-10
4.78865e-09
3.22914e-10
4.70301e-09
4.08834e-10
4.60233e-09
4.28011e-10
4.48325e-09
4.91126e-10
4.35159e-09
4.97926e-10
4.20497e-09
5.42599e-10
4.0482e-09
5.41325e-10
3.88703e-09
5.59075e-10
3.74156e-09
5.12957e-10
3.60868e-09
4.60425e-10
3.5419e-09
2.32358e-11
3.52312e-09
-1.53684e-10
3.54613e-09
-2.7605e-10
3.60306e-09
-3.62628e-10
3.69092e-09
-4.7256e-10
3.79552e-09
-5.38831e-10
3.90776e-09
-6.12976e-10
4.01274e-09
-5.20049e-10
4.10505e-09
-3.85107e-10
4.18346e-09
-2.81683e-10
4.24792e-09
-2.03642e-10
4.29939e-09
-1.46641e-10
4.33955e-09
-1.06052e-10
4.37039e-09
-7.76025e-11
4.39384e-09
-5.7831e-11
4.41154e-09
-4.41354e-11
4.42488e-09
-3.46126e-11
4.43498e-09
-2.79505e-11
4.44264e-09
-2.32753e-11
4.4485e-09
-2.00018e-11
4.45303e-09
-1.77361e-11
4.4566e-09
-1.62132e-11
4.45946e-09
-1.52507e-11
4.46185e-09
-1.4722e-11
4.46391e-09
-1.45389e-11
4.46579e-09
-1.46524e-11
4.46761e-09
-1.50324e-11
4.46947e-09
-1.56401e-11
4.47146e-09
-1.64495e-11
4.47364e-09
-1.74567e-11
4.47612e-09
-1.86678e-11
4.47897e-09
-2.00903e-11
4.48226e-09
-2.17305e-11
4.4861e-09
-2.3594e-11
4.49056e-09
-2.56834e-11
4.49574e-09
-2.79956e-11
4.50174e-09
-3.05229e-11
4.50867e-09
-3.32236e-11
4.5166e-09
-3.61068e-11
-3.93653e-11
4.14e-09
7.70357e-11
4.24389e-09
2.22073e-10
4.36374e-09
3.20376e-10
4.47059e-09
3.64477e-10
4.55025e-09
3.64244e-10
4.59897e-09
3.30874e-10
4.62002e-09
2.77616e-10
4.6218e-09
2.18109e-10
4.61422e-09
1.62723e-10
4.60332e-09
1.17367e-10
4.5919e-09
8.37752e-11
4.58121e-09
6.09145e-11
4.57179e-09
4.62739e-11
4.5636e-09
3.77007e-11
4.55629e-09
3.35432e-11
4.54944e-09
3.25605e-11
4.54262e-09
3.39532e-11
4.53543e-09
3.72871e-11
4.52751e-09
4.23383e-11
4.51854e-09
4.90256e-11
4.5082e-09
5.74061e-11
4.49615e-09
6.76469e-11
4.48204e-09
8.00106e-11
4.46544e-09
9.4854e-11
4.4459e-09
1.12634e-10
4.42289e-09
1.33923e-10
4.39578e-09
1.59436e-10
4.36391e-09
1.90066e-10
4.32653e-09
2.26937e-10
4.28288e-09
2.7147e-10
4.23222e-09
3.25487e-10
4.17401e-09
3.91272e-10
4.10827e-09
4.71963e-10
4.03533e-09
5.94396e-10
3.95722e-09
5.65787e-10
3.88481e-09
3.4589e-10
3.83506e-09
1.49666e-10
3.819e-09
-5.31781e-12
3.83913e-09
-1.54554e-10
3.89082e-09
-3.08053e-10
3.96703e-09
-4.91271e-10
4.06072e-09
-5.51215e-10
4.16891e-09
-5.43194e-10
4.28083e-09
-5.18874e-10
4.38938e-09
-4.78328e-10
4.49235e-09
-4.50428e-10
4.59064e-09
-4.34797e-10
4.68127e-09
-4.00143e-10
4.76619e-09
-3.88669e-10
4.8442e-09
-3.635e-10
4.91607e-09
-3.34045e-10
4.98147e-09
-3.10788e-10
5.04071e-09
-2.60014e-10
5.09174e-09
-2.27918e-10
5.13578e-09
-1.60627e-10
5.17103e-09
-1.04881e-10
5.19833e-09
-3.27428e-11
5.21721e-09
5.3952e-11
5.22384e-09
1.12295e-10
5.21835e-09
2.28049e-10
5.20277e-09
2.76988e-10
5.1774e-09
3.5145e-10
5.14177e-09
4.02469e-10
5.09389e-09
4.31414e-10
5.03502e-09
4.67527e-10
4.96555e-09
4.59221e-10
4.88991e-09
4.68158e-10
4.80934e-09
4.38706e-10
4.72704e-09
4.2067e-10
4.64404e-09
3.87807e-10
4.56232e-09
3.4843e-10
4.48338e-09
3.23589e-10
4.40818e-09
2.81057e-10
4.33711e-09
2.493e-10
4.27109e-09
2.20362e-10
4.20945e-09
1.90013e-10
4.15183e-09
1.66015e-10
4.09865e-09
1.44878e-10
4.04905e-09
1.22991e-10
4.00297e-09
1.03818e-10
3.95975e-09
9.01868e-11
3.91906e-09
7.72605e-11
3.88051e-09
6.69518e-11
3.84373e-09
5.85775e-11
3.80846e-09
4.9566e-11
3.77443e-09
4.46671e-11
3.74129e-09
4.20362e-11
3.70909e-09
3.37584e-11
3.67745e-09
3.25046e-11
3.64672e-09
3.21646e-11
3.6164e-09
2.53346e-11
3.58714e-09
2.47566e-11
3.55848e-09
2.61348e-11
3.53108e-09
1.72256e-11
3.50473e-09
2.33279e-11
3.48014e-09
1.07636e-11
3.45718e-09
1.64727e-11
3.43665e-09
3.47675e-12
3.41847e-09
8.91362e-12
3.40357e-09
-8.73106e-12
3.3918e-09
-5.18547e-12
3.38398e-09
-1.9297e-11
3.37983e-09
-2.35273e-11
3.37995e-09
-2.90504e-11
3.3839e-09
-4.29351e-11
3.39209e-09
-4.29731e-11
3.40381e-09
-5.6732e-11
3.41939e-09
-5.85975e-11
3.43794e-09
-6.5143e-11
3.45977e-09
-6.95774e-11
3.48394e-09
-7.30824e-11
3.51071e-09
-7.57351e-11
3.53927e-09
-8.05979e-11
3.56988e-09
-7.80859e-11
3.60187e-09
-8.77588e-11
3.63544e-09
-8.53563e-11
3.67027e-09
-8.83137e-11
3.70633e-09
-9.37115e-11
3.74363e-09
-9.40962e-11
3.78209e-09
-9.82982e-11
3.82184e-09
-1.05094e-10
3.86281e-09
-1.08414e-10
3.90524e-09
-1.14197e-10
3.94908e-09
-1.23354e-10
3.99451e-09
-1.30973e-10
4.04166e-09
-1.40812e-10
4.09053e-09
-1.51719e-10
4.14176e-09
-1.63125e-10
4.19535e-09
-1.77763e-10
4.25101e-09
-1.95003e-10
4.30921e-09
-2.07219e-10
4.36958e-09
-2.26283e-10
4.43207e-09
-2.52317e-10
4.49566e-09
-2.61598e-10
4.56181e-09
-2.84026e-10
4.6289e-09
-3.05689e-10
4.69674e-09
-3.07419e-10
4.76269e-09
-3.27634e-10
4.82756e-09
-3.26956e-10
4.88944e-09
-3.2394e-10
4.94806e-09
-3.12816e-10
5.00085e-09
-2.84918e-10
5.04812e-09
-2.49286e-10
5.08743e-09
-2.01833e-10
5.11993e-09
-1.28385e-10
5.13917e-09
-7.10685e-11
5.1485e-09
4.10507e-11
5.14611e-09
1.13242e-10
5.13447e-09
2.04212e-10
5.1102e-09
3.01156e-10
5.07212e-09
3.60992e-10
5.01699e-09
4.63978e-10
4.94629e-09
4.9872e-10
4.85995e-09
5.77472e-10
4.75952e-09
5.98366e-10
4.6443e-09
6.57818e-10
4.51422e-09
6.71392e-10
4.37982e-09
6.93465e-10
4.26052e-09
6.32244e-10
4.14863e-09
5.72285e-10
4.06739e-09
1.04462e-10
4.01877e-09
-1.05062e-10
4.00289e-09
-2.60161e-10
4.01746e-09
-3.77189e-10
4.06034e-09
-5.15433e-10
4.11927e-09
-5.97761e-10
4.18475e-09
-6.78454e-10
4.25079e-09
-5.86086e-10
4.31421e-09
-4.48537e-10
4.37232e-09
-3.39793e-10
4.42339e-09
-2.54706e-10
4.46659e-09
-1.89843e-10
4.50195e-09
-1.41421e-10
4.53014e-09
-1.05784e-10
4.55209e-09
-7.97904e-11
4.56888e-09
-6.09272e-11
4.58153e-09
-4.72568e-11
4.59092e-09
-3.73426e-11
4.5978e-09
-3.01545e-11
4.60276e-09
-2.49627e-11
4.60627e-09
-2.12526e-11
4.60872e-09
-1.86579e-11
4.61038e-09
-1.69136e-11
4.61149e-09
-1.5829e-11
4.61221e-09
-1.52625e-11
4.6127e-09
-1.5145e-11
4.6131e-09
-1.54256e-11
4.61348e-09
-1.60251e-11
4.61394e-09
-1.69118e-11
4.61458e-09
-1.80919e-11
4.61548e-09
-1.95667e-11
4.61672e-09
-2.13377e-11
4.61841e-09
-2.34126e-11
4.62061e-09
-2.58009e-11
4.62344e-09
-2.85113e-11
4.62699e-09
-3.1549e-11
4.63139e-09
-3.49212e-11
4.63677e-09
-3.85984e-11
4.64322e-09
-4.25635e-11
-4.76581e-11
4.12506e-09
5.19791e-11
4.1938e-09
1.53327e-10
4.28489e-09
2.29283e-10
4.37819e-09
2.71183e-10
4.46086e-09
2.81572e-10
4.5254e-09
2.66327e-10
4.56963e-09
2.33392e-10
4.59572e-09
1.92015e-10
4.60828e-09
1.50164e-10
4.61198e-09
1.13668e-10
4.61083e-09
8.49268e-11
4.60775e-09
6.39864e-11
4.60398e-09
5.00459e-11
4.59991e-09
4.17712e-11
4.59556e-09
3.78898e-11
4.59094e-09
3.71799e-11
4.58593e-09
3.89631e-11
4.58037e-09
4.28451e-11
4.57411e-09
4.8598e-11
4.56695e-09
5.61837e-11
4.55866e-09
6.56884e-11
4.54901e-09
7.72995e-11
4.53772e-09
9.13026e-11
4.52448e-09
1.08084e-10
4.50898e-09
1.28136e-10
4.49083e-09
1.52069e-10
4.46964e-09
1.8063e-10
4.44497e-09
2.14735e-10
4.4164e-09
2.55502e-10
4.38357e-09
3.04301e-10
4.34625e-09
3.62811e-10
4.30446e-09
4.33054e-10
4.25884e-09
5.17589e-10
4.21111e-09
6.42126e-10
4.15905e-09
6.17844e-10
4.10526e-09
3.99676e-10
4.06554e-09
1.89387e-10
4.05244e-09
7.77997e-12
4.06869e-09
-1.70803e-10
4.10985e-09
-3.49209e-10
4.16917e-09
-5.50581e-10
4.24442e-09
-6.26462e-10
4.3352e-09
-6.33964e-10
4.43002e-09
-6.13699e-10
4.52244e-09
-5.70762e-10
4.60998e-09
-5.37978e-10
4.69221e-09
-5.17052e-10
4.76816e-09
-4.76108e-10
4.83787e-09
-4.58382e-10
4.90114e-09
-4.26772e-10
4.95903e-09
-3.91924e-10
5.01065e-09
-3.624e-10
5.05795e-09
-3.07312e-10
5.09864e-09
-2.68605e-10
5.1352e-09
-1.97194e-10
5.16584e-09
-1.35523e-10
5.19185e-09
-5.87625e-11
5.21253e-09
3.32731e-11
5.22711e-09
9.77023e-11
5.23632e-09
2.1884e-10
5.23672e-09
2.76592e-10
5.23168e-09
3.56497e-10
5.21917e-09
4.14993e-10
5.19736e-09
4.53237e-10
5.16825e-09
4.96632e-10
5.12889e-09
4.98558e-10
5.08258e-09
5.14444e-10
5.02823e-09
4.9303e-10
4.96942e-09
4.79479e-10
4.90632e-09
4.50916e-10
4.84098e-09
4.13782e-10
4.77503e-09
3.89574e-10
4.70929e-09
3.46822e-10
4.64418e-09
3.14438e-10
4.58087e-09
2.83684e-10
4.52069e-09
2.50202e-10
4.46291e-09
2.2381e-10
4.40769e-09
2.001e-10
4.3545e-09
1.76166e-10
4.30349e-09
1.54791e-10
4.25488e-09
1.38757e-10
4.20846e-09
1.23641e-10
4.16392e-09
1.11449e-10
4.12104e-09
1.01439e-10
4.0796e-09
9.09905e-11
4.03957e-09
8.47008e-11
4.0007e-09
8.09073e-11
3.96297e-09
7.15054e-11
3.92615e-09
6.93391e-11
3.89073e-09
6.76003e-11
3.856e-09
6.00806e-11
3.82283e-09
5.79399e-11
3.79075e-09
5.82246e-11
3.76029e-09
4.76982e-11
3.73144e-09
5.21869e-11
3.70458e-09
3.76246e-11
3.67987e-09
4.11855e-11
3.65778e-09
2.55721e-11
3.63846e-09
2.8234e-11
3.62242e-09
7.31377e-12
3.60975e-09
7.48322e-12
3.60101e-09
-1.056e-11
3.59596e-09
-1.84764e-11
3.59524e-09
-2.83227e-11
3.59815e-09
-4.58462e-11
3.60537e-09
-5.0198e-11
3.61592e-09
-6.72794e-11
3.63037e-09
-7.30457e-11
3.64769e-09
-8.24653e-11
3.6683e-09
-9.01886e-11
3.69126e-09
-9.60338e-11
3.7169e-09
-1.01372e-10
3.74435e-09
-1.0805e-10
3.77407e-09
-1.07795e-10
3.80516e-09
-1.18834e-10
3.83807e-09
-1.18255e-10
3.87237e-09
-1.22593e-10
3.90799e-09
-1.29313e-10
3.94505e-09
-1.31142e-10
3.98336e-09
-1.36578e-10
4.02297e-09
-1.44688e-10
4.06385e-09
-1.49295e-10
4.10618e-09
-1.56531e-10
4.14974e-09
-1.66947e-10
4.1947e-09
-1.75993e-10
4.24108e-09
-1.87273e-10
4.28889e-09
-1.99616e-10
4.33842e-09
-2.12734e-10
4.38956e-09
-2.28964e-10
4.442e-09
-2.47464e-10
4.49637e-09
-2.61553e-10
4.55162e-09
-2.81469e-10
4.60702e-09
-3.07635e-10
4.66308e-09
-3.17577e-10
4.71978e-09
-3.40663e-10
4.77532e-09
-3.61198e-10
4.83093e-09
-3.63041e-10
4.88326e-09
-3.80007e-10
4.93399e-09
-3.77739e-10
4.98087e-09
-3.70877e-10
5.02457e-09
-3.56551e-10
5.06324e-09
-3.23599e-10
5.09778e-09
-2.83825e-10
5.12593e-09
-2.29971e-10
5.15006e-09
-1.52501e-10
5.16707e-09
-8.80735e-11
5.17971e-09
2.84055e-11
5.18243e-09
1.10512e-10
5.18033e-09
2.06304e-10
5.16945e-09
3.12028e-10
5.14934e-09
3.81111e-10
5.11915e-09
4.94171e-10
5.07624e-09
5.41647e-10
5.02049e-09
6.33232e-10
4.95089e-09
6.67973e-10
4.86762e-09
7.41089e-10
4.76991e-09
7.69099e-10
4.66615e-09
7.97223e-10
4.57665e-09
7.21727e-10
4.49136e-09
6.57562e-10
4.41195e-09
1.83879e-10
4.35222e-09
-4.53308e-11
4.31588e-09
-2.23812e-10
4.30413e-09
-3.65423e-10
4.316e-09
-5.27299e-10
4.3416e-09
-6.23358e-10
4.37232e-09
-7.09173e-10
4.40763e-09
-6.21398e-10
4.44585e-09
-4.86755e-10
4.48383e-09
-3.77782e-10
4.51934e-09
-2.9021e-10
4.55087e-09
-2.21377e-10
4.5777e-09
-1.68253e-10
4.59973e-09
-1.2781e-10
4.61726e-09
-9.73242e-11
4.63084e-09
-7.45068e-11
4.64109e-09
-5.75091e-11
4.64863e-09
-4.48873e-11
4.65403e-09
-3.55478e-11
4.65774e-09
-2.86768e-11
4.66016e-09
-2.36739e-11
4.6616e-09
-2.00995e-11
4.66232e-09
-1.76341e-11
4.66254e-09
-1.60444e-11
4.66244e-09
-1.51634e-11
4.66213e-09
-1.48402e-11
4.66168e-09
-1.49714e-11
4.66119e-09
-1.55362e-11
4.66079e-09
-1.65106e-11
4.66056e-09
-1.78639e-11
4.66058e-09
-1.95897e-11
4.66094e-09
-2.1694e-11
4.66172e-09
-2.41886e-11
4.663e-09
-2.70885e-11
4.6649e-09
-3.04093e-11
4.66751e-09