/*--------------------------------*- C++ -*----------------------------------*\
| =========                 |                                                 |
| \\      /  F ield         | OpenFOAM: The Open Source CFD Toolbox           |
|  \\    /   O peration     | Version:  2506                                  |
|   \\  /    A nd           | Website:  www.openfoam.com                      |
|    \\/     M anipulation  |                                                 |
\*---------------------------------------------------------------------------*/
FoamFile
{
    version     2.0;
    format      ascii;
    arch        "LSB;label=32;scalar=64";
    class       volVectorField;
    location    "0.1";
    object      vorticityField;
}
// * * * * * * * * * * * * * * * * * * * * * * * * * * * * * * * * * * * * * //

dimensions      [0 0 -1 0 0 0 0];

internalField   nonuniform List<vector> 
4000
(
(-2.36854e-20 8.0283e-18 -55.9506)
(-8.77833e-18 -6.19372e-18 -59.8319)
(9.42929e-18 -2.73348e-17 -56.9743)
(3.49034e-17 4.03037e-17 -51.0579)
(-7.21913e-17 5.16877e-18 -46.1586)
(3.71679e-17 -3.76823e-17 -42.8643)
(-3.13492e-19 1.771e-17 -40.7856)
(3.56736e-17 -0 -39.5166)
(-3.49873e-17 -3.52447e-17 -38.7785)
(7.24717e-17 3.06328e-17 -38.3664)
(-7.23931e-17 -3.00505e-17 -38.1372)
(2.45902e-18 2.54525e-17 -38.0014)
(-6.2226e-18 7.91527e-17 -37.909)
(7.32746e-17 -6.99427e-17 -37.8334)
(-3.1971e-19 -0 -37.7619)
(-1.37108e-16 -6.84182e-17 -37.687)
(1.39929e-16 5.93046e-17 -37.6032)
(-7.6775e-17 7.75489e-17 -37.5064)
(3.63421e-18 -6.84353e-17 -37.3928)
(0 -0 -37.2583)
(0 -0 -37.0985)
(0 -0 -36.9085)
(9.02749e-18 -1.3304e-16 -36.6826)
(1.23835e-16 2.48236e-16 -36.4133)
(-2.84606e-16 3.51407e-17 -36.092)
(1.61953e-16 -2.83083e-16 -35.7082)
(-1.01825e-17 1.32746e-16 -35.2487)
(0 -0 -34.6973)
(0 -0 -34.033)
(-1.16006e-17 1.31069e-16 -33.2282)
(-2.63131e-16 -1.16646e-16 -32.2447)
(1.53638e-16 -1.45981e-16 -31.0342)
(2.69472e-16 1.61243e-17 -29.5411)
(1.83868e-17 -1.41849e-16 -27.2789)
(-7.39919e-17 7.74508e-16 -24.5887)
(-3.70239e-16 6.46972e-16 -23.2176)
(-1.04152e-15 -1.1284e-15 -23.7863)
(3.70231e-18 4.86885e-18 -25.6414)
(6.60422e-16 1.88595e-15 -28.4409)
(-8.89098e-16 -1.10772e-15 -32.2325)
(4.26008e-16 -2.4594e-15 -37.6001)
(1.19512e-15 2.30816e-15 -43.6078)
(-4.30609e-16 9.79883e-16 -48.979)
(2.67668e-16 -1.10151e-15 -53.5425)
(1.21065e-15 8.52028e-16 -57.4265)
(-1.40281e-15 2.41135e-16 -60.9599)
(-1.43714e-15 5.69307e-16 -64.4145)
(-1.14628e-15 -1.14162e-15 -67.5455)
(-1.21955e-15 -1.40696e-15 -70.5735)
(-5.55868e-16 -1.42327e-15 -73.4448)
(7.7873e-16 -4.3382e-16 -76.0134)
(-4.50531e-17 5.59481e-16 -78.4398)
(-6.38415e-16 -1.22177e-15 -80.3401)
(8.36377e-16 -7.27141e-17 -82.0092)
(-1.02434e-16 1.19695e-15 -83.1399)
(-3.56084e-16 1.08452e-16 -83.8082)
(2.30259e-16 -3.77505e-17 -84.0157)
(7.85746e-17 -2.08198e-17 -83.4858)
(1.46428e-16 6.4548e-17 -82.6838)
(-7.47649e-17 -4.96515e-17 -81.1575)
(8.13209e-17 -1.41059e-17 -79.0976)
(2.96579e-16 1.07056e-17 -76.8012)
(-1.39177e-16 -7.53198e-17 -74.1211)
(-6.79811e-17 -7.3599e-16 -71.3562)
(1.12444e-16 -2.22671e-16 -68.4979)
(-1.08035e-16 8.33287e-16 -65.6224)
(6.42006e-16 -1.69062e-17 -62.8908)
(3.58812e-17 -4.68318e-16 -60.156)
(3.2522e-16 7.25798e-16 -57.6574)
(-8.49492e-16 8.46855e-16 -55.2058)
(-1.73716e-16 -6.26904e-16 -52.946)
(-1.3797e-16 -3.91847e-16 -50.8214)
(-1.36165e-19 1.59443e-18 -48.7248)
(-9.72096e-16 6.16593e-16 -46.8065)
(-9.47481e-16 6.77596e-16 -44.9416)
(-4.4468e-17 8.68914e-16 -43.1294)
(-8.64821e-16 5.51466e-16 -41.4254)
(9.83039e-17 -8.89205e-16 -39.7772)
(-9.62617e-16 3.40654e-16 -38.1637)
(7.69867e-16 3.04919e-16 -36.6242)
(-1.52068e-15 3.96965e-16 -35.1347)
(-1.97628e-16 -9.81964e-16 -33.6785)
(4.23736e-17 -1.17542e-16 -32.2642)
(-2.32978e-17 -1.71125e-17 -30.8854)
(7.73918e-16 1.33429e-15 -29.544)
(-1.30621e-15 1.75469e-15 -28.2539)
(-3.59304e-18 -1.58269e-15 -26.9909)
(-8.00912e-17 -9.55338e-16 -25.7575)
(-1.1094e-17 1.56657e-15 -24.5935)
(-5.66892e-16 3.65998e-16 -23.4553)
(2.11338e-18 2.79997e-18 -22.3473)
(-5.5695e-16 1.02639e-15 -21.3227)
(-2.87775e-16 -1.2466e-15 -20.3244)
(2.01756e-16 -4.80788e-16 -19.38)
(4.98448e-18 7.09434e-16 -18.519)
(7.49781e-17 -7.20763e-16 -17.6988)
(2.28686e-16 -1.49201e-16 -16.9884)
(3.04776e-17 3.2206e-17 -16.3384)
(-3.3167e-16 -1.09574e-16 -15.7977)
(6.23809e-17 2.83458e-16 -15.3493)
(5.66149e-17 3.19719e-18 -15.0399)
(2.88838e-17 -7.35268e-17 -14.8355)
(-1.09552e-17 1.90428e-16 -14.7833)
(-2.73426e-17 5.30381e-17 -14.8422)
(-4.31317e-17 -2.09707e-17 -15.0609)
(-7.63025e-19 -6.92667e-17 -15.4098)
(4.12664e-18 5.5413e-16 -15.9171)
(-2.39623e-16 2.62878e-18 -16.5573)
(-2.45648e-16 -9.31379e-16 -17.3311)
(4.75229e-16 -1.42812e-16 -18.2221)
(-2.03045e-16 1.59228e-16 -19.2294)
(1.15216e-17 6.20013e-16 -20.3292)
(-2.58571e-16 -1.21195e-16 -21.5531)
(-2.13193e-16 -5.12936e-16 -22.8199)
(-7.62675e-18 -6.4553e-16 -24.234)
(5.07475e-16 3.35299e-16 -25.6915)
(3.20457e-18 1.27174e-15 -27.23)
(-4.53329e-17 1.57391e-16 -28.8637)
(4.91029e-16 3.63884e-16 -30.5453)
(-5.38128e-16 -4.03109e-16 -32.302)
(-5.40613e-16 -1.97732e-15 -34.1482)
(6.5419e-16 4.36858e-16 -36.0497)
(3.52044e-17 1.4381e-15 -38.0101)
(-6.13378e-16 -4.40873e-16 -40.0622)
(-1.11944e-16 -1.49972e-15 -42.173)
(1.15646e-15 8.19435e-16 -44.3558)
(-3.72945e-16 4.45475e-16 -46.6071)
(5.29321e-16 -1.35084e-16 -48.9122)
(6.38579e-16 9.17144e-16 -51.2846)
(-9.7825e-17 9.99102e-16 -53.7563)
(-2.53997e-17 5.57212e-16 -56.2088)
(-7.03724e-16 -9.35264e-17 -58.7224)
(-2.2624e-16 -6.62567e-16 -61.3528)
(-1.14265e-15 -7.95981e-16 -63.9027)
(3.37703e-16 1.34218e-16 -66.4773)
(-7.28832e-17 -3.69353e-17 -69.1825)
(7.52813e-17 4.1942e-17 -71.5685)
(1.83569e-17 -2.46108e-16 -74.0648)
(8.07631e-17 8.59098e-17 -76.3058)
(-1.24849e-16 1.33507e-16 -78.4151)
(6.88455e-17 2.41999e-16 -80.2357)
(-4.11393e-16 -1.50844e-16 -81.7095)
(1.46509e-16 2.17619e-16 -82.7185)
(-6.70338e-17 5.52173e-17 -83.375)
(-1.37895e-16 -6.39172e-17 -83.2279)
(6.99228e-19 -2.83562e-16 -82.8286)
(-2.06119e-17 3.77215e-17 -81.4593)
(0 -0 -79.5489)
(-4.49177e-17 3.48427e-17 -77.1622)
(4.77354e-17 -5.45585e-18 -74.1239)
(2.04438e-17 -1.93769e-16 -70.8786)
(-9.96329e-18 -8.98775e-17 -67.1348)
(1.48933e-16 8.33899e-17 -63.2551)
(7.4674e-17 2.25378e-16 -59.1969)
(-1.63333e-16 6.37316e-17 -55.086)
(1.46898e-16 -1.58624e-16 -50.9293)
(-2.61616e-16 -1.76845e-16 -46.7323)
(3.32862e-16 -1.91855e-16 -42.5078)
(-7.99297e-17 -3.42713e-16 -37.9526)
(2.28252e-16 -3.08944e-16 -32.805)
(-2.3807e-16 7.76613e-16 -29.3459)
(1.95925e-16 -9.36056e-17 -28.8436)
(-4.88477e-17 -1.047e-16 -28.9651)
(3.28794e-17 -7.66483e-18 -29.3724)
(3.12258e-17 -4.80243e-18 -30.3715)
(2.95183e-17 -2.45252e-18 -32.1713)
(-2.83985e-17 -2.31514e-17 -35.1573)
(2.6027e-17 -1.86096e-17 -38.5013)
(1.73789e-18 2.33996e-17 -40.8623)
(2.69515e-18 2.03337e-17 -42.1511)
(-2.54718e-17 1.98354e-17 -42.7912)
(-5.32043e-18 -4.06692e-17 -43.0711)
(2.56998e-18 -1.9013e-18 -43.1344)
(2.08524e-18 3.93027e-17 -43.0684)
(-2.84691e-18 -2.00207e-17 -42.9289)
(1.84202e-17 6.0814e-19 -42.7497)
(-3.34619e-17 1.49484e-17 -42.5501)
(1.55446e-17 5.37433e-18 -42.3404)
(-1.36132e-18 -3.53047e-17 -42.1263)
(1.02972e-18 1.49975e-17 -41.9114)
(8.19912e-18 5.68083e-18 -41.6973)
(-1.37517e-17 8.57278e-18 -41.4853)
(-1.03286e-18 -1.13383e-17 -41.2763)
(6.66886e-19 -9.53487e-18 -41.071)
(5.29804e-18 5.6805e-18 -40.8699)
(4.93514e-18 1.47209e-20 -40.6733)
(-5.49993e-18 -1.64056e-20 -40.4817)
(4.70411e-18 -2.21011e-19 -40.2954)
(-7.93194e-18 -9.93507e-19 -40.1148)
(5.04885e-18 2.49585e-19 -39.94)
(-1.7048e-18 -5.08523e-21 -39.7715)
(-3.87367e-19 -1.13212e-18 -39.6097)
(1.25402e-18 -3.63625e-18 -39.4548)
(-4.68589e-19 5.88064e-18 -39.3075)
(-1.01807e-18 -1.21966e-18 -39.1679)
(1.46411e-19 -1.1821e-18 -39.0366)
(-6.89011e-20 -2.11059e-18 -38.9137)
(-1.6741e-19 1.49253e-18 -38.7983)
(-8.51687e-20 1.01405e-18 -38.6816)
(-2.16686e-20 -7.92514e-20 -38.6027)
(0 -0 3.91388)
(2.15536e-19 -0 -7.75422)
(-5.82095e-19 -1.58833e-17 -17.0726)
(-1.68619e-18 2.62909e-17 -21.8871)
(1.99339e-17 1.13078e-17 -23.6749)
(-1.80622e-17 -3.82366e-17 -23.8165)
(3.98544e-19 -1.69382e-17 -23.2875)
(-6.69105e-19 2.32767e-17 -22.6056)
(-3.35968e-17 1.03434e-17 -21.9948)
(2.9531e-17 -1.02512e-17 -21.5467)
(6.80459e-17 1.10425e-16 -21.2414)
(-1.38731e-16 -8.0225e-17 -21.0422)
(1.29601e-17 -1.53094e-16 -20.921)
(6.42629e-17 4.70018e-17 -20.843)
(-8.55642e-18 1.97877e-16 -20.7865)
(-6.28612e-17 -2.59618e-17 -20.741)
(6.47497e-17 -1.51621e-16 -20.7001)
(4.2035e-18 6.56891e-17 -20.6602)
(0 -0 -20.6184)
(0 -0 -20.5726)
(0 -0 -20.5208)
(0 -0 -20.4601)
(0 -0 -20.3873)
(-2.7048e-16 -0 -20.3011)
(4.12766e-16 -0 -20.199)
(-1.42183e-16 -0 -20.0769)
(0 -0 -19.9299)
(0 -0 -19.7524)
(0 -0 -19.5372)
(-1.11626e-17 1.2612e-16 -19.2746)
(1.33564e-17 3.38724e-17 -18.9516)
(2.07281e-17 -3.81227e-16 -18.5492)
(-7.82882e-18 4.7749e-17 -18.0463)
(-1.55005e-16 4.12228e-16 -17.4156)
(-9.35198e-17 -4.81435e-16 -16.5515)
(4.23968e-16 3.824e-16 -15.659)
(1.00727e-15 9.33392e-16 -15.2212)
(5.73689e-17 -1.95444e-15 -15.5565)
(-3.12873e-16 -1.0189e-15 -16.6957)
(1.157e-15 2.20261e-15 -18.5666)
(-3.15632e-16 1.20058e-16 -21.1219)
(-9.36344e-16 -1.6462e-15 -23.8193)
(2.83824e-16 -2.31642e-16 -26.5272)
(4.92888e-17 -2.92557e-16 -29.2781)
(-1.10519e-15 -1.94219e-17 -31.8086)
(8.98333e-16 2.42813e-15 -34.1858)
(2.39258e-15 4.8588e-16 -36.4412)
(1.15028e-15 1.19243e-15 -38.5181)
(1.20538e-15 8.76807e-16 -40.5495)
(6.87338e-16 -2.00455e-16 -42.4343)
(-1.76603e-15 -9.27364e-16 -44.2001)
(-3.73631e-17 4.60317e-16 -45.9117)
(4.32121e-16 1.02628e-15 -47.4156)
(-7.60978e-16 -4.5366e-16 -48.8112)
(6.24079e-16 -2.96942e-16 -50.0058)
(6.20704e-16 -7.78786e-18 -51.0572)
(3.95965e-16 -1.20516e-16 -51.9175)
(1.3292e-16 1.15619e-16 -52.5849)
(-7.61086e-17 -8.16323e-18 -53.009)
(-7.6849e-17 1.19953e-16 -53.2526)
(-5.25606e-17 -2.21244e-16 -53.1817)
(-3.05513e-16 -5.28227e-17 -52.8504)
(2.38504e-16 4.68861e-16 -52.268)
(-1.78306e-16 7.09575e-16 -51.3967)
(1.42998e-16 3.01278e-16 -50.3808)
(9.43732e-18 -1.05555e-15 -49.0799)
(1.82179e-16 -3.40789e-16 -47.7403)
(-3.02371e-16 7.21304e-16 -46.1952)
(-3.83651e-16 -3.01131e-17 -44.6516)
(1.01083e-15 -4.76142e-16 -43.0376)
(2.49418e-17 1.55722e-16 -41.3898)
(-1.39384e-15 3.91e-16 -39.8087)
(7.28985e-16 4.71446e-16 -38.1695)
(1.90555e-16 1.3842e-15 -36.5792)
(1.198e-15 -1.12068e-15 -35.0251)
(1.52872e-16 -9.64895e-16 -33.4663)
(-5.3572e-17 4.42383e-17 -31.9492)
(-5.1713e-17 8.43658e-16 -30.4799)
(-6.10092e-16 -6.66774e-17 -29.0237)
(-1.70873e-15 7.21568e-16 -27.6001)
(2.3099e-15 5.57148e-16 -26.2162)
(2.06872e-16 -7.77412e-16 -24.8606)
(-7.09279e-16 4.65062e-16 -23.5401)
(1.77834e-16 -4.54385e-16 -22.2559)
(-1.02388e-16 -2.04351e-16 -20.997)
(1.43485e-15 -6.02782e-16 -19.7828)
(4.90781e-16 -7.07616e-16 -18.615)
(6.42495e-16 6.1861e-16 -17.4633)
(5.39143e-16 -1.12285e-15 -16.3655)
(1.1516e-15 -7.36287e-16 -15.3236)
(3.60466e-19 2.2878e-17 -14.2989)
(5.65506e-16 -6.67873e-16 -13.3389)
(2.29184e-16 1.27683e-16 -12.4373)
(-4.96985e-16 3.43478e-16 -11.5626)
(2.24759e-16 -6.25103e-16 -10.7794)
(-1.77462e-18 2.99486e-16 -10.0219)
(-4.88838e-16 2.20657e-16 -9.36272)
(2.13491e-16 5.9553e-16 -8.74752)
(2.93682e-17 2.64036e-16 -8.23041)
(-1.34019e-16 -7.4214e-16 -7.76672)
(-5.67139e-17 1.02908e-18 -7.41105)
(-8.35593e-17 1.78606e-16 -7.14104)
(-2.78659e-17 -1.18505e-16 -6.96809)
(2.71895e-17 -1.24151e-17 -6.89471)
(5.66201e-17 -1.66848e-17 -6.91673)
(1.06333e-16 3.01933e-17 -7.03632)
(-2.05113e-18 -2.75429e-16 -7.26229)
(6.79952e-16 3.88927e-16 -7.5769)
(-7.48678e-18 7.00637e-17 -7.9877)
(-4.23336e-16 5.807e-17 -8.49599)
(-6.81675e-17 4.24347e-16 -9.1016)
(-1.75e-17 -5.86773e-16 -9.77745)
(2.51709e-16 4.27323e-16 -10.5395)
(1.97283e-16 1.62733e-16 -11.3601)
(-2.35208e-16 -4.36837e-16 -12.2835)
(-5.06893e-16 -2.9341e-16 -13.243)
(1.87818e-17 -6.53375e-16 -14.2891)
(7.34358e-17 -7.80348e-16 -15.4019)
(-2.74195e-16 1.67796e-16 -16.5593)
(1.04404e-15 2.06968e-15 -17.7902)
(-6.47777e-16 -2.64847e-16 -19.0818)
(-5.74649e-16 -1.14365e-15 -20.4146)
(4.30876e-16 4.28823e-16 -21.8068)
(7.1636e-16 4.855e-16 -23.261)
(4.95337e-16 -1.99037e-16 -24.7501)
(-1.50248e-15 -1.13042e-15 -26.2914)
(2.9439e-16 6.60063e-16 -27.8742)
(-1.40834e-16 -1.31332e-15 -29.4911)
(-1.74363e-16 4.28779e-17 -31.1499)
(1.36308e-15 5.98734e-16 -32.8434)
(4.80939e-16 2.78989e-16 -34.5177)
(1.40501e-15 5.66279e-16 -36.2385)
(6.52933e-16 1.53585e-15 -37.9725)
(8.65722e-16 6.14068e-16 -39.6272)
(7.38194e-17 -8.41047e-16 -41.3191)
(9.94166e-17 6.0542e-16 -42.9975)
(2.36726e-16 3.29361e-17 -44.4932)
(9.20003e-17 -1.62746e-17 -46.0524)
(-3.15155e-17 -1.11368e-16 -47.3934)
(7.18884e-17 -6.64536e-17 -48.7028)
(9.72412e-17 -1.40344e-16 -49.8473)
(-6.86664e-18 5.39493e-16 -50.8328)
(1.71422e-16 -5.34298e-16 -51.6383)
(3.80102e-17 1.86986e-16 -52.2828)
(-1.23696e-17 -8.15792e-17 -52.6759)
(-5.05205e-17 9.11002e-17 -52.9488)
(9.04094e-17 1.75008e-17 -52.8983)
(-5.85713e-17 1.56025e-17 -52.6618)
(4.0411e-17 2.99104e-17 -52.1116)
(-1.05402e-16 -2.08207e-16 -51.2964)
(-6.30834e-17 1.9946e-16 -50.2118)
(5.08858e-17 3.76121e-16 -48.8549)
(1.98812e-17 -9.10123e-17 -47.2201)
(-9.78653e-17 -6.87447e-17 -45.353)
(3.38186e-16 -2.22636e-16 -43.2402)
(-2.23039e-16 -8.3908e-17 -40.9685)
(5.95992e-17 1.27936e-16 -38.4927)
(-4.3699e-16 -1.79918e-16 -35.8686)
(1.20122e-16 3.35455e-16 -33.0352)
(-6.28834e-16 7.56218e-16 -30.0491)
(2.95621e-16 -4.28407e-16 -26.5797)
(-8.77091e-17 -4.16788e-16 -23.9746)
(9.7966e-18 2.75063e-16 -22.1876)
(-7.721e-17 -7.29411e-17 -21.013)
(-6.11423e-18 -3.28667e-17 -20.2926)
(-5.50041e-17 6.48761e-18 -20.0706)
(5.69733e-17 5.73326e-17 -20.3074)
(-2.95816e-17 -1.86869e-17 -20.9847)
(-1.49432e-19 -2.78083e-18 -21.909)
(-1.39988e-18 -3.19854e-18 -22.7988)
(2.99776e-18 2.48555e-18 -23.4903)
(3.07299e-18 2.15702e-17 -23.9685)
(-2.42758e-17 2.54094e-17 -24.2687)
(1.95887e-17 -6.57748e-17 -24.4336)
(8.55814e-19 7.72607e-18 -24.5025)
(2.17684e-17 -1.7073e-17 -24.4996)
(-1.93904e-17 7.39444e-17 -24.4457)
(1.01498e-18 -1.05319e-16 -24.3604)
(1.01763e-18 7.78176e-17 -24.2529)
(-1.49613e-18 -2.21422e-17 -24.1294)
(-3.58401e-19 -1.8972e-17 -23.9947)
(6.83292e-18 3.08227e-17 -23.8521)
(-5.50402e-18 1.73453e-18 -23.7043)
(-6.39113e-18 1.6746e-17 -23.5529)
(5.55112e-18 -2.82111e-17 -23.3994)
(1.68457e-18 -1.22978e-17 -23.2449)
(5.12028e-19 2.48797e-17 -23.0902)
(-3.73611e-19 -2.20804e-17 -22.9361)
(-3.51439e-19 4.34533e-17 -22.7832)
(2.7018e-19 -3.47799e-17 -22.6319)
(1.5692e-18 1.5514e-17 -22.4829)
(-1.14462e-18 1.4447e-18 -22.3365)
(-2.36603e-18 -1.00911e-18 -22.193)
(2.61049e-18 -6.56239e-18 -22.053)
(-2.79646e-21 1.10532e-17 -21.9166)
(1.03532e-19 -1.91318e-18 -21.7844)
(4.37429e-20 5.22472e-18 -21.6566)
(2.45476e-19 -3.02492e-19 -21.5336)
(9.45405e-21 1.98898e-20 -21.4119)
(1.58996e-20 2.92185e-18 -21.2964)
(-2.32626e-20 7.88498e-18 6.40317)
(-4.02773e-19 -4.36225e-18 3.81523)
(6.31415e-19 -2.66838e-17 -0.656182)
(2.0427e-20 1.62308e-17 -4.70753)
(1.72499e-17 2.24336e-17 -7.74066)
(-1.74184e-17 -1.55034e-17 -9.57871)
(0 -0 -10.3783)
(-3.64846e-17 3.15752e-17 -10.5756)
(3.74707e-17 -5.0325e-17 -10.4611)
(-3.37435e-17 -8.89799e-17 -10.2391)
(3.19794e-17 1.13931e-16 -10.0191)
(2.4326e-18 1.19963e-16 -9.84612)
(-1.09634e-18 -1.00739e-16 -9.72596)
(-1.33369e-16 -8.8328e-17 -9.64815)
(1.24941e-16 1.25024e-16 -9.59902)
(8.15578e-17 -9.86913e-17 -9.56744)
(-1.3459e-16 -5.08224e-17 -9.54623)
(5.80762e-17 1.49282e-16 -9.53104)
(3.2866e-18 -6.18894e-17 -9.51927)
(0 -0 -9.50935)
(1.26452e-16 -0 -9.50022)
(-1.26495e-16 -0 -9.49104)
(-8.16792e-18 1.20372e-16 -9.48113)
(-1.16871e-16 -7.12565e-17 -9.47002)
(1.33991e-16 -1.6961e-16 -9.45719)
(-8.88717e-18 1.20494e-16 -9.44203)
(0 -0 -9.42379)
(1.23139e-16 -0 -9.40161)
(-4.92693e-19 -0 -9.37458)
(-1.33386e-16 1.18536e-16 -9.34156)
(2.1371e-17 -7.40962e-17 -9.30099)
(2.56596e-16 -1.63363e-16 -9.25007)
(-4.03603e-16 1.11503e-16 -9.1876)
(2.33129e-16 -4.27543e-18 -9.14932)
(-1.07837e-17 2.52443e-16 -8.99925)
(-4.97306e-16 -5.11647e-16 -8.60389)
(7.44547e-16 -1.96425e-16 -8.1532)
(3.5501e-16 1.72266e-15 -7.98102)
(-9.13661e-16 -7.91397e-17 -8.25566)
(-2.14309e-16 -1.07196e-15 -8.97599)
(-1.4408e-16 -1.6655e-16 -10.0257)
(-1.39104e-15 4.40638e-17 -11.2024)
(4.05012e-17 7.22421e-16 -12.4846)
(1.05104e-15 7.34166e-16 -13.9751)
(-1.71078e-15 -1.46187e-15 -15.5348)
(1.94443e-15 -1.95083e-15 -16.9606)
(-4.02598e-16 1.65506e-16 -18.3413)
(-5.13482e-17 5.96875e-16 -19.6217)
(1.6901e-16 -3.57275e-16 -20.886)
(-4.08985e-17 1.41392e-15 -22.0573)
(2.64653e-16 9.83908e-16 -23.1152)
(1.73048e-16 -1.24996e-15 -24.2077)
(7.24752e-17 -8.02343e-16 -25.343)
(2.85196e-16 -4.88316e-16 -26.351)
(-4.78521e-16 -3.3309e-16 -27.3178)
(-2.60948e-16 -4.43457e-17 -28.2451)
(-3.54923e-16 -1.93654e-16 -29.1241)
(-1.87992e-17 1.40085e-16 -30.0018)
(-1.05767e-16 2.14544e-16 -30.7893)
(1.43619e-16 3.22775e-17 -31.6014)
(5.45354e-17 1.09303e-16 -32.2607)
(-2.62355e-16 4.55689e-17 -32.8172)
(4.06439e-16 -4.45122e-16 -33.2423)
(3.62329e-16 -6.44757e-16 -33.4333)
(-1.97242e-16 -7.90755e-16 -33.482)
(-4.34034e-16 7.82656e-16 -33.2185)
(-8.74773e-16 3.24654e-16 -32.8291)
(1.61433e-16 1.30679e-16 -32.1755)
(2.132e-17 -2.0445e-16 -31.4068)
(-6.45762e-16 3.15785e-16 -30.4912)
(5.15895e-17 1.2777e-15 -29.4469)
(1.4547e-15 -6.54422e-16 -28.3604)
(-1.16529e-15 -1.15344e-15 -27.1783)
(1.93333e-15 -1.08665e-15 -25.9741)
(6.83688e-16 -1.0698e-15 -24.759)
(-1.85738e-16 1.77464e-15 -23.5092)
(1.06365e-15 1.14556e-16 -22.2687)
(4.97909e-17 -7.7508e-17 -21.0533)
(1.74391e-15 1.06814e-15 -19.8412)
(5.4198e-16 -1.63816e-15 -18.6424)
(3.86649e-16 -3.69915e-15 -17.4693)
(-2.08945e-16 1.88896e-15 -16.322)
(8.38091e-16 9.01137e-18 -15.2082)
(5.4138e-16 -1.61397e-15 -14.1318)
(-6.67804e-16 4.91156e-16 -13.0857)
(1.07464e-15 -1.08906e-15 -12.0833)
(-1.84253e-15 3.48026e-16 -11.131)
(-1.45651e-15 -6.25102e-16 -10.2071)
(-7.03202e-16 7.88872e-16 -9.33315)
(-1.53157e-16 3.76546e-16 -8.51611)
(1.11929e-17 7.1039e-16 -7.73141)
(2.26635e-17 3.17911e-16 -7.00327)
(-2.33933e-16 2.44712e-16 -6.33334)
(2.86574e-16 -4.19836e-16 -5.69944)
(-1.34614e-17 -1.3196e-17 -5.13809)
(-8.95675e-17 2.78691e-16 -4.61064)
(5.25832e-17 -1.72447e-16 -4.15458)
(-4.30955e-17 -6.32858e-16 -3.73886)
(7.31114e-16 -1.57635e-17 -3.39158)
(6.50327e-17 3.5198e-16 -3.08663)
(-5.42282e-17 1.58519e-17 -2.84724)
(8.17562e-17 -1.11468e-16 -2.65976)
(1.71609e-18 6.57193e-17 -2.52759)
(-6.47723e-20 -5.40562e-17 -2.45105)
(-2.05553e-18 -1.13717e-16 -2.42422)
(-9.9207e-17 -5.63131e-17 -2.45031)
(-1.11351e-16 -1.52422e-16 -2.52948)
(-4.07663e-16 -1.89439e-16 -2.65807)
(6.48434e-16 7.26907e-16 -2.84001)
(-4.69416e-16 -3.42277e-16 -3.07243)
(4.87759e-16 -1.71018e-16 -3.36158)
(-6.43336e-18 2.82489e-16 -3.70228)
(1.21191e-17 -2.90913e-16 -4.09639)
(7.73989e-17 1.91984e-16 -4.53794)
(-4.50557e-17 4.2291e-16 -5.04017)
(-3.94801e-18 -3.18753e-16 -5.58179)
(2.18034e-16 7.33326e-16 -6.1822)
(2.52748e-17 9.87534e-16 -6.8335)
(-1.15668e-15 -1.60214e-15 -7.52779)
(-2.89959e-16 -5.71859e-16 -8.27653)
(9.29438e-16 1.70344e-15 -9.07298)
(2.96007e-16 -9.66811e-16 -9.90913)
(-1.72519e-16 -7.32017e-16 -10.7925)
(-5.7748e-16 -5.48039e-16 -11.7204)
(-6.50507e-18 7.32579e-16 -12.6803)
(-1.12913e-15 5.6263e-16 -13.6783)
(6.87856e-16 -1.00645e-15 -14.7044)
(-8.79435e-16 1.46634e-16 -15.7614)
(-4.40271e-16 -2.06224e-15 -16.8403)
(-6.21766e-16 -1.35285e-15 -17.9286)
(-1.27225e-16 -7.20547e-17 -19.0096)
(-5.70636e-16 -5.00387e-16 -20.1075)
(-2.53318e-16 -1.4059e-15 -21.192)
(1.01746e-15 2.6028e-16 -22.2315)
(-7.75543e-16 1.69321e-16 -23.2892)
(2.03118e-17 -3.17557e-16 -24.3239)
(6.22494e-17 -3.31304e-16 -25.2651)
(-1.39258e-16 -5.23164e-17 -26.1889)
(-4.83625e-17 1.00118e-16 -26.9421)
(-1.70965e-16 -5.43188e-17 -27.6956)
(5.02264e-17 5.22108e-16 -28.4419)
(7.68947e-16 2.24112e-17 -29.0784)
(-8.54702e-17 5.33188e-17 -29.6463)
(4.77094e-19 2.5883e-16 -30.1523)
(-1.83108e-16 3.8735e-16 -30.6224)
(2.07571e-17 -2.06252e-16 -31.0488)
(6.55553e-17 -1.81955e-16 -31.4272)
(-7.9076e-17 1.79065e-16 -31.7399)
(9.76554e-17 -5.63854e-17 -31.9586)
(-1.42784e-16 3.73043e-16 -32.1113)
(7.01516e-17 -9.20425e-17 -32.1062)
(8.86843e-17 -5.49369e-16 -31.9799)
(-2.35506e-16 -3.01857e-16 -31.6069)
(7.96694e-17 1.70863e-16 -31.0619)
(-2.69249e-16 -3.53877e-16 -30.2529)
(-7.6556e-17 5.10257e-16 -29.2823)
(3.5053e-16 -7.22344e-17 -28.0851)
(-9.81242e-17 2.55123e-16 -26.6441)
(-2.62159e-17 -6.02929e-17 -25.0195)
(5.43298e-16 -6.20196e-17 -23.3449)
(1.03382e-16 -2.72015e-16 -20.6755)
(-2.52036e-16 3.59976e-16 -17.9186)
(4.72327e-17 8.04075e-18 -15.5061)
(5.07891e-17 7.42993e-17 -13.6085)
(-3.24604e-17 1.28035e-18 -12.1376)
(-2.05463e-17 5.36967e-17 -11.0994)
(-1.6461e-17 -1.45033e-16 -10.3776)
(2.97784e-17 3.7667e-17 -10.082)
(2.45899e-17 1.06355e-18 -10.1846)
(3.2395e-18 2.06628e-17 -10.5202)
(-2.10183e-17 5.42581e-17 -10.9225)
(2.08656e-18 -2.2696e-17 -11.2906)
(4.09e-17 2.49515e-18 -11.5816)
(-4.1853e-17 1.97511e-18 -11.7864)
(-1.85059e-18 -2.11576e-17 -11.9132)
(-1.89821e-17 -4.98105e-17 -11.9762)
(3.68158e-17 9.23355e-17 -11.9905)
(-2.14461e-17 2.81211e-17 -11.9693)
(1.86256e-18 -7.48115e-17 -11.9226)
(1.02898e-18 1.50243e-17 -11.8575)
(-9.50063e-18 3.13042e-18 -11.7791)
(7.57254e-18 3.74972e-18 -11.6913)
(2.08133e-18 2.48991e-17 -11.5965)
(1.04257e-17 -9.77422e-18 -11.4969)
(-1.00881e-17 -3.20544e-17 -11.3939)
(-5.83296e-18 -2.50466e-18 -11.2885)
(6.66484e-18 -1.51238e-18 -11.1817)
(-4.71318e-18 3.54269e-18 -11.0739)
(4.7184e-18 -8.27175e-19 -10.9657)
(-1.63783e-18 -4.35159e-18 -10.8577)
(2.53964e-18 -1.21418e-17 -10.7503)
(1.61258e-18 1.28265e-17 -10.6437)
(-1.32899e-18 1.1144e-17 -10.5382)
(2.16597e-19 -1.73462e-17 -10.4341)
(1.07354e-19 1.04529e-18 -10.3316)
(-3.78707e-19 -3.54127e-18 -10.2308)
(1.23553e-19 -6.45626e-18 -10.1321)
(1.59304e-19 -2.91437e-18 -10.0358)
(1.78042e-19 3.31618e-18 -9.94217)
(2.54669e-20 -2.99976e-18 -9.82498)
(0 -0 4.09432)
(8.39901e-18 -0 3.65876)
(-8.15713e-18 -1.55053e-17 2.61824)
(8.34945e-19 8.36909e-18 0.943292)
(-9.7788e-19 2.26236e-17 -0.863067)
(2.28458e-19 -1.54874e-17 -2.29217)
(3.2729e-17 -0 -3.27913)
(-3.28508e-17 -0 -3.79945)
(9.57095e-19 -0 -4.018)
(-2.05551e-18 -0 -4.06147)
(-6.8239e-17 6.17601e-17 -4.01804)
(6.94839e-17 -3.40407e-17 -3.95276)
(6.69278e-17 -2.82068e-17 -3.89067)
(2.19595e-19 -3.30323e-17 -3.84299)
(-3.21029e-19 -5.54989e-17 -3.81058)
(-7.06775e-17 2.10854e-16 -3.79016)
(-6.2131e-17 -9.43341e-17 -3.77807)
(6.90517e-17 -8.81736e-17 -3.77124)
(-3.22195e-18 6.06721e-17 -3.76815)
(7.00284e-17 -1.19264e-16 -3.76771)
(-6.99754e-17 6.47837e-17 -3.76923)
(-7.80172e-18 1.73784e-16 -3.77241)
(-2.50974e-19 -1.48847e-18 -3.77715)
(1.20261e-17 -6.40232e-17 -3.78351)
(1.2777e-16 -1.71669e-16 -3.7916)
(-1.31931e-16 1.17877e-16 -3.80161)
(-1.12928e-16 -1.16139e-16 -3.81387)
(2.17169e-18 -5.17588e-17 -3.82883)
(2.23682e-16 2.32666e-16 -3.84718)
(-1.33363e-16 1.66308e-16 -3.86985)
(3.43436e-17 -2.9611e-16 -3.89825)
(-1.1968e-16 -9.91195e-17 -3.93403)
(1.0441e-16 1.72065e-16 -3.98209)
(1.15643e-16 -4.41046e-17 -4.06347)
(-1.47443e-16 2.66551e-16 -4.11225)
(2.73857e-16 -1.57188e-16 -4.01095)
(-9.54429e-16 -7.63603e-16 -3.78685)
(-9.03007e-16 -9.55786e-16 -3.60676)
(1.13108e-15 5.01242e-16 -3.59964)
(4.38744e-16 1.00065e-15 -3.80319)
(-1.52533e-16 1.35854e-15 -4.15072)
(8.59564e-16 -1.06723e-16 -4.60118)
(6.16348e-16 -2.87598e-15 -5.17249)
(-8.47585e-16 1.27612e-16 -5.82178)
(4.43952e-16 1.50537e-15 -6.59553)
(-1.04346e-15 -4.63144e-16 -7.34994)
(-8.87393e-16 1.95451e-16 -8.14656)
(-4.72688e-16 -2.70084e-16 -8.89429)
(-8.32452e-16 3.91477e-17 -9.54345)
(-4.53074e-16 -1.24825e-15 -10.2283)
(1.32745e-15 9.74361e-17 -10.866)
(-6.15867e-16 6.86049e-16 -11.4496)
(-9.37791e-17 1.01704e-15 -12.1009)
(-8.31157e-16 5.07008e-17 -12.7288)
(-1.20534e-16 2.95034e-16 -13.3696)
(-2.7254e-17 -9.88253e-17 -14.003)
(-4.87866e-16 -2.66322e-16 -14.6471)
(-1.27816e-16 -1.6798e-16 -15.3393)
(8.40811e-18 -8.09467e-17 -16.113)
(7.22125e-17 -9.677e-17 -16.7765)
(-1.43657e-16 9.86889e-18 -17.4304)
(2.90254e-16 -1.6799e-16 -18.1499)
(-4.30796e-16 -1.85795e-16 -18.8618)
(1.58619e-16 7.61197e-16 -19.4468)
(-5.6144e-16 1.38043e-15 -19.9265)
(7.85295e-16 -2.51011e-16 -20.1474)
(-1.74172e-16 -1.70203e-16 -20.244)
(1.37796e-16 -1.45766e-16 -20.1363)
(-4.99638e-16 5.88047e-16 -19.8944)
(4.93321e-16 2.65259e-16 -19.5141)
(2.39835e-16 -1.34933e-15 -18.9491)
(2.86989e-16 -3.00927e-16 -18.3001)
(-2.78975e-16 1.10285e-15 -17.5662)
(-3.25862e-16 -1.49339e-15 -16.7741)
(-9.23572e-16 1.37943e-15 -15.9201)
(3.80105e-17 -7.04018e-16 -15.0025)
(5.09067e-16 -1.0341e-15 -14.0989)
(2.91834e-18 -1.48558e-16 -13.2106)
(1.23553e-15 -2.08963e-15 -12.3175)
(1.13065e-15 -6.62651e-16 -11.4251)
(-2.7983e-15 3.27606e-15 -10.5404)
(-4.56164e-16 1.24377e-16 -9.68237)
(4.97267e-16 -1.59195e-15 -8.85765)
(-7.08127e-16 1.1869e-15 -8.06964)
(-2.68749e-19 -7.31532e-16 -7.31587)
(-1.42569e-15 1.84835e-15 -6.60426)
(1.53732e-15 2.82479e-15 -5.93956)
(2.0957e-16 4.88168e-16 -5.30933)
(-3.68098e-16 -1.49497e-15 -4.72409)
(-1.64332e-15 1.71998e-16 -4.18758)
(-2.5552e-16 1.3784e-16 -3.68751)
(1.18528e-17 3.53102e-18 -3.23339)
(2.73783e-16 -1.05622e-16 -2.82611)
(-3.74418e-17 -3.07298e-16 -2.45366)
(-4.82751e-16 9.08636e-17 -2.13046)
(-1.81894e-17 2.84552e-16 -1.83843)
(2.2635e-16 -1.2967e-16 -1.59061)
(-6.99711e-16 -4.83059e-17 -1.37296)
(-4.09374e-16 2.20346e-17 -1.19416)
(-2.0537e-17 2.21529e-16 -1.04244)
(1.05084e-16 -4.10389e-17 -0.923547)
(-1.0283e-16 8.68118e-17 -0.831063)
(6.55049e-17 -1.79706e-17 -0.764331)
(-9.32511e-19 -1.01205e-17 -0.72218)
(1.29146e-18 1.06038e-16 -0.70134)
(-2.24597e-16 1.69482e-16 -0.702351)
(-7.17545e-18 1.73755e-16 -0.724716)
(-2.31913e-16 -6.20186e-16 -0.767679)
(-1.56736e-16 -2.49041e-16 -0.832938)
(3.86804e-16 7.73939e-16 -0.920378)
(-1.35308e-17 -2.55814e-16 -1.03195)
(5.43888e-18 -1.09468e-17 -1.16865)
(3.57896e-18 2.6863e-16 -1.332)
(-2.7812e-16 -3.32212e-18 -1.52209)
(4.3131e-16 -6.46127e-17 -1.74345)
(1.08624e-17 -2.25995e-16 -1.99126)
(-6.37105e-16 -1.40615e-15 -2.27276)
(5.49425e-16 5.66741e-16 -2.58618)
(7.9832e-16 2.41497e-15 -2.93019)
(-7.29468e-16 -1.23388e-15 -3.30928)
(1.16516e-15 -9.01811e-16 -3.72117)
(-6.50771e-16 2.61959e-16 -4.16379)
(-6.2937e-16 1.27703e-15 -4.64003)
(-4.30068e-16 3.88782e-16 -5.1478)
(-8.01372e-16 -7.10251e-16 -5.6823)
(1.63331e-15 5.89021e-16 -6.24384)
(-1.46601e-16 5.30905e-17 -6.81402)
(4.6224e-16 8.40906e-16 -7.4116)
(-6.7303e-16 9.14794e-16 -8.05485)
(-9.78643e-16 -2.53789e-17 -8.7045)
(-5.84274e-16 -2.04849e-16 -9.34968)
(-5.55807e-17 5.26228e-17 -10.0029)
(-9.03509e-16 3.81027e-16 -10.6134)
(-5.57043e-16 -8.16548e-16 -11.1738)
(-1.23579e-16 4.21856e-16 -11.7186)
(-1.40044e-16 -1.16153e-16 -12.3227)
(-4.72621e-16 -8.01651e-17 -12.9156)
(-2.87682e-16 4.37896e-16 -13.4291)
(1.64886e-16 -8.5515e-17 -13.8749)
(-7.98885e-17 3.06808e-16 -14.2704)
(4.73618e-16 -1.55066e-15 -14.6701)
(-4.92548e-17 -8.25555e-16 -15.0471)
(1.90175e-18 -2.15407e-16 -15.4049)
(1.97499e-16 2.2654e-16 -15.7417)
(2.55646e-16 1.8586e-16 -16.1249)
(9.64496e-17 -3.88978e-17 -16.5138)
(-9.03146e-17 -1.65885e-17 -16.8294)
(5.87063e-17 2.08186e-16 -17.1651)
(-4.8032e-17 -1.1908e-16 -17.5598)
(2.33041e-16 2.00255e-16 -18.0108)
(3.95863e-18 -2.87998e-16 -18.4158)
(-2.14003e-16 2.39339e-16 -18.7486)
(6.19037e-17 4.84701e-16 -18.8949)
(1.94317e-17 -2.65572e-16 -18.9549)
(-6.84033e-17 5.23854e-16 -18.8421)
(1.09406e-16 -1.80342e-16 -18.6718)
(-3.49536e-16 -3.8779e-16 -18.1912)
(2.81412e-16 1.06685e-16 -17.5317)
(-2.42775e-17 -1.57263e-16 -16.7929)
(-1.21747e-16 -3.38245e-16 -15.9327)
(-1.44617e-16 1.97494e-16 -14.1922)
(1.29486e-16 -4.07902e-17 -12.1093)
(2.79083e-17 -5.64027e-17 -10.0751)
(8.74521e-17 -1.2847e-16 -8.31617)
(-1.76797e-17 4.9818e-17 -6.8665)
(3.27957e-17 1.50552e-17 -5.76265)
(-7.01817e-17 4.18233e-17 -4.93193)
(-8.22658e-18 -9.27525e-17 -4.43585)
(5.14259e-18 -4.61349e-17 -4.24544)
(2.59116e-17 2.94304e-17 -4.26551)
(-1.78836e-18 6.29143e-17 -4.40093)
(-7.41299e-18 -4.36955e-17 -4.57754)
(-3.41935e-18 -4.62384e-17 -4.74836)
(3.18693e-18 8.3293e-17 -4.88886)
(4.15179e-18 -6.37562e-18 -4.99047)
(-4.01707e-17 5.3772e-18 -5.0542)
(3.33408e-17 -1.46427e-17 -5.0857)
(1.68252e-17 -5.09243e-17 -5.09179)
(-1.22114e-17 7.69819e-17 -5.07866)
(-4.19161e-18 -1.17011e-17 -5.05129)
(8.61451e-18 8.14109e-18 -5.01348)
(-6.36969e-18 -2.78488e-18 -4.96812)
(5.73765e-19 -1.26065e-17 -4.91734)
(5.33383e-18 -2.50027e-17 -4.8627)
(-1.10509e-17 3.64692e-17 -4.80537)
(7.85742e-19 1.73064e-18 -4.74625)
(-1.59988e-18 -8.80436e-18 -4.68582)
(-1.28271e-18 4.1007e-18 -4.62439)
(3.1011e-18 2.69227e-17 -4.56235)
(-3.82439e-18 -3.37905e-17 -4.50008)
(-3.58076e-18 -5.57908e-18 -4.43795)
(3.75185e-18 -1.28943e-17 -4.37614)
(-1.25484e-18 1.49614e-17 -4.31478)
(-1.12991e-18 -1.48675e-17 -4.25398)
(1.55046e-20 1.56852e-17 -4.19385)
(7.16505e-19 6.2969e-18 -4.13449)
(-6.41696e-19 6.70759e-18 -4.07602)
(-6.20162e-20 -3.96267e-18 -4.01848)
(2.33389e-19 -1.06195e-17 -3.96591)
(-9.62489e-20 1.7224e-19 -3.87778)
(0 -0 2.6629)
(0 -0 2.61316)
(1.39573e-19 -1.57696e-17 2.41102)
(8.26278e-19 8.70318e-18 1.82875)
(-1.11403e-18 2.27554e-17 1.04135)
(7.79372e-19 -4.66435e-17 0.200341)
(3.30744e-17 1.66408e-17 -0.51385)
(-6.79708e-17 7.62885e-17 -0.966222)
(3.49082e-17 -7.85469e-17 -1.21566)
(5.52485e-19 -2.87393e-17 -1.33784)
(-2.08695e-18 7.6277e-17 -1.36487)
(6.6609e-17 -3.09656e-17 -1.3648)
(-1.28149e-16 -6.1106e-17 -1.35302)
(1.30146e-16 -2.82496e-17 -1.33985)
(-1.38125e-16 1.82678e-16 -1.32922)
(6.76291e-17 -4.00147e-18 -1.32166)
(6.5697e-18 -1.49965e-16 -1.31683)
(-3.77166e-18 6.0644e-17 -1.31359)
(3.33952e-18 -5.95761e-17 -1.31246)
(5.95589e-17 3.13446e-17 -1.31309)
(-6.81669e-17 8.78127e-17 -1.31511)
(5.34064e-18 -5.95812e-17 -1.31833)
(-1.31863e-16 1.17058e-16 -1.32267)
(1.41234e-16 -1.77851e-16 -1.32816)
(2.25914e-21 -1.11764e-16 -1.33497)
(-2.73215e-17 4.04669e-16 -1.34334)
(7.18614e-18 -6.22236e-17 -1.35366)
(2.53623e-17 -3.45651e-16 -1.36637)
(-1.25389e-16 6.81012e-18 -1.38203)
(9.07987e-17 3.97173e-16 -1.40137)