/*--------------------------------*- C++ -*----------------------------------*\
| =========                 |                                                 |
| \\      /  F ield         | OpenFOAM: The Open Source CFD Toolbox           |
|  \\    /   O peration     | Version:  2506                                  |
|   \\  /    A nd           | Website:  www.openfoam.com                      |
|    \\/     M anipulation  |                                                 |
\*---------------------------------------------------------------------------*/
FoamFile
{
    version     2.0;
    format      ascii;
    arch        "LSB;label=32;scalar=64";
    class       volScalarField;
    location    "1.55";
    object      p;
}
// * * * * * * * * * * * * * * * * * * * * * * * * * * * * * * * * * * * * * //

dimensions      [0 2 -2 0 0 0 0];

internalField   nonuniform List<scalar> 
4000
(
0.00481741
0.00472009
0.00465784
0.00462189
0.00459341
0.00456807
0.00454496
0.00452312
0.00450184
0.00448079
0.00445987
0.00443903
0.00441827
0.00439758
0.00437697
0.00435646
0.00433604
0.00431574
0.00429557
0.00427553
0.00425565
0.00423594
0.00421643
0.00419714
0.0041781
0.00415935
0.00414093
0.00412289
0.0041053
0.00408822
0.00407176
0.00405604
0.00404124
0.00402733
0.00401567
0.00400576
0.00399505
0.00398274
0.00396863
0.00395202
0.00393203
0.00390634
0.00387556
0.00384149
0.00380421
0.00376397
0.00372088
0.00367473
0.0036266
0.00357622
0.00352396
0.00347071
0.00341615
0.00336209
0.00330768
0.00325482
0.00320322
0.00315354
0.00310718
0.00306227
0.00302179
0.00298369
0.00294861
0.00291655
0.00288647
0.00285914
0.00283313
0.00280914
0.00278616
0.0027644
0.00274355
0.00272329
0.00270389
0.00268498
0.0026666
0.00264879
0.00263145
0.0026146
0.00259831
0.00258256
0.00256735
0.0025527
0.0025386
0.00252505
0.00251205
0.00249954
0.00248753
0.00247602
0.00246495
0.0024543
0.0024441
0.00243427
0.00242483
0.00241578
0.00240704
0.00239867
0.00239056
0.00238278
0.0023752
0.00236789
0.00236071
0.00235369
0.00234673
0.00233978
0.00233282
0.00232572
0.00231851
0.00231103
0.00230327
0.00229512
0.00228653
0.0022774
0.00226765
0.00225713
0.00224583
0.00223353
0.00222017
0.00220561
0.00218969
0.00217236
0.00215346
0.00213285
0.00211052
0.00208643
0.00206047
0.00203266
0.00200299
0.00197147
0.00193816
0.00190305
0.00186611
0.00182758
0.00178741
0.00174543
0.00170206
0.00165725
0.00161057
0.00156316
0.00151422
0.00146454
0.00141415
0.00136347
0.00131296
0.00126331
0.00121442
0.00116819
0.00112293
0.00108173
0.00104309
0.00100756
0.000975794
0.000946253
0.000920579
0.000896734
0.000875906
0.00085653
0.000839345
0.000823333
0.000808879
0.000795649
0.000786336
0.000774615
0.000762091
0.000749015
0.000735568
0.000721001
0.000705313
0.000686983
0.000667318
0.000647333
0.000627074
0.000606535
0.000585722
0.000564623
0.000543234
0.000521564
0.000499646
0.000477528
0.000455277
0.000432943
0.000410589
0.000388274
0.000366022
0.000343894
0.000321918
0.000300117
0.000278505
0.000257089
0.000235867
0.000214831
0.000193956
0.00017323
0.00015263
0.00013213
0.000111704
9.1328e-05
7.09814e-05
5.06477e-05
3.03136e-05
1.00278e-05
0.00474875
0.00469703
0.00465225
0.00462131
0.00459516
0.00457038
0.00454698
0.00452478
0.00450328
0.0044821
0.00446111
0.00444025
0.00441948
0.00439881
0.00437823
0.00435775
0.00433737
0.00431711
0.00429697
0.00427698
0.00425714
0.00423748
0.00421801
0.00419875
0.00417975
0.00416103
0.00414264
0.00412462
0.00410703
0.00408995
0.00407344
0.00405763
0.00404265
0.00402843
0.00401578
0.00400415
0.00399138
0.00397689
0.00396046
0.00394134
0.00391873
0.00389093
0.00385884
0.00382394
0.00378617
0.00374574
0.00370276
0.00365712
0.00360993
0.00356081
0.0035102
0.00345897
0.00340692
0.00335539
0.00330387
0.00325376
0.00320507
0.00315789
0.00311347
0.00307056
0.00303131
0.00299429
0.00295991
0.00292826
0.00289848
0.00287123
0.00284533
0.00282134
0.00279842
0.0027767
0.00275594
0.00273578
0.00271641
0.00269753
0.00267915
0.00266129
0.00264388
0.00262692
0.00261045
0.00259447
0.00257899
0.00256403
0.00254959
0.00253568
0.00252229
0.0025094
0.00249698
0.00248506
0.00247356
0.00246247
0.0024518
0.00244149
0.00243154
0.00242194
0.00241264
0.00240367
0.00239495
0.0023865
0.00237826
0.00237024
0.00236235
0.00235459
0.00234689
0.00233921
0.0023315
0.00232366
0.00231568
0.00230743
0.00229888
0.00228994
0.00228052
0.00227052
0.00225986
0.00224838
0.00223606
0.00222265
0.00220812
0.00219233
0.00217512
0.00215644
0.0021362
0.00211429
0.0020907
0.00206537
0.00203826
0.00200939
0.00197878
0.00194644
0.00191244
0.0018768
0.00183952
0.00180078
0.00176056
0.00171877
0.00167575
0.00163147
0.0015857
0.00153932
0.00149179
0.00144377
0.00139538
0.00134699
0.00129905
0.00125208
0.00120608
0.00116256
0.00112038
0.00108141
0.00104474
0.00101074
0.000980032
0.000951431
0.000926214
0.000902792
0.000882083
0.000862853
0.000845596
0.000829534
0.000814971
0.000801233
0.00079066
0.000778017
0.000764519
0.000750428
0.000735788
0.000720047
0.000703205
0.000684367
0.000664578
0.000644582
0.000624364
0.000603891
0.000583164
0.000562171
0.000540902
0.000519362
0.000497581
0.000475603
0.000453482
0.000431274
0.000409036
0.000386818
0.000364677
0.000342668
0.000320793
0.000299081
0.000277552
0.000256211
0.000235056
0.000214096
0.000193305
0.00017266
0.000152137
0.000131715
0.000111366
9.1069e-05
7.08009e-05
5.05433e-05
3.02806e-05
1.00263e-05
0.00471626
0.00468529
0.00465009
0.00462177
0.00459624
0.00457201
0.00454875
0.00452643
0.00450473
0.00448339
0.0044623
0.00444137
0.00442057
0.00439988
0.00437929
0.0043588
0.00433843
0.00431818
0.00429806
0.00427808
0.00425825
0.00423859
0.00421913
0.00419988
0.00418087
0.00416214
0.00414372
0.00412565
0.004108
0.00409081
0.00407416
0.00405812
0.00404279
0.00402804
0.00401431
0.00400107
0.0039866
0.00397031
0.00395194
0.00393076
0.00390618
0.00387716
0.00384458
0.0038095
0.00377183
0.00373172
0.00368936
0.00364479
0.003599
0.00355149
0.00350284
0.00345385
0.00340439
0.00335536
0.00330659
0.0032589
0.00321246
0.00316739
0.00312461
0.00308323
0.00304472
0.00300824
0.00297404
0.00294227
0.00291231
0.00288464
0.0028584
0.00283396
0.0028107
0.00278864
0.00276758
0.0027472
0.00272763
0.0027086
0.00269007
0.00267206
0.00265448
0.00263732
0.00262062
0.00260438
0.0025886
0.00257332
0.00255853
0.00254425
0.00253049
0.00251722
0.00250443
0.00249211
0.00248023
0.00246877
0.0024577
0.00244699
0.00243662
0.00242659
0.00241684
0.00240739
0.00239819
0.00238923
0.00238047
0.0023719
0.00236346
0.00235513
0.00234685
0.00233858
0.00233026
0.00232181
0.0023132
0.00230432
0.00229512
0.00228549
0.00227535
0.00226459
0.00225312
0.0022408
0.00222755
0.00221318
0.00219764
0.0021808
0.00216254
0.00214279
0.00212149
0.00209854
0.00207394
0.00204767
0.00201971
0.00199009
0.00195885
0.00192602
0.00189166
0.00185581
0.00181849
0.00177985
0.00173991
0.00169862
0.00165626
0.00161284
0.00156828
0.00152322
0.00147736
0.0014312
0.00138493
0.00133885
0.00129334
0.00124882
0.00120535
0.00116382
0.00112359
0.00108605
0.00105062
0.0010175
0.000987251
0.00095898
0.000933676
0.000910159
0.000889139
0.000869684
0.000852013
0.000835608
0.000820703
0.000806289
0.000794397
0.000780756
0.000766301
0.000751224
0.000735506
0.000718705
0.000700967
0.000681771
0.000661928
0.000641952
0.000621789
0.000601393
0.000580763
0.000559882
0.000538734
0.000517322
0.000495672
0.000473828
0.000451833
0.000429756
0.000407645
0.000385553
0.000363533
0.000341594
0.000319797
0.000298163
0.000276706
0.000255436
0.000234357
0.000213449
0.000192715
0.000172133
0.000151678
0.000131326
0.000111051
9.08267e-05
7.06309e-05
5.04412e-05
3.02387e-05
1.00009e-05
0.00470097
0.00467623
0.00464668
0.00462072
0.0045967
0.00457309
0.00454995
0.00452773
0.00450602
0.0044846
0.00446342
0.00444243
0.00442158
0.00440086
0.00438025
0.00435975
0.00433936
0.0043191
0.00429897
0.00427897
0.00425913
0.00423945
0.00421995
0.00420066
0.00418159
0.00416279
0.00414427
0.00412608
0.00410826
0.00409085
0.0040739
0.00405746
0.00404158
0.0040261
0.0040113
0.00399668
0.00398072
0.00396289
0.00394291
0.00392018
0.00389432
0.00386464
0.00383188
0.00379685
0.00375949
0.00371997
0.00367852
0.00363532
0.003591
0.00354532
0.00349899
0.0034524
0.00340553
0.00335904
0.00331291
0.00326767
0.00322338
0.00318029
0.00313897
0.00309886
0.00306092
0.00302474
0.00299051
0.0029584
0.00292798
0.00289965
0.00287278
0.00284766
0.0028238
0.00280118
0.00277964
0.00275887
0.00273894
0.00271962
0.00270084
0.00268258
0.00266477
0.00264738
0.00263043
0.00261391
0.00259784
0.00258225
0.00256713
0.00255251
0.0025384
0.00252477
0.00251164
0.00249897
0.00248674
0.00247491
0.00246348
0.0024524
0.00244164
0.00243119
0.00242101
0.00241111
0.00240141
0.00239195
0.00238265
0.00237354
0.00236452
0.00235561
0.00234673
0.00233785
0.00232891
0.00231984
0.00231059
0.00230105
0.00229116
0.00228082
0.00226993
0.00225838
0.00224607
0.00223286
0.00221867
0.00220332
0.00218676
0.00216889
0.00214958
0.0021288
0.0021065
0.0020826
0.00205714
0.00203011
0.0020015
0.00197137
0.00193976
0.00190671
0.00187229
0.00183655
0.00179952
0.00176132
0.00172205
0.0016816
0.00164022
0.00159804
0.00155501
0.00151157
0.00146761
0.00142349
0.00137942
0.00133564
0.00129244
0.00125012
0.0012088
0.00116896
0.0011304
0.00109394
0.00105931
0.00102664
0.000996399
0.000968001
0.000942213
0.000918201
0.000896517
0.000876456
0.000858166
0.000841139
0.000825629
0.00081051
0.00079753
0.000782934
0.000767538
0.000751516
0.000734855
0.000717191
0.000698797
0.000679285
0.000659339
0.000639356
0.000619234
0.000598908
0.000578364
0.000557581
0.000536536
0.000515228
0.000493684
0.000471946
0.000450061
0.00042809
0.000406083
0.000384092
0.00036216
0.000340322
0.00031862
0.000297075
0.000275703
0.000254515
0.000233513
0.000212689
0.000192037
0.000171537
0.000151164
0.000130894
0.000110699
9.05536e-05
7.04319e-05
5.03095e-05
3.01669e-05
9.96249e-06
0.00469126
0.00466848
0.00464237
0.00461892
0.00459638
0.00457352
0.00455091
0.00452885
0.00450709
0.00448568
0.00446449
0.00444344
0.00442255
0.00440179
0.00438115
0.00436062
0.00434021
0.00431992
0.00429976
0.00427972
0.00425984
0.0042401
0.00422054
0.00420117
0.004182
0.00416306
0.00414439
0.004126
0.00410793
0.00409021
0.00407286
0.00405591
0.00403938
0.00402308
0.00400722
0.00399132
0.00397401
0.0039548
0.00393344
0.00390948
0.00388269
0.00385255
0.00381974
0.00378488
0.00374799
0.00370927
0.00366896
0.00362728
0.00358439
0.00354085
0.00349693
0.00345272
0.0034084
0.00336442
0.00332082
0.00327792
0.0032358
0.00319462
0.00315476
0.00311591
0.00307862
0.0030428
0.0030086
0.00297617
0.00294527
0.00291623
0.00288863
0.0028627
0.00283807
0.00281472
0.00279251
0.00277117
0.00275073
0.00273096
0.0027118
0.00269319
0.00267506
0.00265737
0.00264011
0.00262329
0.0026069
0.00259097
0.00257551
0.00256054
0.00254608
0.0025321
0.00251862
0.00250561
0.00249303
0.00248087
0.00246909
0.00245765
0.00244651
0.00243567
0.00242506
0.00241471
0.00240454
0.00239457
0.00238473
0.00237506
0.00236545
0.00235594
0.00234644
0.00233692
0.00232734
0.00231759
0.00230766
0.0022974
0.00228678
0.00227566
0.00226396
0.00225155
0.00223834
0.00222417
0.00220899
0.00219262
0.00217502
0.00215611
0.00213578
0.00211402
0.00209079
0.00206607
0.00203988
0.00201225
0.00198319
0.00195275
0.001921
0.00188797
0.00185374
0.00181836
0.00178186
0.00174437
0.00170596
0.00166658
0.00162649
0.00158575
0.00154438
0.00150271
0.00146072
0.00141868
0.00137677
0.00133518
0.00129413
0.00125383
0.00121438
0.00117609
0.00113892
0.00110336
0.00106932
0.0010369
0.00100651
0.000977797
0.000951357
0.000926638
0.000904092
0.000883148
0.000864136
0.000846257
0.000829938
0.000814026
0.000800056
0.000784536
0.000768234
0.000751328
0.000733838
0.000715431
0.000696489
0.000676654
0.000656568
0.000636562
0.000616474
0.000596206
0.000575736
0.000555037
0.000534082
0.000512869
0.000491424
0.000469789
0.000448014
0.000426155
0.000404263
0.000382387
0.00036057
0.00033885
0.000317261
0.000295825
0.000274559
0.000253474
0.000232571
0.000211847
0.000191289
0.000170881
0.0001506
0.000130418
0.00011031
9.02462e-05
7.02024e-05
5.01514e-05
3.00757e-05
9.92407e-06
0.00468461
0.00466269
0.00463862
0.00461697
0.00459561
0.00457359
0.00455148
0.00452964
0.00450802
0.00448668
0.00446548
0.0044444
0.00442347
0.00440268
0.004382
0.00436143
0.00434098
0.00432065
0.00430043
0.00428034
0.00426038
0.00424057
0.0042209
0.00420141
0.00418209
0.00416298
0.00414409
0.00412544
0.00410705
0.00408894
0.00407112
0.00405359
0.00403634
0.00401919
0.0040023
0.00398521
0.00396666
0.00394622
0.0039237
0.00389874
0.00387124
0.00384081
0.00380806
0.00377351
0.00373725
0.00369946
0.00366039
0.00362024
0.00357911
0.00353769
0.00349596
0.00345406
0.00341218
0.0033706
0.00332938
0.00328868
0.00324861
0.00320923
0.00317084
0.00313326
0.00309671
0.00306134
0.00302733
0.00299473
0.00296346
0.00293378
0.00290547
0.00287871
0.00285324
0.00282905
0.00280605
0.00278398
0.00276289
0.00274254
0.00272286
0.00270379
0.00268524
0.00266717
0.00264955
0.00263237
0.00261562
0.00259934
0.00258353
0.0025682
0.00255337
0.00253905
0.00252521
0.00251187
0.00249895
0.00248646
0.00247435
0.00246256
0.00245107
0.00243986
0.00242884
0.00241806
0.00240742
0.00239695
0.00238657
0.00237634
0.00236613
0.002356
0.00234585
0.00233565
0.00232538
0.00231491
0.00230423
0.0022932
0.00228177
0.00226981
0.00225722
0.00224388
0.0022297
0.00221453
0.00219833
0.00218093
0.00216231
0.00214239
0.00212111
0.00209847
0.00207446
0.00204906
0.00202233
0.00199429
0.00196499
0.00193447
0.00190279
0.00187
0.00183617
0.00180135
0.00176558
0.00172899
0.00169159
0.00165344
0.00161478
0.00157557
0.00153588
0.001496
0.00145595
0.00141591
0.00137604
0.00133646
0.00129736
0.00125885
0.00122105
0.00118414
0.00114814
0.00111333
0.00107975
0.0010475
0.00101692
0.000987803
0.000960644
0.000935109
0.000911591
0.000889653
0.000869674
0.000850829
0.00083359
0.00081678
0.000801836
0.000785421
0.000768265
0.000750558
0.000732356
0.000713317
0.000693909
0.000673772
0.000653545
0.000633509
0.000613436
0.000593202
0.000572781
0.000552142
0.000531258
0.000510127
0.000488778
0.000467253
0.000445604
0.000423879
0.00040213
0.000380401
0.000358735
0.000337167
0.000315724
0.00029443
0.0002733
0.000252343
0.000231561
0.000210951
0.0001905
0.000170192
0.000150006
0.000129914
0.000109892
8.99104e-05
6.99452e-05
4.99692e-05
2.99679e-05
9.88201e-06
0.00468005
0.00465858
0.00463571
0.00461525
0.00459478
0.00457342
0.00455176
0.00453022
0.00450882
0.00448753
0.00446634
0.00444528
0.00442434
0.00440351
0.00438279
0.00436218
0.00434168
0.00432129
0.004301
0.00428084
0.00426079
0.00424086
0.00422107
0.00420141
0.00418191
0.00416258
0.00414342
0.00412445
0.00410569
0.00408713
0.00406877
0.0040506
0.0040326
0.00401459
0.0039967
0.00397849
0.00395882
0.00393731
0.00391381
0.00388806
0.00386005
0.00382948
0.00379691
0.00376279
0.00372725
0.00369048
0.0036527
0.00361408
0.00357486
0.00353539
0.00349574
0.00345605
0.00341645
0.0033771
0.00333805
0.0032994
0.00326121
0.0032235
0.00318656
0.0031503
0.00311452
0.00307968
0.00304602
0.00301344
0.00298195
0.0029518
0.00292288
0.00289534
0.00286906
0.00284401
0.00282015
0.00279727
0.00277541
0.00275435
0.00273404
0.0027144
0.00269533
0.00267678
0.00265872
0.00264113
0.00262399
0.00260731
0.00259112
0.00257541
0.00256022
0.00254553
0.00253134
0.00251765
0.0025044
0.00249157
0.00247914
0.00246702
0.00245517
0.0024436
0.00243219
0.00242099
0.00240988
0.00239892
0.00238799
0.00237719
0.00236636
0.00235558
0.00234475
0.00233384
0.00232282
0.00231157
0.00230008
0.0022882
0.00227589
0.00226301
0.00224947
0.00223515
0.00221996
0.00220377
0.00218655
0.00216814
0.00214855
0.00212772
0.0021056
0.00208223
0.0020576
0.00203171
0.00200464
0.00197642
0.00194708
0.00191669
0.00188529
0.00185295
0.0018197
0.00178562
0.00175074
0.00171515
0.00167889
0.00164207
0.00160481
0.00156713
0.00152912
0.00149098
0.00145275
0.00141457
0.00137656
0.00133882
0.00130144
0.00126452
0.00122817
0.00119247
0.00115746
0.00112332
0.00109011
0.001058
0.00102722
0.000997682
0.000969795
0.000943397
0.000918838
0.000895821
0.000874641
0.000854758
0.000836525
0.00081875
0.000802808
0.000785525
0.000767574
0.000749152
0.000730346
0.000710787
0.000690987
0.000670597
0.000650244
0.00063016
0.000610069
0.000589827
0.000569412
0.000548798
0.000527958
0.000506895
0.000485641
0.000464241
0.000442744
0.000421192
0.000399628
0.000378096
0.000356631
0.000335263
0.000314014
0.000292904
0.000271945
0.000251146
0.000230509
0.000210028
0.000189693
0.00016949
0.000149398
0.000129393
0.000109452
8.95491e-05
6.9661e-05
4.97622e-05
2.98435e-05
9.82882e-06
0.00467697
0.00465574
0.00463359
0.00461391
0.00459406
0.0045732
0.00455193
0.00453066
0.00450943
0.00448824
0.0044671
0.00444606
0.00442511
0.00440426
0.00438351
0.00436286
0.0043423
0.00432185
0.00430149
0.00428123
0.00426107
0.00424101
0.00422106
0.00420123
0.00418151
0.00416192
0.00414245
0.00412313
0.00410394
0.00408488
0.00406595
0.00404711
0.00402834
0.00400948
0.00399062
0.00397134
0.00395066
0.00392822
0.00390391
0.00387755
0.00384918
0.00381862
0.00378633
0.00375273
0.00371798
0.00368228
0.00364583
0.00360877
0.00357135
0.00353375
0.00349609
0.00345846
0.00342094
0.00338362
0.00334656
0.00330977
0.00327332
0.00323722
0.00320156
0.00316652
0.00313173
0.00309751
0.00306425
0.00303185
0.00300036
0.00296991
0.00294054
0.00291237
0.00288535
0.00285949
0.00283478
0.00281106
0.00278836
0.00276652
0.00274547
0.00272516
0.00270547
0.00268634
0.00266776
0.00264967
0.00263207
0.00261496
0.00259834
0.00258222
0.00256663
0.00255155
0.00253697
0.00252292
0.0025093
0.00249612
0.00248333
0.00247086
0.00245865
0.00244671
0.00243489
0.00242326
0.00241168
0.00240022
0.00238874
0.00237734
0.00236587
0.00235441
0.00234285
0.00233118
0.00231937
0.00230728
0.00229492
0.00228214
0.00226888
0.00225503
0.00224049
0.00222517
0.00220896
0.00219177
0.00217356
0.00215422
0.00213376
0.00211215
0.00208936
0.00206543
0.00204038
0.00201422
0.00198702
0.00195882
0.00192967
0.0018996
0.00186867
0.00183692
0.00180441
0.00177118
0.00173729
0.00170275
0.0016677
0.0016322
0.00159633
0.00156015
0.00152373
0.00148722
0.00145069
0.0014142
0.00137787
0.00134174
0.0013059
0.00127039
0.00123529
0.00120064
0.00116657
0.00113301
0.0011001
0.00106815
0.00103721
0.00100726
0.000978677
0.000951416
0.000925791
0.000901638
0.000879204
0.000858151
0.000838839
0.000820038
0.000803031
0.000784895
0.000766199
0.000747136
0.00072781
0.000707826
0.000687694
0.000667102
0.00064664
0.00062648
0.000606323
0.000586024
0.000565568
0.000544938
0.000524115
0.000503111
0.000481961
0.000460713
0.000439406
0.000418071
0.000396745
0.000375468
0.000354262
0.00033315
0.000312147
0.000291267
0.000270518
0.000249907
0.000229434
0.000209096
0.000188883
0.000168785
0.000148784
0.000128861
0.000108995
8.91647e-05
6.93514e-05
4.95316e-05
2.97046e-05
9.76113e-06
0.00467503
0.00465396
0.00463223
0.00461301
0.00459358
0.00457306
0.00455206
0.004531
0.00450992
0.00448881
0.00446773
0.00444671
0.00442577
0.00440491
0.00438413
0.00436344
0.00434284
0.00432232
0.00430188
0.00428152
0.00426125
0.00424105
0.00422094
0.0042009
0.00418095
0.00416107
0.00414128
0.00412157
0.00410193
0.00408236
0.00406282
0.00404329
0.00402375
0.00400406
0.00398425
0.00396396
0.00394235
0.00391912
0.00389414
0.00386731
0.00383872
0.00380826
0.00377635
0.00374333
0.00370942
0.00367482
0.00363969
0.00360417
0.00356844
0.00353264
0.00349683
0.00346109
0.00342547
0.00338999
0.00335471
0.00331962
0.00328475
0.00325011
0.00321572
0.00318175
0.00314797
0.00311463
0.00308181
0.00304969
0.00301837
0.00298782
0.00295818
0.00292954
0.00290193
0.00287537
0.00284987
0.00282533
0.00280179
0.00277913
0.00275728
0.00273621
0.00271582
0.00269604
0.00267682
0.00265816
0.00264002
0.00262239
0.00260529
0.0025887
0.00257265
0.00255712
0.00254211
0.00252763
0.0025136
0.00250001
0.00248682
0.00247395
0.00246133
0.00244897
0.00243671
0.00242462
0.00241254
0.00240054
0.00238848
0.00237647
0.00236433
0.00235217
0.00233985
0.00232738
0.00231472
0.00230175
0.00228847
0.00227474
0.00226051
0.00224568
0.00223014
0.00221382
0.00219664
0.00217851
0.00215941
0.00213926
0.00211807
0.00209586
0.0020726
0.00204833
0.00202307
0.00199684
0.00196973
0.00194176
0.00191296
0.00188337
0.00185305
0.00182202
0.00179033
0.00175801
0.00172512
0.00169171
0.00165786
0.00162364
0.0015891
0.00155434
0.0015194
0.00148439
0.00144938
0.00141442
0.00137958
0.00134489
0.0013104
0.00127614
0.00124213
0.00120844
0.00117515
0.00114218
0.00110961
0.00107778
0.00104671
0.00101641
0.000987209
0.000959126
0.000932455
0.000907152
0.000883445
0.000861149
0.000840647
0.000820776
0.000802625
0.000783633
0.000764227
0.000744575
0.00072478
0.000704441
0.00068402
0.000663272
0.000642706
0.00062244
0.00060218
0.000581788
0.000561258
0.000540579
0.000519747
0.000498788
0.00047776
0.00045671
0.000435644
0.00041457
0.00039353
0.000372559
0.000351671
0.000330867
0.000310157
0.000289545
0.000269038
0.000248638
0.000228347
0.00020816
0.000188071
0.000168077
0.000148164
0.000128317
0.00010852
8.87585e-05
6.90189e-05
4.92814e-05
2.95549e-05
9.68249e-06
0.00467405
0.00465309
0.00463158
0.0046126
0.0045934
0.00457308
0.00455224
0.0045313
0.00451032
0.00448928
0.00446824
0.00444724
0.00442631
0.00440544
0.00438465
0.00436393
0.00434328
0.0043227
0.00430219
0.00428174
0.00426135
0.00424101
0.00422073
0.00420049
0.00418029
0.00416013
0.00413999
0.00411988
0.00409979
0.00407969
0.00405955
0.00403933
0.00401901
0.00399851
0.0039778
0.00395655
0.0039341
0.00391016
0.00388463
0.00385745
0.00382872
0.00379845
0.00376695
0.00373457
0.00370153
0.00366804
0.00363421
0.00360017
0.00356604
0.00353191
0.00349782
0.0034638
0.00342989
0.00339607
0.0033624
0.00332882
0.00329538
0.00326208
0.0032289
0.00319598
0.00316317
0.00313064
0.00309847
0.00306682
0.00303572
0.00300523
0.00297551
0.0029466
0.00291855
0.00289145
0.00286527
0.00284
0.00281568
0.00279221
0.00276955
0.00274767
0.00272651
0.00270603
0.00268609
0.00266676
0.002648
0.00262977
0.0026121
0.00259498
0.00257839
0.00256233
0.0025468
0.00253181
0.00251728
0.00250319
0.0024895
0.00247614
0.00246303
0.00245018
0.00243741
0.0024248
0.00241216
0.00239959
0.00238692
0.00237426
0.00236142
0.00234852
0.00233542
0.00232212
0.0023086
0.00229473
0.00228052
0.00226585
0.00225065
0.00223485
0.00221835
0.00220111
0.00218306
0.00216412
0.00214427
0.00212347
0.00210174
0.00207913
0.00205563
0.00203123
0.00200595
0.00197987
0.00195303
0.00192544
0.00189714
0.00186816
0.00183852
0.00180827
0.00177744
0.00174606
0.00171418
0.00168186
0.00164916
0.00161615
0.00158287
0.00154941
0.00151583
0.00148218
0.00144854
0.00141494
0.00138141
0.00134799
0.00131469
0.00128153
0.00124852
0.00121568
0.00118307
0.00115064
0.0011185
0.00108685
0.00105562
0.00102505
0.000995327
0.000966485
0.000938824
0.000912388
0.000887401
0.00086383
0.000842047
0.000821071
0.000801701
0.000781838
0.000761742
0.000741532
0.000721288
0.000700639
0.000679968
0.000659117
0.000638466
0.00061806
0.00059765
0.000577164
0.000556587
0.000535883
0.000515038
0.000494065
0.000473123
0.00045232
0.000431566
0.000410801
0.000390085
0.000369464
0.000348931
0.000328471
0.000308086
0.000287767
0.000267519
0.000247346
0.000227245
0.00020721
0.000187243
0.000167348
0.000147521
0.000127749
0.000108022
8.83302e-05
6.86669e-05
4.90168e-05
2.93973e-05
9.6017e-06
0.00467397
0.00465308
0.00463163
0.0046127
0.00459355
0.00457329
0.0045525
0.0045316
0.00451065
0.00448965
0.00446863
0.00444765
0.00442672
0.00440586
0.00438506
0.00436432
0.00434364
0.00432301
0.00430243
0.0042819
0.0042614
0.00424093
0.00422048
0.00420004
0.00417961
0.00415916
0.00413869
0.00411817
0.00409763
0.00407704
0.0040563
0.00403539
0.00401432
0.00399303
0.00397145
0.00394928
0.00392605
0.00390148
0.00387548
0.00384801
0.00381922
0.00378917
0.00375812
0.00372639
0.00369425
0.00366185
0.00362929
0.00359667
0.00356404
0.00353147
0.00349895
0.00346648
0.0034341
0.00340176
0.00336951
0.00333729
0.00330514
0.00327306
0.003241
0.0032091
0.00317722
0.00314553
0.00311406
0.00308292
0.00305219
0.00302194
0.00299229
0.00296324
0.00293494
0.00290747
0.00288077
0.00285488
0.00282988
0.00280567
0.00278223
0.00275955
0.00273761
0.00271633
0.00269569
0.00267564
0.00265618
0.00263725
0.00261892
0.00260117
0.00258396
0.00256726
0.0025511
0.0025355
0.00252035
0.00250565
0.00249134
0.00247738
0.00246367
0.0024502
0.00243684
0.00242361
0.00241036
0.00239715
0.00238382
0.00237046
0.00235691
0.00234324
0.00232936
0.00231524
0.00230086
0.00228613
0.00227102
0.00225543
0.00223932
0.00222262
0.00220526
0.0021872
0.00216841
0.00214883
0.00212844
0.00210721
0.0020852
0.00206242
0.00203888
0.00201452
0.00198939
0.00196362
0.00193718
0.00191008
0.00188236
0.00185403
0.00182513
0.00179567
0.00176569
0.00173523
0.00170432
0.00167303
0.0016414
0.00160951
0.00157738
0.00154512
0.00151275
0.00148032
0.0014479
0.0014155
0.00138313
0.00135084
0.00131859
0.00128641
0.00125429
0.00122222
0.00119026
0.00115837
0.00112662
0.00109513
0.00106391
0.00103318
0.00100294
0.000973428
0.000944869
0.000917338
0.000891077
0.000866232
0.000843089
0.000820977
0.00080033
0.00077957
0.000758788
0.00073804
0.000717362
0.000696438
0.000675536
0.000654643
0.000634013
0.000613491
0.000592814
0.000572191
0.000551618
0.000530869
0.000510039
0.000489214
0.000468478
0.000447884
0.000427367
0.000406897
0.000386536
0.00036629
0.000346128
0.000326021
0.000305977
0.00028595
0.000265961
0.000246013
0.000226099
0.000206221
0.000186383
0.000166588
0.000146837
0.000127131
0.000107475
8.78664e-05
6.82925e-05
4.87426e-05
2.92341e-05
9.52659e-06
0.00467478
0.00465392
0.00463238
0.00461332
0.00459405
0.0045737
0.00455284
0.0045319
0.00451093
0.00448992
0.00446891
0.00444794
0.00442702
0.00440617
0.00438537
0.00436462
0.00434392
0.00432325
0.00430262
0.00428202
0.00426143
0.00424084
0.00422024
0.00419961
0.00417895
0.00415824
0.00413746
0.00411659
0.0040956
0.00407448
0.00405317
0.00403163
0.00400986
0.0039878
0.00396537
0.00394234
0.00391836
0.0038932
0.00386676
0.00383905
0.00381023
0.00378041
0.00374981
0.00371875
0.0036875
0.00365618
0.00362486
0.00359359
0.00356235
0.0035312
0.0035001
0.00346902
0.00343799
0.00340696
0.00337597
0.00334497
0.00331397
0.00328299
0.00325196
0.00322104
0.00319005
0.00315918
0.00312843
0.00309788
0.00306763
0.00303771
0.00300824
0.00297925
0.00295088
0.00292317
0.00289607
0.00286972
0.00284417
0.00281933
0.00279518
0.00277175
0.00274907
0.00272701
0.00270563
0.00268482
0.00266457
0.0026449
0.00262582
0.00260736
0.00258941
0.00257199
0.00255511
0.00253878
0.0025229
0.00250746
0.00249241
0.0024777
0.00246326
0.00244907
0.00243499
0.00242105
0.00240711
0.00239317
0.00237914
0.00236505
0.00235076
0.00233633
0.00232166
0.00230675
0.00229156
0.00227602
0.0022601
0.00224372
0.00222682
0.0022094
0.00219138
0.00217271
0.0021533
0.00213314
0.00211231
0.00209089
0.00206883
0.00204605
0.00202259
0.00199849
0.00197374
0.00194839
0.00192241
0.00189582
0.00186869
0.00184103
0.00181284
0.00178415
0.00175497
0.00172536
0.00169536
0.00166501
0.00163436
0.00160349
0.00157241
0.00154121
0.00150992
0.00147859
0.00144724
0.0014159
0.00138456
0.00135326
0.00132194
0.00129064
0.00125932
0.00122798
0.00119663
0.00116526
0.0011339
0.00110265
0.00107149
0.00104062
0.00101001
0.000979962
0.000950561
0.000921937
0.000894452
0.000868346
0.000843769
0.000820475
0.00079853
0.000776836
0.000755356
0.00073409
0.000713018
0.000691933
0.000670764
0.000649776
0.000629215
0.000608633
0.000587957
0.000567286
0.000546605
0.00052585
0.000505093
0.000484411
0.000463858
0.000443462
0.000423209
0.000403081
0.000383079
0.000363185
0.000343363
0.000323576
0.000303875
0.000284112
0.000264365
0.000244629
0.000224895
0.000205165
0.000185449
0.000165757
0.000146096
0.000126474
0.000106899
8.73724e-05
6.7894e-05
4.84547e-05
2.90837e-05
9.48464e-06
0.00467656
0.00465568
0.00463387
0.00461446
0.00459488
0.00457428
0.00455324
0.00453217
0.00451113
0.00449009
0.00446908
0.00444811
0.00442721
0.00440638
0.00438559
0.00436485
0.00434414
0.00432346
0.00430279
0.00428213
0.00426147
0.00424077
0.00422005
0.00419926
0.00417841
0.00415745
0.00413639
0.00411517
0.00409379
0.00407219
0.00405035
0.00402822
0.00400577
0.00398297
0.00395972
0.00393585
0.00391114
0.00388539
0.00385852
0.00383058
0.00380172
0.00377212
0.00374197
0.00371158
0.00368123
0.00365098
0.00362083
0.00359083
0.00356088
0.00353102
0.00350118
0.00347133
0.00344149
0.00341161
0.00338173
0.0033518
0.00332183
0.00329185
0.00326177
0.00323176
0.00320162
0.00317155
0.00314152
0.00311161
0.00308188
0.00305237
0.0030232
0.0029944
0.00296605
0.00293823
0.00291094
0.0028843
0.00285829
0.00283294
0.00280815
0.00278406
0.00276073
0.00273797
0.00271581
0.00269423
0.00267321
0.00265281
0.002633
0.00261371
0.00259492
0.00257663
0.00255894
0.00254181
0.00252511
0.00250882
0.00249291
0.00247734
0.00246205
0.002447
0.00243211
0.00241735
0.00240261
0.00238793
0.00237316
0.00235832
0.00234332
0.00232817
0.00231278
0.00229713
0.00228113
0.00226477
0.00224809
0.00223103
0.00221356
0.00219557
0.00217701
0.00215787
0.00213811
0.0021177
0.00209669
0.00207521
0.00205323
0.00203058
0.0020073
0.00198348
0.00195911
0.00193419
0.00190871
0.00188269
0.00185615
0.00182911
0.00180158
0.00177357
0.00174513
0.0017163
0.0016871
0.0016576
0.00162783
0.00159787
0.00156773
0.00153748
0.00150716
0.00147679
0.00144639
0.00141599
0.00138556
0.00135514
0.00132466
0.00129415
0.00126356
0.00123288
0.00120213
0.00117127
0.00114031
0.00110935
0.0010783
0.00104739
0.00101652
0.000985973
0.000955773
0.000926223
0.000897608
0.000870118
0.00084401
0.000819498
0.000796266
0.000773579
0.00075138
0.000729621
0.000708159
0.000686873
0.000665743
0.000644886
0.000624301
0.000603726
0.000583094
0.000562433
0.000541752
0.000521057
0.000500409
0.000479875
0.000459506
0.000439326
0.000419332
0.0003995
0.000379807
0.000360221
0.000340703
0.000321215
0.000301752
0.00028224
0.000262714
0.000243167
0.000223594
0.000204003
0.000184408
0.000164822
0.000145259
0.000125731
0.000106251
8.68268e-05
6.74635e-05
4.81536e-05
2.89261e-05
9.45827e-06
0.00467949
0.0046585
0.00463614
0.0046161
0.00459599
0.00457498
0.00455364
0.00453238
0.00451123
0.00449015
0.00446914
0.00444818
0.00442731