/*--------------------------------*- C++ -*----------------------------------*\
| =========                 |                                                 |
| \\      /  F ield         | OpenFOAM: The Open Source CFD Toolbox           |
|  \\    /   O peration     | Version:  2506                                  |
|   \\  /    A nd           | Website:  www.openfoam.com                      |
|    \\/     M anipulation  |                                                 |
\*---------------------------------------------------------------------------*/
FoamFile
{
    version     2.0;
    format      ascii;
    arch        "LSB;label=32;scalar=64";
    class       volScalarField;
    location    "1.7";
    object      p;
}
// * * * * * * * * * * * * * * * * * * * * * * * * * * * * * * * * * * * * * //

dimensions      [0 2 -2 0 0 0 0];

internalField   nonuniform List<scalar> 
4000
(
-7.00193e-05
-8.83957e-06
9.88973e-06
1.33508e-05
1.57366e-05
1.74652e-05
1.84028e-05
1.91121e-05
1.98541e-05
2.0707e-05
2.17018e-05
2.28645e-05
2.42139e-05
2.57639e-05
2.75276e-05
2.95185e-05
3.17503e-05
3.42372e-05
3.69932e-05
4.00322e-05
4.33683e-05
4.70147e-05
5.09854e-05
5.52919e-05
5.99434e-05
6.49457e-05
7.03015e-05
7.60081e-05
8.2058e-05
8.84786e-05
9.52141e-05
0.000101471
0.000107699
0.000113833
0.000119115
0.000123075
0.000126168
0.000126352
0.000126698
0.000129101
0.000130823
0.000132079
0.000132955
0.000133169
0.000132496
0.000130708
0.000127791
0.000123432
0.000117716
0.000110649
0.000102403
9.36248e-05
8.35085e-05
7.3716e-05
6.33654e-05
5.35171e-05
4.24274e-05
3.05775e-05
1.62413e-05
-1.32153e-06
-2.20022e-05
-4.53662e-05
-6.63307e-05
-8.30445e-05
-9.65508e-05
-0.000106423
-0.000114171
-0.000119805
-0.000123947
-0.000126823
-0.000128635
-0.000129436
-0.000129227
-0.000128034
-0.000125901
-0.000122844
-0.000118843
-0.000113844
-0.000107847
-0.000100828
-9.27396e-05
-8.34573e-05
-7.30206e-05
-6.13248e-05
-4.84416e-05
-3.43511e-05
-1.93924e-05
-3.98777e-06
1.13483e-05
2.59018e-05
3.89143e-05
5.02764e-05
6.05143e-05
6.98008e-05
7.8265e-05
8.641e-05
9.42853e-05
0.000101619
0.000107797
0.000112273
0.000114836
0.000115357
0.000113887
0.000110616
0.000106059
0.000100837
9.51047e-05
8.9202e-05
8.31184e-05
7.66749e-05
6.99561e-05
6.36157e-05
5.63143e-05
4.93356e-05
4.08966e-05
3.10857e-05
1.85074e-05
2.51755e-06
-1.68045e-05
-3.89731e-05
-5.99154e-05
-7.7816e-05
-9.26821e-05
-0.000104075
-0.000112986
-0.000119709
-0.00012493
-0.000128824
-0.000131571
-0.000133297
-0.000134035
-0.000133793
-0.000132587
-0.000130425
-0.000127314
-0.000123238
-0.000118168
-0.000112071
-0.000104842
-9.64964e-05
-8.70061e-05
-7.62105e-05
-6.42139e-05
-5.09357e-05
-3.66189e-05
-2.15996e-05
-6.38459e-06
8.38433e-06
2.18946e-05
3.37029e-05
4.40114e-05
5.33032e-05
6.16953e-05
6.94566e-05
7.69233e-05
8.39127e-05
8.98887e-05
9.42062e-05
9.63415e-05
9.61876e-05
9.37095e-05
8.87017e-05
8.09323e-05
7.56455e-05
7.04231e-05
6.47517e-05
5.95582e-05
5.45231e-05
4.94959e-05
4.42478e-05
3.88453e-05
3.37629e-05
2.97644e-05
2.65241e-05
2.3773e-05
2.14394e-05
1.94594e-05
1.77429e-05
1.6212e-05
1.4823e-05
1.35587e-05
1.24166e-05
1.14091e-05
1.05571e-05
9.88892e-06
9.4363e-06
9.23638e-06
9.33523e-06
9.80699e-06
1.07015e-05
1.21148e-05
1.41735e-05
1.70619e-05
2.10852e-05
2.68035e-05
3.5325e-05
4.90084e-05
7.25905e-05
0.000118107
0.000210772
-2.73284e-05
-2.81617e-06
7.03679e-06
1.08579e-05
1.32862e-05
1.50258e-05
1.62754e-05
1.73338e-05
1.83691e-05
1.94514e-05
2.06224e-05
2.19166e-05
2.33614e-05
2.49783e-05
2.67862e-05
2.88027e-05
3.10442e-05
3.35265e-05
3.6265e-05
3.92745e-05
4.25696e-05
4.61639e-05
5.00706e-05
5.43011e-05
5.88648e-05
6.37686e-05
6.90154e-05
7.46029e-05
8.05219e-05
8.67933e-05
9.33857e-05
9.94578e-05
0.000105393
0.000111132
0.000116199
0.000120213
0.000123241
0.000124233
0.000125018
0.000126398
0.000127138
0.000127386
0.000127166
0.000126239
0.000124433
0.000121599
0.000117711
0.000112692
0.000106446
9.90709e-05
9.07917e-05
8.2032e-05
7.25835e-05
6.32667e-05
5.36649e-05
4.41842e-05
3.39121e-05
2.32487e-05
1.09496e-05
-3.26575e-06
-1.9132e-05
-3.55881e-05
-5.25492e-05
-6.83408e-05
-8.18958e-05
-9.23965e-05
-0.000100845
-0.00010737
-0.000112394
-0.000116006
-0.00011848
-0.000119932
-0.000120351
-0.000119753
-0.000118192
-0.000115708
-0.000112288
-0.000107875
-0.00010246
-9.60299e-05
-8.85494e-05
-7.98942e-05
-7.00879e-05
-5.90471e-05
-4.68315e-05
-3.34487e-05
-1.91835e-05
-4.50051e-06
9.91259e-06
2.35059e-05
3.58792e-05
4.68883e-05
5.6839e-05
6.59835e-05
7.44689e-05
8.25234e-05
8.99888e-05
9.63403e-05
0.000101279
0.000104508
0.000105792
0.000105214
0.000102982
9.95072e-05
9.51371e-05
9.02389e-05
8.49307e-05
7.93722e-05
7.36564e-05
6.76462e-05
6.14052e-05
5.52376e-05
4.82953e-05
4.12473e-05
3.289e-05
2.33726e-05
1.21501e-05
-1.19602e-06
-1.67022e-05
-3.30508e-05
-4.97606e-05
-6.59084e-05
-7.97476e-05
-9.08157e-05
-9.9977e-05
-0.000107199
-0.000112989
-0.0001174
-0.000120609
-0.000122776
-0.000123956
-0.000124144
-0.000123354
-0.000121606
-0.000118909
-0.000115251
-0.000110606
-0.000104953
-9.81876e-05
-9.03093e-05
-8.13233e-05
-7.10925e-05
-5.96905e-05
-4.70797e-05
-3.34649e-05
-1.91915e-05
-4.91516e-06
8.75006e-06
2.13001e-05
3.24121e-05
4.22614e-05
5.11513e-05
5.93673e-05
6.69714e-05
7.40517e-05
8.01187e-05
8.45659e-05
8.71445e-05
8.75103e-05
8.56853e-05
8.18931e-05
7.6514e-05
6.9685e-05
6.5507e-05
6.0831e-05
5.60734e-05
5.1937e-05
4.78366e-05
4.37263e-05
3.96871e-05
3.56471e-05
3.15354e-05
2.81662e-05
2.53803e-05
2.29669e-05
2.08713e-05
1.90475e-05
1.74256e-05
1.59503e-05
1.45971e-05
1.3362e-05
1.22472e-05
1.12706e-05
1.04541e-05
9.82448e-06
9.4149e-06
9.26483e-06
9.42232e-06
9.93395e-06
1.08816e-05
1.23512e-05
1.44569e-05
1.73645e-05
2.13417e-05
2.68703e-05
3.48775e-05
4.71062e-05
6.63308e-05
9.55439e-05
0.000137923
-6.10343e-06
1.42586e-06
6.25565e-06
9.29356e-06
1.14623e-05
1.31878e-05
1.46183e-05
1.58899e-05
1.71035e-05
1.83267e-05
1.96073e-05
2.09835e-05
2.24863e-05
2.41414e-05
2.59707e-05
2.79938e-05
3.02287e-05
3.26925e-05
3.54012e-05
3.83702e-05
4.16142e-05
4.51476e-05
4.89823e-05
5.31301e-05
5.76004e-05
6.24006e-05
6.75336e-05
7.2997e-05
7.878e-05
8.48941e-05
9.13242e-05
9.74111e-05
0.000103352
0.000109017
0.000114008
0.000117961
0.000120883
0.000122208
0.000122969
0.000123558
0.000123498
0.000122889
0.000121741
0.000119884
0.000117204
0.000113677
0.000109196
0.000103732
9.72382e-05
8.98199e-05
8.18442e-05
7.34941e-05
6.47444e-05
5.59399e-05
4.68642e-05
3.76233e-05
2.77679e-05
1.7549e-05
6.50345e-06
-5.41735e-06
-1.82965e-05
-3.11502e-05
-4.47851e-05
-5.76995e-05
-6.97272e-05
-8.0337e-05
-8.91644e-05
-9.6197e-05
-0.00010174
-0.000105865
-0.000108813
-0.000110802
-0.000111805
-0.000111767
-0.000110725
-0.000108768
-0.000105889
-0.000102026
-9.71645e-05
-9.12923e-05
-8.43847e-05
-7.63321e-05
-6.71363e-05
-5.67444e-05
-4.51943e-05
-3.25466e-05
-1.90477e-05
-5.1551e-06
8.57304e-06
2.15879e-05
3.35917e-05
4.44486e-05
5.43186e-05
6.33307e-05
7.15706e-05
7.90711e-05
8.56674e-05
9.09897e-05
9.48108e-05
9.6976e-05
9.74792e-05
9.6458e-05
9.41626e-05
9.08504e-05
8.68753e-05
8.24067e-05
7.75568e-05
7.24481e-05
6.71292e-05
6.15465e-05
5.57086e-05
4.97318e-05
4.30263e-05
3.58805e-05
2.7467e-05
1.81051e-05
7.62553e-06
-4.1006e-06
-1.70179e-05
-3.01974e-05
-4.39976e-05
-5.73037e-05
-6.93266e-05
-7.99607e-05
-8.90643e-05
-9.63399e-05
-0.000102271
-0.000106992
-0.000110495
-0.000112937
-0.00011448
-0.000115061
-0.000114646
-0.000113271
-0.000110963
-0.000107707
-0.000103474
-9.825e-05
-9.19398e-05
-8.45294e-05
-7.60342e-05
-6.63701e-05
-5.5563e-05
-4.36575e-05
-3.08351e-05
-1.74677e-05
-4.07802e-06
8.78897e-06
2.07095e-05
3.14579e-05
4.10999e-05
4.97955e-05
5.76823e-05
6.4751e-05
7.08244e-05
7.55847e-05
7.85499e-05
7.96858e-05
7.89159e-05
7.63806e-05
7.25179e-05
6.77278e-05
6.21572e-05
5.87522e-05
5.46072e-05
5.05034e-05
4.69308e-05
4.337e-05
3.97367e-05
3.6337e-05
3.30271e-05
2.9626e-05
2.67585e-05
2.43376e-05
2.22021e-05
2.03049e-05
1.86098e-05
1.70679e-05
1.56425e-05
1.43218e-05
1.31137e-05
1.20238e-05
1.10721e-05
1.02815e-05
9.6785e-06
9.29506e-06
9.17026e-06
9.35079e-06
9.89087e-06
1.08613e-05
1.23409e-05
1.44269e-05
1.72476e-05
2.09919e-05
2.59774e-05
3.27931e-05
4.24707e-05
5.61278e-05
7.26267e-05
9.11895e-05
2.2676e-06
4.80592e-06
7.13909e-06
9.27005e-06
1.09746e-05
1.24394e-05
1.37753e-05
1.50313e-05
1.62552e-05
1.74958e-05
1.87928e-05
2.01793e-05
2.16837e-05
2.33308e-05
2.51422e-05
2.71375e-05
2.93347e-05
3.17507e-05
3.44016e-05
3.73026e-05
4.04684e-05
4.39126e-05
4.76476e-05
5.16848e-05
5.60333e-05
6.06999e-05
6.56872e-05
7.09918e-05
7.66024e-05
8.25229e-05
8.87372e-05
9.47469e-05
0.000100555
0.000105979
0.000110719
0.000114464
0.000117206
0.000118544
0.000119069
0.000119084
0.000118456
0.000117242
0.000115433
0.000112939
0.000109714
0.000105713
0.000100882
9.51622e-05
8.86773e-05
8.15606e-05
7.40344e-05
6.62261e-05
5.81641e-05
4.99977e-05
4.16058e-05
3.30017e-05
2.39449e-05
1.4528e-05
4.53087e-06
-6.08984e-06
-1.74545e-05
-2.87196e-05
-4.04523e-05
-5.13855e-05
-6.19987e-05
-7.14389e-05
-7.96381e-05
-8.68318e-05
-9.28775e-05
-9.74904e-05
-0.0001007
-0.000102968
-0.000104386
-0.0001048
-0.000104168
-0.00010264
-0.000100205
-9.67976e-05
-9.23991e-05
-8.69995e-05
-8.05796e-05
-7.30388e-05
-6.43691e-05
-5.45337e-05
-4.35815e-05
-3.16219e-05
-1.88258e-05
-5.60486e-06
7.49735e-06
1.99939e-05
3.15998e-05
4.21569e-05
5.17403e-05
6.04265e-05
6.82106e-05
7.50769e-05
8.08708e-05
8.52525e-05
8.8166e-05
8.96306e-05
8.96511e-05
8.83798e-05
8.60968e-05
8.30107e-05
7.9345e-05
7.52256e-05
7.07403e-05
6.59973e-05
6.10329e-05
5.58259e-05
5.03414e-05
4.46169e-05
3.81877e-05
3.12759e-05
2.3329e-05
1.46166e-05
5.03817e-06
-5.45728e-06
-1.68494e-05
-2.84843e-05
-4.05454e-05
-5.20817e-05
-6.27628e-05
-7.221e-05
-8.0583e-05
-8.77265e-05
-9.37692e-05
-9.86777e-05
-0.000102257
-0.000104819
-0.000106594
-0.000107454
-0.0001073
-0.000106208
-0.000104214
-0.000101287
-9.73948e-05
-9.25152e-05
-8.65764e-05
-7.95627e-05
-7.14895e-05
-6.22897e-05
-5.20116e-05
-4.07427e-05
-2.85874e-05
-1.59095e-05
-3.21377e-06
8.99832e-06
2.03625e-05
3.06667e-05
3.98927e-05
4.81555e-05
5.54598e-05
6.17073e-05
6.67615e-05
7.02544e-05
7.20637e-05
7.22229e-05
7.08055e-05
6.80391e-05
6.44467e-05
6.03128e-05
5.56148e-05
5.26582e-05
4.89919e-05
4.54548e-05
4.23648e-05
3.93386e-05
3.63306e-05
3.35385e-05
3.08104e-05
2.80062e-05
2.55511e-05
2.3407e-05
2.14752e-05
1.97236e-05
1.81254e-05
1.66473e-05
1.52687e-05
1.39846e-05
1.28028e-05
1.17393e-05
1.0811e-05
1.00409e-05
9.4556e-06
9.08682e-06
8.97261e-06
9.15895e-06
9.70039e-06
1.06606e-05
1.21104e-05
1.41282e-05
1.68017e-05
2.02384e-05
2.45973e-05
3.01656e-05
3.74485e-05
4.68912e-05
5.68275e-05
6.59403e-05
6.47458e-06
7.2599e-06
8.28716e-06
9.63032e-06
1.09365e-05
1.21535e-05
1.33183e-05
1.44651e-05
1.56238e-05
1.68205e-05
1.80827e-05
1.94363e-05
2.09055e-05
2.25124e-05
2.42769e-05
2.62174e-05
2.83511e-05
3.06944e-05
3.32625e-05
3.60702e-05
3.91315e-05
4.24596e-05
4.60666e-05
4.99631e-05
5.41577e-05
5.86564e-05
6.3461e-05
6.85674e-05
7.39639e-05
7.96494e-05
8.56015e-05
9.14265e-05
9.70003e-05
0.000102117
0.000106558
0.000110059
0.000112593
0.000113825
0.000114092
0.000113686
0.000112642
0.000110972
0.000108666
0.000105703
0.000102071
9.77162e-05
9.26768e-05
8.69437e-05
8.0636e-05
7.38841e-05
6.68356e-05
5.95993e-05
5.22055e-05
4.47221e-05
3.70833e-05
2.92784e-05
2.11733e-05
1.27758e-05
3.93015e-06
-5.45572e-06
-1.55691e-05
-2.57153e-05
-3.62632e-05
-4.60517e-05
-5.55199e-05
-6.40948e-05
-7.1735e-05
-7.84901e-05
-8.41116e-05
-8.87747e-05
-9.24707e-05
-9.52082e-05
-9.69858e-05
-9.77086e-05
-9.74671e-05
-9.63626e-05
-9.4353e-05
-9.13905e-05
-8.74482e-05
-8.25157e-05
-7.65665e-05
-6.95551e-05
-6.14547e-05
-5.2211e-05
-4.18625e-05
-3.05315e-05
-1.83948e-05
-5.84845e-06
6.62396e-06
1.85821e-05
2.97245e-05
3.98699e-05
4.90795e-05
5.73132e-05
6.45426e-05
7.07662e-05
7.57359e-05
7.93209e-05
8.15589e-05
8.25086e-05
8.22021e-05
8.08317e-05
7.86188e-05
7.57277e-05
7.23084e-05
6.84664e-05
6.42783e-05
5.98499e-05
5.52115e-05
5.03468e-05
4.51988e-05
3.97799e-05
3.37454e-05
2.72569e-05
1.9978e-05
1.20899e-05
3.5146e-06
-5.79419e-06
-1.58837e-05
-2.63071e-05
-3.70959e-05
-4.74629e-05
-5.71502e-05
-6.56186e-05
-7.34459e-05
-8.01348e-05
-8.55971e-05
-9.02439e-05
-9.40665e-05
-9.69817e-05
-9.8936e-05
-9.98955e-05
-9.99833e-05
-9.9214e-05
-9.75092e-05
-9.48678e-05
-9.12773e-05
-8.67403e-05
-8.12056e-05
-7.46005e-05
-6.69414e-05
-5.822e-05
-4.84525e-05
-3.77451e-05
-2.62308e-05
-1.42527e-05
-2.26656e-06
9.2783e-06
2.00362e-05
2.97824e-05
3.8496e-05
4.61568e-05
5.26993e-05
5.80837e-05
6.20845e-05
6.45361e-05
6.55089e-05
6.5039e-05
6.32382e-05
6.05231e-05
5.73098e-05
5.37192e-05
4.9665e-05
4.70541e-05
4.38634e-05
4.08532e-05
3.82738e-05
3.57446e-05
3.32979e-05
3.10218e-05
2.87837e-05
2.64749e-05
2.43746e-05
2.24708e-05
2.07131e-05
1.90862e-05
1.75746e-05
1.61581e-05
1.48281e-05
1.35857e-05
1.24366e-05
1.14025e-05
1.04994e-05
9.74936e-06
9.17845e-06
8.81751e-06
8.70399e-06
8.88301e-06
9.40741e-06
1.03367e-05
1.17343e-05
1.36621e-05
1.61754e-05
1.93195e-05
2.31383e-05
2.77044e-05
3.31604e-05
3.96984e-05
4.57055e-05
5.00145e-05
8.70314e-06
8.75483e-06
9.15674e-06
9.99255e-06
1.09473e-05
1.1936e-05
1.29508e-05
1.39863e-05
1.50607e-05
1.61902e-05
1.7394e-05
1.86922e-05
2.0105e-05
2.16513e-05
2.3349e-05
2.52152e-05
2.72659e-05
2.95162e-05
3.19808e-05
3.46735e-05
3.76076e-05
4.07956e-05
4.42486e-05
4.79767e-05
5.19877e-05
5.62865e-05
6.08742e-05
6.57458e-05
7.08892e-05
7.63003e-05
8.19514e-05
8.75142e-05
9.27922e-05
9.75733e-05
0.000101698
0.000104941
0.000107252
0.000108331
0.000108366
0.000107644
0.000106286
0.000104269
0.00010159
9.82867e-05
9.4371e-05
8.98118e-05
8.4728e-05
7.9101e-05
7.30525e-05
6.66992e-05
6.01475e-05
5.34874e-05
4.67398e-05
3.99393e-05
3.30545e-05
2.60725e-05
1.89175e-05
1.15609e-05
3.87453e-06
-4.26306e-06
-1.30474e-05
-2.2088e-05
-3.15902e-05
-4.06769e-05
-4.94298e-05
-5.73837e-05
-6.44637e-05
-7.06795e-05
-7.61554e-05
-8.08079e-05
-8.45459e-05
-8.73084e-05
-8.91833e-05
-9.0256e-05
-9.05342e-05
-8.98959e-05
-8.83226e-05
-8.58086e-05
-8.23202e-05
-7.78541e-05
-7.23901e-05
-6.58965e-05
-5.8324e-05
-4.96714e-05
-3.99443e-05
-2.92643e-05
-1.78006e-05
-5.92458e-06
5.91619e-06
1.73137e-05
2.79061e-05
3.76061e-05
4.63318e-05
5.40286e-05
6.06662e-05
6.6212e-05
7.04577e-05
7.33543e-05
7.50909e-05
7.56679e-05
7.51669e-05
7.37631e-05
7.16295e-05
6.88908e-05
6.56651e-05
6.20513e-05
5.81242e-05
5.39891e-05
4.96654e-05
4.51354e-05
4.03352e-05
3.52732e-05
2.96915e-05
2.37245e-05
1.71599e-05
1.01304e-05
2.56664e-06
-5.58183e-06
-1.43992e-05
-2.36383e-05
-3.32858e-05
-4.27224e-05
-5.17173e-05
-5.95751e-05
-6.67478e-05
-7.28527e-05
-7.80824e-05
-8.26377e-05
-8.63676e-05
-8.918e-05
-9.10961e-05
-9.22224e-05
-9.25991e-05
-9.21198e-05
-9.0716e-05
-8.83747e-05
-8.51132e-05
-8.09192e-05
-7.57427e-05
-6.95221e-05
-6.22906e-05
-5.40619e-05
-4.48186e-05
-3.47055e-05
-2.38558e-05
-1.25839e-05
-1.31182e-06
9.54597e-06
1.9644e-05
2.87969e-05
3.68769e-05
4.37822e-05
4.95223e-05
5.40253e-05
5.70999e-05
5.87715e-05
5.91253e-05
5.82573e-05
5.63123e-05
5.37714e-05
5.09189e-05
4.77594e-05
4.42248e-05
4.19199e-05
3.9183e-05
3.66541e-05
3.45284e-05
3.24529e-05
3.04821e-05
2.86513e-05
2.68362e-05
2.49397e-05
2.31524e-05
2.14721e-05
1.9879e-05
1.83727e-05
1.6949e-05
1.55997e-05
1.43232e-05
1.31254e-05
1.20168e-05
1.1015e-05
1.0138e-05
9.40662e-06
8.8458e-06
8.48553e-06
8.36231e-06
8.51992e-06
9.00911e-06
9.88576e-06
1.12062e-05
1.30195e-05
1.53558e-05
1.82148e-05
2.15584e-05
2.53118e-05
2.94105e-05
3.36691e-05
3.6678e-05
3.82489e-05
9.77326e-06
9.54524e-06
9.64801e-06
1.01751e-05
1.08905e-05
1.16933e-05
1.25641e-05
1.34974e-05
1.44866e-05
1.5542e-05
1.66773e-05
1.79084e-05
1.92519e-05
2.07242e-05
2.23412e-05
2.41185e-05
2.60706e-05
2.82116e-05
3.05552e-05
3.31143e-05
3.59012e-05
3.89274e-05
4.22034e-05
4.57382e-05
4.95386e-05
5.36088e-05
5.7949e-05
6.25535e-05
6.74103e-05
7.25133e-05
7.78318e-05
8.3081e-05
8.80261e-05
9.246e-05
9.62692e-05
9.92577e-05
0.000101349
0.000102266
0.000102105
0.000101147
9.95545e-05
9.72797e-05
9.4332e-05
9.0798e-05
8.67114e-05
8.20904e-05
7.70666e-05
7.1631e-05
6.58998e-05
5.99718e-05
5.39265e-05
4.78365e-05
4.17139e-05
3.55809e-05
2.94259e-05
2.32394e-05
1.69762e-05
1.05923e-05
3.9826e-06
-2.97144e-06
-1.04578e-05
-1.83185e-05
-2.66904e-05
-3.49979e-05
-4.3192e-05
-5.07736e-05
-5.75704e-05
-6.36178e-05
-6.88367e-05
-7.32073e-05
-7.68475e-05
-7.97324e-05
-8.18783e-05
-8.32285e-05
-8.3728e-05
-8.33781e-05
-8.21618e-05
-8.00501e-05
-7.69901e-05
-7.29865e-05
-6.80297e-05
-6.20663e-05
-5.5036e-05
-4.6975e-05
-3.78693e-05
-2.78437e-05
-1.70529e-05
-5.84898e-06
5.34285e-06
1.61025e-05
2.61728e-05
3.53612e-05
4.35236e-05
5.06386e-05
5.66825e-05
6.15611e-05
6.51182e-05
6.75474e-05
6.88897e-05
6.91764e-05
6.85381e-05
6.71178e-05
6.50448e-05
6.24186e-05
5.9351e-05
5.59414e-05
5.22643e-05
4.84204e-05
4.44148e-05
4.02265e-05
3.57926e-05
3.11217e-05
2.60226e-05
2.06164e-05
1.47616e-05
8.56336e-06
1.95803e-06
-5.10482e-06
-1.27176e-05
-2.07575e-05
-2.9285e-05
-3.78161e-05
-4.61579e-05
-5.36304e-05
-6.04293e-05
-6.62284e-05
-7.11726e-05
-7.54014e-05
-7.8898e-05
-8.16655e-05
-8.37037e-05
-8.5008e-05
-8.5504e-05
-8.51711e-05
-8.39891e-05
-8.19189e-05
-7.89665e-05
-7.50949e-05
-7.02737e-05
-6.44536e-05
-5.76581e-05
-4.99188e-05
-4.12077e-05
-3.16901e-05
-2.14973e-05
-1.09273e-05
-3.75137e-07
9.76846e-06
1.92002e-05
2.76646e-05
3.49938e-05
4.11184e-05
4.6097e-05
4.97804e-05
5.20702e-05
5.31478e-05
5.30573e-05
5.19567e-05
5.00023e-05
4.76659e-05
4.51221e-05
4.23186e-05
3.9234e-05
3.72175e-05
3.49054e-05
3.28114e-05
3.10908e-05
2.94179e-05
2.78498e-05
2.6397e-05
2.49403e-05
2.33854e-05
2.18716e-05
2.03989e-05
1.89643e-05
1.75785e-05
1.62466e-05
1.49698e-05
1.37531e-05
1.26056e-05
1.15403e-05
1.05735e-05
9.72261e-06
9.00779e-06
8.45267e-06
8.08591e-06
7.94238e-06
8.06379e-06
8.49811e-06
9.29697e-06
1.05099e-05
1.21742e-05
1.43e-05
1.68509e-05
1.97238e-05
2.27395e-05
2.57428e-05
2.84046e-05
2.97826e-05
2.96533e-05
1.01544e-05
9.8468e-06
9.81582e-06
1.01563e-05
1.07001e-05
1.13654e-05
1.21223e-05
1.29572e-05
1.38625e-05
1.48419e-05
1.59043e-05
1.70618e-05
1.8328e-05
1.9717e-05
2.12429e-05
2.29197e-05
2.47606e-05
2.67787e-05
2.89864e-05
3.13957e-05
3.40178e-05
3.68633e-05
3.99417e-05
4.3261e-05
4.68273e-05
5.06439e-05
5.47105e-05
5.9021e-05
6.3564e-05
6.83327e-05
7.32951e-05
7.81993e-05
8.27926e-05
8.68805e-05
9.03865e-05
9.31343e-05
9.50187e-05
9.57809e-05
9.54619e-05
9.43301e-05
9.25663e-05
9.01089e-05
8.69802e-05
8.33065e-05
7.91455e-05
7.45911e-05
6.97059e-05
6.45172e-05
5.91427e-05
5.36577e-05
4.81212e-05
4.2591e-05
3.70731e-05
3.15849e-05
2.61258e-05
2.06888e-05
1.52442e-05
9.74468e-06
4.09864e-06
-1.80713e-06
-8.10948e-06
-1.48052e-05
-2.20012e-05
-2.93627e-05
-3.68234e-05
-4.3987e-05
-5.05624e-05
-5.65695e-05
-6.17389e-05
-6.60749e-05
-6.96829e-05
-7.25821e-05
-7.47779e-05
-7.62401e-05
-7.69335e-05
-7.68462e-05
-7.59514e-05
-7.42218e-05
-7.15855e-05
-6.80377e-05
-6.35653e-05
-5.81097e-05
-5.16165e-05
-4.41343e-05
-3.5643e-05
-2.6268e-05
-1.61522e-05
-5.62866e-06
4.86824e-06
1.5008e-05
2.45293e-05
3.31133e-05
4.06905e-05
4.72217e-05
5.264e-05
5.68675e-05
5.99092e-05
6.19447e-05
6.2941e-05
6.30022e-05
6.22624e-05
6.08226e-05
5.87842e-05
5.62441e-05
5.33222e-05
5.01159e-05
4.66959e-05
4.31532e-05
3.94762e-05
3.56407e-05
3.15876e-05
2.73273e-05
2.27211e-05
1.78791e-05
1.27046e-05
7.28384e-06
1.55779e-06
-4.52122e-06
-1.10442e-05
-1.79703e-05
-2.5364e-05
-3.29252e-05
-4.05025e-05
-4.75406e-05
-5.405e-05
-5.96974e-05
-6.45083e-05
-6.85865e-05
-7.19379e-05
-7.46298e-05
-7.66454e-05
-7.79822e-05
-7.85709e-05
-7.83851e-05
-7.7407e-05
-7.55775e-05
-7.29009e-05
-6.93366e-05
-6.48614e-05
-5.94283e-05
-5.30565e-05
-4.57948e-05
-3.76147e-05
-2.86868e-05
-1.91457e-05
-9.28852e-06
5.39465e-07
9.9629e-06
1.86491e-05
2.63528e-05
3.28929e-05
3.83328e-05
4.25634e-05
4.54207e-05
4.71344e-05
4.77327e-05
4.73458e-05
4.61381e-05
4.42382e-05
4.20936e-05
3.98106e-05
3.73205e-05
3.46455e-05
3.29099e-05
3.09923e-05
2.92917e-05
2.79323e-05
2.66102e-05
2.53823e-05
2.42454e-05
2.3087e-05
2.18157e-05
2.05392e-05
1.92559e-05
1.79721e-05
1.67055e-05
1.54682e-05
1.42686e-05
1.31164e-05
1.20239e-05
1.1005e-05
1.00754e-05
9.25166e-06
8.55273e-06
8.00071e-06
7.62238e-06
7.45032e-06
7.52339e-06
7.88585e-06
8.5843e-06
9.66113e-06
1.11432e-05
1.30242e-05
1.52424e-05
1.76577e-05
2.00294e-05
2.22109e-05
2.37638e-05
2.44176e-05
2.36626e-05
1.01118e-05
9.80459e-06
9.72081e-06
9.94928e-06
1.0374e-05
1.09319e-05
1.15933e-05
1.23412e-05
1.31671e-05
1.4071e-05
1.50582e-05
1.61378e-05
1.7321e-05
1.86197e-05
2.00464e-05
2.16135e-05
2.3333e-05
2.52167e-05
2.72758e-05
2.95214e-05
3.19636e-05
3.46121e-05
3.74753e-05
4.05604e-05
4.38729e-05
4.74154e-05
5.11873e-05
5.5183e-05
5.93921e-05
6.38079e-05
6.83991e-05
7.29407e-05
7.71762e-05
8.09275e-05
8.4148e-05
8.66735e-05
8.83686e-05
8.89896e-05
8.85464e-05
8.72909e-05
8.54101e-05
8.28353e-05
7.96009e-05
7.58688e-05
7.17393e-05
6.73271e-05
6.26254e-05
5.77328e-05
5.27456e-05
4.77151e-05
4.26853e-05
3.77029e-05
3.2769e-05
2.78991e-05
2.3097e-05
1.8357e-05
1.36565e-05
8.94937e-06
4.15753e-06
-8.27072e-07
-6.11535e-06
-1.17411e-05
-1.78055e-05
-2.41556e-05
-3.0701e-05
-3.72327e-05
-4.34666e-05
-4.92568e-05
-5.44049e-05
-5.87811e-05
-6.25128e-05
-6.55182e-05
-6.78176e-05
-6.94024e-05
-7.02813e-05
-7.04265e-05
-6.98082e-05
-6.84093e-05
-6.6148e-05
-6.30124e-05
-5.89921e-05
-5.40256e-05
-4.80587e-05
-4.1145e-05
-3.32638e-05
-2.45372e-05
-1.50995e-05
-5.28093e-06
4.55097e-06
1.40674e-05
2.29095e-05
3.0841e-05
3.78723e-05
4.38067e-05
4.85696e-05
5.22254e-05
5.48636e-05
5.65262e-05
5.72343e-05
5.71194e-05
5.62865e-05
5.48089e-05
5.27872e-05
5.03292e-05
4.75628e-05
4.45743e-05
4.14288e-05
3.8202e-05
3.48647e-05
3.13899e-05
2.77241e-05
2.38802e-05
1.97612e-05
1.54665e-05
1.09295e-05
6.2224e-06
1.28999e-06
-3.91182e-06
-9.46903e-06
-1.53815e-05
-2.1712e-05
-2.82846e-05
-3.49972e-05
-4.14465e-05
-4.75554e-05
-5.30059e-05
-5.77345e-05
-6.17864e-05
-6.50886e-05
-6.77599e-05
-6.97564e-05
-7.11167e-05
-7.17844e-05
-7.17309e-05
-7.09343e-05
-6.93183e-05
-6.68974e-05
-6.36254e-05
-5.94807e-05
-5.44218e-05
-4.84668e-05
-4.16761e-05
-3.40302e-05
-2.5691e-05
-1.68062e-05
-7.64918e-06
1.43638e-06
1.00972e-05
1.80066e-05
2.49201e-05
3.07589e-05
3.54301e-05
3.88499e-05
4.11055e-05
4.23446e-05
4.25954e-05
4.20266e-05
4.07744e-05
3.89423e-05
3.69638e-05
3.49123e-05
3.27172e-05
3.04279e-05
2.89682e-05
2.74151e-05
2.60688e-05
2.50281e-05
2.40074e-05
2.30641e-05
2.21872e-05
2.1274e-05
2.02377e-05
1.91641e-05
1.80499e-05
1.69062e-05
1.57552e-05
1.46135e-05
1.34944e-05
1.24114e-05
1.13785e-05
1.04101e-05
9.52111e-06
8.72731e-06
8.04602e-06
7.49753e-06
7.10637e-06
6.90235e-06
6.92081e-06
7.20162e-06
7.78579e-06
8.70873e-06
9.98863e-06
1.16088e-05
1.34951e-05
1.55016e-05
1.74161e-05
1.8999e-05
1.99302e-05
2.01697e-05
1.93005e-05
9.79148e-06
9.5127e-06
9.41433e-06
9.57518e-06
9.91598e-06
1.03894e-05
1.09694e-05
1.16393e-05
1.23898e-05
1.32188e-05
1.41292e-05
1.51277e-05
1.62231e-05
1.74258e-05
1.87465e-05
2.01961e-05
2.17855e-05
2.35252e-05
2.54253e-05
2.74957e-05
2.97456e-05
3.21836e-05
3.48174e-05
3.76535e-05
4.06965e-05
4.39492e-05
4.74108e-05
5.10767e-05
5.4938e-05
5.89889e-05
6.32006e-05
6.7371e-05
7.12501e-05
7.46775e-05
7.76318e-05
7.99531e-05
8.14766e-05
8.19726e-05
8.14359e-05
8.0099e-05
7.81492e-05
7.55153e-05
7.2242e-05
6.85294e-05
6.45091e-05
6.02648e-05
5.5807e-05
5.12568e-05
4.6678e-05
4.21077e-05
3.75803e-05
3.31325e-05
2.87617e-05
2.44814e-05
2.02959e-05
1.61994e-05
1.21728e-05
8.17254e-06
4.13201e-06
-4.60305e-08
-4.45973e-06
-9.15838e-06
-1.42082e-05
-1.95733e-05
-2.51928e-05
-3.09129e-05
-3.65537e-05
-4.19633e-05
-4.69428e-05
-5.13014e-05
-5.51018e-05
-5.8232e-05
-6.07289e-05
-6.24974e-05
-6.35947e-05
-6.39751e-05
-6.36254e-05
-6.25362e-05
-6.06258e-05
-5.78802e-05
-5.42954e-05
-4.98049e-05
-4.4357e-05
-3.80049e-05
-3.07311e-05
-2.26526e-05
-1.39003e-05
-4.77854e-06
4.38408e-06
1.31963e-05
2.13621e-05
2.8666e-05
3.50136e-05
4.03241e-05
4.45283e-05
4.77262e-05
4.99755e-05
5.12964e-05
5.17631e-05
5.14877e-05
5.05477e-05
4.902e-05
4.70207e-05
4.46707e-05
4.2075e-05
3.93259e-05
3.64767e-05
3.35793e-05
3.05881e-05
2.74751e-05
2.41939e-05
2.07611e-05
1.71122e-05
1.33367e-05
9.3894e-06
5.33083e-06
1.10931e-06
-3.31541e-06
-8.02414e-06
-1.30358e-05
-1.84091e-05
-2.40418e-05
-2.98683e-05
-3.56156e-05
-4.11842e-05
-4.63006e-05
-5.08492e-05
-5.47961e-05
-5.813e-05
-6.08383e-05
-6.28689e-05
-6.42955e-05
-6.50505e-05
-6.51236e-05
-6.44991e-05
-6.30888e-05
-6.09152e-05
-5.79288e-05
-5.41084e-05
-4.942e-05
-4.38794e-05
-3.75554e-05
-3.0456e-05
-2.27088e-05
-1.44831e-05
-6.02845e-06
2.30221e-06
1.01816e-05
1.72947e-05
2.34472e-05
2.85027e-05
3.23744e-05
3.51713e-05
3.69585e-05
3.78004e-05
3.77906e-05
3.70852e-05
3.58019e-05
3.40374e-05
3.22122e-05
3.03835e-05
2.84793e-05
2.65591e-05
2.5369e-05
2.41498e-05
2.3119e-05
2.23546e-05
2.15884e-05
2.08792e-05
2.02126e-05
1.94975e-05
1.86539e-05
1.7751e-05
1.67848e-05
1.57693e-05
1.47286e-05
1.36823e-05
1.26467e-05
1.16372e-05
1.06689e-05
9.75603e-06
8.91283e-06
8.1537e-06
7.49442e-06
6.95331e-06
6.55249e-06
6.31874e-06
6.28362e-06
6.48231e-06
6.95024e-06
7.71661e-06
8.79355e-06
1.01593e-05
1.17397e-05
1.33963e-05
1.49489e-05
1.60945e-05
1.67409e-05
1.67013e-05
1.58918e-05
9.27758e-06
9.03406e-06
8.93804e-06
9.05703e-06
9.33667e-06
9.74187e-06
1.0251e-05
1.08491e-05
1.15269e-05
1.22811e-05
1.31128e-05
1.40268e-05
1.50304e-05
1.61319e-05
1.73408e-05
1.86664e-05
2.01184e-05
2.1706e-05
2.34385e-05
2.53245e-05
2.73723e-05
2.95895e-05
3.1983e-05
3.45587e-05
3.7321e-05
4.02725e-05
4.3413e-05
4.67388e-05
5.02433e-05
5.39223e-05
5.77501e-05
6.1546e-05
6.5073e-05
6.81892e-05
7.08944e-05
7.30277e-05
7.4396e-05
7.47842e-05
7.41818e-05
7.28012e-05
7.08269e-05
6.81867e-05
6.49343e-05
6.13021e-05
5.74322e-05
5.34116e-05
4.92522e-05
4.50712e-05
4.0913e-05
3.68057e-05
3.27748e-05
2.88481e-05
2.5019e-05
2.12988e-05
1.769e-05
1.41857e-05
1.07685e-05
7.39842e-06
4.018e-06
5.41545e-07
-3.1113e-06
-7.00542e-06
-1.11836e-05
-1.56546e-05
-2.03867e-05
-2.52816e-05
-3.02125e-05
-3.50673e-05
-3.96936e-05
-4.39017e-05
-4.76277e-05
-5.07835e-05
-5.33478e-05
-5.53418e-05
-5.67041e-05
-5.73528e-05
-5.73003e-05
-5.65343e-05
-5.49792e-05
-5.26186e-05
-4.94602e-05
-4.54369e-05
-4.05051e-05
-3.47118e-05
-2.80455e-05
-2.06175e-05
-1.25578e-05
-4.13296e-06
4.29598e-06
1.23935e-05
1.98667e-05
2.64973e-05
3.21997e-05
3.689e-05
4.05781e-05
4.3373e-05
4.52204e-05
4.62379e-05
4.64851e-05
4.60423e-05
4.49882e-05
4.34197e-05
4.14653e-05
3.92518e-05
3.68598e-05
3.43834e-05
3.18508e-05
2.92902e-05
2.6644e-05
2.38863e-05
2.09794e-05
1.79439e-05
1.47414e-05
1.14518e-05
8.04538e-06
4.57314e-06
9.86525e-07
-2.75065e-06
-6.7146e-06
-1.09328e-05
-1.54605e-05
-2.02373e-05
-2.52213e-05
-3.02318e-05
-3.51763e-05
-3.98383e-05
-4.40937e-05
-4.78472e-05
-5.11037e-05
-5.37657e-05
-5.58794e-05
-5.74133e-05
-5.82798e-05
-5.8495e-05
-5.80507e-05
-5.68506e-05
-5.49238e-05
-5.22225e-05
-4.87277e-05
-4.44146e-05
-3.92907e-05
-3.34239e-05
-2.68586e-05
-1.97265e-05
-1.21705e-05
-4.44761e-06
3.11562e-06
1.01954e-05
1.65023e-05
2.18545e-05
2.61249e-05
2.93527e-05
3.16594e-05
3.29887e-05
3.34972e-05
3.32685e-05
3.24456e-05
3.11522e-05
2.94702e-05
2.78023e-05
2.62008e-05
2.4589e-05
2.30223e-05
2.2091e-05
2.11729e-05
2.04174e-05
1.98867e-05
1.93302e-05
1.88094e-05
1.83087e-05
1.77502e-05
1.70625e-05
1.63013e-05
1.54631e-05
1.45638e-05
1.3628e-05
1.26764e-05
1.17267e-05
1.07951e-05
9.89669e-06
9.04529e-06
8.25398e-06
7.53589e-06
6.9052e-06
6.37831e-06
5.97492e-06
5.71882e-06
5.63787e-06
5.76273e-06
6.12371e-06
6.74484e-06
7.63473e-06
8.77059e-06
1.00836e-05
1.14477e-05
1.27277e-05
1.35997e-05
1.4102e-05
1.38782e-05
1.31154e-05
8.62177e-06
8.41187e-06
8.32467e-06
8.41637e-06
8.64912e-06
8.99699e-06
9.44261e-06
9.97292e-06
1.05793e-05
1.12579e-05
1.20088e-05
1.28352e-05
1.37428e-05
1.47386e-05
1.58304e-05
1.70264e-05
1.83349e-05
1.97642e-05
2.13222e-05
2.30166e-05
2.48547e-05
2.68434e-05
2.89888e-05
3.12962e-05
3.37699e-05
3.64126e-05
3.92248e-05
4.2204e-05
4.53459e-05
4.86482e-05
5.20895e-05
5.55089e-05
5.8688e-05
6.15025e-05
6.3972e-05
6.59303e-05
6.71581e-05
6.7456e-05
6.68144e-05
6.54255e-05
6.34686e-05
6.08714e-05
5.76935e-05
5.41964e-05
5.05366e-05
4.67717e-05
4.29466e-05
3.91549e-05
3.54278e-05
3.17855e-05
2.82448e-05
2.48254e-05
2.15163e-05
1.83265e-05
1.52554e-05
1.22952e-05
9.42905e-06
6.62117e-06
3.82209e-06
9.57218e-07
-2.03945e-06
-5.23454e-06
-8.65784e-06
-1.23424e-05
-1.62727e-05
-2.03871e-05
-2.45967e-05
-2.88177e-05
-3.29388e-05
-3.68152e-05
-4.03592e-05
-4.34491e-05
-4.60126e-05
-4.81069e-05
-4.95898e-05
-5.04728e-05
-5.07251e-05
-5.03072e-05
-4.91422e-05
-4.7192e-05
-4.44699e-05
-4.09168e-05
-3.65052e-05
-3.12749e-05
-2.52217e-05
-1.84521e-05
-1.10947e-05
-3.40339e-06
4.27647e-06
1.16366e-05
1.8391e-05
2.43347e-05
2.9404e-05
3.35239e-05
3.67407e-05
3.91044e-05
4.05882e-05
4.13284e-05
4.13458e-05
4.07293e-05
3.95777e-05
3.8002e-05
3.61354e-05
3.40807e-05
3.19362e-05
2.97615e-05
2.75559e-05
2.53298e-05
2.30198e-05
2.06046e-05
1.80561e-05
1.5399e-05
1.26157e-05
9.77689e-06
6.86438e-06
3.92093e-06
9.01038e-07
-2.2273e-06
-5.53589e-06
-9.05538e-06
-1.28384e-05
-1.685e-05
-2.10639e-05
-2.53596e-05
-2.96596e-05
-3.37966e-05
-3.7669e-05
-4.11796e-05
-4.42369e-05
-4.67934e-05
-4.88771e-05
-5.04044e-05
-5.13959e-05
-5.17767e-05
-5.15392e-05
-5.05712e-05
-4.8905e-05
-4.64962e-05
-4.33271e-05
-3.93979e-05
-3.47124e-05
-2.93327e-05
-2.32909e-05
-1.67701e-05
-9.90058e-06
-2.91996e-06
3.85088e-06
1.01088e-05
1.55959e-05
2.01722e-05
2.3745e-05
2.64562e-05
2.82517e-05
2.91709e-05
2.93916e-05
2.8979e-05
2.80727e-05
2.67938e-05
2.52147e-05
2.37158e-05
2.2351e-05
2.10325e-05
1.98014e-05
1.91123e-05
1.84589e-05
1.79368e-05
1.75972e-05
1.72078e-05
1.68339e-05
1.64602e-05
1.60225e-05
1.54593e-05
1.48148e-05
1.40873e-05
1.32937e-05
1.24578e-05
1.16002e-05
1.07385e-05
9.8889e-06
9.06571e-06
8.28183e-06
7.54916e-06
6.87949e-06
6.28545e-06
5.78162e-06
5.38552e-06