#         Time       outlet
  0.000311429            0
   0.00223581            0
    0.0141289 3.93543e-187
    0.0803498  7.50646e-68
