#         Time        inlet       outlet
  1.20005e-05            (0.0100008 0 0)            (0.0100044 3.29073e-05 5.10512e-23)
  2.64017e-05            (0.0100017 0 0)            (0.0100176 3.44376e-05 1.5606e-25)
  4.36833e-05            (0.0100028 0 0)            (0.0100185 3.50588e-05 3.56189e-26)
  6.44211e-05            (0.0100041 0 0)            (0.0100197 3.54176e-05 2.05e-26)
  8.93055e-05            (0.0100057 0 0)            (0.0100211 3.57169e-05 1.76669e-26)
  0.000119165            (0.0100076 0 0)            (0.0100229 3.59931e-05 1.81599e-26)
   0.00015499            (0.0100099 0 0)            (0.0100251 3.62577e-05 2.00818e-26)
  0.000197972            (0.0100127 0 0)            (0.0100277 3.65215e-05 2.28944e-26)
  0.000249549            (0.010016 0 0)            (0.0100308 3.67932e-05 2.68759e-26)
  0.000311429            (0.0100199 0 0)            (0.0100347 3.70808e-05 3.16082e-26)
  0.000385657            (0.0100247 0 0)            (0.0100393 3.73922e-05 3.74186e-26)
  0.000474757            (0.0100304 0 0)            (0.0100449 3.77356e-05 4.44218e-26)
  0.000581659            (0.0100372 0 0)            (0.0100516 3.812e-05 5.28875e-26)
  0.000709941            (0.0100454 0 0)            (0.0100597 3.85555e-05 6.31198e-26)
  0.000863879            (0.0100553 0 0)            (0.0100694 3.90533e-05 7.51771e-26)
   0.00104849            (0.0100671 0 0)            (0.010081 3.96266e-05 8.97174e-26)
   0.00126986            (0.0100813 0 0)            (0.010095 4.02909e-05 1.06995e-25)
   0.00153526            (0.0100983 0 0)            (0.0101119 4.10642e-05 1.2756e-25)
   0.00185392            (0.0101187 0 0)            (0.0101321 4.19687e-05 1.52089e-25)
   0.00223581            (0.0101431 0 0)            (0.0101563 4.3028e-05 1.8089e-25)
    0.0026948            (0.0101725 0 0)            (0.0101855 4.42745e-05 2.15502e-25)
   0.00324454            (0.0102077 0 0)            (0.0102205 4.57383e-05 2.55451e-25)
   0.00390274            (0.0102498 0 0)            (0.0102624 4.74582e-05 3.02059e-25)
   0.00469043            (0.0103002 0 0)            (0.0103125 4.94786e-05 3.5609e-25)
   0.00563408            (0.0103606 0 0)            (0.0103727 5.18551e-05 4.18895e-25)
   0.00677102            (0.0104333 0 0)            (0.0104451 5.4666e-05 4.93253e-25)
   0.00814204            (0.0105211 0 0)            (0.0105325 5.79939e-05 5.78108e-25)
   0.00978236            (0.0106261 0 0)            (0.010637 6.19056e-05 6.68335e-25)
    0.0117436            (0.0107516 0 0)            (0.0107622 6.65062e-05 7.67741e-25)
    0.0141289            (0.0109043 0 0)            (0.0109145 7.20197e-05 8.85238e-25)
    0.0169913            (0.0110874 0 0)            (0.0110972 7.8557e-05 9.97878e-25)
      0.02045            (0.0113088 0 0)            (0.0113182 8.63865e-05 1.11566e-24)
    0.0246368            (0.0115768 0 0)            (0.011586 9.5831e-05 1.22847e-24)
     0.029661            (0.0118983 0 0)            (0.0119072 0.000107199 1.31811e-24)
    0.0355226            (0.0122734 0 0)            (0.0122824 0.000120588 1.3664e-24)
    0.0426868            (0.012732 0 0)            (0.0127406 0.000137189 1.41079e-24)
    0.0508744            (0.013256 0 0)            (0.0132644 0.000156512 1.3794e-24)
    0.0606995            (0.0138848 0 0)            (0.0138931 0.000180226 1.32444e-24)
    0.0705246            (0.0145136 0 0)            (0.014522 0.000204395 1.20539e-24)
    0.0803498            (0.0151424 0 0)            (0.0151509 0.000228904 1.09831e-24)
    0.0901749            (0.0157712 0 0)            (0.0157801 0.000253626 1.00016e-24)
          0.1            (0.0164 0 0)            (0.0164089 0.000278558 9.08295e-25)
