/*--------------------------------*- C++ -*----------------------------------*\
| =========                 |                                                 |
| \\      /  F ield         | OpenFOAM: The Open Source CFD Toolbox           |
|  \\    /   O peration     | Version:  2506                                  |
|   \\  /    A nd           | Website:  www.openfoam.com                      |
|    \\/     M anipulation  |                                                 |
\*---------------------------------------------------------------------------*/
FoamFile
{
    version     2.0;
    format      ascii;
    arch        "LSB;label=32;scalar=64";
    class       volScalarField;
    location    "0.75";
    object      p;
}
// * * * * * * * * * * * * * * * * * * * * * * * * * * * * * * * * * * * * * //

dimensions      [0 2 -2 0 0 0 0];

internalField   nonuniform List<scalar> 
4000
(
-4.35829e-05
3.90755e-06
1.87459e-05
2.14795e-05
2.27318e-05
2.32963e-05
2.32528e-05
2.30563e-05
2.30125e-05
2.321e-05
2.36693e-05
2.43998e-05
2.54047e-05
2.66804e-05
2.8226e-05
3.00474e-05
3.21485e-05
3.45331e-05
3.7207e-05
4.01808e-05
4.34666e-05
4.70752e-05
5.10163e-05
5.53061e-05
5.99591e-05
6.49906e-05
7.0416e-05
7.62522e-05
8.25224e-05
8.92808e-05
9.65395e-05
0.000103971
0.000111524
0.000118928
0.000125762
0.000131694
0.000136681
0.000139491
0.0001417
0.000144476
0.000146302
0.000147372
0.000147831
0.000147518
0.000146315
0.000144099
0.000140793
0.000136136
0.000130202
0.000123075
0.000115001
0.000106459
9.70296e-05
8.77629e-05
7.80341e-05
6.83141e-05
5.7436e-05
4.54057e-05
3.0645e-05
1.22414e-05
-1.00931e-05
-3.37092e-05
-5.60368e-05
-7.62188e-05
-9.16937e-05
-0.000103798
-0.000112821
-0.000119415
-0.000124152
-0.000127342
-0.000129199
-0.000129831
-0.000129329
-0.000127756
-0.00012515
-0.000121536
-0.000116922
-0.000111276
-0.000104614
-9.69191e-05
-8.81499e-05
-7.81844e-05
-6.70667e-05
-5.46787e-05
-4.10888e-05
-2.62629e-05
-1.05336e-05
5.70234e-06
2.19028e-05
3.73218e-05
5.14445e-05
6.39309e-05
7.44255e-05
8.34093e-05
9.11833e-05
9.80774e-05
0.000104236
0.000109538
0.000113814
0.000116724
0.000117965
0.000117494
0.000115775
0.00011318
0.000110001
0.0001065
0.000103163
9.97315e-05
9.58026e-05
9.11471e-05
8.56783e-05
7.98926e-05
7.26369e-05
6.53803e-05
5.63588e-05
4.59247e-05
3.32102e-05
1.68042e-05
-3.52445e-06
-2.59799e-05
-4.84484e-05
-6.97461e-05
-8.70138e-05
-0.000100802
-0.00011113
-0.000119051
-0.00012496
-0.000129232
-0.000132067
-0.000133626
-0.000134023
-0.000133332
-0.000131594
-0.000128824
-0.000125047
-0.000120266
-0.000114473
-0.000107645
-9.96811e-05
-9.06054e-05
-8.03798e-05
-6.88389e-05
-5.60944e-05
-4.20488e-05
-2.69347e-05
-1.10718e-05
5.04897e-06
2.07125e-05
3.52781e-05
4.83016e-05
5.94316e-05
6.87013e-05
7.65718e-05
8.33939e-05
8.92432e-05
9.42596e-05
9.8211e-05
0.000100709
0.000101335
9.99333e-05
9.67688e-05
9.21256e-05
8.50704e-05
8.27605e-05
7.97472e-05
7.51334e-05
7.04641e-05
6.51326e-05
5.89634e-05
5.21571e-05
4.5104e-05
3.85425e-05
3.30407e-05
2.82159e-05
2.40232e-05
2.04082e-05
1.73009e-05
1.46126e-05
1.22649e-05
1.01966e-05
8.35915e-06
6.71348e-06
5.22864e-06
3.88079e-06
2.65248e-06
1.53253e-06
5.18293e-07
-3.79376e-07
-1.13124e-06
-1.68666e-06
-1.95795e-06
-1.80154e-06
-9.87945e-07
8.48629e-07
4.2844e-06
1.02259e-05
2.05932e-05
3.8839e-05
7.28265e-05
0.000140114
-1.10638e-05
8.43376e-06
1.61723e-05
1.89078e-05
2.0237e-05
2.08996e-05
2.11726e-05
2.13496e-05
2.16189e-05
2.20586e-05
2.27023e-05
2.35704e-05
2.46746e-05
2.60212e-05
2.76154e-05
2.94643e-05
3.15745e-05
3.39531e-05
3.66084e-05
3.95505e-05
4.27904e-05
4.63396e-05
5.02112e-05
5.44182e-05
5.89751e-05
6.38959e-05
6.9195e-05
7.48866e-05
8.09868e-05
8.75483e-05
9.45968e-05
0.000101579
0.000108607
0.000115458
0.000121768
0.000127274
0.000131931
0.000134808
0.000136998
0.000139059
0.000140199
0.000140543
0.000140192
0.000139059
0.000137051
0.000134046
0.000129965
0.000124727
0.000118436
0.000111134
0.000103109
9.46969e-05
8.57909e-05
7.69687e-05
6.79222e-05
5.89061e-05
4.93019e-05
3.90454e-05
2.71709e-05
1.29459e-05
-3.37595e-06
-2.15474e-05
-4.11737e-05
-5.91247e-05
-7.48296e-05
-8.80283e-05
-9.8412e-05
-0.000106356
-0.00011226
-0.000116438
-0.00011915
-0.000120559
-0.000120781
-0.000119894
-0.000117944
-0.000114959
-0.000110962
-0.000105922
-9.98505e-05
-9.27415e-05
-8.45662e-05
-7.52051e-05
-6.46958e-05
-5.2935e-05
-3.99874e-05
-2.58398e-05
-1.08017e-05
4.68857e-06
2.00523e-05
3.45876e-05
4.76907e-05
5.92391e-05
6.92772e-05
7.79708e-05
8.54983e-05
9.21358e-05
9.79492e-05
0.000102758
0.000106353
0.000108513
0.000109159
0.00010847
0.000106838
0.000104596
0.000101922
9.89731e-05
9.56921e-05
9.20182e-05
8.76415e-05
8.24437e-05
7.64448e-05
7.00626e-05
6.27697e-05
5.53501e-05
4.67501e-05
3.73828e-05
2.66101e-05
1.35284e-05
-1.90175e-06
-1.90095e-05
-3.78813e-05
-5.61907e-05
-7.22e-05
-8.60816e-05
-9.71609e-05
-0.000106003
-0.000112698
-0.000117711
-0.000121201
-0.000123345
-0.000124279
-0.000124091
-0.000122835
-0.00012053
-0.000117199
-0.000112855
-0.000107492
-0.000101102
-9.35895e-05
-8.4967e-05
-7.52278e-05
-6.42171e-05
-5.20381e-05
-3.86268e-05
-2.4195e-05
-9.09626e-06
6.15829e-06
2.08555e-05
3.42693e-05
4.60396e-05
5.62035e-05
6.49029e-05
7.23056e-05
7.86198e-05
8.39793e-05
8.82993e-05
9.12985e-05
9.26659e-05
9.22097e-05
9.00972e-05
8.67219e-05
8.2363e-05
7.70749e-05
7.56864e-05
7.18849e-05
6.70468e-05
6.23802e-05
5.72492e-05
5.18128e-05
4.63076e-05
4.07692e-05
3.52178e-05
3.03983e-05
2.6158e-05
2.24134e-05
1.91446e-05
1.6304e-05
1.382e-05
1.16296e-05
9.684e-06
7.94372e-06
6.37629e-06
4.95545e-06
3.66064e-06
2.47675e-06
1.39479e-06
4.13936e-07
-4.54262e-07
-1.1825e-06
-1.72158e-06
-1.9855e-06
-1.83495e-06
-1.04787e-06
7.25476e-07
4.04509e-06
9.82985e-06
1.957e-05
3.50615e-05
5.76669e-05
8.9278e-05
5.184e-06
1.11481e-05
1.47596e-05
1.68269e-05
1.80517e-05
1.88163e-05
1.93402e-05
1.97935e-05
2.02961e-05
2.09193e-05
2.17053e-05
2.26807e-05
2.38627e-05
2.5263e-05
2.6891e-05
2.87556e-05
3.08655e-05
3.32298e-05
3.58585e-05
3.87613e-05
4.19488e-05
4.54335e-05
4.92297e-05
5.33497e-05
5.78068e-05
6.26137e-05
6.77836e-05
7.33272e-05
7.92538e-05
8.56027e-05
9.23952e-05
9.91274e-05
0.000105889
0.000112453
0.000118494
0.000123721
0.000128069
0.000130911
0.000132832
0.000134149
0.000134586
0.000134241
0.000133176
0.000131308
0.000128573
0.000124908
0.000120288
0.000114744
0.000108311
0.000101106
9.33704e-05
8.53126e-05
7.69404e-05
6.85466e-05
5.999e-05
5.13977e-05
4.24463e-05
3.31728e-05
2.31543e-05
1.19031e-05
-7.35948e-07
-1.47653e-05
-3.03715e-05
-4.58515e-05
-6.10738e-05
-7.41366e-05
-8.49777e-05
-9.37889e-05
-0.000100666
-0.000105775
-0.000109339
-0.000111517
-0.000112439
-0.000112209
-0.000110884
-0.000108498
-0.000105086
-0.000100621
-9.51192e-05
-8.85751e-05
-8.09693e-05
-7.21952e-05
-6.22869e-05
-5.11575e-05
-3.8871e-05
-2.54425e-05
-1.11661e-05
3.51629e-06
1.80351e-05
3.17489e-05
4.42478e-05
5.53373e-05
6.50751e-05
7.35422e-05
8.086e-05
8.73107e-05
9.2732e-05
9.69813e-05
9.99704e-05
0.000101648
0.000102104
0.000101571
0.000100329
9.85445e-05
9.62673e-05
9.3482e-05
9.0091e-05
8.60338e-05
8.11944e-05
7.55787e-05
6.92882e-05
6.26376e-05
5.52908e-05
4.76812e-05
3.93285e-05
3.0512e-05
2.09465e-05
1.01633e-05
-2.07841e-06
-1.55387e-05
-3.05854e-05
-4.57074e-05
-6.05693e-05
-7.38445e-05
-8.48682e-05
-9.40329e-05
-0.000101187
-0.000106808
-0.000110894
-0.000113588
-0.000115028
-0.000115314
-0.000114516
-0.000112654
-0.000109754
-0.000105835
-0.000100892
-9.49281e-05
-8.78593e-05
-7.96937e-05
-7.04408e-05
-5.99737e-05
-4.83896e-05
-3.56681e-05
-2.20173e-05
-7.79802e-06
6.47885e-06
2.01394e-05
3.2663e-05
4.37651e-05
5.33871e-05
6.16673e-05
6.86816e-05
7.46418e-05
7.94802e-05
8.30332e-05
8.51441e-05
8.57093e-05
8.47637e-05
8.26768e-05
7.98409e-05
7.64009e-05
7.23093e-05
7.05149e-05
6.61595e-05
6.12774e-05
5.66069e-05
5.15821e-05
4.64587e-05
4.15621e-05
3.68445e-05
3.21014e-05
2.78993e-05
2.41616e-05
2.08236e-05
1.78763e-05
1.52841e-05
1.29931e-05
1.0955e-05
9.13126e-06
7.48972e-06
6.00333e-06
4.64974e-06
3.41103e-06
2.27374e-06
1.22958e-06
2.77797e-07
-5.72135e-07
-1.2978e-06
-1.85233e-06
-2.15919e-06
-2.09524e-06
-1.46906e-06
1.50948e-08
2.82108e-06
7.678e-06
1.56029e-05
2.72422e-05
4.07936e-05
5.57166e-05
1.12617e-05
1.31589e-05
1.47434e-05
1.60733e-05
1.69674e-05
1.76259e-05
1.81814e-05
1.87184e-05
1.93118e-05
2.00139e-05
2.08624e-05
2.18827e-05
2.30924e-05
2.45046e-05
2.61297e-05
2.79776e-05
3.00576e-05
3.23795e-05
3.49532e-05
3.77893e-05
4.08988e-05
4.42938e-05
4.7987e-05
5.19911e-05
5.63182e-05
6.09802e-05
6.59881e-05
7.13498e-05
7.70705e-05
8.31775e-05
8.96821e-05
9.6177e-05
0.000102628
0.000108817
0.000114476
0.000119332
0.000123317
0.000125942
0.00012749
0.000128238
0.000128166
0.000127316
0.000125706
0.000123305
0.00012009
0.000116034
0.000111153
0.000105482
9.90541e-05
9.20758e-05
8.47097e-05
7.71063e-05
6.93062e-05
6.14601e-05
5.35082e-05
4.55135e-05
3.72995e-05
2.88956e-05
2.00795e-05
1.05359e-05
-8.52513e-08
-1.15468e-05
-2.44555e-05
-3.76152e-05
-5.0999e-05
-6.33804e-05
-7.42642e-05
-8.34128e-05
-9.07398e-05
-9.63732e-05
-0.00010059
-0.000103422
-0.000104951
-0.000105293
-0.000104522
-0.00010266
-9.97616e-05
-9.58046e-05
-9.08049e-05
-8.47637e-05
-7.76646e-05
-6.94168e-05
-6.00512e-05
-4.95012e-05
-3.78293e-05
-2.50793e-05
-1.15268e-05
2.37646e-06
1.6129e-05
2.9171e-05
4.11047e-05
5.17625e-05
6.11719e-05
6.93612e-05
7.6452e-05
8.25477e-05
8.75086e-05
9.12883e-05
9.38871e-05
9.53546e-05
9.58356e-05
9.55194e-05
9.45597e-05
9.29955e-05
9.0795e-05
8.79017e-05
8.4254e-05
7.9857e-05
7.47269e-05
6.89528e-05
6.26761e-05
5.60564e-05
4.88654e-05
4.1427e-05
3.35826e-05
2.54416e-05
1.6842e-05
7.51111e-06
-2.85794e-06
-1.40868e-05
-2.66199e-05
-3.95329e-05
-5.269e-05
-6.47348e-05
-7.56403e-05
-8.47233e-05
-9.20103e-05
-9.78036e-05
-0.000102236
-0.000105319
-0.000107153
-0.000107813
-0.000107398
-0.000105906
-0.000103371
-9.98164e-05
-9.52374e-05
-8.9642e-05
-8.29609e-05
-7.51988e-05
-6.63733e-05
-5.63881e-05
-4.53313e-05
-3.32235e-05
-2.027e-05
-6.83039e-06
6.60296e-06
1.94271e-05
3.11998e-05
4.16763e-05
5.07886e-05
5.85967e-05
6.52019e-05
7.06387e-05
7.48122e-05
7.76583e-05
7.91505e-05
7.93271e-05
7.83169e-05
7.65297e-05
7.42019e-05
7.12523e-05
6.75102e-05
6.50316e-05
6.0595e-05
5.59728e-05
5.15382e-05
4.68657e-05
4.21476e-05
3.77597e-05
3.36062e-05
2.94851e-05
2.57609e-05
2.24055e-05
1.93886e-05
1.67024e-05
1.43177e-05
1.21934e-05
1.02916e-05
8.58056e-06
7.03315e-06
5.62616e-06
4.34006e-06
3.15872e-06
2.06963e-06
1.06464e-06
1.417e-07
-6.9263e-07
-1.41815e-06
-1.99599e-06
-2.36062e-06
-2.40923e-06
-1.98691e-06
-8.63172e-07
1.30966e-06
5.05637e-06
1.10596e-05
1.96375e-05
2.86115e-05
3.60896e-05
1.39903e-05
1.44283e-05
1.49833e-05
1.57325e-05
1.63919e-05
1.6922e-05
1.7415e-05
1.79463e-05
1.85576e-05
1.9278e-05
2.01379e-05
2.11592e-05
2.23583e-05
2.37477e-05
2.53381e-05
2.71393e-05
2.91609e-05
3.14125e-05
3.39039e-05
3.66456e-05
3.96484e-05
4.29239e-05
4.64837e-05
5.03397e-05
5.45032e-05
5.89849e-05
6.37937e-05
6.89355e-05
7.44128e-05
8.02434e-05
8.64276e-05
9.26383e-05
9.87369e-05
0.000104509
0.000109752
0.000114229
0.000117854
0.000120204
0.000121397
0.000121711
0.00012124
0.000119982
0.000117937
0.000115127
0.000111565
0.000107251
0.000102227
9.65263e-05
9.026e-05
8.35912e-05
7.66392e-05
6.95317e-05
6.23119e-05
5.50673e-05
4.77797e-05
4.04852e-05
3.30816e-05
2.55668e-05
1.77813e-05
9.49562e-06
3.74445e-07
-9.34758e-06
-2.02864e-05
-3.15121e-05
-4.32066e-05
-5.43635e-05
-6.4565e-05
-7.36473e-05
-8.13514e-05
-8.75539e-05
-9.21712e-05
-9.54488e-05
-9.74816e-05
-9.83015e-05
-9.80474e-05
-9.66796e-05
-9.42897e-05
-9.08413e-05
-8.63439e-05
-8.08101e-05
-7.42253e-05
-6.65146e-05
-5.77032e-05
-4.77477e-05
-3.67046e-05
-2.46471e-05
-1.1825e-05
1.34909e-06
1.43781e-05
2.67605e-05
3.81593e-05
4.83885e-05
5.74411e-05
6.52915e-05
7.20779e-05
7.77824e-05
8.2341e-05
8.57743e-05
8.81355e-05
8.95219e-05
9.007e-05
8.98912e-05
8.90362e-05
8.74711e-05
8.51443e-05
8.20218e-05
7.8102e-05
7.34628e-05
6.81915e-05
6.24073e-05
5.62197e-05
4.97644e-05
4.29519e-05
3.6008e-05
2.88201e-05
2.14431e-05
1.37516e-05
5.54783e-06
-3.4495e-06
-1.31094e-05
-2.38203e-05
-3.49585e-05
-4.64674e-05
-5.72865e-05
-6.74616e-05
-7.61634e-05
-8.35742e-05
-8.95745e-05
-9.41509e-05
-9.74351e-05
-9.95619e-05
-0.000100486
-0.000100401
-9.92363e-05
-9.70429e-05
-9.38384e-05
-8.96125e-05
-8.43785e-05
-7.80823e-05
-7.07244e-05
-6.23296e-05
-5.28337e-05
-4.23178e-05
-3.08287e-05
-1.85701e-05
-5.90655e-06
6.71198e-06
1.87519e-05
2.98191e-05
3.96811e-05
4.8245e-05
5.5529e-05
6.16505e-05
6.64977e-05
7.00742e-05
7.24017e-05
7.35221e-05
7.35556e-05
7.2616e-05
7.10617e-05
6.8957e-05
6.61071e-05
6.24028e-05
5.94567e-05
5.52091e-05
5.09359e-05
4.67967e-05
4.2533e-05
3.83404e-05
3.44483e-05
3.07752e-05
2.71681e-05
2.38494e-05
2.0822e-05
1.80808e-05
1.56205e-05
1.34182e-05
1.14433e-05
9.66625e-06
8.06066e-06
6.60348e-06
5.27465e-06
4.05686e-06
2.93551e-06
1.89892e-06
9.39085e-07
5.33944e-08
-7.52799e-07
-1.46227e-06
-2.04103e-06
-2.43138e-06
-2.54492e-06
-2.25279e-06
-1.37378e-06
3.48904e-07
3.28409e-06
7.87552e-06
1.42425e-05
1.99906e-05
2.33833e-05
1.51499e-05
1.49978e-05
1.50692e-05
1.5439e-05
1.58799e-05
1.63299e-05
1.67943e-05
1.7302e-05
1.7896e-05
1.86051e-05
1.94496e-05
2.04468e-05
2.16111e-05
2.29544e-05
2.44873e-05
2.62192e-05
2.81597e-05
3.03179e-05
3.27036e-05
3.53267e-05
3.81976e-05
4.13269e-05
4.47257e-05
4.84047e-05
5.23742e-05
5.66436e-05
6.12203e-05
6.61085e-05
7.1309e-05
7.68334e-05
8.26736e-05
8.85558e-05
9.42773e-05
9.96296e-05
0.000104466
0.000108576
0.000111855
0.000113918
0.000114795
0.00011476
0.000113967
0.000112377
0.00010999
0.000106873
0.000103071
9.86059e-05
9.35386e-05
8.7924e-05
8.1897e-05
7.55771e-05
6.90637e-05
6.24689e-05
5.58285e-05
4.92022e-05
4.25934e-05
3.60257e-05
2.94341e-05
2.27948e-05
1.59747e-05
8.78346e-06
9.2458e-07
-7.45378e-06
-1.68248e-05
-2.65483e-05
-3.67938e-05
-4.68542e-05
-5.63343e-05
-6.49973e-05
-7.24359e-05
-7.8695e-05
-8.37232e-05
-8.75707e-05
-9.00669e-05
-9.12819e-05
-9.15117e-05
-9.05623e-05
-8.86544e-05
-8.57106e-05
-8.17112e-05
-7.66898e-05
-7.06306e-05
-6.34704e-05
-5.52271e-05
-4.58812e-05
-3.54801e-05
-2.41147e-05
-1.2013e-05
4.39944e-07
1.27762e-05
2.45375e-05
3.5409e-05
4.51907e-05
5.38433e-05
6.13567e-05
6.77774e-05
7.31112e-05
7.73343e-05
8.05123e-05
8.27246e-05
8.4072e-05
8.46464e-05
8.44824e-05
8.3567e-05
8.18458e-05
7.92909e-05
7.59164e-05
7.17785e-05
6.70061e-05
6.17188e-05
5.60424e-05
5.00745e-05
4.39424e-05
3.76197e-05
3.12562e-05
2.4767e-05
1.81751e-05
1.13621e-05
4.16006e-06
-3.67928e-06
-1.20944e-05
-2.13775e-05
-3.11008e-05
-4.12429e-05
-5.09795e-05
-6.03416e-05
-6.86077e-05
-7.56072e-05
-8.14733e-05
-8.61952e-05
-8.97711e-05
-9.21383e-05
-9.32732e-05
-9.34858e-05
-9.25802e-05
-9.06986e-05
-8.78347e-05
-8.39559e-05
-7.90844e-05
-7.31796e-05
-6.62364e-05
-5.82858e-05
-4.92956e-05
-3.93323e-05
-2.8484e-05
-1.69311e-05
-5.01502e-06
6.82504e-06
1.81199e-05
2.8508e-05
3.77586e-05
4.57406e-05
5.25032e-05
5.8067e-05
6.23699e-05
6.5462e-05
6.7421e-05
6.83389e-05
6.83146e-05
6.74037e-05
6.59043e-05
6.37878e-05
6.08758e-05
5.71815e-05
5.40251e-05
5.00686e-05
4.61583e-05
4.23723e-05
3.85455e-05
3.48513e-05
3.14162e-05
2.81789e-05
2.50186e-05
2.20664e-05
1.93419e-05
1.68545e-05
1.46027e-05
1.25712e-05
1.07381e-05
9.08059e-06
7.57762e-06
6.20986e-06
4.96011e-06
3.81321e-06
2.75616e-06
1.77838e-06
8.72646e-07
3.68891e-08
-7.23904e-07
-1.39372e-06
-1.94013e-06
-2.30884e-06
-2.41978e-06
-2.15788e-06
-1.37696e-06
1.09554e-07
2.54595e-06
6.13527e-06
1.03774e-05
1.35626e-05
1.46606e-05
1.53918e-05
1.50282e-05
1.48879e-05
1.5062e-05
1.53649e-05
1.57264e-05
1.61454e-05
1.66376e-05
1.72178e-05
1.79071e-05
1.87241e-05
1.96838e-05
2.07994e-05
2.20821e-05
2.3542e-05
2.51885e-05
2.70309e-05
2.90781e-05
3.13394e-05
3.38242e-05
3.65423e-05
3.95036e-05
4.27182e-05
4.61958e-05
4.99459e-05
5.39767e-05
5.82943e-05
6.29017e-05
6.77986e-05
7.29932e-05
7.84727e-05
8.39962e-05
8.93282e-05
9.42703e-05
9.8718e-05
0.000102481
0.000105432
0.000107219
0.000107821
0.000107508
0.000106455
0.000104604
0.000101957
9.86245e-05
9.46751e-05
9.01512e-05
8.51332e-05
7.96906e-05
7.39491e-05
6.80075e-05
6.19519e-05
5.5879e-05
4.98159e-05
4.38097e-05
3.78726e-05
3.20208e-05
2.62075e-05
2.0397e-05
1.44747e-05
8.27025e-06
1.52916e-06
-5.69925e-06
-1.37629e-05
-2.22466e-05
-3.12634e-05
-4.03823e-05
-4.91036e-05
-5.72093e-05
-6.4507e-05
-7.08151e-05
-7.58195e-05
-7.96749e-05
-8.25812e-05
-8.44498e-05
-8.50708e-05
-8.45279e-05
-8.30593e-05
-8.05829e-05
-7.70351e-05
-7.25056e-05
-6.69634e-05
-6.03493e-05
-5.26703e-05
-4.39304e-05
-3.41664e-05
-2.34819e-05
-1.20823e-05
-3.3019e-07
1.13348e-05
2.24922e-05
3.28343e-05
4.2153e-05
5.03844e-05
5.75408e-05
6.35929e-05
6.85906e-05
7.25342e-05
7.55179e-05
7.76154e-05
7.89017e-05
7.94156e-05
7.91393e-05
7.8038e-05
7.60753e-05
7.32672e-05
6.96774e-05
6.54055e-05
6.06083e-05
5.54164e-05
4.99536e-05
4.43099e-05
3.86006e-05
3.28209e-05
2.70738e-05
2.12898e-05
1.54673e-05
9.49006e-06
3.20705e-06
-3.60086e-06
-1.09368e-05
-1.9028e-05
-2.75829e-05
-3.66033e-05
-4.5422e-05
-5.40104e-05
-6.17366e-05
-6.84636e-05
-7.43184e-05
-7.89022e-05
-8.23252e-05
-8.48493e-05
-8.64543e-05
-8.68626e-05
-8.61592e-05
-8.45554e-05
-8.19993e-05
-7.84344e-05
-7.39084e-05
-6.83849e-05
-6.185e-05
-5.43391e-05
-4.5853e-05
-3.64321e-05
-2.6201e-05
-1.53317e-05
-4.13993e-06
6.9563e-06
1.75338e-05
2.72488e-05
3.58709e-05
4.32891e-05
4.951e-05
5.45405e-05
5.83589e-05
6.10794e-05
6.27723e-05
6.35453e-05
6.34327e-05
6.24376e-05
6.08368e-05
5.85976e-05
5.56155e-05
5.19952e-05
4.88165e-05
4.51817e-05
4.16343e-05
3.822e-05
3.4826e-05
3.15841e-05
2.85698e-05
2.57313e-05
2.29664e-05
2.03508e-05
1.79114e-05
1.56648e-05
1.36137e-05
1.17492e-05
1.00565e-05
8.51909e-06
7.12033e-06
5.84458e-06
4.67747e-06
3.60612e-06
2.61932e-06
1.7081e-06
8.66771e-07
9.4041e-08
-6.04452e-07
-1.21204e-06
-1.69628e-06
-2.00375e-06
-2.0646e-06
-1.76818e-06
-1.00464e-06
3.48913e-07
2.41385e-06
5.12575e-06
7.8393e-06
9.45758e-06
8.92563e-06
1.50895e-05
1.46803e-05
1.44635e-05
1.45315e-05
1.47487e-05
1.50557e-05
1.54422e-05
1.59096e-05
1.64672e-05
1.71315e-05
1.79143e-05
1.88289e-05
1.98871e-05
2.10996e-05
2.24763e-05
2.40263e-05
2.57584e-05
2.76812e-05
2.98037e-05
3.21347e-05
3.46834e-05
3.7459e-05
4.04707e-05
4.37275e-05
4.72377e-05
5.10088e-05
5.50459e-05
5.93513e-05
6.39244e-05
6.87715e-05
7.38775e-05
7.9024e-05
8.3962e-05
8.85066e-05
9.25871e-05
9.60254e-05
9.86728e-05
0.000100203
0.000100573
0.000100037
9.87828e-05
9.6735e-05
9.39029e-05
9.04338e-05
8.64222e-05
8.19268e-05
7.70248e-05
7.18097e-05
6.63915e-05
6.08533e-05
5.52694e-05
4.97227e-05
4.42325e-05
3.88385e-05
3.35539e-05
2.83897e-05
2.33072e-05
1.82662e-05
1.31629e-05
7.84743e-06
2.10552e-06
-4.0831e-06
-1.09915e-05
-1.8372e-05
-2.62926e-05
-3.44726e-05
-4.254e-05
-5.02019e-05
-5.71953e-05
-6.33039e-05
-6.84771e-05
-7.26563e-05
-7.56971e-05
-7.76439e-05
-7.85345e-05
-7.85908e-05
-7.76459e-05
-7.55651e-05
-7.24092e-05
-6.8332e-05
-6.32776e-05
-5.71883e-05
-5.00581e-05
-4.19097e-05
-3.27686e-05
-2.27481e-05
-1.20326e-05
-9.6154e-07
1.00487e-05
2.06095e-05
3.04179e-05
3.92631e-05
4.70842e-05
5.38444e-05
5.95459e-05
6.42431e-05
6.79444e-05
7.07562e-05
7.27231e-05
7.38846e-05
7.42393e-05
7.37484e-05
7.23885e-05
7.01606e-05
6.71266e-05
6.33899e-05
5.90767e-05
5.4355e-05
4.93541e-05
4.41902e-05
3.89439e-05
3.37159e-05
2.85056e-05
2.33837e-05
1.82868e-05
1.31968e-05
8.00051e-06
2.55998e-06
-3.31747e-06
-9.6774e-06
-1.67062e-05
-2.42217e-05
-3.22285e-05
-4.02322e-05
-4.81559e-05
-5.54536e-05
-6.19064e-05
-6.75024e-05
-7.20613e-05
-7.56997e-05
-7.82756e-05
-7.98377e-05
-8.03294e-05
-7.99784e-05
-7.87056e-05
-7.64021e-05
-7.31057e-05
-6.88979e-05
-6.37328e-05
-5.75884e-05
-5.05012e-05
-4.24997e-05
-3.36068e-05
-2.39733e-05
-1.37622e-05
-3.26861e-06
7.11049e-06
1.69879e-05
2.60358e-05
3.40303e-05
4.0892e-05
4.65713e-05
5.11143e-05
5.45313e-05
5.69532e-05
5.84228e-05
5.90107e-05
5.87241e-05
5.75444e-05
5.57633e-05
5.3394e-05
5.04009e-05
4.69276e-05
4.38463e-05
4.05396e-05
3.73503e-05
3.4309e-05
3.13263e-05
2.84952e-05
2.58647e-05
2.33886e-05
2.09763e-05
1.86702e-05
1.64994e-05
1.44835e-05
1.26283e-05
1.09301e-05
9.37961e-06
7.96527e-06
6.67463e-06
5.49543e-06
4.41609e-06
3.42609e-06
2.5163e-06
1.67973e-06
9.12272e-07
2.13947e-07
-4.08413e-07
-9.37285e-07
-1.34076e-06
-1.56895e-06
-1.55408e-06
-1.20967e-06
-4.5788e-07
7.43238e-07
2.41553e-06
4.42738e-06
6.15261e-06
6.63151e-06
5.40772e-06
1.44596e-05
1.40697e-05
1.3839e-05
1.38532e-05
1.4018e-05
1.42869e-05
1.46448e-05
1.50882e-05
1.56215e-05
1.62546e-05
1.69974e-05
1.78608e-05
1.88553e-05
1.99909e-05
2.12768e-05
2.27219e-05
2.43345e-05
2.6123e-05
2.80958e-05
3.02612e-05
3.26276e-05
3.52037e-05
3.79979e-05
4.10183e-05
4.42728e-05
4.77677e-05
5.15079e-05
5.54952e-05
5.97292e-05
6.42154e-05
6.89383e-05
7.36967e-05
7.82411e-05
8.24022e-05
8.61367e-05
8.92739e-05
9.16426e-05
9.29426e-05
9.3119e-05
9.24116e-05
9.10076e-05
8.88224e-05
8.58717e-05
8.23383e-05
7.83382e-05
7.39362e-05
6.9207e-05
6.42657e-05
5.92019e-05
5.40866e-05
4.89842e-05
4.39644e-05
3.90392e-05
3.42422e-05
2.95834e-05
2.50691e-05
2.06643e-05
1.6328e-05
1.19668e-05
7.44778e-06
2.5919e-06
-2.66164e-06
-8.51482e-06
-1.48657e-05
-2.17506e-05
-2.89898e-05
-3.6328e-05
-4.35167e-05
-5.02419e-05
-5.62326e-05
-6.14234e-05
-6.56733e-05
-6.89074e-05
-7.12075e-05
-7.25342e-05
-7.28404e-05
-7.21336e-05
-7.04455e-05
-6.78051e-05
-6.41842e-05
-5.95994e-05
-5.4013e-05
-4.74122e-05
-3.98356e-05
-3.12993e-05
-2.19225e-05
-1.18716e-05
-1.46454e-06
8.90363e-06
1.88715e-05
2.81424e-05
3.65077e-05
4.39079e-05
5.02785e-05
5.56455e-05
6.00617e-05
6.35323e-05
6.61562e-05
6.79432e-05
6.89024e-05
6.90142e-05
6.82465e-05
6.66058e-05
6.41346e-05
6.09331e-05
5.71309e-05
5.28672e-05
4.83093e-05
4.3578e-05
3.87777e-05
3.39779e-05
2.92619e-05
2.46265e-05
2.01181e-05
1.56753e-05
1.12704e-05
6.79438e-06
2.12181e-06
-2.91676e-06
-8.38879e-06
-1.445e-05
-2.09991e-05
-2.80443e-05
-3.52338e-05
-4.24886e-05
-4.93602e-05
-5.55863e-05
-6.10419e-05
-6.55793e-05
-6.92087e-05
-7.18239e-05
-7.35059e-05
-7.42847e-05
-7.41327e-05
-7.30229e-05
-7.09287e-05
-6.79553e-05
-6.4059e-05
-5.92286e-05
-5.34556e-05
-4.67746e-05
-3.92371e-05
-3.0857e-05
-2.1799e-05
-1.22223e-05
-2.40403e-06
7.2797e-06
1.64726e-05
2.48664e-05
3.22576e-05
3.85453e-05
4.37203e-05
4.78278e-05
5.08969e-05
5.30289e-05
5.42433e-05
5.45861e-05
5.4054e-05
5.26424e-05
5.06765e-05
4.82254e-05
4.52931e-05
4.20229e-05
3.91123e-05
3.61324e-05
3.3294e-05
3.06161e-05
2.80175e-05
2.55601e-05
2.32779e-05
2.11296e-05
1.90334e-05
1.70117e-05
1.50932e-05
1.32982e-05
1.16344e-05
1.01018e-05
8.69535e-06
7.40745e-06
6.22921e-06
5.15141e-06
4.16516e-06
3.26226e-06
2.43579e-06
1.68084e-06
9.94765e-07
3.7916e-07
-1.57947e-07
-5.99061e-07
-9.14117e-07
-1.05871e-06
-9.75767e-07
-6.04959e-07
9.01382e-08
1.11921e-06
2.46096e-06
3.80863e-06
4.71006e-06
4.55141e-06
3.26733e-06
1.36205e-05
1.32706e-05
1.30528e-05
1.30424e-05
1.31749e-05
1.34149e-05
1.37469e-05
1.4165e-05
1.46699e-05
1.52673e-05
1.59652e-05
1.67722e-05
1.76978e-05
1.87509e-05
1.99401e-05
2.12738e-05
2.276e-05
2.44065e-05
2.62211e-05
2.82118e-05
3.03862e-05
3.27523e-05
3.53178e-05
3.80901e-05
4.10764e-05
4.42826e-05
4.77132e-05
5.13699e-05
5.5253e-05
5.93681e-05
6.37001e-05
6.80638e-05
7.22173e-05
7.60081e-05
7.94169e-05
8.2276e-05
8.43917e-05
8.54885e-05
8.55095e-05
8.46762e-05
8.3171e-05
8.09032e-05
7.78945e-05
7.43599e-05
7.04301e-05
6.61718e-05
6.16746e-05
5.70441e-05
5.23598e-05
4.76837e-05
4.30693e-05
3.85741e-05
3.42023e-05
2.9982e-05
2.59177e-05
2.20114e-05
1.82301e-05
1.45345e-05
1.08412e-05
7.03322e-06
2.96073e-06
-1.45545e-06
-6.36959e-06
-1.17605e-05
-1.76595e-05
-2.39613e-05
-3.04868e-05
-3.70575e-05
-4.34108e-05
-4.92539e-05
-5.44582e-05
-5.88364e-05
-6.23051e-05
-6.48613e-05
-6.64594e-05
-6.70766e-05
-6.6743e-05
-6.54876e-05
-6.32594e-05
-6.007e-05
-5.5941e-05
-5.08382e-05
-4.47484e-05
-3.77227e-05
-2.97717e-05
-2.10176e-05
-1.16131e-05
-1.85546e-06
7.88087e-06
1.72582e-05
2.59902e-05
3.38747e-05
4.08411e-05
4.68304e-05
5.18712e-05
5.60078e-05
5.92329e-05
6.16281e-05
6.31728e-05
6.3861e-05
6.36763e-05
6.26111e-05
6.07072e-05
5.80441e-05
5.47488e-05
5.09653e-05
4.68346e-05
4.2516e-05
3.81163e-05
3.37262e-05
2.94022e-05
2.52094e-05
2.11394e-05
1.72198e-05
1.33907e-05
9.61876e-06
5.80116e-06
1.82499e-06
-2.45907e-06
-7.12703e-06
-1.23111e-05
-1.79605e-05
-2.40934e-05
-3.04587e-05
-3.69889e-05
-4.33435e-05
-4.92766e-05
-5.4604e-05
-5.91445e-05
-6.28334e-05
-6.55923e-05
-6.7441e-05
-6.83878e-05
-6.8406e-05
-6.75149e-05
-6.56931e-05
-6.29885e-05
-5.93792e-05
-5.48684e-05
-4.94513e-05
-4.31612e-05
-3.60679e-05
-2.81847e-05
-1.96819e-05
-1.0719e-05
-1.55643e-06
7.45092e-06
1.5974e-05
2.37261e-05
3.05221e-05
3.62655e-05
4.09703e-05
4.46736e-05
4.73892e-05
4.92053e-05
5.01178e-05
5.01642e-05
4.93542e-05
4.77164e-05
4.56071e-05
4.31397e-05
4.03302e-05
3.73012e-05
3.46071e-05
3.19507e-05
2.94535e-05
2.7124e-05
2.48815e-05
2.27642e-05
2.07975e-05
1.89451e-05
1.71336e-05
1.53731e-05
1.36907e-05
1.21061e-05
1.06282e-05
9.2593e-06
7.99757e-06
6.83846e-06
5.77601e-06
4.80367e-06
3.91492e-06
3.10385e-06
2.36572e-06
1.69712e-06
1.09721e-06
5.68872e-07
1.20599e-07
-2.31278e-07
-4.60575e-07
-5.31218e-07
-4.01978e-07
-3.63456e-08
5.82068e-07
1.43315e-06
2.39102e-06
3.19551e-06
3.54487e-06
3.08226e-06
1.94982e-06
1.26384e-05
1.23313e-05
1.21359e-05
1.21162e-05
1.22278e-05
1.24442e-05
1.27511e-05
1.31413e-05
1.36135e-05
1.41707e-05
1.48186e-05
1.55645e-05
1.64163e-05
1.7382e-05
1.84696e-05
1.96868e-05
2.10411e-05
2.25397e-05
2.41899e-05
2.59989e-05
2.79739e-05
3.0122e-05
3.24503e-05
3.49656e-05
3.76744e-05
4.05821e-05
4.36933e-05
4.70098e-05
5.05327e-05
5.42681e-05
5.82025e-05
6.21668e-05
6.59325e-05
6.93647e-05
7.24656e-05
7.50682e-05
7.69556e-05
7.7877e-05
7.77786e-05
7.6862e-05
7.53019e-05
7.30028e-05
6.99912e-05
6.65112e-05
6.27049e-05
5.86426e-05
5.44193e-05
5.01307e-05
4.58486e-05
4.1625e-05
3.75026e-05
3.35265e-05
2.96936e-05
2.60261e-05
2.25223e-05
1.91809e-05
1.59701e-05
1.2854e-05
9.75916e-06
6.58401e-06
3.20245e-06
-4.69383e-07
-4.55333e-06
-9.07047e-06
-1.40539e-05
-1.94485e-05
-2.51345e-05
-3.09781e-05
-3.67878e-05
-4.23191e-05
-4.74173e-05
-5.18676e-05
-5.5554e-05
-5.83957e-05
-6.03245e-05
-6.13258e-05
-6.13866e-05
-6.05328e-05
-5.87162e-05
-5.59535e-05
-5.22758e-05
-4.76468e-05
-4.2058e-05
-3.55684e-05
-2.81886e-05
-2.0041e-05
-1.12697e-05
-2.15193e-06
6.95802e-06
1.5745e-05
2.39345e-05
3.13309e-05
3.78634e-05
4.34711e-05
4.81799e-05
5.20195e-05
5.49654e-05
5.70797e-05
5.83246e-05
5.86955e-05
5.8195e-05
5.68466e-05
5.47254e-05
5.19385e-05
4.86291e-05
4.49452e-05
4.10217e-05
3.70044e-05
3.29838e-05
2.90348e-05
2.52004e-05
2.15281e-05
1.8004e-05
1.46412e-05
1.13816e-05
8.18969e-06
4.97019e-06
1.62295e-06
-1.98373e-06
-5.92752e-06
-1.03193e-05
-1.51404e-05
-2.04232e-05
-2.59792e-05
-3.17574e-05
-3.75017e-05
-4.30167e-05
-4.81091e-05
-5.25857e-05
-5.63366e-05
-5.92562e-05
-6.13116e-05
-6.24737e-05
-6.27326e-05
-6.21078e-05
-6.05513e-05
-5.81214e-05
-5.48055e-05
-5.06128e-05
-4.55472e-05
-3.9642e-05
-3.2981e-05
-2.55846e-05
-1.76232e-05
-9.25906e-06
-7.37274e-07
7.60867e-06
1.54752e-05
2.25983e-05
2.8815e-05
3.40353e-05
3.8284e-05
4.15783e-05
4.39216e-05
4.53849e-05
4.59561e-05
4.5684e-05
4.46057e-05
4.27831e-05
4.05913e-05
3.8171e-05
3.55325e-05
3.27708e-05
3.0323e-05
2.79858e-05
2.58182e-05
2.38191e-05
2.19058e-05
2.00984e-05
1.84174e-05
1.68322e-05
1.52775e-05
1.37567e-05
1.22944e-05
1.09091e-05
9.61029e-06
8.40177e-06
7.28382e-06
6.25427e-06
5.30945e-06
4.44506e-06
3.65667e-06
2.94042e-06
2.2932e-06
1.71324e-06
1.20096e-06
7.59982e-07
3.9839e-07
1.30129e-07
-2.40108e-08
-3.81101e-08
1.11587e-07
4.43609e-07
9.64058e-07
1.59804e-06
2.21161e-06
2.63891e-06
2.66511e-06
2.09409e-06
1.1332e-06
1.15521e-05
1.12844e-05
1.11131e-05
1.10913e-05
1.1188e-05
1.13831e-05
1.16641e-05
1.20235e-05
1.24587e-05
1.29708e-05
1.3564e-05
1.42439e-05
1.50174e-05
1.58915e-05
1.68733e-05
1.79698e-05
1.91878e-05
2.0534e-05
2.20149e-05
2.36372e-05
2.54072e-05
2.73315e-05
2.94164e-05
3.1668e-05
3.40921e-05
3.66941e-05
3.94782e-05
4.24467e-05
4.56016e-05
4.89498e-05
5.24801e-05
5.60407e-05
5.94206e-05
6.25032e-05
6.53105e-05
6.76756e-05
6.93578e-05
7.01314e-05
6.99484e-05
6.8989e-05
6.74182e-05
6.51361e-05
6.21723e-05
5.8798e-05
5.51647e-05
5.13448e-05
4.74326e-05
4.35152e-05
3.9656e-05
3.58959e-05
3.22665e-05
2.88014e-05
2.54899e-05
2.23487e-05
1.93703e-05
1.65507e-05
1.38598e-05
1.12661e-05
8.7054e-06
6.09164e-06
3.31864e-06
3.0542e-07
-3.04681e-06
-6.77942e-06
-1.09285e-05
-1.54722e-05
-2.03341e-05
-2.54185e-05
-3.05782e-05
-3.56278e-05
-4.04346e-05
-4.47901e-05
-4.85608e-05
-5.16236e-05
-5.3881e-05
-5.52786e-05
-5.57683e-05
-5.53601e-05
-5.40035e-05
-5.1706e-05
-4.85068e-05
-4.43681e-05
-3.92919e-05
-3.33413e-05
-2.65331e-05
-1.8989e-05
-1.08487e-05
-2.37036e-06
6.11026e-06
1.4302e-05
2.19419e-05
2.88427e-05
3.49348e-05
4.01511e-05
4.45092e-05
4.80204e-05
5.06442e-05
5.24278e-05
5.33325e-05
5.33682e-05
5.25634e-05
5.0973e-05
4.86983e-05
4.58644e-05
4.26207e-05
3.91111e-05
3.54589e-05
3.17927e-05
2.81853e-05
2.46954e-05
2.13526e-05
1.81884e-05
1.51843e-05
1.23422e-05
9.60694e-06
6.94321e-06
4.26417e-06
1.48297e-06
-1.51662e-06
-4.8085e-06
-8.48851e-06
-1.25598e-05
-1.70463e-05
-2.18334e-05
-2.68694e-05
-3.1959e-05
-3.69532e-05
-4.16827e-05
-4.59668e-05
-4.96795e-05
-5.26926e-05
-5.49367e-05
-5.63455e-05
-5.68877e-05
-5.65708e-05
-5.53255e-05
-5.32156e-05
-5.02285e-05
-4.6378e-05
-4.16809e-05
-3.61729e-05
-2.99488e-05
-2.30416e-05
-1.56198e-05
-7.84947e-06
3.92256e-08
7.7318e-06
1.49513e-05
2.14555e-05
2.71041e-05
3.1809e-05
3.55976e-05
3.8464e-05
4.04072e-05
4.14869e-05
4.17021e-05
4.11238e-05
3.98172e-05
3.78687e-05
3.56583e-05
3.33402e-05
3.09107e-05
2.84352e-05
2.62539e-05
2.42301e-05
2.23788e-05
2.06908e-05
1.90812e-05
1.75562e-05
1.61341e-05
1.47902e-05
1.34678e-05
1.21665e-05
1.09087e-05
9.71136e-06
8.58376e-06
7.53072e-06
6.55394e-06
5.65292e-06
4.8258e-06
4.07001e-06
3.38292e-06
2.76217e-06
2.20602e-06
1.71392e-06