/*--------------------------------*- C++ -*----------------------------------*\
| =========                 |                                                 |
| \\      /  F ield         | OpenFOAM: The Open Source CFD Toolbox           |
|  \\    /   O peration     | Version:  2506                                  |
|   \\  /    A nd           | Website:  www.openfoam.com                      |
|    \\/     M anipulation  |                                                 |
\*---------------------------------------------------------------------------*/
FoamFile
{
    version     2.0;
    format      ascii;
    arch        "LSB;label=32;scalar=64";
    class       volVectorField;
    location    "0.35";
    object      U;
}
// * * * * * * * * * * * * * * * * * * * * * * * * * * * * * * * * * * * * * //

dimensions      [0 1 -1 0 0 0 0];

internalField   nonuniform List<vector> 
4000
(
(0.00290675 0.000436316 0)
(0.00199817 0.000457164 4.07317e-21)
(0.00109572 0.000262292 -4.16501e-21)
(0.000412808 0.000145378 -8.41191e-21)
(-5.73903e-05 8.65747e-05 1.69027e-20)
(-0.000394223 5.27568e-05 -8.41185e-21)
(-0.000644342 3.18534e-05 0)
(-0.000837084 1.88397e-05 0)
(-0.000988075 1.00922e-05 0)
(-0.00110859 3.58704e-06 -1.62315e-20)
(-0.00120564 -1.5993e-06 1.62016e-20)
(-0.00128375 -5.85493e-06 -3.205e-20)
(-0.00134629 -9.44098e-06 3.20118e-20)
(-0.00139578 -1.24904e-05 0)
(-0.00143433 -1.50752e-05 0)
(-0.00146378 -1.72336e-05 0)
(-0.00148577 -1.89927e-05 -3.11545e-20)
(-0.00150178 -2.04018e-05 3.11442e-20)
(-0.00151303 -2.1609e-05 0)
(-0.00152074 -2.29226e-05 0)
(-0.00152613 -2.44067e-05 0)
(-0.00153005 -2.59022e-05 0)
(-0.00153304 -2.73699e-05 0)
(-0.00153547 -2.88239e-05 -6.00745e-20)
(-0.00153752 -3.02913e-05 1.19833e-19)
(-0.00153923 -3.18052e-05 -5.9759e-20)
(-0.00154043 -3.34048e-05 0)
(-0.00154072 -3.51496e-05 0)
(-0.00153941 -3.71337e-05 0)
(-0.00153532 -3.95426e-05 0)
(-0.00152635 -4.28717e-05 5.79921e-20)
(-0.00150941 -4.83162e-05 -5.80019e-20)
(-0.00147943 -5.6635e-05 0)
(-0.0014136 -7.20396e-05 -5.01082e-20)
(-0.00131537 -0.00011912 -5.69305e-20)
(-0.00122306 -0.000197146 2.86491e-19)
(-0.00114658 -0.00027553 2.29896e-19)
(-0.00106927 -0.000337845 -5.79983e-20)
(-0.000984707 -0.000379381 2.32956e-19)
(-0.000899139 -0.000396778 5.27081e-19)
(-0.000810393 -0.000387846 -5.90478e-20)
(-0.000730005 -0.000347947 -4.72337e-19)
(-0.000647608 -0.000286476 4.73115e-19)
(-0.00056452 -0.000222929 0)
(-0.000494994 -0.000168501 0)
(-0.000442224 -0.000125288 2.95482e-20)
(-0.000404516 -9.2512e-05 4.43678e-19)
(-0.000385961 -7.05714e-05 4.43834e-19)
(-0.00038202 -5.90122e-05 2.66036e-19)
(-0.000393504 -5.58297e-05 2.35352e-19)
(-0.000422272 -5.94922e-05 -2.34084e-19)
(-0.00046494 -6.8517e-05 0)
(-0.000527698 -7.98502e-05 2.88284e-20)
(-0.000604563 -9.08223e-05 -4.88694e-19)
(-0.000698842 -9.83017e-05 0)
(-0.000806723 -0.000102379 1.12865e-19)
(-0.000926848 -9.85286e-05 2.77358e-20)
(-0.00105757 -8.37843e-05 -2.94509e-24)
(-0.00119335 -5.79455e-05 3.09333e-22)
(-0.00132953 -1.10105e-05 1.37195e-20)
(-0.00146104 4.6925e-05 -2.62591e-20)
(-0.0015803 0.000122854 0)
(-0.00168407 0.00020903 0)
(-0.00177318 0.000301755 -4.99109e-20)
(-0.00184017 0.000399268 -3.45322e-19)
(-0.00189759 0.000491929 -4.81578e-20)
(-0.00193549 0.000583929 4.8259e-20)
(-0.00196773 0.000668019 -4.64531e-20)
(-0.00198672 0.000747884 -1.37417e-19)
(-0.00199959 0.000818832 3.15884e-19)
(-0.00200858 0.000883027 4.45624e-20)
(-0.00200743 0.000939287 -1.02474e-21)
(-0.00200542 0.000986246 0)
(-0.00199835 0.00102616 0)
(-0.00198559 0.00105707 0)
(-0.001971 0.00107967 2.03093e-20)
(-0.00195284 0.00109503 3.01456e-19)
(-0.00192961 0.00110245 0)
(-0.00190431 0.00110253 -1.07387e-21)
(-0.00187688 0.00109638 -1.91435e-20)
(-0.00184676 0.00108387 3.03565e-19)
(-0.00181489 0.00106547 -2.7207e-19)
(-0.00178128 0.00104167 -8.11423e-23)
(-0.00174614 0.00101278 -2.95568e-19)
(-0.00171115 0.000979862 -1.35414e-21)
(-0.00167506 0.000943454 2.80845e-19)
(-0.00163747 0.000903212 2.81406e-19)
(-0.001602 0.000860231 -2.82644e-19)
(-0.00156615 0.000815131 4.25997e-21)
(-0.00152875 0.000766857 2.67973e-19)
(-0.00149441 0.000716451 0)
(-0.00145934 0.000664571 2.68742e-19)
(-0.00142305 0.000610148 2.49e-19)
(-0.00138952 0.000554171 -2.53697e-19)
(-0.00135264 0.000496723 1.40862e-19)
(-0.00131862 0.000437408 -1.54556e-20)
(-0.00128102 0.00037751 -1.21939e-19)
(-0.00124501 0.00031601 -1.49914e-20)
(-0.00120621 0.000255108 -1.04095e-19)
(-0.00116947 0.000194283 -7.35002e-20)
(-0.00113067 0.000136583 2.91358e-20)
(-0.00109152 8.17e-05 -7.2321e-20)
(-0.0010522 3.20246e-05 7.20274e-21)
(-0.00101086 -1.24822e-05 7.1747e-21)
(-0.000969049 -5.30936e-05 2.85895e-20)
(-0.000927513 -8.83712e-05 0)
(-0.000886069 -0.000119915 0)
(-0.000847448 -0.000145818 2.25974e-19)
(-0.000809824 -0.000167293 7.20283e-21)
(-0.000775216 -0.000184401 -1.19354e-19)
(-0.000743215 -0.000197756 -1.16083e-19)
(-0.000715111 -0.000207651 -3.63855e-21)
(-0.000689894 -0.000214338 1.20914e-19)
(-0.000669343 -0.000217846 2.26539e-22)
(-0.000649502 -0.00021952 0)
(-0.000634701 -0.000219752 -2.36581e-19)
(-0.000621786 -0.000219043 7.3818e-21)
(-0.000611098 -0.000217856 2.21811e-19)
(-0.000603637 -0.000216304 7.43982e-21)
(-0.000597776 -0.000214469 2.37128e-19)
(-0.000593416 -0.000212421 7.21086e-22)
(-0.000591143 -0.0002102 -2.36301e-19)
(-0.000590155 -0.000207751 -1.46614e-20)
(-0.000589799 -0.000205028 2.64125e-19)
(-0.00059095 -0.000202011 -1.4678e-20)
(-0.000592805 -0.000198611 -2.32612e-19)
(-0.000595337 -0.000194816 -2.87591e-20)
(-0.00059876 -0.000190593 2.88887e-20)
(-0.000602783 -0.000185802 -2.28304e-19)
(-0.000606833 -0.000180414 1.97512e-19)
(-0.000612954 -0.000174593 2.82815e-20)
(-0.000619421 -0.000168199 4.17222e-19)
(-0.000625886 -0.000161269 2.78098e-20)
(-0.000635892 -0.000153998 2.18871e-19)
(-0.000646957 -0.000146318 -1.00593e-21)
(-0.000658242 -0.000138458 0)
(-0.000677454 -0.000130243 0)
(-0.000696219 -0.000122471 4.90482e-22)
(-0.000723856 -0.000114357 0)
(-0.000757157 -0.000106383 2.5231e-20)
(-0.000799755 -9.79914e-05 7.46115e-20)
(-0.000852812 -8.85422e-05 2.44186e-20)
(-0.000918698 -7.67427e-05 4.81101e-20)
(-0.000996644 -6.13087e-05 2.40581e-20)
(-0.00109227 -3.77078e-05 6.9455e-20)
(-0.00119653 -6.05347e-06 -2.28626e-20)
(-0.00131504 4.02669e-05 0)
(-0.00143574 9.35584e-05 0)
(-0.00156016 0.00016079 0)
(-0.00167889 0.000239219 1.99216e-20)
(-0.00179056 0.000324931 -1.98695e-20)
(-0.00188731 0.000422557 -7.5698e-20)
(-0.00197119 0.000520223 -7.31467e-20)
(-0.00203466 0.000624533 0)
(-0.00208533 0.000722253 6.8219e-20)
(-0.00211633 0.000819877 0)
(-0.00213938 0.000905542 1.54494e-20)
(-0.00214342 0.000979881 -7.7022e-20)
(-0.00210774 0.0010134 1.46117e-20)
(-0.00200322 0.00095863 -2.44612e-19)
(-0.00201948 0.000833083 5.55803e-20)
(-0.00209218 0.000736055 5.40539e-20)
(-0.00213212 0.000623186 0)
(-0.00214047 0.000493036 0)
(-0.00213321 0.000353198 0)
(-0.00211714 0.000219475 0)
(-0.00209935 0.000111685 0)
(-0.0020506 5.85016e-05 -1.08853e-20)
(-0.00193313 3.81182e-05 3.70616e-22)
(-0.00178238 2.83739e-05 3.68053e-22)
(-0.00163211 2.43846e-05 1.02703e-20)
(-0.00149838 2.38812e-05 0)
(-0.00139017 2.51527e-05 -9.22721e-21)
(-0.00131052 2.67693e-05 9.23227e-21)
(-0.00125866 2.76969e-05 -2.71956e-22)
(-0.00123234 2.7976e-05 0)
(-0.00122702 2.93649e-05 0)
(-0.00123702 3.14335e-05 7.50716e-21)
(-0.00125822 3.29518e-05 -7.49344e-21)
(-0.00128718 3.34979e-05 0)
(-0.00132085 3.32556e-05 0)
(-0.00135655 3.24293e-05 2.85725e-21)
(-0.00139219 3.11657e-05 -1.68643e-22)
(-0.00142624 2.9583e-05 -2.87218e-21)
(-0.00145769 2.77815e-05 0)
(-0.00148597 2.58448e-05 0)
(-0.00151084 2.38506e-05 0)
(-0.00153236 2.18563e-05 0)
(-0.00155076 1.99053e-05 -1.19913e-22)
(-0.00156642 1.8031e-05 0)
(-0.00157977 1.62548e-05 0)
(-0.00159129 1.45867e-05 0)
(-0.00160146 1.30281e-05 -5.79498e-22)
(-0.00161074 1.15738e-05 5.78546e-22)
(-0.00161959 1.02165e-05 0)
(-0.00162843 8.95013e-06 -4.62041e-23)
(-0.00163768 7.77912e-06 -1.23305e-22)
(-0.00164826 6.72721e-06 8.19901e-23)
(-0.00166273 6.41966e-06 4.10287e-23)
(-0.00168045 7.73356e-06 0)
(0.00402995 0.000961247 0)
(0.00370212 0.00140673 0)
(0.00312822 0.00119039 0)
(0.00243825 0.000918717 -8.72777e-21)
(0.00178064 0.000691999 1.77392e-20)
(0.00120353 0.000523444 -8.99524e-21)
(0.00071569 0.000401839 0)
(0.000308544 0.000314518 -1.82065e-20)
(-2.90771e-05 0.000250046 1.83091e-20)
(-0.000308483 0.00020051 -1.8107e-20)
(-0.000538827 0.000161108 1.80278e-20)
(-0.000727098 0.000129093 3.55914e-20)
(-0.000879949 0.000102771 -3.54891e-20)
(-0.00100271 8.10248e-05 -3.50699e-20)
(-0.00109994 6.31937e-05 1.69754e-22)
(-0.00117595 4.88683e-05 6.94068e-20)
(-0.00123465 3.77018e-05 -3.45809e-20)
(-0.0012797 2.93379e-05 0)
(-0.00131447 2.3335e-05 0)
(-0.00134189 1.90983e-05 0)
(-0.00136436 1.62446e-05 0)
(-0.001384 1.45811e-05 0)
(-0.00140256 1.38287e-05 0)
(-0.00142136 1.36724e-05 0)
(-0.00144134 1.3793e-05 0)
(-0.00146305 1.38658e-05 0)
(-0.00148677 1.35416e-05 0)
(-0.00151235 1.24044e-05 0)
(-0.0015394 9.86741e-06 0)
(-0.00156696 4.9755e-06 0)
(-0.00159346 -4.05586e-06 6.36318e-20)
(-0.00161558 -2.06494e-05 -3.02285e-22)
(-0.00162778 -4.9855e-05 -1.26165e-19)
(-0.00162806 -0.000100115 5.50287e-20)
(-0.00160406 -0.000206915 6.22867e-20)
(-0.00152273 -0.000363356 -1.87364e-19)
(-0.00138245 -0.000509807 2.51543e-19)
(-0.00120408 -0.000613249 6.35244e-20)
(-0.000997269 -0.00066033 -6.46071e-19)
(-0.000771765 -0.000643051 -1.9746e-19)
(-0.000515205 -0.000553794 0)
(-0.000257124 -0.000400168 -6.74027e-20)
(-1.85734e-05 -0.000221508 -4.07956e-19)
(0.000195321 -5.18853e-05 -6.84005e-20)
(0.000375207 9.34238e-05 -5.44229e-19)
(0.000520686 0.000209235 5.43613e-19)
(0.000637003 0.000296794 -1.2062e-21)
(0.000716123 0.000355027 0)
(0.000764655 0.000385828 2.71667e-19)
(0.000784143 0.000394051 0)
(0.000769372 0.000380169 5.4718e-22)
(0.000724904 0.000351203 0)
(0.00064028 0.000311475 2.68407e-19)
(0.000522537 0.000265788 2.68032e-19)
(0.000363316 0.000220302 0)
(0.000165919 0.000177283 -1.23589e-22)
(-6.5329e-05 0.000146341 -1.31893e-19)
(-0.000334344 0.000133216 -3.23567e-20)
(-0.000622693 0.000141171 -6.36464e-20)
(-0.000932367 0.000186486 1.58909e-20)
(-0.00125271 0.000256769 0)
(-0.00156494 0.000363784 -1.21295e-19)
(-0.00186684 0.000498871 5.98866e-20)
(-0.00214723 0.000655812 1.16503e-19)
(-0.00239721 0.000833241 3.42515e-19)
(-0.00262176 0.00101418 5.62402e-20)
(-0.00280652 0.00120221 -2.7324e-19)
(-0.00296781 0.00138302 5.39716e-20)
(-0.00309429 0.00155919 0)
(-0.0031959 0.00172114 -5.1246e-20)
(-0.00327414 0.00186818 5.07735e-20)
(-0.0033263 0.00199903 -2.08941e-21)
(-0.00336348 0.00210943 0)
(-0.00338041 0.00220073 3.81858e-19)
(-0.00338065 0.00227129 3.74718e-19)
(-0.003368 0.00232048 -2.28062e-20)
(-0.00334127 0.00234935 2.26219e-20)
(-0.00330127 0.0023584 -2.19959e-20)
(-0.0032514 0.00234843 3.46444e-19)
(-0.00319229 0.00232113 -3.20878e-19)
(-0.00312446 0.00227848 3.36481e-19)
(-0.0030496 0.00222165 3.39011e-19)
(-0.00296805 0.0021521 -2.02704e-20)
(-0.00288064 0.00207103 3.29716e-19)
(-0.00278976 0.00197972 -3.10153e-19)
(-0.00269531 0.00187981 3.06792e-19)
(-0.00259801 0.00177253 -3.04184e-19)
(-0.0025012 0.00165896 2.97664e-19)
(-0.00240242 0.00154138 9.14686e-21)
(-0.00230203 0.00142021 -9.06664e-21)
(-0.00220385 0.00129593 0)
(-0.00210361 0.00116999 0)
(-0.00200328 0.00104313 -1.38029e-19)
(-0.00190419 0.000915505 1.52256e-19)
(-0.00180184 0.000788928 -1.33484e-19)
(-0.00170195 0.000662981 -3.29005e-20)
(-0.00159786 0.000540182 -2.40518e-22)
(-0.00149563 0.000420004 8.30423e-23)
(-0.00138881 0.000306118 2.84664e-19)
(-0.00128246 0.000198358 4.68305e-20)
(-0.00117284 0.000101612 -6.20485e-20)
(-0.00106406 1.54535e-05 6.15706e-20)
(-0.000954757 -5.68503e-05 0)
(-0.00084856 -0.000114965 7.62205e-21)
(-0.000745239 -0.000160618 -7.6564e-21)
(-0.000647586 -0.000192614 0)
(-0.000554865 -0.000214221 0)
(-0.000469187 -0.000224399 -1.23592e-19)
(-0.000391137 -0.000226231 1.24178e-19)
(-0.00032124 -0.000220692 -1.28924e-19)
(-0.000259481 -0.000209808 2.52205e-19)
(-0.000206236 -0.000195058 2.17956e-23)
(-0.000159592 -0.000177567 4.00995e-21)
(-0.000122837 -0.000158741 1.29038e-19)
(-9.04997e-05 -0.000140122 0)
(-6.59699e-05 -0.000122124 0)
(-4.68935e-05 -0.000106249 0)
(-3.1318e-05 -9.20935e-05 -2.72223e-19)
(-2.05538e-05 -7.99567e-05 -2.55382e-19)
(-1.28169e-05 -7.00293e-05 0)
(-6.6463e-06 -6.16259e-05 2.99459e-19)
(-2.80125e-06 -5.46862e-05 -4.99236e-20)
(-5.25726e-07 -4.92799e-05 3.32518e-20)
(1.72205e-06 -4.47776e-05 -1.67006e-20)
(3.13541e-06 -4.0835e-05 3.3052e-20)
(4.51868e-06 -3.72483e-05 -2.64843e-19)
(6.22565e-06 -3.36658e-05 2.30602e-19)
(7.97296e-06 -2.99535e-05 -2.95834e-19)
(1.0414e-05 -2.58187e-05 3.87881e-22)
(1.47283e-05 -2.08265e-05 -2.30004e-19)
(1.76895e-05 -1.55839e-05 0)
(2.13089e-05 -1.02988e-05 -2.60164e-19)
(2.75533e-05 -4.19497e-06 3.19388e-20)
(3.01578e-05 1.79583e-06 2.224e-19)
(3.19572e-05 6.90421e-06 -2.54777e-19)
(3.538e-05 1.21413e-05 3.11715e-20)
(2.77446e-05 1.57743e-05 -3.13947e-20)
(1.88005e-05 1.66233e-05 3.15954e-20)
(-2.98208e-06 1.57442e-05 -3.07421e-20)
(-3.77665e-05 1.22009e-05 2.97452e-20)
(-9.06265e-05 7.54721e-06 -1.48771e-19)
(-0.000166748 2.99262e-06 1.44657e-19)
(-0.000271816 8.86458e-07 -1.43347e-19)
(-0.000405686 4.63145e-06 0)
(-0.000580876 2.09858e-05 -2.74044e-20)
(-0.000783892 5.12679e-05 2.63196e-20)
(-0.00102996 0.000107703 1.284e-20)
(-0.00130434 0.000181725 0)
(-0.00159853 0.000285762 2.40945e-20)
(-0.00190804 0.000418076 -4.65637e-20)
(-0.0022154 0.00057231 0)
(-0.0025124 0.000757297 8.66535e-20)
(-0.00279142 0.000951779 2.05493e-20)
(-0.00303911 0.00116604 -2.03848e-20)
(-0.00326112 0.00137674 0)
(-0.00344316 0.00159235 -7.46045e-20)
(-0.00359739 0.00178786 7.14342e-20)
(-0.00370862 0.00195311 -6.92683e-20)
(-0.00377124 0.00204757 0)
(-0.00377115 0.00201981 1.27537e-19)
(-0.00386229 0.00179786 7.65158e-20)
(-0.00393301 0.0015395 -1.32809e-19)
(-0.00395952 0.00123406 1.4022e-20)
(-0.00391436 0.000893877 -1.39109e-20)
(-0.00379835 0.000538662 -1.30759e-20)
(-0.00360046 0.000214008 -1.24902e-20)
(-0.00332651 -4.49118e-05 1.11314e-20)
(-0.00297747 -0.000188898 7.58683e-22)
(-0.00258051 -0.000248302 0)
(-0.00218076 -0.000257994 -7.15519e-22)
(-0.00181168 -0.000236779 0)
(-0.00149528 -0.000198397 6.73675e-22)
(-0.00124109 -0.000152858 1.02536e-20)
(-0.0010509 -0.000107127 -1.09201e-20)
(-0.000922113 -6.56523e-05 9.12033e-22)
(-0.000847779 -3.04642e-05 -9.16854e-21)
(-0.000818693 -7.70479e-07 1.73891e-20)
(-0.000825909 2.27973e-05 -1.71478e-20)
(-0.000860883 3.99768e-05 8.8699e-21)
(-0.000914545 5.09166e-05 0)
(-0.000979315 5.66419e-05 -4.05097e-21)
(-0.00104913 5.82289e-05 3.79702e-21)
(-0.00111927 5.67291e-05 4.10149e-22)
(-0.00118632 5.30851e-05 2.99566e-21)
(-0.00124797 4.81092e-05 -2.62533e-21)
(-0.00130291 4.2475e-05 -2.60459e-21)
(-0.00135061 3.67177e-05 2.90979e-21)
(-0.00139113 3.12369e-05 -2.50704e-21)
(-0.00142498 2.63097e-05 4.3732e-21)
(-0.00145293 2.21114e-05 -2.7005e-21)
(-0.00147591 1.87323e-05 9.16641e-22)
(-0.00149493 1.62012e-05 1.93816e-22)
(-0.001511 1.45054e-05 0)
(-0.00152507 1.3612e-05 -3.97635e-22)
(-0.00153808 1.34994e-05 5.43794e-22)
(-0.00155086 1.41944e-05 -2.83519e-23)
(-0.0015642 1.58286e-05 1.80358e-22)
(-0.00157937 1.86865e-05 0)
(-0.00159958 2.33532e-05 0)
(-0.0016216 2.90061e-05 1.28506e-23)
(0.00408175 0.000696171 0)
(0.00406385 0.00135628 4.22157e-21)
(0.00407309 0.00147032 -4.20687e-21)
(0.00389969 0.00138357 -8.39318e-21)
(0.00355831 0.0012163 8.47874e-21)
(0.00314708 0.00102726 0)
(0.00273079 0.000854274 0)
(0.0023404 0.000707142 0)
(0.00198818 0.000584919 1.73787e-20)
(0.00167792 0.000482778 -3.49964e-20)
(0.00140974 0.000396609 -1.74353e-20)
(0.0011811 0.00032361 3.52741e-20)
(0.000988873 0.000261583 3.51479e-20)
(0.000829333 0.000208913 -3.5321e-20)
(0.000698595 0.000164603 0)
(0.000592753 0.000128001 3.5072e-20)
(0.000507809 9.85068e-05 -7.01608e-20)
(0.000439854 7.55133e-05 3.50693e-20)
(0.000385126 5.83818e-05 0)
(0.000340138 4.64644e-05 0)
(0.000301771 3.89974e-05 0)
(0.000267234 3.51515e-05 0)
(0.000234087 3.41325e-05 0)
(0.000200313 3.51897e-05 6.81569e-20)
(0.000164303 3.76186e-05 -6.82052e-20)
(0.00012483 4.07506e-05 0)
(8.10061e-05 4.3922e-05 0)
(3.22617e-05 4.64218e-05 0)
(-2.1662e-05 4.73594e-05 0)
(-8.07819e-05 4.54713e-05 0)
(-0.000144859 3.88202e-05 6.58622e-20)
(-0.000212767 2.43214e-05 -6.57662e-20)
(-0.000280934 -3.49013e-06 0)
(-0.000368257 -5.34865e-05 -4.04611e-21)
(-0.000453445 -0.000149492 0)
(-0.000446416 -0.00028024 1.27975e-19)
(-0.000330422 -0.000389483 -2.57395e-19)
(-0.000149148 -0.000442816 0)
(7.81166e-05 -0.000425081 5.25543e-19)
(0.000341788 -0.000327884 -3.72815e-22)
(0.000658792 -0.000147742 6.61153e-20)
(0.000994834 9.58928e-05 -6.63543e-20)
(0.00130968 0.00035563 5.28114e-19)
(0.00159443 0.000597838 0)
(0.00184406 0.000806709 5.91494e-19)
(0.00205892 0.000974922 -5.58449e-19)
(0.00224583 0.00110235 -5.57591e-19)
(0.0023964 0.00118766 0)
(0.00251468 0.00123328 -2.61294e-19)
(0.00260121 0.00124268 0)
(0.00265042 0.00121678 5.20008e-19)
(0.00266652 0.00116372 0)
(0.00263626 0.00108565 -2.25933e-19)
(0.00256437 0.000987914 -2.88879e-19)
(0.00244076 0.000876663 -2.5544e-19)
(0.00226424 0.000758289 -1.27273e-19)
(0.00203737 0.000642866 -1.26595e-19)
(0.00175023 0.000538176 -6.30245e-20)
(0.00142221 0.000452285 3.15328e-20)
(0.00104299 0.000398409 4.69951e-20)
(0.000627613 0.000374183 0)
(0.000197334 0.000391507 1.23685e-19)
(-0.000245341 0.000448672 -1.22075e-19)
(-0.000679262 0.000542226 0)
(-0.00109525 0.000673015 -4.67589e-19)
(-0.00148657 0.000826575 0)
(-0.00183729 0.00100249 -5.55549e-20)
(-0.00215503 0.0011849 5.48972e-20)
(-0.00242606 0.00137044 0)
(-0.00265897 0.00154865 -5.19614e-20)
(-0.00285055 0.00171431 5.13982e-20)
(-0.003002 0.00186471 5.5051e-19)
(-0.00312231 0.00199288 -3.43861e-19)
(-0.00320643 0.00209782 1.86944e-21)
(-0.00326139 0.00217786 -3.7606e-19)
(-0.00328984 0.00223084 -2.29981e-20)
(-0.00329175 0.00225718 3.86745e-19)
(-0.00327066 0.0022579 0)
(-0.00322923 0.00223352 3.51144e-19)
(-0.00316776 0.00218576 6.67008e-19)
(-0.00308854 0.00211769 -6.45013e-19)
(-0.00299467 0.00203158 -3.43908e-19)
(-0.00288731 0.00192993 3.37997e-19)
(-0.00276908 0.00181505 -3.30847e-19)
(-0.00264183 0.00168843 0)
(-0.00250609 0.00155334 -3.10575e-19)
(-0.00236425 0.00141211 -3.8139e-21)
(-0.00221839 0.001266 -6.11782e-19)
(-0.00206725 0.00111757 -2.79185e-19)
(-0.00191391 0.000969384 -3.02469e-19)
(-0.00175962 0.000821846 0)
(-0.00160192 0.000677164 0)
(-0.00144444 0.000537691 1.39735e-19)
(-0.00128681 0.000403527 0)
(-0.00112729 0.00027776 1.69554e-20)
(-0.000969996 0.000160524 -1.68149e-20)
(-0.000810909 5.49769e-05 1.32301e-19)
(-0.000654742 -3.83275e-05 -1.30888e-19)
(-0.000498884 -0.000116278 -1.13143e-19)
(-0.000346359 -0.000179456 -1.60481e-20)
(-0.000195634 -0.000224522 6.34925e-20)
(-5.10547e-05 -0.000251685 -3.1524e-20)
(8.92261e-05 -0.000260072 2.34403e-20)
(0.000220143 -0.000250055 -7.76986e-21)
(0.00034385 -0.000223284 0)
(0.000456725 -0.000180587 -6.13718e-20)
(0.000559548 -0.000125386 0)
(0.00065146 -5.98184e-05 -1.22598e-19)
(0.000731606 1.25108e-05 -1.9555e-22)
(0.000800903 8.89179e-05 1.19616e-19)
(0.000859745 0.000166606 -1.23975e-19)
(0.000908528 0.000243224 3.89946e-21)
(0.000949743 0.000316795 0)
(0.000981389 0.000385536 -1.25476e-19)
(0.00100856 0.000448724 1.26142e-19)
(0.00102971 0.000506164 0)
(0.00104575 0.000556725 -7.93588e-21)
(0.00105969 0.000601276 2.63362e-19)
(0.00107049 0.000639825 2.41202e-19)
(0.00107935 0.000672418 -2.40565e-19)
(0.00108851 0.000700199 2.57187e-19)
(0.00109736 0.000723536 1.60593e-20)
(0.00110626 0.000742528 -2.4163e-19)
(0.00111725 0.000758186 -3.24251e-20)
(0.00113013 0.000771194 -2.89283e-19)
(0.00114549 0.000781846 5.79429e-19)
(0.0011639 0.000790676 -2.90005e-19)
(0.00118524 0.000797913 2.25112e-19)
(0.00121027 0.000803909 -1.90497e-19)
(0.00124057 0.000809158 -3.16566e-19)
(0.00127308 0.000812867 -1.88563e-19)
(0.00130902 0.000814464 -3.15943e-20)
(0.00135185 0.000814896 -2.17524e-19)
(0.00139481 0.000812806 -2.79577e-19)
(0.00143937 0.000806814 3.04334e-20)
(0.00148893 0.000797911 -3.06531e-20)
(0.00153041 0.00078339 -9.01011e-20)
(0.00157012 0.000761534 -2.91489e-20)
(0.00159957 0.000732518 2.91241e-20)
(0.00161481 0.000695183 -2.93071e-20)
(0.0016104 0.000650708 1.14064e-19)
(0.00157799 0.000599915 -2.86197e-20)
(0.00150958 0.000544883 6.21166e-22)
(0.00140266 0.000489419 2.75548e-20)
(0.00124006 0.000439004 1.06963e-19)
(0.00103352 0.00039728 0)
(0.000762103 0.00037653 -5.11085e-20)
(0.000437124 0.000376542 3.18466e-20)
(6.95829e-05 0.000409541 -2.46411e-20)
(-0.000341532 0.000479642 7.11729e-20)
(-0.000771392 0.000583449 2.26049e-20)
(-0.00121595 0.000730361 -8.82699e-20)
(-0.00165782 0.000901978 -1.05825e-19)
(-0.00208007 0.00110576 4.07901e-20)
(-0.00247934 0.00132049 -9.83196e-20)
(-0.00283716 0.00154693 7.51652e-20)
(-0.00315678 0.00176231 1.78436e-20)
(-0.00342145 0.00195129 6.89902e-20)
(-0.00363008 0.00206774 -1.70116e-20)
(-0.00377883 0.00207719 6.48936e-20)
(-0.00391023 0.00185149 -6.1384e-20)
(-0.00392711 0.00152052 4.45785e-20)
(-0.00387972 0.00111992 1.45697e-20)
(-0.00372884 0.00068067 2.77714e-20)
(-0.00346513 0.000238714 0)
(-0.00307997 -0.000151296 2.57229e-20)
(-0.00258363 -0.000451343 -2.36736e-20)
(-0.00201215 -0.00061698 -3.48459e-22)
(-0.00144469 -0.00067009 4.22261e-22)
(-0.000913552 -0.000647637 1.15024e-21)
(-0.000436231 -0.000576441 1.15851e-20)
(-2.76719e-05 -0.000477725 -6.89762e-22)
(0.000304633 -0.00036802 0)
(0.000559476 -0.000259036 6.35678e-22)
(0.000740641 -0.00015852 -6.09558e-22)
(0.000855617 -7.12019e-05 -1.03145e-20)
(0.000913588 1.18307e-07 9.69746e-21)
(0.000924467 5.47478e-05 8.3578e-21)
(0.000899498 9.40329e-05 -8.8486e-21)
(0.000848691 0.000119621 0)
(0.000781243 0.000133556 4.62183e-22)
(0.000704905 0.000138063 0)
(0.000625874 0.000135402 2.8042e-21)
(0.000548809 0.000127684 -1.89156e-22)
(0.000476939 0.000116767 -3.39744e-21)
(0.000412245 0.000104209 -6.85135e-22)
(0.000355673 9.1249e-05 -3.19826e-22)
(0.000307375 7.88083e-05 2.95874e-22)
(0.000266919 6.75236e-05 0)
(0.00023349 5.77912e-05 -2.47876e-22)
(0.00020604 4.98194e-05 -8.46741e-22)
(0.000183421 4.36775e-05 6.45769e-22)
(0.000164464 3.93443e-05 6.56043e-22)
(0.000148031 3.67541e-05 -8.07383e-22)
(0.000133054 3.58413e-05 0)
(0.000118568 3.65948e-05 -1.27898e-22)
(0.000103783 3.91051e-05 -1.86048e-22)
(8.76988e-05 4.35853e-05 -4.65015e-23)
(6.72608e-05 5.04964e-05 4.64242e-23)
(4.59861e-05 5.947e-05 -1.28514e-23)
(0.00404159 0.000409707 0)
(0.00402345 0.0010101 0)
(0.00425508 0.00131736 0)
(0.00447429 0.00142558 -8.29153e-21)
(0.00450493 0.00139647 8.29198e-21)
(0.00441351 0.00129614 0)
(0.00424713 0.00115862 0)
(0.00404272 0.00101321 0)
(0.00382471 0.000874754 0)
(0.00360818 0.000746901 0)
(0.00340328 0.000631068 0)
(0.00321533 0.000527945 3.34774e-20)
(0.00304651 0.000436781 -3.36663e-20)
(0.00289764 0.000356845 3.35163e-20)
(0.00276846 0.0002878 -6.7164e-20)
(0.00265783 0.000229412 3.36268e-20)
(0.00256401 0.000181275 3.34059e-20)
(0.00248492 0.000142891 -3.34935e-20)
(0.00241821 0.000113659 0)
(0.00236135 9.27906e-05 0)
(0.00231175 7.93182e-05 -6.60147e-20)
(0.0022669 7.2155e-05 6.60893e-20)
(0.00222439 7.01827e-05 0)
(0.00218199 7.23068e-05 6.52158e-20)
(0.00213777 7.74874e-05 -6.52679e-20)
(0.00209002 8.475e-05 0)
(0.0020373 9.31682e-05 0)
(0.00197838 0.000101809 -6.4143e-20)
(0.00191217 0.000109625 3.19446e-22)
(0.00183766 0.000115287 6.39922e-20)
(0.00175373 0.000116977 6.34748e-20)
(0.00165928 0.000112119 -1.26915e-19)
(0.00155595 9.6511e-05 6.34745e-20)
(0.00141797 6.15406e-05 -5.91596e-20)
(0.00126602 -1.40272e-06 6.33219e-20)
(0.00120328 -7.63913e-05 6.27704e-20)
(0.00125927 -0.000122074 -6.308e-20)
(0.00139295 -0.0001092 -1.89288e-19)
(0.00158387 -2.36098e-05 -3.16752e-19)
(0.00182423 0.000139629 -6.36689e-20)
(0.00212955 0.000378659 6.38807e-20)
(0.00246686 0.000667181 5.72327e-19)
(0.00279313 0.000963397 -5.71209e-19)
(0.00309879 0.00123952 -5.69978e-19)
(0.00338038 0.00148027 1.26647e-19)
(0.00363745 0.00167794 -9.50006e-20)
(0.0038752 0.00183089 2.84318e-19)
(0.00408563 0.0019364 0)
(0.00427006 0.00199604 2.83824e-19)
(0.00442846 0.0020105 -3.15921e-20)
(0.00455369 0.00198309 -2.50853e-19)
(0.00464772 0.00191906 -3.10358e-20)
(0.00469844 0.00181851 3.09517e-19)
(0.0047079 0.00168747 2.15555e-19)
(0.00466596 0.00152991 2.44825e-19)
(0.00456867 0.00135341 1.2156e-19)
(0.00441556 0.00116657 3.01153e-20)
(0.00419349 0.000977049 -3.01611e-20)
(0.00391836 0.000796335 -2.98391e-20)
(0.00357378 0.000633819 -4.43447e-20)
(0.00317296 0.000496747 -2.9387e-20)
(0.00273138 0.000395681 0)
(0.00225223 0.000335387 -1.17025e-19)
(0.00175884 0.000317101 0)
(0.0012595 0.000343485 4.05674e-19)
(0.000770929 0.000405796 2.31274e-19)
(0.000307459 0.00050264 5.75657e-20)
(-0.000127026 0.000620696 0)
(-0.000517562 0.000754106 0)
(-0.000868294 0.000892425 2.1704e-19)
(-0.00117077 0.00102679 0)
(-0.00142681 0.00115336 -4.65945e-19)
(-0.00164124 0.00126312 4.55607e-19)
(-0.00180843 0.0013525 -4.21023e-19)
(-0.00193673 0.00141922 2.48398e-22)
(-0.00202751 0.00145978 2.41551e-22)
(-0.00208105 0.00147375 -3.26907e-19)
(-0.00210283 0.00146233 -4.59993e-20)
(-0.00209568 0.00142596 -3.37859e-19)
(-0.00206065 0.00136607 -3.54447e-19)
(-0.00200176 0.00128528 -1.8031e-21)
(-0.00192255 0.00118664 3.31339e-19)
(-0.00182466 0.00107298 -3.2548e-19)
(-0.00171103 0.000947519 0)
(-0.0015837 0.000812973 -5.06789e-21)
(-0.00144418 0.000672593 -3.16208e-19)
(-0.0012959 0.00052967 6.28457e-19)
(-0.00114035 0.000385641 9.33298e-19)
(-0.000977349 0.000243424 3.14698e-19)
(-0.000811422 0.000106337 -1.06453e-20)
(-0.000642877 -2.50487e-05 0)
(-0.000470808 -0.000148305 -9.10793e-21)
(-0.000299821 -0.000260455 9.03964e-21)
(-0.000128929 -0.000361414 0)
(4.14724e-05 -0.000447842 -1.39828e-19)
(0.000208757 -0.000519537 1.7023e-20)
(0.000374532 -0.00057366 -1.67715e-20)
(0.000535728 -0.00060965 -2.38453e-22)
(0.000692674 -0.000625183 -1.28662e-19)
(0.000844236 -0.000620656 1.57387e-20)
(0.000990453 -0.000594573 -3.10882e-20)
(0.00112847 -0.000547383 1.5374e-20)
(0.0012597 -0.000479808 4.42087e-24)
(0.00138041 -0.000393166 7.49946e-21)
(0.0014931 -0.000289915 -7.49537e-21)
(0.00159507 -0.000172586 5.96112e-20)
(0.00168752 -4.45339e-05 6.32085e-20)
(0.00177033 9.07957e-05 1.15449e-19)
(0.00184327 0.000229914 -2.38738e-19)
(0.00190759 0.000369646 1.15917e-19)
(0.00196392 0.000507148 3.76849e-21)
(0.00201282 0.00063999 3.763e-21)
(0.00205641 0.000766383 -3.80514e-21)
(0.00209334 0.000884644 1.22122e-19)
(0.00212768 0.000994361 -8.02475e-21)
(0.00215846 0.00109492 5.35803e-23)
(0.00218616 0.00118579 -1.07894e-19)
(0.00221344 0.00126761 -3.80065e-19)
(0.00223953 0.00134039 2.48182e-19)
(0.00226533 0.00140447 2.49828e-19)
(0.00229293 0.00146089 -2.65796e-19)
(0.00232193 0.00151004 -2.33544e-19)
(0.00235269 0.00155229 2.35015e-19)
(0.00238711 0.00158868 2.80338e-19)
(0.00242528 0.0016198 2.34543e-19)
(0.00246782 0.00164595 -3.24426e-20)
(0.0025155 0.00166757 3.12163e-20)
(0.00256843 0.00168487 0)
(0.00262748 0.00169813 2.7787e-19)
(0.0026942 0.00170762 2.45652e-19)
(0.00276621 0.00171232 2.13947e-19)
(0.00284434 0.00171171 0)
(0.00293214 0.00170641 2.71093e-19)
(0.00302341 0.00169456 -3.00303e-20)
(0.00311884 0.00167508 8.84426e-20)
(0.00322149 0.0016482 2.95004e-20)
(0.0033196 0.00161077 8.33113e-22)
(0.00341665 0.00156163 1.433e-19)
(0.00350605 0.00150046 -2.85201e-20)
(0.00358244 0.00142592 1.38667e-19)
(0.00364063 0.00133835 -2.47236e-19)
(0.00367129 0.00123821 -2.15915e-19)
(0.00366583 0.00112731 -1.05751e-19)
(0.00361984 0.0010093 0)
(0.00351572 0.000888361 2.49588e-20)
(0.00336139 0.000770508 -3.58579e-22)
(0.00313477 0.000663956 -1.19052e-20)
(0.00284076 0.000574783 4.19299e-20)
(0.00248794 0.000512794 -2.37689e-20)
(0.00206948 0.000485839 4.59106e-20)
(0.00161087 0.000495116 -4.50106e-20)
(0.00110977 0.000549594 0)
(0.000590106 0.000639508 1.07663e-19)
(6.53167e-05 0.000769636 -4.20973e-20)
(-0.000450931 0.000924503 8.16025e-20)
(-0.00094134 0.00110118 1.9752e-20)
(-0.00140215 0.00127859 -9.33801e-20)
(-0.00181346 0.00143987 1.82345e-20)
(-0.00216685 0.00154778 0)
(-0.00245753 0.00155597 -8.30402e-20)
(-0.00264083 0.00134824 4.37571e-22)
(-0.00260976 0.000996623 4.25151e-22)
(-0.00248909 0.000568448 4.24918e-22)
(-0.00225512 0.000106404 -2.81529e-20)
(-0.00189304 -0.00034451 4.28229e-22)
(-0.00140533 -0.000726309 2.0422e-22)
(-0.000802943 -0.00100266 1.27772e-20)
(-0.000149618 -0.00114022 -1.12373e-20)
(0.000458719 -0.00115432 -1.1848e-20)
(0.00100625 -0.00108102 -1.01904e-21)
(0.00149052 -0.000950287 1.1198e-20)
(0.00190518 -0.000786829 -1.31534e-21)
(0.00224703 -0.000610755 -9.90554e-21)
(0.00251662 -0.000437123 9.87525e-21)
(0.00271744 -0.000276451 1.16116e-21)
(0.00285529 -0.00013556 1.11606e-21)
(0.00293752 -1.84525e-05 0)
(0.00297233 7.37881e-05 -7.98835e-21)
(0.00296907 0.000141827 7.96087e-21)
(0.00293681 0.000187847 0)
(0.00288411 0.000214785 8.7818e-22)
(0.00281855 0.000226005 0)
(0.00274651 0.000225012 -7.8731e-22)
(0.00267306 0.000215174 -2.88334e-21)
(0.00260197 0.000199521 2.88306e-21)
(0.00253578 0.000180638 6.54033e-22)
(0.00247601 0.000160613 -6.06484e-22)
(0.00242332 0.000141031 0)
(0.0023777 0.00012301 1.97587e-21)
(0.00233866 0.000107269 -1.9744e-21)
(0.00230543 9.42059e-05 -4.24605e-22)
(0.00227704 8.39797e-05 -7.15011e-22)
(0.00225244 7.65868e-05 7.1412e-22)
(0.00223059 7.19282e-05 -5.34135e-22)
(0.00221049 6.98719e-05 5.33348e-22)
(0.00219125 7.03097e-05 1.99914e-22)
(0.00217217 7.31967e-05 1.32797e-22)
(0.00215259 7.85631e-05 -8.83341e-23)
(0.0021299 8.66281e-05 -1.10362e-22)
(0.00210626 9.78201e-05 0)
(0.00401783 0.000241001 0)
(0.00390486 0.000690795 0)
(0.0041405 0.00101337 0)
(0.00447883 0.00120763 -8.33157e-21)
(0.00472958 0.00128377 8.27978e-21)
(0.00488582 0.00127261 0)
(0.00496722 0.00121188 -1.62966e-20)
(0.00497858 0.00111618 1.63226e-20)
(0.00494876 0.00100593 1.62259e-20)
(0.00488903 0.000890439 -3.24952e-20)
(0.00481002 0.000776651 1.62752e-20)
(0.00472112 0.000669394 0)
(0.00462795 0.000569783 0)