/*--------------------------------*- C++ -*----------------------------------*\
| =========                 |                                                 |
| \\      /  F ield         | OpenFOAM: The Open Source CFD Toolbox           |
|  \\    /   O peration     | Version:  2506                                  |
|   \\  /    A nd           | Website:  www.openfoam.com                      |
|    \\/     M anipulation  |                                                 |
\*---------------------------------------------------------------------------*/
FoamFile
{
    version     2.0;
    format      ascii;
    arch        "LSB;label=32;scalar=64";
    class       surfaceScalarField;
    location    "4.95";
    object      phi;
}
// * * * * * * * * * * * * * * * * * * * * * * * * * * * * * * * * * * * * * //

dimensions      [0 3 -1 0 0 0 0];

oriented        oriented;

internalField   nonuniform List<scalar> 
7780
(
2.05869e-09
4.41314e-10
1.55971e-09
4.98978e-10
1.20068e-09
3.59026e-10
9.60958e-10
2.39723e-10
8.04084e-10
1.56874e-10
7.00113e-10
1.03972e-10
6.29284e-10
7.08285e-11
5.79259e-10
5.00248e-11
5.42572e-10
3.66878e-11
5.14651e-10
2.79208e-11
4.92691e-10
2.19597e-11
4.74902e-10
1.77894e-11
4.60077e-10
1.48247e-11
4.47388e-10
1.26891e-11
4.36243e-10
1.11446e-11
4.26202e-10
1.00413e-11
4.16927e-10
9.27453e-12
4.08158e-10
8.76979e-12
3.9968e-10
8.47767e-12
3.91316e-10
8.36352e-12
3.82914e-10
8.40276e-12
3.74334e-10
8.57953e-12
3.6545e-10
8.88426e-12
3.56138e-10
9.31173e-12
3.46278e-10
9.86057e-12
3.35744e-10
1.05334e-11
3.24407e-10
1.13374e-11
3.1212e-10
1.22871e-11
2.9871e-10
1.34097e-11
2.83951e-10
1.47593e-11
2.67494e-10
1.64572e-11
2.48717e-10
1.8777e-11
2.26636e-10
2.2081e-11
1.95452e-10
3.11832e-11
1.70558e-10
2.48945e-11
1.66373e-10
4.18452e-12
1.74162e-10
-7.78916e-12
1.87641e-10
-1.34784e-11
2.07229e-10
-1.95881e-11
2.35573e-10
-2.83444e-11
2.83303e-10
-4.77298e-11
3.38185e-10
-5.48821e-11
3.88707e-10
-5.0522e-11
4.35791e-10
-4.70842e-11
4.77642e-10
-4.18508e-11
5.15668e-10
-3.8026e-11
5.5181e-10
-3.61423e-11
5.8129e-10
-2.94805e-11
6.08726e-10
-2.74356e-11
6.31984e-10
-2.32583e-11
6.49636e-10
-1.76518e-11
6.64632e-10
-1.49962e-11
6.70759e-10
-6.12626e-12
6.74056e-10
-3.29706e-12
6.66509e-10
7.54704e-12
6.53102e-10
1.3407e-11
6.31483e-10
2.1619e-11
5.99964e-10
3.15181e-11
5.6662e-10
3.33444e-11
5.20431e-10
4.61887e-11
4.75917e-10
4.45143e-11
4.27988e-10
4.79286e-11
3.80269e-10
4.77195e-11
3.36179e-10
4.40899e-11
2.92699e-10
4.34798e-11
2.55682e-10
3.70174e-11
2.20258e-10
3.54237e-11
1.90728e-10
2.95305e-11
1.63796e-10
2.6932e-11
1.40689e-10
2.31071e-11
1.20845e-10
1.98439e-11
1.02717e-10
1.81278e-11
8.7516e-11
1.52013e-11
7.38934e-11
1.36228e-11
6.16925e-11
1.22012e-11
5.10781e-11
1.06147e-11
4.15023e-11
9.57625e-12
3.27622e-11
8.74058e-12
2.4938e-11
7.82456e-12
1.77904e-11
7.1481e-12
1.11742e-11
6.6166e-12
5.05941e-12
6.11516e-12
-6.59508e-13
5.71932e-12
-6.02583e-12
5.36676e-12
-1.10439e-11
5.01864e-12
-1.57867e-11
4.74334e-12
-2.02192e-11
4.43332e-12
-2.42756e-11
4.0573e-12
-2.79897e-11
3.71503e-12
-3.1279e-11
3.29024e-12
-3.4116e-11
2.83793e-12
-3.64785e-11
2.36332e-12
-3.82792e-11
1.80142e-12
-3.95328e-11
1.25412e-12
-4.02201e-11
6.87839e-13
-4.04119e-11
1.92102e-13
-3.9931e-11
-4.80665e-13
-3.8933e-11
-9.97762e-13
-3.73021e-11
-1.63064e-12
-3.50819e-11
-2.22006e-12
-3.21124e-11
-2.96924e-12
-2.83963e-11
-3.71593e-12
-2.38485e-11
-4.54754e-12
-1.84248e-11
-5.42349e-12
-1.19639e-11
-6.46053e-12
-4.54368e-12
-7.41992e-12
4.15242e-12
-8.69569e-12
1.39645e-11
-9.81156e-12
2.5122e-11
-1.1157e-11
3.75805e-11
-1.24578e-11
5.14361e-11
-1.38547e-11
6.65536e-11
-1.51164e-11
8.32115e-11
-1.66567e-11
1.00648e-10
-1.74352e-11
1.19865e-10
-1.9216e-11
1.39679e-10
-1.98125e-11
1.6032e-10
-2.06416e-11
1.81906e-10
-2.15884e-11
2.0358e-10
-2.16781e-11
2.25446e-10
-2.18733e-11
2.4757e-10
-2.21336e-11
2.69232e-10
-2.16741e-11
2.90275e-10
-2.10531e-11
3.11005e-10
-2.07357e-11
3.30881e-10
-1.98731e-11
3.49952e-10
-1.90545e-11
3.68205e-10
-1.82237e-11
3.8547e-10
-1.72267e-11
4.02063e-10
-1.65517e-11
4.18484e-10
-1.639e-11
4.33505e-10
-1.50081e-11
4.48265e-10
-1.47736e-11
4.6375e-10
-1.55233e-11
4.77738e-10
-1.40426e-11
4.91929e-10
-1.42461e-11
5.07864e-10
-1.59766e-11
5.20568e-10
-1.27216e-11
5.35424e-10
-1.48503e-11
5.48101e-10
-1.26552e-11
5.60046e-10
-1.1917e-11
5.69761e-10
-9.68975e-12
5.76025e-10
-6.24913e-12
5.77408e-10
-1.37556e-12
5.7474e-10
2.66851e-12
5.6162e-10
1.31173e-11
5.46225e-10
1.5393e-11
5.16845e-10
2.9377e-11
4.84466e-10
3.2378e-11
4.45432e-10
3.90338e-11
4.00846e-10
4.45851e-11
3.57051e-10
4.37956e-11
3.085e-10
4.85509e-11
2.6496e-10
4.35397e-11
2.20547e-10
4.44134e-11
1.81958e-10
3.85888e-11
1.44728e-10
3.72297e-11
1.12936e-10
3.17921e-11
8.37694e-11
2.91664e-11
5.9263e-11
2.45064e-11
3.86694e-11
2.05936e-11
3.79443e-11
7.2509e-13
3.93942e-11
-1.44991e-12
4.34503e-11
-4.05606e-12
5.06083e-11
-7.15805e-12
6.36096e-11
-1.30013e-11
8.25397e-11
-1.89301e-11
1.1203e-10
-2.94898e-11
1.43166e-10
-3.1136e-11
1.71432e-10
-2.82668e-11
1.97369e-10
-2.59364e-11
2.21057e-10
-2.36885e-11
2.42468e-10
-2.14111e-11
2.61604e-10
-1.9136e-11
2.78526e-10
-1.69211e-11
2.93332e-10
-1.48062e-11
3.0615e-10
-1.28181e-11
3.17126e-10
-1.09762e-11
3.26418e-10
-9.29205e-12
3.34188e-10
-7.77016e-12
3.40597e-10
-6.40894e-12
3.458e-10
-5.20236e-12
3.49941e-10
-4.14167e-12
3.53158e-10
-3.21662e-12
3.55573e-10
-2.41557e-12
3.57299e-10
-1.72542e-12
3.58434e-10
-1.13565e-12
3.5907e-10
-6.35965e-13
3.59276e-10
-2.05971e-13
3.59116e-10
1.6034e-13
3.58659e-10
4.57068e-13
3.57951e-10
7.08009e-13
3.57037e-10
9.14096e-13
3.55957e-10
1.08003e-12
3.54745e-10
1.21162e-12
3.53428e-10
1.31723e-12
3.52016e-10
1.41232e-12
3.5049e-10
1.52539e-12
3.4878e-10
1.71076e-12
3.46608e-10
2.17129e-12
3.63058e-12
2.64883e-09
2.92486e-10
2.59885e-09
5.48956e-10
2.42098e-09
5.36894e-10
2.2057e-09
4.55001e-10
2.00035e-09
3.62226e-10
1.82787e-09
2.76454e-10
1.68953e-09
2.09168e-10
1.57994e-09
1.59612e-10
1.49305e-09
1.23579e-10
1.42348e-09
9.74905e-11
1.36701e-09
7.84339e-11
1.32039e-09
6.44097e-11
1.28116e-09
5.40506e-11
1.2475e-09
4.63492e-11
1.21802e-09
4.06234e-11
1.19165e-09
3.64168e-11
1.16753e-09
3.33935e-11
1.14499e-09
3.13077e-11
1.12348e-09
2.9991e-11
1.10252e-09
2.93224e-11
1.08171e-09
2.92144e-11
1.06068e-09
2.96095e-11
1.03909e-09
3.04722e-11
1.01662e-09
3.17831e-11
9.92941e-10
3.35366e-11
9.67733e-10
3.57412e-11
9.40649e-10
3.84208e-11
9.11317e-10
4.16197e-11
8.79312e-10
4.54148e-11
8.44128e-10
4.99426e-11
8.05124e-10
5.54612e-11
7.61425e-10
6.24765e-11
7.11606e-10
7.18998e-11
6.5099e-10
9.17987e-11
6.01084e-10
7.48014e-11
5.8549e-10
1.9778e-11
5.96638e-10
-1.89374e-11
6.2627e-10
-4.31101e-11
6.73512e-10
-6.68307e-11
7.41138e-10
-9.59703e-11
8.36377e-10
-1.42968e-10
9.41581e-10
-1.60085e-10
1.04361e-09
-1.52552e-10
1.14036e-09
-1.43834e-10
1.22886e-09
-1.30348e-10
1.31037e-09
-1.19538e-10
1.38634e-09
-1.12117e-10
1.45232e-09
-9.54566e-11
1.51258e-09
-8.76985e-11
1.56469e-09
-7.53649e-11
1.60724e-09
-6.02036e-11
1.64201e-09
-4.97639e-11
1.66297e-09
-2.70835e-11
1.67452e-09
-1.48492e-11
1.66976e-09
1.23046e-11
1.65198e-09
3.11883e-11
1.61826e-09
5.53407e-11
1.56702e-09
8.27608e-11
1.50503e-09
9.53278e-11
1.42307e-09
1.28151e-10
1.33499e-09
1.3259e-10
1.23804e-09
1.44888e-10
1.13727e-09
1.48481e-10
1.03763e-09
1.43737e-10
9.38136e-10
1.42972e-10
8.45966e-10
1.29187e-10
7.57713e-10
1.23677e-10
6.78379e-10
1.08864e-10
6.05329e-10
9.99826e-11
5.39796e-10
8.86398e-11
4.8147e-10
7.81694e-11
4.2819e-10
7.14078e-11
3.81185e-10
6.22067e-11
3.38801e-10
5.60066e-11
3.00386e-10
5.06158e-11
2.65994e-10
4.50071e-11
2.34773e-10
4.07965e-11
2.06175e-10
3.7339e-11
1.80134e-10
3.38647e-11
1.56276e-10
3.10059e-11
1.34228e-10
2.86645e-11
1.13847e-10
2.64961e-11
9.49115e-11
2.46543e-11
7.72656e-11
2.30125e-11
6.08765e-11
2.14077e-11
4.55698e-11
2.005e-11
3.13206e-11
1.86828e-11
1.83349e-11
1.70433e-11
6.50471e-12
1.55457e-11
-4.09378e-12
1.38893e-11
-1.31749e-11
1.19196e-11
-2.08243e-11
1.00133e-11
-2.69566e-11
7.9342e-12
-3.13602e-11
5.6582e-12
-3.41625e-11
3.4906e-12
-3.50876e-11
1.11755e-12
-3.42861e-11
-1.28173e-12
-3.13643e-11
-3.91929e-12
-2.6575e-11
-6.41964e-12
-1.94263e-11
-9.36844e-12
-1.02288e-11
-1.21664e-11
1.52444e-12
-1.54688e-11
1.57719e-11
-1.87947e-11
3.26443e-11
-2.22956e-11
5.26289e-11
-2.64449e-11
7.53355e-11
-3.01262e-11
1.01485e-10
-3.48451e-11
1.30627e-10
-3.89529e-11
1.63079e-10
-4.36089e-11
1.98673e-10
-4.80513e-11
2.37352e-10
-5.25338e-11
2.78832e-10
-5.65966e-11
3.23146e-10
-6.09701e-11
3.69305e-10
-6.35935e-11
4.18093e-10
-6.80037e-11
4.67937e-10
-6.96537e-11
5.18857e-10
-7.15596e-11
5.70653e-10
-7.33802e-11
6.2219e-10
-7.32108e-11
6.73393e-10
-7.30726e-11
7.24104e-10
-7.28447e-11
7.73388e-10
-7.09628e-11
8.21077e-10
-6.87537e-11
8.67375e-10
-6.7052e-11
9.1171e-10
-6.42317e-11
9.54173e-10
-6.15421e-11
9.94797e-10
-5.88646e-11
1.03355e-09
-5.59796e-11
1.07094e-09
-5.39336e-11
1.10751e-09
-5.29222e-11
1.14212e-09
-4.95818e-11
1.17626e-09
-4.88696e-11
1.21107e-09
-5.02927e-11
1.24387e-09
-4.68317e-11
1.27722e-09
-4.76147e-11
1.31185e-09
-5.06394e-11
1.34313e-09
-4.404e-11
1.37565e-09
-4.73988e-11
1.40507e-09
-4.20929e-11
1.43185e-09
-3.86935e-11
1.4541e-09
-3.19355e-11
1.46928e-09
-2.14135e-11
1.47559e-09
-7.67917e-12
1.47147e-09
6.79683e-12
1.45248e-09
3.21113e-11
1.42265e-09
4.52158e-11
1.37211e-09
7.99159e-11
1.30988e-09
9.46143e-11
1.23347e-09
1.15444e-10
1.14437e-09
1.3368e-10
1.05001e-09
1.38161e-10
9.46032e-10
1.52523e-10
8.43998e-10
1.45574e-10
7.39465e-10
1.48947e-10
6.41111e-10
1.36943e-10
5.45236e-10
1.33105e-10
4.57544e-10
1.19484e-10
3.76226e-10
1.10485e-10
3.05873e-10
9.48587e-11
2.47027e-10
7.94401e-11
2.27542e-10
2.02103e-11
2.23726e-10
2.36579e-12
2.31549e-10
-1.18789e-11
2.5052e-10
-2.61287e-11
2.84924e-10
-4.74056e-11
3.34348e-10
-6.83541e-11
4.01983e-10
-9.71245e-11
4.72742e-10
-1.01896e-10
5.39071e-10
-9.45952e-11
6.00714e-10
-8.75798e-11
6.57543e-10
-8.0517e-11
7.09444e-10
-7.33123e-11
7.56387e-10
-6.60788e-11
7.9845e-10
-5.89842e-11
8.35799e-10
-5.21559e-11
8.68664e-10
-4.56829e-11
8.97316e-10
-3.96278e-11
9.22055e-10
-3.40315e-11
9.43199e-10
-2.89139e-11
9.61067e-10
-2.4277e-11
9.75974e-10
-2.01095e-11
9.88224e-10
-1.63911e-11
9.98104e-10
-1.30964e-11
1.00588e-09
-1.01958e-11
1.01181e-09
-7.65639e-12
1.01612e-09
-5.44521e-12
1.01902e-09
-3.52954e-12
1.02069e-09
-1.87787e-12
1.0213e-09
-4.50734e-13
1.02102e-09
7.3665e-13
1.01999e-09
1.73899e-12
1.01834e-09
2.56179e-12
1.0162e-09
3.2182e-12
1.01369e-09
3.72332e-12
1.01091e-09
4.09697e-12
1.00795e-09
4.37098e-12
1.00488e-09
4.59913e-12
1.00171e-09
4.88172e-12
9.98433e-10
5.44812e-12
7.06019e-12
2.61924e-09
1.73242e-10
2.75222e-09
4.1598e-10
2.78973e-09
4.99381e-10
2.74812e-09
4.9661e-10
2.66019e-09
4.50164e-10
2.54989e-09
3.86747e-10
2.43625e-09
3.22811e-10
2.33093e-09
2.64933e-10
2.23761e-09
2.16895e-10
2.15661e-09
1.7849e-10
2.087e-09
1.48043e-10
2.02715e-09
1.24266e-10
1.9753e-09
1.05895e-10
1.92994e-09
9.17122e-11
1.88972e-09
8.08427e-11
1.85349e-09
7.26485e-11
1.82028e-09
6.66062e-11
1.78927e-09
6.23151e-11
1.75976e-09
5.94973e-11
1.73115e-09
5.79397e-11
1.70287e-09
5.74865e-11
1.67445e-09
5.8035e-11
1.6454e-09
5.95214e-11
1.61527e-09
6.19111e-11
1.58361e-09
6.51963e-11
1.54996e-09
6.93955e-11
1.51382e-09
7.45551e-11
1.47469e-09
8.07557e-11
1.43198e-09
8.81267e-11
1.38504e-09
9.68766e-11
1.33315e-09
1.07353e-10
1.27546e-09
1.20163e-10
1.21098e-09
1.36382e-10
1.1364e-09
1.66376e-10
1.07265e-09
1.38554e-10
1.0454e-09
4.70334e-11
1.05207e-09
-2.5616e-11
1.08655e-09
-7.75843e-11
1.14709e-09
-1.27369e-10
1.23351e-09
-1.82394e-10
1.34719e-09
-2.56651e-10
1.47073e-09
-2.83627e-10
1.59375e-09
-2.75572e-10
1.71184e-09
-2.61917e-10
1.82131e-09
-2.3982e-10
1.92267e-09
-2.20898e-10
2.01667e-09
-2.06118e-10
2.10027e-09
-1.7906e-10
2.17634e-09
-1.63764e-10
2.24308e-09
-1.4211e-10
2.29931e-09
-1.16436e-10
2.34561e-09
-9.60631e-11
2.37844e-09
-5.99118e-11
2.39956e-09
-3.59707e-11
2.40444e-09
7.42701e-12
2.39432e-09
4.13123e-11
2.36694e-09
8.27169e-11
2.32056e-09
1.29141e-10
2.25911e-09
1.56776e-10
2.17609e-09
2.11174e-10
2.08069e-09
2.27986e-10
1.97147e-09
2.54116e-10
1.85298e-09
2.66963e-10
1.72978e-09
2.66945e-10
1.60277e-09
2.69973e-10
1.47875e-09
2.53214e-10
1.35671e-09
2.45714e-10
1.24185e-09
2.2372e-10
1.13327e-09
2.08567e-10
1.03265e-09
1.89255e-10
9.40523e-10
1.70301e-10
8.55045e-10
1.56886e-10
7.7764e-10
1.39611e-10
7.06802e-10
1.26845e-10
6.41823e-10
1.15594e-10
5.82749e-10
1.04081e-10
5.28619e-10
9.49267e-11
4.78752e-10
8.72055e-11
4.32976e-10
7.96401e-11
3.90852e-10
7.31298e-11
3.51861e-10
6.76555e-11
3.15797e-10
6.25597e-11
2.82348e-10
5.81028e-11
2.51282e-10
5.40786e-11
2.22548e-10
5.01424e-11
1.95857e-10
4.67402e-11
1.71112e-10
4.3428e-11
1.48644e-10
3.95119e-11
1.28202e-10
3.59883e-11
1.09881e-10
3.22099e-11
9.41956e-11
2.76057e-11
8.09722e-11
2.32371e-11
7.03312e-11
1.85756e-11
6.28288e-11
1.3161e-11
5.79537e-11
8.36609e-12
5.66354e-11
2.43632e-12
5.8054e-11
-2.69998e-12
6.31363e-11
-9.0012e-12
7.11881e-11
-1.44711e-11
8.33528e-11
-2.15328e-11
9.87822e-11
-2.75955e-11
1.18473e-10
-3.51591e-11
1.42148e-10
-4.24692e-11
1.7e-10
-5.01478e-11
2.02726e-10
-5.91703e-11
2.39609e-10
-6.7009e-11
2.81609e-10
-7.6845e-11
3.27961e-10
-8.53043e-11
3.78924e-10
-9.45724e-11
4.34163e-10
-1.0329e-10
4.93372e-10
-1.11743e-10
5.56094e-10
-1.19319e-10
6.2208e-10
-1.26956e-10
6.90166e-10
-1.3168e-10
7.60819e-10
-1.38657e-10
8.32332e-10
-1.41166e-10
9.04515e-10
-1.43741e-10
9.76943e-10
-1.45803e-10
1.04848e-09
-1.44738e-10
1.11889e-09
-1.43481e-10
1.18791e-09
-1.4186e-10
1.25468e-09
-1.37725e-10
1.31907e-09
-1.33148e-10
1.38115e-09
-1.29143e-10
1.44051e-09
-1.2362e-10
1.49729e-09
-1.1835e-10
1.55156e-09
-1.13163e-10
1.60345e-09
-1.07886e-10
1.65343e-09
-1.03927e-10
1.70188e-09
-1.01361e-10
1.74838e-09
-9.60393e-11
1.79391e-09
-9.43514e-11
1.83932e-09
-9.56538e-11
1.88285e-09
-9.03282e-11
1.92649e-09
-9.12459e-11
1.96994e-09
-9.40989e-11
2.01073e-09
-8.48615e-11
2.05096e-09
-8.76689e-11
2.08791e-09
-7.90654e-11
2.12089e-09
-7.1691e-11
2.14848e-09
-5.95235e-11
2.16783e-09
-4.07624e-11
2.17757e-09
-1.74031e-11
2.17524e-09
9.12833e-12
2.15772e-09
4.96341e-11
2.12625e-09
7.66894e-11
2.07415e-09
1.32014e-10
2.00622e-09
1.62548e-10
1.92095e-09
2.00715e-10
1.81864e-09
2.35991e-10
1.70535e-09
2.5145e-10
1.57777e-09
2.80098e-10
1.44602e-09
2.77323e-10
1.30721e-09
2.87759e-10
1.17012e-09
2.74032e-10
1.03254e-09
2.70684e-10
9.01133e-10
2.50893e-10
7.76361e-10
2.35257e-10
6.66585e-10
2.04635e-10
5.72279e-10
1.73746e-10
5.297e-10
6.27898e-11
5.14405e-10
1.76609e-11
5.20582e-10
-1.80567e-11
5.46212e-10
-5.17581e-11
5.95324e-10
-9.65175e-11
6.65201e-10
-1.38232e-10
7.5626e-10
-1.88184e-10
8.50304e-10
-1.95939e-10
9.39179e-10
-1.8347e-10
1.02228e-09
-1.70678e-10
1.09926e-09
-1.57505e-10
1.16999e-09
-1.44036e-10
1.23441e-09
-1.30503e-10
1.29262e-09
-1.17196e-10
1.34481e-09
-1.04341e-10
1.39122e-09
-9.20973e-11
1.43217e-09
-8.05788e-11
1.468e-09
-6.98608e-11
1.49907e-09
-5.99841e-11
1.52576e-09
-5.09587e-11
1.54842e-09
-4.2771e-11
1.56742e-09
-3.53925e-11
1.58311e-09
-2.87858e-11
1.59582e-09
-2.29057e-11
1.60586e-09
-1.77002e-11
1.61353e-09
-1.31151e-11
1.6191e-09
-9.09708e-12
1.62282e-09
-5.59637e-12
1.62494e-09
-2.56823e-12
1.62565e-09
1.79875e-14
1.6252e-09
2.19649e-12
1.62376e-09
3.99559e-12
1.62155e-09
5.43474e-12
1.61873e-09
6.53719e-12
1.6155e-09
7.33187e-12
1.61201e-09
7.86044e-12
1.60842e-09
8.18532e-12
1.60489e-09
8.40886e-12
1.60167e-09
8.675e-12
9.75089e-12
2.56732e-09
1.05919e-10
2.69658e-09
2.86725e-10
2.80567e-09
3.90286e-10
2.87288e-09
4.29403e-10
2.89427e-09
4.28777e-10
2.87746e-09
4.0355e-10
2.83707e-09
3.63203e-10
2.78346e-09
3.18544e-10
2.72432e-09
2.76038e-10
2.6653e-09
2.37507e-10
2.6094e-09
2.03939e-10
2.55758e-09
1.76089e-10
2.51005e-09
1.53423e-10
2.46667e-09
1.35095e-10
2.42695e-09
1.20561e-10
2.39029e-09
1.09314e-10
2.35607e-09
1.00826e-10
2.32371e-09
9.46712e-11
2.29264e-09
9.05703e-11
2.26232e-09
8.82627e-11
2.23223e-09
8.75672e-11
2.2019e-09
8.83653e-11
2.17084e-09
9.05851e-11
2.13856e-09
9.41909e-11
2.10457e-09
9.91835e-11
2.06837e-09
1.05601e-10
2.02941e-09
1.13517e-10
1.98711e-09
1.23053e-10
1.94085e-09
1.34383e-10
1.88996e-09
1.47768e-10
1.83372e-09
1.63599e-10
1.7714e-09
1.82479e-10
1.70236e-09
2.05425e-10
1.62405e-09
2.44686e-10
1.55456e-09
2.08046e-10
1.51795e-09
8.36395e-11
1.516e-09
-2.36629e-11
1.54592e-09
-1.0751e-10
1.60583e-09
-1.8728e-10
1.69289e-09
-2.69452e-10
1.80467e-09
-3.6843e-10
1.92589e-09
-4.04847e-10
2.04908e-09
-3.98757e-10
2.16849e-09
-3.81325e-10
2.28013e-09
-3.51459e-10
2.38392e-09
-3.24691e-10
2.48026e-09
-3.0246e-10
2.56699e-09
-2.6579e-10
2.64622e-09
-2.42988e-10
2.71684e-09
-2.12729e-10
2.77743e-09
-1.77028e-10
2.82852e-09
-1.47153e-10
2.86829e-09
-9.96866e-11
2.89703e-09
-6.4709e-11
2.9124e-09
-7.94345e-12
2.91416e-09
3.95522e-11
2.90094e-09
9.59333e-11
2.87093e-09
1.59159e-10
2.82587e-09
2.01828e-10
2.7612e-09
2.75849e-10
2.68185e-09
3.07337e-10
2.58643e-09
3.49532e-10
2.47795e-09
3.75444e-10
2.35939e-09
3.85508e-10
2.23228e-09
3.97082e-10
2.10206e-09
3.83431e-10
1.96932e-09
3.78457e-10
1.83899e-09
3.54044e-10
1.71173e-09
3.35831e-10
1.58981e-09
3.11171e-10
1.47479e-09
2.85323e-10
1.36565e-09
2.66028e-10
1.26433e-09
2.40926e-10
1.16982e-09
2.21357e-10
1.08174e-09
2.0367e-10
1.00038e-09
1.85442e-10
9.24879e-10
1.70431e-10
8.54664e-10
1.5742e-10
7.89575e-10
1.44729e-10
7.29233e-10
1.33472e-10
6.73076e-10
1.23812e-10
6.20927e-10
1.14709e-10
5.72449e-10
1.06581e-10
5.27386e-10
9.91409e-11
4.85707e-10
9.18216e-11
4.4705e-10
8.53969e-11
4.1125e-10
7.92284e-11
3.78755e-10
7.20067e-11
3.49153e-10
6.55911e-11
3.22545e-10
5.88174e-11
2.99582e-10
5.05696e-11
2.80057e-10
4.27625e-11
2.64082e-10
3.45503e-11
2.52566e-10
2.4677e-11
2.44706e-10
1.62265e-11
2.41907e-10
5.23577e-12
2.43052e-10
-3.84392e-12
2.49519e-10
-1.54677e-11
2.6016e-10
-2.51126e-11
2.76693e-10
-3.8065e-11
2.97748e-10
-4.86499e-11
3.24719e-10
-6.21302e-11
3.57032e-10
-7.47814e-11
3.94883e-10
-8.79985e-11
4.38998e-10
-1.03285e-10
4.8832e-10
-1.16332e-10
5.43847e-10
-1.32371e-10
6.04481e-10
-1.45938e-10
6.7028e-10
-1.60371e-10
7.40716e-10
-1.73726e-10
8.1516e-10
-1.86188e-10
8.92996e-10
-1.97155e-10
9.73681e-10
-2.07641e-10
1.05593e-09
-2.13929e-10
1.13996e-09
-2.22684e-10
1.22403e-09
-2.25237e-10
1.30783e-09
-2.27543e-10
1.39087e-09
-2.28846e-10
1.47212e-09
-2.2598e-10
1.55133e-09
-2.22678e-10
1.62826e-09
-2.18781e-10
1.70221e-09
-2.11673e-10
1.7732e-09
-2.04128e-10
1.84126e-09
-1.97207e-10
1.9062e-09
-1.88573e-10
1.96822e-09
-1.8039e-10
2.02746e-09
-1.72434e-10
2.08416e-09
-1.64614e-10
2.13874e-09
-1.58536e-10
2.19151e-09
-1.54144e-10
2.24245e-09
-1.46968e-10
2.29211e-09
-1.43978e-10
2.34119e-09
-1.44684e-10
2.38852e-09
-1.37609e-10
2.43546e-09
-1.38157e-10
2.48124e-09
-1.39859e-10
2.52482e-09
-1.28457e-10
2.56665e-09
-1.29531e-10
2.60532e-09
-1.17766e-10
2.63958e-09
-1.05973e-10
2.66864e-09
-8.85958e-11
2.68991e-09
-6.20277e-11
2.70261e-09
-3.00968e-11
2.70418e-09
7.55633e-12
2.69279e-09
6.10333e-11
2.66785e-09
1.01636e-10
2.62539e-09
1.74466e-10
2.56683e-09
2.21108e-10
2.49117e-09
2.76379e-10
2.39718e-09
3.29977e-10
2.28902e-09
3.59609e-10
2.16335e-09
4.05773e-10
2.02787e-09
4.12796e-10
1.88008e-09
4.3555e-10
1.72778e-09
4.26335e-10
1.56947e-09
4.28992e-10
1.41212e-09
4.08244e-10
1.25845e-09
3.88927e-10
1.12106e-09
3.42023e-10
9.99844e-10
2.94966e-10
9.35958e-10
1.26676e-10
9.06775e-10
4.6844e-11
9.07262e-10
-1.85441e-11
9.34386e-10
-7.88824e-11
9.91319e-10
-1.5345e-10
1.0723e-09
-2.1921e-10
1.17516e-09
-2.91043e-10
1.27996e-09
-3.00744e-10
1.37882e-09
-2.82327e-10
1.47127e-09
-2.63131e-10
1.55701e-09
-2.43241e-10
1.63593e-09
-2.22959e-10
1.70807e-09
-2.0264e-10
1.77355e-09
-1.82678e-10
1.83259e-09
-1.63384e-10
1.88547e-09
-1.44977e-10
1.9325e-09
-1.27609e-10
1.97403e-09
-1.11384e-10
2.0104e-09
-9.63608e-11
2.042e-09
-8.2554e-11
2.06917e-09
-6.9947e-11
2.09229e-09
-5.8505e-11
2.11168e-09
-4.81825e-11
2.1277e-09
-3.89235e-11
2.14066e-09
-3.06606e-11
2.15087e-09
-2.33219e-11
2.15861e-09
-1.68379e-11
2.16416e-09
-1.11438e-11
2.16777e-09
-6.18261e-12
2.1697e-09
-1.90667e-12
2.17017e-09
1.7209e-12
2.16943e-09
4.73468e-12
2.16771e-09
7.16056e-12
2.16522e-09
9.02627e-12
2.16218e-09
1.03656e-11
2.15882e-09
1.12241e-11
2.15534e-09
1.16626e-11
2.15198e-09
1.17734e-11
2.14903e-09
1.16237e-11
1.19907e-11
2.53833e-09
6.75884e-11
2.63116e-09
1.93891e-10
2.73758e-09
2.83866e-10
2.83185e-09
3.35135e-10
2.90393e-09
3.56698e-10
2.9518e-09
3.55679e-10
2.97569e-09
3.39319e-10
2.97954e-09
3.14695e-10
2.96945e-09
2.86121e-10
2.95058e-09
2.56381e-10
2.9264e-09
2.28123e-10
2.89917e-09
2.03317e-10
2.87084e-09
1.81748e-10
2.84258e-09
1.63357e-10
2.8148e-09
1.48335e-10
2.78767e-09
1.36448e-10
2.76119e-09
1.27307e-10
2.73525e-09
1.20612e-10
2.70958e-09
1.16242e-10
2.68391e-09
1.13932e-10
2.65793e-09
1.1355e-10
2.63127e-09
1.15016e-10
2.60357e-09
1.18286e-10
2.57442e-09
1.23347e-10
2.54337e-09
1.30229e-10
2.50997e-09
1.39003e-10
2.4737e-09
1.49782e-10
2.43403e-09
1.62727e-10
2.39036e-09
1.78055e-10
2.34207e-09
1.96061e-10
2.28851e-09
2.17151e-10
2.22911e-09
2.41881e-10
2.16338e-09
2.71152e-10
2.08939e-09
3.18683e-10
2.02123e-09
2.762e-10
1.97905e-09
1.25825e-10
1.96769e-09
-1.23037e-11
1.98768e-09
-1.27508e-10
2.03761e-09
-2.37203e-10
2.11325e-09
-3.45097e-10
2.21041e-09
-4.65587e-10
2.3168e-09
-5.11239e-10
2.42742e-09
-5.09377e-10
2.5356e-09
-4.89505e-10
2.63725e-09
-4.53108e-10
2.73196e-09
-4.19399e-10
2.81992e-09
-3.90426e-10
2.90009e-09
-3.45957e-10
2.97325e-09
-3.16148e-10
3.03873e-09
-2.7821e-10
3.09657e-09
-2.34873e-10
3.14623e-09
-1.96814e-10
3.18737e-09
-1.40826e-10
3.21953e-09
-9.68696e-11
3.24212e-09
-3.05264e-11
3.25422e-09
2.74472e-11
3.25527e-09
9.48877e-11
3.2437e-09
1.70724e-10
3.2198e-09
2.25729e-10
3.18069e-09
3.14963e-10
3.128e-09
3.60022e-10
3.06029e-09
4.17247e-10
2.97872e-09
4.5701e-10
2.8843e-09
4.79926e-10
2.77835e-09
5.03033e-10
2.66413e-09
4.9765e-10
2.54288e-09
4.99709e-10
2.4184e-09
4.78526e-10
2.2923e-09
4.61929e-10
2.16698e-09
4.3649e-10
2.04478e-09
4.07527e-10
1.92556e-09
3.85246e-10
1.8118e-09
3.54687e-10
1.70319e-09
3.29963e-10
1.59994e-09
3.06922e-10
1.50274e-09
2.82642e-10
1.41106e-09
2.62109e-10
1.32468e-09
2.43804e-10
1.24357e-09
2.2584e-10
1.16757e-09
2.09472e-10
1.0962e-09
1.95179e-10
1.02942e-09
1.81489e-10
9.66964e-10
1.69035e-10
9.08637e-10
1.57468e-10
8.54483e-10
1.45975e-10
8.04147e-10
1.35733e-10
7.57433e-10
1.25942e-10
7.14914e-10
1.14526e-10
6.76034e-10
1.04471e-10
6.40936e-10
9.39159e-11
6.10309e-10
8.11962e-11
5.8397e-10
6.91017e-11
5.61971e-10
5.655e-11
5.45575e-10
4.10728e-11
5.3374e-10
2.80618e-11
5.28394e-10
1.05827e-11
5.28111e-10
-3.56131e-12
5.34782e-10
-2.21379e-11
5.46865e-10
-3.71953e-11
5.66582e-10
-5.77818e-11
5.92064e-10
-7.4131e-11
6.25017e-10
-9.50837e-11
6.6449e-10
-1.14254e-10
7.10627e-10
-1.34135e-10
7.63994e-10
-1.56652e-10
8.23194e-10
-1.75532e-10
8.89053e-10
-1.9823e-10
9.6016e-10
-2.17045e-10
1.03624e-09
-2.36453e-10
1.1166e-09
-2.54082e-10
1.20024e-09
-2.69825e-10
1.28644e-09
-2.83356e-10
1.37438e-09
-2.9559e-10
1.46278e-09
-3.02327e-10
1.55165e-09
-3.11558e-10
1.63936e-09
-3.12951e-10
1.72559e-09
-3.13765e-10
1.80989e-09
-3.1315e-10
1.89143e-09
-3.07519e-10
1.97005e-09
-3.01294e-10
2.04568e-09
-2.94396e-10
2.11782e-09
-2.83809e-10
2.18667e-09
-2.72958e-10
2.25232e-09
-2.62845e-10
2.31478e-09
-2.51034e-10
2.37434e-09
-2.39957e-10
2.4312e-09
-2.29322e-10
2.48568e-09
-2.19123e-10
2.53815e-09
-2.11041e-10
2.58885e-09
-2.04874e-10
2.63798e-09
-1.96117e-10
2.68571e-09
-1.91692e-10
2.73268e-09
-1.9163e-10
2.7782e-09
-1.83078e-10
2.8229e-09
-1.82808e-10
2.86587e-09
-1.82799e-10
2.90712e-09
-1.69696e-10
2.94597e-09
-1.68402e-10
2.9821e-09
-1.53914e-10
3.014e-09
-1.37903e-10
3.04155e-09
-1.16165e-10
3.0626e-09
-8.30866e-11
3.07704e-09
-4.45347e-11
3.08251e-09
2.09368e-12
3.07846e-09
6.5092e-11
3.06315e-09
1.16942e-10
3.03503e-09
2.02587e-10
2.99301e-09
2.63133e-10
2.93656e-09
3.32828e-10
2.86332e-09
4.03215e-10
2.77553e-09
4.474e-10
2.66963e-09
5.11676e-10
2.55044e-09
5.3198e-10
2.41529e-09
5.70706e-10
2.26992e-09
5.71701e-10
2.11285e-09
5.86062e-10
1.95021e-09
5.70889e-10
1.78642e-09
5.52714e-10
1.63788e-09
4.90559e-10
1.50357e-09
4.2928e-10
1.4254e-09
2.04846e-10
1.38478e-09
8.74685e-11
1.37856e-09
-1.23288e-11
1.40379e-09
-1.04112e-10
1.46282e-09
-2.12482e-10
1.54701e-09
-3.03395e-10
1.65193e-09
-3.95969e-10
1.75738e-09
-4.06193e-10
1.85616e-09
-3.81102e-10
1.94812e-09
-3.55097e-10
2.03313e-09
-3.28248e-10
2.11122e-09
-3.01053e-10
2.18255e-09
-2.73967e-10
2.24733e-09
-2.47454e-10
2.30583e-09
-2.21883e-10
2.35835e-09
-1.97504e-10
2.40524e-09
-1.7449e-10
2.44681e-09
-1.52961e-10
2.48343e-09
-1.32981e-10
2.51544e-09
-1.1456e-10
2.54316e-09
-9.76698e-11
2.56692e-09
-8.22689e-11
2.58705e-09
-6.83069e-11
2.60385e-09
-5.572e-11
2.61761e-09
-4.44267e-11
2.62863e-09
-3.43397e-11
2.63717e-09
-2.53767e-11
2.64348e-09
-1.74604e-11
2.64782e-09
-1.05221e-11
2.65043e-09
-4.50742e-12
2.65152e-09
6.26119e-13
2.65134e-09
4.91363e-12
2.65012e-09
8.38359e-12
2.64808e-09
1.10651e-11
2.64545e-09
1.29934e-11
2.64246e-09
1.42151e-11
2.63934e-09
1.47878e-11
2.63631e-09
1.47989e-11
2.63366e-09
1.42705e-11
1.39349e-11
2.52326e-09
4.43246e-11
2.58626e-09
1.30894e-10
2.67044e-09
1.9969e-10
2.75962e-09
2.45956e-10
2.84359e-09
2.72725e-10
2.91572e-09
2.83549e-10
2.97306e-09
2.81977e-10
3.01604e-09
2.71716e-10
3.04644e-09
2.55723e-10
3.0652e-09
2.3762e-10
3.07407e-09
2.19248e-10
3.07631e-09
2.01078e-10
3.07394e-09
1.84118e-10
3.06805e-09
1.69253e-10
3.05937e-09
1.57018e-10
3.04868e-09
1.47135e-10
3.03651e-09
1.39477e-10
3.02311e-09
1.34006e-10
3.0086e-09
1.30757e-10
2.99295e-09
1.29581e-10
2.97612e-09
1.3038e-10
2.95794e-09
1.33194e-10
2.93821e-09
1.38022e-10
2.91665e-09
1.44902e-10
2.89297e-09
1.53912e-10
2.8668e-09
1.65173e-10
2.83774e-09
1.78843e-10
2.80534e-09
1.95129e-10
2.7691e-09
2.14289e-10
2.72852e-09
2.36643e-10
2.68307e-09
2.62598e-10
2.63229e-09
2.92665e-10
2.57582e-09
3.27626e-10
2.51228e-09
3.82221e-10
2.45133e-09
3.37148e-10
2.40786e-09
1.69295e-10
2.38876e-09
6.80101e-12
2.39737e-09
-1.36119e-10
2.43303e-09
-2.72866e-10
2.49124e-09
-4.03311e-10
2.56741e-09
-5.41749e-10
2.65264e-09
-5.96468e-10
2.744e-09
-6.00743e-10
2.83413e-09
-5.79632e-10
2.91893e-09
-5.37907e-10
2.99783e-09
-4.98297e-10
3.07099e-09
-4.63586e-10
3.13828e-09
-4.13248e-10
3.1996e-09
-3.77468e-10
3.25404e-09
-3.32652e-10
3.30346e-09
-2.8429e-10
3.34652e-09
-2.39874e-10
3.38394e-09
-1.78253e-10
3.41492e-09
-1.27848e-10
3.44005e-09
-5.56518e-11
3.45831e-09
9.18003e-12
3.46979e-09
8.34138e-11
3.47343e-09
1.67083e-10
3.46863e-09
2.30529e-10
3.45408e-09
3.29514e-10
3.42923e-09
3.8487e-10
3.39279e-09
4.53684e-10
3.34443e-09
5.05375e-10
3.28345e-09
5.4091e-10
3.2107e-09
5.75776e-10
3.12704e-09
5.81317e-10
3.03368e-09
5.93063e-10
2.93266e-09
5.79549e-10
2.82584e-09
5.68751e-10
2.71505e-09
5.4728e-10
2.60285e-09
5.19725e-10
2.4897e-09
4.98395e-10
2.37823e-09
4.66155e-10
2.26883e-09
4.39362e-10
2.16225e-09
4.13503e-10
2.05962e-09
3.85274e-10
1.96085e-09
3.60879e-10
1.86618e-09
3.38471e-10
1.77583e-09
3.16194e-10
1.68998e-09
2.95326e-10
1.60834e-09
2.76817e-10
1.5311e-09
2.58731e-10
1.45816e-09
2.41969e-10
1.38948e-09
2.26153e-10
1.32523e-09
2.10221e-10
1.26517e-09
1.95792e-10
1.20915e-09
1.81963e-10
1.15789e-09
1.65786e-10
1.11076e-09
1.51604e-10
1.068e-09
1.36673e-10
1.03027e-09
1.18931e-10
9.97458e-10
1.0191e-10
9.6951e-10
8.44975e-11
9.48005e-10
6.25779e-11
9.31698e-10
4.43691e-11
9.22999e-10
1.92824e-11
9.20226e-10
-7.87835e-13
9.25789e-10
-2.7701e-11
9.37829e-10
-4.92345e-11
9.59012e-10
-7.89647e-11
9.87035e-10
-1.02154e-10
1.02385e-09
-1.31895e-10
1.06807e-09
-1.58481e-10
1.11978e-09
-1.85842e-10
1.17921e-09
-2.1608e-10
1.24466e-09
-2.40986e-10
1.31662e-09
-2.70181e-10
1.3934e-09
-2.93827e-10
1.47432e-09
-3.17373e-10
1.55856e-09
-3.38319e-10
1.64476e-09
-3.56028e-10
1.73219e-09
-3.70792e-10
1.81982e-09
-3.83216e-10
1.90645e-09
-3.88964e-10
1.99199e-09
-3.97098e-10
2.07504e-09
-3.95998e-10
2.15532e-09
-3.94047e-10
2.23257e-09
-3.90404e-10
2.30622e-09
-3.81173e-10
2.37628e-09
-3.71351e-10
2.44288e-09
-3.60986e-10
2.50578e-09
-3.46697e-10
2.56533e-09
-3.32502e-10
2.62175e-09
-3.19246e-10
2.67523e-09
-3.04498e-10
2.72612e-09
-2.90847e-10
2.7747e-09
-2.77907e-10
2.82131e-09
-2.65751e-10
2.86627e-09
-2.5603e-10
2.90973e-09
-2.48381e-10
2.95204e-09
-2.38459e-10
2.99302e-09
-2.32683e-10
3.03351e-09
-2.32121e-10
3.07244e-09
-2.21978e-10
3.11062e-09
-2.20939e-10
3.14691e-09
-2.1905e-10
3.18199e-09
-2.0475e-10
3.21449e-09
-2.0089e-10
3.24489e-09
-1.84323e-10
3.27168e-09
-1.64718e-10
3.29528e-09
-1.39791e-10
3.31406e-09
-1.01877e-10
3.32845e-09
-5.89268e-11
3.33659e-09
-6.04958e-12
3.33882e-09
6.28688e-11
3.33298e-09
1.22784e-10
3.31945e-09
2.16122e-10
3.29547e-09
2.87112e-10
3.2611e-09
3.67194e-10
3.21345e-09
4.50864e-10
3.15322e-09
5.07633e-10
3.07686e-09
5.8804e-10
2.98644e-09
6.22394e-10
2.87908e-09
6.78069e-10
2.75796e-09
6.92817e-10
2.62115e-09
7.22873e-10
2.47297e-09
7.19071e-10
2.31873e-09
7.06959e-10
2.17748e-09
6.31808e-10
2.04686e-09
5.59899e-10
1.96526e-09
2.8644e-10
1.91972e-09
1.3301e-10
1.9092e-09
-1.80117e-12
1.93158e-09
-1.26502e-10
1.98873e-09
-2.69624e-10
2.06978e-09
-3.84446e-10
2.16862e-09
-4.94809e-10
2.26646e-09
-5.04034e-10
2.3572e-09
-4.71846e-10
2.441e-09
-4.38893e-10
2.51789e-09
-4.05137e-10
2.58807e-09
-3.71239e-10
2.65183e-09
-3.37726e-10
2.70948e-09
-3.05103e-10
2.76136e-09
-2.73762e-10
2.80781e-09
-2.43956e-10
2.84918e-09
-2.15859e-10
2.88582e-09
-1.89596e-10
2.91806e-09
-1.65223e-10
2.94623e-09
-1.42727e-10
2.97061e-09
-1.22058e-10
2.99151e-09
-1.03163e-10
3.00919e-09
-8.59924e-11
3.02395e-09
-7.04773e-11
3.03604e-09
-5.65177e-11
3.04571e-09
-4.40102e-11
3.0532e-09
-3.28605e-11
3.05871e-09
-2.29784e-11
3.06248e-09
-1.42844e-11
3.06469e-09
-6.72022e-12
3.06556e-09
-2.42721e-13
3.06529e-09
5.18284e-12
3.06409e-09
9.58344e-12
3.06217e-09
1.29879e-11
3.05973e-09
1.54318e-11
3.05698e-09
1.6963e-11
3.05413e-09
1.76377e-11
3.05138e-09
1.7545e-11
3.04896e-09
1.669e-11
1.57024e-11
2.51532e-09