/*--------------------------------*- C++ -*----------------------------------*\
| =========                 |                                                 |
| \\      /  F ield         | OpenFOAM: The Open Source CFD Toolbox           |
|  \\    /   O peration     | Version:  2506                                  |
|   \\  /    A nd           | Website:  www.openfoam.com                      |
|    \\/     M anipulation  |                                                 |
\*---------------------------------------------------------------------------*/
FoamFile
{
    version     2.0;
    format      ascii;
    arch        "LSB;label=32;scalar=64";
    class       volVectorField;
    location    "4.95";
    object      vorticityField;
}
// * * * * * * * * * * * * * * * * * * * * * * * * * * * * * * * * * * * * * //

dimensions      [0 0 -1 0 0 0 0];

internalField   nonuniform List<vector> 
4000
(
(-2.47933e-21 8.40382e-19 -33.3793)
(-1.04516e-18 3.46701e-19 -35.6379)
(1.10371e-18 -3.72668e-18 -32.6595)
(3.56443e-18 2.74828e-18 -27.8682)
(-7.27188e-18 2.71498e-18 -24.0432)
(3.69937e-18 -4.61723e-18 -21.3512)
(-2.99785e-20 1.69356e-18 -19.3649)
(3.58345e-18 -0 -17.8681)
(-3.5306e-18 -3.3367e-18 -16.7313)
(7.09257e-18 1.75274e-18 -15.8519)
(-7.10456e-18 -1.7125e-18 -15.1548)
(-2.24899e-19 3.69336e-19 -14.5894)
(-1.17627e-19 9.5772e-18 -14.1204)
(7.47399e-18 -6.65008e-18 -13.7227)
(-2.84637e-20 -0 -13.3777)
(-1.4123e-17 -6.54797e-18 -13.0718)
(1.39143e-17 3.97498e-18 -12.7941)
(-7.35779e-18 9.12564e-18 -12.5364)
(3.47975e-19 -6.55265e-18 -12.2918)
(0 -0 -12.0548)
(0 -0 -11.8205)
(0 -0 -11.5847)
(8.74273e-19 -1.28843e-17 -11.3435)
(1.20025e-17 2.13554e-17 -11.0933)
(-2.76052e-17 8.69316e-18 -10.8305)
(1.57165e-17 -3.00384e-17 -10.5515)
(-9.8753e-19 1.28742e-17 -10.2525)
(0 -0 -9.92951)
(0 -0 -9.57796)
(-1.1361e-18 1.28363e-17 -9.19205)
(-2.69625e-17 -9.54883e-18 -8.76406)
(1.49831e-17 -1.61402e-17 -8.28598)
(2.87694e-17 1.55251e-18 -7.7423)
(7.93344e-19 -1.47271e-17 -6.9902)
(-8.17362e-18 7.44616e-17 -6.15863)
(-3.30747e-17 6.70123e-17 -5.78059)
(-1.06251e-16 -1.11047e-16 -6.01248)
(-4.09991e-19 -6.53493e-19 -6.66782)
(6.9753e-17 2.06187e-16 -7.70239)
(-1.0286e-16 -6.97447e-17 -9.19924)
(4.36379e-17 -2.46308e-16 -11.4656)
(1.20032e-16 2.29924e-16 -14.2983)
(-3.74088e-17 1.0133e-16 -17.1917)
(2.7407e-17 -1.08574e-16 -19.986)
(1.23863e-16 8.65729e-17 -22.6385)
(-1.41815e-16 2.02111e-17 -25.1696)
(-1.93825e-16 1.67031e-16 -27.6343)
(-1.01723e-16 -1.11522e-16 -29.8713)
(-7.90595e-17 -1.97283e-16 -31.9364)
(-4.76646e-17 -1.22413e-16 -33.7982)
(9.92202e-17 -1.19831e-16 -35.362)
(-3.67912e-18 4.56917e-17 -36.7027)
(-5.46547e-17 -8.54669e-17 -37.6357)
(8.93727e-17 -1.06876e-16 -38.2819)
(-7.43263e-18 8.68887e-17 -38.4856)
(-3.47177e-17 5.5481e-17 -38.2759)
(7.89097e-18 5.19898e-17 -37.6924)
(3.78378e-18 9.4317e-18 -36.613)
(8.4489e-18 1.58178e-17 -35.278)
(-5.14147e-18 -2.48127e-18 -33.5058)
(4.93737e-18 4.67044e-18 -31.4122)
(1.91569e-17 3.54105e-19 -29.2044)
(-9.05912e-18 -4.19329e-18 -26.8265)
(-7.55957e-18 -4.94353e-17 -24.4443)
(-1.04531e-17 -5.9178e-17 -22.0794)
(-8.99044e-18 4.41124e-17 -19.7796)
(5.9155e-17 4.29804e-17 -17.6358)
(-1.11221e-19 -3.20087e-17 -15.5953)
(2.19958e-17 4.95682e-17 -13.7576)
(-5.45188e-17 5.12502e-17 -12.0524)
(-1.08594e-17 -3.71751e-17 -10.5272)
(-2.71661e-17 -5.83705e-17 -9.15511)
(1.09996e-20 -1.288e-19 -7.9056)
(-7.37513e-17 4.67799e-17 -6.81008)
(-7.32888e-17 5.21774e-17 -5.82497)
(-2.8337e-18 6.38083e-17 -4.94703)
(-6.42181e-17 4.10171e-17 -4.17628)
(7.71711e-18 -6.56531e-17 -3.49192)
(-7.98225e-17 2.97001e-17 -2.88532)
(6.51177e-17 2.08675e-17 -2.35453)
(-1.25097e-16 3.45773e-17 -1.88817)
(-1.81553e-17 -6.78542e-17 -1.47871)
(3.77849e-18 -1.17374e-17 -1.12172)
(-7.3963e-18 2.4071e-18 -0.811127)
(6.32417e-17 9.71429e-17 -0.542876)
(-1.14688e-16 1.51723e-16 -0.313797)
(4.91507e-18 -1.37446e-16 -0.119414)
(-4.64378e-18 -6.56174e-17 0.0419063)
(-1.20516e-18 1.3499e-16 0.171718)
(-4.92561e-17 3.18189e-17 0.274101)
(2.05795e-19 1.40804e-18 0.35043)
(-4.95467e-17 9.12952e-17 0.402812)
(-2.33141e-17 -1.12375e-16 0.434542)
(1.86142e-17 -3.51362e-17 0.447289)
(-2.90304e-19 5.6207e-17 0.444169)
(7.61101e-18 -6.55788e-17 0.428269)
(2.31693e-17 -7.89203e-18 0.401024)
(2.98859e-18 3.08592e-18 0.364732)
(-3.43702e-17 -4.03201e-18 0.320803)
(5.72266e-18 2.9972e-17 0.270685)
(6.24413e-18 -1.04689e-18 0.212979)
(1.89774e-18 -5.13645e-18 0.14775)
(-1.05173e-18 1.84565e-17 0.0723195)
(-2.78103e-18 4.9928e-18 -0.0150424)
(-4.10389e-18 -2.02539e-18 -0.118449)
(-7.46872e-20 -6.78003e-18 -0.242148)
(4.13629e-19 5.55426e-17 -0.391308)
(-2.10273e-17 -2.45913e-18 -0.572673)
(-2.67381e-17 -9.45728e-17 -0.79181)
(5.03414e-17 -1.39652e-17 -1.05667)
(-2.58069e-17 1.59663e-17 -1.37477)
(1.17791e-18 6.39911e-17 -1.75238)
(-2.68575e-17 -1.27117e-17 -2.20097)
(-2.4181e-17 -5.58684e-17 -2.71836)
(-8.04296e-19 -6.80631e-17 -3.32515)
(5.35559e-17 3.54002e-17 -4.015)
(2.54971e-19 1.34902e-16 -4.794)
(-8.25449e-18 3.4932e-17 -5.67214)
(5.5892e-17 4.15932e-17 -6.63988)
(-5.74538e-17 -4.29516e-17 -7.70021)
(-4.45871e-17 -2.43486e-16 -8.85765)
(7.0353e-17 4.69479e-17 -10.0982)
(4.16479e-18 1.50873e-16 -11.4143)
(-6.64147e-17 -4.35435e-17 -12.81)
(-1.09819e-17 -1.58659e-16 -14.266)
(1.22387e-16 8.69954e-17 -15.7759)
(-3.69406e-17 4.06074e-17 -17.3291)
(5.24099e-17 -6.09486e-18 -18.9089)
(6.25717e-17 8.81678e-17 -20.5099)
(-6.0998e-17 1.83004e-16 -22.1383)
(-7.09064e-18 5.32488e-17 -23.7332)
(-1.22966e-16 9.1848e-17 -25.3166)
(-2.52085e-17 -5.6011e-17 -26.91)
(-9.57348e-17 -6.78114e-17 -28.413)
(-4.61403e-17 1.42991e-16 -29.8622)
(-5.22651e-18 -1.83317e-18 -31.3126)
(5.58762e-18 3.45558e-18 -32.5459)
(3.85357e-17 -9.71927e-17 -33.7504)
(4.77926e-18 4.07757e-18 -34.7525)
(-1.08809e-17 1.80069e-17 -35.5951)
(-2.44962e-17 9.17471e-17 -36.2122)
(-1.82356e-17 6.99359e-18 -36.562)
(-1.46046e-17 7.86405e-17 -36.5786)
(-5.24343e-18 1.36644e-17 -36.3145)
(-2.95799e-18 1.32384e-17 -35.5522)
(8.19801e-18 -6.76055e-17 -34.5511)
(9.82778e-20 2.89058e-19 -33.0185)
(0 -0 -31.1458)
(4.9847e-19 -6.04178e-19 -29.0254)
(8.99819e-19 1.05398e-17 -26.5952)
(-1.82016e-18 -6.85409e-18 -24.0845)
(-1.5506e-19 1.60662e-18 -21.426)
(-2.64593e-18 -1.62354e-18 -18.7822)
(-1.14006e-18 -3.17959e-18 -16.205)
(1.82538e-18 -7.12251e-19 -13.7461)
(-8.44031e-19 1.74495e-18 -11.4578)
(-8.98186e-18 -2.54053e-17 -9.34196)
(-4.28173e-19 -2.46896e-18 -7.44615)
(-3.52672e-19 -4.22834e-18 -5.7224)
(-8.3907e-18 -2.62075e-17 -4.1954)
(-4.42935e-18 1.05005e-17 -3.27112)
(7.26313e-18 5.6575e-18 -3.03483)
(-1.23697e-18 -1.9949e-18 -2.93758)
(9.19984e-19 -2.14466e-19 -2.98224)
(1.11555e-18 -1.71568e-19 -3.21914)
(1.22335e-18 -1.01641e-19 -3.68715)
(-1.13565e-18 -9.73261e-19 -4.47712)
(1.03449e-18 -2.20167e-18 -5.49631)
(1.30681e-19 5.52675e-19 -6.46857)
(1.88666e-19 6.35143e-19 -7.33052)
(-1.12942e-18 2.97704e-18 -8.10786)
(-2.619e-19 -1.95088e-18 -8.80599)
(-4.76474e-21 -2.93343e-18 -9.42425)
(2.39934e-19 4.78622e-18 -9.96431)
(-1.56386e-19 -1.19751e-18 -10.4297)
(1.01478e-18 3.08193e-20 -10.8249)
(-1.84434e-18 7.49074e-19 -11.155)
(9.46537e-19 3.92872e-18 -11.4253)
(-1.5707e-19 -5.41632e-18 -11.6415)
(5.16034e-20 7.51581e-19 -11.8091)
(4.3252e-19 2.7305e-19 -11.9335)
(-6.96232e-19 2.12785e-18 -12.0197)
(-4.92481e-20 -5.26414e-19 -12.0725)
(1.11528e-20 -2.41809e-18 -12.0963)
(2.69262e-19 2.69417e-19 -12.0951)
(2.44869e-19 7.30415e-22 -12.0725)
(-2.72645e-19 -8.13267e-22 -12.0317)
(2.27275e-19 -9.62586e-21 -11.9754)
(-3.80469e-19 -2.88784e-19 -11.9062)
(2.39246e-19 1.09948e-20 -11.8262)
(-7.9987e-20 -2.38592e-22 -11.7377)
(-1.76563e-20 -4.58e-20 -11.6423)
(5.22858e-20 -1.10777e-18 -11.5416)
(-1.82337e-20 1.19544e-18 -11.437)
(-4.45835e-20 -4.91742e-20 -11.3299)
(7.00794e-21 -2.79598e-19 -11.2212)
(-3.47799e-21 -5.44005e-19 -11.1118)
(-6.57601e-21 2.89289e-19 -11.0005)
(-3.41449e-21 2.66624e-19 -10.8761)
(-5.50142e-22 -2.62293e-21 -10.7493)
(0 -0 3.17895)
(3.00529e-20 -0 -6.36896)
(-5.68643e-20 -1.62988e-18 -12.8042)
(3.40403e-19 -1.08201e-19 -15.4188)
(1.08731e-18 6.46792e-18 -16.1268)
(-1.41742e-18 -6.40706e-18 -15.8627)
(3.97217e-20 -1.68381e-18 -15.2715)
(1.65449e-19 -1.50011e-18 -14.6253)
(-3.61549e-18 4.87307e-18 -14.0195)
(3.36065e-18 -4.40078e-18 -13.485)
(6.50377e-18 1.45696e-17 -13.0246)
(-1.37897e-17 -2.02696e-18 -12.63)
(9.86158e-19 -2.17295e-17 -12.2907)
(6.72064e-18 -8.98698e-19 -11.9967)
(-8.94197e-19 2.04898e-17 -11.739)
(-6.7194e-18 8.13461e-18 -11.5099)
(7.38499e-18 -2.09205e-17 -11.3031)
(-1.54481e-19 6.77049e-18 -11.113)
(0 -0 -10.9349)
(0 -0 -10.765)
(0 -0 -10.5995)
(0 -0 -10.4353)
(0 -0 -10.2694)
(-2.73652e-17 -0 -10.0989)
(4.11844e-17 -0 -9.92096)
(-1.37894e-17 -0 -9.73276)
(0 -0 -9.53121)
(0 -0 -9.31298)
(0 -0 -9.07425)
(-1.19102e-18 1.34568e-17 -8.81033)
(-3.30135e-19 9.94685e-18 -8.51509)
(3.69713e-18 -4.10895e-17 -8.1804)
(-1.59437e-19 -6.24925e-18 -7.7959)
(-1.57583e-17 4.89585e-17 -7.3326)
(-9.39595e-18 -4.64108e-17 -6.84548)
(4.08028e-17 2.13817e-17 -6.53019)
(9.7213e-17 1.25035e-16 -6.52285)
(5.39097e-18 -2.01225e-16 -6.84677)
(-1.77722e-17 -1.70647e-16 -7.50089)
(1.11124e-16 2.39688e-16 -8.50684)
(-3.27973e-17 1.35597e-17 -9.92434)
(-8.52436e-17 -1.79678e-16 -11.5458)
(7.49327e-17 -1.38268e-16 -13.2554)
(1.25169e-17 -4.13416e-17 -15.0182)
(-2.4309e-17 -1.77501e-16 -16.7513)
(-8.14604e-18 4.38457e-16 -18.4627)
(1.85886e-16 1.38637e-16 -20.1404)
(1.04525e-16 1.11521e-16 -21.7185)
(7.52453e-17 1.50772e-16 -23.2447)
(5.93048e-17 -2.13186e-17 -24.6461)
(-1.28698e-16 -1.42974e-16 -25.9171)
(-3.03744e-18 3.74183e-17 -27.0671)
(-1.8442e-17 2.40981e-16 -28.0172)
(-8.00964e-17 5.81184e-17 -28.8224)
(4.88613e-17 -2.36759e-17 -29.3949)
(3.58125e-17 3.69823e-17 -29.7666)
(3.6174e-17 -5.59471e-17 -29.8985)
(8.24657e-18 1.09689e-17 -29.7753)
(-3.67929e-18 -3.19625e-17 -29.4157)
(-5.88464e-18 1.4081e-17 -28.7885)
(-2.87474e-18 -1.4353e-17 -27.8999)
(-2.48395e-17 -7.55579e-17 -26.7806)
(1.95831e-17 7.31593e-17 -25.4649)
(-2.33927e-18 9.13241e-17 -23.9858)
(4.50156e-17 1.41376e-16 -22.4119)
(6.27233e-18 -5.01685e-17 -20.7503)
(-7.04871e-18 -7.66646e-17 -19.099)
(-1.49318e-17 6.23876e-17 -17.441)
(-2.39496e-17 -3.25976e-18 -15.8566)
(6.15384e-17 -3.93872e-17 -14.3354)
(4.46589e-18 2.09032e-17 -12.9036)
(-1.26706e-16 -2.32085e-17 -11.5818)
(5.65698e-17 3.45787e-17 -10.3433)
(4.2642e-17 1.65032e-16 -9.2162)
(1.18809e-16 -3.94595e-17 -8.18616)
(1.1368e-17 -7.55989e-17 -7.24467)
(-1.19844e-17 9.93574e-18 -6.39601)
(-4.42087e-18 7.04747e-17 -5.63054)
(-5.39436e-17 -5.36359e-18 -4.93889)
(-1.52811e-16 5.58329e-17 -4.31997)
(1.98328e-16 5.4573e-17 -3.76729)
(2.0443e-17 -7.9137e-17 -3.27403)
(-6.49486e-17 4.51199e-17 -2.83668)
(1.75241e-17 -5.31742e-17 -2.45052)
(-1.93085e-18 -6.23944e-18 -2.11128)
(1.20246e-16 -6.43165e-17 -1.81647)
(5.01634e-17 -4.85319e-17 -1.56148)
(6.23308e-17 3.80085e-17 -1.34321)
(5.29603e-17 -1.08096e-16 -1.16052)
(1.08036e-16 -6.83218e-17 -1.00823)
(3.44433e-20 2.18604e-18 -0.884321)
(5.01112e-17 -6.24728e-17 -0.787363)
(2.1526e-17 2.41822e-17 -0.712265)
(-4.838e-17 2.3355e-17 -0.657402)
(2.27277e-17 -5.43352e-17 -0.620803)
(1.13274e-18 3.18535e-17 -0.598459)
(-4.76884e-17 2.32878e-17 -0.590653)
(2.28747e-17 6.05896e-17 -0.593289)
(1.76941e-18 1.10848e-17 -0.607558)
(-1.27877e-17 -7.84559e-17 -0.630546)
(-6.44661e-18 3.75021e-18 -0.665092)
(-7.42351e-18 1.54955e-17 -0.708715)
(-3.202e-18 -1.23701e-17 -0.765135)
(2.82584e-18 -1.70037e-18 -0.834525)
(5.50264e-18 -1.43216e-18 -0.919822)
(1.17451e-17 3.26637e-18 -1.02466)
(-2.23001e-19 -2.99449e-17 -1.1512)
(6.9532e-17 4.5534e-17 -1.30456)
(9.56115e-19 6.04486e-18 -1.48804)
(-4.70057e-17 7.31213e-18 -1.70636)
(-2.20685e-18 4.76592e-17 -1.96416)
(-1.88838e-18 -6.51123e-17 -2.26539)
(2.61498e-17 4.7056e-17 -2.61641)
(2.29832e-17 1.96077e-17 -3.01667)
(-2.71225e-17 -4.94968e-17 -3.4795)
(-5.34942e-17 -3.09646e-17 -3.99632)
(2.0446e-18 -7.44661e-17 -4.57891)
(1.11957e-17 -1.0726e-16 -5.22789)
(-1.1525e-17 -2.7389e-17 -5.93811)
(1.15518e-16 2.33154e-16 -6.71746)
(-9.37338e-17 3.9838e-18 -7.56393)
(-5.57933e-17 -1.3685e-16 -8.46902)
(4.41273e-17 5.60444e-17 -9.43528)
(7.86463e-17 4.71126e-17 -10.4619)
(4.80377e-17 -1.03025e-17 -11.534)
(-8.91514e-17 -2.37274e-16 -12.6531)
(-4.0317e-17 1.90226e-16 -13.8094)
(8.2583e-17 -2.92792e-16 -14.9929)
(-1.5334e-17 6.61299e-18 -16.2011)
(1.80254e-16 -1.44959e-17 -17.4273)
(4.6082e-17 3.00315e-17 -18.6364)
(1.93386e-16 -5.41506e-17 -19.8552)
(4.50658e-17 1.58997e-16 -21.0676)
(-4.29719e-17 2.58486e-16 -22.2142)
(7.98037e-17 -2.01921e-16 -23.3501)
(-5.58315e-18 7.63804e-17 -24.4514)
(3.05613e-17 -2.46011e-17 -25.4136)
(2.14994e-17 -3.63791e-17 -26.3763)
(1.20186e-17 -3.80572e-17 -27.1789)
(-8.55573e-18 3.15621e-17 -27.8984)
(4.93121e-17 -1.36313e-16 -28.4747)
(-6.34874e-17 2.33932e-16 -28.8971)
(4.08577e-17 -1.53463e-16 -29.1442)
(1.10034e-18 5.96766e-18 -29.2207)
(9.14111e-18 -5.71273e-17 -29.0445)
(-8.85152e-19 1.4738e-17 -28.7102)
(-1.77815e-18 2.26249e-17 -28.06)
(1.33617e-19 -3.52406e-19 -27.2156)
(4.81304e-19 4.20566e-17 -26.1106)
(-3.99468e-18 -7.64418e-17 -24.7725)
(8.78953e-19 -3.23831e-18 -23.2543)
(2.0293e-17 1.27971e-16 -21.538)
(5.4937e-18 2.23576e-17 -19.7102)
(-3.68288e-18 -1.97627e-17 -17.7871)
(-3.48261e-18 1.62364e-18 -15.8422)
(-2.17596e-17 -7.69289e-17 -13.9102)
(1.03938e-17 2.62751e-17 -12.0342)
(-1.94112e-17 -5.27952e-17 -10.2519)
(9.86683e-19 3.15733e-18 -8.59134)
(2.94713e-18 3.2187e-17 -7.11283)
(1.55375e-17 2.14087e-17 -6.01319)
(-1.35136e-17 -4.07053e-17 -5.41896)
(1.01786e-18 8.90091e-18 -5.1125)
(-3.23355e-18 -5.02776e-18 -5.00144)
(-9.57211e-19 -4.69384e-18 -5.07786)
(-3.387e-18 -5.93317e-18 -5.34979)
(2.94625e-18 5.17275e-18 -5.81727)
(-1.09079e-18 -2.7153e-19 -6.4066)
(-1.495e-20 -1.30987e-19 -7.00442)
(-1.40482e-19 -7.32926e-19 -7.56143)
(2.88408e-20 1.26714e-19 -8.07012)
(2.19091e-19 1.84578e-18 -8.53261)
(-8.08896e-19 1.01007e-17 -8.94991)
(5.12262e-19 -1.30252e-17 -9.32241)
(9.09515e-20 1.40526e-18 -9.65115)
(9.49432e-19 -1.10693e-17 -9.93775)
(-6.34509e-19 2.37839e-17 -10.1842)
(-4.00393e-19 -2.69907e-17 -10.3927)
(3.18111e-19 1.58913e-17 -10.5658)
(-8.07885e-20 -1.19528e-18 -10.706)
(-6.32737e-20 -7.63214e-18 -10.816)
(3.64951e-19 7.54091e-18 -10.8983)
(-2.85138e-19 1.03297e-18 -10.9555)
(-2.98604e-19 6.67556e-18 -10.9901)
(2.84307e-19 -6.2734e-18 -11.0045)
(9.86593e-20 -6.4453e-18 -11.0009)
(8.26052e-21 8.02458e-18 -10.9815)
(1.05749e-20 -7.85793e-18 -10.9482)
(-6.9875e-20 1.39275e-17 -10.9029)
(5.08204e-20 -9.3613e-18 -10.8474)
(5.78269e-20 3.60543e-18 -10.7834)
(-6.2009e-20 1.01023e-18 -10.7124)
(-1.01542e-19 -4.47758e-20 -10.636)
(1.237e-19 -2.16681e-18 -10.5555)
(-2.0011e-20 3.28994e-18 -10.4721)
(4.94757e-21 -3.14937e-19 -10.3871)
(-6.60286e-21 1.60293e-18 -10.3012)
(9.26527e-21 -1.26421e-20 -10.2149)
(-1.79222e-22 4.98745e-22 -10.1271)
(-1.06426e-20 1.00938e-18 -10.0551)
(-2.41429e-21 8.18334e-19 5.45356)
(-3.79195e-19 1.31635e-18 2.323)
(4.02717e-19 -4.51633e-18 -1.63493)
(5.9262e-19 -1.86873e-18 -5.00229)
(1.1613e-18 5.83609e-18 -7.50506)
(-1.76813e-18 -1.58572e-18 -8.95228)
(0 -0 -9.77339)
(-3.6651e-18 3.17943e-18 -10.1608)
(3.34006e-18 5.46647e-19 -10.29)
(-2.61342e-18 -2.00015e-17 -10.286)
(3.46863e-18 6.57341e-18 -10.2144)
(-2.22302e-19 2.25541e-17 -10.1109)
(-6.44622e-19 -6.15115e-19 -9.99533)
(-1.31053e-17 -1.86805e-17 -9.87821)
(1.25819e-17 1.28569e-17 -9.76452)
(8.21376e-18 -1.33089e-18 -9.65631)
(-1.32253e-17 -2.28029e-17 -9.55406)
(5.63848e-18 2.41475e-17 -9.45728)
(3.41305e-19 -6.42706e-18 -9.36497)
(0 -0 -9.2759)
(1.30208e-17 -0 -9.18866)
(-1.30498e-17 -0 -9.10176)
(-8.6572e-19 1.27583e-17 -9.01367)
(-1.2629e-17 7.26239e-18 -8.92276)
(1.44662e-17 -3.28075e-17 -8.82731)
(-9.43107e-19 1.27868e-17 -8.72547)
(0 -0 -8.6152)
(1.30212e-17 -0 -8.49417)
(-1.60111e-20 -0 -8.35966)
(-1.42169e-17 1.2874e-17 -8.2083)
(1.48475e-18 3.56809e-18 -8.03572)
(2.84303e-17 -2.93629e-17 -7.836)
(-4.32622e-17 1.21072e-17 -7.60368)
(2.52339e-17 -1.25578e-18 -7.33229)
(-1.53312e-18 2.74645e-17 -7.03985)
(-5.49596e-17 -4.20267e-17 -6.78764)
(8.48897e-17 -4.88465e-17 -6.65764)
(3.76724e-17 1.85919e-16 -6.72887)
(-1.24925e-16 8.06951e-17 -7.02949)
(-2.92754e-17 -9.15707e-17 -7.55691)
(-2.27407e-17 -1.64703e-18 -8.29794)
(-1.39777e-16 -1.14994e-17 -9.12399)
(-6.41166e-17 2.08735e-16 -10.0346)
(1.08267e-16 7.19613e-17 -11.0283)
(-2.78437e-16 5.06805e-17 -12.0546)
(3.01387e-16 -4.04037e-16 -13.11)
(7.42577e-17 -2.08224e-16 -14.1745)
(-5.34369e-18 6.22225e-17 -15.2252)
(8.97439e-17 -2.01468e-16 -16.281)
(-3.61563e-18 1.28477e-16 -17.2928)
(-1.09061e-16 4.20435e-16 -18.2689)
(1.49204e-17 -1.09388e-16 -19.2035)
(5.15638e-17 -2.00054e-16 -20.0728)
(9.27316e-17 -2.77056e-16 -20.8874)
(1.88231e-17 -2.45233e-16 -21.6187)
(-1.4758e-18 -8.66446e-17 -22.272)
(-4.93225e-18 -1.27307e-16 -22.8195)
(4.40389e-18 -3.18499e-17 -23.2592)
(-9.47452e-18 3.92453e-17 -23.5531)
(7.96255e-18 3.68296e-17 -23.709)
(3.83898e-18 7.01205e-18 -23.6798)
(-1.20764e-17 7.50392e-17 -23.4508)
(1.94502e-17 -9.62557e-17 -23.0267)
(2.34364e-17 -4.32246e-17 -22.3941)
(-6.79296e-17 -3.34053e-16 -21.6035)
(-3.00951e-17 5.25258e-17 -20.6349)
(-6.63272e-17 -5.33693e-18 -19.572)
(1.86382e-17 3.62008e-17 -18.4019)
(1.52243e-18 -1.46087e-17 -17.1996)
(-5.3883e-17 4.77997e-18 -15.9747)
(1.01434e-17 1.14975e-16 -14.7553)
(1.73144e-16 9.66127e-17 -13.5823)
(-1.41573e-16 -2.09715e-16 -12.4408)
(1.74208e-16 -2.80212e-17 -11.3638)
(3.01252e-17 -1.30387e-16 -10.352)
(-1.65619e-17 1.42891e-16 -9.40216)
(1.23009e-16 8.33751e-17 -8.52354)
(4.32305e-18 -4.06596e-18 -7.7143)
(1.70414e-16 1.45111e-16 -6.96838)
(6.91989e-17 -1.00608e-16 -6.28706)
(2.09609e-17 -3.62927e-16 -5.66776)
(-2.9927e-17 1.4917e-16 -5.10554)
(8.23646e-17 1.5384e-17 -4.59867)
(5.51631e-17 -1.4223e-16 -4.14401)
(-6.09284e-17 4.30717e-17 -3.73769)
(1.10857e-16 -9.22297e-17 -3.37847)
(-1.82863e-16 1.8356e-17 -3.06234)
(-1.33967e-16 -5.40324e-17 -2.78476)
(-6.387e-17 8.08378e-17 -2.54582)
(-7.27196e-18 4.45506e-17 -2.33983)
(1.11968e-18 7.10636e-17 -2.1626)
(2.33961e-18 3.27111e-17 -2.01423)
(-2.77847e-17 1.58783e-17 -1.88935)
(2.84044e-17 -4.26211e-17 -1.78474)
(-5.472e-19 -2.99794e-18 -1.70182)
(-8.69013e-18 3.03416e-17 -1.63347)
(2.55565e-18 -2.66308e-17 -1.58411)
(-3.26232e-18 -6.17386e-17 -1.54672)
(7.75859e-17 5.48578e-18 -1.52594)
(6.77857e-18 3.85395e-17 -1.51605)
(-5.75995e-18 -1.90523e-18 -1.5224)
(8.51052e-18 -1.02666e-17 -1.54018)
(4.01626e-19 6.46539e-18 -1.57341)
(-1.12237e-19 -5.57684e-18 -1.62115)
(-1.81995e-19 -1.25869e-17 -1.68459)
(-1.21062e-17 -6.36592e-18 -1.76625)
(-1.23965e-17 -1.72006e-17 -1.86613)
(-4.7259e-17 -2.40165e-17 -1.9871)
(7.23979e-17 8.75734e-17 -2.13034)
(-5.05216e-17 -3.87587e-17 -2.29795)
(5.25524e-17 -2.11949e-17 -2.49209)
(-7.02608e-19 3.21703e-17 -2.71449)
(1.35961e-18 -3.34563e-17 -2.96873)
(1.09218e-17 4.0539e-18 -3.25337)
(-9.55672e-18 7.02231e-17 -3.57793)
(-4.49328e-19 -3.67716e-17 -3.93458)
(2.54876e-17 8.30648e-17 -4.33355)
(-2.25342e-17 1.84685e-16 -4.77443)
(-1.50697e-16 -1.4156e-16 -5.25435)
(4.96615e-18 -1.51785e-16 -5.78069)
(5.70549e-17 2.95802e-16 -6.35234)
(2.94889e-17 -1.0413e-16 -6.96483)
(4.36113e-17 -2.01322e-16 -7.62274)
(-5.51594e-17 -7.25146e-17 -8.32584)
(9.72084e-17 -9.18024e-17 -9.06521)
(-3.13019e-16 3.82855e-16 -9.8438)
(1.64391e-16 -2.56786e-16 -10.6557)
(-1.65924e-16 1.3643e-16 -11.4949)
(5.65438e-17 -3.8101e-16 -12.3592)
(1.08488e-16 -4.18836e-16 -13.2425)
(1.03189e-16 -2.03802e-16 -14.1245)
(-3.6625e-17 -7.30801e-17 -15.0204)
(1.22766e-16 -3.8317e-16 -15.9156)
(2.33653e-16 -2.35847e-16 -16.7738)
(-8.24175e-17 5.40609e-17 -17.6324)
(2.13193e-17 -6.13703e-17 -18.4633)
(7.13237e-17 -1.67881e-16 -19.2173)
(3.11101e-17 -9.79989e-17 -19.9723)
(-2.13549e-17 5.28946e-17 -20.6346)
(9.81226e-18 -5.19015e-17 -21.2523)
(-7.1838e-17 2.50583e-16 -21.7966)
(2.76684e-17 6.89816e-18 -22.2643)
(-4.05605e-18 9.16277e-19 -22.6538)
(-1.28444e-17 5.84468e-17 -22.9619)
(-3.85744e-17 2.21048e-16 -23.1596)
(-2.97675e-19 -1.8601e-18 -23.2762)
(6.71075e-18 -1.07176e-16 -23.2364)
(-3.22872e-18 6.85306e-17 -23.0891)
(-1.77085e-18 -4.23052e-17 -22.7621)
(1.05294e-17 1.21499e-16 -22.2604)
(5.11988e-18 6.01968e-17 -21.581)
(-2.25809e-17 -1.26101e-16 -20.6982)
(-3.42136e-17 -2.11413e-16 -19.6485)
(1.38001e-17 6.44095e-17 -18.4219)
(-3.80666e-17 -1.71937e-16 -17.0688)
(2.37582e-17 7.45613e-17 -15.6121)
(6.09839e-18 2.09648e-17 -14.099)
(1.73732e-17 5.05744e-17 -12.5662)
(-5.30055e-18 -1.52962e-17 -11.07)
(2.66514e-17 6.09643e-17 -9.69014)
(-6.95341e-18 -2.91328e-17 -8.53311)
(-3.41393e-19 2.18102e-17 -7.72857)
(3.80055e-18 8.13149e-18 -7.23078)
(7.15164e-18 2.2345e-17 -6.95372)
(-1.00005e-18 4.66263e-19 -6.85855)
(1.99243e-18 1.56533e-17 -6.92698)
(-3.93668e-18 -2.26823e-17 -7.1266)
(1.27391e-18 -2.3113e-19 -7.40072)
(1.26829e-18 -1.18653e-18 -7.69549)
(3.67581e-19 5.14717e-19 -7.97929)
(3.27687e-19 1.52552e-17 -8.24107)
(5.65679e-20 -1.84622e-18 -8.48151)
(2.19989e-18 1.35702e-19 -8.70208)
(-2.20309e-18 8.72756e-19 -8.90305)
(-1.33807e-19 -1.97124e-18 -9.0845)
(-1.81248e-18 -2.23146e-17 -9.24664)
(2.6952e-18 2.29408e-17 -9.38975)
(-7.57311e-19 1.94787e-17 -9.51423)
(-3.32329e-19 -2.28872e-17 -9.62054)
(5.62499e-20 8.2128e-19 -9.70926)
(-4.9095e-19 1.105e-18 -9.78109)
(4.0031e-19 1.93568e-19 -9.8368)
(1.37099e-19 9.88982e-18 -9.87726)
(5.01291e-19 -4.48787e-19 -9.9034)
(-5.19279e-19 -1.21692e-17 -9.91621)
(-2.82056e-19 -2.96504e-18 -9.91673)
(3.32509e-19 -1.0404e-18 -9.90604)
(-2.3241e-19 1.13802e-18 -9.88523)
(2.28544e-19 -4.01882e-20 -9.85539)
(-7.12891e-20 -1.16378e-18 -9.81759)
(1.63395e-19 -5.30206e-18 -9.77296)
(3.71691e-20 4.3728e-18 -9.72255)
(-1.10896e-19 5.18182e-18 -9.6674)
(6.91303e-20 -6.38366e-18 -9.60847)
(4.31897e-21 4.78588e-20 -9.54668)
(3.9187e-21 -1.50749e-18 -9.48284)
(3.21564e-20 -2.56222e-18 -9.41765)
(2.06257e-20 -1.25074e-18 -9.35162)
(-7.06595e-21 1.26424e-18 -9.28399)
(1.17234e-20 -1.01505e-18 -9.22339)
(0 -0 3.61438)
(8.71682e-19 -0 3.04633)
(-8.50227e-19 -1.56993e-18 1.88273)
(6.75467e-19 -2.90421e-18 0.0370514)
(-6.84828e-19 6.04172e-18 -1.71929)
(2.31237e-20 -1.56758e-18 -3.27948)
(3.24035e-18 -0 -4.57405)
(-3.24513e-18 -0 -5.50456)
(1.78394e-19 -0 -6.16636)
(-3.96793e-19 -0 -6.63664)
(-6.80103e-18 6.16292e-18 -6.95406)
(6.23743e-18 9.72294e-18 -7.1676)
(7.65341e-18 -1.5914e-17 -7.31238)
(-8.65269e-19 9.19148e-18 -7.41038)
(1.1527e-18 -3.04414e-17 -7.47606)
(-7.28493e-18 3.36264e-17 -7.51953)
(-7.19237e-18 2.30093e-18 -7.54775)
(7.62957e-18 -2.08271e-17 -7.56524)
(-3.28069e-19 6.17782e-18 -7.57499)
(7.03262e-18 -1.22806e-17 -7.57894)
(-6.2361e-18 -1.54769e-17 -7.57825)
(-1.60737e-18 4.00655e-17 -7.5735)
(-3.31158e-20 -4.7097e-20 -7.56489)
(9.70076e-19 1.43152e-17 -7.55234)
(1.33109e-17 -3.88639e-17 -7.53546)
(-1.348e-17 1.22878e-17 -7.51367)
(-1.15669e-17 -1.22809e-17 -7.48611)
(1.25959e-18 -2.46625e-17 -7.45166)
(2.31811e-17 2.52058e-17 -7.40887)
(-1.5036e-17 3.64255e-17 -7.35582)
(2.81114e-18 -1.44074e-17 -7.28994)
(-1.02495e-17 -4.45502e-17 -7.2075)
(9.56844e-18 3.50033e-17 -7.10585)
(1.41059e-17 -1.8856e-17 -6.98358)
(-1.76918e-17 4.40372e-17 -6.84156)
(2.72164e-17 -3.03735e-18 -6.68155)
(-9.99035e-17 -9.64801e-17 -6.53246)
(-8.17946e-17 -1.58042e-16 -6.46649)
(1.43812e-16 -1.75956e-17 -6.52342)
(4.75442e-17 1.11265e-16 -6.70319)
(-2.32927e-17 1.65223e-16 -6.98405)
(-8.77543e-18 2.38224e-16 -7.30558)
(1.80942e-16 -5.73006e-16 -7.69443)
(4.37836e-17 -2.90406e-16 -8.15632)
(1.83582e-17 2.2535e-16 -8.67127)
(-8.19048e-17 -1.04635e-16 -9.23477)
(-1.73439e-16 2.12484e-16 -9.82783)
(-4.42443e-17 -2.77094e-17 -10.4554)
(-1.61248e-16 1.95657e-16 -11.1118)
(-3.06223e-17 -1.37632e-16 -11.7667)
(1.9186e-16 -1.80637e-16 -12.4493)
(-4.33837e-17 3.08741e-17 -13.1305)
(-1.01973e-16 3.848e-16 -13.8192)
(-1.21295e-16 1.87997e-16 -14.5069)
(-6.49014e-17 2.43999e-16 -15.1958)
(-2.92436e-17 1.24038e-16 -15.8816)
(-3.72035e-17 -9.06829e-18 -16.5541)
(-4.24884e-18 -4.33165e-17 -17.2163)
(2.95035e-18 -3.37492e-17 -17.8242)
(6.58653e-18 -5.41824e-17 -18.4)
(-9.7833e-18 -3.45368e-17 -18.882)
(1.90949e-17 -1.12471e-17 -19.2501)
(-3.70217e-17 -1.36842e-16 -19.4815)
(1.08287e-17 5.13502e-17 -19.5376)
(1.62723e-17 4.40739e-16 -19.4398)
(9.09058e-17 1.98051e-16 -19.1448)
(-2.35464e-18 3.27266e-17 -18.7083)
(9.547e-18 -1.00375e-17 -18.1064)
(-3.54393e-17 4.24757e-17 -17.398)
(8.24703e-17 1.6921e-16 -16.5933)
(1.78339e-17 -1.01388e-16 -15.7185)
(-6.19356e-17 -2.42951e-16 -14.8209)
(4.3587e-17 2.39452e-16 -13.8947)
(-8.01301e-17 -2.4128e-16 -12.9778)
(-7.44446e-17 1.11574e-16 -12.0811)
(3.5036e-18 -5.86851e-17 -11.2082)
(1.62292e-17 -1.45188e-16 -10.3744)
(-4.2764e-18 -2.53035e-17 -9.58485)
(8.78546e-17 -2.26587e-16 -8.83856)
(8.4158e-17 -9.73634e-17 -8.14034)
(-2.69535e-16 2.53538e-16 -7.49194)
(-3.43271e-17 3.15371e-17 -6.89123)
(4.22665e-17 -1.63514e-16 -6.33917)
(-6.65668e-17 1.11309e-16 -5.83486)
(-6.00698e-20 -7.1126e-17 -5.37566)
(-1.45889e-16 1.50466e-16 -4.96222)
(1.50209e-16 3.04088e-16 -4.59193)
(1.13207e-17 6.45397e-17 -4.2594)
(-4.39416e-17 -1.53391e-16 -3.96644)
(-1.72829e-16 -2.72947e-18 -3.7075)
(-2.57814e-17 1.35993e-17 -3.47695)
(1.37402e-18 5.13105e-19 -3.27605)
(2.80352e-17 -1.10054e-17 -3.0997)
(-3.87254e-18 -3.2249e-17 -2.94313)
(-5.01774e-17 8.07877e-18 -2.81086)
(-2.04811e-18 2.94304e-17 -2.69348)
(2.40335e-17 -1.32796e-17 -2.59885)
(-7.63892e-17 -1.18992e-17 -2.51809)
(-4.48615e-17 9.7964e-19 -2.45848)
(-2.08642e-18 2.34442e-17 -2.41231)
(1.10356e-17 -4.01754e-18 -2.38679)
(-1.09345e-17 9.22681e-18 -2.37554)
(7.28572e-18 -1.08284e-18 -2.38238)
(5.24651e-20 -1.02361e-18 -2.40539)
(2.88147e-21 1.16258e-17 -2.44413)
(-2.3538e-17 1.89836e-17 -2.4999)
(8.13723e-19 2.45228e-17 -2.57086)
(-2.35659e-17 -6.65109e-17 -2.65791)
(-2.17932e-17 -4.65463e-17 -2.76048)
(4.48277e-17 1.03293e-16 -2.87866)
(-1.85195e-18 -2.85849e-17 -3.01268)
(5.91275e-19 -6.60411e-19 -3.16269)
(4.34355e-19 3.00324e-17 -3.33038)
(-3.4392e-17 1.75419e-17 -3.5135)
(4.69863e-17 4.76073e-18 -3.7192)
(1.37237e-18 -2.61245e-17 -3.94062)
(-5.94885e-17 -2.00858e-16 -4.18578)
(1.06641e-16 -5.77923e-17 -4.45465)
(4.83358e-17 3.89647e-16 -4.74546)
(-1.23052e-16 -5.05664e-17 -5.06449)
(1.82622e-16 -2.11289e-16 -5.4121)
(-2.24576e-18 -1.14914e-16 -5.78618)
(-1.3263e-16 2.57076e-16 -6.19159)
(-1.51818e-16 2.4711e-16 -6.62923)
(-1.69565e-16 6.39533e-17 -7.09459)
(1.70036e-16 8.71188e-17 -7.59085)
(-3.34984e-17 2.98898e-17 -8.11515)
(4.92054e-17 8.61865e-17 -8.66444)
(-2.15221e-16 3.39299e-16 -9.2373)
(-2.36218e-16 2.30198e-16 -9.82973)
(-1.83877e-16 1.96063e-16 -10.4304)
(-5.73392e-18 7.54544e-19 -11.0459)
(-2.64059e-16 3.67126e-16 -11.6684)
(-2.61422e-17 -1.1565e-16 -12.2747)
(-8.46382e-17 1.8853e-16 -12.8867)
(-3.44754e-17 3.9218e-17 -13.4842)
(-2.04646e-17 -4.63248e-17 -14.0465)
(-1.25713e-16 2.81518e-16 -14.6106)
(3.18579e-17 -6.48471e-17 -15.1313)
(-1.1328e-16 3.39127e-16 -15.6327)
(1.98624e-16 -6.24406e-16 -16.1057)
(1.41295e-16 -5.38251e-16 -16.5511)
(6.73257e-17 -2.88851e-16 -16.9753)
(5.58187e-18 6.71675e-18 -17.3769)
(-8.57981e-18 9.47377e-17 -17.752)
(2.50891e-18 4.27313e-18 -18.1064)
(1.61729e-18 -3.71734e-17 -18.413)
(-4.44112e-18 1.18876e-16 -18.6818)
(1.49062e-18 -6.60143e-17 -18.8637)
(3.13284e-18 1.36133e-16 -18.9456)
(-9.7195e-18 -1.02078e-16 -18.9034)
(2.70888e-18 -2.98324e-18 -18.7037)
(3.91097e-17 2.22835e-16 -18.345)
(-1.78937e-17 -9.17718e-17 -17.7994)
(3.36917e-17 1.44174e-16 -17.0838)
(8.1628e-18 4.08377e-17 -16.201)
(-4.72389e-17 -1.87083e-16 -15.1818)
(9.46445e-18 3.03678e-17 -14.0511)
(-2.24137e-19 -1.88044e-18 -12.8662)
(-2.71306e-17 -8.57427e-17 -11.7073)
(-2.30922e-18 4.54534e-18 -10.6439)
(3.21839e-18 -1.36611e-19 -9.77656)
(9.41637e-19 -1.52277e-18 -9.15782)
(-2.39519e-18 -2.42305e-17 -8.74574)
(-4.71603e-19 9.36287e-19 -8.49858)
(8.13238e-19 -3.22171e-18 -8.38576)
(-9.96644e-20 1.72186e-17 -8.36567)
(-2.84728e-18 -1.70199e-17 -8.39583)
(-2.39619e-18 -2.0271e-17 -8.44736)
(9.99902e-19 -2.61886e-18 -8.50113)
(2.36744e-18 2.2177e-17 -8.54903)
(-6.92384e-19 -5.25909e-18 -8.59208)
(-1.91321e-18 -2.44323e-17 -8.63225)
(1.91549e-18 2.63142e-17 -8.67011)
(4.16595e-19 2.98518e-18 -8.7056)
(-2.00363e-18 2.83186e-18 -8.73848)
(1.76947e-18 -7.794e-19 -8.76841)
(1.3443e-19 -2.77931e-17 -8.79494)
(9.44651e-20 2.90886e-17 -8.8176)
(-2.08723e-19 -6.22288e-19 -8.83593)
(4.92955e-19 4.07042e-18 -8.8495)
(-3.13291e-19 -1.41611e-19 -8.85801)
(1.70384e-20 -4.32794e-18 -8.86123)
(2.24906e-19 -1.44693e-17 -8.85904)
(-5.22718e-19 1.49975e-17 -8.85144)
(2.43929e-20 2.94387e-18 -8.83851)
(-5.68495e-20 -4.13284e-18 -8.82048)
(-5.6482e-20 1.94858e-19 -8.79762)
(1.44787e-20 1.44097e-17 -8.77028)
(-4.89002e-20 -1.46899e-17 -8.73882)
(-1.15968e-19 -3.90606e-18 -8.7037)
(2.5521e-19 -7.05603e-18 -8.66535)
(-1.39125e-19 7.1305e-18 -8.62419)
(4.29094e-20 -7.04807e-18 -8.58064)
(-9.29882e-20 7.06151e-18 -8.53506)
(-8.38869e-21 3.00202e-18 -8.48777)
(-7.62428e-20 3.41288e-18 -8.43903)
(2.19793e-20 -1.73431e-18 -8.38896)
(9.45219e-20 -5.45851e-18 -8.33611)
(-1.90171e-21 6.56702e-21 -8.27715)
(0 -0 2.35069)
(0 -0 2.34933)
(1.40739e-20 -1.59014e-18 2.1261)
(5.89214e-19 -2.84098e-18 1.53316)
(-6.15379e-19 6.01052e-18 0.77936)
(7.75472e-20 -4.64407e-18 -0.201361)
(4.22159e-18 -6.21412e-18 -1.13315)
(-7.64498e-18 1.53823e-17 -1.98493)
(2.65165e-18 1.22108e-19 -2.73797)
(1.5135e-18 -1.84636e-17 -3.39233)
(-8.9023e-19 1.52757e-17 -3.88881)
(6.64509e-18 -3.0377e-18 -4.2918)
(-1.26405e-17 -6.01542e-18 -4.62469)
(1.371e-17 -1.77121e-17 -4.89351)
(-1.3991e-17 1.82122e-17 -5.11137)
(5.36741e-18 2.89215e-17 -5.2907)
(1.611e-18 -2.94212e-17 -5.44046)
(-6.4228e-19 6.01503e-18 -5.56697)
(3.34423e-19 -5.96601e-18 -5.67522)
(6.41448e-18 -1.07689e-17 -5.76922)
(-7.86579e-18 2.27124e-17 -5.85173)
(1.12592e-18 -5.97746e-18 -5.92489)
(-1.30607e-17 1.18786e-17 -5.9903)
(1.34174e-17 8.33005e-18 -6.04919)
(1.8843e-18 -6.37891e-17 -6.10237)
(-4.06696e-18 6.73374e-17 -6.1504)
(-7.11161e-19 1.8893e-17 -6.19356)
(1.89079e-18 -3.61467e-17 -6.23186)
(-9.4791e-18 -4.80956e-17 -6.26504)
(8.07241e-18 6.54019e-17 -6.29251)
(-3.71581e-19 1.64909e-17 -6.31331)