/*--------------------------------*- C++ -*----------------------------------*\
| =========                 |                                                 |
| \\      /  F ield         | OpenFOAM: The Open Source CFD Toolbox           |
|  \\    /   O peration     | Version:  2506                                  |
|   \\  /    A nd           | Website:  www.openfoam.com                      |
|    \\/     M anipulation  |                                                 |
\*---------------------------------------------------------------------------*/
FoamFile
{
    version     2.0;
    format      ascii;
    arch        "LSB;label=32;scalar=64";
    class       surfaceScalarField;
    location    "2.6";
    object      phi;
}
// * * * * * * * * * * * * * * * * * * * * * * * * * * * * * * * * * * * * * //

dimensions      [0 3 -1 0 0 0 0];

oriented        oriented;

internalField   nonuniform List<scalar> 
7780
(
3.5309e-09
5.691e-10
2.83787e-09
6.93026e-10
2.30693e-09
5.30941e-10
1.93448e-09
3.72443e-10
1.69433e-09
2.40153e-10
1.5441e-09
1.5023e-10
1.44919e-09
9.49043e-11
1.38813e-09
6.10617e-11
1.34767e-09
4.04572e-11
1.31962e-09
2.80489e-11
1.29894e-09
2.0677e-11
1.28262e-09
1.63285e-11
1.26883e-09
1.37869e-11
1.2565e-09
1.23284e-11
1.24498e-09
1.15139e-11
1.23389e-09
1.10986e-11
1.22293e-09
1.09555e-11
1.2119e-09
1.1026e-11
1.20061e-09
1.1288e-11
1.18887e-09
1.17405e-11
1.17647e-09
1.23962e-11
1.1632e-09
1.32755e-11
1.14879e-09
1.44044e-11
1.13297e-09
1.58155e-11
1.11542e-09
1.75493e-11
1.09576e-09
1.96587e-11
1.07355e-09
2.22151e-11
1.04823e-09
2.53212e-11
1.01909e-09
2.91333e-11
9.85188e-10
3.3904e-11
9.45108e-10
4.00807e-11
8.96522e-10
4.8588e-11
8.35826e-10
6.06991e-11
7.46435e-10
8.9393e-11
6.72214e-10
7.4222e-11
6.54412e-10
1.7799e-11
6.6506e-10
-1.06518e-11
6.8499e-10
-1.99268e-11
7.15251e-10
-3.02422e-11
7.62907e-10
-4.76146e-11
8.50388e-10
-8.74258e-11
9.46094e-10
-9.56617e-11
1.02746e-09
-8.13533e-11
1.10054e-09
-7.3096e-11
1.16412e-09
-6.36311e-11
1.22292e-09
-5.88556e-11
1.28108e-09
-5.82218e-11
1.32924e-09
-4.82171e-11
1.37702e-09
-4.78156e-11
1.41972e-09
-4.2721e-11
1.45442e-09
-3.47117e-11
1.48672e-09
-3.23061e-11
1.50302e-09
-1.62897e-11
1.51652e-09
-1.34849e-11
1.51053e-09
5.99666e-12
1.49565e-09
1.48911e-11
1.46465e-09
3.10017e-11
1.41511e-09
4.95381e-11
1.36322e-09
5.18779e-11
1.2846e-09
7.86058e-11
1.2099e-09
7.4669e-11
1.12731e-09
8.25485e-11
1.04434e-09
8.29304e-11
9.68422e-10
7.5895e-11
8.92162e-10
7.62591e-11
8.2943e-10
6.27625e-11
7.6841e-10
6.10829e-11
7.20051e-10
4.84442e-11
6.76208e-10
4.3939e-11
6.40355e-10
3.5948e-11
6.11472e-10
2.89698e-11
5.853e-10
2.62431e-11
5.65711e-10
1.96409e-11
5.49025e-10
1.67165e-11
5.34761e-10
1.42735e-11
5.24139e-10
1.06109e-11
5.15237e-10
8.87307e-12
5.0718e-10
8.01506e-12
5.00794e-10
6.33867e-12
4.95396e-10
5.34984e-12
4.90506e-10
4.8475e-12
4.86434e-10
4.03956e-12
4.83024e-10
3.39013e-12
4.80303e-10
2.71326e-12
4.78748e-10
1.55877e-12
4.77706e-10
1.05532e-12
4.77108e-10
6.19237e-13
4.78204e-10
-1.0699e-12
4.79589e-10
-1.35611e-12
4.80942e-10
-1.3237e-12
4.84124e-10
-3.15244e-12
4.87045e-10
-2.89366e-12
4.89737e-10
-2.66753e-12
4.94061e-10
-4.30254e-12
4.96643e-10
-2.56437e-12
5.01481e-10
-4.82222e-12
5.04227e-10
-2.7338e-12
5.0905e-10
-4.81321e-12
5.11505e-10
-2.44689e-12
5.16946e-10
-5.43548e-12
5.19781e-10
-2.83068e-12
5.25105e-10
-5.32133e-12
5.30036e-10
-4.92969e-12
5.34228e-10
-4.19164e-12
5.4083e-10
-6.60262e-12
5.46342e-10
-5.51309e-12
5.54719e-10
-8.37978e-12
5.63105e-10
-8.3893e-12
5.73402e-10
-1.03002e-11
5.85004e-10
-1.16066e-11
5.98459e-10
-1.34587e-11
6.13102e-10
-1.46447e-11
6.30366e-10
-1.72653e-11
6.48111e-10
-1.77439e-11
6.6982e-10
-2.17042e-11
6.91914e-10
-2.20857e-11
7.15649e-10
-2.37223e-11
7.41492e-10
-2.58253e-11
7.6764e-10
-2.61233e-11
7.94776e-10
-2.71045e-11
8.23158e-10
-2.8342e-11
8.51023e-10
-2.7816e-11
8.78277e-10
-2.71967e-11
9.05773e-10
-2.74288e-11
9.32192e-10
-2.63432e-11
9.57708e-10
-2.54323e-11
9.82268e-10
-2.4467e-11
1.00545e-09
-2.30856e-11
1.02804e-09
-2.24798e-11
1.05114e-09
-2.29925e-11
1.07189e-09
-2.06481e-11
1.09306e-09
-2.10832e-11
1.11689e-09
-2.37658e-11
1.13836e-09
-2.14526e-11
1.16181e-09
-2.34896e-11
1.19056e-09
-2.88503e-11
1.21365e-09
-2.32515e-11
1.24317e-09
-2.9729e-11
1.26975e-09
-2.68026e-11
1.29695e-09
-2.74137e-11
1.32168e-09
-2.49018e-11
1.34155e-09
-1.9974e-11
1.3537e-09
-1.21818e-11
1.35927e-09
-5.55064e-12
1.34638e-09
1.29479e-11
1.33137e-09
1.50788e-11
1.28645e-09
4.49826e-11
1.2373e-09
4.91835e-11
1.17407e-09
6.32531e-11
1.09875e-09
7.53073e-11
1.02506e-09
7.36756e-11
9.38541e-10
8.65035e-11
8.62391e-10
7.6141e-11
7.80803e-10
8.15963e-11
7.11048e-10
6.97842e-11
6.40203e-10
7.0897e-11
5.79807e-10
6.04619e-11
5.19997e-10
5.98794e-11
4.67393e-10
5.26614e-11
4.19164e-10
4.82638e-11
4.51036e-10
-3.18636e-11
4.87849e-10
-3.68154e-11
5.25656e-10
-3.78123e-11
5.64289e-10
-3.86372e-11
6.15934e-10
-5.16465e-11
6.76899e-10
-6.09629e-11
7.61923e-10
-8.50194e-11
8.30763e-10
-6.88374e-11
8.76309e-10
-4.55449e-11
9.10255e-10
-3.39464e-11
9.38661e-10
-2.84086e-11
9.64683e-10
-2.60247e-11
9.898e-10
-2.51202e-11
1.01449e-09
-2.46935e-11
1.03861e-09
-2.41177e-11
1.06165e-09
-2.30456e-11
1.083e-09
-2.13545e-11
1.10205e-09
-1.90472e-11
1.11829e-09
-1.62433e-11
1.13168e-09
-1.33861e-11
1.14203e-09
-1.03474e-11
1.14947e-09
-7.4426e-12
1.15432e-09
-4.85379e-12
1.15709e-09
-2.76969e-12
1.15799e-09
-8.94022e-13
1.15764e-09
3.44584e-13
1.1565e-09
1.13616e-12
1.15495e-09
1.54782e-12
1.15348e-09
1.47568e-12
1.15242e-09
1.05262e-12
1.152e-09
4.22377e-13
1.15241e-09
-4.10926e-13
1.15367e-09
-1.25925e-12
1.15586e-09
-2.19007e-12
1.15895e-09
-3.08982e-12
1.16281e-09
-3.86502e-12
1.16725e-09
-4.43782e-12
1.17197e-09
-4.72662e-12
1.17652e-09
-4.54509e-12
-2.98148e-12
4.33709e-09
3.32007e-10
4.34288e-09
6.87238e-10
4.17233e-09
7.01486e-10
3.92907e-09
6.15699e-10
3.67432e-09
4.94907e-10
3.44989e-09
3.74658e-10
3.2728e-09
2.7199e-10
3.13873e-09
1.95131e-10
3.03822e-09
1.40965e-10
2.96252e-09
1.03754e-10
2.90421e-09
7.89864e-11
2.85767e-09
6.28662e-11
2.8189e-09
5.2558e-11
2.78519e-09
4.60335e-11
2.75481e-09
4.19026e-11
2.72658e-09
3.9322e-11
2.69972e-09
3.7814e-11
2.67362e-09
3.71263e-11
2.64777e-09
3.71385e-11
2.6217e-09
3.78111e-11
2.59494e-09
3.91566e-11
2.56699e-09
4.12172e-11
2.53734e-09
4.40555e-11
2.5054e-09
4.77537e-11
2.47053e-09
5.24175e-11
2.432e-09
5.81838e-11
2.38898e-09
6.52365e-11
2.34047e-09
7.3831e-11
2.28526e-09
8.43384e-11
2.22184e-09
9.73227e-11
2.14824e-09
1.13687e-10
2.06185e-09
1.34974e-10
1.95859e-09
1.6396e-10
1.82827e-09
2.19713e-10
1.71286e-09
1.89635e-10
1.66066e-09
6.99876e-11
1.65638e-09
-6.37888e-12
1.68218e-09
-4.57514e-11
1.73608e-09
-8.41789e-11
1.82407e-09
-1.35625e-10
1.96043e-09
-2.23774e-10
2.11282e-09
-2.48017e-10
2.26044e-09
-2.28936e-10
2.40168e-09
-2.14297e-10
2.53209e-09
-1.94023e-10
2.65538e-09
-1.82141e-10
2.77446e-09
-1.77314e-10
2.88037e-09
-1.54142e-10
2.98286e-09
-1.50319e-10
3.07551e-09
-1.35391e-10
3.1559e-09
-1.15114e-10
3.22706e-09
-1.03469e-10
3.27846e-09
-6.76975e-11
3.31727e-09
-5.22937e-11
3.33011e-09
-6.84219e-12
3.32308e-09
2.19296e-11
3.29131e-09
6.27684e-11
3.23026e-09
1.10589e-10
3.15071e-09
1.3142e-10
3.03611e-09
1.93196e-10
2.90967e-09
2.01099e-10
2.76589e-09
2.26321e-10
2.61373e-09
2.35094e-10
2.46204e-09
2.27589e-10
2.30888e-09
2.29431e-10
2.16783e-09
2.03824e-10
2.03221e-09
1.9672e-10
1.91231e-09
1.68337e-10
1.80282e-09
1.53427e-10
1.70666e-09
1.3209e-10
1.62358e-09
1.1202e-10
1.54858e-09
1.01207e-10
1.48525e-09
8.2947e-11
1.42968e-09
7.2251e-11
1.38037e-09
6.35486e-11
1.33771e-09
5.32399e-11
1.29971e-09
4.68548e-11
1.26492e-09
4.27814e-11
1.23349e-09
3.77631e-11
1.20472e-09
3.41181e-11
1.17785e-09
3.17216e-11
1.15298e-09
2.89211e-11
1.12995e-09
2.64374e-11
1.1088e-09
2.38745e-11
1.09003e-09
2.03419e-11
1.07318e-09
1.79209e-11
1.05811e-09
1.56906e-11
1.04593e-09
1.11164e-11
1.03545e-09
9.12561e-12
1.02625e-09
7.87739e-12
1.01965e-09
3.43338e-12
1.01405e-09
2.7064e-12
1.00903e-09
2.34061e-12
1.00608e-09
-1.35922e-12
1.00273e-09
7.76334e-13
1.00154e-09
-3.6362e-12
1.00011e-09
-1.30648e-12
1.00049e-09
-5.2007e-12
1.00126e-09
-3.22271e-12
1.00417e-09
-8.34133e-12
1.00809e-09
-6.75258e-12
1.01426e-09
-1.14971e-11
1.02263e-09
-1.32987e-11
1.03388e-09
-1.54398e-11
1.04932e-09
-2.20374e-11
1.06701e-09
-2.32002e-11
1.08983e-09
-3.12037e-11
1.11594e-09
-3.44963e-11
1.14675e-09
-4.11106e-11
1.18194e-09
-4.6803e-11
1.22173e-09
-5.32461e-11
1.26573e-09
-5.86466e-11
1.31466e-09
-6.62031e-11
1.36637e-09
-6.94608e-11
1.42366e-09
-7.90049e-11
1.48287e-09
-8.13052e-11
1.54477e-09
-8.56375e-11
1.60932e-09
-9.03916e-11
1.67423e-09
-9.10517e-11
1.73968e-09
-9.25784e-11
1.80552e-09
-9.41999e-11
1.87008e-09
-9.24012e-11
1.93309e-09
-9.02384e-11
1.99484e-09
-8.9213e-11
2.05427e-09
-8.58102e-11
2.11152e-09
-8.2725e-11
2.16662e-09
-7.96072e-11
2.21958e-09
-7.60805e-11
2.27138e-09
-7.43119e-11
2.32289e-09
-7.45298e-11
2.37268e-09
-7.04433e-11
2.42314e-09
-7.15266e-11
2.4764e-09
-7.69902e-11
2.52894e-09
-7.39319e-11
2.58501e-09
-7.94714e-11
2.64549e-09
-8.92505e-11
2.70335e-09
-8.10285e-11
2.76616e-09
-9.24918e-11
2.82706e-09
-8.76835e-11
2.88679e-09
-8.7153e-11
2.94222e-09
-8.03805e-11
2.9889e-09
-6.67119e-11
3.02383e-09
-4.71658e-11
3.04391e-09
-2.56741e-11
3.03987e-09
1.69529e-11
3.01929e-09
3.56547e-11
2.9651e-09
9.91724e-11
2.89041e-09
1.23877e-10
2.79025e-09
1.63413e-10
2.66609e-09
1.99468e-10
2.53059e-09
2.09169e-10
2.37471e-09
2.42365e-10
2.21975e-09
2.31099e-10
2.05594e-09
2.45398e-10
1.90026e-09
2.25465e-10
1.74406e-09
2.27093e-10
1.59916e-09
2.0535e-10
1.45983e-09
1.9919e-10
1.33723e-09
1.75225e-10
1.23385e-09
1.51613e-10
1.23426e-09
-3.22958e-11
1.27061e-09
-7.31735e-11
1.32482e-09
-9.2028e-11
1.38963e-09
-1.03443e-10
1.47371e-09
-1.35725e-10
1.57371e-09
-1.6097e-10
1.69595e-09
-2.07251e-10
1.8059e-09
-1.78786e-10
1.89466e-09
-1.34308e-10
1.96995e-09
-1.09232e-10
2.03781e-09
-9.62736e-11
2.10215e-09
-9.03661e-11
2.16477e-09
-8.77413e-11
2.22595e-09
-8.58753e-11
2.28501e-09
-8.31791e-11
2.34075e-09
-7.87896e-11
2.39183e-09
-7.24273e-11
2.437e-09
-6.42164e-11
2.47536e-09
-5.46084e-11
2.50645e-09
-4.44799e-11
2.53021e-09
-3.41013e-11
2.54698e-09
-2.42146e-11
2.55746e-09
-1.53374e-11
2.56248e-09
-7.78587e-12
2.56319e-09
-1.60957e-12
2.56098e-09
2.5554e-12
2.55681e-09
5.31021e-12
2.5518e-09
6.55176e-12
2.54683e-09
6.44854e-12
2.54263e-09
5.24964e-12
2.5398e-09
3.25061e-12
2.53868e-09
7.06172e-13
2.53963e-09
-2.20411e-12
2.54253e-09
-5.09438e-12
2.54724e-09
-7.80094e-12
2.55347e-09
-1.00933e-11
2.56082e-09
-1.17866e-11
2.5688e-09
-1.27072e-11
2.57691e-09
-1.26566e-11
-1.04475e-11
4.24312e-09
1.88885e-10
4.43927e-09
4.91082e-10
4.53896e-09
6.018e-10
4.5454e-09
6.09256e-10
4.48106e-09
5.59247e-10
4.37566e-09
4.80056e-10
4.25388e-09
3.93771e-10
4.13475e-09
3.14259e-10
4.02959e-09
2.4612e-10
3.9405e-09
1.92843e-10
3.86595e-09
1.5354e-10
3.80342e-09
1.254e-10
3.75006e-09
1.05918e-10
3.70339e-09
9.26953e-11
3.66154e-09
8.37542e-11
3.62309e-09
7.77777e-11
3.58697e-09
7.39297e-11
3.55237e-09
7.17269e-11
3.5186e-09
7.09042e-11
3.48506e-09
7.13543e-11
3.45114e-09
7.30727e-11
3.41624e-09
7.61141e-11
3.37972e-09
8.0574e-11
3.34089e-09
8.65839e-11
3.29899e-09
9.43141e-11
3.25319e-09
1.03984e-10
3.20254e-09
1.15882e-10
3.14597e-09
1.30398e-10
3.08224e-09
1.48073e-10
3.00987e-09
1.69686e-10
2.92717e-09
1.96394e-10
2.83219e-09
2.29954e-10
2.72276e-09
2.73392e-10
2.59386e-09
3.48611e-10
2.47432e-09
3.09175e-10
2.40383e-09
1.40474e-10
2.38354e-09
1.39e-11
2.40662e-09
-6.88513e-11
2.47084e-09
-1.48437e-10
2.57612e-09
-2.40939e-10
2.72414e-09
-3.71815e-10
2.8904e-09
-4.14263e-10
3.06094e-09
-3.99429e-10
3.22825e-09
-3.81565e-10
3.38653e-09
-3.5226e-10
3.53636e-09
-3.31949e-10
3.67883e-09
-3.19782e-10
3.80802e-09
-2.83335e-10
3.93209e-09
-2.744e-10
4.04367e-09
-2.46979e-10
4.14279e-09
-2.14251e-10
4.22974e-09
-1.90432e-10
4.29949e-09
-1.37454e-10
4.35323e-09
-1.06041e-10
4.38604e-09
-3.96569e-11
4.39668e-09
1.12913e-11
4.38338e-09
7.60682e-11
4.34223e-09
1.51738e-10
4.2782e-09
1.95447e-10
4.18187e-09
2.89521e-10
4.06504e-09
3.17926e-10
3.92536e-09
3.65996e-10
3.76938e-09
3.91077e-10
3.6039e-09
3.93079e-10
3.43084e-09
4.02505e-10
3.26041e-09
3.74267e-10
3.09185e-09
3.65286e-10
2.93336e-09
3.26819e-10
2.7841e-09
3.02665e-10
2.6469e-09
2.69264e-10
2.52293e-09
2.35965e-10
2.40908e-09
2.15017e-10
2.30773e-09
1.84261e-10
2.21616e-09
1.63788e-10
2.13286e-09
1.46821e-10
2.05767e-09
1.28398e-10
1.98879e-09
1.15719e-10
1.92482e-09
1.06739e-10
1.86521e-09
9.7373e-11
1.80922e-09
9.01134e-11
1.75599e-09
8.49715e-11
1.70538e-09
7.95458e-11
1.65721e-09
7.46279e-11
1.61152e-09
6.95857e-11
1.56873e-09
6.31494e-11
1.52874e-09
5.79128e-11
1.4916e-09
5.28409e-11
1.45797e-09
4.47408e-11
1.42729e-09
3.9803e-11
1.39946e-09
3.57026e-11
1.37444e-09
2.84438e-11
1.35189e-09
2.52464e-11
1.33131e-09
2.29118e-11
1.31311e-09
1.68384e-11
1.29636e-09
1.75151e-11
1.28228e-09
1.04351e-11
1.26982e-09
1.11583e-11
1.26079e-09
3.82121e-12
1.25378e-09
3.78702e-12
1.25173e-09
-6.29357e-12
1.25337e-09
-8.39526e-12
1.26065e-09
-1.87798e-11
1.2734e-09
-2.60513e-11
1.29239e-09
-3.44271e-11
1.31857e-09
-4.82106e-11
1.35136e-09
-5.59966e-11
1.39201e-09
-7.18466e-11
1.43975e-09
-8.22371e-11
1.49482e-09
-9.61793e-11
1.55695e-09
-1.08943e-10
1.62566e-09
-1.21949e-10
1.70069e-09
-1.33685e-10
1.78143e-09
-1.46953e-10
1.86639e-09
-1.5442e-10
1.95614e-09
-1.68766e-10
2.04848e-09
-1.73656e-10
2.14306e-09
-1.80227e-10
2.23916e-09
-1.86508e-10
2.33504e-09
-1.8696e-10
2.43024e-09
-1.87792e-10
2.52418e-09
-1.88165e-10
2.61549e-09
-1.83739e-10
2.70389e-09
-1.78661e-10
2.78926e-09
-1.7462e-10
2.87101e-09
-1.67584e-10
2.94926e-09
-1.61015e-10
3.02417e-09
-1.54553e-10
3.09605e-09
-1.48e-10
3.16575e-09
-1.4405e-10
3.23396e-09
-1.42777e-10
3.30061e-09
-1.37115e-10
3.36665e-09
-1.37573e-10
3.4345e-09
-1.44813e-10
3.50218e-09
-1.41568e-10
3.5721e-09
-1.4931e-10
3.64419e-09
-1.61246e-10
3.71497e-09
-1.51698e-10
3.78748e-09
-1.64913e-10
3.85818e-09
-1.58325e-10
3.92566e-09
-1.54619e-10
3.98793e-09
-1.42672e-10
4.04049e-09
-1.19314e-10
4.08124e-09
-8.79875e-11
4.10619e-09
-5.06879e-11
4.11019e-09
1.28966e-11
4.0942e-09
5.16159e-11
4.04899e-09
1.4437e-10
3.97955e-09
1.93316e-10
3.88345e-09
2.59511e-10
3.75983e-09
3.23098e-10
3.6171e-09
3.51888e-10
3.44966e-09
4.09803e-10
3.27209e-09
4.0866e-10
3.07948e-09
4.38005e-10
2.8851e-09
4.19846e-10
2.68508e-09
4.27108e-10
2.49036e-09
4.00054e-10
2.30052e-09
3.89008e-10
2.13272e-09
3.42993e-10
1.98765e-09
2.96652e-10
1.9355e-09
1.98448e-11
1.93256e-09
-7.02471e-11
1.96296e-09
-1.22426e-10
2.01646e-09
-1.56942e-10
2.09581e-09
-2.15077e-10
2.19455e-09
-2.59708e-10
2.31291e-09
-3.25605e-10
2.42711e-09
-2.92985e-10
2.52992e-09
-2.37122e-10
2.62455e-09
-2.03855e-10
2.71406e-09
-1.85786e-10
2.80069e-09
-1.77e-10
2.88542e-09
-1.7247e-10
2.96804e-09
-1.68497e-10
3.04751e-09
-1.62648e-10
3.1223e-09
-1.53585e-10
3.19076e-09
-1.40886e-10
3.25139e-09
-1.24849e-10
3.30309e-09
-1.06304e-10
3.34505e-09
-8.64373e-11
3.37726e-09
-6.63121e-11
3.40011e-09
-4.70644e-11
3.41441e-09
-2.96434e-11
3.42136e-09
-1.4736e-11
3.42252e-09
-2.76827e-12
3.41913e-09
5.94588e-12
3.41288e-09
1.15554e-11
3.4052e-09
1.42289e-11
3.39735e-09
1.43063e-11
3.39035e-09
1.22414e-11
3.38505e-09
8.55196e-12
3.38199e-09
3.76579e-12
3.38138e-09
-1.595e-12
3.38329e-09
-7.00684e-12
3.38753e-09
-1.20357e-11
3.39373e-09
-1.62935e-11
3.40141e-09
-1.94732e-11
3.41004e-09
-2.13381e-11
3.41915e-09
-2.1762e-11
-1.95449e-11
4.17127e-09
1.17617e-10
4.33282e-09
3.29528e-10
4.48156e-09
4.53054e-10
4.58755e-09
5.03271e-10
4.64434e-09
5.02454e-10
4.65399e-09
4.70397e-10
4.62815e-09
4.19616e-10
4.58167e-09
3.60742e-10
4.52371e-09
3.04078e-10
4.4617e-09
2.54851e-10
4.40207e-09
2.13174e-10
4.34733e-09
1.80133e-10
4.29756e-09
1.5569e-10
4.25224e-09
1.38011e-10
4.21063e-09
1.2537e-10
4.17186e-09
1.16546e-10
4.13517e-09
1.10618e-10
4.09985e-09
1.07044e-10
4.06531e-09
1.05448e-10
4.03097e-09
1.05692e-10
3.99627e-09
1.07767e-10
3.96064e-09
1.11744e-10
3.92346e-09
1.17753e-10
3.88407e-09
1.25974e-10
3.84175e-09
1.36638e-10
3.79569e-09
1.50037e-10
3.74503e-09
1.66543e-10
3.68879e-09
1.8664e-10
3.62588e-09
2.10974e-10
3.55515e-09
2.40422e-10
3.47533e-09
2.76209e-10
3.38526e-09
3.20029e-10
3.28408e-09
3.7457e-10
3.16941e-09
4.63277e-10
3.06009e-09
4.18494e-10
2.98589e-09
2.14682e-10
2.9564e-09
4.33824e-11
2.97324e-09
-8.57064e-11
3.03539e-09
-2.10618e-10
3.13882e-09
-3.44403e-10
3.27869e-09
-5.11724e-10
3.43671e-09
-5.72294e-10
3.60373e-09
-5.66429e-10
3.76968e-09
-5.47473e-10
3.92842e-09
-5.10961e-10
4.07866e-09
-4.82153e-10
4.22052e-09
-4.61623e-10
4.35118e-09
-4.13981e-10
4.47398e-09
-3.97202e-10
4.58527e-09
-3.58284e-10
4.68563e-09
-3.14622e-10
4.77379e-09
-2.78605e-10
4.8487e-09
-2.12373e-10
4.90907e-09
-1.66418e-10
4.95313e-09
-8.37189e-11
4.9795e-09
-1.50828e-11
4.98634e-09
6.92239e-11
4.97142e-09
1.66662e-10
4.93592e-09
2.30937e-10
4.87503e-09
3.50407e-10
4.79268e-09
4.00272e-10
4.68725e-09
4.7143e-10
4.5621e-09
5.1623e-10
4.42083e-09
5.34358e-10
4.26618e-09
5.57167e-10
4.10447e-09
5.3599e-10
3.93787e-09
5.31888e-10
3.77249e-09
4.92188e-10
3.6104e-09
4.64741e-10
3.45461e-09
4.2503e-10
3.30771e-09
3.82828e-10
3.16868e-09
3.54024e-10
3.03987e-09
3.1304e-10
2.91999e-09
2.83639e-10
2.80822e-09
2.58576e-10
2.70448e-09
2.32117e-10
2.60739e-09
2.12794e-10
2.51596e-09
1.9817e-10
2.42943e-09
1.83912e-10
2.34713e-09
1.72424e-10
2.26818e-09
1.63947e-10
2.19236e-09
1.55391e-10
2.11944e-09
1.47561e-10
2.04948e-09
1.39565e-10
1.98291e-09
1.2973e-10
1.9199e-09
1.20927e-10
1.86068e-09
1.12062e-10
1.80608e-09
9.93354e-11
1.75582e-09
9.006e-11
1.71005e-09
8.14633e-11
1.66888e-09
6.96e-11
1.63208e-09
6.20459e-11
1.59908e-09
5.59e-11
1.57046e-09
4.54557e-11
1.54513e-09
4.28397e-11
1.52432e-09
3.1239e-11
1.50704e-09
2.84379e-11
1.49489e-09
1.59666e-11
1.48703e-09
1.16451e-11
1.48586e-09
-5.12928e-12
1.49044e-09
-1.29682e-11
1.50275e-09
-3.10962e-11
1.5227e-09
-4.60014e-11
1.55108e-09
-6.2808e-11
1.58876e-09
-8.58884e-11
1.6352e-09
-1.02434e-10
1.69127e-09
-1.27914e-10
1.75618e-09
-1.47147e-10
1.82972e-09
-1.69722e-10
1.91147e-09
-1.90695e-10
2.00047e-09
-2.10947e-10
2.09611e-09
-2.2933e-10
2.19735e-09
-2.48198e-10
2.30273e-09
-2.59796e-10
2.41192e-09
-2.77968e-10
2.52295e-09
-2.84694e-10
2.63501e-09
-2.92292e-10
2.74715e-09
-2.98666e-10
2.8579e-09
-2.97724e-10
2.96656e-09
-2.96467e-10
3.07253e-09
-2.94163e-10
3.17474e-09
-2.85971e-10
3.273e-09
-2.76941e-10
3.36714e-09
-2.68779e-10
3.4569e-09
-2.57369e-10
3.54254e-09
-2.46677e-10
3.62432e-09
-2.36367e-10
3.70275e-09
-2.26463e-10
3.77857e-09
-2.19901e-10
3.8524e-09
-2.16645e-10
3.92475e-09
-2.095e-10
3.99493e-09
-2.07772e-10
4.06717e-09
-2.17051e-10
4.13926e-09
-2.13642e-10
4.21162e-09
-2.2162e-10
4.28399e-09
-2.33528e-10
4.35583e-09
-2.23446e-10
4.42691e-09
-2.35897e-10
4.49593e-09
-2.27264e-10
4.56055e-09
-2.19189e-10
4.61991e-09
-2.02021e-10
4.67021e-09
-1.6964e-10
4.7105e-09
-1.28331e-10
4.73698e-09
-7.72342e-11
4.74768e-09
2.14036e-12
4.74022e-09
5.90288e-11
4.71122e-09
1.73337e-10
4.66008e-09
2.44454e-10
4.58586e-09
3.33728e-10
4.48577e-09
4.23196e-10
4.36444e-09
4.73223e-10
4.21743e-09
5.56804e-10
4.05314e-09
5.72952e-10
3.8684e-09
6.22747e-10
3.67231e-09
6.15932e-10
3.46301e-09
6.36404e-10
3.25098e-09
6.1207e-10
3.03777e-09
6.02204e-10
2.84725e-09
5.33495e-10
2.67671e-09
4.67172e-10
2.581e-09
1.15543e-10
2.53475e-09
-2.3997e-11
2.52926e-09
-1.16936e-10
2.55662e-09
-1.84297e-10
2.61705e-09
-2.7551e-10
2.70124e-09
-3.43896e-10
2.80592e-09
-4.30285e-10
2.91296e-09
-4.00024e-10
3.01622e-09
-3.40385e-10
3.11644e-09
-3.04078e-10
3.21439e-09
-2.83728e-10
3.31053e-09
-2.73142e-10
3.40476e-09
-2.66708e-10
3.49633e-09
-2.6007e-10
3.58395e-09
-2.50266e-10
3.66602e-09
-2.35651e-10
3.74087e-09
-2.1574e-10
3.80703e-09
-1.91008e-10
3.86336e-09
-1.62637e-10
3.90917e-09
-1.3224e-10
3.94436e-09
-1.01505e-10
3.96934e-09
-7.20501e-11
3.98498e-09
-4.52776e-11
3.9925e-09
-2.22602e-11
3.99344e-09
-3.70471e-12
3.98936e-09
1.00221e-11
3.98197e-09
1.89421e-11
3.97285e-09
2.33496e-11
3.9634e-09
2.37538e-11
3.95481e-09
2.08327e-11
3.94799e-09
1.53675e-11
3.94359e-09
8.17358e-12
3.94189e-09
9.69674e-14
3.94299e-09
-8.10579e-12
3.94669e-09
-1.57365e-11
3.95262e-09
-2.22237e-11
3.96028e-09
-2.71353e-11
3.96912e-09
-3.01775e-11
3.97865e-09
-3.12867e-11
-2.92789e-11
4.14026e-09
7.73591e-11
4.24638e-09
2.23404e-10
4.37249e-09
3.26942e-10
4.49116e-09
3.84604e-10
4.58636e-09
4.07245e-10
4.65296e-09
4.03797e-10
4.69202e-09
3.80563e-10
4.70621e-09
3.46552e-10
4.7015e-09
3.08781e-10
4.68509e-09
2.71266e-10
4.66102e-09
2.37239e-10
4.63265e-09
2.08504e-10
4.6026e-09
1.85746e-10
4.57259e-09
1.68019e-10
4.54318e-09
1.54774e-10
4.51442e-09
1.45308e-10
4.48619e-09
1.38847e-10
4.45813e-09
1.35098e-10
4.42998e-09
1.33601e-10
4.40137e-09
1.34305e-10
4.3719e-09
1.37233e-10
4.34115e-09
1.42496e-10
4.30863e-09
1.50271e-10
4.27381e-09
1.60793e-10
4.23609e-09
1.74351e-10
4.19483e-09
1.91302e-10
4.14929e-09
2.12083e-10
4.09868e-09
2.37243e-10
4.04218e-09
2.67478e-10
3.97891e-09
3.03688e-10
3.90807e-09
3.47049e-10
3.82902e-09
3.99075e-10
3.74161e-09
4.61981e-10
3.64495e-09
5.59944e-10
3.55129e-09
5.12156e-10
3.4818e-09
2.84167e-10
3.44918e-09
7.60055e-11
3.45969e-09
-9.62224e-11
3.51333e-09
-2.64275e-10
3.6044e-09
-4.35504e-10
3.7257e-09
-6.33065e-10
3.8639e-09
-7.10527e-10
4.01327e-09
-7.15805e-10
4.1626e-09
-6.96784e-10
4.3055e-09
-6.5383e-10
4.4403e-09
-6.16912e-10
4.56665e-09
-5.87947e-10
4.68533e-09
-5.32642e-10
4.79271e-09
-5.04578e-10
4.89121e-09
-4.56781e-10
4.98067e-09
-4.04094e-10
5.05964e-09
-3.57581e-10
5.1289e-09
-2.81639e-10
5.18662e-09
-2.24153e-10
5.23325e-09
-1.30351e-10
5.26706e-09
-4.88882e-11
5.28748e-09
4.87996e-11
5.29318e-09
1.60961e-10
5.28326e-09
2.40847e-10
5.25616e-09
3.775e-10
5.21121e-09
4.45223e-10
5.14693e-09
5.35715e-10
5.06421e-09
5.98946e-10
4.96368e-09
6.34897e-10
4.84748e-09
6.73385e-10
4.71789e-09
6.65578e-10
4.57798e-09
6.71803e-10
4.43118e-09
6.3897e-10
4.28083e-09
6.15074e-10
4.12956e-09
5.76286e-10
3.9807e-09
5.31662e-10
3.83479e-09
4.99916e-10
3.69445e-09
4.53354e-10
3.55987e-09
4.18201e-10
3.43107e-09
3.87367e-10
3.30853e-09
3.54648e-10
3.19159e-09
3.29739e-10
3.0799e-09
3.09861e-10
2.97293e-09
2.90897e-10
2.87034e-09
2.75037e-10
2.77138e-09
2.62928e-10
2.67591e-09
2.50879e-10
2.58375e-09
2.39739e-10
2.49496e-09
2.28372e-10
2.40999e-09
2.14699e-10
2.32918e-09
2.01738e-10
2.25294e-09
1.883e-10
2.18235e-09
1.69916e-10
2.11736e-09
1.5504e-10
2.05852e-09
1.40301e-10
2.00612e-09
1.21997e-10
1.96011e-09
1.08046e-10
1.91996e-09
9.60428e-11
1.88643e-09
7.89856e-11
1.85813e-09
7.11326e-11
1.83647e-09
5.28994e-11
1.82003e-09
4.48748e-11
1.81055e-09
2.54501e-11
1.8068e-09
1.5389e-11
1.81123e-09
-9.55608e-12
1.82259e-09
-2.43323e-11
1.84302e-09
-5.15298e-11
1.87205e-09
-7.50279e-11
1.91046e-09
-1.0122e-10
1.95901e-09
-1.34432e-10
2.01687e-09
-1.603e-10
2.08483e-09
-1.95869e-10
2.16183e-09
-2.24152e-10
2.24738e-09
-2.55266e-10
2.34089e-09
-2.84211e-10
2.44101e-09
-3.11064e-10
2.54695e-09
-3.35274e-10
2.65735e-09
-3.58593e-10
2.77069e-09
-3.73137e-10
2.88631e-09
-3.9359e-10
3.00227e-09
-4.00666e-10
3.11764e-09
-4.07662e-10
3.23147e-09
-4.12504e-10
3.34249e-09
-4.0876e-10
3.45006e-09
-4.04052e-10
3.55376e-09
-3.97871e-10
3.65278e-09
-3.85011e-10
3.74716e-09
-3.71341e-10
3.83684e-09
-3.58474e-10
3.9219e-09
-3.42447e-10
4.00275e-09
-3.27543e-10
4.0798e-09
-3.13438e-10
4.15367e-09
-3.00366e-10
4.22505e-09
-2.91309e-10
4.29445e-09
-2.8608e-10
4.3625e-09
-2.77582e-10
4.42838e-09
-2.73683e-10
4.49638e-09
-2.85072e-10
4.56262e-09
-2.79885e-10
4.62891e-09
-2.87897e-10
4.69385e-09
-2.9842e-10
4.75884e-09
-2.88366e-10
4.82128e-09
-2.98259e-10
4.88157e-09
-2.87461e-10
4.9371e-09
-2.7466e-10
4.98796e-09
-2.52838e-10
5.03118e-09
-2.12857e-10
5.06679e-09
-1.63971e-10
5.09147e-09
-1.01962e-10
5.10594e-09
-1.2375e-11
5.10567e-09
5.92563e-11
5.09186e-09
1.87117e-10
5.06045e-09
2.75843e-10
5.01157e-09
3.82609e-10
4.94154e-09
4.93227e-10
4.85218e-09
5.62588e-10
4.73961e-09
6.69378e-10
4.6071e-09
7.05464e-10
4.45195e-09
7.77898e-10
4.27902e-09
7.8886e-10
4.087e-09
8.28419e-10
3.88345e-09
8.15609e-10
3.67225e-09
8.13399e-10
3.48067e-09
7.25063e-10
3.30397e-09
6.43858e-10
3.18311e-09
2.36403e-10
3.10638e-09
5.27403e-11
3.07142e-09
-8.19738e-11
3.07448e-09
-1.87361e-10
3.11618e-09
-3.17203e-10
3.18568e-09
-4.13399e-10
3.27749e-09
-5.22096e-10
3.37594e-09
-4.98465e-10
3.4751e-09
-4.39551e-10
3.57427e-09
-4.0325e-10
3.67274e-09
-3.82201e-10
3.76979e-09
-3.70194e-10
3.86452e-09
-3.61439e-10
3.95578e-09
-3.51324e-10
4.04218e-09
-3.36671e-10
4.12225e-09
-3.15724e-10
4.19455e-09
-2.88036e-10
4.25782e-09
-2.5428e-10
4.31117e-09
-2.15981e-10
4.35411e-09
-1.75187e-10
4.38669e-09
-1.34084e-10
4.40938e-09
-9.47388e-11
4.42306e-09
-5.89496e-11
4.42893e-09
-2.81347e-11
4.42848e-09
-3.25222e-12
4.42328e-09
1.52173e-11
4.41496e-09
2.72617e-11
4.40506e-09
3.32532e-11
4.39495e-09
3.38621e-11
4.38579e-09
2.99845e-11
4.3785e-09
2.26614e-11
4.37367e-09
1.29982e-11
4.37166e-09
2.10787e-12
4.37252e-09
-8.96762e-12
4.37608e-09
-1.93009e-11
4.38199e-09
-2.81343e-11
4.38977e-09
-3.49148e-11
4.39888e-09
-3.92884e-11
4.40885e-09
-4.125e-11
-3.95501e-11
4.12522e-09
5.2139e-11
4.19508e-09
1.53545e-10
4.29009e-09
2.31928e-10
4.39225e-09
2.82447e-10
4.48975e-09
3.09741e-10
4.57486e-09
3.18687e-10
4.6426e-09
3.12822e-10
4.69249e-09
2.96666e-10
4.72657e-09
2.74701e-10
4.7475e-09
2.5033e-10
4.75735e-09
2.27392e-10
4.75873e-09
2.07127e-10
4.75502e-09
1.89449e-10
4.74772e-09
1.75321e-10
4.73776e-09
1.64736e-10
4.72585e-09
1.57213e-10
4.71241e-09
1.5229e-10
4.69757e-09
1.49938e-10
4.68132e-09
1.4985e-10
4.66356e-09
1.52058e-10
4.64414e-09
1.5666e-10
4.6228e-09
1.6383e-10
4.59926e-09
1.73808e-10
4.57317e-09
1.86887e-10
4.5441e-09
2.03417e-10
4.51159e-09
2.2381e-10
4.47511e-09
2.4856e-10
4.4341e-09
2.78257e-10
4.38795e-09
3.13621e-10
4.33611e-09
3.55529e-10
4.27809e-09
4.05074e-10
4.21361e-09
4.63554e-10
4.14284e-09
5.32745e-10
4.0658e-09
6.36987e-10
3.98987e-09
5.88083e-10
3.92894e-09
3.45104e-10
3.89637e-09
1.08584e-10
3.9009e-09
-1.00748e-10
3.94304e-09
-3.06429e-10
4.01664e-09
-5.09122e-10
4.11421e-09
-7.30669e-10
4.22684e-09
-8.23192e-10
4.35149e-09
-8.40478e-10
4.47634e-09
-8.21637e-10
4.59508e-09
-7.72558e-10
4.70609e-09
-7.27888e-10
4.80914e-09
-6.90967e-10
4.90563e-09
-6.29118e-10
4.99191e-09
-5.90849e-10
5.07068e-09
-5.35541e-10
5.14222e-09
-4.75642e-10
5.20541e-09
-4.20772e-10
5.26219e-09
-3.38432e-10
5.31069e-09
-2.72653e-10
5.35281e-09
-1.7248e-10
5.38676e-09
-8.28345e-11
5.41359e-09
2.19669e-11
5.43196e-09
1.42584e-10
5.43881e-09
2.33991e-10
5.4365e-09
3.79807e-10
5.42256e-09
4.59163e-10
5.39479e-09
5.63484e-10
5.35279e-09
6.40947e-10
5.29507e-09
6.92632e-10
5.22277e-09
7.45685e-10
5.13496e-09
7.53389e-10
5.03452e-09
7.72242e-10
4.92213e-09
7.51352e-10
4.80113e-09
7.36053e-10
4.67311e-09
7.04289e-10
4.54133e-09
6.63437e-10
4.40701e-09
6.34221e-10
4.2727e-09
5.87646e-10
4.13984e-09
5.51051e-10
4.00903e-09
5.18175e-10
3.88132e-09
4.82359e-10
3.75691e-09
4.5416e-10
3.63624e-09
4.3054e-10
3.51918e-09
4.07972e-10
3.40593e-09
3.88307e-10
3.29608e-09
3.72798e-10
3.18972e-09
3.57257e-10
3.0868e-09
3.42675e-10
2.98742e-09
3.27755e-10
2.89208e-09
3.10042e-10
2.80115e-09
2.92666e-10
2.71511e-09
2.74326e-10
2.63527e-09
2.49749e-10
2.5617e-09
2.28602e-10
2.49533e-09
2.06673e-10
2.43665e-09
1.80669e-10
2.38596e-09
1.58737e-10
2.34273e-09
1.39263e-10
2.30807e-09
1.13649e-10
2.28027e-09
9.89299e-11
2.26099e-09
7.21763e-11
2.24829e-09
5.75796e-11
2.24405e-09
2.96871e-11
2.24642e-09
1.30133e-11
2.25821e-09
-2.13454e-11
2.27726e-09
-4.33837e-11
2.30605e-09
-8.03192e-11
2.34356e-09
-1.1254e-10
2.39057e-09
-1.48225e-10
2.44755e-09
-1.91416e-10
2.51349e-09
-2.26237e-10
2.58891e-09
-2.71283e-10
2.67259e-09
-3.07833e-10
2.76367e-09
-3.46345e-10
2.86153e-09
-3.82067e-10
2.96441e-09
-4.13941e-10
3.07152e-09
-4.42387e-10
3.18122e-09
-4.68292e-10
3.29208e-09
-4.83996e-10
3.40322e-09
-5.04736e-10
3.51291e-09
-5.1035e-10
3.62019e-09
-5.14942e-10
3.72428e-09
-5.16601e-10
3.82422e-09
-5.08703e-10
3.91952e-09
-4.99368e-10
4.01003e-09
-4.88385e-10
4.09526e-09
-4.70256e-10
4.17552e-09
-4.51615e-10
4.25093e-09
-4.33898e-10
4.3219e-09
-4.13427e-10
4.389e-09
-3.94657e-10
4.45278e-09
-3.77232e-10
4.51395e-09
-3.61555e-10
4.5731e-09
-3.50488e-10
4.63059e-09
-3.43596e-10
4.687e-09
-3.34023e-10
4.74365e-09
-3.30372e-10
4.79946e-09
-3.40906e-10
4.85354e-09
-3.33992e-10
4.90843e-09
-3.42794e-10
4.96129e-09
-3.51266e-10
5.01399e-09
-3.41029e-10
5.06347e-09
-3.47677e-10
5.11101e-09
-3.3493e-10
5.15409e-09
-3.17674e-10
5.19344e-09
-2.92138e-10
5.22688e-09
-2.46271e-10
5.25521e-09
-1.9231e-10
5.27582e-09
-1.22599e-10
5.29055e-09
-2.71385e-11
5.29502e-09
5.47521e-11
5.29268e-09
1.89427e-10
5.27772e-09
2.90785e-10
5.25121e-09
4.09115e-10
5.20966e-09
5.34782e-10
5.15289e-09
6.19367e-10
5.07747e-09
7.44801e-10
4.98311e-09
7.99826e-10
4.86721e-09
8.93797e-10
4.73098e-09
9.25095e-10
4.57298e-09
9.86418e-10
4.39516e-09
9.9342e-10
4.20806e-09
1.0005e-09
4.03478e-09
8.9833e-10
3.87074e-09
8.07905e-10
3.74449e-09
3.6265e-10
3.65501e-09
1.42226e-10
3.60454e-09
-3.15035e-11
3.59314e-09
-1.75953e-10
3.62272e-09
-3.46786e-10
3.68188e-09
-4.72552e-10
3.76362e-09
-6.03842e-10
3.85401e-09
-5.88854e-10
3.94722e-09
-5.32756e-10
4.04152e-09
-4.97555e-10
4.1353e-09
-4.75984e-10
4.22715e-09
-4.62038e-10
4.31573e-09
-4.50024e-10
4.39977e-09
-4.35366e-10
4.47801e-09
-4.14911e-10
4.54924e-09
-3.86958e-10
4.61238e-09
-3.51176e-10
4.66655e-09
-3.08441e-10
4.71118e-09
-2.60615e-10
4.74615e-09
-2.10161e-10
4.77173e-09
-1.59664e-10
4.78852e-09
-1.11522e-10
4.79741e-09
-6.78411e-11
4.79959e-09
-3.03132e-11
4.79643e-09
-9.07738e-14
4.78938e-09
2.22606e-11
4.77991e-09
3.67298e-11
4.7694e-09
4.37703e-11
4.75905e-09
4.42078e-11
4.74989e-09
3.91446e-11
4.74269e-09
2.98582e-11
4.73798e-09
1.7709e-11
4.73603e-09
4.05691e-12
4.73688e-09
-9.81802e-12
4.74036e-09
-2.2788e-11
4.74616e-09
-3.3936e-11
4.75385e-09
-4.26043e-11
4.76295e-09
-4.83814e-11
4.77303e-09
-5.13299e-11
-5.00489e-11
4.11722e-09
3.49167e-11
4.16711e-09