/*--------------------------------*- C++ -*----------------------------------*\
| =========                 |                                                 |
| \\      /  F ield         | OpenFOAM: The Open Source CFD Toolbox           |
|  \\    /   O peration     | Version:  2506                                  |
|   \\  /    A nd           | Website:  www.openfoam.com                      |
|    \\/     M anipulation  |                                                 |
\*---------------------------------------------------------------------------*/
FoamFile
{
    version     2.0;
    format      ascii;
    arch        "LSB;label=32;scalar=64";
    class       volVectorField;
    location    "4.95";
    object      U;
}
// * * * * * * * * * * * * * * * * * * * * * * * * * * * * * * * * * * * * * //

dimensions      [0 1 -1 0 0 0 0];

internalField   nonuniform List<vector> 
4000
(
(0.00816188 0.000799226 0)
(0.00705275 0.000969047 -4.49648e-22)
(0.00555841 0.0005852 4.66478e-22)
(0.00426857 0.000296924 8.9234e-22)
(0.00346977 0.000157862 -1.80412e-21)
(0.00297466 8.77596e-05 9.06143e-22)
(0.00263922 5.08349e-05 0)
(0.00240358 3.16084e-05 0)
(0.00223412 2.13879e-05 0)
(0.00210775 1.57111e-05 1.78531e-21)
(0.00200989 1.23458e-05 -1.78932e-21)
(0.00193166 1.02575e-05 3.5531e-21)
(0.0018673 8.94037e-06 -3.55814e-21)
(0.0018129 8.09415e-06 0)
(0.00176569 7.5563e-06 0)
(0.00172366 7.23881e-06 0)
(0.00168528 7.07926e-06 3.50351e-21)
(0.0016494 7.03506e-06 -3.50601e-21)
(0.00161506 7.08243e-06 0)
(0.0015815 7.20426e-06 0)
(0.00154807 7.38803e-06 0)
(0.0015142 7.62635e-06 0)
(0.00147934 7.91475e-06 0)
(0.00144302 8.25017e-06 6.89379e-21)
(0.00140474 8.63135e-06 -1.37819e-20)
(0.00136401 9.05944e-06 6.88835e-21)
(0.00132034 9.53921e-06 0)
(0.00127316 1.00824e-05 0)
(0.00122187 1.07144e-05 0)
(0.00116567 1.14987e-05 0)
(0.00110341 1.26188e-05 -6.86809e-21)
(0.00103368 1.45003e-05 6.87689e-21)
(0.000955664 1.68845e-05 0)
(0.000842636 2.46704e-05 6.04409e-21)
(0.000714878 5.18996e-05 6.95436e-21)
(0.000652485 0.000104377 -3.48692e-20)
(0.000665538 0.000176563 -2.81367e-20)
(0.000713918 0.00026122 7.08592e-21)
(0.000785723 0.000360905 -2.84886e-20)
(0.000886127 0.000483098 -6.42344e-20)
(0.00105566 0.000637378 7.16063e-21)
(0.00130501 0.000812928 5.6546e-20)
(0.00157215 0.000974961 -5.5632e-20)
(0.00182495 0.00111255 0)
(0.00206713 0.00122844 0)
(0.00229608 0.00132303 -3.17537e-21)
(0.00252325 0.00139828 -4.64009e-20)
(0.0027385 0.00144652 -4.51921e-20)
(0.00293599 0.00146824 -2.62301e-20)
(0.00312647 0.00146303 -2.20499e-20)
(0.00329355 0.00142578 2.08232e-20)
(0.00344314 0.00135916 0)
(0.00356058 0.00125694 -2.28353e-21)
(0.00364553 0.00112493 3.77708e-20)
(0.00368867 0.000959055 0)
(0.00367734 0.000771101 -7.91376e-21)
(0.00362114 0.000568586 -1.84229e-21)
(0.0034971 0.000359172 -6.41714e-24)
(0.00333857 0.000158631 -8.43452e-23)
(0.00311893 -3.34492e-05 -8.76603e-22)
(0.0028611 -0.000195998 1.56958e-21)
(0.00259208 -0.000328151 0)
(0.00230668 -0.000426736 0)
(0.00203316 -0.000492624 3.07008e-21)
(0.00176731 -0.000529236 2.15337e-20)
(0.00152579 -0.000541541 3.10581e-21)
(0.00130677 -0.000534414 -3.11876e-21)
(0.00111236 -0.000513601 3.17836e-21)
(0.0009445 -0.000483293 9.6048e-21)
(0.000796718 -0.000446985 -2.26381e-20)
(0.000672192 -0.00040816 -3.25572e-21)
(0.000563203 -0.00036771 -5.62637e-23)
(0.000469171 -0.000327596 0)
(0.000390025 -0.000288833 0)
(0.000320318 -0.000251587 0)
(0.000260409 -0.000216515 -1.76168e-21)
(0.000209125 -0.000183885 -2.65243e-20)
(0.000163896 -0.000153509 0)
(0.00012433 -0.000125491 -8.09885e-23)
(8.99852e-05 -9.98695e-05 1.82295e-21)
(5.95648e-05 -7.64776e-05 -2.9184e-20)
(3.25004e-05 -5.52173e-05 2.6546e-20)
(8.4125e-06 -3.60051e-05 -8.34503e-24)
(-1.32553e-05 -1.87624e-05 3.00648e-20)
(-3.27446e-05 -3.46197e-06 2.95633e-22)
(-5.02416e-05 9.95322e-06 -2.94789e-20)
(-6.6043e-05 2.14852e-05 -2.99621e-20)
(-8.01639e-05 3.10758e-05 3.03588e-20)
(-9.24142e-05 3.87783e-05 -4.62491e-22)
(-0.000102977 4.455e-05 -2.96528e-20)
(-0.000111955 4.84192e-05 0)
(-0.000118973 5.05596e-05 -3.04237e-20)
(-0.000124189 5.093e-05 -2.84873e-20)
(-0.000127743 4.96424e-05 2.9259e-20)
(-0.00012922 4.68221e-05 -1.63927e-20)
(-0.000129481 4.26044e-05 1.81003e-21)
(-0.000127657 3.73986e-05 1.44388e-20)
(-0.000124496 3.11644e-05 1.80179e-21)
(-0.000119422 2.45628e-05 1.25374e-20)
(-0.000112974 1.77462e-05 8.92854e-21)
(-0.000104427 1.14783e-05 -3.56645e-21)
(-9.39349e-05 5.73145e-06 8.90641e-21)
(-8.10985e-05 1.14031e-06 -8.90888e-22)
(-6.5811e-05 -1.9523e-06 -8.93589e-22)
(-4.76224e-05 -3.27735e-06 -3.59878e-21)
(-2.63846e-05 -2.04561e-06 0)
(-1.52854e-06 1.87303e-06 0)
(2.73249e-05 9.27953e-06 -2.9016e-20)
(6.03875e-05 2.0467e-05 -9.29656e-22)
(9.82463e-05 3.60516e-05 1.54859e-20)
(0.00014123 5.64143e-05 1.51588e-20)
(0.000189425 8.20333e-05 4.785e-22)
(0.000243721 0.000113153 -1.59197e-20)
(0.000303112 0.000150076 -1.55949e-23)
(0.000368743 0.000192893 0)
(0.000440973 0.000241761 3.14748e-20)
(0.000517664 0.000296008 -9.85304e-22)
(0.000600583 0.000355862 -2.95652e-20)
(0.000688736 0.00042054 -9.90916e-22)
(0.000780438 0.000489191 -3.15401e-20)
(0.000876941 0.000561596 -1.83729e-22)
(0.000977461 0.000636571 3.11229e-20)
(0.0010798 0.000712758 1.90714e-21)
(0.00118471 0.000789665 -3.41382e-20)
(0.00129225 0.000866188 1.88278e-21)
(0.00140091 0.0009409 2.91794e-20)
(0.001511 0.00101293 3.49817e-21)
(0.00162204 0.00108106 -3.50802e-21)
(0.00173354 0.0011444 2.66655e-20)
(0.0018483 0.00120263 -2.2032e-20)
(0.00196443 0.00125357 -3.13618e-21)
(0.00207887 0.00129614 -4.3153e-20)
(0.00219937 0.0013314 -2.82565e-21)
(0.00232263 0.00135601 -2.04595e-20)
(0.00244232 0.00136846 5.1531e-22)
(0.00257167 0.00137023 0)
(0.00269946 0.00135528 0)
(0.00282199 0.00132479 -2.3258e-22)
(0.0029468 0.0012759 0)
(0.00306049 0.00120616 -1.17441e-21)
(0.00316358 0.00111413 -2.90177e-21)
(0.00324638 0.000998176 -7.28641e-22)
(0.00329777 0.000859269 -1.12925e-21)
(0.00331851 0.000700238 -5.219e-22)
(0.00328419 0.000522117 -6.05125e-22)
(0.00320902 0.000341194 1.50534e-22)
(0.00307404 0.000156308 0)
(0.0028811 -9.29226e-06 0)
(0.00265841 -0.000156441 0)
(0.00239296 -0.000273852 3.04988e-22)
(0.00211954 -0.000359292 -3.0606e-22)
(0.00183152 -0.000412277 -1.23784e-21)
(0.00155304 -0.000433624 -1.10939e-21)
(0.00128942 -0.000428922 0)
(0.00104816 -0.000403868 6.99288e-22)
(0.000831855 -0.000363593 0)
(0.000640872 -0.000313927 1.57445e-23)
(0.000477322 -0.000259084 1.30059e-22)
(0.000334809 -0.000201691 -1.39359e-22)
(0.000212999 -0.000138658 2.89624e-21)
(0.00015922 -0.00010041 -9.95741e-22)
(0.000170949 -8.13407e-05 -1.20919e-21)
(0.000182277 -6.95809e-05 0)
(0.000205044 -5.91947e-05 0)
(0.000247999 -4.94147e-05 0)
(0.000316646 -3.7206e-05 0)
(0.000426192 -2.6714e-05 0)
(0.000567389 -2.02775e-05 5.28013e-22)
(0.000700224 -1.78887e-05 7.99681e-24)
(0.000817586 -1.67659e-05 1.67671e-24)
(0.000924218 -1.55941e-05 -5.36267e-22)
(0.00102041 -1.42563e-05 0)
(0.0011059 -1.28269e-05 5.07273e-22)
(0.00118094 -1.13712e-05 -5.05927e-22)
(0.00124598 -9.9317e-06 1.48887e-23)
(0.00130163 -8.54252e-06 0)
(0.00134859 -7.23211e-06 0)
(0.00138761 -6.02064e-06 -4.033e-22)
(0.00141946 -4.91974e-06 4.02534e-22)
(0.0014449 -3.93394e-06 0)
(0.00146469 -3.06254e-06 0)
(0.00147952 -2.30148e-06 -1.45247e-22)
(0.00149004 -1.64474e-06 1.09122e-23)
(0.00149684 -1.08106e-06 1.43888e-22)
(0.00150047 -5.93219e-07 0)
(0.00150138 -1.87856e-07 0)
(0.00150002 1.49664e-07 0)
(0.00149674 4.2235e-07 0)
(0.00149182 6.54103e-07 5.50703e-24)
(0.00148557 8.67577e-07 0)
(0.00147824 1.05523e-06 0)
(0.00147002 1.22076e-06 0)
(0.00146109 1.37102e-06 2.44503e-23)
(0.00145161 1.51321e-06 -2.44193e-23)
(0.00144172 1.65846e-06 0)
(0.00143151 1.82997e-06 1.84431e-24)
(0.00142102 2.0586e-06 4.56478e-24)
(0.00141002 2.37466e-06 -3.15331e-24)
(0.00139665 3.33424e-06 -1.40396e-24)
(0.00137984 7.54186e-06 0)
(0.0101626 0.00148333 0)
(0.0105613 0.00234276 0)
(0.0101511 0.00199844 0)
(0.00927849 0.00150308 8.69667e-22)
(0.00836692 0.00106533 -1.76676e-21)
(0.00760934 0.000737434 8.94931e-22)
(0.00699756 0.000514812 0)
(0.00650838 0.00036904 1.79337e-21)
(0.00612097 0.000273108 -1.81126e-21)
(0.00581316 0.000208825 1.8049e-21)
(0.00556522 0.000164571 -1.8161e-21)
(0.00536218 0.000133426 -3.6161e-21)
(0.00519286 0.000111187 3.63091e-21)
(0.00504888 9.51028e-05 3.61279e-21)
(0.00492397 8.3434e-05 -1.4245e-23)
(0.0048133 7.50678e-05 -7.22269e-21)
(0.0047131 6.92212e-05 3.61258e-21)
(0.00462037 6.5341e-05 0)
(0.00453269 6.30594e-05 0)
(0.00444804 6.2116e-05 0)
(0.00436467 6.2328e-05 0)
(0.00428107 6.35773e-05 0)
(0.00419582 6.57924e-05 0)
(0.0041076 6.89352e-05 0)
(0.00401512 7.29972e-05 0)
(0.00391709 7.79997e-05 0)
(0.00381215 8.39993e-05 0)
(0.00369888 9.11031e-05 0)
(0.00357568 9.95073e-05 0)
(0.00344066 0.000109585 0)
(0.0032915 0.000122101 -7.18023e-21)
(0.00312522 0.00013868 3.65973e-25)
(0.00294135 0.000162331 1.44546e-20)
(0.00270659 0.000199017 -6.3482e-21)
(0.00245461 0.00026529 -7.3128e-21)
(0.00231447 0.000381018 2.21415e-20)
(0.0023212 0.000553586 -2.98186e-20)
(0.00242326 0.000774617 -7.51985e-21)
(0.00259962 0.00104067 7.57957e-20)
(0.00285863 0.00135352 2.30614e-20)
(0.00324982 0.00171456 0)
(0.00376326 0.00209936 7.40991e-21)
(0.00430894 0.00246139 4.36345e-20)
(0.00484476 0.00278023 7.23603e-21)
(0.00536874 0.0030517 5.52829e-20)
(0.0058771 0.00327383 -5.35459e-20)
(0.00637994 0.00344593 7.89882e-22)
(0.0068623 0.0035571 0)
(0.00731858 0.0036063 -2.41395e-20)
(0.00775521 0.00358963 0)
(0.00815221 0.00350179 -2.40595e-22)
(0.00851148 0.00334513 0)
(0.00880937 0.00311068 -1.95495e-20)
(0.00904291 0.00280977 -1.8593e-20)
(0.00919297 0.00243911 0)
(0.0092459 0.00201744 -5.70545e-23)
(0.0092015 0.00155852 7.86919e-21)
(0.00902952 0.00107677 1.78721e-21)
(0.00876662 0.000601679 3.55665e-21)
(0.00837613 0.000139073 -8.98568e-22)
(0.00789333 -0.000277508 0)
(0.00734758 -0.000637234 6.80432e-21)
(0.0067482 -0.000929387 -3.41748e-21)
(0.00613747 -0.0011505 -6.68348e-21)
(0.00551897 -0.00130267 -2.0148e-20)
(0.00492842 -0.00139311 -3.37987e-21)
(0.00436839 -0.00142906 1.71554e-20)
(0.00385307 -0.00142272 -3.46417e-21)
(0.00338674 -0.00138283 0)
(0.00296591 -0.00131884 3.63126e-21)
(0.00259549 -0.00123949 -3.63145e-21)
(0.00226509 -0.00114873 -9.08858e-23)
(0.00197282 -0.0010532 0)
(0.00171788 -0.000955827 -3.05537e-20)
(0.00149142 -0.000858619 -3.09294e-20)
(0.0012919 -0.000764256 1.97257e-21)
(0.00111701 -0.000673728 -1.96446e-21)
(0.000961481 -0.000587482 2.00814e-21)
(0.000823293 -0.000506369 -3.22345e-20)
(0.000701137 -0.000430673 3.02892e-20)
(0.000592229 -0.000360309 -3.24664e-20)
(0.000494746 -0.000295363 -3.37696e-20)
(0.000407522 -0.000235772 2.04667e-21)
(0.00032909 -0.000181484 -3.3771e-20)
(0.000258608 -0.000132596 3.2648e-20)
(0.000195338 -8.9025e-05 -3.25147e-20)
(0.000138217 -5.08341e-05 3.27385e-20)
(8.72073e-05 -1.83699e-05 -3.27822e-20)
(4.24946e-05 8.49863e-06 -1.02272e-21)
(3.19887e-06 2.98179e-05 1.01253e-21)
(-3.04079e-05 4.54051e-05 0)
(-5.7798e-05 5.56769e-05 0)
(-7.98219e-05 6.09283e-05 1.59292e-20)
(-9.62135e-05 6.12968e-05 -1.78371e-20)
(-0.000106613 5.75788e-05 1.57402e-20)
(-0.000111896 4.99574e-05 3.90205e-21)
(-0.000110971 3.97007e-05 -2.16017e-23)
(-0.000104681 2.69112e-05 8.27159e-24)
(-9.20019e-05 1.30149e-05 -3.45077e-20)
(-7.34308e-05 -1.65635e-06 -5.73322e-21)
(-4.7923e-05 -1.52594e-05 7.61335e-21)
(-1.5884e-05 -2.73446e-05 -7.60979e-21)
(2.40838e-05 -3.63411e-05 0)
(7.1656e-05 -4.10621e-05 -9.54648e-22)
(0.000128488 -4.05488e-05 9.54915e-22)
(0.000194637 -3.28126e-05 0)
(0.000271143 -1.71235e-05 0)
(0.000358892 8.50013e-06 1.5616e-20)
(0.000457946 4.50508e-05 -1.57575e-20)
(0.000569332 9.39621e-05 1.64006e-20)
(0.000693275 0.000156299 -3.21096e-20)
(0.000829754 0.000233052 5.66725e-25)
(0.000979672 0.000324845 -5.10377e-22)
(0.00114128 0.000432218 -1.64676e-20)
(0.00131602 0.000555021 0)
(0.00150344 0.000693331 0)
(0.00170057 0.000845921 0)
(0.00190922 0.0010121 3.4527e-20)
(0.00212736 0.00119023 3.21346e-20)
(0.00235281 0.00137825 0)
(0.00258675 0.00157437 -3.7276e-20)
(0.00282754 0.00177597 6.1381e-21)
(0.00307256 0.00198004 -4.03096e-21)
(0.0033228 0.00218424 2.00553e-21)
(0.00357796 0.00238564 -3.84256e-21)
(0.00383644 0.00258109 3.021e-20)
(0.00409867 0.00276787 -2.54914e-20)
(0.00436416 0.00294307 3.18169e-20)
(0.00463317 0.00310412 -1.49698e-22)
(0.00490896 0.00324896 2.36205e-20)
(0.00518863 0.00337367 0)
(0.00547015 0.0034759 2.44455e-20)
(0.00576264 0.00355477 -2.70479e-21)
(0.00605995 0.00360482 -1.77605e-20)
(0.0063567 0.00362333 1.98214e-20)
(0.00666654 0.00360957 -2.07963e-21)
(0.00697288 0.00355449 2.08746e-21)
(0.00727254 0.00345917 -2.03129e-21)
(0.0075671 0.00331685 1.63112e-21)
(0.00784015 0.00312551 -1.1611e-21)
(0.00808556 0.00288222 5.53099e-21)
(0.00828681 0.00258647 -3.96581e-21)
(0.00842525 0.00224097 3.25921e-21)
(0.00849409 0.00185384 0)
(0.00846064 0.00143007 3.33997e-22)
(0.00834026 0.000996023 3.15477e-24)
(0.00809765 0.000556585 1.775e-23)
(0.00774154 0.000145981 0)
(0.00729801 -0.000225621 2.05989e-22)
(0.00675931 -0.000539372 -5.09498e-22)
(0.00617404 -0.000785901 0)
(0.0055369 -0.000960432 1.106e-21)
(0.0048933 -0.00106333 2.51778e-22)
(0.00425291 -0.00110005 -2.53619e-22)
(0.00364284 -0.00108193 0)
(0.00306859 -0.00101756 -3.97785e-22)
(0.00254186 -0.000920878 1.5609e-22)
(0.00206809 -0.000801186 1.77903e-22)
(0.00164952 -0.000670386 0)
(0.00127832 -0.000526983 -1.53727e-21)
(0.0010633 -0.000435781 -1.3897e-21)
(0.00101482 -0.000376706 2.98102e-21)
(0.00101536 -0.000332673 -4.14693e-22)
(0.00106176 -0.000299802 4.09881e-22)
(0.00116989 -0.000275319 4.99013e-22)
(0.00134669 -0.000251636 5.48347e-22)
(0.00160996 -0.000233425 -4.58572e-22)
(0.00192867 -0.000215339 -3.46891e-23)
(0.00223423 -0.000196613 0)
(0.00251196 -0.000178908 3.51833e-23)
(0.00276665 -0.000161714 0)
(0.00299845 -0.000144402 -3.42356e-23)
(0.00320676 -0.000127181 -5.30553e-22)
(0.00339182 -0.000110453 5.59995e-22)
(0.00355445 -9.45076e-05 -4.67249e-23)
(0.00369576 -7.9536e-05 4.67073e-22)
(0.00381708 -6.56719e-05 -8.80234e-22)
(0.00391985 -5.29956e-05 8.6048e-22)
(0.00400562 -4.15361e-05 -4.42657e-22)
(0.00407594 -3.12799e-05 0)
(0.00413236 -2.21819e-05 1.95116e-22)
(0.00417633 -1.41775e-05 -1.82924e-22)
(0.00420926 -7.191e-06 -1.92887e-23)
(0.00423247 -1.13804e-06 -1.38334e-22)
(0.00424714 4.07202e-06 1.21516e-22)
(0.00425439 8.529e-06 1.16876e-22)
(0.00425521 1.23168e-05 -1.3057e-22)
(0.00425049 1.55022e-05 1.09394e-22)
(0.00424104 1.81644e-05 -1.89395e-22)
(0.0042276 2.04095e-05 1.15549e-22)
(0.00421084 2.22556e-05 -3.88171e-23)
(0.00419137 2.37325e-05 -8.03884e-24)
(0.00416975 2.48822e-05 0)
(0.0041465 2.57483e-05 1.55979e-23)
(0.00412209 2.63883e-05 -2.14764e-23)
(0.00409696 2.68993e-05 9.66246e-25)
(0.00407147 2.74601e-05 -6.77137e-24)
(0.00404576 2.8429e-05 0)
(0.00401848 3.07014e-05 0)
(0.00398854 3.68958e-05 -2.70884e-25)
(0.0101548 0.000930803 0)
(0.010718 0.00187942 -4.35438e-22)
(0.0111799 0.00208094 4.31661e-22)
(0.011118 0.00193209 8.35617e-22)
(0.010834 0.00165193 -8.43764e-22)
(0.010409 0.00133956 0)
(0.00994809 0.00105989 0)
(0.00950675 0.000832118 0)
(0.00910911 0.000656442 -1.69178e-21)
(0.00876237 0.000524212 3.40486e-21)
(0.00846396 0.00042493 1.69303e-21)
(0.00820788 0.000350614 -3.42586e-21)
(0.00798704 0.000295009 -3.41275e-21)
(0.00779479 0.000253239 3.42866e-21)
(0.00762539 0.000221952 0)
(0.00747391 0.000198809 -3.41254e-21)
(0.00733611 0.000182046 6.83345e-21)
(0.00720847 0.000170366 -3.41985e-21)
(0.00708798 0.000162882 0)
(0.00697205 0.000158933 0)
(0.00685836 0.000158052 0)
(0.00674485 0.000159928 0)
(0.00662959 0.00016437 0)
(0.00651071 0.000171273 -6.7887e-21)
(0.0063864 0.000180607 6.80391e-21)
(0.00625482 0.00019242 0)
(0.00611404 0.000206842 0)
(0.00596203 0.000224106 0)
(0.00579656 0.000244602 0)
(0.0056151 0.000268992 0)
(0.00541479 0.000298454 -6.85031e-21)
(0.00519207 0.000335173 6.8752e-21)
(0.00494788 0.00038313 0)
(0.00465162 0.000447096 4.32803e-22)
(0.00433853 0.000542966 0)
(0.00414704 0.000697878 -1.41786e-20)
(0.00413207 0.000927201 2.868e-20)
(0.00425442 0.00122596 0)
(0.00449319 0.00158646 -5.7747e-20)
(0.00485228 0.00200181 1.97452e-22)
(0.0053678 0.002462 -7.08126e-21)
(0.00600992 0.00293565 7.06163e-21)
(0.00669057 0.00338272 -5.50973e-20)
(0.00737046 0.00378353 0)
(0.00804245 0.00412912 -5.85127e-20)
(0.00870151 0.00441416 5.37322e-20)
(0.00935307 0.00463431 5.16938e-20)
(0.00998241 0.00477884 0)
(0.010585 0.00484478 2.21554e-20)
(0.0111624 0.00482603 0)
(0.0116966 0.00471916 -4.05658e-20)
(0.0121852 0.00452423 0)
(0.0126059 0.00423362 1.61037e-20)
(0.0129543 0.00385949 1.97826e-20)
(0.0132083 0.00340125 1.67198e-20)
(0.0133545 0.00287524 7.82321e-21)
(0.0133863 0.00229454 7.59159e-21)
(0.0132749 0.00167425 3.54193e-21)
(0.013046 0.0010458 -1.76413e-21)
(0.0126624 0.000419657 -2.51508e-21)
(0.0121541 -0.000169037 0)
(0.0115396 -0.000702465 -6.30748e-21)
(0.0108327 -0.00116379 6.25349e-21)
(0.0100752 -0.00154184 0)
(0.00927568 -0.00183339 2.53612e-20)
(0.0084786 -0.00204087 0)
(0.00769211 -0.0021689 3.25282e-21)
(0.0069423 -0.00222949 -3.27645e-21)
(0.00623862 -0.00223212 0)
(0.00558563 -0.00218914 3.43959e-21)
(0.00499278 -0.00211234 -3.45377e-21)
(0.00445216 -0.0020087 -3.89704e-20)
(0.00396424 -0.00188881 2.52578e-20)
(0.00352852 -0.00175799 7.67214e-23)
(0.00313621 -0.00162085 2.98301e-20)
(0.00278521 -0.00148245 1.90008e-21)
(0.00247263 -0.00134526 -3.24148e-20)
(0.00219199 -0.00121106 0)
(0.00194024 -0.00108193 -3.11559e-20)
(0.00171533 -0.00095895 -6.09827e-20)
(0.00151347 -0.000842575 6.04398e-20)
(0.00133192 -0.000733434 3.28171e-20)
(0.00116876 -0.000631811 -3.2978e-20)
(0.00102177 -0.00053791 3.31932e-20)
(0.000889598 -0.000452139 0)
(0.000770878 -0.000374526 3.22947e-20)
(0.000663691 -0.000305222 1.55409e-22)
(0.000568006 -0.000244964 6.51e-20)
(0.000483675 -0.000193617 3.01072e-20)
(0.000409036 -0.000151103 3.30405e-20)
(0.000344894 -0.000117817 0)
(0.000291731 -9.30336e-05 0)
(0.00024812 -7.60771e-05 -1.58625e-20)
(0.000215123 -6.67082e-05 0)
(0.000192629 -6.32714e-05 -1.96361e-21)
(0.000180201 -6.5519e-05 1.941e-21)
(0.0001786 -7.14432e-05 -1.54888e-20)
(0.000186865 -8.06186e-05 1.53568e-20)
(0.000205812 -9.10668e-05 1.33778e-20)
(0.000235521 -0.000102453 1.89527e-21)
(0.000277032 -0.000112312 -7.5724e-21)
(0.000329862 -0.000119804 3.77473e-21)
(0.000396093 -0.00012279 -2.82897e-21)
(0.000474908 -0.000119442 9.41325e-22)
(0.000568949 -0.000108296 0)
(0.000677895 -8.66025e-05 7.59222e-21)
(0.000803071 -5.30915e-05 0)
(0.000945414 -5.13943e-06 1.53619e-20)
(0.00110459 5.87884e-05 2.42612e-24)
(0.00128162 0.000140532 -1.50944e-20)
(0.00147633 0.000241521 1.56935e-20)
(0.00168824 0.000362932 -4.93088e-22)
(0.00191798 0.000505439 0)
(0.00216303 0.000669521 1.59161e-20)
(0.00242471 0.000854754 -1.59634e-20)
(0.00270169 0.00106075 0)
(0.00299082 0.00128598 9.97105e-22)
(0.0032934 0.00152883 -3.2807e-20)
(0.00360698 0.001787 -2.99422e-20)
(0.00392943 0.00205762 2.93891e-20)
(0.00426155 0.00233779 -3.10374e-20)
(0.00460154 0.00262385 -1.90975e-21)
(0.00494718 0.00291195 2.82673e-20)
(0.00529933 0.00319848 3.76506e-21)
(0.00565758 0.00347928 3.24036e-20)
(0.00602079 0.0037503 -6.38071e-20)
(0.00638935 0.00400758 3.13502e-20)
(0.00676308 0.00424712 -2.36731e-20)
(0.00714247 0.0044653 1.8775e-20)
(0.00753001 0.00465869 3.00903e-20)
(0.00792331 0.00482236 1.70009e-20)
(0.00832123 0.00495348 2.81397e-21)
(0.00873035 0.00504928 1.76419e-20)
(0.00914476 0.00510308 2.18244e-20)
(0.00956058 0.00511271 -2.07703e-21)
(0.00998612 0.00507524 2.08201e-21)
(0.0104058 0.00498125 5.33031e-21)
(0.0108167 0.00483194 1.45398e-21)
(0.0112149 0.00461993 -1.25502e-21)
(0.0115854 0.00434433 1.25872e-21)
(0.0119184 0.00400333 -3.82054e-21)
(0.0121963 0.00359783 6.43787e-22)
(0.0124 0.00313246 -1.80284e-22)
(0.0125193 0.00261707 -4.86617e-22)
(0.0125225 0.00206084 -1.00894e-21)
(0.0124194 0.00148654 0)
(0.0121734 0.000903401 -5.20245e-23)
(0.0117923 0.000344514 6.59883e-23)
(0.0112911 -0.000173776 -1.9204e-22)
(0.0106628 -0.000629868 6.93385e-22)
(0.0099518 -0.00100852 1.67223e-22)
(0.00915133 -0.00130023 -1.03095e-21)
(0.00831234 -0.00150126 -9.56108e-22)
(0.00744365 -0.00161275 3.62064e-22)
(0.00658468 -0.0016448 -6.47946e-22)
(0.00574416 -0.00160491 3.74899e-22)
(0.00494571 -0.00150939 -1.33848e-23)
(0.00419994 -0.00136986 -2.37285e-22)
(0.0035277 -0.00120663 8.22314e-23)
(0.00291472 -0.00101872 -7.30764e-22)
(0.00251907 -0.000888281 1.05199e-21)
(0.00236499 -0.00079254 -9.43838e-22)
(0.00231915 -0.000714718 -3.46524e-22)
(0.00235931 -0.000654467 -8.36903e-22)
(0.00250196 -0.000611193 0)
(0.00274727 -0.000574099 -1.00041e-21)
(0.00310669 -0.000545961 9.60229e-22)
(0.00352911 -0.000514565 4.7749e-23)
(0.00393495 -0.000476996 7.58177e-24)
(0.00430731 -0.00043779 -3.18062e-23)
(0.00465051 -0.000398145 -5.30028e-22)
(0.00496448 -0.000357933 3.27493e-23)
(0.00524836 -0.000317763 0)
(0.00550237 -0.00027849 -3.07895e-23)
(0.00572748 -0.00024077 2.95743e-23)
(0.00592498 -0.000205056 4.94012e-22)
(0.00609637 -0.000171665 -4.63381e-22)
(0.00624334 -0.000140803 -3.93481e-22)
(0.00636769 -0.000112567 4.15997e-22)
(0.00647125 -8.69639e-05 0)
(0.00655585 -6.39302e-05 -2.11335e-23)
(0.00662326 -4.33587e-05 0)
(0.0066752 -2.51148e-05 -1.22661e-22)
(0.00671329 -9.04205e-06 1.00978e-23)
(0.00673906 5.03277e-06 1.4601e-22)
(0.00675394 1.72869e-05 2.86718e-23)
(0.00675923 2.78922e-05 1.32393e-23)
(0.00675615 3.70087e-05 -1.2055e-23)
(0.00674583 4.4775e-05 0)
(0.0067293 5.13311e-05 9.79023e-24)
(0.00670751 5.67723e-05 3.27821e-23)
(0.00668137 6.11705e-05 -2.50785e-23)
(0.00665176 6.46033e-05 -2.46062e-23)
(0.0066195 6.71525e-05 3.01945e-23)
(0.00658535 6.8919e-05 0)
(0.00655005 7.00508e-05 4.64645e-24)
(0.0065143 7.07811e-05 6.56086e-24)
(0.00647872 7.15133e-05 1.4988e-24)
(0.00644303 7.29686e-05 -1.49667e-24)
(0.00640455 7.8037e-05 2.56899e-25)
(0.0100748 0.000516308 0)
(0.0104761 0.0012823 0)
(0.0110149 0.00167926 0)
(0.0113787 0.00179453 8.33048e-22)
(0.0115701 0.00173109 -8.31802e-22)
(0.0115412 0.00156969 0)
(0.0114223 0.001367 0)
(0.0112259 0.00116131 0)
(0.0109931 0.000976626 0)
(0.0107547 0.000819252 0)
(0.0105246 0.000688784 0)
(0.01031 0.000584078 -3.27022e-21)
(0.0101127 0.000501342 3.28737e-21)
(0.00993228 0.000436282 -3.27243e-21)
(0.00976744 0.000385772 6.55773e-21)
(0.00961589 0.000347284 -3.28376e-21)
(0.00947508 0.000318614 -3.26862e-21)
(0.00934261 0.000298052 3.27812e-21)
(0.00921616 0.000284401 0)
(0.00909348 0.000276698 0)
(0.0089725 0.000274238 6.51643e-21)
(0.00885119 0.000276562 -6.53095e-21)
(0.00872761 0.000283384 0)
(0.00859979 0.000294549 -6.50596e-21)
(0.00846577 0.000310027 6.52024e-21)
(0.00832349 0.000329914 0)
(0.00817082 0.000354429 0)
(0.00800547 0.000383946 6.5166e-21)
(0.00782494 0.000419043 -8.01297e-24)
(0.00762651 0.000460613 -6.5448e-21)
(0.00740722 0.00051007 -6.55523e-21)
(0.0071635 0.000569738 1.31528e-20)
(0.0068971 0.000643631 -6.59896e-21)
(0.00658124 0.000734285 6.20599e-21)
(0.0062485 0.000855676 -6.67543e-21)
(0.00603087 0.00103599 -6.78568e-21)
(0.00599286 0.00129262 6.87909e-21)
(0.0061117 0.00162421 2.06037e-20)
(0.00637079 0.00202219 3.45e-20)
(0.00676884 0.00247367 7.01386e-21)
(0.00732688 0.00296178 -6.78778e-21)
(0.0080043 0.00345483 -5.91986e-20)
(0.00872262 0.00392151 5.79127e-20)
(0.00944716 0.00434455 5.62515e-20)
(0.0101685 0.00471265 -1.22141e-20)
(0.0108812 0.00501768 8.91938e-21)
(0.0115872 0.0052528 -2.56512e-20)
(0.0122736 0.00540953 0)
(0.0129363 0.00548186 -2.37839e-20)
(0.0135748 0.00546145 2.5867e-21)
(0.014174 0.00534812 1.93829e-20)
(0.0147279 0.00514059 2.2608e-21)
(0.0152195 0.0048339 -2.22404e-20)
(0.0156433 0.00443718 -1.46488e-20)
(0.0159799 0.00395156 -1.60469e-20)
(0.0162165 0.00339081 -7.82036e-21)
(0.0163436 0.00276727 -1.58098e-21)
(0.0163363 0.00209421 1.79595e-21)
(0.0162091 0.00139971 1.66448e-21)
(0.015928 0.000694481 2.43788e-21)
(0.0155128 1.06499e-05 1.63105e-21)
(0.0149704 -0.000632581 0)
(0.0143103 -0.00121535 6.2379e-21)
(0.0135653 -0.00172111 0)
(0.0127432 -0.00214196 -2.12887e-20)
(0.0118876 -0.00247274 -1.23678e-20)
(0.011009 -0.00271384 -3.07646e-21)
(0.0101399 -0.00287184 0)
(0.00929463 -0.00295426 0)
(0.00848567 -0.0029721 -1.29868e-20)
(0.00772858 -0.00293742 0)
(0.00702036 -0.00285871 3.02585e-20)
(0.00636692 -0.00274845 -3.07843e-20)
(0.00576984 -0.00261428 2.9655e-20)
(0.0052229 -0.00246305 2.50655e-23)
(0.00472554 -0.00230208 2.48878e-23)
(0.0042754 -0.00213576 2.56321e-20)
(0.0038663 -0.00196755 3.70295e-21)
(0.00349522 -0.00180108 2.81729e-20)
(0.00315993 -0.00163871 3.03511e-20)
(0.00285633 -0.00148183 -1.07723e-22)
(0.00258129 -0.00133194 -2.98935e-20)
(0.00233248 -0.00119001 3.00918e-20)
(0.0021072 -0.00105676 0)
(0.00190385 -0.000933088 4.90722e-22)
(0.00172054 -0.000819337 3.08286e-20)
(0.00155461 -0.000715901 -6.25814e-20)
(0.00140606 -0.000623926 -9.45607e-20)
(0.00127432 -0.000543342 -3.24354e-20)
(0.00115692 -0.000474133 8.98636e-22)
(0.00105498 -0.000416925 0)
(0.000968885 -0.000370885 9.77745e-22)
(0.000896675 -0.000335049 -9.68732e-22)
(0.000840226 -0.000309193 0)
(0.000798888 -0.000291048 1.53897e-20)
(0.0007729 -0.000280243 -1.91939e-21)
(0.0007627 -0.00027425 1.89988e-21)
(0.00076788 -0.000272346 -2.01206e-23)
(0.000788705 -0.00027181 1.50399e-20)
(0.000825953 -0.000272133 -1.87398e-21)
(0.00088028 -0.000270304 3.725e-21)
(0.000951257 -0.000265225 -1.85235e-21)
(0.00104117 -0.000254356 5.51669e-25)
(0.00114859 -0.000235435 -9.28053e-22)
(0.00127675 -0.00020669 9.2595e-22)
(0.00142456 -0.000164914 -7.43944e-21)
(0.00159336 -0.00010849 -7.9359e-21)
(0.00178362 -3.45072e-05 -1.45364e-20)
(0.00199438 5.88864e-05 3.0158e-20)
(0.0022262 0.00017363 -1.46743e-20)
(0.00247826 0.000311257 -4.75639e-22)
(0.0027494 0.000472869 -4.77727e-22)
(0.00303975 0.000659 4.79583e-22)
(0.003346 0.000869824 -1.53922e-20)
(0.00366923 0.00110462 1.03362e-21)
(0.00400741 0.00136243 -5.03512e-24)
(0.00435735 0.00164139 1.33418e-20)
(0.00471995 0.00193921 4.6744e-20)
(0.0050928 0.00225298 -3.00951e-20)
(0.00547398 0.00257935 -3.01575e-20)
(0.0058642 0.00291464 3.16556e-20)
(0.00626197 0.00325464 2.70908e-20)
(0.00666566 0.00359499 -2.7135e-20)
(0.00707623 0.00393132 -3.12685e-20)
(0.00749348 0.00425884 -2.59203e-20)
(0.00791684 0.00457298 3.89068e-21)
(0.00834684 0.0048691 -3.27456e-21)
(0.00878359 0.00514256 0)
(0.00922766 0.00538903 -2.70105e-20)
(0.00968088 0.00560421 -2.2864e-20)
(0.0101414 0.00578296 -1.90701e-20)
(0.0106084 0.00592169 0)
(0.0110861 0.00601649 -2.15322e-20)
(0.0115691 0.00606099 2.28486e-21)
(0.0120543 0.00605281 -6.05638e-21)
(0.0125453 0.00598784 -1.93013e-21)
(0.0130289 0.00585855 -1.3627e-22)
(0.0135017 0.00566544 -7.30135e-21)
(0.0139571 0.00540286 1.37462e-21)
(0.0143823 0.00507066 -5.43967e-21)
(0.0147664 0.00466877 8.41884e-21)
(0.0150937 0.0041995 6.04556e-21)
(0.0153473 0.00366871 2.49291e-21)
(0.0155164 0.00308637 0)
(0.0155741 0.00246223 -4.02669e-22)
(0.0155246 0.00181688 7.77339e-24)
(0.015336 0.00116067 1.52152e-23)
(0.015012 0.000522542 -1.29963e-24)
(0.0145583 -7.99523e-05 -4.28789e-23)
(0.0139654 -0.000626415 1.49304e-22)
(0.0132671 -0.00109853 -3.65355e-22)
(0.0124525 -0.00148479 0)
(0.0115675 -0.00177615 8.54248e-22)
(0.010616 -0.00197029 -2.60864e-22)
(0.00964069 -0.00207166 4.96045e-22)
(0.00865014 -0.00208536 7.7958e-23)
(0.00767581 -0.00202487 5.7436e-23)
(0.00673185 -0.00190169 -2.6059e-23)
(0.00586099 -0.00174073 0)
(0.00504494 -0.00154195 9.08042e-22)
(0.00448129 -0.00138924 6.75151e-23)
(0.00420237 -0.0012692 5.38371e-23)
(0.00408331 -0.00116565 4.98914e-23)
(0.00408867 -0.00108036 8.52603e-22)
(0.00423349 -0.00101677 3.91352e-23)
(0.0045077 -0.000963416 1.35322e-23)
(0.00491377 -0.000920269 -4.95084e-22)
(0.0053837 -0.000871436 4.27911e-22)
(0.00583302 -0.000812078 5.03583e-22)
(0.00624498 -0.000748024 6.35154e-23)
(0.00662466 -0.00068219 -4.972e-22)
(0.00697245 -0.000615315 6.00349e-23)
(0.00728749 -0.000548506 4.67218e-22)
(0.00757016 -0.00048307 -4.64489e-22)
(0.00782164 -0.000420029 -5.42276e-23)
(0.00804334 -0.000360095 -5.31208e-23)
(0.00823683 -0.000303767 0)
(0.00840384 -0.000251377 3.69675e-22)
(0.00854618 -0.000203099 -3.68321e-22)
(0.00866571 -0.000158966 0)
(0.00876427 -0.000118907 -3.90569e-23)
(0.00884364 -8.27857e-05 0)
(0.00890556 -5.04249e-05 3.40734e-23)
(0.0089517 -2.16122e-05 1.23429e-22)
(0.00898366 3.8969e-06 -1.23164e-22)
(0.00900293 2.63586e-05 -2.7468e-23)
(0.00901092 4.60218e-05 2.48401e-23)
(0.00900894 6.31196e-05 0)
(0.00899822 7.78579e-05 -7.88694e-23)
(0.00897992 9.03974e-05 7.87511e-23)
(0.00895513 0.000100894 1.65502e-23)
(0.00892491 0.00010947 2.74181e-23)
(0.0088903 0.000116231 -2.73737e-23)
(0.00885226 0.000121285 1.9876e-23)
(0.00881176 0.000124764 -1.98474e-23)
(0.00876971 0.000126845 -7.19191e-24)
(0.00872704 0.000127774 -4.60497e-24)
(0.0086846 0.000127924 3.14898e-24)
(0.00864295 0.000127692 3.49857e-24)
(0.00859655 0.000129994 0)
(0.0100413 0.000317384 0)
(0.0102866 0.000874331 0)
(0.010715 0.00124893 0)
(0.0111427 0.00144446 8.41426e-22)
(0.0114793 0.00150604 -8.35742e-22)
(0.0117072 0.00147289 0)
(0.0118552 0.00137479 1.62168e-21)
(0.0118992 0.00124563 -1.62407e-21)
(0.0118802 0.00110885 -1.60564e-21)
(0.011821 0.000975114 3.2126e-21)
(0.0117316 0.000852145 -1.60741e-21)
(0.0116275 0.00074641 0)
(0.0115164 0.00065761 0)
(0.0114034 0.000583964 3.18307e-21)
(0.0112917 0.000524603 -1.40722e-23)
(0.0111824 0.000478034 -6.36258e-21)
(0.0110756 0.000442473 3.18287e-21)
(0.010971 0.000416486 0)
(0.0108677 0.000399075 0)
(0.0107647 0.000389322 3.15693e-21)
(0.0106608 0.000386508 -3.16298e-21)
(0.0105545 0.0003902 0)
(0.0104444 0.000400136 0)
(0.0103288 0.000416196 -6.28561e-21)
(0.010206 0.000438414 1.25781e-20)
(0.0100741 0.000466981 -6.29269e-21)
(0.00993118 0.00050224 -6.27838e-21)
(0.00977496 0.000544713 1.0588e-23)
(0.00960305 0.000595144 1.25773e-20)
(0.00941286 0.000654588 -6.2982e-21)
(0.00920169 0.000724558 -6.30067e-21)
(0.00896622 0.000807258 3.72565e-24)
(0.00870843 0.000906326 6.33009e-21)
(0.0084055 0.00102259 6.33767e-21)
(0.00808543 0.0011681 -6.39115e-21)