/*--------------------------------*- C++ -*----------------------------------*\
| =========                 |                                                 |
| \\      /  F ield         | OpenFOAM: The Open Source CFD Toolbox           |
|  \\    /   O peration     | Version:  2506                                  |
|   \\  /    A nd           | Website:  www.openfoam.com                      |
|    \\/     M anipulation  |                                                 |
\*---------------------------------------------------------------------------*/
FoamFile
{
    version     2.0;
    format      ascii;
    arch        "LSB;label=32;scalar=64";
    class       volScalarField;
    location    "1.45886";
    object      s;
}
// * * * * * * * * * * * * * * * * * * * * * * * * * * * * * * * * * * * * * //

dimensions      [0 0 0 0 0 0 0];

internalField   nonuniform List<scalar> 
4000
(
4.06304e-18
1.87073e-17
-1.15e-13
-5.86401e-11
-2.51356e-09
-4.9591e-08
1.03978e-06
4.14356e-05
0.000617673
0.00887309
0.0627668
0.194086
0.301158
0.313404
0.279999
0.186619
0.0734729
0.0132359
0.00383989
0.00310855
0.00227879
0.00154793
0.00102271
0.000682818
0.000468134
0.000329723
0.000234696
0.000160496
0.000104507
5.3809e-05
2.34046e-05
1.21971e-05
8.07083e-06
7.04091e-06
6.64976e-06
5.35523e-06
3.40758e-06
1.61949e-06
6.43126e-07
5.0633e-07
5.56329e-06
1.87506e-05
4.60295e-05
7.45279e-05
5.12841e-05
3.06977e-05
2.35567e-05
1.50137e-05
8.0728e-06
1.9271e-06
-2.89584e-06
-5.4856e-06
-7.24117e-06
-7.71094e-06
-7.29262e-06
-6.19743e-06
-4.81849e-06
-3.43466e-06
-2.20934e-06
-1.27829e-06
-6.48164e-07
-2.87403e-07
-1.11002e-07
-3.77538e-08
-1.24887e-08
-5.17303e-09
-3.20904e-09
-2.29186e-09
-1.52334e-09
-8.76623e-10
-4.34365e-10
-1.8763e-10
-7.11539e-11
-2.3994e-11
-7.24726e-12
-1.96921e-12
-4.88544e-13
-1.12035e-13
-2.45519e-14
-5.45384e-15
-1.43092e-15
-4.19341e-16
-1.23987e-16
-3.23974e-17
-6.90479e-18
1.16384e-17
2.75066e-18
7.53553e-19
7.52616e-19
9.04718e-19
6.71247e-19
1.6307e-19
-6.96187e-21
1.44614e-20
5.26879e-22
-2.57001e-20
-1.0785e-19
-2.35234e-19
-3.16471e-19
-4.51134e-19
-6.58389e-19
-8.33565e-19
-2.61221e-18
-7.64193e-18
-1.64081e-17
-3.79429e-17
-6.89417e-17
-1.04858e-16
4.63538e-17
1.31609e-15
4.22635e-15
1.05163e-14
1.72911e-14
2.01938e-14
2.37002e-14
1.87205e-14
1.10115e-14
7.954e-15
2.95625e-15
1.47329e-15
1.12401e-15
5.45355e-16
1.10829e-16
-1.51023e-16
-1.77252e-16
-1.19406e-16
-6.08155e-17
-2.58287e-17
-8.53921e-18
-1.20056e-18
-2.00907e-20
2.29217e-19
-3.05446e-19
-9.87704e-19
-5.4906e-19
-2.8645e-19
-9.64137e-20
-8.88577e-20
-6.15087e-20
-4.22607e-20
-2.13789e-20
-2.47893e-20
-2.82994e-20
-1.94958e-20
3.82798e-21
6.22748e-21
2.21367e-21
-1.67663e-21
-3.29761e-21
-2.60004e-21
-8.69015e-22
3.48761e-22
5.55611e-22
2.95058e-22
4.49191e-23
-3.23916e-23
-2.12045e-23
-4.07244e-24
2.59548e-25
-1.38007e-25
1.56059e-25
2.63288e-25
1.28893e-26
-7.30883e-25
-1.4832e-23
-4.98199e-23
1.44707e-22
5.99707e-22
8.20494e-22
6.89719e-22
4.07324e-22
1.73896e-22
5.01343e-23
6.28795e-24
-2.20384e-24
-1.52833e-24
-4.37254e-25
-6.50945e-26
-2.18626e-27
8.84838e-28
1.15337e-28
-1.30772e-30
-1.3038e-30
-8.84633e-32
2.71533e-33
-1.06508e-32
2.54907e-31
7.3277e-31
6.81735e-31
3.47147e-31
9.5718e-32
1.59616e-33
-9.31965e-33
-3.31797e-33
-3.99887e-34
1.53342e-35
5.05242e-36
-1.28549e-37
-5.49045e-38
6.46998e-39
-1.05956e-17
1.14007e-16
-1.11116e-14
-4.09303e-12
-1.24456e-10
-1.90138e-08
6.68787e-08
3.49511e-06
6.20358e-05
0.000729024
0.00393509
0.0111404
0.0212114
0.0286973
0.0325266
0.034987
0.0375172
0.044011
0.0557551
0.0733228
0.101212
0.147045
0.213519
0.284914
0.327811
0.32967
0.309158
0.250455
0.158387
0.0725272
0.028083
0.0180088
0.0163109
0.0185069
0.0206601
0.0203529
0.0192335
0.0199892
0.0242036
0.0325382
0.046586
0.0610779
0.0702662
0.0741039
0.0728896
0.0682974
0.0625085
0.0548084
0.0470684
0.0393235
0.0315374
0.0246475
0.0179564
0.0125859
0.00806912
0.00516996
0.00330687
0.00206382
0.00124608
0.00071184
0.000385662
0.00019635
9.37418e-05
4.16349e-05
1.66516e-05
5.40102e-06
8.14628e-07
-6.91765e-07
-8.98291e-07
-6.56719e-07
-3.66971e-07
-1.68153e-07
-6.49971e-08
-2.15184e-08
-6.13544e-09
-1.49602e-09
-3.14801e-10
-5.73295e-11
-1.00539e-11
-2.48435e-12
-1.04426e-12
-4.16365e-13
-1.55318e-13
-4.57092e-14
-1.05846e-14
-2.06225e-15
-3.79381e-16
-9.24177e-17
-2.86001e-17
-7.04978e-18
4.02098e-18
2.78342e-17
7.31019e-18
1.38699e-18
-1.09018e-18
-1.06441e-17
-1.84713e-17
-1.53524e-18
6.07397e-18
1.39111e-17
3.08991e-17
1.01535e-16
4.26775e-16
1.69607e-15
6.20906e-15
1.91513e-14
4.79972e-14
1.23892e-13
2.98858e-13
7.84208e-13
1.52222e-12
2.86598e-12
4.08889e-12
4.39491e-12
4.77521e-12
3.81002e-12
2.54118e-12
2.01572e-12
1.24353e-12
8.6482e-13
6.24221e-13
3.85853e-13
1.94144e-13
7.1073e-14
1.72133e-14
4.78311e-17
-2.50599e-15
-1.80778e-15
-9.79145e-16
-4.9229e-16
-2.29559e-16
-1.02197e-16
-4.4775e-17
-1.29319e-17
3.90178e-18
9.58794e-18
1.22541e-17
1.3615e-17
1.45732e-17
1.10176e-17
1.20944e-17
9.30022e-18
4.80235e-18
1.19604e-18
-6.26268e-19
-8.04696e-19
-4.11127e-19
6.75601e-21
2.20602e-19
2.06108e-19
7.25726e-20
-4.1291e-20
-6.90496e-20
-4.18977e-20
-1.02381e-20
2.49068e-21
2.54921e-21
5.02122e-22
-1.3538e-22
-7.24125e-23
-2.32702e-23
-4.06325e-23
-4.7366e-23
5.72999e-23
9.26742e-22
6.85301e-21
1.84718e-20
2.53345e-20
2.2614e-20
1.62587e-20
1.05079e-20
6.18723e-21
3.1888e-21
1.36593e-21
4.60354e-22
1.12598e-22
1.61866e-23
-2.06015e-25
-6.68891e-25
-1.31211e-25
-7.38205e-27
1.13949e-27
2.68196e-28
6.76852e-29
5.6431e-29
5.90938e-29
1.10832e-28
1.43849e-28
1.25427e-28
8.09094e-29
3.98833e-29
1.47709e-29
3.82273e-30
5.62951e-31
4.22786e-33
-1.28946e-32
-2.09629e-33
-2.12815e-34
-4.82494e-35
-1.51573e-35
-4.04453e-17
2.4413e-16
-1.10363e-15
-2.33567e-13
-1.04677e-11
-1.81592e-09
4.59395e-09
1.95195e-07
1.14269e-06
1.107e-06
2.04236e-06
4.70856e-06
8.85341e-06
1.46463e-05
2.87373e-05
0.000108667
0.00128483
0.00325528
0.00568126
0.00881435
0.0134374
0.0208694
0.0327076
0.0497783
0.0701174
0.0930721
0.120498
0.150691
0.181442
0.21389
0.253771
0.292457
0.302766
0.294313
0.278318
0.256036
0.231124
0.215702
0.218622
0.232059
0.25033
0.263996
0.271969
0.277761
0.282125
0.285163
0.287274
0.287721
0.286588
0.283393
0.277014
0.267787
0.254289
0.237812
0.216404
0.191791
0.164697
0.135034
0.105191
0.0751686
0.051502
0.0340546
0.0217349
0.013426
0.00795026
0.00449443
0.00240258
0.00121991
0.00058436
0.000263524
0.000112887
4.62892e-05
1.82118e-05
6.85656e-06
2.44962e-06
8.34019e-07
2.68481e-07
7.91271e-08
2.00654e-08
3.85661e-09
2.32796e-10
-2.43363e-10
-1.59256e-10
-6.11393e-11
-1.68791e-11
-3.93461e-12
-8.48294e-13
-2.1504e-13
-7.85092e-14
-2.4902e-14
-7.61394e-15
-2.14489e-15
-4.72081e-16
1.33062e-16
5.88971e-16
1.89887e-15
3.7436e-15
7.3049e-15
1.56384e-14
3.75984e-14
1.02908e-13
2.87221e-13
6.79865e-13
1.47415e-12
3.07675e-12
6.11985e-12
1.12774e-11
2.24296e-11
3.93923e-11
6.18594e-11
8.62577e-11
1.05599e-10
1.2284e-10
1.32264e-10
1.40731e-10
1.42018e-10
1.32727e-10
1.20877e-10
9.5653e-11
7.15444e-11
4.97825e-11
3.12991e-11
1.71524e-11
8.02805e-12
3.46142e-12
1.41583e-12
6.39181e-13
3.06049e-13
1.46606e-13
6.74741e-14
2.93792e-14
1.22805e-14
4.85391e-15
1.62555e-15
3.59527e-16
-5.34179e-17
-7.76837e-17
8.68741e-18
6.17697e-17
8.21887e-17
7.90957e-17
5.33488e-17
4.58769e-17
4.26056e-17
3.66948e-17
2.5236e-17
1.15028e-17
1.87323e-19
-5.14766e-18
-4.61776e-18
-1.22354e-18
1.67861e-18
2.41787e-18
1.60036e-18
5.44169e-19
1.69678e-20
-5.98454e-20
-1.06082e-20
9.81901e-21
5.36477e-21
9.27231e-22
9.63975e-22
4.08518e-21
1.12745e-20
3.15334e-20
5.20987e-20
-1.39017e-20
-1.36945e-19
-1.97052e-19
-1.72812e-19
-1.09914e-19
-5.25027e-20
-1.7619e-20
-2.60903e-21
1.32895e-21
1.23883e-21
5.35323e-22
1.42023e-22
1.91526e-23
-1.38503e-24
-1.22093e-24
-2.90117e-25
-4.95106e-26
-1.14157e-26
-6.20097e-27
-6.21458e-27
-6.85947e-27
-5.7224e-27
-3.58201e-27
-1.6737e-27
-5.32596e-28
-6.98301e-29
3.11627e-29
2.03091e-29
4.11666e-30
-1.1491e-31
-1.92358e-31
-3.14324e-32
3.41313e-33
2.32304e-33
-1.3726e-17
5.06877e-17
2.30404e-17
-1.93628e-14
-4.9829e-12
3.50334e-10
4.88325e-10
3.25814e-09
-1.78772e-08
-1.07538e-07
-2.05837e-07
-4.57966e-07
-9.49888e-07
-1.25665e-06
-1.08687e-06
-5.12463e-07
4.62317e-07
2.09286e-06
4.37161e-06
8.31632e-06
1.65798e-05
3.57236e-05
8.1151e-05
0.000188488
0.000435602
0.0014753
0.00497281
0.0122694
0.0247046
0.0429103
0.0684734
0.103861
0.144429
0.19105
0.239357
0.27967
0.310521
0.316267
0.311925
0.304353
0.293677
0.285356
0.28225
0.283001
0.28771
0.295915
0.306527
0.320146
0.33537
0.351762
0.369085
0.388478
0.408727
0.425808
0.434796
0.435277
0.430066
0.417445
0.397691
0.361292
0.308203
0.248208
0.187404
0.13042
0.0809851
0.0475529
0.0277755
0.0159394
0.00883993
0.00473393
0.00248379
0.00128195
0.000651195
0.00032379
0.000157219
7.45492e-05
3.43396e-05
1.54102e-05
6.6256e-06
2.69943e-06
1.03072e-06
3.72517e-07
1.24129e-07
3.71973e-08
9.50465e-09
1.78133e-09
5.74406e-11
-1.64376e-10
-1.07441e-10
-3.85582e-11
-1.45466e-11
-4.79438e-12
-1.46356e-12
-4.20868e-13
-1.06824e-13
-9.76063e-16
6.55861e-14
1.6976e-13
3.87391e-13
8.36881e-13
1.47848e-12
3.03254e-12
7.33322e-12
1.52649e-11
2.96789e-11
5.28636e-11
8.3396e-11
1.61283e-10
2.73445e-10
4.18202e-10
5.905e-10
6.0061e-10
5.69276e-10
5.39176e-10
4.99241e-10
5.3997e-10
6.84559e-10
7.5296e-10
6.87179e-10
5.67071e-10
4.48826e-10
3.45388e-10
2.65504e-10
1.91231e-10
1.29549e-10
8.33993e-11
5.02108e-11
2.87303e-11
1.55986e-11
8.05224e-12
4.01328e-12
1.96148e-12
9.47538e-13
4.42479e-13
2.03429e-13
9.37561e-14
4.65638e-14
2.80163e-14
1.61442e-14
6.61899e-15
6.34167e-16
-9.47831e-16
-1.07697e-15
-8.54065e-16
-5.67324e-16
-3.14476e-16
-1.24452e-16
3.32401e-17
8.49602e-17
6.05235e-17
1.06805e-17
-2.78517e-17
-3.87279e-17
-2.8203e-17
-1.23901e-17
-2.70996e-18
2.72727e-20
-1.15799e-19
-3.18554e-19
-1.85649e-19
-4.2097e-20
5.43883e-21
1.96557e-20
6.50859e-21
-1.63467e-19
-8.55548e-19
-1.9652e-18
-2.54751e-18
-2.32434e-18
-1.72557e-18
-1.12929e-18
-6.74314e-19
-3.65093e-19
-1.73486e-19
-6.89332e-20
-2.12408e-20
-4.20726e-21
-2.14139e-23
3.49163e-22
1.37569e-22
2.63916e-23
1.45056e-24
-7.90414e-25
-4.12723e-25
-2.6236e-25
-2.6565e-25
-2.58922e-25
-2.15911e-25
-1.54566e-25
-9.47228e-26
-4.90123e-26
-2.08079e-26
-6.80718e-27
-1.46897e-27
-8.00749e-29
6.71399e-29
2.62251e-29
4.54404e-30
-1.09804e-31
-1.67047e-31
-1.75033e-19
-3.6438e-17
3.44102e-16
-2.53605e-15
-3.43492e-12
3.80848e-11
8.23145e-11
2.21362e-11
-5.25743e-09
-9.4088e-09
-4.19211e-08
-1.26626e-07
-2.46726e-07
-3.18661e-07
-3.26197e-07
-2.48797e-07
-1.11117e-07
-4.67993e-08
-2.13276e-08
2.38493e-08
1.52737e-07
4.61369e-07
1.14926e-06
2.67336e-06
6.13539e-06
1.41232e-05
3.3307e-05
7.81265e-05
0.000181365
0.000414887
0.00122491
0.0048893
0.0130768
0.0283113
0.0494185
0.065791
0.0778919
0.087275
0.0918858
0.0917748
0.0861928
0.0797713
0.0759908
0.0755917
0.078839
0.0856772
0.0955118
0.10911
0.125968
0.146457
0.17127
0.200104
0.234404
0.273336
0.319035
0.368758
0.406337
0.430212
0.448617
0.468934
0.47606
0.466973
0.444069
0.407915
0.344392
0.267212
0.190848
0.124341
0.072459
0.0412594
0.0242847
0.0142952
0.00831598
0.00478829
0.00276146
0.00160064
0.000919661
0.000513193
0.000274758
0.000140365
6.85643e-05
3.18707e-05
1.38149e-05
5.51232e-06
2.00165e-06
6.53038e-07
1.85758e-07
4.11027e-08
3.56333e-09
-2.91277e-09
-2.47286e-09
-1.06923e-09
-3.47412e-10
-1.35731e-10
-4.74805e-11
-1.6279e-11
-7.03062e-12
-5.86958e-12
-8.41812e-12
-2.29864e-11
-6.20685e-11
-1.39866e-10
-2.18271e-10
-3.78214e-10
-5.76181e-10
-8.33961e-10
-1.57713e-09
-3.18256e-09
-6.15926e-09
-9.60169e-09
-1.30033e-08
-1.86437e-08
-2.38215e-08
-2.76594e-08
-2.79454e-08
-2.33074e-08
-1.60058e-08
-9.93694e-09
-5.82275e-09
-2.91295e-09
-9.69221e-10
1.66329e-10
6.17708e-10
6.50316e-10
5.29376e-10
3.8742e-10
2.67046e-10
1.7298e-10
1.0669e-10
6.20321e-11
3.59907e-11
2.06765e-11
1.17281e-11
6.43945e-12
3.52255e-12
1.96931e-12
1.05176e-12
4.83619e-13
1.48148e-13
-7.15307e-15
-3.98388e-14
-3.65399e-14
-2.82849e-14
-1.87411e-14
-1.14946e-14
-6.73671e-15
-3.75054e-15
-1.96563e-15
-9.42668e-16
-3.5704e-16
2.03117e-18
2.22946e-16
3.30453e-16
2.77003e-16
1.45673e-16
5.01414e-17
1.2625e-17
6.22919e-18
5.50351e-18
3.26708e-18
1.04398e-18
1.60786e-19
-5.6767e-20
-4.77606e-19
-2.53908e-18
-5.20343e-18
-5.36593e-18
-2.5301e-18
4.97601e-19
1.78516e-18
1.46668e-18
6.02253e-19
-4.76283e-20
-2.98974e-19
-2.83672e-19
-1.77492e-19
-8.32685e-20
-2.93725e-20
-7.00565e-21
-4.8937e-22
4.90314e-22
3.0303e-22
1.13912e-22
3.63804e-23
1.37042e-23
7.52024e-24
4.72573e-24
2.77015e-24
1.41531e-24
5.93576e-25
1.73733e-25
6.11614e-27
-3.33245e-26
-2.53276e-26
-1.06296e-26
-2.43438e-27
3.37004e-29
3.30948e-28
1.85777e-28
5.10945e-29
2.60667e-18
-2.14465e-17
9.94713e-17
-1.93873e-16
-2.96429e-13
-1.2303e-13
1.20213e-11
-3.2277e-11
-4.29957e-10
-4.17424e-10
-5.59896e-11
-1.69522e-11
-1.46319e-09
-2.95811e-09
-4.26354e-09
-6.97333e-09
-7.48143e-09
-8.57572e-09
-1.04758e-08
-1.08729e-08
-8.07132e-09
3.33476e-09
2.27375e-08
6.71109e-08
1.76035e-07
4.2069e-07
1.05225e-06
2.55337e-06
6.02145e-06
1.39311e-05
3.3848e-05
8.3407e-05
0.000200792
0.000484566
0.00127306
0.00285329
0.00498958
0.00708125
0.00860725
0.0093705
0.0092965
0.00904733
0.00903083
0.00937831
0.0102105
0.0115687
0.0134761
0.0161816
0.0197642
0.0245098
0.0308333
0.0390199
0.0500187
0.0643751
0.0842518
0.113761
0.157911
0.213368
0.270995
0.33145
0.386394
0.436975
0.460333
0.485577
0.488821
0.474198
0.441628
0.389132
0.313442
0.234108
0.163587
0.106549
0.0654022
0.0411359
0.0268244
0.0176183
0.0114415
0.00732899
0.00465116
0.00292996
0.00181392
0.0010744
0.000593647
0.000304639
0.000146196
6.56294e-05
2.72367e-05
1.02971e-05
3.50123e-06
1.04662e-06
2.56759e-07
3.68537e-08
-9.50335e-09
-1.18092e-08
-6.67077e-09
-2.96327e-09
-2.24884e-09
-2.4843e-09
-4.02832e-09
-6.84272e-09
-8.81712e-09
-1.36495e-08
-1.67829e-08
-2.41898e-08
-3.50387e-08
-5.12011e-08
-9.12353e-08
-1.81816e-07
-3.14227e-07
-4.48362e-07
-5.68335e-07
-6.99652e-07
-7.32706e-07
-7.04692e-07
-6.44309e-07
-5.61828e-07
-4.72426e-07
-3.75831e-07
-2.6287e-07
-1.665e-07
-9.23046e-08
-4.47891e-08
-2.00377e-08
-8.99373e-09
-3.96312e-09
-1.65398e-09
-6.10724e-10
-1.61519e-10
1.30081e-11
6.62818e-11
7.05428e-11
5.83247e-11
4.30888e-11
2.95133e-11
1.92326e-11
1.17901e-11
6.19485e-12
1.81462e-12
-4.32878e-13
-9.36699e-13
-6.46152e-13
-3.65735e-13
-1.97325e-13
-1.02562e-13
-6.73965e-14
-4.66811e-14
-3.28227e-14
-2.30486e-14
-1.59589e-14
-1.08196e-14
-7.18368e-15
-4.66761e-15
-3.0132e-15
-1.8842e-15
-1.01036e-15
-3.74189e-16
-1.30264e-16
-7.15495e-17
-5.23441e-17
-3.09394e-17
-1.20101e-17
-2.48268e-18
-2.49863e-20
-2.14954e-18
-2.57416e-18
6.56021e-18
2.91136e-17
4.97848e-17
5.56481e-17
4.74501e-17
3.31894e-17
1.98475e-17
1.03141e-17
4.60239e-18
1.66448e-18
3.95725e-19
-2.4271e-20
-9.47267e-20
-6.48186e-20
-2.94818e-20
-9.77602e-21
-2.18215e-21
-6.14818e-23
2.68392e-22
2.08013e-22
1.32032e-22
8.57569e-23
5.67541e-23
3.61786e-23
2.1303e-23
1.13036e-23
5.27819e-24
2.08485e-24
6.37907e-25
1.08367e-25
-2.55082e-26
-3.23587e-26
-1.74327e-26
-6.82129e-27
-1.61189e-27
5.56441e-19
-6.6337e-18
4.29197e-17
-1.99458e-16
2.08322e-14
-7.46834e-14
6.07729e-14
-3.29815e-12
-4.68699e-12
6.7344e-13
2.0725e-11
6.77535e-11
9.0093e-11
1.04225e-10
1.13279e-10
1.43481e-10
1.66468e-10
8.73962e-11
-4.20931e-11
-1.84277e-10
-6.01469e-10
-7.88e-10
-1.87567e-10
1.57833e-09
6.01125e-09
1.71408e-08
4.77147e-08
1.26105e-07
3.18993e-07
7.83733e-07
1.94486e-06
4.86872e-06
1.17712e-05
2.83186e-05
7.00717e-05
0.000157042
0.000288491
0.00044375
0.000599121
0.00073581
0.000829965
0.000919305
0.00103845
0.00121341
0.0014773
0.00185996
0.00239486
0.00315921
0.00421758
0.00568107
0.0077043
0.0104337
0.0141625
0.0191182
0.025832
0.0349899
0.0482607
0.0682207
0.0958386
0.137167
0.189406
0.254832
0.319149
0.381325
0.43399
0.472392
0.488557
0.503361
0.494297
0.468585
0.425782
0.362253
0.291329
0.224006
0.166675
0.121085
0.0860098
0.0604874
0.0432846
0.0311859
0.0220683
0.0150632
0.0098818
0.00626887
0.00385588
0.00226428
0.00123845
0.000623277
0.000289981
0.000126351
5.18781e-05
1.99696e-05
7.12859e-06
2.31847e-06
6.52914e-07
1.29796e-07
-9.61104e-09
-4.01474e-08
-6.48198e-08
-1.18576e-07
-2.31623e-07
-4.30508e-07
-6.42133e-07
-8.22245e-07
-1.08021e-06
-1.48818e-06
-1.96134e-06
-2.3995e-06
-2.77609e-06
-2.97784e-06
-3.02644e-06
-2.81512e-06
-2.52887e-06
-2.17748e-06
-1.89302e-06
-1.68768e-06
-1.54662e-06
-1.44e-06
-1.33553e-06
-1.14468e-06
-9.00821e-07
-6.39179e-07
-4.26886e-07
-2.74257e-07
-1.73032e-07
-1.06418e-07
-6.37985e-08
-3.73964e-08
-2.15477e-08
-1.22707e-08
-6.92615e-09
-3.89944e-09
-2.20735e-09
-1.25382e-09
-7.19677e-10
-4.18274e-10
-2.34027e-10
-1.11308e-10
-4.2882e-11
-9.58809e-12
-2.57502e-13
1.30953e-12
1.64129e-12
1.6238e-12
1.43337e-12
1.1594e-12
8.53686e-13
5.79726e-13
3.6243e-13
2.07182e-13
1.08179e-13
5.03297e-14
2.06641e-14
7.27121e-15
2.19423e-15
5.24554e-16
1.77022e-16
2.02042e-16
1.94748e-16
1.19738e-16
4.69451e-17
5.59214e-18
-7.92071e-18
8.88692e-18
4.77596e-17
1.05515e-16
1.7069e-16
2.02105e-16
1.82946e-16
1.34739e-16
8.75855e-17
5.40458e-17
3.29283e-17
1.97028e-17
1.11898e-17
5.79524e-18
2.63153e-18
9.93763e-19
2.74526e-19
2.27032e-20
-3.50244e-20
-3.19986e-20
-1.88908e-20
-9.29952e-21
-4.14642e-21
-1.72525e-21
-6.62182e-22
-2.16353e-22
-4.25267e-23
1.44987e-23
2.48704e-23
1.98558e-23
1.2288e-23
6.40612e-24
2.84173e-24
1.04183e-24
2.92206e-25
3.51734e-26
-2.81319e-26
-2.84369e-26
-8.04866e-21
-3.39444e-18
3.99676e-17
-1.59308e-16
3.87681e-15
-4.94338e-15
-1.69082e-13
-1.18034e-13
-1.49111e-13
2.9868e-13
2.43878e-12
5.39085e-12
7.73968e-12
1.02309e-11
1.22736e-11
1.42873e-11
1.50643e-11
1.12466e-11
5.74545e-12
-1.14146e-12
-1.70447e-11
-4.74098e-11
-1.13314e-10
-1.11953e-10
8.73874e-11
7.28405e-10
2.60292e-09
7.7886e-09
2.15762e-08
5.73966e-08
1.51373e-07
4.00514e-07
1.02337e-06
2.60645e-06
6.44279e-06
1.40939e-05
2.72928e-05
4.58501e-05
6.85235e-05
9.41727e-05
0.000120168
0.000151763
0.000197184
0.000265809
0.000368751
0.000524745
0.000758721
0.00111078
0.00162614
0.0023695
0.00342928
0.00488453
0.0068708
0.00953849
0.0131069
0.0178353
0.0241401
0.0325593
0.0431799
0.0580041
0.0792129
0.109664
0.153391
0.208418
0.271511
0.338215
0.397587
0.446948
0.485863
0.501444
0.521414
0.519826
0.504972
0.476602
0.432682
0.377944
0.322035
0.268422
0.220383
0.178929
0.143299
0.112535
0.0858912
0.0630506
0.0444299
0.0297874
0.0189518
0.0115653
0.00682854
0.00390364
0.00212337
0.0010843
0.000521794
0.000240807
0.000107822
4.71991e-05
2.00476e-05
7.99927e-06
2.60059e-06
4.67119e-08
-1.18041e-06
-1.97921e-06
-2.70761e-06
-3.75439e-06
-5.02539e-06
-6.00485e-06
-6.84354e-06
-7.18108e-06
-7.2104e-06
-6.99785e-06
-6.12258e-06
-4.72894e-06
-3.29178e-06
-2.17014e-06
-1.49944e-06
-1.28441e-06
-1.29557e-06
-1.45456e-06
-1.71237e-06
-1.93971e-06
-2.04117e-06
-1.97475e-06
-1.68857e-06
-1.32477e-06
-9.69492e-07
-6.6998e-07
-4.414e-07
-2.79216e-07
-1.70579e-07
-1.01082e-07
-5.82123e-08
-3.26093e-08
-1.77666e-08
-9.31853e-09
-4.63544e-09
-2.109e-09
-7.88809e-10
-1.38955e-10
1.41848e-10
2.28813e-10
2.19359e-10
1.85675e-10
1.4319e-10
1.01783e-10
6.67583e-11
4.05802e-11
2.2723e-11
1.18236e-11
5.74926e-12
2.61038e-12
1.10784e-12
4.27275e-13
1.43644e-13
3.50714e-14
-2.34186e-15
-9.81974e-15
-6.69559e-15
-3.749e-15
-1.64116e-15
-6.26187e-16
-1.53021e-16
6.44006e-17
1.17893e-16
1.13308e-16
1.28567e-16
1.6501e-16
1.49945e-16
8.03235e-17
-1.41371e-17
-8.03955e-17
-8.30561e-17
-4.90664e-17
-1.26164e-17
9.84202e-18
1.751e-17
1.6086e-17
1.13193e-17
6.65334e-18
3.35687e-18
1.45097e-18
5.16465e-19
1.2784e-19
-3.23137e-21
-3.18369e-20
-2.81107e-20
-1.85238e-20
-1.07337e-20
-5.75895e-21
-2.91589e-21
-1.39698e-21
-6.27223e-22
-2.57551e-22
-9.16652e-23
-2.42451e-23
-1.07023e-24
4.34639e-24
3.94869e-24
2.42988e-24
1.23642e-24
4.36548e-25
-3.93265e-20
-1.34097e-19
1.99651e-18
-1.71486e-18
-7.47388e-17
7.22778e-17
-4.68618e-15
-2.63448e-15
-1.09621e-15
4.25407e-14
2.58605e-14
8.20059e-14
1.77557e-13
3.08372e-13
4.16757e-13
4.87091e-13
6.62999e-13
4.87186e-13
-9.99729e-14
-1.73798e-12
-3.73521e-12
-4.63047e-12
-7.13924e-12
-1.64906e-11
-1.79021e-11
2.96611e-11
2.00671e-10
7.02327e-10
2.08353e-09
5.86366e-09
1.61744e-08
4.4624e-08
1.20037e-07
3.23381e-07
8.11705e-07
1.80762e-06
3.76581e-06
7.00882e-06
1.17954e-05
1.85149e-05
2.75022e-05
4.15493e-05
6.53365e-05
0.000104472
0.000161696
0.00025423
0.000409241
0.000652915
0.00102208
0.00156727
0.00235581
0.00347108
0.00502582
0.00715033
0.0100104
0.0137462
0.0185034
0.0245299
0.0320705
0.0414364
0.0529964
0.0667419
0.0859449
0.113046
0.148505
0.195333
0.25047
0.307955
0.368354
0.420432
0.465028
0.501132
0.519329
0.533283
0.548774
0.546601
0.5344
0.51213
0.478759
0.437357
0.393441
0.349082
0.305191
0.261654
0.219025
0.177914
0.139095
0.104038
0.0735067
0.0466753
0.0275649
0.0159383
0.00916811
0.00526507
0.0029779
0.00163686
0.000871827
0.000452244
0.000229677
0.00011281
5.06502e-05
1.66669e-05
-1.61578e-06
-1.09169e-05
-1.46131e-05
-1.41973e-05
-1.05992e-05
-4.51957e-06
3.00142e-06
1.07108e-05
2.9118e-05
5.27498e-05
6.84302e-05
7.16626e-05
6.4474e-05
5.07581e-05
3.48684e-05
2.05159e-05
9.79802e-06
2.7949e-06
-1.15946e-06
-2.84512e-06
-3.0557e-06
-2.74484e-06
-2.17741e-06
-1.59119e-06
-1.09443e-06
-7.17085e-07
-4.50976e-07
-2.73456e-07
-1.60092e-07
-9.03626e-08
-4.89262e-08
-2.50237e-08
-1.17142e-08
-4.61537e-09
-1.04729e-09
5.67446e-10
1.14765e-09
1.21725e-09
1.06513e-09
8.40393e-10
6.18404e-10
4.30507e-10
2.84844e-10
1.79465e-10
1.06934e-10
6.00302e-11
3.15059e-11
1.52318e-11
6.66765e-12
2.51819e-12
7.25012e-13
5.61609e-14
-8.8527e-14
-9.23007e-14
-6.08283e-14
-3.47741e-14
-1.78844e-14
-8.81097e-15
-4.56894e-15
-2.50911e-15
-1.47495e-15
-8.95255e-16
-5.84088e-16
-6.94181e-16
-1.26479e-15
-1.75004e-15
-1.8167e-15
-1.48315e-15
-1.00201e-15
-5.70917e-16
-2.6873e-16
-9.32675e-17
-9.4834e-18
2.03352e-17
2.41801e-17
1.86723e-17
1.18268e-17
6.5283e-18
3.20094e-18
1.38595e-18
5.08136e-19
1.34482e-19
5.26962e-22
-3.36078e-20
-3.28326e-20
-2.34789e-20
-1.45694e-20
-8.23817e-21
-4.31234e-21
-2.09083e-21
-9.28486e-22
-3.67232e-22
-1.20654e-22
-2.5366e-23
4.26355e-24
9.29017e-24
7.28694e-24
3.85571e-24
4.05283e-21
1.60417e-20
-3.52892e-19
3.04368e-18
-8.37161e-18
5.5792e-18
-7.06088e-19
-4.23847e-17
1.34559e-17
-6.42862e-17
7.74817e-17
1.25043e-15
2.71631e-15
3.1418e-15
5.6932e-16
-1.33312e-14
-3.37825e-14
-7.18154e-14
-1.21653e-13
-1.07517e-13
1.17287e-14
2.21486e-13
7.05317e-13
3.26667e-12
6.93825e-12
1.65297e-11
4.42629e-11
1.38435e-10
3.95548e-10
1.09908e-09
3.00239e-09
8.22127e-09
2.22834e-08
6.04626e-08
1.54799e-07
3.66374e-07
8.32715e-07
1.74503e-06
3.3649e-06
6.09555e-06
1.04064e-05
1.90161e-05
3.61699e-05
6.66043e-05
0.000118771
0.000204385
0.000339046
0.000546116
0.000856839
0.00131522
0.0019806
0.00292757
0.00425617
0.00608342
0.00856028
0.0118434
0.0160931
0.0214948
0.028231
0.0364565
0.0462716
0.0575391
0.0705985
0.0864961
0.105681
0.130421
0.162469
0.201466
0.247092
0.297223
0.347582
0.399178
0.443824
0.483068
0.515572
0.540227
0.554715
0.569624
0.582464
0.580772
0.571842
0.55555
0.531214
0.497375
0.456535
0.411129
0.362451
0.312219
0.261605
0.21133
0.163664
0.12105
0.0851806
0.0561081
0.032975
0.0188498
0.0111605
0.00694189
0.00436636
0.00270175
0.0016338
0.000998099
0.000647346
0.000495121
0.000480838
0.00055032
0.000665568
0.00078586
0.000877833
0.000920752
0.000890468
0.000786375
0.000638645
0.000479572
0.000334508
0.000216314
0.000128903
6.96476e-05
3.25944e-05
1.15538e-05
9.14637e-07
-3.37043e-06
-4.34274e-06
-4.07976e-06
-3.31088e-06
-2.45465e-06
-1.70324e-06
-1.12057e-06
-7.04339e-07
-4.24509e-07
-2.45247e-07
-1.35125e-07
-7.00844e-08
-3.31975e-08
-1.32675e-08
-3.19947e-09
1.36301e-09
2.9965e-09
3.21025e-09
2.82137e-09
2.2441e-09
1.67345e-09
1.19003e-09
8.13138e-10
5.35499e-10
3.4057e-10
2.08797e-10
1.23187e-10
6.96334e-11
3.73731e-11
1.88435e-11
8.71655e-12
3.55499e-12
1.13435e-12
1.58884e-13
-1.50532e-13
-1.77237e-13
-1.32565e-13
-8.14293e-14
-4.65724e-14
-2.75682e-14
-1.72887e-14
-1.17627e-14
-9.46245e-15
-9.59406e-15
-1.04557e-14
-1.05138e-14
-9.06656e-15
-6.74285e-15
-4.41948e-15
-2.58179e-15
-1.33947e-15
-6.00101e-16
-2.10666e-16
-3.29902e-17
3.1634e-17
4.38441e-17
3.64249e-17
2.48016e-17
1.49023e-17
8.10065e-18
4.00339e-18
1.77901e-18
6.83421e-19
1.98789e-19
1.35904e-20
-3.98272e-20
-4.30781e-20
-3.19755e-20
-2.01046e-20
-1.13288e-20
-5.83011e-21
-2.74603e-21
-1.16989e-21
-4.35332e-22
-1.27559e-22
-1.63168e-23
1.40654e-23
1.64573e-23
1.05105e-23
2.8569e-21
-5.46694e-21
-8.77e-20
7.23787e-19
-2.56726e-18
-1.71863e-18
7.16101e-18
1.58824e-17
-7.3268e-18
-6.72601e-17
-1.24233e-16
-1.19355e-16
4.57328e-17
-2.38325e-16
-1.11394e-15
-2.1905e-15
-3.938e-15
-4.27458e-15
-2.2821e-15
1.34974e-14
7.76713e-14
2.66668e-13
7.65633e-13
2.19843e-12
5.89435e-12
1.49822e-11
3.77434e-11
9.5277e-11
2.48339e-10
6.4136e-10
1.65538e-09
4.21776e-09
1.07278e-08
2.69213e-08
6.61109e-08
1.58168e-07
3.75926e-07
8.77957e-07
1.97434e-06
4.29942e-06
8.9112e-06
1.75099e-05
3.26575e-05
5.79238e-05
9.883e-05
0.000163876
0.000265566
0.000424524
0.000670603
0.00104657
0.00160886
0.0024297
0.00360524
0.00525134
0.00751735
0.0105619
0.0145459
0.019664
0.0261149
0.0340854
0.0437129
0.0550704
0.0680727
0.0826721
0.0988775
0.117061
0.138045
0.162753
0.191799
0.225681
0.263571
0.305079
0.348279
0.391478
0.432722
0.471113
0.504416
0.534367
0.558294
0.575153
0.587512
0.598372
0.600842
0.596609
0.585884
0.567654
0.540586
0.502805
0.457067
0.406681
0.35346
0.299347
0.246263
0.196637
0.151675
0.113483
0.0824323
0.0587087
0.041076
0.0287306
0.0204787
0.015481
0.0124891
0.010518
0.00908297
0.00791159
0.00687421
0.00588006
0.00489396
0.0039297
0.00302215
0.00221721
0.00154676
0.00102285
0.000639153
0.00037514
0.000204621
0.00010131
4.29032e-05
1.29596e-05
-3.50659e-07
-4.82446e-06
-5.38361e-06
-4.77447e-06
-3.77351e-06
-2.728e-06
-1.84327e-06
-1.17795e-06
-7.15484e-07
-4.13049e-07
-2.25298e-07
-1.14276e-07
-5.18053e-08
-1.8828e-08
-2.93785e-09
3.75394e-09
5.67977e-09
5.25815e-09
4.51457e-09
3.53334e-09
2.60307e-09
1.83523e-09
1.24934e-09
8.25874e-10
5.31824e-10
3.34403e-10
2.05629e-10
1.23468e-10
7.20639e-11
4.05688e-11
2.17221e-11
1.08257e-11
4.8074e-12
1.69799e-12
2.4935e-13
-3.07143e-13
-4.25329e-13
-3.64076e-13
-2.64777e-13
-1.76188e-13
-1.18139e-13
-8.20937e-14
-6.22105e-14
-5.16847e-14
-4.44952e-14
-3.6529e-14
-2.74301e-14
-1.85135e-14
-1.12705e-14
-6.22468e-15
-3.10816e-15
-1.3692e-15
-4.91565e-16
-9.80397e-17
4.89579e-17
8.35912e-17
7.47185e-17
5.42364e-17
3.49251e-17
2.05451e-17
1.11446e-17
5.56361e-18
2.52057e-18
9.97347e-19
3.06407e-19
3.3409e-20
-4.96958e-20
-5.79044e-20
-4.35672e-20
-2.72787e-20
-1.5153e-20
-7.62945e-21
-3.49082e-21
-1.43083e-21
-5.01814e-22
-1.28591e-22
-2.12768e-24
2.71912e-23
2.52974e-23
1.47194e-23
2.17427e-20
-1.18194e-19
1.7985e-19
7.55448e-19
-9.87208e-18
-3.29307e-17
-1.34881e-16
-1.55101e-16
-2.96426e-15
-3.49445e-15
-4.96073e-15
-4.4796e-15
4.19306e-15
1.90473e-14
3.05123e-14
2.71032e-14
1.21184e-14
-1.55936e-14
-9.46834e-14
-1.60999e-13
-1.39797e-13
-5.74652e-14
2.34139e-13
1.51411e-12
4.97986e-12
1.13687e-11
2.76406e-11
7.69114e-11
2.06164e-10
5.42689e-10
1.41298e-09
3.64269e-09
9.35624e-09
2.34395e-08
5.88915e-08
1.42194e-07
3.46893e-07
8.12272e-07
1.76289e-06
3.69485e-06
7.43235e-06
1.43686e-05
2.63495e-05
4.60216e-05
7.8431e-05
0.000133034
0.00022549
0.000381233
0.000637629
0.00104171
0.00165789
0.00256846
0.00387108
0.00568552
0.00814964
0.0114211
0.0156732
0.0210906
0.0279347
0.0363529
0.0465462
0.0585687
0.0724282
0.088029
0.105198
0.123811
0.143793
0.165331
0.18868
0.214212
0.242269
0.272866
0.305874
0.340806
0.376796
0.412884
0.4481
0.481475
0.511981
0.538904
0.562095
0.580738
0.593774
0.602232
0.604161
0.601491
0.594149
0.579509
0.556084
0.523812
0.484393
0.438207
0.388623
0.337787
0.287221
0.239259
0.195237
0.156657
0.123815
0.0971049
0.0758121
0.0593261
0.0466167
0.0368049
0.0291209
0.022937
0.0178522
0.0136133
0.0100919
0.00722843
0.00497656
0.00327981
0.00206166
0.00123079
0.000693248
0.000364723
0.00017569
7.35424e-05
2.30286e-05
1.51694e-06
-5.67233e-06
-6.42773e-06
-5.38973e-06
-4.37018e-06
-3.13903e-06
-2.09652e-06
-1.31555e-06
-7.77829e-07
-4.32118e-07
-2.22989e-07
-1.03433e-07
-3.90395e-08
-8.07505e-09
2.84858e-09
5.42968e-09
5.72445e-09
5.07224e-09
4.30127e-09
3.26208e-09
2.32488e-09
1.58465e-09
1.04351e-09
6.67774e-10
4.18325e-10
2.57605e-10
1.56132e-10
9.35233e-11
5.54379e-11
3.24576e-11
1.86487e-11
1.01995e-11
5.08976e-12
2.0401e-12
3.28294e-13
-5.36451e-13
-8.54757e-13
-8.79474e-13
-7.60731e-13
-5.97111e-13
-4.41563e-13
-3.23725e-13
-2.3852e-13
-1.76955e-13
-1.29436e-13
-9.05407e-14
-5.8901e-14
-3.49531e-14
-1.88269e-14
-9.17428e-15
-3.96525e-15
-1.4364e-15
-3.33819e-16
7.17487e-17
1.73553e-16
1.62238e-16
1.20671e-16
8.00133e-17
4.90806e-17
2.81812e-17
1.51639e-17
7.59229e-18
3.47552e-18
1.39772e-18
4.41901e-19
5.76829e-20
-6.23273e-20
-7.62927e-20
-5.76157e-20
-3.57025e-20
-1.94288e-20
-9.48353e-21
-4.14941e-21
-1.58873e-21
-4.91271e-22
-8.33463e-23
3.55508e-23
5.05154e-23
3.73733e-23
2.26016e-23
9.94521e-24
-8.81184e-20
-6.10769e-19
1.00942e-17
-6.75368e-17
1.9777e-16
2.20331e-15
-2.56972e-14
-2.98631e-14
-1.00403e-13
-5.72495e-14
-4.18246e-14
3.13069e-13
6.68825e-13
9.73794e-13
1.27085e-12
1.38178e-12
1.27516e-12
9.94068e-13
4.15018e-13
-4.65486e-13
-2.25876e-12
-3.15148e-12
-6.3755e-15
9.29598e-12
2.62563e-11
4.47335e-11
5.61193e-11
1.25858e-10
4.28831e-10
1.13287e-09
2.71559e-09
6.11812e-09
1.32326e-08
2.76427e-08
5.67359e-08
1.17751e-07
2.46962e-07
5.78074e-07
1.44878e-06
3.44142e-06
7.63441e-06
1.57561e-05
3.10356e-05
5.8763e-05
0.000107753
0.000201148
0.000370024
0.000659722
0.00113095
0.0018687
0.0030242
0.00473996
0.00716079
0.0104582
0.0148038
0.0203824
0.0273641
0.0358059
0.0458835
0.0573949
0.070621
0.0854624
0.101963
0.120019
0.139388
0.159951
0.181557
0.203997
0.227187
0.251143
0.276363
0.302932
0.330308
0.357708
0.386656
0.416535
0.446525
0.475858
0.503797
0.529681
0.552798
0.572452
0.587934
0.598541
0.603319
0.602979
0.600033
0.592606
0.577425
0.555341
0.526691
0.492057
0.452482
0.409362
0.364066