/*--------------------------------*- C++ -*----------------------------------*\
| =========                 |                                                 |
| \\      /  F ield         | OpenFOAM: The Open Source CFD Toolbox           |
|  \\    /   O peration     | Version:  2506                                  |
|   \\  /    A nd           | Website:  www.openfoam.com                      |
|    \\/     M anipulation  |                                                 |
\*---------------------------------------------------------------------------*/
FoamFile
{
    version     2.0;
    format      ascii;
    arch        "LSB;label=32;scalar=64";
    class       volScalarField;
    location    "0.95";
    object      p;
}
// * * * * * * * * * * * * * * * * * * * * * * * * * * * * * * * * * * * * * //

dimensions      [0 2 -2 0 0 0 0];

internalField   nonuniform List<scalar> 
4000
(
0.00423834
0.0041826
0.00414448
0.00411902
0.00409653
0.0040751
0.00405454
0.00403452
0.00401482
0.00399532
0.00397598
0.00395677
0.00393766
0.00391864
0.00389971
0.00388086
0.00386209
0.00384339
0.00382478
0.00380626
0.00378782
0.00376949
0.00375127
0.00373317
0.00371523
0.00369745
0.00367986
0.00366252
0.00364544
0.00362871
0.00361238
0.00359658
0.00358145
0.00356713
0.00355437
0.00354306
0.00353212
0.00352086
0.003509
0.00349606
0.0034815
0.00346416
0.00344399
0.00342154
0.0033968
0.00336994
0.00334105
0.0033101
0.00327758
0.00324339
0.00320778
0.00317116
0.00313335
0.00309516
0.00305619
0.00301728
0.00297826
0.00293949
0.00290155
0.00286365
0.00282714
0.00279123
0.00275633
0.00272254
0.00268955
0.00265774
0.00262669
0.00259684
0.00256786
0.00253993
0.00251297
0.00248694
0.00246195
0.00243792
0.00241487
0.00239283
0.00237176
0.00235163
0.00233243
0.00231412
0.00229667
0.00228004
0.00226418
0.00224907
0.00223468
0.00222096
0.0022079
0.00219547
0.00218364
0.00217239
0.00216169
0.00215152
0.00214186
0.00213266
0.00212391
0.00211555
0.00210757
0.0020999
0.00209251
0.00208538
0.00207844
0.00207162
0.00206486
0.00205812
0.00205137
0.00204452
0.00203754
0.00203034
0.00202286
0.00201502
0.00200675
0.00199799
0.00198866
0.00197868
0.00196802
0.00195656
0.00194429
0.00193115
0.00191705
0.00190202
0.00188604
0.00186907
0.00185113
0.00183223
0.00181233
0.00179146
0.00176963
0.00174682
0.00172305
0.0016983
0.00167251
0.00164577
0.00161799
0.00158906
0.00155914
0.00152815
0.00149587
0.00146275
0.00142841
0.00139317
0.001357
0.00132007
0.00128255
0.00124472
0.00120657
0.00116889
0.00113102
0.00109425
0.00105808
0.0010229
0.000988962
0.000955785
0.000924205
0.000893468
0.000864279
0.000836231
0.000809835
0.000784957
0.000762118
0.000741673
0.000724546
0.000708505
0.000693476
0.000679237
0.000665644
0.000652151
0.000638416
0.00062365
0.000607892
0.000591318
0.000573966
0.000555886
0.000537155
0.000517875
0.000498158
0.000478118
0.00045786
0.000437481
0.000417061
0.000396664
0.000376329
0.000356109
0.000336025
0.000316093
0.000296315
0.000276688
0.000257198
0.000237829
0.000218561
0.000199373
0.000180244
0.000161156
0.000142099
0.000123059
0.000104021
8.49881e-05
6.59647e-05
4.69485e-05
2.79408e-05
9.10126e-06
0.00420701
0.00417228
0.00414213
0.00411894
0.00409738
0.0040762
0.00405567
0.00403563
0.00401591
0.0039964
0.00397705
0.00395784
0.00393874
0.00391975
0.00390084
0.00388203
0.00386329
0.00384464
0.00382607
0.00380759
0.00378921
0.00377092
0.00375274
0.00373469
0.00371678
0.00369903
0.00368147
0.00366414
0.00364706
0.00363031
0.00361393
0.00359802
0.00358268
0.00356803
0.00355445
0.00354183
0.00352935
0.0035166
0.00350324
0.00348881
0.00347278
0.00345421
0.00343315
0.00341002
0.0033848
0.00335766
0.00332871
0.00329795
0.00326584
0.00323234
0.00319769
0.00316219
0.00312581
0.00308911
0.00305189
0.00301478
0.00297769
0.00294075
0.00290447
0.0028684
0.00283342
0.00279902
0.00276545
0.00273281
0.00270087
0.00266996
0.00263973
0.00261045
0.00258195
0.00255434
0.00252761
0.00250171
0.00247674
0.00245265
0.00242946
0.00240719
0.00238583
0.00236537
0.00234579
0.00232708
0.0023092
0.00229212
0.00227581
0.00226023
0.00224536
0.00223116
0.0022176
0.00220465
0.00219229
0.00218049
0.00216923
0.00215848
0.00214823
0.00213843
0.00212907
0.00212011
0.00211151
0.0021032
0.00209516
0.00208735
0.00207973
0.00207225
0.00206487
0.00205752
0.00205014
0.00204265
0.00203501
0.00202712
0.00201893
0.00201036
0.00200133
0.00199178
0.00198164
0.00197081
0.00195928
0.00194694
0.00193377
0.00191975
0.00190483
0.00188902
0.00187229
0.00185462
0.00183602
0.00181651
0.00179606
0.00177471
0.00175245
0.00172927
0.00170519
0.00168019
0.00165424
0.00162737
0.00159953
0.00157066
0.00154086
0.00151008
0.00147821
0.00144556
0.0014119
0.00137749
0.00134237
0.00130668
0.00127061
0.00123437
0.00119807
0.00116218
0.00112638
0.00109149
0.00105713
0.00102352
0.000990977
0.000959178
0.000928659
0.000898982
0.000870575
0.000843188
0.000817173
0.000792474
0.000769456
0.000748358
0.000729847
0.000712534
0.000696333
0.000680979
0.000666226
0.000651722
0.000637177
0.000621903
0.000605907
0.000589223
0.000571835
0.000553765
0.000535079
0.000515867
0.000496234
0.000476284
0.000456119
0.000435828
0.00041549
0.000395167
0.000374917
0.00035479
0.000334792
0.000314938
0.000295234
0.000275678
0.000256262
0.000236972
0.000217784
0.000198678
0.000179632
0.000160631
0.000141665
0.000122712
0.00010377
8.48299e-05
6.58879e-05
4.69406e-05
2.79801e-05
9.11926e-06
0.00419146
0.0041656
0.00414003
0.00411846
0.00409758
0.00407681
0.00405645
0.0040365
0.0040168
0.0039973
0.00397796
0.00395876
0.00393967
0.00392069
0.0039018
0.003883
0.00386429
0.00384566
0.00382712
0.00380867
0.0037903
0.00377204
0.00375389
0.00373586
0.00371796
0.00370022
0.00368266
0.00366531
0.00364821
0.00363139
0.00361492
0.00359885
0.00358327
0.00356821
0.00355391
0.00354027
0.00352665
0.00351273
0.00349814
0.00348241
0.00346512
0.00344559
0.0034239
0.00340034
0.0033749
0.00334771
0.0033189
0.00328854
0.00325696
0.0032242
0.00319048
0.00315604
0.00312092
0.00308553
0.00304981
0.00301409
0.00297846
0.00294301
0.0029081
0.00287343
0.00283957
0.00280626
0.00277364
0.00274181
0.0027106
0.00268029
0.00265062
0.00262178
0.00259365
0.00256632
0.00253977
0.00251398
0.00248903
0.00246489
0.00244157
0.00241911
0.00239749
0.00237673
0.00235681
0.00233774
0.00231947
0.00230199
0.00228527
0.00226928
0.00225398
0.00223934
0.00222534
0.00221194
0.00219911
0.00218683
0.00217509
0.00216384
0.00215308
0.00214277
0.00213289
0.0021234
0.00211426
0.00210547
0.00209696
0.00208869
0.00208059
0.00207263
0.00206475
0.00205689
0.00204899
0.00204097
0.00203279
0.00202434
0.00201557
0.0020064
0.00199675
0.00198655
0.00197573
0.00196421
0.00195198
0.00193894
0.00192508
0.00191038
0.00189479
0.00187833
0.00186099
0.00184274
0.00182362
0.00180362
0.00178275
0.00176102
0.00173842
0.00171496
0.00169064
0.00166545
0.00163937
0.00161242
0.00158458
0.00155581
0.00152619
0.00149569
0.00146426
0.00143213
0.00139918
0.0013656
0.00133148
0.00129694
0.00126214
0.00122728
0.00119243
0.00115793
0.00112362
0.00109003
0.00105697
0.00102459
0.000993118
0.000962329
0.000932596
0.00090367
0.000875827
0.000848895
0.000823146
0.000798552
0.000775372
0.000753713
0.000734151
0.000715731
0.000698477
0.000682147
0.000666524
0.000651238
0.000636079
0.000620416
0.000604225
0.00058746
0.000570046
0.000551984
0.000533329
0.000514165
0.000494591
0.000474709
0.000454616
0.0004344
0.000414138
0.000393893
0.000373721
0.00035364
0.000333696
0.000313902
0.000294265
0.000274779
0.000255435
0.000236211
0.000217098
0.000198071
0.000179109
0.000160194
0.000141301
0.000122426
0.000103558
8.46898e-05
6.58161e-05
4.69289e-05
2.80038e-05
9.10867e-06
0.00418369
0.0041611
0.00413785
0.00411743
0.00409721
0.00407692
0.00405685
0.00403706
0.00401746
0.00399802
0.00397872
0.00395954
0.00394048
0.00392151
0.00390265
0.00388387
0.00386517
0.00384657
0.00382804
0.00380961
0.00379126
0.00377301
0.00375487
0.00373683
0.00371893
0.00370117
0.00368358
0.00366618
0.00364899
0.00363207
0.00361543
0.00359914
0.00358325
0.00356772
0.00355279
0.00353834
0.00352377
0.00350882
0.00349316
0.00347637
0.00345811
0.00343783
0.00341564
0.00339177
0.00336619
0.00333906
0.00331049
0.00328057
0.00324958
0.00321761
0.00318481
0.00315142
0.00311749
0.00308332
0.00304889
0.00301447
0.00298012
0.00294591
0.00291213
0.00287855
0.00284562
0.00281316
0.00278129
0.00275011
0.00271951
0.00268969
0.00266047
0.00263203
0.00260423
0.00257716
0.00255081
0.00252515
0.00250025
0.00247609
0.0024527
0.0024301
0.00240829
0.00238729
0.00236711
0.00234772
0.00232913
0.0023113
0.00229422
0.00227786
0.00226218
0.00224715
0.00223274
0.00221893
0.00220567
0.00219295
0.00218075
0.00216903
0.00215779
0.00214699
0.0021366
0.00212663
0.00211699
0.00210771
0.00209869
0.00208994
0.00208136
0.00207293
0.00206457
0.00205623
0.00204784
0.00203932
0.00203061
0.00202161
0.00201227
0.00200249
0.00199221
0.00198134
0.00196984
0.00195762
0.00194468
0.00193094
0.00191639
0.00190102
0.00188479
0.00186772
0.00184982
0.00183106
0.00181148
0.00179108
0.00176986
0.00174782
0.00172499
0.00170134
0.00167688
0.00165162
0.00162553
0.00159864
0.00157094
0.00154239
0.00151307
0.00148298
0.00145209
0.00142058
0.00138839
0.00135568
0.00132254
0.00128908
0.00125544
0.00122179
0.00118814
0.00115483
0.00112172
0.00108918
0.00105714
0.00102568
0.000995004
0.000964939
0.000935816
0.000907414
0.000879991
0.000853378
0.000827819
0.000803256
0.000779934
0.000757793
0.000737565
0.000718211
0.000700059
0.000682904
0.000666587
0.000650724
0.000635141
0.000619203
0.000602851
0.000586012
0.000568557
0.00055047
0.000531803
0.000512638
0.000493072
0.000473206
0.000453136
0.000432951
0.000412724
0.000392519
0.000372386
0.000352361
0.000332476
0.000312746
0.000293176
0.000273765
0.000254499
0.000235363
0.000216337
0.000197399
0.000178527
0.000159698
0.000140895
0.000122103
0.000103313
8.45157e-05
6.57059e-05
4.68721e-05
2.79852e-05
9.08222e-06
0.00417889
0.00415751
0.0041357
0.00411623
0.00409674
0.0040769
0.00405714
0.00403754
0.00401806
0.0039987
0.00397945
0.00396031
0.00394127
0.00392232
0.00390347
0.0038847
0.00386602
0.00384743
0.00382891
0.00381048
0.00379214
0.00377388
0.00375573
0.00373768
0.00371974
0.00370194
0.00368428
0.00366679
0.00364949
0.00363241
0.00361557
0.00359901
0.00358277
0.00356677
0.00355125
0.00353607
0.00352064
0.00350474
0.00348811
0.00347039
0.00345131
0.0034304
0.00340779
0.00338368
0.00335806
0.00333105
0.00330281
0.00327339
0.00324306
0.00321192
0.00318005
0.00314772
0.00311494
0.00308195
0.00304876
0.00301555
0.00298238
0.00294931
0.00291655
0.00288394
0.00285184
0.00282013
0.00278891
0.00275829
0.00272819
0.0026988
0.00266996
0.00264185
0.00261433
0.0025875
0.00256133
0.00253579
0.00251097
0.00248682
0.00246338
0.00244068
0.00241871
0.00239751
0.00237708
0.00235743
0.00233854
0.0023204
0.00230299
0.00228628
0.00227025
0.00225485
0.00224006
0.00222586
0.0022122
0.00219905
0.00218641
0.00217424
0.00216252
0.00215125
0.00214036
0.00212989
0.00211976
0.00210998
0.00210046
0.00209122
0.00208214
0.00207323
0.00206437
0.00205553
0.00204663
0.00203757
0.0020283
0.00201872
0.00200875
0.00199833
0.00198737
0.0019758
0.00196359
0.00195065
0.001937
0.00192255
0.00190732
0.00189131
0.00187448
0.00185686
0.00183846
0.00181926
0.0017993
0.00177857
0.00175708
0.00173483
0.00171183
0.00168808
0.00166358
0.00163833
0.00161232
0.00158556
0.00155808
0.00152983
0.0015009
0.00147129
0.001441
0.00141017
0.00137879
0.00134696
0.0013148
0.00128237
0.00124982
0.00121725
0.00118471
0.00115244
0.00112035
0.00108872
0.00105751
0.00102679
0.000996754
0.000967241
0.000938587
0.00091056
0.000883454
0.000857065
0.000831638
0.000807063
0.000783623
0.000761054
0.000740362
0.000720233
0.000701313
0.00068347
0.000666596
0.00065026
0.000634352
0.000618138
0.000601593
0.000584636
0.000567087
0.000548921
0.000530195
0.000510989
0.000491401
0.000471529
0.00045147
0.00043131
0.00041112
0.000390963
0.000370887
0.00035093
0.000331117
0.000311465
0.000291978
0.000272652
0.000253476
0.000234432
0.000215499
0.000196653
0.000177871
0.000159132
0.000140417
0.00012171
0.000102999
8.42766e-05
6.55343e-05
4.67606e-05
2.79301e-05
9.05009e-06
0.00417566
0.00415479
0.0041339
0.00411519
0.00409627
0.00407684
0.00405737
0.00403799
0.00401866
0.00399938
0.00398019
0.00396109
0.00394207
0.00392314
0.00390429
0.00388553
0.00386685
0.00384825
0.00382973
0.00381129
0.00379293
0.00377466
0.00375647
0.00373838
0.00372039
0.00370252
0.00368477
0.00366716
0.00364971
0.00363244
0.00361537
0.00359851
0.0035819
0.00356544
0.00354935
0.00353349
0.00351726
0.00350048
0.00348298
0.00346442
0.00344463
0.0034232
0.00340026
0.003376
0.00335042
0.00332363
0.00329578
0.00326692
0.00323729
0.00320699
0.00317609
0.00314479
0.00311314
0.00308129
0.00304927
0.00301721
0.00298516
0.00295315
0.00292134
0.00288964
0.00285832
0.00282729
0.00279667
0.00276654
0.00273688
0.00270784
0.00267931
0.00265146
0.00262417
0.00259751
0.00257149
0.00254605
0.00252129
0.00249715
0.00247366
0.00245087
0.00242877
0.00240739
0.00238675
0.00236685
0.00234769
0.00232927
0.00231155
0.00229453
0.00227817
0.00226244
0.00224729
0.00223273
0.00221868
0.00220514
0.00219208
0.00217947
0.00216729
0.00215555
0.00214418
0.00213322
0.00212257
0.00211229
0.00210226
0.0020925
0.00208291
0.00207347
0.00206409
0.0020547
0.00204524
0.00203559
0.00202572
0.0020155
0.00200487
0.00199375
0.00198208
0.00196979
0.00195685
0.00194319
0.00192883
0.00191372
0.00189786
0.00188126
0.0018639
0.00184581
0.00182699
0.00180744
0.00178718
0.00176622
0.00174454
0.00172217
0.00169909
0.00167531
0.00165084
0.00162568
0.00159981
0.00157327
0.00154607
0.00151819
0.00148971
0.00146064
0.00143098
0.00140087
0.0013703
0.00133936
0.00130814
0.00127671
0.00124516
0.0012136
0.00118206
0.00115072
0.00111952
0.00108868
0.00105817
0.00102806
0.000998545
0.000969458
0.000941146
0.000913378
0.000886473
0.000860205
0.000834833
0.000810206
0.000786673
0.000763753
0.000742731
0.000722016
0.000702467
0.000684062
0.000666726
0.000649962
0.000633705
0.000617148
0.000600323
0.000583154
0.000565426
0.00054711
0.000528273
0.000508998
0.000489376
0.000469506
0.000449477
0.00042937
0.000409252
0.00038918
0.000369198
0.00034934
0.000329628
0.000310077
0.00029069
0.000271462
0.00025238
0.000233428
0.000214583
0.000195824
0.000177127
0.000158471
0.000139839
0.000121214
0.000102586
8.39436e-05
6.52796e-05
4.65827e-05
2.78348e-05
9.01232e-06
0.00417347
0.00415285
0.00413252
0.00411434
0.00409586
0.00407678
0.00405758
0.0040384
0.00401921
0.00400004
0.00398092
0.00396187
0.00394287
0.00392395
0.00390511
0.00388635
0.00386766
0.00384905
0.00383051
0.00381204
0.00379366
0.00377534
0.00375711
0.00373896
0.00372089
0.00370293
0.00368506
0.00366731
0.00364969
0.0036322
0.00361486
0.00359768
0.00358068
0.00356377
0.00354713
0.0035306
0.00351364
0.00349608
0.00347779
0.00345851
0.00343811
0.00341626
0.0033931
0.00336876
0.00334329
0.00331679
0.00328937
0.00326111
0.00323221
0.00320272
0.0031728
0.00314252
0.00311195
0.0030812
0.00305029
0.00301932
0.00298833
0.00295733
0.00292644
0.00289562
0.00286505
0.00283469
0.00280463
0.00277498
0.00274572
0.002717
0.00268873
0.00266108
0.00263396
0.00260743
0.00258149
0.00255611
0.00253137
0.00250721
0.00248368
0.0024608
0.00243856
0.00241702
0.00239617
0.00237605
0.00235663
0.00233793
0.00231993
0.0023026
0.00228593
0.00226987
0.00225439
0.00223948
0.00222507
0.00221115
0.00219769
0.00218467
0.00217204
0.00215985
0.00214799
0.00213654
0.00212538
0.00211457
0.002104
0.00209371
0.00208356
0.00207356
0.0020636
0.00205361
0.00204354
0.00203325
0.00202272
0.00201181
0.00200047
0.00198863
0.00197622
0.0019632
0.00194954
0.00193519
0.00192017
0.00190444
0.00188802
0.00187091
0.00185311
0.00183463
0.00181549
0.00179569
0.00177522
0.00175411
0.00173234
0.00170992
0.00168685
0.00166312
0.00163875
0.00161376
0.00158809
0.00156182
0.00153496
0.0015075
0.00147951
0.00145101
0.00142201
0.00139263
0.00136285
0.00133278
0.00130247
0.00127197
0.00124137
0.00121074
0.00118011
0.00114962
0.00111921
0.00108906
0.00105918
0.0010296
0.0010005
0.000971755
0.000943682
0.000916079
0.000889268
0.000863027
0.000837629
0.000812905
0.000789284
0.000766102
0.000744826
0.000723688
0.000703654
0.000684788
0.000667031
0.000649819
0.000633116
0.000616112
0.000598891
0.000581392
0.000563388
0.000544856
0.000525871
0.000506514
0.000486871
0.000467031
0.000447075
0.000427072
0.000407081
0.000387147
0.000367309
0.000347593
0.000328019
0.000308596
0.000289326
0.000270204
0.000251219
0.000232354
0.000213589
0.000194905
0.000176281
0.000157699
0.000139142
0.000120597
0.000102053
8.34999e-05
6.493e-05
4.63323e-05
2.76967e-05
8.96853e-06
0.00417199
0.00415152
0.00413153
0.0041137
0.00409554
0.00407674
0.00405777
0.00403877
0.00401972
0.00400065
0.0039816
0.00396259
0.00394362
0.00392472
0.00390588
0.00388712
0.00386842
0.00384979
0.00383123
0.00381274
0.00379431
0.00377595
0.00375766
0.00373943
0.00372128
0.0037032
0.0036852
0.00366728
0.00364946
0.00363173
0.00361411
0.00359659
0.00357919
0.00356184
0.00354465
0.00352747
0.00350983
0.00349158
0.0034726
0.00345269
0.00343179
0.00340962
0.00338631
0.00336197
0.00333666
0.00331048
0.00328353
0.00325589
0.00322773
0.00319905
0.00317005
0.00314075
0.00311121
0.0030815
0.00305165
0.00302171
0.00299174
0.00296172
0.00293171
0.00290174
0.00287193
0.00284225
0.00281276
0.0027836
0.00275476
0.00272635
0.00269834
0.00267088
0.0026439
0.00261746
0.00259158
0.00256621
0.00254145
0.00251726
0.00249365
0.00247066
0.00244829
0.00242656
0.00240552
0.00238516
0.00236549
0.00234651
0.00232821
0.00231057
0.00229358
0.00227719
0.00226136
0.0022461
0.00223132
0.00221702
0.00220317
0.00218973
0.00217668
0.00216402
0.00215168
0.00213973
0.00212805
0.0021167
0.00210556
0.00209469
0.00208394
0.00207334
0.00206274
0.00205211
0.00204136
0.00203038
0.00201914
0.0020075
0.00199542
0.00198285
0.00196971
0.00195598
0.00194163
0.00192664
0.00191103
0.00189476
0.00187787
0.00186035
0.0018422
0.00182344
0.00180407
0.0017841
0.00176352
0.00174234
0.00172056
0.00169816
0.00167516
0.00165154
0.00162735
0.00160255
0.00157715
0.00155119
0.00152472
0.00149771
0.00147023
0.00144231
0.00141397
0.0013853
0.00135631
0.00132706
0.0012976
0.00126799
0.00123827
0.0012085
0.00117871
0.00114901
0.00111934
0.00108981
0.00106049
0.0010314
0.00100268
0.000974227
0.000946329
0.000918838
0.000892045
0.000865766
0.000840271
0.00081541
0.000791673
0.000768298
0.000746777
0.000725335
0.000704916
0.000685633
0.00066743
0.0006497
0.000632423
0.000614869
0.000597143
0.000579201
0.000560837
0.000542042
0.000522893
0.000503466
0.000483834
0.000464074
0.00044425
0.000424415
0.000404612
0.000384876
0.000365235
0.000345706
0.000326304
0.000307034
0.000287897
0.000268889
0.000249998
0.000231213
0.000212518
0.000193896
0.000175333
0.000156813
0.000138326
0.000119858
0.000101401
8.29475e-05
6.44886e-05
4.60139e-05
2.75185e-05
8.92049e-06
0.00417107
0.0041507
0.00413092
0.00411331
0.00409536
0.00407677
0.00405797
0.00403911
0.00402017
0.00400119
0.0039822
0.00396323
0.0039443
0.00392542
0.00390659
0.00388783
0.00386912
0.00385048
0.0038319
0.00381338
0.00379491
0.00377649
0.00375814
0.00373983
0.00372157
0.00370337
0.00368522
0.00366713
0.00364909
0.00363111
0.00361319
0.00359533
0.00357753
0.00355973
0.003542
0.00352419
0.00350592
0.00348705
0.00346747
0.00344704
0.00342572
0.00340331
0.00337991
0.00335562
0.00333051
0.00330468
0.00327821
0.00325118
0.00322372
0.00319586
0.00316773
0.00313936
0.00311079
0.00308206
0.0030532
0.00302424
0.00299521
0.00296611
0.00293699
0.00290785
0.00287881
0.00284984
0.00282093
0.0027923
0.00276393
0.00273587
0.00270815
0.00268089
0.00265408
0.00262774
0.00260189
0.00257652
0.00255173
0.00252748
0.00250378
0.00248066
0.00245812
0.0024362
0.00241494
0.00239433
0.00237438
0.0023551
0.00233648
0.0023185
0.00230115
0.0022844
0.0022682
0.00225256
0.00223739
0.00222268
0.00220842
0.00219455
0.00218104
0.00216792
0.00215509
0.00214261
0.00213039
0.00211847
0.00210675
0.00209527
0.00208388
0.00207261
0.00206134
0.00205001
0.00203854
0.00202684
0.00201484
0.00200247
0.00198965
0.00197635
0.00196251
0.00194811
0.00193315
0.00191761
0.00190149
0.00188479
0.00186752
0.00184969
0.0018313
0.00181235
0.00179286
0.0017728
0.00175218
0.001731
0.00170926
0.00168694
0.00166406
0.00164061
0.0016166
0.00159203
0.00156694
0.00154134
0.00151526
0.00148871
0.00146175
0.00143441
0.00140671
0.00137873
0.00135048
0.00132201
0.00129337
0.00126457
0.00123567
0.0012067
0.00117769
0.00114873
0.00111975
0.00109081
0.00106203
0.00103342
0.00100506
0.000976876
0.000949129
0.000921736
0.000894927
0.000868574
0.000842935
0.000817911
0.000794006
0.000770475
0.000748653
0.000726962
0.000706195
0.000686485
0.000667751
0.000649412
0.000631443
0.000613265
0.000594967
0.000576502
0.000557725
0.000538649
0.000519346
0.000499874
0.000480298
0.000460677
0.000441053
0.000421451
0.000401897
0.000382413
0.000363013
0.000343709
0.000324506
0.000305408
0.000286414
0.000267521
0.000248723
0.000230011
0.000211375
0.000192805
0.000174291
0.000155827
0.000137403
0.000119013
0.000100649
8.23041e-05
6.39718e-05
4.56409e-05
2.73089e-05
8.87273e-06
0.00417061
0.00415032
0.00413066
0.00411318
0.00409536
0.00407689
0.0040582
0.00403943
0.00402057
0.00400165
0.00398272
0.00396379
0.00394489
0.00392603
0.00390722
0.00388846
0.00386976
0.00385111
0.00383251
0.00381396
0.00379545
0.00377698
0.00375856
0.00374018
0.00372182
0.00370348
0.00368518
0.00366691
0.00364865
0.00363042
0.0036122
0.00359399
0.00357578
0.00355753
0.00353928
0.00352087
0.00350202
0.0034826
0.00346249
0.00344162
0.00341995
0.00339737
0.00337393
0.00334971
0.00332482
0.00329934
0.00327335
0.00324692
0.00322013
0.00319305
0.00316573
0.00313822
0.00311055
0.00308273
0.0030548
0.00302675
0.0029986
0.00297038
0.00294209
0.00291381
0.00288551
0.00285721
0.00282894
0.00280089
0.00277303
0.00274539
0.00271801
0.00269101
0.00266444
0.00263824
0.00261243
0.00258707
0.00256224
0.00253795
0.00251416
0.00249089
0.00246817
0.00244604
0.00242453
0.00240364
0.00238339
0.00236378
0.0023448
0.00232642
0.00230867
0.00229151
0.0022749
0.00225882
0.0022432
0.00222804
0.00221331
0.00219898
0.00218499
0.00217136
0.00215801
0.002145
0.00213221
0.0021197
0.00210736
0.00209523
0.00208317
0.00207121
0.00205922
0.00204716
0.00203495
0.0020225
0.00200976
0.00199665
0.00198312
0.00196914
0.00195466
0.00193968
0.0019242
0.0019082
0.0018917
0.00187468
0.00185715
0.00183911
0.00182057
0.00180152
0.00178197
0.00176189
0.00174129
0.00172015
0.00169849
0.00167629
0.00165355
0.00163029
0.00160648
0.00158218
0.0015574
0.00153216
0.00150648
0.00148039
0.00145394
0.00142716
0.00140008
0.00137275
0.0013452
0.00131746
0.00128956
0.00126153
0.00123339
0.00120517
0.00117689
0.00114859
0.00112026
0.00109192
0.00106366
0.00103553
0.00100754
0.000979625
0.000952032
0.000924753
0.000897928
0.000871487
0.000845679
0.00082048
0.000796346
0.000772663
0.000750458
0.000728504
0.000707376
0.000687188
0.000667805
0.000648798
0.000630072
0.00061122
0.000592304
0.000573293
0.000554122
0.000534803
0.000515367
0.000495862
0.000476362
0.000456933
0.000437574
0.000418266
0.000399011
0.000379819
0.000360695
0.000341639
0.00032265
0.00030373
0.000284882
0.000266103
0.000247393
0.000228751
0.000210168
0.000191642
0.000173172
0.000154759
0.000136399
0.000118088
9.98221e-05
8.15963e-05
6.34036e-05
4.52326e-05
2.70803e-05
8.8322e-06
0.00417057
0.00415035
0.00413074
0.00411331
0.00409554
0.00407712
0.00405848
0.00403975
0.00402094
0.00400206
0.00398316
0.00396427
0.0039454
0.00392656
0.00390777
0.00388902
0.00387032
0.00385167
0.00383306
0.00381449
0.00379595
0.00377744
0.00375895
0.00374049
0.00372203
0.00370358
0.00368513
0.00366668
0.00364821
0.00362971
0.0036112
0.00359266
0.00357405
0.00355537
0.0035366
0.00351763
0.00349824
0.00347831
0.00345775
0.00343648
0.00341453
0.00339181
0.00336836
0.00334424
0.00331957
0.00329444
0.00326891
0.00324304
0.00321689
0.00319052
0.00316396
0.00313725
0.0031104
0.00308341
0.00305631
0.0030291
0.00300178
0.00297438
0.00294688
0.00291938
0.00289179
0.00286421
0.00283663
0.00280917
0.00278186
0.00275472
0.00272773
0.00270101
0.00267468
0.0026487
0.00262304
0.00259774
0.00257292
0.00254862
0.00252477
0.00250136
0.00247844
0.00245608
0.0024343
0.0024131
0.00239251
0.00237255
0.00235319
0.00233435
0.00231612
0.00229849
0.00228141
0.00226485
0.00224873
0.00223306
0.0022178
0.00220294
0.00218841
0.00217424
0.00216034
0.00214674
0.00213336
0.00212022
0.00210724
0.00209444
0.00208169
0.00206901
0.00205629
0.00204348
0.00203052
0.00201735
0.00200391
0.00199011
0.00197593
0.00196135
0.00194635
0.00193089
0.00191496
0.00189861
0.00188186
0.00186464
0.00184693
0.00182878
0.00181017
0.00179109
0.00177153
0.00175147
0.00173091
0.00170985
0.00168828
0.0016662
0.00164362
0.00162054
0.00159696
0.00157293
0.00154845
0.00152356
0.00149827
0.00147263
0.00144666
0.00142042
0.00139392
0.00136721
0.0013403
0.00131324
0.00128602
0.00125869
0.00123125
0.00120372
0.00117612
0.00114845
0.00112074
0.00109298
0.00106526
0.00103762
0.00100994
0.000982315
0.000954896
0.000927787
0.000900988
0.000874461
0.000848472
0.000823093
0.000798667
0.000774799
0.000752132
0.000729862
0.000708334
0.000687616
0.000667555
0.000647883
0.00062842
0.000608783
0.00058912
0.00056959
0.000550094
0.000530577
0.000511067
0.000491626
0.000472299
0.000453104
0.000434015
0.000415001
0.000396052
0.000377164
0.000358324
0.000339527
0.000320755
0.000302015
0.00028331
0.000264639
0.000246009
0.000227428
0.000208896
0.000190415
0.000171993
0.000153633
0.00013534
0.000117114
9.89533e-05
8.08548e-05
6.28116e-05
4.48117e-05
2.68468e-05
8.80527e-06
0.00417095
0.00415078
0.00413116
0.0041137
0.00409591
0.00407746
0.00405881
0.00404008
0.00402127
0.0040024
0.00398353
0.00396466
0.00394581
0.003927
0.00390823
0.0038895
0.00387082
0.00385217
0.00383356
0.00381498
0.00379642
0.00377787
0.00375933
0.0037408
0.00372225
0.00370369
0.0036851
0.00366649
0.00364782
0.00362909
0.0036103
0.00359141
0.00357242
0.00355331
0.00353406
0.00351456
0.00349468
0.00347429
0.0034533
0.00343169
0.00340947
0.00338662
0.00336316
0.00333919
0.00331475
0.00328994
0.00326483
0.00323949
0.00321393
0.00318821
0.00316234
0.00313634
0.00311023
0.00308398
0.00305765
0.0030312
0.00300464
0.002978
0.00295124
0.00292447
0.00289759
0.0028707
0.00284379
0.00281693
0.00279016
0.00276352
0.00273703
0.00271072
0.0026847
0.00265897
0.0026335
0.0026083
0.0025835
0.00255919
0.00253533
0.00251185
0.00248878
0.00246621
0.00244417
0.00242266
0.00240173
0.00238138
0.00236161
0.00234233
0.00232358
0.00230541
0.00228778
0.00227063
0.00225395
0.00223771
0.00222188
0.00220643
0.00219132
0.00217655
0.00216205
0.00214783
0.00213382
0.00212003
0.00210639
0.0020929
0.00207946
0.00206608
0.00205265
0.00203911
0.00202536
0.00201145
0.00199739
0.00198303
0.00196829
0.0019532
0.00193776
0.00192195
0.00190575
0.00188918
0.00187223
0.00185487
0.00183707
0.00181886
0.00180025
0.00178117
0.00176162
0.00174159
0.00172108
0.00170009
0.00167861
0.00165665
0.00163422
0.00161131
0.00158796
0.00156418
0.00153999
0.00151543
0.00149051
0.0014653
0.00143979
0.00141405
0.00138809
0.00136194
0.00133563
0.00130918
0.00128259
0.00125591
0.0012291
0.00120222
0.00117524
0.00114818
0.00112106
0.00109386
0.00106664
0.00103943
0.00101214
0.000984886
0.000957704
0.000930764
0.000903953
0.000877311
0.000851113
0.000825584
0.000800836
0.000776756
0.000753585
0.000730945
0.000708964
0.000687606
0.000666851
0.000646466
0.000626237
0.000606003
0.000585844
0.000565805
0.000545961
0.0005263
0.000506755
0.000487395
0.000468246
0.000449288
0.000430475
0.000411767
0.00039313
0.000374537
0.000355965
0.000337417
0.000318842
0.00030027
0.000281699
0.000263132
0.000244581
0.000226059
0.000207576
0.000189142
0.000170769
0.000152469
0.000134249
0.000116114
9.80661e-05
8.01014e-05
6.22143e-05
4.43934e-05
2.66324e-05
8.8071e-06
0.0041718
0.00415166
0.00413195
0.00411437
0.00409646
0.00407791
0.00405918
0.0040404
0.00402156
0.00400269
0.00398382
0.00396496
0.00394614
0.00392736
0.00390862
0.00388992
0.00387126
0.00385263
0.00383403
0.00381545
0.00379688
0.00377831
0.00375973
0.00374114
0.00372252
0.00370386
0.00368515
0.00366638
0.00364754
0.00362859
0.00360953
0.00359034
0.003571
0.0035515
0.00353179
0.00351179
0.00349143
0.0034706
0.00344921
0.00342729
0.00340483
0.00338186
0.00335837
0.00333449
0.00331028
0.00328578
0.00326107
0.00323621
0.00321118
0.00318604
0.00316078
0.00313542
0.00310996
0.00308439
0.00305874
0.00303297
0.0030071
0.00298116
0.00295509
0.002929
0.00290279
0.00287657
0.00285031
0.00282406
0.00279787
0.00277176
0.00274575
0.00271987
0.00269417
0.0026687
0.00264348
0.00261853
0.00259387
0.00256958
0.00254568
0.00252214
0.00249898
0.00247622
0.00245394
0.00243215
0.00241088
0.00239014
0.00236993
0.00235024
0.00233102
0.00231228
0.00229402
0.00227625
0.00225895
0.0022421
0.00222565
0.00220956
0.00219383
0.00217841
0.00216327
0.00214839
0.00213373
0.00211927
0.00210495
0.00209076
0.00207663
0.00206254
0.00204841
0.00203419
0.00201983
0.00200533
0.00199065
0.00197572
0.00196053
0.00194506
0.0019293
0.00191323
0.00189684
0.00188012
0.00186305
0.00184561
0.00182778
0.00180955
0.00179091
0.00177182
0.00175228
0.00173228
0.00171181
0.00169087
0.00166947
0.0016476
0.00162529
0.00160255
0.00157938
0.00155584
0.00153192
0.00150767
0.0014831
0.00145828
0.00143319
0.00140791
0.00138244
0.00135682
0.00133105
0.00130516
0.00127915
0.00125305
0.00122684
0.00120055
0.00117415
0.00114767
0.0011211
0.00109445
0.00106771
0.00104095
0.00101406
0.000987177
0.000960225
0.000933407
0.000906618
0.00087998
0.000853662
0.000827899
0.00080271
0.000778343
0.000754599
0.000731493
0.000709041
0.000687151
0.000665746
0.000644741
0.000623884
0.000603112
0.000582508
0.000562111
0.000541997
0.000522183
0.000502643
0.000483395
0.000464425
0.00044569
0.000427132
0.000408696
0.000390329
0.000371994
0.000353658
0.000335308
0.000316911
0.000298487
0.000280037
0.000261568
0.000243096
0.000224638
0.000206212
0.000187836
0.000169525
0.000151296
0.00013316
0.000115125
9.71945e-05
7.93669e-05
6.16375e-05
4.39964e-05
2.64379e-05
8.82644e-06
0.00417319
0.00415305
0.00413313
0.0041153
0.00409717
0.00407844
0.00405957
0.00404071
0.00402181