/*--------------------------------*- C++ -*----------------------------------*\
| =========                 |                                                 |
| \\      /  F ield         | OpenFOAM: The Open Source CFD Toolbox           |
|  \\    /   O peration     | Version:  2506                                  |
|   \\  /    A nd           | Website:  www.openfoam.com                      |
|    \\/     M anipulation  |                                                 |
\*---------------------------------------------------------------------------*/
FoamFile
{
    version     2.0;
    format      ascii;
    arch        "LSB;label=32;scalar=64";
    class       volVectorField;
    location    "3.3";
    object      U;
}
// * * * * * * * * * * * * * * * * * * * * * * * * * * * * * * * * * * * * * //

dimensions      [0 1 -1 0 0 0 0];

internalField   nonuniform List<vector> 
4000
(
(0.0055624 0.000667756 0)
(0.00438229 0.000764107 3.38957e-21)
(0.00303506 0.000449923 -3.49295e-21)
(0.00196206 0.000239309 -7.11682e-21)
(0.00125596 0.000136443 1.44325e-20)
(0.000773772 7.99703e-05 -7.28351e-21)
(0.000420997 4.77941e-05 0)
(0.000155678 2.92187e-05 0)
(-4.88124e-05 1.74378e-05 0)
(-0.000209259 9.12852e-06 -1.44549e-20)
(-0.000337288 2.76295e-06 1.44222e-20)
(-0.000440631 -2.32549e-06 -2.85214e-20)
(-0.000524713 -6.4353e-06 2.84785e-20)
(-0.000593709 -9.80115e-06 0)
(-0.000650962 -1.25981e-05 0)
(-0.000699301 -1.49687e-05 0)
(-0.000740619 -1.70125e-05 -2.76806e-20)
(-0.000776895 -1.88069e-05 2.76611e-20)
(-0.000809327 -2.04221e-05 0)
(-0.000839242 -2.19107e-05 0)
(-0.000867483 -2.33287e-05 0)
(-0.000894676 -2.47191e-05 0)
(-0.000921264 -2.61069e-05 0)
(-0.000947527 -2.75108e-05 -5.32088e-20)
(-0.000973619 -2.89513e-05 1.06087e-19)
(-0.000999491 -3.04508e-05 -5.28782e-20)
(-0.00102497 -3.20295e-05 0)
(-0.00104964 -3.37127e-05 0)
(-0.00107298 -3.554e-05 0)
(-0.00109403 -3.75841e-05 0)
(-0.00111113 -3.99582e-05 5.11745e-20)
(-0.00112075 -4.32343e-05 -5.11661e-20)
(-0.00111807 -4.9615e-05 0)
(-0.0010918 -6.16883e-05 -4.41391e-20)
(-0.00104101 -9.83082e-05 -5.00709e-20)
(-0.000976894 -0.000156631 2.51821e-19)
(-0.000904924 -0.000210313 2.02202e-19)
(-0.000821492 -0.000244837 -5.11132e-20)
(-0.000723561 -0.000255086 2.05814e-19)
(-0.000614712 -0.000235072 4.67229e-19)
(-0.00047932 -0.000178117 -5.25544e-20)
(-0.000322887 -8.3617e-05 -4.21724e-19)
(-0.000154771 2.92484e-05 4.23474e-19)
(1.47529e-05 0.000139787 0)
(0.000173255 0.000238207 0)
(0.000316046 0.000320696 2.63483e-20)
(0.000448078 0.000387088 3.94926e-19)
(0.000560336 0.000433529 3.94538e-19)
(0.000653744 0.000460958 2.36392e-19)
(0.000730468 0.000469669 2.09367e-19)
(0.000781587 0.000459231 -2.08625e-19)
(0.000813283 0.00043317 0)
(0.000813891 0.000390322 2.58253e-20)
(0.000786653 0.00033553 -4.38884e-19)
(0.000726362 0.000270512 0)
(0.00063051 0.000198072 1.02196e-19)
(0.000503603 0.00012521 2.52522e-20)
(0.000337479 5.87763e-05 -8.75233e-25)
(0.000149735 5.77101e-06 2.64658e-22)
(-6.47438e-05 -2.47752e-05 1.26581e-20)
(-0.000293593 -3.25679e-05 -2.42619e-20)
(-0.000517518 -1.19553e-05 0)
(-0.000734987 3.28477e-05 0)
(-0.000935837 9.79537e-05 -4.59896e-20)
(-0.00111283 0.000181003 -3.17905e-19)
(-0.00127118 0.000272145 -4.42898e-20)
(-0.00140019 0.000371581 4.43482e-20)
(-0.00151416 0.000469731 -4.26461e-20)
(-0.00160378 0.000567133 -1.26063e-19)
(-0.00168018 0.000657196 2.89535e-19)
(-0.00174462 0.0007416 4.08103e-20)
(-0.00179348 0.000818953 -9.44995e-22)
(-0.00183624 0.000887204 0)
(-0.00186827 0.000947882 0)
(-0.00189023 0.000998617 0)
(-0.00190578 0.00103956 1.84863e-20)
(-0.00191333 0.00107148 2.74057e-19)
(-0.00191188 0.00109352 0)
(-0.00190447 0.00110618 -1.0043e-21)
(-0.00189147 0.00111074 -1.73223e-20)
(-0.00187301 0.00110764 2.74306e-19)
(-0.00185103 0.00109781 -2.4547e-19)
(-0.00182646 0.00108239 -7.50811e-23)
(-0.00180049 0.00106207 -2.65763e-19)
(-0.00177567 0.00103802 -1.19436e-21)
(-0.0017513 0.00101085 2.51648e-19)
(-0.00172726 0.000980072 2.51698e-19)
(-0.00170744 0.000946736 -2.52315e-19)
(-0.00168935 0.000911271 3.79529e-21)
(-0.00167109 0.000872093 2.38256e-19)
(-0.00165752 0.000829918 0)
(-0.00164483 0.000785265 2.37894e-19)
(-0.00163154 0.000736251 2.19942e-19)
(-0.00162221 0.000683794 -2.23571e-19)
(-0.00161009 0.000627557 1.23883e-19)
(-0.00160151 0.000566779 -1.35601e-20)
(-0.00159044 0.000502722 -1.06774e-19)
(-0.00158107 0.000434462 -1.30944e-20)
(-0.00156848 0.000363706 -9.07697e-20)
(-0.00155769 0.000289279 -6.39672e-20)
(-0.00154518 0.000214429 2.53123e-20)
(-0.00153153 0.000137561 -6.27429e-20)
(-0.0015193 6.16973e-05 6.24164e-21)
(-0.00150341 -1.16365e-05 6.21085e-21)
(-0.00148669 -8.32194e-05 2.47252e-20)
(-0.00146755 -0.000150855 0)
(-0.00144511 -0.000215764 0)
(-0.00142233 -0.000274427 1.95223e-19)
(-0.00139414 -0.000326965 6.22382e-21)
(-0.00136332 -0.000372151 -1.03168e-19)
(-0.00132796 -0.000409201 -1.00376e-19)
(-0.00128813 -0.000437333 -3.14762e-21)
(-0.00124267 -0.000456527 1.04754e-19)
(-0.00119274 -0.000465574 2.22179e-22)
(-0.00113484 -0.000465652 0)
(-0.00107468 -0.000455915 -2.0576e-19)
(-0.00100718 -0.000436576 6.42744e-21)
(-0.000934685 -0.000408883 1.93552e-19)
(-0.000858574 -0.000373002 6.50949e-21)
(-0.000777717 -0.000329922 2.07821e-19)
(-0.000693498 -0.000280632 6.48158e-22)
(-0.000607393 -0.000226199 -2.08093e-19)
(-0.000520155 -0.00016799 -1.29429e-20)
(-0.000432041 -0.00010739 2.33852e-19)
(-0.000344938 -4.5609e-05 -1.30335e-20)
(-0.000259091 1.60729e-05 -2.07159e-19)
(-0.000175169 7.65092e-05 -2.57001e-20)
(-9.44693e-05 0.000134533 2.58808e-20)
(-1.76204e-05 0.00018969 -2.05257e-19)
(5.71594e-05 0.000241443 1.78045e-19)
(0.000126895 0.000288097 2.54834e-20)
(0.000191701 0.000329076 3.76837e-19)
(0.00025503 0.000364673 2.5123e-20)
(0.000311971 0.000393081 1.98256e-19)
(0.000361964 0.000414041 -7.4539e-22)
(0.000411959 0.000428292 0)
(0.000450129 0.000433304 0)
(0.000482408 0.000429461 3.71135e-22)
(0.000504209 0.000416635 0)
(0.000513053 0.000393993 2.32417e-20)
(0.000506282 0.000362476 6.89393e-20)
(0.000478425 0.000322032 2.26457e-20)
(0.000423348 0.000275118 4.47698e-20)
(0.000343005 0.000225881 2.24335e-20)
(0.000225938 0.000179919 6.5194e-20)
(8.54599e-05 0.000137854 -2.15438e-20)
(-9.1694e-05 0.000108681 0)
(-0.000293164 9.44354e-05 0)
(-0.000507878 0.000101976 0)
(-0.000731071 0.000133095 1.88281e-20)
(-0.000948707 0.000184167 -1.87506e-20)
(-0.0011536 0.000258759 -7.14039e-20)
(-0.00134062 0.000345099 -6.89335e-20)
(-0.00149957 0.000446686 0)
(-0.00163654 0.000549774 6.41838e-20)
(-0.00174284 0.000657075 0)
(-0.00183096 0.000756876 1.45391e-20)
(-0.00189087 0.00085017 -7.23324e-20)
(-0.00190676 0.000907654 1.37133e-20)
(-0.00184906 0.000878471 -2.29351e-19)
(-0.0018914 0.000773048 5.18632e-20)
(-0.00196661 0.000687619 5.03047e-20)
(-0.00200999 0.000584195 0)
(-0.00201872 0.000462713 0)
(-0.00200937 0.000331102 0)
(-0.00198759 0.000205269 0)
(-0.00195756 0.000104305 0)
(-0.00189526 5.48553e-05 -1.00116e-20)
(-0.00177328 3.59898e-05 3.50925e-22)
(-0.00162458 2.69217e-05 3.46271e-22)
(-0.00147872 2.32854e-05 9.41899e-21)
(-0.00135059 2.29938e-05 0)
(-0.00124713 2.41844e-05 -8.44189e-21)
(-0.00116973 2.56943e-05 8.44338e-21)
(-0.00111683 2.68658e-05 -2.48602e-22)
(-0.00108547 2.74773e-05 0)
(-0.00107147 2.83202e-05 0)
(-0.00106963 2.92787e-05 6.86666e-21)
(-0.00107532 2.98042e-05 -6.85545e-21)
(-0.00108468 2.98873e-05 0)
(-0.00109454 2.91665e-05 0)
(-0.00110288 2.77185e-05 2.6139e-21)
(-0.00110807 2.59138e-05 -1.56783e-22)
(-0.00110902 2.38142e-05 -2.62792e-21)
(-0.00110576 2.15671e-05 0)
(-0.00109898 1.93732e-05 0)
(-0.00108969 1.73642e-05 0)
(-0.00107929 1.5378e-05 0)
(-0.00106953 1.34747e-05 -1.09019e-22)
(-0.00106187 1.19619e-05 0)
(-0.0010574 1.09524e-05 0)
(-0.00105691 1.04918e-05 0)
(-0.00106074 1.04308e-05 -5.24331e-22)
(-0.001069 1.03475e-05 5.23395e-22)
(-0.0010817 1.01623e-05 0)
(-0.00109849 9.89587e-06 -4.17655e-23)
(-0.00111874 9.55069e-06 -1.11708e-22)
(-0.00114242 9.1094e-06 7.41454e-23)
(-0.00117295 9.7443e-06 3.72469e-23)
(-0.00120948 1.49031e-05 0)
(0.00725968 0.0013154 0)
(0.00717874 0.002059 0)
(0.00660216 0.00175685 0)
(0.0057283 0.00135592 -7.08891e-21)
(0.00485257 0.00100633 1.4451e-20)
(0.00408018 0.000743377 -7.34972e-21)
(0.00342578 0.000557769 0)
(0.00288162 0.000427432 -1.49491e-20)
(0.00243384 0.000333692 1.51128e-20)
(0.00206578 0.000264644 -1.51121e-20)
(0.00176225 0.000212381 1.5224e-20)
(0.00151104 0.000171999 3.03496e-20)
(0.00130225 0.000140671 -3.05035e-20)
(0.00112747 0.000116463 -3.03402e-20)
(0.000979668 9.79054e-05 1.47651e-22)
(0.000852978 8.38388e-05 6.0632e-20)
(0.000742515 7.34145e-05 -3.03192e-20)
(0.000644164 6.59391e-05 0)
(0.000554531 6.08131e-05 0)
(0.000470785 5.75449e-05 0)
(0.000390653 5.56648e-05 0)
(0.000312326 5.47786e-05 0)
(0.000234407 5.45688e-05 0)
(0.00015585 5.47656e-05 0)
(7.59068e-05 5.51127e-05 0)
(-5.89911e-06 5.53571e-05 0)
(-8.98104e-05 5.52385e-05 0)
(-0.000175799 5.446e-05 0)
(-0.00026358 5.26044e-05 0)
(-0.000352514 4.90115e-05 0)
(-0.000441534 4.25874e-05 5.65732e-20)
(-0.000528679 3.11824e-05 -2.75767e-22)
(-0.000609447 1.01831e-05 -1.11937e-19)
(-0.000693339 -2.61153e-05 4.88014e-20)
(-0.000757255 -0.000105772 5.51526e-20)
(-0.000729049 -0.00021816 -1.65569e-19)
(-0.000599467 -0.000305205 2.2225e-19)
(-0.00040495 -0.000338145 5.62028e-20)
(-0.00015912 -0.000304666 -5.73088e-19)
(0.000132882 -0.000194889 -1.74624e-19)
(0.000501136 -2.09491e-06 0)
(0.000916777 0.000262247 -5.82103e-20)
(0.00133343 0.000549401 -3.48249e-19)
(0.00173393 0.000822558 -5.80256e-20)
(0.0021083 0.00106474 -4.6098e-19)
(0.00245315 0.00126749 4.59563e-19)
(0.00277614 0.00142937 -7.60825e-22)
(0.00306373 0.00154418 0)
(0.00331708 0.0016127 2.28318e-19)
(0.00353804 0.00163494 0)
(0.00371353 0.00161061 3.64213e-22)
(0.00384799 0.00154564 0)
(0.00392055 0.00143805 2.25457e-19)
(0.00393496 0.00129636 2.24893e-19)
(0.00387455 0.00112475 0)
(0.00373516 0.00093217 -1.04098e-22)
(0.00352027 0.000731927 -1.10969e-19)
(0.0032129 0.000537026 -2.7505e-20)
(0.00284384 0.0003634 -5.47704e-20)
(0.00239583 0.000227822 1.38475e-20)
(0.00189441 0.00013543 0)
(0.00136936 9.9709e-05 -1.08985e-19)
(0.000826893 0.000119837 5.4643e-20)
(0.000296145 0.000190998 1.07946e-19)
(-0.000210326 0.000312256 3.19583e-19)
(-0.000682664 0.000466032 5.23749e-20)
(-0.00110399 0.000651591 -2.5365e-19)
(-0.0014877 0.000849878 4.99574e-20)
(-0.00181812 0.00105742 0)
(-0.00210927 0.0012612 -4.71574e-20)
(-0.00235658 0.00145663 4.661e-20)
(-0.00256187 0.00164118 -1.91895e-21)
(-0.00273719 0.00180845 0)
(-0.00287765 0.00195635 3.47918e-19)
(-0.00298785 0.00208204 3.40618e-19)
(-0.00307264 0.00218363 -2.06786e-20)
(-0.00313184 0.00226158 2.04707e-20)
(-0.00316786 0.00231577 -1.98525e-20)
(-0.00318475 0.0023467 3.11998e-19)
(-0.00318404 0.00235639 -2.88366e-19)
(-0.00316807 0.00234697 3.01709e-19)
(-0.0031404 0.00232078 3.03279e-19)
(-0.00310337 0.00228067 -1.80989e-20)
(-0.00306002 0.00222922 2.93774e-19)
(-0.00301408 0.00216889 -2.75689e-19)
(-0.00296635 0.00210153 2.72087e-19)
(-0.00291836 0.00202794 -2.69126e-19)
(-0.00287406 0.00194852 2.62626e-19)
(-0.00283153 0.00186398 8.04878e-21)
(-0.0027908 0.00177364 -7.95705e-21)
(-0.00275485 0.00167697 0)
(-0.00271992 0.00157427 0)
(-0.00268616 0.00146494 -1.20045e-19)
(-0.00265577 0.0013481 1.31975e-19)
(-0.00262298 0.00122494 -1.15382e-19)
(-0.00259369 0.0010947 -2.83468e-20)
(-0.00256018 0.000959239 -2.24291e-22)
(-0.00252773 0.000816974 7.44026e-23)
(-0.00249083 0.000670849 2.43059e-19)
(-0.00245444 0.000519518 3.98659e-20)
(-0.00241364 0.000367602 -5.26889e-20)
(-0.0023703 0.000214187 5.21476e-20)
(-0.00232235 6.38359e-05 0)
(-0.00226919 -8.16397e-05 6.42567e-21)
(-0.00221161 -0.000221592 -6.44691e-21)
(-0.0021479 -0.000352356 0)
(-0.00207545 -0.000474217 0)
(-0.00199517 -0.000582341 -1.03732e-19)
(-0.00190442 -0.000676094 1.04195e-19)
(-0.00180342 -0.000751941 -1.08205e-19)
(-0.00169095 -0.000809158 2.1188e-19)
(-0.00156715 -0.00084637 2.15224e-23)
(-0.00143046 -0.000863014 3.38092e-21)
(-0.00128418 -0.000857548 1.09014e-19)
(-0.00112359 -0.000829934 0)
(-0.000954455 -0.000779742 0)
(-0.000774572 -0.000708723 0)
(-0.000585016 -0.000617824 -2.33256e-19)
(-0.000389618 -0.000508645 -2.19727e-19)
(-0.000188582 -0.000383851 0)
(1.73007e-05 -0.000245682 2.59557e-19)
(0.000225008 -9.6969e-05 -4.31793e-20)
(0.000433001 5.87273e-05 2.86545e-20)
(0.00064119 0.000218618 -1.43462e-20)
(0.000847195 0.000379505 2.83149e-20)
(0.00105006 0.000537927 -2.26358e-19)
(0.00124902 0.000691159 1.96747e-19)
(0.00144281 0.000836473 -2.52007e-19)
(0.00163124 0.000971971 2.96134e-22)
(0.00181605 0.00109594 -1.95345e-19)
(0.00199288 0.00120503 0)
(0.00216237 0.00129764 -2.20851e-19)
(0.00232998 0.00137383 2.717e-20)
(0.00248747 0.00143011 1.89259e-19)
(0.00263491 0.00146526 -2.16577e-19)
(0.00278099 0.00148053 2.65796e-20)
(0.00290756 0.00147111 -2.67356e-20)
(0.0030212 0.00143795 2.6869e-20)
(0.00311432 0.00138051 -2.62703e-20)
(0.00318044 0.00129814 2.55722e-20)
(0.00321334 0.00119023 -1.28013e-19)
(0.00319997 0.00105992 1.25143e-19)
(0.00312933 0.000912783 -1.24516e-19)
(0.00300093 0.000757386 0)
(0.00278953 0.000602839 -2.4145e-20)
(0.002515 0.000456802 2.34604e-20)
(0.00215194 0.000335034 1.15627e-20)
(0.00171859 0.000245 0)
(0.00123544 0.000200583 2.2303e-20)
(0.000703883 0.000209325 -4.3773e-20)
(0.00016025 0.000266611 0)
(-0.000387262 0.000382092 8.2852e-20)
(-0.000912949 0.000534525 1.95927e-20)
(-0.00140187 0.000730775 -1.9366e-20)
(-0.00185206 0.000943533 0)
(-0.00224353 0.00117444 -7.04836e-20)
(-0.00258586 0.00139811 6.73566e-20)
(-0.00286292 0.00160885 -6.51449e-20)
(-0.00307298 0.00175214 0)
(-0.00319966 0.00177848 1.19573e-19)
(-0.00336391 0.00159976 7.1426e-20)
(-0.00345636 0.00137445 -1.23675e-19)
(-0.0034976 0.00109908 1.30207e-20)
(-0.0034591 0.000788019 -1.28993e-20)
(-0.00333884 0.000461288 -1.20832e-20)
(-0.00313441 0.000164465 -1.15078e-20)
(-0.00284785 -7.14279e-05 1.02632e-20)
(-0.00248801 -0.000198247 6.97778e-22)
(-0.00209526 -0.000245696 0)
(-0.00171021 -0.000248759 -6.55775e-22)
(-0.00136147 -0.000225403 0)
(-0.00106324 -0.000188204 6.15269e-22)
(-0.000821993 -0.000146244 9.3536e-21)
(-0.000639013 -0.000105628 -9.95342e-21)
(-0.00050837 -7.00652e-05 8.3079e-22)
(-0.000421249 -4.13402e-05 -8.35261e-21)
(-0.000367795 -1.93068e-05 1.58473e-20)
(-0.000338377 -3.66609e-06 -1.56556e-20)
(-0.000323189 5.72359e-06 8.11124e-21)
(-0.000314235 9.24355e-06 0)
(-0.000305496 7.9553e-06 -3.71564e-21)
(-0.000292533 3.11769e-06 3.48843e-21)
(-0.00027282 -3.17659e-06 3.77313e-22)
(-0.000245606 -9.69742e-06 2.75454e-21)
(-0.000211817 -1.53345e-05 -2.41828e-21)
(-0.000173623 -1.91934e-05 -2.39537e-21)
(-0.000134087 -2.07257e-05 2.6801e-21)
(-9.65583e-05 -1.99013e-05 -2.30429e-21)
(-6.41181e-05 -1.68016e-05 4.02055e-21)
(-3.94768e-05 -1.15189e-05 -2.48173e-21)
(-2.47689e-05 -4.46599e-06 8.42024e-22)
(-2.12185e-05 3.80624e-06 1.77664e-22)
(-2.92723e-05 1.26534e-05 0)
(-4.85173e-05 2.11922e-05 -3.63802e-22)
(-7.76834e-05 2.89551e-05 4.97165e-22)
(-0.000115132 3.56994e-05 -2.6001e-23)
(-0.000158893 4.14842e-05 1.64739e-22)
(-0.000207529 4.67656e-05 0)
(-0.000263437 5.30779e-05 0)
(-0.000324447 6.33412e-05 1.1484e-23)
(0.00721797 0.00086192 0)
(0.00752034 0.00174574 3.43295e-21)
(0.00774323 0.00195297 -3.408e-21)
(0.0076394 0.00184934 -6.79305e-21)
(0.00731883 0.00163299 6.85644e-21)
(0.00685835 0.00138138 0)
(0.00636546 0.00114653 0)
(0.00588669 0.000943717 0)
(0.00544545 0.000774896 1.41001e-20)
(0.00505112 0.000637858 -2.84183e-20)
(0.00470423 0.000526756 -1.41707e-20)
(0.00440215 0.000436492 2.86883e-20)
(0.00414041 0.000363805 2.86065e-20)
(0.00391343 0.000305881 -2.87671e-20)
(0.00371561 0.000260181 0)
(0.00354181 0.000224639 2.86089e-20)
(0.0033873 0.00019766 -5.72839e-20)
(0.0032477 0.000177832 2.86623e-20)
(0.00311919 0.000163892 0)
(0.00299844 0.000154787 0)
(0.00288256 0.000149553 0)
(0.0027691 0.000147332 0)
(0.00265598 0.000147396 0)
(0.00254147 0.000149118 5.61482e-20)
(0.00242417 0.000151947 -5.62735e-20)
(0.00230292 0.00015538 0)
(0.0021768 0.00015893 0)
(0.00204507 0.000162078 0)
(0.00190716 0.000164168 0)
(0.00176265 0.000164267 0)
(0.00161118 0.000160999 5.5173e-20)
(0.00145269 0.000152372 -5.5357e-20)
(0.001291 0.000135342 0)
(0.00109911 0.000104197 -3.44565e-21)
(0.000909812 4.17234e-05 0)
(0.000848389 -3.56638e-05 1.10047e-19)
(0.00094603 -7.1535e-05 -2.204e-19)
(0.00114937 -3.54498e-05 0)
(0.00143543 8.48802e-05 4.44054e-19)
(0.00179899 0.000295354 -2.885e-22)
(0.00226988 0.000597398 5.56982e-20)
(0.00280789 0.000967159 -5.57867e-20)
(0.003349 0.00135209 4.42978e-19)
(0.00387341 0.00171536 0)
(0.00437325 0.00203814 4.93586e-19)
(0.00484533 0.00231036 -4.6475e-19)
(0.00529641 0.00252852 -4.62893e-19)
(0.00571275 0.00268585 0)
(0.00609399 0.00278202 -2.16072e-19)
(0.00644054 0.00281447 0)
(0.00673952 0.00278286 4.2987e-19)
(0.00699175 0.00269203 0)
(0.00717542 0.00253892 -1.87088e-19)
(0.00729181 0.0023318 -2.38788e-19)
(0.00732147 0.0020751 -2.10736e-19)
(0.00725641 0.00178197 -1.04879e-19)
(0.00709423 0.001466 -1.04172e-19)
(0.00681274 0.00114107 -5.18411e-20)
(0.00643868 0.000827646 2.59295e-20)
(0.00594446 0.000541839 3.86658e-20)
(0.00535685 0.000299005 0)
(0.00469959 0.000116408 1.02208e-19)
(0.0039833 2.10299e-06 -1.0201e-19)
(0.00324457 -4.26422e-05 0)
(0.00249747 -1.46248e-05 -4.06952e-19)
(0.00176717 7.23697e-05 0)
(0.00107497 0.000216481 -5.03182e-20)
(0.000427991 0.000397588 5.06611e-20)
(-0.000155914 0.000608587 0)
(-0.000683438 0.000833791 -4.83941e-20)
(-0.00114753 0.00106113 4.76824e-20)
(-0.00155086 0.00128504 5.08622e-19)
(-0.00190223 0.00149367 -3.16463e-19)
(-0.0021965 0.00168211 1.72013e-21)
(-0.00244246 0.00184639 -3.43589e-19)
(-0.00264396 0.00198216 -2.09359e-20)
(-0.00280207 0.00208891 3.5093e-19)
(-0.0029225 0.00216682 0)
(-0.00300958 0.00221596 3.16507e-19)
(-0.00306553 0.00223823 5.99196e-19)
(-0.00309472 0.00223663 -5.77643e-19)
(-0.0031016 0.00221426 -3.07216e-19)
(-0.00308943 0.00217478 3.01168e-19)
(-0.00306233 0.0021218 -2.94004e-19)
(-0.00302461 0.0020584 0)
(-0.00297895 0.00198736 -2.74361e-19)
(-0.00292904 0.00191028 -3.3432e-21)
(-0.0028784 0.00182715 -5.36766e-19)
(-0.00282649 0.00173865 -2.44079e-19)
(-0.00277555 0.0016448 -2.63474e-19)
(-0.00272684 0.0015443 0)
(-0.00267748 0.00143721 0)
(-0.00262899 0.00132352 1.20288e-19)
(-0.00258129 0.00120325 0)
(-0.00253063 0.00107761 1.44762e-20)
(-0.00248051 0.000946254 -1.42992e-20)
(-0.00242616 0.000811296 1.12035e-19)
(-0.00237185 0.00067209 -1.10434e-19)
(-0.00231288 0.000530992 -9.50721e-20)
(-0.00225244 0.000387559 -1.34416e-20)
(-0.0021861 0.000245144 5.29828e-20)
(-0.00211637 0.00010415 -2.62441e-20)
(-0.00203947 -3.28595e-05 1.95407e-20)
(-0.00195618 -0.000164398 -6.50604e-21)
(-0.00186401 -0.000288584 0)
(-0.00176226 -0.000401751 -5.18115e-20)
(-0.00164868 -0.000502692 0)
(-0.00152202 -0.000587724 -1.0438e-19)
(-0.00138128 -0.00065519 -1.8565e-22)
(-0.00122508 -0.000702137 1.02761e-19)
(-0.00105276 -0.000726578 -1.06996e-19)
(-0.000864494 -0.00072658 3.38276e-21)
(-0.000659168 -0.00070078 0)
(-0.000440495 -0.000647989 -1.09885e-19)
(-0.000204902 -0.000568418 1.111e-19)
(4.29612e-05 -0.000461484 0)
(0.000301813 -0.000329307 -6.97016e-21)
(0.000571707 -0.000173012 2.30029e-19)
(0.00084861 4.95392e-06 2.09499e-19)
(0.00113107 0.000201113 -2.07696e-19)
(0.00141874 0.000412465 2.20866e-19)
(0.00170834 0.000635137 1.37193e-20)
(0.00199778 0.000864628 -2.05526e-19)
(0.00228732 0.00109705 -2.74597e-20)
(0.00257495 0.00132831 -2.44171e-19)
(0.0028596 0.00155411 4.87412e-19)
(0.00314086 0.00177067 -2.43215e-19)
(0.00341774 0.0019743 1.88361e-19)
(0.00369049 0.00216176 -1.59361e-19)
(0.00396097 0.00233032 -2.64456e-19)
(0.00422525 0.00247623 -1.57465e-19)
(0.00448369 0.00259723 -2.63286e-20)
(0.00474168 0.00269252 -1.81522e-19)
(0.004991 0.00275792 -2.33087e-19)
(0.00523174 0.00279175 2.5434e-20)
(0.00547118 0.00279436 -2.55679e-20)
(0.0056915 0.00276084 -7.53638e-20)
(0.00589723 0.00269184 -2.44633e-20)
(0.00608025 0.00258601 2.44742e-20)
(0.00623023 0.00244312 -2.46147e-20)
(0.00634022 0.00226254 9.60484e-20)
(0.00639694 0.00204756 -2.41228e-20)
(0.00638602 0.00180457 4.6448e-22)
(0.00630206 0.00154203 2.32197e-20)
(0.00611675 0.00126859 9.02932e-20)
(0.00584516 0.000998978 0)
(0.00545539 0.000747497 -4.32578e-20)
(0.00496081 0.000529666 2.69801e-20)
(0.0043785 0.000360987 -2.10181e-20)
(0.00370524 0.000255353 6.1614e-20)
(0.00298328 0.000214121 1.99642e-20)
(0.00221379 0.00024954 -7.96585e-20)
(0.00143526 0.000345494 -9.76666e-20)
(0.000671663 0.000507707 3.85e-20)
(-5.84681e-05 0.000709952 -9.40386e-20)
(-0.000734066 0.000949456 7.18739e-20)
(-0.00135135 0.00119633 1.69976e-20)
(-0.00188788 0.00143379 6.54867e-20)
(-0.00234122 0.00161338 -1.60901e-20)
(-0.00269796 0.00168545 6.1198e-20)
(-0.00297184 0.00152281 -5.77349e-20)
(-0.00305093 0.00124263 4.1814e-20)
(-0.00304534 0.000894195 1.36338e-20)
(-0.00292137 0.000507796 2.5905e-20)
(-0.00267146 0.000117614 0)
(-0.00229453 -0.000223425 2.38645e-20)
(-0.00179309 -0.000484708 -2.19198e-20)
(-0.00121578 -0.000620239 -3.07899e-22)
(-0.000653874 -0.000651842 4.01857e-22)
(-0.000136665 -0.00061772 1.06594e-21)
(0.000323423 -0.000543712 1.04983e-20)
(0.000715277 -0.000449271 -6.16641e-22)
(0.00103469 -0.000349056 0)
(0.00128402 -0.000253721 5.65886e-22)
(0.00147045 -0.000170261 -5.42381e-22)
(0.0016042 -0.000102424 -9.17298e-21)
(0.00169695 -5.18431e-05 8.61227e-21)
(0.00176053 -1.80103e-05 7.4315e-21)
(0.00180599 7.85531e-07 -7.86624e-21)
(0.00184301 6.35165e-06 0)
(0.00187948 2.30371e-06 4.09455e-22)
(0.0019209 -8.15563e-06 0)
(0.00197016 -2.15515e-05 2.46662e-21)
(0.0020275 -3.46969e-05 -1.69148e-22)
(0.0020915 -4.50824e-05 -2.96335e-21)
(0.00215919 -5.08347e-05 -5.94402e-22)
(0.00222655 -5.09373e-05 -2.75873e-22)
(0.00228921 -4.50209e-05 2.54023e-22)
(0.00234301 -3.34539e-05 0)
(0.00238431 -1.72829e-05 -2.1117e-22)
(0.00241037 2.05415e-06 -7.18719e-22)
(0.00241957 2.29021e-05 5.47854e-22)
(0.00241183 4.37881e-05 5.545e-22)
(0.00238799 6.34101e-05 -6.81995e-22)
(0.00234995 8.07158e-05 0)
(0.00230032 9.50394e-05 -1.07891e-22)
(0.00224221 0.00010623 -1.57149e-22)
(0.00217858 0.000114712 -3.94344e-23)
(0.00210937 0.000121863 3.93979e-23)
(0.00203418 0.000132547 -1.09707e-23)
(0.00715994 0.000474377 0)
(0.00735271 0.00119804 0)
(0.00772409 0.00160659 0)
(0.00807636 0.0017619 -6.74942e-21)
(0.00827185 0.00174117 6.7355e-21)
(0.00823495 0.00163574 0)
(0.00810834 0.00147475 0)
(0.00791209 0.00129686 0)
(0.00767691 0.00112356 0)
(0.00742903 0.000966603 0)
(0.00718277 0.000827458 0)
(0.00694735 0.00070637 2.71339e-20)
(0.00672749 0.000603989 -2.72941e-20)
(0.00652424 0.000519049 2.71822e-20)
(0.00633733 0.000449553 -5.44929e-20)
(0.00616576 0.000393756 2.72965e-20)
(0.00600774 0.000350248 2.71341e-20)
(0.00586093 0.000317407 -2.72255e-20)
(0.00572298 0.00029365 0)
(0.0055916 0.000277685 0)
(0.00546447 0.000268266 -5.38242e-20)
(0.00533944 0.000264222 5.39536e-20)
(0.00521445 0.000264532 0)
(0.00508759 0.000268293 5.33842e-20)
(0.00495711 0.000274706 -5.35065e-20)
(0.00482143 0.000283069 0)
(0.00467906 0.000292746 0)
(0.00452863 0.000303108 -5.28142e-20)
(0.00436876 0.000313446 2.68833e-22)
(0.00419806 0.000322862 5.28506e-20)
(0.00401497 0.000330155 5.24921e-20)
(0.00381754 0.000333768 -1.05107e-19)
(0.0036085 0.000331579 5.26386e-20)
(0.00335594 0.000317718 -4.90934e-20)
(0.00309213 0.000288085 5.27708e-20)
(0.00295299 0.000264587 5.26635e-20)
(0.00298503 0.000291028 -5.29094e-20)
(0.00314381 0.000393663 -1.58736e-19)
(0.00340631 0.000582865 -2.65451e-19)
(0.0037663 0.000859618 -5.32603e-20)
(0.00424687 0.00121871 5.33545e-20)
(0.00480432 0.00162973 4.77005e-19)
(0.00537447 0.0020478 -4.7485e-19)
(0.00593727 0.0024425 -4.72562e-19)
(0.00648527 0.00279546 1.04708e-19)
(0.00701496 0.00309593 -7.8335e-20)
(0.00753073 0.00333845 2.33932e-19)
(0.00802026 0.00351559 0)
(0.00848103 0.00362629 2.32587e-19)
(0.00891284 0.00366401 -2.58341e-20)
(0.009304 0.00363047 -2.05566e-19)
(0.00965186 0.00352902 -2.55092e-20)
(0.00993796 0.00335571 2.55093e-19)
(0.0101612 0.00311865 1.77539e-19)
(0.0103038 0.00282071 2.0114e-19)
(0.0103564 0.00247374 9.96152e-20)
(0.0103128 0.00208963 2.47117e-20)
(0.0101498 0.00168044 -2.46196e-20)
(0.00988508 0.00126782 -2.43506e-20)
(0.00948681 0.000863952 -3.61346e-20)
(0.00897474 0.00049054 -2.39378e-20)
(0.0083603 0.000164704 0)
(0.00765091 -9.9424e-05 -9.55531e-20)
(0.00687986 -0.000292981 0)
(0.00605802 -0.000408483 3.33202e-19)
(0.0052212 -0.000450703 1.90732e-19)
(0.0043862 -0.000420316 4.76934e-20)
(0.00357541 -0.00033216 0)
(0.00280911 -0.000194332 0)
(0.00209326 -2.17185e-05 1.88657e-19)
(0.00144203 0.000170712 0)
(0.000854314 0.00037509 -4.19409e-19)
(0.000328645 0.00057628 4.16304e-19)
(-0.000129116 0.000767008 -3.87639e-19)
(-0.000529203 0.000941123 2.33901e-22)
(-0.000872563 0.00109152 2.26851e-22)
(-0.00115996 0.00121583 -2.97567e-19)
(-0.00139871 0.00131363 -4.1676e-20)
(-0.00159281 0.00138421 -3.04663e-19)
(-0.00174458 0.00142887 -3.1814e-19)
(-0.00185944 0.00145071 -1.63492e-21)
(-0.00194252 0.00145291 2.95524e-19)
(-0.00199748 0.00143921 -2.89452e-19)
(-0.00202939 0.00141337 0)
(-0.00204287 0.00137829 -4.47707e-21)
(-0.00204165 0.00133698 -2.78349e-19)
(-0.00203117 0.0012912 5.51079e-19)
(-0.00201456 0.00124069 8.149e-19)
(-0.00199256 0.00118576 2.73586e-19)
(-0.00196984 0.00112623 -9.20067e-21)
(-0.0019467 0.00106002 0)
(-0.00192118 0.00098687 -7.80877e-21)
(-0.00189558 0.000906446 7.71314e-21)
(-0.00186782 0.000817896 0)
(-0.00183556 0.000722552 -1.18533e-19)
(-0.00180094 0.00062005 1.44735e-20)
(-0.00175913 0.000512076 -1.43144e-20)
(-0.00171302 0.000399521 -2.25107e-22)
(-0.00165843 0.000284305 -1.1064e-19)
(-0.00159704 0.000166976 1.35842e-20)
(-0.00152448 5.01269e-05 -2.6934e-20)
(-0.00144285 -6.50082e-05 1.33739e-20)
(-0.00134773 -0.000176101 5.20414e-24)
(-0.00124045 -0.000280932 6.57016e-21)
(-0.00111713 -0.000377375 -6.59713e-21)
(-0.00097792 -0.000461773 5.26577e-20)
(-0.000820829 -0.000531865 5.60725e-20)
(-0.000644831 -0.00058392 1.02883e-19)
(-0.000450193 -0.000615379 -2.13734e-19)
(-0.000235944 -0.000623197 1.04274e-19)
(-2.65999e-06 -0.000605038 3.40047e-21)
(0.000248512 -0.000558963 3.38064e-21)
(0.000517917 -0.000483691 -3.40043e-21)
(0.000800809 -0.000378395 1.08354e-19)
(0.00109981 -0.000243353 -7.11939e-21)
(0.0014102 -7.89682e-05 5.36869e-23)
(0.00172946 0.000112514 -9.37067e-20)
(0.00205791 0.000329075 -3.27948e-19)
(0.0023915 0.000567582 2.12724e-19)
(0.0027285 0.000824128 2.12865e-19)
(0.00306905 0.00109491 -2.25192e-19)
(0.00341033 0.00137539 -1.96914e-19)
(0.00375066 0.00166067 1.97171e-19)
(0.00409073 0.00194628 2.3436e-19)
(0.00442925 0.00222751 1.95264e-19)
(0.00476564 0.00249969 -2.67673e-20)
(0.00509998 0.00275847 2.58475e-20)
(0.00543179 0.00299962 0)
(0.00576159 0.00321937 2.29381e-19)
(0.00609115 0.00341439 2.02616e-19)
(0.00641751 0.00358065 1.7636e-19)
(0.00674077 0.00371553 0)
(0.00706536 0.00381729 2.23508e-19)
(0.00738421 0.00388132 -2.47546e-20)
(0.00769743 0.0039061 7.30341e-20)
(0.00800965 0.00389113 2.43453e-20)
(0.00830576 0.00383177 6.32987e-22)
(0.00858791 0.00372888 1.18683e-19)
(0.0088483 0.00358024 -2.36472e-20)
(0.00907722 0.00338627 1.15471e-19)
(0.00926664 0.00314931 -2.06302e-19)
(0.00940352 0.00287177 -1.80245e-19)
(0.00947459 0.00255892 -8.82798e-20)
(0.0094721 0.00221902 0)
(0.00936974 0.00186025 2.08341e-20)
(0.00917682 0.00149821 -2.95132e-22)
(0.0088607 0.0011439 -9.97012e-21)
(0.00842797 0.000815936 3.5112e-20)
(0.00788723 0.000528743 -1.99183e-20)
(0.00722872 0.00029846 3.85382e-20)
(0.00648954 0.000133061 -3.79144e-20)
(0.00566252 4.53783e-05 0)
(0.00479062 2.97892e-05 9.12777e-20)
(0.00388723 9.10435e-05 -3.60413e-20)
(0.00298693 0.000211636 7.13734e-20)
(0.00210925 0.000386583 1.77173e-20)
(0.00127417 0.000588741 -8.59115e-20)
(0.000505544 0.00079814 1.71768e-20)
(-0.00017037 0.000965871 0)
(-0.000763101 0.00105634 -7.88332e-20)
(-0.00116068 0.000918845 4.19372e-22)
(-0.00125681 0.000635177 4.08848e-22)
(-0.0012295 0.000280038 4.12521e-22)
(-0.00106369 -0.000108871 -2.64185e-20)
(-0.000742742 -0.000491092 4.183e-22)
(-0.000275618 -0.000810566 2.02569e-22)
(0.000330807 -0.00103865 1.16624e-20)
(0.000995701 -0.00113831 -1.00559e-20)
(0.00161121 -0.00112547 -1.05123e-20)
(0.00215998 -0.00103743 -8.95015e-22)
(0.00264259 -0.000903159 9.9441e-21)
(0.00305497 -0.000745557 -1.1669e-21)
(0.00339606 -0.000583347 -8.7874e-21)
(0.00366918 -0.000430731 8.75521e-21)
(0.00388109 -0.000297386 1.02871e-21)
(0.00404089 -0.000188958 9.88041e-22)
(0.00415923 -0.00010788 0)
(0.00424723 -5.37639e-05 -7.06752e-21)
(0.00431569 -2.41532e-05 7.04818e-21)
(0.00437422 -1.48321e-05 0)
(0.00443078 -2.0761e-05 7.76394e-22)
(0.00449112 -3.64196e-05 0)
(0.0045585 -5.66083e-05 -6.91173e-22)
(0.00463367 -7.6258e-05 -2.516e-21)
(0.0047154 -9.11032e-05 2.50599e-21)
(0.00480069 -9.79638e-05 5.6467e-22)
(0.00488533 -9.51526e-05 -5.21183e-22)
(0.00496463 -8.21438e-05 0)
(0.00503383 -5.95652e-05 1.67871e-21)
(0.00508863 -2.91618e-05 -1.67451e-21)
(0.00512566 6.61943e-06 -3.58661e-22)
(0.00514284 4.49924e-05 -6.01969e-22)
(0.0051394 8.31802e-05 6.00523e-22)
(0.00511613 0.000118695 -4.47793e-22)
(0.00507505 0.000149597 4.46883e-22)
(0.00501914 0.00017462 1.67513e-22)
(0.00495211 0.00019325 1.11411e-22)
(0.0048778 0.000205752 -7.40715e-23)
(0.00479856 0.000213087 -9.30621e-23)
(0.00470747 0.000221968 0)
(0.00716549 0.000280486 0)
(0.00714562 0.000798963 0)
(0.00745788 0.00118408 0)
(0.00790408 0.00141292 -6.8166e-21)
(0.00826486 0.00151438 6.76568e-21)
(0.0085136 0.00152304 0)
(0.00867899 0.00146058 -1.32863e-20)
(0.00877166 0.00135974 1.32906e-20)
(0.00877824 0.00124069 1.32017e-20)
(0.0087418 0.00111601 -2.642e-20)
(0.00867205 0.000992135 1.32259e-20)
(0.00857921 0.000875456 0)
(0.00847341 0.000771702 0)
(0.0083598 0.000681564 -2.6256e-20)
(0.00824297 0.000604435 1.25059e-22)
(0.0081261 0.000540153 5.24865e-20)
(0.00801074 0.000488718 -2.62582e-20)
(0.0078972 0.000448857 0)
(0.00778554 0.000419217 0)
(0.00767543 0.000398871 -2.59425e-20)
(0.00756604 0.000386737 2.59984e-20)