/*--------------------------------*- C++ -*----------------------------------*\
| =========                 |                                                 |
| \\      /  F ield         | OpenFOAM: The Open Source CFD Toolbox           |
|  \\    /   O peration     | Version:  2506                                  |
|   \\  /    A nd           | Website:  www.openfoam.com                      |
|    \\/     M anipulation  |                                                 |
\*---------------------------------------------------------------------------*/
FoamFile
{
    version     2.0;
    format      ascii;
    arch        "LSB;label=32;scalar=64";
    class       surfaceScalarField;
    location    "3";
    object      phi;
}
// * * * * * * * * * * * * * * * * * * * * * * * * * * * * * * * * * * * * * //

dimensions      [0 3 -1 0 0 0 0];

oriented        oriented;

internalField   nonuniform List<scalar> 
7780
(
2.08107e-09
4.18594e-10
1.64721e-09
4.3398e-10
1.34948e-09
2.97597e-10
1.16529e-09
1.84105e-10
1.05516e-09
1.10121e-10
9.87027e-10
6.81158e-11
9.41744e-10
4.52675e-11
9.09234e-10
3.25039e-11
8.84251e-10
2.49803e-11
8.64027e-10
2.02225e-11
8.47061e-10
1.6966e-11
8.32479e-10
1.45819e-11
8.19713e-10
1.27649e-11
8.08356e-10
1.13567e-11
7.9809e-10
1.02656e-11
7.88653e-10
9.43556e-12
7.7982e-10
8.83155e-12
7.71388e-10
8.43066e-12
7.63163e-10
8.22329e-12
7.54962e-10
8.19925e-12
7.46608e-10
8.35269e-12
7.37923e-10
8.68315e-12
7.28726e-10
9.1948e-12
7.18826e-10
9.89763e-12
7.08015e-10
1.08088e-11
6.96057e-10
1.19563e-11
6.82667e-10
1.33881e-11
6.67498e-10
1.51674e-11
6.50098e-10
1.73987e-11
6.29845e-10
2.0251e-11
6.05823e-10
2.40184e-11
5.7655e-10
2.92675e-11
5.39632e-10
3.69077e-11
4.84985e-10
5.46315e-11
4.35618e-10
4.93505e-11
4.14256e-10
2.13526e-11
4.0876e-10
5.50249e-12
4.09882e-10
-1.09713e-12
4.18949e-10
-9.0259e-12
4.39878e-10
-2.08859e-11
4.8552e-10
-4.5612e-11
5.40588e-10
-5.50648e-11
5.92093e-10
-5.15248e-11
6.41337e-10
-4.92743e-11
6.86064e-10
-4.47569e-11
7.27709e-10
-4.16685e-11
7.68104e-10
-4.04168e-11
8.02037e-10
-3.39542e-11
8.34651e-10
-3.26239e-11
8.63623e-10
-2.89769e-11
8.87378e-10
-2.37583e-11
9.09697e-10
-2.23121e-11
9.22966e-10
-1.32487e-11
9.34943e-10
-1.19458e-11
9.36274e-10
-1.29406e-12
9.32963e-10
3.34684e-12
9.21032e-10
1.19629e-11
8.98986e-10
2.20713e-11
8.75988e-10
2.3024e-11
8.37712e-10
3.83087e-11
8.01292e-10
3.64714e-11
7.59506e-10
4.18614e-11
7.16428e-10
4.31779e-11
6.76174e-10
4.03663e-11
6.34208e-10
4.20943e-11
5.98427e-10
3.59042e-11
5.62437e-10
3.61023e-11
5.32259e-10
3.02837e-11
5.03608e-10
2.87488e-11
4.78401e-10
2.5289e-11
4.56512e-10
2.19578e-11
4.35316e-10
2.12559e-11
4.17338e-10
1.80319e-11
4.00419e-10
1.69732e-11
3.84487e-10
1.5992e-11
3.70291e-10
1.42679e-11
3.57074e-10
1.33036e-11
3.44651e-10
1.25284e-11
3.33597e-10
1.11773e-11
3.23712e-10
1.00238e-11
3.14859e-10
9.00185e-12
3.07165e-10
7.84877e-12
3.00524e-10
6.79414e-12
2.94819e-10
5.85219e-12
2.9007e-10
4.88953e-12
2.85843e-10
4.35712e-12
2.8196e-10
4.0048e-12
2.78721e-10
3.34932e-12
2.75479e-10
3.34177e-12
2.72048e-10
3.51781e-12
2.69021e-10
3.0998e-12
2.65698e-10
3.38301e-12
2.6211e-10
3.63693e-12
2.58911e-10
3.23788e-12
2.55122e-10
3.81803e-12
2.52088e-10
3.05687e-12
2.48612e-10
3.49251e-12
2.46057e-10
2.56717e-12
2.43249e-10
2.81718e-12
2.41817e-10
1.43886e-12
2.40407e-10
1.4154e-12
2.40276e-10
1.3473e-13
2.40889e-10
-6.10715e-13
2.42185e-10
-1.29297e-12
2.45096e-10
-2.908e-12
2.48695e-10
-3.59534e-12
2.54137e-10
-5.43724e-12
2.60633e-10
-6.48849e-12
2.6879e-10
-8.1466e-12
2.78432e-10
-9.62807e-12
2.89755e-10
-1.1306e-11
3.02613e-10
-1.28335e-11
3.17453e-10
-1.48091e-11
3.3332e-10
-1.58274e-11
3.51624e-10
-1.82547e-11
3.70799e-10
-1.91163e-11
3.91217e-10
-2.03499e-11
4.12858e-10
-2.156e-11
4.34813e-10
-2.18664e-11
4.57284e-10
-2.23757e-11
4.80152e-10
-2.27682e-11
5.02281e-10
-2.20272e-11
5.23498e-10
-2.11156e-11
5.44193e-10
-2.05922e-11
5.63626e-10
-1.93274e-11
5.81881e-10
-1.81455e-11
5.98962e-10
-1.69626e-11
6.1469e-10
-1.56022e-11
6.29596e-10
-1.47739e-11
6.44443e-10
-1.47135e-11
6.57665e-10
-1.30974e-11
6.70992e-10
-1.32249e-11
6.85841e-10
-1.47884e-11
6.99312e-10
-1.34679e-11
7.13957e-10
-1.47107e-11
7.31819e-10
-1.80016e-11
7.46777e-10
-1.51678e-11
7.65751e-10
-1.92378e-11
7.8346e-10
-1.80002e-11
8.01991e-10
-1.88194e-11
8.19695e-10
-1.7955e-11
8.35287e-10
-1.57768e-11
8.47224e-10
-1.20395e-11
8.56244e-10
-9.03583e-12
8.55322e-10
9.79065e-13
8.53824e-10
1.6058e-12
8.36238e-10
1.77203e-11
8.15968e-10
2.04069e-11
7.87362e-10
2.87345e-11
7.51574e-10
3.59067e-11
7.15986e-10
3.56973e-11
6.71853e-10
4.42428e-11
6.32264e-10
3.96978e-11
5.87391e-10
4.4979e-11
5.47338e-10
4.01368e-11
5.03142e-10
4.42557e-11
4.61882e-10
4.12878e-11
4.17707e-10
4.41613e-11
3.74295e-10
4.33702e-11
3.31012e-10
4.32483e-11
3.28481e-10
2.50826e-12
3.26548e-10
1.93705e-12
3.25713e-10
8.55171e-13
3.27292e-10
-1.56051e-12
3.38855e-10
-1.15605e-11
3.5899e-10
-2.01498e-11
3.9683e-10
-3.78676e-11
4.36516e-10
-3.97137e-11
4.73636e-10
-3.71408e-11
5.10365e-10
-3.67421e-11
5.46368e-10
-3.60108e-11
5.80566e-10
-3.42007e-11
6.1181e-10
-3.1243e-11
6.39201e-10
-2.73887e-11
6.62203e-10
-2.29986e-11
6.80645e-10
-1.84386e-11
6.94665e-10
-1.40172e-11
7.04648e-10
-9.98215e-12
7.11176e-10
-6.52875e-12
7.14948e-10
-3.77268e-12
7.16466e-10
-1.52033e-12
7.16365e-10
9.84185e-14
7.15284e-10
1.07784e-12
7.13769e-10
1.51204e-12
7.1227e-10
1.4953e-12
7.1114e-10
1.1271e-12
7.10625e-10
5.11859e-13
7.10862e-10
-2.39732e-13
7.11953e-10
-1.09363e-12
7.13727e-10
-1.77624e-12
7.16128e-10
-2.40261e-12
7.19005e-10
-2.87847e-12
7.22165e-10
-3.1615e-12
7.25398e-10
-3.23422e-12
7.28491e-10
-3.0938e-12
7.31225e-10
-2.734e-12
7.33352e-10
-2.12859e-12
7.34555e-10
-1.20352e-12
7.34206e-10
3.47259e-13
3.59184e-12
2.63514e-09
2.83524e-10
2.58942e-09
4.79803e-10
2.44512e-09
4.41956e-10
2.28129e-09
3.47981e-10
2.135e-09
2.56406e-10
2.0182e-09
1.84898e-10
1.92707e-09
1.36382e-10
1.8544e-09
1.0517e-10
1.79483e-09
8.45566e-11
1.74486e-09
7.01931e-11
1.70217e-09
5.96551e-11
1.66517e-09
5.15823e-11
1.63271e-09
4.5224e-11
1.60391e-09
4.01596e-11
1.57804e-09
3.6132e-11
1.5545e-09
3.29751e-11
1.53275e-09
3.05794e-11
1.51232e-09
2.88685e-11
1.49274e-09
2.77959e-11
1.47362e-09
2.73243e-11
1.45454e-09
2.74278e-11
1.43513e-09
2.80929e-11
1.41501e-09
2.93186e-11
1.39379e-09
3.11181e-11
1.37107e-09
3.35231e-11
1.34644e-09
3.65903e-11
1.31941e-09
4.04147e-11
1.28945e-09
4.51317e-11
1.2559e-09
5.095e-11
1.21796e-09
5.8189e-11
1.17463e-09
6.73504e-11
1.12463e-09
7.92633e-11
1.0661e-09
9.54285e-11
9.94185e-10
1.26538e-10
9.29382e-10
1.14144e-10
8.96283e-10
5.4442e-11
8.88268e-10
1.35085e-11
8.99285e-10
-1.21131e-11
9.29839e-10
-3.95591e-11
9.84171e-10
-7.51687e-11
1.07076e-09
-1.32133e-10
1.17138e-09
-1.55628e-10
1.27246e-09
-1.5258e-10
1.37094e-09
-1.47769e-10
1.46283e-09
-1.36684e-10
1.54884e-09
-1.27729e-10
1.63019e-09
-1.21825e-10
1.70205e-09
-1.05881e-10
1.76907e-09
-9.97062e-11
1.82856e-09
-8.85296e-11
1.87941e-09
-7.46649e-11
1.92353e-09
-6.64831e-11
1.95554e-09
-4.53009e-11
1.97954e-09
-3.59701e-11
1.98865e-09
-1.04062e-11
1.98594e-09
6.06054e-12
1.96943e-09
2.84778e-11
1.93656e-09
5.49495e-11
1.89376e-09
6.58502e-11
1.83142e-09
1.00676e-10
1.76285e-09
1.05081e-10
1.68437e-09
1.20395e-10
1.60057e-09
1.27049e-10
1.51593e-09
1.25071e-10
1.42877e-09
1.29293e-10
1.3465e-09
1.18207e-10
1.2652e-09
1.17403e-10
1.19025e-09
1.05195e-10
1.1189e-09
1.00043e-10
1.05304e-09
9.108e-11
9.92203e-10
8.27067e-11
9.34238e-10
7.91401e-11
8.80897e-10
7.13033e-11
8.30494e-10
6.73225e-11
7.82603e-10
6.3852e-11
7.37714e-10
5.91477e-11
6.95227e-10
5.58032e-11
6.54953e-10
5.2833e-11
6.17296e-10
4.88784e-11
5.82261e-10
4.51134e-11
5.49767e-10
4.15547e-11
5.19923e-10
3.7751e-11
4.92628e-10
3.41412e-11
4.67737e-10
3.07875e-11
4.45098e-10
2.7565e-11
4.2425e-10
2.52364e-11
4.0483e-10
2.34516e-11
3.86695e-10
2.15089e-11
3.69306e-10
2.07521e-11
3.5243e-10
2.04117e-11
3.36027e-10
1.95166e-11
3.19897e-10
1.95249e-11
3.04072e-10
1.94702e-11
2.88776e-10
1.85403e-11
2.74104e-10
1.84952e-11
2.60437e-10
1.67268e-11
2.48085e-10
1.58481e-11
2.37456e-10
1.31996e-11
2.29024e-10
1.12513e-11
2.23148e-10
7.31816e-12
2.20343e-10
4.22386e-12
2.21147e-10
-6.65768e-13
2.2526e-10
-4.71926e-12
2.33584e-10
-9.61312e-12
2.46302e-10
-1.56223e-11
2.63395e-10
-2.06851e-11
2.85248e-10
-2.72865e-11
3.11658e-10
-3.28948e-11
3.42763e-10
-3.92483e-11
3.78412e-10
-4.52712e-11
4.18484e-10
-5.13724e-11
4.6268e-10
-5.70237e-11
5.10929e-10
-6.30503e-11
5.62153e-10
-6.70424e-11
6.16918e-10
-7.30081e-11
6.73451e-10
-7.5635e-11
7.31483e-10
-7.83656e-11
7.90574e-10
-8.06334e-11
8.49241e-10
-8.05147e-11
9.07149e-10
-8.02614e-11
9.63887e-10
-7.94793e-11
1.0184e-09
-7.65147e-11
1.07034e-09
-7.3029e-11
1.11979e-09
-7.00175e-11
1.16619e-09
-6.5709e-11
1.20968e-09
-6.16289e-11
1.25041e-09
-5.7698e-11
1.28856e-09
-5.37669e-11
1.3249e-09
-5.11217e-11
1.36015e-09
-4.9965e-11
1.39361e-09
-4.65673e-11
1.42699e-09
-4.65949e-11
1.46161e-09
-4.93954e-11
1.49536e-09
-4.72072e-11
1.5309e-09
-5.02428e-11
1.56891e-09
-5.60404e-11
1.60543e-09
-5.17504e-11
1.6448e-09
-5.87056e-11
1.68306e-09
-5.64082e-11
1.72067e-09
-5.65928e-11
1.75588e-09
-5.33373e-11
1.78616e-09
-4.62116e-11
1.80981e-09
-3.58132e-11
1.8253e-09
-2.45909e-11
1.82681e-09
-5.39921e-13
1.81939e-09
9.06412e-12
1.79269e-09
4.45072e-11
1.75474e-09
5.8455e-11
1.70248e-09
8.11037e-11
1.63632e-09
1.02166e-10
1.56318e-09
1.08915e-10
1.47766e-09
1.29834e-10
1.39104e-09
1.26373e-10
1.29724e-09
1.3881e-10
1.20543e-09
1.31954e-10
1.10835e-09
1.4133e-10
1.01289e-09
1.36721e-10
9.15956e-10
1.41058e-10
8.23299e-10
1.3599e-10
7.3682e-10
1.29715e-10
6.95757e-10
4.35848e-11
6.68116e-10
2.96e-11
6.50741e-10
1.82484e-11
6.45625e-10
3.56638e-12
6.59224e-10
-2.51598e-11
6.93876e-10
-5.48101e-11
7.54125e-10
-9.81328e-11
8.25871e-10
-1.11479e-10
9.01421e-10
-1.12709e-10
9.78689e-10
-1.14025e-10
1.05486e-09
-1.12192e-10
1.12699e-09
-1.06343e-10
1.19255e-09
-9.68096e-11
1.24971e-09
-8.4542e-11
1.29739e-09
-7.06845e-11
1.33531e-09
-5.63478e-11
1.36378e-09
-4.24826e-11
1.38364e-09
-2.98377e-11
1.39603e-09
-1.8922e-11
1.40226e-09
-9.99974e-12
1.40374e-09
-2.98893e-12
1.40214e-09
1.69941e-12
1.39865e-09
4.56551e-12
1.3944e-09
5.76234e-12
1.39033e-09
5.56666e-12
1.38715e-09
4.31467e-12
1.38527e-09
2.38637e-12
1.38494e-09
9.45294e-14
1.38621e-09
-2.36081e-12
1.3889e-09
-4.46947e-12
1.39264e-09
-6.14521e-12
1.397e-09
-7.23708e-12
1.40151e-09
-7.67093e-12
1.4057e-09
-7.43303e-12
1.40916e-09
-6.55443e-12
1.41152e-09
-5.09422e-12
1.41244e-09
-3.05106e-12
1.41164e-09
-3.98819e-13
1.40883e-09
3.15004e-12
8.4062e-12
2.6117e-09
1.7196e-10
2.71283e-09
3.78677e-10
2.73105e-09
4.2386e-10
2.68668e-09
3.92499e-10
2.61102e-09
3.32118e-10
2.52405e-09
2.71867e-10
2.43971e-09
2.20696e-10
2.36335e-09
1.81518e-10
2.29564e-09
1.52269e-10
2.23588e-09
1.29959e-10
2.18306e-09
1.12479e-10
2.1362e-09
9.84399e-11
2.09442e-09
8.7003e-11
2.05692e-09
7.76625e-11
2.02297e-09
7.00843e-11
1.99191e-09
6.40375e-11
1.96312e-09
5.93602e-11
1.93606e-09
5.59346e-11
1.91018e-09
5.36765e-11
1.88498e-09
5.25215e-11
1.85998e-09
5.24231e-11
1.83472e-09
5.33522e-11
1.80874e-09
5.52987e-11
1.78159e-09
5.8274e-11
1.75279e-09
6.23168e-11
1.72188e-09
6.75014e-11
1.68835e-09
7.39488e-11
1.65164e-09
8.18397e-11
1.61115e-09
9.14397e-11
1.56621e-09
1.03134e-10
1.51607e-09
1.17485e-10
1.46001e-09
1.35325e-10
1.3974e-09
1.58027e-10
1.3266e-09
1.97331e-10
1.26366e-09
1.77076e-10
1.23016e-09
8.79341e-11
1.22755e-09
1.60988e-11
1.25296e-09
-3.75454e-11
1.30571e-09
-9.23247e-11
1.38579e-09
-1.55227e-10
1.49361e-09
-2.39908e-10
1.61344e-09
-2.75392e-10
1.73525e-09
-2.74323e-10
1.8536e-09
-2.66078e-10
1.96436e-09
-2.47418e-10
2.06745e-09
-2.30813e-10
2.16329e-09
-2.1768e-10
2.24913e-09
-1.91729e-10
2.32759e-09
-1.7818e-10
2.39701e-09
-1.57964e-10
2.45642e-09
-1.34094e-10
2.50655e-09
-1.16624e-10
2.54464e-09
-8.34056e-11
2.5719e-09
-6.32491e-11
2.5851e-09
-2.36088e-11
2.58494e-09
6.21303e-12
2.56999e-09
4.34305e-11
2.53876e-09
8.61842e-11
2.4945e-09
1.10123e-10
2.43217e-09
1.6303e-10
2.35887e-09
1.78406e-10
2.27352e-09
2.05783e-10
2.17962e-09
2.20986e-10
2.08038e-09
2.24352e-10
1.97671e-09
2.32986e-10
1.87355e-09
2.21381e-10
1.77017e-09
2.20775e-10
1.67043e-09
2.04917e-10
1.57369e-09
1.9674e-10
1.48121e-09
1.83501e-10
1.39344e-09
1.70413e-10
1.30902e-09
1.635e-10
1.22904e-09
1.51231e-10
1.15254e-09
1.4379e-10
1.07912e-09
1.37266e-10
1.00901e-09
1.29265e-10
9.41866e-10
1.22974e-10
8.77632e-10
1.17109e-10
8.16571e-10
1.09989e-10
7.58885e-10
1.02854e-10
7.04639e-10
9.5853e-11
6.5404e-10
8.83948e-11
6.07098e-10
8.11188e-11
5.63755e-10
7.41526e-11
5.23876e-10
6.74545e-11
4.8709e-10
6.20266e-11
4.52967e-10
5.75743e-11
4.21179e-10
5.32945e-11
3.91208e-10
5.07196e-11
3.62727e-10
4.88878e-11
3.35516e-10
4.67215e-11
3.09456e-10
4.55802e-11
2.84532e-10
4.43887e-11
2.60999e-10
4.20696e-11
2.39066e-10
4.04249e-11
2.19245e-10
3.65451e-11
2.01958e-10
3.31342e-11
1.87881e-10
2.72758e-11
1.77503e-10
2.163e-11
1.71655e-10
1.31675e-11
1.7082e-10
5.06156e-12
1.75505e-10
-5.34778e-12
1.86752e-10
-1.59633e-11
2.04612e-10
-2.74712e-11
2.29578e-10
-4.05856e-11
2.61636e-10
-5.27413e-11
3.01185e-10
-6.68333e-11
3.47902e-10
-7.96114e-11
4.01682e-10
-9.30291e-11
4.62184e-10
-1.05773e-10
5.28877e-10
-1.18066e-10
6.01086e-10
-1.29234e-10
6.78141e-10
-1.40107e-10
7.58792e-10
-1.47694e-10
8.42692e-10
-1.5691e-10
9.28084e-10
-1.61027e-10
1.01417e-09
-1.64453e-10
1.10012e-09
-1.66587e-10
1.18444e-09
-1.64823e-10
1.26636e-09
-1.62181e-10
1.34538e-09
-1.58485e-10
1.42053e-09
-1.51644e-10
1.49154e-09
-1.44012e-10
1.55837e-09
-1.36824e-10
1.62077e-09
-1.28084e-10
1.67899e-09
-1.19827e-10
1.73332e-09
-1.12019e-10
1.7842e-09
-1.04638e-10
1.83237e-09
-9.92848e-11
1.87847e-09
-9.60544e-11
1.9226e-09
-9.06729e-11
1.9659e-09
-8.98457e-11
2.00946e-09
-9.28722e-11
2.0521e-09
-8.97501e-11
2.09571e-09
-9.37321e-11
2.14e-09
-1.00198e-10
2.18323e-09
-9.48713e-11
2.22691e-09
-1.02301e-10
2.26889e-09
-9.83472e-11
2.30831e-09
-9.60247e-11
2.34391e-09
-8.89972e-11
2.373e-09
-7.53914e-11
2.39429e-09
-5.72108e-11
2.40528e-09
-3.56825e-11
2.40369e-09
9.76879e-13
2.38942e-09
2.32921e-11
2.35753e-09
7.6388e-11
2.31138e-09
1.04628e-10
2.24989e-09
1.42646e-10
2.17266e-09
1.79445e-10
2.08444e-09
1.97186e-10
1.9823e-09
2.32028e-10
1.87381e-09
2.34892e-10
1.75643e-09
2.56196e-10
1.63638e-09
2.52001e-10
1.51035e-09
2.6733e-10
1.38363e-09
2.63401e-10
1.25612e-09
2.6853e-10
1.13531e-09
2.56778e-10
1.02192e-09
2.43095e-10
9.45214e-10
1.20319e-10
8.90801e-10
8.40406e-11
8.56476e-10
5.25927e-11
8.44336e-10
1.57152e-11
8.60772e-10
-4.15969e-11
9.0659e-10
-1.00638e-10
9.82553e-10
-1.74115e-10
1.07424e-09
-2.03186e-10
1.17199e-09
-2.10482e-10
1.27124e-09
-2.13301e-10
1.36787e-09
-2.0884e-10
1.45828e-09
-1.96766e-10
1.53963e-09
-1.78166e-10
1.60996e-09
-1.5488e-10
1.66824e-09
-1.2896e-10
1.71425e-09
-1.02358e-10
1.74853e-09
-7.67528e-11
1.77215e-09
-5.34547e-11
1.78661e-09
-3.33701e-11
1.79362e-09
-1.70073e-11
1.79518e-09
-4.54164e-12
1.79288e-09
4.00652e-12
1.78844e-09
9.01574e-12
1.78327e-09
1.09287e-11
1.77854e-09
1.03063e-11
1.77506e-09
7.7902e-12
1.7734e-09
4.04914e-12
1.77375e-09
-2.5693e-13
1.77596e-09
-4.56199e-12
1.77977e-09
-8.28789e-12
1.78469e-09
-1.1061e-11
1.7901e-09
-1.26493e-11
1.79537e-09
-1.29466e-11
1.7999e-09
-1.19676e-11
1.80318e-09
-9.83163e-12
1.8048e-09
-6.71227e-12
1.80452e-09
-2.77219e-12
1.80224e-09
1.87368e-12
1.79816e-09
7.22785e-12
1.38333e-11
2.56396e-09
1.07931e-10
2.67025e-09
2.72465e-10
2.74684e-09
3.47314e-10
2.77983e-09
3.5961e-10
2.77355e-09
3.38427e-10
2.74364e-09
3.01786e-10
2.69991e-09
2.64417e-10
2.65036e-09
2.3104e-10
2.60045e-09
2.02165e-10
2.55255e-09
1.77866e-10
2.50759e-09
1.57439e-10
2.4659e-09
1.40127e-10
2.42744e-09
1.25466e-10
2.39195e-09
1.13158e-10
2.35906e-09
1.02971e-10
2.32838e-09
9.47243e-11
2.29946e-09
8.82796e-11
2.27186e-09
8.3527e-11
2.24516e-09
8.0381e-11
2.2189e-09
7.87732e-11
2.19267e-09
7.86539e-11
2.16603e-09
7.99931e-11
2.13855e-09
8.27816e-11
2.10978e-09
8.70357e-11
2.0793e-09
9.28033e-11
2.04663e-09
1.00171e-10
2.0113e-09
1.09278e-10
1.97281e-09
1.20323e-10
1.93066e-09
1.33591e-10
1.88432e-09
1.49473e-10
1.83331e-09
1.68501e-10
1.77722e-09
1.91406e-10
1.71599e-09
2.19257e-10
1.64873e-09
2.64586e-10
1.58937e-09
2.36425e-10
1.55753e-09
1.19758e-10
1.55762e-09
1.59858e-11
1.58899e-09
-6.89453e-11
1.65017e-09
-1.5354e-10
1.73795e-09
-2.43038e-10
1.84854e-09
-3.50492e-10
1.96831e-09
-3.95121e-10
2.09024e-09
-3.96198e-10
2.20823e-09
-3.84005e-10
2.31838e-09
-3.57516e-10
2.42037e-09
-3.32767e-10
2.51444e-09
-3.11718e-10
2.5992e-09
-2.7647e-10
2.67572e-09
-2.54681e-10
2.74325e-09
-2.25471e-10
2.80146e-09
-1.92291e-10
2.85003e-09
-1.65182e-10
2.88794e-09
-1.21313e-10
2.91512e-09
-9.04312e-11
2.93028e-09
-3.87764e-11
2.93313e-09
3.36592e-12
2.92291e-09
5.36465e-11
2.89852e-09
1.10587e-10
2.86131e-09
1.47345e-10
2.80873e-09
2.1563e-10
2.74388e-09
2.43269e-10
2.66637e-09
2.83293e-10
2.57845e-09
3.08907e-10
2.4821e-09
3.20704e-10
2.37883e-09
3.36239e-10
2.27189e-09
3.28291e-10
2.162e-09
3.30641e-10
2.05229e-09
3.14586e-10
1.94333e-09
3.05655e-10
1.83634e-09
2.90442e-10
1.73249e-09
2.7422e-10
1.63119e-09
2.64762e-10
1.53355e-09
2.48852e-10
1.43912e-09
2.38204e-10
1.34777e-09
2.28625e-10
1.25979e-09
2.17273e-10
1.17498e-09
2.07818e-10
1.09343e-09
1.987e-10
1.01543e-09
1.88043e-10
9.41311e-10
1.77026e-10
8.71248e-10
1.65959e-10
8.05606e-10
1.54069e-10
7.44563e-10
1.42178e-10
6.88221e-10
1.30496e-10
6.36636e-10
1.19029e-10
5.89548e-10
1.09099e-10
5.4659e-10
1.00513e-10
5.07577e-10
9.22893e-11
4.71833e-10
8.64462e-11
4.38947e-10
8.17567e-11
4.08755e-10
7.69e-11
3.80875e-10
7.34476e-11
3.55138e-10
7.01145e-11
3.32016e-10
6.51835e-11
3.11171e-10
6.1263e-11
2.93681e-10
5.40295e-11
2.79283e-10
4.75297e-11
2.69317e-10
3.72392e-11
2.63592e-10
2.73547e-11
2.63829e-10
1.29306e-11
2.69631e-10
-7.3948e-13
2.82591e-10
-1.83064e-11
3.02826e-10
-3.61963e-11
3.30828e-10
-5.54717e-11
3.67453e-10
-7.72096e-11
4.12139e-10
-9.74275e-11
4.65764e-10
-1.20459e-10
5.27491e-10
-1.4134e-10
5.9722e-10
-1.62761e-10
6.7431e-10
-1.82868e-10
7.57859e-10
-2.01622e-10
8.46915e-10
-2.18298e-10
9.40438e-10
-2.33639e-10
1.03677e-09
-2.44038e-10
1.13538e-09
-2.5553e-10
1.23421e-09
-2.59869e-10
1.33234e-09
-2.62599e-10
1.42878e-09
-2.63039e-10
1.52212e-09
-2.58175e-10
1.61168e-09
-2.51756e-10
1.69698e-09
-2.438e-10
1.7773e-09
-2.31959e-10
1.85258e-09
-2.19293e-10
1.92292e-09
-2.07151e-10
1.98834e-09
-1.93484e-10
2.04924e-09
-1.80709e-10
2.10606e-09
-1.68816e-10
2.15934e-09
-1.5791e-10
2.2098e-09
-1.49735e-10
2.25801e-09
-1.44262e-10
2.30438e-09
-1.37023e-10
2.34958e-09
-1.35004e-10
2.39456e-09
-1.37773e-10
2.43848e-09
-1.33553e-10
2.48257e-09
-1.37663e-10
2.52605e-09
-1.43497e-10
2.56841e-09
-1.37033e-10
2.60953e-09
-1.43218e-10
2.64839e-09
-1.37048e-10
2.68356e-09
-1.31076e-10
2.71431e-09
-1.19686e-10
2.7382e-09
-9.92774e-11
2.75449e-09
-7.35486e-11
2.76076e-09
-4.20445e-11
2.75613e-09
5.51406e-12
2.73892e-09
4.04201e-11
2.7072e-09
1.08045e-10
2.66113e-09
1.50676e-10
2.60062e-09
2.0315e-10
2.52447e-09
2.55616e-10
2.43564e-09
2.86037e-10
2.33216e-09
3.35531e-10
2.21886e-09
3.48196e-10
2.09453e-09
3.80512e-10
1.96329e-09
3.83205e-10
1.82553e-09
4.05055e-10
1.68417e-09
4.04703e-10
1.54174e-09
4.10918e-10
1.408e-09
3.90499e-10
1.28161e-09
3.6949e-10
1.18837e-09
2.13584e-10
1.12234e-09
1.50105e-10
1.08392e-09
9.10322e-11
1.0754e-09
2.42416e-11
1.10289e-09
-6.90843e-11
1.16449e-09
-1.62241e-10
1.25793e-09
-2.67585e-10
1.36573e-09
-3.11007e-10
1.47705e-09
-3.21841e-10
1.587e-09
-3.23273e-10
1.69147e-09
-3.13339e-10
1.78724e-09
-2.92559e-10
1.87195e-09
-2.62894e-10
1.94415e-09
-2.27079e-10
2.0032e-09
-1.88019e-10
2.04928e-09
-1.48431e-10
2.08318e-09
-1.10641e-10
2.1062e-09
-7.64686e-11
2.12002e-09
-4.71757e-11
2.12651e-09
-2.3488e-11
2.12763e-09
-5.65958e-12
2.12522e-09
6.43169e-12
2.12098e-09
1.3263e-11
2.11637e-09
1.55427e-11
2.11254e-09
1.41385e-11
2.11031e-09
1.00225e-11
2.11016e-09
4.20653e-12
2.11221e-09
-2.31122e-12
2.1163e-09
-8.64443e-12
2.12201e-09
-1.40037e-11
2.12877e-09
-1.78198e-11
2.13588e-09
-1.97627e-11
2.14263e-09
-1.97005e-11
2.14835e-09
-1.76951e-11
2.1525e-09
-1.39763e-11
2.15467e-09
-8.88651e-12
2.1547e-09
-2.80597e-12
2.15266e-09
3.91181e-12
2.14892e-09
1.0962e-11
1.88731e-11
2.53705e-09
7.07901e-11
2.6175e-09
1.9198e-10
2.69984e-09
2.64931e-10
2.76363e-09
2.95862e-10
2.80341e-09
2.98639e-10
2.81988e-09
2.8535e-10
2.819e-09
2.65323e-10
2.80723e-09
2.42776e-10
2.78867e-09
2.20698e-10
2.76623e-09
2.00307e-10
2.74198e-09
1.8169e-10
2.7172e-09
1.64917e-10
2.69256e-09
1.50111e-10
2.6684e-09
1.37312e-10
2.64486e-09
1.26511e-10
2.62191e-09
1.17676e-10
2.59942e-09
1.10765e-10
2.57722e-09
1.05732e-10
2.55506e-09
1.02536e-10
2.5327e-09
1.01138e-10
2.50984e-09
1.01513e-10
2.48617e-09
1.03656e-10
2.46138e-09
1.07576e-10
2.4351e-09
1.13313e-10
2.40697e-09
1.20934e-10
2.37659e-09
1.30547e-10
2.34356e-09
1.42306e-10
2.30746e-09
1.56426e-10
2.26786e-09
1.73191e-10
2.22436e-09
1.92972e-10
2.17661e-09
2.16244e-10
2.1244e-09
2.43612e-10
2.06775e-09
2.75905e-10
2.00587e-09
3.26464e-10
1.95076e-09
2.91523e-10
1.91953e-09
1.50986e-10
1.91751e-09
1.7984e-11
1.94565e-09
-9.71293e-11
2.00228e-09
-2.10213e-10
2.08266e-09
-3.23475e-10
2.18157e-09
-4.49438e-10
2.2878e-09
-5.01358e-10
2.39677e-09
-5.0514e-10
2.50201e-09
-4.89204e-10
2.59988e-09
-4.55335e-10
2.69004e-09
-4.22884e-10
2.77275e-09
-3.94395e-10
2.84752e-09
-3.51203e-10
2.91455e-09
-3.21694e-10
2.97325e-09
-2.84133e-10
3.0244e-09
-2.4341e-10
3.06693e-09
-2.07688e-10
3.10091e-09
-1.55285e-10
3.12566e-09
-1.15182e-10
3.14113e-09
-5.42393e-11
3.1465e-09
-2.01031e-12
3.14167e-09
5.84821e-11
3.12569e-09
1.26572e-10
3.09881e-09
1.7425e-10
3.05989e-09
2.54569e-10
3.00955e-09
2.93618e-10
2.94744e-09
3.45409e-10
2.87469e-09
3.81637e-10
2.79198e-09
4.03381e-10
2.70076e-09
4.27418e-10
2.60274e-09
4.26255e-10
2.49939e-09
4.33946e-10
2.3927e-09
4.21223e-10
2.28412e-09
4.14192e-10
2.17485e-09
3.99679e-10
2.0665e-09
3.82536e-10
1.95912e-09
3.72126e-10
1.8541e-09
3.53861e-10
1.75149e-09
3.40827e-10
1.65147e-09
3.28656e-10
1.55458e-09
3.14188e-10
1.46077e-09
3.01662e-10
1.37027e-09
2.8924e-10
1.28341e-09
2.74942e-10
1.20062e-09
2.59847e-10
1.12212e-09
2.44493e-10
1.04836e-09
2.27833e-10
9.79659e-10
2.10878e-10
9.1625e-10
1.93885e-10
8.58417e-10
1.76833e-10
8.06021e-10
1.61463e-10
7.58822e-10
1.4768e-10
7.16937e-10
1.34145e-10
6.79548e-10
1.23808e-10
6.46252e-10
1.1503e-10
6.16971e-10
1.0616e-10
5.91071e-10
9.93303e-11
5.68133e-10
9.30377e-11
5.48867e-10
8.44371e-11
5.3228e-10
7.78401e-11
5.2002e-10
6.62816e-11
5.11076e-10
5.64689e-11
5.07414e-10
4.08972e-11
5.08139e-10
2.6627e-11
5.15812e-10
5.2569e-12
5.29315e-10
-1.42435e-11
5.50832e-10
-3.98229e-11
5.80061e-10
-6.54255e-11
6.17653e-10
-9.30635e-11
6.64612e-10
-1.2417e-10
7.199e-10
-1.52716e-10
7.84552e-10
-1.85115e-10
8.57248e-10
-2.1404e-10
9.37673e-10
-2.43193e-10
1.02492e-09
-2.70118e-10
1.11766e-09
-2.94374e-10
1.21472e-09
-3.15371e-10
1.31475e-09
-3.33684e-10
1.41587e-09
-3.45179e-10
1.5175e-09
-3.57173e-10
1.61746e-09
-3.5985e-10
1.71488e-09
-3.60047e-10
1.80888e-09
-3.57063e-10
1.89826e-09
-3.47589e-10
1.98261e-09
-3.36133e-10
2.06171e-09
-3.22937e-10
2.13517e-09
-3.05439e-10
2.20326e-09
-2.87409e-10
2.2663e-09
-2.70201e-10
2.32458e-09
-2.51774e-10
2.37869e-09
-2.34817e-10
2.42917e-09
-2.1929e-10
2.47665e-09
-2.05391e-10
2.52179e-09
-1.94884e-10
2.5651e-09
-1.87575e-10
2.60701e-09
-1.78942e-10
2.64785e-09
-1.75835e-10
2.68854e-09
-1.78427e-10
2.72813e-09
-1.73076e-10
2.76745e-09
-1.76858e-10
2.80549e-09
-1.81382e-10
2.84245e-09
-1.73795e-10
2.87725e-09
-1.77804e-10
2.9097e-09
-1.69286e-10
2.93813e-09
-1.59331e-10
2.96233e-09
-1.43757e-10
2.98026e-09
-1.17128e-10
2.99172e-09
-8.49936e-11
2.99456e-09
-4.4924e-11
2.98872e-09
1.12745e-11
2.97205e-09
5.70102e-11
2.94431e-09
1.35715e-10
2.90386e-09
1.9107e-10
2.85109e-09
2.55905e-10
2.78406e-09
3.22649e-10
2.7044e-09
3.65712e-10
2.61029e-09
4.29643e-10
2.50458e-09
4.53904e-10
2.38618e-09
4.98888e-10
2.25822e-09
5.11107e-10
2.12192e-09
5.41312e-10
1.97929e-09
5.47272e-10
1.83497e-09
5.55191e-10
1.70116e-09
5.243e-10
1.57558e-09
4.95084e-10
1.48386e-09
3.05338e-10
1.42274e-09
2.11247e-10
1.39418e-09
1.19619e-10
1.40006e-09
1.83809e-11
1.44559e-09
-1.14608e-10
1.5254e-09
-2.42063e-10
1.63457e-09
-3.76778e-10
1.75306e-09
-4.29534e-10
1.87016e-09
-4.38982e-10
1.98174e-09
-4.3489e-10
2.08454e-09
-4.16182e-10
2.17628e-09
-3.84325e-10
2.25549e-09
-3.42125e-10
2.3215e-09
-2.93104e-10
2.37435e-09
-2.40869e-10
2.41466e-09
-1.8874e-10
2.44357e-09
-1.39534e-10
2.46255e-09
-9.54402e-11
2.47335e-09
-5.79586e-11
2.47781e-09
-2.79317e-11
2.47778e-09
-5.61634e-12
2.475e-09
9.21991e-12
2.47105e-09
1.72268e-11
2.46723e-09
1.93653e-11
2.46458e-09
1.68025e-11
2.46377e-09
1.08328e-11
2.46518e-09
2.79681e-12
2.46888e-09
-6.0041e-12
2.47463e-09
-1.43935e-11
2.48199e-09
-2.13656e-11
2.49036e-09
-2.61933e-11
2.49904e-09
-2.84501e-11
2.50732e-09
-2.79827e-11
2.51452e-09
-2.49018e-11
2.5201e-09
-1.95535e-11
2.52367e-09
-1.2457e-11
2.52508e-09
-4.22417e-12
2.52447e-09
4.52527e-12
2.52223e-09
1.31974e-11
2.24822e-11
2.52316e-09
4.75702e-11
2.58131e-09
1.33753e-10
2.65288e-09
1.93292e-10
2.72231e-09
2.26418e-10
2.78102e-09
2.39948e-10
2.82596e-09
2.40447e-10
2.85803e-09
2.3324e-10
2.87885e-09
2.21968e-10
2.89076e-09
2.08802e-10
2.89623e-09
1.94813e-10
2.89701e-09
1.80902e-10
2.89426e-09
1.6767e-10
2.88887e-09
1.55508e-10
2.8815e-09
1.44683e-10
2.8726e-09
1.35414e-10
2.86244e-09
1.2783e-10
2.8512e-09
1.22011e-10
2.83892e-09
1.18001e-10
2.82562e-09
1.15835e-10
2.81125e-09
1.15512e-10
2.79569e-09
1.17071e-10
2.7788e-09
1.20544e-10
2.7604e-09
1.25977e-10
2.74026e-09
1.33452e-10
2.71812e-09
1.43073e-10
2.69369e-09
1.54974e-10
2.66666e-09
1.69337e-10
2.63669e-09
1.86394e-10
2.60344e-09
2.06432e-10
2.56661e-09
2.298e-10
2.52594e-09
2.56919e-10
2.48126e-09
2.88286e-10
2.43259e-09
3.24574e-10
2.3792e-09
3.79845e-10
2.33028e-09
3.40442e-10
2.29916e-09
1.82105e-10
2.29184e-09
2.52801e-11
2.31091e-09
-1.16232e-10
2.35496e-09
-2.54306e-10
2.4189e-09
-3.87485e-10
2.49754e-09
-5.2814e-10
2.58261e-09
-5.86469e-10
2.67158e-09
-5.94117e-10
2.75762e-09
-5.75225e-10
2.83721e-09
-5.34902e-10
2.91007e-09
-4.9571e-10
2.97655e-09
-4.60835e-10
3.03642e-09
-4.11049e-10
3.09e-09
-3.75251e-10
3.13664e-09
-3.30748e-10
3.17738e-09
-2.84119e-10
3.21127e-09
-2.41562e-10
3.23908e-09
-1.83068e-10
3.2598e-09
-1.35899e-10
3.27422e-09
-6.8661e-11
3.28132e-09
-9.10733e-12
3.28144e-09
5.83686e-11
3.27385e-09
1.34182e-10
3.25813e-09
1.89992e-10
3.23411e-09
2.78617e-10
3.20081e-09
3.26938e-10
3.1578e-09
3.88426e-10
3.10539e-09
4.34037e-10
3.04309e-09
4.65653e-10
2.97201e-09
4.98449e-10
2.8925e-09
5.05707e-10
2.80611e-09
5.20291e-10
2.71379e-09
5.13507e-10
2.61725e-09
5.10701e-10
2.51751e-09
4.99404e-10
2.41638e-09
4.8366e-10
2.31426e-09
4.74248e-10
2.21282e-09
4.55309e-10
2.11249e-09
4.41176e-10
2.01382e-09
4.27355e-10
1.9176e-09
4.10442e-10
1.82392e-09
3.95371e-10
1.73318e-09
3.80011e-10
1.64574e-09
3.6241e-10
1.5621e-09
3.43504e-10
1.48243e-09
3.24177e-10
1.40723e-09
3.03022e-10
1.33683e-09
2.81254e-10
1.27154e-09
2.59134e-10
1.21182e-09
2.36509e-10
1.15765e-09
2.15583e-10
1.10895e-09
1.96337e-10
1.0662e-09
1.76862e-10
1.02854e-09
1.6143e-10
9.95746e-10
1.47796e-10
9.67809e-10
1.3407e-10
9.44033e-10
1.23083e-10
9.23754e-10
1.13298e-10
9.0791e-10
1.00265e-10
8.94963e-10
9.07742e-11
8.86982e-10
7.4252e-11
8.82421e-10
6.10222e-11
8.83723e-10
3.9589e-11
8.89509e-10
2.08375e-11
9.02997e-10
-8.23431e-12
9.22537e-10
-3.37854e-11
9.50789e-10
-6.80763e-11
9.87092e-10
-1.0173e-10
1.03216e-09
-1.38128e-10
1.08682e-09
-1.78838e-10
1.14974e-09
-2.15634e-10
1.2217e-09
-2.57083e-10
1.30105e-09
-2.93391e-10
1.38702e-09
-3.29176e-10
1.4785e-09
-3.61601e-10
1.57369e-09
-3.89584e-10
1.67132e-09
-4.13011e-10
1.76973e-09
-4.32112e-10
1.86707e-09
-4.42539e-10
1.96267e-09
-4.528e-10
2.05455e-09
-4.51753e-10
2.14198e-09
-4.47505e-10
2.22432e-09
-4.39441e-10
2.30076e-09
-4.24065e-10
2.3712e-09
-4.06613e-10
2.43582e-09
-3.87604e-10
2.49461e-09
-3.64274e-10
2.54821e-09
-3.41055e-10
2.59715e-09
-3.19174e-10
2.64199e-09
-2.96635e-10
2.68344e-09
-2.7628e-10
2.72212e-09
-2.57985e-10
2.75872e-09
-2.42002e-10
2.79383e-09
-2.30004e-10
2.8278e-09
-2.21567e-10
2.86098e-09
-2.12137e-10
2.89358e-09
-2.08464e-10
2.9264e-09
-2.11245e-10
2.9581e-09
-2.04758e-10
2.98951e-09
-2.08199e-10
3.01941e-09
-2.11183e-10
3.04846e-09
-2.02694e-10
3.07504e-09
-2.04201e-10
3.09955e-09
-1.93602e-10
3.12034e-09
-1.79935e-10
3.13764e-09
-1.60896e-10
3.14981e-09
-1.29192e-10
3.15716e-09
-9.22874e-11
3.15783e-09
-4.55914e-11
3.15254e-09
1.65257e-11
3.1388e-09
7.06889e-11
3.11761e-09
1.56844e-10
3.08636e-09
2.2227e-10
3.04564e-09
2.96597e-10
2.99307e-09
3.75227e-10
2.92928e-09
4.29512e-10
2.85241e-09
5.06524e-10
2.76369e-09
5.42623e-10
2.66176e-09
6.00797e-10
2.54886e-09
6.23972e-10
2.42534e-09
6.64783e-10
2.29365e-09
6.78908e-10
2.15917e-09
6.89638e-10
2.03694e-09
6.46527e-10
1.92421e-09
6.07829e-10
1.84663e-09
3.8295e-10
1.80174e-09
2.56173e-10
1.79173e-09
1.29654e-10
1.81744e-09
-7.31642e-12
1.88238e-09
-1.7953e-10
1.9775e-09
-3.37191e-10
2.09553e-09
-4.94828e-10
2.2163e-09
-5.50336e-10
2.33046e-09
-5.53199e-10
2.43517e-09
-5.39648e-10
2.52832e-09
-5.09383e-10
2.60872e-09
-4.64769e-10
2.67592e-09
-4.09354e-10
2.73008e-09
-3.47279e-10
2.77187e-09
-2.82667e-10
2.80238e-09
-2.19248e-10
2.82302e-09
-1.60161e-10
2.8354e-09
-1.07803e-10
2.84123e-09
-6.3773e-11
2.84223e-09
-2.89122e-11
2.84003e-09
-3.40307e-12
2.83614e-09
1.31312e-11
2.83185e-09
2.15276e-11
2.82824e-09
2.29862e-11
2.82611e-09
1.89446e-11
2.82597e-09
1.09789e-11
2.82806e-09
7.07173e-13
2.83237e-09
-1.03123e-11
2.83865e-09
-2.06721e-11
2.84647e-09
-2.91899e-11
2.85529e-09
-3.50079e-11
2.86445e-09
-3.76185e-11
2.87331e-09
-3.68516e-11
2.88127e-09
-3.28617e-11
2.88781e-09
-2.60966e-11
2.89258e-09
-1.72331e-11
2.89544e-09
-7.08898e-12
2.89649e-09
3.47677e-12
2.89607e-09
1.36145e-11
2.42801e-11
2.51583e-09
3.16977e-11
2.55897e-09
9.05592e-11
2.61794e-09
1.34272e-10
2.68243e-09
1.61912e-10
2.74536e-09