/*--------------------------------*- C++ -*----------------------------------*\
| =========                 |                                                 |
| \\      /  F ield         | OpenFOAM: The Open Source CFD Toolbox           |
|  \\    /   O peration     | Version:  2506                                  |
|   \\  /    A nd           | Website:  www.openfoam.com                      |
|    \\/     M anipulation  |                                                 |
\*---------------------------------------------------------------------------*/
FoamFile
{
    version     2.0;
    format      ascii;
    arch        "LSB;label=32;scalar=64";
    class       surfaceScalarField;
    location    "1.95";
    object      phi;
}
// * * * * * * * * * * * * * * * * * * * * * * * * * * * * * * * * * * * * * //

dimensions      [0 3 -1 0 0 0 0];

oriented        oriented;

internalField   nonuniform List<scalar> 
7780
(
4.08394e-10
-4.08394e-10
7.03989e-10
-2.95595e-10
8.78665e-10
-1.74676e-10
9.98444e-10
-1.19779e-10
1.08637e-09
-8.79288e-11
1.15345e-09
-6.70762e-11
1.2067e-09
-5.32547e-11
1.25044e-09
-4.37377e-11
1.28732e-09
-3.68838e-11
1.3191e-09
-3.17724e-11
1.34694e-09
-2.78474e-11
1.3717e-09
-2.47572e-11
1.39396e-09
-2.22584e-11
1.41414e-09
-2.01796e-11
1.43256e-09
-1.8419e-11
1.44947e-09
-1.69137e-11
1.4651e-09
-1.5623e-11
1.47961e-09
-1.45153e-11
1.49319e-09
-1.35785e-11
1.50599e-09
-1.28043e-11
1.51819e-09
-1.21923e-11
1.52995e-09
-1.17597e-11
1.54147e-09
-1.15279e-11
1.55301e-09
-1.1539e-11
1.56488e-09
-1.1872e-11
1.57749e-09
-1.26108e-11
1.59137e-09
-1.38755e-11
1.6073e-09
-1.59326e-11
1.62647e-09
-1.91619e-11
1.65077e-09
-2.43026e-11
1.67773e-09
-5.75371e-11
1.68165e-09
-2.19609e-10
1.65887e-09
-4.264e-10
1.61513e-09
-6.15671e-10
1.55398e-09
-7.7693e-10
1.4874e-09
-9.22556e-10
1.42433e-09
-1.06046e-09
1.33646e-09
-1.23294e-09
1.23335e-09
-1.34236e-09
1.1446e-09
-1.3869e-09
1.07009e-09
-1.42188e-09
1.01118e-09
-1.45089e-09
9.64571e-10
-1.47116e-09
9.28021e-10
-1.48411e-09
8.99881e-10
-1.49046e-09
8.7811e-10
-1.48971e-09
8.62101e-10
-1.48085e-09
8.49096e-10
-1.46399e-09
8.36449e-10
-1.43739e-09
8.20893e-10
-1.39919e-09
8.00292e-10
-1.34601e-09
7.764e-10
-1.27366e-09
7.43732e-10
-1.18591e-09
7.09829e-10
-1.06918e-09
6.78084e-10
-9.25773e-10
6.64744e-10
-7.43888e-10
6.77882e-10
-5.33661e-10
7.34974e-10
-2.76061e-10
8.35387e-10
5.23201e-12
9.53453e-10
2.87764e-10
1.07293e-09
5.45616e-10
1.18431e-09
7.85662e-10
1.27435e-09
9.56388e-10
1.34951e-09
1.10816e-09
1.40909e-09
1.2099e-09
1.45853e-09
1.29248e-09
1.50067e-09
1.35657e-09
1.53766e-09
1.40064e-09
1.57149e-09
1.43379e-09
1.60293e-09
1.45866e-09
1.63318e-09
1.47662e-09
1.66237e-09
1.48732e-09
1.69081e-09
1.49202e-09
1.71885e-09
1.49142e-09
1.74661e-09
1.4857e-09
1.77409e-09
1.47469e-09
1.80127e-09
1.45779e-09
1.82789e-09
1.4306e-09
1.85424e-09
1.39724e-09
1.88018e-09
1.3543e-09
1.90593e-09
1.29805e-09
1.92969e-09
1.21324e-09
1.95284e-09
1.11832e-09
1.97292e-09
9.76779e-10
1.99057e-09
8.10069e-10
2.00183e-09
5.66581e-10
2.00805e-09
2.9668e-10
2.00878e-09
-6.38003e-12
2.00695e-09
-3.25243e-10
2.00464e-09
-6.09348e-10
2.00431e-09
-8.28636e-10
2.00483e-09
-1.01733e-09
2.00424e-09
-1.14175e-09
2.001e-09
-1.24969e-09
1.99244e-09
-1.31552e-09
1.97667e-09
-1.36525e-09
1.95454e-09
-1.40773e-09
1.92567e-09
-1.4325e-09
1.89212e-09
-1.45168e-09
1.856e-09
-1.46633e-09
1.81932e-09
-1.47716e-09
1.78379e-09
-1.48443e-09
1.75e-09
-1.48655e-09
1.71763e-09
-1.48306e-09
1.68532e-09
-1.47299e-09
1.65115e-09
-1.45534e-09
1.61328e-09
-1.42947e-09
1.56918e-09
-1.39129e-09
1.51735e-09
-1.33922e-09
1.45655e-09
-1.27725e-09
1.38559e-09
-1.19951e-09
1.30411e-09
-1.08175e-09
1.21312e-09
-9.57186e-10
1.11933e-09
-7.72737e-10
1.03181e-09
-5.72607e-10
9.68199e-10
-3.23511e-10
9.45196e-10
-4.55429e-11
9.62899e-10
2.25086e-10
1.0111e-09
4.7827e-10
1.07792e-09
7.17586e-10
1.14362e-09
9.00946e-10
1.20353e-09
1.05567e-09
1.25398e-09
1.16927e-09
1.29731e-09
1.26688e-09
1.33401e-09
1.33212e-09
1.36648e-09
1.38249e-09
1.3966e-09
1.42287e-09
1.42516e-09
1.45185e-09
1.45289e-09
1.47117e-09
1.48046e-09
1.4839e-09
1.5082e-09
1.49091e-09
1.53649e-09
1.49248e-09
1.56546e-09
1.48882e-09
1.59509e-09
1.47882e-09
1.62588e-09
1.4631e-09
1.65769e-09
1.44125e-09
1.69098e-09
1.41172e-09
1.72604e-09
1.37343e-09
1.76201e-09
1.31542e-09
1.80015e-09
1.24844e-09
1.84007e-09
1.1639e-09
1.87988e-09
1.03388e-09
1.92086e-09
8.90439e-10
1.95853e-09
6.76201e-10
1.99302e-09
4.27192e-10
2.02195e-09
1.39077e-10
2.04579e-09
-1.79606e-10
2.06584e-09
-4.86335e-10
2.08489e-09
-7.32854e-10
2.1019e-09
-9.38008e-10
2.11612e-09
-1.0934e-09
2.12547e-09
-1.20668e-09
2.12802e-09
-1.28458e-09
2.12315e-09
-1.35244e-09
2.10926e-09
-1.39155e-09
2.08707e-09
-1.42085e-09
2.05772e-09
-1.44254e-09
2.02363e-09
-1.46068e-09
1.98693e-09
-1.47237e-09
1.94341e-09
-1.47384e-09
1.8941e-09
-1.47126e-09
1.84772e-09
-1.47245e-09
1.82519e-09
-1.48954e-09
1.76441e-09
-1.16134e-09
1.69419e-09
-1.00136e-09
1.62176e-09
-8.729e-10
1.54433e-09
-7.00777e-10
1.46967e-09
-5.16938e-10
1.4035e-09
-3.07466e-10
1.35633e-09
-9.84499e-11
1.33323e-09
1.70019e-11
1.32395e-09
9.27989e-12
1.32284e-09
1.11494e-12
1.32717e-09
-4.32993e-12
1.33408e-09
-6.90807e-12
1.34198e-09
-7.90649e-12
1.34992e-09
-7.93772e-12
1.35744e-09
-7.51956e-12
1.36425e-09
-6.81244e-12
1.37024e-09
-5.98404e-12
1.37535e-09
-5.11457e-12
1.37955e-09
-4.20187e-12
1.38278e-09
-3.22233e-12
1.3849e-09
-2.1291e-12
1.3856e-09
-7.00304e-13
1.38459e-09
1.0138e-12
1.38153e-09
3.06009e-12
1.37592e-09
5.60871e-12
1.36727e-09
8.64798e-12
1.35495e-09
1.2326e-11
1.33809e-09
1.68537e-11
1.31566e-09
2.24357e-11
1.28615e-09
2.9506e-11
1.24719e-09
3.89613e-11
1.19461e-09
5.25849e-11
1.12016e-09
7.44423e-11
1.00679e-09
1.13374e-10
8.18004e-10
1.88786e-10
4.77736e-10
3.40268e-10
4.77736e-10
-2.63354e-11
-3.82059e-10
9.4147e-11
-4.16077e-10
2.5796e-10
-3.38489e-10
4.10774e-10
-2.72593e-10
5.45236e-10
-2.22391e-10
6.61675e-10
-1.83516e-10
7.62021e-10
-1.536e-10
8.4871e-10
-1.30427e-10
9.24018e-10
-1.12192e-10
9.89846e-10
-9.76005e-11
1.04773e-09
-8.57323e-11
1.09885e-09
-7.58729e-11
1.1441e-09
-6.75131e-11
1.18425e-09
-6.03259e-11
1.21987e-09
-5.40461e-11
1.25142e-09
-4.84615e-11
1.27924e-09
-4.34436e-11
1.30366e-09
-3.89315e-11
1.32497e-09
-3.48894e-11
1.34346e-09
-3.12989e-11
1.35943e-09
-2.81578e-11
1.37315e-09
-2.54751e-11
1.38491e-09
-2.32876e-11
1.39505e-09
-2.16857e-11
1.40404e-09
-2.08615e-11
1.41241e-09
-2.09783e-11
1.42085e-09
-2.23173e-11
1.43027e-09
-2.53522e-11
1.44187e-09
-3.07598e-11
1.45739e-09
-3.98274e-11
1.47355e-09
-7.3698e-11
1.46679e-09
-2.12847e-10
1.42874e-09
-3.88344e-10
1.36286e-09
-5.49797e-10
1.27618e-09
-6.90246e-10
1.18249e-09
-8.28864e-10
1.08996e-09
-9.67931e-10
9.80596e-10
-1.12358e-09
8.65683e-10
-1.22744e-09
7.6951e-10
-1.29072e-09
6.93595e-10
-1.34597e-09
6.3648e-10
-1.39378e-09
5.95412e-10
-1.4301e-09
5.68033e-10
-1.45674e-09
5.51682e-10
-1.47411e-09
5.43383e-10
-1.48141e-09
5.40701e-10
-1.47817e-09
5.3968e-10
-1.46297e-09
5.36448e-10
-1.43416e-09
5.27286e-10
-1.39002e-09
5.09948e-10
-1.32868e-09
4.84879e-10
-1.24859e-09
4.49496e-10
-1.15052e-09
4.10655e-10
-1.03034e-09
3.74671e-10
-8.89788e-10
3.55429e-10
-7.24646e-10
3.63152e-10
-5.41384e-10
4.15782e-10
-3.28691e-10
5.16e-10
-9.49851e-11
6.55785e-10
1.47978e-10
8.15974e-10
3.85427e-10
9.78048e-10
6.23589e-10
1.12177e-09
8.12665e-10
1.24312e-09
9.86806e-10
1.33942e-09
1.11359e-09
1.41501e-09
1.21688e-09
1.47355e-09
1.29804e-09
1.5189e-09
1.35531e-09
1.55537e-09
1.39734e-09
1.58593e-09
1.42812e-09
1.61288e-09
1.44968e-09
1.63772e-09
1.46247e-09
1.66169e-09
1.46805e-09
1.68557e-09
1.46752e-09
1.70985e-09
1.4614e-09
1.73484e-09
1.44969e-09
1.76057e-09
1.43206e-09
1.78693e-09
1.40425e-09
1.81405e-09
1.37013e-09
1.84179e-09
1.32656e-09
1.87054e-09
1.2693e-09
1.89921e-09
1.18456e-09
1.92872e-09
1.08882e-09
1.95816e-09
9.47335e-10
1.98808e-09
7.80153e-10
2.01737e-09
5.37292e-10
2.04784e-09
2.6621e-10
2.07918e-09
-3.77203e-11
2.11197e-09
-3.58036e-10
2.14337e-09
-6.40749e-10
2.17178e-09
-8.5704e-10
2.19414e-09
-1.03969e-09
2.20738e-09
-1.155e-09
2.20989e-09
-1.25219e-09
2.20011e-09
-1.30574e-09
2.17871e-09
-1.34385e-09
2.14883e-09
-1.37785e-09
2.11258e-09
-1.39625e-09
2.0737e-09
-1.4128e-09
2.03508e-09
-1.42772e-09
1.99873e-09
-1.4408e-09
1.96546e-09
-1.45117e-09
1.93437e-09
-1.45546e-09
1.9034e-09
-1.45209e-09
1.86965e-09
-1.43924e-09
1.83033e-09
-1.41602e-09
1.78336e-09
-1.38251e-09
1.72608e-09
-1.33401e-09
1.65761e-09
-1.27074e-09
1.57711e-09
-1.19676e-09
1.48439e-09
-1.10679e-09
1.37933e-09
-9.76689e-10
1.26425e-09
-8.42111e-10
1.14468e-09
-6.53166e-10
1.0299e-09
-4.57836e-10
9.34152e-10
-2.27757e-10
8.75934e-10
1.26756e-11
8.63307e-10
2.37713e-10
8.9395e-10
4.47627e-10
9.57e-10
6.54535e-10
1.03527e-09
8.22673e-10
1.11533e-09
9.75603e-10
1.18815e-09
1.09645e-09
1.2502e-09
1.20483e-09
1.3007e-09
1.28162e-09
1.34093e-09
1.34226e-09
1.374e-09
1.3898e-09
1.40231e-09
1.42355e-09
1.42747e-09
1.44601e-09
1.4513e-09
1.46007e-09
1.47519e-09
1.46703e-09
1.50009e-09
1.46757e-09
1.52638e-09
1.46252e-09
1.5543e-09
1.45089e-09
1.58452e-09
1.43288e-09
1.61684e-09
1.40893e-09
1.65165e-09
1.37691e-09
1.68923e-09
1.33585e-09
1.72925e-09
1.27541e-09
1.77271e-09
1.20498e-09
1.81943e-09
1.11718e-09
1.86892e-09
9.84399e-10
1.92143e-09
8.37928e-10
1.97545e-09
6.22175e-10
2.03195e-09
3.70692e-10
2.08935e-09
8.16761e-11
2.14728e-09
-2.37532e-10
2.20223e-09
-5.41282e-10
2.25206e-09
-7.82691e-10
2.29312e-09
-9.79064e-10
2.32355e-09
-1.12383e-09
2.34038e-09
-1.2235e-09
2.34289e-09
-1.28708e-09
2.33247e-09
-1.342e-09
2.31051e-09
-1.36959e-09
2.28062e-09
-1.39097e-09
2.24644e-09
-1.40836e-09
2.21216e-09
-1.42641e-09
2.18126e-09
-1.44148e-09
2.14875e-09
-1.44135e-09
2.11581e-09
-1.43832e-09
2.09314e-09
-1.44977e-09
2.08063e-09
-1.47703e-09
2.03507e-09
-1.11578e-09
1.97374e-09
-9.40042e-10
1.90256e-09
-8.01719e-10
1.81964e-09
-6.17853e-10
1.73444e-09
-4.3174e-10
1.64912e-09
-2.22141e-10
1.57079e-09
-2.01266e-11
1.5098e-09
7.79997e-11
1.47152e-09
4.75599e-11
1.45089e-09
2.17416e-11
1.44161e-09
4.95026e-12
1.4395e-09
-4.79513e-12
1.44133e-09
-9.74186e-12
1.445e-09
-1.16076e-11
1.44925e-09
-1.17637e-11
1.45332e-09
-1.08852e-11
1.45681e-09
-9.48026e-12
1.45949e-09
-7.78748e-12
1.46112e-09
-5.8358e-12
1.46143e-09
-3.52731e-12
1.45998e-09
-6.83436e-13
1.45621e-09
3.06489e-12
1.44933e-09
7.8994e-12
1.43836e-09
1.40321e-11
1.42227e-09
2.16982e-11
1.3998e-09
3.11176e-11
1.36934e-09
4.27871e-11
1.32884e-09
5.73523e-11
1.27566e-09
7.56104e-11
1.20616e-09
9.90054e-11
1.11499e-09
1.30135e-10
9.93961e-10
1.73615e-10
8.31117e-10
2.37286e-10
6.11909e-10
3.32582e-10
3.32041e-10
4.68654e-10
5.64524e-11
6.15857e-10
5.34188e-10
-7.51463e-11
-3.06912e-10
-5.71376e-11
-4.34086e-10
2.92517e-11
-4.24878e-10
1.41964e-10
-3.85306e-10
2.59802e-10
-3.40229e-10
3.73775e-10
-2.97489e-10
4.79867e-10
-2.59693e-10
5.7674e-10
-2.273e-10
6.64363e-10
-1.99814e-10
7.43236e-10
-1.76474e-10
8.14024e-10
-1.5652e-10
8.77404e-10
-1.39253e-10
9.34003e-10
-1.24112e-10
9.84361e-10
-1.10684e-10
1.02895e-09
-9.8637e-11
1.06819e-09
-8.77002e-11
1.10244e-09
-7.76912e-11
1.13201e-09
-6.85007e-11
1.15718e-09
-6.00628e-11
1.17823e-09
-5.23523e-11
1.19543e-09
-4.53557e-11
1.20906e-09
-3.91025e-11
1.21943e-09
-3.36598e-11
1.22695e-09
-2.92018e-11
1.23202e-09
-2.59312e-11
1.23522e-09
-2.41856e-11
1.2373e-09
-2.43971e-11
1.23908e-09
-2.71264e-11
1.24157e-09
-3.32491e-11
1.24589e-09
-4.41472e-11
1.24836e-09
-7.61692e-11
1.22585e-09
-1.90341e-10
1.17126e-09
-3.33754e-10
1.0911e-09
-4.69633e-10
9.95851e-10
-5.94996e-10
8.97998e-10
-7.31011e-10
8.0382e-10
-8.73753e-10
7.01735e-10
-1.02149e-09
6.03678e-10
-1.12938e-09
5.263e-10
-1.21334e-09
4.69283e-10
-1.28895e-09
4.29737e-10
-1.35423e-09
4.05425e-10
-1.40579e-09
3.93993e-10
-1.4453e-09
3.92389e-10
-1.47251e-09
3.97203e-10
-1.48623e-09
4.05083e-10
-1.48605e-09
4.11968e-10
-1.46985e-09
4.14215e-10
-1.43641e-09
4.08879e-10
-1.38469e-09
3.94701e-10
-1.3145e-09
3.72405e-10
-1.2263e-09
3.42682e-10
-1.1208e-09
3.11097e-10
-9.98758e-10
2.84634e-10
-8.63324e-10
2.73853e-10
-7.13863e-10
2.87834e-10
-5.55366e-10
3.38446e-10
-3.79303e-10
4.30428e-10
-1.86967e-10
5.60594e-10
1.78128e-11
7.18287e-10
2.27733e-10
8.89991e-10
4.51884e-10
1.05674e-09
6.45914e-10
1.20768e-09
8.35855e-10
1.33442e-09
9.86842e-10
1.43565e-09
1.11566e-09
1.51298e-09
1.22072e-09
1.5701e-09
1.2982e-09
1.61138e-09
1.35607e-09
1.64139e-09
1.39812e-09
1.66452e-09
1.42654e-09
1.68399e-09
1.443e-09
1.70214e-09
1.44988e-09
1.72069e-09
1.44895e-09
1.74054e-09
1.44154e-09
1.76227e-09
1.42796e-09
1.78611e-09
1.40823e-09
1.81228e-09
1.37808e-09
1.8408e-09
1.34162e-09
1.87157e-09
1.29579e-09
1.90528e-09
1.23559e-09
1.94169e-09
1.14816e-09
1.98107e-09
1.04943e-09
2.02345e-09
9.04962e-10
2.06895e-09
7.34653e-10
2.11718e-09
4.89057e-10
2.1674e-09
2.15995e-10
2.2164e-09
-8.67202e-11
2.26289e-09
-4.0453e-10
2.30241e-09
-6.80265e-10
2.33292e-09
-8.87554e-10
2.35147e-09
-1.05824e-09
2.35658e-09
-1.1601e-09
2.34793e-09
-1.24354e-09
2.3267e-09
-1.2845e-09
2.29535e-09
-1.31249e-09
2.25808e-09
-1.34058e-09
2.21806e-09
-1.35622e-09
2.17895e-09
-1.3737e-09
2.14279e-09
-1.39155e-09
2.11016e-09
-1.40817e-09
2.08024e-09
-1.42125e-09
2.0505e-09
-1.42573e-09
2.01784e-09
-1.41943e-09
1.97866e-09
-1.40006e-09
1.9313e-09
-1.36866e-09
1.87455e-09
-1.32576e-09
1.8071e-09
-1.26657e-09
1.72939e-09
-1.19303e-09
1.64136e-09
-1.10874e-09
1.54389e-09
-1.00932e-09
1.43865e-09
-8.71446e-10
1.32846e-09
-7.31926e-10
1.21906e-09
-5.43762e-10
1.11811e-09
-3.56891e-10
1.03483e-09
-1.44475e-10
9.7929e-10
6.82166e-11
9.57113e-10
2.59891e-10
9.7203e-10
4.32711e-10
1.01903e-09
6.07529e-10
1.08783e-09
7.53869e-10
1.1661e-09
8.97334e-10
1.24372e-09
1.01882e-09
1.31247e-09
1.13608e-09
1.36972e-09
1.22438e-09
1.41426e-09
1.29772e-09
1.44771e-09
1.35636e-09
1.47279e-09
1.39848e-09
1.49251e-09
1.42629e-09
1.50984e-09
1.44274e-09
1.52711e-09
1.44976e-09
1.54611e-09
1.44856e-09
1.56777e-09
1.44085e-09
1.59256e-09
1.4261e-09
1.62126e-09
1.40418e-09
1.65373e-09
1.37647e-09
1.69048e-09
1.34016e-09
1.73192e-09
1.29442e-09
1.77836e-09
1.22897e-09
1.83027e-09
1.15306e-09
1.88752e-09
1.05993e-09
1.9509e-09
9.21021e-10
2.01977e-09
7.69051e-10
2.09342e-09
5.48529e-10
2.17072e-09
2.9339e-10
2.24741e-09
4.99053e-12
2.32067e-09
-3.10795e-10
2.38518e-09
-6.05794e-10
2.43773e-09
-8.35241e-10
2.47483e-09
-1.01616e-09
2.49569e-09
-1.14469e-09
2.4994e-09
-1.2272e-09
2.48818e-09
-1.27584e-09
2.46517e-09
-1.31898e-09
2.43428e-09
-1.3387e-09
2.40047e-09
-1.35715e-09
2.36791e-09
-1.37581e-09
2.34058e-09
-1.3991e-09
2.32126e-09
-1.42218e-09
2.30265e-09
-1.42276e-09
2.28266e-09
-1.41834e-09
2.26627e-09
-1.4334e-09
2.2447e-09
-1.45544e-09
2.20481e-09
-1.07588e-09
2.15173e-09
-8.86956e-10
2.08898e-09
-7.38961e-10
2.01813e-09
-5.47007e-10
1.94916e-09
-3.62772e-10
1.88227e-09
-1.55252e-10
1.81772e-09
4.44177e-11
1.76e-09
1.35726e-10
1.71477e-09
9.27902e-11
1.68134e-09
5.5172e-11
1.65759e-09
2.86977e-11
1.64114e-09
1.16536e-11
1.62974e-09
1.66125e-12
1.62162e-09
-3.4948e-12
1.61554e-09
-5.67853e-12
1.61063e-09
-5.98068e-12
1.60636e-09
-5.20111e-12
1.60228e-09
-3.7083e-12
1.59798e-09
-1.53837e-12
1.59294e-09
1.51417e-12
1.58645e-09
5.80763e-12
1.57772e-09
1.17891e-11
1.56574e-09
1.98792e-11
1.5492e-09
3.05699e-11
1.5265e-09
4.44006e-11
1.49563e-09
6.19926e-11
1.45443e-09
8.39833e-11
1.40043e-09
1.11348e-10
1.33017e-09
1.45871e-10
1.23882e-09
1.90358e-10
1.11969e-09
2.49264e-10
9.63872e-10
3.29435e-10
7.61528e-10
4.3963e-10
5.09041e-10
5.8507e-10
2.30882e-10
7.46813e-10
1.92763e-11
8.27462e-10
5.53464e-10
-6.35701e-11
-2.43342e-10
-9.08922e-11
-4.06764e-10
-6.5485e-11
-4.50285e-10
-5.56564e-12
-4.45225e-10
7.27135e-11
-4.18508e-10
1.58451e-10
-3.83226e-10
2.45179e-10
-3.46421e-10
3.29262e-10
-3.11383e-10
4.08778e-10
-2.79331e-10
4.82796e-10
-2.50492e-10
5.50929e-10
-2.24652e-10
6.13097e-10
-2.01421e-10
6.69385e-10
-1.80399e-10
7.19945e-10
-1.61244e-10
7.64967e-10
-1.43659e-10
8.04665e-10
-1.27399e-10
8.39258e-10
-1.12284e-10
8.68951e-10
-9.81939e-11
8.93947e-10
-8.50583e-11
9.14446e-10
-7.28521e-11
9.30673e-10
-6.15823e-11
9.42878e-10
-5.13079e-11
9.51371e-10
-4.21526e-11
9.56509e-10
-3.434e-11
9.58762e-10
-2.81845e-11
9.58685e-10
-2.41084e-11
9.56995e-10
-2.27069e-11
9.54572e-10
-2.47032e-11
9.52425e-10
-3.1102e-11
9.51705e-10
-4.34275e-11
9.48989e-10
-7.34529e-11
9.22696e-10
-1.64049e-10
8.68792e-10
-2.7985e-10
7.96316e-10
-3.97158e-10
7.16608e-10
-5.15287e-10
6.38326e-10
-6.52729e-10
5.65271e-10
-8.00698e-10
4.89354e-10
-9.45575e-10
4.21073e-10
-1.0611e-09
3.711e-10
-1.16337e-09
3.38025e-10
-1.25588e-09
3.18875e-10
-1.33508e-09
3.11995e-10
-1.39891e-09
3.15133e-10
-1.44844e-09
3.2511e-10
-1.48248e-09
3.38447e-10
-1.49957e-09
3.51671e-10
-1.49927e-09
3.61187e-10
-1.47937e-09
3.64126e-10
-1.43935e-09
3.58655e-10
-1.37922e-09
3.44523e-10
-1.30037e-09
3.23133e-10
-1.20491e-09
2.96704e-10
-1.09437e-09
2.70408e-10
-9.72462e-10
2.5029e-10
-8.43207e-10
2.44184e-10
-7.07757e-10
2.59017e-10
-5.70198e-10
3.0332e-10
-4.23606e-10
3.82962e-10
-2.66609e-10
4.99149e-10
-9.83739e-11
6.47396e-10
7.94853e-11
8.20011e-10
2.79267e-10
1.00126e-09
4.64663e-10
1.17865e-09
6.58461e-10
1.33955e-09
8.25937e-10
1.47699e-09
9.78231e-10
1.58765e-09
1.11007e-09
1.67205e-09
1.21382e-09
1.73285e-09
1.29528e-09
1.77415e-09
1.35681e-09
1.80114e-09
1.39953e-09
1.81873e-09
1.42539e-09
1.83102e-09
1.43757e-09
1.84175e-09
1.43822e-09
1.85363e-09
1.42966e-09
1.86836e-09
1.41324e-09
1.88692e-09
1.38968e-09
1.91011e-09
1.35489e-09
1.93791e-09
1.31383e-09
1.97003e-09
1.26366e-09
2.00708e-09
1.19854e-09
2.04875e-09
1.10648e-09
2.09482e-09
1.00336e-09
2.14525e-09
8.54527e-10
2.19924e-09
6.8066e-10
2.25559e-09
4.32709e-10
2.31196e-09
1.59626e-10
2.3639e-09
-1.38658e-10
2.40917e-09
-4.49798e-10
2.44248e-09
-7.13582e-10
2.46252e-09
-9.07587e-10
2.46712e-09
-1.06285e-09
2.45702e-09
-1.15e-09
2.43346e-09
-1.21998e-09
2.39995e-09
-1.25099e-09
2.36014e-09
-1.27269e-09
2.31854e-09
-1.29897e-09
2.27822e-09
-1.31589e-09
2.24169e-09
-1.33717e-09
2.20928e-09
-1.35915e-09
2.1798e-09
-1.37869e-09
2.15024e-09
-1.39169e-09
2.11673e-09
-1.39222e-09
2.07672e-09
-1.37943e-09
2.02872e-09
-1.35206e-09
1.9717e-09
-1.31165e-09
1.90484e-09
-1.25889e-09
1.82841e-09
-1.19014e-09
1.74403e-09
-1.10864e-09
1.65239e-09
-1.0171e-09
1.55466e-09
-9.1159e-10
1.45364e-09
-7.70425e-10
1.35158e-09
-6.29869e-10
1.25471e-09
-4.46886e-10
1.16885e-09
-2.71039e-10
1.10119e-09
-7.68116e-11
1.05887e-09
1.10533e-10
1.04479e-09
2.7397e-10
1.0614e-09
4.161e-10
1.10685e-09
5.6208e-10
1.17547e-09
6.85251e-10
1.25827e-09
8.14528e-10
1.34581e-09
9.31291e-10
1.42846e-09
1.05343e-09
1.501e-09
1.15184e-09
1.55925e-09
1.23947e-09
1.60295e-09
1.31266e-09
1.63352e-09
1.36791e-09
1.65382e-09
1.406e-09
1.66752e-09
1.42902e-09
1.67813e-09
1.43915e-09
1.68912e-09
1.43756e-09
1.70277e-09
1.42719e-09
1.72089e-09
1.40798e-09
1.74495e-09
1.38013e-09
1.77497e-09
1.34646e-09
1.81159e-09
1.30354e-09
1.855e-09
1.25101e-09
1.90556e-09
1.17841e-09
1.96341e-09
1.09521e-09
2.02804e-09
9.95305e-10
2.10022e-09
8.48842e-10
2.17815e-09
6.91121e-10
2.26031e-09
4.66364e-10
2.34411e-09
2.09594e-10
2.42368e-09
-7.45772e-11
2.49511e-09
-3.82226e-10
2.5522e-09
-6.6289e-10
2.59233e-09
-8.75366e-10
2.61307e-09
-1.0369e-09
2.61574e-09
-1.14736e-09
2.60193e-09
-1.21339e-09
2.57644e-09
-1.25036e-09
2.54373e-09
-1.28626e-09
2.50909e-09
-1.30405e-09
2.47749e-09
-1.32553e-09
2.45218e-09
-1.35049e-09
2.43533e-09
-1.38226e-09
2.42746e-09
-1.41433e-09
2.41745e-09
-1.41277e-09
2.39874e-09
-1.39965e-09
2.37207e-09
-1.40675e-09
2.32859e-09
-1.41195e-09
2.28012e-09
-1.02739e-09
2.22502e-09
-8.3185e-10
2.16477e-09
-6.78705e-10
2.10146e-09
-4.83692e-10
2.04367e-09
-3.04988e-10
1.99199e-09
-1.03566e-10
1.94553e-09
9.08761e-11
1.90147e-09
1.79784e-10
1.85881e-09
1.35452e-10
1.81942e-09
9.45638e-11
1.78445e-09
6.36594e-11
1.75416e-09
4.19492e-11
1.72815e-09
2.76718e-11
1.70585e-09
1.88048e-11
1.6866e-09
1.35745e-11
1.66988e-09
1.07339e-11
1.65521e-09
9.47257e-12
1.64206e-09
9.44059e-12
1.62983e-09
1.06903e-11
1.61778e-09
1.35656e-11
1.605e-09
1.85856e-11
1.59045e-09
2.63408e-11
1.57287e-09
3.74602e-11
1.55079e-09
5.2646e-11
1.52251e-09
7.2687e-11
1.48599e-09
9.85034e-11
1.43881e-09
1.31164e-10
1.37797e-09
1.72195e-10
1.29971e-09
2.24129e-10
1.19908e-09
2.90992e-10
1.06951e-09
3.78825e-10
9.03276e-10
4.95673e-10
6.94382e-10
6.48524e-10
4.47907e-10
8.31544e-10
1.98397e-10
9.96323e-10
2.43109e-11
1.00155e-09
5.77775e-10
-4.94529e-11
-1.93889e-10
-9.26155e-11
-3.63601e-10
-1.03852e-10
-4.39048e-10
-8.58754e-11
-4.63202e-10
-4.66444e-11
-4.57739e-10
5.77492e-12
-4.35646e-10
6.49369e-11
-4.05583e-10
1.26594e-10
-3.7304e-10
1.8797e-10
-3.40707e-10
2.47298e-10
-3.0982e-10
3.03472e-10
-2.80826e-10
3.55821e-10
-2.53771e-10
4.03963e-10
-2.28541e-10
4.4769e-10
-2.04971e-10
4.86911e-10
-1.82881e-10
5.2162e-10
-1.62108e-10
5.51861e-10
-1.42524e-10
5.77708e-10
-1.24042e-10
5.99265e-10
-1.06614e-10
6.16657e-10
-9.02445e-11
6.30055e-10
-7.49803e-11
6.39677e-10
-6.09298e-11
6.45811e-10
-4.82869e-11
6.48819e-10
-3.73479e-11
6.49173e-10
-2.85381e-11
6.47469e-10
-2.24045e-11
6.44436e-10
-1.96738e-11
6.41049e-10
-2.13165e-11
6.3838e-10
-2.84335e-11
6.37753e-10
-4.27997e-11
6.3664e-10
-7.23401e-11
6.17375e-10
-1.44784e-10
5.78268e-10
-2.40742e-10
5.28257e-10
-3.47146e-10
4.76801e-10
-4.63832e-10
4.2816e-10
-6.04088e-10
3.83873e-10
-7.56411e-10
3.38478e-10
-9.0018e-10
3.00319e-10
-1.02295e-09
2.76036e-10
-1.13909e-09
2.64189e-10
-1.24403e-09
2.62334e-10
-1.33323e-09
2.69241e-10
-1.40581e-09
2.82739e-10
-1.46194e-09
2.99737e-10
-1.49948e-09
3.16946e-10
-1.51678e-09
3.31154e-10
-1.51348e-09
3.39513e-10
-1.48773e-09
3.40076e-10
-1.43991e-09
3.32022e-10
-1.37116e-09
3.15917e-10
-1.28426e-09
2.93666e-10
-1.18266e-09
2.6803e-10
-1.06873e-09
2.43558e-10
-9.4799e-10
2.25087e-10
-8.24735e-10
2.18355e-10
-7.01025e-10
2.28469e-10
-5.80312e-10
2.62034e-10
-4.57171e-10
3.2504e-10
-3.29614e-10
4.21472e-10
-1.94806e-10
5.52337e-10
-5.13812e-11
7.1573e-10
1.15873e-10
9.00551e-10
2.7984e-10
1.0965e-09
4.62512e-10
1.28924e-09
6.33206e-10
1.46809e-09
7.99388e-10
1.62456e-09
9.53613e-10
1.7541e-09
1.08428e-09
1.85514e-09
1.19424e-09
1.92817e-09
1.28376e-09
1.97757e-09
1.35012e-09
2.00849e-09
1.39445e-09
2.02616e-09
1.41989e-09
2.03593e-09
1.42845e-09
2.04283e-09
1.42278e-09
2.05029e-09
1.40579e-09
2.061e-09
1.37898e-09
2.07692e-09
1.33899e-09
2.09866e-09
1.29209e-09
2.12623e-09
1.23609e-09
2.16041e-09
1.16436e-09
2.20079e-09
1.0661e-09
2.24667e-09
9.57477e-10
2.29749e-09
8.03703e-10
2.35167e-09
6.26483e-10
2.40691e-09
3.7747e-10
2.45994e-09
1.06595e-10
2.50525e-09
-1.83967e-10
2.53998e-09
-4.84534e-10
2.55883e-09
-7.32423e-10
2.56171e-09
-9.10466e-10
2.54784e-09
-1.04898e-09
2.52026e-09
-1.12242e-09
2.48182e-09
-1.18154e-09
2.4377e-09
-1.20686e-09
2.39204e-09
-1.22702e-09
2.34879e-09
-1.25573e-09
2.30992e-09
-1.27702e-09
2.27599e-09
-1.30324e-09
2.24518e-09
-1.32834e-09
2.21429e-09
-1.3478e-09
2.17969e-09
-1.35709e-09
2.13884e-09
-1.35138e-09
2.08963e-09
-1.33022e-09
2.03067e-09
-1.2931e-09
1.96182e-09
-1.2428e-09
1.88473e-09
-1.1818e-09
1.80058e-09
-1.106e-09
1.71148e-09
-1.01954e-09
1.61786e-09
-9.23469e-10
1.52061e-09
-8.14338e-10
1.42289e-09
-6.72705e-10
1.32608e-09
-5.33062e-10
1.2368e-09
-3.57603e-10
1.15965e-09
-1.93886e-10
1.10145e-09
-1.86155e-11
1.06846e-09
1.43518e-10
1.06229e-09
2.80143e-10
1.08507e-09
3.93318e-10
1.13641e-09
5.10741e-10
1.21185e-09
6.09817e-10
1.30558e-09
7.20788e-10
1.40982e-09
8.2706e-10
1.51545e-09
9.47801e-10
1.61505e-09
1.05224e-09
1.70154e-09
1.15299e-09
1.771e-09
1.2432e-09
1.82306e-09
1.31584e-09
1.85884e-09
1.37022e-09
1.88141e-09
1.40644e-09
1.89453e-09
1.42602e-09
1.90367e-09
1.42841e-09
1.91218e-09
1.41868e-09
1.92362e-09
1.39655e-09
1.94089e-09
1.36287e-09
1.96477e-09
1.32259e-09
1.99658e-09
1.27173e-09
2.03677e-09
1.21082e-09
2.08569e-09
1.12949e-09
2.14326e-09
1.03763e-09
2.20841e-09
9.30158e-10
2.28138e-09
7.75866e-10
2.35958e-09
6.12926e-10
2.44027e-09
3.85673e-10
2.5199e-09
1.29965e-10
2.5914e-09
-1.46076e-10
2.6502e-09
-4.41033e-10
2.69003e-09
-7.02711e-10
2.70975e-09
-8.95088e-10
2.70884e-09
-1.03599e-09
2.69118e-09
-1.12971e-09
2.66082e-09
-1.18303e-09
2.62447e-09
-1.214e-09
2.58707e-09
-1.24885e-09
2.55392e-09
-1.27089e-09
2.52857e-09
-1.30018e-09
2.512e-09
-1.33392e-09
2.50313e-09
-1.37338e-09
2.49976e-09
-1.41097e-09
2.48713e-09
-1.40016e-09
2.45738e-09
-1.36992e-09
2.4124e-09
-1.36178e-09
2.34574e-09
-1.3453e-09
2.28565e-09
-9.67293e-10
2.22261e-09
-7.68795e-10
2.15623e-09
-6.12318e-10
2.09106e-09
-4.18521e-10
2.03545e-09
-2.49374e-10
1.99052e-09
-5.86367e-11
1.95508e-09
1.26318e-10
1.92152e-09
2.13336e-10
1.88248e-09
1.74495e-10
1.84046e-09
1.36585e-10
1.79802e-09
1.061e-10
1.75708e-09
8.28876e-11
1.71884e-09
6.59128e-11
1.68392e-09
5.37226e-11
1.65254e-09
4.49583e-11
1.62464e-09
3.86287e-11
1.59995e-09
3.41698e-11
1.57793e-09
3.14566e-11
1.55787e-09
3.07501e-11
1.53885e-09
3.25829e-11
1.5198e-09
3.76418e-11
1.49946e-09
4.66761e-11
1.47645e-09
6.04752e-11
1.44919e-09
7.99011e-11
1.41595e-09
1.05933e-10
1.3747e-09
1.39749e-10
1.32304e-09
1.82827e-10
1.25799e-09
2.3724e-10
1.17592e-09
3.06204e-10
1.07223e-09
3.94678e-10
9.41336e-10
5.09719e-10
7.77605e-10
6.59404e-10
5.79292e-10
8.46837e-10
3.57714e-10
1.05312e-09
1.49939e-10
1.2041e-09
1.81904e-11
1.1333e-09
5.95966e-10
-3.73131e-11
-1.56576e-10
-8.32643e-11
-3.1765e-10
-1.12968e-10
-4.09344e-10
-1.21351e-10
-4.54819e-10
-1.11293e-10
-4.67797e-10
-8.70066e-11
-4.59932e-10
-5.33768e-11
-4.39212e-10
-1.43799e-11
-4.12037e-10
2.71358e-11
-3.82223e-10
6.91329e-11
-3.51817e-10
1.1019e-10
-3.21883e-10
1.49329e-10
-2.9291e-10
1.85893e-10
-2.65106e-10
2.19447e-10
-2.38524e-10
2.49711e-10
-2.13145e-10
2.76521e-10
-1.88918e-10
2.99795e-10
-1.65798e-10
3.19509e-10
-1.43756e-10
3.35693e-10
-1.22798e-10
3.48422e-10
-1.02974e-10
3.57832e-10
-8.43907e-11
3.64124e-10
-6.72214e-11
3.67589e-10
-5.1752e-11
3.68597e-10
-3.83556e-11
3.67659e-10
-2.76007e-11
3.6541e-10
-2.01552e-11
3.62659e-10
-1.69225e-11
3.60395e-10
-1.90525e-11
3.59811e-10
-2.78496e-11
3.62255e-10
-4.52438e-11
3.66275e-10
-7.636e-11
3.59103e-10
-1.37612e-10
3.40225e-10
-2.21864e-10
3.16502e-10
-3.23423e-10
2.94215e-10
-4.41545e-10
2.74095e-10
-5.83967e-10
2.56254e-10
-7.3857e-10
2.37385e-10
-8.81311e-10
2.2386e-10
-1.00942e-09
2.19819e-10
-1.13505e-09
2.2425e-10
-1.24846e-09
2.35221e-10
-1.3442e-09
2.51664e-10
-1.42226e-09
2.71457e-10
-1.48174e-09
2.91678e-10
-1.5197e-09
3.09361e-10
-1.53446e-09
3.21827e-10
-1.52595e-09
3.27016e-10
-1.49292e-09
3.23844e-10
-1.43674e-09
3.12304e-10
-1.35962e-09
2.93537e-10
-1.2655e-09
2.69719e-10
-1.15884e-09
2.43663e-10
-1.04268e-09
2.19195e-10
-9.23523e-10
2.00034e-10
-8.05574e-10
1.9035e-10
-6.91341e-10
1.93801e-10
-5.83762e-10
2.15431e-10
-4.78801e-10
2.60444e-10
-3.74628e-10
3.33613e-10
-2.67975e-10
4.38785e-10
-1.56555e-10
5.79185e-10
-2.45282e-11
7.49484e-10
1.09542e-10
9.44597e-10
2.67405e-10
1.15227e-09
4.25539e-10
1.36159e-09
5.90075e-10
1.56109e-09
7.54125e-10
1.74104e-09
9.04319e-10
1.89585e-09
1.03942e-09
2.02122e-09
1.15838e-09
2.11661e-09
1.25471e-09
2.18362e-09
1.32743e-09
2.22729e-09
1.37622e-09
2.25255e-09
1.4032e-09
2.26646e-09
1.40889e-09
2.27393e-09
1.39833e-09
2.28037e-09
1.37256e-09
2.28919e-09
1.33017e-09
2.30267e-09
1.2786e-09
2.32185e-09
1.21691e-09
2.34826e-09
1.13795e-09
2.38154e-09
1.03282e-09
2.42109e-09
9.17927e-10
2.46575e-09
7.59049e-10
2.5134e-09
5.78831e-10
2.56055e-09
3.30323e-10
2.60325e-09
6.38924e-11
2.6351e-09
-2.15823e-10
2.65303e-09
-5.02464e-10
2.65236e-09
-7.3175e-10
2.63476e-09
-8.92862e-10
2.60113e-09
-1.01535e-09
2.55667e-09
-1.07797e-09
2.50548e-09
-1.13034e-09
2.45355e-09
-1.15494e-09
2.40465e-09
-1.17812e-09
2.36133e-09
-1.2124e-09
2.32369e-09
-1.23938e-09
2.29034e-09
-1.26988e-09
2.25781e-09
-1.2958e-09
2.22186e-09
-1.31185e-09
2.17896e-09
-1.3142e-09
2.12667e-09
-1.29908e-09
2.0639e-09
-1.26745e-09
1.99155e-09
-1.22076e-09
1.91154e-09
-1.16279e-09
1.82621e-09
-1.09648e-09
1.7368e-09
-1.01659e-09
1.64498e-09
-9.27717e-10
1.5505e-09
-8.28987e-10
1.45371e-09
-7.17545e-10
1.35771e-09
-5.76707e-10
1.26337e-09
-4.38714e-10
1.17759e-09
-2.71826e-10
1.10437e-09
-1.2067e-10
1.05053e-09
3.5225e-11
1.02169e-09
1.72355e-10
1.01884e-09
2.83e-10
1.04339e-09
3.68765e-10
1.09632e-09
4.57815e-10
1.17453e-09
5.316e-10
1.27516e-09
6.20157e-10
1.39239e-09
7.09832e-10
1.51925e-09
8.20949e-10
1.64712e-09
9.24368e-10
1.76836e-09
1.03176e-09
1.87593e-09
1.13563e-09
1.96543e-09
1.22633e-09
2.03475e-09
1.3009e-09
2.08457e-09
1.3566e-09
2.11652e-09
1.39407e-09
2.13731e-09
1.40762e-09
2.15037e-09
1.40563e-09
2.16134e-09
1.38559e-09
2.17464e-09
1.34958e-09
2.19249e-09
1.30473e-09
2.21756e-09
1.24667e-09
2.25109e-09
1.17728e-09
2.29377e-09
1.08681e-09
2.34578e-09
9.85619e-10
2.40567e-09
8.70265e-10
2.473e-09
7.08539e-10
2.54468e-09
5.4125e-10
2.61657e-09
3.13785e-10
2.68441e-09
6.21226e-11
2.74021e-09
-2.01876e-10
2.7792e-09
-4.80023e-10
2.79597e-09
-7.19481e-10
2.79177e-09
-8.90886e-10
2.76848e-09
-1.0127e-09
2.73251e-09
-1.09374e-09
2.68975e-09
-1.14027e-09
2.6477e-09
-1.17195e-09
2.61059e-09
-1.21173e-09
2.58221e-09
-1.2425e-09
2.56344e-09
-1.28141e-09
2.55215e-09
-1.32263e-09
2.54453e-09
-1.36575e-09
2.53537e-09
-1.40181e-09
2.51019e-09
-1.375e-09
2.46273e-09
-1.32247e-09
2.39455e-09
-1.29361e-09
2.30365e-09
-1.25441e-09
2.22915e-09
-8.92785e-10
2.15649e-09
-6.96135e-10
2.08439e-09
-5.40204e-10
2.01725e-09
-3.51379e-10
1.96155e-09
-1.93673e-10
1.91857e-09
-1.56595e-11
1.88747e-09
1.57421e-10
1.85872e-09
2.42083e-10
1.8213e-09
2.11909e-10
1.77754e-09
1.80352e-10
1.73031e-09
1.5333e-10
1.68226e-09
1.30935e-10
1.6355e-09
1.12671e-10
1.59151e-09
9.77191e-11
1.55115e-09
8.53166e-11
1.51478e-09
7.49937e-11
1.4823e-09
6.66525e-11
1.4532e-09
6.0561e-11
1.42666e-09
5.72842e-11
1.40167e-09
5.75762e-11
1.37703e-09
6.22841e-11
1.35141e-09
7.22905e-11
1.32337e-09
8.85163e-11
1.2913e-09
1.11969e-10
1.25343e-09
1.4381e-10
1.20772e-09
1.8545e-10
1.15186e-09
2.38694e-10
1.08305e-09
3.06043e-10
9.98041e-10
3.91218e-10
8.92983e-10
4.99736e-10
7.63774e-10
6.38928e-10
6.07619e-10
8.15559e-10
4.27521e-10