/*--------------------------------*- C++ -*----------------------------------*\
| =========                 |                                                 |
| \\      /  F ield         | OpenFOAM: The Open Source CFD Toolbox           |
|  \\    /   O peration     | Version:  2506                                  |
|   \\  /    A nd           | Website:  www.openfoam.com                      |
|    \\/     M anipulation  |                                                 |
\*---------------------------------------------------------------------------*/
FoamFile
{
    version     2.0;
    format      ascii;
    arch        "LSB;label=32;scalar=64";
    class       volVectorField;
    location    "1.95";
    object      vorticityField;
}
// * * * * * * * * * * * * * * * * * * * * * * * * * * * * * * * * * * * * * //

dimensions      [0 0 -1 0 0 0 0];

internalField   nonuniform List<vector> 
4000
(
(2.72841e-19 4.83419e-20 21.668)
(5.96436e-20 5.15337e-20 23.289)
(9.542e-20 2.86626e-19 20.0105)
(3.94104e-19 4.53256e-19 17.0421)
(-5.53126e-19 5.57756e-19 14.9822)
(2.32181e-20 5.014e-21 13.4015)
(3.78272e-19 5.97571e-19 12.1176)
(-6.55106e-20 7.01179e-19 11.0639)
(-8.46624e-20 3.18951e-20 10.1882)
(-5.03545e-20 -5.90303e-19 9.45092)
(4.97118e-19 1.55804e-17 8.8238)
(-2.11493e-18 -2.74031e-17 8.28514)
(1.39848e-18 1.249e-17 7.82162)
(-1.51028e-18 -1.40915e-17 7.42084)
(2.29837e-18 1.32239e-17 7.0738)
(-1.80378e-18 6.61883e-19 6.7734)
(1.54741e-18 1.49263e-17 6.51462)
(-2.03989e-18 -1.32903e-17 6.29239)
(-1.18477e-18 3.40838e-20 6.10249)
(1.96295e-18 6.28413e-20 5.94096)
(-1.51734e-19 6.68018e-20 5.80409)
(-2.72998e-18 -7.71116e-19 5.6879)
(2.56369e-18 -8.87879e-19 5.58893)
(2.76133e-18 2.32297e-20 5.50312)
(-2.92136e-18 -7.51104e-19 5.42541)
(-1.83428e-19 -9.11756e-19 5.34972)
(-3.60796e-18 -1.05224e-19 5.26852)
(4.90978e-19 -3.84314e-18 5.17156)
(1.14081e-17 3.20992e-17 5.04412)
(-4.11883e-18 -2.49834e-17 4.85408)
(-5.42581e-18 5.75366e-18 4.56352)
(-1.28978e-17 -7.81043e-17 4.31685)
(3.04731e-18 7.25901e-17 4.3468)
(-3.22366e-17 -1.66906e-17 4.70579)
(-4.14208e-18 -1.87425e-16 5.36219)
(1.06674e-16 5.55549e-16 6.2876)
(-9.6117e-19 1.04838e-16 7.39922)
(-2.57178e-17 -8.9212e-17 9.16992)
(-1.21358e-18 -4.64158e-17 11.8858)
(-5.74384e-18 3.00339e-17 14.8783)
(-4.22629e-17 -1.59408e-16 17.7687)
(1.21191e-16 3.608e-16 20.3892)
(-2.7219e-18 1.50338e-17 22.6602)
(1.68002e-16 2.27568e-16 24.5268)
(-8.20532e-17 -4.05457e-17 25.9469)
(2.39143e-18 1.94783e-16 26.9081)
(2.84863e-17 1.26658e-16 27.3764)
(-4.20414e-17 -2.32745e-16 27.4211)
(-1.49804e-16 -1.93468e-16 27.1281)
(-7.96611e-17 -1.41345e-16 26.6213)
(-3.09206e-17 -5.98873e-17 26.0143)
(3.63043e-18 6.23991e-18 25.3168)
(2.16908e-17 -1.82714e-17 24.8053)
(2.21367e-17 2.26336e-16 24.3985)
(-2.52371e-17 1.80053e-16 24.0647)
(-1.28464e-17 -1.90888e-16 23.5904)
(-1.79769e-17 -6.66853e-17 22.864)
(3.96377e-18 1.66857e-17 21.5679)
(2.06298e-19 -4.84464e-19 19.4595)
(1.74185e-18 -2.21506e-17 16.8131)
(3.54385e-18 -4.58733e-17 14.0024)
(-8.40758e-18 9.82943e-17 11.2619)
(-4.53506e-17 2.39307e-16 8.88738)
(1.56507e-17 -2.22865e-16 7.02838)
(5.4406e-19 1.97704e-17 5.65214)
(-3.56259e-18 3.11733e-18 4.72317)
(4.72973e-19 -4.25137e-18 4.13646)
(1.12255e-17 -9.81015e-17 3.80492)
(6.24819e-18 -4.93886e-16 3.63549)
(5.15486e-17 -2.56138e-16 3.5491)
(-1.66618e-18 6.34584e-17 3.50287)
(-5.63002e-17 2.56129e-16 3.45822)
(8.56983e-19 -2.50599e-16 3.38609)
(-1.99629e-17 8.48882e-17 3.27821)
(-3.33831e-17 2.18154e-16 3.13501)
(2.47629e-17 -2.89493e-16 2.96112)
(4.94953e-17 -2.72197e-16 2.76281)
(5.81598e-18 -1.63132e-16 2.54626)
(-2.23484e-18 2.98618e-17 2.32247)
(-1.98785e-17 1.92039e-17 2.09405)
(1.71354e-17 9.71762e-18 1.86433)
(-1.48104e-17 1.7506e-16 1.63724)
(5.31187e-19 -3.19197e-17 1.41995)
(1.08735e-17 -1.40796e-16 1.20878)
(5.12807e-19 1.48841e-16 1.00795)
(-7.86115e-20 -9.73027e-18 0.818551)
(2.10786e-19 -1.55756e-21 0.636986)
(-2.599e-19 6.40466e-18 0.444883)
(5.1681e-20 2.5316e-17 0.220033)
(1.37107e-18 -5.76193e-17 -0.0638922)
(-2.33976e-19 -1.17974e-18 -0.438361)
(-2.19149e-18 7.23831e-18 -0.954297)
(8.65192e-18 -4.21074e-18 -1.60589)
(-1.11695e-17 -2.74484e-17 -2.40853)
(2.84392e-17 1.80343e-16 -3.28497)
(-1.72019e-17 2.00554e-16 -4.15841)
(3.33794e-17 2.41681e-16 -4.98478)
(1.91446e-17 3.12925e-17 -5.66129)
(-2.76267e-17 1.97916e-16 -6.1645)
(-2.92279e-17 2.74716e-16 -6.49326)
(-2.59747e-19 -6.87629e-18 -6.68463)
(4.91359e-17 2.24001e-16 -6.7962)
(-4.59504e-18 5.56421e-16 -6.87409)
(1.40065e-18 5.02027e-17 -6.94414)
(-7.32265e-18 2.89727e-16 -6.9933)
(1.89334e-18 6.50159e-17 -6.96134)
(5.77986e-17 -2.16166e-16 -6.76805)
(5.55066e-17 -2.54799e-16 -6.30294)
(2.25286e-17 -2.28829e-17 -5.4513)
(2.33195e-17 4.07566e-17 -4.20578)
(1.38897e-17 -2.63137e-16 -2.56614)
(-3.13987e-17 1.88507e-16 -0.442688)
(7.70922e-19 -5.02894e-18 1.95268)
(1.6237e-17 4.069e-16 4.61506)
(7.68802e-18 1.16653e-16 7.24045)
(4.81695e-18 1.89995e-16 9.53658)
(2.56878e-19 5.10944e-18 11.0476)
(2.1632e-20 4.93404e-17 11.5342)
(1.19209e-18 -6.3956e-18 11.0813)
(-2.26159e-19 6.60605e-19 9.98253)
(-1.72637e-18 -1.30098e-17 8.57965)
(1.43894e-17 -1.65785e-16 7.2076)
(-2.73479e-17 2.76992e-16 6.05535)
(3.57954e-19 1.31647e-17 5.16447)
(-1.19971e-17 1.40259e-16 4.53866)
(3.59919e-17 -4.62611e-16 4.14747)
(-5.43875e-17 3.0731e-16 3.92026)
(-1.90042e-17 -2.30844e-16 3.79039)
(-4.8114e-17 8.6944e-17 3.71397)
(1.09061e-17 -2.04138e-16 3.65023)
(1.19832e-18 6.82026e-17 3.57317)
(-5.50437e-17 2.83041e-16 3.46392)
(4.8678e-17 -1.04669e-16 3.32057)
(-3.55728e-17 2.84125e-16 3.14786)
(-2.17253e-17 -1.59061e-17 2.95001)
(-3.01908e-18 -2.86249e-17 2.73286)
(2.47163e-17 -1.88365e-16 2.50233)
(-2.31249e-17 2.18072e-16 2.26147)
(1.92486e-18 -2.88537e-17 2.02001)
(1.49842e-17 8.91944e-18 1.78112)
(-1.22078e-17 1.61579e-16 1.54201)
(2.93026e-18 -3.8289e-17 1.31784)
(-2.13423e-17 1.79516e-16 1.10238)
(2.09644e-18 -2.38053e-17 0.907592)
(-4.21834e-19 -9.67138e-17 0.72887)
(3.09651e-18 -5.26757e-17 0.554524)
(-6.51863e-19 4.68007e-17 0.367084)
(3.17898e-19 -3.22726e-17 0.141907)
(9.46336e-19 -7.05802e-19 -0.178435)
(1.25859e-18 3.67018e-17 -0.62616)
(1.62083e-18 1.85127e-17 -1.24574)
(-1.14733e-17 -2.65553e-16 -2.0441)
(-2.38045e-19 3.05869e-17 -2.94576)
(4.20936e-17 -6.0215e-18 -3.95151)
(1.97567e-17 1.58971e-16 -4.92868)
(5.36886e-18 7.82852e-17 -5.81252)
(-3.65779e-18 1.04859e-18 -6.54077)
(-2.54862e-17 -2.79818e-17 -7.11689)
(1.57244e-17 6.75982e-17 -7.55646)
(1.42065e-17 -5.51903e-16 -7.92527)
(-1.23136e-17 -1.50837e-17 -8.30671)
(-3.77638e-17 2.89892e-16 -8.70407)
(3.28118e-17 2.55627e-16 -10.1182)
(7.36073e-18 4.2006e-17 -8.71002)
(-3.79841e-17 -2.02492e-16 -7.60992)
(-8.04185e-19 -4.03368e-16 -6.21566)
(-5.18922e-18 -2.89792e-17 -4.63648)
(-1.02536e-18 -3.91743e-17 -2.98595)
(-3.24296e-18 -1.4094e-16 -1.23368)
(-1.54706e-18 -4.69657e-17 0.470276)
(-2.6908e-18 -2.31685e-18 1.82391)
(8.58901e-21 -5.9732e-19 2.65286)
(-1.37765e-18 -1.06731e-20 3.11817)
(1.3323e-18 -5.64947e-19 3.34338)
(1.05858e-19 -9.089e-20 3.42545)
(-4.08369e-20 -3.64845e-17 3.43248)
(3.48852e-19 3.52341e-17 3.40518)
(-7.5202e-20 1.82934e-17 3.36774)
(-3.00394e-19 -1.80886e-17 3.33418)
(-1.50559e-20 1.69407e-17 3.31173)
(1.40246e-20 -3.56211e-17 3.30396)
(-9.73716e-21 1.68905e-17 3.3127)
(-1.00001e-19 -2.64647e-21 3.34012)
(1.08048e-19 -5.53109e-19 3.38968)
(-1.70493e-20 3.77045e-19 3.46724)
(4.78423e-19 -1.74824e-17 3.58121)
(-4.94376e-19 1.64172e-17 3.74038)
(7.13515e-19 -1.66881e-17 3.95634)
(-7.20821e-19 1.62509e-17 4.24201)
(4.7714e-19 -8.74645e-18 4.61395)
(-4.89348e-19 7.80261e-18 5.09194)
(3.80344e-20 -6.82274e-19 5.7004)
(-3.8884e-20 -4.56044e-19 6.47394)
(-5.11595e-19 -9.20355e-21 7.46278)
(5.96466e-19 -4.47584e-19 8.74825)
(-6.9032e-20 -7.25222e-19 10.4683)
(5.47268e-19 -2.78232e-18 12.8933)
(-4.37685e-19 3.48413e-18 16.5905)
(-4.91979e-21 -4.59919e-19 21.4623)
(-4.81441e-20 -1.26587e-20 21.0908)
(-6.48124e-20 -1.71208e-19 -1.00272)
(-4.08033e-20 -3.17423e-20 6.03186)
(-2.13408e-20 -5.18339e-19 7.39461)
(7.18513e-19 1.49094e-18 7.33089)
(-1.38299e-18 -4.38874e-18 6.90212)
(5.35998e-19 -1.44766e-18 6.36639)
(6.06534e-20 3.03729e-18 5.81964)
(-1.35803e-19 -1.21143e-18 5.30011)
(-3.71945e-20 -1.02657e-18 4.82233)
(1.49726e-19 -1.03762e-18 4.39066)
(-7.15748e-19 -1.25239e-18 4.00498)
(1.18309e-18 -1.3166e-17 3.66347)
(-1.03904e-18 1.18601e-17 3.3633)
(2.29613e-18 -1.24713e-17 3.10123)
(-1.0961e-18 2.33792e-17 2.8745)
(4.62931e-19 -2.57051e-17 2.6805)
(-1.20719e-18 1.0039e-17 2.51661)
(8.63123e-19 -1.19834e-17 2.3807)
(2.3625e-18 -1.7897e-17 2.27104)
(-1.65051e-18 2.24498e-17 2.18593)
(-3.5743e-19 2.88204e-18 2.12378)
(6.74139e-19 -2.86706e-17 2.08301)
(-1.87999e-18 2.09134e-17 2.0619)
(2.37347e-18 2.90825e-17 2.0581)
(2.72148e-18 -2.16123e-17 2.06968)
(-2.54091e-18 1.44402e-19 2.09449)
(-3.80369e-18 -2.51854e-17 2.12838)
(4.92808e-18 -9.97908e-18 2.16724)
(-3.19451e-18 4.94817e-17 2.20576)
(2.34651e-18 1.33353e-17 2.2365)
(-1.46533e-18 -1.9308e-17 2.25382)
(6.58823e-18 -1.20724e-17 2.27278)
(-3.74773e-18 -4.33468e-17 2.36446)
(1.51713e-17 -1.34802e-16 2.52648)
(-3.1109e-17 -1.24334e-16 2.71643)
(-1.02703e-16 -2.21308e-16 2.91658)
(-3.49786e-18 -7.85794e-17 3.17748)
(4.96964e-17 1.358e-16 3.67934)
(2.96841e-18 6.05034e-17 4.41008)
(-8.68509e-17 -4.98213e-17 5.19734)
(-2.82833e-17 3.27176e-18 6.05667)
(-1.50055e-16 -2.451e-16 6.90457)
(-3.99778e-17 7.10805e-18 7.66419)
(-2.95141e-16 -3.9856e-16 8.30283)
(1.45929e-16 1.11253e-16 8.80053)
(-1.8017e-16 -1.15778e-16 9.13991)
(1.11755e-16 -7.53825e-18 9.30801)
(3.75446e-18 5.08193e-17 9.33586)
(7.92428e-19 3.02827e-17 9.24003)
(1.25462e-16 1.89829e-16 9.05388)
(-1.33364e-16 -6.45541e-17 8.79118)
(1.41003e-17 -5.0425e-17 8.46957)
(1.13155e-16 1.01589e-16 8.15239)
(-4.78142e-17 -3.23073e-17 7.8607)
(8.2863e-17 1.0849e-16 7.62921)
(6.83597e-18 1.76108e-17 7.41247)
(2.13138e-17 5.17322e-17 7.23829)
(-8.14524e-18 -2.46777e-17 7.06448)
(-8.30648e-19 -4.46403e-18 6.7489)
(-3.81763e-18 1.78101e-17 6.16642)
(-1.47789e-17 7.10409e-17 5.26138)
(-1.25513e-17 1.55024e-16 4.14686)
(2.17568e-18 1.76134e-16 2.88515)
(-1.31258e-17 1.78505e-16 1.74758)
(-1.80805e-17 -3.12963e-17 0.790562)
(2.21242e-17 9.59591e-18 0.102868)
(4.44729e-19 -3.6762e-18 -0.292796)
(-1.10615e-17 7.63384e-17 -0.448318)
(-1.82813e-17 4.42955e-16 -0.429274)
(-6.40995e-17 -2.28679e-16 -0.290703)
(-4.25924e-18 5.29378e-17 -0.0926358)
(2.69225e-17 2.7445e-16 0.100901)
(-3.40866e-17 2.23352e-16 0.252708)
(-3.68534e-17 2.42914e-16 0.355567)
(5.09657e-17 -1.03005e-16 0.410986)
(3.2296e-18 -4.80623e-17 0.420017)
(-5.60556e-17 -1.17557e-16 0.386384)
(-3.05971e-17 2.53598e-16 0.312244)
(7.14445e-19 5.74954e-18 0.210776)
(2.70087e-17 1.25195e-16 0.0891118)
(-2.4979e-17 -1.73236e-16 -0.0467723)
(1.40172e-17 1.18565e-17 -0.204025)
(5.35166e-20 -3.56335e-20 -0.367356)
(-1.05266e-17 -5.13058e-18 -0.53251)
(2.17039e-19 -1.41103e-16 -0.693095)
(-2.42899e-19 1.43605e-17 -0.848954)
(1.07134e-18 -8.07434e-18 -1.00239)
(7.6477e-20 8.57816e-18 -1.1387)
(-1.28794e-19 -1.15266e-17 -1.23982)
(2.11961e-19 1.45869e-16 -1.3165)
(-4.10524e-19 -6.2354e-18 -1.39313)
(-1.48046e-17 3.74836e-18 -1.5015)
(-1.76508e-17 1.88414e-16 -1.6684)
(3.7464e-17 -1.95541e-16 -1.91593)
(-3.64143e-17 2.1209e-16 -2.22454)
(-1.35092e-17 -2.34138e-16 -2.59472)
(-8.22896e-17 1.2919e-16 -3.01346)
(-6.11693e-17 2.76905e-16 -3.43336)
(6.57199e-18 -2.03302e-16 -3.84128)
(2.5829e-17 -2.68496e-16 -4.21517)
(6.22492e-19 -6.02131e-17 -4.54696)
(-9.85612e-17 2.50307e-16 -4.83847)
(-2.09702e-17 -2.87084e-16 -5.09017)
(1.99061e-17 1.85734e-18 -5.30468)
(-7.13716e-17 -4.2083e-17 -5.47974)
(-2.1391e-18 -6.62058e-17 -5.59616)
(-1.03867e-16 4.79423e-16 -5.64594)
(-7.5626e-17 6.10989e-16 -5.5966)
(-4.18836e-17 3.18943e-16 -5.43755)
(-5.86004e-17 2.3542e-16 -5.15093)
(1.45097e-17 3.2278e-16 -4.76427)
(2.96084e-17 -4.5687e-16 -4.23442)
(-2.36231e-18 -1.10751e-17 -3.63465)
(-4.38906e-17 -2.17271e-16 -2.92731)
(-5.53666e-18 8.91165e-18 -2.15199)
(-7.26977e-18 -7.60151e-17 -1.29236)
(-1.81226e-19 -1.20596e-17 -0.393641)
(1.69883e-18 -3.50496e-17 0.398184)
(2.95299e-20 -2.63588e-18 0.893819)
(-5.25068e-20 4.62763e-18 1.05471)
(2.91671e-19 2.11101e-17 0.866179)
(-3.86805e-17 1.99756e-16 0.488359)
(2.53654e-17 -3.85946e-17 0.0369432)
(2.25013e-18 -4.97339e-17 -0.34391)
(6.64677e-17 -2.13128e-16 -0.587658)
(-9.41543e-17 3.58682e-16 -0.682424)
(7.42977e-17 1.74159e-16 -0.633102)
(-2.40381e-17 4.85359e-16 -0.484768)
(-2.40983e-17 4.01612e-16 -0.287578)
(-1.6056e-17 1.26656e-16 -0.0867826)
(-5.36855e-18 3.24462e-17 0.0780153)
(3.30001e-17 7.409e-17 0.194495)
(2.61588e-17 -4.34266e-16 0.261613)
(3.28524e-17 1.09208e-16 0.27988)
(-5.91193e-18 1.31656e-16 0.253452)
(-8.06955e-18 -1.68698e-17 0.188739)
(-1.35465e-18 -1.38191e-20 0.0963699)
(5.79854e-17 -6.22688e-17 -0.0173856)
(5.2117e-19 -5.44861e-17 -0.155449)
(-1.36444e-17 -1.0315e-16 -0.303419)
(8.38353e-19 -2.00505e-17 -0.451962)
(1.16737e-18 9.94354e-18 -0.606199)
(2.25821e-17 5.17049e-17 -0.754966)
(5.19703e-18 -6.41111e-17 -0.895452)
(-9.0828e-18 9.91584e-17 -1.03011)
(-4.0867e-18 -5.68373e-18 -1.1574)
(1.64735e-18 3.16883e-17 -1.26985)
(-7.05674e-19 -3.46423e-17 -1.36367)
(-6.10372e-19 7.53682e-17 -1.44974)
(-6.5231e-18 -2.15845e-18 -1.56914)
(2.50419e-18 1.56332e-18 -1.75543)
(1.09201e-17 8.06208e-18 -2.03075)
(-1.50642e-17 -4.53346e-17 -2.38581)
(-7.49623e-17 4.60718e-16 -2.83088)
(-4.18508e-17 1.33291e-16 -3.31333)
(-1.05161e-17 7.23174e-17 -3.82989)
(-3.84856e-19 -3.79691e-17 -4.34825)
(1.26179e-16 -3.83339e-16 -4.857)
(-3.73083e-17 8.36935e-17 -5.35417)
(7.35594e-18 3.27127e-16 -5.84181)
(1.908e-17 6.31785e-17 -6.34623)
(3.33383e-18 -2.43035e-16 -6.85336)
(-3.38131e-17 4.16611e-17 -7.4292)
(1.8508e-17 3.80418e-17 -6.89655)
(9.14587e-17 -3.22687e-16 -7.01387)
(9.37415e-18 2.19285e-16 -6.99417)
(4.03681e-18 1.76674e-17 -6.80384)
(-2.10574e-18 -3.43689e-18 -6.56368)
(1.55014e-17 3.879e-17 -6.22382)
(1.95004e-18 4.91862e-17 -5.71269)
(1.37287e-18 -3.88551e-17 -5.07216)
(-1.88593e-18 -7.7235e-20 -4.44191)
(5.56676e-20 -4.16773e-17 -3.87944)
(-4.06895e-19 3.86332e-17 -3.42543)
(2.21404e-20 2.40686e-18 -3.07651)
(1.72019e-19 3.89645e-17 -2.80857)
(-3.8958e-19 1.72483e-19 -2.60154)
(2.20418e-19 -2.02407e-17 -2.43732)
(8.42287e-20 -1.72979e-17 -2.30152)
(-4.54753e-20 -1.83963e-17 -2.18664)
(2.52847e-20 1.80501e-17 -2.08627)
(1.29884e-20 -5.38584e-19 -1.99531)
(-4.62849e-20 1.84202e-17 -1.90973)
(2.25979e-20 -1.91691e-17 -1.82328)
(-2.32666e-20 -6.52315e-19 -1.73095)
(1.61847e-19 -1.60491e-17 -1.62958)
(-1.65056e-19 1.95333e-17 -1.51194)
(2.60999e-19 -1.73331e-17 -1.37003)
(-6.83705e-19 1.91452e-17 -1.19201)
(5.94771e-19 -6.77705e-18 -0.959877)
(-2.17565e-19 8.92812e-18 -0.665075)
(-1.04521e-19 -6.73718e-19 -0.288597)
(-3.33496e-20 1.86593e-18 0.199243)
(-4.94129e-19 6.06408e-18 0.841494)
(3.19954e-19 -7.25084e-18 1.70046)
(-1.16962e-19 1.5443e-18 2.86462)
(-4.84626e-19 7.06958e-20 4.38086)
(6.84421e-19 -6.05918e-19 5.97154)
(2.45441e-19 3.69628e-19 5.77535)
(-1.32804e-19 -1.26595e-19 -1.91893)
(-2.12396e-19 2.56955e-19 -4.63001)
(-1.07645e-18 6.76624e-21 0.562481)
(5.82408e-19 -4.21654e-19 2.60167)
(-6.59325e-20 4.16791e-19 3.53604)
(1.06171e-19 -6.33411e-19 3.9712)
(1.40415e-18 2.18608e-18 4.14264)
(-1.74188e-18 -1.79334e-18 4.16372)
(4.63748e-19 4.95303e-19 4.09955)
(2.15555e-19 8.41104e-19 3.98942)
(4.09468e-19 2.59987e-18 3.85729)
(2.20429e-19 1.1502e-18 3.71795)
(1.13755e-18 3.86223e-18 3.58138)
(-1.38322e-18 -1.08422e-17 3.45109)
(2.16929e-18 2.13193e-17 3.33083)
(-2.14603e-18 -7.77976e-18 3.22284)
(2.39431e-18 1.17943e-17 3.12806)
(-1.32498e-18 -6.10724e-18 3.04591)
(2.81846e-19 1.20772e-18 2.97634)
(4.81277e-18 2.5839e-17 2.91926)
(-4.82184e-18 -1.85925e-17 2.8746)
(4.14381e-19 -8.08362e-19 2.84213)
(4.64988e-18 6.80453e-18 2.82164)
(-5.13316e-18 -2.48514e-17 2.81171)
(-2.15856e-18 1.81664e-17 2.81063)
(2.32293e-18 2.75101e-17 2.81694)
(-4.26386e-18 -1.17481e-17 2.82891)
(7.51999e-18 -2.76012e-17 2.84391)
(7.59598e-19 1.69238e-17 2.8584)
(-4.4562e-18 3.23825e-18 2.86715)
(-4.57296e-18 -5.64219e-20 2.86421)
(9.19427e-18 2.23065e-19 2.85065)
(-5.86545e-19 -2.14193e-17 2.82546)
(1.24999e-17 5.43832e-17 2.79759)
(3.40425e-17 1.62641e-16 2.71701)
(1.28299e-18 -5.59945e-17 2.54024)
(3.79958e-17 1.9612e-17 2.27699)
(-6.4687e-17 -1.29561e-16 2.0148)
(4.93698e-18 -7.49473e-17 1.89665)
(9.17198e-17 9.97272e-17 1.94187)
(-1.56788e-17 -3.00496e-17 2.07679)
(2.57418e-16 1.94216e-16 2.32942)
(9.80808e-18 1.53673e-16 2.65204)
(-8.61658e-17 3.78399e-17 2.98872)
(-4.68351e-17 -4.96033e-18 3.31397)
(-3.35777e-19 -9.43099e-17 3.60978)
(1.40466e-16 1.89535e-16 3.86049)
(-3.42941e-16 -1.42566e-16 4.05067)
(-7.37135e-17 -7.35381e-17 4.18463)
(-2.36074e-17 -1.50508e-17 4.25596)
(-2.87169e-17 -4.53753e-17 4.26491)
(1.10322e-16 1.18288e-16 4.21248)
(-3.55366e-17 -1.10347e-17 4.10055)
(-4.73792e-17 -5.96109e-17 3.95417)
(1.04357e-17 -1.22631e-17 3.75054)
(6.17028e-17 5.43878e-17 3.55448)
(-2.51722e-17 -3.37217e-18 3.35574)
(-3.08999e-17 -3.71316e-17 3.162)
(1.33523e-17 1.5305e-17 2.95444)
(6.34156e-19 5.40826e-18 2.68915)
(3.43348e-19 1.15333e-18 2.27825)
(1.04211e-17 8.91978e-18 1.7306)
(2.2405e-17 -2.60228e-17 0.959609)
(6.10255e-17 -3.49163e-17 0.0238304)
(7.16416e-18 -1.82459e-16 -0.988085)
(3.64936e-17 1.73911e-16 -1.93796)
(8.98535e-18 -2.54262e-16 -2.72363)
(-2.95173e-17 4.91185e-17 -3.27548)
(3.47389e-18 -6.28303e-17 -3.59234)
(3.51421e-17 -4.5913e-16 -3.69777)
(-1.15722e-17 5.53847e-16 -3.61285)
(2.55261e-17 -1.18112e-16 -3.40958)
(4.83532e-17 -2.43437e-16 -3.14639)
(5.71606e-17 2.00261e-17 -2.85674)
(5.24451e-17 1.09845e-16 -2.57273)
(1.9971e-17 -2.87906e-16 -2.32299)
(-4.56546e-17 -5.17598e-17 -2.12034)
(-2.28524e-17 4.51423e-16 -1.96732)
(2.39717e-17 -9.85014e-17 -1.86095)
(2.16476e-17 -7.72054e-17 -1.79804)
(1.15956e-17 -2.99394e-16 -1.76555)
(-1.08834e-17 3.87913e-16 -1.75521)
(-1.34024e-17 -2.72152e-17 -1.75507)
(1.24387e-17 -9.03534e-18 -1.76341)
(-1.45713e-19 6.39191e-18 -1.75823)
(-9.92107e-18 1.42064e-16 -1.74939)
(5.79785e-19 -1.16466e-17 -1.71425)
(-3.2046e-18 -3.39568e-17 -1.6534)
(1.81718e-19 6.42316e-19 -1.542)
(-1.01186e-18 -2.43526e-17 -1.37863)
(-4.51639e-18 -1.47242e-16 -1.19122)
(-7.58482e-19 2.83211e-18 -1.0059)
(1.56813e-17 -3.2884e-16 -0.850394)
(8.9232e-18 -2.22544e-16 -0.759724)
(-3.25306e-17 3.86744e-16 -0.765313)
(-2.37961e-17 5.6757e-17 -0.873686)
(6.51205e-17 -1.72772e-16 -1.09054)
(7.69527e-17 -4.63263e-16 -1.39961)
(2.24359e-17 -2.99778e-16 -1.75533)
(3.96305e-17 -1.03262e-17 -2.12865)
(-7.32149e-17 2.48636e-16 -2.48149)
(-2.22649e-19 5.71096e-17 -2.78625)
(2.51787e-17 -2.96912e-16 -3.02841)
(2.48167e-17 -2.56568e-17 -3.20007)
(-8.62874e-17 2.97695e-16 -3.30726)
(5.33997e-17 -2.56725e-16 -3.37047)
(1.74717e-18 2.54183e-17 -3.42704)
(6.3626e-17 -6.15036e-16 -3.46516)
(-3.08368e-17 -4.12529e-16 -3.48062)
(-6.10319e-17 -3.8098e-17 -3.48204)
(1.43845e-17 -2.9082e-16 -3.46219)
(-2.81215e-17 -6.05668e-17 -3.41347)
(2.18934e-17 2.66762e-16 -3.31698)
(5.55276e-19 2.43452e-17 -3.21416)
(4.73823e-17 -2.06945e-16 -3.07088)
(-4.84413e-19 4.26842e-18 -2.93657)
(3.06252e-18 9.61215e-19 -2.79207)
(7.01895e-20 1.1965e-18 -2.65522)
(-3.55593e-18 3.50625e-17 -2.50956)
(-5.67783e-19 -1.46403e-18 -2.4014)
(7.78575e-19 -4.32461e-18 -2.46022)
(-5.60345e-19 1.04944e-17 -2.66142)
(2.5818e-17 -2.30382e-17 -2.99542)
(2.08228e-17 -1.45274e-17 -3.39537)
(-3.15785e-18 -2.43176e-17 -3.76677)
(-5.84201e-17 -1.65962e-16 -4.02971)
(6.27704e-17 1.7496e-16 -4.18159)
(4.04628e-18 -5.42042e-16 -4.18532)
(7.66026e-17 -2.31053e-16 -4.04059)
(1.03669e-16 -8.76643e-17 -3.79846)
(3.96654e-18 -2.16081e-16 -3.51091)
(1.93473e-17 -1.34401e-18 -3.20968)
(1.83582e-17 -2.23756e-16 -2.91242)
(-5.91002e-17 3.07614e-17 -2.64571)
(9.45643e-18 -1.04831e-17 -2.42938)
(2.80225e-17 -2.61268e-17 -2.2635)
(-2.03407e-17 4.08479e-17 -2.14305)
(-9.80132e-18 -2.37328e-16 -2.06147)
(-7.05196e-18 -3.04354e-16 -2.01241)
(-7.84015e-19 7.7982e-17 -1.98297)
(3.63419e-18 1.73147e-16 -1.9646)
(2.37166e-17 1.53388e-16 -1.94661)
(1.14796e-17 -7.54023e-17 -1.92016)
(3.34488e-18 -1.03079e-16 -1.89195)
(-6.68231e-18 -5.06192e-17 -1.84168)
(1.11347e-17 7.17935e-17 -1.77028)
(-8.0885e-19 1.12203e-17 -1.65895)
(-4.01471e-19 -1.98045e-18 -1.49701)
(-3.16316e-18 -1.10015e-16 -1.31228)
(-8.46424e-19 -6.96728e-17 -1.1301)
(1.08126e-17 -2.22661e-16 -0.981929)
(-8.57099e-19 9.20221e-17 -0.903369)
(4.90758e-18 -3.41619e-17 -0.923303)
(3.81596e-17 -1.88087e-16 -1.05517)
(5.42415e-17 -4.67981e-16 -1.31426)
(1.77935e-17 -2.83351e-16 -1.65877)
(6.44289e-18 8.03863e-18 -2.07751)
(7.5712e-17 -3.12996e-16 -2.52916)
(-1.49731e-16 7.36106e-16 -2.97891)
(-4.73576e-17 1.27973e-16 -3.40696)
(-3.53071e-18 -2.08219e-17 -3.7796)
(-9.51456e-17 2.98611e-16 -4.12122)
(3.49252e-17 5.65991e-17 -4.38417)
(-3.55641e-18 -1.5323e-17 -4.48364)
(-7.02233e-17 1.88646e-16 -4.09978)
(-2.96581e-17 3.5912e-16 -4.21548)
(-2.82436e-18 1.74024e-17 -4.34689)
(3.83293e-18 5.94486e-18 -4.44527)
(2.05212e-17 -1.2581e-16 -4.57545)
(-1.87653e-17 1.02458e-16 -4.71016)
(1.68082e-18 2.53614e-18 -4.81661)
(1.85906e-18 -3.75332e-18 -4.80444)
(2.24037e-18 -4.92394e-17 -4.59816)
(1.04965e-18 1.15599e-20 -4.21773)
(-2.09511e-18 -2.86139e-18 -3.7802)
(1.00233e-18 -3.74629e-18 -3.35483)
(-6.34349e-20 -4.36416e-17 -2.97136)
(-4.51257e-19 -3.23969e-18 -2.63852)
(4.26724e-19 4.41895e-17 -2.35469)
(6.8523e-20 -9.24332e-19 -2.1141)
(-1.00399e-21 2.08804e-17 -1.9101)
(-3.37649e-21 -2.21512e-17 -1.73574)
(1.64262e-20 1.20038e-18 -1.58423)
(-1.88646e-20 4.12487e-21 -1.44943)
(-2.87614e-22 1.22575e-18 -1.32567)
(-3.89558e-20 2.28997e-18 -1.20776)
(7.96687e-20 -2.0579e-17 -1.09227)
(-2.59207e-20 1.82465e-17 -0.974481)
(1.88524e-19 -1.83975e-17 -0.849411)
(-8.18665e-19 3.57035e-17 -0.70931)
(8.72239e-19 -2.86537e-17 -0.54508)
(-1.08225e-19 9.52345e-18 -0.344691)
(-1.30799e-19 2.80655e-18 -0.0925965)
(1.35956e-19 -1.05023e-18 0.233458)
(5.21051e-19 2.16419e-19 0.666549)
(-5.41279e-19 2.23832e-18 1.24555)
(-1.39762e-20 -8.37368e-19 1.97925)
(5.3238e-20 1.69206e-19 2.72182)
(-4.70654e-19 1.037e-19 2.81212)
(9.9244e-19 -5.78606e-19 0.412879)
(1.03799e-18 5.84693e-19 -7.48353)
(-5.24284e-19 2.79173e-19 -4.38546)
(1.71892e-20 -2.17687e-19 -1.09815)
(-3.56805e-19 1.82853e-19 0.6395)
(-7.61867e-19 3.72597e-21 1.75987)
(4.76586e-19 -5.5824e-19 2.51804)
(1.5635e-18 1.41776e-18 3.02103)
(-1.20262e-18 -7.27076e-19 3.35172)
(4.85603e-19 2.08483e-19 3.56517)
(-1.0028e-19 3.14996e-19 3.69968)
(-1.5436e-18 -1.54417e-18 3.78144)
(6.29206e-19 -1.46192e-19 3.82815)
(-3.05027e-19 -6.58548e-19 3.85199)
(-2.47958e-20 1.78905e-19 3.86035)
(-1.41499e-18 -2.11118e-18 3.85885)
(5.04934e-19 -1.77725e-19 3.85143)
(-1.023e-18 2.04329e-19 3.84068)
(6.05845e-20 -1.16419e-18 3.82818)
(5.68345e-21 -1.4027e-17 3.81511)
(-3.9282e-18 2.63867e-17 3.80226)
(2.81785e-18 -1.41225e-17 3.79016)
(2.43089e-18 -4.13263e-18 3.77906)
(-2.70952e-18 1.75285e-17 3.76879)
(1.97059e-18 -1.50226e-17 3.75832)
(-2.28974e-18 -4.31983e-18 3.74633)
(-3.52418e-18 2.89119e-18 3.73148)
(2.39152e-18 -2.1138e-17 3.71132)
(6.77782e-19 1.39138e-17 3.68365)
(-3.47101e-18 -8.68281e-19 3.64474)
(-9.76841e-19 2.07653e-17 3.58801)
(3.21649e-18 -1.72671e-17 3.50755)
(1.82003e-19 2.17648e-17 3.39962)
(3.56773e-18 -8.29779e-18 3.23366)
(-2.15149e-17 -5.89646e-17 3.00029)
(-2.32557e-17 -4.5068e-17 2.65667)
(6.18077e-17 4.02366e-17 2.19238)
(-3.02621e-17 -1.14641e-17 1.64893)
(2.39558e-17 -6.20181e-18 1.12963)
(7.9923e-18 -2.96911e-17 0.75205)
(-3.65151e-17 -4.51175e-17 0.533135)
(4.80289e-18 3.65687e-17 0.440111)
(-3.71744e-17 -8.02851e-17 0.496171)
(-7.51116e-18 -7.11756e-17 0.661763)
(3.43792e-16 1.34765e-16 0.892506)
(1.167e-16 1.38028e-16 1.16567)
(2.51802e-17 3.53536e-17 1.46248)
(1.64014e-19 6.96605e-18 1.76317)
(6.78472e-17 1.00278e-17 2.04685)
(3.60801e-16 1.60013e-16 2.30129)
(1.37255e-16 1.42478e-16 2.50879)
(1.53498e-17 -1.86609e-17 2.65738)
(2.41787e-16 1.2834e-16 2.73856)
(-1.90182e-18 7.76797e-17 2.75088)
(-1.16274e-16 -7.38911e-17 2.70825)
(-4.73234e-19 -2.44991e-17 2.61142)
(-2.1387e-17 -2.12351e-17 2.48972)
(4.60956e-17 3.20229e-17 2.35425)
(1.97769e-17 2.64011e-17 2.22689)
(-2.30497e-17 -2.86757e-17 2.1053)
(4.27339e-18 5.78543e-18 1.97028)
(3.80542e-18 6.81571e-18 1.75146)
(-1.42331e-17 -3.98118e-17 1.40348)
(5.75672e-18 -2.99368e-17 0.822891)
(1.33213e-17 -1.53099e-16 0.0547327)
(-2.56451e-17 1.94338e-16 -0.919846)
(-3.70914e-18 -4.05034e-16 -1.96219)
(-8.02794e-17 5.07035e-17 -2.99474)
(2.97127e-17 2.78038e-16 -3.91643)
(-8.97986e-19 3.77379e-17 -4.64543)
(-6.90363e-17 2.82764e-16 -5.16251)
(5.3751e-17 -4.29648e-16 -5.43666)
(-5.09194e-17 -1.75196e-16 -5.50417)
(-2.70939e-17 2.17355e-17 -5.39128)
(8.51765e-18 -2.69811e-16 -5.15746)
(2.19931e-17 -1.9131e-16 -4.85549)
(-5.25761e-17 1.12083e-16 -4.52801)
(6.2427e-18 4.17281e-16 -4.20498)
(5.50986e-17 -3.37698e-16 -3.90671)
(-2.88092e-18 3.56624e-17 -3.63539)
(-2.8973e-17 -1.64625e-16 -3.40049)
(-3.7004e-17 2.15056e-16 -3.19067)
(4.97322e-17 -2.19274e-16 -2.99897)
(2.40138e-17 1.72032e-16 -2.80653)
(-2.27795e-17 -1.78339e-16 -2.62999)
(-1.04904e-17 1.98915e-17 -2.43566)
(9.05442e-18 -8.81224e-18 -2.23977)
(-3.3403e-19 -2.77923e-18 -2.00581)
(9.60316e-19 4.34089e-17 -1.74626)
(-2.05677e-20 -1.69659e-18 -1.45053)
(1.84254e-18 4.38867e-17 -1.12356)
(3.96896e-18 7.80247e-17 -0.78391)
(-1.53342e-18 -2.8603e-17 -0.45818)
(7.78477e-18 1.96789e-16 -0.176774)
(-1.98278e-17 2.02101e-16 0.0224276)
(6.52659e-18 -2.0199e-16 0.108095)
(-1.4907e-17 -3.41123e-17 0.0707653)
(-1.72843e-17 2.0342e-16 -0.0881893)
(-2.42136e-17 2.7013e-16 -0.344416)
(1.56512e-17 3.25576e-17 -0.648723)
(-9.36772e-17 2.71437e-16 -0.956727)
(1.15823e-16 -5.06796e-16 -1.22368)
(3.65867e-19 -5.13759e-17 -1.41784)
(2.35126e-17 2.53901e-17 -1.51986)
(-3.60239e-20 2.73091e-17 -1.54072)
(3.90399e-17 -3.06729e-16 -1.51792)
(2.92615e-17 -2.09809e-17 -1.46857)
(-2.33201e-18 5.03399e-18 -1.43511)
(5.92065e-17 7.21128e-17 -1.41814)
(1.15183e-16 -2.24941e-16 -1.41631)
(5.82305e-17 -3.04631e-16 -1.43583)
(6.92928e-18 -1.56562e-17 -1.47626)
(0 -0 -1.5134)
(-8.79256e-18 -5.9672e-18 -1.53438)
(-8.54955e-18 -9.20105e-18 -1.55757)
(4.173e-18 1.04922e-16 -1.56726)
(-1.42979e-17 9.87862e-17 -1.59994)
(1.36128e-19 1.6448e-18 -1.64816)
(-2.70276e-19 5.17321e-18 -1.73858)
(1.29851e-18 -2.19857e-19 -1.89165)
(4.75795e-19 -1.24249e-19 -2.08125)
(-9.67865e-19 3.90193e-19 -2.37514)
(1.55701e-17 -7.46098e-18 -2.75938)
(-9.8868e-19 -1.03908e-17 -3.25832)
(-4.05523e-17 -2.03682e-16 -3.81864)
(1.38058e-18 3.48558e-17 -4.43571)
(-2.36715e-17 2.26883e-16 -5.00107)
(2.34494e-17 -2.75114e-16 -5.48576)
(-4.99346e-17 3.40361e-16 -5.80482)
(-3.11695e-17 -3.13918e-17 -5.95576)
(1.75434e-17 -2.28048e-16 -5.94709)
(-6.17271e-18 2.16962e-16 -5.79836)
(-3.66439e-17 -1.71245e-16 -5.54139)
(1.53863e-17 2.67311e-16 -5.21825)
(-2.9625e-17 -7.42561e-17 -4.87262)
(-2.06231e-17 -2.50339e-18 -4.53357)
(3.89184e-17 4.70273e-17 -4.21771)
(3.03866e-17 1.46356e-16 -3.93284)
(-4.83917e-17 7.17338e-17 -3.67629)
(-4.2357e-17 2.10439e-16 -3.44576)
(-1.96537e-17 8.95321e-18 -3.22436)
(-1.84452e-18 -2.6732e-16 -3.0149)
(-2.26206e-17 -3.13131e-16 -2.81234)
(-2.85536e-17 -1.53514e-16 -2.59372)
(2.52453e-19 5.77953e-17 -2.37531)
(7.91138e-19 3.4659e-17 -2.12612)
(1.18178e-18 -3.56817e-17 -1.8526)
(1.68802e-18 1.8837e-17 -1.54764)
(-1.46505e-18 -3.28925e-18 -1.21462)
(4.2132e-18 1.56539e-16 -0.870783)
(7.97593e-19 -5.47501e-18 -0.541286)
(-1.78927e-18 2.20731e-16 -0.260356)
(-2.19125e-17 1.51941e-16 -0.0663253)
(1.11108e-18 -2.17166e-18 0.0110266)
(-3.66976e-18 1.60316e-16 -0.0423002)
(-2.04232e-17 3.37574e-16 -0.231128)
(6.98932e-17 -1.57183e-16 -0.515029)
(-5.37624e-17 1.57851e-16 -0.866489)
(-5.97371e-17 3.91311e-16 -1.23626)
(4.13582e-17 -3.5048e-16 -1.57576)
(7.59564e-17 -3.32822e-16 -1.87067)
(-1.09862e-16 3.82166e-16 -2.07494)
(7.17161e-17 -4.0734e-16 -2.1863)
(-9.83142e-17 2.93488e-16 -2.16728)
(1.51781e-18 1.44333e-16 -1.98781)
(4.89014e-17 -3.82275e-16 -1.7353)
(-2.45424e-17 -4.25817e-17 -1.71025)
(-5.80073e-17 2.67745e-16 -1.73003)
(-1.11972e-17 7.08715e-17 -1.79479)
(-7.60117e-18 1.29869e-16 -1.92578)
(1.08429e-17 -1.18176e-16 -2.11336)
(-5.04528e-18 5.36543e-17 -2.33653)
(5.78935e-18 -5.3616e-17 -2.51116)
(2.55284e-18 -1.37856e-18 -2.50783)
(-7.54663e-19 -2.5554e-18 -2.30341)
(1.17078e-18 -4.65484e-17 -1.9816)
(-1.32771e-18 5.03528e-17 -1.61402)
(2.28096e-19 4.75682e-17 -1.24645)
(7.14719e-19 -4.0306e-17 -0.90425)
(-1.03289e-18 2.20553e-17 -0.59898)
(2.32439e-19 -2.21587e-17 -0.333525)
(-3.18785e-20 -8.56732e-20 -0.10564)
(-2.1473e-19 2.39368e-17 0.0902791)
(2.86175e-19 -2.11628e-17 0.260956)
(-3.95004e-19 2.32013e-17 0.41302)
(1.5706e-19 -2.07734e-17 0.551729)
(2.17414e-19 -2.40552e-18 0.681404)
(-3.5145e-19 2.43322e-18 0.807189)
(1.58989e-19 -2.05927e-20 0.932974)
(-6.09455e-19 3.25846e-20 1.06182)
(9.78183e-19 2.25649e-18 1.19626)
(-8.08846e-19 -4.48923e-20 1.33663)
(1.24055e-19 -1.31191e-19 1.49859)
(5.50966e-19 -4.01153e-18 1.69788)
(-5.91851e-19 1.2531e-19 1.95304)
(5.60565e-19 -4.584e-19 2.28545)
(2.11116e-18 -5.40373e-18 2.70181)
(-1.29411e-18 3.16473e-18 3.125)
(3.3453e-19 -2.39509e-19 3.22729)
(-2.23828e-19 2.11841e-20 2.13699)
(-2.32244e-19 2.37877e-19 -1.6461)
(-1.11239e-18 -2.71879e-19 -9.04033)
(7.86511e-19 1.2678e-19 -3.79271)
(-8.76471e-19 4.99264e-19 -1.64953)
(-1.51338e-18 -3.65242e-19 -0.332328)
(2.421e-18 5.85016e-20 0.649348)
(-4.6303e-18 4.83182e-19 1.41989)
(1.40424e-18 -8.91043e-19 2.0085)
(3.51291e-19 5.06433e-19 2.44356)
(-9.14751e-19 -5.47333e-19 2.7694)
(-4.34551e-20 6.52238e-19 3.01688)
(-2.86805e-18 -3.76092e-18 3.20776)
(2.89978e-18 2.0852e-18 3.35719)
(-9.30171e-19 1.58728e-19 3.47571)
(-2.11876e-18 -4.95377e-18 3.57045)
(2.88336e-18 2.88717e-18 3.64663)
(-6.45038e-19 -3.8006e-19 3.70802)
(-4.70784e-19 1.27361e-20 3.75735)
(1.10919e-18 -1.74065e-18 3.79658)
(1.28955e-18 7.38054e-18 3.82712)
(-2.16147e-18 -1.86242e-17 3.84989)
(2.48777e-18 6.62253e-18 3.86545)
(1.13085e-18 1.51635e-17 3.87394)
(-3.38409e-18 -9.96186e-18 3.87499)
(2.86336e-18 -2.59396e-18 3.86761)