/*--------------------------------*- C++ -*----------------------------------*\
| =========                 |                                                 |
| \\      /  F ield         | OpenFOAM: The Open Source CFD Toolbox           |
|  \\    /   O peration     | Version:  2506                                  |
|   \\  /    A nd           | Website:  www.openfoam.com                      |
|    \\/     M anipulation  |                                                 |
\*---------------------------------------------------------------------------*/
FoamFile
{
    version     2.0;
    format      ascii;
    arch        "LSB;label=32;scalar=64";
    class       volVectorField;
    location    "1.6";
    object      vorticityField;
}
// * * * * * * * * * * * * * * * * * * * * * * * * * * * * * * * * * * * * * //

dimensions      [0 0 -1 0 0 0 0];

internalField   nonuniform List<vector> 
4000
(
(-2.14054e-20 7.25546e-18 -55.911)
(-7.95878e-18 -5.37053e-18 -59.8111)
(8.52624e-18 -2.48361e-17 -56.8428)
(3.14668e-17 3.59954e-17 -50.6641)
(-6.50333e-17 5.08123e-18 -45.362)
(3.34913e-17 -3.40464e-17 -41.5457)
(-2.81824e-19 1.5921e-17 -38.8551)
(3.23226e-17 -0 -36.944)
(-3.18124e-17 -3.18237e-17 -35.5905)
(6.57618e-17 2.78058e-17 -34.6205)
(-6.58379e-17 -2.73772e-17 -33.9022)
(1.36671e-18 2.35363e-17 -33.3453)
(-4.67417e-18 7.12117e-17 -32.8908)
(6.74661e-17 -6.33528e-17 -32.501)
(-2.99132e-19 -0 -32.1519)
(-1.2682e-16 -6.21182e-17 -31.8283)
(1.28316e-16 5.46045e-17 -31.5201)
(-6.97469e-17 6.96778e-17 -31.2201)
(3.30119e-18 -6.21642e-17 -30.9221)
(0 -0 -30.6209)
(0 -0 -30.311)
(0 -0 -29.9869)
(8.21477e-18 -1.21062e-16 -29.6425)
(1.12689e-16 2.2786e-16 -29.2712)
(-2.59016e-16 2.80324e-17 -28.8654)
(1.47395e-16 -2.55643e-16 -28.4167)
(-9.26709e-18 1.20813e-16 -27.9153)
(0 -0 -27.3495)
(0 -0 -26.7046)
(-1.05355e-17 1.19036e-16 -25.9616)
(-2.42487e-16 -1.07714e-16 -25.0942)
(1.39429e-16 -1.30695e-16 -24.0689)
(2.51409e-16 1.50395e-17 -22.8414)
(1.31665e-17 -1.26693e-16 -21.033)
(-7.05692e-17 6.97945e-16 -18.9172)
(-3.22017e-16 5.80469e-16 -17.8574)
(-9.50513e-16 -1.01899e-15 -18.3266)
(-4.99452e-19 7.73391e-18 -19.8232)
(6.31653e-16 1.71569e-15 -22.1304)
(-7.87456e-16 -1.02538e-15 -25.3508)
(3.879e-16 -2.24333e-15 -30.0288)
(1.09772e-15 2.11815e-15 -35.5226)
(-3.83219e-16 9.05999e-16 -40.7896)
(2.47343e-16 -1.00975e-15 -45.6264)
(1.12276e-15 7.89411e-16 -50.073)
(-1.29668e-15 2.13719e-16 -54.3012)
(-1.3127e-15 5.21007e-16 -58.4713)
(-1.04916e-15 -1.04669e-15 -62.3052)
(-1.11851e-15 -1.29491e-15 -65.9458)
(-5.07837e-16 -1.30039e-15 -69.3206)
(7.13483e-16 -4.05195e-16 -72.2751)
(-4.11005e-17 5.10397e-16 -74.9446)
(-5.85899e-16 -1.11318e-15 -76.9478)
(7.60981e-16 -7.97272e-17 -78.5403)
(-9.32513e-17 1.08965e-15 -79.411)
(-3.25188e-16 1.03632e-16 -79.645)
(2.10486e-16 -2.933e-17 -79.2523)
(7.18754e-17 -1.8035e-17 -77.9957)
(1.34499e-16 5.95476e-17 -76.3459)
(-6.8578e-17 -4.51042e-17 -73.9033)
(7.42224e-17 -1.3174e-17 -70.8938)
(2.75157e-16 9.21813e-18 -67.6496)
(-1.29583e-16 -6.8798e-17 -64.0743)
(-6.62471e-17 -6.72757e-16 -60.4661)
(9.3027e-17 -1.85662e-16 -56.8413)
(-1.00829e-16 7.70112e-16 -53.2895)
(5.95933e-16 -4.69878e-17 -49.9671)
(3.1667e-17 -4.26816e-16 -46.7616)
(2.9822e-16 6.66018e-16 -43.8711)
(-7.78228e-16 7.83207e-16 -41.1368)
(-1.65867e-16 -5.80128e-16 -38.6634)
(-9.44798e-17 -3.0649e-16 -36.3938)
(-1.22779e-19 1.43769e-18 -34.2389)
(-9.24808e-16 5.86598e-16 -32.2925)
(-9.01751e-16 6.4317e-16 -30.4483)
(-4.04302e-17 7.96232e-16 -28.7003)
(-7.95981e-16 5.10233e-16 -27.0746)
(9.21465e-17 -8.19311e-16 -25.5227)
(-8.71287e-16 3.87045e-16 -24.0276)
(7.3377e-16 2.61504e-16 -22.6132)
(-1.42093e-15 3.84727e-16 -21.2656)
(-1.71141e-16 -8.27787e-16 -19.9786)
(4.04406e-17 -1.06607e-16 -18.7609)
(-5.00279e-17 5.86184e-18 -17.6103)
(6.94556e-16 1.14506e-15 -16.5289)
(-1.21625e-15 1.6152e-15 -15.5226)
(2.41063e-17 -1.45762e-15 -14.5755)
(-6.47541e-17 -8.00136e-16 -13.6869)
(-1.1156e-17 1.42026e-15 -12.8715)
(-5.12284e-16 3.30742e-16 -12.1011)
(1.87899e-18 7.0849e-19 -11.3745)
(-5.03185e-16 9.24898e-16 -10.7123)
(-2.46621e-16 -1.12978e-15 -10.083)
(1.79653e-16 -4.05061e-16 -9.49708)
(5.05459e-18 6.10069e-16 -8.96629)
(7.08897e-17 -6.47447e-16 -8.46994)
(2.13684e-16 -1.1258e-16 -8.03954)
(2.7767e-17 3.06993e-17 -7.65203)
(-3.1605e-16 -7.20872e-17 -7.33035)
(5.46296e-17 2.66876e-16 -7.06544)
(5.55386e-17 -9.4457e-19 -6.88016)
(2.15355e-17 -5.8665e-17 -6.7612)
(-9.81355e-18 1.71468e-16 -6.73388)
(-2.51663e-17 4.69119e-17 -6.77784)
(-3.81415e-17 -1.87747e-17 -6.91813)
(-6.85558e-19 -6.22343e-17 -7.14854)
(3.7263e-18 5.00372e-16 -7.4838)
(-2.01867e-16 -1.68549e-17 -7.92509)
(-2.31211e-16 -8.45693e-16 -8.47825)
(4.39851e-16 -1.26514e-16 -9.15053)
(-2.10516e-16 1.59365e-16 -9.95293)
(1.03096e-17 5.64806e-16 -10.8856)
(-2.3578e-16 -1.11271e-16 -11.9758)
(-2.13383e-16 -4.5078e-16 -13.1934)
(-6.98476e-18 -5.91146e-16 -14.6041)
(4.649e-16 3.07206e-16 -16.1637)
(3.37098e-18 1.16598e-15 -17.8932)
(-8.67646e-18 1.19593e-16 -19.8058)
(4.60393e-16 3.39872e-16 -21.8701)
(-4.94783e-16 -3.70835e-16 -24.0967)
(-5.22957e-16 -1.80158e-15 -26.4874)
(6.02773e-16 4.02779e-16 -29.0055)
(3.14297e-17 1.32286e-15 -31.6298)
(-5.63145e-16 -4.06139e-16 -34.3629)
(-1.03525e-16 -1.37852e-15 -37.1578)
(1.06429e-15 7.54249e-16 -40.0042)
(-3.43285e-16 4.08444e-16 -42.8775)
(4.8628e-16 -1.22535e-16 -45.7443)
(5.85164e-16 8.39689e-16 -48.5999)
(-9.52321e-17 9.28147e-16 -51.4627)
(-2.40345e-17 5.08959e-16 -54.2099)
(-6.51685e-16 -6.852e-17 -56.9092)
(-2.07484e-16 -6.04757e-16 -59.6122)
(-1.04187e-15 -7.26183e-16 -62.1292)
(2.96734e-16 1.44235e-16 -64.5685)
(-6.6354e-17 -3.33213e-17 -67.0503)
(6.86796e-17 3.83618e-17 -69.1482)
(2.16344e-17 -2.3459e-16 -71.2752)
(7.35669e-17 7.7832e-17 -73.0748)
(-1.13879e-16 1.21931e-16 -74.6793)
(6.15638e-17 2.27689e-16 -75.9587)
(-3.74712e-16 -1.36174e-16 -76.851)
(1.33524e-16 2.02526e-16 -77.2318)
(-6.07943e-17 5.06556e-17 -77.2019)
(-1.23998e-16 -5.75211e-17 -76.3455)
(6.14598e-19 -2.56655e-16 -75.1903)
(-1.89375e-17 3.40405e-17 -73.056)
(0 -0 -70.3513)
(-4.14069e-17 3.17151e-17 -67.1955)
(4.43957e-17 -7.29506e-18 -63.4602)
(1.89821e-17 -1.74261e-16 -59.5649)
(-1.24848e-17 -8.1127e-17 -55.2995)
(1.34741e-16 7.62449e-17 -51.0005)
(6.90333e-17 2.04747e-16 -46.6921)
(-1.48478e-16 5.79351e-17 -42.5002)
(1.37551e-16 -1.46231e-16 -38.4752)
(-2.32003e-16 -1.38253e-16 -34.6181)
(3.04742e-16 -1.72544e-16 -30.9614)
(-7.14659e-17 -3.01761e-16 -27.2564)
(2.09888e-16 -2.35947e-16 -23.2879)
(-2.12699e-16 6.84499e-16 -20.5963)
(1.73645e-16 -9.98742e-17 -20.0036)
(-4.33233e-17 -9.05025e-17 -19.7704)
(2.95631e-17 -6.89173e-18 -19.7277)
(2.80653e-17 -4.31635e-18 -20.1053)
(2.67277e-17 -2.22066e-18 -21.0562)
(-2.57273e-17 -2.02669e-17 -22.8421)
(2.27547e-17 -1.20273e-17 -24.9709)
(1.59582e-18 2.05219e-17 -26.5859)
(2.56895e-18 1.80633e-17 -27.6733)
(-2.25222e-17 1.30888e-17 -28.5054)
(-4.79576e-18 -3.62492e-17 -29.2278)
(1.49431e-18 2.26534e-18 -29.8955)
(2.68109e-18 3.12767e-17 -30.5291)
(-2.62312e-18 -1.77563e-17 -31.1309)
(1.71837e-17 5.49179e-19 -31.6906)
(-3.11908e-17 1.35362e-17 -32.1923)
(1.49921e-17 2.32456e-18 -32.6188)
(-1.72874e-18 -2.94232e-17 -32.9562)
(9.31474e-19 1.35665e-17 -33.1979)
(7.6227e-18 5.14772e-18 -33.3415)
(-1.26314e-17 6.88871e-18 -33.3895)
(-9.56504e-19 -1.02489e-17 -33.3503)
(4.67961e-19 -7.68666e-18 -33.2378)
(4.91435e-18 5.1428e-18 -33.0655)
(4.57316e-18 1.36412e-20 -32.8473)
(-5.09749e-18 -1.52052e-20 -32.5993)
(4.34791e-18 -1.98268e-19 -32.3362)
(-7.33276e-18 -7.97317e-19 -32.0708)
(4.66015e-18 2.24673e-19 -31.814)
(-1.57255e-18 -4.69072e-21 -31.5739)
(-3.55778e-19 -1.01118e-18 -31.3563)
(1.12222e-18 -2.74593e-18 -31.1633)
(-4.02571e-19 4.75226e-18 -30.9959)
(-9.34195e-19 -1.08932e-18 -30.8536)
(1.3205e-19 -9.5553e-19 -30.7335)
(-6.94894e-20 -1.63032e-18 -30.6309)
(-1.49377e-19 1.20566e-18 -30.539)
(-7.61031e-20 7.78804e-19 -30.442)
(-1.98287e-20 -7.06435e-20 -30.3589)
(0 -0 4.02713)
(1.89178e-19 -0 -7.64338)
(-5.01087e-19 -1.43355e-17 -17.0372)
(-1.33774e-18 2.3166e-17 -21.9927)
(1.76351e-17 1.12086e-17 -23.9473)
(-1.61232e-17 -3.49502e-17 -24.193)
(3.62137e-19 -1.54053e-17 -23.6722)
(-4.57849e-19 2.09025e-17 -22.8803)
(-3.04991e-17 9.46857e-18 -22.0999)
(2.69942e-17 -9.06458e-18 -21.4198)
(6.15467e-17 1.00949e-16 -20.8562)
(-1.26148e-16 -7.44283e-17 -20.3968)
(1.13322e-17 -1.39905e-16 -20.0202)
(5.90864e-17 4.44105e-17 -19.7056)
(-7.91353e-18 1.82887e-16 -19.4358)
(-5.81498e-17 -2.71288e-17 -19.1976)
(6.11174e-17 -1.386e-16 -18.9815)
(2.60616e-18 6.08264e-17 -18.7809)
(0 -0 -18.5905)
(0 -0 -18.4062)
(0 -0 -18.2244)
(0 -0 -18.0417)
(0 -0 -17.8547)
(-2.49238e-16 -0 -17.6598)
(3.78888e-16 -0 -17.453)
(-1.29401e-16 -0 -17.23)
(0 -0 -16.9859)
(0 -0 -16.7151)
(0 -0 -16.4106)
(-1.04312e-17 1.17857e-16 -16.0639)
(8.15713e-18 2.6146e-17 -15.6636)
(2.41048e-17 -3.55788e-16 -15.1937)
(-7.8044e-18 5.49904e-17 -14.6358)
(-1.40603e-16 3.79203e-16 -13.9545)
(-8.24259e-17 -4.50181e-16 -13.1352)
(3.68766e-16 3.63236e-16 -12.4385)
(9.27583e-16 8.41988e-16 -12.2292)
(5.80493e-17 -1.81157e-15 -12.6806)
(-3.27848e-16 -9.13411e-16 -13.7884)
(1.04857e-15 2.03024e-15 -15.5204)
(-2.91756e-16 1.11222e-16 -17.8874)
(-8.57399e-16 -1.51656e-15 -20.4471)
(2.26228e-16 -2.06863e-16 -23.0891)
(4.24826e-17 -2.64838e-16 -25.8007)
(-1.04473e-15 -6.74327e-18 -28.4396)
(8.45265e-16 2.24337e-15 -31.0273)
(2.20564e-15 4.46767e-16 -33.557)
(1.05273e-15 1.09493e-15 -35.9646)
(1.10556e-15 8.0889e-16 -38.3268)
(6.28262e-16 -1.86904e-16 -40.529)
(-1.61826e-15 -8.57401e-16 -42.5871)
(-3.42589e-17 4.22071e-16 -44.5097)
(3.91102e-16 9.59313e-16 -46.1987)
(-6.90592e-16 -4.03206e-16 -47.7138)
(5.73914e-16 -2.72278e-16 -48.9433)
(5.65797e-16 -2.99008e-18 -49.9385)
(3.63138e-16 -1.13921e-16 -50.64)
(1.21516e-16 1.07183e-16 -51.0267)
(-6.92627e-17 -8.19978e-18 -51.0717)
(-7.11287e-17 1.10106e-16 -50.7976)
(-4.76882e-17 -2.05158e-16 -50.1206)
(-2.80755e-16 -4.44345e-17 -49.0865)
(2.20364e-16 4.34032e-16 -47.7324)
(-1.6819e-16 6.52578e-16 -46.0667)
(1.41067e-16 2.43265e-16 -44.2325)
(8.8171e-18 -1.00039e-15 -42.1647)
(1.84059e-16 -2.84454e-16 -40.0798)
(-2.87266e-16 6.69658e-16 -37.8791)
(-3.53316e-16 -3.31075e-17 -35.7386)
(9.41848e-16 -4.28777e-16 -33.6128)
(1.29581e-17 1.39577e-16 -31.5395)
(-1.31622e-15 4.22407e-16 -29.59)
(7.04156e-16 4.42004e-16 -27.6713)
(1.12387e-16 1.20975e-15 -25.8592)
(1.08269e-15 -1.18393e-15 -24.1349)
(1.48696e-16 -9.12101e-16 -22.4675)
(-9.74067e-17 6.53894e-17 -20.885)
(-4.51146e-17 8.08622e-16 -19.3859)
(-6.41357e-16 -1.12884e-16 -17.9473)
(-1.58051e-15 8.09579e-16 -16.5826)
(2.12234e-15 4.21784e-16 -15.2958)
(1.91886e-16 -8.3172e-16 -14.0803)
(-6.87856e-16 4.60332e-16 -12.9407)
(1.34417e-16 -5.71265e-16 -11.8772)
(-5.53797e-17 -1.38142e-16 -10.883)
(1.28184e-15 -6.66933e-16 -9.96555)
(5.10634e-16 -5.55269e-16 -9.1207)
(6.33137e-16 4.94607e-16 -8.33015)
(5.25278e-16 -1.07921e-15 -7.60773)
(1.08519e-15 -6.90212e-16 -6.94775)
(3.42475e-19 2.17361e-17 -6.3288)
(5.10132e-16 -6.18352e-16 -5.76907)
(2.10307e-16 1.8105e-16 -5.26063)
(-4.61023e-16 2.84582e-16 -4.78912)
(2.10022e-16 -5.60565e-16 -4.3785)
(4.38722e-18 2.90737e-16 -4.00174)
(-4.49609e-16 2.22823e-16 -3.68583)
(2.0867e-16 5.59308e-16 -3.40756)
(2.18752e-17 1.74578e-16 -3.18582)
(-1.20406e-16 -7.08684e-16 -3.00908)
(-5.53248e-17 2.0701e-17 -2.89288)
(-7.26883e-17 1.52408e-16 -2.82575)
(-2.78064e-17 -1.11593e-16 -2.81389)
(2.53203e-17 -1.37635e-17 -2.85884)
(5.07993e-17 -1.38499e-17 -2.96096)
(1.02289e-16 2.87184e-17 -3.12235)
(-1.93618e-18 -2.59992e-16 -3.34963)
(6.20857e-16 3.87991e-16 -3.6397)
(3.91406e-18 2.89131e-17 -4.00292)
(-4.07462e-16 9.43341e-17 -4.43803)
(-2.79203e-17 3.4573e-16 -4.951)
(-1.63645e-17 -5.54546e-16 -5.54563)
(2.30028e-16 3.98157e-16 -6.24329)
(1.99905e-16 1.31469e-16 -7.02235)
(-2.22695e-16 -4.12335e-16 -7.90602)
(-4.64366e-16 -2.68794e-16 -8.87473)
(1.7354e-17 -6.12442e-16 -9.96503)
(3.25682e-17 -7.00035e-16 -11.1645)
(-2.93342e-16 1.98135e-16 -12.4587)
(9.66622e-16 1.92683e-15 -13.869)
(-5.79453e-16 -2.73182e-16 -15.3844)
(-5.33539e-16 -1.05604e-15 -16.9849)
(4.01193e-16 3.95042e-16 -18.6787)
(6.57984e-16 4.47194e-16 -20.4588)
(4.57234e-16 -1.84009e-16 -22.2917)
(-1.38657e-15 -1.04417e-15 -24.182)
(2.69783e-16 6.19582e-16 -26.1093)
(-1.23302e-16 -1.22443e-15 -28.0536)
(-1.59781e-16 3.9771e-17 -30.0112)
(1.25339e-15 5.36632e-16 -31.9681)
(4.39762e-16 2.56158e-16 -33.8629)
(1.29393e-15 4.99499e-16 -35.7548)
(5.9436e-16 1.4065e-15 -37.6104)
(7.69913e-16 5.94037e-16 -39.3314)
(7.89703e-17 -7.88228e-16 -41.0349)
(8.87779e-17 5.56243e-16 -42.6766)
(2.1823e-16 2.67302e-17 -44.0905)
(8.74034e-17 -2.04896e-17 -45.5367)
(-2.70156e-17 -1.05104e-16 -46.736)
(6.3816e-17 -5.79102e-17 -47.8416)
(9.11512e-17 -1.3917e-16 -48.7623)
(-1.39916e-17 5.08165e-16 -49.4957)
(1.58112e-16 -4.94404e-16 -50.0204)
(3.3853e-17 1.70628e-16 -50.3496)
(-1.2404e-17 -7.82139e-17 -50.3722)
(-4.5499e-17 8.24079e-17 -50.2268)
(8.2269e-17 1.58849e-17 -49.6894)
(-5.36814e-17 1.44608e-17 -48.9123)
(3.61283e-17 2.43879e-17 -47.7661)
(-9.54623e-17 -1.83402e-16 -46.2954)
(-5.75721e-17 1.84935e-16 -44.5304)
(4.18641e-17 3.20537e-16 -42.4552)
(2.00432e-17 -9.43487e-17 -40.135)
(-8.90545e-17 -5.55178e-17 -37.6071)
(3.13434e-16 -2.07006e-16 -34.9294)
(-1.91892e-16 -3.57526e-17 -32.1807)
(4.24111e-17 9.5784e-17 -29.3712)
(-3.82186e-16 -1.26879e-16 -26.5651)
(1.10107e-16 3.08193e-16 -23.7266)
(-5.78621e-16 6.43435e-16 -20.8983)
(2.46031e-16 -4.28599e-16 -18.0391)
(-6.02211e-17 -3.16298e-16 -16.0628)
(5.29524e-18 2.40439e-16 -14.7845)
(-6.85188e-17 -5.78861e-17 -13.98)
(-3.67003e-18 -2.10754e-17 -13.5579)
(-4.94928e-17 1.71407e-17 -13.5473)
(5.17939e-17 4.37006e-17 -13.9363)
(-2.59053e-17 -1.7721e-17 -14.6115)
(-2.36341e-19 -2.56179e-18 -15.3918)
(-1.41114e-18 -2.15459e-18 -16.1228)
(1.53544e-18 2.30003e-18 -16.7539)
(2.91594e-18 1.93322e-17 -17.306)
(-2.12694e-17 1.30732e-17 -17.8033)
(1.68111e-17 -4.99911e-17 -18.2586)
(8.87265e-19 6.28447e-18 -18.6767)
(1.98388e-17 -7.54817e-18 -19.0566)
(-1.71203e-17 5.34373e-17 -19.3936)
(-4.74757e-19 -8.3452e-17 -19.6821)
(1.89845e-18 6.50417e-17 -19.9209)
(-1.39193e-18 -2.06002e-17 -20.0997)
(-4.51356e-19 -1.44365e-17 -20.2133)
(6.29442e-18 2.57051e-17 -20.2697)
(-5.11673e-18 1.28042e-18 -20.2707)
(-5.78356e-18 1.29289e-17 -20.2208)
(5.17908e-18 -2.38886e-17 -20.1282)
(1.60327e-18 -8.77454e-18 -20.0018)
(4.31546e-19 2.01514e-17 -19.8511)
(-2.90441e-19 -1.74645e-17 -19.6854)
(-4.14834e-19 3.47092e-17 -19.5128)
(3.09905e-19 -2.84095e-17 -19.3408)
(1.42879e-18 1.29652e-17 -19.175)
(-1.06512e-18 1.00385e-18 -19.0196)
(-2.14606e-18 -9.27158e-19 -18.8768)
(2.37491e-18 -4.99206e-18 -18.7468)
(-8.90573e-21 8.79919e-18 -18.6291)
(9.79512e-20 -1.52502e-18 -18.522)
(4.69729e-20 4.1241e-18 -18.4233)
(2.20862e-19 -2.77422e-19 -18.3296)
(6.30703e-21 1.81984e-20 -18.2335)
(1.26253e-20 2.36965e-18 -18.1598)
(-2.10388e-20 7.13122e-18 6.46035)
(-4.1909e-19 -3.61591e-18 3.95987)
(6.2564e-19 -2.44355e-17 -0.473406)
(1.75655e-19 1.39511e-17 -4.62999)
(1.54262e-17 2.09423e-17 -7.9793)
(-1.57211e-17 -1.39732e-17 -10.3475)
(0 -0 -11.6642)
(-3.30555e-17 2.8527e-17 -12.3324)
(3.37548e-17 -4.49147e-17 -12.5535)
(-3.02081e-17 -8.18701e-17 -12.5091)
(2.94655e-17 1.03424e-16 -12.3547)
(2.85895e-18 1.10115e-16 -12.1727)
(-2.43197e-18 -9.21991e-17 -11.999)
(-1.2152e-16 -8.08105e-17 -11.8459)
(1.13374e-16 1.15013e-16 -11.7143)
(7.60989e-17 -9.20869e-17 -11.6001)
(-1.23264e-16 -4.47831e-17 -11.4987)
(5.27843e-17 1.36889e-16 -11.4059)
(3.04308e-18 -5.73037e-17 -11.3187)
(0 -0 -11.2349)
(1.16188e-16 -0 -11.1526)
(-1.16416e-16 -0 -11.0706)
(-7.63098e-18 1.12459e-16 -10.9873)
(-1.08029e-16 -7.12176e-17 -10.9016)
(1.24199e-16 -1.53949e-16 -10.8118)
(-8.31287e-18 1.12708e-16 -10.7163)
(0 -0 -10.6131)
(1.14321e-16 -0 -10.4998)
(-4.62182e-19 -0 -10.3737)
(-1.24302e-16 1.11503e-16 -10.2312)
(2.04105e-17 -7.57386e-17 -10.068)
(2.39601e-16 -1.47724e-16 -9.87764)
(-3.76997e-16 1.04964e-16 -9.65481)
(2.17899e-16 -3.68537e-18 -9.40555)
(-1.14569e-17 2.36463e-16 -9.08555)
(-4.58945e-16 -4.87718e-16 -8.69196)
(6.84472e-16 -1.65749e-16 -8.38046)
(3.28416e-16 1.60744e-15 -8.37143)
(-8.2628e-16 -1.06984e-16 -8.75415)
(-1.97832e-16 -9.96476e-16 -9.50939)
(-1.30241e-16 -1.59787e-16 -10.5571)
(-1.29485e-15 4.85161e-17 -11.6991)
(5.68836e-17 6.40917e-16 -12.9549)
(9.69013e-16 6.7253e-16 -14.3174)
(-1.56379e-15 -1.36805e-15 -15.7308)
(1.78378e-15 -1.80187e-15 -17.1757)
(-3.77516e-16 1.5581e-16 -18.5781)
(-4.76086e-17 5.53464e-16 -20.0157)
(1.6107e-16 -3.43844e-16 -21.4007)
(-3.80118e-17 1.30156e-15 -22.7772)
(2.30454e-16 9.40426e-16 -24.1194)
(1.58763e-16 -1.14996e-15 -25.406)
(7.37463e-17 -7.5085e-16 -26.6759)
(2.73126e-16 -4.8001e-16 -27.9121)
(-4.28761e-16 -3.34652e-16 -29.0789)
(-2.36281e-16 -4.78484e-17 -30.1815)
(-3.20708e-16 -1.91539e-16 -31.2107)
(-1.67939e-17 1.25046e-16 -32.1773)
(-9.86297e-17 1.99478e-16 -32.9784)
(1.3034e-16 3.15306e-17 -33.6996)
(4.95187e-17 1.01846e-16 -34.1902)
(-2.45783e-16 3.73155e-17 -34.448)
(3.78162e-16 -4.0551e-16 -34.4484)
(3.38893e-16 -6.06355e-16 -34.1269)
(-1.52614e-16 -6.98594e-16 -33.5755)
(-4.03139e-16 7.325e-16 -32.6946)
(-8.18681e-16 3.16835e-16 -31.6468)
(1.47274e-16 1.13193e-16 -30.3532)
(2.03389e-17 -1.95057e-16 -28.9525)
(-6.05116e-16 3.14394e-16 -27.4399)
(3.97733e-17 1.21622e-15 -25.8496)
(1.30351e-15 -7.8202e-16 -24.2732)
(-1.05041e-15 -1.00318e-15 -22.6616)
(1.83958e-15 -1.06027e-15 -21.0814)
(7.22568e-16 -9.11225e-16 -19.5444)
(-1.73312e-16 1.72892e-15 -18.039)
(9.292e-16 -3.46885e-17 -16.5919)
(4.95485e-17 -7.46389e-17 -15.2152)
(1.57878e-15 9.11262e-16 -13.9004)
(3.6522e-16 -1.85242e-15 -12.6578)
(5.38033e-16 -3.35057e-15 -11.4942)
(-1.17429e-16 1.99781e-15 -10.4068)
(7.15715e-16 -1.37079e-16 -9.39842)
(5.95495e-16 -1.44852e-15 -8.46862)
(-6.35523e-16 4.67184e-16 -7.61055)
(1.11495e-15 -9.48435e-16 -6.82745)
(-1.77434e-15 3.59544e-16 -6.11675)
(-1.27535e-15 -3.31261e-16 -5.46442)
(-6.13831e-16 8.94639e-16 -4.8771)
(-6.80343e-17 4.95496e-16 -4.35208)
(1.09443e-17 6.94612e-16 -3.87582)
(2.22381e-17 3.09749e-16 -3.45689)
(-2.46394e-16 1.88362e-16 -3.09158)
(2.71053e-16 -4.05326e-16 -2.77038)
(-7.11549e-18 -2.30927e-17 -2.50442)
(-8.2808e-17 2.75797e-16 -2.27813)
(3.46599e-17 -2.09589e-16 -2.1023)
(-2.50997e-17 -5.63919e-16 -1.96388)
(7.06325e-16 2.34151e-17 -1.86987)
(6.20333e-17 3.4642e-16 -1.80985)
(-5.28984e-17 -4.85657e-18 -1.78702)
(7.7363e-17 -9.76011e-17 -1.79498)
(1.31813e-18 5.51857e-17 -1.83296)
(-3.26299e-19 -4.94392e-17 -1.89941)
(-1.69648e-18 -1.09363e-16 -1.99276)
(-9.85343e-17 -3.30242e-17 -2.11402)
(-1.06825e-16 -1.46083e-16 -2.26457)
(-3.98789e-16 -1.39559e-16 -2.4448)
(6.18697e-16 6.9279e-16 -2.65836)
(-4.31515e-16 -3.6187e-16 -2.90634)
(4.44963e-16 -1.28955e-16 -3.19194)
(-5.48071e-18 2.68386e-16 -3.51723)
(1.13984e-17 -2.76206e-16 -3.88874)
(5.14761e-17 2.13863e-16 -4.30748)
(-1.92605e-17 3.71625e-16 -4.78198)
(-3.71742e-18 -3.01695e-16 -5.30044)
(2.01116e-16 6.88408e-16 -5.88315)
(6.04363e-17 8.77731e-16 -6.52877)
(-1.04059e-15 -1.53398e-15 -7.23358)
(-2.98957e-16 -5.09601e-16 -8.01087)
(8.91136e-16 1.56484e-15 -8.85836)
(2.70246e-16 -9.01542e-16 -9.76956)
(-1.73889e-16 -6.72284e-16 -10.7525)
(-5.29241e-16 -4.98366e-16 -11.8049)
(-9.51377e-18 6.61253e-16 -12.9116)
(-1.03357e-15 5.47108e-16 -14.0753)
(6.33398e-16 -9.38614e-16 -15.2853)
(-8.11606e-16 1.49144e-16 -16.5298)
(-3.85104e-16 -1.91893e-15 -17.8025)
(-5.40252e-16 -1.28891e-15 -19.0889)
(-9.27541e-17 -1.03406e-16 -20.3599)
(-5.19282e-16 -4.62496e-16 -21.6385)
(-2.00319e-16 -1.33299e-15 -22.8919)
(9.53856e-16 1.95241e-16 -24.0701)
(-7.10611e-16 1.61528e-16 -25.2322)
(2.20302e-17 -2.95883e-16 -26.3315)
(6.99982e-17 -3.26832e-16 -27.3291)
(-1.17178e-16 -6.51388e-17 -28.3079)
(-4.70463e-17 9.69528e-17 -29.1611)
(-1.52574e-16 -5.48212e-17 -29.9517)
(3.25686e-17 5.04769e-16 -30.6542)
(6.9791e-16 2.8248e-17 -31.2743)
(-7.85084e-17 4.95032e-17 -31.8214)
(-1.22877e-18 2.40835e-16 -32.2943)
(-1.72983e-16 3.67051e-16 -32.6859)
(1.89716e-17 -1.8891e-16 -33.0061)
(6.22657e-17 -1.6816e-16 -33.2228)
(-7.33465e-17 1.64436e-16 -33.342)
(9.05551e-17 -4.83492e-17 -33.2855)
(-1.35636e-16 3.31373e-16 -33.0523)
(6.14049e-17 -8.77495e-17 -32.5875)
(9.2056e-17 -4.83124e-16 -31.8893)
(-2.0059e-16 -2.45263e-16 -30.9172)
(6.57479e-17 1.39218e-16 -29.6902)
(-2.28377e-16 -2.81142e-16 -28.1998)
(-8.99248e-17 4.36134e-16 -26.5074)
(3.22466e-16 -8.0469e-17 -24.6133)
(-1.12255e-16 1.93409e-16 -22.5747)
(-1.85647e-17 -4.44397e-17 -20.4199)
(4.77747e-16 -1.05556e-16 -18.2506)
(1.0947e-16 -2.14096e-16 -15.751)
(-2.37241e-16 3.04796e-16 -13.5289)
(3.78467e-17 -3.36123e-18 -11.8277)
(3.98374e-17 4.45566e-17 -10.6534)
(-2.92418e-17 1.094e-18 -9.90666)
(-2.28341e-17 2.50442e-17 -9.54606)
(-1.25483e-17 -1.09535e-16 -9.48796)
(2.71189e-17 3.62616e-17 -9.68591)
(2.23818e-17 1.10127e-18 -10.0566)
(2.61968e-18 1.84138e-17 -10.483)
(-1.91034e-17 3.67245e-17 -10.8807)
(1.88157e-18 -2.04441e-17 -11.2205)
(3.80535e-17 2.33622e-18 -11.5026)
(-3.87109e-17 1.15578e-18 -11.7355)
(-1.77605e-18 -1.91817e-17 -11.9297)
(-1.91518e-17 -3.62544e-17 -12.0945)
(3.55968e-17 7.66059e-17 -12.2364)
(-1.91158e-17 1.8808e-17 -12.3595)
(8.48859e-19 -6.20153e-17 -12.4657)
(9.60362e-19 1.40224e-17 -12.5531)
(-8.80363e-18 2.55159e-18 -12.6193)
(7.04313e-18 3.49638e-18 -12.6628)
(1.97853e-18 2.099e-17 -12.6824)
(9.57958e-18 -9.07548e-18 -12.6773)
(-9.33433e-18 -2.70584e-17 -12.6488)
(-5.37516e-18 -1.8895e-18 -12.5987)
(6.1763e-18 -1.08333e-18 -12.5304)
(-4.36545e-18 2.96523e-18 -12.4478)
(4.3896e-18 -7.66832e-19 -12.3547)
(-1.52826e-18 -3.69716e-18 -12.2551)
(2.37486e-18 -9.94652e-18 -12.1525)
(1.44212e-18 1.09184e-17 -12.0497)
(-1.23411e-18 9.0041e-18 -11.9491)
(2.14767e-19 -1.43976e-17 -11.8517)
(1.06387e-19 9.64535e-19 -11.7582)
(-3.43004e-19 -3.11288e-18 -11.6687)
(1.15473e-19 -5.32631e-18 -11.5827)
(1.44552e-19 -2.379e-18 -11.4997)
(1.61446e-19 2.74941e-18 -11.4141)
(2.5304e-20 -2.44043e-18 -11.3503)
(0 -0 4.13098)
(7.59611e-18 -0 3.77039)
(-7.37721e-18 -1.39883e-17 2.846)
(8.92343e-19 6.79547e-18 1.25154)
(-1.01439e-18 2.11348e-17 -0.642406)
(2.0566e-19 -1.39419e-17 -2.37382)
(2.92738e-17 -0 -3.86513)
(-2.93081e-17 -0 -5.07072)
(1.29023e-18 -0 -5.84649)
(-2.93305e-18 -0 -6.36985)
(-6.1408e-17 5.5631e-17 -6.69413)
(6.27132e-17 -2.88077e-17 -6.87239)
(6.1899e-17 -2.71236e-17 -6.97624)
(-1.87382e-18 -2.89133e-17 -7.04437)
(7.14335e-19 -5.26231e-17 -7.0953)
(-6.23622e-17 1.92828e-16 -7.13678)
(-5.95104e-17 -8.53674e-17 -7.1715)
(6.42982e-17 -8.10708e-17 -7.20003)
(-2.94446e-18 5.54466e-17 -7.22243)
(6.33577e-17 -1.09583e-16 -7.23876)
(-6.28039e-17 6.00289e-17 -7.24923)
(-7.77043e-18 1.59352e-16 -7.25422)
(-2.53345e-19 -1.04025e-18 -7.25412)
(1.38728e-17 -6.06277e-17 -7.24927)
(1.13542e-16 -1.57102e-16 -7.23989)
(-1.20301e-16 1.08972e-16 -7.22599)
(-1.02875e-16 -1.07822e-16 -7.20737)
(2.3221e-18 -4.54005e-17 -7.18359)
(2.04357e-16 2.16563e-16 -7.1539)
(-1.22694e-16 1.51982e-16 -7.11723)
(3.47152e-17 -2.79892e-16 -7.07213)
(-1.12824e-16 -8.47135e-17 -7.01619)
(9.63212e-17 1.56481e-16 -6.94886)
(1.06418e-16 -3.69951e-17 -6.87142)
(-1.3645e-16 2.4538e-16 -6.76422)
(2.57763e-16 -1.5151e-16 -6.59363)
(-8.89833e-16 -7.06691e-16 -6.3906)
(-8.32587e-16 -8.76768e-16 -6.28116)
(1.04351e-15 4.8827e-16 -6.34776)
(3.97322e-16 9.37646e-16 -6.5981)
(-1.361e-16 1.25863e-15 -6.9739)
(8.06201e-16 -1.06373e-16 -7.40522)
(5.69103e-16 -2.65535e-15 -7.91357)
(-7.87056e-16 1.084e-16 -8.4931)
(4.2852e-16 1.40154e-15 -9.1203)
(-9.70903e-16 -4.36666e-16 -9.79624)
(-8.28264e-16 1.9549e-16 -10.441)
(-4.28962e-16 -2.46267e-16 -11.256)
(-7.68938e-16 5.5856e-17 -11.9922)
(-4.09357e-16 -1.14388e-15 -12.6458)
(1.22761e-15 6.68437e-17 -13.4349)
(-5.57596e-16 6.24702e-16 -14.2285)
(-1.07599e-16 9.78495e-16 -15.0403)
(-7.7083e-16 7.2274e-17 -15.8691)
(-1.26406e-16 2.99588e-16 -16.7391)
(-3.39108e-17 -6.86533e-17 -17.6247)
(-4.43766e-16 -2.46204e-16 -18.5358)
(-1.16061e-16 -1.57835e-16 -19.499)
(9.92701e-18 -7.7125e-17 -20.425)
(6.87931e-17 -9.47356e-17 -21.3868)
(-1.28294e-16 3.00387e-18 -22.2677)
(2.68981e-16 -1.54872e-16 -23.0624)
(-3.93135e-16 -1.82804e-16 -23.7244)
(1.42074e-16 7.05147e-16 -24.1717)
(-5.57716e-16 1.2828e-15 -24.434)
(7.08544e-16 -2.26453e-16 -24.4082)
(-1.6642e-16 -1.62175e-16 -24.18)
(1.30818e-16 -1.37163e-16 -23.6799)
(-4.63755e-16 5.53585e-16 -22.9924)
(4.33642e-16 2.21612e-16 -22.1201)
(2.29639e-16 -1.28884e-15 -21.0903)
(3.69607e-16 -1.73601e-16 -19.9832)
(-3.60935e-16 9.19727e-16 -18.7808)
(-2.24271e-16 -1.30148e-15 -17.5443)
(-8.94061e-16 1.33293e-15 -16.2989)
(3.6582e-17 -6.83555e-16 -15.0518)
(5.79647e-16 -8.85798e-16 -13.8324)
(1.5413e-17 -1.28806e-16 -12.6596)
(1.29006e-15 -1.90197e-15 -11.5377)
(1.20278e-15 -5.05189e-16 -10.4794)
(-2.71358e-15 3.19167e-15 -9.49388)
(-5.44216e-16 -1.58796e-17 -8.58171)
(5.83939e-16 -1.423e-15 -7.74563)
(-6.91172e-16 1.1614e-15 -6.98465)
(1.38058e-18 -7.17669e-16 -6.2925)
(-1.2941e-15 1.95172e-15 -5.66864)
(1.31512e-15 2.517e-15 -5.10943)
(-6.32804e-17 8.14922e-17 -4.60454)
(-4.46002e-16 -1.60784e-15 -4.15633)
(-1.60278e-15 1.7291e-16 -3.762)
(-2.50348e-16 1.35578e-16 -3.4142)
(1.37449e-17 7.39825e-18 -3.11738)
(2.64805e-16 -1.06496e-16 -2.86915)
(-3.66164e-17 -3.01466e-16 -2.66433)
(-4.45642e-16 1.44058e-16 -2.50826)
(-2.03207e-17 2.72213e-16 -2.39067)
(2.22071e-16 -1.19857e-16 -2.31603)
(-6.79582e-16 -4.75452e-17 -2.27399)
(-3.83217e-16 6.98666e-17 -2.2657)
(-2.09847e-17 2.10093e-16 -2.28142)
(1.03387e-16 -2.80385e-17 -2.32086)
(-9.98568e-17 7.85102e-17 -2.37617)
(6.31455e-17 -1.72789e-17 -2.4451)
(-8.11439e-19 -1.25156e-17 -2.52362)
(1.06871e-18 1.04408e-16 -2.60953)
(-2.11224e-16 1.41708e-16 -2.70211)
(-1.37108e-18 1.45271e-16 -2.80058)
(-2.11038e-16 -6.31275e-16 -2.90522)
(-1.75707e-16 -1.63384e-16 -3.01669)
(3.82427e-16 7.04637e-16 -3.136)
(-1.74588e-17 -2.46315e-16 -3.26446)
(5.87038e-18 -1.12745e-17 -3.4037)
(2.66723e-18 2.52459e-16 -3.55692)
(-2.40967e-16 -3.42784e-17 -3.72433)
(4.00453e-16 -5.14849e-17 -3.91417)
(9.89409e-18 -2.10303e-16 -4.12166)
(-5.97004e-16 -1.28509e-15 -4.35755)
(4.55466e-16 5.74056e-16 -4.62458)
(7.68999e-16 2.2181e-15 -4.92351)
(-6.41692e-16 -1.15857e-15 -5.26393)
(1.03603e-15 -8.15416e-16 -5.64855)
(-5.9734e-16 2.32663e-16 -6.07732)
(-5.64089e-16 1.1647e-15 -6.55733)
(-3.86614e-16 3.89312e-16 -7.0902)
(-7.33138e-16 -6.36398e-16 -7.6711)
(1.48602e-15 5.57506e-16 -8.3026)
(-1.45514e-16 4.64827e-17 -8.98017)
(4.25029e-16 7.6789e-16 -9.69798)
(-6.37973e-16 8.79379e-16 -10.4513)
(-9.19052e-16 2.16501e-17 -11.2264)
(-5.58903e-16 -1.44828e-16 -12.0123)
(-5.0921e-17 4.77109e-17 -12.8241)
(-8.62084e-16 4.11602e-16 -13.6071)
(-5.04827e-16 -7.53476e-16 -14.3745)
(-1.30415e-16 4.17986e-16 -15.1463)
(-1.32841e-16 -9.63436e-17 -15.8508)
(-4.22668e-16 -8.55064e-17 -16.5141)
(-2.82867e-16 4.39314e-16 -17.1781)
(1.54681e-16 -8.7356e-17 -17.7706)
(-9.84618e-17 3.32881e-16 -18.3255)
(4.67671e-16 -1.49515e-15 -18.8431)
(-1.50971e-17 -8.23388e-16 -19.3322)
(1.81082e-17 -2.38259e-16 -19.8065)
(1.79866e-16 2.06538e-16 -20.2665)
(2.29215e-16 1.85228e-16 -20.7321)
(8.64006e-17 -3.34179e-17 -21.1881)
(-8.14221e-17 -1.88576e-17 -21.6583)
(5.01055e-17 1.98359e-16 -22.1135)
(-4.21777e-17 -1.12285e-16 -22.5205)
(2.08535e-16 1.91918e-16 -22.8652)
(8.48748e-18 -2.59502e-16 -23.0849)
(-1.97702e-16 2.21011e-16 -23.1691)
(3.52304e-17 4.20797e-16 -23.0514)
(2.71875e-17 -2.33635e-16 -22.7211)
(-8.37969e-17 4.53249e-16 -22.1404)
(9.93781e-17 -1.79393e-16 -21.3263)
(-2.9597e-16 -3.17135e-16 -20.2699)
(2.58067e-16 8.86351e-17 -18.9478)
(-2.32806e-17 -1.48239e-16 -17.4789)
(-8.1315e-17 -2.51706e-16 -15.8867)
(-1.34016e-16 1.85754e-16 -13.9752)
(1.20051e-16 -3.7661e-17 -12.0688)
(2.54037e-17 -5.24362e-17 -10.4632)
(8.97462e-17 -9.49011e-17 -9.28521)
(-1.74711e-17 4.67707e-17 -8.52039)
(2.98257e-17 1.30093e-17 -8.12434)
(-6.70539e-17 2.61191e-17 -8.00553)
(-6.35183e-18 -7.52539e-17 -8.09278)
(4.56736e-18 -3.05642e-17 -8.30258)
(2.30444e-17 2.83088e-17 -8.54824)
(-2.80443e-19 4.67647e-17 -8.76508)
(-7.08101e-18 -3.95003e-17 -8.92172)
(-5.08393e-18 -3.35659e-17 -9.01241)
(4.96847e-18 6.79096e-17 -9.0451)
(4.0058e-18 -6.55281e-18 -9.0342)
(-3.67142e-17 3.99116e-18 -8.99605)
(3.05898e-17 -1.35153e-17 -8.94576)
(1.40618e-17 -4.28939e-17 -8.89537)
(-9.86259e-18 6.69247e-17 -8.85295)
(-3.79328e-18 -1.07706e-17 -8.82224)
(7.93859e-18 7.47322e-18 -8.80366)
(-5.75415e-18 -2.56411e-18 -8.79503)
(6.10067e-19 -1.16702e-17 -8.79265)
(4.80485e-18 -2.2314e-17 -8.79228)
(-1.01516e-17 3.28796e-17 -8.78986)
(6.47601e-19 1.23131e-18 -8.78212)
(-1.41048e-18 -8.17784e-18 -8.76679)
(-1.13594e-18 3.75563e-18 -8.74229)
(2.60184e-18 2.39147e-17 -8.70816)
(-3.27077e-18 -3.02023e-17 -8.66468)
(-3.20357e-18 -5.15128e-18 -8.61265)
(3.44596e-18 -1.13719e-17 -8.55313)
(-1.14587e-18 1.32623e-17 -8.4876)
(-1.0262e-18 -1.3163e-17 -8.41757)
(-6.90923e-21 1.39045e-17 -8.34448)
(6.30374e-19 5.36316e-18 -8.26984)
(-5.79149e-19 5.93252e-18 -8.19516)
(-5.85265e-20 -3.51616e-18 -8.1219)
(2.10126e-19 -9.66797e-18 -8.04534)
(-8.62012e-20 1.56185e-19 -7.99216)
(0 -0 2.68166)
(0 -0 2.67916)
(1.25899e-19 -1.42247e-17 2.60384)
(8.63382e-19 7.1075e-18 2.17777)
(-1.13153e-18 2.12412e-17 1.47528)
(6.98441e-19 -4.18107e-17 0.641171)
(3.00736e-17 1.30728e-17 -0.31456)
(-6.11295e-17 6.9852e-17 -1.17006)
(3.05691e-17 -6.81282e-17 -1.91415)
(1.49056e-18 -2.92484e-17 -2.55922)
(-2.35006e-18 6.97104e-17 -3.09259)
(5.99883e-17 -2.7572e-17 -3.46872)
(-1.14685e-16 -5.46367e-17 -3.77603)
(1.17364e-16 -2.83017e-17 -4.02581)
(-1.25365e-16 1.63868e-16 -4.23395)
(6.02356e-17 1.79778e-18 -4.41242)
(8.00272e-18 -1.37239e-16 -4.56799)
(-4.952e-18 5.45117e-17 -4.70454)
(3.01615e-18 -5.38073e-17 -4.82475)
(5.34999e-17 2.64153e-17 -4.93016)
(-6.47135e-17 8.12854e-17 -5.02226)
(8.28678e-18 -5.38934e-17 -5.10258)
(-1.17975e-16 1.06336e-16 -5.17266)
(1.29392e-16 -1.59193e-16 -5.23396)
(-2.11176e-18 -1.0631e-16 -5.28778)
(-2.5602e-17 3.70765e-16 -5.33526)
(5.89292e-18 -5.49233e-17 -5.37729)
(1.96452e-17 -3.16259e-16 -5.41454)
(-1.11817e-16 4.16196e-18 -5.44743)
(8.4484e-17 3.64842e-16 -5.47609)