/*--------------------------------*- C++ -*----------------------------------*\
| =========                 |                                                 |
| \\      /  F ield         | OpenFOAM: The Open Source CFD Toolbox           |
|  \\    /   O peration     | Version:  2506                                  |
|   \\  /    A nd           | Website:  www.openfoam.com                      |
|    \\/     M anipulation  |                                                 |
\*---------------------------------------------------------------------------*/
FoamFile
{
    version     2.0;
    format      ascii;
    arch        "LSB;label=32;scalar=64";
    class       volScalarField;
    location    "0.0026948";
    object      s;
}
// * * * * * * * * * * * * * * * * * * * * * * * * * * * * * * * * * * * * * //

dimensions      [0 0 0 0 0 0 0];

internalField   nonuniform List<scalar> 
4000
(
0.101503
3.42205e-05
-1.04515e-05
-3.34514e-07
-3.75914e-09
-4.04548e-11
-3.87452e-13
-2.6194e-15
-1.22092e-18
1.62787e-17
4.81414e-19
-2.27969e-20
-9.33563e-22
9.43431e-23
3.44154e-24
-2.58878e-25
-8.47072e-27
9.01804e-28
3.57771e-29
-1.74782e-30
-9.69361e-32
2.18556e-33
1.83563e-34
-1.18761e-36
-2.20373e-37
1.551e-39
2.24756e-40
-6.95194e-42
-4.39929e-43
7.9819e-45
6.48415e-46
-5.7893e-48
-8.02467e-49
-2.24253e-51
6.20295e-52
6.28767e-54
-3.26254e-55
-5.97161e-57
1.11799e-58
3.36737e-60
-2.61216e-62
-1.23908e-63
1.32273e-65
8.15766e-68
-3.92542e-68
-7.16062e-70
3.05057e-71
1.16037e-72
-1.08152e-74
-1.4092e-75
-3.045e-77
-1.35838e-79
-7.91327e-81
-1.16261e-81
-6.0089e-83
-2.03189e-84
-6.0506e-86
-1.99568e-87
-7.4051e-89
-2.75515e-90
-9.67061e-92
-3.25058e-93
-1.06611e-94
-3.44457e-96
-1.09758e-97
-3.40746e-99
-1.03392e-100
-3.03585e-102
-8.67502e-104
-2.3998e-105
-6.43298e-107
-1.67316e-108
-4.20184e-110
-1.02182e-111
-2.40204e-113
-5.44839e-115
-1.19354e-116
-2.52355e-118
-5.14026e-120
-1.00884e-121
-1.90675e-123
-3.46662e-125
-6.05972e-127
-1.01759e-128
-1.63963e-130
-2.53549e-132
-3.75923e-134
-5.3325e-136
-7.24785e-138
-9.43133e-140
-1.17182e-141
-1.39442e-143
-1.58734e-145
-1.72608e-147
-1.80178e-149
-1.79812e-151
-1.72893e-153
-1.59699e-155
-1.42931e-157
-1.23761e-159
-1.04821e-161
-8.69272e-164
-7.12666e-166
-5.8067e-168
-4.74762e-170
-3.90464e-172
-3.27175e-174
-2.78906e-176
-2.44496e-178
-2.20516e-180
-2.0571e-182
-1.98578e-184
-1.99498e-186
-2.07068e-188
-2.25651e-190
-2.53634e-192
-2.97769e-194
-3.64566e-196
-4.62161e-198
-6.10968e-200
-8.41454e-202
-1.20002e-203
-1.77867e-205
-2.74747e-207
-4.39513e-209
-7.30741e-211
-1.26178e-212
-2.26015e-214
-4.22408e-216
-8.24756e-218
-1.65346e-219
-3.50618e-221
-7.86719e-223
-1.78374e-224
-4.36217e-226
-1.13783e-227
-2.83799e-229
-8.11003e-231
-2.20458e-232
-6.33524e-234
-1.80287e-235
-5.0498e-237
-1.38455e-238
-3.82104e-240
-9.20556e-242
-2.59787e-243
-5.48392e-245
-1.42329e-246
-3.67085e-248
-9.67109e-250
-2.50743e-251
-6.39645e-253
-1.58823e-254
-3.84155e-256
-8.94929e-258
-2.00874e-259
-4.29075e-261
-8.69908e-263
-1.64539e-264
-2.85619e-266
-4.31798e-268
-6.22319e-270
-8.64847e-272
-1.87226e-273
-9.87477e-275
-3.12494e-276
-1.1856e-277
-1.75539e-279
-2.17297e-281
-3.13789e-283
-4.86423e-285
-7.86643e-287
-1.30421e-288
-2.19439e-290
-3.72457e-292
-6.35383e-294
-1.08704e-295
-1.86213e-297
-3.1908e-299
-5.46574e-301
-9.35609e-303
-1.60015e-304
-2.73429e-306
-4.66868e-308
-7.96749e-310
-1.35945e-311
-2.32035e-313
-3.95927e-315
-6.92328e-317
0
0
0
0
0
0
0
0
0
0
0
0.101998
3.78571e-05
-1.16466e-05
-3.94651e-07
-5.19059e-09
-6.85832e-11
-8.89397e-13
-1.10071e-14
-1.22722e-16
4.30404e-18
5.87353e-19
-6.10964e-20
-3.39251e-21
8.58483e-23
7.46703e-24
-2.5415e-25
-1.85083e-26
7.96683e-28
5.2945e-29
-1.95242e-30
-1.48746e-31
2.62325e-33
3.09672e-34
-1.06254e-36
-4.35256e-37
-2.7661e-40
4.97619e-40
-3.62747e-42
-6.79405e-43
1.2055e-44
1.30475e-45
-1.94329e-48
-1.55415e-48
-1.43739e-50
1.21972e-51
2.21015e-53
-6.76378e-55
-2.20291e-56
1.16315e-58
1.10246e-59
2.54944e-62
-4.05793e-63
-2.37381e-65
-5.63885e-67
-1.39361e-67
-4.05812e-69
3.7623e-71
3.59436e-72
-6.13016e-75
-5.01195e-75
-1.85981e-76
-4.37638e-78
-1.55376e-79
-8.71687e-81
-4.27094e-82
-1.72924e-83
-6.41758e-85
-2.37924e-86
-8.96861e-88
-3.37365e-89
-1.24136e-90
-4.45997e-92
-1.56487e-93
-5.36228e-95
-1.79597e-96
-5.84255e-98
-1.85005e-99
-5.66324e-101
-1.67989e-102
-4.80941e-104
-1.32836e-105
-3.54334e-107
-9.09239e-109
-2.24919e-110
-5.359e-112
-1.22816e-113
-2.7102e-115
-5.75908e-117
-1.17724e-118
-2.31605e-120
-4.38629e-122
-7.99383e-124
-1.40219e-125
-2.36715e-127
-3.84444e-129
-6.0115e-131
-9.05017e-133
-1.3101e-134
-1.82684e-136
-2.45407e-138
-3.17067e-140
-3.95056e-142
-4.74688e-144
-5.49529e-146
-6.15499e-148
-6.65321e-150
-6.98084e-152
-7.10036e-154
-7.04367e-156
-6.8149e-158
-6.47766e-160
-6.06212e-162
-5.62154e-164
-5.18926e-166
-4.80802e-168
-4.47107e-170
-4.22164e-172
-4.0363e-174
-3.944e-176
-3.93997e-178
-4.04074e-180
-4.25837e-182
-4.63192e-184
-5.17592e-186
-6.01542e-188
-7.17969e-190
-8.88942e-192
-1.14129e-193
-1.51152e-195
-2.07919e-197
-2.9711e-199
-4.38788e-201
-6.73112e-203
-1.07675e-204
-1.78536e-206
-3.0853e-208
-5.5562e-210
-1.04243e-211
-2.05313e-213
-4.24388e-215
-9.01228e-217
-2.0365e-218
-4.86403e-220
-1.16574e-221
-3.00227e-223
-8.08966e-225
-2.09996e-226
-6.03862e-228
-1.66834e-229
-4.78387e-231
-1.36147e-232
-3.81601e-234
-1.05297e-235
-2.88734e-237
-7.00803e-239
-1.90828e-240
-3.29201e-242
-6.70739e-244
-1.62268e-245
-4.71318e-247
-1.35491e-248
-3.8361e-250
-1.06233e-251
-2.86915e-253
-7.49896e-255
-1.89171e-256
-4.5673e-258
-1.05128e-259
-2.28388e-261
-4.65127e-263
-8.55169e-265
-1.48969e-266
-2.66073e-268
-6.73586e-270
-1.96806e-271
-4.64787e-273
-1.13342e-274
-1.772e-276
-2.47168e-278
-3.68266e-280
-5.70906e-282
-9.12768e-284
-1.49493e-285
-2.4956e-287
-4.23086e-289
-7.26424e-291
-1.26094e-292
-2.20809e-294
-3.89605e-296
-6.91885e-298
-1.23528e-299
-2.21532e-301
-3.98768e-303
-7.20021e-305
-1.30343e-306
-2.36465e-308
-4.29789e-310
-7.82428e-312
-1.4265e-313
-2.59143e-315
-3.44395e-317
0
0
0
0
0
0
0
0
0
0.102259
3.78556e-05
-1.16577e-05
-3.95485e-07
-5.20853e-09
-6.88737e-11
-8.92541e-13
-1.1001e-14
-1.21058e-16
4.51402e-18
6.07129e-19
-6.22046e-20
-3.47964e-21
8.97422e-23
7.80624e-24
-2.6227e-25
-1.93415e-26
8.3564e-28
5.61534e-29
-2.03572e-30
-1.57924e-31
2.73177e-33
3.30975e-34
-9.85957e-37
-4.66295e-37
-4.88813e-40
5.38069e-40
-3.63809e-42
-7.43152e-43
1.27757e-44
1.4513e-45
-1.06653e-48
-1.75215e-48
-1.79803e-50
1.41474e-51
2.83713e-53
-7.93747e-55
-2.91601e-56
9.79962e-59
1.5163e-59
7.2417e-62
-5.71065e-63
-5.12517e-65
-1.11524e-66
-2.40274e-67
-8.23106e-69
1.55728e-71
6.12802e-72
1.42966e-74
-9.19054e-75
-4.00089e-76
-1.09111e-77
-3.84202e-79
-1.99923e-80
-9.71624e-82
-4.00697e-83
-1.5088e-84
-5.59433e-86
-2.0965e-87
-7.83409e-89
-2.876e-90
-1.03476e-91
-3.65863e-93
-1.2727e-94
-4.35975e-96
-1.46529e-97
-4.83415e-99
-1.55818e-100
-4.9084e-102
-1.50624e-103
-4.49531e-105
-1.30471e-106
-3.66936e-108
-1.00017e-109
-2.63906e-111
-6.72744e-113
-1.65629e-114
-3.93595e-116
-9.01551e-118
-1.98935e-119
-4.22668e-121
-8.63938e-123
-1.69806e-124
-3.20759e-126
-5.81801e-128
-1.01332e-129
-1.69433e-131
-2.71618e-133
-4.17761e-135
-6.16545e-137
-8.72002e-139
-1.18367e-140
-1.54279e-142
-1.9299e-144
-2.32414e-146
-2.69249e-148
-3.0135e-150
-3.26071e-152
-3.42787e-154
-3.50911e-156
-3.5185e-158
-3.47077e-160
-3.38845e-162
-3.29231e-164
-3.20407e-166
-3.13922e-168
-3.11859e-170
-3.15231e-172
-3.26025e-174
-3.46146e-176
-3.786e-178
-4.27559e-180
-4.99989e-182
-6.05372e-184
-7.62034e-186
-9.95079e-188
-1.35076e-189
-1.90714e-191
-2.79748e-193
-4.26685e-195
-6.76724e-197
-1.11469e-198
-1.90674e-200
-3.38734e-202
-6.24193e-204
-1.1926e-205
-2.36088e-207
-4.83793e-209
-1.02577e-210
-2.24866e-212
-5.08489e-214
-1.18643e-215
-2.85382e-217
-7.05337e-219
-1.79178e-220
-4.67244e-222
-1.24459e-223
-3.39241e-225
-9.41466e-227
-2.65732e-228
-7.60461e-230
-2.20025e-231
-6.41844e-233
-1.88342e-234
-5.53764e-236
-1.63094e-237
-4.78564e-239
-1.40154e-240
-4.08769e-242
-1.18008e-243
-3.35628e-245
-9.40968e-247
-2.59231e-248
-6.99611e-250
-1.84024e-251
-4.70131e-253
-1.15908e-254
-2.74434e-256
-6.18649e-258
-1.31857e-259
-2.57842e-261
-4.75228e-263
-8.38348e-265
-1.43256e-266
-2.40978e-268
-4.06807e-270
-6.97713e-272
-1.2189e-273
-2.16592e-275
-3.9036e-277
-7.11309e-279
-1.30695e-280
-2.41611e-282
-4.48607e-284
-8.35387e-286
-1.55842e-287
-2.90976e-289
-5.4335e-291
-1.01412e-292
-1.89092e-294
-3.521e-296
-6.54541e-298
-1.21445e-299
-2.24863e-301
-4.15424e-303
-7.65701e-305
-1.40798e-306
-2.58279e-308
-4.7265e-310
-8.62903e-312
-1.57143e-313
-2.8572e-315
-3.43119e-317
0
0
0
0
0
0
0
0.102529
3.79489e-05
-1.16836e-05
-3.96751e-07
-5.2133e-09
-6.87358e-11
-8.86709e-13
-1.08389e-14
-1.17055e-16
4.67084e-18
6.151e-19
-6.21878e-20
-3.4871e-21
9.26095e-23
7.96743e-24
-2.66575e-25
-1.96833e-26
8.62996e-28
5.8018e-29
-2.08568e-30
-1.63142e-31
2.81385e-33
3.44337e-34
-9.51853e-37
-4.86321e-37
-5.60928e-40
5.68151e-40
-3.71478e-42
-7.94697e-43
1.34128e-44
1.57927e-45
-1.99352e-49
-1.93605e-48
-2.15899e-50
1.60961e-51
3.52738e-53
-9.18047e-55
-3.78607e-56
5.90603e-59
1.97573e-59
1.33392e-61
-7.20549e-63
-7.6346e-65
-1.59714e-66
-3.33907e-67
-1.20469e-68
-9.1555e-72
8.02287e-72
3.03614e-74
-1.20104e-74
-5.35558e-76
-1.46942e-77
-5.05881e-79
-2.55737e-80
-1.21845e-81
-4.92779e-83
-1.81583e-84
-6.5792e-86
-2.39907e-87
-8.71197e-89
-3.10511e-90
-1.08388e-91
-3.71123e-93
-1.24833e-94
-4.13079e-96
-1.33872e-97
-4.25546e-99
-1.31948e-100
-3.99562e-102
-1.17742e-103
-3.37212e-105
-9.39024e-107
-2.53265e-108
-6.62249e-110
-1.677e-111
-4.10559e-113
-9.72034e-115
-2.22493e-116
-4.91822e-118
-1.04989e-119
-2.16432e-121
-4.30636e-123
-8.26978e-125
-1.53243e-126
-2.73863e-128
-4.72239e-130
-7.85653e-132
-1.2595e-133
-1.94818e-135
-2.90748e-137
-4.18093e-139
-5.80386e-141
-7.77908e-143
-1.00584e-144
-1.25901e-146
-1.52277e-148
-1.78826e-150
-2.03778e-152
-2.2652e-154
-2.45829e-156
-2.62088e-158
-2.75311e-160
-2.86626e-162
-2.9718e-164
-3.0872e-166
-3.2262e-168
-3.41262e-170
-3.66529e-172
-4.01649e-174
-4.50289e-176
-5.1798e-178
-6.12475e-180
-7.46215e-182
-9.36299e-184
-1.21457e-185
-1.62477e-187
-2.24618e-189
-3.21038e-191
-4.73799e-193
-7.22821e-195
-1.14008e-196
-1.85702e-198
-3.12496e-200
-5.43508e-202
-9.75984e-204
-1.80994e-205
-3.46516e-207
-6.84583e-209
-1.39605e-210
-2.93787e-212
-6.36329e-214
-1.4217e-215
-3.27497e-217
-7.73064e-219
-1.87964e-220
-4.69313e-222
-1.1922e-223
-3.11261e-225
-8.23979e-227
-2.21913e-228
-6.04857e-230
-1.66139e-231
-4.59442e-233
-1.27621e-234
-3.53116e-236
-9.86387e-238
-2.70538e-239
-7.48262e-241
-2.09808e-242
-5.85646e-244
-1.62432e-245
-4.45811e-247
-1.20532e-248
-3.20363e-250
-8.32654e-252
-2.11199e-253
-5.19557e-255
-1.23588e-256
-2.82008e-258
-6.14278e-260
-1.23498e-261
-2.35637e-263
-4.32098e-265
-7.8283e-267
-1.4253e-268
-2.57204e-270
-4.70561e-272
-8.38293e-274
-1.49222e-275
-2.69339e-277
-4.91305e-279
-9.03555e-281
-1.67193e-282
-3.10741e-284
-5.79284e-286
-1.08194e-287
-2.02271e-289
-3.78227e-291
-7.06964e-293
-1.32024e-294
-2.4623e-296
-4.58486e-298
-8.52113e-300
-1.58042e-301
-2.92477e-303
-5.40025e-305
-9.94757e-307
-1.82808e-308
-3.35163e-310
-6.13093e-312
-1.11914e-313
-2.00239e-315
-3.4411e-317
0
0
0
0
0
0
0
0.102808
3.81643e-05
-1.1746e-05
-3.99573e-07
-5.25279e-09
-6.92791e-11
-8.93481e-13
-1.09012e-14
-1.16942e-16
4.81376e-18
6.29425e-19
-6.32369e-20
-3.55985e-21
9.5504e-23
8.22009e-24
-2.73653e-25
-2.03465e-26
8.9364e-28
6.05164e-29
-2.15491e-30
-1.70574e-31
2.9043e-33
3.61992e-34
-8.94435e-37
-5.13332e-37
-7.40454e-40
6.05527e-40
-3.73703e-42
-8.58758e-43
1.40991e-44
1.73723e-45
9.78935e-49
-2.16469e-48
-2.63483e-50
1.84016e-51
4.39002e-53
-1.05259e-54
-4.83882e-56
-7.77644e-60
2.53845e-59
2.23038e-61
-9.09407e-63
-1.17525e-64
-2.44078e-66
-4.81433e-67
-1.87073e-68
-7.86175e-71
1.07793e-71
6.15537e-74
-1.72636e-74
-8.19969e-76
-2.36209e-77
-8.0833e-79
-3.94038e-80
-1.84741e-81
-7.41825e-83
-2.70805e-84
-9.66742e-86
-3.46816e-87
-1.23813e-88
-4.34068e-90
-1.49173e-91
-5.04176e-93
-1.67955e-94
-5.52282e-96
-1.78742e-97
-5.69726e-99
-1.7812e-100
-5.46374e-102
-1.63955e-103
-4.80508e-105
-1.37506e-106
-3.82933e-108
-1.03773e-109
-2.73275e-111
-6.98103e-113
-1.72908e-114
-4.1493e-116
-9.6352e-118
-2.16387e-119
-4.69775e-121
-9.85154e-123
-1.99487e-124
-3.8989e-126
-7.34996e-128
-1.3366e-129
-2.34453e-131
-3.9626e-133
-6.45889e-135
-1.01543e-136
-1.53834e-138
-2.24906e-140
-3.17486e-142
-4.32541e-144
-5.70473e-146
-7.27657e-148
-9.01361e-150
-1.08453e-151
-1.27345e-153
-1.46141e-155
-1.64815e-157
-1.83281e-159
-2.02067e-161
-2.2189e-163
-2.44108e-165
-2.70147e-167
-3.02532e-169
-3.43926e-171
-3.98729e-173
-4.72775e-175
-5.7498e-177
-7.18655e-179
-9.25344e-181
-1.22734e-182
-1.68289e-184
-2.38109e-186
-3.48289e-188
-5.26997e-190
-8.24095e-192
-1.33301e-193
-2.23072e-195
-3.85815e-197
-6.89727e-199
-1.27468e-200
-2.43272e-202
-4.79334e-204
-9.7447e-206
-2.04238e-207
-4.41119e-209
-9.81054e-211
-2.24176e-212
-5.26422e-214
-1.26921e-215
-3.13011e-217
-7.90145e-219
-2.03792e-220
-5.34335e-222
-1.42687e-223
-3.8598e-225
-1.05661e-226
-2.91828e-228
-8.10866e-230
-2.2619e-231
-6.32148e-233
-1.76409e-234
-4.92089e-236
-1.36409e-237
-3.7738e-239
-1.04236e-240
-2.85284e-242
-7.73257e-244
-2.07366e-245
-5.4906e-247
-1.43245e-248
-3.6685e-250
-9.20147e-252
-2.24936e-253
-5.34276e-255
-1.22499e-256
-2.7012e-258
-5.58075e-260
-1.1013e-261
-2.09546e-263
-3.8864e-265
-7.10849e-267
-1.29381e-268
-2.36828e-270
-4.34772e-272
-8.02284e-274
-1.48985e-275
-2.78119e-277
-5.21307e-279
-9.80032e-281
-1.846e-282
-3.48084e-284
-6.56564e-286
-1.23805e-287
-2.33263e-289
-4.38951e-291
-8.2471e-293
-1.54661e-294
-2.89439e-296
-5.40452e-298
-1.00676e-299
-1.87079e-301
-3.46758e-303
-6.41081e-305
-1.18218e-306
-2.1744e-308
-3.98937e-310
-7.30136e-312
-1.33302e-313
-2.45023e-315
-3.43973e-317
0
0
0
0
0
0
0.103092
3.84271e-05
-1.18225e-05
-4.02976e-07
-5.30339e-09
-7.00158e-11
-9.03573e-13
-1.10215e-14
-1.17871e-16
4.94266e-18
6.4432e-19
-6.4484e-20
-3.64415e-21
9.82386e-23
8.4814e-24
-2.81116e-25
-2.10623e-26
9.24187e-28
6.31138e-29
-2.22759e-30
-1.78498e-31
2.99556e-33
3.80834e-34
-8.27821e-37
-5.42678e-37
-9.54191e-40
6.46363e-40
-3.74275e-42
-9.30434e-43
1.48133e-44
1.91646e-45
2.46905e-48
-2.4255e-48
-3.21083e-50
2.09878e-51
5.4229e-53
-1.19401e-54
-6.10893e-56
-1.12197e-58
3.17499e-59
3.40449e-61
-1.10515e-62
-1.67255e-64
-3.51465e-66
-6.62293e-67
-2.71444e-68
-1.83662e-70
1.35816e-71
9.74441e-74
-2.3266e-74
-1.15018e-75
-3.40477e-77
-1.15536e-78
-5.47425e-80
-2.52656e-81
-1.00418e-82
-3.62313e-84
-1.2741e-85
-4.49015e-87
-1.57313e-88
-5.41179e-90
-1.82497e-91
-6.05179e-93
-1.97884e-94
-6.39165e-96
-2.0338e-97
-6.38099e-99
-1.96617e-100
-5.95253e-102
-1.76555e-103
-5.1224e-105
-1.45348e-106
-4.01979e-108
-1.08371e-109
-2.84412e-111
-7.25346e-113
-1.79715e-114
-4.32278e-116
-1.00827e-117
-2.27939e-119
-4.99298e-121
-1.05897e-122
-2.17409e-124
-4.31907e-126
-8.29742e-128
-1.54176e-129
-2.77049e-131
-4.80943e-133
-8.0729e-135
-1.31027e-136
-2.05443e-138
-3.11613e-140
-4.57431e-142
-6.49506e-144
-8.94677e-146
-1.19429e-147
-1.55109e-149
-1.96014e-151
-2.42098e-153
-2.92638e-155
-3.48001e-157
-4.08413e-159
-4.75471e-161
-5.51536e-163
-6.40918e-165
-7.49023e-167
-8.85224e-169
-1.06117e-170
-1.29582e-172
-1.61623e-174
-2.06447e-176
-2.70556e-178
-3.64573e-180
-5.05073e-182
-7.21679e-184
-1.06174e-185
-1.61092e-187
-2.52183e-189
-4.06962e-191
-6.77472e-193
-1.16351e-194
-2.05955e-196
-3.7577e-198
-7.0672e-200
-1.36881e-201
-2.72967e-203
-5.60151e-205
-1.18205e-206
-2.56413e-208
-5.71393e-210
-1.30551e-211
-3.05852e-213
-7.34168e-215
-1.79923e-216
-4.50505e-218
-1.15025e-219
-2.98076e-221
-7.85221e-223
-2.09188e-224
-5.62957e-226
-1.52612e-227
-4.15532e-229
-1.13439e-230
-3.09886e-232
-8.44676e-234
-2.30073e-235
-6.23207e-237
-1.68502e-238
-4.53316e-240
-1.2132e-241
-3.22391e-243
-8.49397e-245
-2.21485e-246
-5.7066e-248
-1.44813e-249
-3.61274e-251
-8.82251e-253
-2.10324e-254
-4.86446e-256
-1.08842e-257
-2.29895e-259
-4.66007e-261
-9.13314e-263
-1.74908e-264
-3.30742e-266
-6.2081e-268
-1.168e-269
-2.19232e-271
-4.11925e-273
-7.76558e-275
-1.46804e-276
-2.78118e-278
-5.27631e-280
-1.00171e-281
-1.9019e-283
-3.60937e-285
-6.84332e-287
-1.29575e-288
-2.44939e-290
-4.62123e-292
-8.70012e-294
-1.63413e-295
-3.06181e-297
-5.72215e-299
-1.06659e-300
-1.98277e-302
-3.67603e-304
-6.79702e-306
-1.25345e-307
-2.30549e-309
-4.22984e-311
-7.74155e-313
-1.41557e-314
-2.41477e-316
0
0
0
0
0
0
0.103379
3.87175e-05
-1.1908e-05
-4.06813e-07
-5.36323e-09
-7.09242e-11
-9.16667e-13
-1.11923e-14
-1.19626e-16
5.07152e-18
6.60943e-19
-6.59629e-20
-3.74338e-21
1.01013e-22
8.76751e-24
-2.8915e-25
-2.18593e-26
9.55936e-28
6.59236e-29
-2.30545e-30
-1.8718e-31
3.08928e-33
4.0145e-34
-7.4454e-37
-5.75046e-37
-1.21665e-39
6.91377e-40
-3.71538e-42
-1.01055e-42
1.55502e-44
2.11934e-45
4.33574e-48
-2.72105e-48
-3.90199e-50
2.38734e-51
6.65247e-53
-1.34016e-54
-7.61513e-56
-2.61731e-58
3.89447e-59
4.9085e-61
-1.31423e-62
-2.29548e-64
-4.91301e-66
-8.8937e-67
-3.81605e-68
-3.42813e-70
1.64458e-71
1.3896e-73
-3.07456e-74
-1.5717e-75
-4.76323e-77
-1.60607e-78
-7.42069e-80
-3.37395e-81
-1.32766e-82
-4.73763e-84
-1.64287e-85
-5.69758e-87
-1.9629e-88
-6.63851e-90
-2.20079e-91
-7.17693e-93
-2.3095e-94
-7.34818e-96
-2.30654e-97
-7.1493e-99
-2.18056e-100
-6.54731e-102
-1.93033e-103
-5.57976e-105
-1.581e-106
-4.37695e-108
-1.18394e-109
-3.12463e-111
-8.03186e-113
-2.01007e-114
-4.89367e-116
-1.15764e-117
-2.65928e-119
-5.92995e-121
-1.28263e-122
-2.69012e-124
-5.46882e-126
-1.07695e-127
-2.05461e-129
-3.79708e-131
-6.79074e-133
-1.17629e-134
-1.97346e-136
-3.20428e-138
-5.04148e-140
-7.69011e-142
-1.13666e-143
-1.63257e-145
-2.27633e-147
-3.09281e-149
-4.09522e-151
-5.30678e-153
-6.73881e-155
-8.42701e-157
-1.04087e-158
-1.27603e-160
-1.5591e-162
-1.90836e-164
-2.34853e-166
-2.92102e-168
-3.68239e-170
-4.72394e-172
-6.18279e-174
-8.27635e-176
-1.13511e-177
-1.59825e-179
-2.31025e-181
-3.43837e-183
-5.26109e-185
-8.28836e-187
-1.34506e-188
-2.24667e-190
-3.86495e-192
-6.8486e-194
-1.24888e-195
-2.34377e-197
-4.52675e-199
-8.98965e-201
-1.83507e-202
-3.84814e-204
-8.28337e-206
-1.82939e-207
-4.14207e-209
-9.59635e-211
-2.27447e-212
-5.51016e-214
-1.3597e-215
-3.41914e-217
-8.74367e-219
-2.26417e-220
-5.94281e-222
-1.5738e-223
-4.19958e-225
-1.12638e-226
-3.02825e-228
-8.14844e-230
-2.19058e-231
-5.87047e-233
-1.57008e-234
-4.17403e-236
-1.10657e-237
-2.9245e-239
-7.6809e-241
-2.00474e-242
-5.19508e-244
-1.33503e-245
-3.3979e-247
-8.54231e-249
-2.11802e-250
-5.15969e-252
-1.23191e-253
-2.86575e-255
-6.48058e-257
-1.39312e-258
-2.88768e-260
-5.80598e-262
-1.14216e-263
-2.21761e-265
-4.26887e-267
-8.21456e-269
-1.57456e-270
-3.01396e-272
-5.77262e-274
-1.10615e-275
-2.12005e-277
-4.06253e-279
-7.78021e-281
-1.48853e-282
-2.84408e-284
-5.42505e-286
-1.03283e-287
-1.96208e-289
-3.7187e-291
-7.03043e-293
-1.32568e-294
-2.49299e-296
-4.67517e-298
-8.74278e-300
-1.6303e-301
-3.03143e-303
-5.62083e-305
-1.0393e-306
-1.91642e-308
-3.52443e-310
-6.46508e-312
-1.18331e-313
-2.17961e-315
-3.44831e-317
0
0
0
0
0
0.103669
3.9025e-05
-1.19991e-05
-4.10954e-07
-5.42953e-09
-7.19528e-11
-9.31835e-13
-1.13971e-14
-1.21915e-16
5.20289e-18
6.78983e-19
-6.76091e-20
-3.85379e-21
1.03858e-22
9.07511e-24
-2.97649e-25
-2.27241e-26
9.88977e-28
6.89321e-29
-2.38782e-30
-1.96551e-31
3.18526e-33
4.23735e-34
-6.44044e-37
-6.1024e-37
-1.52629e-39
7.40434e-40
-3.65199e-42
-1.09899e-42
1.62988e-44
2.346e-45
6.62449e-48
-3.05144e-48
-4.71848e-50
2.70556e-51
8.09833e-53
-1.48754e-54
-9.38066e-56
-4.65869e-58
4.69197e-59
6.7819e-61
-1.5312e-62
-3.05296e-64
-6.68818e-66
-1.16861e-66
-5.21362e-68
-5.68061e-70
1.91786e-71
1.83766e-73
-3.98177e-74
-2.09063e-75
-6.45766e-77
-2.16506e-78
-9.78331e-80
-4.38559e-81
-1.70891e-82
-6.03357e-84
-2.06496e-85
-7.05532e-87
-2.39279e-88
-7.96363e-90
-2.5977e-91
-8.33617e-93
-2.64106e-94
-8.27862e-96
-2.5629e-97
-7.84344e-99
-2.3657e-100
-7.03509e-102
-2.05803e-103
-5.91393e-105
-1.66904e-106
-4.61195e-108
-1.24766e-109
-3.29991e-111
-8.51839e-113
-2.14519e-114
-5.26564e-116
-1.25841e-117
-2.92611e-119
-6.61732e-121
-1.45432e-122
-3.10502e-124
-6.43756e-126
-1.29527e-127
-2.52939e-129
-4.79333e-131
-8.8066e-133
-1.56995e-134
-2.71547e-136
-4.55414e-138
-7.41388e-140
-1.17219e-141
-1.79912e-143
-2.68767e-145
-3.90456e-147
-5.53585e-149
-7.66088e-151
-1.03889e-152
-1.38232e-154
-1.81304e-156
-2.35067e-158
-3.0265e-160
-3.88473e-162
-4.99501e-164
-6.45575e-166
-8.42745e-168
-1.11424e-169
-1.4976e-171
-2.05126e-173
-2.86975e-175
-4.10777e-177
-6.02701e-179
-9.0648e-181
-1.40131e-182
-2.2236e-184
-3.62661e-186
-6.08228e-188
-1.04816e-189
-1.85704e-191
-3.38294e-193
-6.33085e-195
-1.21709e-196
-2.40355e-198
-4.87157e-200
-1.01302e-201
-2.15984e-203
-4.71771e-205
-1.05514e-206
-2.41432e-208
-5.64128e-210
-1.34553e-211
-3.27316e-213
-8.09333e-215
-2.03469e-216
-5.19001e-218
-1.33797e-219
-3.48793e-221
-9.15714e-223
-2.41764e-224
-6.40492e-226
-1.69823e-227
-4.50085e-229
-1.19042e-230
-3.13646e-232
-8.24035e-234
-2.15213e-235
-5.60513e-237
-1.45439e-238
-3.75413e-240
-9.64057e-242
-2.46158e-243
-6.24437e-245
-1.57232e-246
-3.92078e-248
-9.67068e-250
-2.35137e-251
-5.62274e-253
-1.31475e-254
-3.00046e-256
-6.54736e-258
-1.38334e-259
-2.84356e-261
-5.72774e-263
-1.1388e-264
-2.24295e-266
-4.40702e-268
-8.61258e-270
-1.6774e-271
-3.26157e-273
-6.33229e-275
-1.22754e-276
-2.37574e-278
-4.58956e-280
-8.84847e-282
-1.70219e-283
-3.26676e-285
-6.25356e-287
-1.19395e-288
-2.27323e-290
-4.31584e-292
-8.16997e-294
-1.54201e-295
-2.9017e-297
-5.44384e-299
-1.01823e-300
-1.89879e-302
-3.53032e-304
-6.54442e-306
-1.2097e-307
-2.22978e-309
-4.09894e-311
-7.51581e-313
-1.37057e-314
-2.42084e-316
0
0
0
0
0
0.10396
3.93446e-05
-1.20944e-05
-4.15324e-07
-5.5008e-09
-7.30748e-11
-9.48618e-13
-1.16278e-14
-1.24595e-16
5.33851e-18
6.9836e-19
-6.9395e-20
-3.97387e-21
1.06794e-22
9.40356e-24
-3.06561e-25
-2.36518e-26
1.02338e-27
7.21381e-29
-2.47435e-30
-2.06594e-31
3.28322e-33
4.47659e-34
-5.25113e-37
-6.48169e-37
-1.88409e-39
7.9344e-40
-3.54823e-42
-1.19562e-42
1.7048e-44
2.59658e-45
9.37869e-48
-3.41669e-48
-5.67024e-50
3.05285e-51
9.77927e-53
-1.63228e-54
-1.14263e-55
-7.34374e-58
5.56158e-59
9.06202e-61
-1.7519e-62
-3.95798e-64
-8.8979e-66
-1.50655e-66
-6.95033e-68
-8.73126e-70
2.15617e-71
2.28786e-73
-5.06705e-74
-2.71691e-75
-8.52212e-77
-2.84211e-78
-1.25898e-79
-5.56866e-81
-2.14924e-82
-7.51084e-84
-2.53888e-85
-8.55431e-87
-2.85879e-88
-9.37194e-90
-3.01043e-91
-9.51271e-93
-2.9685e-94
-9.1689e-96
-2.79928e-97
-8.45533e-99
-2.52022e-100
-7.41563e-102
-2.14985e-103
-6.13244e-105
-1.72093e-106
-4.73746e-108
-1.27918e-109
-3.3833e-111
-8.7509e-113
-2.21239e-114
-5.4623e-116
-1.31561e-117
-3.0889e-119
-7.06689e-121
-1.57419e-122
-3.41287e-124
-7.19843e-126
-1.4762e-127
-2.94345e-129
-5.70586e-131
-1.07433e-132
-1.96629e-134
-3.49786e-136
-6.04472e-138
-1.01574e-139
-1.66063e-141
-2.64026e-143
-4.09253e-145
-6.1798e-147
-9.12068e-149
-1.31594e-150
-1.86295e-152
-2.59099e-154
-3.55549e-156
-4.82691e-158
-6.51064e-160
-8.75719e-162
-1.17988e-163
-1.59745e-165
-2.18318e-167
-3.01966e-169
-4.24144e-171
-6.06427e-173
-8.84428e-175
-1.31789e-176
-2.00979e-178
-3.13712e-180
-5.02429e-182
-8.2465e-184
-1.3888e-185
-2.40084e-187
-4.25737e-189
-7.74782e-191
-1.44714e-192
-2.77179e-194
-5.44398e-196
-1.0963e-197
-2.26162e-199
-4.77773e-201
-1.03285e-202
-2.28307e-204
-5.15703e-206
-1.18932e-207
-2.79536e-209
-6.69252e-211
-1.63075e-212
-4.03094e-214
-1.01094e-215
-2.56702e-217
-6.57634e-219
-1.70015e-220
-4.41943e-222
-1.15336e-223
-3.01618e-225
-7.88474e-227
-2.05831e-228
-5.35785e-230
-1.38874e-231
-3.58751e-233
-9.2149e-235
-2.3602e-236
-6.02313e-238
-1.53022e-239
-3.87169e-241
-9.75327e-243
-2.4451e-244
-6.09659e-246
-1.509e-247
-3.70412e-249
-8.98974e-251
-2.15224e-252
-5.05412e-254
-1.16233e-255
-2.56925e-257
-5.51926e-259
-1.15679e-260
-2.37958e-262
-4.833e-264
-9.71882e-266
-1.94657e-267
-3.87308e-269
-7.6669e-271
-1.51233e-272
-2.97348e-274
-5.82849e-276
-1.13907e-277
-2.21948e-279
-4.31174e-281
-8.35093e-283
-1.61243e-284
-3.10365e-286
-5.95519e-288
-1.13903e-289
-2.17161e-291
-4.12696e-293
-7.81761e-295
-1.47609e-296
-2.77813e-298
-5.2119e-300
-9.74666e-302
-1.81696e-303
-3.37666e-305
-6.25611e-307
-1.15566e-308
-2.12866e-310
-3.91007e-312
-7.16529e-314
-1.28333e-315
-3.45696e-317
0
0
0
0
0.104254
3.96737e-05
-1.21929e-05
-4.19884e-07
-5.57624e-09
-7.42758e-11
-9.66761e-13
-1.18803e-14
-1.27591e-16
5.47939e-18
7.19043e-19
-7.13055e-20
-4.10286e-21
1.09831e-22
9.75255e-24
-3.15854e-25
-2.46399e-26
1.05915e-27
7.55401e-29
-2.56478e-30
-2.17291e-31
3.38276e-33
4.73183e-34
-3.86758e-37
-6.88728e-37
-2.291e-39
8.50242e-40
-3.4001e-42
-1.3002e-42
1.77866e-44
2.87079e-45
1.26346e-47
-3.81631e-48
-6.76559e-50
3.42804e-51
1.17117e-52
-1.77006e-54
-1.37706e-55
-1.07745e-57
6.49463e-59
1.17843e-60
-1.97111e-62
-5.01978e-64
-1.15905e-65
-1.90973e-66
-9.07089e-68
-1.27244e-69
2.33668e-71
2.71628e-73
-6.34233e-74
-3.45644e-75
-1.09716e-76
-3.63899e-78
-1.58364e-79
-6.91866e-81
-2.64585e-82
-9.15601e-84
-3.05905e-85
-1.01733e-86
-3.35336e-88
-1.08381e-89
-3.43096e-91
-1.06825e-92
-3.28501e-94
-1.00009e-95
-3.01129e-97
-8.97567e-99
-2.64267e-100
-7.68878e-102
-2.20698e-103
-6.24207e-105
-1.73946e-106
-4.76322e-108
-1.28154e-109
-3.38343e-111
-8.75168e-113
-2.2168e-114
-5.4937e-116
-1.33066e-117
-3.14777e-119
-7.26935e-121
-1.63757e-122
-3.59703e-124
-7.70088e-126
-1.60595e-127
-3.26223e-129
-6.45409e-131
-1.24256e-132
-2.32957e-134
-4.2525e-136
-7.55528e-138
-1.30751e-139
-2.20541e-141
-3.62411e-143
-5.81562e-145
-9.10711e-147
-1.39602e-148
-2.0952e-150
-3.08943e-152
-4.48097e-154
-6.41867e-156
-9.10325e-158
-1.28336e-159
-1.80467e-161
-2.54186e-163
-3.59664e-165
-5.13391e-167
-7.41095e-169
-1.08526e-170
-1.61587e-172
-2.45081e-174
-3.7926e-176
-5.99708e-178
-9.69154e-180
-1.60415e-181
-2.71678e-183
-4.71282e-185
-8.37711e-187
-1.5248e-188
-2.84321e-190
-5.43134e-192
-1.06205e-193
-2.12568e-195
-4.35397e-197
-9.11897e-199
-1.95207e-200
-4.268e-202
-9.52318e-204
-2.16712e-205
-5.02496e-207
-1.1852e-208
-2.84173e-210
-6.92071e-212
-1.70659e-213
-4.26158e-215
-1.07537e-216
-2.73356e-218
-6.99943e-220
-1.79963e-221
-4.63903e-223
-1.197e-224
-3.08458e-226
-7.93216e-228
-2.03285e-229
-5.18657e-231
-1.31852e-232
-3.33396e-234
-8.40644e-236
-2.11249e-237
-5.28891e-239
-1.32005e-240
-3.28449e-242
-8.14562e-244
-2.01292e-245
-4.94871e-247
-1.20948e-248
-2.93053e-250
-7.0236e-252
-1.65561e-253
-3.8333e-255
-8.57079e-257
-1.86862e-258
-3.9852e-260
-8.35462e-262
-1.73e-263
-3.54576e-265
-7.22886e-267
-1.46253e-268
-2.93957e-270
-5.87779e-272
-1.16969e-273
-2.31737e-275
-4.57178e-277
-8.98293e-279
-1.75811e-280
-3.42779e-282
-6.65816e-284
-1.28852e-285
-2.48455e-287
-4.77358e-289
-9.13888e-291
-1.74346e-292
-3.31444e-294
-6.27919e-296
-1.18551e-297
-2.23063e-299
-4.18299e-301
-7.81808e-303
-1.45642e-304
-2.70443e-306
-5.00601e-308
-9.23793e-310
-1.6997e-311
-3.11854e-313
-5.6702e-315
-1.04013e-316
0
0
0
0
0.10455
4.00114e-05
-1.22943e-05
-4.24621e-07
-5.65552e-09
-7.55498e-11
-9.86164e-13
-1.21526e-14
-1.30868e-16
5.62609e-18
7.41032e-19
-7.33338e-20
-4.24042e-21
1.12976e-22
1.01221e-23
-3.25502e-25
-2.56866e-26
1.09629e-27
7.91356e-29
-2.65885e-30
-2.28622e-31
3.4836e-33
5.00245e-34
-2.28905e-37
-7.31771e-37
-2.74521e-39
9.10637e-40
-3.20957e-42
-1.41246e-42
1.8511e-44
3.16834e-45
1.64174e-47
-4.24977e-48
-8.01194e-50
3.82969e-51
1.39114e-52
-1.89599e-54
-1.64312e-55
-1.50465e-57
7.48449e-59
1.49587e-60
-2.20401e-62
-6.29985e-64
-1.47459e-65
-2.37451e-66
-1.15777e-67
-1.76964e-69
2.45101e-71
3.08542e-73
-7.83055e-74
-4.31441e-75
-1.37852e-76
-4.53064e-78
-1.9376e-79
-8.36833e-81
-3.17139e-82
-1.08679e-83
-3.59081e-85
-1.17987e-86
-3.8406e-88
-1.22492e-89
-3.82493e-91
-1.17434e-92
-3.56099e-94
-1.06908e-95
-3.17567e-97
-9.34164e-99
-2.71653e-100
-7.81242e-102
-2.21903e-103
-6.21818e-105
-1.71903e-106
-4.67706e-108
-1.25222e-109
-3.29524e-111
-8.51057e-113
-2.15621e-114
-5.35405e-116
-1.30176e-117
-3.09673e-119
-7.20473e-121
-1.63809e-122
-3.6382e-124
-7.89003e-126
-1.6698e-127
-3.44847e-129
-6.94882e-131
-1.36509e-132
-2.61621e-134
-4.89056e-136
-8.91456e-138
-1.58557e-139
-2.75353e-141
-4.66703e-143
-7.73726e-145
-1.25393e-146
-1.99224e-148
-3.10385e-150
-4.757e-152
-7.18036e-154
-1.07138e-155
-1.58402e-157
-2.32912e-159
-3.4168e-161
-5.01969e-163
-7.40637e-165
-1.10168e-166
-1.65595e-168
-2.52243e-170
-3.90197e-172
-6.14048e-174
-9.8451e-176
-1.61039e-177
-2.688e-179
-4.58723e-181
-7.99713e-183
-1.4255e-184
-2.59902e-186
-4.84405e-188
-9.23196e-190
-1.7992e-191
-3.58283e-193
-7.28928e-195
-1.51481e-196
-3.21291e-198
-6.95191e-200
-1.53343e-201
-3.44531e-203
-7.87941e-205
-1.8326e-206
-4.32769e-208
-1.0369e-209
-2.51864e-211
-6.18434e-213
-1.53491e-214
-3.84325e-216
-9.68114e-218
-2.45269e-219
-6.2327e-221
-1.58628e-222
-4.03776e-224
-1.0259e-225
-2.59989e-227
-6.56495e-229
-1.65036e-230
-4.13366e-232
-1.03035e-233
-2.56071e-235
-6.34324e-237
-1.56669e-238
-3.86129e-240
-9.49853e-242
-2.33238e-243
-5.7166e-245
-1.3968e-246
-3.40057e-248
-8.22836e-250
-1.97436e-251
-4.67067e-253
-1.08815e-254
-2.45874e-256
-5.43383e-258
-1.17749e-259
-2.51074e-261
-5.28741e-263
-1.10232e-264
-2.28373e-266
-4.69351e-268
-9.57227e-270
-1.93922e-271
-3.90438e-273
-7.81586e-275
-1.5562e-276
-3.08283e-278
-6.07782e-280
-1.19276e-281
-2.33049e-283
-4.53418e-285
-8.78545e-287
-1.69548e-288
-3.25929e-290
-6.24152e-292
-1.19076e-293
-2.26335e-295
-4.2864e-297
-8.08852e-299
-1.52089e-300
-2.84972e-302
-5.32106e-304
-9.90168e-306
-1.83637e-307
-3.39455e-309
-6.25485e-311
-1.14901e-312
-2.10383e-314
-3.82505e-316
0
0
0
0
0.104847
4.03577e-05
-1.23985e-05
-4.29521e-07
-5.73824e-09
-7.68878e-11
-1.00663e-12
-1.24407e-14
-1.34355e-16
5.78412e-18
7.65002e-19
-7.55107e-20
-4.39646e-21
1.16346e-22
1.06116e-23
-3.33573e-25
-2.74153e-26
1.1088e-27
8.56302e-29
-2.57643e-30
-2.48223e-31
2.75361e-33
5.38929e-34
2.72303e-36
-7.54134e-37
-9.94069e-39
7.99201e-40
8.17051e-42