/*--------------------------------*- C++ -*----------------------------------*\
| =========                 |                                                 |
| \\      /  F ield         | OpenFOAM: The Open Source CFD Toolbox           |
|  \\    /   O peration     | Version:  2506                                  |
|   \\  /    A nd           | Website:  www.openfoam.com                      |
|    \\/     M anipulation  |                                                 |
\*---------------------------------------------------------------------------*/
FoamFile
{
    version     2.0;
    format      ascii;
    arch        "LSB;label=32;scalar=64";
    class       volScalarField;
    location    "4.8";
    object      p;
}
// * * * * * * * * * * * * * * * * * * * * * * * * * * * * * * * * * * * * * //

dimensions      [0 2 -2 0 0 0 0];

internalField   nonuniform List<scalar> 
4000
(
-7.44036e-05
-2.75589e-05
-1.14562e-05
-6.64255e-06
-3.54769e-06
-1.6072e-06
-6.28824e-07
-1.27441e-07
1.52864e-07
3.02448e-07
3.72114e-07
4.00178e-07
4.12832e-07
4.27942e-07
4.58807e-07
5.15753e-07
6.06731e-07
7.37648e-07
9.12536e-07
1.13354e-06
1.40075e-06
1.71194e-06
2.06207e-06
2.44269e-06
2.84094e-06
3.23811e-06
3.60734e-06
3.90949e-06
4.08744e-06
4.08176e-06
3.73646e-06
2.42419e-06
7.45849e-07
-1.03873e-06
-3.03606e-06
-5.34055e-06
-7.75521e-06
-1.12761e-05
-1.35545e-05
-1.36231e-05
-1.35352e-05
-1.31714e-05
-1.2457e-05
-1.16154e-05
-1.07851e-05
-1.00578e-05
-9.45439e-06
-9.1899e-06
-9.15705e-06
-9.28228e-06
-9.33165e-06
-8.94861e-06
-8.68309e-06
-7.33087e-06
-5.5328e-06
-2.61098e-06
4.28253e-07
4.35254e-06
7.88558e-06
9.81058e-06
1.01916e-05
9.28517e-06
7.20798e-06
5.25628e-06
3.53808e-06
2.36156e-06
1.58115e-06
1.03761e-06
6.53497e-07
3.63244e-07
1.46161e-07
-1.86831e-08
-1.47337e-07
-2.52522e-07
-3.40041e-07
-4.14203e-07
-4.7799e-07
-5.33512e-07
-5.82665e-07
-6.26378e-07
-6.65317e-07
-6.99765e-07
-7.30704e-07
-7.57751e-07
-7.81859e-07
-8.02629e-07
-8.21507e-07
-8.38748e-07
-8.55144e-07
-8.72367e-07
-8.92921e-07
-9.17946e-07
-9.52871e-07
-1.00006e-06
-1.06799e-06
-1.16537e-06
-1.30448e-06
-1.50179e-06
-1.78506e-06
-2.16111e-06
-2.6447e-06
-3.22237e-06
-3.8882e-06
-4.64938e-06
-5.44321e-06
-6.17035e-06
-6.76969e-06
-7.15578e-06
-7.18678e-06
-6.78031e-06
-5.8609e-06
-4.18873e-06
-2.40398e-06
-2.48823e-10
2.08162e-06
3.98502e-06
5.34927e-06
5.85548e-06
5.65494e-06
5.05922e-06
4.12284e-06
3.15862e-06
2.33116e-06
1.73428e-06
1.31449e-06
1.00961e-06
7.88899e-07
6.18778e-07
4.89535e-07
3.89562e-07
3.11231e-07
2.47888e-07
1.96132e-07
1.53278e-07
1.1735e-07
8.69539e-08
6.09689e-08
3.8546e-08
1.91903e-08
2.15035e-09
-1.27544e-08
-2.55012e-08
-3.67869e-08
-4.62345e-08
-5.44871e-08
-6.16894e-08
-6.79242e-08
-7.38818e-08
-8.08288e-08
-8.97864e-08
-1.03701e-07
-1.26939e-07
-1.65866e-07
-2.23979e-07
-3.23355e-07
-4.74828e-07
-6.86732e-07
-9.56474e-07
-1.2838e-06
-1.64913e-06
-1.97967e-06
-2.09405e-06
-1.96045e-06
-3.98339e-07
6.2914e-07
1.44639e-06
2.61638e-06
3.87727e-06
5.02589e-06
5.97379e-06
6.56236e-06
6.88572e-06
7.3649e-06
7.96686e-06
8.65301e-06
9.44962e-06
1.03782e-05
1.14443e-05
1.26518e-05
1.40113e-05
1.55195e-05
1.71695e-05
1.89628e-05
2.0899e-05
2.29776e-05
2.51997e-05
2.75693e-05
3.00952e-05
3.27935e-05
3.56913e-05
3.88339e-05
4.22944e-05
4.61923e-05
5.07263e-05
5.62404e-05
6.33656e-05
7.33287e-05
8.8906e-05
0.00011853
0.000180042
-4.05918e-05
-2.1184e-05
-1.22326e-05
-7.86998e-06
-5.02216e-06
-3.1452e-06
-1.98951e-06
-1.26969e-06
-8.05766e-07
-5.0656e-07
-3.14508e-07
-1.87142e-07
-9.38877e-08
-1.27533e-08
7.27416e-08
1.75267e-07
3.04534e-07
4.67805e-07
6.70174e-07
9.14658e-07
1.20212e-06
1.53107e-06
1.89726e-06
2.29315e-06
2.70711e-06
3.12228e-06
3.51475e-06
3.85064e-06
4.08258e-06
4.16686e-06
4.00613e-06
3.07868e-06
1.81284e-06
4.23355e-07
-1.16511e-06
-3.03485e-06
-5.05814e-06
-7.728e-06
-9.40368e-06
-9.74895e-06
-1.00204e-05
-1.0095e-05
-9.87761e-06
-9.55108e-06
-9.23894e-06
-9.0098e-06
-8.91544e-06
-9.01592e-06
-9.22596e-06
-9.43623e-06
-9.52708e-06
-9.28217e-06
-8.88071e-06
-7.69421e-06
-6.0812e-06
-3.73582e-06
-1.22665e-06
1.72561e-06
4.37255e-06
6.18373e-06
7.06233e-06
7.39577e-06
6.58453e-06
5.57366e-06
4.20354e-06
2.99354e-06
2.04636e-06
1.37521e-06
9.20351e-07
5.8251e-07
3.22123e-07
1.19415e-07
-3.7096e-08
-1.63184e-07
-2.65788e-07
-3.51194e-07
-4.23648e-07
-4.86156e-07
-5.41282e-07
-5.90332e-07
-6.34308e-07
-6.73667e-07
-7.09443e-07
-7.41382e-07
-7.70436e-07
-7.96349e-07
-8.20446e-07
-8.43436e-07
-8.66437e-07
-8.91697e-07
-9.21957e-07
-9.59531e-07
-1.00937e-06
-1.07706e-06
-1.17087e-06
-1.29993e-06
-1.48515e-06
-1.73211e-06
-2.05334e-06
-2.46165e-06
-2.95484e-06
-3.52702e-06
-4.15999e-06
-4.82239e-06
-5.46047e-06
-5.99714e-06
-6.36072e-06
-6.46403e-06
-6.22388e-06
-5.61032e-06
-4.59052e-06
-3.09701e-06
-1.56186e-06
3.0607e-07
1.8676e-06
3.2484e-06
4.23489e-06
4.64086e-06
4.57691e-06
4.27967e-06
3.73094e-06
3.14667e-06
2.49596e-06
1.93737e-06
1.47925e-06
1.14037e-06
9.02972e-07
7.1714e-07
5.71103e-07
4.54562e-07
3.63406e-07
2.90056e-07
2.30853e-07
1.82187e-07
1.4164e-07
1.07488e-07
7.83908e-08
5.3282e-08
3.1534e-08
1.23209e-08
-4.69854e-09
-1.95699e-08
-3.30323e-08
-4.481e-08
-5.54945e-08
-6.53732e-08
-7.49013e-08
-8.50555e-08
-9.76209e-08
-1.14689e-07
-1.40194e-07
-1.78546e-07
-2.41044e-07
-3.32379e-07
-4.62682e-07
-6.4107e-07
-8.64517e-07
-1.12638e-06
-1.40509e-06
-1.63793e-06
-1.72079e-06
-1.52734e-06
-1.01892e-06
4.56821e-07
1.28904e-06
2.02568e-06
3.03355e-06
4.05546e-06
4.97616e-06
5.77422e-06
6.36698e-06
6.78616e-06
7.32699e-06
7.98452e-06
8.73123e-06
9.58497e-06
1.0566e-05
1.16829e-05
1.29392e-05
1.43311e-05
1.58614e-05
1.75345e-05
1.93488e-05
2.13031e-05
2.33972e-05
2.56327e-05
2.80141e-05
3.05508e-05
3.32596e-05
3.6169e-05
3.93255e-05
4.28042e-05
4.67254e-05
5.12833e-05
5.6796e-05
6.37932e-05
7.31321e-05
8.60609e-05
0.000104402
0.000131748
-2.27633e-05
-1.64189e-05
-1.17784e-05
-8.44592e-06
-6.01027e-06
-4.25903e-06
-3.04143e-06
-2.2045e-06
-1.62628e-06
-1.22503e-06
-9.43782e-07
-7.40173e-07
-5.82469e-07
-4.46838e-07
-3.15074e-07
-1.73075e-07
-9.92882e-09
1.82646e-07
4.10636e-07
6.77874e-07
9.86021e-07
1.3344e-06
1.71972e-06
2.13556e-06
2.57181e-06
3.01375e-06
3.44071e-06
3.82395e-06
4.12451e-06
4.31314e-06
4.33837e-06
3.79034e-06
2.968e-06
2.00211e-06
8.21291e-07
-6.75926e-07
-2.36407e-06
-4.42587e-06
-5.80562e-06
-6.47931e-06
-7.11125e-06
-7.55626e-06
-7.73467e-06
-7.79896e-06
-7.85286e-06
-7.9602e-06
-8.13755e-06
-8.34497e-06
-8.57986e-06
-8.75865e-06
-8.77232e-06
-8.49977e-06
-7.9873e-06
-6.97071e-06
-5.66182e-06
-3.96353e-06
-2.19674e-06
-2.1893e-07
1.68868e-06
3.30601e-06
4.42021e-06
5.46209e-06
5.45743e-06
5.17592e-06
4.33802e-06
3.37634e-06
2.48277e-06
1.74575e-06
1.19589e-06
7.89978e-07
4.88339e-07
2.54718e-07
7.57363e-08
-7.0123e-08
-1.8827e-07
-2.86458e-07
-3.6887e-07
-4.38899e-07
-5.00142e-07
-5.54402e-07
-6.03116e-07
-6.47125e-07
-6.87591e-07
-7.24377e-07
-7.58504e-07
-7.89944e-07
-8.20029e-07
-8.49724e-07
-8.80458e-07
-9.14811e-07
-9.55741e-07
-1.00685e-06
-1.07273e-06
-1.16079e-06
-1.28361e-06
-1.44017e-06
-1.64722e-06
-1.91793e-06
-2.25298e-06
-2.65821e-06
-3.11923e-06
-3.62729e-06
-4.15451e-06
-4.66174e-06
-5.09621e-06
-5.39519e-06
-5.50378e-06
-5.35834e-06
-4.92412e-06
-4.20818e-06
-3.22314e-06
-1.98153e-06
-7.66453e-07
5.72871e-07
1.64031e-06
2.53945e-06
3.19209e-06
3.53406e-06
3.60466e-06
3.59288e-06
3.29191e-06
2.95316e-06
2.49511e-06
2.03514e-06
1.60172e-06
1.26244e-06
1.00246e-06
7.96438e-07
6.41057e-07
5.14177e-07
4.13952e-07
3.31424e-07
2.64961e-07
2.10318e-07
1.65058e-07
1.27179e-07
9.50592e-08
6.73885e-08
4.33722e-08
2.20732e-08
3.03031e-09
-1.39142e-08
-2.95726e-08
-4.37993e-08
-5.72647e-08
-7.04581e-08
-8.40783e-08
-9.96072e-08
-1.19246e-07
-1.45912e-07
-1.8606e-07
-2.40841e-07
-3.1714e-07
-4.25207e-07
-5.6487e-07
-7.39327e-07
-9.3099e-07
-1.11911e-06
-1.26456e-06
-1.28515e-06
-1.09738e-06
-6.41169e-07
1.45455e-08
1.25428e-06
1.90946e-06
2.54049e-06
3.36355e-06
4.14641e-06
4.87049e-06
5.54817e-06
6.14098e-06
6.64726e-06
7.25482e-06
7.96505e-06
8.76111e-06
9.66005e-06
1.06806e-05
1.18314e-05
1.31162e-05
1.45367e-05
1.60954e-05
1.77931e-05
1.96283e-05
2.16e-05
2.3708e-05
2.59538e-05
2.83415e-05
3.08795e-05
3.35834e-05
3.64791e-05
3.96093e-05
4.30417e-05
4.68819e-05
5.12922e-05
5.65158e-05
6.29009e-05
7.08586e-05
8.04762e-05
9.06426e-05
0.000102046
-1.49585e-05
-1.25885e-05
-1.01791e-05
-7.89872e-06
-6.06242e-06
-4.62385e-06
-3.53044e-06
-2.7254e-06
-2.13771e-06
-1.70841e-06
-1.39169e-06
-1.15132e-06
-9.58674e-07
-7.91171e-07
-6.30973e-07
-4.63919e-07
-2.78811e-07
-6.69517e-08
1.78145e-07
4.60891e-07
7.83619e-07
1.14645e-06
1.54706e-06
1.98024e-06
2.43747e-06
2.90616e-06
3.36868e-06
3.80052e-06
4.16908e-06
4.45201e-06
4.61428e-06
4.33934e-06
3.82273e-06
3.12969e-06
2.19964e-06
9.32657e-07
-5.46069e-07
-2.28324e-06
-3.58284e-06
-4.47442e-06
-5.29799e-06
-5.936e-06
-6.3436e-06
-6.64165e-06
-6.9031e-06
-7.17558e-06
-7.42272e-06
-7.63826e-06
-7.8456e-06
-7.96828e-06
-7.86766e-06
-7.50899e-06
-6.91386e-06
-5.98688e-06
-4.87701e-06
-3.57981e-06
-2.28089e-06
-9.11927e-07
4.27835e-07
1.6866e-06
2.6969e-06
3.77633e-06
4.16099e-06
4.30762e-06
3.96646e-06
3.42386e-06
2.70655e-06
2.00265e-06
1.44004e-06
9.9972e-07
6.46724e-07
3.72506e-07
1.6872e-07
8.57228e-09
-1.19792e-07
-2.2768e-07
-3.18936e-07
-3.95945e-07
-4.63026e-07
-5.22019e-07
-5.74669e-07
-6.22461e-07
-6.66824e-07
-7.0776e-07
-7.4639e-07
-7.8293e-07
-8.18755e-07
-8.55035e-07
-8.93509e-07
-9.36985e-07
-9.88173e-07
-1.05262e-06
-1.13667e-06
-1.24083e-06
-1.37642e-06
-1.55332e-06
-1.77676e-06
-2.05079e-06
-2.37547e-06
-2.74785e-06
-3.15316e-06
-3.5741e-06
-3.97868e-06
-4.32925e-06
-4.58009e-06
-4.68569e-06
-4.61218e-06
-4.31938e-06
-3.80632e-06
-3.09951e-06
-2.2306e-06
-1.22574e-06
-2.76312e-07
6.70759e-07
1.42157e-06
2.04401e-06
2.50775e-06
2.79654e-06
2.91706e-06
3.00212e-06
2.85884e-06
2.63714e-06
2.33953e-06
2.03783e-06
1.65366e-06
1.32995e-06
1.07304e-06
8.62387e-07
6.94146e-07
5.56795e-07
4.50864e-07
3.63584e-07
2.92765e-07
2.3359e-07
1.84308e-07
1.43167e-07
1.08469e-07
7.87614e-08
5.29918e-08
3.00729e-08
9.43851e-09
-9.19501e-09
-2.67292e-08
-4.31905e-08
-5.93508e-08
-7.58958e-08
-9.37345e-08
-1.15049e-07
-1.42892e-07
-1.77671e-07
-2.25047e-07
-2.90536e-07
-3.74852e-07
-4.84191e-07
-6.11182e-07
-7.48558e-07
-8.73467e-07
-9.54279e-07
-9.48527e-07
-7.79893e-07
-4.1161e-07
1.41729e-07
7.57295e-07
1.76511e-06
2.30009e-06
2.83162e-06
3.5157e-06
4.16004e-06
4.77622e-06
5.39076e-06
5.98018e-06
6.53276e-06
7.17716e-06
7.91677e-06
8.7429e-06
9.67161e-06
1.07197e-05
1.18953e-05
1.32029e-05
1.4645e-05
1.62233e-05
1.79373e-05
1.97857e-05
2.17672e-05
2.3881e-05
2.61273e-05
2.85085e-05
3.10304e-05
3.37045e-05
3.65509e-05
3.96024e-05
4.2911e-05
4.65551e-05
5.06474e-05
5.53369e-05
6.07884e-05
6.70902e-05
7.39348e-05
7.99749e-05
8.54583e-05
-1.05291e-05
-9.65216e-06
-8.44934e-06
-6.98845e-06
-5.65407e-06
-4.55202e-06
-3.6551e-06
-2.9508e-06
-2.40969e-06
-1.99678e-06
-1.67952e-06
-1.42964e-06
-1.22334e-06
-1.04084e-06
-8.65869e-07
-6.85119e-07
-4.87767e-07
-2.65198e-07
-1.08007e-08
2.80132e-07
6.10383e-07
9.80689e-07
1.38951e-06
1.83268e-06
2.30297e-06
2.78955e-06
3.27708e-06
3.74411e-06
4.1624e-06
4.51214e-06
4.76326e-06
4.67396e-06
4.35874e-06
3.83889e-06
3.06812e-06
1.96064e-06
6.36514e-07
-8.88294e-07
-2.13722e-06
-3.1269e-06
-4.03196e-06
-4.77158e-06
-5.31611e-06
-5.75424e-06
-6.13458e-06
-6.47256e-06
-6.73723e-06
-6.97791e-06
-7.13717e-06
-7.14622e-06
-6.93797e-06
-6.51018e-06
-5.88212e-06
-5.03784e-06
-4.08709e-06
-3.05896e-06
-2.0605e-06
-1.0693e-06
-1.21058e-07
7.97817e-07
1.58654e-06
2.49703e-06
3.01632e-06
3.40881e-06
3.32129e-06
3.1204e-06
2.70993e-06
2.14373e-06
1.60706e-06
1.15911e-06
7.92024e-07
5.02393e-07
2.66879e-07
8.1453e-08
-6.23769e-08
-1.76776e-07
-2.73118e-07
-3.54149e-07
-4.26031e-07
-4.89591e-07
-5.45895e-07
-5.97124e-07
-6.44939e-07
-6.89575e-07
-7.32318e-07
-7.73678e-07
-8.15026e-07
-8.57606e-07
-9.03581e-07
-9.56319e-07
-1.01808e-06
-1.09232e-06
-1.18542e-06
-1.30429e-06
-1.45159e-06
-1.63372e-06
-1.85704e-06
-2.11723e-06
-2.4137e-06
-2.73687e-06
-3.06954e-06
-3.39125e-06
-3.6709e-06
-3.87761e-06
-3.97689e-06
-3.94032e-06
-3.752e-06
-3.38973e-06
-2.87333e-06
-2.23424e-06
-1.50643e-06
-7.14572e-07
1.80402e-08
6.90095e-07
1.23467e-06
1.68696e-06
2.031e-06
2.26795e-06
2.39219e-06
2.49445e-06
2.4531e-06
2.33385e-06
2.10703e-06
1.9246e-06
1.64729e-06
1.36538e-06
1.11409e-06
9.04019e-07
7.35803e-07
5.98166e-07
4.83051e-07
3.88258e-07
3.13308e-07
2.52464e-07
2.00885e-07
1.57302e-07
1.20239e-07
8.87232e-08
6.14415e-08
3.7229e-08
1.5359e-08
-4.64044e-09
-2.37408e-08
-4.21888e-08
-6.08717e-08
-8.06648e-08
-1.02742e-07
-1.28392e-07
-1.60428e-07
-2.01506e-07
-2.54038e-07
-3.21021e-07
-4.00603e-07
-4.94068e-07
-5.871e-07
-6.66613e-07
-7.05723e-07
-6.71756e-07
-5.33734e-07
-2.32744e-07
2.20466e-07
7.64986e-07
1.28639e-06
2.11514e-06
2.5671e-06
3.01949e-06
3.59547e-06
4.1467e-06
4.69339e-06
5.26538e-06
5.84471e-06
6.41821e-06
7.08194e-06
7.83809e-06
8.68241e-06
9.62984e-06
1.06953e-05
1.18867e-05
1.32084e-05
1.4663e-05
1.62514e-05
1.7973e-05
1.98261e-05
2.18086e-05
2.39184e-05
2.61539e-05
2.85146e-05
3.10027e-05
3.36238e-05
3.63894e-05
3.93199e-05
4.24478e-05
4.58208e-05
4.95017e-05
5.35575e-05
5.80209e-05
6.27992e-05
6.75072e-05
7.13337e-05
7.4098e-05
-7.71299e-06
-7.50071e-06
-6.94267e-06
-6.04968e-06
-5.10447e-06
-4.26756e-06
-3.56165e-06
-2.97412e-06
-2.50131e-06
-2.12624e-06
-1.82776e-06
-1.58501e-06
-1.37907e-06
-1.19335e-06
-1.01362e-06
-8.2791e-07
-6.26171e-07
-4.00228e-07
-1.43657e-07
1.4826e-07
4.78498e-07
8.48151e-07
1.25621e-06
1.69924e-06
2.17096e-06
2.66178e-06
3.15802e-06
3.64044e-06
4.08388e-06
4.4691e-06
4.76739e-06
4.79528e-06
4.60771e-06
4.19942e-06
3.53866e-06
2.55872e-06
1.37025e-06
1.55839e-08
-1.16968e-06
-2.18185e-06
-3.109e-06
-3.89739e-06
-4.51807e-06
-5.03244e-06
-5.47165e-06
-5.8409e-06
-6.11345e-06
-6.3318e-06
-6.41277e-06
-6.32527e-06
-6.04473e-06
-5.58239e-06
-4.96356e-06
-4.20879e-06
-3.39981e-06
-2.57396e-06
-1.79128e-06
-1.0474e-06
-3.59402e-07
3.03398e-07
8.85696e-07
1.58401e-06
2.08187e-06
2.57811e-06
2.67931e-06
2.63714e-06
2.46375e-06
2.09461e-06
1.68569e-06
1.27802e-06
8.89578e-07
5.85096e-07
3.50208e-07
1.603e-07
-2.50578e-09
-1.34019e-07
-2.37422e-07
-3.20429e-07
-3.93503e-07
-4.59041e-07
-5.1726e-07
-5.71265e-07
-6.22047e-07
-6.69863e-07
-7.16003e-07
-7.6157e-07
-8.07879e-07
-8.5608e-07
-9.08065e-07
-9.67142e-07
-1.03604e-06
-1.11902e-06
-1.21874e-06
-1.34295e-06
-1.49167e-06
-1.6683e-06
-1.87924e-06
-2.11206e-06
-2.36559e-06
-2.62672e-06
-2.87732e-06
-3.09857e-06
-3.26375e-06
-3.35124e-06
-3.3381e-06
-3.21023e-06
-2.9645e-06
-2.58988e-06
-2.11584e-06
-1.56992e-06
-9.81514e-07
-3.69127e-07
1.84592e-07
6.73384e-07
1.07542e-06
1.41073e-06
1.67051e-06
1.86171e-06
1.9756e-06
2.07294e-06
2.078e-06
2.04473e-06
1.88848e-06
1.74724e-06
1.55718e-06
1.353e-06
1.13157e-06
9.27263e-07
7.55681e-07
6.19142e-07
5.07156e-07
4.11901e-07
3.29902e-07
2.63744e-07
2.10839e-07
1.67128e-07
1.29142e-07
9.68026e-08
6.83478e-08
4.31925e-08
2.05333e-08
-4.00377e-10
-2.05038e-08
-4.02778e-08
-6.08088e-08
-8.30137e-08
-1.07585e-07
-1.36103e-07
-1.70501e-07
-2.12548e-07
-2.6338e-07
-3.22188e-07
-3.8455e-07
-4.4813e-07
-4.9196e-07
-5.02253e-07
-4.52977e-07
-3.19055e-07
-8.81039e-08
2.83067e-07
7.50957e-07
1.23801e-06
1.66468e-06
2.35703e-06
2.74334e-06
3.12933e-06
3.62384e-06
4.1063e-06
4.60362e-06
5.14328e-06
5.70989e-06
6.29155e-06
6.96399e-06
7.72741e-06
8.5801e-06
9.53602e-06
1.06087e-05
1.18056e-05
1.31312e-05
1.45879e-05
1.61762e-05
1.78952e-05
1.97425e-05
2.17149e-05
2.38087e-05
2.60201e-05
2.83454e-05
3.07817e-05
3.33281e-05
3.59867e-05
3.87644e-05
4.1674e-05
4.47349e-05
4.7968e-05
5.13806e-05
5.49257e-05
5.84328e-05
6.15622e-05
6.38481e-05
6.50183e-05
-5.86214e-06
-5.9269e-06
-5.7035e-06
-5.16583e-06
-4.52247e-06
-3.9001e-06
-3.34265e-06
-2.86364e-06
-2.46202e-06
-2.13238e-06
-1.86183e-06
-1.63518e-06
-1.43778e-06
-1.25629e-06
-1.07864e-06
-8.94323e-07
-6.9429e-07
-4.71028e-07
-2.18546e-07
6.76448e-08
3.90457e-07
7.5109e-07
1.1488e-06
1.5806e-06
2.04084e-06
2.52082e-06
3.0081e-06
3.48524e-06
3.92957e-06
4.32197e-06
4.63451e-06
4.72868e-06
4.61886e-06
4.28609e-06
3.71142e-06
2.84601e-06
1.78662e-06
5.82147e-07
-5.24909e-07
-1.51517e-06
-2.42951e-06
-3.23077e-06
-3.88448e-06
-4.43239e-06
-4.8991e-06
-5.27736e-06
-5.52756e-06
-5.6873e-06
-5.6963e-06
-5.54209e-06
-5.22057e-06
-4.75281e-06
-4.17016e-06
-3.5068e-06
-2.82367e-06
-2.15601e-06
-1.53975e-06
-9.66067e-07
-4.46398e-07
3.57634e-08
4.62158e-07
9.70219e-07
1.37483e-06
1.83293e-06
2.06338e-06
2.13942e-06
2.09836e-06
1.87783e-06
1.59512e-06
1.30292e-06
9.58382e-07
6.46756e-07
3.92321e-07
1.95372e-07
4.09266e-08
-8.84132e-08
-2.01857e-07
-2.9818e-07
-3.74921e-07
-4.377e-07
-4.93076e-07
-5.46694e-07
-5.98265e-07
-6.47772e-07
-6.95922e-07
-7.44923e-07
-7.95143e-07
-8.47287e-07
-9.04148e-07
-9.6776e-07
-1.04018e-06
-1.1266e-06
-1.22682e-06
-1.34919e-06
-1.49002e-06
-1.6514e-06
-1.83857e-06
-2.03214e-06
-2.23263e-06
-2.42577e-06
-2.59476e-06
-2.72523e-06
-2.79655e-06
-2.79641e-06
-2.71143e-06
-2.53758e-06
-2.27877e-06
-1.92935e-06
-1.52063e-06
-1.07272e-06
-6.08158e-07
-1.38442e-07
2.72972e-07
6.37368e-07
9.38107e-07
1.19012e-06
1.3894e-06
1.5437e-06
1.64448e-06
1.73151e-06
1.75336e-06
1.75931e-06
1.67629e-06
1.57869e-06
1.41612e-06
1.2755e-06
1.11298e-06
9.27319e-07
7.62709e-07
6.26165e-07
5.11921e-07
4.18008e-07
3.40225e-07
2.73537e-07
2.1606e-07
1.69283e-07
1.31408e-07
1.00388e-07
7.204e-08
4.70078e-08
2.46746e-08
3.48159e-09
-1.6983e-08
-3.7404e-08
-5.86678e-08
-8.14167e-08
-1.06774e-07
-1.35632e-07
-1.6845e-07
-2.05833e-07
-2.47508e-07
-2.89066e-07
-3.2367e-07
-3.46963e-07
-3.34699e-07
-2.76452e-07
-1.51288e-07
5.42596e-08
3.34674e-07
7.25889e-07
1.16729e-06
1.58177e-06
1.92859e-06
2.51181e-06
2.84312e-06
3.17555e-06
3.60817e-06
4.03881e-06
4.49886e-06
5.01185e-06
5.56446e-06
6.14665e-06
6.81945e-06
7.58188e-06
8.43391e-06
9.38873e-06
1.04586e-05
1.16508e-05
1.29694e-05
1.44169e-05
1.59935e-05
1.76979e-05
1.95268e-05
2.14761e-05
2.35403e-05
2.57128e-05
2.79865e-05
3.03534e-05
3.28054e-05
3.53353e-05
3.79369e-05
4.06055e-05
4.33364e-05
4.61186e-05
4.89196e-05
5.16529e-05
5.41323e-05
5.60893e-05
5.72921e-05
5.7652e-05
-4.59474e-06
-4.75699e-06
-4.70067e-06
-4.38085e-06
-3.95271e-06
-3.49167e-06
-3.05748e-06
-2.67085e-06
-2.3344e-06
-2.04923e-06
-1.80935e-06
-1.603e-06
-1.41847e-06
-1.24548e-06
-1.07418e-06
-8.95623e-07
-7.01816e-07
-4.86054e-07
-2.42955e-07
3.15498e-08
3.40112e-07
6.83828e-07
1.06204e-06
1.47197e-06
1.90842e-06
2.36343e-06
2.82563e-06
3.27929e-06
3.70418e-06
4.08169e-06
4.38535e-06
4.51102e-06
4.44776e-06
4.17121e-06
3.67223e-06
2.91533e-06
1.98044e-06
9.13439e-07
-1.0598e-07
-1.04873e-06
-1.92837e-06
-2.71668e-06
-3.37216e-06
-3.92381e-06
-4.39067e-06
-4.73804e-06
-4.95306e-06
-5.05873e-06
-5.01323e-06
-4.81639e-06
-4.47814e-06
-4.0263e-06
-3.49456e-06
-2.91916e-06
-2.34531e-06
-1.80202e-06
-1.30891e-06
-8.66829e-07
-4.66395e-07
-1.00718e-07
2.15293e-07
5.77509e-07
8.82001e-07
1.24316e-06
1.49357e-06
1.64589e-06
1.70492e-06
1.60028e-06
1.39232e-06
1.18962e-06
9.36824e-07
6.65999e-07
4.21682e-07
2.13106e-07
5.00234e-08
-7.85997e-08
-1.85427e-07
-2.77098e-07
-3.54121e-07
-4.21633e-07
-4.80581e-07
-5.33e-07
-5.81817e-07
-6.29757e-07
-6.77096e-07
-7.25782e-07
-7.76023e-07
-8.29787e-07
-8.89262e-07
-9.54003e-07
-1.02562e-06
-1.11028e-06
-1.20455e-06
-1.318e-06
-1.44276e-06
-1.57926e-06
-1.73362e-06
-1.88059e-06
-2.02454e-06
-2.1517e-06
-2.24831e-06
-2.30565e-06
-2.30919e-06
-2.25418e-06
-2.13359e-06
-1.94906e-06
-1.70675e-06
-1.40278e-06
-1.06589e-06
-7.08663e-07
-3.47533e-07
9.02827e-09
3.1667e-07
5.91815e-07
8.18922e-07
1.01108e-06
1.16639e-06
1.29147e-06
1.37889e-06
1.4547e-06
1.48229e-06
1.50012e-06
1.45764e-06
1.41162e-06
1.28303e-06
1.15842e-06
1.04467e-06
9.00512e-07
7.48693e-07
6.17199e-07
5.08689e-07
4.14335e-07
3.35093e-07
2.69687e-07
2.15467e-07
1.70629e-07
1.30841e-07
9.69534e-08
6.87999e-08
4.6063e-08
2.58402e-08
5.64333e-09
-1.38218e-08
-3.35451e-08
-5.39492e-08
-7.53747e-08
-9.91468e-08
-1.24758e-07
-1.51419e-07
-1.78426e-07
-2.04225e-07
-2.21138e-07
-2.21381e-07
-2.00531e-07
-1.34068e-07
-1.77888e-08
1.62171e-07
4.07967e-07
7.01382e-07
1.07963e-06
1.47522e-06
1.81833e-06
2.10183e-06
2.59293e-06
2.87837e-06
3.16904e-06
3.55354e-06
3.94404e-06
4.37409e-06
4.86329e-06
5.4006e-06
5.97787e-06
6.64404e-06
7.39804e-06
8.24126e-06
9.18605e-06
1.02436e-05
1.14206e-05
1.27212e-05
1.41477e-05
1.57002e-05
1.73767e-05
1.91736e-05
2.10854e-05
2.31048e-05
2.5223e-05
2.74287e-05
2.97091e-05
3.20494e-05
3.44333e-05
3.68431e-05
3.92593e-05
4.16582e-05
4.40066e-05
4.62489e-05
4.82876e-05
4.99666e-05
5.1146e-05
5.17179e-05
5.16657e-05
-3.6798e-06
-3.86234e-06
-3.88581e-06
-3.69971e-06
-3.40865e-06
-3.07409e-06
-2.73944e-06
-2.43078e-06
-2.15295e-06
-1.90703e-06
-1.6961e-06
-1.51102e-06
-1.34149e-06
-1.17932e-06
-1.017e-06
-8.47325e-07
-6.63296e-07
-4.58988e-07
-2.2974e-07
2.79495e-08
3.16309e-07
6.36187e-07
9.86925e-07
1.36589e-06
1.76822e-06
2.18666e-06
2.61102e-06
3.02741e-06
3.41813e-06
3.7658e-06
4.04642e-06
4.18185e-06
4.14699e-06
3.91682e-06
3.48858e-06
2.83518e-06
2.01897e-06
1.07914e-06
1.51903e-07
-7.2863e-07
-1.55911e-06
-2.31526e-06
-2.9495e-06
-3.48298e-06
-3.9267e-06
-4.22371e-06
-4.40536e-06
-4.46445e-06
-4.37723e-06
-4.15603e-06
-3.81918e-06
-3.39716e-06
-2.92258e-06
-2.4285e-06
-1.94823e-06
-1.50406e-06
-1.10583e-06
-7.56799e-07
-4.49888e-07
-1.69266e-07
7.36569e-08
3.32298e-07
5.55256e-07
8.18931e-07
1.03203e-06
1.19308e-06
1.302e-06
1.29752e-06
1.17267e-06
1.00486e-06
8.18132e-07
6.08362e-07
4.00281e-07
1.9817e-07
4.05871e-08
-8.58392e-08
-1.92043e-07
-2.80788e-07
-3.50928e-07
-4.12661e-07
-4.69606e-07
-5.20183e-07
-5.65277e-07
-6.10337e-07
-6.54768e-07
-7.02251e-07
-7.51256e-07
-8.02928e-07
-8.60945e-07
-9.22334e-07
-9.88369e-07
-1.06599e-06
-1.14805e-06
-1.24593e-06
-1.34739e-06
-1.4524e-06
-1.56916e-06
-1.66782e-06
-1.75835e-06
-1.82845e-06
-1.86821e-06
-1.87423e-06
-1.8368e-06
-1.75594e-06
-1.62787e-06
-1.45626e-06
-1.24658e-06
-9.95227e-07
-7.26499e-07
-4.47155e-07
-1.69543e-07
9.90643e-08
3.32225e-07
5.40944e-07
7.14629e-07
8.63475e-07
9.86188e-07
1.08799e-06
1.16266e-06
1.22761e-06
1.25665e-06
1.2771e-06
1.2528e-06
1.23368e-06
1.15114e-06
1.04744e-06
9.44796e-07
8.38854e-07
7.14387e-07
5.90359e-07
4.87118e-07
3.97873e-07
3.22728e-07
2.58143e-07
2.03402e-07
1.60237e-07
1.23194e-07
9.19802e-08
6.58119e-08
4.33992e-08
2.39118e-08
5.35523e-09
-1.15314e-08
-2.88827e-08
-4.6624e-08
-6.42581e-08
-8.34641e-08
-1.02196e-07
-1.18451e-07
-1.30139e-07
-1.35165e-07
-1.231e-07
-8.7222e-08
-2.45192e-08
8.74205e-08
2.45494e-07
4.56925e-07
7.15451e-07
9.96425e-07
1.3433e-06
1.6867e-06
1.96599e-06
2.19997e-06
2.61063e-06
2.85855e-06
3.11715e-06
3.46287e-06
3.82103e-06
4.22529e-06
4.69182e-06
5.2122e-06
5.77997e-06
6.43345e-06
7.17227e-06
7.99912e-06
8.9254e-06
9.96116e-06
1.11128e-05
1.23843e-05
1.37777e-05
1.5293e-05
1.69279e-05
1.86782e-05
2.05373e-05
2.24965e-05
2.45442e-05
2.66659e-05
2.88439e-05
3.10574e-05
3.32821e-05
3.54907e-05
3.76516e-05
3.97278e-05
4.16719e-05
4.34194e-05
4.48838e-05
4.59724e-05
4.66458e-05
4.68088e-05
4.65869e-05
-2.98516e-06
-3.15706e-06
-3.21526e-06
-3.11084e-06
-2.91336e-06
-2.67007e-06
-2.41348e-06
-2.16556e-06
-1.93877e-06
-1.73237e-06
-1.54461e-06
-1.37799e-06
-1.22515e-06
-1.07544e-06
-9.24013e-07
-7.65752e-07
-5.94444e-07
-4.04828e-07
-1.9312e-07
4.34977e-08
3.06727e-07
5.97079e-07
9.1406e-07
1.2552e-06
1.61586e-06
1.98963e-06
2.36763e-06
2.73796e-06
3.08558e-06
3.39499e-06
3.64547e-06
3.77812e-06
3.76152e-06
3.57219e-06
3.21086e-06
2.65478e-06
1.94977e-06
1.12764e-06
2.93589e-07
-5.16434e-07
-1.28799e-06
-1.99822e-06
-2.5961e-06
-3.09875e-06
-3.50286e-06
-3.74935e-06
-3.8944e-06
-3.90989e-06
-3.79289e-06
-3.56227e-06
-3.23969e-06
-2.85532e-06
-2.43868e-06
-2.01781e-06
-1.61709e-06
-1.25307e-06
-9.30237e-07
-6.51941e-07
-4.1112e-07
-1.95677e-07
-8.17713e-09
1.81095e-07
3.43739e-07
5.289e-07
6.90623e-07
8.25061e-07
9.33411e-07
9.74898e-07
9.33287e-07
8.20151e-07
6.57951e-07
4.91225e-07
3.23145e-07
1.45603e-07
-7.16331e-09
-1.27681e-07
-2.24108e-07
-3.0519e-07
-3.67037e-07
-4.19941e-07
-4.70262e-07
-5.13877e-07
-5.51801e-07
-5.92877e-07
-6.32341e-07
-6.75667e-07
-7.19454e-07
-7.64666e-07
-8.17485e-07
-8.70892e-07
-9.26535e-07
-9.91995e-07
-1.0564e-06
-1.1333e-06
-1.20678e-06
-1.27731e-06
-1.3562e-06
-1.41039e-06
-1.45623e-06
-1.4831e-06
-1.48463e-06
-1.46133e-06
-1.40642e-06
-1.32193e-06
-1.20499e-06
-1.05912e-06
-8.87896e-07
-6.87892e-07
-4.78632e-07
-2.63338e-07
-5.15304e-08
1.50759e-07
3.28974e-07
4.88078e-07
6.22724e-07
7.39749e-07
8.3787e-07
9.21082e-07
9.84219e-07
1.03909e-06
1.06715e-06
1.08724e-06
1.0724e-06
1.06242e-06
1.00845e-06
9.37272e-07
8.47262e-07
7.53005e-07
6.58242e-07
5.48144e-07
4.5014e-07
3.66017e-07
2.94463e-07
2.3356e-07
1.81681e-07
1.42333e-07
1.07677e-07
7.90349e-08
5.53211e-08
3.5686e-08
1.9233e-08
2.86871e-09
-1.025e-08
-2.3652e-08
-3.68489e-08
-4.80366e-08
-5.99406e-08
-6.84808e-08
-7.08744e-08
-6.37505e-08
-4.55605e-08
-3.71956e-09
6.55137e-08
1.63035e-07
3.07664e-07
4.89659e-07
7.11508e-07
9.62133e-07
1.2157e-06
1.52263e-06
1.81389e-06
2.03856e-06
2.23349e-06
2.57331e-06
2.79093e-06
3.02458e-06
3.33768e-06
3.6686e-06
4.04925e-06
4.49305e-06
4.99437e-06
5.54818e-06
6.18336e-06
6.90064e-06
7.70386e-06
8.60337e-06
9.60819e-06
1.07242e-05
1.19554e-05
1.33035e-05
1.47683e-05
1.63475e-05
1.80364e-05
1.98275e-05
2.17106e-05
2.3672e-05
2.56942e-05
2.77553e-05
2.98292e-05
3.18851e-05
3.38877e-05
3.57968e-05
3.75661e-05
3.91414e-05
4.04589e-05
4.14516e-05
4.20818e-05
4.23855e-05
4.2326e-05
4.20726e-05
-2.43352e-06
-2.58416e-06
-2.65425e-06
-2.59953e-06
-2.46633e-06
-2.28912e-06
-2.09278e-06
-1.89518e-06
-1.7078e-06
-1.53465e-06
-1.37507e-06
-1.22561e-06
-1.0843e-06
-9.48294e-07
-8.10638e-07
-6.66083e-07
-5.09879e-07
-3.37626e-07
-1.46448e-07
6.58399e-08
3.00391e-07
5.57144e-07
8.36022e-07
1.13499e-06
1.44953e-06
1.77418e-06
2.10153e-06
2.42169e-06
2.72236e-06
2.99033e-06
3.20803e-06
3.33141e-06
3.32729e-06
3.17469e-06
2.87574e-06
2.40939e-06
1.807e-06
1.09355e-06
3.514e-07
-3.83676e-07
-1.08998e-06
-1.74528e-06
-2.29841e-06
-2.76232e-06
-3.1076e-06
-3.30856e-06
-3.41515e-06
-3.39595e-06
-3.26156e-06
-3.03298e-06
-2.73287e-06
-2.3895e-06
-2.02838e-06
-1.67225e-06
-1.33886e-06
-1.04022e-06
-7.77937e-07
-5.54747e-07
-3.63816e-07
-1.98009e-07
-5.13975e-08
8.92836e-08
2.08201e-07
3.36059e-07
4.50956e-07
5.49676e-07
6.34853e-07
6.78955e-07
6.71478e-07
6.19531e-07
4.94815e-07
3.55494e-07
2.0554e-07
6.23357e-08
-8.18442e-08
-1.96809e-07
-2.89267e-07
-3.64077e-07
-4.15374e-07
-4.54213e-07
-4.93533e-07
-5.26712e-07
-5.52704e-07
-5.84088e-07
-6.12771e-07
-6.47389e-07
-6.81648e-07
-7.15373e-07
-7.58984e-07
-7.99475e-07
-8.40266e-07
-8.89174e-07
-9.31992e-07
-9.84637e-07
-1.02873e-06
-1.06587e-06
-1.11099e-06
-1.12928e-06
-1.14292e-06
-1.14247e-06
-1.12405e-06
-1.09022e-06
-1.03536e-06
-9.61514e-07
-8.65494e-07
-7.4978e-07
-6.16092e-07
-4.61694e-07
-3.017e-07
-1.37581e-07
2.34566e-08
1.77186e-07
3.12128e-07
4.34825e-07
5.40937e-07
6.3427e-07
7.13704e-07
7.82102e-07
8.35149e-07
8.80942e-07
9.06491e-07
9.24687e-07
9.15603e-07
9.08392e-07
8.68526e-07
8.18122e-07
7.4999e-07
6.64717e-07
5.83836e-07
4.94251e-07
4.01079e-07
3.21938e-07
2.539e-07
1.962e-07
1.45545e-07
1.10146e-07
7.93736e-08
5.49933e-08
3.50916e-08
1.95126e-08
8.15316e-09
-4.12723e-09
-1.15101e-08
-1.9019e-08
-2.56969e-08
-2.77781e-08
-3.00705e-08
-2.58127e-08
-1.21944e-08
1.53242e-08
5.6558e-08
1.25698e-07
2.22053e-07
3.44539e-07
5.07777e-07
6.97245e-07
9.12982e-07
1.14224e-06
1.36147e-06
1.62556e-06
1.86757e-06
2.04669e-06
2.21019e-06
2.48824e-06
2.6811e-06
2.89436e-06
3.17875e-06
3.48556e-06
3.84333e-06
4.26341e-06
4.74297e-06
5.27807e-06
5.8894e-06
6.57888e-06
7.35125e-06
8.21577e-06
9.18043e-06
1.02507e-05
1.14302e-05
1.27207e-05
1.41219e-05
1.56312e-05
1.72437e-05
1.89514e-05
2.07428e-05
2.26026e-05
2.45107e-05
2.64417e-05
2.83653e-05
3.02455e-05
3.20411e-05
3.37057e-05
3.51881e-05
3.64322e-05
3.73812e-05
3.79906e-05
3.82641e-05
3.82965e-05
3.81561e-05
3.79264e-05
-1.97759e-06
-2.10519e-06
-2.17607e-06
-2.15152e-06
-2.06254e-06
-1.93372e-06
-1.78384e-06
-1.62732e-06
-1.47383e-06
-1.32821e-06
-1.19146e-06
-1.06177e-06
-9.37274e-07
-8.15942e-07
-6.92749e-07
-5.62107e-07
-4.214e-07
-2.68598e-07
-1.00472e-07
8.50535e-08
2.89099e-07
5.10866e-07
7.49426e-07
1.00372e-06
1.27039e-06
1.54476e-06
1.82074e-06
2.09042e-06
2.34403e-06
2.57067e-06
2.75587e-06
2.86693e-06
2.87152e-06
2.75158e-06
2.50944e-06
2.12438e-06
1.61562e-06
1.0023e-06
3.49457e-07
-3.0856e-07
-9.45472e-07
-1.53917e-06
-2.03877e-06
-2.44798e-06
-2.72762e-06
-2.89615e-06
-2.96923e-06
-2.92517e-06
-2.78276e-06
-2.5639e-06
-2.29084e-06
-1.98879e-06
-1.67906e-06
-1.37949e-06
-1.10299e-06
-8.58046e-07
-6.44795e-07
-4.65241e-07
-3.12918e-07
-1.8298e-07
-7.06178e-08
3.25509e-08
1.21266e-07
2.09257e-07
2.87554e-07
3.53825e-07
4.11672e-07
4.42537e-07
4.37127e-07
4.09174e-07
3.21432e-07
2.11487e-07
7.72645e-08
-5.0257e-08
-1.72635e-07
-2.84322e-07
-3.75822e-07
-4.4632e-07
-4.88643e-07
-5.13038e-07
-5.40071e-07
-5.59075e-07
-5.68869e-07
-5.85915e-07
-5.98793e-07
-6.19992e-07
-6.40308e-07
-6.57248e-07
-6.87772e-07
-7.10598e-07
-7.32984e-07
-7.62144e-07
-7.81572e-07
-8.09264e-07
-8.25965e-07
-8.3465e-07
-8.53533e-07
-8.47349e-07
-8.42419e-07
-8.29594e-07
-8.06243e-07
-7.75282e-07
-7.3114e-07
-6.7481e-07
-6.02635e-07
-5.16021e-07
-4.15451e-07
-2.9933e-07
-1.78961e-07
-5.52083e-08
6.64064e-08
1.84069e-07
2.86724e-07
3.82402e-07
4.67267e-07
5.42882e-07
6.08106e-07
6.64728e-07
7.09142e-07
7.46899e-07
7.69098e-07
7.84469e-07
7.78624e-07
7.72199e-07
7.40263e-07
7.00268e-07
6.47075e-07
5.76464e-07
5.02092e-07
4.27294e-07
3.46404e-07
2.67649e-07
2.03227e-07
1.49194e-07
9.92265e-08
6.71712e-08
3.98552e-08
1.97076e-08
4.71e-09
-5.7189e-09
-1.02197e-08
-1.69524e-08
-1.68371e-08
-1.65006e-08
-1.49469e-08
-5.65444e-09
3.2171e-09
2.18915e-08
5.21729e-08
9.97326e-08
1.61557e-07
2.52969e-07
3.68115e-07
5.04749e-07