/*--------------------------------*- C++ -*----------------------------------*\
| =========                 |                                                 |
| \\      /  F ield         | OpenFOAM: The Open Source CFD Toolbox           |
|  \\    /   O peration     | Version:  2506                                  |
|   \\  /    A nd           | Website:  www.openfoam.com                      |
|    \\/     M anipulation  |                                                 |
\*---------------------------------------------------------------------------*/
FoamFile
{
    version     2.0;
    format      ascii;
    arch        "LSB;label=32;scalar=64";
    class       volVectorField;
    location    "3.2";
    object      vorticityField;
}
// * * * * * * * * * * * * * * * * * * * * * * * * * * * * * * * * * * * * * //

dimensions      [0 0 -1 0 0 0 0];

internalField   nonuniform List<vector> 
4000
(
(1.26578e-20 -4.29042e-18 -45.3152)
(4.35532e-18 6.09628e-18 -47.7212)
(-4.66618e-18 1.1874e-17 -43.7986)
(-1.87816e-17 -2.51909e-17 -37.5906)
(3.89329e-17 3.7192e-18 -32.2022)
(-2.01342e-17 1.73532e-17 -28.0829)
(1.69251e-19 -9.56143e-18 -24.9058)
(-1.98333e-17 -0 -22.4764)
(1.95628e-17 1.92555e-17 -20.6357)
(-4.01329e-17 -2.07849e-17 -19.2372)
(4.02353e-17 2.0538e-17 -18.1653)
(-1.11109e-20 -2.16595e-17 -17.3343)
(1.97988e-18 -3.57281e-17 -16.6799)
(-4.17031e-17 3.83791e-17 -16.1544)
(2.06947e-19 -0 -15.7213)
(7.85007e-17 3.75389e-17 -15.352)
(-7.84611e-17 -3.97173e-17 -15.0244)
(4.2138e-17 -3.53844e-17 -14.7219)
(-1.99475e-18 3.75628e-17 -14.4318)
(0 -0 -14.1444)
(0 -0 -13.8528)
(0 -0 -13.5516)
(-4.92665e-18 7.26049e-17 -13.2362)
(-6.75674e-17 -1.48291e-16 -12.9026)
(1.55149e-16 6.29935e-18 -12.547)
(-8.82061e-17 1.417e-16 -12.1653)
(5.54683e-18 -7.23126e-17 -11.7531)
(0 -0 -11.3057)
(0 -0 -10.8177)
(6.21681e-18 -7.02406e-17 -10.2828)
(1.44884e-16 7.22661e-17 -9.69318)
(-8.22736e-17 6.83059e-17 -9.04376)
(-1.511e-16 -9.61508e-18 -8.32757)
(-5.43683e-18 6.85953e-17 -7.37111)
(4.38551e-17 -4.06293e-16 -6.36872)
(1.76606e-16 -3.17057e-16 -5.99796)
(5.49537e-16 5.86729e-16 -6.46275)
(3.88273e-18 -1.18987e-17 -7.5355)
(-4.05074e-16 -9.33043e-16 -9.15392)
(3.71641e-16 7.54551e-16 -11.4112)
(-2.20559e-16 1.30191e-15 -14.758)
(-6.50257e-16 -1.25906e-15 -18.8449)
(2.15082e-16 -5.42982e-16 -22.9111)
(-1.50377e-16 6.01216e-16 -26.7083)
(-7.06633e-16 -4.96528e-16 -30.1574)
(8.19455e-16 -1.17527e-16 -33.33)
(6.22351e-16 4.9802e-17 -36.3519)
(6.81759e-16 6.41893e-16 -39.0118)
(8.48417e-16 6.16491e-16 -41.437)
(3.37457e-16 8.62448e-16 -43.5884)
(-3.68944e-16 2.22522e-18 -45.3448)
(2.79959e-17 -3.47648e-16 -46.8166)
(4.16611e-16 8.18704e-16 -47.7164)
(-4.2837e-16 -2.64056e-16 -48.2218)
(6.70004e-17 -7.82777e-16 -48.0855)
(2.04861e-16 8.01247e-17 -47.3781)
(-1.92971e-16 1.98255e-16 -46.1229)
(-6.14254e-17 4.7673e-17 -44.1388)
(-1.10672e-16 -6.55497e-18 -41.7692)
(5.22212e-17 3.61124e-17 -38.7501)
(-5.66285e-17 2.88331e-17 -35.2942)
(-2.20551e-16 -6.11709e-18 -31.66)
(1.04157e-16 5.21e-17 -27.8317)
(5.36682e-17 4.90023e-16 -24.0474)
(-8.62348e-17 -3.44946e-17 -20.3584)
(7.54052e-17 -6.10384e-16 -16.8633)
(-4.12322e-16 2.12275e-16 -13.6812)
(-2.45379e-17 3.0202e-16 -10.7701)
(-2.13886e-16 -4.72071e-16 -8.25096)
(5.55636e-16 -5.78595e-16 -6.04797)
(1.30169e-16 4.30484e-16 -4.20611)
(-2.51835e-17 6.48125e-17 -2.67504)
(2.10715e-19 -2.46738e-18 -1.40465)
(6.80717e-16 -4.31774e-16 -0.419461)
(6.55336e-16 -4.64259e-16 0.347453)
(2.56658e-17 -5.21445e-16 0.915927)
(5.25721e-16 -3.39478e-16 1.3054)
(-6.26206e-17 5.42849e-16 1.56)
(5.42572e-16 -3.4251e-16 1.70868)
(-5.00431e-16 -1.40597e-16 1.76988)
(9.27126e-16 -2.69263e-16 1.7734)
(9.44268e-17 4.49734e-16 1.73853)
(-2.653e-17 5.66563e-17 1.67624)
(5.62244e-17 -2.35095e-17 1.59933)
(-4.08832e-16 -6.36681e-16 1.51536)
(7.50456e-16 -9.78699e-16 1.4261)
(-3.3799e-17 8.81085e-16 1.33612)
(2.92218e-17 4.29779e-16 1.24421)
(7.15116e-18 -8.32038e-16 1.14409)
(2.96833e-16 -1.91588e-16 1.04135)
(-9.84363e-19 5.31238e-18 0.934791)
(2.87987e-16 -5.26218e-16 0.818862)
(1.33973e-16 6.44949e-16 0.702917)
(-1.02898e-16 2.15911e-16 0.586636)
(-7.63255e-19 -3.2902e-16 0.465613)
(-4.08761e-17 3.61213e-16 0.351458)
(-1.23635e-16 4.9865e-17 0.232925)
(-1.54577e-17 -1.89509e-17 0.124006)
(1.76873e-16 2.55048e-17 0.0156627)
(-3.04774e-17 -1.52941e-16 -0.0843457)
(-3.12921e-17 1.17061e-18 -0.187165)
(-1.10287e-17 2.81342e-17 -0.287834)
(5.29999e-18 -9.32044e-17 -0.397176)
(1.36983e-17 -2.49086e-17 -0.518481)
(2.04051e-17 1.0121e-17 -0.662635)
(3.69034e-19 3.35006e-17 -0.826263)
(-2.0044e-18 -2.69154e-16 -1.01962)
(1.03487e-16 2.58253e-17 -1.24646)
(1.25763e-16 4.56272e-16 -1.51682)
(-2.38541e-16 6.77918e-17 -1.83877)
(1.24473e-16 -1.07994e-16 -2.2235)
(-5.39393e-18 -3.06478e-16 -2.67655)
(1.27971e-16 6.0868e-17 -3.21854)
(1.32527e-16 2.13538e-16 -3.83625)
(3.81902e-18 3.23219e-16 -4.57288)
(-2.54187e-16 -1.67996e-16 -5.40784)
(-2.76233e-18 -6.38427e-16 -6.35608)
(-5.69036e-17 3.0265e-17 -7.43471)
(-2.60774e-16 -1.92254e-16 -8.62725)
(2.74803e-16 2.06623e-16 -9.9426)
(3.88616e-16 8.69715e-16 -11.3907)
(-3.40151e-16 -2.27858e-16 -12.9511)
(-1.29525e-17 -7.55535e-16 -14.6149)
(3.12808e-16 2.44602e-16 -16.3917)
(6.57385e-17 7.90134e-16 -18.2525)
(-6.31107e-16 -4.46261e-16 -20.1893)
(2.24851e-16 -2.4741e-16 -22.1867)
(-3.16837e-16 8.77552e-17 -24.2182)
(-3.58001e-16 -5.20821e-16 -26.2748)
(-1.41638e-16 -2.81908e-16 -28.3671)
(-2.23715e-18 -3.19656e-16 -30.3993)
(1.96466e-16 3.7463e-16 -32.4031)
(1.19632e-16 4.04608e-16 -34.4148)
(7.19186e-16 4.96085e-16 -36.2761)
(-4.71138e-16 3.31498e-16 -38.0439)
(5.04242e-17 2.82799e-17 -39.8139)
(-5.16439e-17 -2.765e-17 -41.2552)
(1.11001e-16 -9.16853e-17 -42.6521)
(-5.96221e-17 -6.51828e-17 -43.74)
(7.93814e-17 -5.99964e-17 -44.5941)
(-1.54528e-16 7.32703e-17 -45.119)
(3.25348e-16 1.64145e-16 -45.2454)
(-1.93417e-16 5.47699e-17 -44.8798)
(4.34844e-17 -4.50037e-18 -44.1007)
(1.13499e-16 1.03104e-16 -42.5996)
(2.89468e-17 3.03294e-17 -40.7508)
(2.02517e-17 -3.33164e-17 -38.108)
(0 -0 -34.9838)
(4.50341e-17 -3.39701e-17 -31.481)
(-4.48278e-17 4.39783e-17 -27.5628)
(-2.54339e-17 1.50149e-16 -23.5616)
(1.90076e-17 8.35151e-17 -19.3994)
(-1.40511e-16 -8.21241e-17 -15.3494)
(-7.35445e-17 -2.10185e-16 -11.4784)
(1.49706e-16 -5.84143e-17 -7.90114)
(-1.42687e-16 1.51624e-16 -4.69443)
(1.90825e-16 2.96582e-17 -1.89482)
(-2.90912e-16 1.55759e-16 0.411676)
(6.1723e-17 2.466e-16 2.14419)
(-2.0498e-16 9.47888e-17 3.13389)
(1.79008e-16 -5.67332e-16 3.23246)
(-1.35874e-16 1.2387e-16 2.5228)
(3.45968e-17 7.03271e-17 1.62553)
(-2.37301e-17 5.53196e-18 0.558474)
(-2.15184e-17 3.30945e-18 -0.709133)
(-1.99788e-17 1.65992e-18 -2.21679)
(1.92848e-17 1.45399e-17 -4.10606)
(-1.65235e-17 -1.54214e-18 -6.21916)
(-1.05314e-18 -1.60156e-17 -8.08097)
(-1.84373e-18 -1.38823e-17 -9.53272)
(1.62531e-17 2.86381e-18 -10.6138)
(3.4856e-18 2.61447e-17 -11.3857)
(-7.04507e-19 -1.55787e-17 -11.9117)
(-2.37333e-18 -8.81318e-18 -12.2572)
(1.94353e-18 1.20463e-17 -12.4829)
(-1.30469e-17 -4.03416e-19 -12.6403)
(2.378e-17 -1.003e-17 -12.7696)
(-1.18503e-17 1.34473e-17 -12.8982)
(1.67796e-18 6.69261e-18 -13.0406)
(-6.90711e-19 -1.00599e-17 -13.201)
(-5.85561e-18 -3.84172e-18 -13.376)
(9.57229e-18 1.74498e-18 -13.5567)
(7.35159e-19 7.69375e-18 -13.7311)
(-2.26742e-19 -2.0704e-18 -13.8866)
(-3.76622e-18 -3.83888e-18 -14.0112)
(-3.51668e-18 -1.04898e-20 -14.0957)
(3.91633e-18 1.16819e-20 -14.1335)
(-3.35223e-18 1.49048e-19 -14.1216)
(5.666e-18 -3.22232e-19 -14.0627)
(-3.6022e-18 -1.69442e-19 -13.9633)
(1.21767e-18 3.63216e-21 -13.8307)
(2.76517e-19 7.74277e-19 -13.6724)
(-8.54545e-19 -1.66526e-18 -13.4963)
(2.88757e-19 1.16615e-19 -13.3112)
(7.35238e-19 8.34886e-19 -13.1249)
(-1.00368e-19 -1.4631e-19 -12.9441)
(6.05898e-20 -5.79429e-19 -12.7742)
(1.15364e-19 -1.47618e-20 -12.6172)
(5.88379e-20 3.09128e-19 -12.465)
(1.62128e-20 5.54756e-20 -12.3263)
(0 -0 4.30055)
(-3.57257e-20 -0 -7.35447)
(1.90072e-19 8.73213e-18 -16.2267)
(1.89739e-18 -2.25276e-17 -21.0206)
(-1.25544e-17 9.31786e-18 -23.0329)
(1.0555e-17 1.35705e-17 -23.5247)
(-2.23213e-19 9.50945e-18 -23.2087)
(8.77596e-19 -2.53538e-17 -22.5335)
(1.80186e-17 6.75923e-18 -21.7724)
(-1.63926e-17 -5.91244e-18 -21.0383)
(-3.77418e-17 -5.08769e-17 -20.3719)
(7.64435e-17 6.75396e-17 -19.7872)
(-6.08204e-18 6.49546e-17 -19.2838)
(-3.60416e-17 -4.81503e-17 -18.8529)
(4.86637e-18 -1.12796e-16 -18.4837)
(3.52995e-17 5.71192e-17 -18.165)
(-3.80695e-17 6.57398e-17 -17.886)
(-9.01746e-19 -3.76256e-17 -17.6365)
(0 -0 -17.4076)
(0 -0 -17.1917)
(0 -0 -16.9821)
(0 -0 -16.7732)
(0 -0 -16.5603)
(1.50808e-16 -0 -16.3391)
(-2.28416e-16 -0 -16.1056)
(7.74534e-17 -0 -15.8555)
(0 -0 -15.5845)
(0 -0 -15.2875)
(0 -0 -14.9584)
(6.3091e-18 -7.12834e-17 -14.5898)
(-4.33367e-18 1.30371e-17 -14.1722)
(-1.65202e-17 2.12917e-16 -13.6927)
(7.5414e-18 -8.56981e-17 -13.1374)
(8.08595e-17 -2.03634e-16 -12.4542)
(4.40008e-17 2.87925e-16 -11.7088)
(-1.95335e-16 -2.88475e-16 -11.1382)
(-5.62223e-16 -3.7645e-16 -10.9337)
(-4.41605e-17 1.08518e-15 -11.2023)
(2.99678e-16 2.85753e-16 -11.9707)
(-6.09769e-16 -1.15925e-15 -13.256)
(1.72822e-16 -6.18047e-17 -15.134)
(5.27742e-16 8.69489e-16 -17.3296)
(8.39165e-17 -2.32575e-16 -19.6849)
(2.10809e-18 1.28985e-16 -22.1285)
(9.82415e-16 -5.80389e-16 -24.5187)
(-8.86916e-16 -7.92655e-16 -26.8518)
(-1.55868e-15 -3.30127e-18 -29.1228)
(-6.73703e-16 -7.12682e-16 -31.2506)
(-8.50249e-16 -3.01206e-16 -33.3079)
(-4.17641e-16 1.27911e-16 -35.2045)
(1.1955e-15 4.07207e-16 -36.9419)
(2.48745e-17 -3.06461e-16 -38.5418)
(-4.56454e-16 -1.95279e-16 -39.9008)
(3.85374e-16 5.91805e-16 -41.0837)
(-4.26124e-16 2.00578e-16 -41.9657)
(-4.47238e-16 1.21098e-16 -42.5862)
(-2.48831e-16 -7.17375e-17 -42.8807)
(-9.7168e-17 -7.74494e-17 -42.8112)
(5.9087e-17 -9.94312e-17 -42.3913)
(5.55905e-17 -6.54294e-17 -41.5518)
(3.6303e-17 1.64312e-16 -40.3207)
(2.07095e-16 -2.1194e-16 -38.702)
(-1.62997e-16 -2.01151e-16 -36.7631)
(1.61391e-16 -3.55895e-16 -34.567)
(-4.34405e-17 2.64713e-16 -32.2043)
(6.85765e-18 8.70149e-16 -29.7405)
(-2.17952e-16 1.09485e-17 -27.2892)
(2.42209e-16 -4.69813e-16 -24.8896)
(2.59643e-16 3.29227e-17 -22.6286)
(-7.08852e-16 2.71853e-16 -20.5186)
(1.544e-17 -6.80534e-17 -18.5964)
(9.04272e-16 -5.54973e-16 -16.8744)
(-5.34062e-16 -3.18515e-16 -15.3293)
(9.44554e-17 -5.66287e-16 -13.9793)
(-6.30676e-16 1.15946e-15 -12.7935)
(-1.11596e-16 6.51355e-16 -11.7539)
(1.23274e-16 -6.99917e-17 -10.8517)
(2.53145e-17 -5.62871e-16 -10.0599)
(5.08941e-16 1.37958e-16 -9.3585)
(9.77018e-16 -7.18289e-16 -8.736)
(-1.30243e-15 -1.29796e-16 -8.17534)
(-1.14059e-16 6.42301e-16 -7.66337)
(4.54071e-16 -3.01595e-16 -7.1931)
(-2.78524e-17 5.12689e-16 -6.75749)
(1.02913e-18 5.64531e-17 -6.35169)
(-7.23445e-16 5.11052e-16 -5.9749)
(-3.68527e-16 2.45693e-16 -5.6236)
(-3.89843e-16 -2.5921e-16 -5.29572)
(-3.23552e-16 6.68578e-16 -4.99556)
(-6.48515e-16 4.10155e-16 -4.71802)
(-2.08457e-19 -1.32303e-17 -4.46082)
(-2.91573e-16 3.59844e-16 -4.22794)
(-1.31299e-16 -1.45655e-16 -4.01362)
(2.68574e-16 -1.48444e-16 -3.81505)
(-1.23491e-16 3.10675e-16 -3.63897)
(-5.42718e-18 -1.73745e-16 -3.47449)
(2.47115e-16 -1.43161e-16 -3.33355)
(-1.18532e-16 -3.14576e-16 -3.20602)
(-1.41832e-18 -5.11884e-17 -3.10343)
(6.6499e-17 4.02062e-16 -3.01942)
(2.86113e-17 -2.48485e-17 -2.96595)
(4.02466e-17 -7.43639e-17 -2.9398)
(1.53841e-17 6.18012e-17 -2.94887)
(-1.37854e-17 8.95625e-18 -2.99441)
(-2.73352e-17 6.20521e-18 -3.0807)
(-5.57939e-17 -1.57056e-17 -3.20989)
(1.05569e-18 1.4176e-16 -3.38535)
(-3.31857e-16 -2.28391e-16 -3.60778)
(-1.04486e-17 2.44994e-17 -3.88141)
(2.32615e-16 -9.74329e-17 -4.20743)
(-8.61913e-18 -1.17683e-16 -4.59052)
(9.01861e-18 3.02895e-16 -5.03251)
(-1.25531e-16 -2.16947e-16 -5.5411)
(-1.25842e-16 -4.03243e-17 -6.1102)
(1.23874e-16 2.27577e-16 -6.76167)
(2.53894e-16 1.46964e-16 -7.47818)
(-9.58321e-18 3.42497e-16 -8.27911)
(5.13743e-17 2.90973e-16 -9.16476)
(2.87458e-16 -3.24072e-16 -10.1277)
(-5.45485e-16 -1.09045e-15 -11.1804)
(2.26385e-16 3.28332e-16 -12.3215)
(3.28372e-16 5.55341e-16 -13.5401)
(-2.58717e-16 -1.99699e-16 -14.8407)
(-3.66252e-16 -2.74479e-16 -16.2238)
(-3.04594e-16 1.49753e-16 -17.6698)
(1.10733e-15 2.04592e-16 -19.1814)
(-4.37105e-16 4.18928e-17 -20.746)
(4.37494e-16 2.16645e-16 -22.3492)
(8.64088e-17 -2.99259e-17 -23.9867)
(-6.30111e-16 -6.05668e-16 -25.6513)
(-2.90111e-16 -1.55669e-16 -27.2931)
(-6.09107e-16 -6.88519e-16 -28.9455)
(-4.55319e-16 -8.90844e-16 -30.5912)
(-9.1972e-16 2.71702e-16 -32.1468)
(1.98769e-16 1.06659e-16 -33.6844)
(-1.1112e-16 -3.09774e-16 -35.18)
(-1.21137e-16 -1.12862e-16 -36.4914)
(-2.23982e-17 -8.69132e-17 -37.8085)
(6.95645e-17 -2.03937e-17 -38.9164)
(-9.34723e-17 1.68589e-16 -39.9188)
(8.10479e-17 -3.18766e-16 -40.7402)
(-1.96778e-16 2.5342e-16 -41.3652)
(-2.09962e-17 -8.45632e-18 -41.7593)
(-2.96229e-17 -1.57494e-16 -41.9284)
(4.72353e-17 -1.06522e-16 -41.7503)
(4.2511e-17 -3.40524e-17 -41.3547)
(-9.12444e-17 5.995e-17 -40.5003)
(5.62275e-17 -1.62827e-17 -39.3531)
(-3.54898e-17 1.18656e-16 -37.7973)
(8.60067e-17 -7.33224e-17 -35.8661)
(6.09373e-17 -2.03e-16 -33.6483)
(2.39005e-17 1.20606e-16 -31.0971)
(-7.69828e-18 1.81341e-16 -28.3911)
(7.78449e-17 -1.49333e-17 -25.5292)
(-3.25453e-16 2.13207e-16 -22.6826)
(1.08721e-16 -2.50672e-16 -19.8652)
(2.76362e-18 2.16149e-18 -17.1918)
(2.84572e-16 -7.56227e-17 -14.7069)
(-1.01613e-16 -2.87751e-16 -12.5019)
(5.42198e-16 -4.5644e-16 -10.686)
(-1.48741e-16 5.06194e-16 -9.64758)
(-1.03939e-17 1.00133e-16 -9.23624)
(2.00745e-18 -1.83978e-16 -9.11911)
(4.86824e-17 2.77708e-17 -9.19156)
(-2.0745e-18 -6.61133e-18 -9.45567)
(3.19909e-17 -4.70243e-17 -9.93645)
(-3.57273e-17 -1.2986e-17 -10.6517)
(1.89955e-17 1.57182e-17 -11.5426)
(2.00757e-19 1.89461e-18 -12.4607)
(9.10568e-19 -1.12603e-18 -13.3066)
(-6.6126e-19 -1.6989e-18 -14.0392)
(-2.07615e-18 -1.14545e-17 -14.6528)
(1.60239e-17 2.98595e-17 -15.1549)
(-1.27668e-17 -5.28677e-18 -15.5607)
(-6.08296e-19 -4.75013e-19 -15.89)
(-1.54825e-17 -3.66007e-17 -16.1632)
(1.37061e-17 4.1193e-17 -16.3988)
(1.92266e-19 -2.26759e-17 -16.6106)
(-1.56114e-18 -2.95384e-18 -16.8075)
(1.06766e-18 1.58018e-17 -16.9934)
(2.51002e-19 -1.47672e-17 -17.1688)
(-4.63276e-18 3.49961e-18 -17.3308)
(3.92369e-18 2.52659e-18 -17.4748)
(4.31273e-18 1.26304e-17 -17.5955)
(-3.95408e-18 -6.12969e-19 -17.6877)
(-1.17031e-18 -1.57285e-17 -17.7472)
(-4.02001e-19 1.04238e-17 -17.7711)
(3.36417e-19 -1.23248e-17 -17.7582)
(1.0747e-19 1.85244e-17 -17.7104)
(-9.60561e-20 -7.6853e-18 -17.6301)
(-1.16234e-18 9.33945e-19 -17.5224)
(7.94088e-19 2.61713e-18 -17.3948)
(1.65606e-18 7.27376e-19 -17.2536)
(-1.80586e-18 -3.45312e-18 -17.1048)
(-4.80355e-20 3.79076e-18 -16.9542)
(-8.01078e-20 1.17474e-19 -16.807)
(-6.2526e-20 2.03465e-18 -16.6669)
(-1.73298e-19 2.20684e-19 -16.5361)
(-3.92394e-21 -1.48863e-20 -16.4128)
(-2.77842e-20 1.37235e-18 -16.2999)
(1.26523e-20 -4.28857e-18 6.40872)
(-5.00228e-19 7.05015e-18 3.66315)
(3.75232e-19 9.90898e-18 -0.833342)
(1.42704e-18 -1.85228e-17 -5.11373)
(-1.09514e-17 -2.6224e-18 -8.79163)
(9.58744e-18 8.47468e-18 -11.705)
(0 -0 -13.5327)
(2.02809e-17 -1.74123e-17 -14.6796)
(-2.17868e-17 4.48747e-17 -15.3253)
(2.04721e-17 1.57115e-17 -15.6052)
(-1.77401e-17 -7.9314e-17 -15.6506)
(-3.70142e-18 -3.45623e-17 -15.5694)
(1.34804e-18 8.81232e-17 -15.422)
(7.53809e-17 1.80464e-17 -15.243)
(-6.89475e-17 -7.06699e-17 -15.0553)
(-4.82124e-17 8.66719e-17 -14.8739)
(7.6722e-17 -3.22296e-17 -14.7063)
(-3.26044e-17 -5.44573e-17 -14.5554)
(-1.87022e-18 3.52178e-17 -14.421)
(0 -0 -14.3006)
(-7.05368e-17 -0 -14.1908)
(7.06784e-17 -0 -14.0876)
(4.66155e-18 -6.8698e-17 -13.9874)
(6.41197e-17 9.75533e-17 -13.8869)
(-7.39989e-17 3.99924e-17 -13.7831)
(5.07794e-18 -6.88477e-17 -13.6733)
(0 -0 -13.5546)
(-6.88433e-17 -0 -13.4241)
(3.95125e-19 -0 -13.2783)
(7.4766e-17 -6.72927e-17 -13.1127)
(-1.55454e-17 9.13906e-17 -12.9218)
(-1.40768e-16 4.34592e-17 -12.6973)
(2.26374e-16 -6.33556e-17 -12.4319)
(-1.30084e-16 -7.45383e-19 -12.1273)
(7.03461e-18 -1.40203e-16 -11.7449)
(2.61875e-16 3.43122e-16 -11.2776)
(-3.74568e-16 -1.76362e-17 -10.8401)
(-1.92096e-16 -9.44879e-16 -10.6284)
(3.66286e-16 3.92945e-16 -10.7477)
(9.73392e-17 6.49846e-16 -11.2117)
(5.02378e-17 1.55122e-16 -11.9911)
(8.23194e-16 -9.33831e-17 -12.9381)
(-3.00498e-16 6.96663e-17 -14.0839)
(-6.104e-16 -4.43452e-16 -15.4168)
(6.20418e-16 1.54151e-15 -16.8448)
(-7.77058e-16 4.83311e-16 -18.3261)
(6.32647e-16 -8.34695e-16 -19.837)
(3.02348e-17 -3.51058e-16 -21.336)
(1.23563e-16 -2.7953e-16 -22.84)
(2.701e-17 -9.02372e-16 -24.2915)
(-5.77814e-16 3.79986e-16 -25.7024)
(-1.12878e-16 8.15026e-16 -27.0933)
(9.24763e-17 1.16458e-16 -28.4347)
(1.23664e-17 -3.81001e-16 -29.7367)
(4.87666e-16 -4.29232e-16 -30.977)
(2.33622e-16 -2.3415e-16 -32.1539)
(3.08119e-16 -2.06562e-16 -33.2337)
(3.24112e-17 -2.33132e-16 -34.2201)
(7.12325e-17 -7.7859e-17 -35.0326)
(-1.06672e-16 8.93405e-17 -35.6935)
(-3.75464e-17 -8.26123e-17 -36.1023)
(2.14807e-16 2.18527e-16 -36.2164)
(-3.26068e-16 9.05991e-17 -36.0217)
(-2.721e-16 4.85828e-16 -35.4765)
(-8.74867e-17 -4.27377e-16 -34.6483)
(3.14783e-16 -5.85216e-16 -33.5046)
(6.15361e-16 -3.52648e-16 -32.1706)
(-8.44145e-17 1.17188e-17 -30.6384)
(-1.5979e-17 1.53206e-16 -29.0251)
(4.33183e-16 -3.18303e-16 -27.3591)
(1.74706e-18 -8.56264e-16 -25.6873)
(-6.74023e-16 1.24732e-15 -24.0741)
(5.31913e-16 2.39074e-16 -22.5028)
(-1.26014e-15 9.86769e-16 -21.0158)
(-6.89682e-16 3.80125e-16 -19.6135)
(1.13358e-16 -1.28135e-15 -18.2862)
(-4.19852e-16 4.46851e-16 -17.041)
(-3.67727e-17 6.96352e-17 -15.8724)
(-8.89813e-16 -2.97424e-16 -14.7684)
(4.10605e-17 1.75235e-15 -13.7279)
(-6.35859e-16 1.86804e-15 -12.7482)
(-8.03967e-17 -1.62449e-15 -11.8219)
(-3.20633e-16 3.18017e-16 -10.9487)
(-4.75342e-16 8.21217e-16 -10.1278)
(4.05604e-16 -3.11051e-16 -9.35506)
(-7.8243e-16 4.95939e-16 -8.63356)
(1.07886e-15 -3.10125e-16 -7.96257)
(6.08361e-16 -1.20947e-16 -7.33319)
(2.97291e-16 -7.07698e-16 -6.75198)
(-3.86557e-17 -4.4779e-16 -6.21613)
(-6.69788e-18 -4.25101e-16 -5.71657)
(-1.32399e-17 -1.83336e-16 -5.26078)
(1.63884e-16 -7.63479e-17 -4.84603)
(-1.58315e-16 2.39378e-16 -4.46346)
(5.80173e-18 1.86025e-17 -4.1265)
(4.55388e-17 -1.62147e-16 -3.81849)
(-8.57545e-18 1.47837e-16 -3.5556)
(-4.40427e-20 2.75746e-16 -3.32381)
(-4.04387e-16 -3.81573e-17 -3.1366)
(-3.58389e-17 -1.98103e-16 -2.98238)
(3.21281e-17 1.62193e-17 -2.87266)
(-4.37549e-17 4.73241e-17 -2.80086)
(-4.68192e-20 -2.29371e-17 -2.7712)
(2.48616e-20 2.49007e-17 -2.78338)
(9.2345e-19 5.96053e-17 -2.83627)
(5.4746e-17 -5.77654e-18 -2.93142)
(5.84149e-17 7.96497e-17 -3.06849)
(2.24514e-16 2.15883e-17 -3.24641)
(-3.39764e-16 -3.59384e-16 -3.4669)
(2.25488e-16 2.40431e-16 -3.72871)
(-2.28776e-16 2.203e-17 -4.03326)
(2.43147e-18 -1.45026e-16 -4.38066)
(-6.2872e-18 1.52896e-16 -4.77384)
(6.51299e-18 -2.13896e-16 -5.20831)
(-2.99206e-17 -1.00235e-16 -5.69683)
(2.06706e-18 1.67937e-16 -6.22517)
(-1.10333e-16 -3.96796e-16 -6.80964)
(-1.78334e-16 -2.09373e-16 -7.44759)
(4.78245e-16 1.07754e-15 -8.1351)
(3.42567e-16 -3.78288e-17 -8.88328)
(-7.16748e-16 -5.25294e-16 -9.69014)
(-1.74764e-16 5.47926e-16 -10.5505)
(3.46667e-16 -2.2178e-17 -11.4719)
(3.50322e-16 2.55345e-16 -12.4544)
(3.62718e-16 -9.91272e-16 -13.4868)
(-7.49187e-17 7.84703e-16 -14.5743)
(-4.84362e-17 4.82693e-17 -15.7096)
(2.32295e-16 3.32805e-16 -16.8852)
(5.84375e-16 6.80036e-16 -18.0978)
(9.17572e-16 -8.61651e-17 -19.3393)
(4.38378e-16 -5.56104e-16 -20.5835)
(4.03623e-16 2.24966e-16 -21.848)
(6.10033e-16 1.12095e-16 -23.115)
(-1.78709e-16 -9.93685e-16 -24.3377)
(4.49332e-16 1.09795e-17 -25.5607)
(4.89446e-17 1.01363e-16 -26.7457)
(1.58423e-16 -2.01633e-16 -27.8396)
(2.13459e-16 -2.31812e-16 -28.9417)
(-2.16645e-17 7.37012e-17 -29.9324)
(1.88725e-16 -1.14317e-16 -30.8763)
(-2.62311e-16 2.83616e-16 -31.7431)
(-6.23031e-16 -3.00118e-17 -32.535)
(6.99701e-17 -4.90514e-17 -33.2548)
(-4.06871e-17 -5.77243e-17 -33.8989)
(5.29225e-17 3.44018e-16 -34.4363)
(-2.1108e-17 1.89715e-16 -34.8964)
(-4.31362e-17 -1.81927e-16 -35.1875)
(6.48915e-17 5.7607e-17 -35.3566)
(-1.00029e-16 -9.45789e-17 -35.2862)
(1.77792e-16 7.43781e-17 -34.9676)
(-4.34242e-17 2.92089e-16 -34.3704)
(-1.783e-16 5.59498e-17 -33.4458)
(7.67669e-17 -4.80357e-16 -32.2315)
(-1.40709e-17 8.67301e-17 -30.7001)
(8.58911e-17 -3.23453e-16 -28.9308)
(1.85091e-16 -1.6427e-16 -26.9554)
(-2.96861e-16 1.62712e-16 -24.8627)
(1.88323e-16 1.07734e-17 -22.7035)
(-4.92446e-18 -1.47933e-17 -20.5732)
(-3.43125e-16 3.42456e-16 -18.6212)
(-1.42952e-16 7.71473e-17 -16.9482)
(2.30063e-16 -1.89616e-16 -15.5457)
(-1.59592e-17 4.15082e-17 -14.4233)
(-2.71265e-18 5.50272e-17 -13.5112)
(2.30582e-17 1.13521e-18 -12.7904)
(3.11747e-17 5.26926e-17 -12.289)
(-4.16002e-18 1.24039e-18 -11.9869)
(-1.91632e-17 -3.35687e-17 -11.9068)
(-1.53773e-17 -4.0646e-18 -12.0296)
(-9.30509e-19 -1.3618e-17 -12.2984)
(1.72029e-17 2.65744e-17 -12.6491)
(-1.50255e-18 1.21349e-17 -13.0326)
(-2.844e-17 -1.74366e-18 -13.4123)
(2.90795e-17 2.28209e-18 -13.7625)
(1.30837e-18 1.13846e-17 -14.0687)
(1.32634e-17 -4.49271e-17 -14.3263)
(-2.60108e-17 8.29303e-18 -14.5375)
(1.54484e-17 5.10533e-17 -14.7081)
(-1.53768e-18 -2.1131e-17 -14.8454)
(-7.37674e-19 -1.07709e-17 -14.9569)
(6.7897e-18 1.52862e-18 -15.049)
(-5.41132e-18 -2.68274e-18 -15.1266)
(-1.43043e-18 1.42423e-17 -15.1929)
(-7.40023e-18 7.10391e-18 -15.249)
(7.10552e-18 -1.65591e-17 -15.2944)
(4.15159e-18 -8.02413e-18 -15.3275)
(-4.72135e-18 -2.67453e-18 -15.3455)
(3.34644e-18 1.21621e-18 -15.3459)
(-3.41989e-18 5.88413e-19 -15.3265)
(1.24548e-18 -5.99905e-19 -15.2864)
(-1.67442e-18 -8.73961e-18 -15.2253)
(-1.23816e-18 4.53232e-18 -15.1452)
(7.94593e-19 9.20453e-18 -15.0486)
(2.10814e-20 -8.31792e-18 -14.9387)
(-9.50322e-20 -7.499e-19 -14.8196)
(3.19723e-19 -1.87418e-18 -14.6949)
(-3.33403e-20 -3.75337e-18 -14.5682)
(-8.84512e-20 -2.06452e-18 -14.4425)
(-1.53207e-19 1.75819e-18 -14.3192)
(-3.13266e-21 -1.32519e-18 -14.1733)
(0 -0 3.96141)
(-4.56814e-18 -0 3.82136)
(4.43889e-18 8.48922e-18 2.87192)
(8.14976e-19 -1.4377e-17 1.44567)
(-7.33592e-19 -2.55777e-18 -0.585539)
(-1.24582e-19 8.44553e-18 -2.60239)
(-1.77738e-17 -0 -4.45146)
(1.77597e-17 -0 -6.03672)
(-9.1845e-19 -0 -7.34805)
(2.13735e-18 -0 -8.26384)
(3.73646e-17 -3.37604e-17 -8.93287)
(-4.01555e-17 5.63954e-17 -9.40366)
(-3.62574e-17 -2.24695e-17 -9.71148)
(4.64317e-19 5.54414e-17 -9.89311)
(1.92173e-18 -4.31856e-17 -9.99347)
(3.60949e-17 -7.99502e-17 -10.0429)
(3.62221e-17 8.84306e-17 -10.0619)
(-3.85774e-17 1.28395e-17 -10.0654)
(1.79181e-18 -3.37412e-17 -10.0633)
(-3.83125e-17 6.65269e-17 -10.0612)
(3.97312e-17 -1.06325e-16 -10.0615)
(2.96616e-18 -2.68622e-17 -10.0643)
(1.40814e-19 8.23078e-19 -10.0686)
(-1.14269e-17 1.04146e-16 -10.0731)
(-6.53139e-17 2.76614e-17 -10.0765)
(7.24351e-17 -6.59698e-17 -10.0775)
(6.17517e-17 6.49297e-17 -10.0753)
(1.43167e-18 -3.60761e-17 -10.0687)
(-1.22082e-16 -1.29059e-16 -10.0568)
(7.02315e-17 -2.90376e-17 -10.0382)
(-2.57018e-17 2.26761e-16 -10.0112)
(7.68602e-17 -6.5251e-17 -9.97271)
(-6.21828e-17 -3.6753e-17 -9.9209)
(-5.72531e-17 -2.74551e-17 -9.86977)
(7.48114e-17 -9.32259e-17 -9.76478)
(-1.62394e-16 1.38953e-16 -9.51718)
(5.32189e-16 3.64812e-16 -9.15908)
(5.33469e-16 3.3662e-16 -8.83557)
(-5.31215e-16 -5.38501e-16 -8.65641)
(-2.24429e-16 -5.65693e-16 -8.65624)
(5.62486e-17 -7.00402e-16 -8.81012)
(-8.24889e-16 8.32064e-16 -9.06787)
(2.30499e-17 8.253e-16 -9.48437)
(9.11223e-16 -9.71469e-16 -10.0582)
(-3.66185e-16 -6.72816e-16 -10.7505)
(7.02939e-16 1.05706e-16 -11.518)
(2.85848e-16 4.42614e-16 -12.3575)
(2.86632e-16 1.53983e-16 -13.2795)
(2.62966e-16 5.47784e-16 -14.2043)
(3.10139e-16 7.13557e-16 -15.1363)
(-6.34429e-16 -6.25743e-16 -16.0489)
(4.19619e-16 -5.28231e-16 -17.0061)
(-1.89693e-16 1.80926e-16 -18.0487)
(4.00602e-16 5.13164e-16 -19.0917)
(-6.80397e-17 4.61937e-16 -20.1783)
(-4.7668e-17 4.41562e-16 -21.3075)
(3.25366e-16 2.32492e-16 -22.4775)
(1.04011e-16 2.46794e-17 -23.7112)
(-2.56554e-18 -2.93117e-17 -24.928)
(-5.12505e-17 -7.40242e-17 -26.1932)
(9.62243e-17 -1.08063e-16 -27.3807)
(-2.15363e-16 1.21874e-16 -28.461)
(2.7973e-16 -2.48009e-16 -29.3786)
(-1.06212e-16 -5.5434e-16 -30.0433)
(6.55406e-16 1.34245e-16 -30.4761)
(-4.10349e-16 8.77027e-16 -30.5716)
(1.65938e-16 2.78843e-16 -30.4113)
(-1.03864e-16 1.08175e-16 -29.933)
(3.51918e-16 -4.24127e-16 -29.229)
(-1.40735e-16 3.56217e-16 -28.3119)
(-1.76596e-16 9.82674e-16 -27.2205)
(-6.72618e-16 -7.20733e-16 -26.039)
(6.04037e-16 -3.00587e-17 -24.7562)
(-1.28947e-16 4.04796e-16 -23.4357)
(6.60153e-16 -9.84927e-16 -22.099)
(-2.51665e-17 4.92682e-16 -20.7506)
(-6.18062e-16 2.99362e-16 -19.4163)
(-4.25352e-17 2.28477e-17 -18.1086)
(-1.09077e-15 1.0164e-15 -16.8285)
(-1.02272e-15 4.14623e-17 -15.5867)
(1.78531e-15 -2.30326e-15 -14.3926)
(5.24967e-16 2.47923e-16 -13.248)
(-5.33432e-16 7.26034e-16 -12.1609)
(4.53068e-16 -7.67469e-16 -11.1367)
(-3.11779e-18 4.56194e-16 -10.1749)
(6.74623e-16 -1.49984e-15 -9.28207)
(-5.86362e-16 -1.16679e-15 -8.45995)
(3.56657e-16 5.08012e-16 -7.69855)
(3.64401e-16 1.15918e-15 -7.00407)
(9.52224e-16 -1.64475e-16 -6.37283)
(1.51389e-16 -8.33531e-17 -5.79437)
(-1.03391e-17 -8.71659e-18 -5.27371)
(-1.54654e-16 6.71576e-17 -4.80805)
(2.15383e-17 1.75627e-16 -4.38822)
(2.32482e-16 -1.53127e-16 -4.02552)
(1.42387e-17 -1.5178e-16 -3.70456)
(-1.29244e-16 6.20274e-17 -3.43764)
(3.81984e-16 9.1982e-18 -3.21137)
(2.00329e-16 -9.77375e-17 -3.03487)
(1.29906e-17 -1.12532e-16 -2.89601)
(-5.95982e-17 3.54777e-18 -2.8014)
(5.62728e-17 -3.74957e-17 -2.74236)
(-3.45126e-17 1.15186e-17 -2.71976)
(5.39378e-19 1.00879e-17 -2.73038)
(-6.89113e-19 -6.02922e-17 -2.7709)
(1.14963e-16 -5.35816e-17 -2.8411)
(-1.0043e-18 -4.33448e-17 -2.93808)
(1.08467e-16 3.9851e-16 -3.06105)
(1.16745e-16 -4.95079e-17 -3.20914)
(-2.23718e-16 -3.02695e-16 -3.38146)
(7.51567e-18 1.3719e-16 -3.57764)
(-4.03697e-18 9.1658e-18 -3.79757)
(-6.49503e-19 -1.43482e-16 -4.04226)
(9.97591e-17 1.13956e-16 -4.30902)
(-2.25985e-16 5.04543e-17 -4.60504)
(-5.12398e-18 1.18967e-16 -4.92196)
(3.97821e-16 5.86207e-16 -5.26957)
(-4.168e-17 -7.98806e-16 -5.64719)
(-6.16193e-16 -8.78991e-16 -6.05313)
(1.89516e-16 1.00935e-15 -6.49528)
(-3.84963e-16 7.31754e-17 -6.97401)
(6.00049e-16 -6.03673e-16 -7.48764)
(9.21915e-17 -2.82806e-16 -8.04311)
(-1.28728e-16 4.12512e-16 -8.64175)
(1.46443e-16 8.66893e-16 -9.27912)
(-9.02912e-16 -3.12942e-16 -9.95995)
(3.4329e-17 5.22487e-17 -10.6814)
(-2.65366e-16 -4.89717e-16 -11.4404)
(-8.29333e-17 2.33943e-16 -12.235)
(1.37674e-16 7.34466e-16 -13.0595)
(-4.87458e-17 7.90735e-16 -13.9003)
(3.25421e-17 -4.81824e-17 -14.7624)
(5.89941e-18 7.70593e-16 -15.6411)
(4.28331e-16 3.91908e-16 -16.5041)
(-1.33764e-16 1.58556e-16 -17.3713)
(2.46022e-17 2.19881e-16 -18.211)
(3.51854e-16 -3.51179e-17 -19.0348)
(-1.15063e-16 4.48464e-16 -19.8512)
(-5.7104e-17 -1.15177e-16 -20.6214)
(-2.48391e-16 7.10541e-16 -21.3743)
(1.43528e-16 -4.26668e-16 -22.106)
(4.5686e-16 -8.44113e-16 -22.8254)
(1.86373e-16 -6.4904e-16 -23.5502)
(-1.65924e-16 -1.89918e-16 -24.2822)
(-2.59083e-16 9.50475e-17 -25.0351)
(-7.80909e-17 4.33183e-17 -25.8045)
(8.89859e-17 -9.81317e-17 -26.586)
(-6.40399e-17 1.77591e-16 -27.3724)
(4.7471e-17 -9.75205e-17 -28.0976)
(-2.00545e-16 2.38058e-16 -28.7369)
(-4.44874e-17 -7.62566e-17 -29.2218)
(2.12295e-16 -2.3581e-16 -29.5077)
(1.137e-16 3.3071e-16 -29.5419)
(-9.51345e-17 -7.48851e-17 -29.2809)
(2.14931e-16 4.5437e-17 -28.7083)
(-7.13943e-17 3.24363e-16 -27.8292)
(1.07417e-16 -3.344e-16 -26.6658)
(-2.1906e-16 2.06376e-17 -25.2539)
(2.27694e-17 1.38529e-16 -23.647)
(-4.92857e-17 -9.36364e-17 -21.9972)
(1.18866e-16 -1.6548e-16 -20.2041)
(-1.01412e-16 3.41429e-17 -18.3929)
(-1.99329e-17 4.21554e-17 -16.7193)
(-9.79087e-17 -1.5382e-17 -15.2183)
(1.53136e-17 -3.9053e-17 -13.8917)
(-2.32338e-17 -1.8853e-17 -12.7834)
(5.98823e-17 4.09637e-17 -11.8818)
(-3.66376e-18 4.29329e-18 -11.2315)
(-9.86254e-18 -4.41129e-17 -10.8368)
(-1.66371e-17 -3.29966e-17 -10.6637)
(5.49905e-18 3.44656e-17 -10.6611)
(4.67525e-18 1.94292e-17 -10.7777)
(8.37801e-19 -5.04249e-17 -10.9649)
(-7.44105e-19 2.43876e-17 -11.1791)
(-2.69628e-18 1.54415e-17 -11.3862)
(2.82598e-17 5.87076e-18 -11.5635)
(-2.33884e-17 1.03487e-17 -11.6987)
(-1.24369e-17 -4.9237e-17 -11.7883)
(9.20673e-18 3.05416e-17 -11.8355)
(2.90948e-18 8.24791e-18 -11.8474)
(-5.89274e-18 5.53504e-18 -11.8337)
(4.37783e-18 1.96013e-18 -11.8045)
(-5.89173e-19 -2.42763e-18 -11.7689)
(-3.69915e-18 -2.51834e-17 -11.7344)
(7.77841e-18 1.70201e-17 -11.7056)
(-5.06433e-19 8.52257e-18 -11.6845)
(1.14567e-18 -5.03607e-18 -11.6705)
(8.54348e-19 -2.85739e-18 -11.6608)
(-2.44595e-18 2.3201e-17 -11.6516)
(2.95577e-18 -1.82763e-17 -11.6388)
(2.61463e-18 -7.05548e-18 -11.618)
(-2.35611e-18 -1.15781e-17 -11.5859)
(5.81122e-19 1.00692e-17 -11.5403)
(1.06348e-18 -9.88116e-18 -11.4806)
(-2.51856e-19 9.2329e-18 -11.4074)
(-5.75975e-19 4.76477e-18 -11.3222)
(3.5298e-19 5.21847e-18 -11.2273)
(1.01789e-19 -2.177e-18 -11.1252)
(-9.21533e-21 -7.78988e-18 -11.0224)
(7.05158e-20 -1.24036e-19 -10.8585)
(0 -0 2.41547)
(0 -0 2.77631)
(-7.6436e-20 8.63613e-18 2.83866)
(5.43672e-19 -1.43565e-17 2.51599)
(-3.68515e-19 -2.84582e-18 1.88367)
(-4.23927e-19 2.53764e-17 1.14669)
(-1.62682e-17 -2.91838e-17 0.118978)
(3.51136e-17 -2.10964e-17 -0.90403)
(-2.01739e-17 6.26953e-17 -1.86643)
(2.14686e-18 -2.51154e-17 -2.74375)
(-3.18375e-21 -2.07864e-17 -3.52472)
(-3.64029e-17 1.66766e-17 -4.20915)
(6.95525e-17 3.30469e-17 -4.74647)
(-6.95059e-17 -2.46562e-17 -5.16169)
(7.60529e-17 -9.88297e-17 -5.49564)
(-3.95345e-17 8.1521e-17 -5.7598)
(-3.66766e-18 4.19154e-17 -5.96398)
(3.2071e-18 -3.29974e-17 -6.12684)
(-1.82305e-18 3.25227e-17 -6.26269)
(-3.11251e-17 -5.58453e-17 -6.38127)
(3.82865e-17 -9.25576e-18 -6.4889)
(-5.39059e-18 3.25783e-17 -6.58922)
(7.11218e-17 -6.40638e-17 -6.68421)
(-8.11599e-17 1.728e-16 -6.77475)
(7.45896e-18 -8.90202e-17 -6.86124)
(1.23727e-17 -1.46918e-16 -6.94389)
(-7.1701e-18 1.0751e-16 -7.02295)
(-1.18935e-17 1.88615e-16 -7.0988)
(7.54204e-17 -1.47802e-16 -7.17191)
(-5.5335e-17 -1.46359e-16 -7.24281)
(-1.29836e-17 1.03537e-16 -7.31203)