/*--------------------------------*- C++ -*----------------------------------*\
| =========                 |                                                 |
| \\      /  F ield         | OpenFOAM: The Open Source CFD Toolbox           |
|  \\    /   O peration     | Version:  2506                                  |
|   \\  /    A nd           | Website:  www.openfoam.com                      |
|    \\/     M anipulation  |                                                 |
\*---------------------------------------------------------------------------*/
FoamFile
{
    version     2.0;
    format      ascii;
    arch        "LSB;label=32;scalar=64";
    class       surfaceScalarField;
    location    "2.9";
    object      phi;
}
// * * * * * * * * * * * * * * * * * * * * * * * * * * * * * * * * * * * * * //

dimensions      [0 3 -1 0 0 0 0];

oriented        oriented;

internalField   nonuniform List<scalar> 
7780
(
7.1099e-10
1.88957e-10
5.22093e-10
1.88879e-10
3.90573e-10
1.31483e-10
2.9747e-10
9.30928e-11
2.28961e-10
6.85197e-11
1.77128e-10
5.18443e-11
1.36812e-10
4.03218e-11
1.04518e-10
3.22969e-11
7.8069e-11
2.64505e-11
5.6049e-11
2.20197e-11
3.75083e-11
1.85393e-11
2.17741e-11
1.57319e-11
8.32231e-12
1.3449e-11
-3.26652e-12
1.15858e-11
-1.33306e-11
1.00607e-11
-2.21511e-11
8.8168e-12
-2.99751e-11
7.8198e-12
-3.70165e-11
7.03668e-12
-4.34583e-11
6.43661e-12
-4.94556e-11
5.99142e-12
-5.51385e-11
5.67648e-12
-6.06148e-11
5.46935e-12
-6.5972e-11
5.34969e-12
-7.12797e-11
5.2997e-12
-7.65863e-11
5.29821e-12
-8.19379e-11
5.34309e-12
-8.73534e-11
5.40707e-12
-9.28287e-11
5.46721e-12
-9.83191e-11
5.48302e-12
-1.03716e-10
5.39e-12
-1.0871e-10
4.98915e-12
-1.12304e-10
3.59029e-12
-1.12894e-10
5.88626e-13
-1.05736e-10
-7.15638e-12
-9.38484e-11
-1.1887e-11
-8.30684e-11
-1.07886e-11
-7.0548e-11
-1.25397e-11
-5.45057e-11
-1.6071e-11
-3.55817e-11
-1.89614e-11
-1.44579e-11
-2.1171e-11
8.67955e-12
-2.31923e-11
3.50761e-11
-2.64496e-11
6.26321e-11
-2.76009e-11
8.949e-11
-2.68926e-11
1.1421e-10
-2.47448e-11
1.36244e-10
-2.20494e-11
1.5572e-10
-1.94853e-11
1.71757e-10
-1.60412e-11
1.8492e-10
-1.31637e-11
1.94844e-10
-9.92382e-12
2.01285e-10
-6.44098e-12
2.05282e-10
-3.9992e-12
2.0515e-10
1.26421e-13
2.02762e-10
2.3796e-12
1.95917e-10
6.83419e-12
1.86437e-10
9.46971e-12
1.74076e-10
1.23518e-11
1.58742e-10
1.53269e-11
1.42292e-10
1.64409e-11
1.23002e-10
1.92777e-11
1.03782e-10
1.92001e-11
8.39926e-11
1.97596e-11
6.44763e-11
1.9479e-11
4.56219e-11
1.88093e-11
2.73636e-11
1.82084e-11
1.00234e-11
1.72876e-11
-6.21026e-12
1.61827e-11
-2.20153e-11
1.57596e-11
-3.69878e-11
1.49396e-11
-5.16318e-11
1.46237e-11
-6.62881e-11
1.46464e-11
-8.01959e-11
1.39101e-11
-9.44794e-11
1.42949e-11
-1.08425e-10
1.39633e-11
-1.21883e-10
1.34824e-11
-1.35308e-10
1.3455e-11
-1.48126e-10
1.28521e-11
-1.59957e-10
1.18697e-11
-1.71265e-10
1.1353e-11
-1.8191e-10
1.06944e-11
-1.91785e-10
9.92861e-12
-2.01162e-10
9.43197e-12
-2.10092e-10
8.98336e-12
-2.18723e-10
8.68267e-12
-2.27566e-10
8.88909e-12
-2.36405e-10
8.88011e-12
-2.45167e-10
8.79899e-12
-2.54663e-10
9.52704e-12
-2.6429e-10
9.65291e-12
-2.73757e-10
9.49025e-12
-2.84215e-10
1.04788e-11
-2.94338e-10
1.01413e-11
-3.03948e-10
9.62478e-12
-3.14459e-10
1.0525e-11
-3.22929e-10
8.48116e-12
-3.32597e-10
9.67696e-12
-3.39427e-10
6.8372e-12
-3.46789e-10
7.36803e-12
-3.50643e-10
3.85645e-12
-3.55268e-10
4.62589e-12
-3.56381e-10
1.11376e-12
-3.57e-10
6.18701e-13
-3.55309e-10
-1.69281e-12
-3.50938e-10
-4.37137e-12
-3.46174e-10
-4.76414e-12
-3.37576e-10
-8.5971e-12
-3.28771e-10
-8.80192e-12
-3.16828e-10
-1.19393e-11
-3.03631e-10
-1.31928e-11
-2.88481e-10
-1.51447e-11
-2.7171e-10
-1.6764e-11
-2.52992e-10
-1.87105e-11
-2.33227e-10
-1.97577e-11
-2.11109e-10
-2.21098e-11
-1.88797e-10
-2.2303e-11
-1.64791e-10
-2.39949e-11
-1.4004e-10
-2.47376e-11
-1.14959e-10
-2.50655e-11
-8.93636e-11
-2.5582e-11
-6.39457e-11
-2.54065e-11
-3.90992e-11
-2.48387e-11
-1.49965e-11
-2.41006e-11
8.00806e-12
-2.30095e-11
2.96288e-11
-2.16324e-11
4.97382e-11
-2.01274e-11
6.82216e-11
-1.8508e-11
8.51221e-11
-1.69324e-11
1.00546e-10
-1.54634e-11
1.1416e-10
-1.36592e-11
1.26241e-10
-1.21346e-11
1.36707e-10
-1.05317e-11
1.45808e-10
-9.18383e-12
1.53893e-10
-8.18363e-12
1.60576e-10
-6.79269e-12
1.66244e-10
-5.78635e-12
1.7137e-10
-5.24586e-12
1.74901e-10
-3.64154e-12
1.78022e-10
-3.215e-12
1.79678e-10
-1.72171e-12
1.80088e-10
-4.4516e-13
1.7893e-10
1.15444e-12
1.75819e-10
3.12986e-12
1.70386e-10
5.46615e-12
1.62829e-10
7.59026e-12
1.51409e-10
1.1449e-11
1.37935e-10
1.34908e-11
1.20652e-10
1.7292e-11
1.0165e-10
1.90038e-11
8.07771e-11
2.08719e-11
5.8687e-11
2.20877e-11
3.62156e-11
2.24641e-11
1.35183e-11
2.26831e-11
-9.15769e-12
2.26498e-11
-3.15282e-11
2.23306e-11
-5.47653e-11
2.31835e-11
-7.81434e-11
2.33162e-11
-1.02884e-10
2.4682e-11
-1.25905e-10
2.29851e-11
-1.44052e-10
1.8151e-11
-1.50226e-10
6.22243e-12
-1.73094e-10
2.29258e-11
-1.92156e-10
1.91195e-11
-2.05773e-10
1.36615e-11
-2.12533e-10
6.78113e-12
-2.17395e-10
4.86397e-12
-2.18837e-10
1.4335e-12
-2.22494e-10
3.64463e-12
-2.15289e-10
-7.21499e-12
-1.97806e-10
-1.74892e-11
-1.75169e-10
-2.26409e-11
-1.51264e-10
-2.39071e-11
-1.28746e-10
-2.25184e-11
-1.09249e-10
-1.94966e-11
-9.35859e-11
-1.56615e-11
-8.19953e-11
-1.15895e-11
-7.43274e-11
-7.66698e-12
-7.00863e-11
-4.24074e-12
-6.85519e-11
-1.53439e-12
-6.92952e-11
7.42867e-13
-7.16203e-11
2.32422e-12
-7.47735e-11
3.15217e-12
-7.82166e-11
3.44201e-12
-8.15005e-11
3.28284e-12
-8.42986e-11
2.79711e-12
-8.64007e-11
2.10127e-12
-8.77247e-11
1.32332e-12
-8.82687e-11
5.43651e-13
-8.82466e-11
-2.23978e-14
-8.78728e-11
-3.73802e-13
-8.73714e-11
-5.01225e-13
-8.69852e-11
-3.85898e-13
-8.69917e-11
6.95285e-15
-8.76008e-11
6.09791e-13
-8.89133e-11
1.31312e-12
-9.10411e-11
2.1283e-12
-9.4099e-11
3.05826e-12
-9.82156e-11
4.11673e-12
-1.0372e-10
5.50427e-12
-1.11486e-10
7.76713e-12
1.04174e-11
9.26084e-10
1.62865e-10
8.5057e-10
2.64408e-10
7.29391e-10
2.52678e-10
6.02987e-10
2.19492e-10
4.87427e-10
1.84073e-10
3.86853e-10
1.52422e-10
3.00866e-10
1.26311e-10
2.27853e-10
1.05312e-10
1.65748e-10
8.85557e-11
1.12728e-10
7.50396e-11
6.72722e-11
6.39934e-11
2.8141e-11
5.4861e-11
-5.65843e-12
4.72461e-11
-3.4978e-11
4.09032e-11
-6.05778e-11
3.56584e-11
-8.31401e-11
3.1377e-11
-1.03255e-10
2.7933e-11
-1.21435e-10
2.52143e-11
-1.3812e-10
2.31187e-11
-1.53685e-10
2.15537e-11
-1.68442e-10
2.04307e-11
-1.82638e-10
1.96628e-11
-1.9646e-10
1.91692e-11
-2.10043e-10
1.88792e-11
-2.2348e-10
1.87331e-11
-2.36811e-10
1.86719e-11
-2.50024e-10
1.86184e-11
-2.63012e-10
1.84545e-11
-2.75571e-10
1.80429e-11
-2.87336e-10
1.71569e-11
-2.9775e-10
1.54065e-11
-3.05539e-10
1.13842e-11
-3.0888e-10
3.93567e-12
-3.04598e-10
-1.1433e-11
-2.90649e-10
-2.58329e-11
-2.67412e-10
-3.40257e-11
-2.34425e-10
-4.5532e-11
-1.92348e-10
-5.81543e-11
-1.4312e-10
-6.81967e-11
-8.86285e-11
-7.56715e-11
-2.9812e-11
-8.20285e-11
3.11553e-11
-8.74579e-11
9.07124e-11
-8.72147e-11
1.46602e-10
-8.28476e-11
1.96983e-10
-7.5195e-11
2.41331e-10
-6.64658e-11
2.79736e-10
-5.7957e-11
3.10836e-10
-4.72022e-11
3.35953e-10
-3.83346e-11
3.54483e-10
-2.84974e-11
3.66315e-10
-1.83046e-11
3.72014e-10
-9.72022e-12
3.69907e-10
2.218e-12
3.61511e-10
1.07634e-11
3.45548e-10
2.27831e-11
3.22898e-10
3.2102e-11
2.93366e-10
4.18617e-11
2.57091e-10
5.15764e-11
2.1633e-10
5.71773e-11
1.69798e-10
6.57865e-11
1.20948e-10
6.80301e-11
6.99585e-11
7.07262e-11
1.82927e-11
7.11163e-11
-3.29368e-11
6.99999e-11
-8.30565e-11
6.8279e-11
-1.31608e-10
6.57819e-11
-1.78332e-10
6.28439e-11
-2.23338e-10
6.07089e-11
-2.6652e-10
5.80749e-11
-3.0822e-10
5.62871e-11
-3.48817e-10
5.52199e-11
-3.87835e-10
5.29199e-11
-4.26052e-10
5.25155e-11
-4.63019e-10
5.09453e-11
-4.98482e-10
4.89719e-11
-5.32693e-10
4.76978e-11
-5.65113e-10
4.53144e-11
-5.95283e-10
4.20892e-11
-6.23341e-10
3.94651e-11
-6.49236e-10
3.66467e-11
-6.7283e-10
3.35808e-11
-6.94384e-10
3.10408e-11
-7.14055e-10
2.87072e-11
-7.32132e-10
2.68062e-11
-7.49182e-10
2.59801e-11
-7.65269e-10
2.50014e-11
-7.80631e-10
2.41903e-11
-7.96346e-10
2.52699e-11
-8.1179e-10
2.51218e-11
-8.26766e-10
2.44867e-11
-8.42312e-10
2.60419e-11
-8.57332e-10
2.51768e-11
-8.71488e-10
2.37923e-11
-8.85664e-10
2.47102e-11
-8.97825e-10
2.06483e-11
-9.09579e-10
2.1435e-11
-9.18569e-10
1.58284e-11
-9.26225e-10
1.50232e-11
-9.30081e-10
7.7115e-12
-9.32434e-10
6.97696e-12
-9.30201e-10
-1.12166e-12
-9.25331e-10
-4.25368e-12
-9.16315e-10
-1.07111e-11
-9.03111e-10
-1.75786e-11
-8.86428e-10
-2.14489e-11
-8.64777e-10
-3.02517e-11
-8.39344e-10
-3.42378e-11
-8.09235e-10
-4.20518e-11
-7.74959e-10
-4.74732e-11
-7.36526e-10
-5.35818e-11
-6.94105e-10
-5.91896e-11
-6.48057e-10
-6.4762e-11
-5.98832e-10
-6.89861e-11
-5.46437e-10
-7.45112e-11
-4.91965e-10
-7.67817e-11
-4.35486e-10
-8.04835e-11
-3.78019e-10
-8.22168e-11
-3.20471e-10
-8.26292e-11
-2.63433e-10
-8.26373e-11
-2.07614e-10
-8.12449e-11
-1.53692e-10
-7.87843e-11
-1.02212e-10
-7.56079e-11
-5.37034e-11
-7.15517e-11
-8.50261e-12
-6.68748e-11
3.3155e-11
-6.18347e-11
7.11717e-11
-5.65814e-11
1.05516e-10
-5.1341e-11
1.36144e-10
-4.6164e-11
1.63556e-10
-4.11514e-11
1.87932e-10
-3.65946e-11
2.09205e-10
-3.18916e-11
2.27813e-10
-2.78844e-11
2.44155e-10
-2.46272e-11
2.57828e-10
-2.05767e-11
2.6949e-10
-1.75656e-11
2.79391e-10
-1.52688e-11
2.86438e-10
-1.081e-11
2.91669e-10
-8.56068e-12
2.93743e-10
-3.89592e-12
2.92687e-10
5.36054e-13
2.8785e-10
5.94722e-12
2.78426e-10
1.25435e-11
2.63764e-10
2.01462e-11
2.43264e-10
2.8125e-11
2.16154e-10
3.85963e-11
1.83188e-10
4.6486e-11
1.42789e-10
5.7705e-11
9.7182e-11
6.46093e-11
4.67059e-11
7.13353e-11
-7.51471e-12
7.6292e-11
-6.37826e-11
7.87171e-11
-1.2127e-10
8.01588e-11
-1.78796e-10
8.01644e-11
-2.35671e-10
7.91909e-11
-2.92179e-10
7.96733e-11
-3.47513e-10
7.86346e-11
-4.02253e-10
7.94202e-11
-4.53754e-10
7.45118e-11
-4.99441e-10
6.38851e-11
-5.34514e-10
4.13453e-11
-5.8111e-10
6.95605e-11
-6.21052e-10
5.90884e-11
-6.48511e-10
4.11273e-11
-6.60741e-10
1.89995e-11
-6.60659e-10
4.76354e-12
-6.47327e-10
-1.19203e-11
-6.24145e-10
-1.95555e-11
-5.84989e-10
-4.63838e-11
-5.33144e-10
-6.93453e-11
-4.76767e-10
-7.90255e-11
-4.2181e-10
-7.88683e-11
-3.72437e-10
-7.18929e-11
-3.3097e-10
-6.09634e-11
-2.98306e-10
-4.83259e-11
-2.74406e-10
-3.5488e-11
-2.58553e-10
-2.35193e-11
-2.49616e-10
-1.31779e-11
-2.46155e-10
-4.99483e-12
-2.46633e-10
1.2211e-12
-2.49558e-10
5.24794e-12
-2.5371e-10
7.30385e-12
-2.57991e-10
7.72156e-12
-2.6156e-10
6.84997e-12
-2.63869e-10
5.10412e-12
-2.64669e-10
2.89958e-12
-2.63898e-10
5.5004e-13
-2.62029e-10
-1.32758e-12
-2.59407e-10
-2.64777e-12
-2.56563e-10
-3.21998e-12
-2.54098e-10
-2.96771e-12
-2.52539e-10
-1.94628e-12
-2.52413e-10
-1.20802e-13
-2.54021e-10
2.21692e-12
-2.57645e-10
4.93616e-12
-2.63399e-10
7.88237e-12
-2.71321e-10
1.09796e-11
-2.8143e-10
1.42258e-11
-2.93668e-10
1.77421e-11
-3.07651e-10
2.17525e-11
2.57287e-11
9.46542e-10
1.16313e-10
9.64072e-10
2.4689e-10
9.29126e-10
2.87644e-10
8.60975e-10
2.87672e-10
7.77444e-10
2.67607e-10
6.90026e-10
2.39838e-10
6.05829e-10
2.10509e-10
5.28072e-10
1.8307e-10
4.57981e-10
1.58647e-10
3.9566e-10
1.37359e-10
3.40652e-10
1.19e-10
2.9223e-10
1.03281e-10
2.49562e-10
8.99109e-11
2.11837e-10
7.86256e-11
1.78295e-10
6.91984e-11
1.48237e-10
6.14328e-11
1.21023e-10
5.51442e-11
9.60789e-11
5.01562e-11
7.28946e-11
4.63007e-11
5.10266e-11
4.34192e-11
3.00953e-11
4.13594e-11
9.7828e-12
3.99726e-11
-1.01669e-11
3.91162e-11
-2.99468e-11
3.86566e-11
-4.96872e-11
3.84713e-11
-6.9455e-11
3.8438e-11
-8.92504e-11
3.8413e-11
-1.09002e-10
3.8206e-11
-1.28535e-10
3.75775e-11
-1.47549e-10
3.61732e-11
-1.65513e-10
3.33755e-11
-1.82208e-10
2.80852e-11
-1.96645e-10
1.83793e-11
-2.09639e-10
1.56666e-12
-2.11865e-10
-2.36025e-11
-1.93886e-10
-5.20018e-11
-1.58478e-10
-8.0938e-11
-1.09527e-10
-1.07105e-10
-4.94542e-11
-1.28265e-10
1.94921e-11
-1.44607e-10
9.6541e-11
-1.59066e-10
1.74631e-10
-1.65549e-10
2.48735e-10
-1.61336e-10
3.16965e-10
-1.5111e-10
3.77641e-10
-1.35919e-10
4.30712e-10
-1.19593e-10
4.76418e-10
-1.03724e-10
5.13558e-10
-8.43994e-11
5.43388e-10
-6.82176e-11
5.65284e-10
-5.0439e-11
5.79154e-10
-3.22072e-11
5.85324e-10
-1.59139e-11
5.82848e-10
4.67924e-12
5.72503e-10
2.10957e-11
5.52962e-10
4.23077e-11
5.25048e-10
5.99937e-11
4.88387e-10
7.84918e-11
4.42853e-10
9.7077e-11
3.90528e-10
1.0947e-10
3.2962e-10
1.26672e-10
2.63987e-10
1.3365e-10
1.93678e-10
1.41031e-10
1.20575e-10
1.44217e-10
4.65693e-11
1.43999e-10
-2.78823e-11
1.42719e-10
-1.00901e-10
1.38786e-10
-1.72654e-10
1.3458e-10
-2.41998e-10
1.3004e-10
-3.09244e-10
1.2531e-10
-3.74032e-10
1.2107e-10
-4.36381e-10
1.17571e-10
-4.96343e-10
1.12889e-10
-5.53843e-10
1.10027e-10
-6.08927e-10
1.06048e-10
-6.6137e-10
1.01438e-10
-7.10951e-10
9.73081e-11
-7.57308e-10
9.17108e-11
-8.00215e-10
8.50394e-11
-8.3951e-10
7.88031e-11
-8.75139e-10
7.23174e-11
-9.07008e-10
6.54892e-11
-9.35255e-10
5.9322e-11
-9.60065e-10
5.35451e-11
-9.81758e-10
4.85178e-11
-1.00083e-09
4.50629e-11
-1.01769e-09
4.18661e-11
-1.03275e-09
3.92566e-11
-1.04671e-09
3.92224e-11
-1.05959e-09
3.80106e-11
-1.07161e-09
3.65003e-11
-1.08294e-09
3.7373e-11
-1.09336e-09
3.55948e-11
-1.10257e-09
3.29989e-11
-1.11071e-09
3.28453e-11
-1.11701e-09
2.69448e-11
-1.1217e-09
2.61098e-11
-1.1239e-09
1.80212e-11
-1.12392e-09
1.50453e-11
-1.12071e-09
4.4951e-12
-1.11479e-09
1.04564e-12
-1.10536e-09
-1.05561e-11
-1.09201e-09
-1.76077e-11
-1.07432e-09
-2.84009e-11
-1.05217e-09
-3.97363e-11
-1.02501e-09
-4.86066e-11
-9.92785e-10
-6.24799e-11
-9.55035e-10
-7.19896e-11
-9.11897e-10
-8.51914e-11
-8.63065e-10
-9.63073e-11
-8.08863e-10
-1.07784e-10
-7.49493e-10
-1.18559e-10
-6.857e-10
-1.28554e-10
-6.17872e-10
-1.36811e-10
-5.47183e-10
-1.45194e-10
-4.74056e-10
-1.49902e-10
-3.99894e-10
-1.54637e-10
-3.25581e-10
-1.56523e-10
-2.51862e-10
-1.56342e-10
-1.7985e-10
-1.54643e-10
-1.10366e-10
-1.50723e-10
-4.41156e-11
-1.4503e-10
1.82123e-11
-1.37933e-10
7.62256e-11
-1.29565e-10
1.29794e-10
-1.20449e-10
1.78671e-10
-1.10724e-10
2.22889e-10
-1.00818e-10
2.6252e-10
-9.09958e-11
2.977e-10
-8.13736e-11
3.28866e-10
-7.23521e-11
3.56359e-10
-6.41269e-11
3.80179e-10
-5.5753e-11
4.00911e-10
-4.86588e-11
4.19042e-10
-4.28096e-11
4.34063e-10
-3.5658e-11
4.46743e-10
-3.032e-11
4.57181e-10
-2.57949e-11
4.64282e-10
-1.80105e-11
4.68699e-10
-1.30862e-11
4.69672e-10
-4.97984e-12
4.66672e-10
3.435e-12
4.58997e-10
1.35404e-11
4.45587e-10
2.58997e-11
4.25771e-10
3.99384e-11
3.98767e-10
5.51298e-11
3.63436e-10
7.39408e-11
3.20559e-10
8.93757e-11
2.67985e-10
1.10279e-10
2.07958e-10
1.24622e-10
1.40543e-10
1.38726e-10
6.67246e-11
1.50085e-10
-1.09332e-11
1.56356e-10
-9.24796e-11
1.61698e-10
-1.74649e-10
1.62335e-10
-2.57451e-10
1.61998e-10
-3.38843e-10
1.61073e-10
-4.18663e-10
1.58465e-10
-4.95262e-10
1.56037e-10
-5.67669e-10
1.46949e-10
-6.34876e-10
1.31132e-10
-6.94848e-10
1.01358e-10
-7.46429e-10
1.21174e-10
-7.85031e-10
9.77073e-11
-8.05835e-10
6.19276e-11
-8.05752e-10
1.88928e-11
-7.83486e-10
-1.7535e-11
-7.39672e-10
-5.577e-11
-6.74717e-10
-8.45424e-11
-5.96793e-10
-1.24331e-10
-5.14777e-10
-1.51376e-10
-4.34757e-10
-1.59054e-10
-3.61159e-10
-1.52469e-10
-2.96712e-10
-1.36339e-10
-2.43041e-10
-1.14631e-10
-2.00809e-10
-9.05546e-11
-1.69597e-10
-6.66964e-11
-1.48206e-10
-4.49063e-11
-1.34993e-10
-2.63879e-11
-1.28164e-10
-1.18221e-11
-1.25722e-10
-1.21845e-12
-1.25753e-10
5.28023e-12
-1.26787e-10
8.33803e-12
-1.27534e-10
8.46849e-12
-1.27079e-10
6.39342e-12
-1.24881e-10
2.90387e-12
-1.20795e-10
-1.18876e-12
-1.15091e-10
-5.15624e-12
-1.08136e-10
-8.28635e-12
-1.00639e-10
-1.01479e-11
-9.33735e-11
-1.04888e-11
-8.71188e-11
-9.22532e-12
-8.26297e-11
-6.43783e-12
-8.04712e-11
-2.28117e-12
-8.10236e-11
2.768e-12
-8.45572e-11
8.46895e-12
-9.10965e-11
1.44211e-11
-1.00489e-10
2.03719e-11
-1.12438e-10
2.61754e-11
-1.26426e-10
3.17305e-11
-1.41677e-10
3.70055e-11
4.19062e-11
9.38888e-10
7.73723e-11
9.93465e-10
1.92339e-10
1.02379e-09
2.57335e-10
1.02445e-09
2.87025e-10
1.0013e-09
2.90779e-10
9.62467e-10
2.78676e-10
9.14634e-10
2.58343e-10
8.63471e-10
2.34234e-10
8.12416e-10
2.09702e-10
7.63433e-10
1.86341e-10
7.17504e-10
1.64927e-10
6.75037e-10
1.45744e-10
6.36059e-10
1.28886e-10
6.00354e-10
1.14326e-10
5.67603e-10
1.01947e-10
5.37429e-10
9.16037e-11
5.09433e-10
8.31373e-11
4.83217e-10
7.63695e-11
4.58398e-10
7.11164e-11
4.3462e-10
6.71944e-11
4.11554e-10
6.44217e-11
3.88907e-10
6.26165e-11
3.6642e-10
6.15997e-11
3.43882e-10
6.11916e-11
3.21126e-10
6.12246e-11
2.98028e-10
6.15339e-11
2.74511e-10
6.19281e-11
2.5055e-10
6.21661e-11
2.26181e-10
6.1947e-11
2.01497e-10
6.0859e-11
1.76586e-10
5.82894e-11
1.51387e-10
5.32877e-11
1.25304e-10
4.44669e-11
9.54759e-11
3.13979e-11
7.49441e-11
-3.06671e-12
7.91975e-11
-5.62504e-11
1.04691e-10
-1.06429e-10
1.46427e-10
-1.48839e-10
2.02037e-10
-1.83873e-10
2.69258e-10
-2.11822e-10
3.47352e-10
-2.37147e-10
4.2653e-10
-2.4471e-10
5.01484e-10
-2.36276e-10
5.70262e-10
-2.19885e-10
6.31245e-10
-1.9691e-10
6.84707e-10
-1.73075e-10
7.31075e-10
-1.50121e-10
7.69274e-10
-1.2263e-10
8.00501e-10
-9.94755e-11
8.2409e-10
-7.40563e-11
8.39989e-10
-4.81267e-11
8.48539e-10
-2.4476e-11
8.48698e-10
4.51433e-12
8.41219e-10
2.8571e-11
8.24729e-10
5.87906e-11
7.99788e-10
8.49192e-11
7.65796e-10
1.12457e-10
7.22186e-10
1.40652e-10
6.70615e-10
1.61003e-10
6.08647e-10
1.88606e-10
5.39948e-10
2.02322e-10
4.6394e-10
2.17022e-10
3.82468e-10
2.25678e-10
2.97463e-10
2.28994e-10
2.09408e-10
2.30762e-10
1.21301e-10
2.26878e-10
3.27261e-11
2.2314e-10
-5.38663e-11
2.1662e-10
-1.38755e-10
2.1019e-10
-2.20884e-10
2.03195e-10
-2.998e-10
1.96489e-10
-3.7596e-10
1.89053e-10
-4.48321e-10
1.82396e-10
-5.17135e-10
1.74871e-10
-5.82127e-10
1.66442e-10
-6.42871e-10
1.58072e-10
-6.99408e-10
1.48277e-10
-7.51625e-10
1.37285e-10
-7.99124e-10
1.26333e-10
-8.4187e-10
1.15092e-10
-8.79844e-10
1.03488e-10
-9.13037e-10
9.25347e-11
-9.41651e-10
8.21674e-11
-9.65976e-10
7.28402e-11
-9.8636e-10
6.54356e-11
-1.00343e-09
5.89224e-11
-1.01774e-09
5.35529e-11
-1.02966e-09
5.112e-11
-1.0398e-09
4.81424e-11
-1.04868e-09
4.53632e-11
-1.056e-09
4.46867e-11
-1.06229e-09
4.1868e-11
-1.06733e-09
3.80289e-11
-1.07058e-09
3.60859e-11
-1.07243e-09
2.87864e-11
-1.07167e-09
2.53355e-11
-1.06895e-09
1.52896e-11
-1.06288e-09
8.96674e-12
-1.05438e-09
-4.01521e-12
-1.04132e-09
-1.2018e-11
-1.02466e-09
-2.72225e-11
-1.00312e-09
-3.91453e-11
-9.76691e-10
-5.48336e-11
-9.45045e-10
-7.13831e-11
-9.07042e-10
-8.66104e-11
-8.63574e-10
-1.05949e-10
-8.13315e-10
-1.22249e-10
-7.57272e-10
-1.41235e-10
-6.95045e-10
-1.58535e-10
-6.27338e-10
-1.7549e-10
-5.54716e-10
-1.9118e-10
-4.78094e-10
-2.05174e-10
-3.98076e-10
-2.16824e-10
-3.16524e-10
-2.26737e-10
-2.33561e-10
-2.32855e-10
-1.5122e-10
-2.36965e-10
-7.01902e-11
-2.37536e-10
8.69509e-12
-2.35209e-10
8.40643e-11
-2.29993e-10
1.55419e-10
-2.22057e-10
2.22413e-10
-2.12002e-10
2.84355e-10
-1.99852e-10
3.41134e-10
-1.86319e-10
3.92863e-10
-1.72154e-10
4.39439e-10
-1.57279e-10
4.81104e-10
-1.42466e-10
5.18108e-10
-1.27987e-10
5.50757e-10
-1.14013e-10
5.79551e-10
-1.01137e-10
6.04916e-10
-8.94843e-11
6.26897e-10
-7.77247e-11
6.46084e-10
-6.78357e-11
6.63036e-10
-5.97539e-11
6.77137e-10
-4.97589e-11
6.89267e-10
-4.2459e-11
6.99244e-10
-3.57988e-11
7.06157e-10
-2.49674e-11
7.10681e-10
-1.76726e-11
7.11742e-10
-6.11658e-12
7.08999e-10
6.09551e-12
7.01854e-10
2.06088e-11
6.89094e-10
3.85978e-11
6.7014e-10
5.88534e-11
6.44011e-10
8.12441e-11
6.09437e-10
1.0852e-10
5.6693e-10
1.31894e-10
5.13884e-10
1.63331e-10
4.52147e-10
1.86351e-10
3.8132e-10
2.09533e-10
3.01605e-10
2.29774e-10
2.15841e-10
2.42098e-10
1.23112e-10
2.54413e-10
2.79262e-11
2.57517e-10
-7.04866e-11
2.60415e-10
-1.67791e-10
2.58388e-10
-2.6432e-10
2.55012e-10
-3.56493e-10
2.48238e-10
-4.44136e-10
2.34628e-10
-5.25679e-10
2.12718e-10
-5.99751e-10
1.75477e-10
-6.45667e-10
1.67123e-10
-6.71473e-10
1.23526e-10
-6.74335e-10
6.47797e-11
-6.52561e-10
-2.90842e-12
-6.02598e-10
-6.75373e-11
-5.27216e-10
-1.31199e-10
-4.27725e-10
-1.84077e-10
-3.22632e-10
-2.29456e-10
-2.22477e-10
-2.51552e-10
-1.30396e-10
-2.51146e-10
-4.87005e-11
-2.34168e-10
2.10818e-11
-2.06119e-10
7.83612e-11
-1.71905e-10
1.23428e-10
-1.35616e-10
1.57228e-10
-1.0049e-10
1.81206e-10
-6.88789e-11
1.97148e-10
-4.23248e-11
2.06962e-10
-2.16311e-11
2.12727e-10
-6.97908e-12
2.1616e-10
1.85125e-12
2.18949e-10
5.55056e-12
2.22334e-10
5.08515e-12
2.27179e-10
1.54846e-12
2.33934e-10
-3.85337e-12
2.42674e-10
-9.9312e-12
2.53102e-10
-1.55876e-11
2.64703e-10
-1.98908e-11
2.76694e-10
-2.21425e-11
2.88209e-10
-2.20083e-11
2.98377e-10
-1.93975e-11
3.06358e-10
-1.44217e-11
3.11521e-10
-7.44643e-12
3.13328e-10
9.58529e-13
3.11597e-10
1.01993e-11
3.06329e-10
1.96888e-11
2.97792e-10
2.89086e-11
2.86498e-10
3.74702e-11
2.7317e-10
4.50589e-11
2.58643e-10
5.15339e-11
5.71687e-11
9.28374e-10
4.89455e-11
9.84726e-10
1.35978e-10
1.04079e-09
2.01276e-10
1.08466e-09
2.43181e-10
1.11172e-09
2.63729e-10
1.12268e-09
2.67726e-10
1.12032e-09
2.60704e-10
1.10879e-09
2.45764e-10
1.09109e-09
2.27404e-10
1.06962e-09
2.07813e-10
1.04614e-09
1.88399e-10
1.0219e-09
1.69987e-10
9.97618e-10
1.53161e-10
9.73713e-10
1.38228e-10
9.50415e-10
1.25241e-10
9.27814e-10
1.14201e-10
9.05893e-10
1.05055e-10
8.84571e-10
9.76882e-11
8.63723e-10
9.19617e-11
8.43194e-10
8.77199e-11
8.22813e-10
8.48001e-11
8.02395e-10
8.30309e-11
7.81752e-10
8.22398e-11
7.60713e-10
8.22271e-11
7.39117e-10
8.28177e-11
7.16802e-10
8.38467e-11
6.93622e-10
8.51063e-11
6.69446e-10
8.63422e-11
6.44149e-10
8.7244e-11
6.17593e-10
8.74156e-11
5.89546e-10
8.63386e-11
5.59535e-10
8.33018e-11
5.26679e-10
7.73265e-11
4.87345e-10
7.07342e-11
4.54234e-10
3.00482e-11
4.43856e-10
-4.58666e-11
4.54336e-10
-1.16903e-10
4.81881e-10
-1.76381e-10
5.24512e-10
-2.26502e-10
5.79974e-10
-2.67283e-10
6.47275e-10
-3.04442e-10
7.16525e-10
-3.13948e-10
7.83267e-10
-3.03001e-10
8.45045e-10
-2.81644e-10
9.00135e-10
-2.51985e-10
9.48879e-10
-2.21813e-10
9.91739e-10
-1.92983e-10
1.0278e-09
-1.58695e-10
1.05807e-09
-1.29757e-10
1.08189e-09
-9.78939e-11
1.09942e-09
-6.56707e-11
1.11076e-09
-3.58138e-11
1.11515e-09
1.20166e-13
1.11311e-09
3.06081e-11
1.10358e-09
6.83175e-11
1.08679e-09
1.01701e-10
1.0621e-09
1.37128e-10
1.02866e-09
1.74059e-10
9.87505e-10
2.02122e-10
9.35987e-10
2.40078e-10
8.76894e-10
2.61373e-10
8.09026e-10
2.84851e-10
7.33792e-10
3.0088e-10
6.52585e-10
3.10175e-10
5.65689e-10
3.17635e-10
4.76184e-10
3.16361e-10
3.83809e-10
3.15493e-10
2.91598e-10
3.08809e-10
1.99546e-10
3.02221e-10
1.09247e-10
2.93476e-10
2.1764e-11
2.83957e-10
-6.34519e-11
2.74258e-10
-1.44587e-10
2.63526e-10
-2.22115e-10
2.524e-10
-2.95774e-10
2.4011e-10
-3.64725e-10
2.27042e-10
-4.29165e-10
2.1274e-10
-4.89e-10
1.97147e-10
-5.43681e-10
1.81043e-10
-5.9312e-10
1.64559e-10
-6.37386e-10
1.47777e-10
-6.76349e-10
1.31509e-10
-7.10177e-10
1.15993e-10
-7.39096e-10
1.01744e-10
-7.63276e-10
8.95944e-11
-7.83436e-10
7.90595e-11
-8.00199e-10
7.02942e-11
-8.13632e-10
6.45343e-11
-8.24788e-10
5.92808e-11
-8.3427e-10
5.48299e-11
-8.41673e-10
5.20755e-11
-8.47918e-10
4.8101e-11
-8.52939e-10
4.30378e-11
-8.55727e-10
3.88619e-11
-8.5728e-10
3.03282e-11
-8.55552e-10
2.35968e-11
-8.51743e-10
1.14718e-11
-8.43651e-10
8.66792e-13
-8.32439e-10
-1.52334e-11
-8.15378e-10
-2.90837e-11
-7.93887e-10
-4.87159e-11
-7.65906e-10
-6.71283e-11
-7.31819e-10
-8.89208e-11
-6.91291e-10
-1.11911e-10
-6.43107e-10
-1.34795e-10
-5.88747e-10
-1.60308e-10
-5.26815e-10
-1.84181e-10
-4.58973e-10
-2.09078e-10
-3.85158e-10
-2.32349e-10
-3.0647e-10
-2.54178e-10
-2.23932e-10
-2.73717e-10
-1.38712e-10
-2.90391e-10
-5.18277e-11
-3.03704e-10
3.47041e-11
-3.13264e-10
1.20834e-10
-3.18978e-10
2.04256e-10
-3.2038e-10
2.84435e-10
-3.17706e-10
3.60694e-10
-3.11455e-10
4.3189e-10
-3.01174e-10
4.9785e-10
-2.87998e-10
5.58492e-10
-2.7262e-10
6.13395e-10
-2.54728e-10
6.62781e-10
-2.35676e-10
7.07005e-10
-2.16346e-10
7.46206e-10
-1.96448e-10
7.80829e-10
-1.77058e-10
8.11277e-10
-1.58406e-10
8.37986e-10
-1.40695e-10
8.61504e-10
-1.24629e-10
8.82261e-10
-1.10214e-10
9.00362e-10
-9.57966e-11
9.16302e-10
-8.37423e-11
9.30658e-10
-7.40742e-11
9.428e-10
-6.18664e-11
9.53583e-10
-5.3213e-11
9.6267e-10
-4.48678e-11
9.69419e-10
-3.17159e-11
9.74229e-10
-2.24993e-11
9.76358e-10
-8.28311e-12
9.75326e-10
7.07465e-12
9.70789e-10
2.50859e-11
9.61536e-10
4.77927e-11
9.47221e-10
7.31232e-11
9.26742e-10
1.01698e-10
8.9906e-10
1.36195e-10
8.64186e-10
1.66774e-10
8.19648e-10
2.07877e-10
7.66454e-10
2.39546e-10
7.03893e-10
2.72083e-10
6.31333e-10
3.02313e-10
5.51255e-10
3.22153e-10
4.61615e-10
3.44033e-10
3.67372e-10
3.51748e-10
2.66976e-10
3.60808e-10
1.65771e-10
3.59601e-10
6.29479e-11
3.57854e-10
-3.66385e-11
3.47858e-10
-1.3257e-10
3.30604e-10
-2.19665e-10
2.9986e-10
-2.98494e-10
2.54349e-10
-3.33971e-10
2.02626e-10
-3.43428e-10
1.3299e-10
-3.26841e-10
4.81803e-11
-2.84246e-10
-4.55313e-11
-2.11469e-10
-1.40357e-10
-1.14635e-10
-2.28085e-10
3.58998e-12
-3.02353e-10
1.19677e-10
-3.45586e-10
2.23891e-10
-3.55797e-10
3.15621e-10
-3.42895e-10
3.94417e-10
-3.12972e-10
4.60254e-10
-2.71956e-10
5.13617e-10
-2.25264e-10
5.55454e-10
-1.77446e-10
5.87053e-10
-1.32081e-10
6.09962e-10
-9.17799e-11
6.25895e-10
-5.82492e-11
6.36646e-10
-3.2374e-11
6.43998e-10
-1.4325e-11
6.49558e-10
-3.70267e-12
6.54745e-10
3.68355e-13
6.60676e-10
-8.43115e-13
6.68105e-10
-5.88012e-12
6.77434e-10
-1.31829e-11
6.88715e-10
-2.12142e-11
7.01686e-10
-2.85623e-11
7.15824e-10
-3.40336e-11
7.30354e-10
-3.66776e-11
7.44436e-10
-3.60958e-11
7.57231e-10
-3.21977e-11
7.67873e-10
-2.50689e-11
7.75645e-10
-1.52225e-11
7.79999e-10
-3.39827e-12
7.80657e-10
9.54037e-12
7.77595e-10
2.27496e-11
7.71067e-10
3.54367e-11
7.61592e-10
4.69461e-11
7.49899e-10
5.67538e-11
7.36853e-10
6.45815e-11
7.11355e-11
9.18748e-10
3.01496e-11
9.64034e-10
9.06767e-11
1.02101e-09
1.44304e-10
1.07909e-09
1.85112e-10
1.13124e-09
2.11595e-10
1.1742e-09
2.24772e-10
1.20756e-09
2.27352e-10
1.23107e-09
2.22246e-10
1.24607e-09
2.12407e-10
1.25452e-09
1.99363e-10
1.25783e-09
1.8509e-10
1.25716e-09
1.70652e-10
1.25341e-09
1.56905e-10
1.24727e-09
1.44361e-10
1.23936e-09
1.33154e-10
1.23008e-09
1.23474e-10
1.21974e-09
1.15396e-10
1.20853e-09
1.0889e-10
1.1966e-09
1.03894e-10
1.184e-09
1.00313e-10
1.17076e-09
9.80435e-11
1.15683e-09
9.69539e-11
1.14215e-09
9.69231e-11
1.12662e-09
9.77471e-11
1.11015e-09
9.92867e-11
1.09257e-09
1.01425e-10
1.07372e-09
1.03963e-10
1.05338e-09
1.06674e-10
1.03135e-09
1.09282e-10
1.00731e-09
1.11448e-10
9.80869e-10
1.12787e-10
9.5137e-10
1.12804e-10
9.1778e-10
1.1092e-10
8.76891e-10
1.11626e-10
8.38782e-10
6.81603e-11
8.17378e-10
-2.44561e-11
8.13253e-10
-1.12769e-10
8.25023e-10
-1.88144e-10
8.51509e-10
-2.52983e-10
8.90602e-10
-3.06373e-10
9.41107e-10
-3.54946e-10
9.94786e-10
-3.67623e-10
1.04845e-09
-3.56654e-10
1.09901e-09
-3.32175e-10
1.14457e-09
-2.97525e-10
1.18539e-09
-2.62607e-10
1.22184e-09
-2.29424e-10
1.25323e-09
-1.90073e-10
1.2803e-09
-1.56827e-10
1.30248e-09
-1.20071e-10
1.32016e-09
-8.33582e-11
1.33318e-09
-4.88329e-11
1.34127e-09
-7.97326e-12
1.3447e-09
2.71874e-11
1.34289e-09
7.01195e-11
1.33583e-09
1.08759e-10
1.32304e-09
1.49901e-10
1.30364e-09
1.93428e-10
1.27805e-09
2.27672e-10
1.24398e-09
2.74107e-10
1.203e-09
3.02303e-10
1.15356e-09
3.3425e-10
1.09635e-09
3.58049e-10
1.03191e-09
3.74579e-10
9.6029e-10
3.89234e-10
8.83759e-10
3.92874e-10
8.02171e-10
3.97067e-10
7.18259e-10
3.9271e-10
6.32349e-10
3.88119e-10
5.4614e-10
3.7967e-10
4.61132e-10
3.68948e-10
3.76931e-10
3.58438e-10
2.95813e-10
3.44627e-10
2.17484e-10
3.30717e-10
1.42241e-10
3.15351e-10
7.10932e-11
2.98196e-10
3.81584e-12
2.80029e-10
-5.95262e-11
2.60507e-10
-1.18372e-10
2.3991e-10
-1.7255e-10
2.18756e-10
-2.22196e-10
1.97434e-10
-2.67075e-10
1.76386e-10
-3.07239e-10
1.56144e-10
-3.42754e-10
1.37235e-10
-3.73522e-10
1.20336e-10
-4.00131e-10
1.05641e-10
-4.2309e-10
9.32308e-11
-4.42145e-10
8.35704e-11
-4.58521e-10
7.56409e-11
-4.72774e-10
6.90689e-11
-4.84494e-10
6.37825e-11
-4.94671e-10
5.82671e-11
-5.03497e-10
5.18532e-11
-5.0965e-10
4.50045e-11
-5.14468e-10
3.51364e-11
-5.15326e-10
2.44457e-11
-5.1366e-10
9.798e-12
-5.06616e-10
-6.18309e-12
-4.95558e-10
-2.6296e-11
-4.77118e-10
-4.75269e-11
-4.53064e-10
-7.27715e-11
-4.20856e-10
-9.93363e-11
-3.8123e-10
-1.28546e-10
-3.33897e-10
-1.59243e-10
-2.77902e-10
-1.9079e-10
-2.1518e-10
-2.23029e-10
-1.44693e-10
-2.54667e-10
-6.86248e-11
-2.85146e-10
1.25629e-11
-3.13537e-10
9.74144e-11
-3.39029e-10
1.84431e-10
-3.60734e-10
2.72192e-10
-3.78152e-10
3.59435e-10
-3.90948e-10
4.44163e-10
-3.97993e-10
5.26276e-10
-4.01091e-10
6.03669e-10
-3.9777e-10
6.75996e-10
-3.90029e-10
7.42859e-10
-3.7831e-10
8.03517e-10
-3.61822e-10
8.5813e-10
-3.42596e-10
9.06958e-10
-3.21428e-10
9.49946e-10
-2.97693e-10
9.87644e-10
-2.73346e-10
1.02061e-09
-2.49281e-10
1.04923e-09
-2.25028e-10
1.07408e-09
-2.01877e-10
1.09567e-09
-1.79963e-10
1.11451e-09
-1.59503e-10
1.13113e-09
-1.41213e-10
1.14588e-09
-1.24932e-10
1.15892e-09
-1.08799e-10
1.17058e-09
-9.5362e-11
1.18141e-09
-8.4862e-11
1.19082e-09
-7.12293e-11
1.19955e-09
-6.18989e-11
1.20709e-09
-5.23731e-11
1.21323e-09
-3.78231e-11
1.21799e-09
-2.72462e-11
1.22107e-09
-1.13701e-11
1.2219e-09
6.21624e-12
1.22043e-09
2.65069e-11
1.2156e-09
5.25773e-11
1.20734e-09
8.13246e-11
1.19459e-09
1.1441e-10
1.17677e-09
1.53987e-10
1.15339e-09
1.90147e-10
1.12261e-09
2.38648e-10
1.08449e-09
2.77668e-10
1.03828e-09
3.18283e-10
9.82609e-10
3.57964e-10
9.19225e-10
3.85514e-10
8.45523e-10
4.17714e-10
7.65592e-10
4.31665e-10
6.77301e-10
4.49095e-10
5.85643e-10
4.51268e-10
4.89396e-10
4.54127e-10
3.9355e-10
4.43743e-10
2.99502e-10
4.24703e-10
2.16754e-10
3.82659e-10
1.429e-10
3.28241e-10
1.18909e-10
2.26635e-10
1.24498e-10
1.27402e-10
1.56918e-10
1.57477e-11
2.14463e-10
-1.03103e-10
3.00342e-10
-2.26276e-10
4.05544e-10
-3.33339e-10
5.25699e-10
-4.22566e-10
6.37494e-10
-4.57436e-10
7.33407e-10
-4.51753e-10
8.14429e-10
-4.23947e-10
8.81569e-10
-3.80127e-10
9.35993e-10
-3.26386e-10
9.79028e-10
-2.68296e-10
1.01213e-09
-2.10536e-10
1.03681e-09
-1.56757e-10
1.05464e-09
-1.09602e-10
1.06718e-09
-7.07747e-11
1.07594e-09
-4.11233e-11
1.08236e-09
-2.07331e-11
1.08772e-09
-9.05378e-12
1.0931e-09
-5.0104e-12
1.09938e-09
-7.11207e-12
1.10713e-09