/*--------------------------------*- C++ -*----------------------------------*\
| =========                 |                                                 |
| \\      /  F ield         | OpenFOAM: The Open Source CFD Toolbox           |
|  \\    /   O peration     | Version:  2506                                  |
|   \\  /    A nd           | Website:  www.openfoam.com                      |
|    \\/     M anipulation  |                                                 |
\*---------------------------------------------------------------------------*/
FoamFile
{
    version     2.0;
    format      ascii;
    arch        "LSB;label=32;scalar=64";
    class       volScalarField;
    location    "2";
    object      p;
}
// * * * * * * * * * * * * * * * * * * * * * * * * * * * * * * * * * * * * * //

dimensions      [0 2 -2 0 0 0 0];

internalField   nonuniform List<scalar> 
4000
(
-0.000106846
-6.08552e-05
-4.32654e-05
-3.61089e-05
-3.10566e-05
-2.76251e-05
-2.55133e-05
-2.4242e-05
-2.35492e-05
-2.33083e-05
-2.34376e-05
-2.38804e-05
-2.45991e-05
-2.55691e-05
-2.6775e-05
-2.8208e-05
-2.98648e-05
-3.17471e-05
-3.38611e-05
-3.62174e-05
-3.88314e-05
-4.17234e-05
-4.49195e-05
-4.84527e-05
-5.23646e-05
-5.67084e-05
-6.15533e-05
-6.69918e-05
-7.315e-05
-8.01739e-05
-8.84077e-05
-9.88445e-05
-0.000110256
-0.000121586
-0.000132531
-0.000142989
-0.000152733
-0.000162397
-0.000168955
-0.000171788
-0.000173433
-0.000173852
-0.000172922
-0.000170821
-0.000167692
-0.000163636
-0.000158704
-0.000153199
-0.000147114
-0.000140395
-0.000132774
-0.000123898
-0.000114214
-0.000102286
-8.87724e-05
-7.26719e-05
-5.47831e-05
-3.37917e-05
-1.06499e-05
1.28239e-05
3.54543e-05
5.64251e-05
7.33392e-05
8.77584e-05
9.89237e-05
0.000107834
0.000114848
0.000120189
0.000124144
0.000126886
0.000128539
0.00012916
0.000128797
0.000127487
0.000125249
0.000122089
0.000117995
0.000112912
0.000106839
9.97515e-05
9.16045e-05
8.22633e-05
7.17702e-05
6.00054e-05
4.70489e-05
3.28695e-05
1.78154e-05
2.29313e-06
-1.32063e-05
-2.79785e-05
-4.14724e-05
-5.36263e-05
-6.45767e-05
-7.44868e-05
-8.3427e-05
-9.17213e-05
-9.93517e-05
-0.000106357
-0.000112646
-0.000117984
-0.000122197
-0.000125191
-0.00012693
-0.000127432
-0.000126737
-0.000124935
-0.000121986
-0.000117797
-0.000112291
-0.000105274
-9.63889e-05
-8.52613e-05
-7.25634e-05
-5.74416e-05
-4.10983e-05
-2.31438e-05
-4.11902e-06
1.51377e-05
3.43413e-05
5.31832e-05
6.94105e-05
8.38572e-05
9.57494e-05
0.000105783
0.000113738
0.000120097
0.000125117
0.000128886
0.000131506
0.000133092
0.000133709
0.000133386
0.000132133
0.000129938
0.000126798
0.000122701
0.000117628
0.000111551
0.000104348
9.6027e-05
8.65439e-05
7.57311e-05
6.37111e-05
5.03839e-05
3.60091e-05
2.09078e-05
5.55462e-06
-9.38774e-06
-2.32408e-05
-3.57242e-05
-4.68355e-05
-5.67655e-05
-6.56321e-05
-7.35814e-05
-8.08209e-05
-8.73247e-05
-9.30408e-05
-9.7778e-05
-0.000101195
-0.000103076
-0.000103189
-0.000101106
-9.58487e-05
-8.79342e-05
-8.07358e-05
-7.31083e-05
-6.41359e-05
-5.45205e-05
-4.46433e-05
-3.53029e-05
-2.80225e-05
-2.31763e-05
-1.89625e-05
-1.52542e-05
-1.20313e-05
-9.20701e-06
-6.71073e-06
-4.49032e-06
-2.49177e-06
-6.71854e-07
1.01873e-06
2.625e-06
4.19133e-06
5.76139e-06
7.37799e-06
9.09808e-06
1.0979e-05
1.30722e-05
1.5449e-05
1.81865e-05
2.13687e-05
2.50911e-05
2.94664e-05
3.46383e-05
4.08175e-05
4.84031e-05
5.82808e-05
7.27898e-05
9.95953e-05
0.000156321
-7.14533e-05
-5.24871e-05
-4.21193e-05
-3.5939e-05
-3.15159e-05
-2.83733e-05
-2.62695e-05
-2.49252e-05
-2.41484e-05
-2.38232e-05
-2.38714e-05
-2.4238e-05
-2.48848e-05
-2.57861e-05
-2.69253e-05
-2.82925e-05
-2.98833e-05
-3.16985e-05
-3.37431e-05
-3.60267e-05
-3.85631e-05
-4.13714e-05
-4.44759e-05
-4.79073e-05
-5.17042e-05
-5.59154e-05
-6.0603e-05
-6.58472e-05
-7.17544e-05
-7.84524e-05
-8.61572e-05
-9.53833e-05
-0.000105347
-0.000115324
-0.000125022
-0.000134326
-0.000142996
-0.000151011
-0.000156301
-0.000158907
-0.000160486
-0.000160919
-0.000160047
-0.000158061
-0.000155102
-0.000151256
-0.000146615
-0.000141369
-0.000135479
-0.000128813
-0.000121236
-0.00011256
-0.000102866
-9.14759e-05
-7.88195e-05
-6.44836e-05
-4.89444e-05
-3.17125e-05
-1.34011e-05
5.32103e-06
2.37909e-05
4.2093e-05
5.82203e-05
7.25516e-05
8.44444e-05
9.42143e-05
0.000102085
0.000108259
0.00011297
0.000116399
0.000118687
0.00011991
0.000120124
0.000119374
0.000117686
0.000115075
0.00011154
0.000107024
0.000101518
9.49997e-05
8.74391e-05
7.87126e-05
6.88375e-05
5.7712e-05
4.54019e-05
3.1899e-05
1.75006e-05
2.69874e-06
-1.19983e-05
-2.59816e-05
-3.88265e-05
-5.04523e-05
-6.0989e-05
-7.0561e-05
-7.93482e-05
-8.74155e-05
-9.47486e-05
-0.00010129
-0.000106944
-0.000111571
-0.000115001
-0.00011718
-0.00011815
-0.000117942
-0.000116594
-0.000114133
-0.000110529
-0.000105689
-9.9501e-05
-9.18434e-05
-8.25398e-05
-7.15445e-05
-5.93486e-05
-4.57183e-05
-3.15681e-05
-1.67595e-05
-1.53371e-06
1.36624e-05
2.87003e-05
4.39089e-05
5.81468e-05
7.13353e-05
8.28152e-05
9.29165e-05
0.000101258
0.000108056
0.000113523
0.000117747
0.000120804
0.000122796
0.000123803
0.000123865
0.000123002
0.000121202
0.000118455
0.000114752
0.000110074
0.000104415
9.76694e-05
8.98173e-05
8.08332e-05
7.05697e-05
5.91312e-05
4.64438e-05
3.27139e-05
1.83676e-05
3.87181e-06
-1.01344e-05
-2.30761e-05
-3.47644e-05
-4.52013e-05
-5.45429e-05
-6.30095e-05
-7.05923e-05
-7.73698e-05
-8.32882e-05
-8.81502e-05
-9.18037e-05
-9.39389e-05
-9.43437e-05
-9.28631e-05
-8.91435e-05
-8.2868e-05
-7.5259e-05
-6.85127e-05
-6.15459e-05
-5.38048e-05
-4.59257e-05
-3.83258e-05
-3.14503e-05
-2.58268e-05
-2.15377e-05
-1.78312e-05
-1.44385e-05
-1.14129e-05
-8.72867e-06
-6.33185e-06
-4.17772e-06
-2.23123e-06
-4.49802e-07
1.21446e-06
2.80452e-06
4.36214e-06
5.93146e-06
7.56086e-06
9.29724e-06
1.11923e-05
1.33141e-05
1.57313e-05
1.85206e-05
2.17683e-05
2.55716e-05
3.00438e-05
3.53249e-05
4.15888e-05
4.91032e-05
5.83415e-05
7.00996e-05
8.57948e-05
0.000110626
-5.20773e-05
-4.54222e-05
-3.96467e-05
-3.49664e-05
-3.12933e-05
-2.85356e-05
-2.65757e-05
-2.52643e-05
-2.44743e-05
-2.41129e-05
-2.41131e-05
-2.44256e-05
-2.50154e-05
-2.58575e-05
-2.69354e-05
-2.8239e-05
-2.97634e-05
-3.15087e-05
-3.34789e-05
-3.56827e-05
-3.81327e-05
-4.08463e-05
-4.38456e-05
-4.71585e-05
-5.08201e-05
-5.48735e-05
-5.93727e-05
-6.43853e-05
-6.99965e-05
-7.63006e-05
-8.34176e-05
-9.16417e-05
-0.000100432
-0.000109267
-0.000117895
-0.000126204
-0.000133895
-0.00014067
-0.000145109
-0.000147551
-0.000149058
-0.00014945
-0.000148578
-0.000146635
-0.000143751
-0.000139994
-0.000135459
-0.000130248
-0.000124299
-0.000117536
-0.000109866
-0.000101215
-9.16072e-05
-8.08826e-05
-6.92065e-05
-5.6539e-05
-4.31811e-05
-2.8984e-05
-1.42153e-05
9.12703e-07
1.62058e-05
3.17947e-05
4.63774e-05
6.00011e-05
7.18878e-05
8.20295e-05
9.03983e-05
9.71682e-05
0.000102488
0.000106498
0.000109335
0.000111088
0.000111815
0.000111562
0.000110368
0.000108251
0.000105222
0.000101228
9.62535e-05
9.02824e-05
8.32702e-05
7.51145e-05
6.58082e-05
5.53023e-05
4.3621e-05
3.08282e-05
1.71971e-05
3.13156e-06
-1.08685e-05
-2.42344e-05
-3.66357e-05
-4.7938e-05
-5.82527e-05
-6.76236e-05
-7.61591e-05
-8.38935e-05
-9.07453e-05
-9.66871e-05
-0.000101624
-0.000105453
-0.00010813
-0.000109601
-0.000109908
-0.000109082
-0.000107143
-0.000104087
-9.98699e-05
-9.44162e-05
-8.7675e-05
-7.96159e-05
-7.02237e-05
-5.96396e-05
-4.83092e-05
-3.62257e-05
-2.41117e-05
-1.18722e-05
3.6772e-07
1.25552e-05
2.47913e-05
3.72826e-05
4.9549e-05
6.13484e-05
7.21592e-05
8.19009e-05
9.02558e-05
9.72195e-05
0.000102946
0.000107517
0.000110953
0.000113296
0.000114627
0.000115007
0.000114468
0.000113014
0.000110627
0.000107298
0.000102997
9.76988e-05
9.13433e-05
8.39085e-05
7.53787e-05
6.56626e-05
5.47945e-05
4.2813e-05
2.99037e-05
1.64082e-05
2.76822e-06
-1.04051e-05
-2.26655e-05
-3.38096e-05
-4.38262e-05
-5.28373e-05
-6.09171e-05
-6.80338e-05
-7.41509e-05
-7.92802e-05
-8.31655e-05
-8.55875e-05
-8.64217e-05
-8.55113e-05
-8.28094e-05
-7.82043e-05
-7.18639e-05
-6.49168e-05
-5.88982e-05
-5.27841e-05
-4.62607e-05
-3.98379e-05
-3.38478e-05
-2.85385e-05
-2.39959e-05
-2.01314e-05
-1.6699e-05
-1.35469e-05
-1.07049e-05
-8.17154e-06
-5.88566e-06
-3.80273e-06
-1.91756e-06
-1.90014e-07
1.43194e-06
2.98755e-06
4.51554e-06
6.05698e-06
7.66287e-06
9.38193e-06
1.12662e-05
1.33807e-05
1.57945e-05
1.85845e-05
2.18358e-05
2.56426e-05
3.01079e-05
3.53405e-05
4.14478e-05
4.85246e-05
5.65905e-05
6.53715e-05
7.42425e-05
8.40879e-05
-4.25193e-05
-3.96445e-05
-3.63261e-05
-3.30507e-05
-3.02436e-05
-2.79953e-05
-2.63144e-05
-2.51464e-05
-2.44224e-05
-2.40811e-05
-2.4073e-05
-2.43595e-05
-2.49111e-05
-2.57064e-05
-2.67303e-05
-2.79736e-05
-2.94315e-05
-3.11035e-05
-3.29934e-05
-3.51084e-05
-3.74599e-05
-4.00632e-05
-4.29379e-05
-4.61089e-05
-4.96067e-05
-5.34685e-05
-5.77401e-05
-6.24772e-05
-6.7748e-05
-7.36222e-05
-8.0177e-05
-8.76037e-05
-9.5456e-05
-0.00010334
-0.000111058
-0.000118515
-0.000125391
-0.0001313
-0.0001352
-0.000137479
-0.000138849
-0.000139117
-0.000138162
-0.000136179
-0.000133287
-0.000129549
-0.000125041
-0.000119795
-0.000113799
-0.000107035
-9.93973e-05
-9.09092e-05
-8.16159e-05
-7.15085e-05
-6.07793e-05
-4.95301e-05
-3.79729e-05
-2.60152e-05
-1.37298e-05
-1.02121e-06
1.18406e-05
2.51613e-05
3.81352e-05
5.07528e-05
6.20794e-05
7.20994e-05
8.07152e-05
8.78057e-05
9.35012e-05
9.79146e-05
0.000101158
0.000103321
0.00010446
0.000104618
0.000103829
0.000102119
9.95119e-05
9.59483e-05
9.14139e-05
8.59002e-05
7.93595e-05
7.16932e-05
6.29144e-05
5.30207e-05
4.19469e-05
2.97986e-05
1.68181e-05
3.41516e-06
-9.92275e-06
-2.27169e-05
-3.46689e-05
-4.56194e-05
-5.56197e-05
-6.46717e-05
-7.28241e-05
-8.01331e-05
-8.64783e-05
-9.17824e-05
-9.60301e-05
-9.91698e-05
-0.000101182
-0.000102037
-0.000101766
-0.000100399
-9.79466e-05
-9.43971e-05
-8.97199e-05
-8.38819e-05
-7.69035e-05
-6.88383e-05
-5.97783e-05
-4.99255e-05
-3.96755e-05
-2.91379e-05
-1.87519e-05
-8.48344e-06
1.65698e-06
1.18013e-05
2.22347e-05
3.28939e-05
4.35213e-05
5.41392e-05
6.41993e-05
7.337e-05
8.14635e-05
8.84337e-05
9.42431e-05
9.89464e-05
0.000102589
0.000105181
0.000106765
0.000107393
0.000107102
0.000105918
0.000103815
0.00010079
9.68183e-05
9.18541e-05
8.58311e-05
7.87518e-05
7.06678e-05
6.14734e-05
5.1099e-05
3.9707e-05
2.74433e-05
1.46384e-05
1.7559e-06
-1.06923e-05
-2.23335e-05
-3.29539e-05
-4.25096e-05
-5.10365e-05
-5.85525e-05
-6.50802e-05
-7.04817e-05
-7.46437e-05
-7.74903e-05
-7.8819e-05
-7.8553e-05
-7.66557e-05
-7.32419e-05
-6.84229e-05
-6.25658e-05
-5.63586e-05
-5.10487e-05
-4.58004e-05
-4.03538e-05
-3.50915e-05
-3.02255e-05
-2.58712e-05
-2.20227e-05
-1.85606e-05
-1.54077e-05
-1.25009e-05
-9.85346e-06
-7.46317e-06
-5.29673e-06
-3.32338e-06
-1.52576e-06
1.30281e-07
1.68646e-06
3.18049e-06
4.64956e-06
6.13433e-06
7.68125e-06
9.33914e-06
1.11611e-05
1.32079e-05
1.55464e-05
1.82498e-05
2.13972e-05
2.5072e-05
2.93573e-05
3.43233e-05
4.00001e-05
4.63238e-05
5.30321e-05
5.95243e-05
6.51385e-05
7.01158e-05
-3.63206e-05
-3.49498e-05
-3.30268e-05
-3.08203e-05
-2.87556e-05
-2.70149e-05
-2.56526e-05
-2.46751e-05
-2.40587e-05
-2.37706e-05
-2.37794e-05
-2.40578e-05
-2.45835e-05
-2.53393e-05
-2.63129e-05
-2.74963e-05
-2.88854e-05
-3.04799e-05
-3.22827e-05
-3.43004e-05
-3.65428e-05
-3.90233e-05
-4.17592e-05
-4.47718e-05
-4.80876e-05
-5.17384e-05
-5.57626e-05
-6.02062e-05
-6.51246e-05
-7.05727e-05
-7.66056e-05
-8.33444e-05
-9.04015e-05
-9.74735e-05
-0.000104412
-0.000111133
-0.000117311
-0.000122529
-0.000125989
-0.00012805
-0.000129217
-0.000129305
-0.000128216
-0.000126145
-0.000123207
-0.000119456
-0.000114934
-0.000109686
-0.000103713
-9.69956e-05
-8.95018e-05
-8.13075e-05
-7.24839e-05
-6.31052e-05
-5.3378e-05
-4.34376e-05
-3.34232e-05
-2.32953e-05
-1.30167e-05
-2.41709e-06
8.50706e-06
1.99236e-05
3.13604e-05
4.27265e-05
5.3331e-05
6.30115e-05
7.16148e-05
7.88539e-05
8.47947e-05
8.95111e-05
9.30804e-05
9.5584e-05
9.70832e-05
9.76167e-05
9.71988e-05
9.58991e-05
9.37108e-05
9.05676e-05
8.64512e-05
8.13667e-05
7.52941e-05
6.8151e-05
5.9904e-05
5.05624e-05
4.00882e-05
2.86062e-05
1.63049e-05
3.57915e-06
-9.11196e-06
-2.13411e-05
-3.28184e-05
-4.33673e-05
-5.29851e-05
-6.16444e-05
-6.93671e-05
-7.61394e-05
-8.19131e-05
-8.66003e-05
-9.0186e-05
-9.2694e-05
-9.40907e-05
-9.43784e-05
-9.35869e-05
-9.17431e-05
-8.88565e-05
-8.49271e-05
-7.99542e-05
-7.39502e-05
-6.69987e-05
-5.92113e-05
-5.07348e-05
-4.17738e-05
-3.26811e-05
-2.35561e-05
-1.46762e-05
-5.99953e-06
2.53258e-06
1.11e-05
1.99441e-05
2.90767e-05
3.84273e-05
4.78884e-05
5.70483e-05
6.56397e-05
7.33939e-05
8.02193e-05
8.59916e-05
9.07054e-05
9.44147e-05
9.71543e-05
9.89382e-05
9.97846e-05
9.97432e-05
9.8813e-05
9.69693e-05
9.42138e-05
9.05427e-05
8.59317e-05
8.03169e-05
7.36502e-05
6.59653e-05
5.72166e-05
4.73646e-05
3.65758e-05
2.4976e-05
1.28886e-05
7.48236e-07
-1.10005e-05
-2.20131e-05
-3.20658e-05
-4.10799e-05
-4.90295e-05
-5.59265e-05
-6.16854e-05
-6.62426e-05
-6.94879e-05
-7.13266e-05
-7.17057e-05
-7.05847e-05
-6.80372e-05
-6.43234e-05
-5.96798e-05
-5.44822e-05
-4.8968e-05
-4.43637e-05
-3.99341e-05
-3.53861e-05
-3.10298e-05
-2.69835e-05
-2.32962e-05
-1.99611e-05
-1.68841e-05
-1.40075e-05
-1.13301e-05
-8.8742e-06
-6.63997e-06
-4.60795e-06
-2.75613e-06
-1.06344e-06
4.99621e-07
1.96761e-06
3.37518e-06
4.75803e-06
6.15501e-06
7.60911e-06
9.16693e-06
1.08796e-05
1.28036e-05
1.50009e-05
1.75375e-05
2.04821e-05
2.39023e-05
2.78574e-05
3.23811e-05
3.74464e-05
4.29032e-05
4.83958e-05
5.33364e-05
5.71964e-05
6.00574e-05
-3.17531e-05
-3.1125e-05
-3.0011e-05
-2.8543e-05
-2.7061e-05
-2.57463e-05
-2.46844e-05
-2.39048e-05
-2.34112e-05
-2.31925e-05
-2.32324e-05
-2.3514e-05
-2.40218e-05
-2.47433e-05
-2.56691e-05
-2.67929e-05
-2.81116e-05
-2.96251e-05
-3.13362e-05
-3.32506e-05
-3.5377e-05
-3.77271e-05
-4.03158e-05
-4.31619e-05
-4.62878e-05
-4.97209e-05
-5.34934e-05
-5.76439e-05
-6.22182e-05
-6.72624e-05
-7.28187e-05
-7.8949e-05
-8.53196e-05
-9.16924e-05
-9.79532e-05
-0.000104021
-0.000109571
-0.000114182
-0.00011723
-0.000119031
-0.000119957
-0.00011984
-0.000118594
-0.000116419
-0.000113428
-0.000109651
-0.000105114
-9.99047e-05
-9.40055e-05
-8.74238e-05
-8.01848e-05
-7.23968e-05
-6.41554e-05
-5.55792e-05
-4.68624e-05
-3.8135e-05
-2.94861e-05
-2.08895e-05
-1.2269e-05
-3.43143e-06
5.74709e-06
1.54301e-05
2.53779e-05
3.55123e-05
4.53393e-05
5.45692e-05
6.29168e-05
7.01845e-05
7.62932e-05
8.12474e-05
8.50877e-05
8.78821e-05
8.96892e-05
9.05544e-05
9.05096e-05
8.95691e-05
8.77038e-05
8.49358e-05
8.12295e-05
7.65813e-05
7.09813e-05
6.43681e-05
5.66714e-05
4.79185e-05
3.80781e-05
2.72744e-05
1.5664e-05
3.61659e-06
-8.43356e-06
-2.00886e-05
-3.10555e-05
-4.11443e-05
-5.03295e-05
-5.85429e-05
-6.57402e-05
-7.19511e-05
-7.71217e-05
-8.11873e-05
-8.41465e-05
-8.60656e-05
-8.69006e-05
-8.66808e-05
-8.54359e-05
-8.31933e-05
-7.99711e-05
-7.5791e-05
-7.06869e-05
-6.47109e-05
-5.79916e-05
-5.06683e-05
-4.29052e-05
-3.48858e-05
-2.69117e-05
-1.90384e-05
-1.14549e-05
-4.09833e-06
3.10908e-06
1.03431e-05
1.781e-05
2.56203e-05
3.37559e-05
4.21195e-05
5.04203e-05
5.84296e-05
6.58276e-05
7.23968e-05
7.80634e-05
8.27828e-05
8.65488e-05
8.93834e-05
9.13054e-05
9.23347e-05
9.24839e-05
9.17406e-05
9.01216e-05
8.76127e-05
8.42193e-05
7.99201e-05
7.46731e-05
6.84098e-05
6.11514e-05
5.29035e-05
4.36176e-05
3.34574e-05
2.2542e-05
1.11719e-05
-2.44983e-07
-1.12987e-05
-2.16497e-05
-3.10621e-05
-3.94997e-05
-4.68213e-05
-5.29531e-05
-5.79097e-05
-6.15943e-05
-6.3947e-05
-6.49085e-05
-6.45338e-05
-6.28181e-05
-5.99264e-05
-5.62096e-05
-5.19437e-05
-4.74214e-05
-4.25601e-05
-3.86173e-05
-3.49039e-05
-3.10871e-05
-2.74444e-05
-2.40259e-05
-2.08503e-05
-1.79271e-05
-1.51945e-05
-1.2573e-05
-1.01059e-05
-7.83276e-06
-5.75626e-06
-3.8635e-06
-2.13836e-06
-5.61217e-07
8.93794e-07
2.25671e-06
3.55921e-06
4.83485e-06
6.12008e-06
7.4549e-06
8.88284e-06
1.04514e-05
1.22121e-05
1.422e-05
1.65317e-05
1.92035e-05
2.2286e-05
2.58167e-05
2.98031e-05
3.41913e-05
3.88108e-05
4.33132e-05
4.71835e-05
4.99734e-05
5.162e-05
-2.82065e-05
-2.79283e-05
-2.72788e-05
-2.63079e-05
-2.52616e-05
-2.42911e-05
-2.34827e-05
-2.28838e-05
-2.25109e-05
-2.2365e-05
-2.24412e-05
-2.27309e-05
-2.32248e-05
-2.39147e-05
-2.47938e-05
-2.58577e-05
-2.71044e-05
-2.85342e-05
-3.015e-05
-3.1957e-05
-3.39628e-05
-3.61778e-05
-3.86151e-05
-4.1291e-05
-4.42249e-05
-4.74404e-05
-5.09649e-05
-5.48307e-05
-5.90764e-05
-6.37429e-05
-6.88636e-05
-7.44508e-05
-8.02187e-05
-8.59753e-05
-9.16319e-05
-9.71031e-05
-0.000102071
-0.000106131
-0.000108785
-0.000110305
-0.000110982
-0.000110658
-0.000109253
-0.000106975
-0.000103933
-0.000100136
-9.56235e-05
-9.04912e-05
-8.47281e-05
-7.83693e-05
-7.14774e-05
-6.41811e-05
-5.65907e-05
-4.88397e-05
-4.10984e-05
-3.34765e-05
-2.60288e-05
-1.87294e-05
-1.14836e-05
-4.10402e-06
3.56291e-06
1.1694e-05
2.01976e-05
2.9056e-05
3.79205e-05
4.6521e-05
5.45491e-05
6.17409e-05
6.79498e-05
7.31111e-05
7.72074e-05
8.02803e-05
8.23748e-05
8.35325e-05
8.37857e-05
8.31429e-05
8.16172e-05
7.92216e-05
7.59249e-05
7.17203e-05
6.65913e-05
6.04843e-05
5.33317e-05
4.51689e-05
3.59583e-05
2.58212e-05
1.48956e-05
3.52583e-06
-7.88074e-06
-1.89425e-05
-2.93582e-05
-3.89622e-05
-4.76317e-05
-5.53044e-05
-6.19506e-05
-6.75712e-05
-7.2129e-05
-7.55694e-05
-7.79787e-05
-7.93495e-05
-7.96857e-05
-7.90261e-05
-7.7403e-05
-7.48506e-05
-7.14013e-05
-6.71026e-05
-6.20191e-05
-5.62308e-05
-4.98904e-05
-4.31414e-05
-3.61426e-05
-2.90476e-05
-2.21036e-05
-1.53266e-05
-8.85305e-06
-2.60493e-06
3.49654e-06
9.61508e-06
1.59274e-05
2.25769e-05
2.95732e-05
3.68795e-05
4.42848e-05
5.1605e-05
5.85347e-05
6.48434e-05
7.0392e-05
7.50947e-05
7.891e-05
8.18317e-05
8.38692e-05
8.50372e-05
8.53379e-05
8.4784e-05
8.33832e-05
8.11195e-05
7.80039e-05
7.40062e-05
6.91028e-05
6.3236e-05
5.64152e-05
4.86657e-05
3.99362e-05
3.03912e-05
2.015e-05
9.48367e-06
-1.22154e-06
-1.15812e-05
-2.12469e-05
-3.00024e-05
-3.77118e-05
-4.42935e-05
-4.9661e-05
-5.38002e-05
-5.6644e-05
-5.8188e-05
-5.84772e-05
-5.75335e-05
-5.54654e-05
-5.24737e-05
-4.89395e-05
-4.51323e-05
-4.12343e-05
-3.69884e-05
-3.36401e-05
-3.05275e-05
-2.73083e-05
-2.42408e-05
-2.13228e-05
-1.85604e-05
-1.59798e-05
-1.35451e-05
-1.11569e-05
-8.88565e-06
-6.78504e-06
-4.86107e-06
-3.10589e-06
-1.50836e-06
-5.17861e-08
1.28673e-06
2.53409e-06
3.71947e-06
4.8743e-06
6.0327e-06
7.23176e-06
8.5117e-06
9.9158e-06
1.149e-05
1.3282e-05
1.53388e-05
1.77041e-05
2.04138e-05
2.34884e-05
2.6921e-05
3.06523e-05
3.45265e-05
3.82344e-05
4.13102e-05
4.33627e-05
4.43434e-05
-2.53023e-05
-2.51807e-05
-2.47943e-05
-2.41493e-05
-2.34153e-05
-2.27131e-05
-2.21138e-05
-2.16668e-05
-2.14001e-05
-2.1321e-05
-2.14316e-05
-2.17294e-05
-2.22096e-05
-2.28674e-05
-2.3699e-05
-2.47015e-05
-2.58741e-05
-2.72175e-05
-2.87348e-05
-3.04307e-05
-3.23124e-05
-3.4389e-05
-3.66722e-05
-3.91762e-05
-4.19181e-05
-4.49182e-05
-4.82001e-05
-5.17911e-05
-5.57237e-05
-6.00348e-05
-6.47515e-05
-6.98469e-05
-7.50738e-05
-8.02735e-05
-8.53785e-05
-9.02976e-05
-9.47232e-05
-9.8277e-05
-0.000100558
-0.000101799
-0.000102235
-0.000101715
-0.00010016
-9.77862e-05
-9.47015e-05
-9.09067e-05
-8.6475e-05
-8.14685e-05
-7.59035e-05
-6.98419e-05
-6.33691e-05
-5.66231e-05
-4.97171e-05
-4.27816e-05
-3.59594e-05
-2.93358e-05
-2.2941e-05
-1.67463e-05
-1.06529e-05
-4.4887e-06
1.90072e-06
8.68718e-06
1.58606e-05
2.34564e-05
3.12507e-05
3.90401e-05
4.65602e-05
5.35157e-05
5.97056e-05
6.50068e-05
6.93309e-05
7.26782e-05
7.50659e-05
7.65255e-05
7.7089e-05
7.67726e-05
7.55919e-05
7.35538e-05
7.06416e-05
6.68465e-05
6.21586e-05
5.65316e-05
4.99105e-05
4.23245e-05
3.37329e-05
2.42506e-05
1.40012e-05
3.31389e-06
-7.44221e-06
-1.78901e-05
-2.77291e-05
-3.67579e-05
-4.48603e-05
-5.19619e-05
-5.80147e-05
-6.30291e-05
-6.6986e-05
-6.98344e-05
-7.17335e-05
-7.26116e-05
-7.25112e-05
-7.14839e-05
-6.95635e-05
-6.67946e-05
-6.32271e-05
-5.89329e-05
-5.39977e-05
-4.85154e-05
-4.26472e-05
-3.65247e-05
-3.02907e-05
-2.40678e-05
-1.80528e-05
-1.22357e-05
-6.71851e-06
-1.41424e-06
3.75043e-06
8.92645e-06
1.42616e-05
1.99076e-05
2.58829e-05
3.22008e-05
3.87053e-05
4.52766e-05
5.16381e-05
5.75878e-05
6.29423e-05
6.75722e-05
7.14044e-05
7.44013e-05
7.65546e-05
7.78674e-05
7.83408e-05
7.79828e-05
7.67955e-05
7.47709e-05
7.19195e-05
6.82128e-05
6.36401e-05
5.81589e-05
5.17691e-05
4.4498e-05
3.63115e-05
2.73587e-05
1.77911e-05
7.82397e-06
-2.14854e-06
-1.1825e-05
-2.08003e-05
-2.87914e-05
-3.57418e-05
-4.15328e-05
-4.61077e-05
-4.94544e-05
-5.15377e-05
-5.24118e-05
-5.21795e-05
-5.08609e-05
-4.86464e-05
-4.57213e-05
-4.24635e-05
-3.91242e-05
-3.57766e-05
-3.20976e-05
-2.92715e-05
-2.66623e-05
-2.39415e-05
-2.1348e-05
-1.88412e-05
-1.64248e-05
-1.41372e-05
-1.19601e-05
-9.78701e-06
-7.70132e-06
-5.76502e-06
-3.98826e-06
-2.36816e-06
-8.98036e-07
4.35783e-07
1.65363e-06
2.78002e-06
3.84213e-06
4.86947e-06
5.89396e-06
6.95e-06
8.07448e-06
9.30648e-06
1.06867e-05
1.22558e-05
1.40525e-05
1.61101e-05
1.84525e-05
2.1089e-05
2.40064e-05
2.71501e-05
3.0389e-05
3.34613e-05
3.59405e-05
3.74337e-05
3.795e-05
-2.27999e-05
-2.27423e-05
-2.25044e-05
-2.2072e-05
-2.15582e-05
-2.10528e-05
-2.06205e-05
-2.03018e-05
-2.01217e-05
-2.00976e-05
-2.02356e-05
-2.05374e-05
-2.10013e-05
-2.16255e-05
-2.24078e-05
-2.33464e-05
-2.4442e-05
-2.56959e-05
-2.71112e-05
-2.86926e-05
-3.04467e-05
-3.23819e-05
-3.45084e-05
-3.6839e-05
-3.93888e-05
-4.2175e-05
-4.52186e-05
-4.85422e-05
-5.21733e-05
-5.61451e-05
-6.04794e-05
-6.51211e-05
-6.98523e-05
-7.45393e-05
-7.91348e-05
-8.35426e-05
-8.74654e-05
-9.05568e-05
-9.24902e-05
-9.34665e-05
-9.36792e-05
-9.29808e-05
-9.12933e-05
-8.88437e-05
-8.57465e-05
-8.19916e-05
-7.76799e-05
-7.28421e-05
-6.75328e-05
-6.18296e-05
-5.58286e-05
-4.96679e-05
-4.34547e-05
-3.7307e-05
-3.13396e-05
-2.5615e-05
-2.01462e-05
-1.49011e-05
-9.78372e-06
-4.64195e-06
6.6853e-07
6.3051e-06
1.23007e-05
1.87176e-05
2.54287e-05
3.22974e-05
3.91267e-05
4.56488e-05
5.16422e-05
5.69493e-05
6.14186e-05
6.50007e-05
6.76704e-05
6.94354e-05
7.03187e-05
7.03389e-05
6.95097e-05
6.78323e-05
6.52998e-05
6.19191e-05
5.76706e-05
5.25116e-05
4.64097e-05
3.93923e-05
3.14052e-05
2.25683e-05
1.29889e-05
2.9963e-06
-7.11274e-06
-1.69251e-05
-2.61127e-05
-3.45298e-05
-4.20139e-05
-4.85022e-05
-5.39397e-05
-5.83468e-05
-6.17132e-05
-6.40591e-05
-6.54592e-05
-6.59029e-05
-6.54382e-05
-6.41176e-05
-6.19808e-05
-5.90868e-05
-5.55027e-05
-5.132e-05
-4.66305e-05
-4.15346e-05
-3.61887e-05
-3.07058e-05
-2.5208e-05
-1.97907e-05
-1.46083e-05
-9.63621e-06
-4.95223e-06
-4.64975e-07
3.89087e-06
8.25513e-06
1.27504e-05
1.75269e-05
2.26031e-05
2.80223e-05
3.36671e-05
3.94753e-05
4.52063e-05
5.06962e-05
5.57563e-05
6.02309e-05
6.40195e-05
6.7053e-05
6.93015e-05
7.07493e-05
7.13952e-05
7.12399e-05
7.02683e-05
6.84902e-05
6.59094e-05
6.24983e-05
5.82526e-05
5.31533e-05
4.71961e-05
4.03862e-05
3.27334e-05
2.43641e-05
1.54471e-05
6.15806e-06
-3.11834e-06
-1.19857e-05
-2.01811e-05
-2.74198e-05
-3.35795e-05
-3.85667e-05
-4.23677e-05
-4.49892e-05
-4.64019e-05
-4.6769e-05
-4.61438e-05
-4.46257e-05
-4.24107e-05
-3.96412e-05
-3.66935e-05
-3.37979e-05
-3.0931e-05
-2.77815e-05
-2.54036e-05
-2.32129e-05
-2.09111e-05
-1.87133e-05
-1.6551e-05
-1.44305e-05
-1.23987e-05
-1.04477e-05
-8.47469e-06
-6.56724e-06
-4.79037e-06
-3.15819e-06
-1.67241e-06
-3.30127e-07
8.79672e-07
1.97508e-06
2.97863e-06
3.91575e-06
4.81416e-06
5.70372e-06
6.6163e-06
7.58571e-06
8.64733e-06
9.83723e-06
1.11907e-05
1.27396e-05
1.45095e-05
1.65159e-05
1.87611e-05
2.12288e-05
2.387e-05
2.65755e-05
2.91256e-05
3.11573e-05
3.21623e-05
3.2284e-05
-2.05512e-05
-2.05128e-05
-2.03576e-05
-2.00635e-05
-1.97043e-05
-1.93448e-05
-1.90368e-05
-1.8815e-05
-1.87066e-05
-1.87267e-05
-1.88848e-05
-1.91852e-05
-1.96277e-05
-2.02145e-05
-2.09446e-05
-2.18166e-05
-2.28324e-05
-2.39938e-05
-2.53039e-05
-2.67673e-05
-2.83905e-05
-3.0181e-05
-3.21479e-05
-3.43025e-05
-3.66584e-05
-3.92308e-05
-4.20372e-05
-4.50969e-05
-4.8433e-05
-5.20751e-05
-5.60409e-05
-6.02567e-05
-6.45262e-05
-6.87363e-05
-7.286e-05
-7.67968e-05
-8.02576e-05
-8.29289e-05
-8.45449e-05
-8.52781e-05
-8.52912e-05
-8.44378e-05
-8.26428e-05
-8.01524e-05
-7.70775e-05
-7.33932e-05
-6.92262e-05
-6.46064e-05
-5.96064e-05
-5.43102e-05
-4.88175e-05
-4.32594e-05
-3.7731e-05
-3.23335e-05
-2.71561e-05
-2.22409e-05
-1.75898e-05
-1.31678e-05
-8.88676e-06
-4.61395e-06
-2.18332e-07
4.43734e-06
9.40872e-06
1.47664e-05
2.04489e-05
2.63731e-05
3.24059e-05
3.83338e-05
4.39485e-05
4.90876e-05
5.35636e-05
5.72847e-05
6.01805e-05
6.22233e-05
6.34174e-05
6.37698e-05
6.32955e-05
6.19825e-05
5.98474e-05
5.68854e-05
5.30653e-05
4.83856e-05
4.28067e-05
3.63705e-05
2.90031e-05
2.07537e-05
1.18327e-05
2.54989e-06
-6.83748e-06
-1.59662e-05
-2.45019e-05
-3.2257e-05
-3.90809e-05
-4.49276e-05
-4.97427e-05
-5.35523e-05
-5.63786e-05
-5.82586e-05
-5.92155e-05
-5.92865e-05
-5.85228e-05
-5.69784e-05
-5.47028e-05
-5.17691e-05
-4.82579e-05
-4.42734e-05
-3.98984e-05
-3.52384e-05
-3.04353e-05
-2.55808e-05
-2.07768e-05
-1.60972e-05
-1.16617e-05
-7.43968e-06
-3.48964e-06
2.80123e-07
3.92717e-06
7.58242e-06
1.13476e-05
1.53651e-05
1.96515e-05
2.42641e-05
2.91139e-05
3.41787e-05
3.92575e-05
4.42234e-05
4.89027e-05
5.31343e-05
5.68016e-05
5.981e-05
6.21089e-05
6.36614e-05
6.44571e-05
6.44891e-05
6.37408e-05
6.22163e-05
5.99052e-05
5.67926e-05
5.28688e-05
4.81605e-05
4.26647e-05
3.63289e-05
2.91693e-05
2.13768e-05
1.30965e-05
4.54984e-06
-3.969e-06
-1.20717e-05
-1.94533e-05
-2.58798e-05
-3.12301e-05
-3.54329e-05
-3.85065e-05
-4.04656e-05
-4.13685e-05
-4.13467e-05
-4.04696e-05
-3.88715e-05
-3.67385e-05
-3.41656e-05
-3.15343e-05
-2.90482e-05
-2.66039e-05
-2.39414e-05
-2.19446e-05
-2.01035e-05
-1.8158e-05
-1.62943e-05
-1.44253e-05
-1.25623e-05
-1.07572e-05
-9.00833e-06
-7.22367e-06
-5.48959e-06
-3.8702e-06
-2.38258e-06
-1.03221e-06
1.81008e-07
1.26589e-06
2.23856e-06
3.11972e-06
3.93311e-06
4.70469e-06
5.46229e-06
6.23545e-06
7.05531e-06
7.95413e-06
8.96447e-06
1.01175e-05
1.14403e-05
1.29532e-05
1.4666e-05
1.65759e-05
1.86629e-05
2.08783e-05
2.31332e-05
2.5195e-05
2.67917e-05
2.74272e-05
2.72614e-05
-1.84625e-05
-1.84218e-05
-1.83108e-05
-1.81059e-05
-1.78537e-05
-1.76001e-05
-1.73844e-05
-1.7237e-05
-1.71819e-05
-1.72354e-05
-1.74065e-05
-1.76994e-05
-1.81169e-05
-1.86605e-05
-1.93333e-05
-2.01361e-05
-2.10695e-05
-2.21352e-05
-2.33364e-05
-2.4678e-05
-2.61665e-05
-2.78087e-05
-2.96123e-05
-3.15873e-05
-3.37462e-05
-3.61021e-05
-3.86699e-05
-4.14657e-05
-4.45089e-05
-4.78259e-05
-5.14297e-05
-5.52406e-05
-5.90746e-05
-6.28387e-05
-6.6526e-05
-7.00312e-05
-7.30707e-05
-7.5363e-05
-7.66932e-05
-7.72092e-05
-7.70498e-05
-7.6069e-05
-7.41978e-05
-7.16985e-05
-6.86579e-05
-6.50858e-05
-6.1107e-05
-5.67552e-05
-5.21098e-05
-4.72578e-05
-4.22966e-05
-3.73454e-05
-3.24836e-05
-2.77947e-05
-2.33449e-05
-1.91593e-05
-1.52336e-05
-1.15303e-05
-7.97163e-06
-4.44337e-06
-8.28153e-07
2.98968e-06
7.07607e-06
1.15004e-05
1.62434e-05
2.12595e-05
2.6466e-05
3.17064e-05
3.68043e-05
4.16132e-05
4.59398e-05
4.96673e-05
5.26908e-05
5.49466e-05
5.64124e-05
5.70749e-05
5.69435e-05
5.59938e-05
5.42478e-05
5.16977e-05
4.8311e-05
4.41325e-05
3.91513e-05
3.32383e-05
2.63909e-05
1.87046e-05
1.04898e-05
1.97916e-06
-6.64444e-06
-1.50333e-05
-2.28554e-05
-2.99082e-05
-3.60484e-05
-4.12452e-05
-4.54512e-05
-4.87022e-05
-5.10457e-05
-5.24703e-05
-5.30436e-05
-5.28042e-05
-5.18032e-05
-5.01023e-05
-4.77624e-05
-4.48682e-05
-4.15087e-05
-3.77752e-05
-3.37655e-05
-2.95694e-05
-2.531e-05
-2.10593e-05
-1.69028e-05
-1.28974e-05
-9.13532e-06
-5.58464e-06
-2.28692e-06
8.46597e-07
3.86722e-06
6.89819e-06
1.00238e-05
1.33746e-05
1.69658e-05
2.08581e-05
2.49843e-05
2.93463e-05
3.37822e-05
3.81957e-05
4.24366e-05
4.6353e-05
4.98243e-05
5.27401e-05
5.50333e-05
5.66478e-05
5.75618e-05
5.77569e-05
5.72103e-05
5.59291e-05
5.38824e-05
5.10806e-05
4.75471e-05
4.3264e-05
3.81342e-05
3.2161e-05
2.54927e-05
1.83199e-05
1.07579e-05
2.98728e-06
-4.74434e-06
-1.20306e-05
-1.85691e-05
-2.41624e-05
-2.87167e-05
-3.21795e-05
-3.4594e-05
-3.60101e-05
-3.65262e-05
-3.62148e-05
-3.51874e-05
-3.35858e-05
-3.15763e-05
-2.92183e-05
-2.68995e-05
-2.47867e-05
-2.27173e-05
-2.04944e-05
-1.88221e-05
-1.72765e-05
-1.5636e-05
-1.40574e-05
-1.24416e-05
-1.08058e-05
-9.20486e-06
-7.64089e-06
-6.03601e-06
-4.47232e-06
-3.01032e-06
-1.66877e-06
-4.55747e-07
6.26988e-07
1.58655e-06
2.43728e-06
3.19812e-06
3.89103e-06
4.54014e-06
5.17128e-06
5.81189e-06
6.49076e-06
7.23773e-06
8.08276e-06
9.05413e-06
1.01759e-05
1.14647e-05
1.29263e-05
1.45531e-05
1.63203e-05
1.81784e-05
2.00464e-05
2.16999e-05
2.28319e-05
2.31825e-05
2.28334e-05
-1.64728e-05
-1.64198e-05
-1.63301e-05
-1.6182e-05
-1.60031e-05
-1.58252e-05
-1.56778e-05
-1.55865e-05
-1.55701e-05
-1.56444e-05
-1.58183e-05
-1.60977e-05
-1.64877e-05
-1.69892e-05
-1.76033e-05
-1.83321e-05
-1.91771e-05
-2.01422e-05
-2.12306e-05
-2.24466e-05
-2.37956e-05
-2.52842e-05
-2.69203e-05
-2.87119e-05
-3.06693e-05
-3.2804e-05
-3.5129e-05
-3.76577e-05
-4.04067e-05
-4.33991e-05
-4.66449e-05
-5.00623e-05
-5.34822e-05
-5.68273e-05
-6.01106e-05
-6.32217e-05
-6.58788e-05
-6.78314e-05
-6.89082e-05
-6.92353e-05
-6.8933e-05
-6.78548e-05
-6.59358e-05
-6.34462e-05
-6.04676e-05
-5.70681e-05
-5.33223e-05
-4.92802e-05
-4.50264e-05
-4.06465e-05
-3.62301e-05
-3.18809e-05
-2.76613e-05
-2.36375e-05
-1.98558e-05
-1.63307e-05
-1.30497e-05
-9.97812e-06
-7.04754e-06
-4.16064e-06
-1.21487e-06
1.88531e-06
5.20815e-06
8.81744e-06
1.27196e-05
1.68945e-05
2.12957e-05
2.58157e-05
3.03155e-05
3.46744e-05
3.87149e-05
4.23129e-05
4.53463e-05
4.77234e-05
4.93942e-05
5.03223e-05
5.05031e-05
4.98995e-05
4.8533e-05
4.64056e-05
4.34487e-05
3.96893e-05
3.51904e-05
2.98419e-05
2.36911e-05
1.67609e-05
9.26096e-06
1.44413e-06
-6.4596e-06
-1.40751e-05
-2.11376e-05
-2.74618e-05
-3.29123e-05
-3.74694e-05
-4.10948e-05
-4.38286e-05
-4.57123e-05
-4.67363e-05
-4.69816e-05
-4.64857e-05
-4.53049e-05
-4.35116e-05
-4.11758e-05
-3.83881e-05
-3.52371e-05
-3.18043e-05
-2.81929e-05
-2.44709e-05
-2.07429e-05
-1.70661e-05
-1.35119e-05
-1.01239e-05
-6.97226e-06
-4.02564e-06
-1.31185e-06
1.2544e-06
3.71935e-06
6.19843e-06
8.76092e-06
1.15236e-05
1.45007e-05
1.775e-05
2.1222e-05
2.49312e-05
2.87509e-05