/*--------------------------------*- C++ -*----------------------------------*\
| =========                 |                                                 |
| \\      /  F ield         | OpenFOAM: The Open Source CFD Toolbox           |
|  \\    /   O peration     | Version:  2506                                  |
|   \\  /    A nd           | Website:  www.openfoam.com                      |
|    \\/     M anipulation  |                                                 |
\*---------------------------------------------------------------------------*/
FoamFile
{
    version     2.0;
    format      ascii;
    arch        "LSB;label=32;scalar=64";
    class       surfaceScalarField;
    location    "2";
    object      phi;
}
// * * * * * * * * * * * * * * * * * * * * * * * * * * * * * * * * * * * * * //

dimensions      [0 3 -1 0 0 0 0];

oriented        oriented;

internalField   nonuniform List<scalar> 
7780
(
6.12384e-10
-6.12384e-10
1.04764e-09
-4.35255e-10
1.29391e-09
-2.46275e-10
1.45479e-09
-1.60877e-10
1.56731e-09
-1.12518e-10
1.6497e-09
-8.23905e-11
1.71364e-09
-6.39429e-11
1.76576e-09
-5.21163e-11
1.80973e-09
-4.39757e-11
1.84783e-09
-3.80911e-11
1.88152e-09
-3.36916e-11
1.91182e-09
-3.03067e-11
1.93946e-09
-2.76398e-11
1.96496e-09
-2.55012e-11
1.98873e-09
-2.37663e-11
2.01108e-09
-2.23523e-11
2.03229e-09
-2.12066e-11
2.05259e-09
-2.0299e-11
2.0722e-09
-1.96154e-11
2.09136e-09
-1.91524e-11
2.11028e-09
-1.89195e-11
2.12922e-09
-1.89385e-11
2.14846e-09
-1.92457e-11
2.16836e-09
-1.99004e-11
2.18936e-09
-2.09963e-11
2.21203e-09
-2.26723e-11
2.23717e-09
-2.51444e-11
2.26594e-09
-2.87681e-11
2.30008e-09
-3.41384e-11
2.34233e-09
-4.22542e-11
2.38626e-09
-8.88986e-11
2.38646e-09
-3.17377e-10
2.34132e-09
-6.15424e-10
2.26601e-09
-8.94418e-10
2.16948e-09
-1.13594e-09
2.06927e-09
-1.35439e-09
1.97665e-09
-1.55963e-09
1.84365e-09
-1.80939e-09
1.68707e-09
-1.9691e-09
1.55328e-09
-2.03627e-09
1.44072e-09
-2.08803e-09
1.35091e-09
-2.13049e-09
1.27895e-09
-2.16006e-09
1.22146e-09
-2.17878e-09
1.17572e-09
-2.1875e-09
1.13829e-09
-2.18533e-09
1.10816e-09
-2.17113e-09
1.08106e-09
-2.14494e-09
1.05323e-09
-2.10458e-09
1.01989e-09
-2.04716e-09
9.78701e-10
-1.96854e-09
9.34583e-10
-1.86405e-09
8.79693e-10
-1.73713e-09
8.30114e-10
-1.57261e-09
7.92931e-10
-1.37093e-09
7.95549e-10
-1.11619e-09
8.48611e-10
-8.18537e-10
9.76645e-10
-4.50047e-10
1.16701e-09
-3.5008e-11
1.37498e-09
3.88839e-10
1.5716e-09
7.81455e-10
1.74739e-09
1.14338e-09
1.88352e-09
1.40273e-09
1.99824e-09
1.62546e-09
2.08913e-09
1.77602e-09
2.16626e-09
1.8963e-09
2.23358e-09
1.98964e-09
2.29292e-09
2.05483e-09
2.34705e-09
2.10413e-09
2.39707e-09
2.14124e-09
2.44455e-09
2.16847e-09
2.48965e-09
2.18503e-09
2.53289e-09
2.19272e-09
2.57483e-09
2.19258e-09
2.61572e-09
2.1848e-09
2.65584e-09
2.16899e-09
2.69526e-09
2.14437e-09
2.73365e-09
2.10459e-09
2.77154e-09
2.05565e-09
2.8086e-09
1.99269e-09
2.84508e-09
1.91028e-09
2.87794e-09
1.78625e-09
2.90901e-09
1.64755e-09
2.93363e-09
1.44136e-09
2.95206e-09
1.19879e-09
2.9564e-09
8.45438e-10
2.94837e-09
4.53454e-10
2.92678e-09
1.32926e-11
2.8962e-09
-4.50411e-10
2.86254e-09
-8.65841e-10
2.8346e-09
-1.19113e-09
2.81198e-09
-1.47267e-09
2.79703e-09
-1.66497e-09
2.78504e-09
-1.83055e-09
2.77324e-09
-1.93538e-09
2.75634e-09
-2.01401e-09
2.73213e-09
-2.0785e-09
2.69892e-09
-2.11588e-09
2.65738e-09
-2.14261e-09
2.60837e-09
-2.16048e-09
2.55418e-09
-2.17206e-09
2.49708e-09
-2.17816e-09
2.43858e-09
-2.17731e-09
2.37942e-09
-2.16943e-09
2.31901e-09
-2.15328e-09
2.25572e-09
-2.12717e-09
2.18729e-09
-2.08942e-09
2.1104e-09
-2.03399e-09
2.02336e-09
-1.95861e-09
1.92298e-09
-1.86733e-09
1.80664e-09
-1.75199e-09
1.68103e-09
-1.58503e-09
1.54417e-09
-1.40456e-09
1.41765e-09
-1.14779e-09
1.31279e-09
-8.65925e-10
1.26082e-09
-5.17323e-10
1.28226e-09
-1.22243e-10
1.3611e-09
2.78198e-10
1.47144e-09
6.6389e-10
1.59435e-09
1.03062e-09
1.70023e-09
1.31566e-09
1.79304e-09
1.54774e-09
1.86961e-09
1.71714e-09
1.93691e-09
1.85949e-09
1.99455e-09
1.95534e-09
2.04616e-09
2.02922e-09
2.09455e-09
2.08835e-09
2.14051e-09
2.1311e-09
2.18454e-09
2.16022e-09
2.22765e-09
2.17961e-09
2.27044e-09
2.1905e-09
2.31347e-09
2.1934e-09
2.35698e-09
2.18853e-09
2.40099e-09
2.17432e-09
2.4464e-09
2.15149e-09
2.49303e-09
2.11964e-09
2.54149e-09
2.07657e-09
2.59218e-09
2.02062e-09
2.64357e-09
1.93595e-09
2.69746e-09
1.83814e-09
2.75294e-09
1.71484e-09
2.80602e-09
1.52588e-09
2.85833e-09
1.31743e-09
2.90136e-09
1.00677e-09
2.93517e-09
6.45129e-10
2.95565e-09
2.2659e-10
2.96365e-09
-2.37063e-10
2.96243e-09
-6.84488e-10
2.96093e-09
-1.04821e-09
2.96045e-09
-1.35393e-09
2.96272e-09
-1.58929e-09
2.96615e-09
-1.7642e-09
2.96845e-09
-1.88764e-09
2.96423e-09
-1.99181e-09
2.95105e-09
-2.05364e-09
2.9275e-09
-2.09859e-09
2.89293e-09
-2.13001e-09
2.84819e-09
-2.15351e-09
2.79506e-09
-2.16615e-09
2.72653e-09
-2.16293e-09
2.64058e-09
-2.1502e-09
2.53926e-09
-2.13223e-09
2.4185e-09
-2.10282e-09
2.29993e-09
-1.67861e-09
2.1814e-09
-1.45728e-09
2.06296e-09
-1.27174e-09
1.95161e-09
-1.03308e-09
1.86067e-09
-7.79049e-10
1.8034e-09
-4.92203e-10
1.79086e-09
-2.01617e-10
1.80356e-09
-2.16615e-11
1.80945e-09
-5.89132e-12
1.81438e-09
-4.92994e-12
1.82023e-09
-5.84757e-12
1.82731e-09
-7.078e-12
1.83535e-09
-8.04911e-12
1.84379e-09
-8.43477e-12
1.85205e-09
-8.25659e-12
1.85979e-09
-7.74471e-12
1.86675e-09
-6.95809e-12
1.87278e-09
-6.0319e-12
1.87777e-09
-4.99037e-12
1.88161e-09
-3.83999e-12
1.88418e-09
-2.56606e-12
1.88516e-09
-9.80618e-13
1.8843e-09
8.59518e-13
1.8813e-09
2.99361e-12
1.87565e-09
5.65376e-12
1.86679e-09
8.85705e-12
1.85408e-09
1.27087e-11
1.83673e-09
1.73576e-11
1.81367e-09
2.30578e-11
1.78336e-09
3.03072e-11
1.74321e-09
4.01476e-11
1.68813e-09
5.50834e-11
1.60712e-09
8.1014e-11
1.47538e-09
1.31742e-10
1.23326e-09
2.42117e-10
7.41776e-10
4.91482e-10
7.41776e-10
-5.13569e-11
-5.61027e-10
9.99568e-11
-5.86569e-10
3.0094e-10
-4.47258e-10
4.79546e-10
-3.39483e-10
6.31716e-10
-2.64688e-10
7.60955e-10
-2.1163e-10
8.71091e-10
-1.74079e-10
9.65825e-10
-1.46851e-10
1.04821e-09
-1.26363e-10
1.12061e-09
-1.10487e-10
1.18482e-09
-9.79026e-11
1.24224e-09
-8.77233e-11
1.29393e-09
-7.93376e-11
1.34076e-09
-7.23277e-11
1.3834e-09
-6.64024e-11
1.4224e-09
-6.13536e-11
1.45823e-09
-5.704e-11
1.49131e-09
-5.33765e-11
1.52201e-09
-5.03207e-11
1.55072e-09
-4.78622e-11
1.57782e-09
-4.60192e-11
1.60372e-09
-4.48381e-11
1.62888e-09
-4.44025e-11
1.65383e-09
-4.48497e-11
1.67923e-09
-4.6395e-11
1.7059e-09
-4.93454e-11
1.73491e-09
-5.4152e-11
1.76764e-09
-6.14958e-11
1.80597e-09
-7.2475e-11
1.8526e-09
-8.88854e-11
1.90232e-09
-1.38617e-10
1.91724e-09
-3.32293e-10
1.88745e-09
-5.85632e-10
1.82087e-09
-8.27845e-10
1.72733e-09
-1.04239e-09
1.62316e-09
-1.25022e-09
1.51626e-09
-1.45273e-09
1.37972e-09
-1.67286e-09
1.23018e-09
-1.81955e-09
1.10123e-09
-1.90732e-09
9.95279e-10
-1.98208e-09
9.11043e-10
-2.04625e-09
8.44955e-10
-2.09397e-09
7.93865e-10
-2.12769e-09
7.54254e-10
-2.14789e-09
7.22188e-10
-2.15327e-09
6.94619e-10
-2.14356e-09
6.66454e-10
-2.11678e-09
6.32737e-10
-2.07086e-09
5.89328e-10
-2.00375e-09
5.33595e-10
-1.9128e-09
4.67506e-10
-1.79796e-09
3.87448e-10
-1.65707e-09
3.04702e-10
-1.48986e-09
2.28241e-10
-1.29447e-09
1.80305e-10
-1.06825e-09
1.77154e-10
-8.15387e-10
2.51079e-10
-5.23972e-10
4.12527e-10
-1.96458e-10
6.45909e-10
1.55456e-10
9.1752e-10
5.09844e-10
1.19552e-09
8.6539e-10
1.43923e-09
1.15902e-09
1.64606e-09
1.41865e-09
1.81115e-09
1.61094e-09
1.94341e-09
1.76403e-09
2.05026e-09
1.88277e-09
2.13717e-09
1.96789e-09
2.21e-09
2.03129e-09
2.27258e-09
2.07866e-09
2.32831e-09
2.11274e-09
2.37872e-09
2.13464e-09
2.42519e-09
2.14626e-09
2.46893e-09
2.14885e-09
2.51065e-09
2.14308e-09
2.55086e-09
2.12877e-09
2.58978e-09
2.10543e-09
2.62714e-09
2.06723e-09
2.66347e-09
2.01931e-09
2.69863e-09
1.95754e-09
2.73284e-09
1.87607e-09
2.7634e-09
1.7557e-09
2.79222e-09
1.61873e-09
2.81581e-09
1.41777e-09
2.83541e-09
1.17919e-09
2.84692e-09
8.33931e-10
2.85464e-09
4.45729e-10
2.85933e-09
8.60299e-12
2.86487e-09
-4.55945e-10
2.87253e-09
-8.73505e-10
2.88422e-09
-1.20282e-09
2.89547e-09
-1.48392e-09
2.90354e-09
-1.67305e-09
2.90349e-09
-1.83049e-09
2.8928e-09
-1.9247e-09
2.86982e-09
-1.99103e-09
2.83488e-09
-2.04356e-09
2.78885e-09
-2.06985e-09
2.73433e-09
-2.08808e-09
2.6745e-09
-2.10065e-09
2.61188e-09
-2.10944e-09
2.54789e-09
-2.11417e-09
2.48313e-09
-2.11256e-09
2.4167e-09
-2.10301e-09
2.3462e-09
-2.08279e-09
2.26864e-09
-2.04961e-09
2.1807e-09
-2.00148e-09
2.07896e-09
-1.93225e-09
1.96189e-09
-1.84153e-09
1.82707e-09
-1.7325e-09
1.67373e-09
-1.59864e-09
1.5067e-09
-1.418e-09
1.32705e-09
-1.22491e-09
1.15026e-09
-9.70994e-10
9.8848e-10
-7.04146e-10
8.67883e-10
-3.96726e-10
8.16011e-10
-7.03716e-11
8.43268e-10
2.50941e-10
9.44105e-10
5.63053e-10
1.09812e-09
8.76598e-10
1.26453e-09
1.14925e-09
1.42351e-09
1.38875e-09
1.5614e-09
1.57926e-09
1.67972e-09
1.74118e-09
1.77719e-09
1.85787e-09
1.85828e-09
1.94813e-09
1.92789e-09
2.01874e-09
1.98887e-09
2.07011e-09
2.04326e-09
2.10583e-09
2.09329e-09
2.1296e-09
2.1406e-09
2.14319e-09
2.18653e-09
2.14748e-09
2.23178e-09
2.14329e-09
2.27666e-09
2.12945e-09
2.32217e-09
2.10597e-09
2.36837e-09
2.07344e-09
2.4159e-09
2.02903e-09
2.46515e-09
1.97136e-09
2.51482e-09
1.88628e-09
2.56682e-09
1.78614e-09
2.62052e-09
1.66113e-09
2.67297e-09
1.47343e-09
2.72625e-09
1.26415e-09
2.77526e-09
9.57759e-10
2.82267e-09
5.97721e-10
2.86698e-09
1.82285e-10
2.90977e-09
-2.79858e-10
2.9513e-09
-7.26016e-10
2.99333e-09
-1.09024e-09
3.03168e-09
-1.39229e-09
3.06362e-09
-1.62123e-09
3.08436e-09
-1.78493e-09
3.09109e-09
-1.89436e-09
3.08222e-09
-1.98292e-09
3.05807e-09
-2.02947e-09
3.01978e-09
-2.06028e-09
2.96979e-09
-2.08002e-09
2.911e-09
-2.09473e-09
2.84573e-09
-2.10092e-09
2.76581e-09
-2.08306e-09
2.66844e-09
-2.05287e-09
2.55825e-09
-2.02206e-09
2.43424e-09
-1.97881e-09
2.31186e-09
-1.5562e-09
2.18495e-09
-1.33035e-09
2.05355e-09
-1.14033e-09
1.92248e-09
-9.01998e-10
1.8035e-09
-6.60077e-10
1.70504e-09
-3.9374e-10
1.63787e-09
-1.34449e-10
1.60079e-09
1.54143e-11
1.57636e-09
1.85403e-11
1.56151e-09
9.91528e-12
1.55436e-09
1.30759e-12
1.55285e-09
-5.57421e-12
1.55491e-09
-1.01065e-11
1.55888e-09
-1.24067e-11
1.56355e-09
-1.29207e-11
1.56804e-09
-1.22385e-11
1.57179e-09
-1.07033e-11
1.57439e-09
-8.63624e-12
1.57553e-09
-6.12731e-12
1.57486e-09
-3.17128e-12
1.57196e-09
3.3278e-13
1.56633e-09
4.64694e-12
1.55721e-09
9.97624e-12
1.54363e-09
1.65776e-11
1.52451e-09
2.47707e-11
1.49853e-09
3.48372e-11
1.46408e-09
4.71595e-11
1.41916e-09
6.22833e-11
1.36114e-09
8.10713e-11
1.28639e-09
1.05057e-10
1.18936e-09
1.37186e-10
1.06135e-09
1.8309e-10
8.88677e-10
2.53686e-10
6.51654e-10
3.68765e-10
3.38113e-10
5.55658e-10
3.22263e-11
7.97369e-10
7.74003e-10
-1.20185e-10
-4.40842e-10
-1.20557e-10
-5.86197e-10
-3.2084e-11
-5.35731e-10
8.83954e-11
-4.59963e-10
2.1456e-10
-3.90852e-10
3.36531e-10
-3.33602e-10
4.50009e-10
-2.87557e-10
5.53713e-10
-2.50554e-10
6.47847e-10
-2.20497e-10
7.3314e-10
-1.9578e-10
8.10443e-10
-1.75205e-10
8.80576e-10
-1.57857e-10
9.44283e-10
-1.43045e-10
1.00221e-09
-1.30258e-10
1.05493e-09
-1.19122e-10
1.10294e-09
-1.09357e-10
1.14666e-09
-1.00765e-10
1.18651e-09
-9.32221e-11
1.22285e-09
-8.66639e-11
1.25606e-09
-8.10752e-11
1.28653e-09
-7.64845e-11
1.31466e-09
-7.29681e-11
1.34092e-09
-7.06601e-11
1.36585e-09
-6.97785e-11
1.39009e-09
-7.06434e-11
1.41446e-09
-7.3711e-11
1.43992e-09
-7.96117e-11
1.46766e-09
-8.92315e-11
1.49906e-09
-1.03877e-10
1.53566e-09
-1.25485e-10
1.5728e-09
-1.7576e-10
1.57978e-09
-3.39273e-10
1.54562e-09
-5.51476e-10
1.47682e-09
-7.59043e-10
1.38443e-09
-9.50002e-10
1.28292e-09
-1.14871e-09
1.17874e-09
-1.34855e-09
1.05703e-09
-1.55115e-09
9.34092e-10
-1.69661e-09
8.31778e-10
-1.80501e-09
7.50239e-10
-1.90054e-09
6.86576e-10
-1.98259e-09
6.37897e-10
-2.04529e-09
6.01224e-10
-2.09102e-09
5.7285e-10
-2.11952e-09
5.4876e-10
-2.12918e-09
5.25169e-10
-2.11997e-09
4.97346e-10
-2.08895e-09
4.61027e-10
-2.03455e-09
4.13283e-10
-1.956e-09
3.53077e-10
-1.8526e-09
2.81921e-10
-1.7268e-09
2.0081e-10
-1.57596e-09
1.17193e-10
-1.40624e-09
4.04992e-11
-1.21778e-09
-1.37945e-11
-1.01396e-09
-3.33014e-11
-7.9588e-10
2.8843e-12
-5.60158e-10
1.08083e-10
-3.01657e-10
2.82672e-10
-1.91335e-11
5.15283e-10
2.77235e-10
7.85861e-10
5.94818e-10
1.05734e-09
8.87553e-10
1.31052e-09
1.16547e-09
1.52903e-09
1.39243e-09
1.71145e-09
1.5816e-09
1.86e-09
1.7342e-09
1.97964e-09
1.84824e-09
2.07659e-09
1.93434e-09
2.15608e-09
1.99918e-09
2.2231e-09
2.04574e-09
2.28078e-09
2.07699e-09
2.33165e-09
2.09539e-09
2.37783e-09
2.10267e-09
2.42083e-09
2.10006e-09
2.46178e-09
2.0878e-09
2.50139e-09
2.06581e-09
2.53974e-09
2.02889e-09
2.57748e-09
1.98157e-09
2.6148e-09
1.92022e-09
2.65227e-09
1.83861e-09
2.68809e-09
1.71987e-09
2.72436e-09
1.58247e-09
2.75964e-09
1.38249e-09
2.79543e-09
1.14339e-09
2.82901e-09
8.00353e-10
2.86284e-09
4.11899e-10
2.89621e-09
-2.47689e-11
2.92938e-09
-4.89114e-10
2.95856e-09
-9.02686e-10
2.98286e-09
-1.22712e-09
2.99783e-09
-1.4989e-09
3.00126e-09
-1.67648e-09
2.99063e-09
-1.81986e-09
2.9661e-09
-1.90018e-09
2.92768e-09
-1.9526e-09
2.87811e-09
-1.99399e-09
2.81989e-09
-2.01163e-09
2.75658e-09
-2.02476e-09
2.69094e-09
-2.035e-09
2.62434e-09
-2.04283e-09
2.55747e-09
-2.0473e-09
2.48908e-09
-2.04416e-09
2.41682e-09
-2.03076e-09
2.33743e-09
-2.00341e-09
2.24785e-09
-1.96003e-09
2.14555e-09
-1.89919e-09
2.02845e-09
-1.81515e-09
1.89652e-09
-1.7096e-09
1.74929e-09
-1.58527e-09
1.5882e-09
-1.43755e-09
1.41807e-09
-1.24786e-09
1.24161e-09
-1.04844e-09
1.07083e-09
-8.00214e-10
9.14691e-10
-5.48011e-10
7.89649e-10
-2.71686e-10
7.13563e-10
5.7141e-12
6.98133e-10
2.66371e-10
7.46803e-10
5.14382e-10
8.5591e-10
7.67492e-10
1.00476e-09
1.00041e-09
1.16807e-09
1.22544e-09
1.32675e-09
1.42058e-09
1.47174e-09
1.59619e-09
1.5968e-09
1.7328e-09
1.70191e-09
1.84302e-09
1.79043e-09
1.93021e-09
1.86551e-09
1.99503e-09
1.92999e-09
2.04135e-09
1.98667e-09
2.07292e-09
2.03795e-09
2.09192e-09
2.08605e-09
2.09939e-09
2.1325e-09
2.09683e-09
2.17827e-09
2.08368e-09
2.22467e-09
2.05957e-09
2.2721e-09
2.02601e-09
2.3216e-09
1.97953e-09
2.37369e-09
1.91927e-09
2.42763e-09
1.83233e-09
2.4854e-09
1.72838e-09
2.5475e-09
1.59903e-09
2.61313e-09
1.4078e-09
2.68365e-09
1.19363e-09
2.75583e-09
8.85576e-10
2.83089e-09
5.22667e-10
2.90672e-09
1.06448e-10
2.98144e-09
-3.54576e-10
3.04941e-09
-7.93982e-10
3.10809e-09
-1.14893e-09
3.15232e-09
-1.43653e-09
3.18015e-09
-1.64906e-09
3.18869e-09
-1.79347e-09
3.17884e-09
-1.88451e-09
3.15057e-09
-1.95464e-09
3.10725e-09
-1.98613e-09
3.05282e-09
-2.00582e-09
2.99037e-09
-2.01755e-09
2.92233e-09
-2.02667e-09
2.85018e-09
-2.02878e-09
2.76498e-09
-1.99788e-09
2.66357e-09
-1.95151e-09
2.55181e-09
-1.91034e-09
2.43057e-09
-1.85759e-09
2.31668e-09
-1.44229e-09
2.20042e-09
-1.21406e-09
2.08256e-09
-1.02245e-09
1.96741e-09
-7.86839e-10
1.86516e-09
-5.57815e-10
1.77907e-09
-3.07657e-10
1.712e-09
-6.73754e-11
1.66326e-09
6.41484e-11
1.6267e-09
5.51014e-11
1.59961e-09
3.70076e-11
1.58053e-09
2.03808e-11
1.5677e-09
7.25632e-12
1.55938e-09
-1.78348e-12
1.55395e-09
-6.97604e-12
1.55004e-09
-9.00589e-12
1.54676e-09
-8.95973e-12
1.54357e-09
-7.51283e-12
1.53993e-09
-5.00144e-12
1.53537e-09
-1.56807e-12
1.52937e-09
2.82692e-12
1.52129e-09
8.41501e-12
1.51032e-09
1.56146e-11
1.4954e-09
2.48996e-11
1.4752e-09
3.6774e-11
1.44818e-09
5.17903e-11
1.41246e-09
7.05615e-11
1.36576e-09
9.38567e-11
1.3053e-09
1.22751e-10
1.22746e-09
1.58902e-10
1.12749e-09
2.05035e-10
9.98957e-10
2.65715e-10
8.33662e-10
3.48385e-10
6.23264e-10
4.64084e-10
3.67817e-10
6.24212e-10
1.0191e-10
8.21565e-10
-6.46292e-11
9.63908e-10
7.09373e-10
-9.68415e-11
-3.44001e-10
-1.46889e-10
-5.36149e-10
-1.28033e-10
-5.54586e-10
-6.69757e-11
-5.2102e-10
1.62273e-11
-4.74055e-10
1.08448e-10
-4.25823e-10
2.02147e-10
-3.81255e-10
2.9326e-10
-3.41668e-10
3.79792e-10
-3.07029e-10
4.60875e-10
-2.76863e-10
5.36228e-10
-2.50557e-10
6.05875e-10
-2.27504e-10
6.69995e-10
-2.07165e-10
7.28837e-10
-1.89101e-10
7.82678e-10
-1.72963e-10
8.31803e-10
-1.58482e-10
8.76497e-10
-1.4546e-10
9.17045e-10
-1.3377e-10
9.53731e-10
-1.23349e-10
9.86848e-10
-1.14192e-10
1.01671e-09
-1.06349e-10
1.04368e-09
-9.99337e-11
1.06816e-09
-9.51395e-11
1.09064e-09
-9.22616e-11
1.11172e-09
-9.17226e-11
1.13211e-09
-9.40999e-11
1.15267e-09
-1.0017e-10
1.1744e-09
-1.10968e-10
1.19843e-09
-1.27909e-10
1.22588e-09
-1.5293e-10
1.2526e-09
-2.02482e-10
1.25266e-09
-3.39333e-10
1.21807e-09
-5.16882e-10
1.15646e-09
-6.97437e-10
1.07915e-09
-8.72691e-10
9.96874e-10
-1.06643e-09
9.14094e-10
-1.26577e-09
8.21566e-10
-1.45862e-09
7.32822e-10
-1.60787e-09
6.61534e-10
-1.73372e-09
6.06343e-10
-1.84535e-09
5.64107e-10
-1.94035e-09
5.32558e-10
-2.01374e-09
5.08958e-10
-2.06742e-09
4.89754e-10
-2.10032e-09
4.71115e-10
-2.11054e-09
4.49265e-10
-2.09812e-09
4.20595e-10
-2.06028e-09
3.82282e-10
-1.99623e-09
3.32425e-10
-1.90615e-09
2.71572e-10
-1.79174e-09
2.01789e-10
-1.65702e-09
1.26108e-10
-1.50028e-09
5.10046e-11
-1.33114e-09
-1.58689e-11
-1.1509e-09
-6.4158e-11
-9.65669e-10
-8.44907e-11
-7.75548e-10
-6.47331e-11
-5.79916e-10
4.63042e-12
-3.71021e-10
1.30033e-10
-1.44534e-10
3.0818e-10
9.90925e-11
5.34449e-10
3.68555e-10
7.85167e-10
6.36839e-10
1.04286e-09
9.07769e-10
1.28507e-09
1.15021e-09
1.50133e-09
1.36533e-09
1.68671e-09
1.5488e-09
1.84031e-09
1.69464e-09
1.96562e-09
1.80904e-09
2.067e-09
1.89781e-09
2.14973e-09
1.96304e-09
2.21809e-09
2.00863e-09
2.27595e-09
2.03753e-09
2.32645e-09
2.05216e-09
2.37205e-09
2.05445e-09
2.41463e-09
2.04521e-09
2.45591e-09
2.02454e-09
2.49668e-09
1.98811e-09
2.5379e-09
1.94035e-09
2.5801e-09
1.87803e-09
2.62438e-09
1.79433e-09
2.66984e-09
1.67442e-09
2.71787e-09
1.53443e-09
2.76767e-09
1.33269e-09
2.8205e-09
1.09056e-09
2.87448e-09
7.46368e-10
2.92933e-09
3.57047e-10
2.98075e-09
-7.61865e-11
3.02621e-09
-5.34573e-10
3.0601e-09
-9.36574e-10
3.08146e-09
-1.24847e-09
3.08671e-09
-1.50415e-09
3.07588e-09
-1.66564e-09
3.04808e-09
-1.79206e-09
3.00574e-09
-1.85784e-09
2.95158e-09
-1.89845e-09
2.88931e-09
-1.93172e-09
2.82173e-09
-1.94406e-09
2.75261e-09
-1.95564e-09
2.68389e-09
-1.96627e-09
2.61533e-09
-1.97427e-09
2.54591e-09
-1.97787e-09
2.473e-09
-1.97124e-09
2.39345e-09
-1.95121e-09
2.30411e-09
-1.91408e-09
2.20282e-09
-1.85876e-09
2.08863e-09
-1.785e-09
1.96126e-09
-1.68778e-09
1.82236e-09
-1.57071e-09
1.673e-09
-1.43591e-09
1.5158e-09
-1.28034e-09
1.35565e-09
-1.08772e-09
1.19589e-09
-8.88682e-10
1.04556e-09
-6.49882e-10
9.11514e-10
-4.13965e-10
8.03614e-10
-1.63786e-10
7.31939e-10
7.73885e-11
7.03074e-10
2.95236e-10
7.21684e-10
4.95773e-10
7.90002e-10
6.99175e-10
9.01142e-10
8.8927e-10
1.04094e-09
1.08565e-09
1.19292e-09
1.26861e-09
1.34312e-09
1.44598e-09
1.48138e-09
1.59454e-09
1.60298e-09
1.72141e-09
1.70734e-09
1.82586e-09
1.79573e-09
1.90664e-09
1.87049e-09
1.9666e-09
1.93455e-09
2.00886e-09
1.99066e-09
2.03581e-09
2.04163e-09
2.04843e-09
2.0897e-09
2.04876e-09
2.13681e-09
2.03656e-09
2.18488e-09
2.0115e-09
2.23477e-09
1.97612e-09
2.28792e-09
1.92637e-09
2.34547e-09
1.86172e-09
2.40771e-09
1.77009e-09
2.47628e-09
1.65981e-09
2.55121e-09
1.5241e-09
2.6328e-09
1.32621e-09
2.72221e-09
1.10421e-09
2.817e-09
7.90792e-10
2.91568e-09
4.23983e-10
3.01199e-09
1.01374e-11
3.10066e-09
-4.43247e-10
3.1739e-09
-8.67223e-10
3.22875e-09
-1.20378e-09
3.26117e-09
-1.46895e-09
3.27122e-09
-1.65911e-09
3.25844e-09
-1.7807e-09
3.2263e-09
-1.85237e-09
3.17814e-09
-1.90647e-09
3.11901e-09
-1.92698e-09
3.05263e-09
-1.93943e-09
2.98186e-09
-1.94675e-09
2.90927e-09
-1.95406e-09
2.83471e-09
-1.9542e-09
2.74812e-09
-1.9113e-09
2.64623e-09
-1.84965e-09
2.53486e-09
-1.79901e-09
2.41479e-09
-1.73756e-09
2.30757e-09
-1.33508e-09
2.20149e-09
-1.10798e-09
2.09706e-09
-9.18011e-10
1.99876e-09
-6.88529e-10
1.91557e-09
-4.74617e-10
1.84863e-09
-2.40717e-10
1.79703e-09
-1.57696e-11
1.75608e-09
1.05102e-10
1.72033e-09
9.08435e-11
1.68884e-09
6.8504e-11
1.6615e-09
4.77164e-11
1.63793e-09
3.08251e-11
1.61754e-09
1.86033e-11
1.59977e-09
1.08001e-11
1.58414e-09
6.62471e-12
1.5701e-09
5.07718e-12
1.55716e-09
5.42746e-12
1.54485e-09
7.30527e-12
1.53265e-09
1.06348e-11
1.51988e-09
1.56007e-11
1.50568e-09
2.26141e-11
1.48903e-09
3.22641e-11
1.46868e-09
4.52445e-11
1.44314e-09
6.23187e-11
1.41061e-09
8.43182e-11
1.36897e-09
1.12199e-10
1.31567e-09
1.47159e-10
1.24759e-09
1.90835e-10
1.16082e-09
2.45667e-10
1.05044e-09
3.15414e-10
9.10434e-10
4.05724e-10
7.3463e-10
5.2419e-10
5.20728e-10
6.77986e-10
2.81087e-10
8.63853e-10
6.22498e-11
1.0404e-09
-4.7847e-11
1.074e-09
6.61526e-10
-7.04522e-11
-2.73549e-10
-1.30201e-10
-4.764e-10
-1.47312e-10
-5.37476e-10
-1.28457e-10
-5.39875e-10
-8.49195e-11
-5.17593e-10
-2.62356e-11
-4.84507e-10
4.0156e-11
-4.47647e-10
1.09407e-10
-4.10919e-10
1.78513e-10
-3.76135e-10
2.45664e-10
-3.44013e-10
3.09787e-10
-3.14681e-10
3.70277e-10
-2.87994e-10
4.26825e-10
-2.63712e-10
4.79301e-10
-2.41577e-10
5.27693e-10
-2.21355e-10
5.72061e-10
-2.0285e-10
6.12518e-10
-1.85916e-10
6.49207e-10
-1.70459e-10
6.82302e-10
-1.56445e-10
7.12007e-10
-1.43897e-10
7.38563e-10
-1.32905e-10
7.62265e-10
-1.23635e-10
7.83471e-10
-1.16346e-10
8.02628e-10
-1.11419e-10
8.20283e-10
-1.09377e-10
8.37103e-10
-1.1092e-10
8.5389e-10
-1.16958e-10
8.71594e-10
-1.28672e-10
8.91267e-10
-1.47582e-10
9.14004e-10
-1.75667e-10
9.36568e-10
-2.25046e-10
9.37991e-10
-3.40755e-10
9.13401e-10
-4.92292e-10
8.7053e-10
-6.54566e-10
8.18908e-10
-8.21069e-10
7.64801e-10
-1.01232e-09
7.10507e-10
-1.21147e-09
6.49837e-10
-1.39795e-09
5.9321e-10
-1.55124e-09
5.49197e-10
-1.68971e-09
5.16201e-10
-1.81235e-09
4.91464e-10
-1.91562e-09
4.73241e-10
-1.99552e-09
4.59072e-10
-2.05325e-09
4.45708e-10
-2.08695e-09
4.29749e-10
-2.09459e-09
4.08072e-10
-2.07645e-09
3.78044e-10
-2.03026e-09
3.38075e-10
-1.95626e-09
2.87695e-10
-1.85577e-09
2.2826e-10
-1.73231e-09
1.62347e-10
-1.59111e-09
9.37415e-11
-1.43168e-09
2.80155e-11
-1.26541e-09
-2.87933e-11
-1.0941e-09
-6.97128e-11
-9.2475e-10
-8.83536e-11
-7.56907e-10
-7.69513e-11
-5.91319e-10
-2.81365e-11
-4.19835e-10
6.42504e-11
-2.36919e-10
2.02088e-10
-3.87411e-11
3.86202e-10
1.84444e-10
6.05336e-10
4.17703e-10
8.47401e-10
6.65695e-10
1.09298e-09
9.04613e-10
1.32772e-09
1.13058e-09
1.54165e-09
1.33486e-09
1.72796e-09
1.50834e-09
1.88523e-09
1.65179e-09
2.01468e-09
1.76837e-09
2.11997e-09
1.85775e-09
2.20508e-09
1.92352e-09
2.27449e-09
1.96811e-09
2.3325e-09
1.99414e-09
2.38296e-09
2.00398e-09
2.42885e-09
1.99932e-09
2.47217e-09
1.98122e-09
2.51515e-09
1.94515e-09
2.5593e-09
1.89621e-09
2.60549e-09
1.83184e-09
2.65551e-09
1.74431e-09
2.70916e-09
1.62076e-09
2.76755e-09
1.47605e-09
2.82995e-09
1.27029e-09
2.89605e-09
1.02445e-09
2.96277e-09
6.79653e-10
3.02764e-09
2.9218e-10
3.08429e-09
-1.32846e-10
3.12904e-09
-5.79321e-10
3.1558e-09
-9.63333e-10
3.16451e-09
-1.25718e-09
3.1529e-09
-1.49254e-09
3.1228e-09
-1.63554e-09
3.07573e-09
-1.74499e-09
3.01638e-09
-1.79849e-09
2.94835e-09
-1.83042e-09
2.87552e-09
-1.85889e-09
2.80151e-09
-1.87006e-09
2.72918e-09
-1.88331e-09
2.6584e-09
-1.89548e-09
2.5875e-09
-1.90337e-09
2.51382e-09
-1.90418e-09
2.43397e-09
-1.89139e-09
2.34497e-09
-1.8622e-09
2.24467e-09
-1.81378e-09
2.13251e-09
-1.74659e-09
2.00922e-09
-1.66171e-09
1.87613e-09
-1.5547e-09
1.73591e-09
-1.43049e-09
1.59024e-09
-1.29024e-09
1.44176e-09
-1.13187e-09
1.29506e-09
-9.41017e-10
1.15293e-09
-7.46546e-10
1.02272e-09
-5.19673e-10
9.09612e-10
-3.00855e-10
8.20385e-10
-7.45583e-11
7.61218e-10
1.36555e-10
7.35059e-10
3.21395e-10
7.46372e-10
4.8446e-10
7.96803e-10
6.48745e-10
8.83823e-10
8.02252e-10
1.00186e-09
9.67607e-10
1.14015e-09
1.13031e-09
1.28684e-09
1.29928e-09
1.43108e-09
1.45031e-09
1.56511e-09
1.58737e-09
1.68443e-09
1.70654e-09
1.78744e-09
1.80364e-09
1.87469e-09
1.87936e-09
1.94846e-09
1.93509e-09
2.01146e-09
1.9728e-09
2.06695e-09
1.99293e-09
2.11784e-09
1.99786e-09
2.16668e-09
1.98773e-09
2.21654e-09
1.96164e-09
2.26886e-09
1.9238e-09
2.32567e-09
1.86957e-09
2.38861e-09
1.79878e-09
2.45855e-09
1.70015e-09
2.53699e-09
1.58138e-09
2.6242e-09
1.43689e-09
2.72021e-09
1.2302e-09
2.82412e-09
1.0003e-09
2.93236e-09
6.82554e-10
3.04133e-09
3.15013e-10
3.14226e-09
-9.07973e-11
3.22849e-09
-5.29478e-10
3.29173e-09
-9.30466e-10
3.33004e-09
-1.24209e-09
3.34113e-09
-1.48004e-09
3.32664e-09
-1.64462e-09
3.28992e-09
-1.74398e-09
3.23711e-09
-1.79956e-09
3.17222e-09
-1.84158e-09
3.10055e-09
-1.85531e-09
3.02654e-09
-1.86541e-09
2.95254e-09
-1.87274e-09
2.87868e-09
-1.88017e-09
2.80324e-09
-1.87874e-09
2.71566e-09
-1.82371e-09
2.6126e-09
-1.7466e-09
2.4994e-09
-1.68584e-09
2.37681e-09
-1.61499e-09
2.27182e-09
-1.23012e-09
2.17117e-09
-1.00733e-09
2.0749e-09
-8.2174e-10
1.98761e-09
-6.01229e-10
1.91695e-09
-4.03943e-10
1.86351e-09
-1.87276e-10
1.82548e-09
2.22593e-11
1.79498e-09
1.35602e-10
1.76347e-09
1.22351e-10
1.73074e-09
1.01239e-10
1.69762e-09
8.08356e-11
1.66502e-09
6.34206e-11
1.63369e-09
4.9935e-11
1.60417e-09
4.03224e-11
1.57679e-09
3.40017e-11
1.55161e-09
3.02547e-11
1.52848e-09
2.85631e-11
1.50705e-09
2.87374e-11
1.48677e-09
3.09083e-11
1.46689e-09
3.54845e-11
1.44641e-09
4.30945e-11
1.42415e-09
5.45225e-11
1.39874e-09
7.06578e-11
1.36858e-09
9.24785e-11
1.33183e-09
1.21069e-10
1.28633e-09
1.57698e-10
1.22953e-09
2.03957e-10
1.15837e-09
2.61996e-10
1.06913e-09
3.34907e-10
9.57345e-10
4.27198e-10
8.18101e-10
5.44968e-10
6.47623e-10
6.94668e-10
4.47941e-10
8.77668e-10
2.36334e-10
1.07546e-09
5.65075e-11
1.22023e-09
-2.71685e-11
1.15768e-09
6.34358e-10
-4.99372e-11
-2.23611e-10
-1.0652e-10
-4.19817e-10
-1.40338e-10
-5.03659e-10
-1.47647e-10
-5.32566e-10
-1.33244e-10
-5.31995e-10
-1.02983e-10
-5.14768e-10
-6.23333e-11
-4.88297e-10
-1.57325e-11
-4.5752e-10
3.36756e-11
-4.25543e-10
8.37344e-11
-3.94072e-10
1.32995e-10
-3.63941e-10
1.805e-10
-3.355e-10
2.25639e-10
-3.08851e-10
2.68029e-10
-2.83967e-10
3.07452e-10
-2.60778e-10
3.43805e-10
-2.39203e-10
3.77066e-10
-2.19176e-10
4.07272e-10
-2.00666e-10
4.34514e-10
-1.83686e-10
4.58929e-10
-1.68312e-10
4.80709e-10
-1.54686e-10
5.00112e-10
-1.43037e-10
5.17473e-10
-1.33707e-10
5.3322e-10
-1.27165e-10
5.47893e-10
-1.2405e-10
5.62156e-10
-1.25183e-10
5.76812e-10
-1.31614e-10
5.92806e-10
-1.44666e-10
6.11206e-10
-1.65982e-10
6.33145e-10
-1.97606e-10
6.56445e-10
-2.48346e-10
6.65353e-10
-3.49663e-10
6.56946e-10
-4.83886e-10
6.37394e-10
-6.35014e-10
6.13212e-10
-7.96887e-10
5.86839e-10
-9.8595e-10
5.59003e-10
-1.18364e-09
5.257e-10
-1.36465e-09
4.94822e-10
-1.52036e-09
4.71929e-10
-1.66682e-09
4.55766e-10
-1.79619e-09
4.43967e-10
-1.90382e-09
4.35128e-10
-1.98668e-09
4.27058e-10
-2.04518e-09
4.1682e-10
-2.07671e-09
4.01616e-10
-2.07938e-09
3.79317e-10
-2.05415e-09
3.47974e-10
-1.99891e-09
3.0709e-10
-1.91538e-09
2.57208e-10
-1.80589e-09
2.00221e-10
-1.67532e-09
1.38936e-10
-1.52982e-09
7.7202e-11
-1.36994e-09
1.95935e-11
-1.20781e-09
-2.92894e-11
-1.04521e-09
-6.47582e-11
-8.89281e-10
-8.24338e-11
-7.39232e-10
-7.7288e-11
-5.96464e-10
-4.36494e-11
-4.53473e-10
2.44507e-11
-3.05017e-10
1.31229e-10
-1.45518e-10
2.80363e-10
3.53095e-11
4.67746e-10
2.30314e-10
6.86944e-10
4.46486e-10
9.24468e-10
6.6708e-10
1.16705e-09
8.87995e-10
1.40168e-09
1.10025e-09
1.61807e-09
1.29196e-09
1.81003e-09
1.45984e-09
1.97451e-09
1.60389e-09
2.11198e-09
1.72028e-09
2.22443e-09
1.81106e-09
2.31541e-09
1.87712e-09
2.38914e-09
1.9204e-09
2.44975e-09
1.94337e-09
2.50189e-09
1.94719e-09
2.54932e-09
1.9338e-09
2.5953e-09
1.89917e-09
2.64217e-09
1.84934e-09
2.69145e-09
1.78255e-09
2.74523e-09
1.69054e-09
2.8035e-09
1.56249e-09
2.86711e-09
1.41243e-09
2.93514e-09
1.20226e-09
3.00627e-09
9.53328e-10
3.07606e-09
6.09864e-10
3.14049e-09
2.27751e-10
3.19193e-09
-1.84286e-10
3.22623e-09
-6.13625e-10
3.23758e-09
-9.74687e-10
3.22723e-09
-1.24683e-09
3.19414e-09
-1.45945e-09
3.14328e-09
-1.58469e-09
3.07761e-09
-1.67932e-09
3.0028e-09
-1.72368e-09
2.9234e-09
-1.75102e-09
2.84349e-09
-1.77898e-09
2.76553e-09
-1.79211e-09
2.69102e-09
-1.80881e-09
2.61751e-09
-1.82198e-09
2.54224e-09
-1.82809e-09
2.46157e-09
-1.82351e-09
2.37229e-09
-1.80211e-09
2.27246e-09
-1.76236e-09
2.16154e-09
-1.70287e-09
2.04065e-09
-1.6257e-09
1.91187e-09
-1.53294e-09
1.77737e-09
-1.42021e-09
1.63994e-09
-1.29307e-09
1.50098e-09
-1.15127e-09
1.36249e-09
-9.93388e-10
1.22841e-09
-8.06927e-10
1.10074e-09
-6.1888e-10
9.8598e-10
-4.04911e-10
8.88277e-10
-2.03151e-10
8.13317e-10
4.01948e-13
7.6583e-10
1.84041e-10
7.47129e-10
3.40097e-10
7.59619e-10
4.7197e-10
8.04712e-10
6.03653e-10
8.81295e-10
7.25669e-10
9.87196e-10
8.61705e-10
1.11631e-09
1.00119e-09
1.26048e-09
1.15511e-09
1.41035e-09
1.30043e-09
1.55676e-09
1.44096e-09
1.69316e-09
1.57015e-09
1.81535e-09
1.68145e-09
1.92146e-09
1.77325e-09
2.01198e-09
1.84457e-09
2.08859e-09
1.89619e-09
2.15409e-09
1.92743e-09
2.21195e-09
1.94e-09
2.2656e-09
1.93408e-09
2.31894e-09
1.9083e-09
2.3742e-09
1.86854e-09
2.43419e-09
1.80958e-09
2.50088e-09
1.73209e-09
2.57555e-09
1.62548e-09
2.65966e-09
1.49727e-09
2.75294e-09
1.34361e-09
2.85518e-09
1.12796e-09
2.96403e-09
8.9145e-10
3.07435e-09
5.7224e-10
3.18101e-09
2.08355e-10
3.27382e-09
-1.83609e-10
3.34562e-09
-6.01276e-10
3.38846e-09
-9.73312e-10
3.40201e-09
-1.25564e-09
3.38587e-09
-1.46391e-09
3.34595e-09
-1.6047e-09
3.28736e-09
-1.6854e-09
3.21681e-09
-1.72902e-09
3.13934e-09
-1.76413e-09
3.06063e-09
-1.77659e-09
2.98358e-09
-1.78835e-09
2.90898e-09
-1.79812e-09
2.83416e-09
-1.80534e-09
2.75649e-09
-1.80104e-09
2.66544e-09
-1.73263e-09
2.55817e-09
-1.63932e-09
2.44001e-09
-1.56769e-09
2.31258e-09
-1.48758e-09
2.20694e-09
-1.12451e-09
2.10862e-09
-9.09024e-10
2.01689e-09
-7.30016e-10
1.93596e-09
-5.20296e-10
1.872e-09
-3.39976e-10
1.82556e-09
-1.40835e-10
1.79499e-09
5.2838e-11
1.77083e-09
1.59761e-10
1.74188e-09
1.51304e-10
1.70806e-09
1.35055e-10
1.6706e-09
1.18294e-10
1.63112e-09
1.02899e-10
1.59123e-09
8.98256e-11
1.5523e-09
7.92559e-11
1.51533e-09
7.09731e-11
1.48089e-09
6.46911e-11
1.44915e-09
6.03039e-11
1.41989e-09
5.79919e-11
1.39258e-09
5.82196e-11
1.36638e-09
6.16841e-11
1.34023e-09
6.92508e-11
1.31285e-09
8.18978e-11
1.28282e-09
1.00688e-10
1.24852e-09
1.26778e-10
1.20813e-09
1.61465e-10
1.15955e-09
2.06274e-10
1.10039e-09
2.63116e-10
1.02785e-09
3.34533e-10
9.38685e-10
4.24076e-10
8.29236e-10
5.36647e-10