/*--------------------------------*- C++ -*----------------------------------*\
| =========                 |                                                 |
| \\      /  F ield         | OpenFOAM: The Open Source CFD Toolbox           |
|  \\    /   O peration     | Version:  2506                                  |
|   \\  /    A nd           | Website:  www.openfoam.com                      |
|    \\/     M anipulation  |                                                 |
\*---------------------------------------------------------------------------*/
FoamFile
{
    version     2.0;
    format      ascii;
    arch        "LSB;label=32;scalar=64";
    class       volScalarField;
    location    "2";
    object      s;
}
// * * * * * * * * * * * * * * * * * * * * * * * * * * * * * * * * * * * * * //

dimensions      [0 0 0 0 0 0 0];

internalField   nonuniform List<scalar> 
4000
(
3.54229e-11
3.95386e-11
4.81003e-11
6.16196e-11
8.09706e-11
1.08054e-10
1.45688e-10
1.979e-10
2.70154e-10
3.6953e-10
5.04953e-10
6.87547e-10
9.31297e-10
1.25428e-09
1.68073e-09
2.2442e-09
2.99213e-09
3.9918e-09
5.33818e-09
7.16427e-09
9.65256e-09
1.30473e-08
1.76709e-08
2.39446e-08
3.24143e-08
4.37846e-08
5.89734e-08
7.91488e-08
1.05973e-07
1.41316e-07
1.87467e-07
2.56527e-07
3.61248e-07
5.12067e-07
7.28571e-07
1.04614e-06
1.51365e-06
2.26336e-06
3.53186e-06
5.63365e-06
9.28955e-06
1.56558e-05
2.66566e-05
4.51642e-05
7.46097e-05
0.000117792
0.000174727
0.000243861
0.000329536
0.000446047
0.00058961
0.000699066
0.000787978
0.000855117
0.000890348
0.000876705
0.000823514
0.00073133
0.000625546
0.000381898
0.000131983
-1.36604e-05
-4.87571e-05
-3.06485e-05
-1.46328e-05
-6.50562e-06
-2.82021e-06
-1.19308e-06
-4.97629e-07
-2.065e-07
-8.56033e-08
-3.55504e-08
-1.48264e-08
-6.238e-09
-2.66927e-09
-1.17554e-09
-5.41041e-10
-2.65519e-10
-1.41349e-10
-8.28131e-11
-5.38399e-11
-3.93972e-11
-3.19839e-11
-2.93676e-11
-3.03216e-11
-3.74439e-11
-5.57116e-11
-1.07235e-10
-2.19044e-10
-4.57889e-10
-1.01677e-09
-2.25635e-09
-5.71241e-09
-1.74115e-08
-7.40666e-08
-2.38581e-07
-7.6399e-07
-2.41787e-07
1.32501e-06
-1.17152e-06
1.29921e-05
0.000210908
0.00232455
0.00909436
0.00397755
-0.0242077
-0.0927951
-0.191322
-0.304232
-0.434886
-0.629916
-0.963947
-1.43552
-1.97911
-2.73673
-3.00863
-2.92517
-2.36983
-1.45617
-0.642914
-0.193122
-0.0356092
-0.0083592
-0.00259949
-0.000841503
-0.000212404
-4.7244e-05
-1.26656e-05
-4.57507e-06
-1.11343e-06
-8.15306e-09
1.47065e-07
8.79965e-08
4.08281e-08
1.70436e-08
6.77549e-09
2.6496e-09
1.04264e-09
4.22145e-10
1.79632e-10
8.48027e-11
4.9773e-11
3.817e-11
3.82814e-11
4.78988e-11
7.4735e-11
1.49347e-10
2.8419e-10
7.1701e-10
1.21014e-09
7.21636e-09
1.82027e-08
6.53961e-08
2.4225e-07
3.75075e-07
-3.41541e-07
1.29215e-06
1.89726e-05
-1.03931e-05
-0.000351485
-0.00576585
-0.00909201
0.00807985
0.0558203
0.146676
0.296472
0.361581
0.342573
0.279219
0.117675
-0.121431
-0.467533
-0.851612
-1.02041
-1.07779
-1.08233
-1.04834
-0.982304
-0.891609
-0.784309
-0.667413
-0.546127
-0.416108
-0.257574
-0.0922766
0.0823759
0.284713
0.535238
0.851866
1.25505
1.77113
2.3495
2.81551
3.23831
3.66195
4.07279
4.44472
4.77393
4.92395
3.01441
9.10134e-15
1.04602e-14
2.01997e-14
3.69671e-14
6.66019e-14
1.18959e-13
2.09626e-13
3.63075e-13
6.17255e-13
1.03053e-12
1.69235e-12
2.73963e-12
4.38108e-12
6.93368e-12
1.08765e-11
1.69301e-11
2.61716e-11
4.02002e-11
6.13636e-11
9.35363e-11
1.4398e-10
2.24981e-10
3.55303e-10
5.63332e-10
8.91319e-10
1.40137e-09
2.18525e-09
3.37925e-09
5.1773e-09
7.97049e-09
1.13029e-08
1.1978e-08
9.69123e-09
6.56568e-09
3.93755e-09
2.11786e-09
1.03721e-09
4.93206e-10
3.13137e-10
3.41835e-10
5.19561e-10
8.70643e-10
1.48184e-09
2.49292e-09
4.06265e-09
6.30497e-09
9.2276e-09
1.28932e-08
1.7744e-08
2.43597e-08
3.17841e-08
3.86499e-08
4.60931e-08
5.45625e-08
6.47551e-08
7.82456e-08
1.05457e-07
2.72255e-07
8.63839e-06
0.000143967
6.49122e-05
-0.000111043
-0.000283151
-0.000230415
-0.000132326
-5.83232e-05
-2.42249e-05
-1.06779e-05
-4.81236e-06
-2.19522e-06
-1.01876e-06
-4.78329e-07
-2.25746e-07
-1.06914e-07
-5.09171e-08
-2.45003e-08
-1.1996e-08
-6.04938e-09
-3.17863e-09
-1.76561e-09
-1.05332e-09
-6.9105e-10
-4.99134e-10
-4.05779e-10
-3.71527e-10
-4.02671e-10
-5.23886e-10
-8.34471e-10
-1.39194e-09
-2.46402e-09
-3.97586e-09
-7.95016e-09
-1.78208e-08
-5.57495e-08
-1.75634e-07
-6.04709e-07
-1.91629e-06
-4.30076e-06
-2.16662e-05
-7.26574e-05
-7.07765e-05
0.000126546
0.000332426
-0.00634753
-0.0359038
-0.0842221
-0.134242
-0.173203
-0.201366
-0.227267
-0.262779
-0.307144
-0.347635
-0.365934
-0.335696
-0.264761
-0.17278
-0.614304
-1.18932
-1.11931
-0.751623
-0.343793
-0.113693
-0.022889
-0.00404847
-0.00123823
-0.000387692
-7.69352e-05
6.72963e-06
1.41078e-05
8.11802e-06
3.85437e-06
1.70424e-06
7.15967e-07
2.87248e-07
1.11096e-07
4.19898e-08
1.57114e-08
5.92191e-09
2.32693e-09
1.04577e-09
6.11443e-10
4.64422e-10
4.30317e-10
4.74511e-10
6.63207e-10
1.1252e-09
1.73555e-09
4.19939e-09
8.21724e-09
2.64793e-08
8.11823e-08
2.57065e-07
9.17471e-07
1.95896e-06
6.13527e-06
3.80149e-05
5.51236e-05
-4.70592e-05
-0.000257042
0.000312054
0.0170068
0.0659862
0.114159
0.146393
0.143827
0.11529
0.0604566
-0.0200659
-0.115187
-0.231713
-0.377907
-0.527189
-0.642668
-0.702562
-0.704378
-0.655323
-0.56244
-0.44397
-0.324788
-0.243668
-0.188018
-0.120936
-0.0381286
0.0392747
0.103845
0.152463
0.177291
0.18263
0.190954
0.209931
0.24535
0.307928
0.417414
0.609073
0.958245
1.6323
2.9129
4.45369
4.08257
5.54683e-18
1.94443e-18
2.80412e-18
4.73625e-19
-3.78691e-18
-3.41067e-18
4.75916e-17
2.20343e-16
6.16956e-16
1.38332e-15
2.72141e-15
4.95991e-15
8.91122e-15
1.5738e-14
2.73034e-14
4.65747e-14
7.82053e-14
1.29381e-13
2.11013e-13
3.39428e-13
5.38461e-13
8.41947e-13
1.2967e-12
1.96616e-12
2.93459e-12
4.31115e-12
6.23248e-12
8.86209e-12
1.23765e-11
1.69672e-11
2.19504e-11
2.25094e-11
1.78848e-11
1.12729e-11
5.53583e-12
1.78468e-12
1.03703e-13
-1.56733e-13
-7.00112e-14
-6.42988e-15
3.37718e-14
6.19445e-14
1.03242e-13
1.68265e-13
2.65825e-13
4.02275e-13
5.80933e-13
8.15758e-13
1.14366e-12
1.592e-12
2.12059e-12
2.71586e-12
3.49991e-12
4.60548e-12
7.35821e-12
4.23765e-11
7.82425e-10
1.89757e-08
6.55327e-07
7.84807e-06
-8.87505e-06
-0.000110162
-0.000316656
-0.000511551
-0.000447417
-0.00029916
-0.00015246
-6.52281e-05
-3.07305e-05
-1.60147e-05
-8.5981e-06
-4.60965e-06
-2.44822e-06
-1.2859e-06
-6.6807e-07
-3.44058e-07
-1.76368e-07
-9.07826e-08
-4.73233e-08
-2.52994e-08
-1.41027e-08
-8.40911e-09
-5.43101e-09
-3.92677e-09
-3.24219e-09
-3.2402e-09
-4.00335e-09
-6.06021e-09
-9.57833e-09
-1.63952e-08
-2.77455e-08
-5.18831e-08
-1.019e-07
-2.56151e-07
-7.07276e-07
-2.17191e-06
-5.73699e-06
-1.98596e-05
-9.30859e-05
-0.000186586
-0.000106158
0.000316849
-0.00514252
-0.0371867
-0.0989339
-0.168973
-0.229136
-0.274328
-0.311032
-0.351052
-0.395296
-0.426922
-0.435581
-0.433467
-0.405565
-0.3298
-0.22161
-0.0849327
-0.239384
-0.562858
-0.679439
-0.545551
-0.3279
-0.150043
-0.0507534
-0.0108507
-0.00108141
0.000214245
0.000329736
0.000178954
8.01753e-05
3.81991e-05
1.78289e-05
7.77033e-06
3.1847e-06
1.24928e-06
4.75474e-07
1.7772e-07
6.75932e-08
2.87232e-08
1.56649e-08
1.07761e-08
6.67573e-09
3.77224e-09
3.32658e-09
4.63479e-09
8.16206e-09
1.53857e-08
2.77321e-08
5.04267e-08
1.21944e-07
3.5306e-07
1.11003e-06
3.21429e-06
8.95337e-06
4.95042e-05
0.000117208
8.01685e-05
-0.000171536
-2.11026e-05
0.0180191
0.0692345
0.141347
0.189741
0.201322
0.181691
0.121217
0.0222041
-0.0989185
-0.227576
-0.362667
-0.508425
-0.652116
-0.772528
-0.847297
-0.862172
-0.815979
-0.71551
-0.575906
-0.420229
-0.266881
-0.125748
-0.000171765
0.106372
0.173971
0.186551
0.184246
0.173064
0.152788
0.114836
0.0668136
0.0295998
0.0163364
0.0102975
0.00691192
0.00560851
0.151402
1.24561
3.72656
3.66427
4.91439e-18
2.0436e-19
3.32872e-18
5.33168e-18
-3.6981e-19
-2.63273e-17
-7.84166e-17
-1.51889e-16
-2.30973e-16
-2.80726e-16
-2.2641e-16
-6.92891e-17
-2.0872e-17
-2.4822e-18
6.58355e-18
1.81628e-17
4.78123e-17
1.18578e-16
2.64166e-16
5.30148e-16
9.80103e-16
1.70135e-15
2.74208e-15
3.79753e-15
3.63789e-15
-1.46556e-15
-1.97274e-14
-6.84052e-14
-1.80786e-13
-4.25147e-13
-9.04964e-13
-1.55972e-12
-2.00831e-12
-2.08318e-12
-1.91457e-12
-1.62549e-12
-9.91935e-13
-3.31129e-13
-2.5426e-14
-3.16392e-15
-1.691e-15
-7.18012e-16
-3.03196e-16
-1.01479e-16
-1.7712e-17
1.73929e-17
2.88062e-17
4.14592e-17
5.97774e-17
8.58442e-17
1.18958e-16
1.66175e-16
2.34237e-16
4.10034e-15
4.86066e-13
2.38268e-11
6.18951e-10
1.09917e-08
1.17336e-07
2.63938e-06
-2.75782e-06
-3.72691e-05
-0.000178594
-0.000475134
-0.00071922
-0.000726039
-0.000546241
-0.00033353
-0.000192819
-0.000113017
-6.69292e-05
-3.93349e-05
-2.27014e-05
-1.28202e-05
-7.08039e-06
-3.82736e-06
-2.02937e-06
-1.06261e-06
-5.52592e-07
-2.87693e-07
-1.51868e-07
-8.32277e-08
-4.8198e-08
-3.07436e-08
-2.26147e-08
-2.0651e-08
-2.40816e-08
-3.42471e-08
-5.18878e-08
-8.17901e-08
-1.32349e-07
-2.27164e-07
-4.36407e-07
-9.92488e-07
-2.65159e-06
-7.14753e-06
-2.06614e-05
-9.45479e-05
-0.000278963
-0.000313218
-5.32689e-06
-0.00643354
-0.0446692
-0.120907
-0.20878
-0.283055
-0.332507
-0.363468
-0.387867
-0.413143
-0.429803
-0.437532
-0.426476
-0.382746
-0.294507
-0.178609
-0.0615788
0.0571933
0.15336
0.0526035
-0.160477
-0.293155
-0.298462
-0.233217
-0.140915
-0.0662345
-0.0218251
-0.00340855
0.00130827
0.00111244
0.000665206
0.000338284
0.000157192
6.96921e-05
2.97409e-05
1.21965e-05
4.82213e-06
1.84686e-06
6.88983e-07
2.55424e-07
1.06543e-07
6.01243e-08
3.52256e-08
2.96321e-08
3.1143e-08
3.63351e-08
6.61421e-08
1.18769e-07
1.65077e-07
2.65439e-07
5.55931e-07
1.55494e-06
4.29807e-06
1.1882e-05
5.53386e-05
0.00017633
0.000189738
1.80439e-05
0.00101584
0.0248932
0.0884628
0.169014
0.229502
0.238703
0.206577
0.112883
-0.0218936
-0.17779
-0.334606
-0.478603
-0.6125
-0.746317
-0.866975
-0.951607
-0.9798
-0.948518
-0.847494
-0.687056
-0.497707
-0.305848
-0.128569
0.0234937
0.135803
0.175757
0.175234
0.163438
0.129828
0.0856812
0.0467591
0.0223086
0.0109169
0.00532069
0.00228025
0.00103588
0.000367716
0.00228588
-0.00368701
0.329247
2.93205
2.45373
-1.32739e-18
-1.05009e-18
-9.20809e-19
2.45307e-18
1.10512e-17
2.40315e-17
3.64059e-17
4.341e-17
4.18554e-17
3.14795e-17
1.57689e-17
5.7668e-18
3.17647e-18
8.13648e-20
-9.81971e-18
-3.19498e-17
-7.01897e-17
-1.24654e-16
-1.90325e-16
-2.56618e-16
-3.02116e-16
-2.88656e-16
-2.12764e-16
4.42972e-17
-8.77335e-17
-2.27924e-15
-1.00454e-14
-3.17602e-14
-8.09784e-14
-1.81542e-13
-3.4463e-13
-3.93794e-13
-2.78694e-13
-1.44484e-13
-6.08356e-14
-1.83751e-14
-4.01123e-15
-5.80748e-16
6.87515e-18
1.13518e-16
2.34107e-16
1.11455e-16
3.71107e-17
8.28201e-18
-4.03285e-18
-8.94501e-18
-1.25393e-17
-1.75326e-17
-2.52153e-17
-3.62121e-17
-5.18888e-17
-6.7471e-17
-1.3173e-16
2.10925e-15
1.34875e-13
4.57726e-12
1.0182e-10
2.04256e-09
3.7613e-08
1.16393e-06
2.17518e-06
-1.3921e-05
-9.69285e-05
-0.000376515
-0.00100582
-0.0016304
-0.00176313
-0.00146024
-0.00105193
-0.000710059
-0.000462112
-0.00029184
-0.000179035
-0.000106693
-6.17623e-05
-3.4774e-05
-1.90731e-05
-1.02273e-05
-5.36738e-06
-2.77145e-06
-1.42255e-06
-7.36376e-07
-3.89224e-07
-2.20505e-07
-1.41805e-07
-1.12201e-07
-1.189e-07
-1.64049e-07
-2.49658e-07
-3.93213e-07
-6.32874e-07
-1.07448e-06
-2.07585e-06
-4.22848e-06
-1.01379e-05
-2.58183e-05
-9.77074e-05
-0.00031294
-0.000546706
-0.000346632
-0.00831507
-0.0536909
-0.14544
-0.253013
-0.343421
-0.398994
-0.42448
-0.434455
-0.440494
-0.441561
-0.437535
-0.414824
-0.357705
-0.264658
-0.148876
-0.0281469
0.0803313
0.162738
0.214955
0.214312
0.162823
0.0497805
-0.0704434
-0.128729
-0.128659
-0.0985341
-0.0553315
-0.021376
-0.0030606
0.00298249
0.00344199
0.00215377
0.00109764
0.000516372
0.000233639
0.0001024
4.32762e-05
1.74282e-05
6.61368e-06
2.31781e-06
6.65295e-07
-4.48681e-08
-2.30771e-07
-1.57244e-07
-7.00008e-08
2.01698e-08
2.87341e-07
7.11611e-07
9.16143e-07
1.41638e-06
2.88515e-06
6.79207e-06
1.67143e-05
5.91432e-05
0.000217907
0.000326122
0.000186548
0.00340387
0.034961
0.112439
0.20676
0.267815
0.271956
0.21832
0.0860366
-0.0954965
-0.289274
-0.476434
-0.642052
-0.777612
-0.889049
-0.984024
-1.04482
-1.0536
-1.02481
-0.928598
-0.764226
-0.559039
-0.341864
-0.137274
0.0362331
0.150756
0.170684
0.163568
0.135233
0.0871756
0.0415552
0.0136539
0.00472636
0.00186815
0.000734413
0.000273421
8.48988e-05
0.000101116
-0.000113582
0.00114923
-0.00938647
0.141437
2.34587
0.489608
-3.9549e-18
1.14188e-19
-1.23677e-18
-3.65406e-18
-6.71647e-18
-8.87371e-18
-9.07557e-18
-7.61982e-18
-5.25209e-18
-3.01637e-18
-1.32097e-18
3.6713e-19
3.68143e-18
9.82944e-18
1.89156e-17
2.9801e-17
4.03285e-17
4.79162e-17
5.02161e-17
4.58873e-17
3.30685e-17
6.85472e-18
-3.09092e-17
-3.64954e-17
-4.55211e-18
-5.32195e-17
-4.91543e-16
-1.49852e-15
-3.56536e-15
-6.61293e-15
-6.70533e-15
-2.63806e-15
-7.00926e-16
-1.19885e-16
5.33356e-17
2.41705e-16
6.75711e-16
2.52571e-16
1.94043e-17
-4.23714e-17
-3.63343e-17
-1.49916e-17
-4.31714e-18
3.62615e-19
2.73585e-18
4.15227e-18
5.66807e-18
7.80658e-18
1.09332e-17
1.50445e-17
1.99724e-17
2.78651e-17
1.22639e-17
3.99341e-17
1.02816e-14
4.84114e-13
1.48206e-11
3.13851e-10
5.4591e-09
6.54203e-08
2.12923e-06
-1.1964e-06
-5.85816e-05
-0.000316885
-0.00113182
-0.00295818
-0.00499695
-0.00588725
-0.00518214
-0.00395971
-0.00279222
-0.00186936
-0.00120508
-0.000751293
-0.000453245
-0.00026455
-0.0001495
-8.22231e-05
-4.41393e-05
-2.31231e-05
-1.181e-05
-5.93568e-06
-2.97399e-06
-1.51427e-06
-8.05768e-07
-5.10813e-07
-4.66545e-07
-6.35939e-07
-1.01302e-06
-1.63451e-06
-2.58551e-06
-4.42425e-06
-8.05877e-06
-1.58679e-05
-3.63519e-05
-0.000112109
-0.000347857
-0.000758444
-0.000812368
-0.0111187
-0.0649513
-0.174215
-0.302535
-0.410416
-0.47246
-0.490096
-0.483205
-0.46943
-0.453565
-0.430782
-0.388982
-0.316424
-0.213872
-0.0977549
0.0204607
0.125857
0.202042
0.237498
0.233246
0.207928
0.179817
0.147848
0.0889712
0.0212235
-0.031949
-0.0496722
-0.0409498
-0.019689
0.000999559
0.0122766
0.0137718
0.0100527
0.00594019
0.00315181
0.00157179
0.00074615
0.000339945
0.000148846
6.11354e-05
2.1132e-05
4.27425e-06
-1.41986e-06
-3.27993e-06
-2.85657e-06
-2.06611e-06
-1.19664e-06
1.17884e-07
1.83238e-06
2.50072e-06
5.77974e-06
1.24963e-05
2.7286e-05
8.32668e-05
0.000220271
0.000486174
0.000385429
0.00743361
0.0489744
0.140362
0.250166
0.30916
0.303485
0.211702
0.0359599
-0.187513
-0.418554
-0.622749
-0.792216
-0.927302
-1.02974
-1.07792
-1.08997
-1.08541
-1.05533
-0.962776
-0.80491
-0.597754
-0.369008
-0.147622
0.0407361
0.156592
0.166352
0.151871
0.108417
0.055414
0.0170919
0.00391229
0.00104772
0.000245457
2.88169e-05
-1.74499e-05
-1.95738e-05
-1.10259e-05
-1.8231e-05
-0.000137142
0.000258401
-0.013617
0.104891
1.82063
-2.28013
2.28782e-18
5.5423e-19
1.14001e-18
1.86957e-18
2.30345e-18
2.16433e-18
1.63996e-18
1.0689e-18
5.69776e-19
6.51537e-20
-7.39603e-19
-2.13729e-18
-4.17476e-18
-6.48125e-18
-8.4903e-18
-9.65436e-18
-9.69544e-18
-8.63172e-18
-6.74832e-18
-4.51024e-18
-1.72836e-18
2.70047e-19
-1.94519e-18
-4.74762e-18
4.03946e-17
3.87344e-17
6.37757e-17
1.14901e-16
1.97448e-16
2.68906e-16
3.57065e-16
4.74755e-16
3.33596e-16
1.44979e-16
2.7086e-17
-3.01462e-17
-1.09966e-16
-6.06624e-17
-1.02426e-17
6.93947e-18
5.83551e-18
2.31164e-18
5.2961e-19
-3.49301e-19
-8.61349e-19
-1.26688e-18
-1.73994e-18
-2.38602e-18
-3.27223e-18
-4.37169e-18
-5.23758e-18
-8.88502e-18
1.07448e-17
-1.00551e-16
2.46508e-17
1.06177e-14
5.41965e-13
2.45033e-11
8.35977e-10
1.83502e-08
1.49969e-07
2.91916e-06
-8.44014e-06
-0.000155309
-0.00083661
-0.00308011
-0.00798705
-0.0139852
-0.0185422
-0.0175783
-0.014167
-0.0103225
-0.00699967
-0.00451285
-0.00280595
-0.00169293
-0.000991097
-0.000563138
-0.000309634
-0.000165034
-8.59536e-05
-4.38322e-05
-2.14179e-05
-1.00372e-05
-4.7198e-06
-2.42327e-06
-1.67457e-06
-2.06011e-06
-3.50361e-06
-6.08828e-06
-1.0155e-05
-1.7593e-05
-3.15352e-05
-6.28077e-05
-0.000154422
-0.000434751
-0.00100387
-0.00147368
-0.0152273
-0.0793579
-0.207598
-0.358716
-0.482787
-0.549835
-0.558151
-0.534253
-0.498528
-0.460854
-0.415914
-0.353367
-0.264538
-0.155874
-0.0381802
0.0734506
0.170762
0.240561
0.269161
0.25592
0.210991
0.154407
0.108804
0.0864868
0.0743541
0.057443
0.0345353
0.0186533
0.0126542
0.0204225
0.0353509
0.0472514
0.0490368
0.0405395
0.0274201
0.0160265
0.00874039
0.00460342
0.00232591
0.0011017
0.000483731
0.000193865
6.5427e-05
5.43423e-06
-2.26447e-05
-2.67681e-05
-2.19669e-05
-1.45008e-05
-6.40883e-06
-2.83343e-06
3.60853e-06
2.50042e-05
5.42731e-05
0.000129958
0.000323689
0.000672395
0.000752638
0.0135478
0.0697948
0.175801
0.29292
0.351379
0.328663
0.213221
-0.0302425
-0.290716
-0.536008
-0.740013
-0.893738
-0.998213
-1.07052
-1.09578
-1.09246
-1.07956
-1.04597
-0.959454
-0.80685
-0.606467
-0.380354
-0.155302
0.0393425
0.158271
0.165269
0.143556
0.0902996
0.0367997
0.00675376
0.000862087
2.69919e-05
-7.40557e-05
-5.52368e-05
-3.06589e-05
-1.52437e-05
-1.04309e-05
-7.37804e-06
-2.19402e-05
-0.000185177
-0.0012753
-0.0193177
0.0782749
1.05744
-4.66536
-5.23124e-19
-4.34929e-19
-5.26819e-19
-6.30194e-19
-5.81581e-19
-4.16369e-19
-2.48251e-19
-1.09743e-19
5.84884e-20
3.36012e-19
7.67097e-19
1.30115e-18
1.7962e-18
2.09206e-18
2.11716e-18
1.89285e-18
1.51644e-18
1.09401e-18
7.1572e-19
4.14414e-19
2.04178e-19
2.12928e-19
8.94698e-20
-1.73257e-19
2.89638e-18
9.51678e-18
3.1327e-17
6.3559e-17
7.41457e-17
5.2792e-17
3.30888e-17
6.31328e-18
-3.22761e-17
-3.66275e-17
-1.6228e-17
1.65242e-18
1.68619e-17
1.32016e-17
3.93023e-18
-7.12783e-19
-1.01863e-18
-4.38385e-19
-8.94324e-20
8.66432e-20
1.99046e-19
3.02143e-19
4.22682e-19
5.79557e-19
7.78256e-19
1.01428e-18
1.06702e-18
2.27142e-18
-5.88277e-18
4.2609e-17
8.52983e-17
2.19689e-15
1.48388e-13
3.24764e-12
3.65994e-11
8.8404e-10
3.61835e-08
4.55311e-07
3.71672e-06
-1.52968e-05
-0.000279212
-0.00166743
-0.00634677
-0.0176635
-0.030749
-0.0516663
-0.0530431
-0.0455198
-0.0345783
-0.0236524
-0.0150514
-0.00921534
-0.00551079
-0.00324105
-0.00186423
-0.0010373
-0.000551037
-0.000278784
-0.000136604
-6.5975e-05
-2.96812e-05
-1.22309e-05
-6.27045e-06
-6.37692e-06
-1.10442e-05
-2.04595e-05
-3.63879e-05
-6.4556e-05
-0.000119593
-0.000257598
-0.000651304
-0.00141745
-0.00255105
-0.0211561
-0.0982047
-0.246951
-0.421648
-0.561751
-0.630969
-0.621885
-0.58263
-0.523301
-0.460841
-0.39323
-0.310978
-0.209447
-0.094423
0.0201155
0.125502
0.213151
0.275578
0.298887
0.281952
0.224744
0.146529
0.0791242
0.0355817
0.0182133
0.0187809
0.024539
0.029722
0.0355913
0.0508613
0.0730124
0.098244
0.119096
0.128865
0.122847
0.10146
0.0713969
0.0437674
0.0244008
0.0130156
0.00677859
0.00337105
0.00150162
0.000523287
9.03404e-05
-9.05355e-05
-0.000161262
-0.000147382
-0.000113553
-8.47875e-05
-4.88445e-05
1.7093e-05
0.000114946
0.000252008
0.000582106
0.000984263
0.00189203
0.0236964
0.0990748
0.223041
0.340068
0.393464
0.349246
0.190388
-0.081829
-0.386042
-0.62972
-0.804232
-0.911807
-0.986396
-1.02336
-1.02703
-1.02711
-1.01385
-0.96969
-0.883245
-0.749843
-0.573552
-0.367747
-0.154265
0.0369955
0.158796
0.167475
0.140637
0.0816496
0.0276874
0.00278342
-8.58573e-05
-0.000202553
-0.000124749
-5.36299e-05
-1.95884e-05
-8.7197e-06
-4.0537e-06
-2.91284e-06
-2.76776e-06
-1.99578e-05
-0.000365538
-0.00413663
-0.0475766
-0.0821944
-0.146564
-4.92895
5.42863e-20
1.69993e-19
1.70239e-19
1.63711e-19
1.20657e-19
6.76398e-20
2.39018e-20
-2.65334e-20
-1.07185e-19
-2.23867e-19
-3.55268e-19
-4.59588e-19
-4.99267e-19
-4.66521e-19
-3.85687e-19
-2.8796e-19
-1.99136e-19
-1.30316e-19
-7.99627e-20
-3.9063e-20
-2.00574e-20
-4.97384e-20
-1.99495e-19
-8.61918e-19
-2.37178e-18
-2.98773e-18
-3.91722e-18
-4.91603e-18
-6.25641e-18
-7.56037e-18
-6.24507e-18
-1.91074e-18
6.42205e-18
1.08469e-17
6.99689e-18
1.19728e-18
-2.52472e-18
-2.98114e-18
-1.35185e-18
-8.93234e-20
1.78637e-19
1.01046e-19
2.75649e-20
-1.07749e-20
-3.55386e-20
-5.86256e-20
-8.44806e-20
-1.16203e-19
-1.52963e-19
-1.93055e-19
-1.90199e-19
-3.40071e-19
1.30728e-18
-1.41781e-17
7.03591e-17
-1.72842e-15
-9.89296e-15
1.28568e-13
3.76744e-12
4.34347e-11
8.87318e-10
3.96663e-08
6.01662e-07
7.28986e-06
-1.0296e-05
-0.000365975
-0.00248827
-0.0106401
-0.0295375
-0.0589408
-0.0867428
-0.104587
-0.102134
-0.0873969
-0.0668872
-0.0461952
-0.0288419
-0.0167134
-0.0094599
-0.0053044
-0.00295086
-0.00161227
-0.000828661
-0.000378846
-0.000158655
-6.78778e-05
-3.06036e-05
-2.29164e-05
-3.71978e-05
-7.06992e-05
-0.000129429
-0.00023982
-0.000481461
-0.00108412
-0.00221387
-0.00454984
-0.0301983
-0.123357
-0.294408
-0.491586
-0.647066
-0.711948
-0.694813
-0.629564
-0.54153
-0.453068
-0.363633
-0.265511
-0.155754
-0.0408108
0.0695537
0.166862
0.248024
0.305621
0.327691
0.311203
0.248338
0.154416
0.0702573
0.0195716
0.00213938
0.000107676
0.000394517
0.0031379
0.0100856
0.026461
0.0613511
0.113461
0.174036
0.231113
0.265849
0.276697
0.262893
0.225555
0.17218
0.115716
0.0685684
0.0360403
0.0179569
0.00868777
0.00401677
0.00147892
-2.83071e-05
-0.000593023
-0.000659829
-0.000554579
-0.00036292
-0.000119736
0.000195485
0.000557654
0.00115803
0.00186948
0.00612607
0.0419312
0.13731
0.283493
0.39322
0.430924
0.360299
0.146405
-0.15216
-0.461626
-0.686079
-0.809789
-0.882374
-0.874578
-0.851955
-0.823265
-0.80018
-0.785056
-0.764663
-0.713652
-0.621804
-0.488702
-0.32155
-0.136036
0.0399743
0.16047
0.172602
0.143342
0.0802987
0.0245871
0.00131649
-0.000366043
-0.000243494
-0.000124094
-3.76258e-05
-6.66889e-06
-1.40661e-06
-4.0887e-07
-1.4804e-07
-1.2426e-07
-1.42332e-06
-2.84577e-05
-0.000672592
-0.0124483
-0.166857
-0.678125
-2.13413
-4.4209
7.3413e-22
-4.23862e-20
-4.26064e-20
-3.51284e-20
-2.12048e-20
-7.08232e-21
7.48807e-21
2.88572e-20
5.87237e-20
9.08953e-20
1.14398e-19
1.20235e-19
1.0755e-19
8.41221e-20
5.97988e-20
3.99682e-20
2.60584e-20
1.65073e-20
9.08011e-21
4.54833e-21
9.84136e-21
2.47436e-20
2.21172e-20
-8.7493e-20
-4.33556e-19
-1.01817e-18
-1.82604e-18
-2.21617e-18
-1.87633e-18
-1.03002e-18
-5.21529e-19
-4.87394e-19
-1.58371e-18
-2.89161e-18
-2.3622e-18
-7.39129e-19
3.40589e-19
7.03098e-19
4.34275e-19
9.4011e-20
-2.45592e-20
-2.53047e-20
-1.02008e-20
-1.03549e-21
4.63939e-21
9.43069e-21
1.42789e-20
1.96782e-20
2.52931e-20
2.86484e-20
3.70978e-20
-6.68317e-20
3.71368e-19
-1.1924e-18
5.00835e-18
-1.40853e-16
-5.15781e-15
1.06641e-13
2.02177e-12
-3.64388e-12
-1.97245e-10
-5.83364e-10
4.49996e-08
7.91483e-07
1.44153e-05
5.97514e-06
-0.000371641
-0.00292572
-0.0138494
-0.0410094
-0.0848637
-0.128034
-0.172877
-0.171337
-0.156968
-0.132918
-0.103476
-0.0732395
-0.0472256
-0.0277103
-0.0147532
-0.00753495
-0.00380034
-0.00192341
-0.000930717
-0.000352321
-0.000121097
-8.69544e-05
-0.000138299
-0.000259198
-0.00048326
-0.000937541
-0.00195128
-0.00383264
-0.00867558
-0.0442783
-0.157212
-0.353751
-0.569616
-0.735099
-0.78932
-0.758402
-0.667165
-0.551703
-0.437662
-0.329001
-0.219401
-0.107697
0.00121308
0.101202
0.190073
0.266481
0.325488
0.352017
0.340532
0.282037
0.177644
0.0766022
0.015518
0.000229121
-0.000578229
-0.000472346
-0.000356542
0.0001204
0.00262149
0.0138704
0.0493395
0.122279
0.227927
0.338508
0.459284
0.519412
0.523908
0.491465
0.429216
0.344977
0.253256
0.166249
0.0972225
0.0496817
0.0205582
0.00740318
0.00208595
-0.000396546
-0.00111003
-0.00095851
-0.000547283
0.000215043
0.00115654
0.00241773
0.00417218
0.0168821
0.0718665
0.190937
0.347313
0.451075
0.457268
0.359559
0.087053
-0.240262
-0.532146
-0.708505
-0.780419
-0.754848
-0.692652
-0.610957
-0.541962
-0.491714
-0.465662
-0.461001
-0.456453
-0.423219
-0.35028
-0.237381
-0.0944099
0.0547976
0.165522
0.180797
0.150596
0.0840447
0.0251132
0.00108257
-0.000427482
-0.000247051
-0.000106954
-1.97417e-05
-2.03251e-06
-2.17155e-07
2.62952e-09
1.38392e-08
9.77159e-09
-2.21569e-08
-1.43042e-06
-3.93834e-05
-0.000992154
-0.0424297
-0.489665
-1.835
-3.94799
-2.51132
-1.21666e-21
6.9725e-21
8.49589e-21
6.24207e-21
2.58693e-21
-1.58896e-21
-7.03404e-21
-1.44724e-20
-2.24753e-20
-2.82273e-20
-2.94723e-20
-2.60207e-20
-1.98119e-20
-1.35232e-20
-8.7438e-21
-5.58392e-21
-3.59299e-21
-2.23832e-21
-1.35035e-21
-1.14005e-21
-6.66256e-22
4.51773e-21
2.0324e-20
5.02589e-20
8.61181e-20
1.05642e-19
1.32328e-19
1.79325e-19
2.01144e-19
1.4985e-19
7.53915e-20
9.4479e-20
3.38815e-19
7.07855e-19
6.87374e-19
2.87031e-19
-2.36323e-20
-1.65588e-19
-1.31211e-19
-4.37065e-20
-1.09593e-21
5.63014e-21
3.30719e-21
1.15447e-21
-1.85676e-22
-1.15204e-21
-1.94835e-21
-2.61468e-21
-3.08902e-21
-1.8659e-21
-6.17114e-21
5.74337e-20
-3.20138e-19
2.75441e-18
-1.89211e-17
-3.87226e-17
6.13173e-16
3.22514e-14
1.0438e-12
8.66226e-12
-5.90746e-12
-4.9382e-10
-2.71577e-09
-1.21536e-09
6.39203e-07
1.73983e-05
2.93553e-05
-0.000281686
-0.00280395
-0.0140836
-0.0469972
-0.0987159
-0.158274
-0.204766
-0.231789
-0.222516
-0.200727
-0.168657
-0.131272
-0.0944373
-0.0618988
-0.0368367
-0.0197762
-0.0091823
-0.00353272
-0.00138317
-0.000609685
-0.000430489
-0.000604419
-0.00105169
-0.0019312
-0.00375328
-0.00724528
-0.0170087
-0.0675499
-0.204523
-0.426532
-0.661909
-0.823576
-0.859343
-0.815385
-0.698325
-0.553196
-0.414421
-0.289856
-0.174854
-0.0676438
0.0280507
0.111498
0.187207
0.260285
0.32671
0.366129
0.363601
0.319748
0.214396
0.0972455
0.0196586
0.000384941
-0.000540847
-0.000330955
-0.000201492
-0.000161464
-0.000137482
0.000498886
0.00509429
0.0246588
0.0863546
0.207227
0.370752
0.552562
0.70186
0.799802
0.801924
0.755968
0.669342
0.552616
0.421668
0.295195
0.186699
0.102675
0.0472983
0.0155423
0.00131455
-0.00100527
-0.000709922
0.000417535
0.00225733
0.00517863
0.0100061
0.0382703
0.118257
0.263471
0.415482
0.504451
0.480475
0.328441
0.0228881
-0.340135
-0.57741
-0.714473
-0.702447
-0.618867
-0.496591
-0.372159
-0.265609
-0.19488
-0.158259
-0.155069
-0.173647
-0.189443
-0.175717
-0.121632
-0.0289845
0.0841587
0.176929
0.192036
0.161122
0.0916083
0.0283043
0.00140671
-0.000412227
-0.000237667
-9.29767e-05
-1.22148e-05
-8.39941e-07
1.85238e-08
3.48073e-08
1.5476e-08
7.22632e-09
4.3072e-09
-2.68732e-08
-2.58613e-06
-4.18581e-05
-0.00112488
-0.139625
-1.16594
-3.12541
-4.20069
-0.617135
2.35337e-22
-5.41174e-22
-1.21421e-21
-7.25428e-22
2.59661e-22
1.6164e-21
3.4241e-21
5.43588e-21
6.94962e-21
7.34335e-21
6.53301e-21
4.97457e-21
3.32992e-21
2.07182e-21
1.27952e-21
8.06139e-22
5.12608e-22
3.17578e-22
1.92568e-22
4.361e-23
-4.25434e-22
-1.09347e-21
1.21367e-23
6.99276e-21
2.32133e-20
4.53385e-20
6.23626e-20
5.47517e-20
2.79331e-20
6.40187e-21
6.90668e-22
-1.01611e-20
-6.52343e-20
-1.58561e-19
-1.75782e-19
-9.12849e-20
-8.87547e-21
3.74094e-20
3.74623e-20
1.6444e-20
2.86489e-21
-8.28977e-22
-8.91164e-22
-4.77723e-22
-1.7231e-22
2.36295e-23
1.32044e-22
1.18132e-22
-5.69949e-23
-8.62516e-22
-1.17627e-21
-1.43051e-20
7.7136e-20
-1.09608e-18
7.97998e-18
-4.78255e-18
-2.76839e-16
-4.36735e-16
3.96418e-14
7.16888e-12
3.40178e-11
7.56523e-12
-9.08828e-10
-1.1702e-08
-2.94809e-08
5.2194e-07
1.23063e-05
6.82053e-05
-0.00016166
-0.00200441
-0.0122326
-0.0427806
-0.0964973
-0.16405
-0.218667
-0.254551
-0.255154
-0.242727
-0.214482
-0.17545
-0.132728
-0.0924297
-0.0587405
-0.0333857
-0.0164227
-0.00681754
-0.00260225
-0.001951
-0.00268362
-0.00440754
-0.00789307
-0.0143893
-0.0353122
-0.106117
-0.276282
-0.517963
-0.767036
-0.911994
-0.9254
-0.862662
-0.714376
-0.541398
-0.382686
-0.247557
-0.132596
-0.036149
0.0408685
0.101833
0.158391
0.223581
0.299002
0.363517
0.375401
0.35046
0.258579
0.130918
0.0325995
0.0012542
-0.000462792
-0.00028614
-0.000131797
-3.40258e-05
-2.90452e-05
-6.62872e-05
-0.000242666
0.000595625
0.00649414
0.0334038
0.118336
0.277603
0.484991
0.704871
0.870601
0.972129
0.968937
0.927008
0.833767
0.689719
0.526781
0.36791
0.230125
0.125061
0.0553872
0.0176049
0.00316031
0.00264293
0.00648331
0.0124619
0.0296258
0.0811216
0.192092
0.360188
0.493365
0.547924
0.484835
0.267727
-0.0752875
-0.413043
-0.619542
-0.656569
-0.604203
-0.48022
-0.320778
-0.183852
-0.0728572
0.00971397
0.0575782
0.0727161
0.0577061
0.0263531
0.00176088
0.00757056
0.0523928
0.126604
0.195683
0.206293
0.173925
0.101857
0.0336794
0.00222911
-0.000381217
-0.000231971
-8.94709e-05
-9.84039e-06
-3.5365e-07
6.60017e-08
3.14117e-08
1.19123e-08
4.66595e-09
2.47253e-09
1.92051e-09
-1.23313e-08
1.04649e-06
-3.17795e-05
-0.00101532
-0.33458
-2.01121
-3.9607
-3.92987
-0.154892
-2.78265e-23
-9.81744e-23
2.59807e-23
-8.31496e-23
-3.69664e-22
-7.91442e-22
-1.28959e-21
-1.70453e-21
-1.8532e-21
-1.68393e-21
-1.3035e-21
-8.77778e-22
-5.33745e-22
-3.1442e-22
-1.90172e-22
-1.17887e-22
-7.25296e-23
-4.11321e-23
-1.3405e-23
1.76682e-23
1.48674e-23
-1.90993e-22
-7.50682e-22
-1.47553e-21
-1.93645e-21
-2.06552e-21
-2.74948e-21
-4.01301e-21
-3.54659e-21
-1.06611e-21
1.35391e-22
1.21451e-21
1.1267e-20
3.27165e-20
4.10121e-20
2.57749e-20
5.72987e-21
-7.88045e-21
-1.01488e-20
-5.51949e-21
-1.55146e-21
-6.03086e-23
1.96196e-22
1.61422e-22
1.02209e-22
6.25415e-23
5.31665e-23
1.04753e-22
2.50723e-22
5.48383e-22
1.6025e-21
1.41692e-21
-7.48086e-21
2.40683e-19
-1.01855e-18
-1.2199e-19
1.89502e-16
8.45711e-17
6.55457e-16
3.37601e-14
2.86727e-12
3.49679e-11
-4.80486e-11
-1.82167e-09
-1.82735e-08
-6.2587e-08
3.82506e-07
5.88789e-06
7.27608e-05
-8.1063e-05
-0.00136711
-0.00890301
-0.0335657
-0.0851137
-0.15164
-0.215736
-0.254226
-0.26653
-0.257663
-0.232024
-0.193714
-0.149392
-0.105684
-0.0678975
-0.0391212
-0.0205741
-0.0115574
-0.00996587
-0.0126035
-0.0190469
-0.0323642
-0.0723205
-0.177292
-0.379676
-0.644709
-0.877516
-0.993162
-0.981323
-0.887219
-0.709329
-0.515027
-0.342715
-0.203209
-0.0936858
-0.0120635
0.0434659
0.079869
0.112556
0.161256
0.237695
0.328209
0.376863
0.366608
0.302426
0.175172
0.0565467
0.0038542
-0.000357957
-0.0002651
-0.000116381
-1.90918e-05
-1.94575e-06
-1.50231e-06
-1.92124e-05
-0.000127578
-0.000546929
0.000123995
0.00531869
0.0343983
0.1264
0.292906
0.51314
0.734615
0.902173
0.971525
0.970081
0.938077
0.829688
0.671364
0.495648
0.329767
0.193764
0.0977502
0.0429025
0.0235965
0.0249973
0.0405929
0.0786706
0.159652
0.31103
0.464036
0.571793
0.566975
0.451848
0.172166
-0.206487
-0.483405
-0.629749
-0.599757
-0.494328
-0.338981
-0.188224
-0.0674647
0.0184984
0.087053
0.142875
0.178309
0.19107
0.177404
0.149068
0.128759