/*--------------------------------*- C++ -*----------------------------------*\
| =========                 |                                                 |
| \\      /  F ield         | OpenFOAM: The Open Source CFD Toolbox           |
|  \\    /   O peration     | Version:  2506                                  |
|   \\  /    A nd           | Website:  www.openfoam.com                      |
|    \\/     M anipulation  |                                                 |
\*---------------------------------------------------------------------------*/
FoamFile
{
    version     2.0;
    format      ascii;
    arch        "LSB;label=32;scalar=64";
    class       volVectorField;
    location    "2";
    object      U;
}
// * * * * * * * * * * * * * * * * * * * * * * * * * * * * * * * * * * * * * //

dimensions      [0 1 -1 0 0 0 0];

internalField   nonuniform List<vector> 
4000
(
(0.00259635 -0.00108494 8.20507e-23)
(0.00338777 -0.000803081 0)
(0.00460545 -0.00036594 3.96199e-23)
(0.00545736 -0.000184608 3.2984e-23)
(0.00595177 -0.000112507 2.8363e-23)
(0.00628297 -7.15593e-05 0)
(0.00652951 -4.74948e-05 2.31411e-23)
(0.00671907 -3.35535e-05 2.18492e-23)
(0.00686923 -2.48669e-05 0)
(0.00699187 -1.90152e-05 0)
(0.00709434 -1.48599e-05 3.52483e-22)
(0.00718143 -1.17705e-05 -6.68896e-22)
(0.00725649 -9.37032e-06 3.15667e-22)
(0.00732198 -7.43e-06 -3.6268e-22)
(0.00737972 -5.80725e-06 3.61352e-22)
(0.00743114 -4.4113e-06 2.42913e-23)
(0.00747738 -3.18387e-06 4.2233e-22)
(0.00751945 -2.09034e-06 -4.20877e-22)
(0.00755823 -1.11493e-06 2.87658e-23)
(0.00759457 -2.5392e-07 0)
(0.00762932 4.96514e-07 0)
(0.00766337 1.13173e-06 -3.50014e-23)
(0.00769768 1.63716e-06 -3.75278e-23)
(0.00773338 1.98391e-06 0)
(0.00777185 2.11793e-06 -4.33852e-23)
(0.00781485 1.9491e-06 -4.67821e-23)
(0.00786474 1.31011e-06 0)
(0.00792478 -1.30588e-07 0)
(0.00799931 -2.91933e-06 2.0134e-21)
(0.00809957 -8.65578e-06 -2.06857e-21)
(0.00823905 -2.86395e-05 0)
(0.00832154 -9.33181e-05 -5.2756e-21)
(0.00829704 -0.000217382 8.33902e-21)
(0.00819336 -0.00040019 -3.3034e-22)
(0.00805052 -0.000627704 -4.09813e-21)
(0.00789045 -0.000899716 6.12905e-20)
(0.00776308 -0.00121808 -8.14075e-22)
(0.00760585 -0.00165767 -1.34019e-20)
(0.00731405 -0.00221099 0)
(0.0069591 -0.00275229 5.10378e-21)
(0.00666388 -0.003214 -5.1714e-21)
(0.00642413 -0.00360054 4.13072e-20)
(0.00622472 -0.00391595 0)
(0.00606523 -0.00415486 3.52042e-20)
(0.0059423 -0.00431562 -1.47151e-20)
(0.00584594 -0.00440315 2.03304e-20)
(0.00576845 -0.00442024 0)
(0.00570621 -0.00437587 -1.92467e-20)
(0.00564181 -0.00428373 -2.01375e-20)
(0.00555723 -0.00415225 -1.48573e-20)
(0.0054292 -0.0039886 0)
(0.0052625 -0.00377645 0)
(0.00505454 -0.00352934 -1.77701e-21)
(0.00479895 -0.00319676 1.37691e-20)
(0.00455816 -0.00276946 2.26319e-21)
(0.00441796 -0.0022041 -8.67579e-21)
(0.00447014 -0.00153613 -4.53439e-21)
(0.00483303 -0.000788147 1.08263e-21)
(0.00555324 -0.00011398 0)
(0.0064537 0.000338276 3.77459e-22)
(0.00729869 0.000570497 1.38047e-21)
(0.00803469 0.000635903 -8.01599e-22)
(0.00855266 0.00060563 -7.90061e-21)
(0.00892268 0.000537737 8.34199e-21)
(0.00916532 0.000470193 0)
(0.00932573 0.000413065 0)
(0.00943712 0.000367051 0)
(0.00951285 0.000331902 1.46415e-21)
(0.00956611 0.000305331 2.15611e-20)
(0.00960562 0.000284727 1.19227e-20)
(0.00963651 0.00026798 0)
(0.00966071 0.000253943 -1.04984e-20)
(0.00967997 0.000241734 1.04319e-20)
(0.00969575 0.000230606 1.08557e-21)
(0.00970894 0.000220075 -1.12464e-20)
(0.00972007 0.000209811 9.84353e-21)
(0.00972958 0.000199506 1.08992e-20)
(0.00973628 0.000189554 1.01716e-20)
(0.00974128 0.000179585 0)
(0.00974498 0.000169298 0)
(0.00974737 0.000158343 -2.52571e-22)
(0.00974437 0.000147773 -7.39453e-21)
(0.00973936 0.000136175 0)
(0.00972777 0.000124203 5.43859e-21)
(0.00971117 0.000110375 -4.24423e-21)
(0.00968217 9.45555e-05 0)
(0.00964195 7.34818e-05 0)
(0.00959435 4.25922e-05 3.53847e-23)
(0.00954758 -2.30269e-06 2.91681e-22)
(0.00952042 -5.97445e-05 -1.12936e-21)
(0.00952647 -0.000114081 8.12459e-23)
(0.00956873 -0.000152452 -8.90178e-23)
(0.0096421 -0.000156895 -3.84236e-22)
(0.00974447 -0.000124185 0)
(0.00985369 -6.32404e-05 8.79251e-21)
(0.00995297 2.15249e-05 9.48369e-21)
(0.0100322 0.000108462 1.02171e-20)
(0.010079 0.00018129 7.07689e-22)
(0.0100942 0.000228313 1.13732e-20)
(0.0100773 0.00024374 1.25108e-20)
(0.0100324 0.000227366 -2.01927e-22)
(0.00997092 0.000183992 1.36261e-20)
(0.00989789 0.000121344 2.6734e-20)
(0.0098186 4.69266e-05 6.49469e-22)
(0.00973433 -3.41439e-05 1.29059e-20)
(0.00963921 -0.000120869 0)
(0.00952725 -0.000215742 -1.29539e-20)
(0.00938216 -0.000325151 -1.17796e-20)
(0.00919037 -0.000449705 -8.21309e-22)
(0.00894054 -0.000591428 0)
(0.00861486 -0.000743352 -1.05657e-20)
(0.00820487 -0.000881343 9.45081e-21)
(0.00773324 -0.000978842 0)
(0.00722061 -0.000979856 1.36863e-20)
(0.00676351 -0.000859272 2.36385e-21)
(0.00645556 -0.000586383 3.03307e-21)
(0.0064644 -0.00019265 0)
(0.00680286 0.000191125 -4.74869e-22)
(0.00731258 0.000464009 1.65819e-22)
(0.00788448 0.000601003 6.36552e-23)
(0.00836651 0.000625526 -2.16278e-22)
(0.00873745 0.000589024 8.80328e-21)
(0.00900126 0.000533716 -1.05465e-20)
(0.00919439 0.000475545 -7.19548e-22)
(0.00932693 0.000425684 -1.03857e-20)
(0.00941785 0.000386079 2.30696e-20)
(0.00948483 0.000354183 -1.18268e-20)
(0.00953474 0.000328321 1.31153e-20)
(0.00957156 0.000307488 -5.16449e-22)
(0.00959955 0.000290238 1.17815e-20)
(0.00962161 0.000275241 0)
(0.00963952 0.000261536 -1.30115e-20)
(0.00965428 0.000248471 2.03566e-21)
(0.00966592 0.000235864 -1.41813e-20)
(0.0096751 0.000223468 0)
(0.00968227 0.000211001 0)
(0.00968766 0.000198224 1.13029e-20)
(0.00969196 0.000184411 -1.03419e-20)
(0.00969186 0.000170368 0)
(0.0096899 0.000155373 0)
(0.00968751 0.000138066 -8.18595e-21)
(0.00967727 0.000119698 1.64473e-21)
(0.00966499 9.82326e-05 -7.4067e-21)
(0.00964307 7.31648e-05 0)
(0.00961195 4.26923e-05 2.65576e-21)
(0.00957356 5.56972e-06 1.00152e-21)
(0.00953105 -4.32035e-05 -2.02847e-22)
(0.00949773 -0.000101427 -5.06241e-23)
(0.00949211 -0.000159142 0)
(0.00952023 -0.000205896 1.03709e-21)
(0.00958144 -0.000224603 2.64489e-22)
(0.00967057 -0.000207822 -8.61891e-21)
(0.00977828 -0.000160776 1.55515e-21)
(0.00988474 -8.43791e-05 1.5156e-22)
(0.00997483 5.4124e-06 6.06007e-21)
(0.0100394 8.93288e-05 2.12915e-21)
(0.0100678 0.00015043 0)
(0.0100643 0.000184479 0)
(0.0100284 0.00018562 0)
(0.00996493 0.000153796 -2.03931e-20)
(0.00987644 9.39506e-05 2.58751e-21)
(0.00975597 1.95598e-05 9.57974e-21)
(0.00962266 -5.10179e-05 7.36731e-21)
(0.00933291 -0.000130619 0)
(0.00905564 -0.000214869 -9.08439e-21)
(0.00877635 -0.000284302 -1.41481e-20)
(0.00847038 -0.000313426 -2.71235e-22)
(0.00818558 -0.000291605 -1.75492e-21)
(0.00796573 -0.000220265 -3.92697e-21)
(0.00787277 -0.000112395 -1.19011e-21)
(0.00789962 -2.92669e-05 0)
(0.00792691 -2.39183e-06 -1.03441e-23)
(0.00792499 4.32676e-06 0)
(0.00792003 5.71547e-06 -6.85276e-24)
(0.00792148 5.2061e-06 -5.40343e-24)
(0.00792822 4.12735e-06 -2.38618e-22)
(0.00793773 3.28701e-06 2.37143e-22)
(0.00794754 2.83202e-06 5.12807e-23)
(0.00795569 2.76982e-06 -5.22887e-23)
(0.00796093 3.02203e-06 -2.78977e-24)
(0.00796243 3.46856e-06 2.96787e-23)
(0.00795974 4.18095e-06 -2.5365e-23)
(0.00795245 4.92849e-06 0)
(0.00794012 5.88653e-06 2.66227e-24)
(0.00792196 6.95568e-06 -3.39774e-24)
(0.00789683 8.39568e-06 1.5015e-22)
(0.00786364 1.03889e-05 -1.40798e-22)
(0.00782078 1.27172e-05 2.06998e-22)
(0.00776614 1.53876e-05 -1.99797e-22)
(0.00769735 1.84696e-05 1.51702e-22)
(0.00761162 2.20492e-05 -1.33589e-22)
(0.00750544 2.62908e-05 1.14782e-23)
(0.00737395 3.1581e-05 1.34898e-23)
(0.00720939 3.8874e-05 0)
(0.00699771 5.08989e-05 1.87306e-23)
(0.00670957 7.46238e-05 2.22235e-23)
(0.00627506 0.00012785 2.66768e-22)
(0.0055158 0.000268787 -2.75026e-22)
(0.00411482 0.00069734 0)
(0.00309799 0.001174 6.09474e-23)
(-2.69206e-05 -0.0021712 -2.7359e-23)
(-4.42324e-05 -0.00193798 3.87531e-23)
(0.000781975 -0.00129899 -4.60744e-23)
(0.00157198 -0.000902336 1.81327e-22)
(0.00221378 -0.000649179 -4.2844e-22)
(0.00274431 -0.000483056 2.19227e-23)
(0.00319072 -0.000374526 1.99225e-22)
(0.00356735 -0.000301025 -7.65904e-23)
(0.00388746 -0.000248562 -4.93769e-23)
(0.00416235 -0.000209582 -4.82938e-23)
(0.00440057 -0.000179758 -7.16421e-23)
(0.00460859 -0.000156359 -4.38617e-22)
(0.00479137 -0.000137602 4.12173e-22)
(0.0049528 -0.000122314 -4.13539e-22)
(0.005096 -0.000109704 7.89303e-22)
(0.00522349 -9.92295e-05 -9.61729e-22)
(0.00533734 -9.0532e-05 3.91312e-22)
(0.00543934 -8.3401e-05 -5.62954e-22)
(0.00553111 -7.7737e-05 -6.62389e-22)
(0.00561418 -7.35224e-05 9.92507e-22)
(0.00569007 -7.08027e-05 -7.25301e-23)
(0.00576034 -6.96869e-05 -1.33121e-21)
(0.00582666 -7.03712e-05 1.32889e-21)
(0.00589089 -7.31836e-05 1.39785e-21)
(0.00595527 -7.86464e-05 -1.43133e-21)
(0.00602254 -8.75247e-05 -5.03359e-23)
(0.00609617 -0.000100981 -1.86009e-21)
(0.00618066 -0.000120862 -4.40655e-23)
(0.00628166 -0.000150291 4.18685e-21)
(0.00640922 -0.000194288 2.79708e-22)
(0.00657681 -0.000265332 -2.35616e-21)
(0.00671813 -0.000402548 -2.8158e-21)
(0.00676256 -0.000618109 -8.86127e-21)
(0.00670602 -0.000901352 -1.91779e-20)
(0.00658041 -0.00124654 -1.41999e-20)
(0.00641703 -0.00166456 -1.63483e-20)
(0.00625134 -0.00217234 3.06975e-21)
(0.00605371 -0.00280537 1.36883e-20)
(0.00574119 -0.00351592 -4.57192e-21)
(0.00538026 -0.00420117 -1.34014e-20)
(0.00508256 -0.00481056 -1.84702e-20)
(0.00483905 -0.0053347 -2.01865e-20)
(0.00463486 -0.00576411 0)
(0.0044706 -0.00608936 -4.0341e-20)
(0.00434006 -0.00630876 1.99474e-20)
(0.00423105 -0.00642576 -2.04537e-20)
(0.00413104 -0.0064459 2.00409e-20)
(0.00402969 -0.00638274 0)
(0.00390392 -0.00624998 1.46002e-21)
(0.00373286 -0.00605531 1.74468e-20)
(0.00349699 -0.00580648 -1.71332e-20)
(0.00318945 -0.00549712 1.95895e-21)
(0.0028173 -0.00513475 1.49701e-20)
(0.00236556 -0.0047059 -3.19604e-21)
(0.00190184 -0.0041521 1.35698e-20)
(0.00148695 -0.00343771 0)
(0.00123372 -0.00258414 4.68658e-21)
(0.00125566 -0.00157767 -2.05227e-21)
(0.0017105 -0.000519304 -1.36927e-22)
(0.00256958 0.000414945 -2.83199e-22)
(0.00369701 0.00109676 -1.8703e-21)
(0.00494548 0.00149799 -5.84658e-21)
(0.00604109 0.00163612 -7.57033e-21)
(0.00695233 0.00159342 -9.90515e-21)
(0.00763364 0.0014778 1.33198e-21)
(0.00812691 0.00134258 -1.29323e-21)
(0.00848119 0.001215 0)
(0.00872818 0.00110844 0)
(0.00890024 0.00102385 -2.46868e-20)
(0.00902206 0.000957414 1.20048e-20)
(0.00911054 0.000904293 1.58954e-21)
(0.00917539 0.000860642 -1.537e-20)
(0.00922356 0.000823103 -1.0599e-20)
(0.00926016 0.000789004 -1.44295e-20)
(0.0092887 0.000756525 8.00695e-22)
(0.00931126 0.000724411 7.72244e-22)
(0.00932941 0.000691587 1.26043e-20)
(0.00934174 0.000658559 -1.13284e-20)
(0.00934991 0.000624286 -6.67545e-22)
(0.00935479 0.000587913 -9.74444e-21)
(0.00935724 0.000548593 8.97061e-21)
(0.00935205 0.00050736 0)
(0.00934479 0.000460852 0)
(0.00933164 0.000408487 0)
(0.00931795 0.00034593 4.60021e-21)
(0.00930254 0.0002694 -1.22592e-22)
(0.00929958 0.000173629 6.49488e-23)
(0.00932263 5.90487e-05 -6.76152e-23)
(0.00938082 -6.8375e-05 -1.22025e-22)
(0.00948835 -0.00018556 2.7481e-21)
(0.0096332 -0.000262639 -2.8086e-22)
(0.00980561 -0.000280157 -4.50065e-24)
(0.00998191 -0.000238941 5.98346e-21)
(0.010147 -0.000140505 -7.42735e-21)
(0.010281 -3.89029e-06 8.3302e-21)
(0.0103749 0.000145842 -9.09145e-21)
(0.0104261 0.000283815 9.14988e-21)
(0.0104352 0.000388982 1.04712e-20)
(0.0104059 0.000448469 -1.15117e-20)
(0.0103468 0.000458287 -1.17491e-20)
(0.0102728 0.000422512 0)
(0.0101855 0.000350569 1.19446e-20)
(0.0100917 0.00025433 -1.30061e-20)
(0.00999028 0.000143802 3.92199e-22)
(0.00987414 2.45886e-05 -1.4546e-21)
(0.00973156 -0.000103394 0)
(0.00954728 -0.000243941 2.45263e-20)
(0.00930352 -0.00040269 2.45665e-20)
(0.00898495 -0.000582757 1.06953e-20)
(0.00857951 -0.000778983 9.36704e-21)
(0.00807542 -0.000973734 1.07944e-20)
(0.00746442 -0.00114073 -1.84404e-20)
(0.00677351 -0.00125249 5.28324e-22)
(0.0060128 -0.00123735 -7.23659e-21)
(0.00526931 -0.00108755 5.50282e-22)
(0.00462433 -0.000751933 -1.58598e-21)
(0.00423881 -0.000250527 -8.7338e-23)
(0.00421659 0.000333716 4.89221e-22)
(0.00457305 0.00088568 1.64055e-22)
(0.00524987 0.00130445 -1.57786e-22)
(0.00603149 0.00154627 0)
(0.00677741 0.00159226 -1.00079e-20)
(0.00739434 0.0015444 -3.44151e-22)
(0.0078908 0.00144717 1.07642e-21)
(0.00826145 0.00133798 1.21225e-20)
(0.00853027 0.00123747 -1.33986e-20)
(0.00872753 0.00115115 -1.25256e-20)
(0.00887186 0.00107951 -2.6965e-20)
(0.00897652 0.00102106 -2.73665e-20)
(0.00905319 0.000972556 -1.26064e-20)
(0.00911046 0.000930771 -1.71224e-21)
(0.00915446 0.000892948 -1.31693e-20)
(0.00918923 0.000856892 2.69655e-20)
(0.00921615 0.00082151 -3.25763e-21)
(0.00923681 0.000785976 -9.13527e-21)
(0.00925257 0.000749487 0)
(0.00926398 0.000711499 0)
(0.00927272 0.000670656 7.31735e-22)
(0.00927421 0.000628024 2.45699e-21)
(0.00927208 0.000581345 6.58576e-21)
(0.00926971 0.000528076 1.95084e-21)
(0.0092588 0.000469174 -2.76905e-22)
(0.0092492 0.000400076 -2.5341e-21)
(0.00923669 0.000318604 2.33826e-21)
(0.00923268 0.000219927 -2.75055e-21)
(0.00925014 0.000106198 0)
(0.00929435 -2.45899e-05 8.3583e-23)
(0.0093844 -0.000156712 -8.18918e-23)
(0.00951695 -0.000258619 1.13315e-21)
(0.00968224 -0.000306376 0)
(0.00986283 -0.000288603 0)
(0.0100391 -0.000212793 0)
(0.0101899 -8.75609e-05 0)
(0.0103057 6.18122e-05 1.56349e-20)
(0.0103781 0.000207848 3.63547e-21)
(0.0104053 0.000327977 1.97018e-21)
(0.0103881 0.000404842 -2.21171e-21)
(0.0103347 0.000430413 -1.29861e-20)
(0.010256 0.000405589 4.30161e-21)
(0.0101518 0.00033662 9.86533e-21)
(0.0100224 0.000237653 6.56849e-23)
(0.00986709 0.000132316 -7.387e-21)
(0.00970336 5.14782e-05 2.07939e-21)
(0.00941153 -3.60939e-05 -2.05447e-22)
(0.0091119 -0.000140029 -9.32017e-21)
(0.00878487 -0.000217771 7.9111e-21)
(0.00841036 -0.000249742 0)
(0.0080227 -0.000232223 0)
(0.00764851 -0.00016648 1.50095e-21)
(0.0073279 -7.29693e-05 9.3974e-22)
(0.00710541 2.09979e-06 -9.00241e-22)
(0.00695944 2.15108e-05 1.16266e-23)
(0.00685519 1.57215e-05 -5.55422e-22)
(0.00678383 5.12253e-06 5.45135e-22)
(0.00674284 -5.46557e-06 1.75892e-23)
(0.00672221 -1.29942e-05 2.54795e-22)
(0.0067139 -1.62367e-05 -7.88352e-23)
(0.0067113 -1.56188e-05 -1.25051e-22)
(0.00670977 -1.28194e-05 -4.9599e-23)
(0.00670629 -8.1324e-06 6.58908e-24)
(0.00669876 -2.46971e-06 -5.50292e-24)
(0.00668567 3.90623e-06 1.58197e-24)
(0.00666579 1.10961e-05 -8.45513e-23)
(0.00663762 1.89804e-05 8.76073e-23)
(0.00659942 2.84313e-05 3.82611e-24)
(0.00654871 3.99324e-05 1.53475e-22)
(0.00648199 5.41156e-05 -1.84736e-22)
(0.0063951 7.12903e-05 2.37425e-22)
(0.00628334 9.19866e-05 -2.61438e-22)
(0.00614092 0.000116949 1.36335e-22)
(0.00596082 0.000147232 -1.75839e-22)
(0.00573416 0.000184551 1.32563e-23)
(0.00544907 0.000232139 -4.61619e-23)
(0.00508872 0.000296658 -3.17052e-22)
(0.00462527 0.000392589 3.40298e-22)
(0.00401746 0.000551993 -7.63077e-23)
(0.00319766 0.000843796 -3.0649e-23)
(0.00207048 0.00140113 1.09703e-22)
(0.000581154 0.00234519 0)
(4.02005e-05 0.00278054 -1.63535e-22)
(-0.000215015 -0.00183067 0)
(-0.000577716 -0.0020984 -1.9607e-22)
(-0.000325221 -0.00175734 9.19642e-23)
(0.000127708 -0.00141986 6.70264e-23)
(0.000623587 -0.00114965 -1.43506e-22)
(0.00110895 -0.000941907 2.36671e-22)
(0.00156175 -0.000784696 -2.34519e-22)
(0.00197305 -0.000664166 5.29082e-23)
(0.0023423 -0.000569668 5.08064e-23)
(0.0026725 -0.000494124 1.49541e-22)
(0.00296751 -0.000432709 4.93232e-23)
(0.0032311 -0.000381969 1.4918e-22)
(0.00346668 -0.000339413 -4.12211e-22)
(0.00367728 -0.000303273 9.38043e-22)
(0.0038655 -0.000272279 -3.68311e-22)
(0.00403363 -0.000245503 5.17135e-22)
(0.00418366 -0.000222295 -2.82453e-22)
(0.00431738 -0.000202246 1.85079e-22)
(0.00443646 -0.000185138 1.14678e-21)
(0.00454248 -0.000170899 -1.00588e-21)
(0.00463704 -0.000159585 7.4181e-23)
(0.00472178 -0.000151379 2.34901e-22)
(0.00479847 -0.000146626 -1.39494e-21)
(0.00486915 -0.00014591 1.47908e-21)
(0.00493616 -0.000150134 1.60499e-21)
(0.00500235 -0.00016059 -1.28799e-21)
(0.00507122 -0.000179132 -1.86097e-21)
(0.00514703 -0.000208467 1.72932e-21)
(0.00523468 -0.000252817 0)
(0.00534123 -0.000318739 0)
(0.00547582 -0.000417338 0)
(0.00558796 -0.000575496 0)
(0.00561053 -0.000808554 1.14032e-20)
(0.00553491 -0.00111776 1.55952e-20)
(0.00539565 -0.00150818 -1.62781e-20)
(0.00522879 -0.00199538 2.83002e-21)
(0.00506101 -0.00259381 -1.98281e-20)
(0.00487538 -0.00330302 4.22434e-21)
(0.00461618 -0.00405674 1.69413e-20)
(0.00434119 -0.0047734 -3.14517e-21)
(0.00412585 -0.00541596 3.66995e-20)
(0.00395475 -0.00596932 0)
(0.00381223 -0.00641976 -1.78611e-20)
(0.00369884 -0.00675777 -1.77241e-20)
(0.00360696 -0.00698166 2.23615e-21)
(0.00352298 -0.00709478 1.40484e-20)
(0.00343241 -0.00710447 -3.249e-20)
(0.00332183 -0.00702079 -1.40802e-20)
(0.00317022 -0.00685505 -2.63451e-21)
(0.0029602 -0.00662579 1.19162e-22)
(0.00268013 -0.00632454 5.15935e-21)
(0.00232663 -0.00595597 -3.46607e-21)
(0.00191281 -0.00552222 -1.31353e-21)
(0.00143643 -0.00500492 2.01195e-22)
(0.000955366 -0.00438902 1.09717e-20)
(0.000520663 -0.0036565 -4.00481e-21)
(0.000219573 -0.00282039 -3.8231e-21)
(0.000118507 -0.00187863 1.79622e-21)
(0.000340462 -0.000888448 1.3936e-22)
(0.000907007 5.60906e-05 0)
(0.00178342 0.000863235 -4.64759e-22)
(0.0029228 0.00146544 4.38715e-22)
(0.00410395 0.00180684 4.61078e-22)
(0.00522606 0.00196276 8.06084e-21)
(0.00617733 0.00195082 -8.32421e-21)
(0.00693774 0.00186114 9.23198e-21)
(0.00752182 0.00173568 0)
(0.00795166 0.00161027 0)
(0.00826104 0.00150144 2.29091e-20)
(0.00848154 0.00141237 -2.34292e-20)
(0.00863846 0.00134171 0)
(0.00875007 0.00128511 1.08933e-20)
(0.00882998 0.00123709 8.30178e-22)
(0.00888782 0.00119299 -9.94986e-21)
(0.00893105 0.00114967 1.27054e-20)
(0.00896476 0.00110485 1.02906e-20)
(0.00899264 0.00105631 -2.26321e-20)
(0.00901487 0.00100352 6.69836e-22)
(0.00903369 0.000945635 6.03164e-22)
(0.00905053 0.000882066 1.7738e-20)
(0.00906735 0.000810724 -1.68252e-20)
(0.00908149 0.000730872 -2.25285e-22)
(0.00909848 0.000639944 3.13915e-23)
(0.00912027 0.000536323 1.92339e-22)
(0.00915384 0.000417268 -4.5071e-21)
(0.00920493 0.000279113 0)
(0.00928263 0.000123057 4.36858e-22)
(0.00939711 -3.95591e-05 1.19285e-24)
(0.00955479 -0.00018985 -1.52634e-22)
(0.00974684 -0.000299404 -2.36126e-21)
(0.00995217 -0.000343305 -1.90712e-22)
(0.0101543 -0.000312852 -9.56935e-21)
(0.010331 -0.00021335 -5.95478e-21)
(0.0104705 -6.1004e-05 1.3564e-20)
(0.0105633 0.000119749 1.75862e-22)
(0.010607 0.00030264 -8.83099e-21)
(0.0106052 0.000462228 -1.85342e-20)
(0.0105665 0.000578283 -1.01911e-20)
(0.0105005 0.000640631 0)
(0.0104177 0.00064743 1.06919e-20)
(0.0103262 0.000605876 0)
(0.0102293 0.000528086 -1.20275e-20)
(0.0101259 0.000426696 1.82932e-22)
(0.0100079 0.000311949 1.11173e-20)
(0.00986325 0.000189195 -1.21999e-20)
(0.00967721 5.86242e-05 0)
(0.00943532 -8.26363e-05 -2.24274e-20)
(0.00912431 -0.000237637 -1.14303e-20)
(0.00873504 -0.000405334 -1.31931e-21)
(0.0082631 -0.000576123 -1.02661e-20)
(0.0077065 -0.000729934 0)
(0.00706724 -0.000844484 8.35889e-21)
(0.00637156 -0.000892746 0)
(0.00563344 -0.000843922 -4.74725e-21)
(0.00491782 -0.000688304 2.70393e-22)
(0.00427757 -0.000412027 0)
(0.00381037 -2.48448e-05 0)
(0.0035985 0.000435378 -4.96631e-22)
(0.00369802 0.000918195 0)
(0.00409474 0.00136542 1.94785e-22)
(0.00473668 0.00167718 -4.28738e-22)
(0.00548118 0.00185633 2.32225e-22)
(0.00619751 0.00192034 0)
(0.00684097 0.00188746 0)
(0.00736758 0.00180887 1.12473e-20)
(0.00777694 0.00171318 -1.26019e-20)
(0.00808779 0.00162121 2.51426e-20)
(0.00831896 0.00154211 1.30964e-20)
(0.00848793 0.00147734 1.85094e-21)
(0.00861077 0.00142204 1.16197e-20)
(0.00869959 0.00137229 -1.61644e-21)
(0.00876465 0.00132542 1.33447e-20)
(0.00881444 0.00127875 2.28533e-21)
(0.00885345 0.0012301 -2.63534e-23)
(0.00888492 0.0011779 2.25064e-21)
(0.00891153 0.00112077 -2.95697e-21)
(0.00893475 0.00105757 1.07618e-20)
(0.00895739 0.000985841 2.09273e-20)
(0.00897594 0.000906305 0)
(0.00899387 0.000817753 -9.11948e-21)
(0.00901593 0.000718688 -9.4312e-21)
(0.00904194 0.000605655 1.81929e-21)
(0.00907987 0.000477439 4.5751e-21)
(0.00913179 0.000332212 2.17394e-21)
(0.00920569 0.000168015 -1.80469e-21)
(0.00931233 -5.03525e-06 -3.99142e-22)
(0.00946139 -0.000170807 1.58135e-22)
(0.00964843 -0.000301535 -6.24051e-22)
(0.00985629 -0.000368505 -1.12511e-21)
(0.0100651 -0.000358218 -4.21234e-21)
(0.0102561 -0.00027265 2.1284e-21)
(0.0104126 -0.000126993 -1.17883e-21)
(0.0105226 5.47511e-05 -5.81662e-21)
(0.0105846 0.000245744 -1.32623e-20)
(0.0105961 0.000417645 -7.41865e-21)
(0.0105634 0.000548307 0)
(0.010502 0.000625334 -7.93437e-21)
(0.0104129 0.000644785 2.36332e-20)
(0.010307 0.000612442 1.37864e-21)
(0.0101841 0.00054132 0)
(0.0100414 0.000449899 7.97638e-21)
(0.00988116 0.000363314 0)
(0.00971484 0.000306981 0)
(0.00946572 0.00025917 5.02839e-21)
(0.00921754 0.000200387 9.13615e-21)
(0.00894771 0.000158608 0)
(0.00864497 0.000145928 0)
(0.00833342 0.000158898 -2.35022e-21)
(0.00802396 0.000187074 2.16517e-21)
(0.00772363 0.000210764 -1.62763e-22)
(0.0074532 0.000208749 -1.91077e-22)
(0.00723668 0.000172147 -7.31936e-22)
(0.00706651 0.000121773 1.79395e-23)
(0.00693559 7.49338e-05 -2.71083e-23)
(0.00683811 3.83326e-05 -3.29163e-23)
(0.00676686 1.41e-05 -2.34088e-22)
(0.00671467 1.21602e-06 6.10449e-23)
(0.00667277 -2.71127e-06 1.65141e-22)
(0.00663578 -7.37565e-07 -2.15182e-24)
(0.00660142 5.05427e-06 -1.02893e-23)
(0.00656659 1.35593e-05 1.21387e-23)
(0.00652919 2.43455e-05 -2.99619e-24)
(0.00648722 3.73404e-05 0)
(0.00643831 5.31142e-05 -6.18969e-24)
(0.00637975 7.27778e-05 -1.58264e-23)
(0.0063077 9.74596e-05 1.79821e-22)
(0.00621726 0.000128409 -1.585e-22)
(0.00610272 0.000167033 2.40167e-22)
(0.00595724 0.000214807 -5.06878e-22)
(0.00577255 0.0002736 4.68563e-22)
(0.00553874 0.00034607 -1.66569e-22)
(0.00524351 0.000436401 -7.87724e-23)
(0.00487078 0.000551786 3.11272e-23)
(0.00439904 0.000705228 0)
(0.00379966 0.0009201 -1.28405e-22)
(0.00303811 0.00123726 5.12828e-23)
(0.00208711 0.00171795 0)
(0.000969506 0.00240889 -7.18807e-23)
(-0.000107037 0.00312726 1.47171e-22)
(-0.000222227 0.00269001 2.51391e-22)
(-0.00015405 -0.00136943 -1.61909e-22)
(-0.000546962 -0.00197022 0)
(-0.000558874 -0.00192918 0)
(-0.000374728 -0.00174151 -1.37922e-22)
(-7.13039e-05 -0.00153089 1.28258e-22)
(0.000281435 -0.00133639 2.36093e-22)
(0.000646581 -0.00116798 -2.34472e-22)
(0.00100309 -0.00102498 1.06752e-22)
(0.00134056 -0.000903948 0)
(0.00165454 -0.00080121 -1.01722e-22)
(0.00194364 -0.000713479 0)
(0.00220798 -0.000637938 -7.65652e-25)
(0.00244844 -0.000572303 0)
(0.00266624 -0.000514803 -1.05851e-22)
(0.00286273 -0.000464077 0)
(0.00303929 -0.000419088 0)
(0.00319728 -0.000379085 -1.19361e-22)
(0.00333803 -0.000343577 -6.3974e-22)
(0.00346288 -0.000312297 1.59845e-21)
(0.00357313 -0.000285167 -1.08154e-21)
(0.00367017 -0.000262292 0)
(0.00375546 -0.000243961 1.14666e-21)
(0.00383066 -0.000230703 -1.29985e-21)
(0.00389771 -0.000223365 -1.77111e-22)
(0.00395887 -0.000223203 0)
(0.00401687 -0.000231955 -1.72408e-21)
(0.00407501 -0.000252022 1.70975e-21)
(0.00413722 -0.000286676 0)
(0.00420781 -0.000340599 2.14992e-21)
(0.00429264 -0.000420438 -2.13624e-21)
(0.00439883 -0.000535481 2.51311e-21)
(0.00448336 -0.000706425 -4.997e-21)
(0.00448903 -0.000952303 -8.6233e-21)
(0.00441672 -0.00128283 -3.30192e-21)
(0.00430597 -0.00170771 7.92149e-22)
(0.0041905 -0.00223984 -8.9256e-22)
(0.0040828 -0.00288293 -1.06529e-20)
(0.00397045 -0.00361353 1.47755e-22)
(0.00381077 -0.00436347 3.12096e-21)
(0.00364848 -0.0050712 -7.27034e-21)
(0.00353144 -0.005708 3.11148e-21)
(0.00344368 -0.00625573 -4.37525e-21)
(0.00337009 -0.00669898 3.49681e-20)
(0.00331087 -0.00702828 1.368e-20)
(0.00325762 -0.00724116 4.2978e-21)
(0.00319627 -0.00733978 0)
(0.00311222 -0.00733123 1.32696e-21)
(0.0029925 -0.0072233 3.13e-20)
(0.00282129 -0.00702668 1.39073e-20)
(0.00258747 -0.0067502 1.85186e-21)
(0.00228623 -0.00639851 2.71951e-20)
(0.00192073 -0.00597652 0)
(0.00150904 -0.00548769 -1.37263e-20)
(0.00106106 -0.00492822 1.90249e-22)
(0.000624792 -0.00429657 5.44593e-23)
(0.00023838 -0.0035924 4.86451e-21)
(-3.6159e-05 -0.00283038 2.28407e-21)
(-0.000149356 -0.00201748 -2.43638e-21)
(-4.09063e-05 -0.00118352 3.99218e-22)
(0.000335319 -0.000371728 -1.14115e-22)
(0.000962193 0.000371763 5.50048e-22)
(0.00185041 0.00101062 3.54676e-22)
(0.00288316 0.00147144 6.86971e-21)
(0.0039798 0.00175682 -8.29986e-21)
(0.00501805 0.00187116 1.50754e-20)
(0.00592999 0.00187334 1.04951e-21)
(0.00668767 0.00181841 -1.02754e-20)
(0.00728531 0.00172437 -1.3194e-21)
(0.00773814 0.00162592 -1.12159e-20)
(0.00807112 0.00153869 1.41293e-20)
(0.00831019 0.00146732 9.30963e-21)
(0.00847845 0.00141108 0)
(0.00859632 0.00136535 1.16372e-20)
(0.00867886 0.00132453 1.01523e-20)
(0.00873803 0.00128329 1.38254e-21)
(0.00878236 0.00123746 -2.15538e-20)
(0.00881879 0.00118437 1.2039e-20)
(0.00885129 0.00112165 -1.27819e-21)
(0.00888354 0.00104721 9.26392e-21)
(0.0089178 0.000960031 -9.13593e-21)
(0.00895658 0.000861733 8.39607e-21)
(0.0090006 0.000748791 -7.18239e-21)
(0.00905592 0.000619572 6.28041e-21)
(0.00912284 0.000473084 0)
(0.00920788 0.000310712 1.14385e-22)
(0.00932201 0.000132463 3.43908e-23)
(0.00947055 -5.18575e-05 -5.88269e-22)
(0.00965318 -0.000224166 0)
(0.0098636 -0.00036107 3.67872e-22)
(0.0100861 -0.000436493 1.25086e-21)
(0.0102966 -0.000433872 -4.28761e-22)
(0.0104785 -0.000352359 5.20708e-21)
(0.0106154 -0.000204254 5.0907e-21)
(0.0107012 -1.07865e-05 -6.62563e-21)
(0.0107335 0.000200875 -3.42666e-22)
(0.0107148 0.000403057 7.81549e-21)
(0.0106651 0.000571825 9.05885e-21)
(0.0105855 0.000689315 5.77081e-22)
(0.0104921 0.00074844 9.56465e-21)
(0.0103939 0.000749168 -2.07107e-20)
(0.0102944 0.000702779 0)
(0.0101904 0.000622773 0)
(0.0100739 0.000522201 0)
(0.00993212 0.000411317 -1.10768e-20)
(0.00975076 0.000295457 -6.73256e-22)
(0.00951694 0.000175502 3.36257e-22)
(0.00922115 5.04051e-05 1.13337e-21)
(0.00885769 -7.98724e-05 -9.16909e-21)
(0.00842609 -0.000210866 -9.78986e-21)
(0.00792975 -0.000331112 0)
(0.00737391 -0.000422664 0)
(0.00676715 -0.000469542 0)
(0.00613441 -0.000456306 0)
(0.00549034 -0.000373185 2.73187e-21)
(0.00488164 -0.000225907 1.21358e-21)
(0.00434312 -1.99552e-05 0)
(0.00392898 0.000232432 -1.00875e-23)
(0.00368664 0.000520396 0)
(0.00366323 0.00083738 0)
(0.00385684 0.00116713 0)
(0.00428637 0.00145152 0)
(0.00487777 0.00166146 -2.53864e-22)
(0.0055354 0.00177513 8.01331e-21)
(0.00619304 0.00180798 2.77289e-22)
(0.00678317 0.00178251 -1.0766e-20)
(0.00727881 0.00173122 1.20653e-20)
(0.00767632 0.00166478 -1.25161e-20)
(0.00798223 0.00159747 0)
(0.0082101 0.00153904 1.24199e-20)
(0.00837639 0.00149207 -1.10344e-20)
(0.00849579 0.00145169 8.67333e-21)
(0.00858082 0.00141262 -1.16862e-20)
(0.00864315 0.00137042 6.76179e-22)
(0.00869104 0.00132239 1.4558e-21)
(0.00873093 0.00126551 -6.92398e-22)
(0.00876758 0.00119746 -7.96553e-21)
(0.00880375 0.00111705 -3.35848e-21)
(0.00884288 0.00102517 -1.02056e-20)
(0.00888576 0.000917902 -2.19658e-21)
(0.00893651 0.000793422 1.02311e-20)
(0.00899758 0.000653806 1.47944e-20)
(0.00906667 0.000496477 7.61208e-21)
(0.00915768 0.000324582 -1.44949e-21)
(0.0092737 0.000139064 -1.09118e-21)
(0.00942108 -5.20036e-05 6.08293e-22)
(0.00960076 -0.000231754 -2.01423e-22)
(0.00980818 -0.000377779 -2.55166e-23)
(0.010031 -0.000463601 1.05697e-21)
(0.0102476 -0.000469851 0)
(0.0104378 -0.000393271 4.15535e-21)
(0.0105871 -0.000244853 3.13061e-21)
(0.0106853 -4.69182e-05 0)
(0.010728 0.000172889 4.3071e-21)
(0.0107182 0.00038575 8.02171e-21)
(0.0106743 0.000565841 -4.93665e-21)
(0.0105962 0.000694483 5.33218e-21)
(0.010498 0.000764105 9.93533e-21)
(0.0103879 0.000776058 -1.0183e-20)
(0.0102712 0.000740801 -8.31311e-21)
(0.0101433 0.000676511 9.29083e-21)
(0.00999967 0.000602206 -1.00295e-20)
(0.00984318 0.000538292 6.74959e-21)
(0.00967567 0.000501062 1.61849e-21)
(0.00945414 0.000477978 -8.52724e-21)
(0.0092464 0.000449683 0)
(0.00902999 0.000435003 5.14192e-21)
(0.00879795 0.000438181 1.16431e-21)
(0.00856786 0.000450724 2.2053e-21)
(0.00834283 0.000458949 -1.97949e-21)
(0.00811723 0.000444633 7.88618e-22)
(0.00789094 0.000398979 -7.86649e-22)
(0.00768211 0.000329661 0)
(0.0074943 0.000252291 -3.03637e-23)
(0.00732767 0.000181565 -3.43242e-22)
(0.00718252 0.000125233 3.92244e-22)
(0.00705687 8.55119e-05 2.1198e-22)
(0.00694743 6.13735e-05 -1.9015e-22)
(0.00685092 4.98052e-05 4.03007e-23)
(0.00676433 4.70009e-05 -4.02969e-23)
(0.00668491 5.02585e-05 0)
(0.00661021 5.81315e-05 -4.36428e-23)
(0.00653803 7.00799e-05 4.03893e-23)
(0.00646582 8.64175e-05 -9.91958e-23)
(0.0063904 0.000108186 8.93656e-23)
(0.00630791 0.000137058 1.58817e-23)
(0.00621382 0.000175002 -1.91377e-23)
(0.00610246 0.000224181 0)
(0.00596721 0.000286953 0)
(0.00580022 0.00036595 -3.1532e-23)
(0.00559211 0.000464474 0)
(0.00533171 0.000587094 0)
(0.00500534 0.000740776 1.03045e-22)
(0.00459588 0.000936687 0)
(0.00408177 0.00119267 0)
(0.00343776 0.00153553 3.4515e-22)
(0.00264167 0.00199875 -1.80316e-22)
(0.00169819 0.0025994 0)
(0.000690536 0.00325312 0)
(-0.000118277 0.00355539 -1.78951e-23)
(-0.000163014 0.00239438 -1.55297e-22)
(-0.000100946 -0.00106542 5.93255e-23)
(-0.000426023 -0.00177426 -1.82507e-22)
(-0.000554654 -0.00193135 -1.37612e-22)
(-0.000529092 -0.00188215 2.74869e-22)
(-0.00038884 -0.00176053 -4.88445e-22)
(-0.000174505 -0.00161269 2.41855e-22)
(7.76033e-05 -0.00146288 0)
(0.000344506 -0.00132161 -1.07938e-22)
(0.000611838 -0.00119264 0)
(0.000871051 -0.00107667 -5.07786e-22)
(0.00111723 -0.00097296 4.0478e-22)
(0.00134771 -0.000880198 -1.02424e-22)
(0.00156118 -0.000796993 -4.19957e-22)
(0.0017572 -0.000722082 3.12839e-22)
(0.00193586 -0.0006544 -1.08099e-22)
(0.00209756 -0.000593085 0)
(0.00224291 -0.000537493 -1.17298e-22)
(0.00237267 -0.000487201 3.91029e-22)