/*--------------------------------*- C++ -*----------------------------------*\
| =========                 |                                                 |
| \\      /  F ield         | OpenFOAM: The Open Source CFD Toolbox           |
|  \\    /   O peration     | Version:  2506                                  |
|   \\  /    A nd           | Website:  www.openfoam.com                      |
|    \\/     M anipulation  |                                                 |
\*---------------------------------------------------------------------------*/
FoamFile
{
    version     2.0;
    format      ascii;
    arch        "LSB;label=32;scalar=64";
    class       volVectorField;
    location    "2";
    object      vorticityField;
}
// * * * * * * * * * * * * * * * * * * * * * * * * * * * * * * * * * * * * * //

dimensions      [0 0 -1 0 0 0 0];

internalField   nonuniform List<vector> 
4000
(
(3.95769e-19 8.58033e-20 31.634)
(7.67732e-20 7.2303e-20 34.3247)
(1.33504e-19 4.11815e-19 29.9193)
(5.14944e-19 6.28946e-19 25.923)
(-7.16766e-19 7.56028e-19 23.3404)
(4.25757e-20 8.93898e-21 21.4703)
(4.67798e-19 7.93766e-19 19.9798)
(-7.8367e-20 9.12332e-19 18.7676)
(-9.62949e-20 3.67768e-20 17.763)
(-5.79708e-20 -6.02037e-19 16.9127)
(5.16447e-19 2.12322e-17 16.1813)
(-2.16093e-18 -3.82364e-17 15.5446)
(1.41797e-18 1.76499e-17 14.985)
(-1.46333e-18 -1.95073e-17 14.4891)
(2.21441e-18 1.86821e-17 14.0466)
(-1.71674e-18 9.21703e-19 13.6493)
(1.44052e-18 2.03042e-17 13.2904)
(-1.87911e-18 -1.87872e-17 12.9644)
(-1.08165e-18 3.34939e-19 12.6659)
(1.80159e-18 5.65854e-20 12.3903)
(-1.38191e-19 5.91755e-20 12.1328)
(-2.47783e-18 -1.01469e-18 11.8887)
(2.32047e-18 -1.12123e-18 11.6529)
(2.49762e-18 2.07556e-20 11.4197)
(-2.64184e-18 -1.00915e-18 11.1824)
(-1.69347e-19 -1.15627e-18 10.9324)
(-3.27094e-18 -9.34774e-20 10.6588)
(4.25257e-19 -3.43589e-18 10.3469)
(1.03537e-17 4.33236e-17 9.97512)
(-3.69037e-18 -3.72748e-17 9.4861)
(-4.96265e-18 5.35418e-18 8.80401)
(-1.225e-17 -1.04211e-16 8.23017)
(5.32962e-18 1.05236e-16 8.14325)
(-2.31342e-17 -4.03863e-17 8.60485)
(4.21351e-18 -2.17448e-16 9.53636)
(1.28195e-16 7.78044e-16 10.8698)
(1.52328e-17 7.21236e-17 12.4208)
(-4.50362e-17 -1.2517e-16 15.0809)
(-9.26323e-19 -4.5481e-17 19.2568)
(4.86496e-18 4.45106e-17 23.8137)
(-5.06748e-17 -1.73068e-16 28.2407)
(1.74673e-16 5.09864e-16 32.3023)
(-2.58413e-18 1.40744e-17 35.9114)
(2.80577e-16 3.14612e-16 39.0078)
(-1.34804e-16 -7.51637e-17 41.5342)
(4.15468e-18 3.02487e-16 43.4731)
(2.85375e-17 1.32316e-16 44.7586)
(-4.51546e-17 -3.41387e-16 45.4941)
(-2.37012e-16 -2.39637e-16 45.7914)
(-1.46057e-16 -1.73768e-16 45.7914)
(-3.41662e-17 -6.6497e-17 45.6279)
(4.03259e-18 7.25933e-18 45.1983)
(2.00597e-17 -2.34249e-17 44.9555)
(2.78146e-17 3.31472e-16 44.6318)
(-6.33193e-17 2.92123e-16 44.1579)
(-1.61897e-17 -2.83753e-16 43.1311)
(-3.49301e-17 -7.53991e-17 41.5215)
(7.30437e-18 1.43822e-17 38.8375)
(-5.32097e-19 1.18421e-18 34.8303)
(2.40137e-18 -2.88124e-17 30.1289)
(9.69097e-18 -5.68677e-17 25.4307)
(1.48776e-17 1.44802e-16 20.9786)
(-3.7157e-17 3.47202e-16 17.1332)
(3.66817e-17 -2.99711e-16 14.0732)
(5.99068e-19 1.71719e-17 11.6303)
(-3.21173e-18 2.81031e-18 9.82461)
(4.44468e-19 -3.99515e-18 8.4531)
(1.10757e-17 -1.08976e-16 7.41112)
(1.88992e-17 -7.08689e-16 6.63208)
(4.82417e-17 -3.76824e-16 6.02824)
(-1.5755e-18 5.94003e-17 5.5418)
(-5.21726e-17 3.56513e-16 5.12929)
(6.1865e-19 -3.48835e-16 4.7695)
(-1.18129e-17 6.70078e-17 4.44451)
(-3.62698e-17 3.23925e-16 4.14205)
(2.23354e-17 -3.73195e-16 3.85495)
(4.45394e-17 -3.67951e-16 3.57953)
(9.70267e-18 -2.61177e-16 3.31449)
(-1.9914e-18 2.67101e-17 3.06792)
(-1.7457e-17 1.68532e-17 2.8312)
(1.48846e-17 1.1526e-17 2.60441)
(-1.26507e-17 2.49918e-16 2.3925)
(4.47799e-19 -2.68943e-17 2.20913)
(8.93767e-18 -2.09386e-16 2.0408)
(4.75553e-19 2.10358e-16 1.90287)
(-5.90609e-20 -7.72959e-18 1.79154)
(1.07884e-19 -7.70922e-20 1.71225)
(-6.00948e-20 9.09558e-18 1.64587)
(2.30035e-19 3.75934e-17 1.59722)
(1.5496e-18 -7.94579e-17 1.55338)
(-1.98225e-19 -1.98308e-18 1.48814)
(4.52096e-18 -5.88649e-18 1.36559)
(9.17297e-18 -7.64453e-18 1.131)
(-1.19094e-17 -2.95038e-17 0.723052)
(3.01235e-17 2.63179e-16 0.174625)
(-1.65088e-18 2.7388e-16 -0.471028)
(3.40036e-17 3.32688e-16 -1.1544)
(1.99395e-17 3.69233e-17 -1.74275)
(-1.02952e-17 2.79392e-16 -2.14788)
(-1.04532e-17 3.65101e-16 -2.30071)
(-4.60902e-19 -8.52488e-18 -2.18552)
(5.01704e-17 3.32428e-16 -1.81261)
(2.12857e-17 7.57962e-16 -1.22595)
(2.31993e-18 5.61103e-17 -0.477251)
(2.44624e-17 3.72902e-16 0.400002)
(1.97219e-18 6.77178e-17 1.41575)
(1.8771e-17 -2.94016e-16 2.60608)
(1.569e-17 -3.24605e-16 4.0678)
(2.08637e-17 -2.92457e-17 5.8681)
(2.38377e-17 4.2341e-17 8.07221)
(-3.12279e-17 -3.16797e-16 10.7331)
(1.06726e-17 2.29328e-16 13.6955)
(7.45402e-19 -6.2619e-18 16.9931)
(5.15488e-17 5.33847e-16 20.1277)
(7.68143e-18 1.64594e-16 22.9472)
(1.53764e-17 2.48522e-16 24.9398)
(1.83331e-19 6.0759e-18 25.4667)
(1.70362e-20 7.27707e-17 24.4655)
(1.28641e-18 -8.22167e-18 22.4029)
(-1.27519e-19 2.93725e-19 19.6362)
(-1.84228e-18 -8.74577e-18 16.8126)
(3.43578e-17 -2.40375e-16 14.2518)
(-2.56648e-17 3.84517e-16 12.114)
(-4.79962e-20 1.99997e-17 10.3862)
(-2.84084e-17 2.29204e-16 9.00225)
(4.93674e-17 -6.6341e-16 7.95398)
(-5.08668e-17 4.0855e-16 7.14006)
(-5.45635e-18 -3.40058e-16 6.4883)
(-3.44587e-17 9.13973e-17 5.96234)
(1.91865e-17 -3.00216e-16 5.52704)
(1.1067e-18 6.31503e-17 5.15006)
(-5.06257e-17 3.84383e-16 4.8092)
(3.81453e-17 -1.16711e-16 4.491)
(-3.24144e-17 3.92695e-16 4.18999)
(-1.95679e-17 -1.46097e-17 3.90468)
(-2.67676e-18 -2.53791e-17 3.63119)
(2.18953e-17 -2.78373e-16 3.36738)
(-2.49197e-17 2.95298e-16 3.10949)
(1.62882e-18 -2.53367e-17 2.86573)
(1.28621e-17 7.51487e-18 2.64234)
(-1.0413e-17 2.33989e-16 2.42285)
(2.5518e-18 -5.53599e-17 2.22867)
(-2.11302e-17 2.53944e-16 2.05901)
(1.61383e-18 -1.90572e-17 1.91909)
(7.62971e-19 -1.37883e-16 1.82064)
(2.18502e-18 -8.27062e-17 1.74965)
(4.18515e-19 6.65414e-17 1.72174)
(-6.02199e-19 -4.58529e-17 1.72914)
(1.69128e-18 -1.39765e-18 1.72751)
(2.87666e-18 5.1794e-17 1.68716)
(2.32733e-18 2.18926e-17 1.5491)
(-1.79142e-17 -3.80347e-16 1.24486)
(2.16113e-18 4.55051e-17 0.770573)
(2.73388e-17 1.17498e-17 0.158618)
(1.7923e-17 2.33128e-16 -0.546755)
(9.04258e-18 1.01705e-16 -1.24287)
(-3.70159e-18 1.36822e-18 -1.77447)
(-2.59561e-17 -2.84977e-17 -2.07257)
(1.62055e-17 7.07079e-17 -2.0849)
(-1.42776e-17 -7.60559e-16 -1.76923)
(-7.28757e-18 6.31132e-18 -1.11704)
(1.7556e-19 3.74204e-16 -0.116854)
(2.67584e-17 3.61983e-16 0.947286)
(7.19436e-18 4.19374e-17 2.4952)
(-3.6153e-17 -3.00788e-16 4.1433)
(-2.31904e-17 -5.18497e-16 5.82101)
(-5.80155e-18 -2.85969e-17 7.53481)
(-4.73492e-18 -5.11287e-17 9.11851)
(-7.16151e-18 -1.83102e-16 10.3853)
(-2.98961e-18 -5.70134e-17 11.0896)
(-2.3699e-18 -2.03728e-18 11.2319)
(3.6692e-21 -7.19557e-19 11.3077)
(-1.21411e-18 -9.13732e-21 11.4479)
(1.17354e-18 -6.93611e-19 11.5641)
(8.85892e-20 -3.06051e-19 11.6097)
(-6.80326e-21 -4.95399e-17 11.602)
(2.46885e-19 4.84682e-17 11.562)
(-9.62164e-20 2.46012e-17 11.5084)
(-1.97805e-19 -2.4629e-17 11.4556)
(-1.98232e-20 2.31491e-17 11.4129)
(7.73479e-20 -4.84461e-17 11.3869)
(-5.56969e-20 2.31846e-17 11.3816)
(-1.8382e-19 -4.8205e-20 11.4003)
(1.91753e-19 -6.70673e-19 11.4472)
(-2.37368e-20 4.20482e-19 11.5273)
(6.85793e-19 -2.37006e-17 11.6485)
(-7.10206e-19 2.24356e-17 11.819)
(9.71758e-19 -2.27617e-17 12.0502)
(-9.84288e-19 2.22406e-17 12.3559)
(6.22438e-19 -1.18977e-17 12.7527)
(-6.44874e-19 1.07419e-17 13.26)
(4.70233e-20 -8.49473e-19 13.9028)
(-5.38739e-20 -5.59086e-19 14.7154)
(-6.46328e-19 -1.0705e-20 15.7502)
(7.48272e-19 -5.56999e-19 17.1002)
(-9.11322e-20 -9.02898e-19 18.9303)
(6.72173e-19 -4.11688e-18 21.6007)
(-5.41565e-19 4.98028e-18 25.9699)
(-6.08042e-21 -5.72224e-19 32.2946)
(-3.02064e-20 -3.52448e-20 30.6196)
(-8.81889e-20 -2.53479e-19 -1.39961)
(-4.09173e-20 -7.43219e-20 9.37282)
(-3.79085e-20 -7.14464e-19 11.4974)
(9.0018e-19 1.65862e-18 11.5624)
(-1.72892e-18 -5.18292e-18 11.1082)
(6.82388e-19 -1.74428e-18 10.5064)
(4.67278e-20 3.40341e-18 9.89779)
(-1.51158e-19 -1.39742e-18 9.32764)
(-3.98729e-20 -1.10552e-18 8.80472)
(1.63511e-19 -1.11465e-18 8.32898)
(-7.38782e-19 -1.53926e-18 7.8983)
(1.12141e-18 -1.47306e-17 7.50968)
(-9.6777e-19 1.34912e-17 7.15981)
(2.18275e-18 -1.39708e-17 6.8454)
(-9.25368e-19 2.63665e-17 6.56344)
(2.73204e-19 -2.93372e-17 6.31117)
(-1.05165e-18 1.15811e-17 6.08603)
(6.86201e-19 -1.40741e-17 5.8857)
(2.08301e-18 -2.00076e-17 5.70806)
(-1.37795e-18 2.61204e-17 5.55113)
(-3.44487e-19 2.32073e-18 5.41297)
(3.84747e-19 -3.2655e-17 5.29158)
(-1.51415e-18 2.59047e-17 5.18475)
(2.39784e-18 3.30877e-17 5.08991)
(2.24237e-18 -2.63291e-17 5.00408)
(-2.34334e-18 7.79516e-20 4.92366)
(-3.83134e-18 -3.07641e-17 4.84413)
(4.46488e-18 -9.02722e-18 4.75953)
(-1.93025e-18 6.18312e-17 4.66178)
(2.20546e-18 1.30525e-17 4.5398)
(-1.968e-18 -2.65927e-17 4.36493)
(4.70161e-18 -2.08133e-17 4.10485)
(-8.15331e-18 -7.23349e-17 3.89498)
(1.94007e-18 -1.92261e-16 3.80406)
(-3.87255e-17 -1.64594e-16 3.80853)
(-1.07318e-16 -2.67355e-16 3.86656)
(7.81829e-18 -7.08669e-17 4.00098)
(6.58649e-17 1.7187e-16 4.36767)
(-7.00678e-18 4.50416e-17 4.92442)
(-1.17247e-16 -8.30926e-17 5.55315)
(-7.74933e-17 -4.3595e-17 6.33047)
(-2.02311e-16 -2.93484e-16 7.17987)
(-3.92169e-17 7.74232e-18 8.01992)
(-4.20629e-16 -4.93836e-16 8.82001)
(2.1312e-16 1.60295e-16 9.5602)
(-2.64716e-16 -1.60736e-16 10.2142)
(1.96789e-16 2.91986e-17 10.756)
(5.01423e-18 5.32678e-17 11.2055)
(-2.48376e-18 4.31833e-17 11.5742)
(2.02639e-16 2.29537e-16 11.8997)
(-2.23505e-16 -7.54242e-17 12.1428)
(2.37657e-17 -5.76326e-17 12.3544)
(1.96596e-16 9.90246e-17 12.5759)
(-7.05994e-17 -3.6183e-17 12.911)
(1.48269e-16 1.14452e-16 13.4406)
(9.63958e-18 2.09437e-17 14.1135)
(3.98746e-17 5.10576e-17 14.9381)
(-1.57629e-17 -1.86233e-17 15.9193)
(-4.90567e-19 -4.91771e-18 16.6686)
(-4.42914e-18 1.54217e-17 16.8234)
(-1.67698e-17 8.69875e-17 16.1487)
(-2.74153e-17 2.02542e-16 14.8369)
(-4.52755e-17 1.93941e-16 12.9407)
(-3.5573e-17 2.62662e-16 11.1553)
(-1.17627e-17 -3.97605e-17 9.45605)
(1.58758e-17 2.04181e-17 8.04646)
(4.0093e-19 -3.31415e-18 6.9161)
(-1.03545e-17 7.13406e-17 6.0246)
(-6.60535e-17 6.33253e-16 5.35248)
(-2.83992e-17 -3.13998e-16 4.84566)
(-1.98708e-18 3.43521e-17 4.46052)
(-3.64074e-18 3.92295e-16 4.15012)
(-5.24394e-17 3.0096e-16 3.88517)
(-4.17253e-17 3.63291e-16 3.64559)
(3.41769e-17 -1.07275e-16 3.4171)
(3.81449e-18 -5.09379e-17 3.18985)
(-3.4408e-17 -2.27354e-16 2.96079)
(-3.1749e-17 3.41521e-16 2.71983)
(1.76084e-19 1.1456e-17 2.47886)
(1.14303e-17 2.11255e-16 2.23472)
(-1.03102e-17 -2.48163e-16 1.98801)
(1.19918e-17 1.04653e-17 1.72234)
(5.34505e-20 -3.55895e-20 1.46458)
(-8.67155e-18 -3.95245e-18 1.18245)
(7.64483e-18 -1.96654e-16 0.892704)
(-3.40799e-19 1.40365e-17 0.568012)
(8.53844e-19 -1.11618e-17 0.233785)
(-2.01211e-19 1.1791e-17 -0.0988311)
(-7.03042e-19 -1.60992e-17 -0.397648)
(1.67154e-18 1.97206e-16 -0.611153)
(-9.82522e-19 -7.61236e-18 -0.730588)
(-1.31344e-17 -1.53476e-18 -0.798172)
(-4.76439e-18 2.42287e-16 -0.833134)
(2.0662e-17 -2.55248e-16 -0.84057)
(-1.62694e-17 2.76016e-16 -0.878345)
(-2.98197e-17 -3.06893e-16 -0.953378)
(-6.03587e-17 1.93975e-16 -1.07413)
(-3.54666e-17 3.50907e-16 -1.22948)
(-1.12818e-17 -2.89054e-16 -1.39322)
(7.95682e-18 -3.54137e-16 -1.54178)
(6.34746e-19 -6.01104e-17 -1.65631)
(-6.5351e-17 3.22083e-16 -1.71112)
(-4.70296e-17 -3.77166e-16 -1.69823)
(2.13373e-17 4.39845e-18 -1.61243)
(-5.71983e-17 -6.63438e-17 -1.45156)
(-2.15457e-18 -6.66882e-17 -1.21837)
(-9.29934e-18 6.10596e-16 -0.904634)
(2.81385e-17 7.34916e-16 -0.516753)
(1.88849e-17 3.57905e-16 -0.0385006)
(-1.87272e-18 2.61973e-16 0.540164)
(6.0148e-17 3.77575e-16 1.20824)
(-7.22385e-17 -5.09529e-16 1.96675)
(7.39606e-19 -1.03621e-17 2.89762)
(-8.4855e-17 -2.43893e-16 4.00507)
(-2.21219e-18 7.57484e-18 5.3247)
(-1.85433e-17 -8.3962e-17 6.91154)
(-1.16371e-18 -1.17322e-17 8.67968)
(2.74595e-18 -2.91086e-17 10.3042)
(6.62519e-19 -3.34183e-18 11.3082)
(-7.16759e-19 4.8859e-18 11.6354)
(2.63945e-19 1.95681e-17 11.0309)
(-5.65955e-17 2.68469e-16 10.0087)
(2.25369e-17 -3.34019e-17 8.91657)
(5.05519e-18 -5.44355e-17 7.86199)
(7.83974e-17 -2.9987e-16 6.90562)
(-1.04739e-16 4.46713e-16 6.12023)
(3.33623e-17 2.46555e-16 5.50625)
(-6.81496e-17 6.5929e-16 5.0257)
(-6.34485e-17 5.85906e-16 4.6465)
(-2.17927e-17 2.20703e-16 4.33622)
(-6.89529e-18 4.34308e-17 4.06961)
(8.5081e-18 1.69889e-16 3.827)
(5.05729e-17 -6.15141e-16 3.59333)
(2.72971e-17 1.26551e-16 3.35819)
(-2.0119e-17 1.9193e-16 3.1197)
(-7.29833e-18 -1.51303e-17 2.876)
(-9.82453e-19 -1.72641e-19 2.62459)
(4.20269e-17 -6.50432e-17 2.3658)
(2.38697e-18 -7.08833e-17 2.09309)
(-1.8508e-18 -1.51626e-16 1.82359)
(2.36903e-18 -3.85077e-17 1.55338)
(9.80266e-19 8.36009e-18 1.25925)
(1.07761e-17 7.44099e-17 0.967191)
(6.54092e-18 -9.05984e-17 0.651563)
(-9.16387e-18 1.36976e-16 0.335597)
(-2.80514e-18 -4.68354e-18 0.0140293)
(1.02814e-18 4.34923e-17 -0.301907)
(-1.56849e-18 -4.70621e-17 -0.550185)
(1.29439e-18 9.7221e-17 -0.702432)
(-8.66471e-18 -2.30919e-18 -0.782289)
(3.19958e-18 1.99872e-18 -0.834729)
(1.30108e-17 9.60535e-18 -0.875918)
(-1.65903e-17 -4.87697e-17 -0.923238)
(-2.99458e-17 6.12166e-16 -1.02718)
(-2.78604e-17 1.66231e-16 -1.16632)
(-4.49046e-18 9.13483e-17 -1.33775)
(-7.60033e-18 -5.69186e-17 -1.54673)
(7.363e-17 -4.88578e-16 -1.72694)
(-1.57671e-17 1.14312e-16 -1.8691)
(3.48111e-17 4.19966e-16 -1.94518)
(1.79442e-17 6.58309e-17 -1.93579)
(-2.15403e-17 -3.09556e-16 -1.83758)
(-2.1108e-17 5.25011e-17 -1.82308)
(1.74006e-17 3.33902e-17 -1.70851)
(3.88266e-17 -3.40901e-16 -1.6209)
(3.59301e-17 2.53822e-16 -1.43428)
(3.91014e-18 1.6772e-17 -1.15515)
(-1.91494e-18 -3.10607e-18 -0.773756)
(1.61175e-17 5.17785e-17 -0.260536)
(3.34307e-18 5.01988e-17 0.394004)
(-3.7074e-19 -4.06306e-17 1.02669)
(-1.69858e-18 1.26427e-19 1.46322)
(-3.70432e-20 -4.45492e-17 1.80092)
(-2.79096e-19 4.18693e-17 2.08179)
(2.16144e-20 2.50806e-18 2.31047)
(1.25618e-19 4.20994e-17 2.49354)
(-2.76853e-19 -8.33145e-20 2.63716)
(1.81492e-19 -2.17905e-17 2.7516)
(3.56195e-20 -1.86483e-17 2.84592)
(-4.17332e-20 -1.96756e-17 2.92461)
(-1.94001e-20 1.96751e-17 2.99326)
(6.4815e-20 -4.18115e-19 3.05736)
(-6.01122e-20 1.97926e-17 3.12072)
(1.57712e-20 -2.05661e-17 3.18873)
(-3.38212e-20 -7.89117e-19 3.26636)
(2.12578e-19 -1.71525e-17 3.35864)
(-2.03945e-19 2.0968e-17 3.47303)
(3.14956e-19 -1.85605e-17 3.61776)
(-8.92857e-19 2.05711e-17 3.80322)
(7.92657e-19 -7.28166e-18 4.04217)
(-2.54161e-19 9.66452e-18 4.3505)
(-1.50758e-19 -6.19156e-19 4.74949)
(-2.32521e-20 2.08377e-18 5.26976)
(-5.21247e-19 6.36235e-18 5.95743)
(2.79431e-19 -7.65125e-18 6.88431)
(-1.11522e-19 1.75065e-18 8.15291)
(-5.90133e-19 1.03867e-19 9.84991)
(8.2402e-19 -6.61563e-19 11.6638)
(2.99069e-19 4.69681e-19 10.8024)
(-2.79583e-19 -1.55147e-19 -2.14773)
(-2.69784e-19 3.34477e-19 -6.50964)
(-1.4692e-18 1.10894e-19 1.12584)
(7.74875e-19 -6.10874e-19 3.81282)
(-1.43558e-19 3.64387e-19 4.85852)
(2.04643e-19 -5.43574e-19 5.2686)
(1.60505e-18 2.01317e-18 5.39047)
(-2.04046e-18 -1.53458e-18 5.36876)
(5.39025e-19 4.6359e-19 5.272)
(2.43544e-19 8.97378e-19 5.1352)
(4.58375e-19 2.63188e-18 4.97901)
(2.41226e-19 1.24682e-18 4.8164)
(1.20993e-18 3.95204e-18 4.6555)
(-1.53714e-18 -1.09403e-17 4.50108)
(2.47554e-18 2.16348e-17 4.35595)
(-2.22549e-18 -7.81879e-18 4.22184)
(2.47135e-18 1.22565e-17 4.09964)
(-1.35816e-18 -6.25567e-18 3.98958)
(3.27258e-19 1.63509e-18 3.89154)
(4.89248e-18 2.71248e-17 3.80529)
(-4.84966e-18 -1.9848e-17 3.7305)
(4.01614e-19 -4.63952e-19 3.66675)
(4.3381e-18 6.98517e-18 3.61339)
(-5.20463e-18 -2.69373e-17 3.56945)
(-1.39798e-18 2.11611e-17 3.5335)
(2.72081e-18 2.99879e-17 3.50381)
(-4.38484e-18 -1.45886e-17 3.47823)
(6.05745e-18 -3.08105e-17 3.45405)
(1.44508e-18 2.06092e-17 3.42752)
(-4.01893e-18 2.95439e-18 3.39332)
(-4.20338e-18 -5.17794e-20 3.34551)
(8.43154e-18 2.04651e-19 3.27634)
(-4.97031e-19 -1.98089e-17 3.16508)
(2.05525e-17 8.39971e-17 3.03746)
(4.68715e-17 1.95345e-16 2.88382)
(-1.87882e-17 -9.65904e-17 2.66899)
(4.30798e-17 2.41159e-17 2.37923)
(-8.90709e-17 -1.75582e-16 2.06747)
(1.29416e-17 -5.99307e-17 1.86054)
(1.26619e-16 1.38604e-16 1.7793)
(-2.57225e-17 -3.74706e-17 1.78853)
(3.47986e-16 2.78551e-16 1.94389)
(9.51037e-18 1.48622e-16 2.21516)
(-1.44758e-16 -4.62462e-18 2.55585)
(-1.11457e-16 -4.50903e-17 2.94291)
(8.77392e-18 -8.9091e-17 3.35663)
(1.95586e-16 2.19864e-16 3.77466)
(-4.87145e-16 -2.01263e-16 4.18106)
(-1.38964e-16 -9.32809e-17 4.56629)
(-4.12713e-17 -1.3528e-17 4.89153)
(-3.06316e-17 -4.79599e-17 5.18252)
(1.4149e-16 1.38114e-16 5.42758)
(-5.60181e-17 -9.687e-18 5.60346)
(-5.83401e-17 -7.65498e-17 5.74497)
(1.32513e-17 -1.57471e-17 5.8312)
(1.21525e-16 1.88868e-17 5.98453)
(-4.6954e-17 2.56037e-17 6.21628)
(-5.59481e-17 -1.36082e-17 6.56211)
(2.31668e-17 -6.39537e-18 7.05015)
(2.24326e-18 4.95403e-18 7.68397)
(2.67917e-19 1.02831e-18 8.26464)
(1.88579e-18 6.42335e-18 8.67363)
(2.14052e-17 -1.90972e-17 8.71355)
(3.47515e-17 -7.19241e-17 8.26893)
(7.50904e-17 -1.64838e-16 7.53163)
(-3.39011e-17 1.71401e-16 6.51353)
(7.68591e-17 -2.60285e-16 5.53293)
(-2.75889e-17 4.53252e-17 4.67599)
(3.23254e-18 -5.93229e-17 3.94733)
(1.29696e-16 -5.82217e-16 3.37661)
(-9.90912e-17 6.85351e-16 2.95312)
(2.45682e-17 -1.12003e-16 2.65189)
(6.57103e-17 -3.20731e-16 2.43268)
(3.31402e-17 -3.87418e-18 2.26173)
(1.34263e-17 1.76995e-16 2.11701)
(3.81981e-17 -3.79438e-16 1.97991)
(-1.16325e-17 -1.30635e-16 1.83507)
(-6.65517e-17 6.10943e-16 1.67651)
(2.26211e-17 -9.49619e-17 1.49111)
(2.0804e-17 -7.47737e-17 1.28625)
(4.33725e-17 -4.37936e-16 1.05961)
(-4.08299e-17 5.12657e-16 0.817673)
(-1.22247e-17 -2.13134e-17 0.546226)
(1.07761e-17 -7.82213e-18 0.265476)
(2.57076e-19 2.58177e-18 -0.031233)
(-1.53621e-17 1.95014e-16 -0.329676)
(4.28393e-19 -9.17345e-18 -0.63416)
(-9.02013e-19 -4.41787e-17 -0.903181)
(8.34206e-20 3.41816e-19 -1.09753)
(-3.54093e-19 -3.01014e-17 -1.18919)
(-8.31057e-18 -1.91068e-16 -1.15526)
(-1.20212e-18 9.97297e-19 -1.02462)
(-5.38211e-18 -4.24237e-16 -0.826783)
(-4.82727e-18 -2.80643e-16 -0.616747)
(5.10706e-18 4.9721e-16 -0.425164)
(-1.95543e-17 5.89093e-17 -0.289553)
(3.82414e-17 -2.35797e-16 -0.229364)
(2.50048e-17 -5.95195e-16 -0.274499)
(-2.69812e-18 -3.71831e-16 -0.389157)
(3.98615e-17 -1.05515e-17 -0.563626)
(-3.91699e-17 3.12363e-16 -0.759769)
(-2.24451e-19 5.75979e-17 -0.93159)
(-8.90078e-18 -3.69366e-16 -1.06118)
(2.55515e-17 -2.52875e-17 -1.12239)
(-3.56168e-17 3.49827e-16 -1.10906)
(5.90951e-18 -3.1973e-16 -1.02843)
(1.78321e-18 2.59608e-17 -0.898074)
(-5.74174e-17 -7.04777e-16 -0.739851)
(-9.05992e-17 -4.61196e-16 -0.573321)
(-5.44981e-17 -5.71548e-17 -0.410711)
(-4.6643e-17 -3.21549e-16 -0.253605)
(-2.89697e-17 -6.29958e-17 -0.103612)
(7.95508e-17 2.77803e-16 0.0656624)
(6.52131e-19 2.66279e-17 0.247765)
(4.47177e-18 -1.76967e-16 0.535999)
(2.50348e-18 1.61342e-18 0.89749)
(4.14294e-18 1.23725e-18 1.43116)
(2.52174e-19 8.60234e-19 2.16469)
(-4.09428e-18 2.89781e-17 3.04438)
(-4.80999e-19 -1.10115e-18 3.97067)
(1.90459e-18 -3.62236e-18 4.82837)
(-3.28356e-18 9.37606e-18 5.23442)
(2.54283e-17 -2.13534e-17 5.31737)
(1.98913e-17 -1.38977e-17 5.00185)
(-2.95655e-18 -2.32002e-17 4.50952)
(1.55463e-17 -1.86842e-16 3.97234)
(-1.29335e-17 2.09684e-16 3.478)
(1.06328e-16 -6.46086e-16 3.06849)
(1.05646e-16 -3.05044e-16 2.74405)
(7.63631e-17 -1.16465e-16 2.49043)
(5.01131e-17 -2.66486e-16 2.2942)
(1.43884e-17 9.83174e-18 2.14005)
(3.84212e-17 -3.05767e-16 2.00964)
(-2.84143e-17 2.40097e-17 1.88293)
(8.47007e-18 -9.39764e-18 1.7454)
(1.27837e-17 -5.05299e-17 1.58842)
(-2.446e-17 5.94682e-17 1.40848)
(1.85238e-17 -2.92553e-16 1.20245)
(3.23182e-17 -4.39347e-16 0.980074)
(-6.22372e-19 6.8736e-17 0.730108)
(-8.32956e-18 2.34248e-16 0.46484)
(-8.42044e-19 2.22093e-16 0.191422)
(1.31407e-17 -8.22243e-17 -0.0953115)
(8.53488e-18 -1.42699e-16 -0.381687)
(-9.77575e-19 -7.58673e-17 -0.672698)
(4.59989e-18 9.05552e-17 -0.936996)
(-1.35457e-18 1.75943e-17 -1.13385)
(-3.11937e-19 5.00364e-20 -1.24047)
(-2.74893e-18 -1.38474e-16 -1.22676)
(-4.44023e-18 -9.21376e-17 -1.11323)
(-3.43557e-18 -2.79931e-16 -0.930778)
(7.79003e-18 1.15528e-16 -0.724812)
(3.88047e-19 -4.53861e-17 -0.540785)
(1.32274e-17 -2.41293e-16 -0.403467)
(-5.33489e-19 -5.91773e-16 -0.345783)
(-1.01001e-17 -3.53701e-16 -0.392624)
(6.65839e-18 7.96102e-18 -0.515588)
(3.82913e-17 -3.75344e-16 -0.70548)
(-5.07532e-17 9.23491e-16 -0.931034)
(-2.88597e-17 1.29792e-16 -1.14453)
(-3.64847e-18 -2.10876e-17 -1.31751)
(-4.05257e-17 3.37939e-16 -1.42815)
(3.50558e-17 5.68559e-17 -1.46575)
(-3.39952e-18 -1.46337e-17 -1.50145)
(-3.31012e-17 1.92203e-16 -1.41191)
(2.0628e-17 3.70397e-16 -1.53181)
(-2.48616e-18 1.67322e-17 -1.64554)
(3.5944e-18 5.53581e-18 -1.74011)
(8.44509e-18 -1.17552e-16 -1.85343)
(-1.01407e-17 9.77604e-17 -1.95447)
(4.15034e-19 2.33836e-18 -2.00416)
(5.99997e-19 -3.41152e-18 -1.96631)
(1.10283e-18 -4.63105e-17 -1.8629)
(9.21634e-19 1.48965e-19 -1.66043)
(-1.87446e-18 -2.69415e-18 -1.39843)
(9.0414e-19 -3.66318e-18 -1.10892)
(-7.09146e-20 -4.17578e-17 -0.822704)
(-3.81084e-19 -3.02665e-18 -0.557658)
(3.77457e-19 4.24194e-17 -0.323313)
(6.02833e-20 -9.71935e-19 -0.120386)
(-4.54667e-20 2.00169e-17 0.0549109)
(-4.19556e-20 -2.12286e-17 0.206564)
(8.20569e-20 1.27021e-18 0.338478)
(-2.98241e-20 4.78885e-21 0.455405)
(-9.72356e-22 1.25515e-18 0.563101)
(-4.33123e-20 2.05344e-18 0.666989)
(7.64373e-21 -1.96411e-17 0.771571)
(6.19322e-20 1.73421e-17 0.881858)
(1.11725e-19 -1.72764e-17 1.00339)
(-8.00767e-19 3.36232e-17 1.14354)
(8.86632e-19 -2.72836e-17 1.31173)
(-3.53775e-20 9.24498e-18 1.52041)
(-1.05681e-19 2.53942e-18 1.78708)
(1.59614e-19 -1.07556e-18 2.13741)
(6.58492e-19 2.78313e-19 2.60858)
(-5.58346e-19 1.98742e-18 3.24345)
(-5.52699e-20 -8.59863e-19 4.06991)
(6.63376e-20 2.12403e-19 4.95603)
(-5.66053e-19 1.79261e-20 5.13068)
(1.15472e-18 -5.17076e-19 1.85153)
(1.4121e-18 7.70413e-19 -9.61459)
(-7.50461e-19 3.72807e-19 -6.01551)
(2.98741e-20 -2.80943e-19 -1.2733)
(-4.57488e-19 2.32043e-19 0.849173)
(-8.61534e-19 1.03627e-19 1.97618)
(4.96549e-19 -8.21611e-19 2.66937)
(1.73159e-18 1.27541e-18 3.10613)
(-1.28688e-18 -4.13713e-19 3.38649)
(5.15531e-19 5.44706e-20 3.56328)
(-1.15082e-19 3.59283e-19 3.66978)
(-1.69559e-18 -1.49762e-18 3.72877)
(6.83539e-19 -1.62313e-19 3.7561)
(-3.07247e-19 -6.44042e-19 3.76271)
(-2.50377e-20 1.78375e-19 3.75594)
(-1.4488e-18 -2.13768e-18 3.74084)
(5.00788e-19 -1.77337e-19 3.72099)
(-9.79259e-19 1.94308e-19 3.69886)
(4.52158e-21 -1.3279e-18 3.67604)
(-3.72857e-19 -1.44275e-17 3.65357)
(-2.68406e-18 2.80197e-17 3.63215)
(1.95977e-18 -1.55246e-17 3.61217)
(2.23873e-18 -3.81843e-18 3.59377)
(-1.78471e-18 1.90629e-17 3.57678)
(1.02162e-18 -1.71883e-17 3.5605)
(-2.21779e-18 -4.43917e-18 3.5438)
(-3.21811e-18 2.64027e-18 3.52514)
(1.14441e-18 -2.41001e-17 3.50247)
(1.69938e-18 1.7448e-17 3.47314)
(-3.17408e-18 -8.13206e-19 3.43353)
(6.28233e-19 2.49581e-17 3.37823)
(1.40954e-18 -2.17602e-17 3.30099)
(2.26984e-18 2.69042e-17 3.19514)
(-1.3351e-18 -2.11973e-17 3.03481)
(-2.81998e-17 -7.78814e-17 2.81019)
(-2.4974e-17 -5.07296e-17 2.48909)
(5.58669e-17 4.02448e-17 2.05499)
(-2.68409e-17 -1.35485e-17 1.53171)
(3.18614e-18 -3.28652e-17 1.00038)
(8.51905e-18 -2.8091e-17 0.575316)
(-2.306e-17 -3.5498e-17 0.285703)
(-1.62768e-17 1.58012e-17 0.122742)
(-2.31378e-17 -6.87498e-17 0.121108)
(-2.02541e-17 -8.05513e-17 0.255177)
(4.55741e-16 2.13406e-16 0.48931)
(1.63197e-16 1.65969e-16 0.800666)
(4.13633e-17 4.42166e-17 1.16772)
(7.61558e-19 7.63556e-18 1.56238)
(7.21657e-17 1.17718e-17 1.95963)
(5.16778e-16 2.04813e-16 2.34913)
(2.08136e-16 1.63647e-16 2.6939)
(2.52224e-17 -2.21977e-17 2.96372)
(3.95261e-16 1.28898e-16 3.17228)
(-2.21061e-18 8.97411e-17 3.30647)
(-1.98153e-16 -5.73755e-17 3.37514)
(-3.74948e-19 -2.87345e-17 3.39116)
(-2.99401e-17 -3.5845e-17 3.3947)
(8.06039e-17 6.88541e-18 3.4217)
(3.65497e-17 1.57693e-17 3.50348)
(-3.92773e-17 4.49263e-18 3.64619)
(7.17044e-18 -4.32758e-18 3.89413)
(-1.20508e-19 2.1992e-18 4.18109)
(-2.26338e-18 -9.78724e-18 4.49585)
(8.02694e-18 -2.05196e-17 4.72758)
(6.7874e-17 -1.17132e-16 4.72191)
(-8.99187e-17 1.68312e-16 4.38292)
(1.26732e-16 -3.63029e-16 3.84197)
(-4.21527e-17 7.87956e-17 3.21028)
(-6.62659e-17 2.62912e-16 2.51003)
(-1.04553e-17 4.04855e-17 1.82957)
(-1.26659e-16 3.24806e-16 1.27409)
(1.24933e-16 -4.83595e-16 0.84858)
(1.67585e-17 -1.97958e-16 0.54953)
(-2.56088e-17 2.0776e-17 0.355321)
(5.08261e-17 -3.3536e-16 0.234306)
(5.3088e-17 -2.53368e-16 0.15511)
(-4.3672e-17 9.60581e-17 0.0930869)
(-7.40556e-17 5.41033e-16 0.0230594)
(8.42334e-17 -4.07789e-16 -0.0516026)
(-6.99935e-18 4.26325e-17 -0.153142)
(9.82459e-18 -2.20124e-16 -0.284542)
(-5.55147e-17 2.75508e-16 -0.434301)
(6.4663e-17 -2.74968e-16 -0.599568)
(-3.97947e-18 2.19227e-16 -0.79279)
(1.63027e-18 -2.21277e-16 -0.997901)
(-8.95812e-18 1.71562e-17 -1.19305)
(7.64406e-18 -9.2899e-18 -1.37148)
(-1.12834e-19 -4.5892e-18 -1.50244)
(-9.35857e-19 5.58724e-17 -1.56912)
(7.39853e-20 -1.66694e-18 -1.53738)
(2.43326e-18 5.56227e-17 -1.3873)
(7.456e-18 9.99035e-17 -1.13796)
(-3.04013e-18 -3.47911e-17 -0.824978)
(2.38964e-17 2.49623e-16 -0.482905)
(-3.45775e-18 2.49951e-16 -0.161918)
(-1.46596e-17 -2.5571e-16 0.106627)
(-1.36068e-17 -3.84882e-17 0.28517)
(7.44939e-18 2.59979e-16 0.358993)
(4.07388e-18 3.33757e-16 0.323217)
(1.77989e-17 3.67732e-17 0.204135)
(-6.01481e-17 3.28349e-16 0.0276258)
(4.44113e-17 -6.25256e-16 -0.158153)
(3.71198e-19 -5.21244e-17 -0.318832)
(2.37266e-17 2.56212e-17 -0.415285)
(-3.32872e-20 2.78421e-17 -0.433352)
(-1.08366e-17 -3.58271e-16 -0.375967)
(2.5891e-17 -2.37911e-17 -0.263124)
(-3.98339e-19 6.12453e-18 -0.12536)
(5.7095e-17 8.50616e-17 0.00538449)
(4.77171e-17 -2.40199e-16 0.104886)
(-9.03117e-18 -3.25741e-16 0.159456)
(6.78261e-18 -1.65348e-17 0.170774)
(0 -0 0.144917)
(-8.8261e-18 -6.0125e-18 0.109622)
(-9.93787e-18 -1.06211e-17 0.0515125)
(2.94469e-17 9.41837e-17 0.0264079)
(-4.29239e-19 8.00627e-17 0.00585886)
(6.58473e-19 2.31612e-18 0.0455439)
(-2.54838e-19 3.70209e-18 0.166809)
(8.99176e-19 -1.29315e-19 0.395769)
(3.68239e-19 -9.61615e-20 0.765739)
(-8.77609e-19 3.53807e-19 1.1413)
(1.42144e-17 -6.78746e-18 1.53651)
(-2.99508e-18 -1.06897e-17 1.7495)
(3.37463e-17 -1.67667e-16 1.71049)
(3.67702e-18 3.41653e-17 1.52279)
(-9.03689e-17 2.41286e-16 1.24296)
(9.32363e-17 -2.99916e-16 0.892687)
(-1.1541e-16 3.72493e-16 0.542607)
(-2.97337e-17 -3.1119e-17 0.267358)
(7.17393e-17 -2.78656e-16 0.0763937)
(-4.70255e-17 2.652e-16 -0.044426)
(1.57517e-17 -1.92798e-16 -0.121555)
(-4.41887e-17 3.03064e-16 -0.171222)
(-4.25698e-18 -5.7076e-17 -0.211564)
(-1.44097e-17 -1.02726e-17 -0.253952)
(1.70264e-17 3.45586e-17 -0.31907)
(-5.467e-18 1.79243e-16 -0.411006)
(-4.11866e-17 9.56594e-17 -0.524007)
(-6.2491e-17 2.64996e-16 -0.658437)
(-2.43029e-17 2.5287e-17 -0.826888)
(3.12997e-17 -3.14238e-16 -1.01125)
(2.06709e-17 -4.03352e-16 -1.19589)
(-1.69987e-18 -2.08296e-16 -1.36643)
(-3.59752e-18 6.43548e-17 -1.51742)
(-2.16625e-18 4.36564e-17 -1.62317)
(2.07621e-18 -4.58243e-17 -1.67065)
(9.20493e-19 2.30799e-17 -1.63005)
(-1.52106e-18 -4.04025e-18 -1.47672)
(8.42652e-18 1.94948e-16 -1.22546)
(1.98775e-18 -5.25004e-18 -0.909972)
(1.64343e-17 2.76552e-16 -0.566559)
(-8.35513e-18 1.877e-16 -0.24164)
(1.46918e-18 -1.77877e-18 0.0320042)
(1.66538e-17 2.0236e-16 0.212279)
(1.82471e-17 4.1336e-16 0.284867)
(4.55394e-17 -1.95411e-16 0.245937)
(-2.54423e-17 1.95187e-16 0.107106)
(-1.13151e-17 4.67307e-16 -0.082572)
(-1.157e-17 -4.22715e-16 -0.297868)
(3.07206e-17 -3.88353e-16 -0.497157)
(-4.4755e-17 4.23159e-16 -0.636429)
(4.06533e-18 -4.54746e-16 -0.707093)
(-4.14667e-17 3.06725e-16 -0.702919)
(1.54822e-17 1.43972e-16 -0.638652)
(-9.50319e-18 -3.85599e-16 -0.524078)
(-2.34439e-17 -4.09349e-17 -0.576843)
(-2.47369e-17 2.54674e-16 -0.667225)
(-4.57713e-18 6.63786e-17 -0.791352)
(2.3261e-18 1.20857e-16 -0.980075)
(2.4489e-18 -1.09045e-16 -1.21852)
(-2.78828e-18 4.9167e-17 -1.48742)
(3.52764e-18 -4.91616e-17 -1.72068)
(2.33724e-18 -1.28595e-18 -1.83315)
(-7.38446e-19 -2.39347e-18 -1.77996)
(9.44758e-19 -4.32716e-17 -1.60036)
(-1.07245e-18 4.69357e-17 -1.34344)
(2.63924e-19 4.44583e-17 -1.05032)
(5.16237e-19 -3.76622e-17 -0.750847)
(-8.06912e-19 2.07106e-17 -0.470943)
(1.62991e-19 -2.08345e-17 -0.221367)
(-2.78149e-20 5.5917e-21 -0.000538467)
(-2.18101e-19 2.24933e-17 0.192289)
(3.245e-19 -1.98863e-17 0.36053)
(-4.71953e-19 2.17989e-17 0.508923)
(9.80497e-20 -1.9611e-17 0.642812)
(3.3176e-19 -2.19586e-18 0.767787)
(-4.9657e-19 2.30234e-18 0.88779)
(2.36297e-19 -3.14284e-20 1.00612)
(-8.69462e-19 4.66052e-20 1.12647)
(1.43153e-18 2.10761e-18 1.2532)
(-1.12055e-18 -6.3905e-20 1.39232)
(1.64926e-19 -1.77611e-19 1.55296)
(6.05573e-19 -3.65856e-18 1.74883)
(-7.94141e-19 1.6968e-19 1.99907)
(7.51233e-19 -5.89623e-19 2.32603)
(2.17426e-18 -4.41052e-18 2.73963)
(-1.37427e-18 2.80254e-18 3.17757)
(4.18471e-19 -3.07091e-19 3.33887)
(-2.79439e-19 2.75827e-20 2.34069)
(-4.1206e-19 2.53136e-19 -1.63888)
(-1.41495e-18 -3.72933e-19 -10.5313)
(1.04193e-18 1.47163e-19 -5.1278)
(-1.16334e-18 6.61721e-19 -1.9709)
(-1.83232e-18 -4.20876e-19 -0.337966)
(2.88397e-18 -8.69425e-20 0.638468)
(-5.26052e-18 9.25757e-19 1.33688)
(1.50594e-18 -1.25999e-18 1.86353)
(4.32671e-19 6.15531e-19 2.25599)
(-1.0191e-18 -4.70101e-19 2.55147)
(-4.24129e-20 6.96507e-19 2.77573)
(-3.1909e-18 -3.82491e-18 2.94789)
(3.21149e-18 2.02057e-18 3.08182)
(-1.00243e-18 2.16282e-19 3.18737)
(-2.40165e-18 -5.22006e-18 3.27144)
(3.09443e-18 3.03385e-18 3.33894)
(-7.29879e-19 -4.93016e-19 3.39343)
(-4.48099e-19 6.9491e-21 3.43749)
(9.48613e-19 -1.86143e-18 3.47291)
(1.52686e-18 7.73118e-18 3.50094)
(-3.35233e-18 -2.09386e-17 3.52239)
(3.21443e-18 8.65689e-18 3.53771)
(1.90828e-18 1.67191e-17 3.54697)
(-4.10947e-18 -1.22665e-17 3.54983)
(2.62538e-18 -2.38236e-18 3.54543)
(4.85032e-19 2.18406e-18 3.5324)
(5.65373e-19 6.89781e-19 3.50887)
(2.45535e-18 9.95781e-19 3.47239)