/*--------------------------------*- C++ -*----------------------------------*\
| =========                 |                                                 |
| \\      /  F ield         | OpenFOAM: The Open Source CFD Toolbox           |
|  \\    /   O peration     | Version:  2506                                  |
|   \\  /    A nd           | Website:  www.openfoam.com                      |
|    \\/     M anipulation  |                                                 |
\*---------------------------------------------------------------------------*/
FoamFile
{
    version     2.0;
    format      ascii;
    arch        "LSB;label=32;scalar=64";
    class       volVectorField;
    location    "1.1";
    object      vorticityField;
}
// * * * * * * * * * * * * * * * * * * * * * * * * * * * * * * * * * * * * * //

dimensions      [0 0 -1 0 0 0 0];

internalField   nonuniform List<vector> 
4000
(
(-2.28919e-20 7.75931e-18 -55.9273)
(-8.49448e-18 -5.92232e-18 -59.7889)
(9.1284e-18 -2.64969e-17 -56.8305)
(3.37356e-17 3.89757e-17 -50.666)
(-6.98527e-17 4.98757e-18 -45.369)
(3.60274e-17 -3.6477e-17 -41.5547)
(-3.03998e-19 1.71736e-17 -38.8674)
(3.4759e-17 -0 -36.9594)
(-3.42325e-17 -3.43926e-17 -35.609)
(7.09408e-17 3.03818e-17 -34.6423)
(-7.10417e-17 -2.99312e-17 -33.9275)
(1.6983e-18 2.6087e-17 -33.3739)
(-5.26417e-18 7.63449e-17 -32.9227)
(7.27379e-17 -6.84899e-17 -32.5358)
(-3.22377e-19 -0 -32.1894)
(-1.36749e-16 -6.71719e-17 -31.8682)
(1.38567e-16 5.96553e-17 -31.5623)
(-7.54217e-17 7.47418e-17 -31.2644)
(3.56996e-18 -6.72252e-17 -30.9684)
(0 -0 -30.669)
(0 -0 -30.361)
(0 -0 -30.0386)
(8.88707e-18 -1.3097e-16 -29.6957)
(1.219e-16 2.47652e-16 -29.3258)
(-2.80215e-16 2.80793e-17 -28.9214)
(1.59474e-16 -2.75484e-16 -28.4739)
(-1.00274e-17 1.30724e-16 -27.9734)
(0 -0 -27.4082)
(0 -0 -26.7636)
(-1.14087e-17 1.28901e-16 -26.0207)
(-2.62348e-16 -1.17615e-16 -25.1527)
(1.50996e-16 -1.40583e-16 -24.1263)
(2.72043e-16 1.62152e-17 -22.897)
(1.43966e-17 -1.36829e-16 -21.0852)
(-7.65402e-17 7.57742e-16 -18.9654)
(-3.49112e-16 6.27029e-16 -17.9048)
(-1.03003e-15 -1.10477e-15 -18.3775)
(-5.23988e-19 6.33224e-18 -19.881)
(6.84644e-16 1.84154e-15 -22.1974)
(-8.39868e-16 -1.11435e-15 -25.4293)
(4.15014e-16 -2.40268e-15 -30.1232)
(1.17225e-15 2.26048e-15 -35.6347)
(-4.08336e-16 9.67938e-16 -40.916)
(2.63631e-16 -1.07678e-15 -45.7624)
(1.1951e-15 8.40213e-16 -50.2149)
(-1.37846e-15 2.2602e-16 -54.4459)
(-1.38497e-15 5.34824e-16 -58.6178)
(-1.11499e-15 -1.11188e-15 -62.4518)
(-1.19224e-15 -1.36538e-15 -66.0917)
(-5.39119e-16 -1.38062e-15 -69.4652)
(7.52112e-16 -4.18042e-16 -72.4135)
(-4.36266e-17 5.41767e-16 -75.0775)
(-6.20633e-16 -1.18224e-15 -77.074)
(8.04081e-16 -6.95833e-17 -78.6579)
(-9.89799e-17 1.15659e-15 -79.5208)
(-3.43724e-16 1.02905e-16 -79.7492)
(2.24216e-16 -3.94656e-17 -79.3539)
(7.63463e-17 -2.05375e-17 -78.0964)
(1.42713e-16 6.14321e-17 -76.4482)
(-7.26983e-17 -4.79538e-17 -74.0105)
(7.87831e-17 -1.49792e-17 -71.0109)
(2.91761e-16 9.84637e-18 -67.7808)
(-1.37427e-16 -7.30437e-17 -64.2229)
(-6.98288e-17 -7.12455e-16 -60.6349)
(1.00931e-16 -1.88621e-16 -57.0311)
(-1.06632e-16 8.18324e-16 -53.5003)
(6.29376e-16 -5.94035e-17 -50.1979)
(3.38244e-17 -4.51605e-16 -47.01)
(3.15832e-16 7.05393e-16 -44.1348)
(-8.24667e-16 8.31306e-16 -41.4123)
(-1.76665e-16 -6.15875e-16 -38.9474)
(-9.4449e-17 -3.14616e-16 -36.6826)
(-1.29982e-19 1.52204e-18 -34.5286)
(-9.84689e-16 6.2458e-16 -32.5799)
(-9.60722e-16 6.85114e-16 -30.7306)
(-4.30327e-17 8.46698e-16 -28.9753)
(-8.46821e-16 5.43276e-16 -27.3402)
(9.82432e-17 -8.71764e-16 -25.7773)
(-9.2648e-16 4.21181e-16 -24.2695)
(7.85364e-16 2.78629e-16 -22.8409)
(-1.52024e-15 4.11652e-16 -21.4769)
(-1.8135e-16 -8.76931e-16 -20.1704)
(4.34865e-17 -1.16588e-16 -18.9292)
(-5.56355e-17 7.72731e-18 -17.7505)
(7.44088e-16 1.22313e-15 -16.6362)
(-1.31041e-15 1.74057e-15 -15.593)
(2.75915e-17 -1.57225e-15 -14.6059)
(-6.76534e-17 -8.55676e-16 -13.6766)
(-1.21492e-17 1.53614e-15 -12.8223)
(-5.55093e-16 3.58404e-16 -12.0171)
(2.08882e-18 3.60565e-18 -11.2628)
(-5.47457e-16 1.00728e-15 -10.5824)
(-2.68149e-16 -1.23144e-15 -9.94617)
(1.9696e-16 -4.37297e-16 -9.3658)
(4.67931e-18 6.62795e-16 -8.85373)
(7.78692e-17 -7.08971e-16 -8.38881)
(2.35273e-16 -1.21122e-16 -8.00181)
(3.05735e-17 3.32239e-17 -7.66591)
(-3.47139e-16 -7.77088e-17 -7.40534)
(6.0428e-17 2.94815e-16 -7.2153)
(6.08685e-17 -1.57022e-18 -7.11987)
(2.41115e-17 -6.41974e-17 -7.09968)
(-1.08182e-17 1.89095e-16 -7.181)
(-2.76647e-17 5.15947e-17 -7.34417)
(-4.21079e-17 -2.06965e-17 -7.61921)
(-7.55161e-19 -6.85528e-17 -7.99971)
(4.08876e-18 5.49044e-16 -8.50383)
(-2.23647e-16 -1.7563e-17 -9.13314)
(-2.50803e-16 -9.25898e-16 -9.89336)
(4.78026e-16 -1.38587e-16 -10.79)
(-2.23173e-16 1.73521e-16 -11.8315)
(1.12362e-17 6.14314e-16 -13.0119)
(-2.55803e-16 -1.20579e-16 -14.3537)
(-2.2601e-16 -4.91777e-16 -15.8148)
(-7.52499e-18 -6.36878e-16 -17.46)
(5.00823e-16 3.3089e-16 -19.2227)
(3.51344e-18 1.2532e-15 -21.1209)
(-2.08454e-17 1.34373e-16 -23.1602)
(4.87697e-16 3.58266e-16 -25.2938)
(-5.28296e-16 -3.95799e-16 -27.5238)
(-5.47537e-16 -1.92474e-15 -29.8467)
(6.40774e-16 4.28012e-16 -32.2192)
(3.37451e-17 1.40534e-15 -34.6282)
(-5.97666e-16 -4.30634e-16 -37.088)
(-1.09509e-16 -1.46095e-15 -39.5549)
(1.1264e-15 7.98392e-16 -42.0294)
(-3.6362e-16 4.32869e-16 -44.4993)
(5.15275e-16 -1.29053e-16 -46.9457)
(6.18274e-16 8.87065e-16 -49.3803)
(-9.15553e-17 9.68275e-16 -51.836)
(-2.46766e-17 5.36379e-16 -54.2008)
(-6.75643e-16 -8.90317e-17 -56.5565)
(-2.18501e-16 -6.40376e-16 -58.9671)
(-1.10294e-15 -7.6844e-16 -61.2493)
(3.30179e-16 1.28058e-16 -63.5084)
(-7.04721e-17 -3.55287e-17 -65.8626)
(7.29e-17 4.06722e-17 -67.8959)
(1.54597e-17 -2.33358e-16 -70.0096)
(7.81372e-17 8.26473e-17 -71.8492)
(-1.20014e-16 1.26901e-16 -73.5355)
(7.09125e-17 2.2814e-16 -74.9324)
(-3.97561e-16 -1.47053e-16 -75.9688)
(1.45336e-16 2.04005e-16 -76.512)
(-6.40345e-17 5.15239e-17 -76.6536)
(-1.31566e-16 -6.34597e-17 -75.9652)
(-5.79369e-19 -2.63222e-16 -74.9625)
(-2.0148e-17 3.62213e-17 -72.973)
(0 -0 -70.3922)
(-4.40392e-17 3.37554e-17 -67.333)
(4.6948e-17 -9.37048e-18 -63.669)
(2.04542e-17 -1.83934e-16 -59.8218)
(-1.31587e-17 -8.64376e-17 -55.5825)
(1.43523e-16 8.11677e-17 -51.2921)
(7.35325e-17 2.1812e-16 -46.9781)
(-1.58216e-16 6.1735e-17 -42.7704)
(1.4674e-16 -1.5587e-16 -38.7219)
(-2.45469e-16 -1.42255e-16 -34.8369)
(3.25813e-16 -1.83453e-16 -31.1498)
(-7.67557e-17 -3.23741e-16 -27.4136)
(2.28332e-16 -2.42397e-16 -23.4151)
(-2.29091e-16 7.33523e-16 -20.7066)
(1.85958e-16 -1.11655e-16 -20.1137)
(-4.67282e-17 -9.73226e-17 -19.888)
(3.1943e-17 -7.44654e-18 -19.8571)
(3.03324e-17 -4.66502e-18 -20.2514)
(2.88749e-17 -2.39906e-18 -21.2249)
(-2.77628e-17 -2.18613e-17 -23.0421)
(2.45677e-17 -1.20862e-17 -25.2056)
(1.71425e-18 2.21815e-17 -26.8491)
(2.76408e-18 1.95043e-17 -27.9566)
(-2.42983e-17 1.31675e-17 -28.8023)
(-5.16852e-18 -3.90796e-17 -29.5342)
(1.65327e-18 3.44669e-18 -30.2085)
(2.84022e-18 3.27126e-17 -30.8467)
(-2.8231e-18 -1.90893e-17 -31.4521)
(1.84783e-17 5.91768e-19 -32.0151)
(-3.35308e-17 1.4586e-17 -32.52)
(1.60597e-17 1.41966e-18 -32.9504)
(-1.80533e-18 -3.06244e-17 -33.2925)
(1.00377e-18 1.46194e-17 -33.5398)
(8.19087e-18 5.54788e-18 -33.6904)
(-1.35936e-17 6.92839e-18 -33.7468)
(-1.02806e-18 -1.10463e-17 -33.7169)
(5.25294e-19 -7.73883e-18 -33.6142)
(5.28202e-18 5.54409e-18 -33.4527)
(4.91663e-18 1.46657e-20 -33.2455)
(-5.48078e-18 -1.63485e-20 -33.0074)
(4.6771e-18 -2.14131e-19 -32.753)
(-7.88925e-18 -8.09276e-19 -32.4941)
(5.0159e-18 2.42541e-19 -32.2401)
(-1.69315e-18 -5.05045e-21 -31.9984)
(-3.83418e-19 -1.09363e-18 -31.7738)
(1.21436e-18 -2.70451e-18 -31.5682)
(-4.38247e-19 4.87549e-18 -31.382)
(-1.00793e-18 -1.17842e-18 -31.2143)
(1.4318e-19 -9.8102e-19 -31.0624)
(-7.39634e-20 -1.62622e-18 -30.9223)
(-1.61976e-19 1.23724e-18 -30.7878)
(-8.26216e-20 7.72929e-19 -30.6428)
(-2.13993e-20 -7.64397e-20 -30.492)
(0 -0 3.99514)
(2.15971e-19 -0 -7.6613)
(-5.82048e-19 -1.53316e-17 -17.0433)
(-1.61954e-18 2.52488e-17 -21.9866)
(1.92461e-17 1.11201e-17 -23.9427)
(-1.74357e-17 -3.70352e-17 -24.1896)
(3.90095e-19 -1.66038e-17 -23.671)
(-5.15657e-19 2.3232e-17 -22.8814)
(-3.26295e-17 9.40999e-18 -22.1027)
(2.8583e-17 -9.02976e-18 -21.4242)
(6.62706e-17 1.0805e-16 -20.862)
(-1.35821e-16 -8.15649e-17 -20.404)
(1.27439e-17 -1.49428e-16 -20.0289)
(6.33657e-17 4.91908e-17 -19.7159)
(-8.53199e-18 1.97182e-16 -19.4476)
(-6.23738e-17 -3.18833e-17 -19.211)
(6.50954e-17 -1.48159e-16 -18.9965)
(3.3042e-18 6.56018e-17 -18.7974)
(0 -0 -18.6085)
(0 -0 -18.4258)
(0 -0 -18.2456)
(0 -0 -18.0645)
(0 -0 -17.8792)
(-2.68755e-16 -0 -17.6859)
(4.09057e-16 -0 -17.4808)
(-1.40017e-16 -0 -17.2596)
(0 -0 -17.0174)
(0 -0 -16.7484)
(0 -0 -16.4459)
(-1.12779e-17 1.27424e-16 -16.1012)
(9.72953e-18 2.6181e-17 -15.7029)
(2.52612e-17 -3.84789e-16 -15.2349)
(-8.65533e-18 6.34859e-17 -14.6788)
(-1.52293e-16 4.08758e-16 -13.9992)
(-8.91902e-17 -4.89788e-16 -13.1807)
(4.00551e-16 3.99811e-16 -12.4834)
(1.00491e-15 9.03795e-16 -12.2733)
(6.32628e-17 -1.95893e-15 -12.7246)
(-3.56659e-16 -9.65271e-16 -13.8337)
(1.12593e-15 2.18724e-15 -15.5688)
(-3.12057e-16 1.21729e-16 -17.9407)
(-9.17402e-16 -1.61658e-15 -20.5067)
(2.35356e-16 -1.99377e-16 -23.1555)
(4.35225e-17 -2.77423e-16 -25.8731)
(-1.12146e-15 2.20453e-17 -28.5179)
(9.09168e-16 2.355e-15 -31.1092)
(2.34421e-15 4.59492e-16 -33.6408)
(1.11847e-15 1.16262e-15 -36.049)
(1.17652e-15 8.46612e-16 -38.4108)
(6.66953e-16 -1.98176e-16 -40.6121)
(-1.71413e-15 -9.00181e-16 -42.6686)
(-3.63103e-17 4.47344e-16 -44.588)
(4.19362e-16 9.95463e-16 -46.2746)
(-7.32675e-16 -4.42206e-16 -47.7864)
(6.05704e-16 -2.89177e-16 -49.0126)
(5.99742e-16 -7.45645e-18 -50.0047)
(3.82546e-16 -1.13967e-16 -50.7036)
(1.28161e-16 1.13737e-16 -51.089)
(-7.32206e-17 -4.26113e-18 -51.134)
(-7.4719e-17 1.15724e-16 -50.8617)
(-5.06768e-17 -2.17527e-16 -50.1886)
(-2.95387e-16 -3.70174e-17 -49.1613)
(2.31603e-16 4.54685e-16 -47.8169)
(-1.79997e-16 6.84853e-16 -46.1637)
(1.38951e-16 2.39647e-16 -44.3448)
(8.46972e-18 -1.06508e-15 -42.294)
(1.98542e-16 -2.90409e-16 -40.2282)
(-3.05258e-16 7.07674e-16 -38.0471)
(-3.74647e-16 -3.5501e-17 -35.9268)
(9.99547e-16 -4.52111e-16 -33.8209)
(1.29719e-17 1.45925e-16 -31.7665)
(-1.38934e-15 4.55289e-16 -29.8353)
(7.45613e-16 4.73057e-16 -27.933)
(1.09672e-16 1.27123e-15 -26.1362)
(1.14e-15 -1.27457e-15 -24.4259)
(1.58593e-16 -9.70753e-16 -22.7712)
(-1.03048e-16 6.80955e-17 -21.2)
(-4.77752e-17 8.65282e-16 -19.7108)
(-6.87342e-16 -1.3116e-16 -18.2802)
(-1.67798e-15 8.7485e-16 -16.9212)
(2.25853e-15 4.47052e-16 -15.6375)
(1.99884e-16 -8.96976e-16 -14.4218)
(-7.35441e-16 4.95165e-16 -13.2787)
(1.3702e-16 -6.2446e-16 -12.2082)
(-5.55674e-17 -1.40395e-16 -11.204)
(1.37261e-15 -7.27216e-16 -10.2747)
(5.55771e-16 -5.87958e-16 -9.41728)
(6.77282e-16 5.30735e-16 -8.61509)
(5.66796e-16 -1.16752e-15 -7.88404)
(1.17476e-15 -7.46919e-16 -7.21992)
(3.71961e-19 2.36076e-17 -6.60266)
(5.54942e-16 -6.74105e-16 -6.05184)
(2.31849e-16 2.02065e-16 -5.55984)
(-5.05052e-16 3.06317e-16 -5.1123)
(2.31052e-16 -6.10815e-16 -4.7329)
(5.04173e-18 3.19505e-16 -4.39293)
(-4.92745e-16 2.44345e-16 -4.1191)
(2.2801e-16 6.15463e-16 -3.88665)
(2.22644e-17 1.87774e-16 -3.7163)
(-1.32923e-16 -7.79902e-16 -3.5884)
(-6.00855e-17 2.28811e-17 -3.5228)
(-8.05989e-17 1.67319e-16 -3.5079)
(-3.00694e-17 -1.22689e-16 -3.5509)
(2.77243e-17 -1.50228e-17 -3.65247)
(5.59224e-17 -1.52044e-17 -3.81297)
(1.10466e-16 3.12436e-17 -4.03744)
(-2.10446e-18 -2.82589e-16 -4.33212)
(6.76357e-16 4.19517e-16 -4.69555)
(4.04114e-18 3.84543e-17 -5.13876)
(-4.39416e-16 9.30643e-17 -5.65985)
(-3.81101e-17 3.81872e-16 -6.26393)
(-1.75888e-17 -5.97703e-16 -6.96173)
(2.49529e-16 4.27775e-16 -7.75514)
(2.09079e-16 1.44365e-16 -8.62203)
(-2.35289e-16 -4.39486e-16 -9.60904)
(-5.00248e-16 -2.89564e-16 -10.6662)
(1.85043e-17 -6.50246e-16 -11.8321)
(5.0598e-17 -7.48351e-16 -13.0914)
(-2.95545e-16 1.98175e-16 -14.4221)
(1.0255e-15 2.04239e-15 -15.8443)
(-6.18654e-16 -2.78189e-16 -17.3412)
(-5.65744e-16 -1.12162e-15 -18.8878)
(4.21849e-16 4.17428e-16 -20.4927)
(6.98025e-16 4.73964e-16 -22.151)
(4.82094e-16 -1.96224e-16 -23.8289)
(-1.46435e-15 -1.09582e-15 -25.5354)
(2.87313e-16 6.43217e-16 -27.2543)
(-1.37376e-16 -1.27672e-15 -28.9719)
(-1.68877e-16 4.27535e-17 -30.6923)
(1.31782e-15 5.79422e-16 -32.4101)
(4.65152e-16 2.7052e-16 -34.0711)
(1.35533e-15 5.47335e-16 -35.7417)
(6.31511e-16 1.48648e-15 -37.3958)
(8.33523e-16 5.90804e-16 -38.9427)
(6.89145e-17 -8.0909e-16 -40.5013)
(9.6732e-17 5.84944e-16 -42.027)
(2.28402e-16 3.3208e-17 -43.3576)
(9.05345e-17 -1.74619e-17 -44.7486)
(-3.11334e-17 -1.06003e-16 -45.9238)
(6.97245e-17 -6.74663e-17 -47.0311)
(8.91514e-17 -1.25416e-16 -47.9771)
(-4.50398e-18 5.07128e-16 -48.7564)
(1.61757e-16 -5.03618e-16 -49.3441)
(3.62014e-17 1.81443e-16 -49.7505)
(-1.41431e-17 -7.54361e-17 -49.8604)
(-4.83357e-17 8.5514e-17 -49.8072)
(8.73972e-17 1.38407e-17 -49.3663)
(-5.68669e-17 1.53736e-17 -48.685)
(3.81155e-17 2.05322e-17 -47.6298)
(-1.00151e-16 -1.85011e-16 -46.2414)
(-6.10691e-17 1.96707e-16 -44.5468)
(4.05656e-17 3.23807e-16 -42.5302)
(1.93444e-17 -1.03121e-16 -40.2547)
(-9.35897e-17 -5.61669e-17 -37.7594)
(3.32913e-16 -2.20325e-16 -35.1025)
(-1.99512e-16 -2.59187e-17 -32.365)
(4.28447e-17 9.58816e-17 -29.5587)
(-4.0311e-16 -1.25708e-16 -26.7499)
(1.17632e-16 3.3035e-16 -23.9044)
(-6.22601e-16 6.8057e-16 -21.0665)
(2.59779e-16 -4.70102e-16 -18.1957)
(-5.93275e-17 -3.27233e-16 -16.2107)
(5.35254e-18 2.57664e-16 -14.9273)
(-7.32567e-17 -6.10308e-17 -14.1208)
(-3.68976e-18 -2.11024e-17 -13.6988)
(-5.29865e-17 2.05915e-17 -13.6907)
(5.54793e-17 4.57428e-17 -14.0846)
(-2.79577e-17 -1.92606e-17 -14.7683)
(-2.49918e-19 -2.76159e-18 -15.56)
(-1.50393e-18 -2.17833e-18 -16.3032)
(1.78916e-18 2.47831e-18 -16.9454)
(3.12875e-18 2.06607e-17 -17.507)
(-2.29573e-17 1.19633e-17 -18.0124)
(1.81691e-17 -5.15501e-17 -18.4751)
(9.4412e-19 6.5671e-18 -18.8999)
(2.12577e-17 -5.91599e-18 -19.2865)
(-1.83564e-17 5.31958e-17 -19.6306)
(-3.4487e-19 -8.52396e-17 -19.9265)
(1.88765e-18 6.75033e-17 -20.1735)
(-1.49577e-18 -2.21369e-17 -20.362)
(-4.81374e-19 -1.42195e-17 -20.4859)
(6.78336e-18 2.64421e-17 -20.5525)
(-5.46925e-18 1.21527e-18 -20.5648)
(-6.2288e-18 1.27892e-17 -20.5263)
(5.52483e-18 -2.47308e-17 -20.4445)
(1.70604e-18 -8.35276e-18 -20.3278)
(4.74002e-19 2.04289e-17 -20.1852)
(-3.21659e-19 -1.75666e-17 -20.0252)
(-4.28294e-19 3.51785e-17 -19.8556)
(3.20833e-19 -2.91463e-17 -19.683)
(1.5342e-18 1.34324e-17 -19.5126)
(-1.14094e-18 9.30265e-19 -19.348)
(-2.3117e-18 -9.99599e-19 -19.1916)
(2.5598e-18 -4.99749e-18 -19.0436)
(-1.26859e-20 8.94987e-18 -18.9036)
(1.04637e-19 -1.57684e-18 -18.7704)
(4.56528e-20 4.17147e-18 -18.6419)
(2.38629e-19 -2.99552e-19 -18.5155)
(7.25633e-21 1.96413e-20 -18.3839)
(8.84073e-21 2.38333e-18 -18.2689)
(-2.2462e-20 7.6136e-18 6.46936)
(-4.15949e-19 -4.0857e-18 3.96212)
(6.36329e-19 -2.58446e-17 -0.472777)
(8.75368e-20 1.5361e-17 -4.6271)
(1.66565e-17 2.18686e-17 -7.97391)
(-1.68679e-17 -1.49129e-17 -10.3382)
(0 -0 -11.6538)
(-3.5544e-17 3.05413e-17 -12.3213)
(3.636e-17 -4.90035e-17 -12.5415)
(-3.26097e-17 -8.59452e-17 -12.4966)
(3.17423e-17 1.11681e-16 -12.3411)
(3.62876e-18 1.16351e-16 -12.1581)
(-3.08835e-18 -1.00558e-16 -11.9838)
(-1.30576e-16 -8.49978e-17 -11.8306)
(1.21323e-16 1.23412e-16 -11.6991)
(8.25322e-17 -1.0048e-16 -11.5853)
(-1.32531e-16 -4.48056e-17 -11.4843)
(5.65286e-17 1.45325e-16 -11.3921)
(3.267e-18 -6.15204e-17 -11.3056)
(0 -0 -11.2225)
(1.24459e-16 -0 -11.1411)
(-1.24718e-16 -0 -11.06)
(-8.1993e-18 1.20835e-16 -10.9779)
(-1.15674e-16 -7.95617e-17 -10.8934)
(1.33064e-16 -1.62392e-16 -10.805)
(-8.93326e-18 1.21119e-16 -10.7111)
(0 -0 -10.6096)
(1.22565e-16 -0 -10.4982)
(-4.95135e-19 -0 -10.3742)
(-1.33341e-16 1.19971e-16 -10.234)
(2.31474e-17 -8.41889e-17 -10.0734)
(2.56937e-16 -1.56279e-16 -9.88594)
(-4.0684e-16 1.12964e-16 -9.66629)
(2.34855e-16 -3.80176e-18 -9.42083)
(-1.11993e-17 2.55211e-16 -9.10413)
(-4.96272e-16 -5.30336e-16 -8.71166)
(7.38742e-16 -1.70614e-16 -8.39921)
(3.53316e-16 1.72918e-15 -8.38812)
(-8.88665e-16 -1.37451e-16 -8.7686)
(-2.12969e-16 -1.07483e-15 -9.52195)
(-1.37139e-16 -1.72596e-16 -10.5682)
(-1.37608e-15 5.40658e-17 -11.7097)
(6.54464e-17 6.55175e-16 -12.9669)
(1.02449e-15 7.0859e-16 -14.3304)
(-1.64626e-15 -1.48007e-15 -15.7475)
(1.87816e-15 -1.87711e-15 -17.1971)
(-4.13742e-16 1.96654e-16 -18.6007)
(-5.04139e-17 5.86101e-16 -20.0386)
(1.65824e-16 -3.41872e-16 -21.4232)
(-4.02864e-17 1.37422e-15 -22.8005)
(2.57339e-16 9.53636e-16 -24.1423)
(1.67403e-16 -1.21378e-15 -25.4262)
(7.64792e-17 -7.74596e-16 -26.6953)
(2.84483e-16 -4.7891e-16 -27.9321)
(-4.57063e-16 -3.28521e-16 -29.0979)
(-2.5085e-16 -4.01181e-17 -30.1995)
(-3.41564e-16 -1.89666e-16 -31.2278)
(-1.88267e-17 1.36968e-16 -32.1939)
(-1.04677e-16 2.07539e-16 -32.995)
(1.37528e-16 2.91134e-17 -33.7164)
(5.20341e-17 1.0742e-16 -34.2074)
(-2.6157e-16 3.02764e-17 -34.4669)
(4.00016e-16 -4.18829e-16 -34.4707)
(3.59164e-16 -6.40222e-16 -34.1548)
(-1.45597e-16 -7.0242e-16 -33.6118)
(-4.2302e-16 7.72045e-16 -32.7417)
(-8.66518e-16 3.39858e-16 -31.708)
(1.55043e-16 1.15199e-16 -30.4307)
(2.14969e-17 -2.06165e-16 -29.0491)
(-6.37572e-16 3.35265e-16 -27.5575)
(4.12707e-17 1.28389e-15 -25.9896)
(1.36248e-15 -8.55556e-16 -24.4373)
(-1.09913e-15 -1.04206e-15 -22.8504)
(1.94907e-15 -1.13266e-15 -21.2954)
(7.79394e-16 -9.54584e-16 -19.7839)
(-1.83661e-16 1.83692e-15 -18.3038)
(9.74744e-16 -5.43163e-17 -16.8815)
(5.20788e-17 -7.72957e-17 -15.5286)
(1.67314e-15 9.5616e-16 -14.2358)
(3.68892e-16 -1.99522e-15 -13.013)
(5.90947e-16 -3.55511e-15 -11.8666)
(-1.12546e-16 2.14182e-15 -10.7935)
(7.56399e-16 -1.58429e-16 -9.79689)
(6.46916e-16 -1.54389e-15 -8.87671)
(-6.8466e-16 5.00807e-16 -8.02691)
(1.20349e-15 -1.01142e-15 -7.25215)
(-1.90685e-15 3.82467e-16 -6.55118)
(-1.35404e-15 -3.49452e-16 -5.91078)
(-6.5563e-16 9.66838e-16 -5.33907)
(-6.94247e-17 5.41758e-16 -4.83384)
(1.18329e-17 7.51012e-16 -4.38123)
(2.4066e-17 3.36827e-16 -3.98992)
(-2.70927e-16 2.01992e-16 -3.65519)
(2.96658e-16 -4.41475e-16 -3.36558)
(-1.03938e-17 -2.44932e-17 -3.13226)
(-9.04799e-17 3.02108e-16 -2.93547)
(3.7165e-17 -2.31663e-16 -2.78765)
(-2.81952e-17 -6.1541e-16 -2.67152)
(7.73952e-16 2.67217e-17 -2.5952)
(6.85145e-17 3.78357e-16 -2.54283)
(-5.87658e-17 -5.22117e-18 -2.5231)
(8.53159e-17 -1.06741e-16 -2.52561)
(1.78317e-18 6.06169e-17 -2.55337)
(-1.75464e-19 -5.38938e-17 -2.60539)
(-2.11283e-18 -1.18042e-16 -2.67955)
(-1.06137e-16 -3.8218e-17 -2.78131)
(-1.13974e-16 -1.55971e-16 -2.91043)
(-4.29536e-16 -1.57426e-16 -3.071)
(6.61778e-16 7.43952e-16 -3.26724)
(-4.63105e-16 -3.79569e-16 -3.5019)
(4.81429e-16 -1.43607e-16 -3.77959)
(-5.85949e-18 2.86218e-16 -4.10377)
(1.2136e-17 -2.92275e-16 -4.48358)
(6.33747e-17 2.1656e-16 -4.91277)
(-2.66528e-17 4.04116e-16 -5.40825)
(-3.93601e-18 -3.18673e-16 -5.95467)
(2.12089e-16 7.24558e-16 -6.57215)
(4.18502e-17 9.41633e-16 -7.25663)
(-1.1117e-15 -1.60241e-15 -8.001)
(-2.9939e-16 -5.49941e-16 -8.81689)
(9.26463e-16 1.66115e-15 -9.69728)
(2.83955e-16 -9.49778e-16 -10.6313)
(-1.72056e-16 -7.11371e-16 -11.624)
(-5.57824e-16 -5.27075e-16 -12.6705)
(-4.03362e-18 7.06508e-16 -13.7527)
(-1.09593e-15 5.54274e-16 -14.8722)
(6.67305e-16 -9.77097e-16 -16.0176)
(-8.53749e-16 1.43013e-16 -17.1783)
(-4.14878e-16 -2.00708e-15 -18.3486)
(-5.89438e-16 -1.32361e-15 -19.5222)
(-1.11303e-16 -8.02024e-17 -20.6709)
(-5.52747e-16 -4.85485e-16 -21.8178)
(-2.31889e-16 -1.36957e-15 -22.9386)
(9.85691e-16 2.52542e-16 -23.9961)
(-7.50078e-16 1.63958e-16 -25.0486)
(2.03534e-17 -3.06732e-16 -26.0479)
(6.3307e-17 -3.23633e-16 -26.9598)
(-1.28649e-16 -5.56398e-17 -27.8671)
(-4.71604e-17 9.52027e-17 -28.6647)
(-1.63658e-16 -5.04278e-17 -29.415)
(4.33301e-17 5.01543e-16 -30.092)
(7.38728e-16 3.09564e-17 -30.7008)
(-8.46437e-17 5.19507e-17 -31.2502)
(5.84006e-19 2.48001e-16 -31.738)
(-1.78305e-16 3.61098e-16 -32.1578)
(2.03257e-17 -2.00311e-16 -32.5153)
(6.50711e-17 -1.65175e-16 -32.7814)
(-7.70671e-17 1.66027e-16 -32.9587)
(9.61145e-17 -4.6229e-17 -32.9672)
(-1.44934e-16 3.36101e-16 -32.8023)
(6.41236e-17 -9.90687e-17 -32.4052)
(1.01042e-16 -4.95643e-16 -31.7731)
(-2.06894e-16 -2.35679e-16 -30.8609)
(6.71392e-17 1.39362e-16 -29.6876)
(-2.35899e-16 -2.76997e-16 -28.242)
(-1.00006e-16 4.51557e-16 -26.5866)
(3.41419e-16 -8.82305e-17 -24.7209)
(-1.23848e-16 1.96872e-16 -22.7035)
(-1.85963e-17 -4.41363e-17 -20.563)
(5.05906e-16 -1.2485e-16 -18.4028)
(1.2149e-16 -2.21703e-16 -15.9015)
(-2.58194e-16 3.22428e-16 -13.6716)
(4.00859e-17 -5.69732e-18 -11.9592)
(4.12145e-17 4.31431e-17 -10.773)
(-3.15954e-17 1.18472e-18 -10.0142)
(-2.52132e-17 2.28937e-17 -9.64299)
(-1.28259e-17 -1.13449e-16 -9.57534)
(2.89892e-17 3.91543e-17 -9.76776)
(2.38994e-17 1.26549e-18 -10.1379)
(2.77466e-18 1.96798e-17 -10.5679)
(-2.04929e-17 3.69352e-17 -10.9715)
(2.01709e-18 -2.17769e-17 -11.3184)
(4.07977e-17 2.5023e-18 -11.6076)
(-4.14999e-17 1.09586e-18 -11.8476)
(-1.8797e-18 -2.03768e-17 -12.0488)
(-2.05017e-17 -3.57475e-17 -12.2203)
(3.81857e-17 7.91234e-17 -12.3691)
(-2.07089e-17 1.73911e-17 -12.4993)
(1.09164e-18 -6.34454e-17 -12.6128)
(1.02647e-18 1.49877e-17 -12.7079)
(-9.44433e-18 2.5777e-18 -12.7819)
(7.56584e-18 3.7357e-18 -12.8334)
(2.12772e-18 2.12491e-17 -12.8608)
(1.02551e-17 -9.68364e-18 -12.8633)
(-1.00068e-17 -2.74661e-17 -12.8412)
(-5.77914e-18 -1.67329e-18 -12.7964)
(6.62885e-18 -1.01789e-18 -12.7317)
(-4.69393e-18 3.03234e-18 -12.6506)
(4.75254e-18 -8.20137e-19 -12.5568)
(-1.67629e-18 -3.82116e-18 -12.4539)
(2.54742e-18 -1.00293e-17 -12.3454)
(1.5459e-18 1.12107e-17 -12.2341)
(-1.32466e-18 9.01635e-18 -12.1223)
(2.30898e-19 -1.46605e-17 -12.0115)
(1.21374e-19 1.03458e-18 -11.9026)
(-3.62933e-19 -3.1686e-18 -11.7957)
(1.34528e-19 -5.38036e-18 -11.6908)
(1.60698e-19 -2.3772e-18 -11.5871)
(1.67811e-19 2.77605e-18 -11.4787)
(3.2002e-20 -2.4589e-18 -11.3878)
(0 -0 4.1337)
(8.10994e-18 -0 3.77237)
(-7.86972e-18 -1.49245e-17 2.84868)
(9.11999e-19 7.72576e-18 1.24941)
(-1.02736e-18 2.20707e-17 -0.642707)
(2.1938e-19 -1.4872e-17 -2.37163)
(3.1234e-17 -0 -3.85895)
(-3.12736e-17 -0 -5.06062)
(1.47867e-18 -0 -5.83308)
(-3.36092e-18 -0 -6.35311)
(-6.56946e-17 5.94917e-17 -6.67425)
(6.73033e-17 -3.26989e-17 -6.84995)
(6.6321e-17 -2.70989e-17 -6.95174)
(-2.21628e-18 -3.28236e-17 -7.01831)
(6.66839e-19 -5.26098e-17 -7.06806)
(-6.63433e-17 2.04557e-16 -7.10869)
(-6.41121e-17 -9.31992e-17 -7.14278)
(6.8978e-17 -8.49882e-17 -7.17083)
(-3.15281e-18 5.93701e-17 -7.19289)
(6.77585e-17 -1.17384e-16 -7.209)
(-6.72565e-17 6.7821e-17 -7.21938)
(-8.23887e-18 1.67191e-16 -7.22441)
(-2.73287e-19 -1.08679e-18 -7.22451)
(1.55313e-17 -6.83909e-17 -7.22001)
(1.20788e-16 -1.64935e-16 -7.21115)
(-1.28716e-16 1.16785e-16 -7.19793)
(-1.10048e-16 -1.15597e-16 -7.18016)
(2.33911e-18 -4.54358e-17 -7.15742)
(2.1862e-16 2.32153e-16 -7.12897)
(-1.31163e-16 1.59822e-16 -7.09377)
(3.81151e-17 -3.03289e-16 -7.05041)
(-1.21935e-16 -8.48197e-17 -6.99653)
(1.0333e-16 1.64884e-16 -6.93164)
(1.13508e-16 -3.69934e-17 -6.85734)
(-1.45861e-16 2.6081e-16 -6.75322)
(2.78684e-16 -1.65349e-16 -6.58416)
(-9.58125e-16 -7.56742e-16 -6.38087)
(-8.94295e-16 -9.29466e-16 -6.26968)
(1.11581e-15 5.38624e-16 -6.33343)
(4.2186e-16 1.0027e-15 -6.58025)
(-1.42561e-16 1.33355e-15 -6.95184)
(8.66676e-16 -1.44705e-16 -7.37957)
(5.9262e-16 -2.77687e-15 -7.88569)
(-8.47466e-16 1.52532e-16 -8.4642)
(4.60964e-16 1.47739e-15 -9.09092)
(-1.03151e-15 -4.57439e-16 -9.76865)
(-8.68563e-16 1.83572e-16 -10.4152)
(-4.51745e-16 -2.60031e-16 -11.2288)
(-8.02625e-16 3.73403e-17 -11.9648)
(-4.31667e-16 -1.20242e-15 -12.6203)
(1.28772e-15 9.17589e-17 -13.4115)
(-5.87449e-16 6.6092e-16 -14.2031)
(-1.06068e-16 9.99638e-16 -15.0137)
(-8.07296e-16 5.59815e-17 -15.8427)
(-1.2923e-16 2.91694e-16 -16.713)
(-3.40233e-17 -8.555e-17 -17.5988)
(-4.67178e-16 -2.61235e-16 -18.51)
(-1.22874e-16 -1.62904e-16 -19.4723)
(1.04741e-17 -7.81022e-17 -20.4005)
(7.25693e-17 -9.48238e-17 -21.3624)
(-1.34648e-16 6.52891e-18 -22.2416)
(2.83604e-16 -1.62918e-16 -23.0351)
(-4.12847e-16 -1.79566e-16 -23.6965)
(1.48947e-16 7.41563e-16 -24.1441)
(-5.97408e-16 1.31241e-15 -24.4087)
(7.39605e-16 -2.60412e-16 -24.3874)
(-1.76536e-16 -1.75573e-16 -24.1666)
(1.38158e-16 -1.44529e-16 -23.6767)
(-4.87457e-16 5.82848e-16 -23.0027)
(4.49295e-16 2.16192e-16 -22.1471)
(2.42591e-16 -1.35956e-15 -21.1367)
(4.08921e-16 -1.5421e-16 -20.052)
(-3.96511e-16 9.45552e-16 -18.8748)
(-2.25558e-16 -1.35233e-15 -17.6657)
(-9.48268e-16 1.41049e-15 -16.4494)
(3.8428e-17 -7.24018e-16 -15.2325)
(6.25157e-16 -9.26319e-16 -14.0442)
(1.74667e-17 -1.35793e-16 -12.9027)
(1.37753e-15 -2.00716e-15 -11.8111)
(1.29038e-15 -5.279e-16 -10.7817)
(-2.88674e-15 3.39808e-15 -9.82293)
(-5.88277e-16 -2.67032e-17 -8.93514)
(6.3074e-16 -1.50809e-15 -8.1214)
(-7.40171e-16 1.24031e-15 -7.38158)
(1.55494e-18 -7.67745e-16 -6.71042)
(-1.3811e-15 2.09906e-15 -6.1091)
(1.39648e-15 2.68707e-15 -5.57554)
(-8.87216e-17 7.56923e-17 -5.09986)
(-4.86009e-16 -1.72967e-15 -4.68561)
(-1.72394e-15 1.85394e-16 -4.32971)
(-2.68632e-16 1.45304e-16 -4.02302)
(1.48327e-17 8.20785e-18 -3.769)
(2.87666e-16 -1.16022e-16 -3.56286)
(-3.95235e-17 -3.27187e-16 -3.39548)
(-4.81217e-16 1.56574e-16 -3.27173)
(-2.21795e-17 2.95254e-16 -3.17523)
(2.4283e-16 -1.306e-16 -3.11202)
(-7.38502e-16 -5.2881e-17 -3.06583)
(-4.18606e-16 7.49934e-17 -3.04103)
(-2.26472e-17 2.28757e-16 -3.02244)
(1.12185e-16 -3.1085e-17 -3.01558)
(-1.07565e-16 8.5187e-17 -3.0095)
(6.83528e-17 -1.85741e-17 -3.00702)
(-9.50161e-19 -1.30904e-17 -3.00602)
(9.98483e-19 1.11304e-16 -3.00493)
(-2.25489e-16 1.54141e-16 -3.0089)
(-6.0564e-19 1.58209e-16 -3.01606)
(-2.26364e-16 -6.63954e-16 -3.03201)
(-1.85054e-16 -1.92588e-16 -3.05839)
(4.05068e-16 7.57792e-16 -3.09925)
(-2.08474e-17 -2.61454e-16 -3.15807)
(6.11621e-18 -1.15385e-17 -3.23889)
(2.94318e-18 2.65681e-16 -3.34656)
(-2.60408e-16 -2.54286e-17 -3.48287)
(4.22552e-16 -5.55651e-17 -3.65689)
(1.04772e-17 -2.21003e-16 -3.86459)
(-6.22102e-16 -1.36099e-15 -4.11719)
(5.05639e-16 5.77193e-16 -4.41616)
(7.93422e-16 2.34918e-15 -4.76058)
(-6.92719e-16 -1.20719e-15 -5.1579)
(1.11005e-15 -8.69417e-16 -5.60718)
(-6.19228e-16 2.4384e-16 -6.10459)
(-6.05838e-16 1.23162e-15 -6.65346)
(-4.19604e-16 4.01233e-16 -7.25124)
(-7.7872e-16 -6.78715e-16 -7.8889)
(1.57021e-15 5.84854e-16 -8.56552)
(-1.51943e-16 4.80107e-17 -9.27357)
(4.49008e-16 8.11855e-16 -10.0056)
(-6.63041e-16 8.98089e-16 -10.7494)
(-9.57748e-16 -1.03267e-17 -11.5145)
(-5.7577e-16 -1.85672e-16 -12.2635)
(-5.38941e-17 5.0261e-17 -13.0084)
(-8.86006e-16 3.83287e-16 -13.7314)
(-5.37436e-16 -7.90617e-16 -14.4457)
(-1.27503e-16 4.1972e-16 -15.1437)
(-1.37039e-16 -1.09188e-16 -15.7811)
(-4.47618e-16 -8.70663e-17 -16.377)
(-2.82368e-16 4.26774e-16 -16.9801)
(1.60068e-16 -8.43666e-17 -17.5172)
(-8.86418e-17 3.09202e-16 -18.0236)
(4.68779e-16 -1.50583e-15 -18.5002)
(-3.60669e-17 -8.04345e-16 -18.9558)
(1.01112e-17 -2.17265e-16 -19.4043)
(1.89932e-16 2.18173e-16 -19.8461)
(2.44683e-16 1.85918e-16 -20.3029)
(9.12695e-17 -3.56368e-17 -20.756)
(-8.65399e-17 -1.5901e-17 -21.2351)
(5.37773e-17 1.9665e-16 -21.7093)
(-4.48745e-17 -1.11565e-16 -22.1453)
(2.20002e-16 1.88685e-16 -22.5273)
(1.01055e-17 -2.62916e-16 -22.7907)
(-2.08942e-16 2.33292e-16 -22.9248)
(3.19026e-17 4.2034e-16 -22.8585)
(3.09647e-17 -2.36813e-16 -22.5808)
(-9.32694e-17 4.62422e-16 -22.0501)
(1.04461e-16 -1.94105e-16 -21.2831)
(-3.05985e-16 -3.1493e-16 -20.2688)
(2.72148e-16 8.98226e-17 -18.9827)
(-2.49496e-17 -1.57194e-16 -17.5432)
(-8.01936e-17 -2.54629e-16 -15.9746)
(-1.43651e-16 1.97565e-16 -14.0726)
(1.28503e-16 -4.04608e-17 -12.1659)
(2.71656e-17 -5.62322e-17 -10.5521)
(9.71944e-17 -9.70839e-17 -9.36093)
(-1.87447e-17 5.01106e-17 -8.58009)
(3.22032e-17 1.41666e-17 -8.16786)
(-7.2071e-17 2.53414e-17 -8.03345)
(-6.59269e-18 -7.82431e-17 -8.10897)
(5.02828e-18 -2.9939e-17 -8.31197)
(2.45917e-17 3.07001e-17 -8.55529)
(-2.90562e-19 4.72073e-17 -8.77325)
(-7.53971e-18 -4.17982e-17 -8.93328)
(-5.28503e-18 -3.29322e-17 -9.02862)
(5.17758e-18 6.95943e-17 -9.06653)
(4.23361e-18 -7.3924e-18 -9.061)
(-3.9167e-17 3.91351e-18 -9.02812)
(3.26265e-17 -1.44003e-17 -8.98288)
(1.50911e-17 -4.26987e-17 -8.93722)
(-1.06264e-17 6.83093e-17 -8.89914)
(-4.03212e-18 -1.14736e-17 -8.87233)
(8.44003e-18 7.56037e-18 -8.85712)
(-6.11316e-18 -2.7299e-18 -8.85128)
(6.67825e-19 -1.20361e-17 -8.85098)
(5.06828e-18 -2.23261e-17 -8.85181)
(-1.07834e-17 3.35824e-17 -8.84947)
(6.90529e-19 9.86064e-19 -8.84045)
(-1.5164e-18 -8.34142e-18 -8.82242)
(-1.20576e-18 4.00557e-18 -8.79383)
(2.7978e-18 2.41341e-17 -8.75418)
(-3.51241e-18 -3.08465e-17 -8.70388)
(-3.42384e-18 -5.13247e-18 -8.644)
(3.68285e-18 -1.14503e-17 -8.57597)
(-1.22053e-18 1.34706e-17 -8.50142)
(-1.08385e-18 -1.3352e-17 -8.42234)
(-2.56802e-20 1.41503e-17 -8.34042)
(6.62972e-19 5.39374e-18 -8.25721)
(-6.39459e-19 5.96192e-18 -8.17409)
(-5.4944e-20 -3.57637e-18 -8.09216)
(2.61046e-19 -9.72346e-18 -8.00564)
(-9.20129e-20 1.67713e-19 -7.93939)
(0 -0 2.6804)
(0 -0 2.67815)
(1.34427e-19 -1.51883e-17 2.6026)
(9.0055e-19 8.05765e-18 2.17583)
(-1.18166e-18 2.22044e-17 1.47385)
(7.4527e-19 -4.46144e-17 0.638324)
(3.20196e-17 1.49336e-17 -0.315675)
(-6.51592e-17 7.35552e-17 -1.16857)
(3.26852e-17 -7.37078e-17 -1.90942)
(1.47492e-18 -2.92266e-17 -2.55024)
(-2.45482e-18 7.34264e-17 -3.07951)
(6.41499e-17 -2.94401e-17 -3.45252)
(-1.22555e-16 -5.83755e-17 -3.75713)
(1.25372e-16 -2.82817e-17 -4.00464)
(-1.34152e-16 1.75104e-16 -4.21092)
(6.45965e-17 -1.97829e-18 -4.38783)
(8.65432e-18 -1.44737e-16 -4.54204)
(-5.45878e-18 5.82678e-17 -4.67738)
(3.22506e-18 -5.75342e-17 -4.79646)
(5.7081e-17 3.01495e-17 -4.9008)
(-6.94289e-17 8.50164e-17 -4.99192)
(9.22534e-18 -5.76317e-17 -5.07138)
(-1.26031e-16 1.13742e-16 -5.14071)
(1.38761e-16 -1.7399e-16 -5.20139)
(-2.93014e-18 -1.06352e-16 -5.25472)
(-2.72424e-17 3.9298e-16 -5.30181)
(6.48163e-18 -6.23319e-17 -5.34358)
(2.06213e-17 -3.38353e-16 -5.38068)
(-1.1989e-16 1.14777e-17 -5.41353)
(9.08967e-17 3.86951e-16 -5.44227)
(1.35901e-17 -6.42769e-17 -5.46677)