/*--------------------------------*- C++ -*----------------------------------*\
| =========                 |                                                 |
| \\      /  F ield         | OpenFOAM: The Open Source CFD Toolbox           |
|  \\    /   O peration     | Version:  2506                                  |
|   \\  /    A nd           | Website:  www.openfoam.com                      |
|    \\/     M anipulation  |                                                 |
\*---------------------------------------------------------------------------*/
FoamFile
{
    version     2.0;
    format      ascii;
    arch        "LSB;label=32;scalar=64";
    class       surfaceScalarField;
    location    "4.55";
    object      phi;
}
// * * * * * * * * * * * * * * * * * * * * * * * * * * * * * * * * * * * * * //

dimensions      [0 3 -1 0 0 0 0];

oriented        oriented;

internalField   nonuniform List<scalar> 
7780
(
2.05869e-09
4.41313e-10
1.55972e-09
4.9897e-10
1.2007e-09
3.59017e-10
9.6099e-10
2.39711e-10
8.0413e-10
1.5686e-10
7.00175e-10
1.03955e-10
6.29365e-10
7.08097e-11
5.79362e-10
5.00033e-11
5.427e-10
3.66624e-11
5.14809e-10
2.78906e-11
4.92886e-10
2.19236e-11
4.7514e-10
1.77455e-11
4.6037e-10
1.47702e-11
4.4775e-10
1.26204e-11
4.36693e-10
1.10568e-11
4.26764e-10
9.92923e-12
4.17631e-10
9.13298e-12
4.09037e-10
8.59435e-12
4.00772e-10
8.2647e-12
3.9266e-10
8.1123e-12
3.84544e-10
8.11602e-12
3.7628e-10
8.2632e-12
3.67733e-10
8.54738e-12
3.58767e-10
8.96603e-12
3.49247e-10
9.51961e-12
3.39036e-10
1.02116e-11
3.27986e-10
1.10492e-11
3.1594e-10
1.2046e-11
3.02712e-10
1.32279e-11
2.88064e-10
1.46478e-11
2.71638e-10
1.64267e-11
2.52798e-10
1.884e-11
2.30546e-10
2.2252e-11
1.98993e-10
3.15529e-11
1.73805e-10
2.51875e-11
1.69678e-10
4.12732e-12
1.77724e-10
-8.0463e-12
1.91507e-10
-1.37835e-11
2.11424e-10
-1.99182e-11
2.40125e-10
-2.87026e-11
2.88313e-10
-4.81892e-11
3.43464e-10
-5.51501e-11
3.93913e-10
-5.04455e-11
4.40651e-10
-4.67342e-11
4.81936e-10
-4.1282e-11
5.19262e-10
-3.73226e-11
5.54634e-10
-3.53706e-11
5.83293e-10
-2.86595e-11
6.09942e-10
-2.66495e-11
6.32473e-10
-2.25331e-11
6.49483e-10
-1.70131e-11
6.63947e-10
-1.44658e-11
6.69632e-10
-5.68661e-12
6.72631e-10
-2.99978e-12
6.64916e-10
7.71467e-12
6.51492e-10
1.34245e-11
6.29985e-10
2.15075e-11
5.98701e-10
3.12847e-11
5.65673e-10
3.3028e-11
5.19885e-10
4.57873e-11
4.758e-10
4.40848e-11
4.28311e-10
4.74888e-11
3.81012e-10
4.72986e-11
3.37305e-10
4.37065e-11
2.94152e-10
4.31525e-11
2.57411e-10
3.67409e-11
2.22193e-10
3.52171e-11
1.92822e-10
2.93707e-11
1.65988e-10
2.68352e-11
1.42933e-10
2.30582e-11
1.23098e-10
1.98387e-11
1.04922e-10
1.81823e-11
8.96397e-11
1.52882e-11
7.58918e-11
1.37534e-11
6.35297e-11
1.23655e-11
5.2749e-11
1.07807e-11
4.30262e-11
9.71881e-12
3.42051e-11
8.813e-12
2.64471e-11
7.74618e-12
1.95945e-11
6.83825e-12
1.35888e-11
5.9899e-12
8.48948e-12
5.08341e-12
4.24501e-12
4.22948e-12
8.23654e-13
3.40846e-12
-1.76809e-12
2.58199e-12
-3.76057e-12
1.98657e-12
-5.26246e-12
1.50003e-12
-6.29716e-12
1.03666e-12
-7.09413e-12
8.02196e-13
-7.7482e-12
6.61778e-13
-8.24978e-12
5.10833e-13
-8.784e-12
5.44106e-13
-9.35161e-12
5.77268e-13
-9.89126e-12
5.48378e-13
-1.05262e-11
6.42375e-13
-1.10559e-11
5.35513e-13
-1.16202e-11
5.68734e-13
-1.19556e-11
3.38525e-13
-1.21482e-11
1.94938e-13
-1.19567e-11
-1.89793e-13
-1.14666e-11
-4.88668e-13
-1.04653e-11
-1.00011e-12
-8.86796e-12
-1.59624e-12
-6.56351e-12
-2.30331e-12
-3.29531e-12
-3.26695e-12
8.57114e-13
-4.151e-12
6.29002e-12
-5.43115e-12
1.29142e-11
-6.62202e-12
2.10315e-11
-8.11451e-12
3.06889e-11
-9.65415e-12
4.20619e-11
-1.13694e-11
5.51139e-11
-1.30482e-11
7.01756e-11
-1.50582e-11
8.6615e-11
-1.64366e-11
1.05393e-10
-1.87764e-11
1.25434e-10
-2.004e-11
1.46928e-10
-2.14939e-11
1.69949e-10
-2.30212e-11
1.93591e-10
-2.36388e-11
2.17842e-10
-2.42439e-11
2.42646e-10
-2.47904e-11
2.67141e-10
-2.44748e-11
2.91007e-10
-2.38408e-11
3.14409e-10
-2.3375e-11
3.36657e-10
-2.22245e-11
3.57682e-10
-2.10132e-11
3.77388e-10
-1.97098e-11
3.95552e-10
-1.8186e-11
4.12491e-10
-1.69772e-11
4.28745e-10
-1.63019e-11
4.43146e-10
-1.44513e-11
4.56953e-10
-1.38504e-11
4.71286e-10
-1.43642e-11
4.83768e-10
-1.24989e-11
4.96424e-10
-1.26605e-11
5.11092e-10
-1.46633e-11
5.22397e-10
-1.12957e-11
5.36223e-10
-1.38137e-11
5.47978e-10
-1.17419e-11
5.59281e-10
-1.12894e-11
5.68607e-10
-9.31299e-12
5.74719e-10
-6.10094e-12
5.76152e-10
-1.4239e-12
5.73678e-10
2.47936e-12
5.60875e-10
1.28055e-11
5.45836e-10
1.50391e-11
5.16818e-10
2.90168e-11
4.84779e-10
3.20377e-11
4.46043e-10
3.87359e-11
4.01705e-10
4.43375e-11
3.5811e-10
4.35956e-11
3.09694e-10
4.84153e-11
2.66243e-10
4.34507e-11
2.21842e-10
4.44009e-11
1.83205e-10
3.86355e-11
1.45834e-10
3.73689e-11
1.13825e-10
3.20058e-11
8.43454e-11
2.94755e-11
5.9459e-11
2.4882e-11
3.84461e-11
2.10081e-11
3.7513e-11
9.29468e-13
3.88641e-11
-1.35394e-12
4.29617e-11
-4.09972e-12
5.04201e-11
-7.45984e-12
6.41297e-11
-1.37104e-11
8.42871e-11
-2.0158e-11
1.15767e-10
-3.14803e-11
1.49366e-10
-3.36001e-11
1.80259e-10
-3.08931e-11
2.08844e-10
-2.85867e-11
2.3505e-10
-2.62067e-11
2.58692e-10
-2.36432e-11
2.79637e-10
-2.09462e-11
2.97835e-10
-1.81992e-11
3.13307e-10
-1.54724e-11
3.26134e-10
-1.28282e-11
3.36457e-10
-1.0324e-11
3.44467e-10
-8.01102e-12
3.50399e-10
-5.93178e-12
3.54518e-10
-4.1197e-12
3.57116e-10
-2.59732e-12
3.58494e-10
-1.37707e-12
3.58962e-10
-4.67411e-13
3.58817e-10
1.45837e-13
3.58334e-10
4.84229e-13
3.57766e-10
5.69143e-13
3.57317e-10
4.49916e-13
3.57146e-10
1.72893e-13
3.5734e-10
-1.93932e-13
3.57943e-10
-6.02332e-13
3.58933e-10
-9.8907e-13
3.60236e-10
-1.30318e-12
3.61739e-10
-1.50274e-12
3.63295e-10
-1.5564e-12
3.64739e-10
-1.44353e-12
3.65882e-10
-1.14433e-12
3.6649e-10
-6.07872e-13
3.66287e-10
2.01991e-13
3.64744e-10
1.54289e-12
4.45585e-12
2.64883e-09
2.92482e-10
2.59886e-09
5.48938e-10
2.42101e-09
5.36866e-10
2.20576e-09
4.54964e-10
2.00044e-09
3.62178e-10
1.828e-09
2.76396e-10
1.68971e-09
2.09098e-10
1.58019e-09
1.59529e-10
1.49337e-09
1.23478e-10
1.4239e-09
9.73676e-11
1.36754e-09
7.82839e-11
1.32106e-09
6.42245e-11
1.28201e-09
5.38196e-11
1.24857e-09
4.60592e-11
1.21937e-09
4.02585e-11
1.19334e-09
3.59593e-11
1.16964e-09
3.28265e-11
1.14762e-09
3.06176e-11
1.12672e-09
2.9167e-11
1.10647e-09
2.83629e-11
1.08645e-09
2.81293e-11
1.0663e-09
2.84192e-11
1.04564e-09
2.92074e-11
1.02412e-09
3.04831e-11
1.00139e-09
3.2247e-11
9.77095e-10
3.45104e-11
9.50847e-10
3.72971e-11
9.22245e-10
4.06486e-11
8.90835e-10
4.46376e-11
8.56087e-10
4.93962e-11
8.17334e-10
5.51791e-11
7.73681e-10
6.24932e-11
7.23677e-10
7.22569e-11
6.6258e-10
9.26498e-11
6.12214e-10
7.55536e-11
5.96566e-10
1.97754e-11
6.07929e-10
-1.94091e-11
6.37869e-10
-4.37233e-11
6.85411e-10
-6.74599e-11
7.53267e-10
-9.65601e-11
8.48636e-10
-1.43561e-10
9.53603e-10
-1.60119e-10
1.05494e-09
-1.51786e-10
1.15062e-09
-1.42407e-10
1.23773e-09
-1.28398e-10
1.31768e-09
-1.17264e-10
1.392e-09
-1.09688e-10
1.45626e-09
-9.29175e-11
1.5149e-09
-8.52919e-11
1.5655e-09
-7.31314e-11
1.60669e-09
-5.82001e-11
1.64027e-09
-4.80526e-11
1.66029e-09
-2.57069e-11
1.67113e-09
-1.38336e-11
1.66593e-09
1.29096e-11
1.64796e-09
3.13979e-11
1.61432e-09
5.51485e-11
1.56342e-09
8.21853e-11
1.502e-09
9.44447e-11
1.42082e-09
1.26965e-10
1.33368e-09
1.31226e-10
1.23777e-09
1.43403e-10
1.13811e-09
1.46958e-10
1.03957e-09
1.42246e-10
9.4114e-10
1.41577e-10
8.49968e-10
1.27913e-10
7.62612e-10
1.22573e-10
6.84078e-10
1.07905e-10
6.11714e-10
9.92005e-11
5.46764e-10
8.801e-11
4.88926e-10
7.76783e-11
4.3603e-10
7.10798e-11
3.89337e-10
6.19811e-11
3.47199e-10
5.58897e-11
3.08986e-10
5.05753e-11
2.74803e-10
4.49589e-11
2.43854e-10
4.06621e-11
2.1567e-10
3.69918e-11
1.90311e-10
3.30997e-11
1.67549e-10
2.95968e-11
1.47169e-10
2.63685e-11
1.29186e-10
2.30667e-11
1.13503e-10
1.99156e-11
1.00022e-10
1.68943e-11
8.86569e-11
1.39535e-11
7.91276e-11
1.15235e-11
7.11695e-11
9.4657e-12
6.47092e-11
7.50355e-12
5.92176e-11
6.29901e-12
5.43859e-11
5.49705e-12
5.02393e-11
4.65953e-12
4.63422e-11
4.44182e-12
4.25865e-11
4.33262e-12
3.9202e-11
3.93181e-12
3.58173e-11
4.02568e-12
3.30189e-11
3.33262e-12
3.04987e-11
3.08802e-12
2.88862e-11
1.95047e-12
2.79722e-11
1.10892e-12
2.85845e-11
-8.01609e-13
3.05625e-11
-2.46602e-12
3.46617e-11
-5.09841e-12
4.09408e-11
-7.87443e-12
4.97291e-11
-1.10907e-11
6.17012e-11
-1.52383e-11
7.66626e-11
-1.91119e-11
9.55103e-11
-2.42785e-11
1.17997e-10
-2.91086e-11
1.44606e-10
-3.47241e-11
1.75348e-10
-4.0396e-11
2.10314e-10
-4.63361e-11
2.4935e-10
-5.20842e-11
2.92554e-10
-5.82613e-11
3.39001e-10
-6.28839e-11
3.894e-10
-6.91753e-11
4.42141e-10
-7.27814e-11
4.97077e-10
-7.64335e-11
5.53802e-10
-7.97514e-11
6.10943e-10
-8.07882e-11
6.68134e-10
-8.1445e-11
7.2492e-10
-8.15864e-11
7.80066e-10
-7.96264e-11
8.33126e-10
-7.6898e-11
8.84066e-10
-7.43023e-11
9.32121e-10
-7.02563e-11
9.77254e-10
-6.61151e-11
1.01943e-09
-6.18549e-11
1.05862e-09
-5.73498e-11
1.09543e-09
-5.37651e-11
1.1305e-09
-5.13752e-11
1.16288e-09
-4.68461e-11
1.19424e-09
-4.52303e-11
1.2259e-09
-4.60479e-11
1.25559e-09
-4.22168e-11
1.28594e-09
-4.30268e-11
1.31763e-09
-4.63647e-11
1.34649e-09
-4.01556e-11
1.37688e-09
-4.42049e-11
1.40473e-09
-3.95876e-11
1.43038e-09
-3.69384e-11
1.45196e-09
-3.08954e-11
1.46688e-09
-2.10162e-11
1.47329e-09
-7.82581e-12
1.46952e-09
6.25354e-12
1.45106e-09
3.12626e-11
1.42189e-09
4.42144e-11
1.37205e-09
7.88597e-11
1.3105e-09
9.35851e-11
1.23475e-09
1.14486e-10
1.14627e-09
1.32818e-10
1.05247e-09
1.37394e-10
9.49003e-10
1.51883e-10
8.47413e-10
1.45041e-10
7.43225e-10
1.48589e-10
6.45112e-10
1.36748e-10
5.49321e-10
1.3316e-10
4.61551e-10
1.19776e-10
3.79953e-10
1.11074e-10
3.0916e-10
9.56753e-11
2.49765e-10
8.04024e-11
2.30159e-10
2.05352e-11
2.26553e-10
2.25178e-12
2.35111e-10
-1.26583e-11
2.55511e-10
-2.78602e-11
2.9234e-10
-5.05397e-11
3.45322e-10
-7.31408e-11
4.17791e-10
-1.03949e-10
4.94068e-10
-1.09878e-10
5.66093e-10
-1.02919e-10
6.33292e-10
-9.57865e-11
6.95209e-10
-8.81246e-11
7.51421e-10
-7.98557e-11
8.01619e-10
-7.11441e-11
8.45655e-10
-6.22355e-11
8.8354e-10
-5.33567e-11
9.15425e-10
-4.47133e-11
9.416e-10
-3.64982e-11
9.62476e-10
-2.88867e-11
9.78575e-10
-2.20302e-11
9.90505e-10
-1.60495e-11
9.98938e-10
-1.10305e-11
1.00458e-09
-7.02186e-12
1.00815e-09
-4.03332e-12
1.01033e-09
-2.03103e-12
1.01175e-09
-9.37839e-13
1.01296e-09
-6.36764e-13
1.01438e-09
-9.71468e-13
1.01631e-09
-1.76091e-12
1.01892e-09
-2.8058e-12
1.02223e-09
-3.90907e-12
1.02613e-09
-4.88538e-12
1.0304e-09
-5.57716e-12
1.03476e-09
-5.86351e-12
1.03887e-09
-5.66686e-12
1.04238e-09
-4.95226e-12
1.04495e-09
-3.71115e-12
1.04627e-09
-1.92944e-12
1.04603e-09
4.42809e-13
1.04391e-09
3.66443e-12
8.71258e-12
2.61925e-09
1.73235e-10
2.75223e-09
4.15955e-10
2.78976e-09
4.99337e-10
2.74817e-09
4.96549e-10
2.66027e-09
4.5008e-10
2.55003e-09
3.86638e-10
2.43645e-09
3.22677e-10
2.33121e-09
2.6477e-10
2.238e-09
2.16693e-10
2.15712e-09
1.7824e-10
2.08767e-09
1.47736e-10
2.02801e-09
1.23885e-10
1.97641e-09
1.0542e-10
1.93135e-09
9.11194e-11
1.89151e-09
8.01021e-11
1.85574e-09
7.1728e-11
1.82309e-09
6.54753e-11
1.79276e-09
6.09489e-11
1.76405e-09
5.78721e-11
1.73636e-09
5.6051e-11
1.70915e-09
5.53489e-11
1.68188e-09
5.56816e-11
1.65409e-09
5.70049e-11
1.62527e-09
5.93013e-11
1.59494e-09
6.25757e-11
1.5626e-09
6.68538e-11
1.52771e-09
7.21838e-11
1.48971e-09
7.86425e-11
1.448e-09
8.63525e-11
1.40188e-09
9.55138e-11
1.35059e-09
1.06467e-10
1.29327e-09
1.19815e-10
1.22889e-09
1.3664e-10
1.15411e-09
1.67426e-10
1.09003e-09
1.39637e-10
1.06256e-09
4.72447e-11
1.06913e-09
-2.59806e-11
1.10351e-09
-7.81039e-11
1.16387e-09
-1.27818e-10
1.24994e-09
-1.82624e-10
1.363e-09
-2.56623e-10
1.48555e-09
-2.82679e-10
1.60725e-09
-2.73484e-10
1.72372e-09
-2.58876e-10
1.83136e-09
-2.3604e-10
1.93077e-09
-2.16671e-10
2.02277e-09
-2.0169e-10
2.10434e-09
-1.74482e-10
2.17855e-09
-1.59499e-10
2.24352e-09
-1.38104e-10
2.29815e-09
-1.12831e-10
2.34305e-09
-9.29544e-11
2.37472e-09
-5.73739e-11
2.39492e-09
-3.40342e-11
2.39915e-09
8.67403e-12
2.38866e-09
4.18912e-11
2.36121e-09
8.25986e-11
2.31505e-09
1.28342e-10
2.25412e-09
1.55383e-10
2.1719e-09
2.09186e-10
2.07755e-09
2.25569e-10
1.96961e-09
2.51351e-10
1.85258e-09
2.63983e-10
1.73095e-09
2.63874e-10
1.6056e-09
2.6693e-10
1.48323e-09
2.50284e-10
1.36281e-09
2.42991e-10
1.2495e-09
2.21212e-10
1.14237e-09
2.06335e-10
1.0431e-09
1.87287e-10
9.52191e-10
1.68583e-10
8.67821e-10
1.55451e-10
7.91429e-10
1.38373e-10
7.21517e-10
1.25799e-10
6.57407e-10
1.14681e-10
5.99198e-10
1.03164e-10
5.45984e-10
9.38707e-11
4.97166e-10
8.58062e-11
4.5269e-10
7.75732e-11
4.12265e-10
7.00202e-11
3.75546e-10
6.30886e-11
3.42521e-10
5.6095e-11
3.13053e-10
4.93895e-11
2.87034e-10
4.29204e-11
2.64456e-10
3.65402e-11
2.4494e-10
3.10476e-11
2.28145e-10
2.62668e-11
2.14065e-10
2.15887e-11
2.01936e-10
1.84301e-11
1.91312e-10
1.61228e-11
1.82207e-10
1.37637e-11
1.73963e-10
1.26848e-11
1.66329e-10
1.19644e-11
1.59699e-10
1.05591e-11
1.53397e-10
1.03254e-11
1.48432e-10
8.29545e-12
1.44182e-10
7.33605e-12
1.41818e-10
4.31416e-12
1.4086e-10
2.06591e-12
1.42858e-10
-2.79881e-12
1.47245e-10
-6.85297e-12
1.55396e-10
-1.32486e-11
1.67357e-10
-1.98345e-11
1.83649e-10
-2.73828e-11
2.0526e-10
-3.6848e-11
2.31802e-10
-4.56543e-11
2.64477e-10
-5.69536e-11
3.02803e-10
-6.74349e-11
3.47246e-10
-7.91673e-11
3.97654e-10
-9.08041e-11
4.53854e-10
-1.02537e-10
5.15456e-10
-1.13687e-10
5.8221e-10
-1.25015e-10
6.52885e-10
-1.33558e-10
7.27781e-10
-1.44071e-10
8.04981e-10
-1.49982e-10
8.83998e-10
-1.55452e-10
9.64063e-10
-1.59822e-10
1.04366e-09
-1.60396e-10
1.12218e-09
-1.59977e-10
1.19896e-09
-1.58389e-10
1.2728e-09
-1.53482e-10
1.34329e-09
-1.47394e-10
1.41026e-09
-1.41274e-10
1.47316e-09
-1.33148e-10
1.53205e-09
-1.24986e-10
1.58703e-09
-1.16797e-10
1.63831e-09
-1.08581e-10
1.68651e-09
-1.01934e-10
1.73221e-09
-9.70513e-11
1.77521e-09
-8.98374e-11
1.81672e-09
-8.67392e-11
1.85787e-09
-8.72226e-11
1.89727e-09
-8.16366e-11
1.93702e-09
-8.27957e-11
1.97691e-09
-8.62755e-11
2.0147e-09
-7.79517e-11
2.05247e-09
-8.1978e-11
2.08755e-09
-7.46743e-11
2.11924e-09
-6.86254e-11
2.14605e-09
-5.77072e-11
2.16509e-09
-4.00535e-11
2.17487e-09
-1.76145e-11
2.17289e-09
8.23831e-12
2.15594e-09
4.82227e-11
2.12516e-09
7.49914e-11
2.07384e-09
1.30183e-10
2.00672e-09
1.6071e-10
1.92227e-09
1.98933e-10
1.82079e-09
2.34301e-10
1.70833e-09
2.49853e-10
1.58158e-09
2.78626e-10
1.45066e-09
2.75963e-10
1.31265e-09
2.86604e-10
1.1763e-09
2.73099e-10
1.03934e-09
2.70115e-10
9.08405e-10
2.50714e-10
7.83902e-10
2.35577e-10
6.74223e-10
2.05355e-10
5.79872e-10
1.74754e-10
5.37727e-10
6.26794e-11
5.23352e-10
1.66262e-11
5.31125e-10
-2.04315e-11
5.59226e-10
-5.59613e-11
6.11955e-10
-1.0327e-10
6.86616e-10
-1.47802e-10
7.83544e-10
-2.00877e-10
8.83913e-10
-2.10248e-10
9.79133e-10
-1.98139e-10
1.06826e-09
-1.84915e-10
1.15062e-09
-1.70481e-10
1.22571e-09
-1.54954e-10
1.29322e-09
-1.38646e-10
1.35296e-09
-1.21976e-10
1.40494e-09
-1.05342e-10
1.44934e-09
-8.91125e-11
1.48648e-09
-7.36364e-11
1.51684e-09
-5.92415e-11
1.54102e-09
-4.6218e-11
1.55978e-09
-3.48052e-11
1.57393e-09
-2.518e-11
1.58436e-09
-1.74485e-11
1.59196e-09
-1.16375e-11
1.59762e-09
-7.69046e-12
1.60214e-09
-5.46213e-12
1.60623e-09
-4.72372e-12
1.61043e-09
-5.17567e-12
1.61514e-09
-6.46658e-12
1.62055e-09
-8.21653e-12
1.62669e-09
-1.00451e-11
1.63341e-09
-1.16032e-11
1.64042e-09
-1.25961e-11
1.64736e-09
-1.28023e-11
1.65379e-09
-1.20886e-11
1.65925e-09
-1.04138e-11
1.66335e-09
-7.81347e-12
1.66579e-09
-4.36226e-12
1.66636e-09
-1.33047e-13
1.66513e-09
4.8975e-12
1.16711e-11
2.56732e-09
1.0591e-10
2.69658e-09
2.86696e-10
2.80569e-09
3.90233e-10
2.87291e-09
4.29324e-10
2.89433e-09
4.28667e-10
2.87756e-09
4.03401e-10
2.83722e-09
3.63015e-10
2.78369e-09
3.18307e-10
2.72464e-09
2.75738e-10
2.66575e-09
2.37135e-10
2.61e-09
2.0348e-10
2.55837e-09
1.75516e-10
2.51108e-09
1.52711e-10
2.46799e-09
1.34211e-10
2.42863e-09
1.19462e-10
2.3924e-09
1.07957e-10
2.35871e-09
9.91676e-11
2.32698e-09
9.26804e-11
2.29665e-09
8.81989e-11
2.2672e-09
8.55051e-11
2.23811e-09
8.44347e-11
2.2089e-09
8.4894e-11
2.17906e-09
8.68397e-11
2.1481e-09
9.02611e-11
2.1155e-09
9.51797e-11
2.08071e-09
1.01647e-10
2.04314e-09
1.09745e-10
2.0022e-09
1.19591e-10
1.95719e-09
1.31355e-10
1.90742e-09
1.45284e-10
1.85213e-09
1.61761e-10
1.79056e-09
1.81379e-10
1.72205e-09
2.05157e-10
1.64403e-09
2.45446e-10
1.57455e-09
2.09115e-10
1.5377e-09
8.40922e-11
1.53533e-09
-2.36031e-11
1.56467e-09
-1.07443e-10
1.62379e-09
-1.86939e-10
1.70979e-09
-2.68627e-10
1.82019e-09
-3.67022e-10
1.93978e-09
-4.02267e-10
2.06117e-09
-3.9488e-10
2.17867e-09
-3.76382e-10
2.28835e-09
-3.45724e-10
2.39019e-09
-3.18505e-10
2.4846e-09
-2.96109e-10
2.5694e-09
-2.59273e-10
2.64699e-09
-2.37085e-10
2.71595e-09
-2.07065e-10
2.7751e-09
-1.71976e-10
2.82491e-09
-1.4277e-10
2.86361e-09
-9.60674e-11
2.89147e-09
-6.18997e-11
2.90615e-09
-6.00882e-12
2.90748e-09
4.05685e-11
2.89405e-09
9.602e-11
2.86408e-09
1.58312e-10
2.81934e-09
2.00127e-10
2.75526e-09
2.73265e-10
2.67679e-09
3.04039e-10
2.58254e-09
3.45602e-10
2.4755e-09
3.71026e-10
2.35861e-09
3.80757e-10
2.23339e-09
3.92155e-10
2.1052e-09
3.78475e-10
1.97458e-09
3.73609e-10
1.84642e-09
3.49374e-10
1.72132e-09
3.31438e-10
1.60152e-09
3.07083e-10
1.48855e-09
2.81551e-10
1.38138e-09
2.62622e-10
1.28195e-09
2.37799e-10
1.18925e-09
2.185e-10
1.10292e-09
2.01007e-10
1.02328e-09
1.82798e-10
9.49519e-10
1.67627e-10
8.81127e-10
1.54195e-10
8.18019e-10
1.40679e-10
7.59924e-10
1.28116e-10
7.06415e-10
1.166e-10
6.57482e-10
1.05033e-10
6.12969e-10
9.39105e-11
5.72783e-10
8.31142e-11
5.37011e-10
7.23201e-11
5.053e-10
6.27659e-11
4.77348e-10
5.42238e-11
4.53327e-10
4.56118e-11
4.32369e-10
3.93893e-11
4.14017e-10
3.44747e-11
3.98289e-10
2.94901e-11
3.84381e-10
2.65901e-11
3.7187e-10
2.44727e-11
3.61296e-10
2.11295e-11
3.51649e-10
1.99699e-11
3.4431e-10
1.56322e-11
3.38342e-10
1.33021e-11
3.35382e-10
7.27317e-12
3.34683e-10
2.76459e-12
3.38385e-10
-6.50019e-12
3.45641e-10
-1.41091e-11
3.58309e-10
-2.59161e-11
3.76325e-10
-3.78499e-11
4.00356e-10
-5.14136e-11
4.31536e-10
-6.80271e-11
4.69245e-10
-8.33633e-11
5.14783e-10
-1.02492e-10
5.67372e-10
-1.20024e-10
6.27274e-10
-1.3907e-10
6.94103e-10
-1.57634e-10
7.67293e-10
-1.75727e-10
8.46187e-10
-1.92582e-10
9.30123e-10
-2.0895e-10
1.0176e-09
-2.21031e-10
1.10853e-09
-2.35e-10
1.20081e-09
-2.42264e-10
1.29372e-09
-2.48356e-10
1.3863e-09
-2.5241e-10
1.47707e-09
-2.51168e-10
1.56534e-09
-2.48255e-10
1.65049e-09
-2.43554e-10
1.73149e-09
-2.34502e-10
1.8081e-09
-2.24025e-10
1.88022e-09
-2.13413e-10
1.9476e-09
-2.00533e-10
2.01047e-09
-1.87845e-10
2.06908e-09
-1.75386e-10
2.12385e-09
-1.63312e-10
2.17543e-09
-1.5347e-10
2.22438e-09
-1.45957e-10
2.27094e-09
-1.36376e-10
2.31583e-09
-1.31615e-10
2.36018e-09
-1.31576e-10
2.40306e-09
-1.24541e-10
2.44588e-09
-1.25633e-10
2.48802e-09
-1.2844e-10
2.52857e-09
-1.18522e-10
2.568e-09
-1.21408e-10
2.60486e-09
-1.11541e-10
2.63787e-09
-1.01637e-10
2.66617e-09
-8.6013e-11
2.6871e-09
-6.09812e-11
2.6998e-09
-3.03131e-11
2.70162e-09
6.41678e-12
2.6907e-09
5.91493e-11
2.66635e-09
9.93373e-11
2.6246e-09
1.71938e-10
2.5668e-09
2.18507e-10
2.49196e-09
2.73777e-10
2.39885e-09
3.27409e-10
2.29163e-09
3.57073e-10
2.16697e-09
4.03282e-10
2.0326e-09
4.10337e-10
1.88599e-09
4.33218e-10
1.73491e-09
4.24172e-10
1.57785e-09
4.27183e-10
1.42169e-09
4.06869e-10
1.26912e-09
3.88152e-10
1.13273e-09
3.41738e-10
1.01242e-09
2.95068e-10
9.49833e-10
1.25266e-10
9.22395e-10
4.40643e-11
9.25248e-10
-2.32858e-11
9.55499e-10
-8.6212e-11
1.01646e-09
-1.64227e-10
1.10223e-09
-2.33579e-10
1.21042e-09
-3.09058e-10
1.32058e-09
-3.20417e-10
1.42457e-09
-3.02127e-10
1.52168e-09
-2.82021e-10
1.61132e-09
-2.60127e-10
1.69316e-09
-2.36786e-10
1.76697e-09
-2.12455e-10
1.83268e-09
-1.87692e-10
1.89037e-09
-1.63033e-10
1.94024e-09
-1.38977e-10
1.98261e-09
-1.16006e-10
2.01795e-09
-9.4581e-11
2.04685e-09
-7.51209e-11
2.07003e-09
-5.79804e-11
2.08828e-09
-4.34316e-11
2.10248e-09
-3.16485e-11
2.11353e-09
-2.26905e-11
2.12233e-09
-1.64912e-11
2.12972e-09
-1.28509e-11
2.13643e-09
-1.14414e-11
2.14308e-09
-1.18233e-11
2.15009e-09
-1.34754e-11
2.1577e-09
-1.58304e-11
2.16598e-09
-1.83181e-11
2.17479e-09
-2.04118e-11
2.18385e-09
-2.16638e-11
2.19279e-09
-2.17363e-11
2.20113e-09
-2.04267e-11
2.2084e-09
-1.76816e-11
2.21417e-09
-1.35864e-11
2.21815e-09
-8.33387e-12
2.22018e-09
-2.16511e-12
2.22042e-09
4.66148e-12
1.32506e-11
2.53833e-09
6.7579e-11
2.63117e-09
1.9386e-10
2.73759e-09
2.83809e-10
2.83187e-09
3.35047e-10
2.90396e-09
3.56574e-10
2.95185e-09
3.55513e-10
2.97577e-09
3.39095e-10
2.97967e-09
3.14404e-10
2.96966e-09
2.85754e-10
2.95087e-09
2.55924e-10
2.9268e-09
2.27554e-10
2.89971e-09
2.02603e-10
2.87156e-09
1.80864e-10
2.8435e-09
1.62264e-10
2.81598e-09
1.46982e-10
2.78916e-09
1.34783e-10
2.76304e-09
1.25281e-10
2.73752e-09
1.18205e-10
2.71236e-09
1.13357e-10
2.68729e-09
1.10578e-10
2.662e-09
1.09725e-10
2.63614e-09
1.10749e-10
2.60934e-09
1.13639e-10
2.58119e-09
1.18412e-10
2.55125e-09
1.25126e-10
2.51902e-09
1.33874e-10
2.48398e-09
1.44781e-10
2.44556e-09
1.58011e-10
2.40314e-09
1.7378e-10
2.35605e-09
1.92373e-10
2.30363e-09
2.14183e-10
2.24525e-09
2.39757e-10
2.18042e-09
2.6999e-10
2.10719e-09
3.18674e-10
2.03946e-09
2.76843e-10
1.99716e-09
1.26396e-10
1.98523e-09
-1.16743e-11
2.00431e-09
-1.26517e-10
2.05298e-09
-2.35614e-10
2.12706e-09
-3.42708e-10
2.22234e-09
-4.62296e-10
2.32673e-09
-5.06658e-10
2.43537e-09
-5.03519e-10
2.54163e-09
-4.82646e-10
2.64146e-09
-4.45562e-10
2.73447e-09
-4.11511e-10
2.82083e-09
-3.82474e-10
2.89955e-09
-3.37989e-10
2.97143e-09
-3.08966e-10
3.03568e-09
-2.71311e-10
3.09247e-09
-2.28769e-10
3.14121e-09
-1.91509e-10
3.18157e-09
-1.36422e-10
3.21307e-09
-9.34064e-11
3.23515e-09
-2.80839e-11
3.24687e-09
2.88411e-11
3.2477e-09
9.51979e-11
3.23607e-09
1.69942e-10
3.21228e-09
2.23914e-10
3.1735e-09
3.12045e-10
3.12138e-09
3.56155e-10
3.0545e-09
4.12481e-10
2.97407e-09
4.51466e-10
2.88108e-09
4.73746e-10
2.77685e-09
4.96379e-10
2.66462e-09
4.90705e-10
2.5456e-09
4.9263e-10
2.42354e-09
4.71436e-10
2.30001e-09
4.5497e-10
2.17735e-09
4.29743e-10
2.05786e-09
4.01047e-10
1.94136e-09
3.79115e-10
1.83031e-09
3.4885e-10
1.72438e-09
3.24425e-10
1.62377e-09
3.01615e-10
1.52918e-09
2.77383e-10
1.44011e-09
2.56694e-10
1.35635e-09
2.37952e-10
1.2779e-09
2.19122e-10
1.20466e-09
2.01362e-10
1.1362e-09
1.85066e-10
1.07258e-09
1.68666e-10
1.01365e-09
1.52845e-10
9.59376e-10
1.37396e-10
9.09953e-10
1.2175e-10
8.65137e-10
1.07587e-10
8.24755e-10
9.46091e-11
7.89261e-10
8.11067e-11
7.57824e-10
7.08246e-11
7.30157e-10
6.21396e-11
7.06337e-10
5.33071e-11
6.8556e-10
4.73632e-11
6.67234e-10
4.27954e-11
6.52048e-10
3.63118e-11
6.38636e-10
3.33786e-11
6.28683e-10
2.55836e-11
6.20911e-10
2.10727e-11
6.17345e-10
1.08383e-11
6.16947e-10
3.16225e-12
6.22383e-10
-1.19365e-11
6.32484e-10
-2.42101e-11
6.49527e-10
-4.2959e-11
6.7325e-10
-6.15719e-11
7.04409e-10
-8.25727e-11
7.44107e-10
-1.07725e-10
7.91481e-10
-1.30737e-10
8.4772e-10
-1.5873e-10
9.11735e-10
-1.8404e-10
9.83435e-10
-2.1077e-10
1.06218e-09
-2.36383e-10
1.14694e-09
-2.6049e-10
1.23683e-09
-2.82465e-10
1.33075e-09
-3.02872e-10
1.42703e-09
-3.17315e-10
1.52527e-09
-3.33237e-10
1.62331e-09
-3.40306e-10
1.72031e-09
-3.45347e-10
1.8153e-09
-3.47405e-10
1.90696e-09
-3.42822e-10
1.99469e-09
-3.35987e-10
2.07806e-09
-3.26935e-10
2.15633e-09
-3.12793e-10
2.22954e-09
-2.97254e-10
2.29776e-09
-2.8165e-10
2.36105e-09
-2.63847e-10
2.41986e-09
-2.46657e-10
2.4746e-09
-2.3012e-10
2.52584e-09
-2.1453e-10
2.57425e-09
-2.01839e-10
2.62035e-09
-1.92016e-10
2.66463e-09
-1.80612e-10
2.70719e-09
-1.74158e-10
2.74955e-09
-1.7392e-10
2.79082e-09
-1.65819e-10
2.83157e-09
-1.66405e-10
2.87123e-09
-1.68118e-10
2.90978e-09
-1.57094e-10
2.94654e-09
-1.58184e-10
2.98113e-09
-1.46137e-10
3.01199e-09
-1.32501e-10
3.03891e-09
-1.12935e-10
3.05967e-09
-8.17419e-11
3.0741e-09
-4.47424e-11
3.0797e-09
8.20828e-13
3.07599e-09
6.28569e-11
3.06113e-09
1.14197e-10
3.03355e-09
1.99521e-10
2.99215e-09
2.59911e-10
2.9364e-09
3.29523e-10
2.86396e-09
3.99856e-10
2.77706e-09
4.4397e-10
2.67219e-09
5.08151e-10
2.55419e-09
5.28336e-10
2.4204e-09
5.6701e-10
2.27657e-09
5.68002e-10
2.1212e-09
5.82549e-10
1.96038e-09
5.67691e-10
1.7985e-09
5.50041e-10
1.65192e-09
4.88314e-10
1.51958e-09
4.27406e-10
1.44362e-09
2.0123e-10
1.4055e-09
8.21781e-11
1.4022e-09
-1.99836e-11
1.43078e-09
-1.1479e-10
1.49357e-09
-2.27015e-10
1.58168e-09
-3.21696e-10
1.69039e-09
-4.17761e-10
1.79921e-09
-4.29245e-10
1.90087e-09
-4.03783e-10
1.99508e-09
-3.76228e-10
2.08154e-09
-3.4659e-10
2.16017e-09
-3.15412e-10
2.23098e-09
-2.83264e-10
2.29409e-09
-2.508e-10
2.3497e-09
-2.18642e-10
2.39809e-09
-1.87368e-10
2.43962e-09
-1.57543e-10
2.47476e-09
-1.29716e-10
2.50403e-09
-1.04396e-10
2.52807e-09
-8.20169e-11
2.54756e-09
-6.29228e-11
2.56326e-09
-4.73448e-11
2.57594e-09
-3.53769e-11
2.5864e-09
-2.69553e-11
2.5954e-09
-2.18464e-11
2.6036e-09
-1.9648e-11
2.61159e-09
-1.98088e-11
2.61978e-09
-2.16647e-11
2.62843e-09
-2.44859e-11
2.63765e-09
-2.75322e-11
2.64735e-09
-3.01106e-11
2.65731e-09
-3.16244e-11
2.66719e-09
-3.1614e-11
2.67656e-09
-2.97958e-11
2.68497e-09
-2.60909e-11
2.69201e-09
-2.06214e-11
2.69736e-09
-1.36831e-11
2.70088e-09
-5.68128e-12
2.70266e-09
2.88068e-12
1.34093e-11
2.52326e-09
4.43149e-11
2.58626e-09
1.30862e-10
2.67044e-09
1.99631e-10
2.75962e-09
2.45865e-10
2.8436e-09
2.72595e-10
2.91574e-09
2.83372e-10
2.9731e-09
2.8174e-10
3.01609e-09
2.71407e-10
3.04652e-09
2.5533e-10
3.06532e-09
2.3712e-10
3.07426e-09
2.18618e-10
3.07657e-09
2.00295e-10
3.07428e-09
1.83155e-10
3.06848e-09
1.68064e-10
3.05991e-09
1.55548e-10
3.04935e-09
1.4534e-10
3.03733e-09
1.37303e-10
3.0241e-09
1.31432e-10
3.00978e-09
1.27679e-10
2.99435e-09
1.26006e-10
2.9778e-09
1.26281e-10
2.95995e-09
1.28595e-10
2.94062e-09
1.32973e-10
2.91955e-09
1.39482e-10
2.89644e-09
1.48232e-10
2.87095e-09
1.59368e-10
2.84266e-09
1.73069e-10
2.81112e-09
1.89552e-10
2.77582e-09
2.09077e-10
2.73624e-09
2.31959e-10
2.69182e-09
2.58597e-10
2.64208e-09
2.89495e-10
2.58665e-09
3.25426e-10
2.52416e-09
3.81164e-10
2.46395e-09
3.37051e-10
2.42055e-09
1.69792e-10
2.40092e-09
7.95747e-12
2.40853e-09
-1.34126e-10
2.44279e-09
-2.69873e-10
2.49928e-09
-3.99192e-10
2.57344e-09
-5.36455e-10
2.65666e-09
-5.89884e-10
2.74617e-09
-5.93028e-10
2.83463e-09
-5.71107e-10
2.91798e-09
-5.28913e-10
2.99562e-09
-4.8915e-10
3.06767e-09
-4.5453e-10
3.13415e-09
-4.04469e-10
3.19461e-09
-3.69429e-10
3.24843e-09
-3.25126e-10
3.29729e-09
-2.77629e-10
3.33989e-09
-2.34107e-10
3.37694e-09
-1.7347e-10
3.4076e-09
-1.24074e-10
3.43248e-09
-5.29627e-11
3.45056e-09
1.07689e-11
3.46189e-09
8.38586e-11
3.46545e-09
1.66382e-10
3.46066e-09
2.28709e-10
3.44623e-09
3.26472e-10
3.42165e-09
3.80741e-10
3.38565e-09
4.48475e-10
3.33797e-09
4.99149e-10
3.27795e-09
5.33768e-10
3.20648e-09
5.67848e-10
3.1244e-09
5.72786e-10
3.03296e-09
5.84063e-10
2.93417e-09
5.70232e-10
2.82986e-09
5.59279e-10
2.72183e-09
5.37777e-10
2.61258e-09
5.10292e-10
2.50255e-09
4.8915e-10
2.39429e-09
4.57099e-10
2.28818e-09
4.30534e-10
2.18492e-09
4.04876e-10
2.0856e-09
3.76695e-10
1.99015e-09
3.52142e-10
1.89879e-09
3.29312e-10
1.8117e-09
3.06216e-10
1.72904e-09
2.84028e-10
1.65051e-09
2.63603e-10
1.57629e-09
2.42889e-10
1.50634e-09
2.22805e-10
1.44067e-09
2.03069e-10
1.37961e-09
1.82825e-10
1.32303e-09
1.64163e-10
1.27094e-09
1.46698e-10
1.22411e-09
1.27935e-10
1.18188e-09
1.13058e-10
1.14429e-09
9.97211e-11
1.11158e-09
8.60172e-11
1.08315e-09
7.57872e-11
1.05832e-09
6.76155e-11
1.03799e-09
5.66383e-11
1.02048e-09
5.08892e-11
1.00769e-09
3.83719e-11
9.97996e-10
3.07629e-11
9.93701e-10
1.5133e-11
9.93458e-10
3.40509e-12
1.00032e-09
-1.87993e-11
1.01279e-09
-3.66797e-11
1.03346e-09
-6.36265e-11
1.06179e-09
-8.99077e-11
1.09861e-09
-1.19383e-10
1.14479e-09
-1.53907e-10
1.19927e-09
-1.85219e-10
1.26294e-09
-2.22396e-10
1.33444e-09
-2.55539e-10
1.41321e-09
-2.89548e-10
1.49841e-09
-3.21585e-10
1.58852e-09
-3.50598e-10
1.68248e-09
-3.76425e-10
1.77882e-09
-3.99219e-10
1.87584e-09
-4.14335e-10
1.97285e-09
-4.30249e-10
2.06783e-09
-4.35284e-10
2.1599e-09
-4.37417e-10
2.24825e-09
-4.35749e-10
2.33182e-09
-4.26387e-10
2.41023e-09
-4.14401e-10
2.48336e-09
-4.0006e-10
2.5508e-09
-3.80243e-10
2.61292e-09
-3.5938e-10
2.67e-09
-3.38749e-10
2.72244e-09
-3.16311e-10
2.77086e-09
-2.951e-10
2.81584e-09
-2.75108e-10
2.85805e-09
-2.56733e-10
2.89813e-09
-2.41898e-10
2.93655e-09
-2.304e-10
2.97386e-09
-2.17881e-10
3.00961e-09
-2.09872e-10
3.04611e-09
-2.10403e-10
3.08118e-09
-2.00883e-10
3.11604e-09
-2.01265e-10
3.14963e-09
-2.01728e-10
3.1826e-09
-1.90086e-10
3.21352e-09
-1.89122e-10
3.24282e-09
-1.75449e-10
3.26891e-09
-1.58596e-10
3.29212e-09
-1.36146e-10
3.31073e-09
-1.00353e-10
3.3251e-09
-5.91101e-11
3.33343e-09
-7.51492e-12
3.33587e-09
6.04261e-11
3.33032e-09
1.19741e-10
3.31716e-09
2.12691e-10
3.29362e-09
2.8345e-10
3.25977e-09
3.63368e-10
3.21274e-09
4.46888e-10
3.15324e-09
5.03472e-10
3.07777e-09
5.83619e-10
2.98844e-09
6.17667e-10
2.8824e-09
6.73053e-10
2.76286e-09
6.87538e-10
2.62793e-09
7.1748e-10
2.4819e-09
7.13716e-10
2.33008e-09
7.01869e-10
2.19148e-09
6.26911e-10
2.06368e-09
5.55207e-10
1.98496e-09
2.79945e-10
1.94244e-09
1.24703e-10
1.93504e-09
-1.25914e-11
1.9606e-09
-1.40344e-10
2.02075e-09
-2.87166e-10
2.10438e-09
-4.05331e-10
2.20505e-09
-5.18422e-10
2.30396e-09
-5.28159e-10
2.39506e-09
-4.94884e-10
2.47845e-09
-4.59614e-10
2.55412e-09
-4.22257e-10
2.62224e-09
-3.83533e-10
2.68308e-09
-3.44107e-10
2.73697e-09
-3.0469e-10
2.78428e-09
-2.65945e-10
2.82539e-09
-2.2848e-10
2.86074e-09
-1.92894e-10
2.89081e-09
-1.5978e-10
2.91609e-09
-1.29684e-10
2.93715e-09
-1.03071e-10
2.95453e-09
-8.03112e-11
2.96885e-09
-6.16644e-11
2.98072e-09
-4.72421e-11
2.99074e-09
-3.69822e-11
2.99952e-09
-3.06289e-11
3.0076e-09
-2.77284e-11
3.01544e-09
-2.76482e-11
3.02339e-09
-2.96191e-11
3.03169e-09
-3.27896e-11
3.04045e-09
-3.62882e-11
3.04963e-09
-3.92882e-11
3.05907e-09
-4.10674e-11
3.06852e-09
-4.10562e-11
3.07761e-09
-3.88893e-11
3.08598e-09
-3.44539e-11
3.09325e-09
-2.78924e-11
3.09914e-09
-1.95736e-11
3.10349e-09
-1.0028e-11
3.10633e-09
4.28947e-14
1.24539e-11