/*--------------------------------*- C++ -*----------------------------------*\
| =========                 |                                                 |
| \\      /  F ield         | OpenFOAM: The Open Source CFD Toolbox           |
|  \\    /   O peration     | Version:  2506                                  |
|   \\  /    A nd           | Website:  www.openfoam.com                      |
|    \\/     M anipulation  |                                                 |
\*---------------------------------------------------------------------------*/
FoamFile
{
    version     2.0;
    format      ascii;
    arch        "LSB;label=32;scalar=64";
    class       volScalarField;
    location    "2.6";
    object      p;
}
// * * * * * * * * * * * * * * * * * * * * * * * * * * * * * * * * * * * * * //

dimensions      [0 2 -2 0 0 0 0];

internalField   nonuniform List<scalar> 
4000
(
0.00506633
0.00494733
0.00487196
0.00482911
0.00479612
0.00476769
0.00474265
0.00471965
0.0046976
0.00467599
0.0046546
0.00463332
0.0046121
0.00459095
0.00456985
0.00454884
0.00452793
0.00450714
0.00448649
0.00446602
0.00444575
0.00442571
0.00440592
0.00438643
0.00436727
0.00434849
0.00433014
0.00431229
0.00429501
0.00427839
0.00426253
0.00424758
0.00423372
0.00422084
0.00421053
0.004202
0.00419197
0.00417952
0.00416443
0.00414575
0.00412229
0.004091
0.00405286
0.00401055
0.00396435
0.00391467
0.00386168
0.00380509
0.00374633
0.00368503
0.0036217
0.00355751
0.003492
0.00342765
0.00336337
0.00330169
0.00324226
0.00318598
0.00313468
0.00308593
0.00304354
0.00300482
0.00297051
0.00294051
0.0029134
0.00289006
0.00286857
0.00284975
0.00283223
0.0028162
0.0028012
0.00278676
0.0027731
0.00275973
0.00274663
0.00273386
0.00272122
0.00270869
0.00269634
0.00268413
0.0026721
0.0026603
0.00264874
0.00263747
0.00262652
0.00261588
0.00260556
0.00259561
0.00258597
0.00257663
0.00256766
0.00255893
0.00255048
0.00254234
0.00253439
0.00252673
0.00251921
0.00251195
0.00250478
0.00249782
0.00249083
0.00248395
0.00247698
0.00246991
0.00246275
0.00245532
0.00244768
0.00243963
0.00243118
0.00242221
0.00241267
0.00240245
0.00239151
0.00237968
0.00236697
0.0023531
0.0023381
0.00232181
0.00230404
0.00228475
0.00226375
0.00224089
0.00221611
0.00218931
0.00216032
0.00212912
0.00209563
0.00205982
0.00202169
0.00198121
0.00193829
0.00189321
0.00184592
0.0017962
0.00174462
0.00169113
0.00163521
0.0015784
0.00151974
0.00146034
0.00140032
0.00134032
0.00128101
0.00122342
0.0011675
0.00111576
0.00106604
0.00102245
0.000982926
0.000948065
0.000918637
0.000892582
0.000871826
0.000853702
0.00083953
0.000827291
0.000817786
0.000809567
0.000802915
0.000797155
0.000795081
0.000789125
0.000781193
0.000771598
0.00076054
0.000747082
0.000731277
0.000711231
0.000688998
0.000666332
0.00064353
0.000620742
0.000598085
0.000575591
0.000553226
0.000530934
0.000508658
0.000486351
0.000463985
0.000441562
0.000419077
0.000396553
0.000374024
0.000351528
0.000329081
0.000306736
0.000284518
0.000262445
0.00024055
0.000218845
0.000197327
0.000175996
0.000154838
0.000133845
0.000112998
9.22744e-05
7.16473e-05
5.10915e-05
3.05819e-05
1.01501e-05
0.00497734
0.00491681
0.0048637
0.00482769
0.00479855
0.00477119
0.00474569
0.00472203
0.00469951
0.0046776
0.00465603
0.00463466
0.00461341
0.00459225
0.00457117
0.00455018
0.0045293
0.00450855
0.00448795
0.00446752
0.00444729
0.00442728
0.00440753
0.00438807
0.00436894
0.00435018
0.00433185
0.00431401
0.00429673
0.00428008
0.00426418
0.00424912
0.00423508
0.00422186
0.00421049
0.00420015
0.00418789
0.00417287
0.00415484
0.00413287
0.00410591
0.00407179
0.00403195
0.00398867
0.003942
0.00389224
0.00383956
0.00378376
0.00372633
0.00366674
0.00360561
0.00354408
0.0034818
0.0034207
0.00336003
0.00330187
0.00324595
0.00319252
0.00314331
0.00309656
0.00305515
0.00301715
0.00298303
0.00295287
0.00292546
0.0029016
0.00287966
0.00286032
0.00284242
0.00282606
0.00281084
0.00279629
0.00278258
0.00276925
0.00275623
0.00274349
0.00273091
0.00271843
0.00270611
0.0026939
0.00268182
0.00266991
0.0026582
0.00264673
0.00263554
0.00262462
0.002614
0.00260372
0.00259374
0.00258404
0.00257469
0.00256557
0.0025567
0.00254809
0.00253966
0.00253146
0.00252339
0.00251548
0.00250769
0.00249998
0.00249232
0.00248466
0.00247696
0.00246916
0.0024612
0.00245296
0.00244446
0.00243553
0.00242618
0.00241628
0.00240577
0.00239455
0.00238256
0.00236963
0.00235575
0.00234068
0.0023244
0.00230677
0.0022876
0.00226686
0.0022444
0.00222007
0.00219381
0.00216554
0.00213514
0.00210258
0.00206784
0.00203089
0.00199175
0.00195044
0.0019069
0.00186139
0.00181388
0.00176428
0.00171305
0.00166016
0.00160536
0.00154989
0.0014931
0.0014359
0.00137855
0.00132158
0.00126564
0.00121152
0.00115931
0.00111093
0.00106495
0.0010238
0.000986299
0.000952841
0.000924207
0.000898698
0.000877945
0.000859739
0.000845201
0.000832611
0.000822641
0.000814019
0.000807056
0.000800696
0.000797675
0.000791183
0.000782634
0.000772339
0.000760295
0.000745692
0.000728651
0.000708074
0.000685782
0.000663188
0.000640496
0.000617818
0.000595279
0.000572913
0.000550686
0.000528541
0.000506418
0.000484269
0.000462061
0.000439785
0.000417445
0.000395059
0.000372653
0.000350259
0.000327921
0.000305697
0.000283578
0.000261605
0.000239791
0.000218153
0.000196703
0.000175436
0.00015436
0.000133442
0.000112666
9.2011e-05
7.14536e-05
5.09673e-05
3.05246e-05
1.01464e-05
0.00493598
0.00490279
0.00486131
0.00482861
0.00480065
0.00477375
0.00474842
0.00472453
0.00470163
0.00467939
0.00465756
0.00463601
0.00461465
0.00459341
0.00457229
0.00455128
0.00453039
0.00450963
0.00448902
0.00446859
0.00444835
0.00442834
0.00440858
0.0043891
0.00436994
0.00435114
0.00433276
0.00431484
0.00429745
0.00428066
0.00426454
0.00424918
0.00423469
0.00422084
0.00420819
0.00419597
0.00418162
0.00416437
0.00414391
0.00411934
0.00408992
0.0040544
0.00401422
0.00397104
0.00392482
0.00387575
0.00382409
0.0037699
0.00371447
0.00365711
0.00359875
0.00354026
0.00348152
0.00342375
0.00336676
0.00331145
0.00325827
0.00320731
0.00315981
0.00311453
0.00307348
0.00303548
0.00300088
0.00296986
0.00294149
0.00291645
0.00289346
0.00287304
0.00285423
0.00283704
0.00282116
0.00280608
0.00279192
0.00277826
0.002765
0.00275209
0.00273938
0.0027268
0.00271437
0.00270204
0.00268982
0.00267775
0.00266583
0.00265412
0.00264265
0.00263144
0.0026205
0.00260988
0.00259954
0.00258948
0.00257972
0.00257023
0.00256098
0.00255198
0.00254315
0.00253455
0.00252607
0.00251775
0.00250946
0.00250129
0.0024931
0.0024849
0.00247661
0.00246818
0.00245957
0.00245068
0.00244148
0.00243186
0.00242177
0.00241111
0.00239981
0.00238776
0.00237487
0.00236101
0.00234613
0.00233005
0.0023127
0.00229396
0.00227366
0.00225174
0.0022281
0.00220259
0.00217517
0.00214578
0.00211433
0.00208082
0.00204524
0.0020076
0.00196792
0.00192625
0.00188259
0.00183713
0.00178997
0.00174103
0.00169066
0.00163895
0.0015858
0.00153218
0.00147772
0.00142311
0.00136868
0.00131486
0.0012622
0.00121129
0.00116218
0.00111622
0.00107246
0.00103272
0.000996284
0.000963331
0.000934629
0.000908829
0.000887315
0.00086833
0.000852854
0.000839407
0.000828586
0.000819152
0.000811564
0.000804292
0.000800151
0.000792816
0.000783467
0.000772328
0.000759264
0.000743567
0.000725558
0.000704683
0.000682477
0.000660019
0.000637458
0.000614907
0.0005925
0.000570279
0.000548207
0.000526223
0.000504263
0.000482278
0.000460233
0.000438107
0.000415917
0.000393677
0.00037141
0.000349152
0.000326948
0.000304793
0.000282757
0.000260859
0.000239118
0.000217549
0.000196164
0.000174963
0.000153932
0.000133069
0.000112353
9.17601e-05
7.12661e-05
5.08427e-05
3.04598e-05
1.01173e-05
0.00491637
0.00489057
0.00485733
0.00482806
0.0048014
0.00477556
0.00475057
0.00472657
0.00470362
0.00468121
0.00465917
0.00463742
0.00461589
0.00459454
0.00457334
0.00455227
0.00453132
0.00451052
0.00448988
0.0044694
0.00444912
0.00442905
0.00440922
0.00438965
0.00437039
0.00435147
0.00433293
0.00431481
0.00429717
0.00428007
0.00426354
0.00424764
0.00423241
0.00421762
0.00420361
0.00418963
0.00417344
0.00415427
0.00413183
0.00410539
0.00407451
0.00403842
0.00399837
0.0039556
0.00391013
0.0038621
0.00381189
0.00375975
0.00370641
0.00365178
0.00359663
0.00354148
0.00348639
0.00343206
0.00337854
0.00332649
0.00327609
0.00322759
0.00318174
0.00313776
0.00309695
0.00305876
0.00302346
0.0029913
0.00296162
0.00293501
0.00291054
0.0028886
0.00286846
0.00285006
0.00283314
0.0028172
0.00280233
0.0027881
0.00277437
0.00276111
0.00274811
0.00273531
0.00272267
0.00271016
0.00269774
0.00268546
0.00267332
0.00266136
0.00264962
0.00263811
0.00262687
0.00261593
0.00260527
0.00259489
0.0025848
0.00257496
0.00256536
0.00255599
0.00254678
0.00253776
0.00252883
0.00252004
0.00251127
0.00250256
0.00249381
0.00248502
0.00247612
0.00246705
0.00245778
0.0024482
0.00243829
0.00242792
0.00241706
0.00240559
0.00239344
0.0023805
0.00236669
0.00235186
0.00233598
0.00231885
0.00230042
0.00228056
0.00225914
0.0022361
0.00221135
0.00218477
0.00215634
0.00212602
0.00209376
0.00205958
0.00202348
0.00198549
0.00194567
0.00190407
0.00186074
0.00181581
0.00176961
0.00172182
0.00167275
0.00162276
0.0015718
0.00152051
0.00146875
0.00141704
0.0013657
0.00131507
0.00126557
0.00121762
0.00117129
0.00112746
0.00108564
0.00104697
0.00101108
0.000978117
0.000948781
0.000922125
0.000899282
0.000878974
0.00086204
0.000847263
0.000835213
0.000824505
0.000815964
0.000807632
0.000802274
0.000793932
0.000783649
0.000771592
0.000757582
0.000740983
0.00072228
0.000701172
0.000678991
0.000656622
0.000634176
0.000611759
0.000589502
0.000567442
0.000545538
0.000523721
0.000501926
0.000480099
0.000458205
0.000436229
0.00041418
0.000392073
0.000369935
0.000347798
0.000325697
0.000303662
0.000281732
0.000259933
0.000238284
0.000216802
0.000195498
0.000174373
0.000153421
0.000132633
0.000111991
9.14705e-05
7.10462e-05
5.06886e-05
3.03692e-05
1.00686e-05
0.00490368
0.00488014
0.00485168
0.00482574
0.00480115
0.00477658
0.00475209
0.00472842
0.00470546
0.0046828
0.00466066
0.00463882
0.00461713
0.00459564
0.00457434
0.00455318
0.00453216
0.00451129
0.00449057
0.00447002
0.00444965
0.00442948
0.00440953
0.00438983
0.0043704
0.00435127
0.00433249
0.00431408
0.00429608
0.00427852
0.00426144
0.00424484
0.00422872
0.00421284
0.00419745
0.0041818
0.00416391
0.00414305
0.00411898
0.00409113
0.00405929
0.00402295
0.00398319
0.00394099
0.00389644
0.00384976
0.00380131
0.0037514
0.00370025
0.00364872
0.00359688
0.00354507
0.00349348
0.00344261
0.00339255
0.00334366
0.0032961
0.00325005
0.00320598
0.00316344
0.00312314
0.00308498
0.00304923
0.0030161
0.00298519
0.00295697
0.00293088
0.00290722
0.00288546
0.00286554
0.00284724
0.00283012
0.00281422
0.00279914
0.00278469
0.00277082
0.00275735
0.00274414
0.00273117
0.00271836
0.00270566
0.00269311
0.00268069
0.00266844
0.00265639
0.00264456
0.00263299
0.00262172
0.00261071
0.0026
0.00258958
0.0025794
0.00256945
0.00255972
0.00255013
0.00254071
0.00253136
0.00252211
0.00251285
0.00250363
0.00249432
0.00248494
0.00247541
0.00246568
0.00245572
0.00244541
0.00243473
0.00242357
0.00241186
0.00239953
0.00238646
0.00237257
0.00235777
0.00234192
0.00232498
0.00230676
0.00228721
0.00226624
0.00224371
0.00221958
0.00219379
0.00216625
0.00213695
0.00210588
0.00207301
0.00203839
0.00200203
0.001964
0.00192435
0.00188317
0.00184052
0.00179653
0.00175151
0.00170511
0.00165784
0.00160992
0.00156141
0.00151265
0.00146371
0.00141496
0.00136669
0.00131914
0.00127263
0.00122742
0.00118364
0.0011417
0.00110156
0.00106379
0.00102826
0.000995157
0.000965075
0.000937403
0.000913034
0.00089115
0.000872448
0.00085599
0.000842325
0.000830086
0.000820229
0.000810676
0.000803961
0.000794489
0.00078317
0.000770155
0.000755259
0.000737876
0.000718607
0.000697257
0.000675054
0.000652767
0.000630453
0.000608193
0.000586109
0.00056423
0.000542508
0.000520869
0.000499244
0.000477579
0.000455842
0.00043402
0.00041212
0.00039016
0.000368166
0.00034617
0.000324208
0.000302311
0.000280512
0.000258837
0.000237306
0.000215937
0.000194737
0.000173711
0.000152854
0.000132155
0.000111596
9.11549e-05
7.08056e-05
5.05177e-05
3.02668e-05
1.00164e-05
0.00489494
0.00487251
0.00484678
0.00482328
0.0048003
0.00477674
0.00475304
0.00472975
0.00470687
0.00468423
0.00466205
0.00464012
0.00461827
0.00459666
0.00457526
0.00455401
0.0045329
0.00451193
0.00449111
0.00447045
0.00444996
0.00442965
0.00440954
0.00438965
0.00436999
0.0043506
0.0043315
0.00431271
0.00429425
0.00427615
0.0042584
0.004241
0.00422392
0.00420691
0.00419014
0.00417292
0.00415347
0.00413114
0.00410572
0.0040768
0.00404433
0.00400795
0.00396861
0.00392714
0.00388368
0.00383851
0.00379195
0.00374429
0.00369576
0.00364716
0.00359842
0.00354982
0.00350158
0.00345401
0.00340718
0.00336128
0.0033164
0.0032727
0.0032305
0.00318954
0.00314999
0.00311207
0.00307621
0.00304252
0.00301065
0.00298105
0.00295346
0.00292812
0.00290468
0.00288309
0.0028632
0.00284466
0.00282746
0.00281127
0.00279585
0.00278113
0.00276695
0.00275317
0.0027397
0.00272646
0.00271338
0.00270047
0.00268771
0.00267512
0.00266274
0.00265057
0.00263865
0.00262703
0.00261568
0.00260463
0.00259387
0.00258335
0.00257306
0.002563
0.00255304
0.00254325
0.00253349
0.0025238
0.00251406
0.00250433
0.00249445
0.00248447
0.00247429
0.00246387
0.00245317
0.00244207
0.00243058
0.00241856
0.00240596
0.00239268
0.00237864
0.00236374
0.0023479
0.00233097
0.00231293
0.00229361
0.00227296
0.0022509
0.00222732
0.00220219
0.00217548
0.00214713
0.00211713
0.00208552
0.00205228
0.00201746
0.00198113
0.00194333
0.00190415
0.00186369
0.00182201
0.00177929
0.00173545
0.00169077
0.00164562
0.00159993
0.00155382
0.00150761
0.00146144
0.00141554
0.00137016
0.00132545
0.00128162
0.00123886
0.00119726
0.00115708
0.0011184
0.0010814
0.00104611
0.00101289
0.000982133
0.000953442
0.000927547
0.000904018
0.00088342
0.000865098
0.000849477
0.000835851
0.000824249
0.000813224
0.000804984
0.000794296
0.000781888
0.000767901
0.000752177
0.000734107
0.000714363
0.000692797
0.000670584
0.000648408
0.00062626
0.000604189
0.000582301
0.000560619
0.000539086
0.000517626
0.000496169
0.000474666
0.000453087
0.000431426
0.00040969
0.000387895
0.000366069
0.000344244
0.000322454
0.000300728
0.000279095
0.000257579
0.0002362
0.000214971
0.000193904
0.000172999
0.000152253
0.000131655
0.000111189
9.08331e-05
7.05615e-05
5.03446e-05
3.01638e-05
9.96173e-06
0.00488895
0.00486709
0.00484296
0.00482108
0.00479927
0.00477655
0.00475349
0.00473059
0.00470793
0.00468545
0.00466321
0.00464117
0.00461928
0.00459761
0.0045761
0.00455474
0.00453352
0.00451245
0.00449151
0.00447072
0.00445008
0.0044296
0.00440929
0.00438916
0.00436924
0.00434952
0.00433004
0.0043108
0.00429181
0.00427309
0.00425461
0.00423634
0.00421825
0.0042001
0.004182
0.0041633
0.00414245
0.00411885
0.00409234
0.00406262
0.00402975
0.0039935
0.00395471
0.00391409
0.00387184
0.00382825
0.00378363
0.00373822
0.00369238
0.00364651
0.00360071
0.00355517
0.00351005
0.00346552
0.00342164
0.00337847
0.00333611
0.00329462
0.00325407
0.00321476
0.00317633
0.00313876
0.00310306
0.0030692
0.00303673
0.00300608
0.00297725
0.00295041
0.00292539
0.00290216
0.00288064
0.00286054
0.00284187
0.00282433
0.00280781
0.00279201
0.0027769
0.00276234
0.00274821
0.00273439
0.0027208
0.00270744
0.00269426
0.00268128
0.00266851
0.00265597
0.00264369
0.00263171
0.00262
0.0026086
0.0025975
0.00258665
0.00257603
0.00256563
0.00255532
0.00254516
0.00253499
0.00252488
0.00251465
0.0025044
0.00249393
0.00248333
0.00247247
0.00246131
0.00244983
0.0024379
0.00242554
0.00241259
0.00239902
0.00238475
0.00236968
0.00235372
0.0023368
0.00231878
0.00229965
0.00227924
0.00225753
0.00223446
0.00220994
0.00218395
0.00215649
0.0021275
0.00209703
0.00206511
0.00203174
0.001997
0.00196095
0.00192366
0.0018852
0.00184568
0.00180518
0.00176385
0.00172153
0.00167879
0.00163568
0.00159216
0.0015484
0.00150468
0.00146111
0.00141785
0.00137507
0.00133289
0.00129144
0.00125083
0.00121111
0.00117246
0.00113512
0.00109879
0.0010636
0.00103035
0.000999043
0.000969397
0.00094206
0.000916913
0.000894409
0.000874169
0.000856477
0.000841188
0.000827798
0.000815145
0.000805187
0.000793202
0.000779676
0.000764723
0.00074822
0.000729554
0.000709424
0.000687717
0.000665553
0.000643536
0.000621597
0.000599747
0.000578075
0.000556595
0.00053525
0.00051396
0.000492659
0.000471306
0.000449881
0.000428388
0.000406832
0.000385227
0.000363601
0.000341985
0.000320409
0.000298899
0.000277477
0.000256164
0.000234976
0.000213924
0.000193018
0.000172258
0.000151642
0.000131158
0.000110792
9.05238e-05
7.03298e-05
5.01815e-05
3.00696e-05
9.90188e-06
0.00488489
0.00486335
0.00484016
0.00481931
0.00479834
0.00477627
0.00475371
0.00473115
0.0047087
0.00468635
0.00466413
0.00464206
0.00462016
0.00459841
0.00457682
0.00455536
0.00453405
0.00451286
0.0044918
0.00447086
0.00445005
0.00442938
0.00440884
0.00438845
0.00436821
0.00434813
0.00432822
0.00430848
0.00428891
0.0042695
0.00425024
0.00423107
0.00421195
0.00419268
0.0041733
0.00415322
0.0041311
0.00410642
0.00407902
0.00404872
0.00401564
0.00397967
0.00394153
0.00390184
0.00386087
0.00381892
0.00377625
0.0037331
0.00368978
0.00364655
0.00360352
0.00356082
0.00351855
0.00347677
0.00343553
0.00339484
0.00335475
0.00331529
0.00327648
0.00323851
0.00320123
0.00316453
0.00312911
0.00309523
0.00306249
0.00303117
0.00300142
0.00297337
0.00294699
0.00292226
0.00289917
0.00287752
0.00285731
0.00283829
0.00282043
0.00280352
0.00278726
0.00277173
0.00275674
0.00274218
0.00272795
0.002714
0.00270031
0.00268686
0.00267365
0.00266069
0.002648
0.00263562
0.00262353
0.00261176
0.0026003
0.0025891
0.00257812
0.00256737
0.0025567
0.00254616
0.00253558
0.00252502
0.0025143
0.0025035
0.00249243
0.00248118
0.00246959
0.00245766
0.00244535
0.00243253
0.00241923
0.00240531
0.00239074
0.00237543
0.00235929
0.00234226
0.00232426
0.00230517
0.00228499
0.00226357
0.0022409
0.00221694
0.00219162
0.00216496
0.00213694
0.00210755
0.00207684
0.00204486
0.00201162
0.00197721
0.00194169
0.00190513
0.0018676
0.00182921
0.00179001
0.00175012
0.00170961
0.00166874
0.00162759
0.00158619
0.00154469
0.00150329
0.0014621
0.00142121
0.00138075
0.00134079
0.00130141
0.00126266
0.00122459
0.00118724
0.00115098
0.00111531
0.00108039
0.00104705
0.00101518
0.000984719
0.000956105
0.000929429
0.000905082
0.000882921
0.000863186
0.000845736
0.000830603
0.000816326
0.000804519
0.00079116
0.000776501
0.000760594
0.000743354
0.00072418
0.000703753
0.000682004
0.000659971
0.00063817
0.000616483
0.000594886
0.000573443
0.000552165
0.000530994
0.000509854
0.000488691
0.000467475
0.000446203
0.000424886
0.00040353
0.000382142
0.00036075
0.000339388
0.000318076
0.000296832
0.000275671
0.000254607
0.000233652
0.000212814
0.0001921
0.000171509
0.000151039
0.00013068
0.00011042
9.02398e-05
7.0121e-05
5.00367e-05
2.99908e-05
9.83632e-06
0.00488233
0.00486099
0.00483834
0.00481811
0.00479769
0.00477606
0.00475384
0.00473155
0.00470927
0.00468702
0.00466484
0.00464278
0.00462085
0.00459905
0.0045774
0.00455587
0.00453445
0.00451316
0.00449197
0.00447088
0.0044499
0.00442902
0.00440824
0.00438756
0.00436699
0.00434652
0.00432615
0.00430588
0.0042857
0.00426558
0.00424551
0.00422542
0.00420528
0.0041849
0.00416429
0.00414292
0.00411966
0.00409405
0.00406594
0.00403523
0.00400209
0.00396649
0.00392908
0.00389038
0.00385074
0.00381044
0.00376971
0.00372877
0.00368784
0.00364711
0.00360666
0.00356656
0.00352686
0.00348755
0.00344868
0.00341021
0.00337216
0.00333454
0.00329733
0.00326068
0.00322447
0.00318883
0.00315401
0.00312021
0.00308741
0.00305574
0.00302538
0.00299642
0.00296893
0.00294293
0.00291843
0.00289532
0.00287361
0.00285314
0.00283378
0.00281558
0.00279817
0.00278143
0.00276541
0.00274996
0.00273493
0.00272027
0.00270593
0.00269189
0.00267815
0.00266469
0.00265153
0.00263871
0.00262618
0.00261397
0.0026021
0.0025905
0.00257912
0.00256798
0.0025569
0.00254595
0.00253491
0.00252387
0.00251261
0.00250124
0.00248953
0.00247758
0.00246524
0.00245249
0.00243931
0.00242557
0.00241131
0.00239639
0.00238078
0.00236443
0.00234725
0.00232917
0.00231014
0.00229005
0.00226891
0.0022466
0.00222312
0.00219846
0.00217255
0.00214541
0.00211707
0.00208752
0.00205683
0.00202503
0.00199217
0.00195832
0.00192353
0.00188788
0.00185144
0.00181429
0.00177649
0.00173816
0.0016994
0.00166034
0.00162107
0.00158169
0.00154229
0.00150301
0.00146394
0.00142516
0.00138673
0.0013487
0.0013111
0.00127397
0.00123731
0.00120115
0.00116565
0.00113061
0.00109617
0.00106271
0.00103033
0.000999184
0.00096944
0.000941349
0.000915254
0.000891199
0.000869431
0.000849845
0.000832761
0.000816774
0.000803025
0.000788225
0.000772415
0.00075557
0.000737627
0.000718026
0.00069739
0.000675709
0.000653896
0.000632363
0.000610964
0.000589645
0.000568445
0.000547369
0.000526363
0.000505355
0.0004843
0.000463192
0.000442076
0.000420972
0.000399843
0.000378688
0.000357561
0.000336493
0.000315493
0.000294563
0.000273708
0.000252937
0.000232253
0.00021166
0.000191162
0.00017076
0.00015045
0.000130225
0.000110073
8.99817e-05
6.99356e-05
4.99111e-05
2.99278e-05
9.76904e-06
0.00488104
0.00485982
0.00483745
0.00481754
0.00479741
0.00477602
0.004754
0.00473185
0.00470968
0.0046875
0.00466535
0.0046433
0.00462136
0.00459953
0.00457783
0.00455623
0.00453474
0.00451335
0.00449204
0.00447081
0.00444966
0.00442857
0.00440754
0.00438658
0.00436566
0.00434479
0.00432395
0.00430314
0.00428234
0.0042615
0.00424061
0.00421961
0.00419846
0.00417701
0.00415522
0.00413263
0.00410834
0.00408192
0.00405323
0.00402224
0.00398913
0.00395398
0.00391733
0.00387968
0.00384139
0.00380273
0.00376392
0.0037251
0.00368644
0.00364806
0.00360999
0.00357225
0.00353486
0.00349776
0.003461
0.00342449
0.00338826
0.00335231
0.00331657
0.00328123
0.00324611
0.00321144
0.00317728
0.00314383
0.00311118
0.00307941
0.00304868
0.0030191
0.00299077
0.00296373
0.00293803
0.00291363
0.00289053
0.00286866
0.00284791
0.00282825
0.00280959
0.00279165
0.00277441
0.00275789
0.00274192
0.0027264
0.00271128
0.00269653
0.00268213
0.00266806
0.00265432
0.00264095
0.0026279
0.00261518
0.00260281
0.00259072
0.00257885
0.00256723
0.00255565
0.0025442
0.00253264
0.00252105
0.00250921
0.0024972
0.00248481
0.00247212
0.00245898
0.0024454
0.00243132
0.00241666
0.00240143
0.00238553
0.00236893
0.00235159
0.00233341
0.00231438
0.00229442
0.00227346
0.00225152
0.00222849
0.0022044
0.00217925
0.00215298
0.00212561
0.00209719
0.00206773
0.00203729
0.00200591
0.00197363
0.00194052
0.00190663
0.00187202
0.00183675
0.00180091
0.00176455
0.00172777
0.00169067
0.00165333
0.00161586
0.00157833
0.00154083
0.00150345
0.00146626
0.00142932
0.00139266
0.00135631
0.00132025
0.00128451
0.00124907
0.00121393
0.00117917
0.00114469
0.00111062
0.00107716
0.00104444
0.00101266
0.000981917
0.000952546
0.000924823
0.000898939
0.000875157
0.000853489
0.000834323
0.000816539
0.000800793
0.000784496
0.000767515
0.00074975
0.000731135
0.000711179
0.000690419
0.000668915
0.000647411
0.000626202
0.000605125
0.000584093
0.000563129
0.000542274
0.000521455
0.000500605
0.000479664
0.000458586
0.000437563
0.000416718
0.000395881
0.000374983
0.000354136
0.000333392
0.000312739
0.000292155
0.000271636
0.000251188
0.0002308
0.000210471
0.000190208
0.000170006
0.000149864
0.000129777
0.000109737
8.97349e-05
6.97609e-05
4.97943e-05
2.9867e-05
9.70453e-06
0.00488092
0.00485977
0.00483747
0.00481761
0.00479753
0.00477621
0.00475423
0.00473212
0.00470998
0.00468782
0.00466569
0.00464364
0.00462169
0.00459985
0.00457811
0.00455647
0.00453492
0.00451344
0.00449202
0.00447066
0.00444935
0.00442806
0.0044068
0.00438555
0.0043643
0.00434303
0.00432172
0.00430038
0.00427898
0.00425745
0.00423574
0.00421385
0.00419172
0.00416923
0.00414632
0.00412257
0.00409732
0.00407017
0.004041
0.00400979
0.00397678
0.00394212
0.00390625
0.00386965
0.00383272
0.00379571
0.00375875
0.00372198
0.00368546
0.00364927
0.00361338
0.00357777
0.00354244
0.00350731
0.0034724
0.00343764
0.00340303
0.00336857
0.00333419
0.00330007
0.00326602
0.00323228
0.00319885
0.00316591
0.00313356
0.00310187
0.003071
0.00304105
0.00301213
0.00298431
0.00295764
0.00293214
0.00290782
0.00288465
0.00286258
0.00284155
0.00282151
0.00280237
0.00278392
0.00276616
0.0027491
0.00273259
0.00271656
0.00270096
0.00268576
0.00267095
0.00265651
0.00264246
0.00262875
0.0026154
0.0026024
0.00258969
0.00257721
0.00256497
0.00255278
0.00254071
0.00252852
0.00251628
0.00250376
0.00249106
0.00247793
0.00246447
0.00245052
0.00243609
0.00242114
0.00240558
0.00238944
0.00237262
0.00235511
0.00233688
0.00231785
0.002298
0.00227728
0.00225563
0.00223307
0.00220953
0.00218506
0.00215968
0.00213329
0.00210591
0.00207764
0.00204851
0.00201853
0.00198775
0.00195622
0.00192397
0.00189107
0.00185757
0.00182352
0.00178898
0.00175403
0.00171874
0.00168319
0.00164746
0.00161163
0.00157579
0.00153998
0.00150429
0.00146876
0.00143342
0.00139829
0.00136338
0.00132865
0.00129412
0.00125974
0.00122549
0.00119143
0.00115749
0.00112374
0.00109036
0.00105739
0.00102508
0.000993485
0.00096297
0.00093374
0.00090611
0.000880354
0.000856625
0.000835308
0.000815662
0.000797896
0.000780062
0.000761895
0.00074323
0.000723977
0.000703743
0.000682952
0.000661712
0.000640587
0.000619774
0.0005991
0.000578387
0.000557587
0.00053693
0.000516345
0.000495603
0.00047477
0.000453905
0.0004331
0.000412405
0.000391775
0.00037116
0.000350616
0.000330204
0.000309908
0.000289685
0.000269509
0.000249399
0.000229307
0.000209247
0.000189221
0.000169223
0.000149252
0.000129306
0.000109381
8.94732e-05
6.9575e-05
4.96672e-05
2.97728e-05
9.62004e-06
0.00488197
0.00486084
0.0048384
0.00481834
0.00479809
0.00477662
0.00475454
0.00473235
0.00471017
0.00468798
0.00466584
0.00464379
0.00462185
0.00460001
0.00457825
0.00455659
0.00453499
0.00451345
0.00449194
0.00447047
0.00444901
0.00442754
0.00440606
0.00438455
0.00436298
0.00434134
0.00431961
0.00429775
0.00427574
0.00425353
0.00423107
0.00420833
0.00418525
0.00416176
0.00413776
0.00411292
0.00408675
0.00405892
0.00402929
0.00399791
0.00396502
0.00393084
0.00389575
0.00386022
0.00382466
0.00378927
0.00375412
0.00371931
0.0036848
0.00365063
0.00361672
0.00358303
0.00354953
0.00351613
0.00348286
0.00344963
0.00341645
0.00338334
0.00335019
0.00331721
0.00328418
0.00325134
0.00321868
0.00318633
0.00315439
0.00312294
0.00309212
0.003062
0.00303272
0.00300434
0.00297693
0.00295054
0.00292519
0.00290088
0.0028776
0.0028553
0.00283396
0.00281352
0.00279388
0.00277493
0.00275665
0.00273901
0.00272195
0.00270537
0.00268923
0.00267355
0.00265827
0.00264339
0.00262888
0.00261474
0.00260095
0.00258747
0.00257422
0.00256121
0.00254827
0.00253542
0.00252247
0.00250946
0.00249618
0.00248269
0.00246879
0.00245453
0.00243977
0.00242453
0.00240875
0.00239238
0.00237541
0.00235778
0.00233948
0.00232049
0.00230077
0.00228029
0.00225903
0.00223694
0.00221403
0.00219025
0.00216567
0.00214031
0.00211398
0.00208676
0.00205886
0.00203021
0.00200083
0.00197077
0.00194008
0.00190877
0.00187689
0.0018445
0.00181163
0.00177836
0.00174473
0.00171082
0.0016767
0.00164244
0.0016081
0.00157375
0.00153945
0.00150524
0.00147115
0.00143722
0.00140341
0.00136976
0.00133618
0.0013027
0.00126924
0.0012358
0.00120239
0.00116895
0.00113553
0.00110227
0.00106915
0.00103644
0.00100413
0.000972596
0.000941986
0.000912704
0.000885023
0.000859245
0.000835718
0.000814151
0.000794372
0.000774967
0.000755608
0.000736071
0.000716225
0.000695804
0.000675121
0.000654235
0.00063349
0.000613111
0.000592858
0.000572502
0.000552079
0.000531663
0.000511194
0.000490597
0.00046993
0.000449257
0.000428636
0.000408113
0.000387697
0.00036738
0.000347179
0.000327106
0.000307139
0.000287244
0.000267385
0.000247619
0.000227792
0.000207982
0.000188182
0.000168379
0.000148574
0.000128768
0.000108965
8.91636e-05
6.93642e-05
4.95504e-05
2.97791e-05
9.62392e-06
0.0048843
0.00486311
0.00484028
0.00481974
0.00479905
0.00477724
0.00475489
0.00473252
0.00471022
0.00468798
0.00466582
0.00464378
0.00462185
0.00460001
0.00457827
0.0045566
0.00453498
0.0045134
0.00449183
0.00447027
0.00444868
0.00442706
0.00440539
0.00438364
0.00436179
0.00433981
0.00431768
0.00429535
0.00427279
0.00424996
0.00422679
0.00420324
0.00417926
0.0041548
0.00412974
0.00410384
0.00407676
0.00404823
0.00401814
0.00398658
0.0039538
0.00392007
0.00388574
0.00385128
0.0038171
0.00378332
0.00374994
0.003717
0.00368437
0.00365205
0.00361992
0.00358793
0.00355604
0.00352416
0.00349231
0.00346043
0.00342852
0.00339661
0.00336459
0.00333265
0.00330058
0.00326863
0.00323674
0.00320503
0.00317359
0.00314248
0.00311184
0.00308173
0.00305227
0.00302354
0.00299559
0.00296853
0.00294234
0.00291708
0.00289273
0.00286929
0.00284677
0.0028251
0.00280422
0.00278407
0.00276457
0.00274581
0.00272762
0.00270993
0.00269275
0.00267607
0.00265981
0.00264397
0.00262851
0.00261343
0.00259871
0.0025843
0.00257013
0.00255618
0.00254233
0.00252855
0.00251471
0.00250081
0.00248669
0.00247234
0.00245763
0.00244256
0.00242703
0.00241103
0.00239452
0.00237746
0.00235984
0.00234162
0.00232276
0.00230324
0.002283
0.00226201
0.00224031
0.00221796
0.00219492
0.00217112
0.00214658
0.00212133
0.00209533
0.0020686
0.00204126
0.00201322
0.00198444
0.00195512
0.00192528
0.00189491
0.00186403
0.00183269
0.00180094
0.00176884
0.00173642
0.00170377
0.00167093
0.00163799
0.00160497
0.00157196
0.00153898
0.00150606
0.00147324
0.00144052
0.00140786
0.0013753
0.00134272
0.00131017
0.00127754
0.00124483
0.00121203
0.00117908
0.001146
0.00111292
0.00107973
0.00104675
0.00101384
0.000981432
0.000949571
0.000918721
0.000889163
0.000861345
0.000835518
0.000811979
0.000790204
0.000769196
0.000748662
0.000728298
0.000707918
0.000687402
0.000666891
0.000646491
0.000626344
0.000606437
0.000586585
0.000566645
0.000546596
0.000526443
0.000506168
0.000485767
0.000465291
0.000444808
0.000424382
0.000404065
0.000383881
0.000363836
0.00034393
0.000324155
0.000304486
0.000284889
0.000265326
0.000245805
0.000226234
0.000206656
0.000187059
0.000167436
0.000147789
0.000128126
0.000108452
8.87707e-05
6.90867e-05
4.93848e-05
2.97256e-05
9.6136e-06
0.00488813
0.00486677
0.00484319
0.00482176
0.00480034
0.00477799
0.00475522
0.00473256
0.00471009
0.00468777
0.00466559
0.00464359