/*--------------------------------*- C++ -*----------------------------------*\
| =========                 |                                                 |
| \\      /  F ield         | OpenFOAM: The Open Source CFD Toolbox           |
|  \\    /   O peration     | Version:  2506                                  |
|   \\  /    A nd           | Website:  www.openfoam.com                      |
|    \\/     M anipulation  |                                                 |
\*---------------------------------------------------------------------------*/
FoamFile
{
    version     2.0;
    format      ascii;
    arch        "LSB;label=32;scalar=64";
    class       volVectorField;
    location    "2.6";
    object      U;
}
// * * * * * * * * * * * * * * * * * * * * * * * * * * * * * * * * * * * * * //

dimensions      [0 1 -1 0 0 0 0];

internalField   nonuniform List<vector> 
4000
(
(0.0138095 0.00104503 0)
(0.0124427 0.00142874 -3.90354e-21)
(0.0103867 0.000974182 4.07732e-21)
(0.0084019 0.000524982 8.27562e-21)
(0.0071507 0.000266123 -1.69172e-20)
(0.00641746 0.000132842 8.5719e-21)
(0.0059555 6.90526e-05 0)
(0.00565461 4.02719e-05 0)
(0.00545805 2.79362e-05 0)
(0.00532585 2.31431e-05 1.71367e-20)
(0.00523152 2.18943e-05 -1.71705e-20)
(0.00515933 2.22691e-05 3.40768e-20)
(0.00510013 2.341e-05 -3.41156e-20)
(0.00504847 2.49259e-05 0)
(0.00500108 2.66093e-05 0)
(0.00495599 2.83815e-05 0)
(0.00491192 3.0204e-05 3.34512e-20)
(0.00486796 3.20803e-05 -3.34761e-20)
(0.0048233 3.40292e-05 0)
(0.00477719 3.60735e-05 0)
(0.00472886 3.82389e-05 0)
(0.00467745 4.05507e-05 0)
(0.00462202 4.30336e-05 0)
(0.00456151 4.5714e-05 6.51949e-20)
(0.00449471 4.8623e-05 -1.30248e-19)
(0.00442023 5.18022e-05 6.50612e-20)
(0.00433644 5.53128e-05 0)
(0.00424136 5.92535e-05 0)
(0.00413252 6.38024e-05 0)
(0.00400664 6.9273e-05 0)
(0.00385906 7.62914e-05 -6.41077e-20)
(0.00368282 8.64519e-05 6.42908e-20)
(0.0034742 9.97733e-05 0)
(0.00315732 0.0001267 5.6174e-20)
(0.00279126 0.000221173 6.43416e-20)
(0.00259636 0.000410233 -3.24571e-19)
(0.0025989 0.000658546 -2.60873e-19)
(0.00268323 0.000927576 6.57165e-20)
(0.00280823 0.00121202 -2.63463e-19)
(0.00298891 0.00152137 -5.93871e-19)
(0.00330807 0.00187308 6.61321e-20)
(0.00378675 0.0022332 5.2322e-19)
(0.00428024 0.00252963 -5.17867e-19)
(0.00472085 0.00275372 0)
(0.0051336 0.00292535 0)
(0.0055263 0.00305552 -3.10524e-20)
(0.00592587 0.00315303 -4.6107e-19)
(0.00631495 0.00320517 -4.56436e-19)
(0.00668405 0.00321093 -2.70528e-19)
(0.00705284 0.00317143 -2.35933e-19)
(0.00739149 0.0030755 2.31602e-19)
(0.00770968 0.00292497 0)
(0.00797533 0.00270337 -2.77967e-20)
(0.00818849 0.00242795 4.68992e-19)
(0.00832909 0.0020861 0)
(0.00837744 0.00169647 -1.06775e-19)
(0.00834222 0.0012656 -2.6106e-20)
(0.00817529 0.000814272 -3.30211e-23)
(0.00794663 0.000375471 -4.43825e-22)
(0.00758947 -6.05938e-05 -1.30085e-20)
(0.00715841 -0.000447635 2.4873e-20)
(0.00669362 -0.000783847 0)
(0.00618945 -0.00106041 0)
(0.00570318 -0.00127627 4.87152e-20)
(0.00521772 -0.00143652 3.40412e-19)
(0.0047805 -0.00154797 4.81196e-20)
(0.00437355 -0.00161936 -4.85123e-20)
(0.00401711 -0.00166032 4.74985e-20)
(0.00370471 -0.00167863 1.41751e-19)
(0.00343047 -0.00168001 -3.28797e-19)
(0.00320203 -0.00167211 -4.67184e-20)
(0.00299739 -0.00165482 6.31458e-22)
(0.00282349 -0.00163267 0)
(0.00267612 -0.00160684 0)
(0.00254342 -0.00157588 0)
(0.00243007 -0.00154179 -2.22986e-20)
(0.00233217 -0.00150593 -3.32241e-19)
(0.00224178 -0.00146717 0)
(0.00216072 -0.00142622 6.29927e-22)
(0.00208844 -0.00138388 2.15017e-20)
(0.00202156 -0.00133997 -3.41608e-19)
(0.00196029 -0.00129495 3.07066e-19)
(0.00190448 -0.00124927 4.50763e-23)
(0.00185353 -0.001203 3.36614e-19)
(0.00180918 -0.00115698 2.01545e-21)
(0.00176975 -0.00111116 -3.21837e-19)
(0.0017333 -0.00106451 -3.23301e-19)
(0.00170419 -0.00101801 3.24986e-19)
(0.00167991 -0.000971502 -4.9049e-21)
(0.00165645 -0.000923012 -3.09576e-19)
(0.00163979 -0.000873613 0)
(0.00162657 -0.000822947 -3.11153e-19)
(0.00161311 -0.000769083 -2.88538e-19)
(0.00160586 -0.000713297 2.93969e-19)
(0.00159739 -0.000654154 -1.63293e-19)
(0.00159426 -0.000591954 1.79073e-20)
(0.0015907 -0.000526649 1.41398e-19)
(0.00159127 -0.000457746 1.74077e-20)
(0.00159082 -0.000385675 1.20734e-19)
(0.00159563 -0.000309478 8.52502e-20)
(0.00160161 -0.000231802 -3.38014e-20)
(0.00160992 -0.000150486 8.3875e-20)
(0.00162405 -6.87206e-05 -8.35035e-21)
(0.00163752 1.39338e-05 -8.31941e-21)
(0.00165669 9.90492e-05 -3.3178e-20)
(0.00168009 0.000185097 0)
(0.00170794 0.000272936 0)
(0.00174399 0.000361608 -2.62435e-19)
(0.00178462 0.000451366 -8.36707e-21)
(0.00183362 0.000542753 1.38673e-19)
(0.00189054 0.000636034 1.34882e-19)
(0.00195545 0.000731991 4.22938e-21)
(0.00203004 0.00083156 -1.40479e-19)
(0.00211402 0.000934306 -2.88515e-22)
(0.00220753 0.00104166 0)
(0.00231597 0.00115423 2.7435e-19)
(0.0024306 0.00127064 -8.54794e-21)
(0.00255722 0.00139258 -2.56318e-19)
(0.00269534 0.00151889 -8.58912e-21)
(0.00284045 0.00164805 -2.72975e-19)
(0.00299631 0.00178011 -1.16078e-21)
(0.00316195 0.00191277 2.70242e-19)
(0.00333188 0.00204399 1.66704e-20)
(0.00350789 0.00217383 -2.99395e-19)
(0.00369123 0.00230028 1.65817e-20)
(0.00387801 0.00242095 2.60626e-19)
(0.00406884 0.00253449 3.18953e-20)
(0.00426291 0.00263882 -3.19969e-20)
(0.00445918 0.00273279 2.49853e-19)
(0.00466319 0.00281638 -2.13325e-19)
(0.00487263 0.00288458 -3.04624e-20)
(0.00507994 0.00293733 -4.41197e-19)
(0.00530141 0.00297702 -2.924e-20)
(0.00553353 0.00299519 -2.25469e-19)
(0.00576243 0.00299246 1.98535e-21)
(0.00601567 0.00297223 0)
(0.00627493 0.00291832 0)
(0.0065287 0.00283783 -9.05152e-22)
(0.00679565 0.00272058 0)
(0.00705035 0.00256447 -2.28773e-20)
(0.00729377 0.00236455 -6.62118e-20)
(0.00750793 0.00211659 -2.11008e-20)
(0.0076701 0.00182058 -4.08678e-20)
(0.00778007 0.00148204 -2.03044e-20)
(0.00778953 0.00110128 -5.65596e-20)
(0.00772949 0.00070362 1.85673e-20)
(0.00754465 0.000278373 0)
(0.00724355 -0.000114036 0)
(0.00687682 -0.000474776 0)
(0.00641675 -0.000783514 -1.55204e-20)
(0.00593442 -0.00103283 1.56047e-20)
(0.00540298 -0.0012229 5.99787e-20)
(0.00488408 -0.00134893 5.88907e-20)
(0.00437308 -0.00142154 0)
(0.00390184 -0.00144747 -5.71544e-20)
(0.00346048 -0.00143601 0)
(0.00306413 -0.00139471 -1.37489e-20)
(0.0027033 -0.00132875 6.93723e-20)
(0.00236588 -0.00123551 -1.37015e-20)
(0.00202392 -0.00106833 2.32381e-19)
(0.00197041 -0.000918922 -5.40554e-20)
(0.00213501 -0.000814709 -5.32206e-20)
(0.00229171 -0.000710354 0)
(0.00244049 -0.000590176 0)
(0.00262674 -0.000455661 0)
(0.00286245 -0.000314235 0)
(0.00319194 -0.000186156 0)
(0.00354963 -0.000110997 1.10817e-20)
(0.0038006 -7.93973e-05 -3.56462e-22)
(0.00395875 -6.55834e-05 -3.59589e-22)
(0.00407846 -5.85158e-05 -1.03237e-20)
(0.00418286 -5.46461e-05 0)
(0.00428043 -5.24453e-05 9.19102e-21)
(0.00437478 -5.09759e-05 -9.1621e-21)
(0.00446656 -4.9597e-05 2.68458e-22)
(0.00455427 -4.79256e-05 0)
(0.00463542 -4.57995e-05 0)
(0.0047073 -4.31628e-05 -7.33186e-21)
(0.00476752 -4.00028e-05 7.31338e-21)
(0.00481508 -3.64557e-05 0)
(0.00484953 -3.28811e-05 0)
(0.00487097 -2.9255e-05 -2.75725e-21)
(0.00488049 -2.55456e-05 1.71864e-22)
(0.00488 -2.18461e-05 2.76528e-21)
(0.00487108 -1.90207e-05 0)
(0.00485567 -1.69744e-05 0)
(0.00483608 -1.51596e-05 0)
(0.00481416 -1.36453e-05 0)
(0.00479175 -1.21896e-05 1.13656e-22)
(0.00477055 -1.08705e-05 0)
(0.00475175 -9.88144e-06 0)
(0.00473613 -9.21246e-06 0)
(0.00472409 -8.94246e-06 5.4349e-22)
(0.00471585 -8.60704e-06 -5.42638e-22)
(0.00471144 -8.08348e-06 0)
(0.00471051 -7.36322e-06 4.31541e-23)
(0.0047124 -6.40213e-06 1.14777e-22)
(0.00471607 -5.12893e-06 -7.64519e-23)
(0.00471912 -3.0009e-06 -3.80546e-23)
(0.00472137 2.58318e-06 0)
(0.0164265 0.00177133 0)
(0.017381 0.00312584 0)
(0.017195 0.00279187 0)
(0.0162828 0.00220637 7.69141e-21)
(0.0151756 0.00157964 -1.5702e-20)
(0.0141786 0.00106551 8.00241e-21)
(0.0133896 0.000697565 0)
(0.0127802 0.000456143 1.62732e-20)
(0.0123202 0.000304844 -1.64429e-20)
(0.0119762 0.000212009 1.64142e-20)
(0.0117152 0.00015594 -1.65072e-20)
(0.0115106 0.000122294 -3.28517e-20)
(0.0113433 0.000102181 3.2962e-20)
(0.0112005 9.01953e-05 3.27501e-20)
(0.0110737 8.30748e-05 -1.50696e-22)
(0.0109573 7.89949e-05 -6.53407e-20)
(0.0108476 7.70034e-05 3.26584e-20)
(0.010742 7.665e-05 0)
(0.0106383 7.77535e-05 0)
(0.0105345 8.02956e-05 0)
(0.0104288 8.43569e-05 0)
(0.0103193 9.00726e-05 0)
(0.0102038 9.76192e-05 0)
(0.0100803 0.000107217 0)
(0.00994608 0.000119144 0)
(0.00979853 0.00013376 0)
(0.00963446 0.000151551 0)
(0.00945016 0.000173208 0)
(0.00924118 0.000199756 0)
(0.00900198 0.000232817 0)
(0.00872551 0.000275127 -6.32907e-20)
(0.00840155 0.000331756 2.17348e-22)
(0.00802633 0.000411894 1.27199e-19)
(0.00753064 0.000527057 -5.58847e-20)
(0.00697633 0.000741895 -6.41625e-20)
(0.00661501 0.0011201 1.95225e-19)
(0.00652902 0.0016443 -2.63026e-19)
(0.00662127 0.00225953 -6.61013e-20)
(0.00683787 0.00293066 6.66111e-19)
(0.00719495 0.00364093 2.01392e-19)
(0.00777953 0.00438116 0)
(0.00858745 0.00509177 6.54936e-20)
(0.00945944 0.00569974 3.8869e-19)
(0.0103129 0.00619116 6.44041e-20)
(0.0111527 0.00657967 5.03836e-19)
(0.0119828 0.00687714 -4.96023e-19)
(0.0128242 0.00709173 2.39276e-21)
(0.0136508 0.00720881 0)
(0.014458 0.0072225 -2.36649e-19)
(0.0152532 0.00713113 0)
(0.0160036 0.00691991 -7.24275e-22)
(0.0167097 0.00658854 0)
(0.0173313 0.00611666 -2.19501e-19)
(0.0178634 0.00552639 -2.15909e-19)
(0.018266 0.00480368 0)
(0.0185153 0.00398229 -1.54469e-22)
(0.0186072 0.00307584 1.02629e-19)
(0.0184877 0.00210883 2.49314e-20)
(0.0182121 0.00113766 4.96976e-20)
(0.0177041 0.000163643 -1.25254e-20)
(0.0170299 -0.000746742 0)
(0.0162232 -0.001573 9.83592e-20)
(0.0153047 -0.00229271 -4.94824e-20)
(0.0143498 -0.00289263 -9.78945e-20)
(0.0133563 -0.0033738 -2.93737e-19)
(0.0124022 -0.00374164 -4.92091e-20)
(0.0114769 -0.00400768 2.44546e-19)
(0.0106246 -0.00418942 -4.92082e-20)
(0.00984227 -0.00430082 0)
(0.00913283 -0.00435697 4.87846e-20)
(0.00850736 -0.00437275 -4.89122e-20)
(0.00794077 -0.00435369 1.34239e-21)
(0.00743912 -0.00431136 0)
(0.00699648 -0.0042495 -3.85173e-19)
(0.00659692 -0.00416994 -3.82572e-19)
(0.00624011 -0.00407698 2.36409e-20)
(0.0059205 -0.00397263 -2.35544e-20)
(0.00562734 -0.00385767 2.32404e-20)
(0.00535908 -0.00373446 -3.68635e-19)
(0.0051139 -0.00360464 3.43209e-19)
(0.00488715 -0.00346933 -3.62322e-19)
(0.00467752 -0.00333049 -3.68409e-19)
(0.00448414 -0.00318973 2.21199e-20)
(0.00430586 -0.00304826 -3.61275e-19)
(0.00414432 -0.00290767 3.42345e-19)
(0.00399802 -0.00276837 -3.3913e-19)
(0.00386412 -0.00262993 3.37442e-19)
(0.00374656 -0.00249298 -3.31976e-19)
(0.00364302 -0.0023567 -1.02297e-20)
(0.00354852 -0.00221954 1.01257e-20)
(0.00346788 -0.00208143 0)
(0.00339774 -0.00194169 0)
(0.00333363 -0.00179892 1.54803e-19)
(0.00328082 -0.00165318 -1.71095e-19)
(0.00323231 -0.00150359 1.49978e-19)
(0.00319385 -0.00135025 3.69297e-20)
(0.00316012 -0.00119322 1.40298e-22)
(0.00313546 -0.0010325 -5.60541e-23)
(0.00311589 -0.000867855 -3.19006e-19)
(0.00310662 -0.000697785 -5.24482e-20)
(0.00310487 -0.000525765 6.93405e-20)
(0.00311263 -0.00034983 -6.87105e-20)
(0.00313173 -0.000171746 0)
(0.00316165 8.75129e-06 -8.48291e-21)
(0.00320737 0.000193178 8.48968e-21)
(0.00326761 0.000380787 0)
(0.00334328 0.000573228 0)
(0.00343801 0.000770236 1.36115e-19)
(0.00354998 0.000973467 -1.36323e-19)
(0.00368258 0.0011841 1.41068e-19)
(0.00383608 0.00140396 -2.74978e-19)
(0.00401103 0.00163635 -2.09052e-23)
(0.00420891 0.00187852 -4.33556e-21)
(0.00442879 0.00213233 -1.38966e-19)
(0.00467111 0.00240185 0)
(0.00493949 0.00268766 0)
(0.00522598 0.00298772 0)
(0.00553482 0.00330176 2.86862e-19)
(0.0058642 0.00362793 2.66967e-19)
(0.00620889 0.00396367 0)
(0.00657132 0.00430643 -3.09155e-19)
(0.00694995 0.0046521 5.11065e-20)
(0.00733955 0.00499667 -3.37422e-20)
(0.00774108 0.00533687 1.68322e-20)
(0.0081548 0.00566761 -3.28473e-20)
(0.00857737 0.00598386 2.60887e-19)
(0.00900918 0.00628101 -2.24332e-19)
(0.0094499 0.00655417 2.84608e-19)
(0.00989996 0.00679938 -6.32132e-22)
(0.0103647 0.00701322 2.16893e-19)
(0.0108421 0.00718838 0)
(0.0113276 0.00732338 2.38185e-19)
(0.0118365 0.00741531 -2.84401e-20)
(0.0123645 0.00745342 -1.94894e-19)
(0.0129027 0.00743796 2.2075e-19)
(0.0134726 0.00736671 -2.60923e-20)
(0.0140513 0.00721971 2.61314e-20)
(0.0146319 0.00700247 -2.5844e-20)
(0.0152179 0.00669826 2.43802e-20)
(0.0157855 0.006305 -2.2558e-20)
(0.0163218 0.00581491 1.11685e-19)
(0.0167997 0.00522428 -1.05384e-19)
(0.017186 0.00453463 1.0265e-19)
(0.0174671 0.00375857 0)
(0.0175809 0.00290097 1.91343e-20)
(0.01755 0.00200662 -1.76421e-20)
(0.0173072 0.00107189 -8.63953e-21)
(0.0168701 0.000170841 0)
(0.0162645 -0.000676059 -1.61803e-20)
(0.0154753 -0.0014354 3.14834e-20)
(0.0145853 -0.00208122 0)
(0.0135706 -0.00260681 -6.04479e-20)
(0.0125264 -0.00299949 -1.46945e-20)
(0.0114492 -0.00326757 1.48404e-20)
(0.0104081 -0.00342138 0)
(0.00939398 -0.0034744 5.8323e-20)
(0.00844761 -0.00344288 -5.77793e-20)
(0.00756069 -0.00333319 5.79795e-20)
(0.00675049 -0.00316026 0)
(0.00596101 -0.0028785 -1.14706e-19)
(0.00561136 -0.00259016 -7.11567e-20)
(0.00565803 -0.00230358 1.25227e-19)
(0.00583305 -0.00199156 -1.3461e-20)
(0.00605258 -0.00165459 1.32599e-20)
(0.00634987 -0.00130289 1.26388e-20)
(0.00673195 -0.000954647 1.20604e-20)
(0.00723528 -0.000643895 -1.0548e-20)
(0.00777357 -0.000420107 -7.14031e-22)
(0.00821373 -0.000282262 0)
(0.00855147 -0.000205525 6.59945e-22)
(0.00883534 -0.000167398 0)
(0.00909497 -0.000150387 -6.07044e-22)
(0.00934246 -0.000143038 -9.14672e-21)
(0.00958186 -0.000138411 9.64638e-21)
(0.00981246 -0.000132327 -7.98096e-22)
(0.0100302 -0.000122558 7.96043e-21)
(0.0102293 -0.000108384 -1.50155e-20)
(0.0104043 -8.99284e-05 1.47504e-20)
(0.0105504 -6.82183e-05 -7.61324e-21)
(0.0106649 -4.66665e-05 0)
(0.0107469 -2.3731e-05 3.45223e-21)
(0.0107974 -1.90472e-06 -3.23782e-21)
(0.0108188 1.74413e-05 -3.486e-22)
(0.0108149 3.35826e-05 -2.53732e-21)
(0.01079 4.58061e-05 2.22768e-21)
(0.0107498 5.45479e-05 2.19791e-21)
(0.0106995 5.95992e-05 -2.45823e-21)
(0.0106438 6.12196e-05 2.1077e-21)
(0.0105868 6.01001e-05 -3.67507e-21)
(0.010532 5.67471e-05 2.26648e-21)
(0.0104821 5.15459e-05 -7.68575e-22)
(0.0104392 4.50741e-05 -1.62059e-22)
(0.0104043 3.79053e-05 0)
(0.0103782 3.06536e-05 3.30856e-22)
(0.0103601 2.39819e-05 -4.52746e-22)
(0.010349 1.83963e-05 2.34213e-23)
(0.0103434 1.4328e-05 -1.49708e-22)
(0.0103416 1.22566e-05 0)
(0.0103404 1.29548e-05 0)
(0.0103398 2.05109e-05 -9.8695e-24)
(0.0163812 0.00104171 0)
(0.0172152 0.00223399 -3.81498e-21)
(0.018047 0.00257941 3.76695e-21)
(0.0182764 0.00247123 7.42385e-21)
(0.0180764 0.002147 -7.47494e-21)
(0.0177102 0.00174228 0)
(0.0172421 0.00134837 0)
(0.0167458 0.001017 0)
(0.0162953 0.000758354 -1.52645e-20)
(0.0159095 0.000568902 3.07321e-20)
(0.0155866 0.000437178 1.52977e-20)
(0.0153168 0.000348752 -3.09176e-20)
(0.0150886 0.000290905 -3.07766e-20)
(0.0148912 0.000253433 3.08954e-20)
(0.014716 0.000229121 0)
(0.0145566 0.000213482 -3.06589e-20)
(0.0144082 0.000203862 6.13351e-20)
(0.0142671 0.000198819 -3.06698e-20)
(0.0141305 0.000197613 0)
(0.0139957 0.000199976 0)
(0.0138604 0.00020593 0)
(0.0137221 0.00021566 0)
(0.0135784 0.000229464 0)
(0.0134264 0.000247744 -6.01939e-20)
(0.0132633 0.00027102 6.03278e-20)
(0.0130857 0.000299967 0)
(0.0128901 0.000335482 0)
(0.0126723 0.000378796 0)
(0.0124274 0.000431664 0)
(0.0121497 0.000496679 0)
(0.0118327 0.000577842 -5.96892e-20)
(0.0114674 0.00068157 5.99347e-20)
(0.0110523 0.000819339 0)
(0.0105424 0.00100142 3.74344e-21)
(0.00998339 0.00127944 0)
(0.00957859 0.00171863 -1.22815e-19)
(0.00943548 0.00231706 2.49535e-19)
(0.00951762 0.00303245 0)
(0.00979119 0.00382551 -5.01734e-19)
(0.0102629 0.00466221 8.34404e-22)
(0.0109834 0.00550768 -6.17179e-20)
(0.0119214 0.00629753 6.14703e-20)
(0.0129455 0.00698311 -4.83737e-19)
(0.0139828 0.00755757 0)
(0.0150231 0.00802885 -5.27037e-19)
(0.0160627 0.00839278 4.90418e-19)
(0.0171084 0.00865474 4.81373e-19)
(0.0181365 0.00880737 0)
(0.0191452 0.00882965 2.17851e-19)
(0.0201345 0.00872311 0)
(0.0210749 0.0084774 -4.2084e-19)
(0.02196 0.00808973 0)
(0.0227584 0.00755273 1.78033e-19)
(0.0234601 0.00686604 2.25266e-19)
(0.0240306 0.00603242 1.97411e-19)
(0.0244477 0.00508024 9.68329e-20)
(0.0246927 0.00402807 9.54354e-20)
(0.0247234 0.00289025 4.66558e-20)
(0.024571 0.00171759 -2.32591e-20)
(0.0241734 0.000522399 -3.42483e-20)
(0.0235739 -0.000632725 0)
(0.0227873 -0.0017188 -8.93755e-20)
(0.0218347 -0.00270715 8.90526e-20)
(0.0207801 -0.0035725 0)
(0.0196319 -0.00430655 3.57031e-19)
(0.0184688 -0.00490235 0)
(0.0172946 -0.00536631 4.46531e-20)
(0.0161641 -0.0057097 -4.51175e-20)
(0.0150865 -0.00594607 0)
(0.0140767 -0.00609149 4.50113e-20)
(0.0131526 -0.00616261 -4.53105e-20)
(0.0122982 -0.00617038 -4.96634e-19)
(0.0115222 -0.00612906 3.16392e-19)
(0.0108191 -0.00604698 -1.2211e-21)
(0.0101761 -0.00593071 3.58301e-19)
(0.00959104 -0.00578728 2.22836e-20)
(0.00905778 -0.00562054 -3.7833e-19)
(0.00856611 -0.00543382 0)
(0.00811217 -0.00523144 -3.51512e-19)
(0.00769253 -0.00501689 -6.75063e-19)
(0.00730196 -0.00479329 6.58819e-19)
(0.00693802 -0.00456432 3.53933e-19)
(0.00659904 -0.0043332 -3.50716e-19)
(0.00628343 -0.00410264 3.46539e-19)
(0.00599213 -0.00387509 0)
(0.00572417 -0.00365184 3.29288e-19)
(0.00547727 -0.00343337 3.34388e-21)
(0.0052539 -0.00322 6.53195e-19)
(0.00505233 -0.00301093 2.99087e-19)
(0.00486883 -0.0028051 3.24957e-19)
(0.00470516 -0.00260158 0)
(0.00455845 -0.00239968 0)
(0.00442538 -0.00219866 -1.51139e-19)
(0.00430849 -0.00199817 0)
(0.00420251 -0.00179803 -1.83637e-20)
(0.00411143 -0.00159852 1.81633e-20)
(0.00403166 -0.00139979 -1.43113e-19)
(0.00396705 -0.00120238 1.41337e-19)
(0.00391508 -0.00100601 1.22146e-19)
(0.00388062 -0.000811259 1.72718e-20)
(0.00386416 -0.000617419 -6.83009e-20)
(0.00386743 -0.000424087 3.38423e-20)
(0.00389324 -0.000229899 -2.51916e-20)
(0.00394166 -3.3367e-05 8.37149e-21)
(0.00401681 0.00016685 0)
(0.00411889 0.000372469 6.64323e-20)
(0.00424937 0.000586201 0)
(0.00441052 0.000809994 1.32721e-19)
(0.00460138 0.00104673 2.50218e-22)
(0.00482357 0.00129867 -1.29036e-19)
(0.00507692 0.00156829 1.33299e-19)
(0.00536134 0.00185776 -4.17311e-21)
(0.00567732 0.00216853 0)
(0.00602247 0.00250146 1.32791e-19)
(0.0063964 0.00285781 -1.32563e-19)
(0.00680007 0.00323672 0)
(0.00722782 0.00363789 8.21422e-21)
(0.00768093 0.00405958 -2.70157e-19)
(0.00815701 0.00449865 -2.45685e-19)
(0.00865165 0.004952 2.42141e-19)
(0.00916525 0.00541548 -2.56292e-19)
(0.00969568 0.00588369 -1.58331e-20)
(0.0102389 0.00635115 2.35789e-19)
(0.0107951 0.00681209 3.13988e-20)
(0.011364 0.00725944 2.75737e-19)
(0.0119434 0.0076866 -5.46796e-19)
(0.0125335 0.00808688 2.70886e-19)
(0.0131346 0.00845353 -2.07702e-19)
(0.0137476 0.00878052 1.72171e-19)
(0.0143763 0.00906191 2.82177e-19)
(0.0150199 0.00928944 1.65271e-19)
(0.015675 0.00946077 2.74639e-20)
(0.0163526 0.00956766 1.84356e-19)
(0.01705 0.00960078 2.33611e-19)
(0.0177605 0.00956063 -2.46461e-20)
(0.0184952 0.00943907 2.46435e-20)
(0.0192346 0.00922035 7.04405e-20)
(0.0199726 0.00890781 2.22069e-20)
(0.0207035 0.00848713 -2.14701e-20)
(0.0214073 0.00795659 2.14655e-20)
(0.0220662 0.00731193 -8.09352e-20)
(0.0226534 0.00655265 1.92826e-20)
(0.0231382 0.00568409 -7.68599e-22)
(0.0235026 0.00472034 -1.83986e-20)
(0.0236962 0.00367223 -6.94243e-20)
(0.0237277 0.00258147 0)
(0.023539 0.00145775 3.16381e-20)
(0.0231398 0.00035279 -1.95715e-20)
(0.02254 -0.000704814 1.48127e-20)
(0.0217263 -0.00168099 -4.29851e-20)
(0.0207618 -0.00254167 -1.41235e-20)
(0.0196265 -0.00327233 5.50126e-20)
(0.018406 -0.00385208 6.85068e-20)
(0.0170991 -0.0042812 -2.70264e-20)
(0.0157806 -0.00456304 6.75844e-20)
(0.0144508 -0.00470774 -5.32948e-20)
(0.0131639 -0.00473096 -1.33044e-20)
(0.0119228 -0.00463403 -5.32299e-20)
(0.0107768 -0.00444407 1.34822e-20)
(0.00967101 -0.00413097 -5.38008e-20)
(0.00900129 -0.00376872 5.37707e-20)
(0.00876248 -0.00336346 -3.95793e-20)
(0.00875268 -0.00291278 -1.29256e-20)
(0.00886688 -0.00243258 -2.49621e-20)
(0.00910859 -0.00194997 0)
(0.00946556 -0.00149243 -2.31872e-20)
(0.00995187 -0.00109898 2.099e-20)
(0.0104864 -0.000805296 3.46542e-22)
(0.0109653 -0.000609673 -3.40215e-22)
(0.0113759 -0.000491579 -9.66417e-22)
(0.0117462 -0.000427845 -9.74833e-21)
(0.0120957 -0.000396694 5.74616e-22)
(0.0124323 -0.000380793 0)
(0.012758 -0.000367975 -5.25122e-22)
(0.0130708 -0.000350465 5.01284e-22)
(0.0133652 -0.000324061 8.42476e-21)
(0.0136344 -0.000287469 -7.88493e-21)
(0.0138713 -0.000241571 -6.76042e-21)
(0.0140703 -0.000188836 7.14234e-21)
(0.0142275 -0.000132688 0)
(0.014341 -7.62943e-05 -3.69469e-22)
(0.0144121 -2.2874e-05 0)
(0.0144438 2.49355e-05 -2.21638e-21)
(0.0144407 6.52453e-05 1.56797e-22)
(0.0144091 9.71499e-05 2.6699e-21)
(0.0143554 0.000120513 5.34963e-22)
(0.0142862 0.000135036 2.48598e-22)
(0.0142082 0.000141316 -2.2907e-22)
(0.0141273 0.000140377 0)
(0.0140484 0.00013354 1.90664e-22)
(0.0139755 0.000122311 6.49043e-22)
(0.0139114 0.000108224 -4.9535e-22)
(0.0138577 9.28977e-05 -5.00717e-22)
(0.0138148 7.74623e-05 6.15802e-22)
(0.0137823 6.31192e-05 0)
(0.013759 5.09968e-05 9.71795e-23)
(0.013743 4.20076e-05 1.41056e-22)
(0.0137322 3.69166e-05 3.50981e-23)
(0.0137237 3.63285e-05 -3.50223e-23)
(0.0137153 4.47677e-05 9.29096e-24)
(0.0162717 0.000569112 0)
(0.0168387 0.00146765 0)
(0.0176468 0.00195014 0)
(0.0181897 0.00211572 7.4621e-21)
(0.018485 0.00205911 -7.4372e-21)
(0.018612 0.00187239 0)
(0.018555 0.00161491 0)
(0.0184093 0.00134457 0)
(0.0181934 0.00109481 0)
(0.0179457 0.000886337 0)
(0.0177012 0.000720973 0)
(0.0174737 0.000595959 -2.96818e-20)
(0.0172665 0.000506458 2.98184e-20)
(0.0170779 0.000443958 -2.96587e-20)
(0.0169053 0.000400687 5.93806e-20)
(0.0167455 0.000371163 -2.97095e-20)
(0.0165951 0.000351685 -2.95151e-20)
(0.0164513 0.000340061 2.95867e-20)
(0.0163114 0.000334991 0)
(0.0161731 0.000335926 0)
(0.0160342 0.000342804 5.84759e-20)
(0.0158923 0.000355847 -5.85915e-20)
(0.0157449 0.000375473 0)
(0.0155895 0.000402261 -5.80375e-20)
(0.0154231 0.000436965 5.81525e-20)
(0.0152426 0.00048055 0)
(0.0150444 0.000534272 0)
(0.0148247 0.000599796 5.75405e-20)
(0.0145791 0.000679397 -2.32721e-22)
(0.0143026 0.000776254 -5.75986e-20)
(0.01399 0.000894952 -5.73152e-20)
(0.0136346 0.00104213 1.14759e-19)
(0.0132369 0.00122873 -5.74444e-20)
(0.0127679 0.00146281 5.35701e-20)
(0.0122626 0.00178062 -5.77196e-20)
(0.0118801 0.00223504 -5.85475e-20)
(0.0117279 0.00283159 5.9869e-20)
(0.0118079 0.00354181 1.79832e-19)
(0.0121069 0.00433058 2.999e-19)
(0.0126262 0.00515803 6.01101e-20)
(0.0133888 0.00597993 -5.90416e-20)
(0.0143479 0.00674345 -5.21176e-19)
(0.0153961 0.00741776 5.14384e-19)
(0.0164723 0.00799651 5.06251e-19)
(0.0175606 0.00847791 -1.11085e-19)
(0.0186538 0.00885763 8.21872e-20)
(0.0197492 0.00912839 -2.4188e-19)
(0.0208307 0.00929929 0)
(0.021891 0.00928813 -2.34152e-19)
(0.022927 0.0091926 2.57789e-20)
(0.0239178 0.00894681 2.0146e-19)
(0.0248544 0.00854819 2.45723e-20)
(0.025714 0.00799669 -2.44282e-19)
(0.0264855 0.00730192 -1.67863e-19)
(0.0271402 0.00646524 -1.89635e-19)
(0.0276605 0.00550174 -9.39955e-20)
(0.0280279 0.00443283 -2.22871e-20)
(0.0282086 0.0032731 2.27066e-20)
(0.0282153 0.00206271 2.2102e-20)
(0.0280029 0.000816305 3.25779e-20)
(0.0275921 -0.000415464 2.15739e-20)
(0.0269837 -0.00160369 0)
(0.0261881 -0.00272029 8.48906e-20)
(0.0252489 -0.00373576 0)
(0.0241748 -0.00463465 -2.93867e-19)
(0.0230296 -0.00539923 -1.68812e-19)
(0.0218238 -0.00602853 -4.21421e-20)
(0.0206113 -0.00652357 0)
(0.0194104 -0.00689257 0)
(0.018245 -0.00714703 -1.69627e-19)
(0.01714 -0.00730088 0)
(0.0160912 -0.00736635 3.82055e-19)
(0.0151131 -0.00735813 -3.82084e-19)
(0.0142054 -0.00728678 3.60692e-19)
(0.0133613 -0.00716171 -1.03232e-22)
(0.0125805 -0.00699273 -1.00801e-22)
(0.0118584 -0.00678676 2.9542e-19)
(0.0111872 -0.00654991 4.21258e-20)
(0.0105628 -0.00628868 3.13982e-19)
(0.00998165 -0.00600881 3.33294e-19)
(0.00943832 -0.00571568 9.7426e-22)
(0.00892982 -0.00541495 -3.18984e-19)
(0.00845396 -0.00511168 3.16751e-19)
(0.0080088 -0.00481031 0)
(0.00759478 -0.0045146 5.02812e-21)
(0.00721124 -0.00422682 3.15182e-19)
(0.00685649 -0.00394831 -6.31452e-19)
(0.00653279 -0.00367978 -9.43945e-19)
(0.00623913 -0.00342018 -3.20157e-19)
(0.00597254 -0.00316849 1.02529e-20)
(0.0057342 -0.00292377 0)
(0.00552201 -0.00268421 9.3729e-21)
(0.00533226 -0.00244893 -9.29368e-21)
(0.00516657 -0.00221785 0)
(0.00502028 -0.00199007 1.44789e-19)
(0.00489597 -0.00176639 -1.78189e-20)
(0.00479053 -0.00154649 1.76604e-20)
(0.004707 -0.00133121 1.20511e-22)
(0.00464334 -0.00112024 1.37732e-19)
(0.00460449 -0.000913715 -1.69832e-20)
(0.00459036 -0.000710624 3.36837e-20)
(0.00460343 -0.000510378 -1.67052e-20)
(0.00464662 -0.000310845 3.99424e-24)
(0.00472014 -0.000109624 -8.20204e-21)
(0.00482848 9.55842e-05 8.18974e-21)
(0.00497138 0.000308505 -6.51777e-20)
(0.00515073 0.000531974 -6.89659e-20)
(0.00536766 0.000769608 -1.25701e-19)
(0.00562118 0.00102463 2.58895e-19)
(0.00591192 0.00129999 -1.25071e-19)
(0.00623907 0.00159848 -4.04329e-21)
(0.0066013 0.00192239 -4.01318e-21)
(0.00699834 0.00227305 4.02681e-21)
(0.00742672 0.00265155 -1.28296e-19)
(0.00788578 0.00305814 8.52087e-21)
(0.0083742 0.00349207 -6.08574e-23)
(0.00888699 0.00395225 1.10076e-19)
(0.00942402 0.00443594 3.84371e-19)
(0.00998253 0.00493953 -2.48041e-19)
(0.0105588 0.00545896 -2.47679e-19)
(0.0111524 0.0059889 2.60641e-19)
(0.0117615 0.00652312 2.25787e-19)
(0.012383 0.00705514 -2.25522e-19)
(0.0130169 0.00757783 -2.64833e-19)
(0.0136632 0.00808321 -2.1973e-19)
(0.0143206 0.00856368 3.08556e-20)
(0.0149898 0.0090114 -2.8543e-20)
(0.0156712 0.00941857 0)
(0.0163661 0.00977784 -2.46687e-19)
(0.0170771 0.0100819 -2.14739e-19)
(0.0178043 0.0103221 -1.84273e-19)
(0.0185429 0.0104986 0)
(0.0193018 0.0105957 -2.25405e-19)
(0.0200807 0.0106045 2.46393e-20)
(0.0208714 0.0105275 -7.07618e-20)
(0.0216749 0.0103543 -2.32523e-20)
(0.0224788 0.010086 -6.88538e-22)
(0.0232762 0.00970512 -1.07232e-19)
(0.0240573 0.00921027 2.10934e-20)
(0.0248044 0.00860131 -9.95768e-20)
(0.0255001 0.00787761 1.74053e-19)
(0.0261213 0.00704184 1.48916e-19)
(0.0266435 0.00610193 7.19719e-20)
(0.0270485 0.00507227 0)
(0.0273006 0.00396538 -1.67318e-20)
(0.0273986 0.00281546 2.12794e-22)
(0.0273005 0.00163486 7.47704e-21)
(0.0270073 0.000465933 -2.60307e-20)
(0.02652 -0.000661536 1.45797e-20)
(0.0258232 -0.00171893 -2.79685e-20)
(0.0249573 -0.00267296 2.68044e-20)
(0.0239036 -0.00350712 0)
(0.0227248 -0.00419578 -6.42589e-20)
(0.0214177 -0.00473383 2.55282e-20)
(0.0200463 -0.00511545 -5.05726e-20)
(0.0186141 -0.00534608 -1.26772e-20)
(0.0171799 -0.00543644 6.29118e-20)
(0.0157517 -0.00537974 -1.26332e-20)
(0.0144027 -0.00520765 0)
(0.0130925 -0.00490554 6.30055e-20)
(0.0121702 -0.00451709 -1.0934e-22)
(0.0116523 -0.00405538 -1.48029e-22)
(0.0114063 -0.00353226 -1.75305e-22)
(0.0113443 -0.00297537 2.37e-20)
(0.0114602 -0.00242572 -2.33399e-22)
(0.011727 -0.0019195 -1.48164e-22)
(0.0121414 -0.00149567 -1.05312e-20)
(0.012623 -0.00117561 9.17414e-21)
(0.0130833 -0.000954349 9.76564e-21)
(0.0135055 -0.000815212 8.63706e-22)
(0.0139042 -0.000736546 -9.314e-21)
(0.014289 -0.000695215 1.09209e-21)
(0.0146622 -0.000670736 8.22257e-21)
(0.0150228 -0.000647525 -8.16162e-21)
(0.0153672 -0.000615147 -9.52747e-22)
(0.0156898 -0.00056785 -9.13549e-22)
(0.0159834 -0.000503921 0)
(0.0162411 -0.000424875 6.4639e-21)
(0.0164571 -0.000334574 -6.43844e-21)
(0.0166274 -0.000238323 0)
(0.0167502 -0.000141449 -7.04778e-22)
(0.0168266 -4.91051e-05 0)
(0.0168595 3.43007e-05 6.27571e-22)
(0.0168538 0.000105502 2.2884e-21)
(0.0168159 0.000162461 -2.28673e-21)
(0.0167528 0.00020393 -5.15603e-22)
(0.0166718 0.000230258 4.757e-22)
(0.0165802 0.000242507 0)
(0.0164847 0.000242347 -1.53705e-21)
(0.0163909 0.000231971 1.53594e-21)
(0.0163032 0.000213876 3.29034e-22)
(0.016225 0.000190641 5.52388e-22)
(0.0161582 0.000164753 -5.5186e-22)
(0.0161035 0.000138688 4.11057e-22)
(0.0160605 0.000114573 -4.10211e-22)
(0.016028 9.41869e-05 -1.53291e-22)
(0.0160039 7.88921e-05 -1.01629e-22)
(0.015986 6.96578e-05 6.76442e-23)
(0.0159719 6.68156e-05 8.40883e-23)
(0.0159566 7.47826e-05 0)
(0.0162333 0.000360384 0)
(0.0166253 0.00100455 0)
(0.0172255 0.00143588 0)
(0.0177452 0.00166206 7.56759e-21)
(0.0181626 0.00172849 -7.51372e-21)
(0.0184767 0.00167901 0)
(0.0186798 0.00155246 1.47284e-20)
(0.0187974 0.00138267 -1.47457e-20)
(0.0187964 0.00120366 -1.46394e-20)
(0.0187539 0.00103631 2.93038e-20)
(0.0186726 0.000888075 -1.46681e-20)
(0.0185637 0.000764955 0)
(0.0184462 0.000669846 0)
(0.0183263 0.000598432 2.90678e-20)
(0.0182075 0.000546026 -1.34947e-22)
(0.0180913 0.00050874 -5.80169e-20)
(0.0179772 0.00048335 2.90023e-20)
(0.0178643 0.000467788 0)
(0.0177513 0.000460716 0)
(0.0176367 0.000461564 2.86283e-20)
(0.017519 0.000470278 -2.86743e-20)
(0.0173966 0.000487171 0)
(0.0172674 0.000512812 0)
(0.0171293 0.000547974 -5.65781e-20)
(0.0169799 0.000593637 1.13072e-19)
(0.0168165 0.000651026 -5.64945e-20)
(0.0166362 0.000721678 -5.6092e-20)
(0.0164357 0.000807563 2.36581e-22)
(0.0162113 0.000911241 1.11831e-19)
(0.0159591 0.00103611 -5.58916e-20)
(0.0156753 0.00118677 -5.55391e-20)
(0.0153553 0.00136933 2.13977e-22)
(0.0150009 0.00159312 5.54978e-20)
(0.0145918 0.00186433 5.50838e-20)
(0.0141574 0.00220822 -5.55713e-20)
(0.0138271 0.00266426 0)
(0.0136987 0.0032386 -2.3018e-19)
(0.01379 0.00391031 -4.63099e-19)
(0.0140995 0.00464944 0)
(0.0146257 0.00541829 2.28853e-19)
(0.0153761 0.00617457 -5.61164e-20)
(0.0162986 0.00687707 5.0179e-19)
(0.0173043 0.00750357 -4.39923e-19)
(0.0183414 0.00804638 -4.34065e-19)
(0.0193918 0.00850002 -2.66643e-19)
(0.0204472 0.00885644 5.3054e-20)
(0.0215016 0.00910629 2.08178e-19)
(0.0225465 0.0092575 -1.79452e-19)
(0.0235702 0.00925002 -2.5424e-20)
(0.0245631 0.00913711 -1.99136e-19)
(0.0255172 0.00887893 0)
(0.026424 0.00848162 -1.93819e-19)