/*--------------------------------*- C++ -*----------------------------------*\
| =========                 |                                                 |
| \\      /  F ield         | OpenFOAM: The Open Source CFD Toolbox           |
|  \\    /   O peration     | Version:  2506                                  |
|   \\  /    A nd           | Website:  www.openfoam.com                      |
|    \\/     M anipulation  |                                                 |
\*---------------------------------------------------------------------------*/
FoamFile
{
    version     2.0;
    format      ascii;
    arch        "LSB;label=32;scalar=64";
    class       volVectorField;
    location    "1.3";
    object      U;
}
// * * * * * * * * * * * * * * * * * * * * * * * * * * * * * * * * * * * * * //

dimensions      [0 1 -1 0 0 0 0];

internalField   nonuniform List<vector> 
4000
(
(0.00555965 0.00066289 0)
(0.00437763 0.000760824 3.66784e-21)
(0.00303375 0.000448928 -3.78923e-21)
(0.00196292 0.000238879 -7.73505e-21)
(0.00125772 0.000136187 1.57076e-20)
(0.000776511 7.9836e-05 -7.93464e-21)
(0.000424762 4.76726e-05 0)
(0.000160459 2.90574e-05 0)
(-4.30019e-05 1.72416e-05 0)
(-0.000202413 8.91675e-06 -1.57699e-20)
(-0.000329443 2.55725e-06 1.57314e-20)
(-0.000431876 -2.5054e-06 -3.11053e-20)
(-0.00051512 -6.60533e-06 3.10548e-20)
(-0.000583455 -9.96699e-06 0)
(-0.000640148 -1.27675e-05 0)
(-0.000688006 -1.51474e-05 0)
(-0.000728994 -1.72022e-05 -3.0174e-20)
(-0.000765004 -1.90113e-05 3.0151e-20)
(-0.000797243 -2.06493e-05 0)
(-0.000826999 -2.21614e-05 0)
(-0.000855087 -2.35969e-05 0)
(-0.000882194 -2.5001e-05 0)
(-0.000908696 -2.64071e-05 0)
(-0.000934894 -2.78366e-05 -5.79785e-20)
(-0.000960858 -2.9304e-05 1.15591e-19)
(-0.0009866 -3.08271e-05 -5.76125e-20)
(-0.00101197 -3.2428e-05 0)
(-0.00103658 -3.41393e-05 0)
(-0.00105985 -3.60026e-05 0)
(-0.00108084 -3.80987e-05 0)
(-0.00109798 -4.05294e-05 5.57424e-20)
(-0.00110782 -4.38188e-05 -5.57321e-20)
(-0.00110549 -5.00759e-05 0)
(-0.00107995 -6.1741e-05 -4.80753e-20)
(-0.00103027 -9.76534e-05 -5.45486e-20)
(-0.000967015 -0.000154997 2.74306e-19)
(-0.000895527 -0.000207458 2.19989e-19)
(-0.000812531 -0.000240955 -5.54991e-20)
(-0.000715197 -0.000250191 2.22889e-19)
(-0.00060706 -0.000229349 5.04404e-19)
(-0.000472305 -0.000171934 -5.65379e-20)
(-0.000316326 -7.73322e-05 -4.52807e-19)
(-0.000148782 3.53352e-05 4.54371e-19)
(2.01221e-05 0.000145515 0)
(0.00017812 0.000243565 0)
(0.00032059 0.000325759 2.82105e-20)
(0.000452528 0.000391956 4.226e-19)
(0.000564911 0.000438318 4.22048e-19)
(0.000658662 0.000465731 2.5279e-19)
(0.000735974 0.000474492 2.23856e-19)
(0.000787928 0.000464069 -2.23056e-19)
(0.000820612 0.000437872 0)
(0.000822333 0.000394703 2.76154e-20)
(0.000796251 0.000339265 -4.69361e-19)
(0.000737004 0.000273618 0)
(0.000642175 0.000200545 1.09334e-19)
(0.000516267 0.000126998 2.702e-20)
(0.000351077 5.98326e-05 -9.23786e-25)
(0.000164392 6.02061e-06 2.83438e-22)
(-4.90335e-05 -2.56038e-05 1.35445e-20)
(-0.00027697 -3.46984e-05 -2.59517e-20)
(-0.000500076 -1.55058e-05 0)
(-0.000716926 2.77922e-05 0)
(-0.000917189 9.1373e-05 -4.90715e-20)
(-0.00109363 0.000172823 -3.38901e-19)
(-0.00125157 0.000262541 -4.71817e-20)
(-0.0013801 0.000360428 4.72077e-20)
(-0.00149319 0.000456935 -4.53722e-20)
(-0.00158216 0.000552188 -1.34054e-19)
(-0.0016579 0.000640489 3.07801e-19)
(-0.00172134 0.000723293 4.33797e-20)
(-0.00176904 0.000799135 -1.00221e-21)
(-0.0018106 0.000865974 0)
(-0.00184153 0.000925357 0)
(-0.00186272 0.000975077 0)
(-0.00187783 0.00101541 1.9673e-20)
(-0.00188543 0.00104714 2.91831e-19)
(-0.00188479 0.00106951 0)
(-0.00187886 0.00108307 -1.0623e-21)
(-0.00186804 0.00108904 -1.84906e-20)
(-0.00185252 0.00108787 2.93087e-19)
(-0.00183412 0.0010804 -2.6254e-19)
(-0.00181364 0.00106764 -8.05122e-23)
(-0.00179215 0.00105021 -2.84888e-19)
(-0.00177204 0.00102924 -1.29067e-21)
(-0.00175256 0.0010053 2.70412e-19)
(-0.00173359 0.000977884 2.70801e-19)
(-0.00171913 0.000947932 -2.7182e-19)
(-0.00170673 0.000915913 4.09419e-21)
(-0.0016946 0.000880206 2.57341e-19)
(-0.00168769 0.000841452 0)
(-0.00168209 0.000800038 2.57632e-19)
(-0.00167618 0.000753939 2.38492e-19)
(-0.00167451 0.000703939 -2.42748e-19)
(-0.00166992 0.000649633 1.34664e-19)
(-0.00166875 0.000590069 -1.47596e-20)
(-0.00166479 0.000526747 -1.16333e-19)
(-0.0016622 0.000457756 -1.42799e-20)
(-0.00165525 0.000384874 -9.90934e-20)
(-0.0016487 0.000307261 -6.98805e-20)
(-0.00163871 0.000228585 2.76665e-20)
(-0.00162547 0.000147321 -6.86047e-20)
(-0.00161165 6.67575e-05 6.82601e-21)
(-0.00159193 -1.07982e-05 6.79152e-21)
(-0.00156873 -8.56219e-05 2.70238e-20)
(-0.00153995 -0.000155144 0)
(-0.00150445 -0.000220254 0)
(-0.00146534 -0.000277013 2.12915e-19)
(-0.00141789 -0.000325122 6.78093e-21)
(-0.0013647 -0.000363014 -1.12284e-19)
(-0.00130366 -0.000389712 -1.09121e-19)
(-0.00123514 -0.000404328 -3.41758e-21)
(-0.00115836 -0.000407007 1.13629e-19)
(-0.00107604 -0.000397081 2.36566e-22)
(-0.000984661 -0.000376116 0)
(-0.000890164 -0.000343986 -2.22549e-19)
(-0.000789414 -0.000301826 6.9462e-21)
(-0.000684856 -0.000251059 2.09039e-19)
(-0.000579442 -0.000192861 7.02439e-21)
(-0.000473571 -0.000129808 2.24134e-19)
(-0.000368532 -6.32181e-05 6.43122e-22)
(-0.000266756 4.63019e-06 -2.24175e-19)
(-0.000169505 7.19929e-05 -1.39406e-20)
(-7.70937e-05 0.000137388 2.51659e-19)
(8.59759e-06 0.00019918 -1.40028e-20)
(8.65722e-05 0.000256211 -2.22024e-19)
(0.000156697 0.000308454 -2.74629e-20)
(0.000219268 0.000354738 2.75544e-20)
(0.0002742 0.000394538 -2.1806e-19)
(0.000323734 0.00042788 1.89002e-19)
(0.000365423 0.000453825 2.70511e-20)
(0.000399844 0.000472785 4.00335e-19)
(0.000432096 0.000486101 2.66933e-20)
(0.000457934 0.000492435 2.10808e-19)
(0.00047725 0.00049244 -7.90138e-22)
(0.000498203 0.000487625 0)
(0.000509432 0.000475537 0)
(0.000517275 0.000457301 4.00539e-22)
(0.000517998 0.000432787 0)
(0.000508569 0.000401331 2.47722e-20)
(0.000486991 0.000363292 7.3527e-20)
(0.000448658 0.000318804 2.4168e-20)
(0.000387284 0.000270011 4.78159e-20)
(0.000304074 0.000220171 2.39807e-20)
(0.00018708 0.000174947 6.97334e-20)
(4.91521e-05 0.000134331 -2.30472e-20)
(-0.000123206 0.000106868 0)
(-0.000318463 9.39668e-05 0)
(-0.000526392 0.000102348 0)
(-0.000742728 0.000133628 2.0151e-20)
(-0.000953903 0.000184232 -2.00685e-20)
(-0.00115306 0.000257869 -7.64094e-20)
(-0.00133519 0.000342788 -7.37546e-20)
(-0.00149021 0.000442605 0)
(-0.00162391 0.000543755 6.86431e-20)
(-0.00172741 0.000648934 0)
(-0.00181276 0.000746524 1.55424e-20)
(-0.0018698 0.000837303 -7.73301e-20)
(-0.00188384 0.000892491 1.4666e-20)
(-0.00182569 0.000863225 -2.45533e-19)
(-0.00186589 0.00075985 5.57195e-20)
(-0.00193761 0.000675415 5.41608e-20)
(-0.0019785 0.000573425 0)
(-0.00198614 0.000453766 0)
(-0.00197655 0.000324753 0)
(-0.00195464 0.000201794 0)
(-0.00192435 0.00010309 0)
(-0.00186246 5.48211e-05 -1.08427e-20)
(-0.00174247 3.64691e-05 3.78725e-22)
(-0.0015965 2.76662e-05 3.74211e-22)
(-0.00145325 2.41385e-05 1.02134e-20)
(-0.00132704 2.38324e-05 0)
(-0.00122459 2.49627e-05 -9.16085e-21)
(-0.00114711 2.64259e-05 9.16529e-21)
(-0.00109317 2.76127e-05 -2.69921e-22)
(-0.00105979 2.82504e-05 0)
(-0.00104304 2.88237e-05 0)
(-0.00103804 2.96125e-05 7.45864e-21)
(-0.00104032 2.99914e-05 -7.44816e-21)
(-0.00104643 2.97726e-05 0)
(-0.00105342 2.89703e-05 0)
(-0.00105901 2.76433e-05 2.8407e-21)
(-0.00106172 2.58967e-05 -1.70481e-22)
(-0.00106083 2.38638e-05 -2.85703e-21)
(-0.00105638 2.1707e-05 0)
(-0.00104898 1.95983e-05 0)
(-0.00103955 1.76389e-05 0)
(-0.00102939 1.56998e-05 0)
(-0.00102005 1.38727e-05 -1.18698e-22)
(-0.00101278 1.24499e-05 0)
(-0.00100853 1.14274e-05 0)
(-0.00100808 1.08482e-05 0)
(-0.00101166 1.06772e-05 -5.71528e-22)
(-0.00101931 1.04823e-05 5.70593e-22)
(-0.00103106 1.01801e-05 0)
(-0.00104659 9.79907e-06 -4.55437e-23)
(-0.00106539 9.35664e-06 -1.21787e-22)
(-0.00108755 8.84408e-06 8.08611e-23)
(-0.0011167 9.42975e-06 4.06033e-23)
(-0.00115198 1.45184e-05 0)
(0.00726078 0.00131023 0)
(0.0071809 0.00205563 0)
(0.00660436 0.00175418 0)
(0.00573141 0.00135384 -7.70019e-21)
(0.00485689 0.00100464 1.57256e-20)
(0.00408616 0.000741812 -8.01132e-21)
(0.00343369 0.000556127 0)
(0.00289158 0.000425649 -1.63374e-20)
(0.00244592 0.000331825 1.65327e-20)
(0.00208001 0.000262775 -1.65451e-20)
(0.00177852 0.000210619 1.66786e-20)
(0.00152919 0.00017043 3.32672e-20)
(0.00132208 0.000139307 -3.34509e-20)
(0.00114874 0.000115301 -3.32839e-20)
(0.00100216 9.69137e-05 1.62204e-22)
(0.000876499 8.29976e-05 6.65529e-20)
(0.00076689 7.27031e-05 -3.32875e-20)
(0.000669237 6.53268e-05 0)
(0.00058017 6.02606e-05 0)
(0.000496886 5.70217e-05 0)
(0.000417159 5.51607e-05 0)
(0.000339208 5.4282e-05 0)
(0.000261664 5.40565e-05 0)
(0.000183488 5.42129e-05 0)
(0.00010395 5.45173e-05 0)
(2.25595e-05 5.47483e-05 0)
(-6.0942e-05 5.46424e-05 0)
(-0.000146562 5.3883e-05 0)
(-0.000234036 5.2052e-05 0)
(-0.000322744 4.85184e-05 0)
(-0.000411689 4.22094e-05 6.2222e-20)
(-0.000498885 3.10259e-05 -3.03578e-22)
(-0.000579874 1.04705e-05 -1.23069e-19)
(-0.000664559 -2.50042e-05 5.36424e-20)
(-0.000730032 -0.000103312 6.06267e-20)
(-0.000703313 -0.00021329 -1.81951e-19)
(-0.000575237 -0.000297657 2.43998e-19)
(-0.000382388 -0.000328128 6.16071e-20)
(-0.00013837 -0.000292555 -6.26916e-19)
(0.000151426 -0.000181452 -1.90366e-19)
(0.0005176 1.18389e-05 0)
(0.000931533 0.000275959 -6.30107e-20)
(0.0013468 0.000562467 -3.76412e-19)
(0.00174622 0.000834739 -6.26449e-20)
(0.00211991 0.00107603 -4.97233e-19)
(0.00246449 0.00127804 4.95308e-19)
(0.00278762 0.00143935 -8.15105e-22)
(0.00307576 0.00155377 0)
(0.00333004 0.00162199 2.4569e-19)
(0.00355234 0.00164397 0)
(0.0037295 0.00161932 3.90286e-22)
(0.00386588 0.00155385 0)
(0.00394053 0.00144561 2.42557e-19)
(0.00395728 0.00130299 2.41967e-19)
(0.00389939 0.00113042 0)
(0.00376258 0.00093674 -1.12177e-22)
(0.00355029 0.000735204 -1.19468e-19)
(0.00324555 0.000538762 -2.96185e-20)
(0.0028792 0.000363308 -5.89939e-20)
(0.00243389 0.000225374 1.49176e-20)
(0.00193527 0.000130157 0)
(0.00141308 9.12557e-05 -1.17444e-19)
(0.000873471 0.000107946 5.88889e-20)
(0.000345565 0.000175501 1.1634e-19)
(-0.00015791 0.000292978 3.44557e-19)
(-0.000627784 0.000442845 5.64636e-20)
(-0.00104634 0.000624364 -2.73121e-19)
(-0.00142699 0.000818485 5.37468e-20)
(-0.00175431 0.00102125 0)
(-0.00204157 0.00122041 -5.06585e-20)
(-0.00228572 0.00141143 5.00522e-20)
(-0.00248776 0.00159171 -2.06866e-21)
(-0.00265992 0.00175505 0)
(-0.00279733 0.00189965 3.73457e-19)
(-0.00290566 0.00202278 3.6567e-19)
(-0.00298937 0.00212282 -2.22057e-20)
(-0.00304815 0.00220038 2.19917e-20)
(-0.00308516 0.00225553 -2.13375e-20)
(-0.00310438 0.00228884 3.35549e-19)
(-0.00310729 0.00230224 -3.10339e-19)
(-0.00309636 0.00229791 3.24933e-19)
(-0.00307502 0.00227799 3.26886e-19)
(-0.0030454 0.002245 -1.95232e-20)
(-0.00301032 0.00220124 3.1718e-19)
(-0.00297332 0.00214895 -2.97931e-19)
(-0.00293507 0.00208998 2.94313e-19)
(-0.00289724 0.00202504 -2.91381e-19)
(-0.00286366 0.00195462 2.84622e-19)
(-0.0028324 0.00187924 8.7307e-21)
(-0.00280384 0.00179817 -8.63977e-21)
(-0.00278116 0.00171062 0)
(-0.00276041 0.00161667 0)
(-0.00274174 0.00151485 -1.30712e-19)
(-0.00272693 0.00140411 1.43824e-19)
(-0.00270974 0.00128437 -1.25845e-19)
(-0.00269537 0.00115508 -3.09456e-20)
(-0.00267661 0.00101783 -2.53543e-22)
(-0.00265791 0.000871347 8.37563e-23)
(-0.00263057 0.000718247 2.66047e-19)
(-0.00259881 0.000556684 4.36553e-20)
(-0.00255728 0.000392133 -5.77319e-20)
(-0.0025074 0.000224453 5.71588e-20)
(-0.00244573 5.95564e-05 0)
(-0.00237113 -9.9164e-05 7.04589e-21)
(-0.00228392 -0.000249573 -7.07227e-21)
(-0.0021829 -0.00038659 0)
(-0.00206548 -0.000509541 0)
(-0.00193249 -0.000610746 -1.13821e-19)
(-0.00178226 -0.000689677 1.14347e-19)
(-0.00161581 -0.000743461 -1.18774e-19)
(-0.00143311 -0.000770705 2.32651e-19)
(-0.00123621 -0.000770048 2.46718e-23)
(-0.00102432 -0.00073992 3.71618e-21)
(-0.000802785 -0.000680937 1.19884e-19)
(-0.000568108 -0.000595505 0)
(-0.000328998 -0.000484253 0)
(-8.56622e-05 -0.000351095 0)
(0.000160143 -0.000199135 -2.55035e-19)
(0.000403295 -3.24182e-05 -2.37555e-19)
(0.000641837 0.000144068 0)
(0.000874589 0.00032669 2.75191e-19)
(0.00109769 0.000510016 -4.5663e-20)
(0.00130875 0.00068939 3.02916e-20)
(0.00150807 0.000861278 -1.51593e-20)
(0.00169381 0.00102216 2.99508e-20)
(0.00186574 0.00116915 -2.39537e-19)
(0.00202386 0.00130071 2.08422e-19)
(0.00216775 0.00141457 -2.67236e-19)
(0.00229883 0.00150961 2.95294e-22)
(0.00242085 0.00158585 -2.07591e-19)
(0.00253074 0.00164195 0)
(0.00263033 0.00167851 -2.35355e-19)
(0.00272745 0.00169776 2.89968e-20)
(0.00281534 0.00169797 2.02221e-19)
(0.0028952 0.0016799 -2.31667e-19)
(0.00297723 0.00164642 2.84596e-20)
(0.00304439 0.00159369 -2.86535e-20)
(0.00310494 0.00152272 2.88313e-20)
(0.00315196 0.0014331 -2.81862e-20)
(0.00317829 0.00132421 2.74418e-20)
(0.00317805 0.00119756 -1.37544e-19)
(0.0031405 0.00105507 1.34579e-19)
(0.00305387 0.000900829 -1.34056e-19)
(0.00291672 0.000742013 0)
(0.00270325 0.000587308 -2.60431e-20)
(0.00243233 0.000443168 2.53233e-20)
(0.00207747 0.000324397 1.24926e-20)
(0.00165581 0.000237191 0)
(0.00118652 0.000194906 2.4132e-20)
(0.000670216 0.000204532 -4.73936e-20)
(0.00014204 0.000261352 0)
(-0.000390607 0.000375089 8.96793e-20)
(-0.000902741 0.000524602 2.11941e-20)
(-0.00137985 0.000716942 -2.09366e-20)
(-0.00181945 0.000925196 0)
(-0.00220224 0.00115109 -7.61111e-20)
(-0.00253694 0.00136953 7.27014e-20)
(-0.00280769 0.00157509 -7.02938e-20)
(-0.00301273 0.00171422 0)
(-0.00313554 0.00173877 1.29131e-19)
(-0.00329459 0.00156372 7.73525e-20)
(-0.003382 0.0013423 -1.34192e-19)
(-0.00341953 0.0010723 1.41529e-20)
(-0.00337938 0.000767589 -1.40388e-20)
(-0.00325841 0.000448297 -1.31671e-20)
(-0.00305578 0.000158686 -1.25505e-20)
(-0.00277178 -7.15478e-05 1.11969e-20)
(-0.00241573 -0.000195123 7.61816e-22)
(-0.00202778 -0.000241197 0)
(-0.00164754 -0.000244197 -7.17209e-22)
(-0.0013024 -0.000221687 0)
(-0.00100591 -0.00018586 6.74016e-22)
(-0.000764421 -0.00014549 1.02534e-20)
(-0.000578907 -0.000106426 -1.09177e-20)
(-0.000443724 -7.21931e-05 9.11724e-22)
(-0.0003506 -4.4537e-05 -9.16958e-21)
(-0.000289821 -2.35126e-05 1.74043e-20)
(-0.000252137 -8.64863e-06 -1.72002e-20)
(-0.000228937 1.68412e-07 8.91453e-21)
(-0.000212444 3.65312e-06 0)
(-0.000196746 2.90889e-06 -4.08525e-21)
(-0.00017778 -7.27964e-07 3.83639e-21)
(-0.000153253 -5.90072e-06 4.15023e-22)
(-0.000122566 -1.13569e-05 3.03084e-21)
(-8.65844e-05 -1.60217e-05 -2.66149e-21)
(-4.72718e-05 -1.90843e-05 -2.63741e-21)
(-7.3712e-06 -2.00711e-05 2.95086e-21)
(3.01389e-05 -1.89499e-05 -2.53565e-21)
(6.25089e-05 -1.57763e-05 4.41912e-21)
(8.73038e-05 -1.06129e-05 -2.72561e-21)
(0.000102597 -3.93693e-06 9.24413e-22)
(0.00010738 3.7762e-06 1.95096e-22)
(0.00010135 1.19944e-05 0)
(8.48161e-05 1.99204e-05 -4.0006e-22)
(5.89282e-05 2.71394e-05 5.4745e-22)
(2.51343e-05 3.34929e-05 -2.86585e-23)
(-1.48637e-05 3.91079e-05 1.81871e-22)
(-5.99606e-05 4.45325e-05 0)
(-0.000112938 5.1375e-05 0)
(-0.000171352 6.25955e-05 1.27072e-23)
(0.00721868 0.000862585 0)
(0.00752093 0.00174529 3.71605e-21)
(0.00774329 0.00195083 -3.68687e-21)
(0.00764012 0.00184656 -7.35083e-21)
(0.00732065 0.00162986 7.42509e-21)
(0.00686159 0.00137805 0)
(0.00637025 0.00114295 0)
(0.00589312 0.000939884 0)
(0.0054536 0.000770959 1.53312e-20)
(0.00506106 0.000633947 -3.09257e-20)
(0.00471598 0.000523037 -1.54322e-20)
(0.00441565 0.000433118 3.12625e-20)
(0.00415555 0.00036085 3.11902e-20)
(0.00393007 0.000303354 -3.13802e-20)
(0.00373362 0.000258051 0)
(0.00356105 0.000222871 3.12307e-20)
(0.00340765 0.000196221 -6.25525e-20)
(0.00326903 0.000176675 3.13068e-20)
(0.00314138 0.000162958 0)
(0.00302138 0.00015401 0)
(0.00290618 0.000148872 0)
(0.00279335 0.000146694 0)
(0.00268087 0.000146755 0)
(0.00256701 0.000148445 6.1404e-20)
(0.00245039 0.000151239 -6.15532e-20)
(0.00232984 0.000154671 0)
(0.00220443 0.000158271 0)
(0.00207341 0.000161519 0)
(0.00193616 0.000163765 0)
(0.00179223 0.000164106 0)
(0.00164123 0.000161198 6.04317e-20)
(0.00148303 0.000153057 -6.06518e-20)
(0.00132135 0.000136671 0)
(0.00112913 0.000106406 -3.77781e-21)
(0.000939291 4.54826e-05 0)
(0.000876802 -2.92843e-05 1.20725e-19)
(0.000972624 -6.24633e-05 -2.41433e-19)
(0.00117397 -2.36813e-05 0)
(0.00145803 9.85688e-05 4.839e-19)
(0.00181944 0.000310139 -3.13323e-22)
(0.00228821 0.000612424 6.0245e-20)
(0.0028244 0.000981715 -6.01791e-20)
(0.00336414 0.00136573 4.77113e-19)
(0.00388764 0.00172788 0)
(0.00438705 0.00204955 5.30468e-19)
(0.00485911 0.00232079 -4.99049e-19)
(0.00531056 0.00253812 -4.96671e-19)
(0.00572764 0.00269476 0)
(0.00610998 0.00279031 -2.31607e-19)
(0.00645801 0.00282213 0)
(0.00675882 0.00278987 4.60549e-19)
(0.00701323 0.00269838 0)
(0.00719931 0.00254463 -2.00443e-19)
(0.0073183 0.00233692 -2.55804e-19)
(0.00735085 0.00207947 -2.25743e-19)
(0.00728891 0.00178537 -1.12351e-19)
(0.00713003 0.00146813 -1.116e-19)
(0.00685206 0.00114153 -5.55419e-20)
(0.00648176 0.000825981 2.7785e-20)
(0.00599158 0.000537449 4.14348e-20)
(0.00540838 0.000291341 0)
(0.00475585 0.000104919 1.09571e-19)
(0.00404458 -1.36807e-05 -1.09383e-19)
(0.0033111 -6.30762e-05 0)
(0.00256946 -4.00513e-05 -4.36579e-19)
(0.00184487 4.13195e-05 0)
(0.00115787 0.000179649 -5.40171e-20)
(0.000516445 0.000354758 5.4413e-20)
(-6.17515e-05 0.000559527 0)
(-0.000583329 0.000778254 -5.21343e-20)
(-0.00104139 0.000999164 5.13409e-20)
(-0.0014391 0.00121688 5.4736e-19)
(-0.00178519 0.00141974 -3.40514e-19)
(-0.00207462 0.00160362 1.86772e-21)
(-0.00231674 0.00176419 -3.69662e-19)
(-0.00251543 0.00189762 -2.25304e-20)
(-0.00267158 0.00200348 3.77785e-19)
(-0.00279146 0.00208224 0)
(-0.00287945 0.002134 3.41051e-19)
(-0.00293779 0.00216064 6.46052e-19)
(-0.00297095 0.00216513 -6.23231e-19)
(-0.00298336 0.00215032 -3.31712e-19)
(-0.00297807 0.00211951 3.25439e-19)
(-0.00295918 0.00207593 -3.17955e-19)
(-0.00293077 0.00202232 0)
(-0.00289526 0.00196135 -2.97233e-19)
(-0.00285614 0.00189462 -3.63863e-21)
(-0.00281669 0.00182226 -5.82616e-19)
(-0.00277655 0.00174487 -2.65169e-19)
(-0.00273817 0.00166242 -2.86492e-19)
(-0.00270276 0.00157336 0)
(-0.00266768 0.00147747 0)
(-0.00263434 0.00137408 1.3115e-19)
(-0.00260214 0.00126149 0)
(-0.00256707 0.00114049 1.58172e-20)
(-0.00253187 0.00100968 -1.56424e-20)
(-0.00248988 0.000870356 1.22694e-19)
(-0.00244404 0.00072301 -1.21052e-19)
(-0.00238944 0.000569981 -1.04274e-19)
(-0.00232795 0.000410402 -1.47533e-20)
(-0.00225296 0.000248496 5.81703e-20)
(-0.00216595 8.5969e-05 -2.88275e-20)
(-0.00206169 -7.25666e-05 2.14744e-20)
(-0.00194086 -0.000223575 -7.15404e-21)
(-0.00180027 -0.00036305 0)
(-0.00163963 -0.000484895 -5.70208e-20)
(-0.00145737 -0.000586148 0)
(-0.00125296 -0.000661159 -1.15016e-19)
(-0.00102696 -0.000707147 -2.0864e-22)
(-0.000779628 -0.000720796 1.13432e-19)
(-0.000512575 -0.00069989 -1.18231e-19)
(-0.000228417 -0.00064306 3.74296e-21)
(7.21765e-05 -0.000550164 0)
(0.000382664 -0.000421744 -1.1951e-19)
(0.000704737 -0.0002601 1.19041e-19)
(0.00103155 -6.72357e-05 0)
(0.00135961 0.000151856 -7.354e-21)
(0.00168786 0.00039298 2.42122e-19)
(0.00201068 0.000650719 2.20065e-19)
(0.00232525 0.000918821 -2.17986e-19)
(0.00263095 0.00119172 2.31641e-19)
(0.00292414 0.00146323 1.43881e-20)
(0.00320247 0.00172726 -2.15595e-19)
(0.00346677 0.00197898 -2.88096e-20)
(0.00371595 0.00221384 -2.56606e-19)
(0.00394996 0.00242775 5.12797e-19)
(0.00416987 0.00261736 -2.56222e-19)
(0.00437591 0.0027802 1.98763e-19)
(0.00456996 0.00291498 -1.68512e-19)
(0.00475595 0.00302139 -2.80086e-19)
(0.00493155 0.00309811 -1.67063e-19)
(0.00509875 0.00314542 -2.79713e-20)
(0.00526566 0.00316506 -1.93143e-19)
(0.00542575 0.00315551 -2.48385e-19)
(0.00558033 0.00311758 2.71354e-20)
(0.00573855 0.00305355 -2.73055e-20)
(0.00588321 0.00295963 -8.05571e-20)
(0.00602006 0.00283686 -2.6154e-20)
(0.00614235 0.0026845 2.61789e-20)
(0.00624138 0.00250219 -2.63223e-20)
(0.00630986 0.00229155 1.02756e-19)
(0.00633386 0.00205529 -2.58512e-20)
(0.00629908 0.0017978 5.02943e-22)
(0.00619989 0.00152636 2.49226e-20)
(0.00600747 0.0012486 9.69955e-20)
(0.00573585 0.000978038 0)
(0.00535213 0.000727914 -4.65422e-20)
(0.00486858 0.000512357 2.90509e-20)
(0.00430113 0.000345929 -2.26455e-20)
(0.00364564 0.000241668 6.64267e-20)
(0.00294304 0.00020046 2.15377e-20)
(0.00219358 0.000234314 -8.59883e-20)
(0.00143471 0.000327224 -1.05504e-19)
(0.000689575 0.000484986 4.16158e-20)
(-2.38036e-05 0.000681844 -1.01745e-19)
(-0.000684664 0.000915206 7.77643e-20)
(-0.00128931 0.00115574 1.83788e-20)
(-0.00181563 0.00138753 7.077e-20)
(-0.00226101 0.00156373 -1.73893e-20)
(-0.00261218 0.00163243 6.61723e-20)
(-0.00287929 0.00147467 -6.2597e-20)
(-0.00295426 0.00120052 4.54241e-20)
(-0.00294533 0.000860654 1.48376e-20)
(-0.00282051 0.000484634 2.82235e-20)
(-0.00257217 0.000105012 0)
(-0.00219894 -0.000226585 2.6057e-20)
(-0.00170266 -0.000480752 -2.39502e-20)
(-0.00113139 -0.000612348 -3.38966e-22)
(-0.00057528 -0.000642851 4.38117e-22)
(-6.28064e-05 -0.000609798 1.165e-21)
(0.000394362 -0.000538378 1.14713e-20)
(0.000785642 -0.000447387 -6.73565e-22)
(0.0011071 -0.000350983 0)
(0.00136107 -0.000259366 6.1771e-22)
(0.00155448 -0.000179186 -5.9187e-22)
(0.00169704 -0.000113977 -1.00066e-20)
(0.00179995 -6.50897e-05 9.39305e-21)
(0.00187442 -3.22591e-05 8.10162e-21)
(0.00193092 -1.3778e-05 -8.57448e-21)
(0.00197863 -7.21101e-06 0)
(0.00202476 -9.64101e-06 4.46101e-22)
(0.00207424 -1.78707e-05 0)
(0.0021297 -2.87567e-05 2.6864e-21)
(0.0021916 -3.94755e-05 -1.84136e-22)
(0.00225863 -4.76986e-05 -3.22727e-21)
(0.00232806 -5.17407e-05 -6.47407e-22)
(0.0023963 -5.07137e-05 -3.00521e-22)
(0.00245945 -4.42973e-05 2.76767e-22)
(0.00251379 -3.28508e-05 0)
(0.00255608 -1.73321e-05 -2.30176e-22)
(0.00258389 9.70788e-07 -7.83657e-22)
(0.00259581 2.058e-05 5.97398e-22)
(0.00259176 4.01668e-05 6.04901e-22)
(0.00257253 5.85864e-05 -7.44011e-22)
(0.00253977 7.49568e-05 0)
(0.00249579 8.87596e-05 -1.17733e-22)
(0.00244332 9.99678e-05 -1.71448e-22)
(0.00238491 0.000109138 -4.29959e-23)
(0.00232026 0.00011778 4.29595e-23)
(0.00224847 0.000130718 -1.20136e-23)
(0.00716008 0.000474343 0)
(0.00735204 0.00119736 0)
(0.00772281 0.0016047 0)
(0.0080749 0.00175899 -7.29835e-21)
(0.00827031 0.00173772 7.28213e-21)
(0.00823389 0.00163166 0)
(0.00810767 0.0014702 0)
(0.00791165 0.0012919 0)
(0.00767687 0.0011184 0)
(0.00742952 0.000961374 0)
(0.00718395 0.000822351 0)
(0.00694934 0.000701596 2.94355e-20)
(0.00673036 0.000599674 -2.96237e-20)
(0.00652804 0.000515217 2.95147e-20)
(0.0063421 0.000446182 -5.91915e-20)
(0.00617152 0.000390817 2.96603e-20)
(0.0060145 0.000347715 2.94924e-20)
(0.00586868 0.000315247 -2.95998e-20)
(0.00573168 0.000291812 0)
(0.00560118 0.000276099 0)
(0.00547489 0.000266841 -5.85562e-20)
(0.00535064 0.000262868 5.87085e-20)
(0.00522642 0.000263175 0)
(0.00510034 0.000266887 5.81101e-20)
(0.00497065 0.000273239 -5.82544e-20)
(0.00483579 0.000281567 0)
(0.00469428 0.000291266 0)
(0.00454471 0.000301726 -5.75346e-20)
(0.00438573 0.000312254 2.93293e-22)
(0.00421587 0.000321975 5.76014e-20)
(0.00403357 0.000329719 5.72257e-20)
(0.00383682 0.000333957 -1.1462e-19)
(0.00362833 0.000332613 5.74226e-20)
(0.00337625 0.000319926 -5.35735e-20)
(0.00311279 0.000292113 5.76343e-20)
(0.00297326 0.000270845 5.75426e-20)
(0.00300415 0.000299749 -5.77275e-20)
(0.00316158 0.00040467 -1.72816e-19)
(0.00342272 0.000595494 -2.88185e-19)
(0.00378137 0.000873081 -5.76293e-20)
(0.00426057 0.0012322 5.75152e-20)
(0.00481684 0.00164258 5.12901e-19)
(0.00538617 0.00205964 -5.09817e-19)
(0.00594853 0.00245318 -5.06768e-19)
(0.00649643 0.00280497 1.12187e-19)
(0.00702633 0.00310437 -8.38616e-20)
(0.00754256 0.00334595 2.50247e-19)
(0.00803277 0.00352228 0)
(0.00849445 0.00363221 2.48557e-19)
(0.00892742 0.00366916 -2.75986e-20)
(0.00932005 0.00363488 -2.19559e-19)
(0.00966968 0.00353271 -2.72409e-20)
(0.00995789 0.0033587 2.7244e-19)
(0.0101835 0.00312092 1.89593e-19)
(0.0103286 0.00282213 2.14746e-19)
(0.0103842 0.00247415 1.06334e-19)
(0.0103438 0.00208881 2.63755e-20)
(0.0101844 0.00167803 -2.62726e-20)
(0.0099235 0.00126339 -2.59845e-20)
(0.00952953 0.000856877 -3.85527e-20)
(0.0090223 0.000480193 -2.55412e-20)
(0.00841327 0.000150412 0)
(0.00770991 -0.000118271 -1.01969e-19)
(0.00694539 -0.000316934 0)
(0.0061305 -0.000438116 3.55743e-19)
(0.00530099 -0.000486662 2.03731e-19)
(0.00447342 -0.000463102 5.09632e-20)
(0.0036703 -0.00038221 0)
(0.00291179 -0.000251987 0)
(0.00220388 -8.72094e-05 2.01966e-19)
(0.00156058 9.73473e-05 0)
(0.000980517 0.000294054 -4.49642e-19)
(0.000462174 0.000488084 4.46706e-19)
(1.13193e-05 0.000672487 -4.17384e-19)
(-0.0003823 0.00084151 2.53573e-22)
(-0.000720144 0.00098814 2.45834e-22)
(-0.00100308 0.00111037 -3.21509e-19)
(-0.00123851 0.00120791 -4.50456e-20)
(-0.00143063 0.00128007 -3.29456e-19)
(-0.0015818 0.00132811 -3.44229e-19)
(-0.00169751 0.00135502 -1.76955e-21)
(-0.00178294 0.0013637 3.20196e-19)
(-0.00184165 0.00135753 -3.1386e-19)
(-0.00187858 0.00133993 0)
(-0.00189804 0.0013135 -4.86285e-21)
(-0.00190346 0.00128102 -3.02611e-19)
(-0.00189997 0.00124429 5.99662e-19)
(-0.00189043 0.00120302 8.87627e-19)
(-0.0018754 0.00115772 2.98286e-19)
(-0.00185948 0.00110828 -1.00461e-20)
(-0.00184285 0.00105247 0)
(-0.00182358 0.000989656 -8.5388e-21)
(-0.00180441 0.000919112 8.44516e-21)
(-0.00178334 0.000838633 0)
(-0.00175754 0.000748576 -1.30192e-19)
(-0.0017287 0.000647363 1.59182e-20)
(-0.00169019 0.000535854 -1.57612e-20)
(-0.00164396 0.00041377 -2.58841e-22)
(-0.0015848 0.000283363 -1.21982e-19)
(-0.00151283 0.00014604 1.49834e-20)
(-0.00142177 5.61228e-06 -2.97247e-20)
(-0.00131274 -0.000135098 1.47683e-20)
(-0.00117968 -0.000271524 7.03257e-24)
(-0.00102403 -0.000398872 7.26004e-21)
(-0.000841212 -0.000512439 -7.29587e-21)
(-0.000632323 -0.000605777 5.82628e-20)
(-0.000396251 -0.000674454 6.20864e-20)
(-0.00013335 -0.000712716 1.13975e-19)
(0.00015398 -0.000716827 -2.35152e-19)
(0.000464665 -0.000683329 1.13075e-19)
(0.000795553 -0.000609999 3.64239e-21)
(0.00114291 -0.000495718 3.59467e-21)
(0.00150489 -0.000340654 -3.60157e-21)
(0.00187415 -0.000146087 1.14334e-19)
(0.00225144 8.51377e-05 -7.46559e-21)
(0.00263024 0.000349597 5.57683e-23)
(0.00300627 0.000642005 -9.81161e-20)
(0.00337882 0.000956933 -3.42767e-19)
(0.00374294 0.00128799 2.22216e-19)
(0.00409621 0.00162831 2.22184e-19)
(0.00443864 0.00197135 -2.35089e-19)
(0.00476762 0.00231018 -2.05819e-19)
(0.00508174 0.00263819 2.06179e-19)
(0.00538243 0.00294974 2.45521e-19)
(0.0056695 0.00323952 2.04801e-19)
(0.00594349 0.00350289 -2.80503e-20)
(0.00620589 0.00373606 2.72053e-20)
(0.00645767 0.00393613 0)
(0.00670093 0.00410134 2.42385e-19)
(0.00693929 0.00423078 2.14481e-19)
(0.00717116 0.00432311 1.87008e-19)
(0.00739841 0.00437795 0)
(0.00762814 0.00439633 2.37653e-19)
(0.00785465 0.0043771 -2.63506e-20)
(0.0080789 0.00432117 7.78085e-20)
(0.00830694 0.00422994 2.59617e-20)
(0.00852475 0.00409966 7.03683e-22)
(0.00873552 0.00393297 1.26744e-19)
(0.0089323 0.00372883 -2.52576e-20)
(0.00910611 0.00348825 1.23182e-19)
(0.0092498 0.00321289 -2.1991e-19)
(0.00934981 0.00290511 -1.92344e-19)
(0.00939225 0.00256955 -9.42942e-20)
(0.00936934 0.00221355 0)
(0.00925441 0.00184429 2.229e-20)
(0.00905597 0.00147634 -3.17869e-22)
(0.00874062 0.00111961 -1.06832e-20)
(0.0083141 0.000791404 3.76494e-20)
(0.00778425 0.000505058 -2.137e-20)
(0.00714065 0.000275716 4.13669e-20)
(0.00641936 0.000110632 -4.07194e-20)
(0.00561249 2.20715e-05 0)
(0.00476186 4.22463e-06 9.81423e-20)
(0.00388003 6.17666e-05 -3.87754e-20)
(0.0030005 0.000177536 7.68502e-20)
(0.00214199 0.000346716 1.90919e-20)
(0.00132402 0.000542838 -9.26629e-20)
(0.000569882 0.000746564 1.85471e-20)
(-9.62645e-05 0.000910846 0)
(-0.000678606 0.00100019 -8.54922e-20)
(-0.00106762 0.000866804 4.5633e-22)
(-0.00116219 0.000591464 4.45377e-22)
(-0.00113316 0.000247259 4.49317e-22)
(-0.000967917 -0.000128981 -2.88686e-20)
(-0.000649928 -0.000498867 4.55286e-22)
(-0.000187905 -0.000807979 2.20174e-22)
(0.000412032 -0.00102877 1.27129e-20)
(0.00107028 -0.00112502 -1.09493e-20)
(0.00168059 -0.00111224 -1.14419e-20)
(0.00222595 -0.00102691 -9.7524e-22)
(0.00270725 -0.000897214 1.08132e-20)
(0.00312069 -0.00074528 -1.26859e-21)
(0.00346527 -0.000589138 -9.54981e-21)
(0.00374428 -0.000442369 9.51216e-21)
(0.00396426 -0.000314138 1.11732e-21)
(0.00413397 -0.000209708 1.07274e-21)
(0.00426356 -0.000131204 0)
(0.00436361 -7.81856e-05 -7.66773e-21)
(0.00444432 -4.81227e-05 7.64539e-21)
(0.00451473 -3.70846e-05 0)
(0.00458218 -4.02806e-05 8.41627e-22)
(0.00465189 -5.25824e-05 0)
(0.00472682 -6.89262e-05 -7.48973e-22)
(0.00480775 -8.46978e-05 -2.72629e-21)
(0.00489353 -9.60601e-05 2.71531e-21)
(0.00498139 -0.000100197 6.11904e-22)
(0.00506759 -9.56802e-05 -5.6486e-22)
(0.00514793 -8.20246e-05 0)
(0.00521818 -5.98415e-05 1.82029e-21)
(0.00527449 -3.07124e-05 -1.81574e-21)
(0.00531388 3.16853e-06 -3.89066e-22)
(0.00533453 3.92852e-05 -6.53146e-22)
(0.00533576 7.51853e-05 6.51826e-22)
(0.00531823 0.000108689 -4.86125e-22)
(0.00528374 0.000138132 4.85141e-22)
(0.00523491 0.000162468 1.81826e-22)
(0.00517501 0.000181339 1.20899e-22)
(0.00510744 0.00019513 -8.04011e-23)
(0.00503434 0.000204868 -1.00923e-22)
(0.00494833 0.000216998 0)
(0.0071655 0.000280156 0)
(0.00714512 0.000798149 0)
(0.00745649 0.00118259 0)
(0.00790211 0.00141075 -7.37535e-21)
(0.00826247 0.00151157 7.31585e-21)
(0.00851058 0.00151961 0)
(0.00867559 0.00145668 -1.436e-20)
(0.00876662 0.00135528 1.43655e-20)
(0.00877256 0.00123576 1.42717e-20)
(0.00873545 0.00111081 -2.85684e-20)
(0.0086652 0.000986875 1.43055e-20)
(0.00857205 0.000870355 0)
(0.00846612 0.000766921 0)
(0.00835258 0.000677126 -2.84243e-20)
(0.00823601 0.000600346 1.35575e-22)
(0.00811953 0.000536417 5.6851e-20)
(0.00800468 0.00048532 -2.84483e-20)
(0.00789177 0.000445793 0)
(0.00778083 0.000416477 0)
(0.00767146 0.000396419 -2.81222e-20)
(0.00756282 0.000384488 2.81875e-20)