/*--------------------------------*- C++ -*----------------------------------*\
| =========                 |                                                 |
| \\      /  F ield         | OpenFOAM: The Open Source CFD Toolbox           |
|  \\    /   O peration     | Version:  2506                                  |
|   \\  /    A nd           | Website:  www.openfoam.com                      |
|    \\/     M anipulation  |                                                 |
\*---------------------------------------------------------------------------*/
FoamFile
{
    version     2.0;
    format      ascii;
    arch        "LSB;label=32;scalar=64";
    class       volVectorField;
    location    "1.3";
    object      vorticityField;
}
// * * * * * * * * * * * * * * * * * * * * * * * * * * * * * * * * * * * * * //

dimensions      [0 0 -1 0 0 0 0];

internalField   nonuniform List<vector> 
4000
(
(2.02242e-20 -6.85509e-18 -23.001)
(7.18374e-18 7.79808e-18 -23.5146)
(-7.63692e-18 2.05956e-17 -20.2294)
(-3.03889e-17 -3.70614e-17 -15.9438)
(6.2704e-17 1.38853e-18 -12.498)
(-3.22831e-17 2.8964e-17 -9.86408)
(2.62507e-19 -1.48296e-17 -7.78679)
(-3.26448e-17 -0 -6.13764)
(3.22523e-17 2.94736e-17 -4.82178)
(-6.37567e-17 -2.9196e-17 -3.76241)
(6.37966e-17 2.84559e-17 -2.90059)
(5.29895e-18 -2.7907e-17 -2.19405)
(-2.60843e-18 -5.88671e-17 -1.61124)
(-6.87327e-17 5.80406e-17 -1.12642)
(3.2411e-19 -0 -0.718823)
(1.30322e-16 5.63944e-17 -0.37103)
(-1.24119e-16 -5.51966e-17 -0.0692528)
(6.32139e-17 -5.75493e-17 0.198522)
(-2.99251e-18 5.63515e-17 0.441504)
(0 -0 0.667925)
(0 -0 0.883837)
(0 -0 1.09418)
(-7.35286e-18 1.0836e-16 1.30246)
(-1.00855e-16 -2.13105e-16 1.51137)
(2.31306e-16 -6.62566e-18 1.72247)
(-1.31358e-16 2.19047e-16 1.93672)
(8.25945e-18 -1.07676e-16 2.15427)
(0 -0 2.3742)
(0 -0 2.59468)
(9.22079e-18 -1.04181e-16 2.81225)
(2.26521e-16 1.00752e-16 3.02048)
(-1.21832e-16 1.07591e-16 3.20406)
(-2.44829e-16 -1.42786e-17 3.33923)
(4.94784e-19 1.04885e-16 3.39336)
(7.32215e-17 -5.97896e-16 3.33542)
(2.38613e-16 -4.86305e-16 3.19438)
(8.50025e-16 8.78259e-16 2.9903)
(1.35227e-17 -8.11451e-18 2.67987)
(-6.84631e-16 -1.47286e-15 2.20642)
(5.71477e-16 9.79832e-16 1.50803)
(-3.2911e-16 1.925e-15 0.384415)
(-9.67195e-16 -1.86359e-15 -1.20883)
(2.60528e-16 -8.37501e-16 -3.05226)
(-2.31645e-16 8.81583e-16 -4.95566)
(-1.11414e-15 -7.77936e-16 -6.77602)
(1.28074e-15 -1.27299e-16 -8.46017)
(1.02832e-15 -1.49442e-16 -10.0248)
(9.833e-16 9.45243e-16 -11.3641)
(1.20704e-15 1.04057e-15 -12.5107)
(4.84272e-16 1.23843e-15 -13.4414)
(-5.88211e-16 1.48267e-16 -14.0982)
(3.99064e-17 -4.95556e-16 -14.5372)
(6.42935e-16 1.16076e-15 -14.6388)
(-6.04241e-16 -1.8935e-16 -14.4765)
(9.41793e-17 -1.10036e-15 -13.9701)
(3.0321e-16 3.35791e-17 -13.1401)
(-2.82058e-16 1.83542e-16 -12.0053)
(-8.96598e-17 4.81215e-17 -10.5115)
(-1.65106e-16 -2.85774e-17 -8.79956)
(7.61361e-17 4.82429e-17 -6.80143)
(-7.71443e-17 3.05986e-17 -4.61564)
(-3.30893e-16 -3.9487e-18 -2.36525)
(1.56974e-16 6.4699e-17 -0.0629495)
(1.12687e-16 6.40119e-16 2.19293)
(2.00585e-17 1.5873e-18 4.35643)
(1.17631e-16 -7.90839e-16 6.38856)
(-6.32041e-16 2.1625e-16 8.24098)
(-1.7015e-17 3.90577e-16 9.91634)
(-2.78999e-16 -6.17026e-16 11.3886)
(7.14993e-16 -7.38643e-16 12.6642)
(1.70112e-16 5.47601e-16 13.7437)
(2.66149e-17 1.79751e-16 14.6334)
(1.95933e-19 -2.29429e-18 15.3243)
(9.01462e-16 -5.71791e-16 15.8427)
(8.66292e-16 -6.14125e-16 16.1817)
(3.32187e-17 -7.00211e-16 16.3491)
(7.0487e-16 -4.52685e-16 16.3716)
(-8.34546e-17 7.25867e-16 16.2579)
(7.74205e-16 -3.87474e-16 16.0175)
(-6.66715e-16 -2.02156e-16 15.6817)
(1.25473e-15 -3.55167e-16 15.2671)
(1.61877e-16 6.83401e-16 14.7894)
(-3.59821e-17 8.56954e-17 14.27)
(6.49769e-17 -2.20491e-17 13.7247)
(-6.01911e-16 -9.54323e-16 13.1677)
(1.04494e-15 -1.37363e-15 12.6141)
(-3.64987e-17 1.23934e-15 12.0652)
(6.66567e-17 6.65591e-16 11.5257)
(9.68225e-18 -1.191e-15 11.011)
(4.27724e-16 -2.7612e-16 10.5094)
(-1.52976e-18 1.59171e-18 10.0205)
(4.18792e-16 -7.69286e-16 9.5613)
(2.00445e-16 9.41977e-16 9.11271)
(-1.43971e-16 3.37369e-16 8.67976)
(-8.86362e-18 -5.07863e-16 8.27382)
(-5.93752e-17 5.37011e-16 7.87785)
(-1.76063e-16 9.5724e-17 7.51871)
(-2.27391e-17 -2.54326e-17 7.17477)
(2.67391e-16 5.97831e-17 6.86529)
(-4.38101e-17 -2.18509e-16 6.58132)
(-4.72026e-17 -2.0859e-19 6.3405)
(-1.63037e-17 4.90562e-17 6.12827)
(8.06277e-18 -1.40703e-16 5.96281)
(2.0809e-17 -3.85188e-17 5.82277)
(3.09703e-17 1.53729e-17 5.71288)
(5.60838e-19 5.09123e-17 5.61514)
(-3.03514e-18 -4.07562e-16 5.53072)
(1.59193e-16 1.5959e-17 5.44353)
(1.94217e-16 6.90088e-16 5.33976)
(-3.64838e-16 1.00102e-16 5.20648)
(1.90146e-16 -1.33062e-16 5.03003)
(-8.27527e-18 -4.58731e-16 4.79496)
(1.91714e-16 9.06455e-17 4.49109)
(1.94437e-16 3.52248e-16 4.1048)
(5.68948e-18 4.81524e-16 3.6345)
(-3.78677e-16 -2.50259e-16 3.0738)
(-3.43432e-18 -9.51327e-16 2.42513)
(-7.65188e-17 -4.21689e-17 1.68871)
(-4.1586e-16 -3.05517e-16 0.873273)
(4.08331e-16 3.0672e-16 -0.00910897)
(5.51978e-16 1.39676e-15 -0.951207)
(-5.09536e-16 -3.41226e-16 -1.9315)
(-1.84003e-17 -1.11387e-15 -2.93122)
(4.66285e-16 3.53883e-16 -3.94196)
(9.71647e-17 1.17083e-15 -4.93913)
(-9.51062e-16 -6.73591e-16 -5.90706)
(3.43422e-16 -3.39462e-16 -6.83513)
(-4.82932e-16 9.3743e-17 -7.70974)
(-5.15853e-16 -7.46784e-16 -8.52393)
(-1.29774e-16 -5.79519e-16 -9.28476)
(5.73715e-18 -4.56594e-16 -9.95187)
(3.52701e-16 3.34014e-16 -10.5435)
(1.81625e-16 5.6748e-16 -11.0882)
(1.03214e-15 7.11794e-16 -11.5237)
(-5.66421e-16 2.17708e-16 -11.8821)
(7.34907e-17 3.99847e-17 -12.2153)
(-7.5778e-17 -4.10995e-17 -12.3885)
(9.70712e-17 5.38026e-18 -12.5252)
(-8.53567e-17 -8.84313e-17 -12.5245)
(1.17573e-16 -9.45288e-17 -12.4084)
(-1.92465e-16 -3.14891e-17 -12.1403)
(4.58181e-16 2.05011e-16 -11.6908)
(-2.54665e-16 -3.69623e-17 -11.0162)
(6.10601e-17 -2.34831e-17 -10.1373)
(1.40602e-16 1.12197e-16 -8.94546)
(3.23893e-17 1.24391e-16 -7.57319)
(2.86788e-17 -4.22388e-17 -5.86556)
(0 -0 -3.94459)
(6.28265e-17 -4.19497e-17 -1.86022)
(-7.17136e-17 4.29427e-17 0.366285)
(-2.90793e-17 1.93031e-16 2.61328)
(5.02249e-17 9.28145e-17 4.85918)
(-1.62319e-16 -1.00454e-16 6.99977)
(-9.23228e-17 -2.49892e-16 9.00425)
(1.79182e-16 -6.99156e-17 10.821)
(-1.81273e-16 1.85073e-16 12.4224)
(2.56078e-16 7.74692e-17 13.7722)
(-3.5836e-16 1.96155e-16 14.8108)
(7.68224e-17 3.14581e-16 15.2105)
(-2.31915e-16 1.83023e-16 14.7348)
(2.28518e-16 -7.2416e-16 13.9164)
(-1.84266e-16 1.29453e-16 13.5082)
(4.54045e-17 9.23676e-17 12.9398)
(-3.15103e-17 7.34566e-18 12.2517)
(-2.94352e-17 4.52704e-18 11.5365)
(-2.8e-17 2.32636e-18 10.8688)
(2.72975e-17 1.99286e-17 10.2598)
(-2.24379e-17 5.51281e-18 9.4727)
(-1.47827e-18 -2.14039e-17 8.39799)
(-2.63917e-18 -1.89087e-17 7.23228)
(2.25506e-17 -4.52908e-18 6.13819)
(4.9485e-18 3.6219e-17 5.18565)
(8.99904e-19 -1.30461e-17 4.40633)
(-5.37519e-18 -2.06961e-17 3.80686)
(2.8727e-18 1.72002e-17 3.37214)
(-1.99186e-17 -5.6327e-19 3.07841)
(3.65402e-17 -1.38461e-17 2.89588)
(-2.00364e-17 1.03502e-17 2.79075)
(4.22188e-18 1.74492e-17 2.73291)
(-9.54826e-19 -1.39066e-17 2.69868)
(-9.03277e-18 -5.34193e-18 2.66905)
(1.41659e-17 -1.34145e-18 2.63044)
(1.12212e-18 1.06518e-17 2.57482)
(3.78929e-19 1.43877e-18 2.4995)
(-5.86922e-18 -5.35109e-18 2.40649)
(-5.52567e-18 -1.64824e-20 2.30121)
(6.16174e-18 1.83797e-20 2.19086)
(-5.26868e-18 2.06371e-19 2.08434)
(8.91972e-18 7.55865e-20 1.99143)
(-5.64269e-18 -2.3843e-19 1.91952)
(1.90486e-18 5.68196e-21 1.87398)
(4.2748e-19 1.07062e-18 1.85819)
(-1.1871e-18 -2.62258e-19 1.87215)
(3.18474e-19 -1.87232e-18 1.91493)
(1.13462e-18 1.15389e-18 1.98484)
(-1.45659e-19 2.77841e-19 2.07823)
(1.22057e-19 1.85775e-19 2.19028)
(1.58843e-19 -5.0823e-19 2.32089)
(8.08271e-20 -6.31223e-20 2.48924)
(2.56629e-20 7.58854e-20 2.66836)
(0 -0 2.98725)
(8.28143e-20 -0 -5.45229)
(9.07584e-20 1.44312e-17 -10.7179)
(1.61526e-18 -3.15238e-17 -12.7288)
(-1.74833e-17 4.36792e-18 -13.2343)
(1.58024e-17 2.7739e-17 -12.9688)
(-3.66552e-19 1.56043e-17 -12.441)
(1.05498e-18 -3.30531e-17 -11.8445)
(3.02094e-17 2.45773e-18 -11.2596)
(-2.9912e-17 -1.76888e-18 -10.7179)
(-5.96039e-17 -9.18597e-17 -10.2305)
(1.212e-16 9.61598e-17 -9.79808)
(-4.14189e-18 1.22516e-16 -9.41663)
(-6.00597e-17 -6.46629e-17 -9.08077)
(8.07086e-18 -1.86897e-16 -8.78429)
(5.90628e-17 6.54195e-17 -8.52131)
(-7.02919e-17 1.23456e-16 -8.28541)
(5.32723e-18 -6.23855e-17 -8.07119)
(0 -0 -7.87301)
(0 -0 -7.68654)
(0 -0 -7.50756)
(0 -0 -7.33241)
(0 -0 -7.15758)
(2.38759e-16 -0 -6.98012)
(-3.54387e-16 -0 -6.79732)
(1.15331e-16 -0 -6.60699)
(0 -0 -6.40722)
(0 -0 -6.19604)
(0 -0 -5.97183)
(1.03211e-17 -1.16613e-16 -5.7331)
(8.8843e-18 -8.42671e-19 -5.479)
(-4.20153e-17 3.47001e-16 -5.20936)
(1.01208e-17 -9.7611e-17 -4.9264)
(1.225e-16 -3.46592e-16 -4.60089)
(6.40141e-17 4.42404e-16 -4.28009)
(-2.68426e-16 -3.92311e-16 -4.08178)
(-8.63119e-16 -6.845e-16 -4.05046)
(-7.39208e-17 1.72446e-15 -4.18007)
(4.6671e-16 6.81595e-16 -4.4904)
(-8.84986e-16 -1.83476e-15 -5.03368)
(2.68751e-16 -1.09212e-16 -5.91825)
(7.43056e-16 1.3584e-15 -7.10311)
(7.99674e-17 -5.8359e-17 -8.44485)
(-1.66248e-17 2.31445e-16 -9.85132)
(1.35191e-15 -5.27036e-16 -11.2485)
(-1.18116e-15 -1.65611e-15 -12.6128)
(-2.29178e-15 -1.44099e-16 -13.9315)
(-9.73916e-16 -1.06895e-15 -15.1492)
(-1.20937e-15 -5.89517e-16 -16.2887)
(-6.02507e-16 2.21763e-16 -17.3072)
(1.77309e-15 7.2419e-16 -18.1891)
(3.81005e-17 -4.69406e-16 -18.9423)
(-6.03181e-16 -5.83944e-16 -19.5038)
(5.24254e-16 6.96206e-16 -19.9094)
(-6.58375e-16 3.03997e-16 -20.0902)
(-6.43401e-16 1.24485e-16 -20.0668)
(-3.90399e-16 -2.18078e-17 -19.8072)
(-1.48196e-16 -1.20604e-16 -19.2857)
(8.83476e-17 -9.30883e-17 -18.5392)
(9.09485e-17 -1.10413e-16 -17.5152)
(4.64683e-17 2.4687e-16 -16.2696)
(3.27957e-16 -1.84887e-16 -14.8191)
(-2.59822e-16 -3.77932e-16 -13.2045)
(2.04019e-16 -6.05651e-16 -11.4871)
(-2.92071e-16 2.05998e-16 -9.70405)
(-1.5461e-17 1.22678e-15 -7.91906)
(-2.66033e-16 1.29662e-16 -6.17401)
(3.30234e-16 -6.95986e-16 -4.52531)
(3.33035e-16 5.7038e-17 -3.00313)
(-9.23864e-16 3.78569e-16 -1.62373)
(2.52193e-17 -1.25242e-16 -0.40954)
(1.37661e-15 -6.68844e-16 0.654284)
(-7.69107e-16 -3.83906e-16 1.54537)
(6.84419e-18 -9.46828e-16 2.26966)
(-1.00165e-15 1.3801e-15 2.84733)
(-1.45682e-16 8.70929e-16 3.27756)
(1.91795e-16 -1.22405e-16 3.57882)
(3.87113e-17 -7.42876e-16 3.77407)
(6.56126e-16 9.76497e-17 3.86949)
(1.45747e-15 -8.62054e-16 3.88328)
(-1.9061e-15 -2.73659e-16 3.83454)
(-2.14817e-16 8.06136e-16 3.73466)
(6.40809e-16 -4.2446e-16 3.59738)
(-1.35448e-16 5.8207e-16 3.43485)
(4.2205e-17 1.2327e-16 3.25244)
(-1.10189e-15 6.16891e-16 3.06133)
(-4.47726e-16 4.48294e-16 2.86783)
(-5.97575e-16 -3.95339e-16 2.66579)
(-4.68191e-16 9.40286e-16 2.46515)
(-9.35583e-16 5.94405e-16 2.27045)
(-2.939e-19 -1.86532e-17 2.06984)
(-4.24535e-16 5.20162e-16 1.87378)
(-1.66678e-16 -1.66667e-16 1.68269)
(3.81583e-16 -2.40635e-16 1.48693)
(-1.71843e-16 4.73287e-16 1.30371)
(-4.63651e-18 -2.44384e-16 1.12074)
(3.77832e-16 -1.94388e-16 0.947661)
(-1.80256e-16 -4.66999e-16 0.778233)
(-2.40308e-17 -1.43353e-16 0.620532)
(9.83617e-17 5.92782e-16 0.470293)
(4.83133e-17 -1.96388e-17 0.330749)
(5.83432e-17 -1.26343e-16 0.203341)
(2.41941e-17 9.31433e-17 0.0819942)
(-2.11919e-17 1.16399e-17 -0.0329174)
(-4.16115e-17 1.14686e-17 -0.146854)
(-8.82083e-17 -2.43438e-17 -0.267805)
(1.62541e-18 2.18262e-16 -0.389929)
(-5.17544e-16 -3.29651e-16 -0.531134)
(-4.03623e-18 -2.11628e-18 -0.693475)
(3.48414e-16 -1.08603e-16 -0.888525)
(-1.74456e-18 -2.57984e-16 -1.11889)
(1.4091e-17 4.71394e-16 -1.38802)
(-1.87119e-16 -3.38835e-16 -1.70313)
(-1.91735e-16 -9.61412e-17 -2.0726)
(2.02196e-16 3.62862e-16 -2.49812)
(3.78241e-16 2.18941e-16 -2.98433)
(-1.45105e-17 5.50405e-16 -3.52718)
(6.4134e-17 5.58671e-16 -4.13088)
(3.76175e-16 -3.78334e-16 -4.789)
(-8.38857e-16 -1.71254e-15 -5.49799)
(4.29579e-16 4.12609e-16 -6.25532)
(4.73533e-16 8.85707e-16 -7.05009)
(-3.95614e-16 -3.35e-16 -7.87233)
(-5.51645e-16 -3.98258e-16 -8.71715)
(-4.62077e-16 2.02657e-16 -9.56864)
(1.54166e-15 5.47087e-16 -10.4206)
(-5.317e-16 -1.80281e-16 -11.2627)
(4.80499e-16 6.43818e-16 -12.0842)
(9.95275e-17 -6.90318e-17 -12.8813)
(-1.03369e-15 -7.61987e-16 -13.6527)
(-4.39632e-16 -2.40771e-16 -14.3725)
(-9.83109e-16 -7.94814e-16 -15.058)
(-6.59153e-16 -1.37292e-15 -15.7129)
(-1.13885e-15 5.57319e-17 -16.2963)
(1.60847e-16 3.98917e-16 -16.8458)
(-1.41021e-16 -5.06945e-16 -17.365)
(-2.04848e-16 -1.20541e-16 -17.7819)
(-5.60423e-17 -7.46308e-17 -18.1864)
(7.87076e-17 2.29718e-17 -18.4873)
(-1.09776e-16 1.87269e-16 -18.7228)
(6.58423e-17 -2.39358e-16 -18.8572)
(-1.77517e-16 3.54571e-17 -18.8734)
(-7.29363e-17 2.0004e-16 -18.7477)
(-3.43435e-17 -2.19951e-16 -18.4774)
(7.60662e-17 -6.52963e-17 -17.9932)
(5.37746e-17 -6.80208e-17 -17.3587)
(-1.26991e-16 5.06968e-17 -16.451)
(7.98179e-17 -2.23682e-17 -15.3477)
(-5.21089e-17 1.04255e-16 -14.022)
(1.39116e-16 9.7252e-18 -12.4868)
(7.85617e-17 -2.75379e-16 -10.8151)
(-3.7185e-17 -1.84838e-17 -8.98903)
(-5.94599e-17 2.24548e-16 -7.11964)
(1.1886e-16 7.70026e-18 -5.23124)
(-4.30996e-16 2.75686e-16 -3.41733)
(1.98367e-16 -2.01583e-16 -1.69635)
(-1.213e-17 -4.78033e-17 -0.155918)
(4.07501e-16 -2.44328e-18 1.11373)
(-1.29432e-16 -3.57091e-16 2.00883)
(6.62414e-16 -6.41665e-16 2.45589)
(-2.35514e-16 5.62554e-16 2.23004)
(3.70819e-17 2.35435e-16 1.80123)
(3.18471e-19 -2.49236e-16 1.30756)
(7.3306e-17 4.97109e-17 0.769488)
(6.9561e-19 8.63423e-18 0.205773)
(5.17952e-17 -4.1578e-17 -0.386844)
(-5.67145e-17 -3.34146e-17 -1.03223)
(2.59137e-17 2.06582e-17 -1.78391)
(4.26905e-19 2.77687e-18 -2.52351)
(1.65973e-18 1.98138e-19 -3.21238)
(2.47559e-18 -2.52469e-18 -3.84256)
(-3.22059e-18 -1.92834e-17 -4.40224)
(2.24768e-17 1.95121e-17 -4.88412)
(-1.7555e-17 1.96581e-17 -5.28504)
(-1.0147e-18 -3.20608e-18 -5.60879)
(-2.42375e-17 -2.99969e-17 -5.86406)
(2.14959e-17 1.30572e-17 -6.06333)
(2.58819e-18 1.76653e-17 -6.22092)
(-4.71799e-18 -3.29189e-17 -6.35033)
(1.64604e-18 2.43639e-17 -6.46287)
(5.16939e-19 -7.06606e-18 -6.5673)
(-6.57396e-18 -8.82838e-18 -6.66951)
(6.15712e-18 1.73309e-18 -6.77251)
(5.96501e-18 5.61078e-18 -6.87667)
(-6.2653e-18 1.09834e-17 -6.98029)
(-1.86974e-18 -1.04807e-17 -7.08019)
(-6.19018e-19 7.79728e-21 -7.17227)
(4.60022e-19 -3.08535e-18 -7.25203)
(2.83729e-19 5.05464e-19 -7.31517)
(-2.61251e-19 6.61217e-18 -7.35836)
(-1.78225e-18 -5.4058e-18 -7.37937)
(1.27316e-18 2.00738e-18 -7.37706)
(2.43622e-18 1.127e-18 -7.35251)
(-2.69224e-18 -8.32896e-19 -7.30738)
(-3.28125e-20 -6.39741e-19 -7.24411)
(-1.34322e-19 8.78484e-19 -7.16592)
(-1.15136e-19 -5.33521e-20 -7.07614)
(-2.46638e-19 3.39543e-19 -6.97762)
(4.50248e-21 -2.3572e-20 -6.87248)
(-4.28332e-20 1.77704e-19 -6.7895)
(2.06036e-20 -6.98371e-18 5.10078)
(-4.06865e-19 8.41194e-18 1.69782)
(2.0245e-19 1.93153e-17 -2.04947)
(1.74653e-18 -2.37903e-17 -5.2841)
(-1.74557e-17 -1.09075e-17 -7.69034)
(1.58316e-17 1.39542e-17 -9.18406)
(0 -0 -10.1388)
(3.33851e-17 -2.88125e-17 -10.703)
(-3.52134e-17 6.22062e-17 -10.9992)
(3.25528e-17 4.99287e-17 -11.1274)
(-2.94445e-17 -1.20171e-16 -11.1517)
(-5.56374e-18 -8.05214e-17 -11.1101)
(2.8552e-18 1.24011e-16 -11.0274)
(1.2393e-16 5.23321e-17 -10.9206)
(-1.13565e-16 -1.17667e-16 -10.8018)
(-7.98958e-17 1.22974e-16 -10.6784)
(1.26478e-16 -1.07492e-17 -10.5554)
(-5.35966e-17 -1.12368e-16 -10.4356)
(-3.12445e-18 5.88361e-17 -10.3202)
(0 -0 -10.2095)
(-1.17004e-16 -0 -10.1031)
(1.17309e-16 -0 -9.9998)
(7.83046e-18 -1.15399e-16 -9.89775)
(1.07343e-16 1.23479e-16 -9.79496)
(-1.23993e-16 1.07599e-16 -9.68916)
(8.53205e-18 -1.15679e-16 -9.57809)
(0 -0 -9.45946)
(-1.14963e-16 -0 -9.33084)
(5.86045e-19 -0 -9.1897)
(1.25148e-16 -1.13572e-16 -9.03323)
(-2.12384e-17 1.18842e-16 -8.85834)
(-2.38207e-16 1.08715e-16 -8.66095)
(3.71174e-16 -1.06883e-16 -8.43948)
(-2.14479e-16 9.60247e-19 -8.18033)
(1.7928e-17 -2.33855e-16 -7.89666)
(4.27101e-16 5.22881e-16 -7.63288)
(-6.23478e-16 6.86842e-17 -7.4338)
(-3.12977e-16 -1.55919e-15 -7.34598)
(6.70724e-16 3.88864e-16 -7.40469)
(1.66854e-16 1.02557e-15 -7.63708)
(1.02335e-16 2.1044e-16 -8.08376)
(1.30393e-15 -1.07867e-16 -8.68728)
(-3.08833e-16 -2.15362e-16 -9.42932)
(-9.76378e-16 -6.9982e-16 -10.2843)
(1.22033e-15 2.0104e-15 -11.2002)
(-1.46052e-15 1.21446e-15 -12.1616)
(7.55098e-16 -8.57909e-16 -13.1447)
(4.8207e-17 -5.5987e-16 -14.1163)
(6.32101e-17 -1.29292e-16 -15.0912)
(4.22159e-17 -1.4161e-15 -16.0266)
(-6.58717e-16 -1.42298e-17 -16.9189)
(-1.76283e-16 1.27448e-15 -17.7649)
(6.86246e-17 4.32502e-16 -18.5386)
(-9.27133e-17 -1.73993e-16 -19.2526)
(6.55631e-16 -2.84375e-16 -19.8664)
(3.26426e-16 -2.07461e-16 -20.3907)
(4.3539e-16 -1.22498e-16 -20.791)
(3.87089e-17 -2.82447e-16 -21.0546)
(1.10624e-16 -1.62834e-16 -21.161)
(-1.60567e-16 7.38381e-17 -21.0778)
(-5.82328e-17 -1.26614e-16 -20.804)
(3.11058e-16 1.99051e-16 -20.3089)
(-4.81902e-16 2.687e-16 -19.6162)
(-4.06705e-16 7.41549e-16 -18.7336)
(2.96114e-17 -1.10735e-16 -17.6931)
(4.97835e-16 -9.01776e-16 -16.5262)
(9.0317e-16 -4.57816e-16 -15.2827)
(-1.33896e-16 -4.74585e-17 -14.0101)
(-2.41593e-17 2.31596e-16 -12.757)
(6.74584e-16 -4.30873e-16 -11.5517)
(-7.03909e-18 -1.29341e-15 -10.4217)
(-1.25716e-15 1.44625e-15 -9.3836)
(1.01916e-15 6.25433e-16 -8.44357)
(-1.87961e-15 1.27721e-15 -7.61911)
(-7.97275e-16 6.90689e-16 -6.89007)
(1.64839e-16 -1.7757e-15 -6.25545)
(-8.23523e-16 3.76273e-16 -5.71242)
(-6.14666e-17 1.05469e-16 -5.245)
(-1.41965e-15 -6.38837e-16 -4.84419)
(-2.7245e-16 2.12968e-15 -4.50287)
(-6.2502e-16 2.92238e-15 -4.20847)
(9.80495e-17 -2.10347e-15 -3.95094)
(-6.27204e-16 2.81243e-16 -3.72456)
(-5.57829e-16 1.26767e-15 -3.52274)
(5.55586e-16 -4.21129e-16 -3.34219)
(-1.04909e-15 8.28041e-16 -3.18102)
(1.61436e-15 -4.12196e-16 -3.03546)
(1.16309e-15 7.07361e-17 -2.90625)
(5.38765e-16 -8.92528e-16 -2.79529)
(2.58205e-17 -5.06075e-16 -2.6965)
(-9.70864e-18 -6.16188e-16 -2.61247)
(-2.01056e-17 -2.7005e-16 -2.5453)
(2.12844e-16 -1.53822e-16 -2.48976)
(-2.28877e-16 3.50409e-16 -2.44597)
(-7.91653e-18 2.76894e-17 -2.41615)
(7.08034e-17 -2.38839e-16 -2.39441)
(-2.92901e-17 1.8521e-16 -2.38808)
(1.63979e-17 4.68255e-16 -2.38775)
(-6.03919e-16 -2.48333e-17 -2.4013)
(-5.0939e-17 -2.98427e-16 -2.42008)
(4.21821e-17 6.97105e-18 -2.45314)
(-6.35238e-17 8.17975e-17 -2.49182)
(-4.77393e-19 -4.40159e-17 -2.54408)
(8.5362e-19 4.15611e-17 -2.60609)
(6.85175e-19 9.43257e-17 -2.6805)
(8.7396e-17 1.55123e-17 -2.7713)
(9.69512e-17 1.29178e-16 -2.87543)
(3.48688e-16 8.59381e-17 -2.99878)
(-5.5143e-16 -5.90644e-16 -3.14057)
(3.757e-16 3.47171e-16 -3.3051)
(-3.72633e-16 8.75401e-17 -3.49397)
(4.69124e-18 -2.38449e-16 -3.71075)
(-1.00198e-17 2.51384e-16 -3.95771)
(-1.47235e-17 -2.77038e-16 -4.23468)
(-1.36323e-17 -2.3928e-16 -4.55006)
(3.3791e-18 2.74048e-16 -4.90194)
(-1.79185e-16 -6.31961e-16 -5.29683)
(-1.83313e-16 -5.15608e-16 -5.73563)
(8.40528e-16 1.58699e-15 -6.21513)
(4.33948e-16 1.37917e-16 -6.74033)
(-1.00569e-15 -1.05331e-15 -7.30881)
(-2.66382e-16 8.52048e-16 -7.91469)
(4.03443e-16 2.05817e-16 -8.55832)
(5.29472e-16 4.26162e-16 -9.23641)
(3.6733e-16 -1.21457e-15 -9.93719)
(2.73491e-16 5.84609e-16 -10.6597)
(-2.62163e-16 3.80014e-16 -11.3949)
(5.05778e-16 2.69676e-16 -12.1347)
(7.22808e-16 1.35547e-15 -12.8747)
(1.09962e-15 3.78445e-16 -13.6101)
(4.7399e-16 -5.05855e-16 -14.3216)
(5.76812e-16 3.87505e-16 -15.0224)
(6.84446e-16 6.14939e-16 -15.7064)
(-5.25619e-16 -1.03031e-15 -16.3416)
(7.00566e-16 -5.70176e-17 -16.9639)
(4.15743e-17 2.16871e-16 -17.5586)
(1.28043e-16 -6.8274e-17 -18.0843)
(2.61994e-16 -2.00757e-16 -18.6127)
(-4.00623e-18 3.09678e-17 -19.067)
(2.49978e-16 -8.83123e-17 -19.4897)
(-2.81346e-16 6.43045e-17 -19.8565)
(-8.96313e-16 -3.45662e-17 -20.1613)
(9.52551e-17 -7.03471e-17 -20.3989)
(-3.95329e-17 -1.61549e-16 -20.5636)
(1.24522e-16 1.76324e-16 -20.6172)
(-2.79e-17 2.69361e-16 -20.5924)
(-6.919e-17 -1.03411e-16 -20.3941)
(9.65351e-17 -1.72783e-17 -20.073)
(-1.38509e-16 -7.24104e-17 -19.5579)
(2.34421e-16 -7.99758e-17 -18.853)
(-7.21412e-17 3.3025e-16 -17.9754)
(-2.07274e-16 2.79737e-16 -16.8859)
(1.79584e-16 -3.556e-16 -15.6538)
(-5.28845e-17 1.74557e-17 -14.279)
(2.0175e-16 -1.72829e-16 -12.8578)
(1.95618e-16 -3.57065e-16 -11.4038)
(-4.19806e-16 1.91252e-16 -10.0098)
(2.01601e-16 -7.81643e-17 -8.74781)
(6.8755e-18 1.47439e-17 -7.70919)
(-5.12237e-16 3.22131e-16 -6.98362)
(-1.48254e-16 1.6756e-16 -6.74562)
(2.73147e-16 -2.95169e-16 -6.86463)
(-3.05731e-17 3.0038e-17 -7.02921)
(-3.12183e-17 2.0163e-17 -7.18935)
(3.12308e-17 -6.42147e-19 -7.32741)
(3.51071e-17 2.68721e-17 -7.47044)
(6.13931e-18 6.02294e-17 -7.63576)
(-3.16494e-17 -4.7622e-17 -7.83567)
(-2.57314e-17 -4.90971e-18 -8.01489)
(-2.39964e-18 -2.26505e-17 -8.18841)
(2.6155e-17 4.21569e-18 -8.3813)
(-2.24025e-18 2.15449e-17 -8.5929)
(-4.36663e-17 -2.75193e-18 -8.81669)
(4.47952e-17 1.52631e-18 -9.04619)
(2.0806e-18 1.9898e-17 -9.27)
(2.04086e-17 -2.57697e-17 -9.47908)
(-4.0041e-17 -2.82612e-17 -9.66763)
(2.31576e-17 4.02253e-17 -9.83352)
(-1.71879e-18 8.73829e-18 -9.97695)
(-1.16071e-18 -1.69479e-17 -10.0994)
(1.05178e-17 2.57007e-19 -10.2034)
(-8.40771e-18 -4.26864e-18 -10.2918)
(-2.40035e-18 3.67731e-18 -10.3676)
(-1.15537e-17 1.11381e-17 -10.4331)
(1.12867e-17 -2.89853e-18 -10.4902)
(6.52427e-18 -6.94047e-18 -10.5401)
(-7.43708e-18 -2.02676e-18 -10.5833)
(5.27071e-18 -2.81224e-19 -10.6196)
(-5.3742e-18 9.3214e-19 -10.648)
(1.93619e-18 1.20958e-18 -10.6674)
(-2.74576e-18 -3.6506e-18 -10.6765)
(-1.82072e-18 -8.2627e-19 -10.6735)
(1.35266e-18 4.59009e-18 -10.6571)
(-1.00764e-19 -1.18064e-18 -10.6273)
(-1.51487e-19 -1.17346e-18 -10.5844)
(4.5546e-19 -4.72924e-19 -10.5293)
(-8.84606e-20 -1.11073e-18 -10.4633)
(-1.43106e-19 -8.65137e-19 -10.3885)
(-2.25298e-19 3.99433e-19 -10.3068)
(-6.38967e-21 -9.91479e-20 -10.2338)
(0 -0 3.25585)
(-7.43898e-18 -0 2.87659)
(7.25884e-18 1.37542e-17 1.62155)
(8.35105e-19 -1.69086e-17 -0.284656)
(-7.7834e-19 -1.05692e-17 -2.1287)
(-2.0244e-19 1.37236e-17 -3.79896)
(-2.86933e-17 -0 -5.24129)
(2.87043e-17 -0 -6.39406)
(-2.17377e-18 -0 -7.24008)
(4.82492e-18 -0 -7.88265)
(6.12778e-17 -5.54731e-17 -8.36184)
(-6.56282e-17 6.64901e-17 -8.70518)
(-6.11996e-17 -1.08116e-17 -8.9447)
(2.75229e-18 6.57539e-17 -9.10663)
(1.95858e-18 -2.00594e-17 -9.21184)
(5.79301e-17 -1.57377e-16 -9.27555)
(6.23694e-17 1.20941e-16 -9.30989)
(-6.48876e-17 4.63181e-17 -9.32441)
(2.96231e-18 -5.57827e-17 -9.32618)
(-6.27036e-17 1.10353e-16 -9.32034)
(6.41118e-17 -1.27515e-16 -9.31055)
(5.90236e-18 -9.34771e-17 -9.29898)
(2.49892e-19 1.12773e-18 -9.28659)
(-2.05522e-17 1.25483e-16 -9.27341)
(-1.05656e-16 9.38127e-17 -9.25878)
(1.19081e-16 -1.09784e-16 -9.24157)
(1.01456e-16 1.08427e-16 -9.22033)
(5.4544e-19 -1.44742e-17 -9.19338)
(-2.01276e-16 -2.16468e-16 -9.15881)
(1.18197e-16 -9.38838e-17 -9.11444)
(-4.24679e-17 3.36831e-16 -9.05767)
(1.23502e-16 -2.42772e-17 -8.98509)
(-9.98481e-17 -1.03347e-16 -8.89501)
(-9.97581e-17 -9.34892e-18 -8.78949)
(1.29591e-16 -1.95686e-16 -8.65301)
(-2.63648e-16 1.95241e-16 -8.45532)
(8.70738e-16 6.40081e-16 -8.21167)
(8.37694e-16 6.75403e-16 -7.99742)
(-9.38575e-16 -7.03292e-16 -7.86237)
(-3.74578e-16 -9.09807e-16 -7.82696)
(1.09233e-16 -1.17766e-15 -7.90685)
(-1.09864e-15 8.4598e-16 -8.06926)
(-2.18556e-16 1.84687e-15 -8.35263)
(1.18099e-15 -9.88813e-16 -8.757)
(-5.25852e-16 -1.20824e-15 -9.25287)
(1.06898e-15 2.74847e-16 -9.82893)
(6.12813e-16 3.61085e-16 -10.4621)
(4.49585e-16 2.44618e-16 -11.1329)
(5.69431e-16 5.13261e-16 -11.8529)
(4.66456e-16 1.16083e-15 -12.5837)
(-1.12651e-15 -6.4281e-16 -13.3247)
(6.3739e-16 -7.78255e-16 -14.0727)
(-1.40468e-16 -2.11299e-16 -14.8255)
(7.1361e-16 4.77257e-16 -15.5845)
(-4.54116e-18 3.33572e-16 -16.3362)
(-2.7692e-17 4.66973e-16 -17.0829)
(5.04958e-16 3.25208e-16 -17.8067)
(1.52827e-16 9.03212e-17 -18.5062)
(-8.57881e-18 4.55489e-18 -19.146)
(-8.10863e-17 -3.22648e-17 -19.722)
(1.482e-16 -1.08753e-16 -20.195)
(-3.30889e-16 1.88274e-16 -20.526)
(4.48005e-16 -1.64981e-16 -20.7022)
(-1.62841e-16 -8.57658e-16 -20.6924)
(8.87512e-16 -4.44466e-16 -20.5107)
(-7.13416e-16 9.54802e-16 -20.1471)
(2.32616e-16 3.43744e-16 -19.6395)
(-1.5852e-16 1.66426e-16 -18.9894)
(5.45588e-16 -6.5819e-16 -18.2485)
(-3.42276e-16 2.35033e-16 -17.4447)
(-2.66971e-16 1.52638e-15 -16.607)
(-6.89308e-16 -6.33952e-16 -15.7744)
(6.38715e-16 -4.44595e-16 -14.9463)
(1.07079e-17 1.01777e-15 -14.153)
(9.35402e-16 -1.48332e-15 -13.3926)
(-4.51398e-17 7.54182e-16 -12.6648)
(-7.03504e-16 6.4564e-16 -11.9765)
(-4.15277e-17 6.78467e-17 -11.3221)
(-1.47432e-15 1.75188e-15 -10.6955)
(-1.26812e-15 2.23543e-16 -10.0971)
(2.72525e-15 -3.38812e-15 -9.5238)
(5.98678e-16 2.01359e-16 -8.97054)
(-6.25421e-16 1.25436e-15 -8.4392)
(6.41562e-16 -1.12628e-15 -7.93003)
(-2.6368e-18 6.9115e-16 -7.44336)
(1.16145e-15 -2.05735e-15 -6.98478)
(-1.1979e-15 -2.08334e-15 -6.55491)
(1.1595e-16 3.33378e-16 -6.15216)
(4.35687e-16 1.62133e-15 -5.78561)
(1.50746e-15 -2.38184e-16 -5.45035)
(2.46943e-16 -1.35151e-16 -5.14416)
(-1.45152e-17 -8.65252e-18 -4.87356)
(-2.31638e-16 9.48702e-17 -4.63328)
(3.48717e-17 2.72401e-16 -4.41885)
(4.13075e-16 -1.8305e-16 -4.24009)
(1.84109e-17 -2.42718e-16 -4.0817)
(-1.92419e-16 1.01747e-16 -3.95742)
(6.16574e-16 1.92116e-17 -3.85197)
(3.34161e-16 -9.88688e-17 -3.77626)
(1.85616e-17 -1.84159e-16 -3.71624)
(-8.97979e-17 1.78782e-17 -3.6823)
(9.00304e-17 -6.64866e-17 -3.66235)
(-5.55915e-17 1.76392e-17 -3.6618)
(1.02946e-19 1.32493e-17 -3.67547)
(-1.22687e-18 -9.6216e-17 -3.70222)
(1.9019e-16 -1.14368e-16 -3.74303)
(3.0491e-18 -1.05478e-16 -3.79394)
(1.84344e-16 6.12624e-16 -3.85708)
(1.62988e-16 3.63708e-17 -3.93089)
(-3.46974e-16 -5.68197e-16 -4.01658)
(1.30909e-17 2.26346e-16 -4.115)
(-5.81015e-18 1.29267e-17 -4.22773)
(-1.90182e-18 -2.30961e-16 -4.35764)
(1.9539e-16 1.17514e-16 -4.50488)
(-3.65525e-16 7.50629e-17 -4.67802)
(-8.36135e-18 1.90231e-16 -4.87277)
(5.91326e-16 1.01857e-15 -5.09933)
(-2.19464e-16 -9.88283e-16 -5.35898)
(-8.66743e-16 -1.62173e-15 -5.65152)
(4.16474e-16 1.39648e-15 -5.98437)
(-7.41602e-16 3.499e-16 -6.35786)
(8.01616e-16 -6.90819e-16 -6.76942)
(2.85843e-16 -6.78389e-16 -7.22311)
(-3.46469e-18 2.87206e-16 -7.71761)
(3.95462e-16 1.08205e-15 -8.24552)
(-1.4188e-15 -4.96498e-16 -8.80754)
(8.12689e-17 3.50007e-17 -9.39711)
(-4.12077e-16 -7.58761e-16 -10.0078)
(1.36872e-16 -8.56211e-17 -10.6349)
(4.59495e-16 7.12361e-16 -11.2721)
(1.49575e-16 8.2935e-16 -11.9055)
(5.02623e-17 -6.91697e-17 -12.5417)
(3.20657e-16 5.99898e-16 -13.1723)
(6.11874e-16 6.67837e-16 -13.7726)
(-8.78511e-17 -7.08602e-19 -14.3688)
(7.43903e-17 2.53249e-16 -14.9431)
(5.16389e-16 -1.07791e-17 -15.4751)
(-2.31205e-18 2.61935e-16 -16.0119)
(-1.17703e-16 -7.99424e-17 -16.5033)
(-2.09262e-16 5.69852e-16 -16.9816)
(-4.47097e-17 1.95168e-16 -17.4374)
(4.58097e-16 -4.89444e-16 -17.8716)
(1.77619e-16 -5.43069e-16 -18.2917)
(-2.37096e-16 -2.72609e-16 -18.6966)
(-3.54435e-16 1.86582e-17 -19.0739)
(-1.12485e-16 5.83971e-17 -19.4416)
(1.24512e-16 -8.86801e-17 -19.7455)
(-8.6768e-17 8.70998e-17 -20.0133)
(6.66935e-17 -4.66149e-17 -20.1756)
(-2.94371e-16 1.50339e-16 -20.2201)
(-4.71115e-17 4.61065e-17 -20.1297)
(3.02081e-16 -3.3782e-16 -19.857)
(9.42307e-17 1.22232e-16 -19.4308)
(-1.04629e-16 3.9558e-17 -18.799)
(2.44734e-16 -1.77298e-16 -18.0232)
(-1.12987e-16 4.0362e-16 -17.1057)
(2.62994e-16 -1.6627e-16 -16.1196)
(-3.27604e-16 -3.40697e-17 -15.1071)
(2.82068e-17 2.06751e-16 -14.1744)
(2.74142e-17 3.63253e-17 -13.4011)
(1.59317e-16 -2.39054e-16 -12.89)
(-1.42318e-16 4.69259e-17 -12.595)
(-2.79061e-17 6.45257e-17 -12.3545)
(-1.28628e-16 3.92087e-17 -12.066)
(2.30234e-17 -5.96797e-17 -11.7282)
(-3.30844e-17 -2.6413e-17 -11.3633)
(8.73218e-17 2.32784e-17 -10.9936)
(-5.2106e-19 4.40119e-17 -10.6428)
(-1.27865e-17 -2.56322e-17 -10.331)
(-2.69017e-17 -4.55448e-17 -10.0747)
(5.99721e-18 9.14266e-18 -9.89384)
(7.42838e-18 3.6607e-17 -9.79846)
(1.46369e-18 -3.26134e-17 -9.78367)
(-1.42154e-18 -7.85249e-18 -9.83492)
(-4.10025e-18 1.80166e-17 -9.93306)
(4.37134e-17 3.79473e-18 -10.0584)
(-3.62998e-17 1.61148e-17 -10.193)
(-1.8721e-17 -2.93886e-17 -10.3225)
(1.37801e-17 4.10197e-19 -10.4363)
(4.49735e-18 1.28608e-17 -10.5278)
(-9.29373e-18 2.29468e-18 -10.594)
(6.78611e-18 3.07977e-18 -10.6352)
(-9.28909e-19 2.7024e-18 -10.6539)
(-5.55934e-18 -1.45833e-17 -10.6544)
(1.20463e-17 1.78991e-18 -10.6418)
(-7.46968e-19 7.65876e-18 -10.6213)
(1.75565e-18 -1.38577e-18 -10.598)
(1.30356e-18 -4.48139e-18 -10.5756)
(-3.39717e-18 1.18766e-17 -10.5567)
(4.19628e-18 -4.25171e-18 -10.5423)
(3.91893e-18 -4.77129e-18 -10.532)
(-3.86117e-18 -6.28149e-18 -10.5242)
(1.077e-18 3.96615e-18 -10.5158)
(1.47159e-18 -3.89671e-18 -10.5038)
(-2.01214e-19 2.94687e-18 -10.4855)
(-8.06718e-19 2.20451e-18 -10.4587)
(5.87057e-19 2.52793e-18 -10.4218)
(1.2488e-19 -6.04984e-19 -10.3742)
(-6.28014e-20 -3.59604e-18 -10.314)
(1.08834e-19 -1.88817e-19 -10.2414)
(0 -0 2.06066)
(0 -0 2.33305)
(-1.23362e-19 1.3938e-17 2.14278)
(4.11416e-19 -1.69842e-17 1.53902)
(-1.9138e-19 -1.07794e-17 0.750667)
(-6.84321e-19 4.09633e-17 -0.293875)
(-2.71879e-17 -3.39646e-17 -1.31955)
(5.74872e-17 -4.72921e-17 -2.27539)
(-3.16014e-17 8.79792e-17 -3.14813)
(1.87138e-18 -1.37063e-17 -3.91568)
(7.46433e-19 -4.71887e-17 -4.58972)
(-5.98031e-17 2.70348e-17 -5.11143)
(1.13182e-16 5.37167e-17 -5.54364)
(-1.14041e-16 -1.3222e-17 -5.89753)
(1.25356e-16 -1.60972e-16 -6.18626)
(-6.37175e-17 7.94047e-17 -6.41639)
(-8.02714e-18 9.4835e-17 -6.60126)
(6.62989e-18 -5.3762e-17 -6.75216)
(-2.97907e-18 5.31457e-17 -6.87687)
(-5.08694e-17 -6.51764e-17 -6.98213)
(6.54887e-17 -4.12385e-17 -7.07378)
(-1.17271e-17 5.32692e-17 -7.15608)
(1.15272e-16 -1.0507e-16 -7.23211)
(-1.33077e-16 2.3245e-16 -7.30401)
(1.17569e-17 -4.43535e-17 -7.37298)
(2.21101e-17 -2.92118e-16 -7.4395)
(-9.56738e-18 1.2671e-16 -7.50354)
(-1.64372e-17 3.11312e-16 -7.56467)
(1.17755e-16 -1.45377e-16 -7.62223)
(-9.00235e-17 -2.90498e-16 -7.67531)
(-2.04905e-17 1.23479e-16 -7.72279)
(1.43e-19 2.05787e-16 -7.76287)
(-1.80459e-17 8.37563e-17 -7.7954)
(1.29628e-16 -2.2444e-16 -7.82977)
(-1.06673e-16 -8.96075e-17 -7.83502)
(-2.91812e-16 -3.52563e-16 -7.74701)