/*--------------------------------*- C++ -*----------------------------------*\
| =========                 |                                                 |
| \\      /  F ield         | OpenFOAM: The Open Source CFD Toolbox           |
|  \\    /   O peration     | Version:  2506                                  |
|   \\  /    A nd           | Website:  www.openfoam.com                      |
|    \\/     M anipulation  |                                                 |
\*---------------------------------------------------------------------------*/
FoamFile
{
    version     2.0;
    format      ascii;
    arch        "LSB;label=32;scalar=64";
    class       volVectorField;
    location    "1.25";
    object      vorticityField;
}
// * * * * * * * * * * * * * * * * * * * * * * * * * * * * * * * * * * * * * //

dimensions      [0 0 -1 0 0 0 0];

internalField   nonuniform List<vector> 
4000
(
(1.79139e-20 -6.07201e-18 -34.0802)
(6.30149e-18 7.48811e-18 -35.5138)
(-6.76064e-18 1.79578e-17 -31.854)
(-2.68888e-17 -3.42092e-17 -26.5117)
(5.57692e-17 2.61573e-18 -22.0381)
(-2.88442e-17 2.5743e-17 -18.6385)
(2.39384e-19 -1.35234e-17 -15.9887)
(-2.87953e-17 -0 -13.9177)
(2.84744e-17 2.72837e-17 -12.3037)
(-5.76747e-17 -2.79429e-17 -11.0369)
(5.78906e-17 2.76606e-17 -10.0336)
(1.72485e-18 -2.78862e-17 -9.23185)
(1.01419e-18 -5.36101e-17 -8.5848)
(-6.10831e-17 5.4495e-17 -8.05645)
(2.94119e-19 -0 -7.61784)
(1.15442e-16 5.34201e-17 -7.24562)
(-1.13562e-16 -5.37837e-17 -6.92126)
(5.99701e-17 -5.31007e-17 -6.62992)
(-2.83919e-18 5.34643e-17 -6.35964)
(0 -0 -6.10089)
(0 -0 -5.84633)
(0 -0 -5.59032)
(-7.01704e-18 1.03411e-16 -5.32855)
(-9.62498e-17 -2.05959e-16 -5.0576)
(2.20655e-16 -1.11787e-18 -4.77482)
(-1.25261e-16 2.06343e-16 -4.47795)
(7.876e-18 -1.02677e-16 -4.16514)
(0 -0 -3.8349)
(0 -0 -3.48613)
(8.75836e-18 -9.89563e-17 -3.11813)
(2.09769e-16 9.78052e-17 -2.73095)
(-1.15641e-16 1.00008e-16 -2.32946)
(-2.242e-16 -1.37866e-17 -1.92134)
(-2.17075e-18 9.79175e-17 -1.44524)
(6.72434e-17 -5.65975e-16 -1.01199)
(2.30051e-16 -4.53607e-16 -0.921886)
(7.91679e-16 8.26236e-16 -1.25093)
(9.64303e-18 -1.08482e-17 -1.91474)
(-6.00216e-16 -1.34887e-15 -2.92485)
(5.38716e-16 9.69721e-16 -4.36691)
(-3.06635e-16 1.79899e-15 -6.56475)
(-8.93587e-16 -1.72126e-15 -9.38047)
(2.67637e-16 -7.60462e-16 -12.3322)
(-2.08737e-16 8.15724e-16 -15.1938)
(-9.89251e-16 -6.92674e-16 -17.8468)
(1.14042e-15 -1.36837e-16 -20.2879)
(9.07719e-16 -6.78602e-17 -22.5834)
(9.06719e-16 8.6596e-16 -24.5785)
(1.11158e-15 9.08677e-16 -26.3482)
(4.47239e-16 1.14357e-15 -27.866)
(-5.24998e-16 9.12357e-17 -29.0424)
(3.69537e-17 -4.58887e-16 -29.9611)
(5.72926e-16 1.07524e-15 -30.4188)
(-5.69964e-16 -2.37094e-16 -30.5465)
(8.77364e-17 -1.02506e-15 -30.1908)
(2.77884e-16 5.66163e-17 -29.3845)
(-2.55338e-16 2.02382e-16 -28.1516)
(-8.15338e-17 5.09672e-17 -26.38)
(-1.49078e-16 -2.04323e-17 -24.3069)
(6.977e-17 4.61906e-17 -21.7757)
(-7.33726e-17 3.19697e-17 -18.9339)
(-2.99243e-16 -5.93954e-18 -15.9738)
(1.41699e-16 6.53965e-17 -12.8931)
(8.68316e-17 6.27432e-16 -9.85984)
(-4.56042e-17 -1.03456e-17 -6.91776)
(1.07464e-16 -7.74753e-16 -4.13404)
(-5.8855e-16 2.35552e-16 -1.59318)
(-1.7907e-17 3.76506e-16 0.726088)
(-2.69213e-16 -5.94517e-16 2.74381)
(6.87424e-16 -7.15805e-16 4.49821)
(1.69036e-16 5.30829e-16 5.97275)
(2.88489e-18 1.3714e-16 7.19504)
(2.16188e-19 -2.53147e-18 8.18116)
(8.87935e-16 -5.6321e-16 8.93181)
(8.51416e-16 -6.02394e-16 9.47983)
(3.11563e-17 -6.67643e-16 9.83632)
(6.74233e-16 -4.34151e-16 10.0249)
(-8.07581e-17 6.94721e-16 10.0707)
(7.34378e-16 -4.06941e-16 9.99347)
(-6.50254e-16 -1.81909e-16 9.8193)
(1.20837e-15 -3.49215e-16 9.57279)
(1.50931e-16 6.16879e-16 9.27396)
(-3.49909e-17 8.0512e-17 8.94108)
(7.50596e-17 -3.10092e-17 8.58955)
(-5.6644e-16 -8.74229e-16 8.23086)
(1.00066e-15 -1.30756e-15 7.87441)
(-4.59058e-17 1.17991e-15 7.5234)
(6.02517e-17 6.0299e-16 7.18054)
(9.55756e-18 -1.12478e-15 6.85117)
(4.03265e-16 -2.60329e-16 6.5308)
(-1.43192e-18 2.12129e-18 6.21807)
(3.9484e-16 -7.24505e-16 5.91853)
(1.84227e-16 8.89488e-16 5.62481)
(-1.34921e-16 3.0771e-16 5.33901)
(-8.51002e-18 -4.68105e-16 5.06397)
(-5.70604e-17 5.05121e-16 4.79539)
(-1.6844e-16 8.24986e-17 4.54029)
(-2.14984e-17 -2.45647e-17 4.29366)
(2.57218e-16 4.70362e-17 4.06113)
(-4.07638e-17 -2.09541e-16 3.84172)
(-4.5865e-17 8.7449e-19 3.63999)
(-1.38687e-17 4.36015e-17 3.45552)
(7.55659e-18 -1.32217e-16 3.28976)
(1.97269e-17 -3.5852e-17 3.12561)
(2.88001e-17 1.43962e-17 2.96071)
(5.25539e-19 4.77079e-17 2.78482)
(-2.84164e-18 -3.81579e-16 2.59328)
(1.43362e-16 2.24336e-17 2.37357)
(1.85549e-16 6.47417e-16 2.1117)
(-3.45513e-16 9.20944e-17 1.79465)
(1.88643e-16 -1.31701e-16 1.40917)
(-7.66052e-18 -4.2942e-16 0.944623)
(1.79307e-16 8.49981e-17 0.386378)
(1.85398e-16 3.16687e-16 -0.26359)
(5.32649e-18 4.50803e-16 -1.0281)
(-3.54518e-16 -2.343e-16 -1.89437)
(-3.50764e-18 -8.90184e-16 -2.86442)
(-6.67063e-17 3.70706e-18 -3.94385)
(-3.68434e-16 -2.6783e-16 -5.11058)
(3.79261e-16 2.8516e-16 -6.35791)
(5.14695e-16 1.24268e-15 -7.68233)
(-4.66431e-16 -3.12547e-16 -9.05555)
(-1.76589e-17 -1.02526e-15 -10.4584)
(4.25548e-16 3.27261e-16 -11.8891)
(8.8571e-17 1.0687e-15 -13.3166)
(-8.58476e-16 -6.07637e-16 -14.7289)
(3.07132e-16 -3.20955e-16 -16.1118)
(-4.32425e-16 1.00264e-16 -17.4443)
(-4.7476e-16 -6.88532e-16 -18.7228)
(-1.4421e-16 -4.699e-16 -19.9638)
(2.07173e-18 -4.21204e-16 -21.1034)
(3.0326e-16 3.79565e-16 -22.1744)
(1.63578e-16 5.27258e-16 -23.2177)
(9.48683e-16 6.54417e-16 -24.1288)
(-5.54713e-16 2.87008e-16 -24.9597)
(6.69865e-17 3.68844e-17 -25.7889)
(-6.89059e-17 -3.71908e-17 -26.3871)
(1.0872e-16 -3.85222e-17 -26.9607)
(-7.84471e-17 -8.3224e-17 -27.336)
(1.07196e-16 -8.52666e-17 -27.558)
(-1.84445e-16 1.41304e-17 -27.5663)
(4.24758e-16 1.98532e-16 -27.3106)
(-2.40148e-16 2.04999e-18 -26.7156)
(5.71679e-17 -1.67971e-17 -25.8322)
(1.38623e-16 1.15838e-16 -24.4592)
(3.2238e-17 9.06432e-17 -22.8278)
(2.65754e-17 -4.11667e-17 -20.6537)
(0 -0 -18.1372)
(5.87007e-17 -4.20128e-17 -15.3599)
(-6.27763e-17 4.74019e-17 -12.3121)
(-3.02851e-17 1.91377e-16 -9.21381)
(3.7441e-17 9.74989e-17 -6.04066)
(-1.66739e-16 -1.01965e-16 -2.96779)
(-9.32069e-17 -2.5307e-16 -0.0566166)
(1.80727e-16 -7.05186e-17 2.61933)
(-1.87427e-16 1.89011e-16 4.99341)
(2.5327e-16 5.76549e-17 7.03308)
(-3.62201e-16 1.95862e-16 8.66792)
(7.66944e-17 3.11138e-16 9.70807)
(-2.37331e-16 1.50364e-16 9.90634)
(2.28793e-16 -7.16367e-16 9.52421)
(-1.83009e-16 1.42366e-16 9.00861)
(4.51509e-17 9.05266e-17 8.29992)
(-3.15064e-17 7.34476e-18 7.42092)
(-2.92838e-17 4.50374e-18 6.44098)
(-2.78016e-17 2.30989e-18 5.35769)
(2.71913e-17 1.93355e-17 4.10651)
(-2.18042e-17 2.44897e-18 2.62639)
(-1.40315e-18 -2.09968e-17 1.09073)
(-2.56072e-18 -1.85482e-17 -0.309691)
(2.20057e-17 -1.19468e-18 -1.49487)
(4.79106e-18 3.53759e-17 -2.43895)
(3.47461e-20 -1.59977e-17 -3.15066)
(-4.19657e-18 -1.70338e-17 -3.65827)
(2.71579e-18 1.6655e-17 -4.00065)
(-1.84848e-17 -5.49101e-19 -4.21792)
(3.37581e-17 -1.36101e-17 -4.35216)
(-1.75309e-17 1.32266e-17 -4.44058)
(3.01278e-18 1.41012e-17 -4.50955)
(-9.38214e-19 -1.36647e-17 -4.57821)
(-8.33185e-18 -5.24731e-18 -4.65847)
(1.33985e-17 6.2195e-20 -4.75582)
(1.04139e-18 1.04851e-17 -4.87055)
(-6.84139e-20 -1.55388e-19 -4.99718)
(-5.37241e-18 -5.2565e-18 -5.12656)
(-5.02609e-18 -1.49922e-20 -5.24888)
(5.59597e-18 1.66921e-20 -5.35446)
(-4.78164e-18 2.03913e-19 -5.43452)
(8.08169e-18 -1.07472e-19 -5.48224)
(-5.12751e-18 -2.3299e-19 -5.49477)
(1.73174e-18 5.16556e-21 -5.47164)
(3.91091e-19 1.05487e-18 -5.41572)
(-1.16849e-18 -1.02062e-18 -5.33094)
(3.71409e-19 -1.08494e-18 -5.22138)
(1.03766e-18 1.13686e-18 -5.09251)
(-1.39177e-19 1.05531e-19 -4.95039)
(9.42803e-20 -1.87333e-19 -4.80096)
(1.56755e-19 -3.17757e-19 -4.64678)
(7.99327e-20 1.22087e-19 -4.47407)
(2.34917e-20 7.50449e-20 -4.29001)
(0 -0 3.66906)
(-2.22716e-20 -0 -6.57415)
(2.56733e-19 1.25578e-17 -13.8268)
(2.14779e-18 -2.90788e-17 -17.0992)
(-1.68258e-17 6.91292e-18 -18.3191)
(1.45718e-17 2.27634e-17 -18.3781)
(-3.24895e-19 1.38528e-17 -17.9022)
(1.03516e-18 -3.15864e-17 -17.2495)
(2.61817e-17 4.64023e-18 -16.5741)
(-2.42916e-17 -3.82548e-18 -15.9361)
(-5.38517e-17 -7.92124e-17 -15.3579)
(1.0958e-16 8.94377e-17 -14.8461)
(-7.71822e-18 1.04476e-16 -14.3983)
(-5.23937e-17 -6.14171e-17 -14.0079)
(7.15459e-18 -1.65745e-16 -13.6672)
(5.1501e-17 6.60313e-17 -13.368)
(-5.70014e-17 1.05531e-16 -13.1025)
(1.52326e-19 -5.53382e-17 -12.863)
(0 -0 -12.6428)
(0 -0 -12.4357)
(0 -0 -12.2361)
(0 -0 -12.0391)
(0 -0 -11.8404)
(2.1788e-16 -0 -11.6363)
(-3.28143e-16 -0 -11.423)
(1.09977e-16 -0 -11.1972)
(0 -0 -10.9556)
(0 -0 -10.6947)
(0 -0 -10.4107)
(9.35572e-18 -1.05706e-16 -10.0989)
(-8.90686e-19 5.54117e-18 -9.75403)
(-2.97533e-17 3.16473e-16 -9.36943)
(9.87636e-18 -1.01676e-16 -8.93844)
(1.15284e-16 -3.13504e-16 -8.41933)
(6.06278e-17 4.15132e-16 -7.88463)
(-2.65418e-16 -3.82087e-16 -7.52225)
(-7.92824e-16 -6.04898e-16 -7.43675)
(-6.51211e-17 1.57202e-15 -7.65716)
(4.05063e-16 5.40312e-16 -8.20626)
(-8.39723e-16 -1.67296e-15 -9.12538)
(2.43057e-16 -9.60685e-17 -10.5139)
(7.05206e-16 1.22563e-15 -12.2155)
(6.52897e-17 -1.56054e-16 -14.0711)
(-8.75024e-18 1.95158e-16 -16.0002)
(1.24594e-15 -5.86444e-16 -17.8975)
(-1.0998e-15 -1.34635e-15 -19.7516)
(-2.07646e-15 -8.59004e-17 -21.5505)
(-8.97853e-16 -9.67285e-16 -23.2256)
(-1.10862e-15 -4.88871e-16 -24.8253)
(-5.55018e-16 1.87558e-16 -26.282)
(1.59413e-15 6.1433e-16 -27.5868)
(3.40437e-17 -4.19427e-16 -28.7528)
(-5.62422e-16 -4.3559e-16 -29.6944)
(5.09381e-16 6.91064e-16 -30.4644)
(-5.79694e-16 2.74131e-16 -30.9638)
(-5.87398e-16 1.29161e-16 -31.2247)
(-3.43474e-16 -4.52091e-17 -31.1962)
(-1.30784e-16 -1.06946e-16 -30.8445)
(7.86582e-17 -1.00903e-16 -30.2012)
(7.76051e-17 -9.57772e-17 -29.1969)
(4.56513e-17 2.23049e-16 -27.8851)
(2.86756e-16 -2.06985e-16 -26.276)
(-2.26028e-16 -3.20402e-16 -24.429)
(2.00974e-16 -5.32787e-16 -22.4098)
(-1.54872e-16 2.31599e-16 -20.2835)
(-5.76237e-18 1.15689e-15 -18.1165)
(-2.60655e-16 7.95523e-17 -15.983)
(3.12116e-16 -6.50867e-16 -13.9266)
(3.22609e-16 5.80622e-17 -12.0071)
(-8.90794e-16 3.51837e-16 -10.2439)
(2.45557e-17 -1.12906e-16 -8.66684)
(1.28889e-15 -6.76755e-16 -7.27402)
(-7.43094e-16 -3.87299e-16 -6.06577)
(5.15543e-17 -8.57232e-16 -5.04653)
(-9.48816e-16 1.43356e-15 -4.19035)
(-1.44934e-16 8.52926e-16 -3.48943)
(2.24379e-16 -1.40445e-16 -2.92781)
(3.57744e-17 -7.27324e-16 -2.47831)
(6.77131e-16 1.11268e-16 -2.12753)
(1.41001e-15 -9.11276e-16 -1.85932)
(-1.82946e-15 -2.03808e-16 -1.6538)
(-2.14149e-16 8.2896e-16 -1.49774)
(6.33139e-16 -4.22112e-16 -1.37987)
(-1.2032e-16 6.29091e-16 -1.28944)
(2.43277e-17 9.86889e-17 -1.2207)
(-1.0356e-15 6.3884e-16 -1.1672)
(-4.51022e-16 3.85868e-16 -1.12376)
(-5.91424e-16 -3.44094e-16 -1.09322)
(-4.58919e-16 9.13664e-16 -1.07296)
(-9.01627e-16 5.71409e-16 -1.05762)
(-2.83576e-19 -1.79979e-17 -1.05412)
(-3.99984e-16 4.95782e-16 -1.05962)
(-1.58038e-16 -1.82619e-16 -1.07057)
(3.64111e-16 -2.17817e-16 -1.09244)
(-1.64446e-16 4.44682e-16 -1.1207)
(-6.5462e-18 -2.37639e-16 -1.15697)
(3.59003e-16 -1.92914e-16 -1.20068)
(-1.75476e-16 -4.46826e-16 -1.25048)
(-2.09363e-17 -1.11322e-16 -1.30778)
(9.24107e-17 5.7107e-16 -1.37151)
(4.68873e-17 -2.59527e-17 -1.44515)
(5.39691e-17 -1.15383e-16 -1.52573)
(2.37138e-17 8.91739e-17 -1.62145)
(-2.02231e-17 1.18879e-17 -1.73207)
(-3.89686e-17 1.02907e-17 -1.86369)
(-8.45499e-17 -2.33185e-17 -2.0207)
(1.5562e-18 2.08969e-16 -2.20473)
(-4.8297e-16 -3.22021e-16 -2.42677)
(-7.9556e-18 1.4383e-17 -2.686)
(3.27518e-16 -1.23964e-16 -2.99113)
(-5.07157e-18 -2.16584e-16 -3.34776)
(1.2969e-17 4.49882e-16 -3.76032)
(-1.75289e-16 -3.13552e-16 -4.23702)
(-1.73586e-16 -7.25798e-17 -4.77524)
(1.77318e-16 3.3016e-16 -5.38947)
(3.54111e-16 2.04973e-16 -6.07072)
(-1.33405e-17 4.87233e-16 -6.82571)
(5.30641e-17 4.50327e-16 -7.65466)
(3.62067e-16 -3.93119e-16 -8.54721)
(-7.57019e-16 -1.52732e-15 -9.50721)
(3.48489e-16 4.05538e-16 -10.5288)
(4.4123e-16 7.84914e-16 -11.5963)
(-3.51476e-16 -2.86632e-16 -12.7062)
(-5.00166e-16 -3.67032e-16 -13.8537)
(-4.11188e-16 1.9399e-16 -15.0173)
(1.43109e-15 4.00815e-16 -16.1947)
(-5.2173e-16 -7.23628e-17 -17.3727)
(4.94171e-16 4.65916e-16 -18.538)
(1.05181e-16 -5.01718e-17 -19.6878)
(-8.97659e-16 -7.35194e-16 -20.82)
(-3.9188e-16 -2.12565e-16 -21.8972)
(-8.67055e-16 -7.97737e-16 -22.9502)
(-5.98215e-16 -1.22369e-15 -23.9759)
(-1.10198e-15 1.62351e-16 -24.9135)
(1.87814e-16 2.84568e-16 -25.8245)
(-1.34466e-16 -4.4383e-16 -26.7029)
(-1.75651e-16 -1.22679e-16 -27.4404)
(-4.28111e-17 -8.38093e-17 -28.1822)
(7.81853e-17 4.14858e-18 -28.7764)
(-1.08165e-16 1.89434e-16 -29.2951)
(7.18583e-17 -2.89758e-16 -29.6828)
(-1.95677e-16 1.34725e-16 -29.9204)
(-5.52046e-17 1.17744e-16 -29.9783)
(-3.55504e-17 -2.04466e-16 -29.8573)
(6.23203e-17 -8.8135e-17 -29.459)
(5.25714e-17 -5.66338e-17 -28.8804)
(-1.16908e-16 5.78105e-17 -27.932)
(7.30422e-17 -2.11235e-17 -26.7397)
(-4.69743e-17 1.17255e-16 -25.2326)
(1.20136e-16 -2.61503e-17 -23.435)
(7.62931e-17 -2.63535e-16 -21.4354)
(-3.3526e-18 3.94622e-17 -19.2063)
(-3.20245e-17 2.22232e-16 -16.8888)
(1.07471e-16 -7.29273e-19 -14.4853)
(-4.14182e-16 2.74081e-16 -12.1314)
(1.72912e-16 -2.46604e-16 -9.84476)
(-4.82817e-18 -3.02883e-17 -7.72706)
(3.91685e-16 -3.60072e-17 -5.84336)
(-1.30927e-16 -3.61967e-16 -4.32742)
(6.74692e-16 -6.14667e-16 -3.25807)
(-2.2236e-16 6.00365e-16 -2.96064)
(2.3252e-17 1.88854e-16 -3.12266)
(2.67336e-18 -2.45346e-16 -3.42228)
(7.24666e-17 4.39323e-17 -3.82127)
(-5.28337e-19 2.12177e-18 -4.32194)
(4.96464e-17 -5.0122e-17 -4.93631)
(-5.35303e-17 -2.74855e-17 -5.68281)
(2.53186e-17 2.12047e-17 -6.54175)
(3.53811e-19 2.73451e-18 -7.38197)
(1.39499e-18 -4.17858e-19 -8.1571)
(2.94123e-19 -2.43641e-18 -8.85076)
(-2.95943e-18 -1.75256e-17 -9.45367)
(2.18365e-17 2.64261e-17 -9.96112)
(-1.72661e-17 9.72222e-18 -10.377)
(-8.88079e-19 -2.30868e-18 -10.7115)
(-2.18235e-17 -3.57961e-17 -10.979)
(1.92875e-17 2.74416e-17 -11.1956)
(1.04177e-18 3.22221e-19 -11.377)
(-2.94568e-18 -2.17766e-17 -11.536)
(1.51782e-18 2.24653e-17 -11.6822)
(4.25609e-19 -1.12252e-17 -11.8214)
(-6.40292e-18 -3.85154e-18 -11.9563)
(5.5491e-18 2.25376e-18 -12.0868)
(5.88657e-18 9.32531e-18 -12.2104)
(-5.59773e-18 6.47115e-18 -12.3233)
(-1.67988e-18 -1.37636e-17 -12.4211)
(-5.50445e-19 4.85638e-18 -12.4994)
(4.23354e-19 -7.65004e-18 -12.5543)
(2.44368e-19 9.00859e-18 -12.5829)
(-2.04762e-19 4.0266e-19 -12.584)
(-1.60952e-18 -2.8466e-18 -12.5577)
(1.13392e-18 2.45013e-18 -12.5065)
(2.28935e-18 1.02818e-18 -12.4333)
(-2.5119e-18 -2.14262e-18 -12.3423)
(-4.26072e-20 1.40341e-18 -12.2384)
(-1.13218e-19 5.87241e-19 -12.1257)
(-8.6903e-20 9.29509e-19 -12.008)
(-2.36625e-19 3.1102e-19 -11.8884)
(-2.96956e-21 -2.1586e-20 -11.7664)
(-3.90464e-20 7.5228e-19 -11.6593)
(1.79847e-20 -6.09599e-18 5.9271)
(-4.65561e-19 8.18105e-18 2.70755)
(2.87772e-19 1.5939e-17 -1.54285)
(1.70898e-18 -2.24881e-17 -5.42127)
(-1.5493e-17 -7.63427e-18 -8.50206)
(1.38732e-17 1.20984e-17 -10.7533)
(0 -0 -12.1738)
(2.94403e-17 -2.50768e-17 -13.0468)
(-3.12759e-17 5.75322e-17 -13.5292)
(2.91372e-17 3.69181e-17 -13.7456)
(-2.6078e-17 -1.07904e-16 -13.7984)
(-6.15008e-18 -6.39235e-17 -13.7526)
(3.47559e-18 1.14411e-16 -13.648)
(1.09087e-16 3.95525e-17 -13.5108)
(-9.88556e-17 -1.02776e-16 -13.3595)
(-7.18336e-17 1.13347e-16 -13.2057)
(1.11336e-16 -2.11961e-17 -13.0563)
(-4.67064e-17 -9.22764e-17 -12.915)
(-2.72918e-18 5.13927e-17 -12.7835)
(0 -0 -12.6614)
(-1.01811e-16 -0 -12.5473)
(1.02077e-16 -0 -12.4388)
(6.83625e-18 -1.00747e-16 -12.3332)
(9.3135e-17 1.18868e-16 -12.2275)
(-1.07677e-16 8.28931e-17 -12.119)
(7.45039e-18 -1.01014e-16 -12.0045)
(0 -0 -11.8813)
(-9.99458e-17 -0 -11.7463)
(5.3549e-19 -0 -11.596)
(1.08858e-16 -9.92788e-17 -11.4266)
(-2.36607e-17 1.13619e-16 -11.233)
(-2.06548e-16 8.53815e-17 -11.0082)
(3.3421e-16 -9.35035e-17 -10.7466)
(-1.91875e-16 2.54955e-19 -10.4404)
(9.08011e-18 -2.07202e-16 -10.0914)
(3.90844e-16 4.77064e-16 -9.72937)
(-5.63306e-16 3.08818e-17 -9.42138)
(-2.78308e-16 -1.37649e-15 -9.28317)
(5.94379e-16 4.24775e-16 -9.37897)
(1.48968e-16 9.19328e-16 -9.72912)
(8.31568e-17 1.95514e-16 -10.344)
(1.14412e-15 -1.07623e-16 -11.1179)
(-3.06413e-16 -8.5947e-17 -12.0601)
(-8.47781e-16 -6.08178e-16 -13.1552)
(1.01066e-15 1.89318e-15 -14.3308)
(-1.22248e-15 9.27381e-16 -15.5645)
(7.29484e-16 -8.88155e-16 -16.8219)
(4.21326e-17 -4.8931e-16 -18.0724)
(8.48745e-17 -2.08502e-16 -19.3329)
(3.73696e-17 -1.2397e-15 -20.548)
(-6.46501e-16 1.67658e-16 -21.7253)
(-1.54176e-16 1.11708e-15 -22.8605)
(7.14679e-17 3.02207e-16 -23.9302)
(-5.70027e-17 -2.79236e-16 -24.948)
(6.03299e-16 -3.64082e-16 -25.8799)
(2.95857e-16 -2.28739e-16 -26.7328)
(3.98563e-16 -1.65767e-16 -27.4687)
(3.88918e-17 -2.71316e-16 -28.0789)
(9.9813e-17 -1.30429e-16 -28.517)
(-1.42261e-16 8.39884e-17 -28.7698)
(-5.05898e-17 -1.12026e-16 -28.7951)
(2.85211e-16 2.15996e-16 -28.5528)
(-4.31413e-16 1.98713e-16 -28.0499)
(-3.68555e-16 6.60539e-16 -27.2728)
(-5.23218e-17 -2.52263e-16 -26.2713)
(4.26998e-16 -7.95033e-16 -25.0601)
(8.44086e-16 -4.43216e-16 -23.7202)
(-1.25225e-16 -1.96809e-17 -22.2828)
(-2.18525e-17 2.09535e-16 -20.8223)
(6.03145e-16 -4.07114e-16 -19.3705)
(-5.84476e-18 -1.21022e-15 -17.9622)
(-1.05211e-15 1.47378e-15 -16.6361)
(8.39856e-16 5.33082e-16 -15.3907)
(-1.73491e-15 1.25685e-15 -14.2502)
(-8.27442e-16 6.10589e-16 -13.2099)
(1.60061e-16 -1.77524e-15 -12.2617)
(-7.01117e-16 4.40971e-16 -11.4043)
(-5.6104e-17 1.05299e-16 -10.6241)
(-1.30187e-15 -5.8371e-16 -9.90985)
(-1.55909e-16 2.2428e-15 -9.25628)
(-6.97967e-16 2.76758e-15 -8.65448)
(3.54381e-17 -2.16142e-15 -8.0953)
(-5.53324e-16 3.39356e-16 -7.5754)
(-5.76298e-16 1.19604e-15 -7.0907)
(5.38253e-16 -4.10811e-16 -6.6375)
(-1.04558e-15 7.58424e-16 -6.21654)
(1.55282e-15 -4.08195e-16 -5.82539)
(1.05715e-15 -3.80318e-17 -5.46092)
(4.9123e-16 -9.26191e-16 -5.12807)
(-6.21564e-18 -5.4994e-16 -4.82213)
(-9.52004e-18 -6.04217e-16 -4.54099)
(-1.95221e-17 -2.63883e-16 -4.28974)
(2.13757e-16 -1.31682e-16 -4.06414)
(-2.20032e-16 3.4071e-16 -3.86135)
(-7.73012e-18 2.97904e-17 -3.6893)
(6.70683e-17 -2.34051e-16 -3.5361)
(-2.2608e-17 1.94598e-16 -3.41378)
(9.94413e-18 4.36193e-16 -3.31021)
(-5.82001e-16 -3.84715e-17 -3.23597)
(-4.95456e-17 -2.91533e-16 -3.18042)
(4.20972e-17 1.37622e-17 -3.15353)
(-6.15827e-17 7.57338e-17 -3.14705)
(-2.78981e-19 -3.94202e-17 -3.16743)
(4.4187e-19 3.91957e-17 -3.21279)
(1.10353e-18 9.03154e-17 -3.28298)
(7.99673e-17 5.24665e-18 -3.38109)
(8.68123e-17 1.1826e-16 -3.50531)
(3.24409e-16 6.00573e-17 -3.6593)
(-4.98642e-16 -5.39574e-16 -3.84369)
(3.40019e-16 3.30692e-16 -4.06018)
(-3.49804e-16 5.72213e-17 -4.31118)
(3.83671e-18 -2.1433e-16 -4.59883)
(-9.12326e-18 2.2035e-16 -4.92759)
(-1.14953e-17 -2.74335e-16 -5.29593)
(-2.48457e-17 -1.81281e-16 -5.71578)
(2.95764e-18 2.40169e-16 -6.1771)
(-1.55529e-16 -5.55368e-16 -6.69387)
(-1.93075e-16 -3.76863e-16 -7.2645)
(7.08239e-16 1.44523e-15 -7.88474)
(4.22327e-16 4.54247e-17 -8.56317)
(-9.35702e-16 -8.42611e-16 -9.29623)
(-2.3505e-16 7.54276e-16 -10.0761)
(4.07551e-16 9.09129e-17 -10.9063)
(4.71271e-16 3.63371e-16 -11.783)
(3.96769e-16 -1.18828e-15 -12.6919)
(9.90869e-17 7.42049e-16 -13.6338)
(-1.66168e-16 2.25829e-16 -14.5984)
(3.98309e-16 3.25868e-16 -15.5758)
(6.99905e-16 1.09468e-15 -16.5612)
(1.0826e-15 1.68335e-16 -17.5472)
(4.85702e-16 -5.61277e-16 -18.5103)
(5.29514e-16 3.32381e-16 -19.4689)
(6.85365e-16 4.03215e-16 -20.4099)
(-3.89143e-16 -1.0689e-15 -21.2926)
(6.2107e-16 -2.54177e-17 -22.1648)
(4.62699e-17 1.72769e-16 -23.0021)
(1.49882e-16 -1.33038e-16 -23.7531)
(2.49847e-16 -2.26012e-16 -24.5115)
(-1.11135e-17 5.24732e-17 -25.1767)
(2.30825e-16 -1.05736e-16 -25.8064)
(-2.78992e-16 1.69352e-16 -26.3726)
(-8.16088e-16 -3.40246e-17 -26.8729)
(9.38603e-17 -6.25173e-17 -27.3047)
(-4.19044e-17 -1.22448e-16 -27.663)
(9.86587e-17 2.59883e-16 -27.9105)
(-2.70665e-17 2.46146e-16 -28.0841)
(-6.11404e-17 -1.43578e-16 -28.0778)
(8.6251e-17 1.55479e-17 -27.9494)
(-1.28637e-16 -8.61009e-17 -27.5984)
(2.21966e-16 -1.49943e-17 -27.0224)
(-6.18052e-17 3.30272e-16 -26.2175)
(-2.12109e-16 1.96117e-16 -25.1349)
(1.37786e-16 -4.29832e-16 -23.8496)
(-3.39048e-17 5.02534e-17 -22.3369)
(1.58398e-16 -2.53776e-16 -20.6984)
(2.15302e-16 -2.99043e-16 -18.9422)
(-3.98959e-16 1.89082e-16 -17.1626)
(2.17258e-16 -4.14712e-17 -15.4164)
(1.48651e-18 -2.15425e-19 -13.8306)
(-4.81325e-16 3.6728e-16 -12.5263)
(-1.6208e-16 1.41743e-16 -11.6885)
(2.82625e-16 -2.81384e-16 -11.2069)
(-2.68072e-17 4.04935e-17 -10.8736)
(-1.99993e-17 4.03267e-17 -10.5996)
(3.12971e-17 1.09181e-18 -10.3875)
(3.75767e-17 4.31504e-17 -10.2589)
(2.01111e-19 3.96968e-17 -10.2166)
(-2.81882e-17 -4.6502e-17 -10.2645)
(-2.24472e-17 -4.84997e-18 -10.3902)
(-1.74597e-18 -1.98997e-17 -10.5799)
(2.36015e-17 1.51254e-17 -10.823)
(-2.08647e-18 1.85806e-17 -11.1048)
(-4.00854e-17 -2.46901e-18 -11.4049)
(4.0989e-17 1.99333e-18 -11.7031)
(1.80448e-18 1.72755e-17 -11.983)
(1.89405e-17 -3.64592e-17 -12.2345)
(-3.70203e-17 -1.31388e-17 -12.4529)
(2.18679e-17 4.79498e-17 -12.638)
(-2.13873e-18 -4.51837e-18 -12.7925)
(-1.04264e-18 -1.52239e-17 -12.9201)
(9.63392e-18 8.62513e-19 -13.0258)
(-7.71707e-18 -3.81534e-18 -13.114)
(-2.10477e-18 8.79327e-18 -13.1885)
(-1.04412e-17 1.00069e-17 -13.2524)
(1.0113e-17 -9.40635e-18 -13.3075)
(5.90521e-18 -7.88963e-18 -13.3544)
(-6.72965e-18 -2.46165e-18 -13.3929)
(4.78243e-18 4.00448e-19 -13.4215)
(-4.94916e-18 8.31651e-19 -13.4385)
(1.83168e-18 4.40949e-19 -13.442)
(-2.44833e-18 -6.28601e-18 -13.4306)
(-1.66039e-18 1.63615e-18 -13.4027)
(1.1738e-18 7.07235e-18 -13.3582)
(-3.60088e-20 -4.62389e-18 -13.2982)
(-1.54988e-19 -1.05277e-18 -13.2242)
(4.20648e-19 -1.16114e-18 -13.1385)
(-7.43422e-20 -2.43226e-18 -13.0436)
(-1.25921e-19 -1.48959e-18 -12.942)
(-2.0591e-19 1.06718e-18 -12.8342)
(-5.55087e-21 -6.83475e-19 -12.719)
(0 -0 3.65538)
(-6.4934e-18 -0 3.44461)
(6.31181e-18 1.20149e-17 2.37331)
(7.91026e-19 -1.65384e-17 0.533595)
(-7.33449e-19 -7.43865e-18 -1.41557)
(-1.76455e-19 1.19621e-17 -3.27873)
(-2.50898e-17 -0 -5.00708)
(2.50745e-17 -0 -6.44442)
(-1.8149e-18 -0 -7.56342)
(4.13001e-18 -0 -8.37762)
(5.34448e-17 -4.8255e-17 -8.97742)
(-5.75293e-17 6.51899e-17 -9.40647)
(-5.31752e-17 -1.67643e-17 -9.69356)
(2.30029e-18 6.44306e-17 -9.87917)
(2.0314e-18 -3.17586e-17 -9.99331)
(5.03051e-17 -1.2989e-16 -10.0581)
(5.44427e-17 1.12277e-16 -10.0894)
(-5.65536e-17 3.3333e-17 -10.0996)
(2.57891e-18 -4.8563e-17 -10.098)
(-5.46654e-17 9.60237e-17 -10.0913)
(5.61384e-17 -1.24533e-16 -10.0835)
(4.88644e-18 -6.77652e-17 -10.0765)
(2.14682e-19 1.02203e-18 -10.0707)
(-1.84306e-17 1.22396e-16 -10.0655)
(-9.14592e-17 6.83501e-17 -10.0598)
(1.03715e-16 -9.54943e-17 -10.0523)
(8.8342e-17 9.42641e-17 -10.0414)
(9.64642e-19 -2.52446e-17 -10.0254)
(-1.7509e-16 -1.87994e-16 -10.0027)
(1.02236e-16 -6.91408e-17 -9.97111)
(-3.82772e-17 3.04723e-16 -9.92818)
(1.09699e-16 -4.4639e-17 -9.87002)
(-8.76208e-17 -7.83039e-17 -9.79439)
(-8.51903e-17 -1.84215e-17 -9.70938)
(1.11309e-16 -1.60098e-16 -9.58139)
(-2.35216e-16 1.80503e-16 -9.35264)
(7.69458e-16 5.52076e-16 -9.04249)
(7.43589e-16 5.56206e-16 -8.76348)
(-8.09253e-16 -6.70828e-16 -8.596)
(-3.23099e-16 -7.99716e-16 -8.56666)
(8.86365e-17 -1.01266e-15 -8.67166)
(-1.01895e-15 8.79713e-16 -8.86785)
(-1.24604e-16 1.45212e-15 -9.20757)
(1.10525e-15 -1.02631e-15 -9.6936)
(-4.81911e-16 -1.01769e-15 -10.2909)
(9.50011e-16 2.12193e-16 -10.98)
(4.9318e-16 4.17027e-16 -11.7256)
(3.9102e-16 2.12671e-16 -12.5276)
(4.52363e-16 5.50681e-16 -13.3736)
(4.1093e-16 9.98095e-16 -14.2262)
(-9.47426e-16 -6.62056e-16 -15.1122)
(5.59505e-16 -6.92579e-16 -16.0093)
(-1.64257e-16 -3.67216e-17 -16.9223)
(5.99958e-16 5.12925e-16 -17.8505)
(-3.08823e-17 4.07129e-16 -18.8024)
(-3.61018e-17 4.73679e-16 -19.7748)
(4.4202e-16 2.94547e-16 -20.7558)
(1.36764e-16 6.33175e-17 -21.753)
(-6.78332e-18 -1.1057e-17 -22.7095)
(-7.11043e-17 -5.28902e-17 -23.6507)
(1.28986e-16 -1.12439e-16 -24.4961)
(-2.91953e-16 1.64661e-16 -25.2092)
(3.88544e-16 -2.10167e-16 -25.7543)
(-1.41159e-16 -7.49487e-16 -26.0718)
(8.28858e-16 -1.97891e-16 -26.1789)
(-5.9635e-16 9.53846e-16 -26.022)
(2.11891e-16 3.26615e-16 -25.663)
(-1.41545e-16 1.46938e-16 -25.0804)
(4.757e-16 -5.7755e-16 -24.3443)
(-2.56857e-16 2.98304e-16 -23.4752)
(-2.42497e-16 1.34984e-15 -22.5087)
(-7.84445e-16 -6.69461e-16 -21.5028)
(7.03426e-16 -2.97839e-16 -20.4528)
(-5.4916e-17 7.85457e-16 -19.4022)
(9.20809e-16 -1.37055e-15 -18.3622)
(-3.51801e-17 6.92039e-16 -17.3346)
(-7.69964e-16 5.65455e-16 -16.3341)
(-4.47645e-17 6.32725e-17 -15.3633)
(-1.43022e-15 1.57407e-15 -14.4185)
(-1.32058e-15 1.8069e-16 -13.5043)
(2.52596e-15 -3.21336e-15 -12.6238)
(6.4484e-16 2.50965e-16 -11.7754)
(-6.64455e-16 1.14799e-15 -10.9638)
(6.31787e-16 -1.09352e-15 -10.1921)
(-3.28351e-18 6.67903e-16 -9.46035)
(1.03914e-15 -2.04169e-15 -8.77474)
(-9.89243e-16 -1.94455e-15 -8.13736)
(3.00767e-16 4.54591e-16 -7.54288)
(4.62349e-16 1.62203e-15 -6.9997)
(1.38884e-15 -2.04435e-16 -6.50489)
(2.22235e-16 -1.22019e-16 -6.05228)
(-1.38713e-17 -1.0465e-17 -5.648)
(-2.24435e-16 9.38674e-17 -5.28911)
(3.19888e-17 2.64118e-16 -4.96804)
(3.62791e-16 -1.89109e-16 -4.69565)
(1.89724e-17 -2.32175e-16 -4.45608)
(-1.88019e-16 9.60437e-17 -4.26187)
(5.69315e-16 2.15069e-17 -4.09767)
(3.06993e-16 -1.12739e-16 -3.9731)
(1.85115e-17 -1.74366e-16 -3.87366)
(-8.78118e-17 1.29073e-17 -3.80722)
(8.3741e-17 -6.05365e-17 -3.76249)
(-5.17892e-17 1.70612e-17 -3.74183)
(1.09626e-18 1.33123e-17 -3.74148)
(-1.1123e-18 -8.81519e-17 -3.75776)
(1.73445e-16 -9.349e-17 -3.79253)
(1.61174e-18 -7.94605e-17 -3.8414)
(1.69568e-16 5.60014e-16 -3.90633)
(1.51396e-16 -9.21116e-18 -3.98643)
(-3.16124e-16 -4.76807e-16 -4.08273)
(1.61995e-17 2.00845e-16 -4.19643)
(-5.44587e-18 1.20929e-17 -4.32954)
(-1.36992e-18 -2.02657e-16 -4.48516)
(1.60093e-16 1.29502e-16 -4.66368)
(-3.19681e-16 6.77486e-17 -4.87419)
(-7.20262e-18 1.66216e-16 -5.11131)
(5.32204e-16 8.56732e-16 -5.38706)
(-1.34403e-16 -9.74872e-16 -5.70233)
(-8.02276e-16 -1.33233e-15 -6.05688)
(3.19216e-16 1.29864e-15 -6.45934)
(-5.95876e-16 2.1587e-16 -6.90979)
(7.558e-16 -6.98424e-16 -7.40556)
(1.96299e-16 -5.05602e-16 -7.95185)
(-7.95168e-17 3.78252e-16 -8.54731)
(2.84848e-16 1.04633e-15 -9.18401)
(-1.24289e-15 -4.37657e-16 -9.86312)
(6.34241e-17 4.84319e-17 -10.5777)
(-3.63273e-16 -6.67403e-16 -11.3206)
(2.78298e-17 7.49262e-17 -12.0865)
(3.20953e-16 7.66351e-16 -12.8662)
(5.69638e-17 8.5683e-16 -13.6468)
(4.44875e-17 -6.20366e-17 -14.4343)
(1.81581e-16 7.1376e-16 -15.2139)
(5.56784e-16 5.6909e-16 -15.9592)
(-1.16049e-16 7.45207e-17 -16.7015)
(5.40745e-17 2.49054e-16 -17.4156)
(4.62616e-16 -2.24906e-17 -18.0812)
(-5.54729e-17 3.59735e-16 -18.7483)
(-9.45563e-17 -1.00097e-16 -19.3656)
(-2.35547e-16 6.59872e-16 -19.968)
(3.90347e-17 -8.17287e-17 -20.5484)
(4.77735e-16 -6.71996e-16 -21.113)
(1.88992e-16 -6.14882e-16 -21.6737)
(-2.14597e-16 -2.46308e-16 -22.2313)
(-3.27548e-16 5.42027e-17 -22.7846)
(-1.01159e-16 5.40681e-17 -23.3449)
(1.14586e-16 -9.67065e-17 -23.8752)
(-8.07206e-17 1.31875e-16 -24.3919)
(6.13177e-17 -7.17826e-17 -24.8217)
(-2.65563e-16 1.96944e-16 -25.1436)
(-4.86932e-17 -7.14493e-18 -25.3175)
(2.76696e-16 -3.07255e-16 -25.2886)
(1.12279e-16 2.2085e-16 -25.055)
(-1.06806e-16 -1.04798e-17 -24.5691)
(2.48367e-16 -8.70428e-17 -23.8617)
(-1.0676e-16 3.91426e-16 -22.9303)
(2.00816e-16 -2.49495e-16 -21.8306)
(-3.06848e-16 -5.91084e-18 -20.5862)
(3.16362e-17 1.90212e-16 -19.2877)
(-2.02512e-17 -1.42946e-17 -18.0651)
(1.61844e-16 -2.28737e-16 -16.9695)
(-1.41607e-16 4.69722e-17 -15.9718)
(-2.86314e-17 6.06546e-17 -15.0901)
(-1.27968e-16 1.71313e-17 -14.2463)
(2.05507e-17 -5.5549e-17 -13.4356)
(-3.48845e-17 -2.41271e-17 -12.6926)
(8.27291e-17 3.3124e-17 -12.0244)
(-2.04542e-18 2.79912e-17 -11.4706)
(-1.22563e-17 -3.59647e-17 -11.0578)
(-2.36821e-17 -4.24182e-17 -10.7844)
(5.90964e-18 2.16375e-17 -10.6415)
(6.59837e-18 3.08236e-17 -10.6149)
(1.29411e-18 -4.29653e-17 -10.6806)
(-1.24786e-18 6.75005e-18 -10.8091)
(-3.68499e-18 1.7903e-17 -10.9709)
(3.92844e-17 5.00001e-18 -11.1408)
(-3.26029e-17 1.44304e-17 -11.2993)
(-1.69799e-17 -4.03362e-17 -11.4334)
(1.25418e-17 1.4351e-17 -11.5363)
(4.02472e-18 1.15076e-17 -11.606)
(-8.26478e-18 3.90933e-18 -11.6447)
(6.05756e-18 2.74578e-18 -11.6573)
(-8.80813e-19 5.05817e-19 -11.6505)
(-5.0316e-18 -2.03324e-17 -11.6313)
(1.08305e-17 8.93275e-18 -11.6063)
(-6.55578e-19 8.51189e-18 -11.5809)
(1.56287e-18 -3.15273e-18 -11.5591)
(1.16106e-18 -3.98652e-18 -11.5425)
(-3.10971e-18 1.78894e-17 -11.531)
(3.82503e-18 -1.10764e-17 -11.5229)
(3.53853e-18 -6.12008e-18 -11.5154)
(-3.39705e-18 -9.15977e-18 -11.5049)
(9.0202e-19 7.08363e-18 -11.4876)
(1.37668e-18 -6.96249e-18 -11.4607)
(-2.34532e-19 6.09603e-18 -11.422)
(-7.43983e-19 3.55162e-18 -11.3707)
(5.13551e-19 3.95515e-18 -11.3069)
(1.22669e-19 -1.38452e-18 -11.2315)
(-3.93555e-20 -5.78697e-18 -11.1448)
(9.82095e-20 -1.70185e-19 -11.0213)
(0 -0 2.24414)
(0 -0 2.60262)
(-1.08182e-19 1.22229e-17 2.56666)
(4.17107e-19 -1.65987e-17 2.10615)
(-2.02487e-19 -7.7343e-18 1.38361)
(-5.98687e-19 3.58397e-17 0.504237)
(-2.35913e-17 -3.33693e-17 -0.538866)
(5.01462e-17 -3.76222e-17 -1.5678)
(-2.79237e-17 8.05964e-17 -2.52201)
(2.0677e-18 -1.95539e-17 -3.38388)
(4.4697e-19 -3.73657e-17 -4.13002)
(-5.20238e-17 2.35852e-17 -4.78621)
(9.879e-17 4.68589e-17 -5.27679)
(-9.93134e-17 -1.91002e-17 -5.67834)
(1.09108e-16 -1.40386e-16 -6.0044)
(-5.58641e-17 8.4281e-17 -6.26662)
(-6.55613e-18 7.52468e-17 -6.47367)
(5.52376e-18 -4.69008e-17 -6.63918)
(-2.59774e-18 4.6343e-17 -6.77497)
(-4.4348e-17 -6.41568e-17 -6.8902)
(5.65918e-17 -2.86348e-17 -6.99183)
(-9.73491e-18 4.64486e-17 -7.08458)
(1.00748e-16 -9.15473e-17 -7.17168)
(-1.16219e-16 2.16813e-16 -7.25511)
(1.07062e-17 -6.71206e-17 -7.33585)
(1.87807e-17 -2.4023e-16 -7.41427)
(-8.93231e-18 1.24336e-16 -7.49037)
(-1.47473e-17 2.70793e-16 -7.564)
(1.04136e-16 -1.53948e-16 -7.63492)
(-7.90325e-17 -2.39066e-16 -7.70286)
(-1.86279e-17 1.2066e-16 -7.76745)
(-3.39112e-19 1.78555e-16 -7.82768)