/*--------------------------------*- C++ -*----------------------------------*\
| =========                 |                                                 |
| \\      /  F ield         | OpenFOAM: The Open Source CFD Toolbox           |
|  \\    /   O peration     | Version:  2506                                  |
|   \\  /    A nd           | Website:  www.openfoam.com                      |
|    \\/     M anipulation  |                                                 |
\*---------------------------------------------------------------------------*/
FoamFile
{
    version     2.0;
    format      ascii;
    arch        "LSB;label=32;scalar=64";
    class       volVectorField;
    location    "1.5";
    object      U;
}
// * * * * * * * * * * * * * * * * * * * * * * * * * * * * * * * * * * * * * //

dimensions      [0 1 -1 0 0 0 0];

internalField   nonuniform List<vector> 
4000
(
(0.00259636 -0.00108495 8.21465e-23)
(0.00338808 -0.000803224 0)
(0.00460627 -0.000366077 3.97185e-23)
(0.00545868 -0.00018471 3.30901e-23)
(0.00595336 -0.000112547 2.84787e-23)
(0.00628449 -7.15219e-05 0)
(0.00653054 -4.73795e-05 2.3272e-23)
(0.00671922 -3.33698e-05 2.1982e-23)
(0.00686812 -2.46308e-05 0)
(0.00698919 -1.87458e-05 0)
(0.00708984 -1.45775e-05 3.54162e-22)
(0.00717496 -1.14936e-05 -6.71695e-22)
(0.00724798 -9.11514e-06 3.16833e-22)
(0.00731142 -7.211e-06 -3.63007e-22)
(0.0073672 -5.63656e-06 3.61691e-22)
(0.0074168 -4.29833e-06 2.42617e-23)
(0.00746146 -3.13537e-06 4.21121e-22)
(0.00750221 -2.11011e-06 -4.19682e-22)
(0.00754 -1.20354e-06 2.86436e-23)
(0.00757572 -4.09268e-07 0)
(0.00761024 2.77672e-07 0)
(0.00764448 8.55836e-07 -3.48147e-23)
(0.00767943 1.31265e-06 -3.73301e-23)
(0.00771623 1.6205e-06 0)
(0.00775627 1.72675e-06 -4.31853e-23)
(0.00780129 1.54303e-06 -4.65918e-23)
(0.00785362 9.07183e-07 0)
(0.00791648 -5.09244e-07 0)
(0.00799412 -3.24084e-06 2.01011e-21)
(0.00809764 -8.8738e-06 -2.06509e-21)
(0.00824024 -2.87012e-05 0)
(0.00832548 -9.30668e-05 -5.27563e-21)
(0.0083039 -0.000216188 8.34147e-21)
(0.00820411 -0.000397459 -3.27943e-22)
(0.0080667 -0.000622189 -4.09718e-21)
(0.00791385 -0.000889579 6.13336e-20)
(0.00779417 -0.00120092 -8.09001e-22)
(0.00764547 -0.00162968 -1.34103e-20)
(0.00736468 -0.00216828 0)
(0.00702095 -0.00269429 5.10282e-21)
(0.00673383 -0.00314305 -5.16979e-21)
(0.00649895 -0.00351993 4.12989e-20)
(0.00630184 -0.00382929 0)
(0.00614268 -0.00406555 3.52004e-20)
(0.0060188 -0.00422643 -1.47141e-20)
(0.00592086 -0.00431614 2.03298e-20)
(0.00584152 -0.00433684 0)
(0.00577714 -0.0042972 -1.92509e-20)
(0.00571026 -0.00421073 -2.01464e-20)
(0.00562267 -0.00408573 -1.48681e-20)
(0.00549061 -0.00392981 0)
(0.005318 -0.00372703 0)
(0.00510169 -0.00349052 -1.78163e-21)
(0.00483525 -0.00316964 1.38113e-20)
(0.00458137 -0.00275289 2.27331e-21)
(0.00442819 -0.00219646 -8.72643e-21)
(0.00446701 -0.0015344 -4.57261e-21)
(0.00482027 -0.000788323 1.09863e-21)
(0.00553581 -0.000113236 0)
(0.00643618 0.000340727 3.72189e-22)
(0.00728352 0.000574221 1.36762e-21)
(0.0080229 0.000640038 -8.0541e-22)
(0.00854397 0.000609476 -7.90238e-21)
(0.00891651 0.000540996 8.35319e-21)
(0.00916089 0.00047278 0)
(0.00932253 0.000415015 0)
(0.00943487 0.00036846 0)
(0.00951132 0.000332868 1.47076e-21)
(0.00956518 0.000305947 2.16621e-20)
(0.00960516 0.000285075 1.198e-20)
(0.00963639 0.000268123 0)
(0.00966079 0.000253933 -1.05497e-20)
(0.00968015 0.000241618 1.04831e-20)
(0.00969594 0.00023043 1.09297e-21)
(0.0097091 0.00021988 -1.13045e-20)
(0.0097202 0.000209638 9.89378e-21)
(0.00972968 0.000199385 1.09564e-20)
(0.00973633 0.000189502 1.0229e-20)
(0.00974127 0.000179614 0)
(0.00974489 0.000169409 0)
(0.00974717 0.000158527 -2.54323e-22)
(0.00974405 0.000148019 -7.44882e-21)
(0.00973892 0.000136472 0)
(0.00972717 0.000124537 5.49295e-21)
(0.00971038 0.000110726 -4.29893e-21)
(0.00968113 9.48992e-05 0)
(0.00964059 7.37883e-05 0)
(0.00959257 4.27912e-05 3.20699e-23)
(0.0095453 -2.32175e-06 2.8018e-22)
(0.00951771 -6.00932e-05 -1.10185e-21)
(0.00952356 -0.00011482 8.11471e-23)
(0.00956601 -0.000153449 -8.94151e-23)
(0.00964001 -0.000157863 -3.79876e-22)
(0.0097438 -0.000124611 0)
(0.00985496 -6.24616e-05 8.71488e-21)
(0.0099567 2.42201e-05 9.40386e-21)
(0.0100389 0.000113735 1.01369e-20)
(0.0100885 0.000189601 7.02516e-22)
(0.0101064 0.000239687 1.12962e-20)
(0.0100921 0.000257826 1.24332e-20)
(0.0100477 0.000243112 -2.00735e-22)
(0.00998616 0.000199865 1.35573e-20)
(0.00991057 0.000135118 2.66083e-20)
(0.00982625 5.56898e-05 6.46764e-22)
(0.00973378 -3.41156e-05 1.28485e-20)
(0.00962487 -0.000134618 0)
(0.00949106 -0.000249771 -1.28928e-20)
(0.00931079 -0.000389826 -1.17154e-20)
(0.00906763 -0.000555221 -8.18964e-22)
(0.00874297 -0.000748329 0)
(0.00831271 -0.000960756 -1.04387e-20)
(0.00777816 -0.00115672 9.30121e-21)
(0.00717537 -0.00129976 0)
(0.00655543 -0.00129871 1.34686e-20)
(0.00605572 -0.00112216 2.33336e-21)
(0.00579815 -0.000748285 2.98231e-21)
(0.00594433 -0.000252936 0)
(0.00645334 0.000198625 -4.99787e-22)
(0.00710932 0.000497089 1.7149e-22)
(0.00778481 0.00063249 6.51158e-23)
(0.00832519 0.000644791 -2.22433e-22)
(0.00872637 0.000596619 9.02174e-21)
(0.00900412 0.00053343 -1.07644e-20)
(0.00920224 0.000471026 -7.31488e-22)
(0.00933574 0.000419358 -1.05587e-20)
(0.00942618 0.000379275 2.33997e-20)
(0.00949233 0.000347539 -1.19721e-20)
(0.00954139 0.000322165 1.32705e-20)
(0.00957746 0.000301894 -5.12893e-22)
(0.00960478 0.000285223 1.1896e-20)
(0.00962621 0.000270805 0)
(0.00964352 0.000257676 -1.31088e-20)
(0.00965779 0.000245122 2.04336e-21)
(0.00966908 0.000232929 -1.42731e-20)
(0.00967798 0.000220894 0)
(0.00968485 0.000208783 0)
(0.00968994 0.000196334 1.1367e-20)
(0.00969397 0.000182799 -1.04036e-20)
(0.00969371 0.000168986 0)
(0.00969161 0.00015421 0)
(0.00968904 0.000137116 -8.23754e-21)
(0.00967866 0.000118922 1.6571e-21)
(0.00966633 9.7599e-05 -7.46807e-21)
(0.00964441 7.26715e-05 0)
(0.00961336 4.23436e-05 2.69145e-21)
(0.00957514 5.36175e-06 1.02551e-21)
(0.00953295 -4.31989e-05 -2.20974e-22)
(0.00950018 -0.000101108 -3.84691e-23)
(0.00949522 -0.00015828 0)
(0.00952406 -0.000204322 1.02468e-21)
(0.00958623 -0.000222059 2.64627e-22)
(0.00967661 -0.000204311 -8.54461e-21)
(0.0097854 -0.000156266 1.54283e-21)
(0.00989306 -7.79904e-05 1.50142e-22)
(0.00998434 1.29384e-05 6.02659e-21)
(0.0100494 9.76291e-05 2.11869e-21)
(0.0100782 0.000159473 0)
(0.0100749 0.000193054 0)
(0.0100369 0.000192178 0)
(0.00996952 0.000155434 -2.03632e-20)
(0.00987278 8.64496e-05 2.58639e-21)
(0.00973796 -3.03589e-06 9.56612e-21)
(0.00956681 -9.48845e-05 7.37137e-21)
(0.00921029 -0.00020183 0)
(0.00885634 -0.00031566 -8.97634e-21)
(0.00848911 -0.000403795 -1.38137e-20)
(0.00808652 -0.000442303 -2.97492e-22)
(0.00771873 -0.000413684 -1.67759e-21)
(0.00745131 -0.000316942 -3.56246e-21)
(0.00737638 -0.0001701 -1.0583e-21)
(0.0074769 -5.24587e-05 0)
(0.00757656 -1.21137e-05 -8.12269e-24)
(0.00762747 -3.85422e-06 0)
(0.00766526 -2.28271e-06 -4.96089e-24)
(0.00770431 -2.243e-06 -3.80352e-24)
(0.00774369 -2.60318e-06 -1.65132e-22)
(0.00778097 -2.6013e-06 1.64069e-22)
(0.007814 -2.15748e-06 3.96916e-23)
(0.00784142 -1.43965e-06 -4.05877e-23)
(0.00786267 -5.35221e-07 9.48582e-24)
(0.00787764 4.58852e-07 -7.46952e-24)
(0.00788648 1.50678e-06 -2.34153e-24)
(0.00788938 2.55849e-06 0)
(0.00788637 3.83342e-06 1.03389e-24)
(0.00787717 5.11761e-06 -1.45029e-24)
(0.00786109 6.63133e-06 7.13821e-23)
(0.00783696 8.38449e-06 -6.69364e-23)
(0.00780337 1.06715e-05 1.10574e-22)
(0.00775835 1.34341e-05 -1.06611e-22)
(0.00769914 1.67306e-05 9.02153e-23)
(0.00762233 2.06835e-05 -7.93979e-23)
(0.00752372 2.54567e-05 7.39297e-24)
(0.00739746 3.1421e-05 9.13858e-24)
(0.00723525 3.95274e-05 0)
(0.0070225 5.23682e-05 1.39415e-23)
(0.00673001 7.67022e-05 1.72823e-23)
(0.00628913 0.000130126 2.21181e-22)
(0.00552349 0.000270706 -2.29041e-22)
(0.00411859 0.000698674 0)
(0.00309899 0.00117509 5.5851e-23)
(-2.68536e-05 -0.00217149 -2.73584e-23)
(-4.3463e-05 -0.00193868 3.88632e-23)
(0.000783652 -0.00129984 -4.61875e-23)
(0.00157434 -0.000902952 1.81966e-22)
(0.00221637 -0.000649336 -4.302e-22)
(0.00274646 -0.00048261 2.18506e-23)
(0.00319165 -0.000373414 2.00252e-22)
(0.00356624 -0.000299258 -7.70456e-23)
(0.00388352 -0.000246203 -4.96686e-23)
(0.0041549 -0.000206734 -4.85643e-23)
(0.00438903 -0.000176546 -7.20048e-23)
(0.00459255 -0.000152919 -4.40191e-22)
(0.00477058 -0.00013407 4.13661e-22)
(0.00492717 -0.000118819 -4.1396e-22)
(0.0050656 -0.000106378 7.89635e-22)
(0.00518856 -9.62003e-05 -9.6093e-22)
(0.00529827 -8.79189e-05 3.90818e-22)
(0.00539667 -8.13061e-05 -5.6109e-22)
(0.00548552 -7.6246e-05 -6.5942e-22)
(0.00556645 -7.27093e-05 9.88599e-22)
(0.00564109 -7.07305e-05 -7.21897e-23)
(0.0057111 -7.04065e-05 -1.32498e-21)
(0.00577821 -7.19218e-05 1.32264e-21)
(0.00584437 -7.55923e-05 1.39201e-21)
(0.00591185 -8.19194e-05 -1.42519e-21)
(0.0059834 -9.16436e-05 -5.01527e-23)
(0.00606249 -0.000105882 -1.85522e-21)
(0.00615356 -0.000126444 -4.54753e-23)
(0.00626211 -0.000156385 4.17961e-21)
(0.00639796 -0.000200557 2.81152e-22)
(0.00657417 -0.000271286 -2.35402e-21)
(0.00672405 -0.000407813 -2.81643e-21)
(0.00677785 -0.000622021 -8.86449e-21)
(0.00673262 -0.000902533 -1.91849e-20)
(0.00662056 -0.00124251 -1.42025e-20)
(0.00647223 -0.00165146 -1.63396e-20)
(0.00632102 -0.00214519 3.08111e-21)
(0.0061366 -0.00275892 1.36792e-20)
(0.00583686 -0.00344707 -4.56955e-21)
(0.00548613 -0.004111 -1.33964e-20)
(0.00519384 -0.00470298 -1.84593e-20)
(0.00495232 -0.00521467 -2.01682e-20)
(0.00474799 -0.00563679 0)
(0.00458223 -0.00595928 -4.03113e-20)
(0.0044495 -0.00617934 1.99345e-20)
(0.00433809 -0.00629941 -2.04428e-20)
(0.0042355 -0.0063244 2.00325e-20)
(0.00413112 -0.00626734 0)
(0.00400149 -0.00614191 1.45963e-21)
(0.0038252 -0.00595586 1.74524e-20)
(0.00358202 -0.00571734 -1.71462e-20)
(0.00326423 -0.0054202 1.96126e-21)
(0.00287837 -0.00507159 1.49999e-20)
(0.00240979 -0.00465753 -3.20577e-21)
(0.00192652 -0.00412016 1.36284e-20)
(0.00149119 -0.00341855 0)
(0.0012173 -0.00257405 4.73175e-21)
(0.00122321 -0.00157237 -2.08089e-21)
(0.00166846 -0.000514217 -1.41345e-22)
(0.00252472 0.000422399 -2.76258e-22)
(0.00365478 0.00110703 -1.85605e-21)
(0.00490969 0.00151056 -5.82868e-21)
(0.00601259 0.00164798 -7.55763e-21)
(0.00693068 0.00160456 -9.92151e-21)
(0.00761766 0.00148727 1.33599e-21)
(0.00811536 0.00135012 -1.29702e-21)
(0.00847308 0.00122072 0)
(0.00872267 0.00111253 0)
(0.00889672 0.00102655 -2.48055e-20)
(0.00902004 0.000958958 1.20657e-20)
(0.00910962 0.000904923 1.59776e-21)
(0.00917522 0.000860589 -1.54512e-20)
(0.00922388 0.000822581 -1.06565e-20)
(0.00926075 0.000788222 -1.45034e-20)
(0.0092894 0.000755671 7.99739e-22)
(0.00931196 0.000723648 7.76339e-22)
(0.00933003 0.000691034 1.26776e-20)
(0.00934218 0.000658285 -1.1392e-20)
(0.00935012 0.000624325 -6.71515e-22)
(0.00935471 0.000588278 -9.80875e-21)
(0.00935681 0.000549266 9.03408e-21)
(0.00935123 0.00050831 0)
(0.00934357 0.000462033 0)
(0.00932998 0.000409832 0)
(0.00931581 0.000347346 4.66247e-21)
(0.00929986 0.000270749 -1.245e-22)
(0.00929642 0.000174787 6.8861e-23)
(0.00931916 5.98054e-05 -7.18677e-23)
(0.00937718 -6.82683e-05 -1.1802e-22)
(0.00948507 -0.000186255 2.68046e-21)
(0.00963088 -0.000264031 -2.76739e-22)
(0.00980498 -0.000281874 -8.76894e-24)
(0.00998373 -0.000240337 5.91412e-21)
(0.0101519 -0.000140654 -7.35093e-21)
(0.0102896 -1.71272e-06 8.25148e-21)
(0.0103875 0.000151381 -9.01309e-21)
(0.0104428 0.000293594 9.07511e-21)
(0.0104554 0.000403617 1.03929e-20)
(0.0104287 0.000467872 -1.14315e-20)
(0.01037 0.000481535 -1.16746e-20)
(0.0102943 0.000447718 0)
(0.0102025 0.000374979 1.18794e-20)
(0.0101003 0.000274254 -1.29463e-20)
(0.00998484 0.000154411 3.90365e-22)
(0.00984639 1.97295e-05 -1.47147e-21)
(0.00966871 -0.000131856 0)
(0.00943015 -0.000306882 2.44086e-20)
(0.00910463 -0.000514321 2.44348e-20)
(0.00866866 -0.000759363 1.05714e-20)
(0.0081046 -0.00103648 9.22285e-21)
(0.00740037 -0.00132289 1.07531e-20)
(0.00656258 -0.00157779 -1.81942e-20)
(0.00564678 -0.00174758 5.22614e-22)
(0.00470305 -0.00174102 -7.19062e-21)
(0.00387253 -0.00155094 5.45496e-22)
(0.00327037 -0.00110338 -1.5768e-21)
(0.0030586 -0.000455506 -8.5865e-23)
(0.00330267 0.000257291 5.09884e-22)
(0.00394104 0.000893583 1.70818e-22)
(0.00486888 0.0013472 -1.63377e-22)
(0.00582546 0.0015879 0)
(0.00668448 0.00161333 -1.0281e-20)
(0.00736713 0.00154616 -3.52031e-22)
(0.00789745 0.00143471 1.09818e-21)
(0.00828308 0.00131726 1.23211e-20)
(0.00855689 0.00121326 -1.35932e-20)
(0.00875434 0.00112628 -1.27119e-20)
(0.00889688 0.00105573 -2.72998e-20)
(0.00899901 0.000999089 -2.76731e-20)
(0.0090731 0.000952667 -1.27247e-20)
(0.00912795 0.0009129 -1.72884e-21)
(0.00916964 0.000877124 -1.3289e-20)
(0.00920234 0.000843041 2.71751e-20)
(0.00922763 0.000809391 -3.28031e-21)
(0.00924711 0.000775383 -9.20297e-21)
(0.00926189 0.000740343 0)
(0.00927239 0.000703718 0)
(0.00928024 0.00066408 7.28914e-22)
(0.00928106 0.000622512 2.47256e-21)
(0.00927844 0.000576789 6.63058e-21)
(0.00927556 0.000524365 1.96473e-21)
(0.00926415 0.000466146 -2.77276e-22)
(0.0092543 0.000397615 -2.56089e-21)
(0.00924165 0.000316694 2.36399e-21)
(0.00923797 0.000218466 -2.78867e-21)
(0.00925579 0.0001053 0)
(0.00930054 -2.47961e-05 7.1049e-23)
(0.00939133 -0.000156056 -6.96104e-23)
(0.00952485 -0.000256863 1.10924e-21)
(0.00969129 -0.000303328 0)
(0.00987317 -0.000284134 0)
(0.0100507 -0.000206287 0)
(0.0102027 -7.90839e-05 0)
(0.0103194 7.22904e-05 1.55396e-20)
(0.0103922 0.000220119 3.61746e-21)
(0.0104185 0.000341343 1.96093e-21)
(0.0103997 0.000418018 -2.20507e-21)
(0.0103404 0.000441398 -1.29511e-20)
(0.010254 0.00041139 4.29166e-21)
(0.0101334 0.000332251 9.85646e-21)
(0.00997673 0.000216844 6.77916e-23)
(0.00977667 8.96471e-05 -7.39174e-21)
(0.00953435 -1.30486e-05 2.06387e-21)
(0.00912776 -0.000126665 -2.2693e-22)
(0.00869386 -0.000256078 -9.08757e-21)
(0.00820585 -0.000369759 7.7431e-21)
(0.00765024 -0.000420466 0)
(0.00708891 -0.000405048 0)
(0.00658579 -0.000322809 1.39039e-21)
(0.00622063 -0.000196228 7.91114e-22)
(0.0060519 -9.09903e-05 -7.59058e-22)
(0.00599926 -5.57132e-05 9.23981e-24)
(0.00597837 -5.11765e-05 -4.15042e-22)
(0.00598908 -5.50852e-05 4.06289e-22)
(0.00602648 -5.86286e-05 1.2534e-23)
(0.00607929 -5.97142e-05 1.81663e-22)
(0.00613844 -5.65254e-05 -5.10182e-23)
(0.00619653 -5.00297e-05 -8.80812e-23)
(0.00624884 -4.18446e-05 -4.08097e-23)
(0.00629288 -3.2875e-05 -1.05302e-23)
(0.00632717 -2.37708e-05 1.09859e-23)
(0.00635117 -1.47871e-05 3.20831e-25)
(0.00636461 -5.84906e-06 -3.06087e-23)
(0.00636697 3.36918e-06 3.17352e-23)
(0.00635736 1.33636e-05 1.63939e-24)
(0.00633426 2.47312e-05 7.32942e-23)
(0.00629525 3.82255e-05 -8.80728e-23)
(0.00623654 5.48336e-05 1.27292e-22)
(0.00615338 7.5341e-05 -1.40389e-22)
(0.00603954 0.00010082 8.21792e-23)
(0.00588711 0.000132669 -1.05382e-22)
(0.00568568 0.000172825 8.53824e-24)
(0.00542146 0.000224495 -3.13045e-23)
(0.00507594 0.000294018 -2.31801e-22)
(0.00462125 0.000395192 2.49018e-22)
(0.0040151 0.000558809 -5.92999e-23)
(0.00319284 0.000852157 -2.48566e-23)
(0.00206306 0.00140752 9.19751e-23)
(0.000575827 0.00234843 0)
(3.98563e-05 0.00278252 -1.46817e-22)
(-0.000214875 -0.00183144 0)
(-0.000576828 -0.0020998 -1.96518e-22)
(-0.000323595 -0.00175884 9.21939e-23)
(0.000129723 -0.00142079 6.73007e-23)
(0.000625329 -0.00114954 -1.44031e-22)
(0.00110962 -0.00094048 2.37869e-22)
(0.00156041 -0.000781811 -2.35725e-22)
(0.00196875 -0.000659826 5.32244e-23)
(0.00233413 -0.000563978 5.11151e-23)
(0.00265965 -0.000487278 1.50373e-22)
(0.00294928 -0.000424958 4.95792e-23)
(0.00320698 -0.000373598 1.49779e-22)
(0.00343634 -0.000330716 -4.13152e-22)
(0.00364058 -0.000294544 9.3963e-22)
(0.0038225 -0.000263821 -3.68764e-22)
(0.0039846 -0.00023762 5.16485e-22)
(0.00412906 -0.000215278 -2.82217e-22)
(0.00425788 -0.000196359 1.84554e-22)
(0.00437289 -0.000180616 1.14247e-21)
(0.00447587 -0.000167959 -1.00211e-21)
(0.00456857 -0.000158425 7.3866e-23)
(0.00465279 -0.00015217 2.33832e-22)
(0.00473045 -0.000149517 -1.38899e-21)
(0.00480368 -0.000151021 1.47266e-21)
(0.00487494 -0.000157538 1.59931e-21)
(0.00494714 -0.000170305 -1.28314e-21)
(0.00502377 -0.000191087 -1.85639e-21)
(0.00510906 -0.000222494 1.72461e-21)
(0.00520776 -0.000268589 0)
(0.00532671 -0.000335651 0)
(0.0054746 -0.000434509 0)
(0.0056009 -0.000592273 0)
(0.00563937 -0.000823952 1.14045e-20)
(0.0055819 -0.00112968 1.55993e-20)
(0.00546217 -0.00151283 -1.62839e-20)
(0.0053143 -0.00198717 2.83865e-21)
(0.00516249 -0.0025662 -1.98214e-20)
(0.00498878 -0.00325069 4.22229e-21)
(0.0047384 -0.00397827 1.69304e-20)
(0.00446821 -0.00467143 -3.14795e-21)
(0.0042535 -0.00529529 3.66657e-20)
(0.00408095 -0.00583565 0)
(0.00393612 -0.00627868 -1.78461e-20)
(0.00382005 -0.00661392 -1.77102e-20)
(0.00372546 -0.0068385 2.23454e-21)
(0.00363884 -0.0069548 1.40392e-20)
(0.0035454 -0.00696944 -3.24742e-20)
(0.00343122 -0.00689189 -1.40763e-20)
(0.00327474 -0.00673334 -2.63491e-21)
(0.0030578 -0.00651316 1.18859e-22)
(0.00276817 -0.00622231 5.16429e-21)
(0.00240188 -0.00586592 -3.47094e-21)
(0.00197188 -0.00544591 -1.3198e-21)
(0.00147642 -0.0049436 2.009e-22)
(0.000973914 -0.00434306 1.10172e-20)
(0.000515133 -0.0036245 -4.02855e-21)
(0.000194048 -0.00279937 -3.85679e-21)
(7.46604e-05 -0.00186485 1.81791e-21)
(0.000283368 -0.000877531 1.4383e-22)
(0.000843639 6.76199e-05 0)
(0.00171981 0.000877321 -4.59646e-22)
(0.00286469 0.00148183 4.33867e-22)
(0.00405395 0.00182471 4.69244e-22)
(0.00518526 0.00198044 8.06203e-21)
(0.00614537 0.00196685 -8.34111e-21)
(0.00691348 0.00187467 9.26212e-21)
(0.00750396 0.00174639 0)
(0.00793893 0.00161814 0)
(0.00825236 0.00150666 2.30236e-20)
(0.00847596 0.00141529 -2.35514e-20)
(0.00863527 0.00134277 0)
(0.00874866 0.00128478 1.09512e-20)
(0.0088299 0.00123582 8.30342e-22)
(0.00888872 0.00119121 -1.00091e-20)
(0.00893256 0.00114766 1.27765e-20)
(0.00896654 0.00110294 1.03539e-20)
(0.00899443 0.00105477 -2.27685e-20)
(0.0090164 0.0010025 6.73939e-22)
(0.00903483 0.000945275 6.07142e-22)
(0.00905118 0.000882366 1.78579e-20)
(0.00906748 0.000811592 -1.69471e-20)
(0.00908093 0.000732239 -2.2719e-22)
(0.00909726 0.000641676 3.13996e-23)
(0.0091185 0.000538333 1.94226e-22)
(0.00915158 0.000419403 -4.56782e-21)
(0.00920222 0.000281075 0)
(0.00927961 0.000124554 4.52383e-22)
(0.00939415 -3.88176e-05 1.44399e-24)
(0.00955247 -0.000190102 -1.40835e-22)
(0.00974589 -0.000300702 -2.29775e-21)
(0.00995335 -0.000345387 -1.867e-22)
(0.0101585 -0.000315146 -9.43539e-21)
(0.0103387 -0.00021497 -5.88482e-21)
(0.0104824 -6.0821e-05 1.34198e-20)
(0.0105797 0.000123004 1.73474e-22)
(0.0106282 0.00031023 -8.75181e-21)
(0.01063 0.000475166 -1.838e-20)
(0.0105933 0.00059704 -1.01135e-20)
(0.010529 0.000665087 0)
(0.0104443 0.000676654 1.06223e-20)
(0.0103478 0.000637649 0)
(0.0102419 0.000559266 -1.19647e-20)
(0.0101233 0.0004533 1.81894e-22)
(0.00998158 0.000328948 1.10444e-20)
(0.00979968 0.000190261 -1.21469e-20)
(0.00955646 3.55134e-05 0)
(0.00922889 -0.000140914 -2.22604e-20)
(0.00879451 -0.000345526 -1.1376e-20)
(0.00823701 -0.000580211 -1.43093e-21)
(0.00755019 -0.000835719 -1.0187e-20)
(0.00673842 -0.00108738 0)
(0.00582513 -0.00130145 8.25063e-21)
(0.00487234 -0.00143242 0)
(0.0039349 -0.00142533 -4.56176e-21)
(0.00312265 -0.00125731 2.63131e-22)
(0.0025102 -0.000901168 0)
(0.00220241 -0.000381655 0)
(0.0022637 0.000223389 -5.24282e-22)
(0.00265551 0.000829046 0)
(0.00338276 0.00135529 2.04148e-22)
(0.00428645 0.00169687 -4.46485e-22)
(0.00522804 0.00187721 2.4068e-22)
(0.00607784 0.00192292 0)
(0.00680387 0.00187355 0)
(0.00737717 0.00177914 1.14964e-20)
(0.00780987 0.00167349 -1.28404e-20)
(0.00813057 0.00157707 2.55357e-20)
(0.00836402 0.0014977 1.32664e-20)
(0.0085311 0.00143469 1.85393e-21)
(0.00865049 0.00138358 1.17596e-20)
(0.00873586 0.00133817 -1.63249e-21)
(0.00879735 0.00129518 1.34628e-20)
(0.00884347 0.00125197 2.32199e-21)
(0.00887901 0.00120646 -2.75356e-23)
(0.00890762 0.00115718 2.25344e-21)
(0.00893207 0.00110287 -2.97897e-21)
(0.00895346 0.00104175 1.08397e-20)
(0.00897431 0.000972222 2.10666e-20)
(0.00899057 0.000894956 0)
(0.00900689 0.000808357 -9.17906e-21)
(0.0090284 0.000711014 -9.50271e-21)
(0.00905369 0.000599555 1.83307e-21)
(0.00909083 0.000472522 4.61468e-21)
(0.00914235 0.000328485 2.19975e-21)
(0.00921606 0.00016542 -1.83012e-21)
(0.00932261 -6.53997e-06 -4.05625e-22)
(0.00947213 -0.000171185 1.5804e-22)
(0.00965992 -0.000300647 -5.88427e-22)
(0.00986874 -0.000366135 -1.10126e-21)
(0.0100787 -0.000354133 -4.15574e-21)
(0.0102708 -0.0002666 2.10584e-21)
(0.0104283 -0.000118753 -1.16768e-21)
(0.0105391 6.52971e-05 -5.7759e-21)
(0.0106013 0.000258636 -1.3183e-20)
(0.0106116 0.000432598 -7.38111e-21)
(0.0105765 0.000564487 0)
(0.0105088 0.000641151 -7.90611e-21)
(0.0104087 0.000657802 2.35746e-20)
(0.0102841 0.000619792 1.3644e-21)
(0.0101309 0.000538967 0)
(0.00994173 0.000434036 7.93382e-21)
(0.00971244 0.000333856 0)
(0.00944266 0.000272217 0)
(0.00905314 0.000217826 4.88686e-21)
(0.00864074 0.000146504 8.92711e-21)
(0.00817491 8.85897e-05 0)
(0.00765136 5.88605e-05 0)
(0.00712196 5.47263e-05 -2.10434e-21)
(0.00663045 6.88363e-05 1.89902e-21)
(0.00622272 8.25747e-05 -1.67896e-22)
(0.00593772 7.27401e-05 -1.79723e-22)
(0.00576468 3.02729e-05 -5.86709e-22)
(0.00566181 -1.91685e-05 1.36877e-23)
(0.00561752 -6.02028e-05 -1.97762e-23)
(0.00561555 -8.75809e-05 -2.36433e-23)
(0.00563895 -0.000101355 -1.70847e-22)
(0.00567894 -0.000103036 3.72391e-23)
(0.00572503 -9.59737e-05 1.27484e-22)
(0.0057706 -8.35954e-05 -2.14411e-24)
(0.00581179 -6.82081e-05 1.05125e-23)
(0.00584563 -5.14115e-05 -1.06091e-23)
(0.00587045 -3.39602e-05 -6.38023e-25)
(0.00588507 -1.58447e-05 0)
(0.00588808 3.51587e-06 -2.37317e-24)
(0.00587788 2.50947e-05 -6.54832e-24)
(0.0058522 5.02987e-05 8.46992e-23)
(0.00580742 8.08521e-05 -7.45077e-23)
(0.00573852 0.00011867 1.28115e-22)
(0.00563895 0.000166038 -2.7889e-22)
(0.00550025 0.00022568 2.70177e-22)
(0.00531179 0.000301102 -9.93482e-23)
(0.00505968 0.000397175 -5.05429e-23)
(0.00472568 0.000521241 2.11666e-23)
(0.00428613 0.000685624 0)
(0.0037109 0.000912169 -9.51776e-23)
(0.00296562 0.00123881 3.9893e-23)
(0.00202659 0.00172305 0)
(0.000923282 0.00241006 -6.00958e-23)
(-0.000134209 0.00312149 1.23596e-22)
(-0.000225268 0.00268452 2.17808e-22)
(-0.000153923 -0.00137058 -1.62312e-22)
(-0.000546368 -0.00197221 0)
(-0.000558018 -0.00193094 0)
(-0.000374193 -0.00174222 -1.38392e-22)
(-7.17244e-05 -0.00152994 1.28775e-22)
(0.000279155 -0.00133331 2.37274e-22)
(0.000641514 -0.00116259 -2.35672e-22)
(0.00099431 -0.0010173 1.07342e-22)
(0.00132719 -0.000894115 0)
(0.00163582 -0.000789516 -1.023e-22)
(0.00191893 -0.0007003 0)
(0.00217682 -0.000623711 -8.16943e-25)
(0.00241056 -0.000557491 0)
(0.00262157 -0.000499884 -1.06047e-22)
(0.00281141 -0.000449543 0)
(0.00298167 -0.000405435 0)
(0.00313391 -0.000366798 -1.19158e-22)
(0.00326969 -0.000333114 -6.37745e-22)
(0.00339052 -0.000304088 1.59261e-21)
(0.00349794 -0.000279622 -1.07737e-21)
(0.00359353 -0.000259791 0)
(0.00367895 -0.000244851 1.14144e-21)
(0.00375604 -0.000235292 -1.29381e-21)
(0.00382687 -0.000231914 -1.76309e-22)
(0.00389383 -0.000235898 0)
(0.00395974 -0.000248894 -1.71854e-21)
(0.00402791 -0.000273159 1.70372e-21)
(0.00410223 -0.000311799 0)
(0.00418687 -0.000369242 2.14652e-21)
(0.00428738 -0.000451734 -2.13206e-21)
(0.0044104 -0.000568168 2.51173e-21)
(0.00451325 -0.000739392 -4.99335e-21)
(0.00453941 -0.000983933 -8.62039e-21)
(0.0044891 -0.00130999 -3.30066e-21)
(0.00439965 -0.00172518 7.87579e-22)
(0.00430211 -0.00224068 -8.88031e-22)
(0.00420701 -0.00286001 -1.06491e-20)
(0.00410154 -0.00356237 1.46914e-22)
(0.00394462 -0.00428439 3.11807e-21)
(0.00378152 -0.00496788 -7.26532e-21)
(0.00366138 -0.0055857 3.10796e-21)
(0.0035701 -0.00612037 -4.37207e-21)
(0.00349328 -0.00655612 3.49407e-20)
(0.00343122 -0.00688234 1.36704e-20)
(0.00337549 -0.00709539 4.29524e-21)
(0.00331175 -0.0071966 0)
(0.00322483 -0.00719224 1.32584e-21)
(0.00310111 -0.0070895 3.1296e-20)
(0.00292422 -0.00689913 1.39093e-20)
(0.00268232 -0.00663015 1.85278e-21)
(0.00237011 -0.00628732 2.72239e-20)
(0.00199054 -0.0058758 0)
(0.00156184 -0.00539902 -1.37601e-20)
(0.00109451 -0.00485302 1.90125e-22)
(0.000637238 -0.00423571 5.18134e-23)
(0.000229189 -0.00354571 4.8969e-21)
(-6.60048e-05 -0.00279618 2.30553e-21)
(-0.000197847 -0.00199276 -2.46914e-21)
(-0.0001045 -0.00116472 4.06019e-22)
(0.000261709 -0.000355134 -1.07179e-22)
(0.000884456 0.000389149 5.24592e-22)
(0.00177454 0.00102995 3.49598e-22)
(0.00281338 0.00149235 6.85552e-21)
(0.00391909 0.00177806 -8.30463e-21)
(0.00496743 0.00189156 1.51075e-20)
(0.00588926 0.00189189 1.04961e-21)
(0.00665597 0.00183442 -1.03185e-20)
(0.0072614 0.00173689 -1.32619e-21)
(0.00772069 0.00163505 -1.12751e-20)
(0.00805893 0.00154476 1.42062e-20)
(0.00830227 0.00147042 9.36447e-21)
(0.00847398 0.00141166 0)
(0.00859452 0.00136398 1.17051e-20)
(0.00867919 0.00132184 1.02123e-20)
(0.00873994 0.00127994 1.39112e-21)
(0.00878532 0.00123396 -2.16906e-20)
(0.00882231 0.00118115 1.21141e-20)
(0.00885489 0.00111913 -1.28648e-21)
(0.00888693 0.0010454 9.32849e-21)
(0.00892072 0.000959122 -9.19894e-21)
(0.00895881 0.000861779 8.45796e-21)
(0.00900219 0.000749694 -7.24338e-21)
(0.00905673 0.000621103 6.34096e-21)
(0.00912268 0.00047501 0)
(0.00920716 0.00031273 1.16274e-22)
(0.009321 0.000134193 3.63091e-23)
(0.00946966 -5.08088e-05 -6.0766e-22)
(0.009653 -0.000224151 0)
(0.00986489 -0.000362303 3.48176e-22)
(0.0100897 -0.000438896 1.21906e-21)
(0.0103033 -0.000437021 -4.2067e-22)
(0.0104892 -0.000355482 5.13144e-21)
(0.0106306 -0.000206334 5.02647e-21)
(0.010721 -1.05274e-05 -6.55294e-21)
(0.0107585 0.000204965 -3.40179e-22)
(0.0107437 0.000412521 7.74383e-21)
(0.0106972 0.000587878 8.98178e-21)
(0.0106191 0.000712317 5.72431e-22)
(0.0105244 0.000778328 9.49587e-21)
(0.0104214 0.000785883 -2.05727e-20)
(0.0103131 0.000743381 0)
(0.010195 0.000664626 0)
(0.0100558 0.000562139 0)
(0.00987887 0.000445474 -1.1017e-20)
(0.0096435 0.000319118 -6.67929e-22)
(0.0093287 0.000182336 3.3383e-22)
(0.00891574 3.13805e-05 1.20678e-21)
(0.0083909 -0.000137759 -8.98112e-21)
(0.00775005 -0.000324963 -9.67251e-21)
(0.00700069 -0.00052149 0)
(0.00616183 -0.000707953 0)
(0.00526897 -0.000861529 0)
(0.0043836 -0.000951783 0)
(0.00355473 -0.000947446 2.69361e-21)
(0.00286047 -0.000836977 1.12801e-21)
(0.00234429 -0.000604497 0)
(0.00205826 -0.000261447 -1.31695e-23)
(0.00205757 0.000160694 0)
(0.002297 0.000616443 0)
(0.00282007 0.00105977 0)
(0.00354794 0.00141909 0)
(0.00439448 0.00166249 -2.65202e-22)
(0.00524894 0.00177832 8.32597e-21)
(0.006047 0.00180089 2.86264e-22)
(0.00673053 0.00176136 -1.10276e-20)
(0.00728354 0.00169593 1.23076e-20)
(0.00771364 0.00161612 -1.27306e-20)
(0.00803555 0.00154401 0)
(0.00826904 0.00148466 1.25805e-20)
(0.00843489 0.0014376 -1.11632e-20)
(0.00855141 0.00140009 8.77847e-21)
(0.0086326 0.00136531 -1.18127e-20)
(0.00869109 0.00132789 6.96276e-22)
(0.00873485 0.00128389 1.46825e-21)
(0.00877056 0.00123103 -7.08668e-22)
(0.00880337 0.00116729 -8.03225e-21)
(0.00883602 0.00109203 -3.37509e-21)
(0.00887192 0.00100442 -1.02743e-20)
(0.00891246 0.000900826 -2.21232e-21)
(0.00896064 0.000779383 1.03093e-20)
(0.00901816 0.000642487 1.49095e-20)
(0.00908612 0.00048757 7.68066e-21)
(0.00917589 0.000317803 -1.46291e-21)
(0.00929009 0.00013415 -1.10401e-21)
(0.00943708 -5.52766e-05 6.207e-22)
(0.00961654 -0.000233511 -2.07686e-22)
(0.00982409 -0.000378033 -2.58189e-23)
(0.0100474 -0.000462217 1.01081e-21)
(0.0102648 -0.000466618 0)
(0.0104557 -0.000387959 4.09935e-21)
(0.0106057 -0.000237234 3.09995e-21)
(0.0107043 -3.67574e-05 0)
(0.0107471 0.000185806 4.27578e-21)
(0.0107357 0.00040155 7.97421e-21)
(0.0106887 0.000584408 -4.91174e-21)
(0.0106042 0.000715156 5.30892e-21)
(0.0104947 0.000785536 9.90358e-21)
(0.010366 0.000797251 -1.01593e-20)
(0.01022 0.000760799 -8.29935e-21)
(0.0100486 0.00069388 9.23525e-21)
(0.00984263 0.000618103 -9.99617e-21)
(0.00959978 0.000559268 6.64789e-21)
(0.00931396 0.000541461 1.57818e-21)
(0.00893865 0.000537119 -8.33169e-21)
(0.00854965 0.000518383 0)
(0.00811918 0.000502561 4.78184e-21)
(0.00764812 0.000491374 1.05024e-21)
(0.0071773 0.00047361 1.9558e-21)
(0.00673626 0.000436153 -1.70079e-21)
(0.00635133 0.000366908 6.3778e-22)
(0.00604512 0.000268265 -6.38355e-22)
(0.00582121 0.000158005 0)
(0.00566197 5.62066e-05 -2.23764e-23)
(0.00555727 -2.50297e-05 -2.4929e-22)
(0.00549778 -8.09545e-05 2.84068e-22)
(0.00547164 -0.000113256 1.57176e-22)
(0.00546858 -0.000126377 -1.40244e-22)
(0.00547895 -0.000123159 3.91271e-23)
(0.00549587 -0.000111849 -3.90591e-23)
(0.00551453 -9.37691e-05 0)
(0.00553123 -7.21704e-05 -4.02474e-24)
(0.00554321 -4.82818e-05 4.36197e-24)
(0.00554823 -2.21856e-05 -3.36242e-23)
(0.00554404 6.87696e-06 3.06332e-23)
(0.00552817 4.03312e-05 6.61427e-24)
(0.00549744 8.03484e-05 -8.35037e-24)
(0.00544767 0.000129722 0)
(0.00537339 0.000191719 0)
(0.00526741 0.000270193 -1.66876e-23)
(0.00512046 0.000369809 0)
(0.00492072 0.000496608 0)
(0.00465302 0.00065884 6.53715e-23)
(0.00429813 0.000868132 0)
(0.00383236 0.0011414 0)
(0.00322925 0.00150263 2.56497e-22)
(0.00246788 0.00197998 -1.35413e-22)
(0.00155795 0.00258423 0)
(0.000590454 0.00322943 0)
(-0.00016778 0.00352097 -1.7738e-23)
(-0.000168755 0.00236972 -1.32772e-22)
(-0.000100879 -0.00106673 5.945e-23)
(-0.000425968 -0.00177636 -1.83013e-22)
(-0.000555003 -0.00193288 -1.38051e-22)
(-0.000530494 -0.00188198 2.75775e-22)
(-0.000392072 -0.00175797 -4.90419e-22)
(-0.000180238 -0.0016073 2.42869e-22)
(6.84301e-05 -0.0014544 0)
(0.000331047 -0.00131004 -1.08555e-22)
(0.000593375 -0.00117822 0)
(0.000846967 -0.00105979 -5.10243e-22)
(0.00108708 -0.000954117 4.06802e-22)
(0.0013112 -0.000859983 -1.0283e-22)
(0.00151823 -0.000776034 -4.20757e-22)
(0.00170793 -0.000701038 3.13579e-22)
(0.00188058 -0.000633947 -1.0808e-22)
(0.00203679 -0.000573906 0)
(0.00217737 -0.000520265 -1.1701e-22)
(0.00230328 -0.00047258 3.89624e-22)