/*--------------------------------*- C++ -*----------------------------------*\
| =========                 |                                                 |
| \\      /  F ield         | OpenFOAM: The Open Source CFD Toolbox           |
|  \\    /   O peration     | Version:  2506                                  |
|   \\  /    A nd           | Website:  www.openfoam.com                      |
|    \\/     M anipulation  |                                                 |
\*---------------------------------------------------------------------------*/
FoamFile
{
    version     2.0;
    format      ascii;
    arch        "LSB;label=32;scalar=64";
    class       volScalarField;
    location    "4.4";
    object      p;
}
// * * * * * * * * * * * * * * * * * * * * * * * * * * * * * * * * * * * * * //

dimensions      [0 2 -2 0 0 0 0];

internalField   nonuniform List<scalar> 
4000
(
-7.48041e-05
-2.79631e-05
-1.18857e-05
-7.10868e-06
-4.04079e-06
-2.10843e-06
-1.11857e-06
-5.89487e-07
-2.70268e-07
-7.55199e-08
4.14349e-08
1.15867e-07
1.71966e-07
2.26466e-07
2.92183e-07
3.79432e-07
4.96472e-07
6.49741e-07
8.43949e-07
1.08202e-06
1.3649e-06
1.69122e-06
2.05685e-06
2.45419e-06
2.87118e-06
3.28985e-06
3.68388e-06
4.01439e-06
4.22403e-06
4.25332e-06
3.94234e-06
2.64167e-06
9.67048e-07
-8.13519e-07
-2.80409e-06
-5.0992e-06
-7.50233e-06
-1.10429e-05
-1.33276e-05
-1.33765e-05
-1.32707e-05
-1.28816e-05
-1.21414e-05
-1.12767e-05
-1.04302e-05
-9.70453e-06
-9.12223e-06
-8.90678e-06
-8.96121e-06
-9.21537e-06
-9.43849e-06
-9.27569e-06
-9.27672e-06
-8.24123e-06
-6.80998e-06
-4.29784e-06
-1.69172e-06
1.81065e-06
5.00363e-06
6.74761e-06
7.14727e-06
6.47662e-06
4.82585e-06
3.42902e-06
2.24212e-06
1.53974e-06
1.17835e-06
9.98877e-07
9.3012e-07
9.09432e-07
9.07441e-07
9.14921e-07
9.24656e-07
9.31929e-07
9.35031e-07
9.33572e-07
9.27522e-07
9.17519e-07
9.03978e-07
8.87295e-07
8.68486e-07
8.48294e-07
8.26766e-07
8.04722e-07
7.81711e-07
7.58352e-07
7.32579e-07
7.02729e-07
6.66117e-07
6.13191e-07
5.26148e-07
3.90828e-07
2.22486e-07
4.23148e-08
-8.84546e-08
-5.00731e-08
1.9918e-07
7.32446e-07
1.51055e-06
2.39168e-06
3.11701e-06
3.41362e-06
3.12924e-06
2.12923e-06
5.35279e-07
-1.51876e-06
-3.80138e-06
-5.94602e-06
-7.56262e-06
-8.49172e-06
-8.7702e-06
-8.11954e-06
-6.88119e-06
-4.9076e-06
-2.83624e-06
-5.66698e-07
1.36982e-06
2.5668e-06
3.03513e-06
2.99182e-06
2.47407e-06
1.84164e-06
1.26325e-06
8.63299e-07
6.04396e-07
4.58992e-07
3.84647e-07
3.54591e-07
3.49919e-07
3.60536e-07
3.78892e-07
3.98696e-07
4.1699e-07
4.32007e-07
4.42577e-07
4.47901e-07
4.47643e-07
4.41874e-07
4.30793e-07
4.14666e-07
3.93592e-07
3.68979e-07
3.40096e-07
3.0663e-07
2.68002e-07
2.23703e-07
1.69962e-07
9.33011e-08
-1.6239e-08
-1.85186e-07
-4.23692e-07
-7.05835e-07
-9.50575e-07
-1.05558e-06
-8.93389e-07
-4.05501e-07
4.79714e-07
1.6785e-06
3.07769e-06
4.29506e-06
5.09628e-06
5.32696e-06
4.57325e-06
2.73527e-06
1.44669e-06
6.38407e-07
1.51633e-07
2.47937e-07
8.40126e-07
1.74145e-06
2.70778e-06
3.56685e-06
4.50624e-06
5.53637e-06
6.62314e-06
7.76942e-06
8.99015e-06
1.02978e-05
1.16988e-05
1.31986e-05
1.48042e-05
1.65199e-05
1.83485e-05
2.02916e-05
2.23511e-05
2.45306e-05
2.68361e-05
2.92784e-05
3.18748e-05
3.46524e-05
3.76538e-05
4.09468e-05
4.46436e-05
4.89358e-05
5.41667e-05
6.09811e-05
7.06414e-05
8.59771e-05
0.000115464
0.000176945
-4.0998e-05
-2.15922e-05
-1.26613e-05
-8.3298e-06
-5.50366e-06
-3.63062e-06
-2.46029e-06
-1.71098e-06
-1.20779e-06
-8.64321e-07
-6.26764e-07
-4.55324e-07
-3.211e-07
-2.03e-07
-8.48798e-08
4.5981e-08
1.99619e-07
3.83808e-07
6.04289e-07
8.64818e-07
1.16706e-06
1.51036e-06
1.8913e-06
2.30319e-06
2.73518e-06
3.17108e-06
3.58755e-06
3.95101e-06
4.21402e-06
4.33285e-06
4.20817e-06
3.30548e-06
2.0574e-06
6.83811e-07
-8.90523e-07
-2.74904e-06
-4.76898e-06
-7.45464e-06
-9.14169e-06
-9.48952e-06
-9.76091e-06
-9.8261e-06
-9.5964e-06
-9.25831e-06
-8.94533e-06
-8.73183e-06
-8.67016e-06
-8.8338e-06
-9.14513e-06
-9.49515e-06
-9.76588e-06
-9.74068e-06
-9.59902e-06
-8.71351e-06
-7.44039e-06
-5.46557e-06
-3.34734e-06
-7.75484e-07
1.54665e-06
3.15216e-06
3.99685e-06
4.47671e-06
3.9393e-06
3.38463e-06
2.54092e-06
1.8476e-06
1.37663e-06
1.09432e-06
9.67e-07
9.16708e-07
9.02129e-07
9.06091e-07
9.16587e-07
9.26812e-07
9.33675e-07
9.3606e-07
9.3387e-07
9.27209e-07
9.1636e-07
9.01945e-07
8.8442e-07
8.64562e-07
8.42553e-07
8.19036e-07
7.93669e-07
7.66818e-07
7.36889e-07
7.0173e-07
6.57559e-07
5.91419e-07
4.96078e-07
3.76419e-07
2.46815e-07
1.42467e-07
1.31979e-07
3.08897e-07
6.96915e-07
1.26588e-06
1.93705e-06
2.56172e-06
2.87457e-06
2.70901e-06
2.02069e-06
7.25918e-07
-1.01522e-06
-2.926e-06
-4.7924e-06
-6.35214e-06
-7.35278e-06
-7.76468e-06
-7.60737e-06
-6.77332e-06
-5.57989e-06
-3.93173e-06
-2.29324e-06
-6.40737e-07
7.50168e-07
1.63656e-06
2.05277e-06
2.18056e-06
1.95755e-06
1.6635e-06
1.28242e-06
9.53919e-07
6.83923e-07
5.10978e-07
4.12444e-07
3.6296e-07
3.46223e-07
3.51024e-07
3.66415e-07
3.85516e-07
4.04917e-07
4.22346e-07
4.36244e-07
4.45579e-07
4.49561e-07
4.47679e-07
4.39911e-07
4.26806e-07
4.08132e-07
3.83913e-07
3.54059e-07
3.18433e-07
2.75545e-07
2.24697e-07
1.60795e-07
7.03619e-08
-5.45858e-08
-2.21534e-07
-4.23715e-07
-6.04009e-07
-6.84213e-07
-5.72198e-07
-1.62754e-07
5.95236e-07
1.60407e-06
2.72021e-06
3.81357e-06
4.56636e-06
4.7515e-06
4.38065e-06
3.19538e-06
1.72515e-06
1.02061e-06
6.31175e-07
5.44104e-07
8.19035e-07
1.4269e-06
2.23879e-06
3.11056e-06
3.94588e-06
4.87616e-06
5.89577e-06
6.97813e-06
8.12674e-06
9.3542e-06
1.06681e-05
1.20756e-05
1.35843e-05
1.51989e-05
1.69224e-05
1.87571e-05
2.07051e-05
2.27686e-05
2.49521e-05
2.72626e-05
2.97117e-05
3.23173e-05
3.51071e-05
3.81239e-05
4.14359e-05
4.5154e-05
4.9464e-05
5.46827e-05
6.1356e-05
7.03828e-05
8.30704e-05
0.00010128
0.000128626
-2.31643e-05
-1.68219e-05
-1.21957e-05
-8.88698e-06
-6.46666e-06
-4.7155e-06
-3.48148e-06
-2.61496e-06
-1.99871e-06
-1.55535e-06
-1.23134e-06
-9.86666e-07
-7.91017e-07
-6.21302e-07
-4.59564e-07
-2.91615e-07
-1.06223e-07
1.05378e-07
3.49784e-07
6.31524e-07
9.53018e-07
1.31439e-06
1.71313e-06
2.14365e-06
2.59655e-06
3.05779e-06
3.50723e-06
3.91645e-06
4.24651e-06
4.46795e-06
4.52828e-06
4.01302e-06
3.21742e-06
2.27165e-06
1.10379e-06
-3.8827e-07
-2.08299e-06
-4.16139e-06
-5.55953e-06
-6.24891e-06
-6.88878e-06
-7.33174e-06
-7.5042e-06
-7.56725e-06
-7.63146e-06
-7.76473e-06
-7.98442e-06
-8.27105e-06
-8.61844e-06
-8.94214e-06
-9.13419e-06
-9.07256e-06
-8.8032e-06
-8.06017e-06
-7.05198e-06
-5.67958e-06
-4.25682e-06
-2.61957e-06
-1.02323e-06
3.57642e-07
1.36348e-06
2.4781e-06
2.68057e-06
2.75638e-06
2.37987e-06
1.90983e-06
1.50147e-06
1.19658e-06
1.02514e-06
9.35874e-07
8.98222e-07
8.94188e-07
9.04538e-07
9.18075e-07
9.29433e-07
9.36352e-07
9.38281e-07
9.35266e-07
9.27796e-07
9.16086e-07
9.00535e-07
8.81854e-07
8.60318e-07
8.36364e-07
8.09991e-07
7.80886e-07
7.48266e-07
7.0891e-07
6.59737e-07
5.96263e-07
5.17623e-07
4.31837e-07
3.67263e-07
3.49528e-07
4.46093e-07
6.84866e-07
1.06569e-06
1.51874e-06
1.96783e-06
2.23846e-06
2.14639e-06
1.62937e-06
6.72906e-07
-6.33647e-07
-2.18847e-06
-3.73961e-06
-5.1032e-06
-6.07543e-06
-6.56771e-06
-6.60155e-06
-6.2047e-06
-5.34255e-06
-4.30113e-06
-3.0189e-06
-1.82994e-06
-7.37031e-07
1.87357e-07
8.36352e-07
1.21703e-06
1.52102e-06
1.49884e-06
1.38868e-06
1.16895e-06
9.43588e-07
7.06179e-07
5.39398e-07
4.34048e-07
3.71074e-07
3.42534e-07
3.40417e-07
3.52852e-07
3.71793e-07
3.92625e-07
4.12588e-07
4.29842e-07
4.43082e-07
4.51215e-07
4.53541e-07
4.49877e-07
4.40578e-07
4.25084e-07
4.03064e-07
3.75339e-07
3.40465e-07
2.97546e-07
2.44685e-07
1.76906e-07
8.81622e-08
-2.11213e-08
-1.44454e-07
-2.52771e-07
-2.90856e-07
-2.01481e-07
1.06685e-07
6.66817e-07
1.42923e-06
2.30179e-06
3.16874e-06
3.81806e-06
4.01482e-06
3.757e-06
3.08762e-06
1.97552e-06
1.23919e-06
9.83512e-07
8.34537e-07
9.64991e-07
1.33544e-06
1.92478e-06
2.65876e-06
3.44404e-06
4.23946e-06
5.15476e-06
6.16465e-06
7.24116e-06
8.38913e-06
9.6201e-06
1.09412e-05
1.2358e-05
1.38758e-05
1.54983e-05
1.72282e-05
1.90678e-05
2.10192e-05
2.30851e-05
2.52702e-05
2.75816e-05
3.00303e-05
3.26328e-05
3.5414e-05
3.84119e-05
4.16858e-05
4.53297e-05
4.94952e-05
5.4423e-05
6.04794e-05
6.81246e-05
7.75157e-05
8.7588e-05
9.89491e-05
-1.53452e-05
-1.29766e-05
-1.05768e-05
-8.30897e-06
-6.48135e-06
-5.03994e-06
-3.92997e-06
-3.09726e-06
-2.4746e-06
-2.00681e-06
-1.6511e-06
-1.37336e-06
-1.14624e-06
-9.47832e-07
-7.60518e-07
-5.70073e-07
-3.65018e-07
-1.36219e-07
1.23365e-07
4.18794e-07
7.53112e-07
1.12719e-06
1.53946e-06
1.98549e-06
2.45744e-06
2.94337e-06
3.42614e-06
3.88154e-06
4.27702e-06
4.58978e-06
4.78381e-06
4.54238e-06
4.05359e-06
3.37948e-06
2.45882e-06
1.19205e-06
-2.9839e-07
-2.05363e-06
-3.37452e-06
-4.28562e-06
-5.11971e-06
-5.75958e-06
-6.16823e-06
-6.47241e-06
-6.74973e-06
-7.05404e-06
-7.35343e-06
-7.66285e-06
-7.98459e-06
-8.24872e-06
-8.31722e-06
-8.15352e-06
-7.77802e-06
-7.09251e-06
-6.24447e-06
-5.22751e-06
-4.2245e-06
-3.15343e-06
-2.10396e-06
-1.09738e-06
-2.55972e-07
7.98473e-07
1.32914e-06
1.75997e-06
1.79216e-06
1.69858e-06
1.46397e-06
1.20881e-06
1.05112e-06
9.61985e-07
9.10185e-07
8.91497e-07
8.94318e-07
9.07283e-07
9.21973e-07
9.33602e-07
9.4023e-07
9.41341e-07
9.37524e-07
9.28821e-07
9.1569e-07
8.98817e-07
8.78634e-07
8.55127e-07
8.28231e-07
8.00165e-07
7.67328e-07
7.27481e-07
6.81542e-07
6.27658e-07
5.71216e-07
5.24933e-07
5.1099e-07
5.44168e-07
6.82712e-07
9.25639e-07
1.23661e-06
1.53094e-06
1.72851e-06
1.71902e-06
1.332e-06
6.04757e-07
-4.04626e-07
-1.63073e-06
-2.93978e-06
-4.10756e-06
-5.02418e-06
-5.58113e-06
-5.75722e-06
-5.58679e-06
-5.10447e-06
-4.30944e-06
-3.44555e-06
-2.45251e-06
-1.57707e-06
-7.90755e-07
-1.28823e-07
3.70128e-07
7.01029e-07
1.00333e-06
1.09627e-06
1.0807e-06
9.46259e-07
8.4218e-07
6.7337e-07
5.30068e-07
4.30926e-07
3.68198e-07
3.37167e-07
3.30519e-07
3.39727e-07
3.57981e-07
3.80215e-07
4.02735e-07
4.23298e-07
4.40439e-07
4.52797e-07
4.59737e-07
4.60639e-07
4.55851e-07
4.44857e-07
4.26742e-07
4.03368e-07
3.72357e-07
3.34361e-07
2.86312e-07
2.25147e-07
1.51782e-07
7.76148e-08
1.63553e-08
8.46538e-10
7.56709e-08
2.99403e-07
7.11246e-07
1.28153e-06
1.94913e-06
2.62727e-06
3.17727e-06
3.43757e-06
3.27252e-06
2.8118e-06
2.18486e-06
1.30972e-06
1.14338e-06
1.06111e-06
1.02988e-06
1.25575e-06
1.66425e-06
2.23611e-06
2.92965e-06
3.67639e-06
4.45476e-06
5.36191e-06
6.36337e-06
7.43287e-06
8.57712e-06
9.80705e-06
1.11289e-05
1.25475e-05
1.4067e-05
1.56909e-05
1.74215e-05
1.92607e-05
2.12104e-05
2.32732e-05
2.5453e-05
2.77556e-05
3.01901e-05
3.27694e-05
3.55123e-05
3.84469e-05
4.16155e-05
4.50834e-05
4.89504e-05
5.33613e-05
5.85002e-05
6.45095e-05
7.11618e-05
7.71702e-05
8.25621e-05
-1.0895e-05
-1.00179e-05
-8.82029e-06
-7.36403e-06
-6.03153e-06
-4.92358e-06
-4.01067e-06
-3.28151e-06
-2.70945e-06
-2.2625e-06
-1.9107e-06
-1.62765e-06
-1.3907e-06
-1.18068e-06
-9.81586e-07
-7.80062e-07
-5.65077e-07
-3.27646e-07
-6.06655e-08
2.41156e-07
5.81258e-07
9.61076e-07
1.37979e-06
1.83394e-06
2.31699e-06
2.81866e-06
3.32408e-06
3.81208e-06
4.25443e-06
4.63075e-06
4.90992e-06
4.85125e-06
4.56147e-06
4.0579e-06
3.29328e-06
2.18258e-06
8.44113e-07
-6.99604e-07
-1.9701e-06
-2.97953e-06
-3.89606e-06
-4.64062e-06
-5.19149e-06
-5.64141e-06
-6.04457e-06
-6.42411e-06
-6.75528e-06
-7.08824e-06
-7.35617e-06
-7.49913e-06
-7.4469e-06
-7.19422e-06
-6.7588e-06
-6.12182e-06
-5.39253e-06
-4.5988e-06
-3.8483e-06
-3.10861e-06
-2.41793e-06
-1.74646e-06
-1.15941e-06
-3.5736e-07
1.90484e-07
7.85581e-07
1.01059e-06
1.20977e-06
1.22332e-06
1.10294e-06
1.01118e-06
9.50288e-07
9.02374e-07
8.8219e-07
8.84894e-07
8.98347e-07
9.1462e-07
9.2951e-07
9.40707e-07
9.46438e-07
9.47135e-07
9.42236e-07
9.32189e-07
9.17815e-07
8.99849e-07
8.77813e-07
8.52486e-07
8.24692e-07
7.93257e-07
7.57269e-07
7.16849e-07
6.75507e-07
6.43412e-07
6.29615e-07
6.32926e-07
7.02856e-07
8.48872e-07
1.04451e-06
1.25389e-06
1.37166e-06
1.34437e-06
1.08218e-06
5.44595e-07
-2.8657e-07
-1.25868e-06
-2.32455e-06
-3.33935e-06
-4.16648e-06
-4.74606e-06
-5.02186e-06
-5.00481e-06
-4.73101e-06
-4.23876e-06
-3.54208e-06
-2.8374e-06
-2.05689e-06
-1.39252e-06
-7.97924e-07
-2.99667e-07
9.03301e-08
3.63169e-07
6.14908e-07
7.3314e-07
8.00014e-07
7.24843e-07
6.71287e-07
5.72759e-07
4.77427e-07
4.01677e-07
3.46084e-07
3.17029e-07
3.10716e-07
3.20397e-07
3.39821e-07
3.64443e-07
3.90308e-07
4.14888e-07
4.36737e-07
4.54049e-07
4.66307e-07
4.72541e-07
4.73422e-07
4.68353e-07
4.55717e-07
4.38674e-07
4.13574e-07
3.82539e-07
3.45314e-07
3.00282e-07
2.5409e-07
2.24033e-07
2.26399e-07
2.86123e-07
4.54224e-07
7.59097e-07
1.18452e-06
1.69661e-06
2.23574e-06
2.67046e-06
2.91862e-06
2.86623e-06
2.54823e-06
2.07748e-06
1.58606e-06
9.69793e-07
1.14324e-06
1.13728e-06
1.16614e-06
1.45969e-06
1.88773e-06
2.44554e-06
3.11471e-06
3.84134e-06
4.60918e-06
5.50548e-06
6.49483e-06
7.55374e-06
8.68974e-06
9.91303e-06
1.12292e-05
1.26426e-05
1.41572e-05
1.57761e-05
1.75014e-05
1.93345e-05
2.12767e-05
2.33299e-05
2.54965e-05
2.77806e-05
3.01876e-05
3.27253e-05
3.54046e-05
3.82409e-05
4.12569e-05
4.4486e-05
4.79761e-05
5.17876e-05
5.59696e-05
6.04802e-05
6.5014e-05
6.87695e-05
7.14256e-05
-8.05462e-06
-7.84023e-06
-7.28211e-06
-6.38993e-06
-5.44334e-06
-4.59929e-06
-3.87719e-06
-3.26729e-06
-2.7676e-06
-2.36305e-06
-2.03457e-06
-1.76287e-06
-1.5301e-06
-1.32021e-06
-1.11925e-06
-9.15258e-07
-6.98031e-07
-4.59094e-07
-1.91602e-07
1.09689e-07
4.4835e-07
8.2612e-07
1.24266e-06
1.69521e-06
2.17812e-06
2.68233e-06
3.19453e-06
3.69573e-06
4.16069e-06
4.56961e-06
4.89273e-06
4.94717e-06
4.78142e-06
4.38631e-06
3.72876e-06
2.74298e-06
1.53886e-06
1.65443e-07
-1.04032e-06
-2.07115e-06
-3.0104e-06
-3.80671e-06
-4.43862e-06
-4.97117e-06
-5.44296e-06
-5.86351e-06
-6.20603e-06
-6.50664e-06
-6.69218e-06
-6.72942e-06
-6.58897e-06
-6.27963e-06
-5.8252e-06
-5.24376e-06
-4.61699e-06
-3.98148e-06
-3.40026e-06
-2.86574e-06
-2.39695e-06
-1.95707e-06
-1.58018e-06
-1.03602e-06
-6.04203e-07
-3.55787e-08
2.85721e-07
5.87534e-07
8.17237e-07
8.47563e-07
8.53182e-07
8.63492e-07
8.53546e-07
8.48351e-07
8.5853e-07
8.78609e-07
9.01125e-07
9.2162e-07
9.38564e-07
9.49717e-07
9.56103e-07
9.56089e-07
9.49896e-07
9.38873e-07
9.24455e-07
9.04983e-07
8.82638e-07
8.55137e-07
8.25466e-07
7.93559e-07
7.5968e-07
7.30523e-07
7.18066e-07
7.13834e-07
7.34164e-07
8.24837e-07
9.41211e-07
1.06413e-06
1.14634e-06
1.08965e-06
8.74967e-07
4.6876e-07
-1.7879e-07
-1.00562e-06
-1.87286e-06
-2.7286e-06
-3.47286e-06
-4.02852e-06
-4.36682e-06
-4.45817e-06
-4.33007e-06
-4.01499e-06
-3.55058e-06
-2.95384e-06
-2.37302e-06
-1.75913e-06
-1.24191e-06
-7.80211e-07
-3.95404e-07
-8.79962e-08
1.33715e-07
3.36641e-07
4.45059e-07
5.35462e-07
5.26954e-07
5.10078e-07
4.32623e-07
3.82682e-07
3.37e-07
2.96308e-07
2.75929e-07
2.75647e-07
2.90077e-07
3.13509e-07
3.42523e-07
3.73204e-07
4.02915e-07
4.3065e-07
4.53906e-07
4.72417e-07
4.84942e-07
4.92608e-07
4.94843e-07
4.89145e-07
4.80531e-07
4.64343e-07
4.44156e-07
4.21709e-07
3.97202e-07
3.82833e-07
3.96932e-07
4.49006e-07
5.78511e-07
8.09586e-07
1.12734e-06
1.5167e-06
1.93665e-06
2.30269e-06
2.49725e-06
2.49845e-06
2.29224e-06
1.93243e-06
1.55426e-06
1.20081e-06
8.22012e-07
1.16574e-06
1.19982e-06
1.27407e-06
1.60843e-06
2.04253e-06
2.58606e-06
3.23546e-06
3.94628e-06
4.70325e-06
5.58399e-06
6.55614e-06
7.59924e-06
8.72088e-06
9.9306e-06
1.12337e-05
1.26345e-05
1.41366e-05
1.57431e-05
1.74557e-05
1.92753e-05
2.12025e-05
2.3238e-05
2.53823e-05
2.76364e-05
3.00019e-05
3.24803e-05
3.50737e-05
3.77846e-05
4.06163e-05
4.35728e-05
4.66582e-05
4.98688e-05
5.3168e-05
5.64233e-05
5.93544e-05
6.14884e-05
6.25953e-05
-6.17931e-06
-6.24117e-06
-6.01504e-06
-5.47467e-06
-4.82648e-06
-4.19591e-06
-3.62439e-06
-3.12531e-06
-2.70053e-06
-2.34569e-06
-2.04934e-06
-1.79774e-06
-1.57712e-06
-1.37461e-06
-1.17842e-06
-9.78085e-07
-7.64453e-07
-5.29774e-07
-2.67697e-07
2.6737e-08
3.56979e-07
7.24816e-07
1.13012e-06
1.57053e-06
2.04098e-06
2.53323e-06
3.03515e-06
3.52942e-06
3.99322e-06
4.40687e-06
4.7414e-06
4.85786e-06
4.76591e-06
4.4431e-06
3.86905e-06
2.99605e-06
1.9209e-06
6.98813e-07
-4.27039e-07
-1.43471e-06
-2.36215e-06
-3.17472e-06
-3.84475e-06
-4.41805e-06
-4.92578e-06
-5.35312e-06
-5.66943e-06
-5.91139e-06
-6.02046e-06
-5.97875e-06
-5.77943e-06
-5.44192e-06
-4.99617e-06
-4.47447e-06
-3.938e-06
-3.4218e-06
-2.96326e-06
-2.56199e-06
-2.22485e-06
-1.92925e-06
-1.69103e-06
-1.3486e-06
-1.05731e-06
-6.21958e-07
-2.94434e-07
1.05607e-08
3.26572e-07
5.02078e-07
5.94639e-07
6.91604e-07
7.43715e-07
7.72582e-07
8.02521e-07
8.38391e-07
8.74193e-07
9.04909e-07
9.30676e-07
9.48981e-07
9.6287e-07
9.69392e-07
9.68065e-07
9.61025e-07
9.51013e-07
9.34276e-07
9.14337e-07
8.89437e-07
8.62995e-07
8.35166e-07
8.06634e-07
7.87091e-07
7.85099e-07
7.87753e-07
8.28031e-07
9.01461e-07
9.65003e-07
1.01073e-06
9.18861e-07
7.3771e-07
4.03966e-07
-1.03656e-07
-7.76555e-07
-1.51935e-06
-2.24181e-06
-2.89648e-06
-3.42034e-06
-3.77394e-06
-3.94758e-06
-3.92524e-06
-3.74093e-06
-3.42101e-06
-3.00002e-06
-2.49151e-06
-2.01198e-06
-1.52286e-06
-1.11225e-06
-7.47167e-07
-4.44248e-07
-1.98726e-07
-1.72764e-08
1.4629e-07
2.38138e-07
3.19301e-07
3.31185e-07
3.58614e-07
3.00248e-07
2.66866e-07
2.46153e-07
2.23907e-07
2.15685e-07
2.2412e-07
2.46142e-07
2.76224e-07
3.11944e-07
3.49349e-07
3.85561e-07
4.20666e-07
4.51072e-07
4.76968e-07
4.96835e-07
5.12393e-07
5.23271e-07
5.25789e-07
5.27366e-07
5.22076e-07
5.14932e-07
5.0968e-07
5.07949e-07
5.24386e-07
5.70027e-07
6.74197e-07
8.60096e-07
1.10273e-06
1.39598e-06
1.70929e-06
2.00886e-06
2.16477e-06
2.18712e-06
2.06115e-06
1.77878e-06
1.45603e-06
1.20815e-06
9.90419e-07
7.86775e-07
1.18383e-06
1.24547e-06
1.35888e-06
1.71314e-06
2.14384e-06
2.6721e-06
3.30211e-06
3.99626e-06
4.73941e-06
5.59935e-06
6.54827e-06
7.56889e-06
8.66863e-06
9.85657e-06
1.1138e-05
1.25172e-05
1.39979e-05
1.5583e-05
1.72737e-05
1.90706e-05
2.09732e-05
2.29805e-05
2.50908e-05
2.73018e-05
2.96101e-05
3.20111e-05
3.44981e-05
3.70613e-05
3.96865e-05
4.23535e-05
4.50321e-05
4.76741e-05
5.01961e-05
5.24404e-05
5.42059e-05
5.5283e-05
5.55628e-05
-4.8875e-06
-5.04637e-06
-4.98588e-06
-4.66115e-06
-4.22692e-06
-3.75687e-06
-3.31022e-06
-2.90667e-06
-2.55025e-06
-2.24365e-06
-1.9816e-06
-1.75382e-06
-1.5494e-06
-1.35827e-06
-1.17089e-06
-9.78319e-07
-7.72536e-07
-5.46641e-07
-2.94959e-07
-1.29879e-08
3.02405e-07
6.52841e-07
1.03819e-06
1.45627e-06
1.90239e-06
2.36895e-06
2.84483e-06
3.3143e-06
3.75687e-06
4.15332e-06
4.47617e-06
4.62019e-06
4.5711e-06
4.30169e-06
3.80149e-06
3.03647e-06
2.08692e-06
1.00403e-06
-3.25108e-08
-9.9193e-07
-1.88635e-06
-2.68974e-06
-3.3666e-06
-3.94999e-06
-4.46059e-06
-4.85022e-06
-5.13573e-06
-5.32286e-06
-5.36766e-06
-5.26881e-06
-5.03445e-06
-4.69092e-06
-4.27071e-06
-3.80884e-06
-3.35103e-06
-2.92691e-06
-2.5577e-06
-2.25086e-06
-1.99705e-06
-1.78378e-06
-1.62713e-06
-1.41928e-06
-1.23985e-06
-9.49773e-07
-6.86875e-07
-4.1938e-07
-1.2459e-07
1.24536e-07
2.95194e-07
4.4631e-07
5.7147e-07
6.52718e-07
7.12827e-07
7.72044e-07
8.27943e-07
8.74427e-07
9.13464e-07
9.41634e-07
9.65571e-07
9.81078e-07
9.86181e-07
9.84115e-07
9.79533e-07
9.6661e-07
9.51046e-07
9.29233e-07
9.0648e-07
8.83085e-07
8.59325e-07
8.52226e-07
8.47092e-07
8.58064e-07
8.96517e-07
9.21335e-07
8.97158e-07
8.69417e-07
7.20721e-07
3.7418e-07
-5.47847e-08
-5.90869e-07
-1.21047e-06
-1.83912e-06
-2.41186e-06
-2.89438e-06
-3.24976e-06
-3.46101e-06
-3.52773e-06
-3.44008e-06
-3.23274e-06
-2.92576e-06
-2.54924e-06
-2.12008e-06
-1.72241e-06
-1.32677e-06
-9.95636e-07
-7.02813e-07
-4.60766e-07
-2.62354e-07
-1.12606e-07
2.01454e-08
9.73435e-08
1.63487e-07
1.74425e-07
2.04191e-07
1.78107e-07
1.53558e-07
1.45238e-07
1.3712e-07
1.40488e-07
1.5773e-07
1.88284e-07
2.26482e-07
2.70735e-07
3.16782e-07
3.60928e-07
4.05143e-07
4.44146e-07
4.78791e-07
5.07234e-07
5.31845e-07
5.52685e-07
5.64491e-07
5.77492e-07
5.8443e-07
5.918e-07
6.05524e-07
6.26492e-07
6.66541e-07
7.48756e-07
8.97274e-07
1.09105e-06
1.31914e-06
1.55812e-06
1.76525e-06
1.9223e-06
1.96855e-06
1.83416e-06
1.63435e-06
1.34749e-06
1.1305e-06
1.00703e-06
8.90503e-07
8.02658e-07
1.18733e-06
1.27421e-06
1.42152e-06
1.78126e-06
2.20234e-06
2.71379e-06
3.32269e-06
3.99688e-06
4.72163e-06
5.55501e-06
6.47398e-06
7.46457e-06
8.53404e-06
9.69112e-06
1.09413e-05
1.22889e-05
1.3738e-05
1.52911e-05
1.69492e-05
1.87122e-05
2.05784e-05
2.25448e-05
2.46072e-05
2.67597e-05
2.8994e-05
3.12993e-05
3.36606e-05
3.60573e-05
3.8461e-05
4.08326e-05
4.31176e-05
4.52411e-05
4.7104e-05
4.85816e-05
4.95864e-05
5.00486e-05
4.99391e-05
-3.94858e-06
-4.12749e-06
-4.14622e-06
-3.95442e-06
-3.65652e-06
-3.31301e-06
-2.96655e-06
-2.64352e-06
-2.34937e-06
-2.0853e-06
-1.85531e-06
-1.65187e-06
-1.46535e-06
-1.28754e-06
-1.11131e-06
-9.29381e-07
-7.34737e-07
-5.21328e-07
-2.84236e-07
-1.96015e-08
2.75253e-07
6.01622e-07
9.59246e-07
1.34604e-06
1.75762e-06
2.18697e-06
2.62403e-06
3.05485e-06
3.46144e-06
3.82562e-06
4.12279e-06
4.27311e-06
4.24946e-06
4.02454e-06
3.59444e-06
2.93365e-06
2.10471e-06
1.15073e-06
2.07498e-07
-6.89866e-07
-1.53752e-06
-2.31295e-06
-2.97387e-06
-3.54452e-06
-4.03105e-06
-4.37373e-06
-4.62548e-06
-4.75651e-06
-4.74754e-06
-4.6098e-06
-4.35935e-06
-4.02545e-06
-3.63989e-06
-3.2352e-06
-2.84538e-06
-2.49398e-06
-2.19242e-06
-1.94881e-06
-1.75567e-06
-1.5965e-06
-1.48164e-06
-1.3534e-06
-1.24654e-06
-1.06907e-06
-8.86751e-07
-6.83832e-07
-4.44323e-07
-2.10361e-07
4.30787e-09
1.90045e-07
3.50531e-07
4.94409e-07
5.90843e-07
6.7779e-07
7.58481e-07
8.25651e-07
8.83178e-07
9.25011e-07
9.62184e-07
9.89865e-07
1.00374e-06
1.00901e-06
1.01215e-06
1.00421e-06
9.94114e-07
9.76116e-07
9.58181e-07
9.40742e-07
9.2624e-07
9.17325e-07
9.1287e-07
9.25056e-07
9.28913e-07
8.90728e-07
8.28534e-07
6.9521e-07
4.37344e-07
4.46815e-08
-4.17511e-07
-9.36804e-07
-1.47866e-06
-1.99165e-06
-2.43108e-06
-2.77804e-06
-3.01232e-06
-3.12814e-06
-3.12816e-06
-3.00564e-06
-2.79357e-06
-2.50733e-06
-2.17365e-06
-1.81325e-06
-1.48018e-06
-1.1568e-06
-8.87005e-07
-6.50043e-07
-4.5486e-07
-2.93519e-07
-1.69484e-07
-6.09318e-08
4.69674e-09
5.84178e-08
6.73081e-08
8.84218e-08
6.87001e-08
5.45341e-08
4.989e-08
4.78215e-08
5.8269e-08
8.16373e-08
1.19269e-07
1.65151e-07
2.1846e-07
2.74434e-07
3.27577e-07
3.82564e-07
4.31699e-07
4.76631e-07
5.15126e-07
5.50047e-07
5.82233e-07
6.04408e-07
6.2982e-07
6.4997e-07
6.72677e-07
7.0669e-07
7.42201e-07
8.11667e-07
9.33816e-07
1.0901e-06
1.26447e-06
1.44398e-06
1.5883e-06
1.72513e-06
1.77716e-06
1.68294e-06
1.49371e-06
1.28396e-06
1.0435e-06
9.33462e-07
9.00673e-07
8.48394e-07
8.33876e-07
1.17697e-06
1.28776e-06
1.46231e-06
1.81779e-06
2.2251e-06
2.71765e-06
3.30254e-06
3.9523e-06
4.6532e-06
5.45396e-06
6.33608e-06
7.28878e-06
8.31928e-06
9.43608e-06
1.06449e-05
1.19504e-05
1.33566e-05
1.48659e-05
1.64792e-05
1.81953e-05
2.00113e-05
2.19223e-05
2.39213e-05
2.59986e-05
2.81414e-05
3.0333e-05
3.25511e-05
3.47663e-05
3.69392e-05
3.90178e-05
4.0933e-05
4.25989e-05
4.39235e-05
4.48433e-05
4.53599e-05
4.54399e-05
4.52126e-05
-3.23072e-06
-3.3989e-06
-3.45216e-06
-3.34174e-06
-3.13718e-06
-2.8853e-06
-2.61809e-06
-2.35731e-06
-2.11629e-06
-1.89477e-06
-1.69154e-06
-1.50963e-06
-1.34182e-06
-1.17845e-06
-1.01498e-06
-8.4592e-07
-6.65091e-07
-4.67193e-07
-2.48222e-07
-5.06222e-09
2.64444e-07
5.61166e-07
8.84689e-07
1.23316e-06
1.60249e-06
1.98629e-06
2.37575e-06
2.75889e-06
3.12023e-06
3.44343e-06
3.70882e-06
3.85345e-06
3.84603e-06
3.6612e-06
3.29855e-06
2.73666e-06
2.02108e-06
1.18607e-06
3.36322e-07
-4.91611e-07
-1.28334e-06
-2.01748e-06
-2.64792e-06
-3.19241e-06
-3.633e-06
-3.93014e-06
-4.13772e-06
-4.21605e-06
-4.16657e-06
-4.00572e-06
-3.75335e-06
-3.43913e-06
-3.09215e-06
-2.74047e-06
-2.40925e-06
-2.11654e-06
-1.86794e-06
-1.67033e-06
-1.51691e-06
-1.39803e-06
-1.31009e-06
-1.22428e-06
-1.15802e-06
-1.05414e-06
-9.3812e-07
-7.99293e-07
-6.23162e-07
-4.35812e-07
-2.38979e-07
-3.20374e-08
1.29895e-07
3.13419e-07
4.51394e-07
5.65308e-07
6.69994e-07
7.57704e-07
8.3649e-07
8.96048e-07
9.50275e-07
9.93987e-07
1.01928e-06
1.03457e-06
1.04811e-06
1.0472e-06
1.04466e-06
1.03203e-06
1.0205e-06
1.01131e-06
1.00048e-06
9.90498e-07
9.91378e-07
9.82157e-07
9.51113e-07
8.70646e-07
7.2601e-07
5.10484e-07
1.79088e-07
-2.26292e-07
-6.81238e-07
-1.15319e-06
-1.60798e-06
-2.01504e-06
-2.34632e-06
-2.59343e-06
-2.74442e-06
-2.79791e-06
-2.75698e-06
-2.6176e-06
-2.41046e-06
-2.1483e-06
-1.85589e-06
-1.54952e-06
-1.26993e-06
-1.00478e-06
-7.83849e-07
-5.91412e-07
-4.33459e-07
-3.02175e-07
-1.99513e-07
-1.1036e-07
-5.40048e-08
-9.71534e-09
-1.25096e-09
1.24628e-08
-6.33977e-09
-2.07426e-08
-2.8184e-08
-3.11461e-08
-1.99261e-08
4.59961e-09
4.5386e-08
9.62078e-08
1.57124e-07
2.23008e-07
2.85293e-07
3.5205e-07
4.12577e-07
4.69282e-07
5.19484e-07
5.66075e-07
6.11092e-07
6.44953e-07
6.83737e-07
7.17798e-07
7.55118e-07
8.05224e-07
8.67764e-07
9.66224e-07
1.09752e-06
1.24305e-06
1.39146e-06
1.49211e-06
1.57512e-06
1.58952e-06
1.53934e-06
1.39057e-06
1.20423e-06
1.02359e-06
8.47404e-07
8.22421e-07
8.45085e-07
8.30942e-07
8.6159e-07
1.15507e-06
1.28647e-06
1.48061e-06
1.82556e-06
2.21619e-06
2.68731e-06
3.24465e-06
3.86509e-06
4.53632e-06
5.29836e-06
6.13677e-06
7.04381e-06
8.02674e-06
9.09385e-06
1.02511e-05
1.15035e-05
1.28551e-05
1.43082e-05
1.58632e-05
1.75183e-05
1.92691e-05
2.11088e-05
2.30277e-05
2.50127e-05
2.70467e-05
2.91078e-05
3.11677e-05
3.31902e-05
3.51286e-05
3.6923e-05
3.84988e-05
3.97702e-05
4.06615e-05
4.11551e-05
4.13405e-05
4.12557e-05
4.10407e-05
-2.65684e-06
-2.80373e-06
-2.86883e-06
-2.80805e-06
-2.66779e-06
-2.4824e-06
-2.27643e-06
-2.06763e-06
-1.86788e-06
-1.68181e-06
-1.50877e-06
-1.34599e-06
-1.19238e-06
-1.04481e-06
-8.96436e-07
-7.4224e-07
-5.77424e-07
-3.97585e-07
-1.99666e-07
1.86801e-08
2.59186e-07
5.22255e-07
8.0717e-07
1.1126e-06
1.43493e-06
1.76839e-06
2.1056e-06
2.43666e-06
2.74899e-06
3.02893e-06
3.25853e-06
3.39266e-06
3.39687e-06
3.2489e-06
2.94991e-06
2.47955e-06
1.86842e-06
1.14268e-06
3.84426e-07
-3.7017e-07
-1.09957e-06
-1.78253e-06
-2.37064e-06
-2.8715e-06
-3.25034e-06
-3.50642e-06
-3.66986e-06
-3.70627e-06
-3.62873e-06
-3.45681e-06
-3.21235e-06
-2.92354e-06
-2.61581e-06
-2.31231e-06
-2.03154e-06
-1.78703e-06
-1.58109e-06
-1.41931e-06
-1.29495e-06
-1.20229e-06
-1.13393e-06
-1.07448e-06
-1.02896e-06
-9.67848e-07
-8.96728e-07
-8.07741e-07
-6.86963e-07
-5.49876e-07
-3.96011e-07
-2.08649e-07
-4.93023e-08
1.23733e-07
2.97644e-07
4.37859e-07
5.7028e-07
6.77082e-07
7.7401e-07
8.5201e-07
9.26318e-07
9.90477e-07
1.03063e-06
1.05961e-06
1.08666e-06
1.09575e-06
1.1037e-06
1.09883e-06
1.09539e-06
1.09528e-06
1.08481e-06
1.08281e-06
1.07395e-06
1.03704e-06
9.66117e-07
8.27026e-07
6.20908e-07
3.44889e-07
-2.39658e-08
-4.21603e-07
-8.43259e-07
-1.25343e-06
-1.62635e-06
-1.94687e-06
-2.19736e-06
-2.37412e-06
-2.46864e-06
-2.48113e-06
-2.41495e-06
-2.26913e-06
-2.07188e-06
-1.83442e-06
-1.57866e-06
-1.31856e-06
-1.08376e-06
-8.66122e-07
-6.85081e-07
-5.29046e-07
-4.01413e-07
-2.95099e-07
-2.1054e-07
-1.37328e-07
-8.89081e-08
-5.17795e-08
-4.28103e-08
-3.41735e-08
-5.16942e-08
-6.87573e-08
-8.16364e-08
-8.98334e-08
-8.33309e-08
-6.30568e-08
-2.44792e-08
2.64741e-08
9.12575e-08
1.65467e-07
2.3572e-07
3.13923e-07
3.86301e-07
4.55832e-07
5.19336e-07
5.78954e-07
6.38346e-07
6.856e-07
7.39104e-07
7.88725e-07
8.42194e-07
9.0807e-07
9.97703e-07
1.10309e-06
1.21737e-06
1.31955e-06
1.45027e-06
1.52472e-06
1.47528e-06
1.39614e-06
1.29993e-06
1.14173e-06
9.80597e-07
8.44895e-07
7.31677e-07
7.62188e-07
8.10866e-07
8.18367e-07
8.7553e-07
1.12236e-06
1.26939e-06
1.47555e-06
1.80598e-06
2.17759e-06
2.62441e-06
3.15039e-06
3.73646e-06
4.37212e-06
5.08939e-06
5.87743e-06
6.73134e-06
7.65838e-06
8.66667e-06
9.76237e-06
1.09507e-05
1.22358e-05
1.36198e-05
1.51027e-05
1.66818e-05
1.83518e-05
2.01039e-05
2.1926e-05
2.38019e-05
2.57107e-05
2.76264e-05
2.95161e-05
3.13389e-05
3.3044e-05
3.45688e-05
3.58395e-05
3.67799e-05
3.73366e-05
3.75303e-05
3.74985e-05
3.73731e-05
3.72166e-05
-2.17972e-06
-2.30352e-06
-2.36942e-06
-2.33885e-06
-2.24296e-06
-2.10635e-06
-1.94766e-06
-1.78123e-06
-1.61695e-06
-1.46002e-06
-1.31162e-06
-1.17042e-06
-1.03507e-06
-9.03436e-07
-7.70632e-07
-6.31513e-07
-4.83303e-07
-3.23675e-07
-1.49443e-07
4.1385e-08
2.50425e-07
4.78093e-07
7.22653e-07
9.82646e-07
1.25576e-06
1.53739e-06
1.82144e-06
2.10002e-06
2.36324e-06
2.60002e-06
2.79544e-06
2.91611e-06
2.92882e-06
2.81412e-06
2.57336e-06
2.18575e-06
1.66945e-06
1.0439e-06
3.74173e-07
-3.04944e-07
-9.67052e-07
-1.58989e-06
-2.12234e-06
-2.56263e-06
-2.88544e-06
-3.1111e-06
-3.22994e-06
-3.23125e-06
-3.13481e-06
-2.96066e-06
-2.73051e-06
-2.46985e-06
-2.20011e-06
-1.93978e-06
-1.70247e-06
-1.49809e-06
-1.32717e-06
-1.19412e-06
-1.09252e-06
-1.01888e-06
-9.63792e-07
-9.22584e-07
-8.91011e-07
-8.52963e-07
-8.09161e-07
-7.53595e-07
-6.74225e-07
-5.78826e-07
-4.68318e-07
-3.20009e-07
-1.78619e-07
-3.28356e-08
1.3647e-07
2.91958e-07
4.47283e-07
5.88314e-07
7.0206e-07
7.94094e-07
8.8694e-07
9.74163e-07
1.03291e-06
1.08031e-06
1.12452e-06
1.14766e-06
1.16972e-06
1.17591e-06
1.18247e-06
1.19254e-06
1.18546e-06
1.17971e-06
1.15342e-06
1.08188e-06
9.65635e-07
7.72062e-07
5.18034e-07
2.08525e-07
-1.67413e-07
-5.38651e-07
-9.14096e-07
-1.26286e-06
-1.56801e-06
-1.82294e-06
-2.01512e-06
-2.14207e-06
-2.19714e-06
-2.18162e-06
-2.09969e-06
-1.95358e-06
-1.76878e-06
-1.5555e-06
-1.33273e-06
-1.11274e-06
-9.16063e-07
-7.37952e-07
-5.9029e-07
-4.64642e-07
-3.62197e-07
-2.77133e-07
-2.08135e-07
-1.48157e-07
-1.07143e-07
-7.57353e-08
-6.58251e-08
-5.99518e-08
-7.50264e-08
-9.30131e-08
-1.10291e-07
-1.24462e-07
-1.25344e-07
-1.12983e-07
-8.13412e-08
-3.58205e-08
2.64969e-08
1.06397e-07
1.82232e-07
2.69829e-07
3.5314e-07
4.357e-07
5.13643e-07
5.87376e-07
6.62467e-07
7.24972e-07
7.94567e-07
8.61377e-07
9.32199e-07
1.01741e-06
1.11277e-06
1.2157e-06
1.31116e-06
1.38642e-06
1.42394e-06
1.41662e-06
1.32016e-06
1.21363e-06
1.09179e-06
9.44079e-07
8.1969e-07
7.29564e-07
6.66611e-07
7.23393e-07
7.77632e-07
7.97891e-07
8.6984e-07
1.07787e-06
1.23494e-06
1.44621e-06
1.75943e-06
2.10986e-06
2.52922e-06
3.01985e-06
3.56652e-06
4.1607e-06
4.82724e-06
5.55852e-06
6.35216e-06
7.2154e-06
8.15613e-06