/*--------------------------------*- C++ -*----------------------------------*\
| =========                 |                                                 |
| \\      /  F ield         | OpenFOAM: The Open Source CFD Toolbox           |
|  \\    /   O peration     | Version:  2506                                  |
|   \\  /    A nd           | Website:  www.openfoam.com                      |
|    \\/     M anipulation  |                                                 |
\*---------------------------------------------------------------------------*/
FoamFile
{
    version     2.0;
    format      ascii;
    arch        "LSB;label=32;scalar=64";
    class       volVectorField;
    location    "4.4";
    object      vorticityField;
}
// * * * * * * * * * * * * * * * * * * * * * * * * * * * * * * * * * * * * * //

dimensions      [0 0 -1 0 0 0 0];

internalField   nonuniform List<vector> 
4000
(
(3.72281e-19 1.50809e-19 30.8053)
(1.47243e-20 7.12005e-20 33.3334)
(1.85334e-19 5.46911e-19 28.0249)
(2.16438e-19 7.55353e-19 22.9702)
(-4.27114e-20 8.81382e-19 19.6056)
(2.40292e-20 4.64615e-21 17.2143)
(9.26616e-20 1.03126e-18 15.373)
(2.55524e-20 1.08913e-18 13.9321)
(-6.15777e-21 1.67372e-21 12.7882)
(-4.60851e-21 1.38971e-21 11.8597)
(4.53765e-20 2.40047e-17 11.0917)
(-6.72355e-20 -4.56507e-17 10.4482)
(2.12429e-20 2.16054e-17 9.90407)
(-1.37608e-20 -2.30502e-17 9.44099)
(1.25813e-20 2.29522e-17 9.04552)
(9.08274e-21 1.25964e-18 8.70749)
(-8.23349e-21 2.30321e-17 8.41892)
(2.1703e-20 -2.29521e-17 8.17337)
(3.13327e-20 1.27608e-18 7.96538)
(-3.70617e-20 -1.18133e-21 7.79017)
(3.80455e-21 -2.23549e-21 7.64329)
(9.26797e-20 -1.26329e-18 7.52037)
(-9.22782e-20 -1.25652e-18 7.41687)
(-1.24247e-19 -1.67374e-21 7.3278)
(1.28971e-19 -1.25571e-18 7.24741)
(7.03886e-21 -1.2443e-18 7.16867)
(1.91652e-19 5.28864e-21 7.08265)
(-2.39043e-20 1.86702e-19 6.97783)
(-5.28044e-19 4.43398e-17 6.83863)
(1.57191e-19 -4.577e-17 6.62064)
(2.10431e-19 2.23686e-21 6.26072)
(-2.51347e-19 -9.21143e-17 6.03555)
(3.09824e-18 1.23139e-16 6.27644)
(9.00654e-18 -4.152e-17 7.03218)
(1.15569e-17 -9.56763e-17 8.23929)
(4.72228e-17 7.47194e-16 9.88221)
(3.13571e-17 -5.99658e-17 11.7553)
(-4.54128e-17 -1.19652e-16 14.8273)
(-2.5974e-20 -2.87903e-18 19.5962)
(2.25666e-17 4.76886e-17 24.7939)
(-2.57285e-17 -5.74771e-17 29.7942)
(1.49591e-16 4.71968e-16 34.2729)
(-2.88105e-19 1.69373e-18 38.1038)
(3.15018e-16 2.82888e-16 41.2387)
(-1.47475e-16 -1.13504e-16 43.667)
(3.39834e-19 3.33172e-16 45.4238)
(1.6896e-18 7.78929e-18 46.4795)
(-2.6566e-18 -3.41909e-16 46.9668)
(-2.10507e-16 -1.91134e-16 47.004)
(-1.62059e-16 -1.38278e-16 46.706)
(-2.84236e-18 -5.08009e-18 46.1577)
(3.36343e-19 5.93604e-19 45.1563)
(-1.07882e-17 -2.21541e-17 44.0849)
(3.79625e-18 3.2312e-16 42.5531)
(-9.28164e-17 2.14364e-16 40.5128)
(5.1373e-18 -2.82196e-16 37.4725)
(-3.57635e-17 -8.71018e-17 33.4507)
(8.77775e-18 3.64069e-17 28.1753)
(3.98485e-20 -2.12762e-19 21.8924)
(8.76705e-19 -3.42405e-17 15.5814)
(2.34439e-18 -9.25332e-17 10.1256)
(6.82645e-18 3.86978e-17 6.02069)
(-2.39965e-18 3.45134e-16 3.2831)
(5.11823e-18 -3.50792e-16 1.66742)
(-3.66263e-20 7.68138e-19 0.763753)
(-7.62769e-20 6.67435e-20 0.329014)
(3.48445e-21 -3.13204e-20 0.13884)
(7.71379e-20 -4.8144e-17 0.0606011)
(6.16923e-20 -7.1309e-16 0.0319222)
(3.69416e-19 -3.77611e-16 0.0204713)
(-9.83255e-21 4.19578e-19 0.0148661)
(-3.93673e-19 3.21601e-16 0.0113088)
(-3.13185e-21 -3.14791e-16 0.00819504)
(-2.01877e-19 -4.31226e-17 0.00503897)
(-1.71043e-19 3.40575e-16 0.00196416)
(1.77762e-19 -2.89066e-16 -0.000995282)
(3.65803e-19 -3.18253e-16 -0.00373802)
(-4.9335e-20 -3.04172e-16 -0.00620032)
(-1.71074e-20 2.23594e-19 -0.00835401)
(-1.69399e-19 1.63609e-19 -0.0102496)
(1.55748e-19 8.25907e-18 -0.0119029)
(-1.31919e-19 2.39514e-16 -0.0134179)
(5.14675e-21 -3.10267e-19 -0.0150034)
(1.20283e-19 -2.11499e-16 -0.0167065)
(1.61478e-20 1.99602e-16 -0.0188438)
(-1.63883e-21 -1.28142e-19 -0.0216723)
(7.27494e-21 5.1106e-21 -0.0257481)
(-1.39501e-20 1.01199e-17 -0.0312467)
(-1.2212e-20 3.49433e-17 -0.0378993)
(-5.58139e-20 -8.49373e-17 -0.0428877)
(2.03396e-21 4.79511e-20 -0.0436404)
(-1.6223e-19 1.02758e-19 -0.0303421)
(-4.40456e-20 -1.43821e-17 0.00884304)
(4.43902e-20 1.83844e-20 0.0903064)
(-3.73702e-20 2.57792e-16 0.227465)
(1.32917e-18 2.68538e-16 0.409085)
(-2.71627e-19 2.76545e-16 0.634351)
(-9.77583e-20 1.84945e-17 0.838398)
(3.81475e-18 2.97716e-16 0.911857)
(3.59664e-18 3.23863e-16 0.789333)
(-3.39443e-20 -4.87166e-18 0.439896)
(-1.18249e-18 3.43949e-16 -0.143739)
(-4.53823e-18 6.95705e-16 -0.921606)
(-3.25555e-19 1.53411e-17 -1.734)
(-9.84739e-18 3.62289e-16 -2.45222)
(4.20496e-20 1.30286e-18 -2.88065)
(1.29016e-17 -3.75505e-16 -2.86162)
(1.0634e-17 -3.50472e-16 -2.31759)
(2.15365e-18 -2.32985e-17 -1.33008)
(1.98208e-18 3.72466e-18 0.0767558)
(-4.74288e-18 -3.43191e-16 1.8192)
(7.08476e-18 3.17778e-16 3.6469)
(8.69761e-20 -3.1008e-19 5.46573)
(1.47522e-17 6.02458e-16 6.9389)
(1.5826e-19 1.38917e-16 7.91393)
(5.09254e-18 2.9351e-16 8.14225)
(1.92942e-20 2.81411e-19 7.45272)
(-9.0375e-20 7.30594e-17 6.05546)
(1.08817e-19 -9.16938e-18 4.37173)
(-3.35413e-20 -9.67602e-20 2.78926)
(-9.69111e-20 9.41477e-18 1.60362)
(2.01042e-18 -3.33609e-16 0.834727)
(-3.42467e-19 3.47904e-16 0.391367)
(4.22002e-22 2.14031e-17 0.164643)
(-2.65827e-19 3.2694e-16 0.0623782)
(2.04142e-19 -6.81585e-16 0.0245535)
(-1.74647e-19 3.31198e-16 0.0133988)
(-3.78727e-20 -3.73824e-16 0.0120303)
(-9.84165e-20 2.27977e-19 0.0134529)
(5.96835e-20 -3.22548e-16 0.015079)
(3.24471e-21 1.81673e-19 0.0158143)
(-1.54264e-19 3.31132e-16 0.0153)
(1.22948e-19 -4.05638e-17 0.013818)
(-1.0785e-19 3.52374e-16 0.0117045)
(-7.27842e-20 -3.91902e-20 0.00920471)
(-1.01357e-20 -9.60994e-20 0.00646787)
(8.36874e-20 -2.80012e-16 0.00366989)
(-6.41526e-20 2.68025e-16 0.000911704)
(8.57452e-21 -1.05517e-19 -0.00184516)
(6.40392e-20 2.92574e-20 -0.00455579)
(-4.53036e-20 2.28764e-16 -0.00724926)
(7.85213e-21 -5.37845e-17 -0.00999831)
(-4.4982e-20 2.54966e-16 -0.0128387)
(1.25542e-20 -1.15095e-19 -0.0159302)
(-2.54643e-20 -1.39579e-16 -0.0194358)
(9.74112e-21 -9.13503e-17 -0.0235483)
(-1.75571e-21 6.91538e-17 -0.0273361)
(3.64047e-21 -4.78158e-17 -0.0290547)
(2.29478e-21 -7.87949e-21 -0.0246361)
(2.04788e-20 5.37529e-17 -0.00111165)
(6.53495e-20 1.7623e-19 0.0554782)
(-3.60876e-19 -3.68859e-16 0.169834)
(1.44089e-19 6.48328e-17 0.358905)
(-1.94508e-18 4.62927e-18 0.64569)
(-8.47663e-19 2.21569e-16 1.01073)
(1.02275e-18 7.59179e-17 1.41658)
(1.09659e-19 1.57307e-19 1.80307)
(8.98092e-19 9.86032e-19 2.04455)
(-7.1627e-19 -3.0755e-18 2.03404)
(-6.15128e-18 -7.17945e-16 1.71459)
(1.10233e-18 9.72907e-17 1.13653)
(6.47482e-20 3.95782e-16 0.303815)
(-1.25369e-18 3.01921e-16 -0.672647)
(-1.68749e-19 -1.28931e-18 -1.37774)
(6.53027e-19 -3.06749e-16 -1.69742)
(3.88305e-18 -5.23351e-16 -1.59894)
(2.83239e-19 -2.30086e-19 -1.19007)
(5.7076e-19 -6.92928e-17 -0.577889)
(8.6528e-19 -1.9557e-16 0.126922)
(9.21042e-20 -6.28231e-17 0.742558)
(1.8425e-19 6.14775e-20 1.16174)
(2.75692e-21 -9.3411e-19 1.4604)
(3.84817e-19 -4.79906e-22 1.7251)
(-3.71611e-19 -9.22586e-19 1.97714)
(-7.81865e-20 -1.31923e-18 2.22099)
(2.54287e-20 -5.94327e-17 2.46413)
(-5.45894e-19 6.03287e-17 2.7138)
(-1.41362e-19 2.83742e-17 2.97409)
(7.28807e-19 -2.97773e-17 3.2466)
(-1.91844e-20 2.73184e-17 3.53176)
(5.06047e-19 -5.77752e-17 3.82893)
(-3.77928e-19 2.8211e-17 4.1365)
(-7.03819e-19 -3.84762e-19 4.45281)
(7.06232e-19 -8.04394e-19 4.77695)
(-5.85722e-20 1.86883e-19 5.1093)
(1.66274e-18 -2.7486e-17 5.45196)
(-1.71761e-18 2.62875e-17 5.80892)
(1.96778e-18 -2.66598e-17 6.1862)
(-1.9996e-18 2.61951e-17 6.59217)
(1.05975e-18 -1.41743e-17 7.03837)
(-1.12184e-18 1.27602e-17 7.54148)
(6.44507e-20 -1.16753e-18 8.12739)
(-8.64584e-20 -6.7699e-19 8.8391)
(-8.5067e-19 -9.59411e-21 9.75214)
(9.73481e-19 -6.99464e-19 11.0043)
(-1.13564e-19 -1.10449e-18 12.8532)
(7.90634e-19 -5.09018e-18 15.8226)
(-6.47739e-19 6.09573e-18 21.0786)
(-7.07145e-21 -6.63898e-19 29.0656)
(-1.69798e-20 -4.83963e-20 28.8224)
(-3.70179e-21 -2.05819e-19 -2.18633)
(3.04649e-19 -1.29986e-19 10.0406)
(-1.49553e-19 -6.15075e-19 12.9951)
(1.14942e-18 1.60225e-18 13.4461)
(-1.93706e-18 -7.34164e-18 13.1105)
(3.49482e-19 -1.01802e-18 12.489)
(6.47863e-19 4.4951e-18 11.8022)
(-2.27482e-19 -2.26823e-18 11.1448)
(-1.54595e-19 -1.35428e-18 10.5459)
(-1.14639e-19 -1.45824e-18 10.0098)
(-1.24638e-19 -2.73017e-18 9.53335)
(-4.86372e-19 -1.77426e-17 9.11123)
(3.91841e-19 1.72496e-17 8.73764)
(-2.48879e-19 -1.68053e-17 8.40712)
(4.57604e-19 3.2012e-17 8.11487)
(-4.9767e-19 -3.73401e-17 7.85676)
(1.71005e-19 1.53313e-17 7.62923)
(-1.94351e-19 -1.94628e-17 7.4292)
(-1.66811e-19 -2.09231e-17 7.2539)
(2.36559e-19 3.32342e-17 7.1008)
(-1.2373e-20 -2.04346e-18 6.96743)
(-1.80472e-19 -3.60335e-17 6.85133)
(2.16594e-19 3.67776e-17 6.74984)
(7.19423e-21 3.32569e-17 6.66004)
(-2.44707e-19 -3.41098e-17 6.57849)
(1.14382e-19 -7.4125e-19 6.50107)
(3.86763e-20 -3.52383e-17 6.42263)
(-3.13994e-19 2.37359e-18 6.33656)
(7.37647e-19 7.04034e-17 6.23366)
(8.25201e-20 9.88073e-19 6.09982)
(-4.79194e-19 -3.54364e-17 5.91315)
(-1.61211e-18 -3.52313e-17 5.66393)
(-6.07528e-18 -1.05952e-16 5.44263)
(-1.68696e-17 -2.18509e-16 5.25548)
(-1.44732e-17 -1.55804e-16 5.05682)
(-1.61998e-17 -1.96028e-16 4.82053)
(2.83093e-17 -6.44618e-18 4.59788)
(4.11975e-17 1.32489e-16 4.58201)
(-2.60389e-17 -3.10402e-17 4.79656)
(-1.02106e-16 -9.07176e-17 5.16333)
(-1.51282e-16 -1.21865e-16 5.77834)
(-1.50778e-16 -1.72379e-16 6.57518)
(-1.92876e-18 7.75842e-19 7.43608)
(-3.57169e-16 -3.367e-16 8.30284)
(1.87719e-16 1.63414e-16 9.14073)
(-2.60964e-16 -1.43025e-16 9.92926)
(2.5996e-16 1.34194e-16 10.628)
(1.14223e-19 3.11395e-18 11.2517)
(-3.96824e-17 4.5272e-17 11.8004)
(1.83479e-16 1.65164e-16 12.3145)
(-2.36438e-16 -1.15035e-16 12.7326)
(2.42778e-17 7.82311e-18 13.1071)
(2.01999e-16 9.64451e-17 13.5215)
(-4.07138e-17 -2.35589e-17 13.965)
(1.27308e-16 1.36105e-16 14.4996)
(7.46472e-20 1.7879e-18 15.1063)
(3.73939e-17 7.65849e-17 15.7214)
(-1.64507e-17 -4.78259e-17 16.098)
(-2.26619e-18 -6.09754e-18 15.7714)
(-4.24787e-19 2.4768e-17 14.3084)
(-4.20611e-18 1.04435e-16 11.8376)
(-7.23393e-18 2.59778e-16 8.82651)
(-1.25379e-17 3.17411e-16 5.9712)
(-4.9584e-18 3.45627e-16 3.75807)
(-3.4847e-20 -4.51988e-17 2.20389)
(2.86508e-20 4.52955e-17 1.21358)
(9.52187e-21 -7.87093e-20 0.63596)
(-8.53632e-20 6.0042e-19 0.322956)
(-8.51489e-19 7.49926e-16 0.16624)
(-1.11479e-19 -3.72562e-16 0.0889363)
(-3.56689e-20 -4.55265e-17 0.0509186)
(1.06341e-19 4.53601e-16 0.0314972)
(-2.67906e-19 3.11237e-16 0.0202791)
(-2.02119e-19 3.90362e-16 0.0128284)
(3.56929e-19 -7.73819e-19 0.00724109)
(4.32893e-20 -2.07321e-17 0.00264055)
(-5.68336e-19 -3.5384e-16 -0.00121378)
(-1.33582e-19 3.02686e-16 -0.00446486)
(1.44707e-20 1.80657e-17 -0.00732273)
(4.04966e-19 2.84037e-16 -0.009744)
(-4.0186e-19 -2.7027e-16 -0.0118072)
(1.22595e-19 1.08864e-19 -0.013476)
(1.20831e-22 -8.0454e-23 -0.0149929)
(-1.14619e-19 -9.32819e-20 -0.0161313)
(-1.3927e-19 -2.12929e-16 -0.0170301)
(7.25843e-23 6.24266e-18 -0.0169774)
(2.59565e-20 -1.17761e-17 -0.0151937)
(1.20532e-20 1.23289e-17 -0.00910975)
(3.60402e-20 -1.163e-17 0.00408225)
(2.55904e-20 2.06821e-16 0.0262958)
(1.91536e-20 -1.28549e-17 0.0547764)
(-8.76764e-20 1.31185e-17 0.0816587)
(-3.95426e-19 2.27842e-16 0.0940762)
(1.30904e-19 -2.56633e-16 0.0749297)
(2.75074e-19 2.6951e-16 0.0221527)
(-1.15232e-18 -2.66806e-16 -0.0617348)
(2.94169e-18 2.7218e-16 -0.153001)
(4.13781e-18 3.02089e-16 -0.216808)
(-3.60755e-18 -3.09832e-16 -0.264063)
(-3.36895e-18 -3.11404e-16 -0.2911)
(-1.41744e-20 1.22177e-18 -0.263699)
(-5.04846e-19 3.47702e-16 -0.195604)
(5.12112e-18 -3.52693e-16 -0.12024)
(-5.92357e-20 1.20704e-17 -0.00739776)
(-1.28528e-18 -1.19968e-17 0.123638)
(-7.50103e-20 -2.20991e-18 0.295362)
(-2.40527e-17 7.39061e-16 0.520812)
(-1.74204e-17 7.56917e-16 0.81825)
(-2.32176e-18 3.52233e-16 1.19226)
(1.15555e-18 3.13908e-16 1.5773)
(7.30737e-18 3.46567e-16 2.00254)
(-2.34723e-17 -6.3832e-16 2.45449)
(6.71774e-19 1.61011e-17 2.93392)
(-1.82264e-17 -3.0054e-16 3.41775)
(1.34862e-18 3.06649e-17 3.90197)
(-4.96089e-18 -1.27961e-16 4.37753)
(-5.82402e-19 -1.50624e-17 4.75951)
(-7.40846e-19 -5.90707e-17 4.82223)
(6.67318e-20 -8.27696e-18 4.43503)
(-7.4017e-20 8.64992e-18 3.60844)
(1.05191e-20 4.06333e-19 2.60771)
(-2.48542e-18 3.24029e-16 1.71147)
(2.61823e-19 9.72107e-18 1.03151)
(1.02554e-19 -3.22828e-17 0.577446)
(5.6715e-19 -3.26319e-16 0.304567)
(-4.71353e-19 3.50872e-16 0.157539)
(-1.00256e-19 3.5058e-16 0.0849823)
(-3.16226e-19 6.99807e-16 0.0512866)
(-2.76926e-19 6.93168e-16 0.0364212)
(-5.76972e-20 2.99087e-16 0.0298013)
(-2.11289e-20 4.20266e-17 0.0262979)
(-3.42086e-20 3.28333e-16 0.0237615)
(2.09309e-19 -6.41047e-16 0.0212679)
(9.44615e-20 7.79515e-17 0.0185544)
(-7.82112e-20 2.2552e-16 0.015653)
(-2.83882e-20 -5.67937e-20 0.0126803)
(9.25581e-21 -5.20374e-21 0.00975976)
(2.06701e-19 -2.93837e-19 0.00691677)
(-1.33367e-20 -6.33673e-17 0.0042164)
(-8.99713e-20 -1.80434e-16 0.00182141)
(-3.44233e-20 -5.7006e-17 -0.000258917)
(6.42885e-21 4.72239e-20 -0.00165337)
(1.70629e-19 1.02053e-16 -0.00259334)
(-1.13918e-20 -9.70026e-17 -0.00197041)
(-8.08568e-21 1.40406e-16 0.00150153)
(-2.62617e-20 -2.93158e-20 0.00901219)
(2.59052e-20 4.63867e-17 0.0243201)
(-5.42239e-21 -4.80873e-17 0.0525492)
(-7.43849e-20 1.00929e-16 0.0926252)
(-3.16209e-20 -1.27074e-20 0.136099)
(8.82817e-21 5.437e-21 0.170848)
(1.74457e-19 1.28616e-19 0.180089)
(-5.37921e-20 -2.98583e-19 0.161423)
(5.89821e-18 6.10448e-16 0.109503)
(2.58475e-18 1.41615e-16 0.0469758)
(1.46974e-18 7.40633e-17 0.00487521)
(-1.98814e-18 -7.86385e-17 0.00233307)
(-1.67686e-17 -4.93068e-16 -0.0111788)
(5.01651e-18 1.75067e-16 -0.0146421)
(5.84559e-18 3.48397e-16 0.00198376)
(1.94058e-19 -3.92789e-18 0.0029758)
(7.08617e-19 -2.86835e-16 -0.00674357)
(-2.25482e-19 1.03787e-16 0.0392082)
(-7.10707e-19 -5.23587e-19 0.187747)
(5.90291e-18 -3.89853e-16 0.259888)
(-4.75687e-18 3.01804e-16 0.350265)
(-4.34284e-20 -1.56704e-19 0.460609)
(2.03154e-19 8.95459e-20 0.558232)
(-4.55748e-19 6.64661e-17 0.659948)
(-6.43477e-19 6.11869e-17 0.792961)
(3.56583e-19 -5.67702e-17 0.953068)
(2.33874e-19 7.72445e-19 1.12323)
(3.63569e-19 -5.97192e-17 1.30084)
(-2.31671e-19 5.92575e-17 1.48247)
(4.83699e-20 2.84788e-18 1.66683)
(-2.0511e-19 5.7041e-17 1.85456)
(5.3526e-19 -2.16696e-18 2.04737)
(-2.71235e-19 -2.98851e-17 2.24681)
(-1.92264e-19 -2.48228e-17 2.45388)
(1.78636e-19 -2.50007e-17 2.6691)
(-5.03816e-19 2.60721e-17 2.89259)
(4.56727e-19 -5.47449e-19 3.12423)
(-2.62398e-19 2.47328e-17 3.36392)
(1.04309e-19 -2.64119e-17 3.61195)
(-7.81531e-20 -9.10989e-19 3.86927)
(4.25109e-19 -2.09087e-17 4.13771)
(-3.67084e-19 2.58578e-17 4.42016)
(4.20183e-19 -2.28318e-17 4.72079)
(-1.52247e-18 2.54283e-17 5.04537)
(1.36981e-18 -9.28747e-18 5.40209)
(-2.74819e-19 1.20233e-17 5.80311)
(-2.81681e-19 -8.72481e-19 6.26771)
(1.60978e-20 2.58957e-18 6.82813)
(-4.8245e-19 8.36611e-18 7.54035)
(1.31354e-19 -1.00801e-17 8.501)
(-1.00783e-19 2.2831e-18 9.86376)
(-6.89141e-19 1.77703e-19 11.7937)
(1.00124e-18 -9.42372e-19 13.9756)
(3.4389e-19 5.35905e-19 12.9549)
(-4.11515e-19 -1.56834e-19 -3.58981)
(-5.42408e-20 1.22257e-19 -7.6992)
(-1.74231e-18 2.17814e-19 1.14862)
(8.79776e-19 -3.16575e-19 4.89206)
(4.94355e-19 5.55066e-20 6.69003)
(-9.78369e-19 -4.03544e-19 7.50859)
(1.55433e-18 2.32065e-18 7.83251)
(-1.61698e-18 -2.25499e-18 7.90277)
(2.38411e-19 1.16235e-18 7.84119)
(1.68556e-19 1.34664e-18 7.71182)
(6.14505e-19 3.09856e-18 7.54952)
(1.16068e-19 1.56059e-18 7.37424)
(4.73638e-19 3.66378e-18 7.19743)
(-8.81522e-19 -1.10786e-17 7.02553)
(1.89279e-18 2.48115e-17 6.86206)
(-6.95128e-19 -9.64206e-18 6.70884)
(6.0856e-19 1.40828e-17 6.56669)
(-3.32394e-19 -7.74643e-18 6.43583)
(1.75049e-19 4.5683e-18 6.31609)
(6.86956e-19 2.77776e-17 6.207)
(-6.12285e-19 -2.3883e-17 6.10788)
(1.49724e-20 1.96579e-18 6.01779)
(-4.73398e-20 4.65151e-18 5.93556)
(-2.02795e-19 -2.6531e-17 5.85971)
(4.78542e-19 2.86987e-17 5.78836)
(2.06541e-19 2.64897e-17 5.71912)
(-1.92618e-20 -2.21249e-17 5.64898)
(-7.8008e-19 -2.64808e-17 5.57401)
(3.21655e-19 2.49062e-17 5.48913)
(2.08342e-19 -1.77135e-19 5.38693)
(2.41837e-19 3.07208e-21 5.25832)
(-4.53858e-19 -1.1053e-20 5.08782)
(2.47883e-19 6.47161e-19 4.81356)
(1.10326e-17 1.10297e-16 4.44902)
(2.23861e-17 1.34126e-16 3.98847)
(-3.34648e-17 -1.2141e-16 3.4187)
(1.93289e-17 8.19285e-19 2.75609)
(-6.17645e-17 -1.50941e-16 2.0741)
(2.16339e-17 2.43946e-17 1.52242)
(1.17933e-16 1.04953e-16 1.1468)
(-4.03547e-17 -9.65807e-18 0.957536)
(3.20188e-16 2.36384e-16 1.02465)
(1.25712e-18 7.99725e-18 1.3028)
(-2.05805e-16 -1.04782e-16 1.71432)
(-2.18141e-16 -1.05821e-16 2.21266)
(2.80264e-17 8.37176e-18 2.74911)
(1.72911e-16 1.03256e-16 3.28949)
(-4.54038e-16 -2.15584e-16 3.80424)
(-2.12185e-16 -9.06182e-17 4.30885)
(-7.05688e-17 -8.13015e-18 4.74022)
(-1.09981e-18 -2.58864e-18 5.15628)
(5.17548e-17 5.08953e-17 5.54513)
(-5.21757e-17 -1.89337e-17 5.88697)
(5.86486e-18 -2.70242e-17 6.245)
(3.20863e-18 -6.33724e-19 6.62868)
(1.65999e-16 4.48454e-17 7.11033)
(-6.18281e-17 -1.31923e-17 7.72727)
(-6.11227e-17 -2.22276e-17 8.52444)
(2.91866e-17 1.40438e-17 9.48656)
(2.33582e-18 6.50002e-18 10.4606)
(1.96441e-19 2.47282e-20 11.1049)
(4.30739e-19 2.12941e-17 11.0677)
(1.97744e-18 -2.36624e-17 10.0259)
(1.17517e-18 -2.49287e-17 8.18541)
(1.67183e-17 -3.06461e-16 6.12329)
(-1.26749e-17 3.08218e-16 4.24913)
(1.08809e-17 -3.36701e-16 2.75824)
(-4.8651e-19 8.97545e-19 1.68134)
(2.3883e-20 -5.63151e-19 0.973497)
(3.92557e-18 -7.36522e-16 0.547302)
(-2.17206e-18 7.35216e-16 0.305168)
(2.21947e-19 -9.44253e-19 0.172281)
(4.05623e-19 -3.14343e-16 0.100486)
(7.87473e-20 -2.67424e-19 0.0607605)
(1.70705e-19 2.99624e-16 0.0376644)
(9.38184e-20 -3.55491e-16 0.0230755)
(-3.49231e-19 -3.02299e-16 0.0131922)
(2.43349e-21 6.45184e-16 0.00604143)
(1.67521e-19 -1.9428e-17 0.000600227)
(1.9104e-19 -1.85588e-17 -0.00364983)
(-1.928e-19 -5.22865e-16 -0.00702837)
(2.18875e-19 5.14345e-16 -0.00967557)
(-1.46346e-19 7.40763e-18 -0.0115016)
(1.52918e-19 -1.09325e-19 -0.0126459)
(-7.04411e-21 -6.68122e-18 -0.0126914)
(-1.15414e-20 2.06973e-16 -0.01136)
(1.13632e-20 -1.84132e-19 -0.00726424)
(-8.4012e-20 -4.73158e-17 0.000988844)
(7.50965e-21 -7.18067e-19 0.0162097)
(-3.48273e-20 -3.54567e-17 0.0408026)
(1.73734e-19 -1.95061e-16 0.0711692)
(2.22753e-20 -1.28178e-17 0.100175)
(1.03982e-18 -4.31419e-16 0.106807)
(3.93155e-19 -2.27232e-16 0.0728622)
(-9.01625e-19 4.80854e-16 -0.0114951)
(-2.36892e-19 1.52369e-17 -0.147164)
(-1.36035e-18 -2.8279e-16 -0.290908)
(-5.21229e-18 -5.58896e-16 -0.418623)
(-3.48272e-18 -2.90637e-16 -0.477277)
(-6.4373e-19 2.0544e-19 -0.430632)
(3.38204e-18 3.22928e-16 -0.294742)
(4.32616e-21 -1.10245e-18 -0.047623)
(2.12005e-18 -3.43702e-16 0.234741)
(-6.58847e-19 5.22998e-18 0.559707)
(-7.79332e-18 3.54034e-16 0.865396)
(1.10992e-17 -3.67118e-16 1.14601)
(1.07354e-19 2.39822e-18 1.36904)
(1.57433e-17 -7.20053e-16 1.5327)
(2.76278e-18 -3.66149e-16 1.64901)
(6.38415e-19 -1.8649e-17 1.73739)
(-4.92255e-18 -3.37291e-16 1.81019)
(-2.57932e-18 -5.45483e-18 1.8883)
(1.73396e-17 3.0272e-16 1.97743)
(4.89777e-20 2.28147e-18 2.10119)
(-1.59567e-17 -2.61536e-16 2.2641)
(1.13208e-18 1.44202e-17 2.4838)
(1.4301e-19 6.26749e-20 2.77533)
(6.04535e-21 7.53536e-20 3.15943)
(7.20864e-19 5.93485e-17 3.5478)
(-2.71966e-20 -8.12028e-20 3.79753)
(1.49414e-19 -8.37713e-18 3.72507)
(-2.86841e-19 1.77163e-17 3.27067)
(6.69507e-19 -9.70206e-18 2.57946)
(2.56366e-19 -1.73686e-19 1.86012)
(-2.39908e-20 -1.74243e-19 1.23694)
(2.65749e-18 -3.60732e-16 0.768503)
(-1.81834e-18 3.88096e-16 0.456114)
(1.6967e-18 -7.18735e-16 0.26592)
(4.54165e-19 -3.47869e-16 0.158722)
(-1.49023e-19 -2.22622e-17 0.101262)
(4.77664e-19 -3.18321e-16 0.0707536)
(3.03148e-20 4.16404e-17 0.0539359)
(1.72229e-19 -3.26698e-16 0.0439934)
(6.87659e-20 -7.91577e-17 0.0373747)
(2.88241e-20 -2.92819e-20 0.0322898)
(-5.22936e-20 -3.75267e-17 0.027957)
(-1.04085e-19 7.19957e-17 0.0240847)
(9.11591e-20 -2.7693e-16 0.020525)
(5.10337e-20 -5.2992e-16 0.0173431)
(-5.46349e-21 3.21797e-19 0.0146961)
(7.88077e-20 2.39998e-16 0.0127905)
(1.46208e-19 2.84601e-16 0.0117883)
(5.95577e-20 -5.39787e-17 0.0121256)
(-3.99289e-20 -1.53494e-16 0.0146162)
(-7.76602e-20 -9.72375e-17 0.0206209)
(7.29151e-20 9.40213e-17 0.0313306)
(1.12045e-20 2.31241e-17 0.0495487)
(2.27662e-20 1.67342e-20 0.0793376)
(1.18861e-19 -1.44537e-16 0.120843)
(7.26588e-20 -1.01353e-16 0.163458)
(8.63111e-19 -2.66868e-16 0.18407)
(-1.85519e-19 1.13633e-16 0.160898)
(5.46168e-20 -6.03061e-17 0.0787143)
(-1.01864e-18 -2.52747e-16 -0.0566309)
(-6.14126e-18 -5.37058e-16 -0.222362)
(-4.76844e-18 -2.81362e-16 -0.359393)
(-3.70154e-19 -9.0016e-19 -0.448893)
(-1.0112e-17 -3.10837e-16 -0.455227)
(2.75395e-17 8.95546e-16 -0.370692)
(3.08306e-18 8.8709e-17 -0.219115)
(2.23601e-19 9.25906e-19 0.0257271)
(4.27366e-18 3.68345e-16 0.255901)
(-1.41629e-18 -2.32995e-18 0.500222)
(1.2205e-19 3.46475e-19 0.748983)
(-2.18391e-18 2.43045e-16 0.94592)
(-6.73721e-18 3.85217e-16 1.05085)
(-1.90164e-19 -3.74693e-19 1.0963)
(-1.36184e-19 -2.13476e-19 1.08852)
(2.43382e-18 -1.30619e-16 1.05124)
(-1.57112e-18 1.2702e-16 1.00078)
(-1.55804e-20 -9.56525e-19 0.968205)
(1.21813e-19 -4.66419e-18 0.9745)
(8.81404e-19 -5.82738e-17 1.0199)
(-3.46278e-19 1.99793e-18 1.10014)
(8.98337e-19 -3.49585e-18 1.20354)
(-4.81211e-19 -5.63499e-18 1.32191)
(7.91375e-19 -5.39846e-17 1.4502)
(9.07299e-19 -1.39908e-18 1.58556)
(-1.60412e-18 5.45305e-17 1.72659)
(5.36755e-20 -1.83102e-18 1.87292)
(-1.02552e-18 2.45097e-17 2.02496)
(3.5158e-19 -2.66174e-17 2.18366)
(5.79686e-19 2.0023e-18 2.35031)
(-1.13609e-19 3.98573e-21 2.52639)
(-6.13571e-21 1.58431e-18 2.71343)
(-1.01233e-19 1.86149e-18 2.91304)
(-2.09354e-19 -2.2252e-17 3.12699)
(3.64416e-19 1.98548e-17 3.35745)
(-2.48455e-19 -1.90013e-17 3.6074)
(-5.01505e-19 3.7374e-17 3.88134)
(6.6904e-19 -3.10886e-17 4.18638)
(3.06914e-19 1.09923e-17 4.5341)
(3.56443e-20 2.55701e-18 4.94385)
(1.88386e-19 -1.35064e-18 5.44813)
(8.67146e-19 3.72712e-19 6.09974)
(-5.17062e-19 2.27256e-18 6.97329)
(-1.26494e-19 -1.1353e-18 8.12675)
(7.7752e-20 2.52144e-19 9.39327)
(-6.89117e-19 1.40831e-19 9.60404)
(1.57363e-18 -5.79755e-19 4.539)
(1.88212e-18 8.85785e-19 -12.7336)
(-9.24111e-19 2.00923e-19 -7.11431)
(4.41626e-20 -9.25108e-20 -1.74784)
(-1.30137e-19 5.58481e-20 1.16631)
(-1.50023e-18 4.11648e-19 2.84311)
(1.30604e-18 -4.31974e-19 3.8802)
(2.13988e-18 6.04672e-19 4.49919)
(-2.04443e-18 -4.44069e-19 4.8739)
(8.99601e-19 2.80407e-19 5.09874)
(-8.10691e-21 3.64773e-20 5.22828)
(-5.98747e-19 -1.64234e-18 5.29575)
(6.49171e-20 -1.41588e-20 5.32242)
(1.52636e-19 -9.04072e-19 5.32231)
(-2.00644e-20 7.45139e-21 5.30476)
(-2.87712e-19 -2.30697e-18 5.27605)
(7.21422e-21 -5.50985e-21 5.24046)
(-6.40948e-21 1.56738e-21 5.20088)
(-1.80742e-19 -2.6018e-18 5.15924)
(-8.97491e-19 -1.14775e-17 5.11676)
(2.05048e-18 2.68558e-17 5.07412)
(-1.30166e-18 -1.80238e-17 5.03152)
(-4.68981e-20 7.87519e-20 4.98876)
(7.76105e-19 1.60555e-17 4.94521)
(-8.83729e-19 -1.89547e-17 4.89981)
(-9.16621e-21 -1.93206e-18 4.851)
(1.73511e-19 -1.57309e-19 4.79665)
(-6.60177e-19 -2.00899e-17 4.73389)
(5.46353e-19 1.94953e-17 4.659)
(1.97667e-19 6.79606e-20 4.56709)
(1.11451e-18 1.95741e-17 4.45125)
(-1.23643e-18 -1.97148e-17 4.30347)
(2.05622e-18 2.0153e-17 4.1094)
(-5.0725e-18 -3.86155e-17 3.80485)
(-1.03586e-17 -6.73689e-17 3.37495)
(-4.91359e-18 -2.63389e-17 2.81061)
(-6.21363e-18 2.18493e-17 2.12331)
(6.29908e-18 -1.98641e-17 1.36158)
(-4.66643e-17 -5.70567e-17 0.612659)
(4.61122e-18 -4.19108e-19 0.00479798)
(4.08955e-17 6.36248e-18 -0.420826)
(-6.99397e-17 -3.59105e-17 -0.64419)
(4.51515e-17 1.07617e-17 -0.637676)
(-4.44964e-17 -2.88319e-17 -0.445344)
(4.20945e-16 2.10175e-16 -0.130223)
(1.66219e-16 8.75738e-17 0.267769)
(5.7921e-17 2.74632e-17 0.723161)
(-4.35372e-20 2.48167e-19 1.18903)
(1.08236e-18 7.33554e-18 1.62042)
(4.97501e-16 1.99906e-16 2.03504)
(2.12154e-16 9.26131e-17 2.4202)
(2.9921e-17 8.06834e-18 2.72708)
(4.4517e-16 1.53267e-16 3.00187)
(-1.77616e-19 7.8226e-18 3.23936)
(-2.14665e-16 -6.6405e-17 3.46556)
(1.84461e-18 -1.65101e-18 3.70351)
(1.71934e-17 -9.22716e-18 3.99929)
(7.9112e-17 1.94124e-17 4.39888)
(3.69911e-17 1.43518e-17 4.96342)
(-5.05718e-17 -1.74649e-17 5.74155)
(9.34828e-18 3.29913e-18 6.74143)
(3.42543e-18 9.55455e-18 7.8387)
(-1.56849e-17 -3.20732e-17 8.78638)
(-1.5309e-18 -1.55243e-17 9.17896)
(1.28563e-17 -2.47593e-16 8.70054)
(-1.70686e-17 2.97521e-16 7.52286)
(2.79979e-17 -5.28463e-16 6.00379)
(7.06688e-18 -4.14171e-17 4.49888)
(-1.4291e-17 3.66495e-16 3.14871)
(-7.196e-19 4.45043e-17 2.08118)
(-3.31487e-18 3.63237e-16 1.31415)
(2.88807e-18 -4.53217e-16 0.803437)
(2.31636e-18 -3.10887e-16 0.481748)
(-1.99993e-19 1.81701e-19 0.288171)
(4.52521e-19 -3.48064e-16 0.174427)
(3.40828e-19 -2.97314e-16 0.107688)
(-3.89042e-19 -4.01862e-17 0.0675893)
(-3.10285e-19 6.41329e-16 0.0424817)
(4.06828e-19 -3.4982e-16 0.0260474)
(-2.56137e-20 3.72937e-17 0.0148166)
(-2.43395e-19 -2.85227e-16 0.00695536)
(-1.88803e-19 2.73392e-16 0.00136047)
(3.45349e-19 -2.60376e-16 -0.00251302)
(3.44938e-19 2.45293e-16 -0.00474436)
(-3.56425e-19 -2.32654e-16 -0.00540854)
(-1.57798e-19 2.58495e-19 -0.00380469)
(1.26875e-19 -6.54238e-18 0.000628652)
(-5.86974e-21 -6.09991e-18 0.00876268)
(1.5891e-20 5.94377e-17 0.0235296)
(-8.31917e-21 -5.39422e-21 0.0466974)
(-6.2625e-20 5.92076e-17 0.0773629)
(-2.19664e-19 9.76803e-17 0.106857)
(1.29423e-19 -2.54099e-17 0.119344)
(-1.0072e-18 2.42196e-16 0.0928104)
(-1.07908e-18 2.11638e-16 0.0159097)
(6.6247e-19 -2.39324e-16 -0.122349)
(8.74927e-20 1.18299e-18 -0.28633)
(8.99889e-19 2.47675e-16 -0.432417)
(2.29337e-18 2.78123e-16 -0.517825)
(-7.47134e-20 1.81342e-17 -0.484282)
(4.79549e-18 3.04755e-16 -0.322779)
(-6.57499e-18 -6.38575e-16 -0.0547137)
(-6.28637e-21 8.82747e-19 0.310486)
(-4.503e-19 -4.86257e-19 0.709742)
(3.52836e-21 2.91528e-19 1.13016)
(7.14205e-18 -3.45692e-16 1.48129)
(8.09856e-19 -2.20035e-17 1.74257)
(-2.33547e-19 1.09498e-17 1.8904)
(-1.91131e-18 1.92263e-17 1.95224)
(1.92211e-18 -3.21165e-16 1.94809)
(-1.39406e-18 -3.31552e-16 1.90269)
(6.4053e-19 -1.1009e-18 1.83904)
(0 -0 1.77602)
(-8.83743e-19 -5.97499e-19 1.72165)
(-8.25185e-19 -8.55316e-19 1.69907)
(9.96664e-18 1.29353e-16 1.7132)
(7.31787e-18 1.11338e-16 1.77833)
(8.54566e-20 1.9476e-19 1.92594)
(3.10633e-19 6.45807e-18 2.18386)
(1.07352e-19 -1.16731e-20 2.54508)
(5.11435e-21 -1.33556e-21 2.95212)
(-2.29025e-20 9.25294e-21 3.2599)
(2.30302e-19 -1.10307e-19 3.29648)
(-2.05834e-19 8.97578e-18 3.00973)
(6.15024e-18 -2.97098e-16 2.50268)
(1.9186e-19 -9.56669e-18 1.91941)
(-3.09787e-18 3.38594e-16 1.37128)
(2.23237e-18 -3.6529e-16 0.926639)
(-1.62258e-18 3.6775e-16 0.601426)
(-9.43227e-20 -1.28294e-19 0.382915)
(6.8771e-19 -3.42201e-16 0.24645)
(-4.2098e-19 2.95436e-16 0.165058)
(6.91381e-19 -2.48098e-16 0.117042)
(-7.26392e-19 3.24086e-16 0.088249)
(3.3001e-19 -3.92648e-17 0.0703287)
(-3.39043e-20 -3.82649e-17 0.0584586)
(-1.6678e-19 3.68674e-17 0.0500157)
(-2.34702e-19 2.14488e-16 0.0436573)
(-3.74782e-20 6.91494e-17 0.0386763)
(-2.56496e-19 2.63806e-16 0.03487)
(-1.29864e-19 6.25814e-17 0.0322721)
(1.99134e-19 -2.98918e-16 0.031104)
(1.01577e-20 -4.54576e-16 0.0317267)
(-2.47842e-20 -2.6833e-16 0.0347411)
(1.07249e-20 5.13289e-17 0.0413899)
(-5.78854e-20 4.8697e-17 0.053378)
(-9.70794e-21 -4.72921e-17 0.0733071)
(2.39094e-21 2.32672e-17 0.103183)
(8.28243e-20 1.95001e-19 0.142112)
(-5.34967e-19 1.93185e-16 0.181372)
(-1.07624e-20 -4.49493e-20 0.202102)
(-9.89525e-19 2.67211e-16 0.177867)
(-1.04344e-18 1.6853e-16 0.0870585)
(1.77902e-20 -3.35695e-20 -0.0680028)
(3.87625e-19 1.89154e-16 -0.263553)
(3.4302e-18 3.3306e-16 -0.446854)
(-4.87607e-18 -2.12071e-16 -0.580348)
(6.99092e-18 2.25732e-16 -0.619171)
(1.1455e-17 3.86145e-16 -0.522526)
(-1.11051e-17 -4.07009e-16 -0.303563)
(-9.27678e-18 -3.38303e-16 -0.0134845)
(8.50062e-18 4.40414e-16 0.329735)
(-3.79308e-18 -4.49464e-16 0.662684)
(1.56877e-18 3.69968e-16 0.974635)
(-1.08478e-18 9.33629e-17 1.26077)
(4.85476e-18 -3.99697e-16 1.39153)
(3.77551e-19 8.06636e-19 1.45507)
(-4.68555e-18 2.78654e-16 1.44418)
(-1.34553e-18 6.68894e-17 1.37698)
(-3.00719e-18 1.29527e-16 1.28668)
(3.33618e-18 -1.22494e-16 1.18724)
(-1.39215e-18 5.88307e-17 1.09905)
(1.40793e-18 -5.8055e-17 1.03951)
(-5.58739e-19 1.59596e-19 1.01338)
(3.4015e-19 -3.79568e-18 1.02359)
(1.33637e-18 -5.04228e-17 1.06211)
(-1.39086e-18 5.84317e-17 1.1206)
(-2.35475e-18 5.13501e-17 1.19227)
(5.4616e-19 -4.57655e-17 1.27217)
(6.55261e-19 2.50908e-17 1.35737)
(7.62344e-19 -2.52102e-17 1.44682)
(-3.09862e-20 8.48697e-19 1.54116)
(-1.25023e-18 2.56215e-17 1.64232)
(1.48059e-18 -2.28781e-17 1.75294)
(-1.73311e-18 2.42937e-17 1.87588)
(3.92526e-19 -2.23769e-17 2.01366)
(1.03511e-18 -2.02146e-18 2.16831)
(-1.22875e-18 2.4686e-18 2.34133)
(5.90043e-19 -8.588e-20 2.53412)
(-1.8744e-18 9.93652e-20 2.74868)
(3.14111e-18 2.09603e-18 2.9887)
(-2.15307e-18 -1.34577e-19 3.26111)
(2.78028e-19 -2.97254e-19 3.57837)
(6.00646e-19 -3.61849e-18 3.96196)
(-1.2543e-18 2.84653e-19 4.44639)
(1.17209e-18 -7.78361e-19 5.07951)
(2.01215e-18 -4.14799e-18 5.90147)
(-1.38469e-18 2.88134e-18 6.84979)
(5.18927e-19 -3.98944e-19 7.46879)
(-3.49942e-19 2.90861e-20 6.24343)
(-5.15393e-19 4.07137e-19 -0.278186)
(-1.81491e-18 -4.38649e-19 -14.0531)
(7.08603e-19 -5.11049e-20 -6.01068)
(-1.65736e-18 5.0469e-19 -2.66341)
(-1.79643e-18 3.26137e-19 -0.474541)
(3.35493e-18 -8.76932e-19 0.879963)
(-5.94437e-18 1.60524e-18 1.77707)
(2.71552e-18 -9.36417e-19 2.4091)
(7.10999e-20 1.06699e-19 2.8453)
(-9.63149e-19 -3.49834e-19 3.15849)
(-2.0687e-22 5.58307e-20 3.38851)
(-3.89516e-18 -2.31507e-18 3.55991)
(3.07211e-18 1.96309e-18 3.68875)
(-5.77782e-19 -1.02241e-18 3.78613)
(-2.11497e-18 -3.87352e-18 3.85986)
(1.62221e-18 3.03795e-18 3.91557)
(-5.01965e-19 -8.25048e-19 3.95733)
(-1.02401e-20 -3.29422e-21 3.98806)
(-3.4841e-19 -1.02701e-18 4.00981)
(7.59372e-19 4.60672e-18 4.02393)
(-2.94564e-18 -1.75333e-17 4.03118)