/*--------------------------------*- C++ -*----------------------------------*\
| =========                 |                                                 |
| \\      /  F ield         | OpenFOAM: The Open Source CFD Toolbox           |
|  \\    /   O peration     | Version:  2506                                  |
|   \\  /    A nd           | Website:  www.openfoam.com                      |
|    \\/     M anipulation  |                                                 |
\*---------------------------------------------------------------------------*/
FoamFile
{
    version     2.0;
    format      ascii;
    arch        "LSB;label=32;scalar=64";
    class       volVectorField;
    location    "2.35";
    object      vorticityField;
}
// * * * * * * * * * * * * * * * * * * * * * * * * * * * * * * * * * * * * * //

dimensions      [0 0 -1 0 0 0 0];

internalField   nonuniform List<vector> 
4000
(
(2.25937e-20 -7.65824e-18 -12.2119)
(8.0869e-18 8.12981e-18 -11.7163)
(-8.50334e-18 2.31763e-17 -9.00482)
(-3.39976e-17 -3.96796e-17 -5.99465)
(6.95855e-17 -2.30026e-20 -3.57424)
(-3.54668e-17 3.18697e-17 -1.66627)
(2.79948e-19 -1.5815e-17 -0.141289)
(-3.66166e-17 -0 1.09642)
(3.59888e-17 3.05152e-17 2.10526)
(-6.81484e-17 -2.95501e-17 2.93716)
(6.77572e-17 2.88253e-17 3.62883)
(8.02833e-18 -2.76366e-17 4.20642)
(-4.59768e-18 -6.2319e-17 4.69231)
(-7.26139e-17 6.01652e-17 5.10304)
(3.35714e-19 -0 5.4529)
(1.36181e-16 5.85164e-17 5.75362)
(-1.28942e-16 -5.60448e-17 6.01494)
(6.56008e-17 -6.09504e-17 6.24529)
(-3.10548e-18 5.84788e-17 6.4518)
(0 -0 6.63987)
(0 -0 6.8141)
(0 -0 6.9779)
(-7.64315e-18 1.12638e-16 7.13375)
(-1.04832e-16 -2.19293e-16 7.28311)
(2.40502e-16 -1.13643e-17 7.42681)
(-1.36622e-16 2.30016e-16 7.56434)
(8.59087e-18 -1.11997e-16 7.69391)
(0 -0 7.81251)
(0 -0 7.91624)
(9.61604e-18 -1.08647e-16 7.99804)
(2.3277e-16 1.03215e-16 8.04485)
(-1.27063e-16 1.14094e-16 8.03957)
(-2.49084e-16 -1.47357e-17 7.94122)
(-2.41918e-18 1.10874e-16 7.62322)
(7.3278e-17 -6.25396e-16 7.10933)
(2.59417e-16 -5.12337e-16 6.74051)
(8.80433e-16 9.17766e-16 6.62061)
(1.09065e-17 -8.27124e-18 6.58936)
(-6.82319e-16 -1.54294e-15 6.55791)
(6.21787e-16 1.001e-15 6.49531)
(-3.45878e-16 2.01774e-15 6.32542)
(-1.0139e-15 -1.94833e-15 5.86366)
(2.44325e-16 -8.95072e-16 5.07098)
(-2.48481e-16 9.15285e-16 4.10327)
(-1.23113e-15 -8.5615e-16 3.12008)
(1.4182e-15 -9.31022e-17 2.20381)
(1.11621e-15 -2.22074e-16 1.38079)
(1.0355e-15 9.96489e-16 0.705722)
(1.29445e-15 1.1515e-15 0.17477)
(5.11034e-16 1.30647e-15 -0.190922)
(-6.37509e-16 1.97678e-16 -0.364433)
(4.20452e-17 -5.22117e-16 -0.365672)
(7.18691e-16 1.2282e-15 -0.140269)
(-6.02639e-16 -1.35828e-16 0.280626)
(9.84429e-17 -1.15023e-15 0.921553)
(3.19674e-16 1.23027e-17 1.76126)
(-3.13389e-16 1.60771e-16 2.79298)
(-9.75588e-17 4.41474e-17 4.01868)
(-1.78759e-16 -3.51396e-17 5.38536)
(7.99296e-17 4.88942e-17 6.88285)
(-7.85964e-17 2.83713e-17 8.45385)
(-3.42957e-16 -3.16315e-18 10.0511)
(1.59962e-16 6.62183e-17 11.6343)
(1.09797e-16 6.60828e-16 13.1619)
(-6.80016e-19 3.66407e-17 14.6003)
(1.17029e-16 -8.05099e-16 15.9166)
(-6.38953e-16 1.85865e-16 17.1194)
(-2.01899e-17 4.06187e-16 18.1766)
(-2.8856e-16 -6.38854e-16 19.1125)
(7.4163e-16 -7.61119e-16 19.8918)
(1.71676e-16 5.64068e-16 20.5418)
(4.64127e-17 2.1744e-16 21.058)
(1.88062e-19 -2.20212e-18 21.4086)
(9.16018e-16 -5.81023e-16 21.6489)
(8.81674e-16 -6.25986e-16 21.7453)
(3.50422e-17 -7.29228e-16 21.7002)
(7.32299e-16 -4.69368e-16 21.5433)
(-8.59238e-17 7.53824e-16 21.2643)
(8.08343e-16 -3.73085e-16 20.8648)
(-6.82048e-16 -2.19338e-16 20.3788)
(1.29598e-15 -3.60995e-16 19.8155)
(1.70418e-16 7.39212e-16 19.1847)
(-3.6871e-17 8.99817e-17 18.5087)
(5.66968e-17 -1.4676e-17 17.8021)
(-6.31453e-16 -1.02151e-15 17.079)
(1.08333e-15 -1.43058e-15 16.3581)
(-2.87085e-17 1.29059e-15 15.6383)
(7.11128e-17 7.17562e-16 14.9251)
(9.80756e-18 -1.24778e-15 14.2421)
(4.48678e-16 -2.89649e-16 13.572)
(-1.61491e-18 1.06769e-18 12.9152)
(4.39398e-16 -8.07777e-16 12.2997)
(2.14208e-16 9.87251e-16 11.6989)
(-1.52302e-16 3.61601e-16 11.1209)
(-8.61066e-18 -5.40754e-16 10.5874)
(-6.14935e-17 5.6463e-16 10.069)
(-1.83365e-16 1.05812e-16 9.60822)
(-2.38703e-17 -2.62902e-17 9.17246)
(2.76195e-16 6.94128e-17 8.79609)
(-4.66652e-17 -2.27365e-16 8.46223)
(-4.84021e-17 -7.79327e-19 8.19961)
(-1.84599e-17 5.32934e-17 7.98542)
(8.50957e-18 -1.48297e-16 7.84684)
(2.17758e-17 -4.08151e-17 7.75831)
(3.29068e-17 1.6241e-17 7.73617)
(5.9229e-19 5.37675e-17 7.75968)
(-3.20752e-18 -4.30709e-16 7.83442)
(1.73347e-16 1.09196e-17 7.94628)
(2.01411e-16 7.27961e-16 8.0798)
(-3.81283e-16 1.07402e-16 8.22687)
(1.88482e-16 -1.34889e-16 8.37583)
(-8.82423e-18 -4.84567e-16 8.50866)
(2.02426e-16 9.55224e-17 8.62334)
(1.93468e-16 3.81751e-16 8.68654)
(6.00079e-18 5.07871e-16 8.71874)
(-3.99401e-16 -2.63944e-16 8.68623)
(-3.27637e-18 -1.00309e-15 8.58804)
(-4.7518e-17 -7.2026e-17 8.42631)
(-4.30423e-16 -3.1674e-16 8.19058)
(4.29164e-16 3.22182e-16 7.88685)
(5.53007e-16 1.51351e-15 7.52172)
(-5.35722e-16 -3.58657e-16 7.09794)
(-1.8938e-17 -1.16356e-15 6.62492)
(4.89123e-16 3.65713e-16 6.11539)
(1.02765e-16 1.2282e-15 5.57796)
(-1.01776e-15 -7.21176e-16 5.02361)
(3.7869e-16 -3.34951e-16 4.46397)
(-5.33652e-16 7.24027e-17 3.91401)
(-5.4051e-16 -7.82218e-16 3.38555)
(-1.22974e-16 -6.86837e-16 2.88333)
(9.26408e-18 -4.81643e-16 2.42591)
(3.75622e-16 2.64063e-16 2.01915)
(1.97302e-16 5.92818e-16 1.65777)
(1.1064e-15 7.61533e-16 1.36985)
(-5.82886e-16 1.35115e-16 1.15205)
(8.05629e-17 4.35714e-17 0.988061)
(-8.31725e-17 -4.52084e-17 0.932834)
(8.67832e-17 4.64267e-17 0.943177)
(-9.27034e-17 -9.29326e-17 1.06853)
(1.27616e-16 -1.00104e-16 1.30408)
(-2.0973e-16 -7.60615e-17 1.66586)
(4.93441e-16 2.12154e-16 2.1676)
(-2.7511e-16 -7.34612e-17 2.82716)
(6.32982e-17 -2.815e-17 3.64133)
(1.37555e-16 1.06286e-16 4.64373)
(3.28646e-17 1.50871e-16 5.77689)
(2.98535e-17 -4.21102e-17 7.08152)
(0 -0 8.49121)
(6.29144e-17 -4.1733e-17 9.99343)
(-7.05504e-17 3.82287e-17 11.5222)
(-2.83179e-17 1.96536e-16 13.0421)
(4.27933e-17 9.44519e-17 14.5036)
(-1.63505e-16 -9.95669e-17 15.8573)
(-9.08472e-17 -2.50259e-16 17.0919)
(1.79423e-16 -7.00096e-17 18.1647)
(-1.77642e-16 1.83534e-16 19.097)
(2.60162e-16 9.48495e-17 19.8253)
(-3.56501e-16 1.97532e-16 20.2871)
(7.67026e-17 3.16017e-16 20.0636)
(-2.26629e-16 2.11476e-16 18.903)
(2.28038e-16 -7.29432e-16 17.5973)
(-1.84961e-16 1.186e-16 17.1448)
(4.54123e-17 9.36254e-17 16.569)
(-3.13444e-17 7.307e-18 15.9438)
(-2.94029e-17 4.52207e-18 15.405)
(-2.80491e-17 2.33045e-18 15.069)
(2.72634e-17 2.03833e-17 14.9907)
(-2.29253e-17 7.81212e-18 14.8377)
(-1.55361e-18 -2.16221e-17 14.2403)
(-2.68304e-18 -1.91525e-17 13.3975)
(2.29796e-17 -7.1831e-18 12.5102)
(5.00366e-18 3.69383e-17 11.6787)
(2.44538e-19 -1.05562e-17 10.957)
(-4.75011e-18 -2.38229e-17 10.3697)
(2.86409e-18 1.76843e-17 9.92125)
(-1.96381e-17 -5.71565e-19 9.60301)
(3.59732e-17 -1.40735e-17 9.39642)
(-1.9188e-17 7.83652e-18 9.27538)
(3.66881e-18 2.04041e-17 9.21371)
(-9.70214e-19 -1.41308e-17 9.18866)
(-8.88142e-18 -5.42094e-18 9.18022)
(1.41053e-17 -2.55538e-18 9.1731)
(1.10979e-18 1.07972e-17 9.15561)
(1.72026e-19 2.813e-18 9.12011)
(-5.76595e-18 -5.42904e-18 9.06396)
(-5.42059e-18 -1.6169e-20 8.98842)
(6.04377e-18 1.80278e-20 8.89751)
(-5.17385e-18 2.10063e-19 8.79807)
(8.76256e-18 2.37151e-19 8.69822)
(-5.55422e-18 -2.41567e-19 8.60615)
(1.87611e-18 5.5962e-21 8.52948)
(4.21934e-19 1.08641e-18 8.47391)
(-1.20527e-18 4.11645e-19 8.44251)
(3.49229e-19 -2.57552e-18 8.43763)
(1.11574e-18 1.17083e-18 8.46038)
(-1.46327e-19 4.36338e-19 8.5096)
(1.10864e-19 5.17814e-19 8.58268)
(1.61308e-19 -6.79611e-19 8.68441)
(8.2037e-20 -2.27623e-19 8.83562)
(2.65055e-20 7.69617e-20 8.98822)
(0 -0 2.09045)
(2.82886e-19 -0 -3.69331)
(-2.13931e-19 1.64565e-17 -6.85028)
(7.9327e-19 -3.42655e-17 -7.87666)
(-1.7634e-17 1.89658e-18 -7.92992)
(1.66991e-17 3.28756e-17 -7.57436)
(-4.08985e-19 1.73806e-17 -7.07931)
(1.07127e-18 -3.46033e-17 -6.56424)
(3.46025e-17 -1.48977e-19 -6.07504)
(-3.74537e-17 9.33488e-19 -5.62875)
(-6.47082e-17 -1.01464e-16 -5.22888)
(1.31802e-16 9.9344e-17 -4.87321)
(1.70864e-18 1.34303e-16 -4.5587)
(-6.83879e-17 -6.52541e-17 -4.2803)
(8.4698e-18 -1.96081e-16 -4.03322)
(6.73454e-17 6.10162e-17 -3.81257)
(-8.50273e-17 1.32486e-16 -3.61362)
(1.15318e-17 -6.48752e-17 -3.43218)
(0 -0 -3.26442)
(0 -0 -3.10677)
(0 -0 -2.9562)
(0 -0 -2.81008)
(0 -0 -2.66615)
(2.56779e-16 -0 -2.52259)
(-3.76456e-16 -0 -2.37797)
(1.19959e-16 -0 -2.2312)
(0 -0 -2.08174)
(0 -0 -1.92961)
(0 -0 -1.77569)
(1.04761e-17 -1.18364e-16 -1.62225)
(1.32776e-17 -6.4781e-18 -1.47339)
(-4.60781e-17 3.52994e-16 -1.33546)
(9.80781e-18 -8.89122e-17 -1.2186)
(1.27299e-16 -3.57658e-16 -1.10163)
(6.8736e-17 4.4809e-16 -0.986899)
(-2.85227e-16 -3.88489e-16 -0.908107)
(-9.02748e-16 -7.29763e-16 -0.870079)
(-7.13307e-17 1.76383e-15 -0.857689)
(4.97709e-16 7.66464e-16 -0.904209)
(-9.30388e-16 -1.89854e-15 -1.05683)
(2.89165e-16 -1.00555e-16 -1.41271)
(7.59349e-16 1.44637e-15 -2.06066)
(1.39138e-16 6.70698e-17 -2.87963)
(-2.58314e-17 2.86494e-16 -3.76417)
(1.47405e-15 -4.64767e-16 -4.6568)
(-1.27809e-15 -1.95886e-15 -5.52288)
(-2.49449e-15 -1.93019e-16 -6.35106)
(-1.02406e-15 -1.15937e-15 -7.10513)
(-1.3058e-15 -6.83738e-16 -7.78305)
(-6.38285e-16 2.64989e-16 -8.36719)
(1.96036e-15 8.37444e-16 -8.83902)
(4.24928e-17 -5.23519e-16 -9.20067)
(-6.51593e-16 -7.35337e-16 -9.41488)
(4.97123e-16 6.96559e-16 -9.49657)
(-7.49008e-16 3.35473e-16 -9.41405)
(-6.97534e-16 1.22235e-16 -9.17202)
(-4.40823e-16 -1.15836e-18 -8.75832)
(-1.68457e-16 -1.38283e-16 -8.15595)
(9.96214e-17 -8.54669e-17 -7.39188)
(1.07935e-16 -1.23089e-16 -6.43514)
(4.66403e-17 2.56864e-16 -5.33687)
(3.73011e-16 -1.57838e-16 -4.11524)
(-2.97692e-16 -4.00609e-16 -2.80053)
(2.01444e-16 -6.24913e-16 -1.44181)
(-3.69887e-16 1.57521e-16 -0.0579347)
(-1.47157e-17 1.2106e-15 1.28768)
(-2.59844e-16 1.66753e-16 2.59371)
(3.30466e-16 -7.06708e-16 3.80203)
(3.43672e-16 5.30974e-17 4.90218)
(-9.43509e-16 3.9697e-16 5.87278)
(1.66419e-17 -1.31166e-16 6.71024)
(1.38458e-15 -6.23555e-16 7.43507)
(-7.63449e-16 -4.00351e-16 8.01018)
(-3.0248e-17 -1.02593e-15 8.4586)
(-1.03941e-15 1.33392e-15 8.78394)
(-1.46697e-16 8.88778e-16 8.97385)
(1.6574e-16 -1.08017e-16 9.05091)
(4.11754e-17 -7.57717e-16 9.0304)
(6.41305e-16 8.7232e-17 8.91164)
(1.49949e-15 -8.23313e-16 8.71577)
(-1.97282e-15 -3.31992e-16 8.4648)
(-2.14624e-16 7.89806e-16 8.15989)
(6.47951e-16 -4.26869e-16 7.81638)
(-1.47193e-16 5.44131e-16 7.44898)
(5.62899e-17 1.43078e-16 7.06202)
(-1.1576e-15 5.99641e-16 6.67024)
(-4.46216e-16 5.00504e-16 6.28082)
(-6.01366e-16 -4.3827e-16 5.88504)
(-4.75907e-16 9.63359e-16 5.49939)
(-9.64506e-16 6.13914e-16 5.12825)
(-3.02931e-19 -1.92264e-17 4.7565)
(-4.45625e-16 5.41361e-16 4.40296)
(-1.75087e-16 -1.54077e-16 4.06517)
(3.97516e-16 -2.58902e-16 3.73182)
(-1.78974e-16 4.97137e-16 3.42613)
(-3.18213e-18 -2.50914e-16 3.12569)
(3.93825e-16 -1.9553e-16 2.86205)
(-1.84064e-16 -4.85249e-16 2.61947)
(-2.52112e-17 -1.68033e-16 2.40668)
(1.0378e-16 6.12918e-16 2.216)
(4.92645e-17 -1.47654e-17 2.05731)
(6.23758e-17 -1.35401e-16 1.92894)
(2.45317e-17 9.67379e-17 1.82797)
(-2.20287e-17 1.15159e-17 1.75561)
(-4.39531e-17 1.24208e-17 1.70788)
(-9.03167e-17 -2.51102e-17 1.67557)
(1.6837e-18 2.26089e-16 1.66323)
(-5.41938e-16 -3.35058e-16 1.65924)
(-9.17332e-19 -1.90155e-17 1.66801)
(3.56549e-16 -9.26424e-17 1.6649)
(1.51061e-17 -2.92713e-16 1.65073)
(1.45235e-17 4.86612e-16 1.61588)
(-1.97398e-16 -3.51021e-16 1.55882)
(-1.90639e-16 -1.11644e-16 1.46521)
(2.10306e-16 3.7396e-16 1.34742)
(3.98942e-16 2.30924e-16 1.17983)
(-1.57543e-17 5.64504e-16 0.979095)
(5.68789e-17 6.25142e-16 0.732714)
(3.71693e-16 -3.02508e-16 0.438094)
(-9.04414e-16 -1.81023e-15 0.101567)
(5.1696e-16 4.02521e-16 -0.281821)
(4.9019e-16 9.46412e-16 -0.708083)
(-4.4817e-16 -3.8814e-16 -1.16693)
(-5.86229e-16 -4.16916e-16 -1.65659)
(-5.27288e-16 1.90745e-16 -2.17214)
(1.64606e-15 7.2154e-16 -2.70578)
(-5.42757e-16 -3.08311e-16 -3.2513)
(4.62406e-16 8.42677e-16 -3.79947)
(7.16421e-17 -9.91228e-17 -4.34364)
(-1.17309e-15 -7.82506e-16 -4.88249)
(-4.91816e-16 -2.69379e-16 -5.40019)
(-1.07868e-15 -7.72596e-16 -5.89411)
(-7.25793e-16 -1.53405e-15 -6.3702)
(-1.16649e-15 -4.65322e-17 -6.80344)
(1.3442e-16 5.15504e-16 -7.19934)
(-1.49012e-16 -5.73273e-16 -7.56677)
(-2.36803e-16 -1.20379e-16 -7.86517)
(-7.07467e-17 -6.51642e-17 -8.12353)
(8.0526e-17 4.10337e-17 -8.30772)
(-1.1114e-16 1.89227e-16 -8.41956)
(7.02066e-17 -1.94109e-16 -8.44526)
(-1.61871e-16 -5.66291e-17 -8.36867)
(-8.54134e-17 2.78493e-16 -8.17353)
(-3.04395e-17 -2.36735e-16 -7.85583)
(1.0098e-16 -4.19405e-17 -7.37581)
(5.32636e-17 -7.74264e-17 -6.76509)
(-1.39972e-16 4.36004e-17 -5.96791)
(8.85303e-17 -2.17393e-17 -5.01899)
(-5.8863e-17 8.69181e-17 -3.92472)
(1.55272e-16 3.92499e-17 -2.69224)
(8.21199e-17 -2.6886e-16 -1.38025)
(-5.32176e-17 -7.11321e-17 0.00707943)
(-6.29019e-17 2.08543e-16 1.39273)
(1.1846e-16 1.68178e-17 2.76729)
(-4.21133e-16 2.70214e-16 4.05136)
(2.05022e-16 -1.5691e-16 5.20628)
(-2.12498e-17 -6.30902e-17 6.16025)
(4.17176e-16 2.94643e-17 6.86093)
(-1.28114e-16 -3.5373e-16 7.15285)
(6.52003e-16 -6.65149e-16 7.11374)
(-2.45798e-16 5.30511e-16 6.44546)
(4.78344e-17 2.73765e-16 5.80824)
(-1.65605e-18 -2.51968e-16 5.21358)
(7.34408e-17 5.40808e-17 4.65395)
(1.60262e-18 1.37225e-17 4.13444)
(5.18729e-17 -3.42615e-17 3.65918)
(-5.64904e-17 -3.7938e-17 3.19135)
(2.63667e-17 2.01024e-17 2.60654)
(3.86506e-19 2.76625e-18 1.98936)
(1.61541e-18 7.2828e-19 1.40346)
(1.82978e-18 -2.50761e-18 0.85383)
(-3.2182e-18 -1.96233e-17 0.357698)
(2.28405e-17 1.18949e-17 -0.0735006)
(-1.79144e-17 2.73665e-17 -0.434644)
(-1.04815e-18 -3.92463e-18 -0.726472)
(-2.51207e-17 -2.22137e-17 -0.954291)
(2.24494e-17 -1.26425e-18 -1.12753)
(3.10345e-18 3.20737e-17 -1.25862)
(-5.32342e-18 -4.02745e-17 -1.35969)
(1.61857e-18 2.39568e-17 -1.44226)
(5.89679e-19 -2.6801e-18 -1.51629)
(-6.66792e-18 -1.25163e-17 -1.58897)
(6.47557e-18 1.14366e-18 -1.66511)
(6.01077e-18 1.7407e-18 -1.74601)
(-6.68014e-18 1.39545e-17 -1.83104)
(-1.93914e-18 -6.48953e-18 -1.91865)
(-6.71107e-19 -4.33729e-18 -2.00565)
(5.00663e-19 1.318e-18 -2.08787)
(2.95214e-19 -7.21905e-18 -2.16096)
(-3.10342e-19 1.15842e-17 -2.22105)
(-1.89744e-18 -7.19971e-18 -2.26441)
(1.37028e-18 1.41451e-18 -2.28842)
(2.54803e-18 1.10997e-18 -2.2927)
(-2.82986e-18 4.60576e-19 -2.2777)
(-2.35409e-20 -2.45876e-18 -2.24379)
(-1.50178e-19 1.06561e-18 -2.19292)
(-1.32054e-19 -9.55435e-19 -2.12807)
(-2.54672e-19 3.32618e-19 -2.05115)
(8.81093e-21 -2.43297e-20 -1.96916)
(-4.43384e-20 -3.65054e-19 -1.92131)
(2.35458e-20 -7.98097e-18 3.83902)
(-3.29965e-19 8.74348e-18 0.816358)
(9.54703e-20 2.30592e-17 -2.19864)
(1.69431e-18 -2.5431e-17 -4.54054)
(-1.93984e-17 -1.44217e-17 -6.09816)
(1.78827e-17 1.6031e-17 -7.07337)
(0 -0 -7.63118)
(3.74601e-17 -3.28758e-17 -7.93488)
(-3.90867e-17 6.76084e-17 -8.08349)
(3.54387e-17 6.33302e-17 -8.13605)
(-3.18592e-17 -1.3374e-16 -8.12741)
(-1.47152e-18 -9.76813e-17 -8.07902)
(-1.83965e-18 1.34935e-16 -8.00706)
(1.35827e-16 6.53602e-17 -7.92085)
(-1.29824e-16 -1.33506e-16 -7.82713)
(-7.81164e-17 1.33773e-16 -7.73014)
(1.37488e-16 -8.91316e-19 -7.63246)
(-6.11846e-17 -1.3301e-16 -7.53587)
(-3.54192e-18 6.66973e-17 -7.44143)
(0 -0 -7.34899)
(-1.33615e-16 -0 -7.25827)
(1.33943e-16 -0 -7.16854)
(8.68809e-18 -1.28038e-16 -7.07877)
(1.2308e-16 1.26234e-16 -6.98776)
(-1.41498e-16 1.2958e-16 -6.89439)
(9.42429e-18 -1.27776e-16 -6.7972)
(0 -0 -6.69485)
(-1.3121e-16 -0 -6.58612)
(6.47462e-19 -0 -6.47003)
(1.42081e-16 -1.22053e-16 -6.34612)
(-7.39271e-18 1.18452e-16 -6.21403)
(-2.71423e-16 1.2548e-16 -6.07364)
(3.92179e-16 -1.14384e-16 -5.92812)
(-2.31293e-16 1.58804e-18 -5.75563)
(3.16339e-17 -2.44264e-16 -5.54689)
(4.49189e-16 5.38911e-16 -5.35734)
(-6.56888e-16 9.46811e-17 -5.21152)
(-3.49313e-16 -1.67164e-15 -5.11131)
(6.49477e-16 3.13981e-16 -5.07663)
(1.59484e-16 1.07497e-15 -5.14284)
(1.22222e-16 2.27518e-16 -5.37687)
(1.47211e-15 -1.12822e-16 -5.78484)
(-3.5787e-16 -3.66689e-16 -6.31215)
(-1.12414e-15 -8.07406e-16 -6.91572)
(1.42051e-15 2.1436e-15 -7.56372)
(-1.70152e-15 1.51685e-15 -8.24016)
(7.9625e-16 -8.40032e-16 -8.93038)
(5.48138e-17 -6.36574e-16 -9.60731)
(5.09803e-17 -4.73433e-17 -10.275)
(4.73943e-17 -1.61555e-15 -10.9074)
(-6.85777e-16 -1.96406e-16 -11.4973)
(-2.01733e-16 1.45262e-15 -12.0394)
(7.36622e-17 5.70636e-16 -12.5078)
(-1.23429e-16 -6.7947e-17 -12.913)
(7.22899e-16 -2.08152e-16 -13.223)
(3.65119e-16 -1.90911e-16 -13.4443)
(4.77045e-16 -8.21453e-17 -13.5514)
(3.70926e-17 -3.00223e-16 -13.531)
(1.17216e-16 -1.98614e-16 -13.3787)
(-1.80736e-16 6.57971e-17 -13.0603)
(-6.75729e-17 -1.42885e-16 -12.6004)
(3.17322e-16 1.87912e-16 -11.9818)
(-5.2816e-16 3.38195e-16 -11.2319)
(-4.11698e-16 7.76712e-16 -10.3627)
(2.15093e-16 -1.11974e-17 -9.3995)
(5.87836e-16 -9.86448e-16 -8.38061)
(9.26665e-16 -4.49106e-16 -7.33632)
(-1.39151e-16 -6.54745e-17 -6.30626)
(-2.40194e-17 2.30218e-16 -5.31103)
(7.11673e-16 -4.31965e-16 -4.3734)
(-1.51403e-17 -1.29428e-15 -3.52383)
(-1.33309e-15 1.33351e-15 -2.76209)
(1.06478e-15 7.11385e-16 -2.09928)
(-1.89442e-15 1.24545e-15 -1.54554)
(-7.75293e-16 7.60301e-16 -1.08724)
(1.68699e-16 -1.7728e-15 -0.726064)
(-8.68292e-16 2.81712e-16 -0.454875)
(-5.89106e-17 1.01766e-16 -0.255232)
(-1.47708e-15 -7.18197e-16 -0.117136)
(-3.29797e-16 2.01142e-15 -0.0289768)
(-5.65166e-16 3.0585e-15 0.0148791)
(1.23233e-16 -2.03766e-15 0.0216053)
(-6.66636e-16 2.14437e-16 0.00592985)
(-5.43985e-16 1.32852e-15 -0.0254976)
(5.71133e-16 -4.30846e-16 -0.0711816)
(-1.03698e-15 8.75574e-16 -0.126419)
(1.63865e-15 -3.94489e-16 -0.187529)
(1.21299e-15 1.9143e-16 -0.257291)
(5.66986e-16 -8.54792e-16 -0.333001)
(5.38006e-17 -4.67327e-16 -0.408588)
(-9.86572e-18 -6.26157e-16 -0.48882)
(-2.03073e-17 -2.75332e-16 -0.570695)
(2.12776e-16 -1.71911e-16 -0.649577)
(-2.36728e-16 3.58716e-16 -0.727909)
(-3.77372e-18 2.41179e-17 -0.803751)
(7.35087e-17 -2.42543e-16 -0.874515)
(-3.38527e-17 1.77803e-16 -0.941422)
(2.18355e-17 4.95627e-16 -1.00293)
(-6.1937e-16 -1.48833e-17 -1.06328)
(-5.28755e-17 -3.03821e-16 -1.11818)
(4.38615e-17 1.38383e-18 -1.17422)
(-6.6139e-17 8.67857e-17 -1.22555)
(-7.55367e-19 -4.81035e-17 -1.27996)
(6.8883e-19 4.35339e-17 -1.33437)
(9.53381e-19 9.6582e-17 -1.39162)
(8.83113e-17 2.50981e-17 -1.45547)
(9.82143e-17 1.31471e-16 -1.52234)
(3.54307e-16 1.09117e-16 -1.59899)
(-5.63834e-16 -6.08783e-16 -1.68081)
(3.92238e-16 3.37159e-16 -1.77467)
(-3.90447e-16 1.06495e-16 -1.88083)
(5.27382e-18 -2.42569e-16 -2.0015)
(-1.05912e-17 2.57794e-16 -2.13876)
(-1.5519e-17 -2.48713e-16 -2.29622)
(2.77061e-19 -2.81673e-16 -2.47414)
(3.53073e-18 2.85535e-16 -2.67501)
(-2.05507e-16 -6.87248e-16 -2.90006)
(-2.21348e-16 -6.99507e-16 -3.15512)
(9.63897e-16 1.67228e-15 -3.43753)
(4.47447e-16 2.51945e-16 -3.74664)
(-1.04675e-15 -1.27516e-15 -4.08665)
(-3.14881e-16 9.45846e-16 -4.45543)
(3.97273e-16 3.59467e-16 -4.85135)
(6.0105e-16 5.07696e-16 -5.27434)
(3.26703e-16 -1.2352e-15 -5.71929)
(4.7953e-16 3.68768e-16 -6.18515)
(-3.68151e-16 5.79937e-16 -6.66837)
(6.22275e-16 1.91113e-16 -7.16428)
(7.4499e-16 1.66275e-15 -7.66927)
(1.1076e-15 6.16724e-16 -8.1816)
(4.57337e-16 -4.44477e-16 -8.68792)
(6.27299e-16 4.47019e-16 -9.19143)
(6.83585e-16 8.48564e-16 -9.69227)
(-6.73826e-16 -9.98488e-16 -10.1674)
(7.87093e-16 -9.18157e-17 -10.6327)
(3.74312e-17 2.6469e-16 -11.0825)
(1.05064e-16 -3.45563e-18 -11.4865)
(2.7762e-16 -1.75348e-16 -11.8816)
(2.39667e-18 1.05272e-17 -12.2239)
(2.74128e-16 -7.28323e-17 -12.5303)
(-2.92754e-16 -3.82917e-17 -12.7856)
(-9.90581e-16 -3.9213e-17 -12.9801)
(9.22345e-17 -8.12927e-17 -13.1059)
(-3.81532e-17 -2.02368e-16 -13.1567)
(1.50023e-16 1.01479e-16 -13.1)
(-2.64923e-17 2.98081e-16 -12.9575)
(-7.67497e-17 -6.85879e-17 -12.6644)
(1.09144e-16 -4.87008e-17 -12.2539)
(-1.45539e-16 -5.85725e-17 -11.6952)
(2.40502e-16 -1.36887e-16 -10.9835)
(-8.64581e-17 3.22579e-16 -10.1489)
(-1.88788e-16 3.34794e-16 -9.17213)
(2.27421e-16 -2.76969e-16 -8.1201)
(-7.11823e-17 -1.60279e-17 -6.99656)
(2.34434e-16 -9.49171e-17 -5.86926)
(1.80306e-16 -3.86599e-16 -4.77361)
(-4.2072e-16 1.77208e-16 -3.79362)
(1.8421e-16 -1.09858e-16 -3.02318)
(1.08345e-17 2.33422e-17 -2.48905)
(-5.19352e-16 2.74442e-16 -2.27994)
(-1.37194e-16 1.8958e-16 -2.53211)
(2.65391e-16 -3.06429e-16 -2.98346)
(-3.3329e-17 2.17307e-17 -3.42522)
(-3.46702e-17 1.6661e-18 -3.81404)
(3.10596e-17 -8.37513e-19 -4.13096)
(3.25859e-17 1.10726e-17 -4.4155)
(8.32443e-18 7.61446e-17 -4.68892)
(-3.23242e-17 -4.59094e-17 -4.98735)
(-2.71538e-17 -4.51774e-18 -5.21013)
(-2.76276e-18 -2.27944e-17 -5.39435)
(2.78747e-17 -5.89731e-18 -5.5663)
(-2.5238e-18 2.19346e-17 -5.73812)
(-4.58219e-17 -2.81484e-18 -5.91206)
(4.69801e-17 1.0308e-18 -6.08491)
(2.45692e-18 2.12631e-17 -6.25251)
(2.03134e-17 -1.47479e-17 -6.4102)
(-3.95852e-17 -4.07248e-17 -6.55348)
(2.07479e-17 3.13119e-17 -6.68069)
(6.05472e-19 2.04915e-17 -6.79264)
(-1.21825e-18 -1.77883e-17 -6.89081)
(1.05723e-17 -3.03537e-19 -6.97766)
(-8.27163e-18 -4.50855e-18 -7.05548)
(-2.61777e-18 -1.11944e-18 -7.12542)
(-1.21024e-17 1.17437e-17 -7.1882)
(1.19326e-17 3.13343e-18 -7.24431)
(6.57251e-18 -5.8034e-18 -7.29431)
(-7.46979e-18 -1.56494e-18 -7.33849)
(5.17388e-18 -8.97832e-19 -7.37657)
(-4.74383e-18 1.00638e-18 -7.40792)
(1.37858e-18 1.89243e-18 -7.43173)
(-2.83797e-18 -1.07797e-18 -7.44688)
(-1.97338e-18 -3.14164e-18 -7.45191)
(1.5444e-18 2.12623e-18 -7.44565)
(-2.5955e-19 2.11601e-18 -7.42844)
(-1.25195e-20 -1.26253e-18 -7.40022)
(4.92549e-19 2.14197e-19 -7.36146)
(-5.99827e-20 1.78247e-19 -7.31346)
(-1.6513e-19 -2.47279e-19 -7.25921)
(-2.47425e-19 -2.47404e-19 -7.20321)
(-7.95565e-21 4.51588e-19 -7.16653)
(0 -0 2.81087)
(-8.50126e-18 -0 2.03236)
(8.33253e-18 1.57186e-17 0.646163)
(9.1177e-19 -1.74676e-17 -1.01281)
(-8.18648e-19 -1.39704e-17 -2.58712)
(-2.31882e-19 1.57195e-17 -3.92369)
(-3.27517e-17 -0 -5.00237)
(3.28021e-17 -0 -5.80896)
(-2.41191e-18 -0 -6.4241)
(5.23713e-18 -0 -6.88939)
(6.99134e-17 -6.35035e-17 -7.23313)
(-7.43052e-17 6.86285e-17 -7.48457)
(-6.98163e-17 -4.86137e-18 -7.66493)
(2.83048e-18 6.78547e-17 -7.79112)
(1.82525e-18 -8.45547e-18 -7.87572)
(6.69812e-17 -1.87035e-16 -7.92919)
(7.02925e-17 1.31145e-16 -7.96002)
(-7.37259e-17 5.99413e-17 -7.97465)
(3.38353e-18 -6.37146e-17 -7.97798)
(-7.16609e-17 1.2602e-16 -7.97379)
(7.29846e-17 -1.32054e-16 -7.9647)
(7.0182e-18 -1.20294e-16 -7.95242)
(2.85476e-19 1.28544e-18 -7.93776)
(-1.90054e-17 1.301e-16 -7.92088)
(-1.25873e-16 1.20273e-16 -7.90142)
(1.36121e-16 -1.2533e-16 -7.87867)
(1.16029e-16 1.23751e-16 -7.85163)
(1.20294e-19 -4.05012e-18 -7.81904)
(-2.30297e-16 -2.47213e-16 -7.77947)
(1.35735e-16 -1.19295e-16 -7.73143)
(-3.93153e-17 3.72404e-16 -7.67318)
(1.30565e-16 -4.64505e-18 -7.60282)
(-1.1341e-16 -1.2927e-16 -7.52257)
(-1.16298e-16 1.13795e-19 -7.42507)
(1.49065e-16 -2.31485e-16 -7.29328)
(-2.75771e-16 2.13185e-16 -7.12318)
(9.45022e-16 7.22765e-16 -6.93302)
(9.39434e-16 7.99377e-16 -6.75797)
(-1.02639e-15 -7.21983e-16 -6.62692)
(-4.30339e-16 -1.02915e-15 -6.56027)
(1.33554e-16 -1.35497e-15 -6.59698)
(-1.19766e-15 8.19173e-16 -6.72187)
(-3.05443e-16 2.27551e-15 -6.94805)
(1.27707e-15 -9.59524e-16 -7.26601)
(-5.69567e-16 -1.4121e-15 -7.65268)
(1.19936e-15 3.37918e-16 -8.10096)
(7.36814e-16 3.04476e-16 -8.59571)
(5.18103e-16 2.80784e-16 -9.11769)
(6.95595e-16 4.83515e-16 -9.67187)
(5.3312e-16 1.34926e-15 -10.2344)
(-1.32489e-15 -6.33663e-16 -10.8015)
(7.30864e-16 -8.78069e-16 -11.3668)
(-1.20729e-16 -3.96854e-16 -11.9183)
(8.40543e-16 4.47486e-16 -12.4614)
(1.85005e-17 2.64767e-16 -12.9763)
(-2.12076e-17 4.68426e-16 -13.4684)
(5.79021e-16 3.6551e-16 -13.9166)
(1.71855e-16 1.20038e-16 -14.3145)
(-9.95587e-18 2.0345e-17 -14.6459)
(-9.24352e-17 -1.21953e-17 -14.8897)
(1.71787e-16 -1.07375e-16 -15.0353)
(-3.75299e-16 2.16229e-16 -15.0497)
(5.118e-16 -1.22264e-16 -14.9384)
(-1.8997e-16 -9.85587e-16 -14.6907)
(8.8359e-16 -6.72284e-16 -14.3184)
(-8.49219e-16 9.81897e-16 -13.8311)
(2.4361e-16 3.7483e-16 -13.2589)
(-1.60299e-16 1.80769e-16 -12.6195)
(6.24372e-16 -7.16282e-16 -11.9404)
(-4.48579e-16 1.89114e-16 -11.2395)
(-2.69377e-16 1.56615e-15 -10.5543)
(-5.32456e-16 -5.34289e-16 -9.9043)
(5.55624e-16 -5.81478e-16 -9.2864)
(7.45358e-17 1.11538e-15 -8.72872)
(9.3352e-16 -1.467e-15 -8.22006)
(-4.7145e-17 7.43316e-16 -7.75812)
(-6.56321e-16 7.13205e-16 -7.34594)
(-3.55556e-17 8.2394e-17 -6.96879)
(-1.44015e-15 1.82201e-15 -6.61739)
(-1.2281e-15 3.09787e-16 -6.29089)
(2.73604e-15 -3.35326e-15 -5.98978)
(5.60638e-16 1.30191e-16 -5.69947)
(-5.89241e-16 1.31266e-15 -5.41709)
(6.47406e-16 -1.12566e-15 -5.14351)
(-1.96159e-18 6.90513e-16 -4.87954)
(1.20239e-15 -1.98593e-15 -4.62904)
(-1.2571e-15 -2.21113e-15 -4.39249)
(3.89798e-17 1.51356e-16 -4.17027)
(4.12652e-16 1.56819e-15 -3.96901)
(1.51337e-15 -2.23777e-16 -3.78298)
(2.45376e-16 -1.34237e-16 -3.61191)
(-1.37128e-17 -7.32915e-18 -3.46006)
(-2.36483e-16 9.53597e-17 -3.32163)
(3.48832e-17 2.75162e-16 -3.19456)
(4.21678e-16 -1.6e-16 -3.08629)
(1.79855e-17 -2.47647e-16 -2.98533)
(-1.95921e-16 1.06116e-16 -2.9046)
(6.23588e-16 2.43925e-17 -2.83299)
(3.44216e-16 -8.00127e-17 -2.78252)
(1.85916e-17 -1.88985e-16 -2.74377)
(-9.12085e-17 2.28266e-17 -2.72742)
(9.11091e-17 -6.97982e-17 -2.72455)
(-5.67541e-17 1.74312e-17 -2.74251)
(1.30887e-19 1.2229e-17 -2.77716)
(-1.19255e-18 -9.63027e-17 -2.82871)
(1.96571e-16 -1.24859e-16 -2.89721)
(3.67765e-18 -1.1913e-16 -2.97834)
(1.90521e-16 6.02216e-16 -3.07407)
(1.69769e-16 8.58061e-17 -3.18004)
(-3.61944e-16 -6.10775e-16 -3.29637)
(-4.50685e-18 2.25759e-16 -3.42315)
(-5.56181e-18 1.28075e-17 -3.5573)
(-2.38832e-18 -2.516e-16 -3.70146)
(2.12708e-16 8.84996e-17 -3.85193)
(-4.01951e-16 7.72272e-17 -4.01811)
(-1.00408e-17 2.17858e-16 -4.19286)
(6.70451e-16 1.22978e-15 -4.3812)
(-2.9632e-16 -9.72974e-16 -4.58551)
(-9.23503e-16 -1.98843e-15 -4.80475)
(5.24907e-16 1.50744e-15 -5.04314)
(-9.18342e-16 5.41091e-16 -5.30282)
(8.54908e-16 -6.74818e-16 -5.58217)
(4.00066e-16 -9.07759e-16 -5.88442)
(1.02673e-16 1.67248e-16 -6.21076)
(5.38532e-16 1.12316e-15 -6.55793)
(-1.63015e-15 -5.66159e-16 -6.92814)
(1.03418e-16 1.74215e-17 -7.31889)
(-4.69761e-16 -8.67057e-16 -7.72742)
(2.72633e-16 -2.75466e-16 -8.1524)
(6.25945e-16 6.52594e-16 -8.59196)
(2.59465e-16 8.02332e-16 -9.03601)
(5.68525e-17 -7.68742e-17 -9.48926)
(4.80005e-16 4.80397e-16 -9.94919)
(6.73412e-16 7.79313e-16 -10.3961)
(-5.49149e-17 -8.11982e-17 -10.8486)
(9.71319e-17 2.60465e-16 -11.2941)
(5.76852e-16 3.37809e-18 -11.7131)
(5.32842e-17 1.67845e-16 -12.1402)
(-1.43417e-16 -6.06161e-17 -12.5358)
(-1.83869e-16 4.89505e-16 -12.9209)
(-1.31049e-16 4.75848e-16 -13.2853)
(4.47729e-16 -3.18045e-16 -13.6254)
(1.69731e-16 -4.82753e-16 -13.9428)
(-2.65032e-16 -3.05061e-16 -14.2332)
(-3.88139e-16 -1.75681e-17 -14.4803)
(-1.26821e-16 6.35278e-17 -14.7001)
(1.36806e-16 -8.31788e-17 -14.8385)
(-9.44065e-17 4.60872e-17 -14.9196)
(7.27176e-17 -2.35192e-17 -14.8912)
(-3.23972e-16 1.08105e-16 -14.7488)
(-4.36738e-17 9.64762e-17 -14.4901)
(3.16452e-16 -3.7017e-16 -14.0794)
(5.038e-17 4.14335e-17 -13.5594)
(-9.11725e-17 8.97356e-17 -12.9094)
(2.158e-16 -2.45313e-16 -12.1823)
(-1.04082e-16 3.87574e-16 -11.3836)
(3.27235e-16 -9.42584e-17 -10.6046)
(-3.39215e-16 -4.56542e-17 -9.90614)
(2.35749e-17 2.00768e-16 -9.35413)
(5.86806e-17 8.3593e-17 -9.07033)
(1.57048e-16 -2.31616e-16 -8.98448)
(-1.40412e-16 4.61666e-17 -9.16567)
(-2.76554e-17 6.27257e-17 -9.33263)
(-1.25186e-16 5.71775e-17 -9.43306)
(2.45378e-17 -5.7891e-17 -9.42827)
(-2.9953e-17 -2.56649e-17 -9.34391)
(8.81499e-17 1.25826e-17 -9.21303)
(4.79508e-19 5.45856e-17 -9.06577)
(-1.2757e-17 -1.42777e-17 -8.86929)
(-2.97263e-17 -4.66293e-17 -8.67723)
(9.08315e-18 -2.52038e-18 -8.51803)
(8.15932e-18 4.19981e-17 -8.41172)
(1.94114e-18 -2.28759e-17 -8.36341)
(-1.75942e-18 -2.22242e-17 -8.36837)
(-4.71609e-18 1.83285e-17 -8.41643)
(4.719e-17 2.66608e-18 -8.49456)
(-3.91231e-17 1.80204e-17 -8.58969)
(-1.95944e-17 -1.88245e-17 -8.69016)
(1.40366e-17 -1.35238e-17 -8.78676)
(5.03671e-18 1.43831e-17 -8.87214)
(-1.03853e-17 6.82719e-19 -8.941)
(7.6169e-18 3.45092e-18 -8.9913)
(-6.28691e-19 4.95626e-18 -9.02287)
(-6.18641e-18 -9.06347e-18 -9.03726)
(1.30284e-17 -5.28577e-18 -9.0375)
(-9.38196e-19 6.94547e-18 -9.02702)
(1.957e-18 3.97825e-19 -9.00964)
(1.50045e-18 -5.04314e-18 -8.98906)
(-3.81343e-18 5.9427e-18 -8.96823)
(4.68705e-18 2.61345e-18 -8.94935)
(4.31775e-18 -3.41805e-18 -8.93361)
(-4.32293e-18 -3.39823e-18 -8.92114)
(1.3088e-18 8.06355e-19 -8.91038)
(1.53406e-18 -7.64972e-19 -8.89937)
(-1.80368e-19 -2.88922e-19 -8.88612)
(-8.98578e-19 8.69947e-19 -8.86853)
(6.60667e-19 1.07319e-18 -8.84498)
(1.23885e-19 2.02232e-19 -8.81553)
(-9.53221e-20 -1.32015e-18 -8.7807)
(1.21263e-19 -2.11506e-19 -8.75188)
(0 -0 1.84912)
(0 -0 1.89014)
(-1.40174e-19 1.58375e-17 1.54174)
(4.6014e-19 -1.75371e-17 0.850951)
(-2.30197e-19 -1.40388e-17 -0.0983957)
(-7.80482e-19 4.67145e-17 -1.05716)
(-3.11972e-17 -3.49043e-17 -1.97533)
(6.56831e-17 -5.79348e-17 -2.82235)
(-3.56959e-17 9.66122e-17 -3.5584)
(1.61449e-18 -7.69319e-18 -4.18768)
(1.10234e-18 -5.79837e-17 -4.69489)
(-6.84597e-17 3.09278e-17 -5.1182)
(1.29254e-16 6.14329e-17 -5.46875)
(-1.30504e-16 -7.21058e-18 -5.75509)
(1.4333e-16 -1.84099e-16 -5.98669)
(-7.23275e-17 7.51022e-17 -6.17461)
(-9.52478e-18 1.16229e-16 -6.32805)
(7.68108e-18 -6.14539e-17 -6.45439)
(-3.40493e-18 6.0743e-17 -6.55972)
(-5.81986e-17 -6.68811e-17 -6.64914)
(7.50476e-17 -5.47409e-17 -6.72686)
(-1.35181e-17 6.0879e-17 -6.79616)
(1.31534e-16 -1.20111e-16 -6.85937)
(-1.51487e-16 2.50948e-16 -6.91807)
(1.24757e-17 -2.12685e-17 -6.97318)
(2.57948e-17 -3.48628e-16 -7.02512)
(-1.03004e-17 1.30482e-16 -7.07382)
(-1.88447e-17 3.56184e-16 -7.11881)
(1.33056e-16 -1.38073e-16 -7.15927)
(-1.01795e-16 -3.46242e-16 -7.19411)
(-2.20006e-17 1.27707e-16 -7.22196)
(-6.95993e-19 2.3577e-16 -7.24112)
(-2.12265e-17 1.09216e-16 -7.25197)
(1.46002e-16 -2.4418e-16 -7.25983)
(-1.18866e-16 -1.15091e-16 -7.24094)
(-3.29958e-16 -3.97043e-16 -7.14632)