/*--------------------------------*- C++ -*----------------------------------*\
| =========                 |                                                 |
| \\      /  F ield         | OpenFOAM: The Open Source CFD Toolbox           |
|  \\    /   O peration     | Version:  2506                                  |
|   \\  /    A nd           | Website:  www.openfoam.com                      |
|    \\/     M anipulation  |                                                 |
\*---------------------------------------------------------------------------*/
FoamFile
{
    version     2.0;
    format      ascii;
    arch        "LSB;label=32;scalar=64";
    class       volVectorField;
    location    "4.9";
    object      U;
}
// * * * * * * * * * * * * * * * * * * * * * * * * * * * * * * * * * * * * * //

dimensions      [0 1 -1 0 0 0 0];

internalField   nonuniform List<vector> 
4000
(
(0.00816188 0.000799226 0)
(0.00705275 0.000969047 -4.49651e-22)
(0.00555841 0.0005852 4.6648e-22)
(0.00426857 0.000296923 8.92344e-22)
(0.00346977 0.000157862 -1.80413e-21)
(0.00297467 8.77591e-05 9.06148e-22)
(0.00263923 5.08344e-05 0)
(0.0024036 3.16079e-05 0)
(0.00223414 2.13873e-05 0)
(0.00210778 1.57105e-05 1.78532e-21)
(0.00200992 1.23452e-05 -1.78933e-21)
(0.00193168 1.02569e-05 3.55311e-21)
(0.00186734 8.93977e-06 -3.55816e-21)
(0.00181294 8.09355e-06 0)
(0.00176573 7.55572e-06 0)
(0.00172371 7.23827e-06 0)
(0.00168535 7.07877e-06 3.50352e-21)
(0.00164947 7.03466e-06 -3.50603e-21)
(0.00161514 7.0821e-06 0)
(0.0015816 7.204e-06 0)
(0.00154818 7.38783e-06 0)
(0.00151432 7.62619e-06 0)
(0.00147948 7.91454e-06 0)
(0.00144318 8.24984e-06 6.89385e-21)
(0.00140492 8.63079e-06 -1.3782e-20)
(0.00136422 9.05854e-06 6.88843e-21)
(0.00132057 9.53789e-06 0)
(0.00127343 1.00806e-05 0)
(0.00122217 1.07123e-05 0)
(0.00116599 1.14963e-05 0)
(0.00110378 1.26165e-05 -6.86831e-21)
(0.00103406 1.44989e-05 6.87711e-21)
(0.000956068 1.68843e-05 0)
(0.000843032 2.46752e-05 6.0444e-21)
(0.000715246 5.19218e-05 6.95482e-21)
(0.000652861 0.000104437 -3.48714e-20)
(0.000665983 0.000176683 -2.81386e-20)
(0.000714462 0.000261423 7.08641e-21)
(0.000786388 0.000361211 -2.84906e-20)
(0.000886931 0.000483533 -6.42389e-20)
(0.00105664 0.000637967 7.1611e-21)
(0.00130621 0.000813673 5.65491e-20)
(0.00157352 0.000975819 -5.56341e-20)
(0.00182642 0.00111346 0)
(0.00206863 0.00122935 0)
(0.00229753 0.00132391 -3.17529e-21)
(0.0025246 0.00139908 -4.63993e-20)
(0.0027397 0.00144721 -4.519e-20)
(0.00293701 0.00146881 -2.62286e-20)
(0.00312727 0.00146348 -2.20483e-20)
(0.00329414 0.0014261 2.08216e-20)
(0.00344352 0.00135936 0)
(0.00356075 0.00125704 -2.28335e-21)
(0.00364553 0.00112495 3.77678e-20)
(0.0036885 0.000959019 0)
(0.00367705 0.000771047 -7.91321e-21)
(0.00362079 0.000568533 -1.84218e-21)
(0.00349671 0.000359131 -6.42125e-24)
(0.00333819 0.000158608 -8.43435e-23)
(0.0031186 -3.34524e-05 -8.76553e-22)
(0.00286084 -0.000195987 1.56946e-21)
(0.00259192 -0.000328136 0)
(0.00230663 -0.000426729 0)
(0.00203322 -0.000492638 3.06968e-21)
(0.00176748 -0.000529284 2.15307e-20)
(0.00152606 -0.00054163 3.10529e-21)
(0.00130714 -0.000534551 -3.11824e-21)
(0.0011128 -0.000513788 3.17775e-21)
(0.000945001 -0.000483529 9.6029e-21)
(0.000797259 -0.000447266 -2.26335e-20)
(0.000672756 -0.000408479 -3.25508e-21)
(0.000563771 -0.000368058 -5.63385e-23)
(0.000469726 -0.000327962 0)
(0.000390551 -0.000289204 0)
(0.000320799 -0.000251949 0)
(0.000260828 -0.000216854 -1.76151e-21)
(0.000209462 -0.000184182 -2.65222e-20)
(0.000164126 -0.000153746 0)
(0.000124422 -0.000125645 -8.13785e-23)
(8.99079e-05 -9.99213e-05 1.82308e-21)
(5.92886e-05 -7.64146e-05 -2.91869e-20)
(3.20082e-05 -5.50398e-05 2.65499e-20)
(7.71068e-06 -3.57328e-05 -8.42226e-24)
(-1.41187e-05 -1.84408e-05 3.00739e-20)
(-3.36785e-05 -3.16477e-06 2.97025e-22)
(-5.11065e-05 1.013e-05 -2.94944e-20)
(-6.66551e-05 2.14342e-05 -2.99819e-20)
(-8.03147e-05 3.06887e-05 3.03813e-20)
(-9.18801e-05 3.79619e-05 -4.62902e-22)
(-0.000101551 4.32439e-05 -2.96857e-20)
(-0.000109446 4.65952e-05 0)
(-0.000115208 4.82038e-05 -3.04661e-20)
(-0.00011904 4.80323e-05 -2.85306e-20)
(-0.000121308 4.6196e-05 2.93051e-20)
(-0.000121624 4.30695e-05 -1.64195e-20)
(-0.000120753 3.87422e-05 1.81305e-21)
(-0.00011788 3.35332e-05 1.44632e-20)
(-0.000113841 2.74668e-05 1.80475e-21)
(-0.00010808 2.12689e-05 1.25582e-20)
(-0.000101047 1.50055e-05 8.94279e-21)
(-9.20793e-05 9.36486e-06 -3.57182e-21)
(-8.13497e-05 4.30665e-06 8.91915e-21)
(-6.84569e-05 4.17811e-07 -8.92102e-22)
(-5.33195e-05 -1.98042e-06 -8.94682e-22)
(-3.54663e-05 -2.65072e-06 -3.60237e-21)
(-1.47653e-05 -8.47953e-07 0)
(9.36058e-06 3.548e-06 0)
(3.72945e-05 1.12836e-05 -2.90144e-20)
(6.92262e-05 2.26394e-05 -9.29454e-22)
(0.000105768 3.82154e-05 1.54801e-20)
(0.000147254 5.83826e-05 1.51501e-20)
(0.000193798 8.3616e-05 4.7813e-22)
(0.000246312 0.000114172 -1.59067e-20)
(0.000303846 0.000150368 -1.60958e-23)
(0.000367577 0.000192329 0)
(0.000437933 0.000240249 3.14414e-20)
(0.000512851 0.000293508 -9.8424e-22)
(0.000594156 0.00035239 -2.95344e-20)
(0.000680932 0.000416171 -9.8992e-22)
(0.000771573 0.000484065 -3.15124e-20)
(0.000867373 0.0005559 -1.8155e-22)
(0.000967599 0.000630548 3.11061e-20)
(0.00107009 0.000706685 1.90677e-21)
(0.00117559 0.000783835 -3.41356e-20)
(0.00128415 0.000860895 1.88286e-21)
(0.00139422 0.00093642 2.91928e-20)
(0.00150606 0.0010095 3.50118e-21)
(0.00161907 0.00107885 -3.51089e-21)
(0.00173269 0.00114352 2.66965e-20)
(0.00184957 0.00120311 -2.20618e-20)
(0.00196772 0.00125533 -3.14037e-21)
(0.00208394 0.00129903 -4.32139e-20)
(0.00220593 0.00133518 -2.82959e-21)
(0.00233031 0.00136039 -2.04858e-20)
(0.00245065 0.00137306 5.17928e-22)
(0.00258021 0.00137476 0)
(0.00270771 0.00135939 0)
(0.00282946 0.00132834 -2.33093e-22)
(0.00295306 0.00127862 0)
(0.00306512 0.00120804 -1.17257e-21)
(0.00316639 0.00111526 -2.89561e-21)
(0.00324737 0.000998684 -7.26313e-22)
(0.0032971 0.000859328 -1.12486e-21)
(0.00331654 0.000700032 -5.19694e-22)
(0.00328136 0.000521823 -6.00215e-22)
(0.00320581 0.000340952 1.4907e-22)
(0.00307091 0.000156185 0)
(0.0028784 -9.30592e-06 0)
(0.00265632 -0.000156373 0)
(0.00239157 -0.00027376 3.0492e-22)
(0.00211879 -0.000359233 -3.05988e-22)
(0.0018313 -0.000412288 -1.23678e-21)
(0.00155322 -0.00043372 -1.10801e-21)
(0.00128984 -0.000429096 0)
(0.00104871 -0.000404102 6.97469e-22)
(0.000832448 -0.000363863 0)
(0.000641452 -0.000314208 1.52342e-23)
(0.000477852 -0.000259355 1.32668e-22)
(0.000335263 -0.000201932 -1.39884e-22)
(0.000213355 -0.000138845 2.90521e-21)
(0.000159517 -0.000100546 -9.97852e-22)
(0.000171215 -8.1432e-05 -1.2113e-21)
(0.000182491 -6.96341e-05 0)
(0.000205192 -5.92153e-05 0)
(0.000248083 -4.94112e-05 0)
(0.000316682 -3.71872e-05 0)
(0.000426216 -2.66901e-05 0)
(0.000567455 -2.02535e-05 5.28646e-22)
(0.000700382 -1.78687e-05 8.07546e-24)
(0.000817896 -1.67537e-05 1.77392e-24)
(0.000924747 -1.55922e-05 -5.37067e-22)
(0.00102123 -1.42658e-05 0)
(0.00110708 -1.28485e-05 5.08428e-22)
(0.00118252 -1.14047e-05 -5.07075e-22)
(0.00124801 -9.97624e-06 1.49299e-23)
(0.00130415 -8.59679e-06 0)
(0.0013516 -7.2943e-06 0)
(0.00139109 -6.08853e-06 -4.04985e-22)
(0.00142338 -4.99083e-06 4.04212e-22)
(0.00144922 -4.00548e-06 0)
(0.00146933 -3.13159e-06 0)
(0.00148439 -2.36502e-06 -1.46038e-22)
(0.00149503 -1.69973e-06 1.09558e-23)
(0.00150185 -1.12354e-06 1.44687e-22)
(0.00150535 -6.20005e-07 0)
(0.00150602 -1.98578e-07 0)
(0.00150429 1.50918e-07 0)
(0.00150049 4.26539e-07 0)
(0.00149496 7.11893e-07 5.52233e-24)
(0.00148803 9.56417e-07 0)
(0.00147996 1.16692e-06 0)
(0.00147099 1.3508e-06 0)
(0.00146134 1.51284e-06 2.42951e-23)
(0.00145124 1.65728e-06 -2.42647e-23)
(0.00144087 1.79192e-06 0)
(0.00143039 1.93506e-06 1.81942e-24)
(0.00141991 2.112e-06 4.49396e-24)
(0.00140927 2.34805e-06 -3.10258e-24)
(0.00139686 3.15387e-06 -1.38395e-24)
(0.00138204 6.78154e-06 0)
(0.0101626 0.00148333 0)
(0.0105613 0.00234276 0)
(0.0101511 0.00199844 0)
(0.0092785 0.00150308 8.69671e-22)
(0.00836693 0.00106533 -1.76677e-21)
(0.00760935 0.000737429 8.94936e-22)
(0.00699758 0.000514806 0)
(0.00650841 0.000369034 1.79338e-21)
(0.00612101 0.000273101 -1.81127e-21)
(0.00581321 0.000208817 1.80491e-21)
(0.00556528 0.000164561 -1.8161e-21)
(0.00536225 0.000133416 -3.61612e-21)
(0.00519295 0.000111175 3.63092e-21)
(0.005049 9.50895e-05 3.6128e-21)
(0.00492411 8.34191e-05 -1.42447e-23)
(0.00481346 7.50512e-05 -7.22271e-21)
(0.00471329 6.92028e-05 3.61259e-21)
(0.00462059 6.53206e-05 0)
(0.00453295 6.30365e-05 0)
(0.00444833 6.20902e-05 0)
(0.00436502 6.22987e-05 0)
(0.00428147 6.35437e-05 0)
(0.00419629 6.57539e-05 0)
(0.00410814 6.8891e-05 0)
(0.00401575 7.29467e-05 0)
(0.00391782 7.79426e-05 0)
(0.003813 8.39358e-05 0)
(0.00369985 9.10347e-05 0)
(0.00357678 9.94364e-05 0)
(0.0034419 0.000109516 0)
(0.00329287 0.000122039 -7.1803e-21)
(0.00312672 0.000138633 3.19533e-25)
(0.00294295 0.000162309 1.44548e-20)
(0.00270825 0.000199034 -6.34829e-21)
(0.00245628 0.000265367 -7.31301e-21)
(0.0023162 0.000381196 2.21422e-20)
(0.00232307 0.000553922 -2.98196e-20)
(0.00242534 0.000775175 -7.5201e-21)
(0.00260195 0.00104151 7.57979e-20)
(0.00286121 0.00135468 2.30621e-20)
(0.0032527 0.00171607 0)
(0.00376642 0.00210121 7.40985e-21)
(0.0043123 0.00246348 4.36337e-20)
(0.00484819 0.00278245 7.23589e-21)
(0.00537212 0.00305395 5.52805e-20)
(0.00588031 0.003276 -5.3543e-20)
(0.00638289 0.00344795 7.89983e-22)
(0.00686491 0.0035589 0)
(0.00732078 0.00360783 -2.41376e-20)
(0.00775697 0.00359087 0)
(0.00815352 0.00350274 -2.40486e-22)
(0.00851233 0.00334581 0)
(0.00880978 0.00311111 -1.9548e-20)
(0.00904292 0.00281001 -1.85917e-20)
(0.00919263 0.00243919 0)
(0.00924528 0.00201743 -5.70826e-23)
(0.00920066 0.00155846 7.86872e-21)
(0.00902855 0.0010767 1.78711e-21)
(0.00876559 0.000601609 3.55646e-21)
(0.00837513 0.000139022 -8.98522e-22)
(0.00789243 -0.000277542 0)
(0.00734685 -0.000637265 6.80381e-21)
(0.00674768 -0.000929435 -3.41719e-21)
(0.00613721 -0.00115059 -6.68273e-21)
(0.00551901 -0.00130284 -2.01453e-20)
(0.00492874 -0.00139337 -3.37937e-21)
(0.004369 -0.00142944 1.71523e-20)
(0.00385396 -0.00142323 -3.46353e-21)
(0.00338789 -0.00138347 0)
(0.00296728 -0.00131962 3.63048e-21)
(0.00259705 -0.00124039 -3.63065e-21)
(0.0022668 -0.00114975 -9.10344e-23)
(0.00197465 -0.00105432 0)
(0.00171979 -0.000957008 -3.05474e-20)
(0.00149338 -0.000859835 -3.09235e-20)
(0.00129387 -0.000765471 1.97228e-21)
(0.00111895 -0.000674902 -1.96417e-21)
(0.000963344 -0.000588567 2.00796e-21)
(0.000825035 -0.000507315 -3.22326e-20)
(0.00070271 -0.000431435 3.0288e-20)
(0.000593591 -0.000360862 -3.24666e-20)
(0.000495873 -0.000295715 -3.37731e-20)
(0.000408425 -0.000235991 2.04698e-21)
(0.000329843 -0.000181706 -3.37777e-20)
(0.000259363 -0.000133038 3.26599e-20)
(0.000196343 -8.99699e-05 -3.25272e-20)
(0.000139816 -5.25992e-05 3.27543e-20)
(8.98265e-05 -2.12684e-05 -3.28051e-20)
(4.66052e-05 4.19964e-06 -1.02354e-21)
(9.26796e-06 2.3948e-05 1.01349e-21)
(-2.19583e-05 3.79167e-05 0)
(-4.66443e-05 4.66502e-05 0)
(-6.58208e-05 5.05457e-05 1.59561e-20)
(-7.92639e-05 4.97904e-05 -1.78711e-20)
(-8.67264e-05 4.54494e-05 1.5772e-20)
(-8.93874e-05 3.77665e-05 3.91015e-21)
(-8.61373e-05 2.80179e-05 -2.12136e-23)
(-7.78539e-05 1.61746e-05 8.24124e-24)
(-6.37204e-05 3.71755e-06 -3.45808e-20)
(-4.42601e-05 -9.11909e-06 -5.74488e-21)
(-1.84447e-05 -2.06364e-05 7.62896e-21)
(1.33288e-05 -3.04945e-05 -7.61872e-21)
(5.24788e-05 -3.72553e-05 0)
(9.86939e-05 -3.98396e-05 -9.54784e-22)
(0.000153665 -3.73869e-05 9.55107e-22)
(0.00021747 -2.80211e-05 0)
(0.000291187 -1.10612e-05 0)
(0.000375757 1.53677e-05 1.56129e-20)
(0.000471276 5.22252e-05 -1.57521e-20)
(0.000578845 0.000100917 1.63932e-20)
(0.00069876 0.000162506 -3.20929e-20)
(0.000831095 0.000237995 4.72927e-25)
(0.000976846 0.00032806 -5.10074e-22)
(0.0011344 0.000433304 -1.64561e-20)
(0.0013053 0.000553678 0)
(0.00148922 0.000689374 0)
(0.00168336 0.000839301 0)
(0.00188963 0.00100291 3.45036e-20)
(0.0021061 0.00117874 3.2117e-20)
(0.0023307 0.00136484 0)
(0.00256467 0.0015596 -3.72628e-20)
(0.00280639 0.00176047 6.13707e-21)
(0.00305323 0.00196455 -4.0312e-21)
(0.00330613 0.00216952 2.00575e-21)
(0.00356467 0.00237244 -3.8449e-21)
(0.00382714 0.0025701 3.02311e-20)
(0.00409377 0.00275964 -2.55154e-20)
(0.0043639 0.00293801 3.18506e-20)
(0.00463752 0.00310245 -1.49283e-22)
(0.00491768 0.00325069 2.36475e-20)
(0.00520123 0.0033786 0)
(0.00548594 0.0034836 2.44736e-20)
(0.00578079 0.00356467 -2.70731e-21)
(0.00607947 0.00361619 -1.77737e-20)
(0.00637661 0.00363532 1.98371e-20)
(0.00668591 0.00362143 -2.08024e-21)
(0.00699081 0.0035655 2.08817e-21)
(0.00728816 0.00346888 -2.03128e-21)
(0.00757968 0.00332478 1.63049e-21)
(0.00784921 0.00313154 -1.15926e-21)
(0.00809088 0.00288643 5.52071e-21)
(0.00828846 0.00258907 -3.95512e-21)
(0.00842359 0.00224224 3.24759e-21)
(0.0084898 0.00185415 0)
(0.00845457 0.00142979 3.32152e-22)
(0.00833332 0.000995452 4.31564e-24)
(0.0080907 0.000555956 1.82244e-23)
(0.00773532 0.00014541 0)
(0.00729302 -0.000226098 2.06344e-22)
(0.00675579 -0.000539784 -5.0976e-22)
(0.00617201 -0.000786314 0)
(0.00553621 -0.000960902 1.10521e-21)
(0.00489366 -0.00106389 2.51406e-22)
(0.00425401 -0.00110072 -2.5324e-22)
(0.00364439 -0.00108267 0)
(0.00307033 -0.00101835 -3.95634e-22)
(0.00254362 -0.000921668 1.53809e-22)
(0.00206975 -0.000801935 1.80305e-22)
(0.001651 -0.000671052 0)
(0.00127957 -0.000527519 -1.54201e-21)
(0.00106439 -0.000436184 -1.39273e-21)
(0.00101579 -0.000376977 2.9863e-21)
(0.00101622 -0.000332827 -4.15258e-22)
(0.0010625 -0.000299866 4.10441e-22)
(0.00117056 -0.000275335 4.99572e-22)
(0.00134734 -0.000251649 5.4892e-22)
(0.00161071 -0.000233482 -4.59067e-22)
(0.00192968 -0.00021547 -3.47267e-23)
(0.00223562 -0.000196838 0)
(0.00251387 -0.000179241 3.52287e-23)
(0.00276924 -0.000162161 0)
(0.00300185 -0.000144959 -3.42933e-23)
(0.00321111 -0.000127835 -5.31693e-22)
(0.00339722 -0.000111186 5.61189e-22)
(0.00356098 -9.52934e-05 -4.68471e-23)
(0.00370346 -8.03453e-05 4.68569e-22)
(0.00382592 -6.64713e-05 -8.83214e-22)
(0.00392977 -5.37496e-05 8.63738e-22)
(0.0040165 -4.22088e-05 -4.44428e-22)
(0.00408762 -3.18359e-05 0)
(0.0041446 -2.25882e-05 1.9611e-22)
(0.00418889 -1.44054e-05 -1.83859e-22)
(0.00422185 -7.21705e-06 -1.9396e-23)
(0.00424476 -9.45544e-07 -1.39101e-22)
(0.00425882 4.4913e-06 1.2219e-22)
(0.00426512 9.17242e-06 1.17465e-22)
(0.0042647 1.31671e-05 -1.3123e-22)
(0.00425848 1.65247e-05 1.09788e-22)
(0.00424734 1.93615e-05 -1.89947e-22)
(0.00423207 2.17176e-05 1.15751e-22)
(0.00421346 2.35924e-05 -3.88438e-23)
(0.00419223 2.50164e-05 -8.02072e-24)
(0.00416907 2.60225e-05 0)
(0.00414462 2.66458e-05 1.54487e-23)
(0.00411949 2.69386e-05 -2.12821e-23)
(0.00409423 2.69936e-05 9.45835e-25)
(0.00406931 2.69816e-05 -6.66878e-24)
(0.00404495 2.72342e-05 0)
(0.00401995 2.85741e-05 0)
(0.00399407 3.32867e-05 -2.75118e-25)
(0.0101548 0.000930802 0)
(0.010718 0.00187942 -4.3544e-22)
(0.0111799 0.00208094 4.31663e-22)
(0.011118 0.00193208 8.35621e-22)
(0.010834 0.00165192 -8.43768e-22)
(0.0104091 0.00133955 0)
(0.00994811 0.00105987 0)
(0.00950678 0.000832102 0)
(0.00910916 0.000656424 -1.69179e-21)
(0.00876243 0.00052419 3.40488e-21)
(0.00846404 0.000424906 1.69303e-21)
(0.00820798 0.000350585 -3.42587e-21)
(0.00798716 0.000294976 -3.41276e-21)
(0.00779494 0.000253202 3.42867e-21)
(0.00762557 0.000221909 0)
(0.00747413 0.00019876 -3.41254e-21)
(0.00733637 0.00018199 6.83346e-21)
(0.00720878 0.000170303 -3.41985e-21)
(0.00708835 0.000162809 0)
(0.00697248 0.000158849 0)
(0.00685887 0.000157955 0)
(0.00674545 0.000159817 0)
(0.0066303 0.000164241 0)
(0.00651154 0.000171124 -6.78868e-21)
(0.00638738 0.000180437 6.80387e-21)
(0.00625595 0.000192228 0)
(0.00611536 0.000206627 0)
(0.00596355 0.000223872 0)
(0.00579829 0.000244354 0)
(0.00561707 0.000268742 0)
(0.00541699 0.000298216 -6.85028e-21)
(0.0051945 0.000334966 6.87513e-21)
(0.00495052 0.000382978 0)
(0.00465443 0.000447026 4.328e-22)
(0.00434145 0.000543014 0)
(0.0041501 0.000698097 -1.41787e-20)
(0.0041353 0.000927656 2.868e-20)
(0.00425788 0.00122673 0)
(0.00449689 0.00158761 -5.77466e-20)
(0.00485622 0.00200338 1.97623e-22)
(0.00537197 0.002464 -7.08107e-21)
(0.00601427 0.00293803 7.06146e-21)
(0.00669499 0.0033854 -5.50954e-20)
(0.00737483 0.00378639 0)
(0.00804665 0.00413203 -5.85096e-20)
(0.00870543 0.00441701 5.37291e-20)
(0.00935663 0.004637 5.16905e-20)
(0.00998553 0.00478129 0)
(0.0105877 0.00484692 2.21539e-20)
(0.0111645 0.00482784 0)
(0.0116981 0.00472063 -4.05629e-20)
(0.0121862 0.00452536 0)
(0.0126064 0.00423445 1.61027e-20)
(0.0129543 0.00386005 1.97816e-20)
(0.0132078 0.00340159 1.67187e-20)
(0.0133536 0.00287541 7.8227e-21)
(0.0133852 0.0022946 7.59119e-21)
(0.0132736 0.00167423 3.54175e-21)
(0.0130445 0.00104574 -1.76405e-21)
(0.0126608 0.000419586 -2.51496e-21)
(0.0121526 -0.000169113 0)
(0.0115383 -0.000702552 -6.30707e-21)
(0.0108316 -0.0011639 6.25299e-21)
(0.0100744 -0.00154202 0)
(0.0092752 -0.00183366 2.53582e-20)
(0.00847854 -0.00204127 0)
(0.00769248 -0.00216946 3.25227e-21)
(0.00694313 -0.00223025 -3.27587e-21)
(0.0062399 -0.00223309 0)
(0.00558734 -0.00219035 3.43884e-21)
(0.00499491 -0.00211378 -3.45299e-21)
(0.00445466 -0.00201037 -3.89614e-20)
(0.00396708 -0.00189069 2.52519e-20)
(0.00353167 -0.00176006 7.69638e-23)
(0.0031396 -0.00162308 2.98237e-20)
(0.00278881 -0.00148479 1.89972e-21)
(0.00247639 -0.00134768 -3.24085e-20)
(0.00219587 -0.00121349 0)
(0.00194418 -0.00108432 -3.11512e-20)
(0.00171928 -0.000961245 -6.09761e-20)
(0.0015174 -0.000844755 6.04357e-20)
(0.00133578 -0.000735527 3.28158e-20)
(0.00117256 -0.000633921 -3.29785e-20)
(0.00102554 -0.000540242 3.31974e-20)
(0.000893464 -0.000455011 0)
(0.000775061 -0.000378348 3.23049e-20)
(0.00066853 -0.000310459 1.5258e-22)
(0.000573964 -0.000252075 6.51287e-20)
(0.000491318 -0.000202979 3.01235e-20)
(0.000418962 -0.00016293 3.30618e-20)
(0.000357694 -0.000132108 0)
(0.00030791 -0.000109571 0)
(0.000268015 -9.43997e-05 -1.58768e-20)
(0.000238934 -8.61567e-05 0)
(0.000220291 -8.31012e-05 -1.96538e-21)
(0.000211473 -8.48771e-05 1.94253e-21)
(0.000212935 -8.94258e-05 -1.54962e-20)
(0.000223581 -9.64841e-05 1.53646e-20)
(0.000244159 -0.000104201 1.33833e-20)
(0.000274668 -0.000112354 1.89607e-21)
(0.000316071 -0.00011867 -7.57477e-21)
(0.000367924 -0.00012249 3.77572e-21)
(0.000432329 -0.000121882 -2.82966e-21)
(0.000508517 -0.000115197 9.4157e-22)
(0.000599212 -0.000101119 0)
(0.000704159 -7.70485e-05 7.59266e-21)
(0.000824784 -4.18071e-05 0)
(0.000962122 7.13205e-06 1.53601e-20)
(0.00111595 7.12613e-05 2.97113e-24)
(0.00128741 0.000152405 -1.50909e-20)
(0.00147646 0.00025201 1.56887e-20)
(0.00168278 0.000371304 -4.92941e-22)
(0.00190714 0.000511052 0)
(0.00214718 0.000671844 1.5908e-20)
(0.00240437 0.000853414 -1.5955e-20)
(0.00267755 0.00105555 0)
(0.00296372 0.0012769 9.96665e-22)
(0.00326427 0.00151609 -3.27937e-20)
(0.0035769 0.00177099 -2.99312e-20)
(0.00389951 0.00203896 2.93836e-20)
(0.00423293 0.00231724 -3.10357e-20)
(0.00457535 0.00260234 -1.91008e-21)
(0.00492446 0.0028905 2.82739e-20)
(0.00528102 0.00317812 3.76579e-21)
(0.00564443 0.00346105 3.24224e-20)
(0.00601335 0.0037351 -6.38481e-20)
(0.00638793 0.00399617 3.13727e-20)
(0.00676772 0.00424002 -2.36929e-20)
(0.00715294 0.0044628 1.87938e-20)
(0.0075458 0.00466076 3.012e-20)
(0.00794364 0.00482875 1.7017e-20)
(0.00834512 0.00496364 2.81652e-21)
(0.0087566 0.00506253 1.7654e-20)
(0.00917206 0.00511848 2.18387e-20)
(0.00958769 0.0051292 -2.07759e-21)
(0.0100119 0.00509189 2.0827e-21)
(0.0104291 0.00499718 5.3299e-21)
(0.0108368 0.00484639 1.45335e-21)
(0.0112309 0.00463237 -1.25395e-21)
(0.011597 0.00435448 1.25774e-21)
(0.0119253 0.00401111 -3.81481e-21)
(0.0121988 0.00360334 6.40744e-22)
(0.0123984 0.00313595 -1.80274e-22)
(0.0125145 0.00261889 -4.84746e-22)
(0.0125153 0.00206137 -1.0028e-21)
(0.0124108 0.00148617 0)
(0.0121645 0.000902461 -5.3683e-23)
(0.011784 0.000343287 6.69116e-23)
(0.011284 -0.000175102 -1.9238e-22)
(0.0106575 -0.000631195 6.93734e-22)
(0.00994841 -0.00100983 1.67171e-22)
(0.00914979 -0.00130151 -1.03025e-21)
(0.00831239 -0.00150254 -9.54735e-22)
(0.00744494 -0.00161405 3.61331e-22)
(0.00658682 -0.0016461 -6.45725e-22)
(0.00574677 -0.0016062 3.72868e-22)
(0.00494851 -0.00151064 -1.39469e-23)
(0.00420269 -0.00137102 -2.39581e-22)
(0.00353026 -0.00120765 8.28181e-23)
(0.00291701 -0.00101956 -7.33155e-22)
(0.00252113 -0.000888939 1.05432e-21)
(0.00236689 -0.000793013 -9.45548e-22)
(0.00232094 -0.000715029 -3.47087e-22)
(0.00236102 -0.000654662 -8.37954e-22)
(0.00250365 -0.000611347 0)
(0.00274906 -0.000574295 -1.00145e-21)
(0.00310875 -0.000546283 9.61205e-22)
(0.00353162 -0.000515075 4.78296e-23)
(0.00393807 -0.000477735 7.6493e-24)
(0.00431119 -0.00043878 -3.17589e-23)
(0.00465533 -0.000399393 -5.30703e-22)
(0.00497042 -0.000359423 3.28022e-23)
(0.00525555 -0.000319462 0)
(0.00551092 -0.000280347 -3.08563e-23)
(0.00573746 -0.000242721 2.96484e-23)
(0.00593641 -0.000207026 4.95509e-22)
(0.0061092 -0.000173569 -4.64792e-22)
(0.00625745 -0.000142552 -3.95014e-22)
(0.00638291 -0.00011407 4.17617e-22)
(0.00648732 -8.81333e-05 0)
(0.00657247 -6.46855e-05 -2.12373e-23)
(0.00664007 -4.36316e-05 0)
(0.00669179 -2.48529e-05 -1.23358e-22)
(0.00672924 -8.2127e-06 1.01463e-23)
(0.00675394 6.43808e-06 1.46853e-22)
(0.00676731 1.92487e-05 2.88374e-23)
(0.00677072 3.03611e-05 1.33055e-23)
(0.00676544 3.9906e-05 -1.21069e-23)
(0.00675269 4.79724e-05 0)
(0.0067336 5.46806e-05 9.80681e-24)
(0.00670928 6.00775e-05 3.27509e-23)
(0.0066808 6.42152e-05 -2.50664e-23)
(0.0066492 6.71548e-05 -2.44535e-23)
(0.00661548 6.89705e-05 2.99995e-23)
(0.00658057 6.97673e-05 0)
(0.00654535 6.97086e-05 4.58554e-24)
(0.00651062 6.90498e-05 6.45072e-24)
(0.00647706 6.8208e-05 1.46342e-24)
(0.00644433 6.79031e-05 -1.46132e-24)
(0.00641108 7.06982e-05 2.60933e-25)
(0.0100748 0.000516306 0)
(0.0104761 0.0012823 0)
(0.0110149 0.00167926 0)
(0.0113787 0.00179452 8.33052e-22)
(0.0115701 0.00173108 -8.31806e-22)
(0.0115412 0.00156967 0)
(0.0114223 0.00136698 0)
(0.0112259 0.00116129 0)
(0.0109931 0.000976594 0)
(0.0107547 0.000819215 0)
(0.0105247 0.00068874 0)
(0.0103101 0.000584027 -3.27023e-21)
(0.0101128 0.000501283 3.28738e-21)
(0.00993243 0.000436214 -3.27244e-21)
(0.00976763 0.000385694 6.55775e-21)
(0.00961612 0.000347193 -3.28377e-21)
(0.00947536 0.00031851 -3.26863e-21)
(0.00934294 0.000297932 3.27812e-21)
(0.00921656 0.000284263 0)
(0.00909396 0.000276538 0)
(0.00897306 0.000274052 6.51642e-21)
(0.00885186 0.000276348 -6.53094e-21)
(0.0087284 0.000283136 0)
(0.00860073 0.000294262 -6.50594e-21)
(0.00846686 0.000309698 6.52021e-21)
(0.00832477 0.000329539 0)
(0.00817232 0.00035401 0)
(0.0080072 0.000383486 6.51657e-21)
(0.00782693 0.00041855 -7.98757e-24)
(0.00762878 0.000460102 -6.54473e-21)
(0.00740979 0.000509565 -6.55518e-21)
(0.00716637 0.000569269 1.31527e-20)
(0.00690027 0.000643237 -6.59886e-21)
(0.00658468 0.00073401 6.20594e-21)
(0.00625217 0.000855572 -6.67532e-21)
(0.00603475 0.00103612 -6.78566e-21)
(0.00599694 0.00129305 6.87891e-21)
(0.00611597 0.00162499 2.06031e-20)
(0.00637523 0.0020234 3.44992e-20)
(0.00677341 0.00247532 7.01385e-21)
(0.00733152 0.00296388 -6.78757e-21)
(0.00800892 0.00345732 -5.91961e-20)
(0.00872713 0.00392429 5.79103e-20)
(0.00945147 0.00434752 5.62489e-20)
(0.0101725 0.0047157 -1.22136e-20)
(0.0108849 0.00502071 8.91898e-21)
(0.0115905 0.0052557 -2.565e-20)
(0.0122764 0.00541225 0)
(0.0129385 0.00548429 -2.37826e-20)
(0.0135766 0.00546356 2.58659e-21)
(0.0141752 0.0053499 1.93819e-20)
(0.0147286 0.00514204 2.2607e-21)
(0.0152197 0.00483503 -2.22396e-20)
(0.0156431 0.00443802 -1.46482e-20)
(0.0159792 0.00395216 -1.6046e-20)
(0.0162154 0.0033912 -7.81992e-21)
(0.0163422 0.0027675 -1.58087e-21)
(0.0163347 0.00209432 1.79587e-21)
(0.0162072 0.00139973 1.6644e-21)
(0.0159261 0.000694444 2.43777e-21)
(0.0155108 1.0569e-05 1.63097e-21)
(0.0149685 -0.000632705 0)
(0.0143085 -0.00121553 6.2375e-21)
(0.0135638 -0.00172137 0)
(0.012742 -0.00214233 -2.12867e-20)
(0.0118869 -0.00247326 -1.23664e-20)
(0.0110088 -0.00271455 -3.07605e-21)
(0.0101402 -0.00287279 0)
(0.00929551 -0.00295548 0)
(0.00848716 -0.00297362 -1.29843e-20)
(0.00773068 -0.00293927 0)
(0.00702307 -0.00286091 3.02517e-20)
(0.00637022 -0.00275099 -3.07771e-20)
(0.0057737 -0.00261715 2.96481e-20)
(0.00522729 -0.00246623 2.50875e-23)
(0.00473043 -0.00230554 2.49175e-23)
(0.00428073 -0.00213946 2.56266e-20)
(0.00387204 -0.00197145 3.70216e-21)
(0.00350133 -0.00180512 2.81677e-20)
(0.00316638 -0.00164284 3.03461e-20)
(0.00286308 -0.00148603 -1.08622e-22)
(0.0025883 -0.00133626 -2.98904e-20)
(0.00233974 -0.00119455 3.00901e-20)
(0.00211471 -0.00106174 0)
(0.00191164 -0.000938869 4.90759e-22)
(0.00172873 -0.000826376 3.08312e-20)
(0.0015634 -0.00072473 -6.25952e-20)
(0.00141577 -0.00063508 -9.4594e-20)
(0.00128542 -0.000557263 -3.2452e-20)
(0.00116996 -0.000491071 8.95914e-22)
(0.00107059 -0.000436874 0)
(0.000987652 -0.000393529 9.78592e-22)
(0.000919098 -0.000359758 -9.69497e-22)
(0.000866641 -0.000335074 0)
(0.000829381 -0.00031704 1.54035e-20)
(0.000807284 -0.000305199 -1.92111e-21)
(0.000800467 -0.000297059 1.90058e-21)
(0.000808363 -0.000291927 -1.88769e-23)
(0.00083099 -0.000287317 1.50469e-20)
(0.000869031 -0.000282948 -1.87466e-21)
(0.000923019 -0.000276081 3.72645e-21)
(0.000992556 -0.000265881 -1.85316e-21)
(0.00107994 -0.000250084 3.58479e-25)
(0.00118382 -0.00022667 -9.28257e-22)
(0.00130754 -0.000194062 9.26298e-22)
(0.00145015 -0.000149238 -7.441e-21)
(0.00161313 -9.06925e-05 -7.93725e-21)
(0.00179711 -1.56098e-05 -1.4538e-20)
(0.00200132 7.78232e-05 3.01591e-20)
(0.00222648 0.000191549 -1.46735e-20)
(0.00247196 0.000327144 -4.75643e-22)
(0.00273681 0.000485798 -4.77604e-22)
(0.00302133 0.000668173 4.79516e-22)
(0.00332239 0.000874602 -1.53884e-20)
(0.00364125 0.00110457 1.03392e-21)
(0.00397602 0.00135734 -5.04237e-24)
(0.00432366 0.00163128 1.33376e-20)
(0.00468515 0.00192437 4.67306e-20)
(0.00505814 0.00223393 -3.0089e-20)
(0.00544073 0.00255686 -3.01518e-20)
(0.0058336 0.00288966 3.16526e-20)
(0.00623517 0.00322829 2.70946e-20)
(0.0066437 0.00356849 -2.71377e-20)
(0.00705993 0.00390592 -3.12804e-20)
(0.00748347 0.00423579 -2.593e-20)
(0.00791348 0.00455337 3.88991e-21)
(0.00835021 0.00485385 -3.27638e-21)
(0.00879349 0.00513234 0)
(0.00924362 0.00538421 -2.70321e-20)
(0.00970217 0.00560485 -2.28829e-20)
(0.0101671 0.00578882 -1.90854e-20)
(0.0106373 0.00593221 0)
(0.0111168 0.00603101 -2.15449e-20)
(0.0116003 0.00607845 2.28603e-21)
(0.0120847 0.00607202 -6.05738e-21)
(0.0125737 0.00600781 -1.93047e-21)
(0.0130543 0.00587826 -1.37431e-22)
(0.0135234 0.00568393 -7.29922e-21)
(0.0139744 0.00541942 1.37413e-21)
(0.0143949 0.0050848 -5.43526e-21)
(0.0147744 0.00468025 8.40849e-21)
(0.015097 0.00420826 6.03463e-21)
(0.0153466 0.00367488 2.48766e-21)
(0.0155122 0.00309019 0)
(0.0155673 0.00246406 -4.01697e-22)
(0.015516 0.0018171 7.59239e-24)
(0.0153268 0.00115969 1.49043e-23)
(0.0150029 0.000520776 -1.98788e-25)
(0.0145502 -8.21634e-05 -4.33882e-23)
(0.0139588 -0.000628812 1.4972e-22)
(0.0132624 -0.00110095 -3.65393e-22)
(0.0124498 -0.00148712 0)
(0.0115667 -0.00177835 8.52997e-22)
(0.0106169 -0.00197235 -2.60194e-22)
(0.00964283 -0.00207358 4.94422e-22)
(0.00865314 -0.00208715 7.74984e-23)
(0.00767928 -0.00202652 6.01409e-23)
(0.00673547 -0.00190318 -2.66088e-23)
(0.00586453 -0.00174205 0)
(0.00504825 -0.00154306 9.10872e-22)
(0.00448439 -0.00139013 6.75019e-23)
(0.00420532 -0.0012699 5.38123e-23)
(0.00408617 -0.00116617 4.98651e-23)
(0.00409151 -0.00108078 8.53577e-22)
(0.00423641 -0.00101718 3.91225e-23)
(0.00451084 -0.000963929 1.35067e-23)
(0.00491729 -0.000920999 -4.95533e-22)
(0.00538778 -0.000872475 4.28294e-22)
(0.00583781 -0.000813484 5.04094e-22)
(0.00625061 -0.000749829 6.36572e-23)
(0.00663129 -0.000684393 -4.97755e-22)
(0.00698022 -0.000617889 6.01164e-23)
(0.00729652 -0.000551392 4.6808e-22)
(0.00758055 -0.000486183 -4.65332e-22)
(0.00783341 -0.00042326 -5.43519e-23)
(0.00805647 -0.000363315 -5.32677e-23)
(0.00825125 -0.000306834 0)
(0.0084194 -0.000254141 3.71101e-22)
(0.00856267 -0.000205408 -3.69739e-22)
(0.00868285 -0.000160672 0)
(0.00878172 -0.000119876 -3.92547e-23)
(0.008861 -8.2906e-05 0)
(0.0089224 -4.96135e-05 3.42732e-23)
(0.00896758 -1.98217e-05 1.24176e-22)
(0.00899811 6.67102e-06 -1.23915e-22)
(0.00901552 3.00709e-05 -2.76283e-23)
(0.00902126 5.05728e-05 2.49845e-23)
(0.00901672 6.83512e-05 0)
(0.00900323 8.35428e-05 -7.91277e-23)
(0.00898206 9.62535e-05 7.90059e-23)
(0.00895447 0.000106587 1.65611e-23)
(0.0089217 0.000114619 2.73297e-23)
(0.00888495 0.000120431 -2.7287e-23)
(0.00884537 0.000124128 1.9681e-23)
(0.00880411 0.000125864 -1.96537e-23)
(0.00876222 0.000125858 -7.07964e-24)
(0.00872074 0.000124426 -4.49934e-24)
(0.00868055 0.00012202 3.08337e-24)
(0.00864203 0.000119135 3.39339e-24)
(0.00860137 0.000118383 0)
(0.0100413 0.000317383 0)
(0.0102866 0.000874327 0)
(0.010715 0.00124892 0)
(0.0111427 0.00144445 8.41431e-22)
(0.0114793 0.00150602 -8.35747e-22)
(0.0117072 0.00147286 0)
(0.0118552 0.00137476 1.62169e-21)
(0.0118992 0.00124559 -1.62408e-21)
(0.0118802 0.0011088 -1.60565e-21)
(0.011821 0.000975062 3.21262e-21)
(0.0117316 0.000852084 -1.60742e-21)
(0.0116275 0.000746337 0)
(0.0115165 0.000657525 0)
(0.0114035 0.000583866 3.18309e-21)
(0.0112919 0.000524489 -1.40723e-23)
(0.0111826 0.000477901 -6.3626e-21)
(0.0110759 0.000442319 3.18288e-21)
(0.0109713 0.000416309 0)
(0.0108681 0.00039887 0)
(0.0107652 0.000389084 3.15694e-21)
(0.0106613 0.000386232 -3.16299e-21)
(0.0105551 0.00038988 0)
(0.0104451 0.000399765 0)
(0.0103296 0.000415767 -6.28561e-21)
(0.010207 0.000437923 1.25781e-20)
(0.0100753 0.000466422 -6.29268e-21)
(0.00993256 0.000501612 -6.27838e-21)
(0.00977656 0.000544017 1.05701e-23)
(0.0096049 0.000594391 1.25773e-20)
(0.00941498 0.000653794 -6.29818e-21)
(0.00920411 0.000723751 -6.30068e-21)
(0.00896895 0.000806476 3.68962e-24)
(0.00871149 0.000905618 6.33004e-21)