/*--------------------------------*- C++ -*----------------------------------*\
| =========                 |                                                 |
| \\      /  F ield         | OpenFOAM: The Open Source CFD Toolbox           |
|  \\    /   O peration     | Version:  2506                                  |
|   \\  /    A nd           | Website:  www.openfoam.com                      |
|    \\/     M anipulation  |                                                 |
\*---------------------------------------------------------------------------*/
FoamFile
{
    version     2.0;
    format      ascii;
    arch        "LSB;label=32;scalar=64";
    class       surfaceScalarField;
    location    "2";
    object      phi;
}
// * * * * * * * * * * * * * * * * * * * * * * * * * * * * * * * * * * * * * //

dimensions      [0 3 -1 0 0 0 0];

oriented        oriented;

internalField   nonuniform List<scalar> 
7780
(
2.08107e-09
4.18594e-10
1.64721e-09
4.3398e-10
1.34948e-09
2.97597e-10
1.16529e-09
1.84105e-10
1.05516e-09
1.10121e-10
9.87026e-10
6.81159e-11
9.41744e-10
4.52675e-11
9.09234e-10
3.25039e-11
8.84251e-10
2.49802e-11
8.64027e-10
2.02224e-11
8.47061e-10
1.69659e-11
8.32479e-10
1.45818e-11
8.19714e-10
1.27647e-11
8.08357e-10
1.13565e-11
7.98091e-10
1.02655e-11
7.88654e-10
9.43545e-12
7.79822e-10
8.83147e-12
7.71389e-10
8.43061e-12
7.63165e-10
8.22328e-12
7.54964e-10
8.19925e-12
7.46609e-10
8.3527e-12
7.37924e-10
8.68316e-12
7.28728e-10
9.19481e-12
7.18828e-10
9.89763e-12
7.08017e-10
1.08088e-11
6.96059e-10
1.19563e-11
6.82669e-10
1.33881e-11
6.675e-10
1.51675e-11
6.501e-10
1.73987e-11
6.29847e-10
2.02511e-11
6.05825e-10
2.40185e-11
5.76552e-10
2.92676e-11
5.39634e-10
3.69079e-11
4.84987e-10
5.46317e-11
4.35619e-10
4.93507e-11
4.14258e-10
2.13526e-11
4.08762e-10
5.50239e-12
4.09884e-10
-1.09735e-12
4.18951e-10
-9.02619e-12
4.39881e-10
-2.08866e-11
4.85524e-10
-4.5613e-11
5.40594e-10
-5.50663e-11
5.921e-10
-5.15265e-11
6.41346e-10
-4.92763e-11
6.86076e-10
-4.47593e-11
7.27723e-10
-4.16712e-11
7.68121e-10
-4.042e-11
8.02058e-10
-3.39576e-11
8.34676e-10
-3.2628e-11
8.63652e-10
-2.89816e-11
8.87413e-10
-2.3764e-11
9.09739e-10
-2.23189e-11
9.23015e-10
-1.32566e-11
9.35001e-10
-1.19555e-11
9.36343e-10
-1.30533e-12
9.33045e-10
3.33454e-12
9.21129e-10
1.19474e-11
8.99099e-10
2.20555e-11
8.76118e-10
2.3006e-11
8.3786e-10
3.82915e-11
8.01457e-10
3.6453e-11
7.59688e-10
4.1844e-11
7.16626e-10
4.31617e-11
6.76387e-10
4.03498e-11
6.3443e-10
4.20845e-11
5.9866e-10
3.58915e-11
5.62676e-10
3.60951e-11
5.32504e-10
3.02754e-11
5.03856e-10
2.87438e-11
4.78651e-10
2.52852e-11
4.56764e-10
2.19541e-11
4.35569e-10
2.12533e-11
4.17594e-10
1.80264e-11
4.0068e-10
1.69661e-11
3.84755e-10
1.59838e-11
3.70566e-10
1.42585e-11
3.57355e-10
1.32963e-11
3.44933e-10
1.25261e-11
3.33871e-10
1.11828e-11
3.23967e-10
1.00407e-11
3.15085e-10
9.03006e-12
3.07348e-10
7.89054e-12
3.00646e-10
6.85303e-12
2.9487e-10
5.92234e-12
2.90037e-10
4.97187e-12
2.85713e-10
4.45298e-12
2.81719e-10
4.1143e-12
2.78353e-10
3.47598e-12
2.7496e-10
3.49181e-12
2.71352e-10
3.69505e-12
2.68102e-10
3.32246e-12
2.64508e-10
3.65385e-12
2.60593e-10
3.96329e-12
2.56999e-10
3.63242e-12
2.52758e-10
4.27105e-12
2.49198e-10
3.58261e-12
2.4515e-10
4.06447e-12
2.41965e-10
3.19791e-12
2.3852e-10
3.45425e-12
2.36414e-10
2.11204e-12
2.34359e-10
2.06072e-12
2.33586e-10
7.76758e-13
2.33611e-10
-2.1779e-14
2.34465e-10
-8.51872e-13
2.36994e-10
-2.52621e-12
2.40358e-10
-3.3596e-12
2.45679e-10
-5.31644e-12
2.52239e-10
-6.55279e-12
2.60652e-10
-8.40241e-12
2.70768e-10
-1.01024e-11
2.82798e-10
-1.20123e-11
2.96604e-10
-1.37824e-11
3.12642e-10
-1.60066e-11
3.29933e-10
-1.72513e-11
3.49879e-10
-1.98964e-11
3.70845e-10
-2.09068e-11
3.93159e-10
-2.22442e-11
4.16759e-10
-2.35185e-11
4.40646e-10
-2.37975e-11
4.64915e-10
-2.4173e-11
4.89515e-10
-2.45001e-11
5.13319e-10
-2.37012e-11
5.35927e-10
-2.25056e-11
5.57768e-10
-2.17357e-11
5.78068e-10
-2.01914e-11
5.96911e-10
-1.87281e-11
6.143e-10
-1.72673e-11
6.30066e-10
-1.5636e-11
6.44775e-10
-1.4573e-11
6.59232e-10
-1.43234e-11
6.71853e-10
-1.24982e-11
6.84441e-10
-1.24923e-11
6.98467e-10
-1.3973e-11
7.1098e-10
-1.25198e-11
7.24617e-10
-1.3713e-11
7.41471e-10
-1.70041e-11
7.55338e-10
-1.40853e-11
7.73268e-10
-1.82021e-11
7.8992e-10
-1.69498e-11
8.07431e-10
-1.78023e-11
8.2415e-10
-1.69724e-11
8.38805e-10
-1.48405e-11
8.49866e-10
-1.11619e-11
8.58088e-10
-8.2362e-12
8.56457e-10
1.68872e-12
8.54391e-10
2.17557e-12
8.36254e-10
1.82725e-11
8.156e-10
2.07911e-11
7.86722e-10
2.90083e-11
7.50757e-10
3.60827e-11
7.15074e-10
3.57923e-11
6.7093e-10
4.42529e-11
6.3137e-10
3.96676e-11
5.86556e-10
4.49185e-11
5.46564e-10
4.00752e-11
5.02435e-10
4.41873e-11
4.61227e-10
4.12344e-11
4.17088e-10
4.4123e-11
3.73702e-10
4.33416e-11
3.30457e-10
4.32097e-11
3.27853e-10
2.58167e-12
3.25859e-10
1.99826e-12
3.24984e-10
8.9552e-13
3.26541e-10
-1.53776e-12
3.38072e-10
-1.15292e-11
3.5817e-10
-2.01121e-11
3.95941e-10
-3.7799e-11
4.35583e-10
-3.96691e-11
4.72691e-10
-3.71278e-11
5.09424e-10
-3.6747e-11
5.45448e-10
-3.60311e-11
5.79684e-10
-3.42384e-11
6.10986e-10
-3.13005e-11
6.38456e-10
-2.74676e-11
6.61559e-10
-2.30989e-11
6.8012e-10
-1.85589e-11
6.94272e-10
-1.41491e-11
7.04408e-10
-1.01346e-11
7.11094e-10
-6.68622e-12
7.15013e-10
-3.91992e-12
7.16719e-10
-1.70708e-12
7.16786e-10
-7.01936e-14
7.15876e-10
9.07262e-13
7.14528e-10
1.34513e-12
7.13191e-10
1.33332e-12
7.12216e-10
9.71907e-13
7.11848e-10
3.6498e-13
7.12237e-10
-3.92028e-13
7.13456e-10
-1.2215e-12
7.15348e-10
-1.89419e-12
7.17865e-10
-2.51883e-12
7.20853e-10
-2.98905e-12
7.24119e-10
-3.2672e-12
7.27455e-10
-3.33703e-12
7.30651e-10
-3.19694e-12
7.33492e-10
-2.84101e-12
7.35738e-10
-2.24702e-12
7.37077e-10
-1.34021e-12
7.36906e-10
1.69143e-13
3.32778e-12
2.63514e-09
2.83524e-10
2.58942e-09
4.79803e-10
2.44512e-09
4.41956e-10
2.28129e-09
3.47981e-10
2.135e-09
2.56406e-10
2.0182e-09
1.84898e-10
1.92707e-09
1.36382e-10
1.8544e-09
1.0517e-10
1.79483e-09
8.45565e-11
1.74486e-09
7.01928e-11
1.70217e-09
5.96547e-11
1.66517e-09
5.15818e-11
1.63271e-09
4.52234e-11
1.60391e-09
4.0159e-11
1.57804e-09
3.61315e-11
1.5545e-09
3.29746e-11
1.53276e-09
3.0579e-11
1.51232e-09
2.88683e-11
1.49275e-09
2.77958e-11
1.47362e-09
2.73242e-11
1.45455e-09
2.74277e-11
1.43514e-09
2.80928e-11
1.41501e-09
2.93184e-11
1.39379e-09
3.11179e-11
1.37108e-09
3.35229e-11
1.34644e-09
3.659e-11
1.31942e-09
4.04145e-11
1.28945e-09
4.51315e-11
1.2559e-09
5.09499e-11
1.21797e-09
5.8189e-11
1.17463e-09
6.73504e-11
1.12463e-09
7.92634e-11
1.06611e-09
9.54288e-11
9.94191e-10
1.26538e-10
9.29387e-10
1.14145e-10
8.96288e-10
5.44419e-11
8.88274e-10
1.35079e-11
8.99292e-10
-1.2114e-11
9.29848e-10
-3.95605e-11
9.84181e-10
-7.5171e-11
1.07077e-09
-1.32137e-10
1.1714e-09
-1.55633e-10
1.27248e-09
-1.52586e-10
1.37097e-09
-1.47776e-10
1.46286e-09
-1.36692e-10
1.54888e-09
-1.27738e-10
1.63023e-09
-1.21835e-10
1.7021e-09
-1.05892e-10
1.76912e-09
-9.97193e-11
1.82863e-09
-8.8545e-11
1.87949e-09
-7.46826e-11
1.92362e-09
-6.65043e-11
1.95566e-09
-4.53258e-11
1.97968e-09
-3.6e-11
1.9888e-09
-1.04427e-11
1.98612e-09
6.02191e-12
1.96965e-09
2.843e-11
1.93682e-09
5.48972e-11
1.89405e-09
6.57912e-11
1.83176e-09
1.00616e-10
1.76323e-09
1.05015e-10
1.68481e-09
1.20328e-10
1.60105e-09
1.26982e-10
1.51646e-09
1.25002e-10
1.42936e-09
1.29233e-10
1.34714e-09
1.18142e-10
1.26588e-09
1.17348e-10
1.19099e-09
1.05136e-10
1.11969e-09
9.99893e-11
1.05387e-09
9.10275e-11
9.93086e-10
8.26531e-11
9.35171e-10
7.90874e-11
8.81884e-10
7.12432e-11
8.3154e-10
6.72572e-11
7.83709e-10
6.37824e-11
7.38884e-10
5.90747e-11
6.96457e-10
5.57354e-11
6.56234e-10
5.27795e-11
6.18613e-10
4.88477e-11
5.8359e-10
4.51174e-11
5.51079e-10
4.16001e-11
5.21182e-10
3.78443e-11
4.93795e-10
3.4291e-11
4.68773e-10
3.09886e-11
4.45965e-10
2.78164e-11
4.24909e-10
2.55406e-11
4.05241e-10
2.38092e-11
3.86815e-10
2.19259e-11
3.69079e-10
2.125e-11
3.51785e-10
2.10069e-11
3.34877e-10
2.02445e-11
3.18126e-10
2.04164e-11
3.01547e-10
2.05514e-11
2.8534e-10
1.9846e-11
2.69592e-10
2.00231e-11
2.54683e-10
1.84957e-11
2.40945e-10
1.78062e-11
2.28807e-10
1.53385e-11
2.18801e-10
1.34637e-11
2.11325e-10
9.59086e-12
2.06981e-10
6.40893e-12
2.06301e-10
1.46019e-12
2.09351e-10
-3.06707e-12
2.16801e-10
-8.29809e-12
2.29019e-10
-1.4741e-11
2.46072e-10
-2.04088e-11
2.68382e-10
-2.76228e-11
2.95808e-10
-3.3975e-11
3.28493e-10
-4.10837e-11
3.663e-10
-4.79034e-11
4.09093e-10
-5.47999e-11
4.56544e-10
-6.12268e-11
5.08514e-10
-6.79696e-11
5.63829e-10
-7.25561e-11
6.22953e-10
-7.90088e-11
6.83979e-10
-8.19188e-11
7.46518e-10
-8.47676e-11
8.10017e-10
-8.69995e-11
8.72861e-10
-8.66237e-11
9.34635e-10
-8.59242e-11
9.94767e-10
-8.46051e-11
1.05207e-09
-8.09787e-11
1.1063e-09
-7.67097e-11
1.15748e-09
-7.28939e-11
1.20501e-09
-6.77127e-11
1.24906e-09
-6.27701e-11
1.2898e-09
-5.80084e-11
1.32746e-09
-5.32964e-11
1.36286e-09
-4.99776e-11
1.39679e-09
-4.8262e-11
1.42861e-09
-4.431e-11
1.46008e-09
-4.3956e-11
1.49262e-09
-4.6497e-11
1.5241e-09
-4.39856e-11
1.55728e-09
-4.68965e-11
1.59291e-09
-5.26683e-11
1.62699e-09
-4.82282e-11
1.66396e-09
-5.52857e-11
1.69986e-09
-5.29947e-11
1.73517e-09
-5.32843e-11
1.76817e-09
-5.01491e-11
1.79633e-09
-4.31681e-11
1.81799e-09
-3.29452e-11
1.83159e-09
-2.1911e-11
1.83142e-09
1.85112e-12
1.82252e-09
1.11205e-11
1.79448e-09
4.63954e-11
1.75539e-09
5.99822e-11
1.70218e-09
8.23214e-11
1.63528e-09
1.03083e-10
1.5616e-09
1.09557e-10
1.4757e-09
1.30217e-10
1.38885e-09
1.26574e-10
1.29494e-09
1.38861e-10
1.20309e-09
1.31939e-10
1.10602e-09
1.41245e-10
1.01061e-09
1.36617e-10
9.13727e-10
1.40965e-10
8.2113e-10
1.359e-10
7.34731e-10
1.29598e-10
6.93606e-10
4.37216e-11
6.65898e-10
2.97273e-11
6.48487e-10
1.83245e-11
6.43365e-10
3.59571e-12
6.56951e-10
-2.51157e-11
6.91576e-10
-5.47451e-11
7.5176e-10
-9.8e-11
8.23466e-10
-1.11393e-10
8.99016e-10
-1.12696e-10
9.76318e-10
-1.14064e-10
1.05256e-09
-1.12282e-10
1.1248e-09
-1.06492e-10
1.19052e-09
-9.70272e-11
1.24789e-09
-8.4833e-11
1.29584e-09
-7.10492e-11
1.33407e-09
-5.67813e-11
1.36289e-09
-4.29707e-11
1.38315e-09
-3.03829e-11
1.39596e-09
-1.94987e-11
1.40265e-09
-1.06033e-11
1.40458e-09
-3.63847e-12
1.40342e-09
1.09585e-12
1.40039e-09
3.94001e-12
1.39659e-09
5.14971e-12
1.39295e-09
4.97171e-12
1.39018e-09
3.74564e-12
1.38867e-09
1.87162e-12
1.38874e-09
-4.64786e-13
1.39036e-09
-2.84228e-12
1.3934e-09
-4.92992e-12
1.39746e-09
-6.58452e-12
1.40213e-09
-7.6594e-12
1.40695e-09
-8.08204e-12
1.41145e-09
-7.83791e-12
1.41521e-09
-6.96475e-12
1.41789e-09
-5.51498e-12
1.41914e-09
-3.50273e-12
1.41869e-09
-8.93796e-13
1.41629e-09
2.57433e-12
7.69962e-12
2.6117e-09
1.7196e-10
2.71283e-09
3.78678e-10
2.73105e-09
4.2386e-10
2.68668e-09
3.92499e-10
2.61102e-09
3.32119e-10
2.52405e-09
2.71867e-10
2.43971e-09
2.20697e-10
2.36335e-09
1.81518e-10
2.29564e-09
1.52269e-10
2.23588e-09
1.29958e-10
2.18306e-09
1.12478e-10
2.1362e-09
9.8439e-11
2.09442e-09
8.70019e-11
2.05692e-09
7.76613e-11
2.02297e-09
7.00832e-11
1.99191e-09
6.40365e-11
1.96313e-09
5.93594e-11
1.93606e-09
5.5934e-11
1.91018e-09
5.3676e-11
1.88498e-09
5.25211e-11
1.85999e-09
5.24227e-11
1.83473e-09
5.33518e-11
1.80875e-09
5.52982e-11
1.78159e-09
5.82734e-11
1.7528e-09
6.23161e-11
1.72189e-09
6.75007e-11
1.68836e-09
7.3948e-11
1.65165e-09
8.18389e-11
1.61116e-09
9.14389e-11
1.56622e-09
1.03134e-10
1.51608e-09
1.17484e-10
1.46002e-09
1.35325e-10
1.39741e-09
1.58027e-10
1.32661e-09
1.97331e-10
1.26367e-09
1.77077e-10
1.23017e-09
8.79338e-11
1.22756e-09
1.60975e-11
1.25297e-09
-3.75476e-11
1.30573e-09
-9.23281e-11
1.38581e-09
-1.55232e-10
1.49363e-09
-2.39915e-10
1.61347e-09
-2.75402e-10
1.73528e-09
-2.74334e-10
1.85364e-09
-2.66091e-10
1.9644e-09
-2.47432e-10
2.0675e-09
-2.3083e-10
2.16335e-09
-2.17698e-10
2.2492e-09
-1.9175e-10
2.32767e-09
-1.78204e-10
2.3971e-09
-1.57993e-10
2.45653e-09
-1.34127e-10
2.50668e-09
-1.16663e-10
2.54479e-09
-8.34518e-11
2.57208e-09
-6.33044e-11
2.5853e-09
-2.3674e-11
2.58518e-09
6.13886e-12
2.57027e-09
4.33425e-11
2.53909e-09
8.60848e-11
2.49488e-09
1.10011e-10
2.43261e-09
1.62909e-10
2.35938e-09
1.78272e-10
2.2741e-09
2.05641e-10
2.18028e-09
2.20838e-10
2.08113e-09
2.24197e-10
1.97755e-09
2.32831e-10
1.87449e-09
2.21219e-10
1.77122e-09
2.20619e-10
1.67158e-09
2.04753e-10
1.57494e-09
1.96577e-10
1.48257e-09
1.83337e-10
1.39492e-09
1.70243e-10
1.31062e-09
1.63329e-10
1.23077e-09
1.51046e-10
1.1544e-09
1.43594e-10
1.08111e-09
1.37061e-10
1.01114e-09
1.29051e-10
9.44141e-10
1.22765e-10
8.8004e-10
1.16922e-10
8.19099e-10
1.09839e-10
7.61508e-10
1.02763e-10
7.0732e-10
9.58397e-11
6.56736e-10
8.84739e-11
6.09757e-10
8.13044e-11
5.66321e-10
7.44478e-11
5.26292e-10
6.78567e-11
4.89298e-10
6.25387e-11
4.54911e-10
5.81966e-11
4.22803e-10
5.4031e-11
3.92451e-10
5.15989e-11
3.63508e-10
4.99449e-11
3.35743e-10
4.80043e-11
3.09005e-10
4.71499e-11
2.83253e-10
4.62985e-11
2.58723e-10
4.43715e-11
2.35597e-10
4.31457e-11
2.14399e-10
3.96924e-11
1.95548e-10
3.66554e-11
1.79781e-10
3.11051e-11
1.67636e-10
2.56097e-11
1.60045e-10
1.71839e-11
1.57569e-10
8.8877e-12
1.60999e-10
-1.96696e-12
1.71182e-10
-1.32467e-11
1.88526e-10
-2.56393e-11
2.13602e-10
-3.98146e-11
2.46448e-10
-5.32528e-11
2.87548e-10
-6.87214e-11
3.36573e-10
-8.29992e-11
3.93429e-10
-9.79404e-11
4.57724e-10
-1.12199e-10
5.28868e-10
-1.25945e-10
6.06072e-10
-1.38432e-10
6.88543e-10
-1.50442e-10
7.74857e-10
-1.58872e-10
8.64571e-10
-1.68724e-10
9.55722e-10
-1.7307e-10
1.04739e-09
-1.76434e-10
1.1386e-09
-1.78213e-10
1.22769e-09
-1.75715e-10
1.31387e-09
-1.72092e-10
1.3965e-09
-1.67222e-10
1.47451e-09
-1.58979e-10
1.54766e-09
-1.49833e-10
1.61589e-09
-1.411e-10
1.67895e-09
-1.30744e-10
1.73712e-09
-1.20922e-10
1.79076e-09
-1.11635e-10
1.84037e-09
-1.02896e-10
1.88677e-09
-9.6373e-11
1.93069e-09
-9.2164e-11
1.97228e-09
-8.58666e-11
2.01276e-09
-8.43797e-11
2.05329e-09
-8.69435e-11
2.09274e-09
-8.33265e-11
2.13309e-09
-8.71191e-11
2.17408e-09
-9.35387e-11
2.21402e-09
-8.80568e-11
2.25447e-09
-9.5652e-11
2.29329e-09
-9.17789e-11
2.32966e-09
-8.96678e-11
2.36234e-09
-8.28898e-11
2.38863e-09
-6.95642e-11
2.40729e-09
-5.17112e-11
2.4158e-09
-3.05315e-11
2.41197e-09
5.603e-12
2.39555e-09
2.75003e-11
2.36177e-09
8.01658e-11
2.31391e-09
1.07869e-10
2.2509e-09
1.45371e-10
2.17239e-09
1.8165e-10
2.08311e-09
1.98889e-10
1.98011e-09
2.33262e-10
1.87097e-09
2.35736e-10
1.75315e-09
2.56697e-10
1.63278e-09
2.52298e-10
1.50659e-09
2.67415e-10
1.37981e-09
2.63358e-10
1.2523e-09
2.68435e-10
1.13152e-09
2.56651e-10
1.01821e-09
2.42903e-10
9.41475e-10
1.20485e-10
8.87031e-10
8.4199e-11
8.52698e-10
5.26763e-11
8.40583e-10
1.572e-11
8.5704e-10
-4.15735e-11
9.02865e-10
-1.00581e-10
9.78805e-10
-1.73959e-10
1.07049e-09
-2.03104e-10
1.16829e-09
-2.10517e-10
1.26764e-09
-2.13433e-10
1.36441e-09
-2.09075e-10
1.45502e-09
-1.9712e-10
1.53664e-09
-1.78655e-10
1.60732e-09
-1.55512e-10
1.66601e-09
-1.29736e-10
1.7125e-09
-1.0327e-10
1.74732e-09
-7.77817e-11
1.77153e-09
-5.4584e-11
1.78661e-09
-3.45733e-11
1.79428e-09
-1.82649e-11
1.79648e-09
-5.83598e-12
1.79487e-09
2.71604e-12
1.79108e-09
7.72898e-12
1.78657e-09
9.66598e-12
1.78246e-09
9.08121e-12
1.7796e-09
6.61369e-12
1.77854e-09
2.92801e-12
1.77942e-09
-1.33921e-12
1.78216e-09
-5.58202e-12
1.78649e-09
-9.26074e-12
1.79189e-09
-1.19928e-11
1.79778e-09
-1.35535e-11
1.80354e-09
-1.38349e-11
1.80855e-09
-1.28527e-11
1.81231e-09
-1.07268e-11
1.81442e-09
-7.6312e-12
1.81466e-09
-3.73524e-12
1.81292e-09
8.42808e-13
1.80939e-09
6.10074e-12
1.25633e-11
2.56396e-09
1.07931e-10
2.67025e-09
2.72465e-10
2.74684e-09
3.47314e-10
2.77983e-09
3.59611e-10
2.77355e-09
3.38428e-10
2.74365e-09
3.01786e-10
2.69991e-09
2.64418e-10
2.65036e-09
2.3104e-10
2.60045e-09
2.02165e-10
2.55255e-09
1.77865e-10
2.50759e-09
1.57438e-10
2.46591e-09
1.40125e-10
2.42744e-09
1.25465e-10
2.39195e-09
1.13156e-10
2.35907e-09
1.02969e-10
2.32838e-09
9.47228e-11
2.29946e-09
8.82783e-11
2.27187e-09
8.35259e-11
2.24516e-09
8.03801e-11
2.21891e-09
7.87724e-11
2.19268e-09
7.86532e-11
2.16604e-09
7.99922e-11
2.13855e-09
8.27805e-11
2.10979e-09
8.70345e-11
2.07931e-09
9.28019e-11
2.04664e-09
1.0017e-10
2.01131e-09
1.09276e-10
1.97283e-09
1.20321e-10
1.93067e-09
1.33589e-10
1.88434e-09
1.49471e-10
1.83332e-09
1.685e-10
1.77724e-09
1.91405e-10
1.716e-09
2.19256e-10
1.64874e-09
2.64586e-10
1.58939e-09
2.36425e-10
1.55755e-09
1.19757e-10
1.55764e-09
1.59834e-11
1.58901e-09
-6.89493e-11
1.65019e-09
-1.53546e-10
1.73798e-09
-2.43046e-10
1.84857e-09
-3.50504e-10
1.96834e-09
-3.95135e-10
2.09028e-09
-3.96215e-10
2.20828e-09
-3.84024e-10
2.31843e-09
-3.57538e-10
2.42043e-09
-3.32791e-10
2.51451e-09
-3.11746e-10
2.59928e-09
-2.765e-10
2.67581e-09
-2.54717e-10
2.74336e-09
-2.25513e-10
2.80159e-09
-1.9234e-10
2.85018e-09
-1.6524e-10
2.88811e-09
-1.21381e-10
2.91531e-09
-9.05125e-11
2.9305e-09
-3.88714e-11
2.93338e-09
3.25529e-12
2.92321e-09
5.35164e-11
2.89886e-09
1.10438e-10
2.86171e-09
1.47174e-10
2.8092e-09
2.15441e-10
2.74443e-09
2.43056e-10
2.66701e-09
2.83062e-10
2.5792e-09
3.08657e-10
2.48295e-09
3.20435e-10
2.3798e-09
3.35959e-10
2.27301e-09
3.27993e-10
2.16326e-09
3.30334e-10
2.05371e-09
3.14263e-10
1.94492e-09
3.05323e-10
1.83811e-09
2.90098e-10
1.73445e-09
2.7386e-10
1.63335e-09
2.64392e-10
1.53592e-09
2.48458e-10
1.44171e-09
2.3779e-10
1.35059e-09
2.28191e-10
1.26284e-09
2.1682e-10
1.17828e-09
2.07365e-10
1.09698e-09
1.98269e-10
1.01921e-09
1.87655e-10
9.45315e-10
1.76712e-10
8.75446e-10
1.65752e-10
8.09958e-10
1.53993e-10
7.49021e-10
1.42259e-10
6.92726e-10
1.30744e-10
6.41127e-10
1.19446e-10
5.93962e-10
1.09689e-10
5.50867e-10
1.01274e-10
5.11663e-10
9.32165e-11
4.75673e-10
8.75714e-11
4.42486e-10
8.31165e-11
4.11933e-10
7.85428e-11
3.83615e-10
7.54553e-11
3.5734e-10
7.25631e-11
3.33572e-10
6.81314e-11
3.11941e-10
6.47698e-11
2.93548e-10
5.80806e-11
2.7811e-10
5.20898e-11
2.67039e-10
4.21747e-11
2.60162e-10
3.2486e-11
2.59347e-10
1.79991e-11
2.64299e-10
3.9362e-12
2.76696e-10
-1.43622e-11
2.96814e-10
-3.33623e-11
3.25271e-10
-5.40954e-11
3.63072e-10
-7.76145e-11
4.09661e-10
-9.98411e-11
4.66023e-10
-1.25084e-10
5.31251e-10
-1.48229e-10
6.05224e-10
-1.71918e-10
6.87204e-10
-1.94184e-10
7.76162e-10
-2.14909e-10
8.70992e-10
-2.3327e-10
9.70507e-10
-2.49967e-10
1.07286e-09
-2.61234e-10
1.1774e-09
-2.73279e-10
1.28188e-09
-2.7756e-10
1.38525e-09
-2.7982e-10
1.4864e-09
-2.79377e-10
1.5838e-09
-2.73137e-10
1.67674e-09
-2.65046e-10
1.7647e-09
-2.55188e-10
1.8469e-09
-2.41179e-10
1.9233e-09
-2.26237e-10
1.99401e-09
-2.118e-10
2.05908e-09
-1.95795e-10
2.11897e-09
-1.80795e-10
2.17418e-09
-1.66837e-10
2.22536e-09
-1.54065e-10
2.27329e-09
-1.44291e-10
2.31862e-09
-1.37478e-10
2.3618e-09
-1.29025e-10
2.40358e-09
-1.26109e-10
2.44498e-09
-1.28253e-10
2.48519e-09
-1.23416e-10
2.52556e-09
-1.27323e-10
2.56533e-09
-1.33122e-10
2.60403e-09
-1.26551e-10
2.64156e-09
-1.32985e-10
2.67695e-09
-1.27012e-10
2.70879e-09
-1.21387e-10
2.73636e-09
-1.10405e-10
2.75723e-09
-9.04363e-11
2.77068e-09
-6.52132e-11
2.77431e-09
-3.42541e-11
2.76713e-09
1.26939e-11
2.7476e-09
4.69439e-11
2.71371e-09
1.13985e-10
2.66562e-09
1.5593e-10
2.60327e-09
2.07722e-10
2.52545e-09
2.59484e-10
2.43516e-09
2.89204e-10
2.33041e-09
3.3803e-10
2.21606e-09
3.5009e-10
2.09089e-09
3.81853e-10
1.95902e-09
3.8414e-10
1.82081e-09
4.0558e-10
1.67918e-09
4.04931e-10
1.53661e-09
4.10962e-10
1.40281e-09
3.90433e-10
1.27643e-09
3.69286e-10
1.18317e-09
2.13779e-10
1.11712e-09
1.50279e-10
1.07871e-09
9.11071e-11
1.07023e-09
2.42103e-11
1.09776e-09
-6.9099e-11
1.15938e-09
-1.62218e-10
1.25286e-09
-2.67458e-10
1.36072e-09
-3.10989e-10
1.47216e-09
-3.21992e-10
1.58228e-09
-3.2358e-10
1.68699e-09
-3.13813e-10
1.78307e-09
-2.93224e-10
1.86818e-09
-2.63771e-10
1.94084e-09
-2.28178e-10
2.00044e-09
-1.89338e-10
2.04713e-09
-1.49955e-10
2.0817e-09
-1.12346e-10
2.10545e-09
-7.83228e-11
2.12003e-09
-4.91432e-11
2.12731e-09
-2.5534e-11
2.12923e-09
-7.75053e-12
2.12762e-09
4.3334e-12
2.12418e-09
1.11815e-11
2.12035e-09
1.35022e-11
2.11727e-09
1.21589e-11
2.11577e-09
8.11824e-12
2.11632e-09
2.38588e-12
2.11903e-09
-4.05122e-12
2.12375e-09
-1.03046e-11
2.13009e-09
-1.55988e-11
2.13745e-09
-1.93562e-11
2.14516e-09
-2.12633e-11
2.15251e-09
-2.11869e-11
2.15884e-09
-1.91851e-11
2.1636e-09
-1.54904e-11
2.16641e-09
-1.04438e-11
2.16708e-09
-4.41174e-12
2.16571e-09
2.21182e-12
2.16265e-09
9.16367e-12
1.69382e-11
2.53705e-09
7.079e-11
2.6175e-09
1.9198e-10
2.69984e-09
2.64932e-10
2.76363e-09
2.95862e-10
2.80341e-09
2.9864e-10
2.81989e-09
2.8535e-10
2.819e-09
2.65323e-10
2.80723e-09
2.42776e-10
2.78867e-09
2.20697e-10
2.76623e-09
2.00307e-10
2.74198e-09
1.8169e-10
2.7172e-09
1.64915e-10
2.69256e-09
1.50109e-10
2.6684e-09
1.37309e-10
2.64487e-09
1.26508e-10
2.62191e-09
1.17674e-10
2.59943e-09
1.10763e-10
2.57722e-09
1.0573e-10
2.55507e-09
1.02535e-10
2.5327e-09
1.01137e-10
2.50984e-09
1.01512e-10
2.48618e-09
1.03654e-10
2.46138e-09
1.07574e-10
2.43511e-09
1.13311e-10
2.40697e-09
1.20932e-10
2.3766e-09
1.30544e-10
2.34357e-09
1.42303e-10
2.30747e-09
1.56423e-10
2.26787e-09
1.73188e-10
2.22437e-09
1.92969e-10
2.17663e-09
2.16242e-10
2.12442e-09
2.43609e-10
2.06777e-09
2.75903e-10
2.00589e-09
3.26463e-10
1.95079e-09
2.91522e-10
1.91955e-09
1.50984e-10
1.91753e-09
1.798e-11
1.94568e-09
-9.71354e-11
2.00231e-09
-2.10222e-10
2.0827e-09
-3.23487e-10
2.18161e-09
-4.49454e-10
2.28784e-09
-5.01377e-10
2.39682e-09
-5.05162e-10
2.50207e-09
-4.89229e-10
2.59994e-09
-4.55363e-10
2.6901e-09
-4.22915e-10
2.77282e-09
-3.9443e-10
2.8476e-09
-3.51244e-10
2.91465e-09
-3.21741e-10
2.97335e-09
-2.84188e-10
3.02452e-09
-2.43474e-10
3.06707e-09
-2.07764e-10
3.10107e-09
-1.55374e-10
3.12585e-09
-1.15287e-10
3.14134e-09
-5.43627e-11
3.14674e-09
-2.15337e-12
3.14195e-09
5.83125e-11
3.12602e-09
1.26376e-10
3.09919e-09
1.74024e-10
3.06034e-09
2.54315e-10
3.01008e-09
2.93327e-10
2.94806e-09
3.45085e-10
2.87542e-09
3.8128e-10
2.79283e-09
4.02988e-10
2.70175e-09
4.26994e-10
2.6039e-09
4.25796e-10
2.50072e-09
4.33458e-10
2.39424e-09
4.207e-10
2.28588e-09
4.1364e-10
2.17684e-09
3.99096e-10
2.06876e-09
3.81919e-10
1.96165e-09
3.71481e-10
1.85693e-09
3.53175e-10
1.75462e-09
3.40103e-10
1.65493e-09
3.27894e-10
1.55839e-09
3.1339e-10
1.46494e-09
3.00849e-10
1.37481e-09
2.88437e-10
1.28833e-09
2.74176e-10
1.20592e-09
2.59154e-10
1.12778e-09
2.43916e-10
1.05438e-09
2.27408e-10
9.85993e-10
2.10639e-10
9.22862e-10
1.93856e-10
8.6526e-10
1.77019e-10
8.13044e-10
1.61873e-10
7.65973e-10
1.48312e-10
7.24179e-10
1.34981e-10
6.8685e-10
1.24874e-10
6.5359e-10
1.16353e-10
6.2434e-10
1.07773e-10
5.98465e-10
1.01313e-10
5.75544e-10
9.54701e-11
5.563e-10
8.73633e-11
5.3971e-10
8.13501e-11
5.27453e-10
7.03295e-11
5.18491e-10
6.10464e-11
5.14857e-10
4.58045e-11
5.15649e-10
3.16926e-11
5.23574e-10
1.00724e-11
5.37499e-10
-9.98846e-12
5.59797e-10
-3.6661e-11
5.90217e-10
-6.37819e-11
6.2951e-10
-9.33879e-11
6.78801e-10
-1.26907e-10
7.37026e-10
-1.58067e-10
8.05299e-10
-1.9336e-10
8.82201e-10
-2.25135e-10
9.67361e-10
-2.57084e-10
1.05974e-09
-2.86576e-10
1.15788e-09
-3.13058e-10
1.26044e-09
-3.35841e-10
1.36592e-09
-3.55463e-10
1.47228e-09
-3.67609e-10
1.57882e-09
-3.79838e-10
1.68321e-09
-3.81976e-10
1.7845e-09
-3.8113e-10
1.88171e-09
-3.7661e-10
1.97359e-09
-3.65052e-10
2.05972e-09
-3.51212e-10
2.13992e-09
-3.35413e-10
2.21376e-09
-3.15053e-10
2.28157e-09
-2.94071e-10
2.34367e-09
-2.73915e-10
2.40043e-09
-2.52559e-10
2.45249e-09
-2.32863e-10
2.5005e-09
-2.14842e-10
2.54515e-09
-1.98724e-10
2.58718e-09
-1.86322e-10
2.62712e-09
-1.77424e-10
2.66547e-09
-1.67381e-10
2.7026e-09
-1.63224e-10
2.73951e-09
-1.65118e-10
2.77527e-09
-1.59085e-10
2.8108e-09
-1.62734e-10
2.84511e-09
-1.67265e-10
2.87843e-09
-1.59669e-10
2.9097e-09
-1.64032e-10
2.93876e-09
-1.55863e-10
2.96396e-09
-1.46413e-10
2.98511e-09
-1.31426e-10
3.00016e-09
-1.05413e-10
3.00893e-09
-7.39691e-11
3.00923e-09
-3.46005e-11
3.001e-09
2.08513e-11
2.98211e-09
6.57556e-11
2.95225e-09
1.43764e-10
2.90979e-09
1.98338e-10
2.85512e-09
2.62378e-10
2.78631e-09
3.28295e-10
2.705e-09
3.70521e-10
2.6094e-09
4.33644e-10
2.50235e-09
4.5713e-10
2.3828e-09
5.0138e-10
2.25391e-09
5.1298e-10
2.11684e-09
5.42595e-10
1.97369e-09
5.4802e-10
1.82901e-09
5.55594e-10
1.69498e-09
5.24456e-10
1.56929e-09
4.94993e-10
1.47749e-09
3.05611e-10
1.41633e-09
2.11462e-10
1.38776e-09
1.19701e-10
1.39366e-09
1.83313e-11
1.43922e-09
-1.14658e-10
1.51909e-09
-2.42096e-10
1.62834e-09
-3.7673e-10
1.74696e-09
-4.29648e-10
1.86426e-09
-4.39328e-10
1.9761e-09
-4.35459e-10
2.07924e-09
-4.16995e-10
2.17139e-09
-3.85407e-10
2.2511e-09
-3.43499e-10
2.31769e-09
-2.94776e-10
2.37118e-09
-2.42832e-10
2.4122e-09
-1.90972e-10
2.44187e-09
-1.42e-10
2.46165e-09
-9.80959e-11
2.47328e-09
-6.07583e-11
2.47859e-09
-3.08289e-11
2.47942e-09
-8.56525e-12
2.4775e-09
6.26457e-12
2.47439e-09
1.43012e-11
2.4714e-09
1.65016e-11
2.46954e-09
1.40269e-11
2.4695e-09
8.16293e-12
2.47164e-09
2.42339e-13
2.47604e-09
-8.44651e-12
2.48247e-09
-1.67322e-11
2.49049e-09
-2.36218e-11
2.49951e-09
-2.83801e-11
2.50884e-09
-3.05968e-11
2.51777e-09
-3.01197e-11
2.52564e-09
-2.70557e-11
2.53189e-09
-2.1749e-11
2.53616e-09
-1.47165e-11
2.53831e-09
-6.56269e-12
2.53843e-09
2.08841e-12
2.53694e-09
1.06582e-11
1.98231e-11
2.52316e-09
4.75702e-11
2.58131e-09
1.33753e-10
2.65288e-09
1.93292e-10
2.72231e-09
2.26418e-10
2.78102e-09
2.39948e-10
2.82596e-09
2.40448e-10
2.85803e-09
2.33241e-10
2.87885e-09
2.21968e-10
2.89076e-09
2.08802e-10
2.89623e-09
1.94812e-10
2.89701e-09
1.80901e-10
2.89427e-09
1.67669e-10
2.88887e-09
1.55506e-10
2.8815e-09
1.44681e-10
2.8726e-09
1.35411e-10
2.86244e-09
1.27828e-10
2.8512e-09
1.22009e-10
2.83893e-09
1.17999e-10
2.82563e-09
1.15833e-10
2.81125e-09
1.1551e-10
2.79569e-09
1.1707e-10
2.7788e-09
1.20542e-10
2.7604e-09
1.25975e-10
2.74026e-09
1.33449e-10
2.71812e-09
1.43069e-10
2.6937e-09
1.54971e-10
2.66667e-09
1.69333e-10
2.6367e-09
1.8639e-10
2.60346e-09
2.06428e-10
2.56663e-09
2.29796e-10
2.52596e-09
2.56914e-10
2.48128e-09
2.88282e-10
2.43261e-09
3.24571e-10
2.37923e-09
3.79842e-10
2.33031e-09
3.40439e-10
2.29918e-09
1.82101e-10
2.29187e-09
2.5274e-11
2.31094e-09
-1.1624e-10
2.35499e-09
-2.54318e-10
2.41894e-09
-3.875e-10
2.49758e-09
-5.28159e-10
2.58266e-09
-5.86492e-10
2.67163e-09
-5.94143e-10
2.75767e-09
-5.75255e-10
2.83727e-09
-5.34935e-10
2.91014e-09
-4.95748e-10
2.97662e-09
-4.60878e-10
3.0365e-09
-4.11097e-10
3.09009e-09
-3.75308e-10
3.13674e-09
-3.30814e-10
3.17749e-09
-2.84196e-10
3.2114e-09
-2.41652e-10
3.23922e-09
-1.83174e-10
3.25997e-09
-1.36024e-10
3.27441e-09
-6.88083e-11
3.28153e-09
-9.27616e-12
3.28169e-09
5.81658e-11
3.27413e-09
1.33947e-10
3.25846e-09
1.89721e-10
3.23449e-09
2.78306e-10
3.20126e-09
3.26577e-10
3.15834e-09
3.88019e-10
3.10603e-09
4.33579e-10
3.04385e-09
4.65139e-10
2.97291e-09
4.97883e-10
2.89358e-09
5.05082e-10
2.80737e-09
5.19611e-10
2.71527e-09
5.12765e-10
2.61898e-09
5.09903e-10
2.51951e-09
4.98546e-10
2.41869e-09
4.82739e-10
2.3169e-09
4.73271e-10
2.21582e-09
4.54264e-10
2.11588e-09
4.40066e-10
2.01762e-09
4.26179e-10
1.92184e-09
4.092e-10
1.82864e-09
3.94085e-10
1.7384e-09
3.7871e-10
1.65148e-09
3.61122e-10
1.56839e-09
3.42266e-10
1.48927e-09
3.23038e-10
1.41465e-09
3.02026e-10
1.34482e-09
2.80443e-10
1.2801e-09
2.58541e-10
1.22092e-09
2.36148e-10
1.16728e-09
2.15469e-10
1.11908e-09
1.96471e-10
1.07681e-09
1.77215e-10
1.03963e-09
1.62015e-10
1.00733e-09
1.48622e-10
9.79936e-10
1.35141e-10
9.56768e-10
1.24458e-10
9.37179e-10
1.1504e-10
9.22142e-10
1.02384e-10
9.10108e-10
9.3371e-11
9.0319e-10
7.72377e-11
8.99809e-10
6.44188e-11
9.02466e-10
4.31424e-11
9.09746e-10
2.44084e-11
9.24948e-10
-5.13204e-12
9.46407e-10
-3.14494e-11
9.76881e-10
-6.7137e-11
1.01572e-09
-1.02618e-10
1.06367e-09
-1.41344e-10
1.12165e-09
-1.84883e-10
1.18824e-09
-2.2466e-10
1.26426e-09
-2.69394e-10
1.34796e-09
-3.08837e-10
1.43849e-09
-3.47621e-10
1.5346e-09
-3.82697e-10
1.63437e-09
-4.12843e-10
1.73639e-09
-4.37873e-10
1.83888e-09
-4.57975e-10
1.93988e-09
-4.68633e-10
2.03865e-09
-4.78625e-10
2.13308e-09
-4.76435e-10
2.2224e-09
-4.7048e-10
2.30594e-09
-4.6019e-10
2.38291e-09
-4.4206e-10
2.45326e-09
-4.21601e-10
2.51722e-09
-3.99415e-10
2.57479e-09
-3.72674e-10
2.62665e-09
-3.45969e-10
2.67335e-09
-3.20648e-10
2.71554e-09
-2.94784e-10
2.75406e-09
-2.71396e-10
2.78959e-09
-2.50392e-10
2.82287e-09
-2.32025e-10
2.85452e-09
-2.1799e-10
2.88493e-09
-2.0785e-10
2.91448e-09
-1.9695e-10
2.94341e-09
-1.92165e-10
2.97247e-09
-1.94178e-10
3.00059e-09
-1.87168e-10
3.02849e-09
-1.9056e-10
3.05496e-09
-1.93624e-10
3.08072e-09
-1.8527e-10
3.10413e-09
-1.87264e-10
3.12566e-09
-1.77194e-10
3.14365e-09
-1.64209e-10
3.15832e-09
-1.45943e-10
3.16806e-09
-1.15038e-10
3.17314e-09
-7.8996e-11
3.17167e-09
-3.31332e-11
3.1644e-09
2.80816e-11
3.14881e-09
8.12828e-11
3.12583e-09
1.66674e-10
3.09284e-09
2.31279e-10
3.05044e-09
3.0475e-10
2.99624e-09
3.82495e-10
2.93089e-09
4.35889e-10
2.85251e-09
5.12035e-10
2.76237e-09
5.47268e-10
2.65914e-09
6.04595e-10
2.54509e-09
6.26989e-10
2.42054e-09
6.67089e-10
2.28807e-09
6.80435e-10
2.153e-09
6.90637e-10
2.03034e-09
6.47117e-10
1.91732e-09
6.08032e-10
1.83957e-09
3.83398e-10
1.79456e-09
2.56496e-10
1.78449e-09
1.29795e-10
1.8102e-09
-7.35072e-12
1.87515e-09
-1.79602e-10
1.97035e-09
-3.37298e-10
2.08852e-09
-4.94916e-10
2.20948e-09
-5.50655e-10
2.32392e-09
-5.53818e-10
2.42898e-09
-5.40564e-10
2.52255e-09
-5.10619e-10
2.60345e-09
-4.66353e-10
2.67123e-09
-4.11301e-10
2.72602e-09
-3.4959e-10
2.76851e-09
-2.85326e-10
2.79977e-09
-2.22225e-10
2.82119e-09
-1.63407e-10
2.83437e-09
-1.11265e-10
2.84103e-09
-6.73961e-11
2.84286e-09
-3.26417e-11
2.8415e-09
-7.18566e-12
2.83843e-09
9.35007e-12
2.83495e-09
1.77922e-11
2.83213e-09
1.93354e-11
2.83075e-09
1.54096e-11
2.83135e-09
7.57952e-12
2.83414e-09
-2.54728e-12
2.83912e-09
-1.34266e-11
2.84605e-09
-2.36613e-11
2.8545e-09
-3.20783e-11
2.86394e-09
-3.78211e-11
2.87373e-09
-4.03907e-11
2.88323e-09
-3.96197e-11
2.89183e-09
-3.56606e-11
2.89903e-09
-2.89597e-11
2.9045e-09
-2.01879e-11
2.90809e-09
-1.01512e-11
2.90987e-09
3.01948e-13
2.9102e-09
1.03314e-11
2.08945e-11
2.51583e-09
3.16976e-11
2.55897e-09
9.05591e-11
2.61794e-09
1.34272e-10
2.68243e-09
1.61912e-10
2.74536e-09
1.77036e-10