/*--------------------------------*- C++ -*----------------------------------*\
| =========                 |                                                 |
| \\      /  F ield         | OpenFOAM: The Open Source CFD Toolbox           |
|  \\    /   O peration     | Version:  2506                                  |
|   \\  /    A nd           | Website:  www.openfoam.com                      |
|    \\/     M anipulation  |                                                 |
\*---------------------------------------------------------------------------*/
FoamFile
{
    version     2.0;
    format      ascii;
    arch        "LSB;label=32;scalar=64";
    class       volScalarField;
    location    "2";
    object      s;
}
// * * * * * * * * * * * * * * * * * * * * * * * * * * * * * * * * * * * * * //

dimensions      [0 0 0 0 0 0 0];

internalField   nonuniform List<scalar> 
4000
(
2.50534e-18
-1.5596e-17
2.29144e-16
-4.33787e-15
-4.54732e-13
-2.05764e-11
-1.39017e-11
9.82373e-09
3.09318e-07
6.2815e-06
7.43154e-05
0.000675427
0.00819553
0.0465689
0.136661
0.235142
0.262879
0.257628
0.226
0.150445
0.0645943
0.0124321
0.00249753
0.00215368
0.00179556
0.00139467
0.00104597
0.000786901
0.000637728
0.000671699
0.00102005
0.00179441
0.00293367
0.00401646
0.00310941
0.00135767
0.000585103
0.00093787
0.00232
0.00505361
0.0105145
0.0175489
0.022418
0.0255477
0.0271401
0.0278097
0.0281064
0.0272943
0.0262622
0.0246679
0.0222679
0.019772
0.0162501
0.0130216
0.00931508
0.00647709
0.00440316
0.00286796
0.00176617
0.00102099
0.000554908
0.000285758
0.000140626
6.74642e-05
3.27653e-05
1.66039e-05
8.79607e-06
4.73111e-06
2.50785e-06
1.28046e-06
6.24491e-07
2.91308e-07
1.30172e-07
5.60266e-08
2.33064e-08
9.37526e-09
3.65608e-09
1.38563e-09
5.10344e-10
1.83135e-10
6.41388e-11
2.19045e-11
7.27686e-12
2.32524e-12
6.92417e-13
1.82516e-13
3.27918e-14
-5.02439e-15
-7.54808e-15
-4.78146e-15
-2.63435e-15
-1.05957e-15
-4.60583e-16
-2.25629e-16
-1.17287e-16
-6.91077e-17
-4.92489e-17
-3.19779e-17
-1.43303e-17
7.55981e-18
6.03212e-17
3.04567e-16
1.84839e-15
1.23284e-14
4.84167e-14
1.54418e-13
3.69178e-13
6.72114e-13
1.16308e-12
1.90548e-12
2.89831e-12
4.5047e-12
7.39505e-12
1.23937e-11
1.69057e-11
2.10544e-11
2.53879e-11
3.81303e-11
6.66598e-11
9.37962e-11
1.18564e-10
1.39966e-10
1.52169e-10
1.55653e-10
1.49427e-10
1.35359e-10
1.17032e-10
9.72156e-11
7.91762e-11
6.43611e-11
4.96591e-11
3.84826e-11
3.1254e-11
2.35323e-11
1.82705e-11
1.55439e-11
1.08181e-11
9.00223e-12
6.45524e-12
4.76883e-12
3.26503e-12
1.96325e-12
9.64964e-13
3.92503e-13
1.07456e-13
2.70605e-14
5.47725e-15
6.03723e-17
-9.26749e-16
-7.8743e-16
-4.85292e-16
-2.63014e-16
-1.39829e-16
-7.0472e-17
-3.59084e-17
-1.317e-17
3.53338e-18
8.04115e-18
2.4631e-18
-8.84896e-18
-3.88057e-17
-2.4453e-17
1.71853e-18
4.37653e-17
1.173e-16
2.32153e-16
8.93569e-16
1.70664e-14
2.48817e-14
2.78166e-14
2.53415e-14
1.86108e-14
1.09855e-14
5.26085e-15
2.0862e-15
7.0435e-16
2.02352e-16
5.28278e-17
3.69975e-18
-1.10913e-18
-4.66415e-19
-8.2533e-20
-4.36124e-20
-3.83314e-20
-2.70156e-20
-1.70211e-20
-9.80667e-21
-5.10183e-21
-1.6725e-21
5.61405e-22
1.56132e-21
2.03002e-21
2.17127e-21
1.86761e-21
9.48086e-22
2.97857e-22
6.29774e-23
9.3092e-24
-3.68362e-25
-3.99931e-25
7.60606e-18
-3.67714e-17
1.08655e-16
-1.3144e-16
-3.02443e-14
-9.93778e-13
-9.15865e-12
2.36689e-10
9.97701e-09
3.19358e-07
5.00532e-06
4.94121e-05
0.000478588
0.00200073
0.00512235
0.00983868
0.014638
0.0186049
0.0214314
0.0235535
0.0253153
0.0274135
0.0304066
0.034395
0.0398859
0.0488174
0.0646531
0.0918286
0.133701
0.184946
0.230291
0.240024
0.228257
0.189172
0.124907
0.074182
0.0556653
0.0630219
0.079958
0.0972606
0.114136
0.127304
0.133182
0.138068
0.14238
0.146101
0.149323
0.152119
0.154594
0.156855
0.158914
0.160819
0.162224
0.163003
0.162506
0.160283
0.155403
0.146592
0.135414
0.120326
0.102573
0.0812748
0.0566814
0.0329643
0.0184315
0.0109031
0.00647546
0.00375001
0.00207296
0.00107859
0.00052547
0.000242514
0.000107617
4.62215e-05
1.92912e-05
7.83673e-06
3.11099e-06
1.21339e-06
4.66321e-07
1.76952e-07
6.63465e-08
2.44935e-08
8.85844e-09
3.1257e-09
1.07275e-09
3.56925e-10
1.1453e-10
3.51597e-11
1.02859e-11
2.80629e-12
6.67085e-13
1.13965e-13
-9.23287e-15
-2.87798e-14
-3.12726e-14
-3.58537e-14
-4.1609e-14
-3.89767e-14
-2.30887e-14
1.6274e-15
4.24084e-14
1.65964e-13
5.81574e-13
1.94232e-12
6.11275e-12
1.80245e-11
4.31088e-11
7.90941e-11
8.80885e-11
2.03301e-11
-1.82627e-10
-1.12545e-09
-2.96186e-09
-5.46439e-09
-9.45274e-09
-1.45264e-08
-2.04419e-08
-2.59877e-08
-2.90961e-08
-3.15509e-08
-3.21221e-08
-2.92022e-08
-2.42099e-08
-1.87236e-08
-1.31931e-08
-8.85997e-09
-5.76196e-09
-3.58976e-09
-2.16055e-09
-1.27254e-09
-6.89056e-10
-3.53915e-10
-2.033e-10
-1.04532e-10
-6.86522e-11
-8.09936e-11
-7.4516e-11
-9.12077e-11
-9.29567e-11
-8.60602e-11
-7.13259e-11
-5.16193e-11
-3.472e-11
-2.48689e-11
-1.78903e-11
-1.42843e-11
-1.10485e-11
-7.995e-12
-5.31382e-12
-3.23232e-12
-1.80608e-12
-9.17172e-13
-4.25371e-13
-1.78092e-13
-6.72494e-14
-2.26384e-14
-6.7574e-15
-1.75304e-15
-1.69008e-16
7.47846e-16
2.23174e-15
6.84185e-15
1.6988e-14
3.7185e-14
1.01401e-13
2.13126e-13
3.42973e-13
5.09462e-13
6.56377e-13
7.68055e-13
7.38714e-13
5.99517e-13
3.98788e-13
2.1969e-13
1.02691e-13
4.15495e-14
1.48267e-14
4.79143e-15
1.38506e-15
3.44888e-16
4.33006e-17
-7.48769e-18
-6.39448e-18
-1.62327e-18
-1.69078e-19
7.87059e-20
5.89843e-20
-1.19793e-19
-3.1025e-19
-3.41978e-19
-2.52006e-19
-1.39994e-19
-7.0195e-20
-3.87331e-20
-1.88492e-20
-7.01166e-21
-1.85725e-21
6.75398e-24
2.70797e-22
8.68772e-23
3.16554e-18
-8.79559e-18
-3.5467e-17
3.62743e-16
-2.39227e-15
-8.93555e-15
-2.02801e-12
1.34475e-12
2.59718e-10
1.03123e-08
4.12902e-08
1.25689e-07
2.28763e-07
6.03611e-07
1.44769e-06
2.81256e-06
4.79061e-06
7.53481e-06
1.39494e-05
6.58184e-05
0.000561374
0.00149553
0.0026597
0.00403378
0.00575492
0.00816984
0.0119443
0.0181815
0.0283796
0.0439452
0.065149
0.089541
0.116454
0.142749
0.155623
0.158047
0.160026
0.159376
0.156486
0.151089
0.141367
0.130752
0.123457
0.119553
0.118065
0.118847
0.121307
0.125938
0.131728
0.138538
0.146361
0.154406
0.163636
0.173283
0.184092
0.194465
0.202717
0.208529
0.211956
0.212438
0.210364
0.204512
0.193929
0.178122
0.158712
0.133692
0.102519
0.0717305
0.0430038
0.0221044
0.0122685
0.00731705
0.00449699
0.00276496
0.00165619
0.000957026
0.000530646
0.000282059
0.000144294
7.10095e-05
3.34108e-05
1.49785e-05
6.40282e-06
2.60904e-06
1.01148e-06
3.74534e-07
1.32673e-07
4.48986e-08
1.45701e-08
4.52784e-09
1.35437e-09
3.90567e-10
1.07203e-10
2.62192e-11
2.25159e-12
-8.17141e-12
-1.93324e-11
-2.88977e-11
-3.27211e-11
-3.50499e-11
-5.15435e-11
-1.02175e-10
-2.20316e-10
-5.021e-10
-1.20837e-09
-2.9235e-09
-6.86265e-09
-1.79954e-08
-4.6883e-08
-1.04485e-07
-2.02881e-07
-4.55076e-07
-9.18442e-07
-1.496e-06
-2.20569e-06
-3.01229e-06
-3.87202e-06
-4.7199e-06
-5.38459e-06
-5.92262e-06
-6.1667e-06
-5.99209e-06
-5.51456e-06
-4.87809e-06
-4.1428e-06
-3.4503e-06
-2.82982e-06
-2.28217e-06
-1.82188e-06
-1.45051e-06
-1.14108e-06
-8.99225e-07
-7.20777e-07
-5.71911e-07
-4.60575e-07
-3.80898e-07
-3.08874e-07
-2.58408e-07
-2.13463e-07
-1.74988e-07
-1.39963e-07
-1.06765e-07
-7.70276e-08
-5.27453e-08
-3.4689e-08
-2.30211e-08
-1.49778e-08
-9.49487e-09
-5.75702e-09
-3.29928e-09
-1.78452e-09
-8.96801e-10
-4.20675e-10
-1.81524e-10
-7.21086e-11
-2.59815e-11
-8.46284e-12
-2.46251e-12
-6.34953e-13
-1.3394e-13
6.30443e-15
9.73491e-14
4.05022e-13
9.91223e-13
1.58983e-12
1.71087e-12
1.11891e-12
-3.45094e-13
-3.20541e-12
-7.78242e-12
-1.23226e-11
-1.32691e-11
-1.07347e-11
-6.79004e-12
-3.39819e-12
-1.34805e-12
-4.13302e-13
-8.59958e-14
-8.13582e-15
2.47111e-15
1.7759e-15
7.22644e-16
2.45345e-16
7.5923e-17
2.39597e-17
4.5839e-18
3.10883e-18
2.41156e-18
4.91683e-19
-1.23467e-18
-1.94472e-18
-2.42456e-18
-3.14992e-18
-4.14037e-18
-3.56671e-18
-1.51404e-18
-3.97517e-19
-7.88104e-20
-3.04128e-20
-8.09688e-21
6.06471e-19
5.08892e-19
-1.16198e-17
2.55043e-17
2.57561e-16
-2.90716e-15
-3.05291e-14
-9.54723e-14
1.5005e-11
3.31215e-10
3.48052e-10
-9.76305e-09
-2.16791e-08
-1.50713e-08
-1.45766e-08
-4.39673e-08
-1.02779e-07
-1.39215e-07
-1.37188e-07
-6.65389e-08
1.28412e-08
3.26831e-07
7.88617e-07
1.38493e-06
2.1932e-06
3.40541e-06
5.40613e-06
9.21404e-06
1.86367e-05
4.96534e-05
0.000768231
0.00348133
0.00925325
0.0210287
0.0357461
0.042569
0.041648
0.0382018
0.0338541
0.0288592
0.0231928
0.0186133
0.0156351
0.0138719
0.0130481
0.0128841
0.013171
0.0139805
0.0151597
0.0167682
0.0189179
0.0215537
0.0250796
0.0294719
0.0354558
0.0436668
0.0563188
0.0748108
0.0956901
0.118698
0.140635
0.16107
0.17807
0.185003
0.18775
0.187375
0.182509
0.173148
0.159109
0.136612
0.106761
0.0773242
0.0514963
0.0311344
0.0193216
0.0124655
0.00802683
0.00513279
0.00323199
0.00196051
0.0011283
0.000612215
0.00031483
0.000154683
7.25151e-05
3.22741e-05
1.36754e-05
5.55616e-06
2.18086e-06
8.29373e-07
3.05596e-07
1.09894e-07
3.85149e-08
1.30493e-08
4.25498e-09
1.25271e-09
1.08285e-10
-1.36198e-09
-5.93126e-09
-1.2624e-08
-2.03025e-08
-3.90008e-08
-9.53445e-08
-2.24322e-07
-4.67162e-07
-9.8791e-07
-1.88015e-06
-3.6495e-06
-7.02272e-06
-1.26247e-05
-2.11045e-05
-3.06595e-05
-4.05279e-05
-4.95813e-05
-5.73159e-05
-6.33319e-05
-6.74993e-05
-6.97732e-05
-6.99521e-05
-6.81082e-05
-6.47108e-05
-6.03331e-05
-5.54882e-05
-5.04441e-05
-4.53113e-05
-4.00443e-05
-3.50265e-05
-3.0414e-05
-2.6246e-05
-2.2569e-05
-1.9315e-05
-1.65142e-05
-1.41907e-05
-1.21625e-05
-1.04539e-05
-9.03716e-06
-7.74738e-06
-6.64913e-06
-5.6422e-06
-4.72514e-06
-3.88346e-06
-3.10218e-06
-2.38728e-06
-1.75264e-06
-1.21426e-06
-7.96594e-07
-4.81566e-07
-2.80988e-07
-1.59637e-07
-8.82419e-08
-4.77104e-08
-2.48214e-08
-1.2454e-08
-5.90832e-09
-2.64643e-09
-1.09882e-09
-4.21688e-10
-1.47635e-10
-4.70262e-11
-1.36044e-11
-3.17846e-12
-1.33067e-13
6.79402e-13
1.25119e-13
-7.6728e-12
-3.22208e-11
-2.37671e-10
-8.02492e-10
-1.48862e-09
-1.99163e-09
-2.17925e-09
-1.95675e-09
-1.44772e-09
-8.927e-10
-4.63119e-10
-2.03807e-10
-7.64334e-11
-2.47243e-11
-7.49261e-12
-2.23033e-12
-6.61095e-13
-1.91428e-13
-5.26269e-14
-1.29208e-14
-2.15026e-15
4.4696e-16
8.71337e-16
7.87214e-16
6.19765e-16
4.56598e-16
3.06338e-16
1.75212e-16
7.2707e-17
2.74215e-17
1.30832e-17
6.31738e-18
5.3394e-18
4.54928e-18
3.22431e-18
1.23861e-18
9.79575e-20
5.1952e-19
6.54521e-19
-2.20148e-17
3.86816e-16
-3.8982e-15
-3.48467e-15
3.0935e-14
6.80297e-12
9.64008e-12
-4.28303e-10
-7.51326e-10
-1.13578e-09
-3.11618e-09
-9.62626e-09
-2.50168e-08
-4.31286e-08
-5.2812e-08
-5.48738e-08
-5.50798e-08
-3.39901e-08
-1.12704e-08
3.91947e-09
1.78013e-08
4.3535e-08
8.5515e-08
1.8647e-07
4.54935e-07
1.01287e-06
2.39849e-06
4.05728e-06
6.64171e-06
1.00278e-05
8.8477e-06
7.36752e-05
0.000303113
0.000554528
0.000828832
0.0010073
0.00104245
0.000943053
0.000815146
0.000709641
0.000634783
0.000593191
0.000578514
0.00058464
0.000616164
0.00066693
0.000741751
0.000847245
0.000985457
0.00118028
0.0014404
0.00183923
0.00249649
0.00376736
0.00660071
0.0116184
0.0203466
0.0327426
0.0513813
0.0769227
0.104111
0.129507
0.150971
0.168574
0.176852
0.181316
0.186891
0.184951
0.178886
0.168889
0.151997
0.128162
0.10311
0.0795739
0.0574468
0.038313
0.0254481
0.0167403
0.0106817
0.00666249
0.00404276
0.00232371
0.0012378
0.00061674
0.000294493
0.000136898
6.21529e-05
2.76334e-05
1.21329e-05
5.28776e-06
2.2841e-06
9.75247e-07
4.06052e-07
1.62127e-07
5.82301e-08
1.59893e-08
-1.74999e-08
-2.31483e-07
-8.58047e-07
-2.2159e-06
-4.94455e-06
-9.93998e-06
-1.85678e-05
-2.97061e-05
-4.18605e-05
-5.58389e-05
-7.08888e-05
-8.8414e-05
-0.000111699
-0.000136538
-0.000161818
-0.000173274
-0.000176757
-0.000174518
-0.000167556
-0.000157624
-0.000146074
-0.000134092
-0.00012252
-0.000111669
-0.000101499
-9.19191e-05
-8.28288e-05
-7.42605e-05
-6.62373e-05
-5.88114e-05
-5.20372e-05
-4.58721e-05
-4.04045e-05
-3.56361e-05
-3.12992e-05
-2.75389e-05
-2.4182e-05
-2.10546e-05
-1.8257e-05
-1.56039e-05
-1.31679e-05
-1.09453e-05
-8.95528e-06
-7.21522e-06
-5.70896e-06
-4.30485e-06
-3.21903e-06
-2.36765e-06
-1.72027e-06
-1.24025e-06
-8.89469e-07
-6.34169e-07
-4.39936e-07
-2.92573e-07
-1.81956e-07
-1.04716e-07
-5.45365e-08
-2.51029e-08
-9.61937e-09
-2.66843e-09
-1.01402e-10
2.17294e-11
4.70048e-12
-1.09014e-11
-5.47498e-11
-4.33793e-10
-1.63067e-09
-3.55147e-09
-6.58087e-09
-9.81044e-09
-1.14026e-08
-1.13e-08
-9.58572e-09
-7.10225e-09
-4.71695e-09
-2.92178e-09
-1.69321e-09
-9.08691e-10
-4.28087e-10
-1.71035e-10
-7.06874e-11
-2.73722e-11
-9.48662e-12
-2.97312e-12
-9.20766e-13
-2.8035e-13
-7.36903e-14
-6.48515e-15
1.41983e-14
1.88243e-14
1.77529e-14
1.47e-14
1.10755e-14
7.27999e-15
4.03411e-15
2.25793e-15
1.17292e-15
5.29928e-16
2.09609e-16
5.2635e-17
-3.03045e-17
-1.78289e-19
2.58898e-19
3.70605e-18
-3.84817e-17
2.24816e-16
-8.02091e-16
-3.8219e-16
1.9589e-14
3.24453e-12
-7.51021e-12
-2.73232e-11
-1.00139e-11
1.24969e-11
4.94867e-11
1.04812e-10
4.64757e-11
-7.23998e-11
-1.74073e-10
-3.86605e-10
-5.52457e-10
-6.01807e-10
-8.23551e-10
-1.34448e-09
-2.2775e-09
-3.06904e-09
-2.2966e-09
3.61994e-09
2.27188e-08
6.22476e-08
1.11292e-07
2.22103e-07
4.43276e-07
7.76862e-07
3.85379e-07
-9.95375e-08
3.43431e-06
7.48332e-06
1.00067e-05
1.06741e-05
1.00296e-05
8.63609e-06
7.29223e-06
6.24882e-06
5.51418e-06
5.08199e-06
4.89935e-06
4.92894e-06
5.21169e-06
5.72477e-06
6.53892e-06
7.75439e-06
9.48257e-06
1.20643e-05
1.57697e-05
2.14222e-05
2.99033e-05
4.25122e-05
5.96756e-05
8.09913e-05
0.000140013
0.000620228
0.00312956
0.00932397
0.0200169
0.0365304
0.0586801
0.0861306
0.113025
0.136495
0.157476
0.17497
0.183553
0.191658
0.199311
0.207545
0.207399
0.204272
0.198254
0.18579
0.165986
0.142191
0.116987
0.0908628
0.0629948
0.0384247
0.022784
0.0134282
0.00785714
0.00447997
0.00243446
0.00125817
0.000640199
0.000331201
0.000175897
9.53647e-05
5.2521e-05
2.89599e-05
1.58435e-05
8.40026e-06
3.97434e-06
1.02852e-06
-1.48615e-06
-4.46763e-06
-9.14687e-06
-1.83209e-05
-3.54379e-05
-6.36495e-05
-8.63904e-05
-0.000101478
-0.000100117
-7.21383e-05
-1.13015e-05
8.50588e-05
0.000226176
0.000888148
0.00185838
0.00291035
0.00385922
0.00454386
0.00490833
0.00495721
0.0047018
0.00422554
0.00362757
0.00297747
0.00234759
0.00178439
0.00130971
0.000933527
0.000650229
0.000439547
0.000292606
0.000197166
0.000132104
9.18693e-05
6.87847e-05
5.32052e-05
4.47434e-05
3.80229e-05
3.12668e-05
2.3679e-05
1.47545e-05
6.82688e-06
1.79428e-06
-1.67111e-07
-6.31522e-07
-5.40283e-07
-3.10599e-07
-1.30587e-07
-4.40778e-08
-2.10868e-08
-3.42732e-08
-4.77607e-08
-5.35324e-08
-4.83004e-08
-3.73198e-08
-2.62677e-08
-1.7467e-08
-1.09735e-08
-6.40351e-09
-3.55288e-09
-1.86453e-09
-9.71391e-10
-5.90321e-10
-1.05928e-09
-5.49011e-09
-1.22828e-08
-1.89246e-08
-2.35793e-08
-2.44966e-08
-2.12691e-08
-1.5326e-08
-9.77381e-09
-6.03999e-09
-4.00948e-09
-2.99221e-09
-2.33666e-09
-1.76099e-09
-1.21698e-09
-7.46199e-10
-3.92109e-10
-1.46222e-10
-4.65171e-11
-2.15256e-11
-1.15856e-11
-6.25088e-12
-3.28202e-12
-1.65224e-12
-7.81068e-13
-3.32645e-13
-1.1379e-13
-1.55384e-14
2.18426e-14
3.04123e-14
2.66962e-14
1.92597e-14
1.21393e-14
6.78196e-15
2.71639e-15
1.08143e-15
-1.10912e-19
3.45801e-19
-7.98015e-19
1.7424e-18
-5.73088e-18
3.97138e-17
7.14616e-17
1.1085e-14
-5.76941e-14
-8.44953e-14
-1.38912e-13
4.32411e-13
2.52011e-12
5.32058e-12
8.96336e-12
1.12601e-11
1.13419e-11
1.2012e-11
1.65423e-11
3.26588e-11
5.62414e-11
7.12274e-11
7.98587e-11
8.9132e-11
8.24112e-11
4.8001e-11
1.27137e-10
4.68877e-10
1.95892e-09
4.75044e-09
1.10685e-08
2.49168e-08
3.89173e-08
3.14806e-08
7.75363e-09
2.13559e-07
5.25391e-07
8.38507e-07
1.05827e-06
1.14481e-06
1.09043e-06
9.77398e-07
8.58905e-07
7.58601e-07
6.87923e-07
6.44741e-07
6.23676e-07
6.26987e-07
6.48608e-07
6.90448e-07
7.55381e-07
8.45256e-07
9.76013e-07
1.15572e-06
1.42048e-06
1.80455e-06
2.50518e-06
4.44748e-06
8.39927e-06
2.16411e-05
3.75093e-05
3.86672e-05
1.97363e-05
4.73582e-05
0.00140437
0.00600537
0.0152584
0.0297488
0.0501725
0.0736349
0.100626
0.125616
0.147701
0.168926
0.188676
0.202905
0.21316
0.223273
0.235472
0.24621
0.252291
0.255011
0.253692
0.245664
0.228767
0.201916
0.166075
0.126038
0.0838949
0.0454422
0.0246226
0.0145274
0.00889458
0.00553359
0.00346604
0.00221832
0.00147765
0.00102933
0.000732518
0.000521242
0.000367654
0.000257707
0.000179922
0.000127976
0.000103901
0.000115961
0.000851399
0.00396766
0.00968904
0.017949
0.0282993
0.0400789
0.0525912
0.0647192
0.075848
0.0846948
0.0909413
0.0946181
0.0956184
0.0941978
0.0907935
0.0856762
0.0792948
0.0721612
0.064643
0.057126
0.0499093
0.0431998
0.0371513
0.0318516
0.0272304
0.023283
0.0200302
0.0172459
0.0149216
0.0129914
0.0112863
0.00981624
0.00849527
0.00728036
0.00615695
0.00509049
0.00408654
0.00314922
0.0023063
0.00162619
0.00109009
0.000698087
0.000426767
0.000248365
0.000139032
7.43491e-05
3.79666e-05
1.81568e-05
8.22337e-06
3.53038e-06
1.46366e-06
5.9085e-07
2.39262e-07
9.81387e-08
4.64253e-08
2.53182e-08
1.5855e-08
1.02803e-08
4.90798e-09
-6.3504e-10
-2.61415e-08
-4.58576e-08
-3.90717e-08
3.39831e-08
2.34426e-07
3.95618e-07
4.44417e-07
3.92133e-07
2.882e-07
1.81014e-07
9.84201e-08
4.6578e-08
1.91404e-08
6.67421e-09
1.61285e-09
-2.36373e-10
-5.96092e-10
-4.36049e-10
-2.84082e-10
-1.73235e-10
-1.00776e-10
-5.68351e-11
-3.1494e-11
-1.72696e-11
-9.37963e-12
-5.0249e-12
-2.63404e-12
-1.33529e-12
-6.43679e-13
-2.88289e-13
-1.14655e-13
-2.90168e-14
1.61892e-14
1.94979e-14
-4.78972e-21
-3.70169e-24
-9.90636e-20
4.07984e-19
2.32864e-19
-3.34338e-18
-1.30901e-16
1.95436e-15
-6.62893e-15
-8.13718e-15
-2.46374e-15
1.25511e-13
1.51376e-13
1.76515e-13
3.8092e-13
8.05446e-13
1.19088e-12
1.78135e-12
3.13295e-12
5.72868e-12
8.9539e-12
1.13242e-11
1.3143e-11
1.46916e-11
1.6078e-11
1.78471e-11
2.50825e-11
5.41573e-11
1.17484e-10
2.83868e-10
6.59587e-10
1.55769e-09
2.89265e-09
4.04168e-09
3.9884e-09
1.66985e-08
3.77918e-08
6.42005e-08
8.80147e-08
1.03201e-07
1.06152e-07
1.02744e-07
9.72994e-08
9.22767e-08
8.92321e-08
8.82619e-08
8.90103e-08
9.2175e-08
9.71739e-08
1.04455e-07
1.14339e-07
1.26839e-07
1.43805e-07
1.65816e-07
1.96795e-07
2.39813e-07
2.99909e-07
4.3262e-07
7.61819e-07
2.03872e-06
8.16081e-07
-5.03177e-06
-6.8221e-06
6.00845e-06
1.55613e-05
1.75548e-05
-1.8117e-05
0.000691181
0.00425157
0.0113401
0.0227477
0.0394933
0.0596363
0.0814307
0.105168
0.129293
0.151307
0.171168
0.190554
0.209602
0.227258
0.241906
0.253696
0.265034
0.275127
0.288288
0.297014
0.293309
0.282299
0.263048
0.234636
0.189981
0.139981
0.0914784
0.0521809
0.0328396
0.0237388
0.0187697
0.0157684
0.014291
0.0138039
0.0151153
0.0189655
0.0262609
0.0381095
0.0548526
0.0773772
0.104634
0.134062
0.163661
0.191595
0.216564
0.237835
0.254524
0.26698
0.274845
0.278336
0.277766
0.273154
0.264927
0.253729
0.239958
0.224204
0.20714
0.1893
0.171313
0.153706
0.136883
0.121175
0.106803
0.0937533
0.0820869
0.0718602
0.0627554
0.0547685
0.0477809
0.0415396
0.0360233
0.031089
0.0266408
0.0226358
0.0189918
0.0156973
0.0127317
0.0100741
0.00776337
0.0057598
0.00409963
0.00277904
0.00177235
0.00105877
0.000566527
0.00028213
0.000138834
6.82721e-05
3.30974e-05
1.53972e-05
6.76344e-06
2.94801e-06
1.331e-06
7.1263e-07
4.51268e-07
3.35934e-07
2.73097e-07
2.11365e-07
1.47882e-07
2.71537e-07
1.20456e-06
2.6013e-06
3.8574e-06
4.4569e-06
4.23706e-06
3.48809e-06
2.56089e-06
1.70259e-06
1.03089e-06
5.66937e-07
2.79403e-07
1.19063e-07
3.96518e-08
5.89415e-09
-4.43789e-09
-5.71942e-09
-4.65784e-09
-3.04633e-09
-1.76896e-09
-1.01757e-09
-5.99511e-10
-3.6019e-10
-2.17779e-10
-1.30583e-10
-7.64527e-11
-4.29428e-11
-2.26273e-11
-1.08279e-11
-4.37378e-12
-1.20542e-12
1.713e-13
5.17103e-13
4.30144e-13
3.40702e-21
-1.94867e-20
4.79007e-20
-1.8176e-19
1.18286e-18
-7.13407e-18
3.06288e-17
-1.41261e-16
-1.22069e-16
-4.7106e-16
1.11528e-15
3.05861e-15
3.34999e-15
4.03096e-15
7.4403e-15
1.44692e-14
2.46422e-14
4.58399e-14
7.21185e-14
8.82968e-14
9.80926e-14
1.08162e-13
1.92663e-13
4.96913e-13
8.45367e-13
1.49169e-12
3.02925e-12
6.89394e-12
8.81177e-12
1.55128e-11
3.47914e-11
8.79248e-11
1.87654e-10
3.6743e-10
5.51578e-10
1.42968e-09
3.0038e-09
5.22607e-09
7.49892e-09
9.2401e-09
9.99514e-09
1.01439e-08
1.00125e-08
9.8483e-09
9.85055e-09
1.0055e-08
1.04351e-08
1.11375e-08
1.22119e-08
1.3772e-08
1.58457e-08
1.85551e-08
2.23746e-08
2.77573e-08
3.50281e-08
4.40837e-08
5.55064e-08
7.20881e-08
1.04209e-07
1.67182e-07
2.51643e-07
3.35457e-07
1.01768e-06
2.75105e-06
-5.25116e-06
-1.84257e-05
-1.90191e-05
-2.01391e-05
-1.16187e-05
-1.54089e-05
-1.67187e-05
0.00166808
0.00588424
0.0128443
0.0228574
0.0361136
0.0521282
0.069238
0.0865941
0.103823
0.121792
0.140343
0.158555
0.176451
0.193911
0.21379
0.23366
0.255923
0.275656
0.290459
0.308885
0.317899
0.314528
0.304298
0.28725
0.264162
0.227307
0.1887
0.157489
0.14085
0.137136
0.144226
0.159074
0.180815
0.209195
0.242273
0.278223
0.313925
0.346834
0.375499
0.399338
0.418403
0.432991
0.443077
0.449108
0.45157
0.450606
0.446017
0.437541
0.425336
0.40977
0.390977
0.369324
0.345361
0.319673
0.293138
0.266489
0.240375
0.215353
0.191834
0.169996
0.149991
0.131941
0.115603
0.10098
0.0879434
0.0762595
0.0658624
0.0566023
0.0483521
0.0410367
0.0345432
0.0288165
0.023789
0.0193808
0.015561
0.0122438
0.00941704
0.00705064
0.00510053
0.00355894
0.00235252
0.00146427
0.000847016
0.000453957
0.00021464
9.59478e-05
4.45386e-05
2.20889e-05
1.15438e-05
6.84243e-06
4.65341e-06
3.68458e-06
3.14464e-06
3.33462e-06
5.46422e-06
9.52695e-06
1.3847e-05
1.6196e-05
1.59927e-05
1.39163e-05
1.09698e-05
7.97646e-06
5.41081e-06
3.44482e-06
2.06076e-06
1.15345e-06
5.96954e-07
2.78286e-07
1.09611e-07
2.89506e-08
-4.12401e-09
-1.39625e-08
-1.39996e-08
-1.09099e-08
-7.55883e-09
-4.89753e-09
-3.04595e-09
-1.84401e-09
-1.09279e-09
-6.33192e-10
-3.56128e-10
-1.91882e-10
-9.69983e-11
-4.43713e-11
-1.69303e-11
-3.90722e-12
1.33304e-12
2.84618e-12
2.42502e-12
1.4649e-22
-2.68751e-22
1.63613e-21
1.3446e-21
-4.51583e-20
2.33919e-19
2.49476e-19
-8.53901e-18
-3.37816e-18
2.14027e-17
2.93075e-17
4.50415e-17
5.41211e-17
7.05118e-17
1.14822e-16
1.80609e-16
2.81397e-16
4.98312e-16
8.40933e-16
1.14095e-15
1.29729e-15
1.28436e-15
2.2669e-15
7.17322e-15
1.56269e-14
3.28896e-14
7.87413e-14
1.71601e-13
3.09348e-13
7.37922e-13
1.93403e-12
5.35091e-12
1.27982e-11
2.72644e-11
5.78774e-11
1.31452e-10
2.67366e-10
4.80494e-10
7.25323e-10
9.41951e-10
1.07649e-09
1.1661e-09
1.21121e-09
1.28374e-09
1.40402e-09
1.53694e-09
1.68857e-09
2.01894e-09
2.63627e-09
3.5485e-09
5.14913e-09
8.21701e-09
1.27856e-08
1.94854e-08
2.7929e-08
3.81835e-08
5.13573e-08
6.85955e-08
9.05118e-08
1.09241e-07
1.46519e-07
2.18614e-07
4.12535e-07
7.87938e-07
5.70174e-07
-1.23178e-09
5.48017e-07
-8.87584e-06
-1.79173e-05
-2.35423e-05
-2.21858e-05
-2.47244e-05
-8.45002e-06
1.81803e-05
7.6984e-05
0.000662463
0.00268026
0.00617992
0.0110203
0.0169906
0.0240824
0.0322785
0.041585
0.0520509
0.0635245
0.0765898
0.0914292
0.110298
0.133571
0.159292
0.188749
0.219918
0.254499
0.287808
0.307909
0.331104
0.353776
0.366305
0.368342
0.368483
0.368911
0.371791
0.378852
0.391325
0.408509
0.42754
0.44556
0.460906
0.473498
0.484187
0.49363
0.502139
0.509449
0.515518
0.520386
0.523571
0.524142
0.521986
0.517308
0.509568
0.497694
0.48103
0.459612
0.434448
0.407019
0.37636
0.344554
0.312699
0.281569
0.251743
0.2236
0.197411
0.17336
0.151407
0.131561
0.113746
0.0978211
0.0836861
0.0712106
0.0602633
0.0507224
0.0424633
0.0353635
0.0293068
0.0241492
0.0197662
0.0160389
0.0128817
0.0102169
0.00796716
0.00609267
0.00453258
0.00326907
0.00226239
0.00149997
0.000934405
0.000542955
0.000294346
0.000154098
7.68551e-05
4.51606e-05
3.1971e-05
2.64944e-05
2.66421e-05
3.15802e-05
3.83631e-05
4.31733e-05
4.28164e-05
3.77262e-05
3.01638e-05
2.22762e-05
1.54119e-05
1.00948e-05
6.3023e-06
3.76394e-06
2.14911e-06
1.16485e-06
5.88563e-07
2.66057e-07
9.61691e-08
1.42212e-08
-1.95322e-08
-2.87851e-08
-2.70658e-08
-2.15535e-08
-1.56519e-08
-1.06889e-08
-6.97e-09
-4.37166e-09
-2.64331e-09
-1.53832e-09
-8.57073e-10
-4.52494e-10
-2.22153e-10
-9.76421e-11
-3.47734e-11
-6.0229e-12
5.01173e-12
7.91969e-12
6.5362e-12
-2.45381e-23
-2.25911e-23
8.34559e-22
-6.68835e-21
3.71096e-20
-1.18988e-19
2.20077e-19
-4.83652e-19
1.29564e-18
4.45382e-18
3.53266e-18
-1.14037e-18
-9.25061e-18
-1.42308e-17
-1.24548e-17
-1.29262e-17
-1.59266e-17
-1.93066e-17
-2.06562e-17
-1.82577e-17
-9.18803e-18
8.72914e-18
5.43467e-17
1.84034e-16
4.33894e-16
1.05364e-15
2.84288e-15
6.55335e-15
1.28191e-14
3.50888e-14
1.0567e-13
3.26245e-13
8.84597e-13
2.18872e-12
5.71344e-12
1.26649e-11
2.58439e-11
4.84127e-11
7.73516e-11
1.07474e-10
1.24812e-10
2.7162e-10
6.23895e-10
1.1209e-09
1.4559e-09
1.5571e-09
1.498e-09
2.04286e-09
3.66109e-09
6.48855e-09
1.30283e-08
2.3752e-08
3.90996e-08
5.94752e-08
8.53278e-08
1.17526e-07
1.57992e-07
2.08313e-07
2.69818e-07
3.36915e-07
4.10763e-07
4.86071e-07
5.75344e-07
6.88666e-07
8.61835e-07
1.09094e-06
1.48908e-06
1.16316e-06
2.69785e-07
-1.29687e-06
-3.23195e-06
-9.89777e-06
-1.29214e-05
-1.21503e-05
-7.04891e-06
6.57797e-06
3.24127e-05
8.10168e-05
0.000166542
0.000302057
0.000504315
0.000798361
0.00125139
0.00225609
0.00396396
0.00656745
0.0103815
0.0158638
0.0236781
0.0342751
0.0480942
0.0664973
0.0924655
0.124411
0.15986
0.197607
0.236868
0.276544
0.317339
0.348175
0.367831
0.388062
0.410526
0.432047
0.449421
0.461179
0.469102
0.47517
0.480673
0.486292
0.492419
0.499229
0.508459
0.519405
0.52958
0.536506
0.538089
0.537289
0.535435
0.531318
0.521619
0.506084
0.484851
0.45848
0.428294
0.395713
0.361915
0.32786
0.29434
0.261996
0.231314
0.202652
0.176191
0.152102
0.130362
0.110962
0.0938256
0.0788256
0.0658216
0.0546767
0.0451995
0.03725
0.0306281
0.0251767
0.0207144
0.0170617
0.0140846
0.0116428
0.0096201
0.00792782
0.00648635
0.00524578
0.00417208
0.00324211
0.0024521
0.0017918
0.00125935
0.000848594
0.000561553
0.000364098
0.000248207
0.000181742
0.000145642
0.000126937
0.000115863
0.00010367
8.72179e-05
6.76328e-05
4.84152e-05
3.22443e-05
2.01869e-05
1.20047e-05
6.8017e-06
3.68233e-06
1.91568e-06
9.51561e-07
4.38423e-07
1.6953e-07
3.07309e-08
-3.08013e-08
-4.52349e-08
-4.5805e-08
-4.17894e-08
-3.58653e-08
-2.76269e-08
-1.9891e-08
-1.35399e-08
-8.75823e-09
-5.39512e-09
-3.16326e-09
-1.75851e-09
-9.18386e-10
-4.42134e-10
-1.88615e-10
-6.34528e-11
-6.81118e-12
1.35778e-11
1.64857e-11
1.40838e-11
1.01611e-11
9.7079e-22
-1.41026e-21
-1.46997e-20
9.58687e-20
-3.65106e-19
9.37213e-19
-2.10689e-18
6.69416e-18
-8.71961e-18
-1.28124e-17
2.09744e-17
8.66785e-17
8.28231e-17
1.41105e-16
2.52667e-16
3.69964e-16
4.18341e-16
3.40108e-16
9.74187e-17
-3.12347e-16
-8.55482e-16
-1.45884e-15
-2.06025e-15
-2.61618e-15
-2.78631e-15
-2.46661e-15
-1.61097e-15
-2.76318e-16
1.5218e-15
4.49984e-15
1.07858e-14
2.65119e-14
5.95041e-14
1.83725e-13
5.52968e-13
1.30421e-12
2.76393e-12
5.35934e-12
9.45115e-12
4.39971e-11
-6.70503e-12
4.52165e-10
4.11632e-09
9.52496e-09
1.23346e-08
1.27879e-08
1.48933e-08
1.57389e-08
1.26615e-08
1.04244e-08
1.08271e-08
1.915e-08
3.74492e-08
6.93601e-08
1.10796e-07
1.64646e-07
2.35819e-07
3.23264e-07
4.63461e-07
6.66379e-07
8.94915e-07
1.12733e-06
1.35866e-06
1.59951e-06
1.87902e-06
2.21642e-06
2.59363e-06
2.92366e-06
3.38216e-06
3.66324e-06
3.65076e-06
2.95954e-06
1.65898e-06
5.86275e-08
-3.16277e-07
3.43143e-06
8.41499e-06
1.97472e-05
4.09943e-05
7.46562e-05
0.000127825
0.000209613
0.000333816
0.00052731
0.000820904
0.001257
0.00189346
0.00282489
0.00418045
0.00613454
0.00898649
0.0134005
0.0204365
0.0306609
0.0447329
0.0628804
0.0866958
0.116219
0.149149
0.182878
0.216317
0.247627
0.276116
0.301069
0.322307
0.340653
0.356966
0.372464
0.388743
0.40695
0.427424
0.449249
0.471508
0.49311
0.512927
0.529216
0.535539
0.534755
0.529265
0.518506
0.501801
0.479404
0.451917
0.419663
0.385501
0.350873
0.316414
0.28262
0.249966
0.218906
0.189834
0.163056
0.138649
0.116854
0.0975429
0.0806987
0.0662062
0.0538876
0.0435446
0.0350054
0.0280126
0.0223963
0.0179128
0.0143891
0.0116534
0.00954528
0.00794284
0.00671345
0.00574764
0.00498252
0.00433598
0.00378314
0.00327659
0.00280719
0.00236139
0.00194207
0.00155394
0.00120458
0.000912696
0.000679162
0.000510539
0.000391055
0.000306045
0.000240507
0.000184673
0.000134534
9.09334e-05
5.67997e-05
3.26773e-05
1.72288e-05
8.42161e-06
3.82539e-06
1.51003e-06
5.14868e-07
1.80577e-07
5.51751e-08
1.05503e-10
-2.64004e-08
-3.89941e-08
-4.44857e-08
-4.49366e-08
-4.22352e-08
-3.73076e-08
-2.98362e-08
-2.17033e-08
-1.47748e-08
-9.47431e-09
-5.7237e-09
-3.24715e-09
-1.71776e-09
-8.33317e-10
-3.51377e-10
-1.0597e-10
-1.24422e-11
9.85121e-12
1.48938e-11
1.53864e-11
1.35394e-11
1.15926e-11
7.461e-12
-2.4579e-21
3.07986e-20
-2.46893e-19
1.51549e-18
-6.96859e-18
2.16942e-17
-4.45248e-17
6.95911e-17
-4.02255e-16
-5.62671e-16
-6.34899e-16
8.04923e-15
8.86768e-15
8.7008e-15
1.13058e-14
1.88017e-14
3.40941e-14
5.14869e-14
6.19832e-14
6.209e-14
5.24856e-14
3.7729e-14
2.318e-14
1.27762e-14
8.92348e-15
1.3095e-14
2.63286e-14
4.93611e-14
8.20539e-14
1.22935e-13
1.69356e-13
2.17707e-13
2.64116e-13
3.19667e-13
4.39465e-13
6.25844e-13
8.88702e-13
2.43136e-12
-1.82666e-12
3.89456e-10
1.96073e-09
-9.02467e-10
1.47856e-08
3.5917e-08
6.05757e-08
7.48672e-08
6.64931e-08
4.05728e-08
-2.01396e-08
-1.45278e-07
-3.22601e-07
-4.98331e-07
-6.93174e-07
-8.89408e-07
-1.00253e-06
-1.00137e-06
-9.03196e-07
-7.10675e-07
-2.17088e-07
6.26991e-07
1.59941e-06
2.61692e-06
3.71502e-06
4.87028e-06
6.03768e-06
7.20761e-06
8.38163e-06
9.66799e-06
1.1107e-05
1.26475e-05
1.4353e-05
1.62609e-05
1.84352e-05
2.11207e-05
2.5199e-05
3.13903e-05
4.07542e-05
5.48056e-05
7.70075e-05
0.000111037
0.000156845
0.000219592
0.000305453
0.000418778
0.000573038
0.000804522
0.00113512
0.00160279
0.00225999
0.00317439
0.00445676
0.00620387
0.00861218
0.0122948
0.0176362
0.0251702
0.0356304
0.0485603
0.063839
0.0816534
0.102018
0.124569
0.149058
0.175131
0.202552
0.229144
0.255789
0.286961
0.32125
0.356932
0.392263
0.425472
0.453055
0.47583
0.491805
0.498379
0.495584
0.484301
0.465949
0.44207
0.414074
0.383387
0.351112
0.31817
0.285322
0.253146
0.222147
0.19274
0.165258
0.139987
0.117134
0.096842
0.0790144
0.0637579
0.0507872
0.0399405
0.0310375
0.0238776
0.0182134
0.0138283
0.0104571
0.00792275
0.00602392
0.00462547
0.00361316