/*--------------------------------*- C++ -*----------------------------------*\
| =========                 |                                                 |
| \\      /  F ield         | OpenFOAM: The Open Source CFD Toolbox           |
|  \\    /   O peration     | Version:  2506                                  |
|   \\  /    A nd           | Website:  www.openfoam.com                      |
|    \\/     M anipulation  |                                                 |
\*---------------------------------------------------------------------------*/
FoamFile
{
    version     2.0;
    format      ascii;
    arch        "LSB;label=32;scalar=64";
    class       volVectorField;
    location    "2";
    object      U;
}
// * * * * * * * * * * * * * * * * * * * * * * * * * * * * * * * * * * * * * //

dimensions      [0 1 -1 0 0 0 0];

internalField   nonuniform List<vector> 
4000
(
(0.00799083 0.000752327 0)
(0.0072199 0.000878073 -4.15034e-21)
(0.00604814 0.000505113 4.28455e-21)
(0.00498969 0.000236756 8.63035e-21)
(0.00438881 0.000118312 -1.74582e-20)
(0.00405863 6.64539e-05 8.77973e-21)
(0.00384554 4.25633e-05 0)
(0.00369421 3.16673e-05 0)
(0.00358137 2.68814e-05 0)
(0.00349244 2.49215e-05 1.73635e-20)
(0.00341894 2.42733e-05 -1.73908e-20)
(0.00335635 2.42702e-05 3.44963e-20)
(0.00330197 2.46299e-05 -3.45352e-20)
(0.00325394 2.52218e-05 0)
(0.00321084 2.59792e-05 0)
(0.00317153 2.68696e-05 0)
(0.00313506 2.78745e-05 3.38328e-20)
(0.00310056 2.89936e-05 -3.38551e-20)
(0.00306726 3.02352e-05 0)
(0.00303439 3.16074e-05 0)
(0.00300124 3.31207e-05 0)
(0.00296711 3.47854e-05 0)
(0.00293126 3.66092e-05 0)
(0.00289298 3.86048e-05 6.57407e-20)
(0.00285145 4.07903e-05 -1.3127e-19)
(0.00280579 4.31901e-05 6.55337e-20)
(0.00275498 4.58468e-05 0)
(0.00269775 4.88341e-05 0)
(0.00263252 5.22733e-05 0)
(0.00255716 5.63759e-05 0)
(0.0024686 6.15559e-05 -6.4175e-20)
(0.00236242 6.87064e-05 6.42942e-20)
(0.00223462 7.82348e-05 0)
(0.00204222 9.61982e-05 5.58973e-20)
(0.00181481 0.000156239 6.37924e-20)
(0.00166859 0.000269578 -3.21447e-19)
(0.00162376 0.000410068 -2.58228e-19)
(0.00162774 0.000555474 6.50646e-20)
(0.00166253 0.000705249 -2.60774e-19)
(0.00173819 0.000866126 -5.87835e-19)
(0.00189729 0.00104932 6.54711e-20)
(0.0021636 0.00124399 5.19863e-19)
(0.00245856 0.00141422 -5.1658e-19)
(0.00273852 0.00155475 0)
(0.00301268 0.00167308 0)
(0.00327746 0.0017698 -3.14232e-20)
(0.00354373 0.00184607 -4.68313e-19)
(0.00380316 0.00189295 -4.65395e-19)
(0.00404575 0.00190999 -2.77075e-19)
(0.004286 0.00189665 -2.43155e-19)
(0.00450641 0.00184615 2.40129e-19)
(0.0047124 0.00176169 0)
(0.00489135 0.00163383 -2.91895e-20)
(0.00503883 0.00147324 4.93721e-19)
(0.00515022 0.00127209 0)
(0.00520901 0.00104214 -1.13375e-19)
(0.00522399 0.000785891 -2.78052e-20)
(0.00516656 0.000514835 -1.46939e-23)
(0.00507421 0.000248883 -3.95022e-22)
(0.00491079 -2.17181e-05 -1.38477e-20)
(0.00470036 -0.000264863 2.64979e-20)
(0.00446724 -0.000482545 0)
(0.0042029 -0.000667249 0)
(0.00394126 -0.000816391 5.11782e-20)
(0.00366947 -0.000933223 3.56026e-19)
(0.00341629 -0.00101734 4.9964e-20)
(0.00317021 -0.00107572 -5.03247e-20)
(0.00294654 -0.00111007 4.87412e-20)
(0.00273982 -0.00112642 1.44849e-19)
(0.00254973 -0.00112657 -3.34534e-19)
(0.00238241 -0.00111476 -4.73861e-20)
(0.00222402 -0.00109282 1.01726e-21)
(0.00208287 -0.00106309 0)
(0.00195457 -0.00102856 0)
(0.00183392 -0.000989345 0)
(0.00172511 -0.000947365 -2.21188e-20)
(0.00162584 -0.000904295 -3.29263e-19)
(0.00153324 -0.000860432 0)
(0.00144973 -0.00081687 9.27112e-22)
(0.00137476 -0.000774654 2.11697e-20)
(0.00130697 -0.000734026 -3.36383e-19)
(0.0012466 -0.000695274 3.02243e-19)
(0.00119297 -0.00065852 6.53971e-23)
(0.00114525 -0.000623457 3.30611e-19)
(0.00110365 -0.00059005 1.79634e-21)
(0.00106613 -0.000557894 -3.15829e-19)
(0.00103143 -0.000526211 -3.17203e-19)
(0.00100114 -0.000495052 3.19028e-19)
(0.000972603 -0.000464182 -4.81689e-21)
(0.000944437 -0.000432841 -3.03863e-19)
(0.000919381 -0.000401342 0)
(0.000894525 -0.000369753 -3.05717e-19)
(0.000869649 -0.0003376 -2.83656e-19)
(0.000847443 -0.000305423 2.89279e-19)
(0.00082394 -0.00027319 -1.6079e-19)
(0.000803919 -0.000240921 1.76546e-20)
(0.000783385 -0.000209142 1.3945e-19)
(0.000766404 -0.000177443 1.7173e-20)
(0.000749864 -0.000146477 1.19222e-19)
(0.00073767 -0.000115404 8.42362e-20)
(0.000727579 -8.5282e-05 -3.3408e-20)
(0.000721195 -5.49371e-05 8.29339e-20)
(0.000718945 -2.486e-05 -8.25839e-21)
(0.000720068 5.06411e-06 -8.22608e-21)
(0.000726072 3.56585e-05 -3.27875e-20)
(0.000737353 6.65723e-05 0)
(0.000753346 9.90722e-05 0)
(0.000776336 0.000132869 -2.58809e-19)
(0.000804782 0.000168951 -8.24356e-21)
(0.000840641 0.000208072 1.36485e-19)
(0.000883666 0.000250843 1.32632e-19)
(0.00093465 0.000298012 4.15426e-21)
(0.000993832 0.000350308 -1.37823e-19)
(0.00106214 0.000408177 -2.48346e-22)
(0.00113783 0.000472185 0)
(0.00122511 0.000542791 2.68443e-19)
(0.00131851 0.000619157 -8.36161e-21)
(0.00142034 0.000701912 -2.50636e-19)
(0.0015303 0.000790012 -8.38829e-21)
(0.00164505 0.00088183 -2.66699e-19)
(0.00176596 0.000976972 -9.48458e-22)
(0.00189222 0.00107325 2.64214e-19)
(0.0020196 0.00116833 1.63276e-20)
(0.00214808 0.00126163 -2.93297e-19)
(0.00227844 0.00135168 1.62515e-20)
(0.00240793 0.00143663 2.56239e-19)
(0.00253686 0.00151547 3.14889e-20)
(0.00266487 0.00158681 -3.15796e-20)
(0.00279138 0.0016499 2.47889e-19)
(0.00291992 0.00170474 -2.1289e-19)
(0.00305017 0.00174881 -3.04247e-20)
(0.00317724 0.00178196 -4.44552e-19)
(0.0033116 0.00180605 -2.95329e-20)
(0.00345253 0.00181663 -2.30063e-19)
(0.00359047 0.00181372 1.52715e-21)
(0.00374215 0.00179962 0)
(0.00390055 0.00176534 0)
(0.0040544 0.00171474 -7.12848e-22)
(0.00422027 0.00164267 0)
(0.00437992 0.00154715 -2.49611e-20)
(0.00453657 0.00142552 -7.31e-20)
(0.00467972 0.00127504 -2.36464e-20)
(0.00479742 0.00109547 -4.625e-20)
(0.00488861 0.000889687 -2.30705e-20)
(0.00492892 0.00065692 -6.56356e-20)
(0.00492891 0.000413007 2.15974e-20)
(0.00486667 0.000149374 0)
(0.00473467 -9.91436e-05 0)
(0.0045654 -0.000333257 0)
(0.00433918 -0.000538638 -1.84969e-20)
(0.00409525 -0.000709426 1.85458e-20)
(0.00381711 -0.000849457 7.07816e-20)
(0.00353656 -0.000948676 6.87779e-20)
(0.00324949 -0.0010156 0)
(0.00297365 -0.00104829 -6.49539e-20)
(0.00269892 -0.00105125 0)
(0.00243408 -0.00102569 -1.48981e-20)
(0.00217236 -0.00097556 7.4999e-20)
(0.00190807 -0.000895744 -1.44119e-20)
(0.00162642 -0.000762628 2.42867e-19)
(0.00151521 -0.000625817 -5.58016e-20)
(0.00149749 -0.000517969 -5.46182e-20)
(0.00147484 -0.000420592 0)
(0.00146052 -0.000328364 0)
(0.00147948 -0.000240441 0)
(0.00154054 -0.000163941 0)
(0.00166653 -0.000103393 0)
(0.00184381 -7.56279e-05 1.13942e-20)
(0.00201255 -6.89279e-05 -3.09683e-22)
(0.00216921 -6.75938e-05 -3.19273e-22)
(0.00232311 -6.66616e-05 -1.07142e-20)
(0.00247104 -6.4954e-05 0)
(0.00260752 -6.21841e-05 9.62164e-21)
(0.002728 -5.84381e-05 -9.58842e-21)
(0.00282949 -5.39654e-05 2.8156e-22)
(0.00291065 -4.90663e-05 0)
(0.00297164 -4.39529e-05 0)
(0.00301385 -3.8784e-05 -7.68786e-21)
(0.00303959 -3.39948e-05 7.67439e-21)
(0.00305175 -2.94984e-05 0)
(0.00305311 -2.57328e-05 0)
(0.00304625 -2.29595e-05 -2.89123e-21)
(0.00303387 -2.07069e-05 1.80511e-22)
(0.00301864 -1.88842e-05 2.90191e-21)
(0.00300269 -1.73791e-05 0)
(0.0029877 -1.61487e-05 0)
(0.00297491 -1.51514e-05 0)
(0.00296512 -1.44164e-05 0)
(0.00295876 -1.39301e-05 1.201e-22)
(0.0029556 -1.37052e-05 0)
(0.00295519 -1.33654e-05 0)
(0.00295705 -1.27994e-05 0)
(0.00296045 -1.20093e-05 5.79814e-22)
(0.00296453 -1.09989e-05 -5.78894e-22)
(0.00296843 -9.76292e-06 0)
(0.00297129 -8.24303e-06 4.62493e-23)
(0.0029723 -6.42061e-06 1.23123e-22)
(0.00297032 -4.1828e-06 -8.20622e-23)
(0.0029621 -8.57281e-07 -4.08271e-23)
(0.00294442 7.46813e-06 0)
(0.00987615 0.00143531 0)
(0.0104318 0.00199212 0)
(0.0101838 0.00162937 0)
(0.00948075 0.001134 8.50913e-21)
(0.0087905 0.000740734 -1.72821e-20)
(0.00826744 0.000482227 8.74404e-21)
(0.00786622 0.000328765 0)
(0.0075449 0.000239991 1.75594e-20)
(0.00728363 0.000186187 -1.76711e-20)
(0.00706729 0.000151087 1.75919e-20)
(0.00688406 0.000126521 -1.76667e-20)
(0.00672614 0.000108283 -3.51237e-20)
(0.00658833 9.42089e-05 3.52329e-20)
(0.00646671 8.31486e-05 3.49932e-20)
(0.00635813 7.44325e-05 -1.66815e-22)
(0.00625995 6.76497e-05 -6.98031e-20)
(0.0061699 6.25497e-05 3.48855e-20)
(0.00608597 5.89662e-05 0)
(0.00600629 5.68347e-05 0)
(0.00592915 5.60797e-05 0)
(0.00585291 5.66529e-05 0)
(0.005776 5.85434e-05 0)
(0.00569688 6.17733e-05 0)
(0.00561403 6.64004e-05 0)
(0.00552587 7.25299e-05 0)
(0.00543074 8.03404e-05 0)
(0.00532683 9.01486e-05 0)
(0.00521207 0.000102343 0)
(0.00508402 0.000117565 0)
(0.00493969 0.000136829 0)
(0.00477531 0.000161807 -6.67819e-20)
(0.00458596 0.000195476 2.75206e-22)
(0.00436869 0.000243411 1.33627e-19)
(0.00409163 0.000314235 -5.85731e-20)
(0.00378639 0.000447457 -6.68674e-20)
(0.00357618 0.000668874 2.02452e-19)
(0.00350606 0.000954441 -2.72378e-19)
(0.00353589 0.00127348 -6.85841e-20)
(0.00364903 0.0016175 6.91651e-19)
(0.00386065 0.00198644 2.09129e-19)
(0.00421752 0.00237871 0)
(0.00472668 0.00277132 6.87464e-20)
(0.00529026 0.00312874 4.09511e-19)
(0.00585255 0.00344139 6.80195e-20)
(0.00641272 0.00370935 5.35891e-19)
(0.00696429 0.00392975 -5.30426e-19)
(0.00751429 0.00409861 1.96893e-21)
(0.00805095 0.00420291 0)
(0.00856396 0.00424026 -2.57431e-19)
(0.00906234 0.00420549 0)
(0.00952718 0.00409154 -7.15583e-22)
(0.00995816 0.00390043 0)
(0.0103383 0.00362111 -2.44813e-19)
(0.0106598 0.00326897 -2.4227e-19)
(0.0109075 0.00283603 0)
(0.0110639 0.00234237 4.14766e-24)
(0.0111303 0.00179736 1.16823e-19)
(0.0110779 0.00121626 2.85967e-20)
(0.0109356 0.000633505 5.6776e-20)
(0.0106663 4.41953e-05 -1.42952e-20)
(0.0103004 -0.000505515 0)
(0.00986107 -0.00100818 1.11444e-19)
(0.00935389 -0.00144906 -5.5753e-20)
(0.00881925 -0.00182013 -1.09745e-19)
(0.00825289 -0.00211837 -3.26916e-19)
(0.00769679 -0.00234501 -5.44217e-20)
(0.0071445 -0.00250967 2.67917e-19)
(0.00662072 -0.00261488 -5.36058e-20)
(0.00612328 -0.00267103 0)
(0.00565655 -0.0026842 5.22057e-20)
(0.00522834 -0.00266171 -5.221e-20)
(0.00482412 -0.00260973 2.07855e-21)
(0.0044521 -0.00253436 0)
(0.00410828 -0.00244093 -4.04363e-19)
(0.00378667 -0.0023335 -4.00092e-19)
(0.00349018 -0.00221651 2.45799e-20)
(0.00321662 -0.00209373 -2.45071e-20)
(0.00296252 -0.00196829 2.40471e-20)
(0.0027295 -0.00184327 -3.81007e-19)
(0.002517 -0.00172095 3.54631e-19)
(0.00232339 -0.001603 -3.73891e-19)
(0.00214839 -0.00149037 -3.79222e-19)
(0.00199079 -0.00138381 2.27639e-20)
(0.00184903 -0.00128283 -3.71639e-19)
(0.00172243 -0.00118701 3.51488e-19)
(0.0016082 -0.00109564 -3.48314e-19)
(0.00150401 -0.001008 3.46377e-19)
(0.00140998 -0.000923245 -3.40305e-19)
(0.0013226 -0.000840565 -1.04815e-20)
(0.00124029 -0.000760172 1.03888e-20)
(0.0011641 -0.000681656 0)
(0.00109086 -0.000605225 0)
(0.00102088 -0.000531519 1.58869e-19)
(0.00095568 -0.000460799 -1.75572e-19)
(0.000892468 -0.000394019 1.53998e-19)
(0.000835426 -0.000331493 3.79587e-20)
(0.000781771 -0.000274143 1.92735e-22)
(0.000735695 -0.000221977 -7.29701e-23)
(0.000695599 -0.000175481 -3.28452e-19)
(0.000665256 -0.000133613 -5.40308e-20)
(0.000643838 -9.64424e-05 7.14786e-20)
(0.000634344 -6.23899e-05 -7.086e-20)
(0.000636871 -3.05343e-05 0)
(0.000652906 1.06877e-06 -8.74203e-21)
(0.000683677 3.47478e-05 8.74925e-21)
(0.000730789 7.22252e-05 0)
(0.00079426 0.000116132 0)
(0.000876253 0.000168352 1.39909e-19)
(0.000976224 0.000231468 -1.40016e-19)
(0.00109552 0.000307374 1.44741e-19)
(0.00123424 0.000398136 -2.81799e-19)
(0.00139283 0.000505339 -2.03446e-23)
(0.00157106 0.000630332 -4.43284e-21)
(0.00176899 0.000774434 -1.41917e-19)
(0.00198418 0.000937814 0)
(0.00221895 0.00112067 0)
(0.00246706 0.00132201 0)
(0.00272936 0.00154098 2.9221e-19)
(0.00300377 0.00177323 2.7221e-19)
(0.00328553 0.00201646 0)
(0.00357454 0.00226863 -3.15216e-19)
(0.0038688 0.00252389 5.21813e-20)
(0.0041641 0.00277775 -3.4515e-20)
(0.0044602 0.00302668 1.72328e-20)
(0.00475713 0.00326658 -3.37964e-20)
(0.00505226 0.00349336 2.69015e-19)
(0.00534604 0.00370358 -2.32342e-19)
(0.00563864 0.003894 2.95932e-19)
(0.00593065 0.00406208 -5.19775e-22)
(0.00622587 0.00420588 2.27177e-19)
(0.00652436 0.00432202 0)
(0.00682345 0.00440961 2.52635e-19)
(0.00713336 0.00446811 -3.05626e-20)
(0.00745286 0.00449227 -2.10905e-19)
(0.00777486 0.00448157 2.40076e-19)
(0.00811332 0.00443504 -2.88626e-20)
(0.00845917 0.00434212 2.89606e-20)
(0.00880201 0.00420647 -2.89049e-20)
(0.00915107 0.00401869 2.76654e-20)
(0.00948747 0.00377729 -2.62161e-20)
(0.00980647 0.0034776 1.30478e-19)
(0.010092 0.0031176 -1.2517e-19)
(0.0103256 0.00269845 1.23225e-19)
(0.0104983 0.00222731 0)
(0.0105786 0.00170621 2.33821e-20)
(0.0105721 0.00116541 -2.21277e-20)
(0.010452 0.000597894 -1.08343e-20)
(0.0102162 5.0325e-05 0)
(0.00988817 -0.000468354 -2.04541e-20)
(0.00945625 -0.000935879 3.9789e-20)
(0.00896231 -0.00133449 0)
(0.00839619 -0.00166787 -7.55714e-20)
(0.0078038 -0.00191489 -1.81374e-20)
(0.00718442 -0.00208716 1.82296e-20)
(0.00657237 -0.002182 0)
(0.00595696 -0.00220338 6.8905e-20)
(0.00535624 -0.00215673 -6.68844e-20)
(0.00476702 -0.00204807 6.59712e-20)
(0.00419717 -0.00187953 0)
(0.00362538 -0.00163765 -1.25382e-19)
(0.00327946 -0.0013595 -7.69266e-20)
(0.00309645 -0.00109677 1.34878e-19)
(0.00296619 -0.000864834 -1.43997e-20)
(0.00288554 -0.000667772 1.42941e-20)
(0.00288272 -0.000501858 1.35633e-20)
(0.00297253 -0.000372711 1.2985e-20)
(0.00317798 -0.00028536 -1.14069e-20)
(0.00347641 -0.000249657 -7.76268e-22)
(0.00380106 -0.000242402 0)
(0.00413003 -0.000241033 7.21863e-22)
(0.00445848 -0.000235177 0)
(0.00477443 -0.000220929 -6.67105e-22)
(0.00506521 -0.000198371 -1.00752e-20)
(0.00532104 -0.000169516 1.06254e-20)
(0.00553577 -0.000137001 -8.8135e-22)
(0.00570668 -0.000103418 8.79815e-21)
(0.0058342 -7.09093e-05 -1.6616e-20)
(0.00592128 -4.1364e-05 1.6339e-20)
(0.00597265 -1.56342e-05 -8.44428e-21)
(0.00599406 5.36593e-06 0)
(0.00599162 2.1118e-05 3.83126e-21)
(0.00597215 3.19679e-05 -3.59711e-21)
(0.00594212 3.84567e-05 -3.8731e-22)
(0.00590674 4.10152e-05 -2.82095e-21)
(0.00587037 4.03487e-05 2.47719e-21)
(0.00583651 3.72143e-05 2.44887e-21)
(0.00580754 3.23944e-05 -2.73951e-21)
(0.00578492 2.67538e-05 2.35549e-21)
(0.00576914 2.08737e-05 -4.10925e-21)
(0.0057598 1.51539e-05 2.53687e-21)
(0.00575573 1.03636e-05 -8.60966e-22)
(0.00575516 6.94777e-06 -1.82037e-22)
(0.00575618 5.04955e-06 0)
(0.00575686 4.71011e-06 3.7363e-22)
(0.00575536 5.87731e-06 -5.11142e-22)
(0.00575012 8.49965e-06 2.65899e-23)
(0.00573986 1.26699e-05 -1.69669e-22)
(0.00572335 1.88416e-05 0)
(0.0056981 2.81227e-05 0)
(0.00565894 4.37756e-05 -1.12412e-23)
(0.00987673 0.000895129 0)
(0.0105619 0.00167962 -4.16555e-21)
(0.0110077 0.00171986 4.1464e-21)
(0.0108819 0.00149515 8.24264e-21)
(0.0105987 0.00118151 -8.32504e-21)
(0.0102557 0.000906021 0)
(0.00990853 0.000697756 0)
(0.00958672 0.0005516 0)
(0.00929895 0.000449749 -1.68533e-20)
(0.00904531 0.000376349 3.3837e-20)
(0.00882171 0.000321221 1.68072e-20)
(0.00862372 0.000278316 -3.39348e-20)
(0.00844766 0.000244165 -3.37509e-20)
(0.0082902 0.000216747 3.38733e-20)
(0.00814826 0.000194793 0)
(0.00801906 0.000177464 -3.35967e-20)
(0.00790006 0.000164195 6.72078e-20)
(0.00778891 0.000154585 -3.36032e-20)
(0.00768339 0.00014836 0)
(0.00758144 0.00014532 0)
(0.00748107 0.000145324 0)
(0.00738037 0.000148287 0)
(0.00727748 0.000154183 0)
(0.00717055 0.000163058 -6.57852e-20)
(0.00705773 0.000175047 6.59115e-20)
(0.00693708 0.000190402 0)
(0.0068066 0.000209526 0)
(0.00666408 0.000233045 0)
(0.00650712 0.000261882 0)
(0.00633298 0.000297414 0)
(0.00613857 0.000341709 -6.47754e-20)
(0.00592034 0.00039802 6.49718e-20)
(0.00567815 0.000472004 0)
(0.0053921 0.000571202 4.04252e-21)
(0.00509079 0.000722524 0)
(0.00488457 0.000952163 -1.30986e-19)
(0.00483381 0.00125217 2.65013e-19)
(0.0049204 0.00160552 0)
(0.00513123 0.0020047 -5.34106e-19)
(0.00547267 0.00244341 5.76332e-22)
(0.00597116 0.00290619 -6.61316e-20)
(0.00660942 0.00336208 6.59353e-20)
(0.00729982 0.00378428 -5.20973e-19)
(0.0079944 0.00416375 0)
(0.00868617 0.00449432 -5.73148e-19)
(0.00936826 0.00476894 5.36064e-19)
(0.0100428 0.00497923 5.2955e-19)
(0.0106989 0.0051127 0)
(0.0113283 0.00516497 2.42774e-19)
(0.0119339 0.00512845 0)
(0.0124999 0.00499833 -4.74965e-19)
(0.0130214 0.00477532 0)
(0.0134829 0.00445232 2.03442e-19)
(0.0138762 0.0040411 2.58424e-19)
(0.0141851 0.00353948 2.27429e-19)
(0.0143956 0.00296547 1.12448e-19)
(0.0145019 0.00233227 1.1106e-19)
(0.0144813 0.00165157 5.47141e-20)
(0.0143516 0.000955903 -2.72639e-20)
(0.0140845 0.000250695 -4.02954e-20)
(0.0137019 -0.000422813 0)
(0.0132182 -0.00105029 -1.0511e-19)
(0.012644 -0.0016144 1.04376e-19)
(0.0120131 -0.00209977 0)
(0.0113292 -0.00250466 4.13483e-19)
(0.0106326 -0.00282149 0)
(0.00992479 -0.00305978 5.09205e-20)
(0.00923253 -0.00321392 -5.11795e-20)
(0.0085606 -0.00330299 0)
(0.00791672 -0.00333071 5.0124e-20)
(0.00731056 -0.00330599 -5.02753e-20)
(0.00673424 -0.00323727 -5.46435e-19)
(0.0061946 -0.0031324 3.46093e-19)
(0.0056899 -0.00299882 -1.77625e-21)
(0.00521571 -0.00284358 3.87766e-19)
(0.00477372 -0.00267315 2.39956e-20)
(0.00436244 -0.00249339 -4.07007e-19)
(0.0039791 -0.00230979 0)
(0.00362442 -0.00212693 -3.7623e-19)
(0.0032981 -0.00194845 -7.20733e-19)
(0.00299883 -0.00177719 7.02214e-19)
(0.00272619 -0.00161493 3.76916e-19)
(0.00247903 -0.00146258 -3.72946e-19)
(0.00225569 -0.00132012 3.67681e-19)
(0.00205502 -0.00118683 0)
(0.00187428 -0.00106176 3.48451e-19)
(0.00171065 -0.000944031 3.83392e-21)
(0.00156297 -0.000832514 6.9003e-19)
(0.00142778 -0.00072652 3.15622e-19)
(0.00130271 -0.000626152 3.42598e-19)
(0.00118753 -0.000531266 0)
(0.00107964 -0.000442373 0)
(0.000978461 -0.000360533 -1.58918e-19)
(0.000884993 -0.000286414 0)
(0.000797545 -0.000221089 -1.92961e-20)
(0.000718953 -0.000165564 1.91047e-20)
(0.000648272 -0.000120298 -1.50411e-19)
(0.000588621 -8.59209e-05 1.48621e-19)
(0.000540157 -6.17914e-05 1.28406e-19)
(0.000506086 -4.7471e-05 1.81761e-20)
(0.00048746 -4.08942e-05 -7.18533e-20)
(0.000486663 -4.07642e-05 3.56246e-20)
(0.00050619 -4.39729e-05 -2.65046e-20)
(0.000547733 -4.70985e-05 8.80221e-21)
(0.000613191 -4.66683e-05 0)
(0.000704061 -3.83392e-05 6.97093e-20)
(0.000821125 -1.87118e-05 0)
(0.000966287 1.64693e-05 1.38976e-19)
(0.00113899 7.06954e-05 2.17804e-22)
(0.00133971 0.000147219 -1.34757e-19)
(0.00156866 0.000248818 1.39038e-19)
(0.00182441 0.000377608 -4.34768e-21)
(0.00210607 0.000534994 0)
(0.00241165 0.000722296 1.38121e-19)
(0.00273865 0.000939237 -1.37798e-19)
(0.00308657 0.00118504 0)
(0.00344942 0.00145799 8.53143e-21)
(0.00382652 0.00175502 -2.80614e-19)
(0.00421471 0.00207218 -2.55009e-19)
(0.00460904 0.002405 2.51862e-19)
(0.0050085 0.00274832 -2.66911e-19)
(0.00541071 0.00309639 -1.6522e-20)
(0.00581201 0.00344349 2.46492e-19)
(0.00621205 0.00378381 3.28539e-20)
(0.00661061 0.00411134 2.9005e-19)
(0.00700608 0.00442064 -5.76758e-19)
(0.00739915 0.00470675 2.86628e-19)
(0.00779053 0.00496517 -2.20732e-19)
(0.00818136 0.00519215 1.84515e-19)
(0.00857475 0.00538436 3.04085e-19)
(0.00897111 0.00553799 1.79383e-19)
(0.00936956 0.00565142 2.99001e-20)
(0.00977713 0.00572207 2.03042e-19)
(0.0101925 0.00574499 2.59003e-19)
(0.010611 0.00571949 -2.77395e-20)
(0.0110403 0.00564238 2.78042e-20)
(0.0114715 0.00550529 8.05638e-20)
(0.0118964 0.00531081 2.56651e-20)
(0.0123161 0.00505073 -2.53057e-20)
(0.0127147 0.00472455 2.53636e-20)
(0.0130829 0.0043298 -9.71963e-20)
(0.0134045 0.00386684 2.39207e-20)
(0.0136614 0.00333975 -7.06749e-22)
(0.0138414 0.00275742 -2.28349e-20)
(0.0139196 0.00212676 -8.7573e-20)
(0.0138966 0.00147579 0)
(0.0137457 0.000807635 4.0826e-20)
(0.0134678 0.000158045 -2.53104e-20)
(0.0130764 -0.000459025 1.93906e-20)
(0.0125656 -0.00102259 -5.62991e-20)
(0.0119682 -0.00151061 -1.82231e-20)
(0.0112797 -0.00191842 7.16238e-20)
(0.0105411 -0.00222861 8.77943e-20)
(0.00975682 -0.00244491 -3.43669e-20)
(0.00896269 -0.00256956 8.46465e-20)
(0.0081557 -0.00258544 -6.57286e-20)
(0.0073595 -0.00252421 -1.59768e-20)
(0.00657582 -0.00238306 -6.2866e-20)
(0.005824 -0.00216711 1.57963e-20)
(0.00508393 -0.00188281 -6.14251e-20)
(0.004543 -0.00155469 5.99751e-20)
(0.00418815 -0.00124123 -4.40878e-20)
(0.00393934 -0.00097855 -1.447e-20)
(0.00378758 -0.000779915 -2.78645e-20)
(0.00375908 -0.000643191 0)
(0.00386749 -0.000560087 -2.58598e-20)
(0.00412678 -0.000528453 2.34786e-20)
(0.0045006 -0.000534769 4.35323e-22)
(0.00491603 -0.000550898 -3.25693e-22)
(0.00534095 -0.000557368 -1.0304e-21)
(0.00576168 -0.000544797 -1.0904e-20)
(0.00616203 -0.000510694 6.4522e-22)
(0.00652704 -0.000457662 0)
(0.00684583 -0.000390932 -5.92663e-22)
(0.00711181 -0.000316504 5.67169e-22)
(0.00732238 -0.000240117 9.55657e-21)
(0.0074785 -0.000166674 -8.96579e-21)
(0.00758408 -9.99939e-05 -7.69435e-21)
(0.00764514 -4.26911e-05 8.14912e-21)
(0.00766913 3.76273e-06 0)
(0.00766438 3.89699e-05 -4.22082e-22)
(0.00763926 6.35761e-05 0)
(0.00760117 7.82143e-05 -2.53259e-21)
(0.00755685 8.39147e-05 1.78915e-22)
(0.00751207 8.23057e-05 3.05145e-21)
(0.00747115 7.52228e-05 6.12253e-22)
(0.00743706 6.45692e-05 2.8497e-22)
(0.00741134 5.23363e-05 -2.62925e-22)
(0.00739401 4.01772e-05 0)
(0.00738423 2.94502e-05 2.19255e-22)
(0.00738029 2.12145e-05 7.47875e-22)
(0.00737978 1.61505e-05 -5.69851e-22)
(0.00738006 1.45828e-05 -5.78661e-22)
(0.00737856 1.65078e-05 7.11739e-22)
(0.00737294 2.16505e-05 0)
(0.00736135 2.96255e-05 1.12871e-22)
(0.00734258 4.01412e-05 1.64151e-22)
(0.00731597 5.32148e-05 4.09364e-23)
(0.00728091 6.93202e-05 -4.08668e-23)
(0.00722962 9.07261e-05 1.08754e-23)
(0.00979431 0.000519501 0)
(0.0103542 0.00120147 0)
(0.0108885 0.0014653 0)
(0.0111126 0.00145269 8.21702e-21)
(0.0111079 0.00131654 -8.23337e-21)
(0.0110338 0.00113273 0)
(0.0108794 0.000957633 0)
(0.0106855 0.000811378 0)
(0.0104833 0.000693725 0)
(0.0102866 0.000599547 0)
(0.010101 0.000523321 0)
(0.00992815 0.000460688 -3.28821e-20)
(0.00976854 0.000408867 3.30135e-20)
(0.00962142 0.000366079 -3.28183e-20)
(0.00948546 0.000331083 6.56936e-20)
(0.00935903 0.000302982 -3.2865e-20)
(0.00924041 0.000281122 -3.26408e-20)
(0.00912782 0.000265016 3.27206e-20)
(0.00901945 0.000254296 0)
(0.00891352 0.000248676 0)
(0.00880827 0.000247951 6.46185e-20)
(0.00870194 0.000251986 -6.47418e-20)
(0.00859278 0.000260727 0)
(0.00847899 0.000274213 -6.40696e-20)
(0.00835877 0.000292597 6.41892e-20)
(0.00823025 0.000316177 0)
(0.00809148 0.000345441 0)
(0.0079404 0.000381116 6.33909e-20)
(0.00777485 0.000424251 -2.85603e-22)
(0.00759256 0.00047633 -6.33918e-20)
(0.00739121 0.000539444 -6.29906e-20)
(0.00716835 0.00061656 1.26034e-19)
(0.00692568 0.00071226 -6.30425e-20)
(0.00664667 0.000831298 5.87179e-20)
(0.00635937 0.000988992 -6.30707e-20)
(0.00616938 0.00120753 -6.34992e-20)
(0.00614077 0.00149269 6.46005e-20)
(0.00626559 0.00183818 1.93898e-19)
(0.0065327 0.00223737 3.23157e-19)
(0.00694111 0.00267976 6.46422e-20)
(0.0075015 0.00314547 -6.3948e-20)
(0.00818057 0.00360612 -5.67031e-19)
(0.00890209 0.00403984 5.6121e-19)
(0.00962727 0.00443554 5.54794e-19)
(0.0103478 0.00478327 -1.22241e-19)
(0.011058 0.00507301 9.08837e-20)
(0.0117579 0.0052946 -2.69198e-19)
(0.0124389 0.00543913 0)
(0.0130938 0.00549313 -2.63852e-19)
(0.0137211 0.00545574 2.91604e-20)
(0.0143098 0.00532997 2.29776e-19)
(0.0148532 0.0051017 2.82299e-20)
(0.0153373 0.00477381 -2.81341e-19)
(0.015754 0.00435496 -1.94838e-19)
(0.016089 0.00384708 -2.20999e-19)
(0.0163309 0.00326376 -1.0962e-19)
(0.0164719 0.00261772 -2.66193e-20)
(0.0164938 0.00192205 2.67713e-20)
(0.016406 0.00120387 2.62529e-20)
(0.0161868 0.000472669 3.87651e-20)
(0.0158497 -0.000238483 2.56228e-20)
(0.0154016 -0.000912572 0)
(0.0148512 -0.00153189 1.01084e-19)
(0.0142241 -0.00207898 0)
(0.0135261 -0.00254715 -3.48745e-19)
(0.0127915 -0.0029268 -1.99137e-19)
(0.0120263 -0.00322014 -4.95504e-20)
(0.0112574 -0.00342698 0)
(0.0104945 -0.00355434 0)
(0.00974828 -0.00360938 -1.95102e-19)
(0.00903142 -0.00360025 0)
(0.00834179 -0.00353608 4.33545e-19)
(0.00768745 -0.0034261 -4.30858e-19)
(0.0070693 -0.00327902 4.0421e-19)
(0.00648511 -0.00310373 -1.99205e-22)
(0.00593689 -0.00290861 -1.9376e-22)
(0.00542404 -0.00270118 3.26407e-19)
(0.00494447 -0.00248861 4.64185e-20)
(0.00449872 -0.002277 3.44689e-19)
(0.00408683 -0.00207103 3.6502e-19)
(0.00370775 -0.00187432 1.4256e-21)
(0.00336116 -0.00168928 -3.47891e-19)
(0.00304625 -0.00151708 3.44758e-19)
(0.00276165 -0.0013578 0)
(0.00250642 -0.00121067 5.44808e-21)
(0.00227815 -0.00107438 3.41229e-19)
(0.00207384 -0.000947607 -6.81826e-19)
(0.00189229 -0.000829164 -1.01664e-18)
(0.00172999 -0.000717932 -3.4394e-19)
(0.00158357 -0.00061367 1.12679e-20)
(0.00145244 -0.000516598 0)
(0.00133389 -0.00042699 1.00054e-20)
(0.00122595 -0.000345785 -9.91829e-21)
(0.00112982 -0.000274236 0)
(0.0010432 -0.000212803 1.54071e-19)
(0.000968674 -0.000163075 -1.89215e-20)
(0.000905318 -0.000124946 1.87609e-20)
(0.000855919 -9.93194e-05 1.93267e-22)
(0.000820631 -8.47724e-05 1.46077e-19)
(0.000803157 -8.14219e-05 -1.80005e-20)
(0.000804795 -8.64425e-05 3.57295e-20)
(0.000827813 -9.85041e-05 -1.77249e-20)
(0.000875636 -0.000113467 -4.82168e-25)
(0.000949006 -0.000127634 -8.67594e-21)
(0.00105166 -0.000137217 8.6569e-21)
(0.00118445 -0.000136647 -6.87732e-20)
(0.00134855 -0.000122116 -7.27096e-20)
(0.00154582 -8.81121e-05 -1.32293e-19)
(0.00177481 -3.05929e-05 2.72182e-19)
(0.00203611 5.43241e-05 -1.31355e-19)
(0.00232813 0.000169855 -4.2397e-21)
(0.0026488 0.0003186 -4.2048e-21)
(0.00299639 0.000501997 4.21358e-21)
(0.00336698 0.00072103 -1.34118e-19)
(0.00375802 0.000974882 8.79142e-21)
(0.00416729 0.00126229 -5.62558e-23)
(0.00458863 0.00158061 1.15163e-19)
(0.00502072 0.00192587 4.02083e-19)
(0.00546001 0.0022933 -2.59956e-19)
(0.0059022 0.00267743 -2.59632e-19)
(0.00634627 0.00307208 2.73784e-19)
(0.00679028 0.00347064 2.38118e-19)
(0.00723167 0.00386643 -2.38085e-19)
(0.00767058 0.00425266 -2.81041e-19)
(0.00810727 0.00462259 -2.33679e-19)
(0.00854119 0.00497016 3.25568e-20)
(0.00897345 0.00528973 -3.06103e-20)
(0.00940525 0.0055762 0)
(0.00983797 0.0058252 -2.678e-19)
(0.0102741 0.00603283 -2.34676e-19)
(0.0107141 0.00619525 -2.02704e-19)
(0.0111575 0.00630997 0)
(0.0116089 0.00637358 -2.51953e-19)
(0.0120665 0.00638216 2.77039e-20)
(0.0125264 0.00633448 -8.05173e-20)
(0.0129915 0.00622701 -2.66479e-20)
(0.0134536 0.00605397 -8.31327e-22)
(0.0139056 0.00581686 -1.26163e-19)
(0.0143439 0.00551045 2.49601e-20)
(0.0147552 0.00513517 -1.19674e-19)
(0.0151292 0.00469119 2.11577e-19)
(0.0154511 0.00418102 1.83192e-19)
(0.0157052 0.00361069 8.92171e-20)
(0.0158797 0.00298992 0)
(0.0159549 0.0023285 -2.09023e-20)
(0.0159285 0.00164623 3.06324e-22)
(0.0157791 0.000952856 9.68923e-21)
(0.0155059 0.000277646 -3.39518e-20)
(0.0151157 -0.000363547 1.91223e-20)
(0.0146034 -0.00095191 -3.669e-20)
(0.013993 -0.00146673 3.55915e-20)
(0.0132809 -0.00189996 0)
(0.0125008 -0.00223538 -8.4569e-20)
(0.0116581 -0.00247175 3.32503e-20)
(0.0107846 -0.00260663 -6.54381e-20)
(0.00988644 -0.00262736 -1.61907e-20)
(0.00899023 -0.00256865 7.83951e-20)
(0.00809977 -0.00241514 -1.56075e-20)
(0.00724635 -0.00218671 0)
(0.0064121 -0.00189554 7.41734e-20)
(0.00575713 -0.00157562 -3.47551e-22)
(0.00530374 -0.00127689 -3.43859e-22)
(0.00499393 -0.00104089 -3.34833e-22)
(0.0048179 -0.000886922 2.69918e-20)
(0.00480211 -0.000813752 -3.18143e-22)
(0.00495392 -0.000802988 -1.64029e-22)
(0.0052796 -0.00084016 -1.19828e-20)
(0.00572323 -0.000892046 1.03638e-20)
(0.00620041 -0.00092851 1.10536e-20)
(0.0066759 -0.000935389 1.02443e-21)
(0.00713555 -0.000906808 -1.05069e-20)
(0.00756409 -0.000843219 1.23935e-21)
(0.00794805 -0.000750495 9.35838e-21)
(0.00827839 -0.00063739 -9.30668e-21)
(0.00855028 -0.000513361 -1.09204e-21)
(0.00876261 -0.000387291 -1.04876e-21)
(0.00891754 -0.000266775 0)
(0.0090199 -0.000157734 7.45726e-21)
(0.00907654 -6.42274e-05 -7.44937e-21)
(0.0090956 1.1453e-05 0)
(0.00908587 6.85881e-05 -8.16739e-22)
(0.00905605 0.000107527 0)
(0.00901411 0.000129719 7.26184e-22)
(0.0089671 0.000137498 2.64571e-21)
(0.00892093 0.000133626 -2.64259e-21)
(0.00887994 0.000121163 -5.96641e-22)
(0.00884698 0.00010329 5.5137e-22)
(0.00882338 8.30199e-05 0)
(0.00880901 6.32117e-05 -1.78575e-21)
(0.00880265 4.63298e-05 1.78154e-21)
(0.00880214 3.41565e-05 3.82353e-22)
(0.00880473 2.76591e-05 6.4326e-22)
(0.00880743 2.72633e-05 -6.41866e-22)
(0.00880732 3.27992e-05 4.80376e-22)
(0.00880186 4.35848e-05 -4.79521e-22)
(0.00878909 5.86419e-05 -1.79833e-22)
(0.00876791 7.69495e-05 -1.19604e-22)
(0.0087381 9.76956e-05 7.96524e-23)
(0.00870031 0.000120283 9.9139e-23)
(0.00864475 0.000146446 0)
(0.00976251 0.000329366 0)
(0.0101852 0.000852965 0)
(0.0106639 0.00114622 0)
(0.0109586 0.00125062 8.27441e-21)
(0.0111338 0.00123051 -8.24866e-21)
(0.0112486 0.0011447 0)
(0.0112698 0.00103821 1.62799e-20)
(0.0112415 0.000930903 -1.63204e-20)
(0.0111763 0.000830958 -1.62124e-20)
(0.0110915 0.000742224 3.24487e-20)
(0.0109969 0.000664459 -1.62364e-20)
(0.0108983 0.000596488 0)
(0.0107993 0.000537698 0)
(0.0107019 0.000487617 3.21368e-20)
(0.0106068 0.000445757 -1.52948e-22)
(0.0105142 0.000411656 -6.4128e-20)
(0.0104235 0.000384915 3.2057e-20)
(0.0103342 0.000365195 0)
(0.0102454 0.000352215 0)
(0.0101559 0.000345737 3.16301e-20)
(0.0100648 0.000345598 -3.16823e-20)
(0.0099706 0.0003517 0)
(0.00987214 0.000364023 0)
(0.00976797 0.000382654 -6.2464e-20)
(0.00965656 0.000407794 1.24823e-19)
(0.00953632 0.000439797 -6.23594e-20)
(0.00940552 0.000479207 -6.18781e-20)
(0.00926239 0.000526803 2.84364e-22)
(0.00910506 0.000583657 1.23313e-19)
(0.00893165 0.00065121 -6.16233e-20)
(0.0087404 0.000731375 -6.11849e-20)
(0.00852943 0.000826659 2.67326e-22)
(0.00830131 0.000940603 6.1138e-20)
(0.00803998 0.00107553 6.0675e-20)
(0.00777227 0.00124105 -6.10921e-20)
(0.00759942 0.0014557 0)
(0.0075835 0.00172924 -2.50358e-19)
(0.00772056 0.00206025 -5.01061e-19)