/*--------------------------------*- C++ -*----------------------------------*\
| =========                 |                                                 |
| \\      /  F ield         | OpenFOAM: The Open Source CFD Toolbox           |
|  \\    /   O peration     | Version:  2506                                  |
|   \\  /    A nd           | Website:  www.openfoam.com                      |
|    \\/     M anipulation  |                                                 |
\*---------------------------------------------------------------------------*/
FoamFile
{
    version     2.0;
    format      ascii;
    arch        "LSB;label=32;scalar=64";
    class       volVectorField;
    location    "2";
    object      vorticityField;
}
// * * * * * * * * * * * * * * * * * * * * * * * * * * * * * * * * * * * * * //

dimensions      [0 0 -1 0 0 0 0];

internalField   nonuniform List<vector> 
4000
(
(-2.28847e-20 7.75688e-18 -32.7231)
(-8.3947e-18 -6.72571e-18 -35.7822)
(8.89916e-18 -2.51688e-17 -33.6578)
(3.38919e-17 3.88243e-17 -29.6523)
(-6.95335e-17 3.16564e-18 -26.6707)
(3.55646e-17 -3.42614e-17 -24.7922)
(-2.90465e-19 1.64091e-17 -23.4895)
(3.50864e-17 -0 -22.51)
(-3.44481e-17 -3.24519e-17 -21.7462)
(6.89703e-17 2.98318e-17 -21.1286)
(-6.89985e-17 -2.93497e-17 -20.6119)
(-2.31932e-18 2.68956e-17 -20.1692)
(-1.05303e-18 6.96196e-17 -19.7839)
(7.23977e-17 -6.45453e-17 -19.444)
(-3.33324e-19 -0 -19.1402)
(-1.36493e-16 -6.32327e-17 -18.8648)
(1.34305e-16 5.84543e-17 -18.6112)
(-7.09878e-17 6.80528e-17 -18.3737)
(3.36015e-18 -6.32744e-17 -18.147)
(0 -0 -17.926)
(0 -0 -17.7061)
(0 -0 -17.4826)
(8.33726e-18 -1.22868e-16 -17.251)
(1.14353e-16 2.36459e-16 -17.0068)
(-2.627e-16 1.80136e-17 -16.7451)
(1.49413e-16 -2.54086e-16 -16.4607)
(-9.39506e-18 1.22481e-16 -16.1477)
(0 -0 -15.7993)
(0 -0 -15.4069)
(-1.06157e-17 1.19942e-16 -14.9594)
(-2.5112e-16 -1.12696e-16 -14.4414)
(1.40427e-16 -1.2741e-16 -13.8338)
(2.65838e-16 1.56568e-17 -13.106)
(7.12866e-18 -1.24069e-16 -12.0522)
(-7.73616e-17 6.98734e-16 -10.8243)
(-3.01789e-16 5.72497e-16 -10.1655)
(-9.70462e-16 -1.02219e-15 -10.33)
(-7.72048e-18 8.46976e-18 -11.0545)
(7.06249e-16 1.70931e-15 -12.2469)
(-7.2851e-16 -1.08016e-15 -13.986)
(3.83753e-16 -2.23208e-15 -16.56)
(1.10383e-15 2.1248e-15 -19.6929)
(-3.36926e-16 9.36073e-16 -22.8325)
(2.56315e-16 -1.00697e-15 -25.8462)
(1.20056e-15 8.40545e-16 -28.7337)
(-1.38178e-15 1.75212e-16 -31.5314)
(-1.26746e-15 4.02851e-16 -34.2829)
(-1.07847e-15 -1.06038e-15 -36.8189)
(-1.22532e-15 -1.27195e-15 -39.1921)
(-5.25957e-16 -1.34599e-15 -41.3718)
(7.0413e-16 -3.29017e-16 -43.2619)
(-4.2876e-17 5.32441e-16 -44.9456)
(-6.53464e-16 -1.19846e-15 -46.2359)
(7.29747e-16 1.49834e-17 -47.2649)
(-9.87972e-17 1.15441e-15 -47.8915)
(-3.34737e-16 5.62507e-17 -48.1465)
(2.56342e-16 -9.04386e-17 -48.0615)
(8.42633e-17 -3.02074e-17 -47.5013)
(1.56346e-16 5.05809e-17 -46.7298)
(-7.57053e-17 -4.85981e-17 -45.537)
(7.916e-17 -2.09577e-17 -44.0029)
(3.13593e-16 7.30027e-18 -42.3451)
(-1.47543e-16 -7.05654e-17 -40.4599)
(-8.73722e-17 -6.9326e-16 -38.514)
(5.78269e-17 -1.168e-16 -36.4973)
(-1.12289e-16 8.1853e-16 -34.4399)
(6.36534e-16 -1.27169e-16 -32.4475)
(2.69443e-17 -4.30941e-16 -30.4315)
(3.03719e-16 6.75857e-16 -28.5231)
(-7.86168e-16 8.02451e-16 -26.6286)
(-1.78158e-16 -5.94879e-16 -24.8258)
(-4.94831e-17 -2.39401e-16 -23.0907)
(-1.98875e-19 2.32874e-18 -21.391)
(-9.76064e-16 6.1911e-16 -19.7931)
(-9.47932e-16 6.73351e-16 -18.2521)
(-3.89092e-17 7.8967e-16 -16.782)
(-7.94097e-16 5.11409e-16 -15.4075)
(9.40688e-17 -8.18275e-16 -14.1166)
(-8.60455e-16 4.64321e-16 -12.9115)
(7.62851e-16 2.35365e-16 -11.8065)
(-1.44192e-15 4.06829e-16 -10.7956)
(-1.67868e-16 -7.47639e-16 -9.87373)
(4.20155e-17 -1.05284e-16 -9.03853)
(-8.19897e-17 3.01556e-17 -8.28086)
(6.82534e-16 1.06569e-15 -7.5935)
(-1.22878e-15 1.61323e-15 -6.96932)
(5.18315e-17 -1.45756e-15 -6.39591)
(-6.253e-17 -7.32181e-16 -5.86762)
(-1.19939e-17 1.40177e-15 -5.38229)
(-5.04725e-16 3.25875e-16 -4.92995)
(1.86675e-18 1.37898e-18 -4.50926)
(-4.97349e-16 9.13423e-16 -4.1225)
(-2.32366e-16 -1.12224e-15 -3.763)
(1.74643e-16 -3.77479e-16 -3.43467)
(6.88862e-18 5.81495e-16 -3.1374)
(7.31725e-17 -6.41398e-16 -2.87128)
(2.18013e-16 -9.58658e-17 -2.63894)
(2.78044e-17 3.11592e-17 -2.43982)
(-3.30145e-16 -5.1729e-17 -2.27476)
(5.28388e-17 2.74181e-16 -2.1455)
(5.92538e-17 -3.65877e-18 -2.05322)
(1.75834e-17 -5.3092e-17 -1.99679)
(-9.74235e-18 1.70846e-16 -1.98098)
(-2.55367e-17 4.60462e-17 -2.00276)
(-3.73156e-17 -1.86062e-17 -2.06838)
(-6.80454e-19 -6.17709e-17 -2.17994)
(3.68937e-18 4.95413e-16 -2.3419)
(-1.87286e-16 -3.08274e-17 -2.56118)
(-2.37546e-16 -8.39887e-16 -2.84084)
(4.4398e-16 -1.2118e-16 -3.18988)
(-2.33602e-16 1.68786e-16 -3.61636)
(1.00131e-17 5.57146e-16 -4.1273)
(-2.32354e-16 -1.10121e-16 -4.73552)
(-2.30712e-16 -4.27441e-16 -5.44086)
(-6.86203e-18 -5.80746e-16 -6.26479)
(4.56768e-16 3.0183e-16 -7.20158)
(3.85356e-18 1.14454e-15 -8.25731)
(4.64594e-17 7.98453e-17 -9.44126)
(4.75546e-16 3.47502e-16 -10.7397)
(-4.85867e-16 -3.64615e-16 -12.154)
(-5.8416e-16 -1.7241e-15 -13.6853)
(5.97428e-16 3.99778e-16 -15.3097)
(2.5893e-17 1.30283e-15 -17.0105)
(-5.49663e-16 -4.04895e-16 -18.7849)
(-1.07853e-16 -1.36117e-15 -20.6053)
(1.08229e-15 7.66976e-16 -22.4596)
(-3.71618e-16 3.92005e-16 -24.331)
(5.23482e-16 -1.06853e-16 -26.1986)
(5.8554e-16 8.43224e-16 -28.0568)
(4.92818e-19 8.43649e-16 -29.9127)
(-1.76535e-17 5.13665e-16 -31.7008)
(-5.54332e-16 -1.65316e-16 -33.4552)
(-2.09042e-16 -6.20366e-16 -35.2049)
(-1.10241e-15 -7.64252e-16 -36.8465)
(4.28462e-16 2.02505e-17 -38.4331)
(-7.43035e-17 -3.88241e-17 -40.0324)
(7.66916e-17 4.22387e-17 -41.418)
(-2.44093e-17 -1.59606e-16 -42.8007)
(8.38911e-17 8.74864e-17 -44.0019)
(-1.23557e-16 1.17907e-16 -45.0789)
(1.22216e-16 1.67347e-16 -45.9655)
(-4.37241e-16 -1.74399e-16 -46.6257)
(1.94939e-16 1.52014e-16 -46.9935)
(-6.49127e-17 4.28478e-17 -47.1232)
(-1.38814e-16 -8.41416e-17 -46.7917)
(-1.32407e-17 -2.19363e-16 -46.2733)
(-2.43666e-17 3.96975e-17 -45.2326)
(0 -0 -43.8453)
(-5.28481e-17 3.81787e-17 -42.2049)
(5.74416e-17 -2.32327e-17 -40.2205)
(2.47742e-17 -1.93491e-16 -38.1235)
(-2.60788e-17 -9.18333e-17 -35.7983)
(1.55639e-16 9.15368e-17 -33.3868)
(8.28979e-17 2.36e-16 -30.9163)
(-1.69552e-16 6.61581e-17 -28.4159)
(1.63609e-16 -1.71302e-16 -25.8966)
(-2.47538e-16 -1.08091e-16 -23.3293)
(3.41252e-16 -1.8897e-16 -20.7442)
(-7.63127e-17 -3.1451e-16 -17.9797)
(2.38116e-16 -1.87958e-16 -14.9713)
(-2.28303e-16 7.19497e-16 -12.6746)
(1.81726e-16 -1.35249e-16 -11.504)
(-4.60759e-17 -9.30608e-17 -10.6009)
(3.20834e-17 -7.47928e-18 -9.96301)
(3.03208e-17 -4.66324e-18 -9.70491)
(2.89692e-17 -2.40689e-18 -9.89165)
(-2.78829e-17 -2.09539e-17 -10.6252)
(2.35316e-17 -6.07542e-18 -11.7435)
(1.7002e-18 2.13143e-17 -12.8549)
(2.86243e-18 1.89475e-17 -13.9018)
(-2.3506e-17 7.09458e-18 -14.9213)
(-5.10534e-18 -3.80164e-17 -15.8917)
(4.55632e-19 8.81523e-18 -16.7761)
(4.00457e-18 2.65391e-17 -17.5446)
(-2.86199e-18 -1.83493e-17 -18.1781)
(1.91153e-17 5.82598e-19 -18.6686)
(-3.48046e-17 1.42802e-17 -19.0181)
(1.76795e-17 -4.15745e-18 -19.2376)
(-2.77953e-18 -2.44732e-17 -19.3431)
(9.83828e-19 1.43291e-17 -19.3542)
(8.49741e-18 5.43487e-18 -19.2916)
(-1.37726e-17 4.17745e-18 -19.1745)
(-1.05255e-18 -1.08541e-17 -19.0223)
(1.67936e-19 -4.62568e-18 -18.8529)
(5.4861e-18 5.43373e-18 -18.6803)
(5.13066e-18 1.53041e-20 -18.5158)
(-5.72042e-18 -1.70633e-20 -18.367)
(4.89362e-18 -2.10113e-19 -18.2386)
(-8.2738e-18 -4.63492e-19 -18.1326)
(5.25258e-18 2.39883e-19 -18.0466)
(-1.77412e-18 -5.29198e-21 -17.977)
(-4.01047e-19 -1.08605e-18 -17.9196)
(1.2037e-18 -1.26423e-18 -17.8692)
(-3.88303e-19 3.42462e-18 -17.8198)
(-1.06108e-18 -1.17049e-18 -17.7659)
(1.45003e-19 -6.57883e-19 -17.7026)
(-9.31733e-20 -9.22799e-19 -17.6256)
(-1.61432e-19 8.86274e-19 -17.5289)
(-8.25757e-20 4.22863e-19 -17.3941)
(-2.27303e-20 -7.62945e-20 -17.2306)
(0 -0 2.64515)
(-1.51066e-20 -0 -6.32631)
(-1.50705e-19 -1.59473e-17 -11.519)
(-8.41131e-19 2.88484e-17 -13.4285)
(1.7799e-17 6.4059e-18 -13.6163)
(-1.6877e-17 -3.56946e-17 -13.1426)
(3.89538e-19 -1.65212e-17 -12.5579)
(-6.48846e-19 2.73712e-17 -12.0316)
(-3.37094e-17 5.68608e-18 -11.5826)
(3.28304e-17 -5.41538e-18 -11.1996)
(6.52131e-17 1.04203e-16 -10.8688)
(-1.33543e-16 -8.88209e-17 -10.5793)
(6.63214e-18 -1.41729e-16 -10.3232)
(6.51964e-17 5.64032e-17 -10.095)
(-8.50979e-18 1.96564e-16 -9.88984)
(-6.41138e-17 -4.62778e-17 -9.70366)
(7.27757e-17 -1.40456e-16 -9.53283)
(-2.65094e-18 6.53805e-17 -9.37394)
(0 -0 -9.22396)
(0 -0 -9.08018)
(0 -0 -8.93992)
(0 -0 -8.80059)
(0 -0 -8.65973)
(-2.63052e-16 -0 -8.5149)
(3.94483e-16 -0 -8.36369)
(-1.31188e-16 -0 -8.20353)
(0 -0 -8.03194)
(0 -0 -7.84629)
(0 -0 -7.6435)
(-1.10775e-17 1.25159e-16 -7.42014)
(-1.34664e-18 1.39966e-17 -7.17203)
(3.60797e-17 -3.76225e-16 -6.89364)
(-9.44915e-18 8.34125e-17 -6.57694)
(-1.41508e-16 3.88531e-16 -6.20762)
(-7.88016e-17 -4.81467e-16 -5.81263)
(3.42575e-16 4.09196e-16 -5.56727)
(9.68345e-16 8.2273e-16 -5.63543)
(7.097e-17 -1.90059e-15 -6.05225)
(-4.41418e-16 -8.6214e-16 -6.8084)
(1.03622e-15 2.08332e-15 -7.91629)
(-3.02118e-16 1.1649e-16 -9.39731)
(-8.50961e-16 -1.54129e-15 -11.0009)
(7.16254e-17 -1.36847e-16 -12.646)
(3.36425e-17 -2.70853e-16 -14.3332)
(-1.26802e-15 1.93706e-16 -15.9935)
(1.06049e-15 2.18786e-15 -17.6445)
(2.39365e-15 3.71652e-16 -19.2669)
(1.07602e-15 1.1536e-15 -20.7959)
(1.22552e-15 7.78449e-16 -22.2752)
(6.52848e-16 -2.2112e-16 -23.6281)
(-1.80606e-15 -8.81879e-16 -24.855)
(-3.84035e-17 4.73134e-16 -25.9614)
(5.09518e-16 8.95438e-16 -26.8785)
(-6.38778e-16 -5.39464e-16 -27.6597)
(6.63029e-16 -3.03189e-16 -28.2324)
(6.3901e-16 -4.74241e-17 -28.6362)
(4.06121e-16 -6.63753e-17 -28.8433)
(1.44098e-16 1.23434e-16 -28.8481)
(-8.3411e-17 3.20216e-17 -28.6556)
(-8.72056e-17 1.17654e-16 -28.2801)
(-4.94385e-17 -2.34113e-16 -27.6784)
(-3.22819e-16 4.5919e-17 -26.8994)
(2.54993e-16 4.33668e-16 -25.9621)
(-1.92008e-16 6.60852e-16 -24.8547)
(2.24769e-16 6.0142e-17 -23.6598)
(1.08737e-17 -1.14274e-15 -22.3391)
(2.33409e-16 -2.24106e-16 -21.0053)
(-3.20966e-16 7.11123e-16 -19.5764)
(-3.6145e-16 -4.6417e-17 -18.1718)
(9.81812e-16 -4.2201e-16 -16.7513)
(-6.40778e-18 1.36377e-16 -15.3418)
(-1.40498e-15 5.75512e-16 -13.9906)
(7.77136e-16 4.48004e-16 -12.6516)
(2.15145e-17 1.1144e-15 -11.3775)
(1.07394e-15 -1.4186e-15 -10.1671)
(1.59639e-16 -9.51899e-16 -9.01308)
(-1.73615e-16 1.08074e-16 -7.93709)
(-4.26121e-17 8.45994e-16 -6.94423)
(-7.39232e-16 -1.57099e-16 -6.02731)
(-1.6079e-15 9.8706e-16 -5.19315)
(2.13327e-15 3.13109e-16 -4.44146)
(2.104e-16 -9.57286e-16 -3.76673)
(-7.32144e-16 4.97567e-16 -3.16522)
(1.19023e-16 -7.29634e-16 -2.63018)
(-2.24695e-17 -9.74129e-17 -2.15396)
(1.25366e-15 -7.73877e-16 -1.73377)
(5.59679e-16 -4.69202e-16 -1.36297)
(6.86175e-16 4.28111e-16 -1.03103)
(5.56022e-16 -1.12441e-15 -0.739688)
(1.11324e-15 -7.05115e-16 -0.485933)
(3.53396e-19 2.24293e-17 -0.26125)
(5.03603e-16 -6.25226e-16 -0.0691473)
(2.08346e-16 2.35465e-16 0.0925846)
(-4.66263e-16 2.6241e-16 0.227742)
(2.13407e-16 -5.5563e-16 0.334256)
(9.15159e-18 3.05618e-16 0.416415)
(-4.5568e-16 2.42469e-16 0.474195)
(2.2178e-16 5.76494e-16 0.510603)
(2.02723e-17 1.25663e-16 0.528032)
(-1.19574e-16 -7.39182e-16 0.529009)
(-5.92713e-17 3.63935e-17 0.514903)
(-6.99943e-17 1.4601e-16 0.487114)
(-3.01269e-17 -1.1545e-16 0.445697)
(2.59901e-17 -1.57236e-17 0.389964)
(5.03653e-17 -1.2985e-17 0.318854)
(1.07839e-16 2.99559e-17 0.227872)
(-1.99795e-18 -2.68287e-16 0.11399)
(6.23945e-16 4.14759e-16 -0.0292111)
(1.19514e-17 -1.76055e-18 -0.207346)
(-4.25646e-16 1.32353e-16 -0.426203)
(4.80792e-18 3.07297e-16 -0.693982)
(-1.6746e-17 -5.71143e-16 -1.0155)
(2.27027e-16 4.03748e-16 -1.39705)
(2.21908e-16 1.14456e-16 -1.8413)
(-2.34119e-16 -4.26764e-16 -2.36009)
(-4.56243e-16 -2.64092e-16 -2.94539)
(1.75036e-17 -6.30106e-16 -3.60957)
(-3.61213e-17 -6.79507e-16 -4.35565)
(-3.76549e-16 3.01187e-16 -5.17662)
(9.82951e-16 1.97665e-15 -6.07178)
(-5.54149e-16 -3.74456e-16 -7.04038)
(-5.4027e-16 -1.05193e-15 -8.07419)
(4.38485e-16 4.03424e-16 -9.17045)
(6.48597e-16 4.5119e-16 -10.323)
(5.03919e-16 -1.98639e-16 -11.5115)
(-1.56082e-15 -9.21377e-16 -12.7352)
(4.08043e-16 4.97297e-16 -13.98)
(-2.86621e-16 -1.089e-15 -15.2332)
(-1.27353e-16 6.79809e-17 -16.4911)
(1.25282e-15 6.69047e-16 -17.7432)
(4.76248e-16 2.71362e-16 -18.9534)
(1.23937e-15 6.41855e-16 -20.1563)
(6.69459e-16 1.49983e-15 -21.3299)
(9.6545e-16 3.87652e-16 -22.4177)
(-1.24101e-17 -6.89295e-16 -23.4871)
(1.17202e-16 5.78758e-16 -24.5075)
(2.32497e-16 6.76309e-17 -25.3809)
(8.53663e-17 8.58352e-18 -26.2585)
(-5.08025e-17 -8.09499e-17 -26.9724)
(8.7182e-17 -1.14689e-16 -27.6131)
(2.82858e-17 1.48507e-18 -28.1193)
(6.06944e-17 3.34827e-16 -28.488)
(1.3457e-16 -4.1299e-16 -28.704)
(3.49186e-17 2.03965e-16 -28.7742)
(-4.49601e-17 -2.93219e-17 -28.6305)
(-5.19006e-17 8.18639e-17 -28.3662)
(1.08821e-16 -1.00275e-17 -27.8465)
(-6.96935e-17 1.85187e-17 -27.1739)
(4.58698e-17 -2.66739e-17 -26.2849)
(-1.20863e-16 -1.21789e-16 -25.2113)
(-7.10042e-17 2.32637e-16 -23.9803)
(3.84462e-17 2.06387e-16 -22.5843)
(3.54563e-17 -1.55841e-16 -21.0481)
(-1.04803e-16 -3.60684e-17 -19.4178)
(3.77838e-16 -2.46474e-16 -17.7002)
(-1.92575e-16 8.00848e-17 -15.9246)
(2.50035e-17 7.00458e-17 -14.1215)
(-3.93416e-16 -5.62076e-17 -12.3164)
(1.22883e-16 3.43375e-16 -10.4961)
(-6.48577e-16 6.36108e-16 -8.71729)
(2.28582e-16 -5.41806e-16 -7.01865)
(-2.73644e-17 -2.36763e-16 -5.89316)
(5.83732e-20 2.48077e-16 -5.20196)
(-7.21008e-17 -4.94038e-17 -4.80576)
(-1.20598e-18 -8.1695e-18 -4.67086)
(-5.34911e-17 3.85532e-17 -4.80208)
(5.64529e-17 3.42103e-17 -5.17858)
(-2.68031e-17 -2.05751e-17 -5.71691)
(-3.34635e-19 -2.81164e-18 -6.30714)
(-1.66106e-18 -1.03029e-18 -6.88535)
(-1.17175e-19 2.53123e-18 -7.43291)
(3.27243e-18 2.00913e-17 -7.94207)
(-2.23842e-17 -3.58019e-18 -8.40259)
(1.74129e-17 -3.60688e-17 -8.80439)
(1.03278e-18 5.16775e-18 -9.13992)
(2.27422e-17 1.02299e-17 -9.40508)
(-1.98929e-17 2.33899e-17 -9.60025)
(-1.51746e-18 -5.4867e-17 -9.7286)
(3.31789e-18 5.18957e-17 -9.7968)
(-1.5545e-18 -2.30064e-17 -9.81464)
(-4.4167e-19 -4.56535e-18 -9.79222)
(6.60117e-18 1.82513e-17 -9.74049)
(-5.85681e-18 -8.37099e-20 -9.66995)
(-6.0949e-18 4.25421e-18 -9.58947)
(5.97132e-18 -1.80882e-17 -9.50657)
(1.78693e-18 3.17031e-19 -9.42692)
(5.56959e-19 1.09505e-17 -9.35421)
(-4.24566e-19 -8.08874e-18 -9.29044)
(-3.06223e-19 1.86755e-17 -9.23576)
(2.65957e-19 -1.86311e-17 -9.18849)
(1.69216e-18 9.70683e-18 -9.14596)
(-1.21798e-18 -3.10347e-19 -9.10529)
(-2.39779e-18 -1.05268e-18 -9.06325)
(2.65509e-18 -2.28649e-18 -9.01661)
(9.13243e-21 5.19309e-18 -8.96253)
(1.24332e-19 -1.17908e-18 -8.89869)
(7.92364e-20 2.30347e-18 -8.8234)
(2.45125e-19 -3.16713e-19 -8.73579)
(1.40757e-22 2.08476e-20 -8.63592)
(8.72954e-21 1.27228e-18 -8.55801)
(-2.30959e-20 7.82848e-18 4.99854)
(-2.76613e-19 -5.69679e-18 1.69586)
(5.05924e-19 -2.54149e-17 -1.76053)
(-3.6384e-19 1.9264e-17 -4.26915)
(1.7457e-17 1.96648e-17 -5.72858)
(-1.72734e-17 -1.56455e-17 -6.42309)
(0 -0 -6.67035)
(-3.58987e-17 3.1673e-17 -6.72375)
(3.67735e-17 -5.64618e-17 -6.70481)
(-3.29138e-17 -7.73324e-17 -6.65656)
(3.15841e-17 1.2075e-16 -6.59481)
(9.35063e-19 1.08576e-16 -6.52614)
(-1.61571e-19 -1.14424e-16 -6.45406)
(-1.32899e-16 -7.64393e-17 -6.38075)
(1.26176e-16 1.26799e-16 -6.30757)
(7.98247e-17 -1.13933e-16 -6.23515)
(-1.34855e-16 -2.45559e-17 -6.1637)
(5.88603e-17 1.38501e-16 -6.09312)
(3.35364e-18 -6.31518e-17 -6.02307)
(0 -0 -5.95316)
(1.29118e-16 -0 -5.88285)
(-1.29364e-16 -0 -5.81149)
(-8.38916e-18 1.23633e-16 -5.73834)
(-1.19654e-16 -1.01751e-16 -5.66253)
(1.37418e-16 -1.45751e-16 -5.58311)
(-9.13616e-18 1.2387e-16 -5.49908)
(0 -0 -5.40936)
(1.26665e-16 -0 -5.31288)
(-5.70677e-19 -0 -5.20861)
(-1.37441e-16 1.21735e-16 -5.09563)
(1.79594e-17 -1.03358e-16 -4.97309)
(2.63447e-16 -1.40481e-16 -4.8396)
(-4.04257e-16 1.14504e-16 -4.69325)
(2.34816e-16 -2.6998e-18 -4.52585)
(-1.83418e-17 2.53666e-16 -4.35684)
(-4.79131e-16 -5.47804e-16 -4.24526)
(7.07073e-16 -1.25565e-16 -4.25309)
(3.532e-16 1.72065e-15 -4.43313)
(-7.8717e-16 -2.37905e-16 -4.79943)
(-1.93355e-16 -1.07952e-15 -5.35504)
(-1.29335e-16 -1.96702e-16 -6.08031)
(-1.42256e-15 7.19909e-17 -6.84676)
(2.05507e-16 5.28436e-16 -7.64666)
(1.07134e-15 7.53968e-16 -8.49259)
(-1.53859e-15 -1.74165e-15 -9.35646)
(1.79064e-15 -1.73621e-15 -10.2439)
(-5.72772e-16 4.4301e-16 -11.1376)
(-5.20949e-17 6.05368e-16 -12.0222)
(7.51135e-17 -2.1088e-16 -12.8985)
(-4.24264e-17 1.46919e-15 -13.729)
(4.22083e-16 6.83173e-16 -14.5267)
(1.81642e-16 -1.30788e-15 -15.2671)
(5.32111e-18 -7.04516e-16 -15.9368)
(2.15804e-16 -2.88369e-16 -16.539)
(-5.64921e-16 -1.37647e-16 -17.0572)
(-3.00194e-16 4.87767e-17 -17.4942)
(-3.91214e-16 -8.88201e-17 -17.8377)
(-2.41346e-17 2.01943e-16 -18.0907)
(-1.08103e-16 2.04828e-16 -18.2193)
(1.55838e-16 -8.80979e-18 -18.2569)
(5.9185e-17 1.20206e-16 -18.146)
(-2.86628e-16 -6.01268e-17 -17.894)
(4.56073e-16 -3.79542e-16 -17.504)
(3.83766e-16 -7.00498e-16 -16.9543)
(-1.4958e-16 -3.86545e-16 -16.2992)
(-4.86105e-16 8.59193e-16 -15.5013)
(-8.97364e-16 3.96407e-16 -14.6216)
(1.47324e-16 8.86829e-17 -13.6426)
(2.29688e-17 -2.20236e-16 -12.6423)
(-6.71492e-16 3.91016e-16 -11.5951)
(2.41339e-17 1.31461e-15 -10.5302)
(1.31079e-15 -1.18892e-15 -9.49433)
(-1.05449e-15 -8.46635e-16 -8.46892)
(1.96034e-15 -1.23235e-15 -7.48964)
(8.54396e-16 -8.10591e-16 -6.56585)
(-1.78358e-16 1.88586e-15 -5.69659)
(8.76059e-16 -2.76848e-16 -4.89576)
(5.83007e-17 -8.81551e-17 -4.16838)
(1.55857e-15 7.891e-16 -3.50991)
(2.28816e-16 -2.32065e-15 -2.92216)
(7.47404e-16 -3.29351e-15 -2.40302)
(-5.22889e-17 2.34147e-15 -1.94738)
(6.72952e-16 -3.18122e-16 -1.55047)
(6.8935e-16 -1.42286e-15 -1.20692)
(-6.55864e-16 4.85311e-16 -0.911048)
(1.24683e-15 -9.11015e-16 -0.659935)
(-1.87408e-15 4.25462e-16 -0.448664)
(-1.2585e-15 -7.32389e-17 -0.273197)
(-5.98072e-16 1.06702e-15 -0.132994)
(-5.27566e-18 6.36992e-16 -0.0237176)
(1.161e-17 7.36861e-16 0.0564912)
(2.37909e-17 3.27529e-16 0.108077)
(-2.7325e-16 1.6046e-16 0.135592)
(2.79455e-16 -4.25342e-16 0.139273)
(-3.0937e-19 -3.34343e-17 0.12325)
(-8.43805e-17 2.95799e-16 0.0886111)
(2.51614e-17 -2.53005e-16 0.0400917)
(-1.4202e-17 -5.56881e-16 -0.0201233)
(7.44594e-16 5.27899e-17 -0.0868113)
(6.4534e-17 3.70619e-16 -0.158749)
(-5.5478e-17 -2.01564e-17 -0.23334)
(7.9994e-17 -9.55932e-17 -0.30772)
(1.08941e-18 5.17303e-17 -0.381999)
(-6.81968e-19 -5.01274e-17 -0.454613)
(-1.3997e-18 -1.15249e-16 -0.527485)
(-1.06707e-16 -1.6353e-17 -0.603725)
(-1.1355e-16 -1.53909e-16 -0.683963)
(-4.25207e-16 -1.069e-16 -0.774933)
(6.51907e-16 7.20745e-16 -0.877929)
(-4.40901e-16 -4.12417e-16 -0.999126)
(4.45676e-16 -1.03729e-16 -1.1421)
(-5.33253e-18 2.80854e-16 -1.31065)
(1.18886e-17 -2.90436e-16 -1.50787)
(2.38224e-17 2.73679e-16 -1.73547)
(5.91549e-18 3.35236e-16 -2)
(-3.89801e-18 -3.17263e-16 -2.29996)
(2.11677e-16 7.29639e-16 -2.64222)
(1.58068e-16 7.99154e-16 -3.02813)
(-1.02772e-15 -1.71627e-15 -3.45836)
(-4.03677e-16 -3.9665e-16 -3.93698)
(1.02947e-15 1.48681e-15 -4.46153)
(3.00681e-16 -9.59282e-16 -5.02998)
(-2.98358e-16 -5.47433e-16 -5.6451)
(-5.83987e-16 -5.16371e-16 -6.30497)
(-1.66109e-16 9.34096e-16 -6.99949)
(-7.97856e-16 1.48414e-16 -7.72892)
(5.24078e-16 -7.98812e-16 -8.48551)
(-7.4557e-16 -2.61519e-18 -9.26148)
(-5.55333e-16 -1.88333e-15 -10.0526)
(-8.0181e-16 -1.05737e-15 -10.8497)
(-2.50019e-16 1.09853e-16 -11.6328)
(-5.78998e-16 -4.69182e-16 -12.416)
(-4.08909e-16 -1.19283e-15 -13.1822)
(8.63287e-16 5.38093e-16 -13.8999)
(-7.65246e-16 1.39684e-16 -14.6035)
(-2.45345e-18 -2.93962e-16 -15.2661)
(3.85966e-18 -2.10041e-16 -15.8464)
(-1.85072e-16 1.91875e-17 -16.4133)
(-2.98219e-17 5.6747e-17 -16.8855)
(-2.10664e-16 -5.72503e-18 -17.306)
(1.43923e-16 3.40961e-16 -17.6501)
(8.44513e-16 4.59997e-17 -17.917)
(-8.39466e-17 6.5934e-17 -18.1063)
(1.48488e-17 2.33793e-16 -18.2162)
(-1.72091e-16 1.84186e-16 -18.229)
(2.34983e-17 -2.41134e-16 -18.1669)
(7.21838e-17 -7.17302e-17 -17.9869)
(-9.26472e-17 1.19179e-16 -17.7169)
(1.19023e-16 -1.30442e-18 -17.31)
(-1.90414e-16 2.48353e-16 -16.7754)
(7.16814e-17 -1.952e-16 -16.1053)
(1.47976e-16 -4.19806e-16 -15.2969)
(-2.01365e-16 2.39268e-18 -14.3545)
(6.20229e-17 7.55459e-17 -13.3041)
(-2.18985e-16 -8.72256e-17 -12.112)
(-1.51101e-16 4.06115e-16 -10.856)
(3.75391e-16 -1.3766e-16 -9.61808)
(-1.71785e-16 1.29384e-16 -8.33712)
(-9.47041e-18 -2.63026e-17 -7.10441)
(4.86667e-16 -2.34252e-16 -5.96808)
(1.49412e-16 -1.73334e-16 -4.93956)
(-2.77104e-16 2.92847e-16 -4.25448)
(3.19261e-17 -2.43299e-17 -3.94035)
(3.12168e-17 -1.16256e-18 -3.87037)
(-3.17733e-17 1.02835e-18 -3.97051)
(-3.09685e-17 -1.60057e-17 -4.20413)
(-1.05957e-17 -7.6653e-17 -4.5303)
(2.97594e-17 4.2705e-17 -4.88334)
(2.48263e-17 1.527e-18 -5.20018)
(2.78056e-18 1.9501e-17 -5.4569)
(-2.15844e-17 1.57335e-17 -5.66144)
(2.11867e-18 -2.16261e-17 -5.82898)
(4.28462e-17 2.64538e-18 -5.97113)
(-4.36046e-17 -9.63677e-20 -6.09423)
(-2.09209e-18 -2.04598e-17 -6.20087)
(-2.08057e-17 -1.05789e-17 -6.29138)
(3.92276e-17 5.89689e-17 -6.36522)
(-2.13188e-17 -6.71424e-18 -6.4218)
(8.61786e-19 -4.13652e-17 -6.4612)
(1.10289e-18 1.61036e-17 -6.4846)
(-9.92795e-18 1.35213e-18 -6.49406)
(7.88436e-18 4.02113e-18 -6.49228)
(2.22461e-18 1.0779e-17 -6.48216)
(1.09851e-17 -1.04897e-17 -6.46631)
(-1.06718e-17 -1.46019e-17 -6.44693)
(-6.10185e-18 1.81854e-18 -6.42571)
(6.9653e-18 3.43472e-19 -6.40371)
(-4.8978e-18 1.84255e-18 -6.38137)
(4.80347e-18 -8.88792e-19 -6.35878)
(-1.61209e-18 -2.72849e-18 -6.33539)
(2.6225e-18 -4.41759e-18 -6.31051)
(1.75154e-18 7.09532e-18 -6.28342)
(-1.38142e-18 3.4582e-18 -6.25314)
(2.05656e-19 -8.24715e-18 -6.21873)
(8.7939e-20 1.12167e-18 -6.17934)
(-4.15233e-19 -1.89113e-18 -6.13418)
(1.17121e-19 -2.75594e-18 -6.08282)
(1.75685e-19 -1.04351e-18 -6.02583)
(1.87571e-19 1.48371e-18 -5.96536)
(3.53788e-20 -1.35172e-18 -5.94318)
(0 -0 3.46869)
(8.33883e-18 -0 2.52691)
(-8.16342e-18 -1.54855e-17 1.15119)
(3.74186e-19 1.11864e-17 -0.438234)
(-5.23623e-19 1.98153e-17 -1.67205)
(2.28884e-19 -1.55163e-17 -2.65589)
(3.25295e-17 -0 -3.31656)
(-3.26106e-17 -0 -3.79145)
(1.34309e-18 -0 -4.13607)
(-2.89946e-18 -0 -4.39418)
(-6.80993e-17 6.19683e-17 -4.5919)
(6.95184e-17 -4.68636e-17 -4.74418)
(6.80027e-17 -1.54725e-17 -4.86081)
(-1.35055e-18 -4.66952e-17 -4.94924)
(4.23877e-19 -2.94926e-17 -5.01534)
(-6.96972e-17 2.00005e-16 -5.06362)
(-6.48346e-17 -1.09283e-16 -5.09759)
(7.07189e-17 -7.58305e-17 -5.11998)
(-3.27463e-18 6.1664e-17 -5.13295)
(7.03871e-17 -1.21778e-16 -5.13822)
(-7.02054e-17 9.47138e-17 -5.13715)
(-8.20409e-18 1.49074e-16 -5.13071)
(-2.74e-19 -1.26679e-18 -5.1196)
(1.46804e-17 -9.47206e-17 -5.10422)
(1.26783e-16 -1.46991e-16 -5.0847)
(-1.33525e-16 1.20969e-16 -5.06093)
(-1.14125e-16 -1.19464e-16 -5.03268)
(1.66172e-18 -2.39598e-17 -4.99956)
(2.26456e-16 2.39472e-16 -4.96117)
(-1.34879e-16 1.42127e-16 -4.91714)
(3.80255e-17 -3.34287e-16 -4.86721)
(-1.26249e-16 -4.45695e-17 -4.81071)
(1.08564e-16 1.48763e-16 -4.74696)
(1.15449e-16 -1.98739e-17 -4.66452)
(-1.47909e-16 2.46549e-16 -4.58276)
(2.81365e-16 -1.87171e-16 -4.52676)
(-9.65911e-16 -7.45026e-16 -4.49894)
(-9.26501e-16 -8.8216e-16 -4.52608)
(1.07869e-15 6.29396e-16 -4.62457)
(4.26007e-16 1.03047e-15 -4.80095)
(-1.39014e-16 1.34653e-15 -5.04527)
(1.02182e-15 -3.9078e-16 -5.30882)
(4.58656e-16 -2.62786e-15 -5.60042)
(-1.02996e-15 4.35325e-16 -5.93052)
(4.92812e-16 1.45749e-15 -6.29534)
(-1.09373e-15 -4.11793e-16 -6.69816)
(-8.16539e-16 2.55059e-17 -7.12618)
(-4.84684e-16 -2.71116e-16 -7.5928)
(-7.6828e-16 -1.48989e-16 -8.08813)
(-4.78364e-16 -1.27612e-15 -8.55077)
(1.30946e-15 2.85811e-16 -9.036)
(-6.5268e-16 7.49724e-16 -9.53373)
(-2.1428e-17 8.14574e-16 -10.0086)
(-8.28618e-16 -1.26591e-16 -10.4624)
(-7.87863e-17 9.20773e-17 -10.8982)
(-9.8827e-18 -2.23636e-16 -11.3062)
(-5.15811e-16 -3.13562e-16 -11.6819)
(-1.41421e-16 -1.50449e-16 -12.0257)
(8.67784e-18 -5.66752e-17 -12.3079)
(8.00144e-17 -5.48647e-17 -12.5478)
(-1.52603e-16 4.45719e-17 -12.703)
(3.17899e-16 -1.84822e-16 -12.7668)
(-4.51363e-16 -6.31648e-17 -12.7296)
(1.71237e-16 8.40424e-16 -12.569)
(-7.22583e-16 1.04035e-15 -12.3052)
(7.86328e-16 -5.61211e-16 -11.912)
(-2.10597e-16 -2.57965e-16 -11.427)
(1.49474e-16 -1.59928e-16 -10.8456)
(-5.47631e-16 6.44632e-16 -10.1994)
(4.26112e-16 2.42519e-17 -9.4996)
(2.59463e-16 -1.47355e-15 -8.76521)
(5.59503e-16 2.20903e-16 -8.03233)
(-5.56192e-16 7.06347e-16 -7.30148)
(-8.87155e-17 -1.18254e-15 -6.60007)
(-9.7487e-16 1.481e-15 -5.93982)
(4.32368e-17 -7.61695e-16 -5.32531)
(7.40895e-16 -7.74028e-16 -4.76669)
(3.74516e-17 -1.07714e-16 -4.26674)
(1.54279e-15 -1.90541e-15 -3.82188)
(1.41466e-15 -3.37647e-16 -3.43109)
(-2.9481e-15 3.54497e-15 -3.09012)
(-6.9122e-16 -1.93793e-16 -2.7929)
(7.28204e-16 -1.39077e-15 -2.53452)
(-7.38803e-16 1.25971e-15 -2.30977)
(3.11445e-18 -7.79461e-16 -2.11454)
(-1.30237e-15 2.28304e-15 -1.9471)
(1.26834e-15 2.43616e-15 -1.80437)
(-2.73143e-16 -3.33554e-16 -1.68561)
(-5.44897e-16 -1.87173e-15 -1.5924)
(-1.72216e-15 2.09338e-16 -1.52169)
(-2.72341e-16 1.48188e-16 -1.47313)
(1.66465e-17 1.12701e-17 -1.44792)
(2.78789e-16 -1.15708e-16 -1.44124)
(-3.94796e-17 -3.22999e-16 -1.45255)
(-4.59651e-16 2.05543e-16 -1.4805)
(-2.34826e-17 2.85935e-16 -1.52092)
(2.36684e-16 -1.2178e-16 -1.57401)
(-7.24361e-16 -4.58312e-17 -1.6337)
(-3.96749e-16 1.17473e-16 -1.70047)
(-2.30317e-17 2.19263e-16 -1.77053)
(1.10726e-16 -1.97923e-17 -1.84527)
(-1.06808e-16 7.88008e-17 -1.91892)
(6.69589e-17 -1.90089e-17 -1.99271)
(-6.58463e-19 -1.57823e-17 -2.06419)
(1.07163e-18 1.13435e-16 -2.13455)
(-2.22069e-16 1.31916e-16 -2.20441)
(1.6991e-18 1.31174e-16 -2.27253)
(-2.14461e-16 -7.0862e-16 -2.34128)
(-2.07813e-16 -8.57053e-17 -2.4103)
(4.17038e-16 7.00574e-16 -2.48242)
(-1.53316e-17 -2.62062e-16 -2.55694)
(6.77345e-18 -1.36114e-17 -2.63608)
(2.20361e-18 2.69421e-16 -2.72209)
(-2.30184e-16 -8.80243e-17 -2.81436)
(4.22845e-16 -5.85509e-17 -2.91938)
(1.0369e-17 -2.23827e-16 -3.03482)
(-6.67608e-16 -1.30499e-15 -3.16724)
(3.63409e-16 8.22806e-16 -3.31933)
(9.01474e-16 2.19819e-15 -3.49146)
(-5.89744e-16 -1.3852e-15 -3.68986)
(9.99409e-16 -6.99825e-16 -3.91659)
(-7.52094e-16 4.27359e-16 -4.17124)
(-4.91145e-16 1.08455e-15 -4.45825)
(-2.66756e-16 1.75185e-16 -4.77899)
(-6.57634e-16 -8.75796e-16 -5.12937)
(1.58798e-15 6.01482e-16 -5.51107)
(-1.25243e-16 2.64189e-17 -5.92065)
(4.57159e-16 8.38314e-16 -6.35391)
(-5.00159e-16 6.65898e-16 -6.80787)
(-8.24287e-16 -2.53191e-16 -7.2767)
(-4.49993e-16 -4.20094e-16 -7.74858)
(-5.49565e-17 6.23052e-17 -8.22832)
(-7.37485e-16 7.0855e-17 -8.70553)
(-5.90229e-16 -7.95817e-16 -9.16097)
(-6.67923e-17 3.11679e-16 -9.61092)
(-1.24355e-16 -1.64886e-16 -10.0385)
(-4.98627e-16 -6.94847e-17 -10.426)
(-2.03636e-16 2.16992e-16 -10.8015)
(1.58222e-16 -3.29091e-17 -11.1306)
(6.52053e-18 3.17509e-17 -11.4305)
(3.59006e-16 -1.17138e-15 -11.694)
(-1.88182e-16 -4.1334e-16 -11.9214)
(-5.42068e-17 3.11238e-17 -12.1159)
(2.24859e-16 2.57655e-16 -12.2759)
(3.02206e-16 1.32976e-16 -12.3984)
(1.08753e-16 -4.54781e-17 -12.4859)
(-1.06196e-16 2.28635e-17 -12.5223)
(6.76413e-17 1.03954e-16 -12.5111)
(-5.49728e-17 -5.95951e-17 -12.4227)
(2.62927e-16 7.33164e-17 -12.2491)
(2.74152e-17 -1.91638e-16 -11.9799)
(-2.58443e-16 2.91617e-16 -11.5968)
(-1.71609e-17 2.08438e-16 -11.1039)
(6.51643e-17 -1.6536e-16 -10.4935)
(-1.64284e-16 3.50309e-16 -9.74328)
(1.03898e-16 -2.87315e-16 -8.95695)
(-2.82124e-16 -1.07415e-16 -8.1342)
(2.96861e-16 6.33299e-17 -7.2537)
(-2.58162e-17 -1.77691e-16 -6.456)
(-3.09639e-17 -1.29653e-16 -5.75594)
(-1.51353e-16 2.15775e-16 -5.27545)
(1.34763e-16 -4.29504e-17 -5.04541)
(2.69446e-17 -5.99997e-17 -5.09514)
(1.17211e-16 -5.59717e-17 -5.30808)
(-2.25339e-17 5.419e-17 -5.59946)
(3.19084e-17 1.68022e-17 -5.90829)
(-7.82207e-17 -2.69349e-19 -6.19092)
(-5.23008e-18 -5.97586e-17 -6.39738)
(5.34296e-18 -4.69076e-18 -6.49758)
(2.56842e-17 3.60714e-17 -6.50147)
(-4.1403e-19 2.32939e-17 -6.44079)
(-8.07042e-18 -4.11415e-17 -6.34811)
(-5.60299e-18 -7.92396e-18 -6.24893)
(5.45449e-18 4.73969e-17 -6.15972)
(4.54978e-18 -1.15109e-17 -6.08954)
(-4.2348e-17 9.02024e-19 -6.04182)
(3.5289e-17 -1.56818e-17 -6.01595)
(1.72302e-17 -1.62197e-17 -6.0088)
(-1.23515e-17 4.42746e-17 -6.01594)
(-4.43642e-18 -1.25379e-17 -6.03263)
(9.14765e-18 4.20057e-18 -6.0544)
(-6.73e-18 -2.98923e-18 -6.07737)
(6.8373e-19 -9.0343e-18 -6.0986)
(5.58516e-18 -8.31526e-18 -6.11576)
(-1.17254e-17 2.0674e-17 -6.1271)
(8.05585e-19 -2.65758e-18 -6.13141)
(-1.7191e-18 -5.05224e-18 -6.12803)
(-1.33335e-18 4.39053e-18 -6.11683)
(3.39017e-18 1.09432e-17 -6.09831)
(-4.15849e-18 -1.83497e-17 -6.07348)
(-3.83577e-18 -1.74137e-18 -6.04407)
(3.88335e-18 -5.08635e-18 -6.01183)
(-1.21138e-18 7.32407e-18 -5.97796)
(-1.27717e-18 -7.32765e-18 -5.9437)
(7.31933e-20 8.23484e-18 -5.90989)
(7.61421e-19 2.52769e-18 -5.87685)
(-6.8473e-19 2.95569e-18 -5.84453)
(-7.3102e-20 -2.13993e-18 -5.81302)
(2.77796e-19 -5.25842e-18 -5.78151)
(-1.02599e-19 1.85525e-19 -5.79828)
(0 -0 2.33754)
(0 -0 2.06004)
(1.384e-19 -1.56371e-17 1.54329)
(5.2375e-19 1.12715e-17 0.844516)
(-7.70909e-19 1.9954e-17 0.00658972)
(7.74551e-19 -4.63544e-17 -0.714338)
(3.26633e-17 2.20451e-17 -1.36674)
(-6.70185e-17 7.02018e-17 -1.94845)
(3.4157e-17 -8.34622e-17 -2.43384)
(1.01251e-18 -1.72892e-17 -2.84706)
(-2.32871e-18 6.99543e-17 -3.19995)
(6.6821e-17 -3.06838e-17 -3.49806)
(-1.27256e-16 -6.07327e-17 -3.74831)
(1.29935e-16 -1.63661e-17 -3.95783)
(-1.3944e-16 1.82069e-16 -4.13321)
(6.749e-17 -2.79973e-17 -4.28011)
(9.00873e-18 -1.37555e-16 -4.40325)
(-5.85069e-18 6.05817e-17 -4.50667)
(3.35067e-18 -5.97751e-17 -4.59377)
(5.88823e-17 4.4069e-17 -4.6675)
(-7.19587e-17 7.55798e-17 -4.7303)
(9.79564e-18 -5.98736e-17 -4.78422)
(-1.30473e-16 1.18045e-16 -4.83088)
(1.4442e-16 -2.05527e-16 -4.87158)
(-4.40428e-18 -6.05653e-17 -4.90723)
(-2.75774e-17 3.82832e-16 -4.93844)
(7.62486e-18 -8.92031e-17 -4.96554)
(2.16508e-17 -3.50446e-16 -4.98865)
(-1.26258e-16 6.00864e-17 -5.00774)
(9.49135e-17 3.76862e-16 -5.02264)