/*--------------------------------*- C++ -*----------------------------------*\
| =========                 |                                                 |
| \\      /  F ield         | OpenFOAM: The Open Source CFD Toolbox           |
|  \\    /   O peration     | Version:  2506                                  |
|   \\  /    A nd           | Website:  www.openfoam.com                      |
|    \\/     M anipulation  |                                                 |
\*---------------------------------------------------------------------------*/
FoamFile
{
    version     2.0;
    format      ascii;
    arch        "LSB;label=32;scalar=64";
    class       volScalarField;
    location    "4";
    object      p;
}
// * * * * * * * * * * * * * * * * * * * * * * * * * * * * * * * * * * * * * //

dimensions      [0 2 -2 0 0 0 0];

internalField   nonuniform List<scalar> 
4000
(
0.00454793
0.00447218
0.00442241
0.00439223
0.00436728
0.00434416
0.00432236
0.00430132
0.00428065
0.00426019
0.00423987
0.00421967
0.00419958
0.00417957
0.00415966
0.00413984
0.0041201
0.00410046
0.00408092
0.00406149
0.00404218
0.00402299
0.00400395
0.00398508
0.0039664
0.00394793
0.00392971
0.00391178
0.00389419
0.003877
0.00386031
0.00384422
0.00382891
0.00381442
0.00380187
0.00379098
0.00377996
0.00376812
0.00375521
0.00374064
0.00372371
0.00370275
0.00367799
0.00365053
0.00362035
0.00358764
0.00355249
0.0035148
0.00347532
0.00343388
0.0033908
0.0033467
0.00330131
0.00325593
0.00320992
0.00316461
0.00311978
0.00307591
0.00303396
0.00299263
0.00295404
0.00291679
0.00288141
0.00284798
0.00281575
0.00278545
0.00275608
0.00272821
0.00270121
0.00267525
0.00265024
0.00262595
0.00260259
0.00257995
0.00255807
0.00253702
0.00251673
0.00249722
0.00247852
0.0024606
0.00244344
0.00242703
0.00241133
0.0023963
0.00238193
0.00236815
0.00235495
0.00234231
0.00233018
0.00231855
0.00230743
0.00229675
0.00228651
0.00227672
0.0022673
0.0022583
0.00224962
0.00224129
0.00223322
0.00222544
0.00221782
0.00221039
0.00220305
0.00219575
0.00218848
0.00218112
0.00217366
0.00216601
0.00215813
0.00214995
0.00214143
0.00213249
0.00212308
0.00211311
0.00210254
0.00209124
0.00207916
0.00206621
0.00205227
0.00203729
0.00202113
0.00200371
0.001985
0.00196493
0.00194342
0.00192045
0.00189601
0.00187007
0.00184266
0.00181375
0.00178331
0.0017515
0.00171825
0.00168345
0.00164738
0.00160999
0.00157099
0.00153115
0.0014899
0.00144779
0.00140483
0.0013613
0.00131752
0.00127395
0.00123054
0.00118861
0.00114699
0.00110785
0.00107017
0.00103442
0.00100106
0.000969046
0.000939608
0.000911379
0.000885315
0.000860309
0.000837166
0.000815239
0.00079496
0.000776451
0.00076182
0.000746737
0.000732088
0.000717838
0.000704004
0.000689887
0.000675315
0.000659095
0.000641775
0.000623836
0.000605272
0.000586087
0.000566321
0.000546031
0.000525292
0.000504192
0.000482825
0.000461284
0.000439655
0.00041801
0.000396406
0.000374884
0.000353495
0.000332267
0.00031122
0.000290359
0.000269685
0.000249186
0.000228849
0.000208644
0.000188555
0.00016856
0.000148631
0.000128746
0.000108886
8.90361e-05
6.91878e-05
4.93354e-05
2.94781e-05
9.69752e-06
0.00449874
0.00445572
0.00441857
0.0043919
0.00436841
0.00434564
0.00432375
0.00430259
0.00428185
0.00426135
0.00424101
0.00422081
0.00420073
0.00418074
0.00416086
0.00414107
0.00412138
0.00410178
0.00408228
0.0040629
0.00404363
0.00402449
0.0040055
0.00398667
0.00396802
0.00394959
0.0039314
0.00391349
0.00389591
0.00387872
0.00386199
0.00384581
0.00383032
0.00381553
0.00380206
0.00378963
0.00377683
0.00376317
0.00374837
0.00373186
0.00371298
0.0036904
0.00366457
0.00363634
0.00360566
0.00357268
0.00353753
0.00350016
0.0034613
0.0034208
0.00337897
0.00333639
0.00329292
0.00324949
0.00320575
0.00316266
0.00312021
0.00307849
0.00303835
0.00299896
0.00296178
0.00292589
0.00289159
0.00285901
0.0028276
0.00279786
0.00276904
0.00274156
0.00271494
0.00268929
0.00266446
0.00264031
0.00261698
0.00259434
0.00257239
0.00255119
0.0025307
0.00251094
0.00249192
0.00247365
0.00245611
0.00243929
0.00242318
0.00240773
0.00239292
0.00237871
0.00236506
0.00235196
0.00233937
0.00232725
0.00231561
0.0023044
0.00229361
0.00228322
0.0022732
0.00226355
0.00225422
0.0022452
0.00223645
0.00222793
0.0022196
0.00221142
0.00220334
0.0021953
0.00218727
0.00217917
0.00217097
0.00216258
0.00215397
0.00214506
0.00213579
0.00212611
0.00211593
0.00210518
0.00209379
0.00208164
0.00206867
0.00205479
0.00203989
0.0020239
0.00200675
0.00198835
0.00196866
0.00194763
0.00192521
0.00190139
0.00187616
0.00184952
0.0018215
0.00179209
0.00176129
0.00172921
0.00169582
0.00166106
0.00162517
0.00158809
0.00154971
0.00151059
0.00147036
0.00142949
0.00138804
0.00134628
0.00130451
0.00126307
0.00122199
0.00118231
0.00114326
0.00110618
0.00107041
0.00103625
0.00100413
0.000973335
0.000944739
0.000917328
0.000891808
0.000867274
0.000844379
0.000822627
0.000802279
0.000783232
0.000767208
0.000750936
0.000735085
0.000719645
0.000704516
0.000689286
0.000673698
0.000656977
0.000639467
0.000621449
0.000602872
0.000583717
0.000564013
0.000543807
0.00052317
0.000502182
0.000480932
0.000459507
0.000437984
0.000416436
0.000394924
0.00037351
0.000352222
0.000331084
0.000310117
0.000289332
0.000268728
0.000248298
0.000228036
0.000207917
0.000187913
0.000167999
0.000148152
0.00012835
0.000108574
8.88083e-05
6.90416e-05
4.92663e-05
2.94735e-05
9.69863e-06
0.00447506
0.00444632
0.00441621
0.00439175
0.00436891
0.00434657
0.00432484
0.00430369
0.00428291
0.00426238
0.00424202
0.00422181
0.00420172
0.00418174
0.00416187
0.00414209
0.00412241
0.00410283
0.00408336
0.004064
0.00404475
0.00402563
0.00400666
0.00398784
0.00396921
0.00395078
0.00393258
0.00391465
0.00389703
0.00387978
0.00386294
0.00384659
0.00383082
0.0038156
0.00380126
0.00378752
0.00377331
0.0037582
0.00374186
0.0037237
0.00370321
0.00367954
0.00365311
0.00362451
0.0035937
0.00356081
0.00352598
0.0034893
0.00345131
0.00341196
0.00337152
0.0033305
0.00328887
0.00324727
0.00320558
0.00316439
0.00312373
0.0030838
0.00304516
0.00300727
0.00297109
0.00293608
0.00290245
0.0028703
0.0028393
0.00280974
0.00278112
0.00275373
0.00272719
0.00270156
0.00267675
0.00265262
0.00262925
0.00260653
0.00258447
0.00256309
0.00254238
0.00252236
0.00250304
0.00248443
0.00246653
0.00244933
0.00243281
0.00241696
0.00240175
0.00238713
0.00237309
0.00235958
0.00234658
0.00233405
0.00232198
0.00231033
0.00229908
0.00228822
0.00227772
0.00226756
0.00225771
0.00224816
0.00223885
0.00222977
0.00222088
0.00221213
0.00220347
0.00219486
0.00218625
0.00217757
0.00216878
0.00215982
0.00215062
0.00214111
0.00213124
0.00212092
0.0021101
0.00209867
0.00208657
0.00207367
0.00205993
0.00204525
0.00202952
0.00201269
0.00199469
0.00197545
0.00195494
0.00193313
0.00190997
0.00188548
0.00185966
0.00183252
0.00180408
0.00177437
0.00174339
0.00171124
0.00167791
0.00164339
0.00160786
0.00157131
0.00153371
0.00149548
0.00145641
0.00141687
0.00137696
0.00133692
0.00129699
0.00125746
0.00121842
0.00118041
0.00114309
0.00110739
0.00107292
0.00103986
0.00100857
0.000978517
0.00095036
0.000923356
0.000898024
0.000873715
0.000850851
0.000829067
0.000808569
0.000788989
0.000771652
0.000754277
0.000737371
0.0007209
0.000704759
0.000688571
0.000672201
0.000655075
0.000637404
0.000619329
0.000600751
0.000581629
0.000561982
0.000541853
0.000521303
0.000500412
0.000479263
0.000457941
0.000436523
0.000415077
0.000393663
0.000372326
0.000351104
0.000330033
0.000309132
0.000288411
0.000267874
0.000247513
0.000227309
0.000207253
0.000187319
0.000167479
0.00014771
0.000127987
0.00010829
8.8602e-05
6.89087e-05
4.91988e-05
2.9457e-05
9.67688e-06
0.00446353
0.0044397
0.00441333
0.0043907
0.00436886
0.00434689
0.00432546
0.00430446
0.00428374
0.00426323
0.00424289
0.00422268
0.0042026
0.00418263
0.00416276
0.004143
0.00412333
0.00410376
0.0040843
0.00406494
0.0040457
0.00402658
0.0040076
0.00398877
0.00397011
0.00395164
0.00393339
0.00391539
0.00389766
0.00388026
0.00386322
0.00384659
0.00383042
0.00381464
0.00379948
0.00378468
0.00376928
0.0037529
0.00373523
0.00371577
0.00369415
0.00366972
0.00364288
0.00361408
0.00358329
0.00355066
0.00351635
0.00348049
0.00344347
0.00340537
0.00336644
0.00332704
0.00328721
0.0032474
0.00320759
0.00316816
0.0031292
0.00309084
0.00305348
0.00301678
0.00298138
0.00294702
0.00291383
0.00288194
0.00285111
0.00282159
0.002793
0.00276559
0.00273901
0.00271332
0.00268846
0.00266426
0.00264081
0.00261799
0.0025958
0.00257427
0.00255336
0.00253311
0.00251353
0.00249463
0.00247641
0.00245887
0.00244201
0.00242581
0.00241024
0.00239527
0.00238087
0.00236701
0.00235364
0.00234073
0.00232826
0.0023162
0.00230452
0.0022932
0.00228222
0.00227156
0.00226119
0.0022511
0.00224125
0.00223161
0.00222214
0.00221281
0.00220357
0.00219438
0.00218519
0.00217592
0.00216656
0.002157
0.00214721
0.00213711
0.00212663
0.00211568
0.0021042
0.00209208
0.00207926
0.00206562
0.0020511
0.00203562
0.00201907
0.00200143
0.00198262
0.0019626
0.00194135
0.00191885
0.00189508
0.00187007
0.00184382
0.00181635
0.00178769
0.00175788
0.00172693
0.00169493
0.0016619
0.00162783
0.00159289
0.00155711
0.00152048
0.00148332
0.00144554
0.00140742
0.00136908
0.0013307
0.00129248
0.00125465
0.00121727
0.00118071
0.00114484
0.00111023
0.00107671
0.00104438
0.00101357
0.000983902
0.000955884
0.000928997
0.000903622
0.000879374
0.000856356
0.000834353
0.000813607
0.000793553
0.000775359
0.000757044
0.000739189
0.000721793
0.000704789
0.000687829
0.00067089
0.000653413
0.000635571
0.000617434
0.000598844
0.000579733
0.000560114
0.000540024
0.000519522
0.000498685
0.000477596
0.000456337
0.000434985
0.000413605
0.000392255
0.000370984
0.000349832
0.000328831
0.000308
0.00028735
0.000266886
0.0002466
0.00022648
0.000206509
0.00018666
0.000166909
0.000147227
0.000127592
0.000107978
8.8369e-05
6.8748e-05
4.90999e-05
2.94088e-05
9.64533e-06
0.00445635
0.00443422
0.00441025
0.00438908
0.00436826
0.004347
0.0043259
0.00430505
0.00428445
0.00426401
0.0042437
0.00422352
0.00420345
0.00418348
0.00416362
0.00414385
0.00412418
0.00410461
0.00408514
0.00406578
0.00404653
0.00402739
0.00400838
0.00398951
0.00397079
0.00395225
0.0039339
0.00391577
0.00389788
0.00388026
0.00386295
0.00384596
0.00382932
0.00381293
0.00379699
0.00378124
0.00376475
0.00374721
0.00372838
0.00370782
0.00368528
0.00366026
0.00363312
0.00360422
0.00357358
0.00354134
0.00350768
0.00347273
0.00343678
0.0034
0.00336263
0.00332486
0.00328678
0.00324873
0.00321071
0.00317297
0.00313561
0.00309871
0.00306255
0.00302694
0.00299231
0.00295853
0.00292574
0.00289405
0.00286332
0.00283378
0.00280514
0.00277759
0.00275089
0.00272507
0.00270007
0.00267574
0.00265216
0.00262919
0.00260685
0.00258514
0.00256404
0.00254356
0.00252372
0.00250454
0.00248601
0.00246816
0.00245097
0.00243444
0.00241854
0.00240323
0.0023885
0.0023743
0.00236058
0.00234732
0.00233449
0.00232203
0.00230993
0.00229818
0.00228672
0.00227558
0.00226469
0.00225406
0.00224364
0.00223344
0.00222338
0.00221347
0.00220363
0.00219384
0.00218405
0.00217418
0.00216421
0.00215405
0.00214365
0.00213292
0.00212178
0.00211017
0.00209799
0.00208514
0.00207157
0.00205715
0.00204182
0.00202552
0.00200816
0.00198971
0.00197013
0.00194937
0.00192745
0.00190436
0.00188009
0.00185467
0.00182812
0.00180047
0.00177176
0.00174202
0.00171126
0.00167958
0.00164703
0.00161358
0.00157938
0.0015445
0.00150895
0.00147297
0.00143654
0.00139986
0.00136306
0.00132626
0.00128964
0.00125334
0.00121743
0.00118219
0.00114753
0.00111384
0.00108107
0.00104928
0.00101877
0.000989298
0.000961278
0.000934338
0.000908809
0.000884405
0.000861122
0.000838825
0.000817745
0.000797204
0.000778386
0.000759266
0.000740564
0.000722347
0.000704607
0.000686995
0.000669589
0.000651774
0.00063374
0.00061552
0.000596888
0.000577754
0.000558129
0.000538048
0.00051757
0.000496767
0.000475724
0.000454522
0.000433233
0.000411924
0.00039065
0.000369458
0.00034839
0.000327473
0.000306727
0.000286165
0.00026579
0.000245597
0.000225572
0.000205694
0.00018594
0.000166282
0.000146693
0.000127147
0.000107621
8.8093e-05
6.85475e-05
4.89668e-05
2.93365e-05
9.61431e-06
0.00445151
0.00443006
0.00440755
0.00438755
0.00436757
0.00434691
0.00432615
0.00430555
0.00428511
0.00426475
0.00424449
0.00422433
0.00420427
0.00418431
0.00416444
0.00414467
0.00412499
0.0041054
0.00408591
0.00406652
0.00404723
0.00402805
0.00400899
0.00399004
0.00397124
0.00395258
0.00393409
0.00391579
0.00389769
0.0038798
0.00386216
0.00384475
0.00382761
0.00381059
0.00379389
0.00377724
0.00375976
0.00374118
0.00372132
0.00369983
0.00367656
0.00365108
0.00362375
0.00359488
0.00356449
0.00353275
0.00349983
0.00346585
0.00343107
0.00339564
0.00335976
0.00332358
0.00328719
0.00325081
0.00321447
0.00317833
0.00314247
0.00310694
0.00307194
0.00303737
0.0030035
0.00297031
0.00293792
0.00290645
0.00287581
0.00284622
0.00281747
0.00278974
0.00276285
0.00273682
0.0027116
0.00268707
0.00266329
0.00264013
0.00261759
0.00259568
0.00257435
0.00255364
0.00253355
0.00251409
0.00249527
0.00247711
0.00245961
0.00244275
0.00242653
0.00241091
0.00239586
0.00238135
0.00236731
0.00235372
0.00234054
0.00232772
0.00231523
0.00230307
0.00229116
0.00227954
0.00226814
0.00225699
0.002246
0.00223523
0.00222458
0.00221406
0.00220361
0.0021932
0.00218279
0.0021723
0.0021617
0.0021509
0.00213984
0.00212844
0.00211662
0.00210428
0.00209136
0.00207774
0.00206338
0.00204814
0.002032
0.00201488
0.00199672
0.0019775
0.0019572
0.0019358
0.00191331
0.00188974
0.00186509
0.00183941
0.00181272
0.00178504
0.00175642
0.0017269
0.00169648
0.00166528
0.00163334
0.00160061
0.00156727
0.00153337
0.00149895
0.00146418
0.00142909
0.00139382
0.00135848
0.00132316
0.00128799
0.00125308
0.00121849
0.00118441
0.00115078
0.00111788
0.00108571
0.00105435
0.00102405
0.000994656
0.000966533
0.000939408
0.000913602
0.000888844
0.000865227
0.00084255
0.000821096
0.000800053
0.000780711
0.000760905
0.000741477
0.000722569
0.000704225
0.000686062
0.000668235
0.000650079
0.000631817
0.000613461
0.000594728
0.000575516
0.000555838
0.000535735
0.00051526
0.000494488
0.0004735
0.000452372
0.000431175
0.000409969
0.000388805
0.000367729
0.000346776
0.000325975
0.000305344
0.000284894
0.000264628
0.000244539
0.000224615
0.000204835
0.000185175
0.000165608
0.000146107
0.000126647
0.000107205
8.7759e-05
6.8293e-05
4.87887e-05
2.92348e-05
9.57912e-06
0.0044482
0.00442709
0.00440545
0.00438625
0.0043669
0.00434673
0.00432632
0.00430598
0.00428569
0.00426543
0.00424523
0.00422511
0.00420507
0.00418511
0.00416523
0.00414545
0.00412575
0.00410614
0.00408661
0.00406718
0.00404784
0.00402859
0.00400944
0.0039904
0.00397148
0.00395267
0.00393401
0.00391549
0.00389712
0.00387893
0.0038609
0.00384305
0.00382536
0.00380772
0.00379028
0.00377276
0.00375438
0.00373489
0.00371414
0.00369188
0.00366802
0.00364222
0.00361482
0.00358607
0.00355604
0.00352488
0.00349276
0.00345978
0.00342618
0.00339208
0.00335764
0.00332298
0.00328818
0.00325337
0.0032186
0.00318396
0.0031495
0.00311525
0.00308139
0.00304783
0.00301473
0.00298215
0.00295021
0.00291899
0.00288848
0.00285886
0.00283002
0.00280208
0.00277496
0.00274867
0.00272317
0.00269837
0.00267432
0.0026509
0.00262811
0.00260595
0.00258438
0.0025634
0.00254304
0.0025233
0.00250419
0.00248572
0.00246791
0.00245074
0.00243421
0.00241827
0.00240291
0.0023881
0.00237376
0.00235985
0.00234635
0.00233319
0.00232033
0.00230777
0.00229543
0.00228336
0.00227145
0.00225977
0.00224823
0.00223689
0.00222562
0.0022145
0.00220342
0.00219236
0.00218131
0.00217015
0.00215889
0.0021474
0.00213564
0.00212352
0.00211096
0.00209786
0.00208415
0.00206972
0.00205454
0.00203848
0.00202152
0.00200362
0.00198471
0.00196479
0.00194387
0.00192193
0.001899
0.00187509
0.00185022
0.00182442
0.00179773
0.00177018
0.0017418
0.00171263
0.00168268
0.0016521
0.00162082
0.0015889
0.00155649
0.00152362
0.00149033
0.00145677
0.00142296
0.00138902
0.00135504
0.00132108
0.00128723
0.00125357
0.00122016
0.00118709
0.00115436
0.00112217
0.00109052
0.0010595
0.00102936
0.000999985
0.000971689
0.000944287
0.000918103
0.000892893
0.000868837
0.000845676
0.000823786
0.000802233
0.000782397
0.000762016
0.000741986
0.000722513
0.000703672
0.000685032
0.000666787
0.000648265
0.000629716
0.000611137
0.00059222
0.000572859
0.000553078
0.000532921
0.000512442
0.000491711
0.000470805
0.000449794
0.000428737
0.000407688
0.00038669
0.000365782
0.000344996
0.000324354
0.000303873
0.000283563
0.000263424
0.000243452
0.000223632
0.000203947
0.000184374
0.000164888
0.000145466
0.000126083
0.000106718
8.73532e-05
6.79714e-05
4.85551e-05
2.90974e-05
9.53306e-06
0.00444596
0.00442505
0.00440393
0.00438526
0.00436636
0.00434656
0.00432645
0.00430633
0.00428619
0.00426604
0.00424591
0.00422583
0.00420581
0.00418585
0.00416598
0.00414617
0.00412645
0.00410681
0.00408724
0.00406775
0.00404834
0.00402902
0.00400977
0.00399061
0.00397154
0.00395257
0.00393369
0.00391492
0.00389626
0.00387772
0.00385929
0.00384095
0.0038227
0.00380444
0.00378627
0.00376793
0.00374873
0.00372843
0.00370693
0.00368404
0.00365972
0.00363373
0.00360635
0.00357781
0.0035482
0.00351768
0.00348638
0.00345442
0.00342198
0.00338917
0.0033561
0.00332287
0.00328955
0.0032562
0.00322288
0.00318963
0.00315647
0.00312344
0.00309066
0.00305813
0.0030258
0.00299386
0.00296243
0.00293155
0.00290125
0.00287168
0.00284278
0.00281468
0.00278733
0.00276076
0.00273495
0.00270983
0.00268546
0.00266172
0.00263862
0.00261615
0.00259428
0.00257301
0.00255235
0.0025323
0.00251287
0.00249409
0.00247594
0.00245844
0.00244158
0.00242533
0.00240964
0.00239451
0.00237985
0.00236563
0.0023518
0.0023383
0.00232507
0.00231213
0.00229937
0.00228684
0.00227445
0.00226225
0.00225014
0.00223822
0.00222635
0.00221459
0.00220286
0.00219114
0.0021794
0.00216754
0.00215557
0.00214335
0.00213084
0.00211796
0.0021046
0.0020907
0.00207617
0.00206092
0.00204492
0.00202805
0.00201032
0.00199169
0.00197212
0.00195162
0.0019302
0.00190786
0.00188463
0.00186054
0.00183559
0.00180983
0.00178329
0.001756
0.00172798
0.00169928
0.00166993
0.00163997
0.00160943
0.00157839
0.00154693
0.00151508
0.0014829
0.00145049
0.0014179
0.0013852
0.00135246
0.00131973
0.00128707
0.00125453
0.00122217
0.00119003
0.00115811
0.00112656
0.00109538
0.00106467
0.00103466
0.0010053
0.000976796
0.000949074
0.000922451
0.000896725
0.000872128
0.000848409
0.00082601
0.000803939
0.00078358
0.000762708
0.000742178
0.00072223
0.000702949
0.00068386
0.00066516
0.000646235
0.000627331
0.000608431
0.000589239
0.000569661
0.000549733
0.000529506
0.00050903
0.000488369
0.000467591
0.000446754
0.000425903
0.000405077
0.00038431
0.000363632
0.000343067
0.000322631
0.000302337
0.000282193
0.0002622
0.00024235
0.000222635
0.000203039
0.000183542
0.000164125
0.000144767
0.000125451
0.000106158
8.68721e-05
6.75799e-05
4.82648e-05
2.89242e-05
9.47325e-06
0.00444455
0.00442377
0.00440296
0.00438462
0.00436602
0.00434649
0.00432659
0.00430664
0.00428663
0.00426657
0.0042465
0.00422646
0.00420647
0.00418653
0.00416665
0.00414683
0.00412709
0.00410741
0.0040878
0.00406825
0.00404877
0.00402936
0.00401001
0.00399071
0.00397148
0.00395232
0.00393322
0.00391418
0.0038952
0.00387629
0.00385743
0.0038386
0.00381979
0.00380091
0.00378203
0.0037629
0.00374293
0.00372194
0.0036998
0.0036764
0.00365173
0.00362565
0.00359837
0.00357009
0.00354096
0.0035111
0.00348064
0.00344967
0.00341835
0.00338677
0.00335499
0.0033231
0.00329113
0.00325914
0.00322714
0.00319516
0.00316323
0.00313136
0.00309961
0.00306802
0.00303656
0.00300531
0.00297441
0.00294396
0.00291395
0.00288454
0.00285567
0.00282747
0.00279997
0.00277315
0.00274704
0.0027216
0.00269687
0.00267278
0.00264931
0.00262648
0.00260426
0.00258264
0.00256164
0.00254125
0.00252146
0.00250231
0.0024838
0.00246593
0.0024487
0.00243207
0.00241602
0.00240053
0.00238551
0.00237093
0.00235674
0.00234287
0.00232927
0.00231593
0.00230274
0.00228977
0.00227688
0.00226417
0.00225152
0.00223899
0.00222649
0.00221409
0.00220169
0.00218927
0.00217682
0.00216424
0.00215151
0.00213852
0.00212523
0.00211154
0.00209737
0.00208264
0.00206729
0.00205123
0.00203444
0.00201684
0.00199841
0.00197915
0.00195904
0.00193809
0.00191632
0.00189375
0.00187038
0.00184624
0.00182137
0.00179578
0.00176952
0.00174259
0.00171503
0.00168688
0.00165817
0.00162886
0.00159913
0.00156897
0.00153843
0.00150757
0.00147644
0.00144512
0.00141365
0.00138209
0.00135048
0.00131887
0.00128728
0.00125575
0.00122432
0.00119299
0.00116185
0.00113092
0.00110017
0.00106974
0.0010399
0.00101059
0.000981867
0.00095382
0.000926742
0.000900474
0.000875252
0.000850926
0.000827942
0.000805349
0.000784397
0.000763077
0.00074211
0.000721729
0.00070201
0.000682465
0.000663246
0.000643876
0.000624563
0.000605271
0.000585735
0.000565894
0.000545795
0.000525494
0.000505036
0.000484485
0.000463896
0.000443302
0.000422724
0.000402188
0.000381712
0.000361319
0.000341022
0.000320831
0.000300755
0.000280799
0.000260961
0.000241239
0.000221625
0.000202109
0.000182677
0.000163317
0.000144013
0.000124754
0.000105528
8.63224e-05
6.71272e-05
4.79268e-05
2.87213e-05
9.40259e-06
0.00444384
0.00442316
0.00440251
0.00438435
0.00436592
0.00434655
0.00432679
0.00430694
0.00428702
0.00426703
0.00424701
0.00422701
0.00420704
0.00418711
0.00416723
0.00414741
0.00412765
0.00410794
0.00408829
0.00406868
0.00404913
0.00402964
0.00401018
0.00399074
0.00397135
0.00395199
0.00393265
0.00391334
0.00389403
0.00387475
0.00385546
0.00383614
0.00381675
0.00379727
0.00377769
0.00375781
0.00373715
0.00371553
0.00369285
0.00366904
0.00364411
0.003618
0.00359087
0.00356291
0.00353427
0.00350509
0.00347545
0.00344546
0.0034152
0.00338476
0.00335419
0.00332352
0.0032928
0.00326202
0.00323124
0.00320043
0.00316963
0.00313883
0.00310805
0.00307738
0.00304675
0.00301628
0.00298603
0.00295601
0.00292638
0.00289725
0.00286852
0.00284032
0.00281276
0.00278577
0.00275941
0.00273367
0.00270861
0.00268416
0.00266032
0.00263709
0.00261447
0.00259245
0.00257106
0.00255028
0.00253009
0.00251051
0.00249157
0.00247327
0.00245559
0.00243853
0.00242203
0.0024061
0.00239065
0.00237564
0.00236103
0.00234674
0.00233271
0.00231893
0.00230529
0.00229184
0.00227845
0.00226521
0.00225199
0.00223888
0.00222576
0.00221271
0.00219962
0.0021865
0.00217332
0.00215999
0.00214649
0.00213271
0.00211861
0.00210411
0.00208911
0.00207358
0.00205744
0.00204062
0.00202313
0.00200489
0.00198589
0.00196613
0.00194562
0.00192438
0.00190243
0.00187978
0.00185642
0.00183238
0.0018077
0.00178241
0.0017565
0.00173002
0.00170297
0.0016754
0.00164731
0.00161875
0.0015898
0.00156047
0.00153082
0.00150089
0.00147074
0.00144042
0.00140998
0.00137945
0.00134885
0.00131824
0.00128761
0.001257
0.00122641
0.00119585
0.0011654
0.00113504
0.00110479
0.00107468
0.00104497
0.00101571
0.000986822
0.000958497
0.000930996
0.000904181
0.000878303
0.000853342
0.00082969
0.000806563
0.000784942
0.000763176
0.00074179
0.000720969
0.000700763
0.000680762
0.000661003
0.000641145
0.000621366
0.000601628
0.000581741
0.00056166
0.000541415
0.000521047
0.000500598
0.000480164
0.000459816
0.000439534
0.000419295
0.0003991
0.000378967
0.000358899
0.000338903
0.000318981
0.000299139
0.000279381
0.000259706
0.000240112
0.000220594
0.00020115
0.000181774
0.00016246
0.000143202
0.000123995
0.000104834
8.57148e-05
6.66268e-05
4.75558e-05
2.84976e-05
9.32831e-06
0.00444378
0.00442317
0.00440258
0.00438447
0.00436609
0.00434677
0.00432706
0.00430726
0.00428738
0.00426742
0.00424744
0.00422746
0.00420751
0.0041876
0.00416773
0.0041479
0.00412813
0.0041084
0.00408872
0.00406907
0.00404945
0.00402987
0.0040103
0.00399075
0.0039712
0.00395164
0.00393207
0.00391248
0.00389285
0.00387319
0.0038535
0.0038337
0.00381375
0.00379367
0.00377343
0.00375282
0.00373152
0.00370934
0.00368619
0.00366203
0.00363691
0.00361081
0.00358386
0.00355623
0.00352811
0.0034996
0.00347076
0.00344169
0.00341243
0.00338306
0.00335358
0.00332402
0.00329442
0.00326475
0.00323506
0.00320531
0.00317553
0.00314573
0.00311589
0.0030861
0.00305628
0.00302655
0.00299695
0.00296754
0.00293841
0.00290959
0.00288106
0.00285299
0.00282549
0.00279844
0.0027719
0.00274595
0.00272061
0.00269584
0.00267164
0.00264801
0.00262496
0.0026025
0.00258068
0.00255947
0.00253885
0.00251877
0.00249932
0.0024805
0.0024623
0.0024447
0.00242767
0.0024112
0.00239522
0.00237969
0.00236456
0.00234976
0.00233522
0.00232094
0.00230679
0.00229283
0.00227891
0.00226512
0.00225134
0.00223764
0.0022239
0.00221019
0.00219642
0.0021826
0.00216869
0.0021546
0.00214033
0.00212578
0.00211089
0.00209559
0.00207982
0.00206353
0.00204666
0.00202919
0.0020111
0.00199235
0.00197294
0.00195287
0.00193214
0.00191078
0.0018888
0.00186622
0.00184297
0.00181912
0.00179474
0.0017698
0.00174432
0.00171831
0.00169179
0.0016648
0.00163735
0.0016095
0.00158128
0.00155274
0.00152391
0.00149485
0.0014656
0.00143619
0.00140666
0.00137705
0.00134737
0.00131765
0.00128788
0.00125809
0.00122828
0.00119843
0.00116861
0.00113879
0.001109
0.00107931
0.0010498
0.0010206
0.000991591
0.000963054
0.000935147
0.000907795
0.000881291
0.000855692
0.000831291
0.000807594
0.000785243
0.000763006
0.000741187
0.000719906
0.000699188
0.000678683
0.000658445
0.000638183
0.000617844
0.000597514
0.000577306
0.000557041
0.000536662
0.00051628
0.000495956
0.000475738
0.00045565
0.000435672
0.000415768
0.000395925
0.000376147
0.000356423
0.000336749
0.000317103
0.000297499
0.000277937
0.000258418
0.000238944
0.000219518
0.000200143
0.00018082
0.000161553
0.000142343
0.00012319
0.000104097
8.50694e-05
6.60976e-05
4.71625e-05
2.82586e-05
9.2581e-06
0.00444438
0.00442381
0.00440317
0.00438498
0.00436654
0.00434716
0.00432741
0.00430759
0.00428771
0.00426776
0.00424778
0.00422782
0.00420789
0.004188
0.00416814
0.00414832
0.00412855
0.00410881
0.0040891
0.00406941
0.00404974
0.00403008
0.00401043
0.00399076
0.00397106
0.00395133
0.00393155
0.0039117
0.00389177
0.00387176
0.00385163
0.00383135
0.00381089
0.00379025
0.00376937
0.00374808
0.00372616
0.00370346
0.00367988
0.00365542
0.00363015
0.00360407
0.0035773
0.00355003
0.00352242
0.00349456
0.00346649
0.00343829
0.00340995
0.00338154
0.00335305
0.0033245
0.00329589
0.00326721
0.00323849
0.00320971
0.00318086
0.00315197
0.003123
0.00309406
0.00306502
0.00303605
0.00300713
0.00297833
0.00294969
0.00292127
0.00289312
0.00286532
0.00283792
0.0028109
0.00278425
0.00275818
0.00273268
0.00270765
0.00268313
0.00265913
0.00263566
0.00261276
0.00259051
0.00256885
0.0025477
0.00252712
0.00250713
0.0024877
0.00246887
0.00245064
0.00243298
0.00241586
0.00239923
0.00238307
0.00236731
0.0023519
0.00233676
0.00232189
0.00230717
0.00229263
0.00227815
0.00226378
0.00224942
0.00223512
0.00222077
0.00220642
0.00219199
0.00217748
0.00216284
0.00214803
0.00213301
0.00211772
0.00210211
0.0020861
0.00206965
0.00205273
0.00203532
0.00201735
0.00199879
0.00197961
0.00195987
0.00193963
0.00191887
0.00189755
0.00187566
0.00185322
0.00183021
0.00180666
0.0017826
0.00175804
0.00173298
0.00170744
0.00168143
0.001655
0.00162816
0.00160096
0.00157342
0.00154561
0.00151753
0.00148925
0.00146079
0.0014322
0.00140349
0.00137471
0.00134584
0.00131692
0.00128793
0.00125889
0.00122978
0.0012006
0.00117138
0.0011421
0.00111278
0.00108348
0.00105419
0.00102509
0.000996101
0.000967426
0.000939143
0.000911314
0.000884133
0.000857837
0.000832657
0.000808371
0.000785246
0.000762521
0.000740282
0.000718559
0.000697222
0.000676102
0.000655381
0.000634743
0.000614053
0.000593411
0.000572854
0.000552336
0.000531879
0.000511534
0.000491345
0.000471339
0.000451514
0.00043184
0.000412276
0.000392792
0.000373362
0.000353959
0.000334596
0.000315206
0.000295823
0.000276446
0.000257073
0.000237713
0.000218375
0.000199068
0.000179803
0.000160588
0.000141434
0.000122348
0.000103338
8.44086e-05
6.55557e-05
4.67679e-05
2.80506e-05
9.22597e-06
0.00444567
0.00442511
0.0044043
0.00438589
0.00436724
0.0043477
0.00432783
0.00430793
0.004288
0.00426803
0.00424805
0.00422811
0.00420819
0.00418832
0.00416848
0.00414869
0.00412892
0.00410918
0.00408946
0.00406975
0.00405005
0.00403033
0.00401059
0.00399082
0.003971
0.00395111
0.00393113
0.00391105
0.00389085
0.00387051
0.00385
0.00382928
0.00380833
0.00378715
0.00376565
0.0037437
0.0037212
0.00369799
0.00367399
0.00364923
0.00362382
0.0035978
0.00357118
0.00354426
0.00351716
0.00348993
0.00346258
0.00343518
0.00340768
0.00338014
0.00335253
0.00332486
0.00329713
0.00326933
0.00324148
0.00321355
0.00318554
0.00315749
0.00312932
0.00310117
0.0030729
0.00304466
0.00301642
0.00298823
0.00296015
0.00293221
0.00290447
0.00287697
0.00284974
0.00282284
0.00279631
0.00277023
0.00274456
0.00271934
0.00269454
0.0026702
0.0026464
0.00262317
0.00260047
0.00257828
0.0025566
0.00253551
0.00251495
0.0024949
0.00247538
0.00245643
0.00243804
0.0024202
0.00240284
0.00238596
0.00236948
0.00235335
0.00233751
0.00232195
0.00230658
0.0022914
0.00227631
0.00226132
0.00224635
0.00223144
0.00221649
0.00220153
0.00218649
0.00217136
0.00215608
0.00214061
0.00212489
0.00210884
0.00209248
0.00207583
0.00205887
0.00204149
0.00202364
0.00200529
0.00198645
0.00196708
0.00194721
0.00192693
0.00190623
0.00188502
0.00186326
0.001841
0.00181825
0.00179501
0.00177129
0.00174709
0.00172243
0.00169733
0.0016718
0.00164588
0.00161959
0.00159297
0.00156604
0.00153888
0.00151147
0.00148389
0.00145615
0.00142828
0.00140031
0.00137226
0.00134411
0.00131592
0.00128762
0.00125926
0.0012308
0.00120225
0.00117361
0.00114487
0.00111601
0.00108712
0.00105812
0.0010292
0.00100023
0.000971413
0.000942794
0.000914565
0.00088682
0.000859851
0.00083378
0.000808764
0.000784794
0.000761528
0.000738796
0.000716581
0.000694762
0.000673314
0.00065214
0.000631129
0.000610175
0.000589278
0.000568489
0.000547833
0.000527343
0.000507058
0.00048701
0.000467207
0.000447629
0.000428235
0.000408975
0.000389801
0.000370674
0.000351562
0.000332438
0.000313278
0.000294092
0.000274878
0.000255639
0.000236387
0.000217137
0.000197904
0.000178705
0.000159555
0.000140471
0.000121466
0.000102551
8.37335e-05
6.50142e-05
4.63848e-05
2.785e-05
9.20659e-06
0.0044478
0.00442719
0.00440601
0.00438718
0.00436818
0.00434836
0.00432829
0.00430825
0.00428824
0.00426824
0.00424826
0.00422832
0.00420844
0.00418859
0.00416879
0.00414902