/*--------------------------------*- C++ -*----------------------------------*\
| =========                 |                                                 |
| \\      /  F ield         | OpenFOAM: The Open Source CFD Toolbox           |
|  \\    /   O peration     | Version:  2506                                  |
|   \\  /    A nd           | Website:  www.openfoam.com                      |
|    \\/     M anipulation  |                                                 |
\*---------------------------------------------------------------------------*/
FoamFile
{
    version     2.0;
    format      ascii;
    arch        "LSB;label=32;scalar=64";
    class       volScalarField;
    location    "4";
    object      s;
}
// * * * * * * * * * * * * * * * * * * * * * * * * * * * * * * * * * * * * * //

dimensions      [0 0 0 0 0 0 0];

internalField   nonuniform List<scalar> 
4000
(
-1.46767e-21
8.02742e-21
-3.46466e-20
1.27392e-19
-4.10296e-19
1.32275e-18
-4.39851e-18
-2.97401e-18
1.78473e-16
-2.69465e-16
-5.5314e-15
-3.14259e-14
-3.3653e-14
4.61282e-13
7.79795e-12
2.04756e-10
3.77268e-09
5.50676e-08
6.57063e-07
8.43835e-06
8.12384e-05
0.000973932
0.00760237
0.0330844
0.0815613
0.135173
0.16197
0.166384
0.162863
0.145654
0.102852
0.0467015
0.0107605
0.0030603
0.00342899
0.00426057
0.00601702
0.00900585
0.0127294
0.0166556
0.0199505
0.0225895
0.0248236
0.0274175
0.0300282
0.0324413
0.0346196
0.0369664
0.0393259
0.0417249
0.0442499
0.0466245
0.049105
0.0512996
0.0534298
0.0550945
0.0563071
0.0571321
0.0576032
0.0577503
0.0575918
0.0571349
0.0564171
0.0552659
0.0526228
0.0454465
0.0334125
0.0200035
0.0103478
0.00646044
0.00402907
0.00236898
0.00132445
0.000713187
0.000373314
0.000189813
9.33242e-05
4.44151e-05
2.06745e-05
9.68215e-06
4.66947e-06
2.30553e-06
1.14191e-06
5.56791e-07
2.64092e-07
1.21573e-07
5.42786e-08
2.33803e-08
9.68875e-09
3.80295e-09
1.37216e-09
4.44802e-10
1.08979e-10
-3.36718e-12
-3.97449e-11
-7.54913e-11
-1.51737e-10
-2.56375e-10
-3.42709e-10
-3.31925e-10
-2.78478e-10
-5.36066e-10
-2.3777e-09
-1.02506e-08
-2.91837e-08
-7.57294e-08
-1.59948e-07
-3.01507e-07
-4.74774e-07
-6.89144e-07
-9.43652e-07
-1.24012e-06
-1.51171e-06
-1.73495e-06
-1.8711e-06
-1.87282e-06
-1.66105e-06
-1.13054e-06
-3.27431e-07
7.35345e-07
2.05231e-06
3.58425e-06
5.30048e-06
1.26944e-05
3.15088e-05
5.49057e-05
7.87718e-05
9.9304e-05
0.000116804
0.000134068
0.000140893
0.000147155
0.000160142
0.000159586
0.000162202
0.000178632
0.000167564
0.000176866
0.000169175
0.00016059
0.000142908
0.000115699
8.2759e-05
5.57241e-05
3.75452e-05
3.04227e-05
2.57206e-05
2.12466e-05
1.66778e-05
1.22583e-05
8.37205e-06
5.27138e-06
3.0582e-06
1.64045e-06
8.20121e-07
3.81369e-07
1.44732e-07
-1.06669e-08
-1.55099e-07
-3.51254e-07
-7.19339e-07
-1.35359e-06
-2.04555e-06
-2.95366e-06
-4.1976e-06
-5.80157e-06
-7.18383e-06
-7.34691e-06
-7.32902e-06
-7.21887e-06
-6.97382e-06
-6.61921e-06
-6.19327e-06
-5.75867e-06
-5.29872e-06
-4.78809e-06
-4.24622e-06
-3.68152e-06
-3.09598e-06
-2.51432e-06
-1.976e-06
-1.51074e-06
-1.13248e-06
-8.36701e-07
-6.06513e-07
-4.25707e-07
-2.88952e-07
-1.86436e-07
-1.17369e-07
-7.79899e-08
-5.36159e-08
-3.78849e-08
-2.65464e-08
-1.80035e-08
-1.17036e-08
-7.45519e-09
-4.40569e-09
-2.87085e-09
-1.87047e-09
-1.03374e-09
-1.1764e-21
4.73497e-21
-1.46173e-20
3.98362e-20
-9.15198e-20
1.28455e-19
3.66398e-19
-3.68389e-18
-2.3602e-19
1.5623e-16
-8.17832e-16
-5.69623e-15
-5.40988e-14
1.28455e-13
2.28126e-12
-3.05375e-11
3.182e-10
-8.27402e-09
1.72768e-08
8.056e-07
8.23976e-06
7.45817e-05
0.000352458
0.00112555
0.00272411
0.00540994
0.00902005
0.0130099
0.017076
0.0206896
0.0234654
0.0242877
0.0228993
0.0206773
0.0184849
0.016839
0.015416
0.0141283
0.0130374
0.0123045
0.0110161
0.00970074
0.00869762
0.00796814
0.00748024
0.00719745
0.00702565
0.00697558
0.00698013
0.00704646
0.00720079
0.00741134
0.00779339
0.00833036
0.00918349
0.0104299
0.0122485
0.0149261
0.0183313
0.0226455
0.027249
0.0321132
0.0370505
0.0417853
0.0457105
0.0473509
0.0472951
0.0469935
0.0465781
0.0463209
0.0460356
0.0453481
0.044032
0.0407285
0.0332028
0.0222766
0.0118872
0.00581503
0.00330656
0.00195445
0.00116529
0.000684442
0.000385854
0.000207651
0.000107416
5.39129e-05
2.6385e-05
1.25512e-05
5.80104e-06
2.60249e-06
1.12899e-06
4.75703e-07
1.93627e-07
7.49249e-08
2.62882e-08
5.56794e-09
-4.8133e-09
-1.61513e-08
-5.4447e-08
-1.05407e-07
-1.65299e-07
-2.6864e-07
-4.72425e-07
-7.69613e-07
-1.16925e-06
-1.77283e-06
-2.54043e-06
-3.19577e-06
-3.44237e-06
-2.39114e-06
2.41825e-06
2.06516e-05
0.000248493
0.000780804
0.00160913
0.00274633
0.0042044
0.00594443
0.00785614
0.00987571
0.0119303
0.0138993
0.0157219
0.0174548
0.0190321
0.0204205
0.0216235
0.022635
0.0234818
0.0242563
0.024858
0.0253405
0.0258756
0.0262662
0.0265802
0.0270536
0.0272362
0.0275126
0.027599
0.0275402
0.0272398
0.0265646
0.0253719
0.0237237
0.021206
0.0185464
0.0156696
0.0128796
0.0101712
0.00766236
0.00553594
0.00378121
0.0024669
0.0015111
0.000866391
0.000460133
0.000229073
0.000106684
4.64395e-05
1.71579e-05
1.44311e-06
-7.83945e-06
-1.31646e-05
-1.53589e-05
-1.40748e-05
-8.79838e-06
2.80536e-06
0.000171451
0.000364935
0.000492653
0.000575183
0.00070082
0.000993747
0.00141611
0.00180638
0.00199801
0.00191545
0.00161283
0.00121867
0.000848332
0.000559331
0.000365878
0.000231975
0.000133721
6.76577e-05
2.96808e-05
1.04626e-05
1.55303e-06
-2.24316e-06
-3.56657e-06
-3.67781e-06
-3.19235e-06
-2.43641e-06
-1.61278e-06
-8.52711e-07
-2.29972e-07
2.26645e-07
5.14501e-07
6.37851e-07
5.82792e-07
-4.84473e-22
1.62119e-21
-3.79002e-21
9.12573e-21
-2.0834e-20
4.24288e-20
-9.60378e-20
6.68555e-19
-4.90098e-18
1.51268e-17
-1.26738e-17
-2.24561e-16
-1.51082e-14
2.31496e-14
5.81604e-13
-3.37714e-12
-3.07708e-11
-4.84582e-10
-1.35471e-10
1.58957e-08
2.86137e-08
3.66731e-08
9.47424e-08
2.90599e-07
7.3511e-07
1.50405e-06
2.82459e-06
4.84082e-06
9.00215e-06
2.57918e-05
0.000170632
0.00112379
0.00256046
0.00420893
0.00544309
0.00556139
0.00494726
0.00416879
0.003425
0.00271816
0.0020549
0.00155931
0.00124171
0.00104149
0.000918909
0.000842676
0.000791908
0.000764642
0.000747739
0.000740542
0.000743504
0.000751132
0.000771689
0.000796997
0.000838324
0.000887646
0.000950759
0.00109604
0.00145756
0.00229264
0.00369513
0.00591555
0.00928248
0.0141265
0.0202537
0.0269272
0.033129
0.0382002
0.0421487
0.0445355
0.0460743
0.0480134
0.0505454
0.0530723
0.0529816
0.0517235
0.0495259
0.0463787
0.0411108
0.0327664
0.0225175
0.0130164
0.00734069
0.00455543
0.00287426
0.00183011
0.00116426
0.000715078
0.000418597
0.000234354
0.00012752
6.83754e-05
3.60138e-05
1.85091e-05
9.27027e-06
4.43057e-06
1.96368e-06
6.43153e-07
-1.39668e-07
-6.69784e-07
-1.03212e-06
-1.06786e-06
-8.5352e-08
4.20223e-06
1.90851e-05
6.78615e-05
0.000243058
0.00102933
0.00258385
0.00512543
0.0087972
0.0135732
0.0193241
0.025274
0.0313452
0.0372396
0.0426215
0.0474034
0.0516414
0.0554776
0.0589081
0.0619276
0.0645057
0.0667563
0.0686808
0.070346
0.0718111
0.0731183
0.0743081
0.075422
0.0764508
0.0774201
0.0783608
0.0792355
0.0800687
0.0808891
0.0816367
0.0823623
0.0830153
0.083589
0.084048
0.0843344
0.0843495
0.0839924
0.0829103
0.080996
0.0772215
0.0714083
0.063694
0.0544909
0.0446239
0.0341523
0.0241142
0.0150783
0.00895392
0.0053136
0.00312864
0.00181825
0.00110597
0.00078547
0.000785367
0.00106057
0.00179194
0.00325013
0.00626085
0.0112353
0.0176223
0.0230241
0.0259324
0.0265301
0.0254
0.0233956
0.021541
0.0206117
0.0210704
0.0230949
0.0264024
0.0303345
0.0340803
0.036907
0.0383902
0.038468
0.0372396
0.0347888
0.0312442
0.026843
0.0222049
0.0181999
0.0148129
0.0118696
0.00935753
0.00732416
0.00581043
0.00476208
0.00405651
0.0035623
0.00317292
0.00282239
0.00247277
0.00197231
-8.62591e-23
2.45955e-22
-5.58011e-22
2.30452e-21
-9.31857e-21
3.87158e-20
-1.58776e-19
5.5409e-19
-8.48494e-19
-4.55437e-18
2.60302e-17
-5.52373e-17
1.49521e-16
-1.5991e-15
-6.82607e-15
-7.22115e-14
-6.58464e-12
1.2825e-11
5.73891e-12
1.99705e-11
-1.06843e-10
-4.97269e-10
1.59874e-10
4.14932e-09
1.22098e-08
2.1473e-08
2.98165e-08
3.20719e-08
2.80439e-08
5.23264e-08
-1.11879e-07
-4.98484e-07
9.93165e-08
1.46237e-06
4.9632e-05
7.39662e-05
6.32402e-05
6.08861e-05
5.97546e-05
5.41495e-05
4.4381e-05
3.54482e-05
2.8958e-05
2.45239e-05
2.17782e-05
2.01765e-05
1.93153e-05
1.91902e-05
1.94658e-05
2.01676e-05
2.13258e-05
2.28205e-05
2.49643e-05
2.7532e-05
3.09875e-05
3.50624e-05
3.96864e-05
4.51334e-05
5.13428e-05
5.91498e-05
6.77164e-05
0.000101036
0.000323728
0.00111303
0.00281089
0.0056341
0.010187
0.0160453
0.0223999
0.0283666
0.0332706
0.037478
0.0415516
0.0455559
0.0488989
0.0508491
0.0521642
0.054233
0.0566632
0.0566111
0.0554719
0.0535878
0.0512016
0.0477756
0.0413378
0.0322379
0.0219938
0.0130578
0.00790684
0.0050835
0.00339091
0.0023643
0.00164639
0.00109377
0.000677932
0.000397322
0.000238898
0.000149904
0.000104131
0.000101983
0.000190238
0.000510053
0.00122208
0.00255201
0.00485896
0.00869173
0.0147305
0.0225027
0.0310322
0.0400481
0.0483368
0.0557342
0.0624211
0.0677147
0.0715486
0.0738973
0.0752351
0.0764131
0.0776251
0.0787996
0.0795423
0.0801286
0.0804853
0.0807426
0.0809779
0.0812215
0.0814939
0.0818101
0.0821633
0.0825348
0.0829539
0.0833804
0.0837657
0.0841957
0.0845982
0.084953
0.085411
0.0858432
0.0863865
0.0870394
0.087849
0.0888912
0.0901809
0.0917004
0.0933846
0.0948162
0.0958865
0.0962604
0.0956716
0.0936012
0.0898004
0.0838523
0.0762525
0.063968
0.0489874
0.0342859
0.0218477
0.0125686
0.00767459
0.00584079
0.00658736
0.0101753
0.0185527
0.031004
0.0461367
0.0608263
0.0722979
0.0780829
0.0797255
0.078779
0.0762104
0.0725949
0.0680008
0.0626405
0.0573
0.0529643
0.0509222
0.0522689
0.0577366
0.0671468
0.0793965
0.0910572
0.0979732
0.102311
0.105121
0.106827
0.107125
0.105638
0.102192
0.0964696
0.0879788
0.077628
0.0663057
0.0549854
0.0450226
0.0377967
0.0342049
0.0344115
0.0372522
0.0455877
9.84211e-24
-5.13656e-23
6.67941e-23
2.5957e-22
-1.85556e-21
8.40778e-21
-3.01496e-20
6.79453e-20
7.52058e-20
-1.45288e-18
7.2597e-18
-3.27568e-17
1.6779e-16
-2.16583e-16
-1.19316e-15
-2.53081e-14
3.23161e-13
1.42473e-12
1.64243e-12
-1.05968e-12
-1.42638e-11
-2.63028e-11
-8.10006e-11
-2.37099e-10
-9.27863e-10
-2.47287e-09
-4.87254e-09
-7.33748e-09
-8.48892e-09
-2.5139e-08
-4.86822e-08
-5.13497e-08
-9.23543e-08
-1.97554e-07
-1.26906e-07
-1.20292e-07
-2.19054e-07
-3.38595e-07
-4.20166e-07
-4.49728e-07
-4.38213e-07
-4.1105e-07
-3.80435e-07
-3.51367e-07
-3.26325e-07
-3.04859e-07
-2.86089e-07
-2.70562e-07
-2.56653e-07
-2.44422e-07
-2.33628e-07
-2.2357e-07
-2.14834e-07
-2.06281e-07
-1.9853e-07
-1.90231e-07
-1.76097e-07
-1.31647e-07
-1.56814e-09
4.65687e-07
1.48115e-06
3.73235e-06
4.62642e-06
4.50665e-06
2.80734e-06
7.4692e-05
0.000645311
0.00207707
0.00454578
0.00825791
0.0128693
0.0176669
0.0222816
0.0266434
0.0310693
0.0353564
0.0389253
0.0423814
0.046039
0.049324
0.0519807
0.0538242
0.055808
0.0584991
0.0608874
0.061866
0.0612405
0.0597279
0.0575253
0.0547761
0.0505734
0.0439123
0.0357418
0.0269234
0.0190583
0.0144185
0.0130563
0.0135446
0.0150201
0.0171328
0.0202532
0.0240326
0.0285825
0.0339823
0.0403444
0.0476027
0.0555897
0.0631996
0.0695408
0.0735632
0.0756967
0.0776068
0.0788976
0.0786263
0.0773183
0.0752789
0.0727409
0.0698891
0.066699
0.0632708
0.059761
0.0565574
0.0537745
0.0513688
0.0493543
0.0476946
0.046343
0.045257
0.0443767
0.0436249
0.0430269
0.0425287
0.0420054
0.0415909
0.0412033
0.0407581
0.0404946
0.0402455
0.0401818
0.0403587
0.0408693
0.0419036
0.0436296
0.0461692
0.0499437
0.054792
0.0611412
0.0681689
0.0754029
0.0826013
0.0872261
0.0888303
0.0896202
0.0884175
0.0842469
0.076881
0.0658428
0.0513315
0.0381149
0.0292108
0.0296046
0.038809
0.0546015
0.0726939
0.0882483
0.0964026
0.0977223
0.0969223
0.0948343
0.0913104
0.0880365
0.0862228
0.0856164
0.0854194
0.0850597
0.0841813
0.0828863
0.0813852
0.0797196
0.0791309
0.0813572
0.0858685
0.0935114
0.102085
0.110213
0.11706
0.122017
0.124001
0.124005
0.123579
0.122696
0.121293
0.119307
0.116639
0.113165
0.108883
0.103879
0.0982426
0.090082
0.0811891
1.17229e-23
-4.60491e-23
1.07824e-22
-2.60357e-22
7.078e-22
-2.1521e-21
7.0707e-21
-2.34342e-20
6.14039e-20
-1.07019e-19
4.06704e-19
-3.08122e-18
1.29094e-17
-1.64179e-17
2.34098e-17
-1.26852e-14
5.66354e-14
5.1298e-14
8.1879e-14
7.11049e-14
-2.34958e-13
-9.37553e-14
6.9514e-13
3.0722e-12
-4.07721e-12
-1.1589e-11
-1.98614e-11
-1.39214e-11
2.02793e-11
-4.1319e-10
-4.95743e-10
-6.06259e-12
-4.33734e-09
-1.88967e-08
-3.89378e-08
-4.57747e-08
-4.92202e-08
-5.33328e-08
-5.15416e-08
-4.49697e-08
-3.50288e-08
-2.59386e-08
-1.91082e-08
-1.42969e-08
-1.10559e-08
-8.85336e-09
-7.32381e-09
-6.33948e-09
-5.68784e-09
-5.32631e-09
-5.22152e-09
-5.32355e-09
-5.72706e-09
-6.4657e-09
-7.8971e-09
-1.06885e-08
-1.7269e-08
-2.64758e-08
-3.67896e-08
-2.71282e-08
2.09467e-08
-1.13744e-07
-8.31083e-07
-2.3692e-06
-1.68123e-06
2.89203e-06
1.34951e-06
-1.63519e-06
-2.17241e-06
0.000312542
0.0012305
0.00279775
0.00493493
0.00756645
0.0105627
0.0137178
0.0168225
0.0198116
0.0227976
0.0258414
0.0293228
0.0329589
0.0364752
0.0402855
0.0447447
0.049031
0.0531559
0.0568963
0.0597104
0.0625735
0.0650127
0.0671892
0.0695782
0.0709182
0.0714398
0.0713759
0.0713117
0.0713721
0.0715038
0.0716577
0.0715301
0.0715433
0.0719963
0.0729945
0.0744947
0.076416
0.0778358
0.0782981
0.0769465
0.0743582
0.070666
0.0659862
0.0599781
0.0533711
0.0468094
0.0407175
0.0352422
0.0304128
0.0262723
0.0227778
0.0198585
0.0174655
0.0155159
0.013937
0.0126958
0.0117225
0.0109559
0.0103487
0.00985797
0.00944621
0.00911164
0.00882735
0.00855486
0.00833453
0.00813405
0.00793872
0.00780742
0.00769572
0.0076494
0.00768342
0.00782475
0.00813569
0.0086823
0.00954058
0.011003
0.0132606
0.0171251
0.022978
0.0306285
0.0406291
0.0522438
0.0638023
0.0737779
0.0818087
0.0854364
0.0867957
0.0864088
0.0831319
0.0776852
0.0711491
0.0701156
0.0752901
0.0848517
0.0961313
0.101673
0.100777
0.0961779
0.0873694
0.0763259
0.0662138
0.0589033
0.0551242
0.0549562
0.0581552
0.0642947
0.0724801
0.0795029
0.0848136
0.0893841
0.0935414
0.0969224
0.099085
0.101021
0.103476
0.106475
0.109539
0.112023
0.113383
0.113294
0.111771
0.109177
0.106123
0.103464
0.10242
0.103974
0.106777
0.109134
0.111309
0.1128
0.114174
3.35139e-24
-1.17878e-23
3.36368e-23
-1.08568e-22
3.45636e-22
-1.04746e-21
2.89377e-21
-6.5435e-21
6.43458e-21
2.72763e-20
-1.71944e-19
7.48806e-19
-2.75629e-18
9.95104e-19
2.77634e-17
-5.80647e-17
-3.87537e-16
-1.89661e-16
-1.70991e-15
9.48806e-16
5.54284e-15
1.17309e-14
1.32904e-13
5.32013e-13
1.30677e-12
2.61876e-12
4.44306e-12
6.60489e-12
8.93861e-12
2.05911e-11
3.32031e-11
9.18356e-11
2.76063e-10
-2.49574e-10
-4.89218e-09
-6.22389e-09
-4.06428e-09
-2.1127e-09
-5.89059e-10
6.09265e-10
1.42429e-09
1.90879e-09
2.15943e-09
2.26877e-09
2.30569e-09
2.30202e-09
2.27116e-09
2.22879e-09
2.17348e-09
2.11314e-09
2.04975e-09
1.98137e-09
1.91217e-09
1.83391e-09
1.74715e-09
1.63695e-09
1.45474e-09
1.10622e-09
5.70971e-11
-2.44294e-09
-8.53632e-09
-5.29286e-08
-1.07637e-07
-1.97106e-07
-5.3506e-08
-9.81793e-07
-3.43553e-06
-5.18174e-06
-4.63042e-06
-7.02946e-06
-8.10103e-06
-6.27546e-06
5.08208e-06
0.000141713
0.000519607
0.0011267
0.00194139
0.0029084
0.00398332
0.00515108
0.00650671
0.00815438
0.0101242
0.0124765
0.015299
0.0185681
0.0225
0.0274007
0.0326232
0.0379852
0.0430875
0.0479153
0.0522949
0.0559328
0.059007
0.0622049
0.0660254
0.069006
0.07082
0.0714555
0.0713887
0.0706647
0.0693456
0.0676313
0.065122
0.0613172
0.0557337
0.0490788
0.0421714
0.0355518
0.0294847
0.0240738
0.0193634
0.0154193
0.0121473
0.00958913
0.00765006
0.00618599
0.00508376
0.00424421
0.00359547
0.00309372
0.00270229
0.00239316
0.00214875
0.00195359
0.0017963
0.00166847
0.00156249
0.0014724
0.00139745
0.00133267
0.00127262
0.00122354
0.00117955
0.00113962
0.00111115
0.00108841
0.00107752
0.00108064
0.00110037
0.00114467
0.00121912
0.00133336
0.00149778
0.00170621
0.00210773
0.00305645
0.00496272
0.00845829
0.0142124
0.0234164
0.0345757
0.048041
0.0611436
0.0721618
0.0802041
0.0839735
0.0853631
0.0861086
0.0872516
0.0898163
0.093387
0.094977
0.0931393
0.0858271
0.0726195
0.0569567
0.042563
0.0311513
0.0231469
0.0184507
0.0165152
0.0169208
0.0195436
0.0245537
0.0320932
0.0420144
0.0537551
0.0664381
0.079208
0.0896689
0.0954953
0.0990009
0.101353
0.10289
0.103532
0.102857
0.100381
0.096117
0.0903822
0.0836776
0.0766044
0.0697938
0.0638811
0.0596092
0.0576656
0.0591822
0.0621019
0.0753592
-6.61135e-26
5.10617e-25
-9.27677e-25
-1.36468e-24
9.89395e-24
-2.26893e-23
-2.31237e-25
2.36982e-22
-1.37382e-21
5.79892e-21
-2.76366e-20
1.38076e-19
-4.91241e-19
8.44618e-19
-1.06288e-18
3.51434e-18
5.68675e-18
-5.46686e-17
-1.58716e-16
-1.93188e-16
7.60964e-16
2.59072e-15
6.78649e-15
1.98111e-14
4.98319e-14
1.14887e-13
2.19579e-13
3.66831e-13
5.46892e-13
2.05231e-12
5.32415e-12
8.76082e-12
3.49372e-11
1.4337e-11
-2.15512e-10
-3.03929e-10
-2.91829e-10
-2.3408e-10
-1.28066e-10
5.05245e-11
2.10984e-10
2.61776e-10
2.62331e-10
2.38341e-10
2.08382e-10
1.8024e-10
1.56288e-10
1.38151e-10
1.24419e-10
1.15046e-10
1.09585e-10
1.0748e-10
1.09496e-10
1.15285e-10
1.26689e-10
1.45613e-10
1.91888e-10
2.74314e-10
3.649e-10
6.04963e-10
1.02305e-09
2.03829e-09
1.42643e-08
2.57929e-08
4.26911e-08
-3.02782e-08
-2.71132e-07
-6.06771e-07
-1.11056e-06
-3.96066e-06
-6.3596e-06
-8.11857e-06
-1.0304e-05
-1.28199e-05
-1.37917e-05
-1.26442e-05
-7.69389e-06
1.36697e-06
1.35243e-05
2.72613e-05
4.13579e-05
5.46438e-05
0.00011616
0.000290109
0.00061517
0.00116505
0.00204869
0.00339035
0.00526894
0.00771006
0.0107094
0.0144158
0.0184592
0.0223122
0.0257065
0.0282788
0.0301136
0.0307338
0.0302848
0.0289197
0.0271878
0.0250117
0.0225043
0.0197399
0.0167296
0.0137863
0.011152
0.00893555
0.00710659
0.00562224
0.00443838
0.00350301
0.00276716
0.00219584
0.00174735
0.00140107
0.00113255
0.000923674
0.000762464
0.00063741
0.000539523
0.000463
0.000402528
0.00035401
0.000314858
0.00028279
0.00025617
0.000233798
0.000214631
0.000197914
0.000183541
0.000170839
0.000159203
0.000149444
0.00014075
0.000133113
0.0001273
0.000122693
0.000119926
0.000119292
0.000121031
0.000126159
0.000135252
0.00014965
0.000170197
0.00019597
0.000231117
0.000277686
0.000338556
0.000403647
0.000799622
0.00251881
0.00607049
0.0125231
0.0226065
0.0349051
0.0485438
0.0614615
0.0709461
0.0777536
0.0811204
0.0826169
0.0825474
0.0790889
0.0700948
0.056389
0.040313
0.0258065
0.015343
0.00874193
0.00516946
0.00368266
0.00316907
0.00321479
0.00374666
0.00485253
0.00672455
0.00963411
0.0139366
0.0201696
0.0285861
0.0382243
0.048021
0.0569407
0.0641981
0.0693025
0.0720138
0.0723142
0.0704204
0.0667237
0.0617175
0.055925
0.0498356
0.043867
0.0383358
0.0335255
0.0295216
0.0271229
0.0250003
0.0291058
-1.38113e-25
5.2245e-25
-1.42364e-24
3.93651e-24
-1.15324e-23
3.34095e-23
-8.5467e-23
1.75331e-22
-2.22215e-22
-8.07932e-23
1.14391e-21
-4.50467e-21
1.16999e-20
4.56952e-20
-2.2776e-19
2.87129e-19
2.34647e-18
-6.31786e-19
1.11854e-17
7.12237e-18
3.2571e-18
2.77868e-17
1.3639e-16
4.34117e-16
1.88456e-15
4.72448e-15
1.0313e-14
2.43687e-14
7.53724e-14
2.0907e-13
3.78096e-13
8.53965e-13
3.16635e-12
3.49936e-12
-8.28196e-12
-1.14764e-11
-9.1782e-12
-2.62019e-12
8.82846e-12
2.25804e-11
3.16176e-11
3.10627e-11
2.7052e-11
2.25148e-11
1.88635e-11
1.61767e-11
1.39577e-11
1.20733e-11
1.02987e-11
8.5738e-12
6.85595e-12
5.13074e-12
3.60967e-12
2.39147e-12
1.86463e-12
2.24305e-12
3.52564e-12
1.17717e-11
3.79243e-11
9.09827e-11
1.26163e-10
5.17229e-10
1.85796e-09
3.77892e-09
8.71168e-09
2.6383e-08
5.2725e-08
4.09622e-08
-9.40534e-08
-5.77457e-07
-1.47969e-06
-3.07903e-06
-5.7179e-06
-8.36136e-06
-1.08723e-05
-1.25546e-05
-1.45593e-05
-1.62335e-05
-1.75749e-05
-1.82943e-05
-1.81302e-05
-1.69355e-05
-1.34199e-05
-8.8032e-06
-3.59271e-06
2.2058e-06
8.10636e-06
1.32159e-05
1.79532e-05
2.81102e-05
9.80014e-05
0.000408812
0.000974181
0.00172676
0.00260005
0.00339992
0.00401644
0.00425387
0.00413492
0.00374194
0.0032304
0.00268284
0.00218373
0.00175976
0.00140878
0.00112775
0.000899315
0.000716687
0.00057073
0.000454428
0.000362606
0.000290165
0.000233079
0.000188532
0.000153178
0.000125575
0.000103842
8.65917e-05
7.29488e-05
6.20311e-05
5.31672e-05
4.59691e-05
4.0033e-05
3.50453e-05
3.08137e-05
2.71642e-05
2.3972e-05
2.11476e-05
1.86106e-05
1.63105e-05
1.4248e-05
1.23824e-05
1.06757e-05
9.21081e-06
7.91861e-06
6.81579e-06
5.95262e-06
5.28429e-06
4.84979e-06
4.67028e-06
4.75607e-06
5.18771e-06
6.00724e-06
7.33756e-06
9.23222e-06
1.16474e-05
1.51231e-05
2.03713e-05
2.88216e-05
4.31923e-05
5.43477e-05
5.87616e-05
5.20312e-05
0.000314399
0.00211926
0.00620932
0.0131801
0.0236203
0.0342656
0.0446227
0.0505372
0.0522315
0.0498467
0.0430516
0.0323975
0.0210349
0.0114692
0.00529646
0.00253643
0.0013677
0.000818639
0.000553679
0.000446159
0.000440304
0.000523474
0.00071602
0.00106918
0.00166743
0.00262994
0.00409358
0.0061612
0.00889639
0.0122772
0.0161966
0.0203289
0.0238824
0.0263665
0.0275669
0.0274712
0.0262567
0.0242231
0.0217073
0.0190211
0.0164092
0.0140292
0.0119841
0.0102947
0.00911235
0.00817157
0.00863749
-1.5416e-27
3.81011e-27
-1.68473e-26
1.29074e-25
-5.41064e-25
1.45991e-24
-2.42984e-24
1.49261e-24
8.24376e-24
-5.49758e-23
2.94027e-22
-1.42809e-21
4.92528e-21
-9.56429e-21
1.80997e-20
-4.39851e-21
-8.88887e-20
1.57939e-19
1.28506e-18
3.09897e-18
-2.2573e-18
-1.42902e-17
-2.28527e-17
-2.17174e-17
1.42011e-18
8.3767e-17
3.44132e-16
8.41127e-16
2.13153e-15
7.15687e-15
1.86005e-14
6.39397e-14
3.61356e-14
-1.33697e-13
-8.82059e-13
-1.69725e-12
-1.37191e-12
4.07388e-13
2.70317e-12
4.03212e-12
3.88118e-12
3.20605e-12
2.53595e-12
1.87465e-12
1.35944e-12
3.15644e-13
-1.05876e-12
-2.67767e-12
-4.73746e-12
-7.38402e-12
-1.06572e-11
-1.44521e-11
-1.8436e-11
-2.22895e-11
-2.55163e-11
-2.77443e-11
-2.87078e-11
-2.8267e-11
-2.67269e-11
-2.14231e-11
-1.2363e-11
4.76841e-11
1.54845e-10
4.86647e-10
1.60627e-09
4.83434e-09
8.80698e-09
1.23054e-08
2.48034e-08
3.68055e-08
-2.47963e-08
-3.50128e-07
-1.05268e-06
-2.08114e-06
-3.58405e-06
-5.18195e-06
-6.75429e-06
-8.03321e-06
-8.9425e-06
-9.44311e-06
-9.5369e-06
-9.16347e-06
-8.23188e-06
-6.89124e-06
-5.0142e-06
-2.88982e-06
-6.27001e-07
1.18803e-06
2.69384e-06
4.56746e-06
5.57746e-06
5.01802e-06
3.53542e-06
1.21173e-06
-1.72518e-06
-4.86154e-06
-7.7617e-06
-1.00909e-05
-1.16998e-05
-1.26534e-05
-1.31572e-05
-1.34503e-05
-1.36253e-05
-1.37037e-05
-1.36623e-05
-1.34143e-05
-1.28836e-05
-1.20038e-05
-1.07798e-05
-9.30324e-06
-7.74906e-06
-6.23229e-06
-4.83721e-06
-3.61338e-06
-2.5894e-06
-1.76899e-06
-1.14114e-06
-6.97447e-07
-4.0492e-07
-2.40328e-07
-1.81477e-07
-2.06707e-07
-3.02262e-07
-4.54166e-07
-6.52948e-07
-8.99215e-07
-1.18228e-06
-1.48737e-06
-1.81877e-06
-2.16704e-06
-2.50958e-06
-2.83479e-06
-3.13103e-06
-3.3913e-06
-3.60784e-06
-3.77907e-06
-3.90695e-06
-3.99304e-06
-4.04223e-06
-4.05942e-06
-4.04489e-06
-3.99921e-06
-3.91635e-06
-3.79225e-06
-3.61496e-06
-3.37458e-06
-3.05445e-06
-2.61237e-06
-1.91792e-06
-5.73513e-07
2.0052e-06
4.96209e-06
1.15031e-05
1.67039e-05
7.93161e-06
-8.53163e-06
0.000274998
0.00222777
0.00559316
0.0104567
0.0138297
0.0147568
0.0125422
0.00842145
0.00473333
0.00242245
0.00117852
0.00056525
0.000264396
0.000120088
5.45174e-05
2.64549e-05
1.74334e-05
2.06513e-05
3.54801e-05
6.60106e-05
0.000120442
0.000214047
0.000370981
0.000621429
0.000989568
0.00148939
0.00211503
0.00283176
0.00356634
0.00420736
0.00466244
0.00489015
0.0048994
0.00473743
0.00447119
0.00417077
0.00390557
0.00370516
0.00356033
0.00345318
0.00337365
0.00332178
0.00330857
0.00338886
1.19262e-28
-9.80581e-28
5.56139e-27
-2.07108e-26
5.44858e-26
-1.08759e-25
2.09067e-25
-4.44745e-25
6.75186e-25
2.36634e-25
-4.65681e-24
1.72949e-23
-3.32359e-23
-1.05006e-22
5.18266e-22
4.50023e-22
-2.97794e-21
-2.45784e-21
-3.53967e-20
1.82895e-20
-8.69052e-20
-2.4227e-19
-1.33842e-18
-3.58717e-18
-3.85242e-18
-7.56896e-18
-2.7937e-17
7.31533e-17
-2.80225e-17
-6.30339e-17
3.57764e-15
-7.49428e-16
-1.99954e-14
-1.35202e-13
-2.53297e-13
-2.19525e-13
3.13856e-14
4.48281e-13
7.60477e-13
7.65144e-13
7.87609e-13
1.09534e-12
1.34856e-12
7.96262e-13
-9.13621e-13
-6.45094e-12
-1.20202e-11
-1.78666e-11
-2.51195e-11
-3.39839e-11
-4.43853e-11
-5.57985e-11
-6.72236e-11
-7.77577e-11
-8.61697e-11
-9.15355e-11
-9.27884e-11
-8.93339e-11
-8.26498e-11
-7.40497e-11
-6.38757e-11
-4.94949e-11
-2.70524e-11
1.84719e-11
1.04189e-10
2.60028e-10
5.96439e-10
2.05931e-09
4.49454e-09
5.33147e-09
6.47802e-09
4.2434e-09
-3.90533e-09
-2.50762e-08
-1.67245e-07
-4.4298e-07
-8.33587e-07
-1.28039e-06
-1.72305e-06
-2.10578e-06
-2.39191e-06
-2.54719e-06
-2.54671e-06
-2.39247e-06
-2.0999e-06
-1.68883e-06
-1.11568e-06
-4.64682e-07
1.01783e-07
5.16109e-07
8.5098e-07
1.18424e-06
1.24535e-06
8.5147e-07
-2.45186e-07
-1.96889e-06
-4.1664e-06
-6.74971e-06
-9.73603e-06
-1.22751e-05
-1.40538e-05
-1.53348e-05
-1.61431e-05
-1.64823e-05
-1.64328e-05
-1.60435e-05
-1.52718e-05
-1.40836e-05
-1.24731e-05
-1.05019e-05
-8.54079e-06
-6.76474e-06
-5.24184e-06
-4.00014e-06
-3.02461e-06
-2.28236e-06
-1.72991e-06
-1.32854e-06
-1.05201e-06
-8.78147e-07
-7.88383e-07
-7.64558e-07
-7.92133e-07
-8.47372e-07
-9.3725e-07
-1.06362e-06
-1.2177e-06
-1.40376e-06
-1.52971e-06
-1.62813e-06
-1.72763e-06
-1.81906e-06
-1.89403e-06
-1.96094e-06
-2.01627e-06
-2.06461e-06
-2.11102e-06
-2.15526e-06
-2.19512e-06
-2.23028e-06
-2.25379e-06
-2.2673e-06
-2.27511e-06
-2.28971e-06
-2.31906e-06
-2.35848e-06
-2.39092e-06
-2.35336e-06
-2.20498e-06
-2.02514e-06
-1.57155e-06
-8.94076e-07
5.44697e-07
-2.02834e-06
-6.82345e-06
-9.29588e-06
-1.62537e-05
-1.49719e-05
-4.85271e-06
3.18538e-05
0.000118079
0.000127401
6.88892e-05
2.73713e-05
1.75779e-06
-1.1188e-05
-1.65168e-05
-2.03444e-05
-2.40677e-05
-2.53615e-05
-2.60854e-05
-2.64956e-05
-2.48656e-05
-2.07521e-05
-1.45464e-05
-5.60881e-06
8.28032e-06
2.31616e-05
4.15501e-05
6.91801e-05
0.000109048
0.00016156
0.000225551
0.000298592
0.000378572
0.000465353
0.000559511
0.00065644
0.000755975
0.000864876
0.000985831
0.00121989
0.00172237
0.0021949
0.00263679
0.00305724
0.00342198
0.00370695
0.00391904
0.00407733
-2.92859e-27
1.28506e-26
-2.80162e-26
-1.2418e-26
2.91473e-25
-9.18594e-25
1.20654e-24
5.84083e-26
-1.55118e-24
-3.32533e-24
2.00514e-23
-2.79852e-23
-2.25581e-23
1.33712e-22
1.34668e-22
-2.02888e-22
-4.73913e-22
-1.572e-21
-3.2893e-21
-1.18648e-20
-5.57176e-21
5.54383e-20
1.04278e-19
-4.43698e-20
1.3425e-18
-8.93721e-19
-1.93388e-18
5.06562e-18
-3.55004e-17
-8.77366e-17
4.91139e-16
-1.83674e-15
-5.263e-15
-2.10348e-14
-2.56715e-14
1.57385e-14
7.95417e-14
1.02609e-13
1.45662e-13
-1.96843e-13
-3.61971e-13
2.78649e-12
9.10969e-12
7.53124e-12
-1.24694e-11
-5.01148e-11
-8.67939e-11
-1.27507e-10
-1.79831e-10
-2.43442e-10
-3.17296e-10
-3.97891e-10
-4.82102e-10
-5.51095e-10
-5.92423e-10
-6.00931e-10
-5.72756e-10
-5.1015e-10
-4.30947e-10
-3.45889e-10
-2.67967e-10
-1.9968e-10
-1.40774e-10
-9.09074e-11
-4.37156e-11
-1.16701e-12
4.62196e-11
1.03022e-10
1.78405e-10
4.00936e-11
2.68847e-10
-2.22224e-10
-9.54393e-10
-2.09702e-09
-4.87938e-09
-9.55511e-09
-1.70367e-08
-2.61604e-08
-3.62918e-08
-4.57883e-08
-5.28071e-08
-6.56588e-08
-8.95442e-08
-1.20613e-07
-1.55203e-07
-1.86723e-07
-2.00388e-07
-1.715e-07
-8.96685e-08
1.51128e-08
9.84014e-08
1.77927e-07
2.8625e-07
3.80432e-07
3.42566e-07
1.40445e-07
-1.9557e-07
-6.44831e-07
-1.227e-06
-1.89992e-06
-2.67361e-06
-3.52015e-06
-4.39874e-06
-5.12835e-06
-5.5165e-06
-5.5122e-06
-5.13322e-06
-4.48015e-06
-3.68936e-06
-2.87789e-06
-2.13278e-06
-1.52122e-06
-1.06391e-06
-7.41639e-07
-5.1907e-07
-3.68145e-07
-2.65387e-07
-1.94348e-07
-1.41063e-07
-9.42378e-08
-5.44007e-08
-2.37987e-08
-2.92208e-09
8.93139e-09
1.28217e-08
9.44331e-09
-1.32378e-09
-1.94179e-08
-4.02999e-08
-7.52048e-08
-1.40331e-07
-2.28559e-07
-3.36474e-07
-4.68273e-07
-6.25404e-07
-7.96827e-07
-9.6558e-07
-1.12806e-06
-1.24632e-06
-1.31914e-06
-1.33401e-06
-1.27383e-06
-1.18154e-06
-1.08627e-06
-9.85203e-07
-9.1716e-07
-9.10751e-07
-9.46444e-07
-1.01126e-06
-1.08454e-06
-1.17434e-06
-1.19903e-06
-1.09119e-06
-1.10076e-06
-1.58983e-06
-2.27924e-06
-6.98284e-06
-1.28531e-05
-1.95914e-05
-3.38585e-05
-4.01352e-05
-4.09245e-05
-3.84626e-05
-3.46997e-05
-3.0471e-05
-3.10778e-05
-2.96023e-05
-3.1322e-05
-3.57212e-05
-3.06618e-05
-1.56988e-05
9.5545e-06
3.48319e-05
4.92971e-05
4.94195e-05
3.98805e-05
2.84096e-05
2.00826e-05
1.56876e-05
1.40827e-05
1.43548e-05
1.67768e-05
2.37115e-05
4.15865e-05
8.39981e-05
0.000174039
0.000347913
0.000655801
0.001154
0.00190525
0.00309691
0.00498166
0.00767256
0.0111648
0.0154403
0.0203896
0.0252338
0.0288417
0.0313211
0.0306189
2.37439e-26
-4.64853e-26
-1.78205e-25
1.08127e-24
-2.70449e-24
2.47989e-24
4.12711e-24
-1.20473e-23
-7.48454e-24
7.9104e-23
-1.02656e-22
-7.70913e-23
1.27361e-22
-3.32022e-23
-2.08116e-22
-2.14973e-21
-1.03511e-20
-1.95686e-20
-2.72232e-20
-2.7435e-20
-2.10516e-20
-1.54025e-20
-4.99575e-21
2.41272e-20
1.0072e-19
-6.85211e-20
8.75769e-19
-2.39236e-18
-3.7398e-20
6.5008e-18
-4.88828e-17
-6.50252e-17
-4.64695e-16
-1.66068e-15
3.11863e-15
1.26746e-14
1.78226e-14
1.19652e-14
3.62744e-14
2.21107e-12
-1.81136e-11
2.56176e-12
5.90389e-11
4.89798e-11
-1.23776e-10
-3.50914e-10
-6.19963e-10
-9.40933e-10
-1.3128e-09
-1.70543e-09
-2.13042e-09
-2.65004e-09
-4.34975e-09
-6.48697e-09
-8.1948e-09
-8.89399e-09
-8.74692e-09
-8.4623e-09
-8.04794e-09
-7.36073e-09
-6.50714e-09
-5.51016e-09
-4.48887e-09
-3.52202e-09
-2.66656e-09
-1.95966e-09
-1.40421e-09
-1.01116e-09
-7.32608e-10
-5.40894e-10
-4.257e-10
-4.23286e-10
-5.17305e-10
-6.35793e-10
-8.17125e-10
-1.03406e-09
-1.07886e-09
-8.50352e-10
-3.82465e-10
2.87115e-10
1.13468e-09
1.88147e-09
2.78911e-09
3.78405e-09
4.65477e-09
4.97254e-09
3.88637e-09
-5.02795e-10
-3.12143e-09
1.4695e-09
1.40048e-08
2.59295e-08
4.36019e-08
7.30532e-08
1.14141e-07
1.74488e-07
2.36357e-07
2.45453e-07
2.22967e-07
1.65335e-07
7.36045e-08
-3.76431e-08
-1.55619e-07
-2.62074e-07
-3.39912e-07
-3.81739e-07
-3.8833e-07
-3.68178e-07
-3.31517e-07
-2.87596e-07
-2.45574e-07
-2.11508e-07
-1.84959e-07
-1.63259e-07
-1.45063e-07
-1.34281e-07
-1.28858e-07
-1.29032e-07
-1.33162e-07
-1.39978e-07
-1.47468e-07
-1.57281e-07
-1.76722e-07
-2.18761e-07
-3.0039e-07
-4.34073e-07
-6.26621e-07
-8.85639e-07