/*--------------------------------*- C++ -*----------------------------------*\
| =========                 |                                                 |
| \\      /  F ield         | OpenFOAM: The Open Source CFD Toolbox           |
|  \\    /   O peration     | Version:  2506                                  |
|   \\  /    A nd           | Website:  www.openfoam.com                      |
|    \\/     M anipulation  |                                                 |
\*---------------------------------------------------------------------------*/
FoamFile
{
    version     2.0;
    format      ascii;
    arch        "LSB;label=32;scalar=64";
    class       volVectorField;
    location    "4";
    object      U;
}
// * * * * * * * * * * * * * * * * * * * * * * * * * * * * * * * * * * * * * //

dimensions      [0 1 -1 0 0 0 0];

internalField   nonuniform List<vector> 
4000
(
(0.00799083 0.000752327 0)
(0.0072199 0.000878072 -4.1499e-21)
(0.00604814 0.000505113 4.2841e-21)
(0.00498969 0.000236756 8.62943e-21)
(0.00438881 0.000118312 -1.74563e-20)
(0.00405864 6.64539e-05 8.77878e-21)
(0.00384554 4.25633e-05 0)
(0.00369421 3.16674e-05 0)
(0.00358137 2.68814e-05 0)
(0.00349244 2.49215e-05 1.73616e-20)
(0.00341894 2.42733e-05 -1.73889e-20)
(0.00335634 2.42702e-05 3.44925e-20)
(0.00330196 2.46299e-05 -3.45313e-20)
(0.00325393 2.52219e-05 0)
(0.00321084 2.59793e-05 0)
(0.00317153 2.68696e-05 0)
(0.00313505 2.78745e-05 3.3829e-20)
(0.00310056 2.89935e-05 -3.38513e-20)
(0.00306725 3.02351e-05 0)
(0.00303439 3.16073e-05 0)
(0.00300124 3.31206e-05 0)
(0.0029671 3.47853e-05 0)
(0.00293126 3.66091e-05 0)
(0.00289297 3.86047e-05 6.5733e-20)
(0.00285144 4.07902e-05 -1.31255e-19)
(0.00280579 4.319e-05 6.5526e-20)
(0.00275497 4.58467e-05 0)
(0.00269774 4.88339e-05 0)
(0.00263251 5.22731e-05 0)
(0.00255715 5.63757e-05 0)
(0.0024686 6.15557e-05 -6.41673e-20)
(0.00236241 6.87062e-05 6.42865e-20)
(0.00223461 7.82345e-05 0)
(0.00204221 9.61979e-05 5.58905e-20)
(0.0018148 0.000156238 6.37845e-20)
(0.00166858 0.000269577 -3.21408e-19)
(0.00162375 0.000410067 -2.58196e-19)
(0.00162773 0.000555471 6.50566e-20)
(0.00166253 0.000705245 -2.60741e-19)
(0.00173818 0.00086612 -5.87762e-19)
(0.00189728 0.00104932 6.5463e-20)
(0.00216358 0.00124398 5.19798e-19)
(0.00245854 0.0014142 -5.16515e-19)
(0.00273848 0.00155473 0)
(0.00301263 0.00167306 0)
(0.0032774 0.00176977 -3.14191e-20)
(0.00354365 0.00184604 -4.68252e-19)
(0.00380307 0.0018929 -4.65335e-19)
(0.00404564 0.00190993 -2.77039e-19)
(0.00428586 0.0018966 -2.43124e-19)
(0.00450624 0.00184609 2.40097e-19)
(0.0047122 0.00176161 0)
(0.0048911 0.00163375 -2.91856e-20)
(0.00503853 0.00147315 4.93655e-19)
(0.00514985 0.00127201 0)
(0.00520858 0.00104206 -1.1336e-19)
(0.00522347 0.000785824 -2.78014e-20)
(0.00516593 0.000514792 -1.46904e-23)
(0.00507348 0.000248872 -3.94986e-22)
(0.00490996 -2.16846e-05 -1.38459e-20)
(0.00469942 -0.000264774 2.64944e-20)
(0.0044662 -0.000482389 0)
(0.00420176 -0.000667017 0)
(0.00394003 -0.000816075 5.11717e-20)
(0.00366818 -0.000932824 3.55982e-19)
(0.00341495 -0.00101685 4.99577e-20)
(0.00316885 -0.00107515 -5.03184e-20)
(0.00294516 -0.00110943 4.8735e-20)
(0.00273844 -0.00112571 1.44831e-19)
(0.00254835 -0.00112579 -3.3449e-19)
(0.00238105 -0.00111392 -4.73798e-20)
(0.00222268 -0.00109191 1.01771e-21)
(0.00208155 -0.00106213 0)
(0.00195325 -0.00102754 0)
(0.00183259 -0.000988267 0)
(0.00172378 -0.000946237 -2.2115e-20)
(0.0016245 -0.000903131 -3.29205e-19)
(0.00153193 -0.000859256 0)
(0.00144845 -0.000815711 9.28004e-22)
(0.00137357 -0.000773554 2.11653e-20)
(0.00130591 -0.000733021 -3.36311e-19)
(0.00124573 -0.000694409 3.02175e-19)
(0.00119233 -0.000657836 6.54819e-23)
(0.0011449 -0.000622985 3.30526e-19)
(0.00110362 -0.000589818 1.79489e-21)
(0.00106646 -0.000557924 -3.15737e-19)
(0.00103215 -0.00052652 -3.17105e-19)
(0.00100229 -0.000495662 3.18925e-19)
(0.000974241 -0.000465114 -4.81524e-21)
(0.00094664 -0.000434129 -3.03751e-19)
(0.000922252 -0.000403019 0)
(0.000898214 -0.00037185 -3.05588e-19)
(0.000874309 -0.000340136 -2.83528e-19)
(0.000853265 -0.000308405 2.89139e-19)
(0.000831107 -0.000276593 -1.60706e-19)
(0.000812638 -0.000244673 1.76446e-20)
(0.000793827 -0.000213161 1.39365e-19)
(0.000778735 -0.000181572 1.71614e-20)
(0.000764169 -0.000150525 1.19136e-19)
(0.000754028 -0.000119144 8.41698e-20)
(0.000746006 -8.85325e-05 -3.33795e-20)
(0.000741659 -5.7428e-05 8.28581e-20)
(0.000741376 -2.63238e-05 -8.25001e-21)
(0.000744174 4.7263e-06 -8.21726e-21)
(0.000751581 3.66755e-05 -3.27501e-20)
(0.000763971 6.91189e-05 0)
(0.000780685 0.000103263 0)
(0.000803993 0.000138631 -2.58479e-19)
(0.000832149 0.000176167 -8.23283e-21)
(0.000867082 0.000216439 1.36305e-19)
(0.000908457 0.000259969 1.32454e-19)
(0.000956962 0.000307343 4.1487e-21)
(0.00101277 0.000359225 -1.37647e-19)
(0.00107685 0.000415966 -2.50844e-22)
(0.00114738 0.000478061 0)
(0.00122874 0.000545953 2.68153e-19)
(0.00131554 0.000618842 -8.35323e-21)
(0.00141023 0.00069744 -2.50417e-19)
(0.00151272 0.000780866 -8.38224e-21)
(0.00162001 0.000867495 -2.66538e-19)
(0.00173354 0.000956863 -9.43723e-22)
(0.00185236 0.0010473 2.64135e-19)
(0.00197264 0.00113712 1.6326e-20)
(0.00209479 0.00122579 -2.93306e-19)
(0.00221965 0.00131186 1.6254e-20)
(0.0023446 0.00139358 2.56331e-19)
(0.00247001 0.00147001 3.15073e-20)
(0.00259557 0.00153983 -3.15984e-20)
(0.00272072 0.0016023 2.48088e-19)
(0.00284885 0.00165736 -2.13099e-19)
(0.00297966 0.00170251 -3.0454e-20)
(0.00310828 0.0017375 -4.45069e-19)
(0.00324484 0.00176401 -2.9567e-20)
(0.00338869 0.00177761 -2.30362e-19)
(0.00353029 0.00177814 1.52369e-21)
(0.00368595 0.00176771 0)
(0.00384886 0.00173738 0)
(0.00400756 0.00169075 -7.13862e-22)
(0.00417848 0.00162261 0)
(0.00434337 0.00153086 -2.49945e-20)
(0.0045053 0.00141274 -7.31905e-20)
(0.00465371 0.00126543 -2.36739e-20)
(0.00477656 0.00108861 -4.62973e-20)
(0.00487264 0.000885103 -2.30931e-20)
(0.00491755 0.000654163 -6.56934e-20)
(0.0049214 0.000411557 2.16134e-20)
(0.00486271 0.000148876 0)
(0.00473369 -9.93359e-05 0)
(0.00456657 -0.000333466 0)
(0.00434186 -0.000538984 -1.85008e-20)
(0.0040989 -0.000709988 1.85494e-20)
(0.00382121 -0.000850266 7.07875e-20)
(0.00354074 -0.000949691 6.87804e-20)
(0.0032535 -0.00101679 0)
(0.00297738 -0.00104963 -6.49537e-20)
(0.00270232 -0.00105267 0)
(0.00243718 -0.00102718 -1.48987e-20)
(0.00217521 -0.000977114 7.50022e-20)
(0.00191075 -0.000897323 -1.44131e-20)
(0.00162887 -0.000764081 2.42891e-19)
(0.00151773 -0.000627123 -5.58087e-20)
(0.00150037 -0.000519153 -5.46256e-20)
(0.00147797 -0.000421619 0)
(0.0014638 -0.000329188 0)
(0.00148289 -0.000241042 0)
(0.00154411 -0.000164319 0)
(0.00167034 -0.000103584 0)
(0.00184783 -7.57067e-05 1.13949e-20)
(0.00201659 -6.89563e-05 -3.09966e-22)
(0.00217311 -6.75969e-05 -3.19538e-22)
(0.00232679 -6.66474e-05 -1.07145e-20)
(0.00247444 -6.49255e-05 0)
(0.00261058 -6.21431e-05 9.62141e-21)
(0.00273066 -5.83855e-05 -9.58827e-21)
(0.00283171 -5.39023e-05 2.8155e-22)
(0.00291239 -4.89916e-05 0)
(0.00297286 -4.38639e-05 0)
(0.00301453 -3.86922e-05 -7.68743e-21)
(0.0030397 -3.38862e-05 7.67404e-21)
(0.00305132 -2.93816e-05 0)
(0.00305211 -2.56509e-05 0)
(0.00304465 -2.2913e-05 -2.89103e-21)
(0.0030317 -2.06567e-05 1.80533e-22)
(0.00301592 -1.8837e-05 2.90173e-21)
(0.00299942 -1.73329e-05 0)
(0.00298391 -1.61053e-05 0)
(0.00297063 -1.51147e-05 0)
(0.00296034 -1.43475e-05 0)
(0.00295351 -1.38417e-05 1.20094e-22)
(0.00294993 -1.36067e-05 0)
(0.00294911 -1.32841e-05 0)
(0.00295056 -1.27304e-05 0)
(0.00295355 -1.1951e-05 5.79788e-22)
(0.00295723 -1.09479e-05 -5.78873e-22)
(0.00296073 -9.70797e-06 0)
(0.00296317 -8.18879e-06 4.62477e-23)
(0.00296373 -6.35369e-06 1.23111e-22)
(0.00296124 -4.09478e-06 -8.20589e-23)
(0.00295232 -7.21427e-07 -4.082e-23)
(0.00293354 7.8232e-06 0)
(0.00987615 0.00143531 0)
(0.0104318 0.00199212 0)
(0.0101838 0.00162937 0)
(0.00948075 0.001134 8.50822e-21)
(0.0087905 0.000740733 -1.72802e-20)
(0.00826745 0.000482227 8.74309e-21)
(0.00786622 0.000328765 0)
(0.0075449 0.000239991 1.75574e-20)
(0.00728363 0.000186188 -1.76692e-20)
(0.00706729 0.000151088 1.75899e-20)
(0.00688406 0.000126522 -1.76647e-20)
(0.00672614 0.000108284 -3.51198e-20)
(0.00658832 9.42101e-05 3.5229e-20)
(0.0064667 8.31499e-05 3.49893e-20)
(0.00635812 7.44337e-05 -1.66815e-22)
(0.00625994 6.76507e-05 -6.97953e-20)
(0.00616989 6.25504e-05 3.48816e-20)
(0.00608596 5.89667e-05 0)
(0.00600628 5.6835e-05 0)
(0.00592914 5.60798e-05 0)
(0.0058529 5.6653e-05 0)
(0.00577598 5.85436e-05 0)
(0.00569686 6.17735e-05 0)
(0.00561401 6.64007e-05 0)
(0.00552585 7.25302e-05 0)
(0.00543072 8.03406e-05 0)
(0.00532681 9.01488e-05 0)
(0.00521205 0.000102344 0)
(0.005084 0.000117565 0)
(0.00493967 0.000136829 0)
(0.00477529 0.000161806 -6.67738e-20)
(0.00458594 0.000195475 2.75204e-22)
(0.00436866 0.00024341 1.33611e-19)
(0.00409161 0.000314233 -5.8566e-20)
(0.00378637 0.000447455 -6.68592e-20)
(0.00357616 0.000668871 2.02427e-19)
(0.00350604 0.000954436 -2.72345e-19)
(0.00353586 0.00127347 -6.85756e-20)
(0.003649 0.00161749 6.91566e-19)
(0.00386061 0.00198643 2.09104e-19)
(0.00421747 0.00237869 0)
(0.00472662 0.00277129 6.87379e-20)
(0.00529018 0.0031287 4.0946e-19)
(0.00585245 0.00344134 6.8011e-20)
(0.00641259 0.00370929 5.35824e-19)
(0.00696413 0.00392968 -5.30359e-19)
(0.0075141 0.00409853 1.96891e-21)
(0.00805072 0.00420281 0)
(0.00856368 0.00424015 -2.57399e-19)
(0.00906201 0.00420537 0)
(0.00952678 0.00409141 -7.15577e-22)
(0.00995768 0.00390029 0)
(0.0103377 0.00362097 -2.44782e-19)
(0.0106591 0.00326883 -2.42239e-19)
(0.0109067 0.0028359 0)
(0.0110629 0.00234227 4.16151e-24)
(0.0111291 0.00179729 1.16809e-19)
(0.0110765 0.00121625 2.85932e-20)
(0.010934 0.000633573 5.6769e-20)
(0.0106644 4.43714e-05 -1.42935e-20)
(0.0102982 -0.000505204 0)
(0.0098586 -0.00100771 1.11432e-19)
(0.00935113 -0.0014484 -5.57471e-20)
(0.0088162 -0.00181924 -1.09735e-19)
(0.00824957 -0.00211729 -3.26885e-19)
(0.0076932 -0.00234366 -5.44169e-20)
(0.00714066 -0.00250808 2.67894e-19)
(0.00661666 -0.00261305 -5.36015e-20)
(0.00611902 -0.00266895 0)
(0.00565209 -0.00268187 5.22018e-20)
(0.0052237 -0.00265914 -5.22063e-20)
(0.00481932 -0.00260692 2.0795e-21)
(0.00444713 -0.0025313 0)
(0.00410313 -0.00243762 -4.04334e-19)
(0.00378133 -0.00232995 -4.00063e-19)
(0.00348466 -0.00221273 2.45779e-20)
(0.00321093 -0.00208977 -2.45053e-20)
(0.0029567 -0.0019642 2.4045e-20)
(0.0027236 -0.00183916 -3.80973e-19)
(0.00251113 -0.00171693 3.54599e-19)
(0.00231766 -0.00159917 -3.73855e-19)
(0.00214294 -0.00148687 -3.79179e-19)
(0.00198575 -0.00138078 2.27611e-20)
(0.00184455 -0.00128033 -3.71587e-19)
(0.00171865 -0.00118516 3.51429e-19)
(0.00160523 -0.00109451 -3.48249e-19)
(0.00150197 -0.00100766 3.46302e-19)
(0.00140899 -0.000923772 -3.40219e-19)
(0.00132276 -0.000842048 -1.04785e-20)
(0.00124187 -0.000762737 1.03854e-20)
(0.00116724 -0.000685434 0)
(0.0010959 -0.000610362 0)
(0.00102819 -0.000538133 1.58793e-19)
(0.000965704 -0.000468963 -1.75476e-19)
(0.000905681 -0.000403727 1.53901e-19)
(0.000852343 -0.000342611 3.79314e-20)
(0.000802852 -0.000286427 1.92389e-22)
(0.000761365 -0.00023497 -7.31204e-23)
(0.000726072 -0.000188628 -3.281e-19)
(0.000700847 -0.000146194 -5.39655e-20)
(0.00068438 -0.000107704 7.13823e-20)
(0.000679696 -7.15468e-05 -7.07507e-20)
(0.000686347 -3.69892e-05 0)
(0.000705638 -1.97756e-06 -8.72539e-21)
(0.000738814 3.57227e-05 8.73226e-21)
(0.000787117 7.75713e-05 0)
(0.000850287 0.000125962 0)
(0.000930359 0.000182406 1.39639e-19)
(0.00102657 0.000249114 -1.39756e-19)
(0.00114024 0.000327695 1.4449e-19)
(0.00127137 0.00041986 -2.81365e-19)
(0.00142037 0.000526914 -2.0593e-23)
(0.00158708 0.000650022 -4.42828e-21)
(0.0017718 0.000790278 -1.41813e-19)
(0.00197226 0.000947772 0)
(0.00219113 0.00112272 0)
(0.00242257 0.0013143 0)
(0.00266771 0.00152199 2.92398e-19)
(0.00292493 0.00174178 2.72484e-19)
(0.00318981 0.00197112 0)
(0.00346279 0.00220884 -3.15734e-19)
(0.00374236 0.00245024 5.22829e-20)
(0.00402451 0.00269128 -3.45913e-20)
(0.00430904 0.00292868 1.72742e-20)
(0.00459626 0.00315859 -3.38874e-20)
(0.00488372 0.00337723 2.69775e-19)
(0.00517197 0.00358139 -2.33035e-19)
(0.00546121 0.00376801 2.96838e-19)
(0.00575195 0.00393456 -5.16481e-22)
(0.0060478 0.00407902 2.27871e-19)
(0.00634879 0.00419794 0)
(0.00665216 0.00429019 2.53403e-19)
(0.00696775 0.00435489 -3.06577e-20)
(0.00729439 0.00438669 -2.11535e-19)
(0.0076248 0.00438471 2.40761e-19)
(0.00797249 0.00434757 -2.89439e-20)
(0.00832852 0.00426464 2.90356e-20)
(0.00868218 0.00413907 -2.89804e-20)
(0.00904254 0.00396131 2.7729e-20)
(0.00939055 0.00372954 -2.62724e-20)
(0.00972131 0.00343889 1.30735e-19)
(0.0100186 0.00308717 -1.25384e-19)
(0.0102638 0.00267536 1.23418e-19)
(0.0104477 0.00221047 0)
(0.0105387 0.00169449 2.34125e-20)
(0.0105418 0.00115742 -2.21537e-20)
(0.0104305 0.000593049 -1.08442e-20)
(0.0102026 4.7389e-05 0)
(0.00988122 -0.000470335 -2.04644e-20)
(0.00945477 -0.000937501 3.98022e-20)
(0.00896506 -0.00133617 0)
(0.00840201 -0.00166981 -7.55764e-20)
(0.0078117 -0.00191733 -1.81368e-20)
(0.00719355 -0.00209018 1.82284e-20)
(0.00658212 -0.00218554 0)
(0.00596692 -0.00220733 6.88962e-20)
(0.00536611 -0.00216105 -6.68765e-20)
(0.00477664 -0.00205271 6.59644e-20)
(0.00420652 -0.00188435 0)
(0.00363426 -0.0016423 -1.25376e-19)
(0.00328826 -0.00136377 -7.69262e-20)
(0.00310563 -0.00110058 1.34878e-19)
(0.00297569 -0.000867996 -1.43998e-20)
(0.00289518 -0.000670201 1.42941e-20)
(0.00289243 -0.000503556 1.3563e-20)
(0.0029823 -0.000373737 1.29845e-20)
(0.0031879 -0.000285835 -1.14066e-20)
(0.00348641 -0.000249744 -7.76225e-22)
(0.00381089 -0.000242243 0)
(0.00413947 -0.000240716 7.21807e-22)
(0.00446736 -0.000234743 0)
(0.00478262 -0.000220396 -6.67046e-22)
(0.00507256 -0.000197742 -1.00742e-20)
(0.00532743 -0.000168797 1.06246e-20)
(0.00554106 -0.0001362 -8.81281e-22)
(0.00571076 -0.000102543 8.79749e-21)
(0.00583696 -7.00078e-05 -1.66151e-20)
(0.00592264 -4.03533e-05 1.63384e-20)
(0.00597254 -1.46137e-05 -8.44414e-21)
(0.00599242 6.3998e-06 0)
(0.00598841 2.21205e-05 3.83132e-21)
(0.00596741 3.29899e-05 -3.5971e-21)
(0.0059359 3.94515e-05 -3.87313e-22)
(0.00589903 4.19774e-05 -2.82101e-21)
(0.00586119 4.12839e-05 2.47731e-21)
(0.00582593 3.81212e-05 2.44902e-21)
(0.00579565 3.32614e-05 -2.73975e-21)
(0.00577172 2.75383e-05 2.35583e-21)
(0.00575464 2.16638e-05 -4.10993e-21)
(0.00574407 1.59499e-05 2.53735e-21)
(0.0057388 1.11306e-05 -8.61147e-22)
(0.00573706 7.68611e-06 -1.8208e-22)
(0.00573691 5.77157e-06 0)
(0.00573641 5.4307e-06 3.73729e-22)
(0.0057337 6.61242e-06 -5.11294e-22)
(0.00572721 9.27635e-06 2.65956e-23)
(0.00571565 1.3532e-05 -1.69725e-22)
(0.00569772 1.98629e-05 0)
(0.00567088 2.94062e-05 0)
(0.00562954 4.55367e-05 -1.1237e-23)
(0.00987673 0.000895129 0)
(0.0105619 0.00167962 -4.16511e-21)
(0.0110077 0.00171985 4.14596e-21)
(0.0108819 0.00149515 8.24176e-21)
(0.0105987 0.00118151 -8.32415e-21)
(0.0102557 0.00090602 0)
(0.00990854 0.000697756 0)
(0.00958672 0.0005516 0)
(0.00929895 0.00044975 -1.68514e-20)
(0.00904531 0.00037635 3.38333e-20)
(0.00882171 0.000321223 1.68053e-20)
(0.00862372 0.000278319 -3.39311e-20)
(0.00844766 0.000244168 -3.37471e-20)
(0.00829019 0.00021675 3.38695e-20)
(0.00814825 0.000194796 0)
(0.00801905 0.000177466 -3.35929e-20)
(0.00790005 0.000164197 6.72002e-20)
(0.00778889 0.000154587 -3.35994e-20)
(0.00768337 0.000148361 0)
(0.00758142 0.000145321 0)
(0.00748105 0.000145325 0)
(0.00738035 0.000148288 0)
(0.00727746 0.000154184 0)
(0.00717053 0.000163059 -6.57775e-20)
(0.0070577 0.000175049 6.59037e-20)
(0.00693705 0.000190403 0)
(0.00680656 0.000209528 0)
(0.00666405 0.000233046 0)
(0.00650709 0.000261884 0)
(0.00633294 0.000297415 0)
(0.00613853 0.00034171 -6.47676e-20)
(0.0059203 0.00039802 6.4964e-20)
(0.0056781 0.000472003 0)
(0.00539206 0.0005712 4.04203e-21)
(0.00509075 0.000722521 0)
(0.00488452 0.000952158 -1.3097e-19)
(0.00483376 0.00125216 2.6498e-19)
(0.00492035 0.00160551 0)
(0.00513117 0.00200468 -5.34041e-19)
(0.0054726 0.00244339 5.76332e-22)
(0.00597107 0.00290616 -6.61235e-20)
(0.00660931 0.00336204 6.59271e-20)
(0.00729969 0.00378423 -5.20908e-19)
(0.00799424 0.00416369 0)
(0.00868598 0.00449425 -5.73077e-19)
(0.00936803 0.00476885 5.35998e-19)
(0.0100425 0.00497913 5.29484e-19)
(0.0106986 0.00511259 0)
(0.0113279 0.00516485 2.42744e-19)
(0.0119334 0.00512833 0)
(0.0124993 0.0049982 -4.74906e-19)
(0.0130207 0.00477519 0)
(0.0134822 0.0044522 2.03418e-19)
(0.0138753 0.004041 2.58393e-19)
(0.014184 0.00353941 2.27402e-19)
(0.0143943 0.00296544 1.12434e-19)
(0.0145004 0.0023323 1.11046e-19)
(0.0144795 0.00165169 5.47074e-20)
(0.0143495 0.00095614 -2.72607e-20)
(0.0140821 0.000251084 -4.02908e-20)
(0.013699 -0.000422234 0)
(0.0132149 -0.00104948 -1.05099e-19)
(0.0126402 -0.00161332 1.04366e-19)
(0.0120088 -0.00209837 0)
(0.0113245 -0.00250291 4.13449e-19)
(0.0106273 -0.00281934 0)
(0.00991904 -0.00305725 5.09172e-20)
(0.00922628 -0.00321091 -5.11768e-20)
(0.00855386 -0.00329951 0)
(0.0079095 -0.00332676 5.01221e-20)
(0.00730286 -0.00330155 -5.02739e-20)
(0.00672608 -0.00323233 -5.46423e-19)
(0.00618598 -0.00312693 3.46088e-19)
(0.00568081 -0.00299282 -1.77741e-21)
(0.00520616 -0.00283706 3.87764e-19)
(0.00476371 -0.00266614 2.39955e-20)
(0.00435198 -0.00248596 -4.07012e-19)
(0.00396824 -0.00230205 0)
(0.00361323 -0.00211902 -3.76239e-19)
(0.00328669 -0.00194055 -7.20752e-19)
(0.00298734 -0.00176948 7.02233e-19)
(0.0027148 -0.00160761 3.76928e-19)
(0.00246793 -0.00145587 -3.72956e-19)
(0.00224508 -0.00131418 3.67686e-19)
(0.00204512 -0.0011818 0)
(0.00186527 -0.00105778 3.48442e-19)
(0.00170271 -0.000941216 3.83552e-21)
(0.00155627 -0.00083099 6.89976e-19)
(0.00142246 -0.000726443 3.15587e-19)
(0.00129899 -0.000627735 3.42547e-19)
(0.00118564 -0.000534735 0)
(0.00107988 -0.000447978 0)
(0.000981255 -0.000368491 -1.58871e-19)
(0.000890806 -0.000296912 0)
(0.000806913 -0.000234182 -1.92876e-20)
(0.000732471 -0.000181108 1.90948e-20)
(0.000666491 -0.000137945 -1.50315e-19)
(0.000612036 -0.00010506 1.48509e-19)
(0.000569085 -8.15841e-05 1.2829e-19)
(0.000540623 -6.68357e-05 1.81572e-20)
(0.000527396 -5.86687e-05 -7.17664e-20)
(0.000531381 -5.57227e-05 3.55642e-20)
(0.000554741 -5.51239e-05 -2.64548e-20)
(0.000599025 -5.32605e-05 8.78547e-21)
(0.000665444 -4.70781e-05 0)
(0.000755237 -3.26961e-05 6.95822e-20)
(0.000868925 -7.09169e-06 0)
(0.00100824 3.34471e-05 1.38768e-19)
(0.00117253 9.19764e-05 2.17971e-22)
(0.00136234 0.000171301 -1.34631e-19)
(0.00157786 0.0002738 1.3896e-19)
(0.00181783 0.000401258 -4.34715e-21)
(0.00208171 0.000554831 0)
(0.00236794 0.00073563 1.38226e-19)
(0.00267424 0.000943406 -1.37968e-19)
(0.00300067 0.00117747 0)
(0.00334171 0.00143641 8.5497e-21)
(0.00369708 0.00171755 -2.81344e-19)
(0.00406416 0.00201739 -2.55762e-19)
(0.00443843 0.002332 2.52707e-19)
(0.00481916 0.00265694 -2.6789e-19)
(0.00520446 0.00298716 -1.65868e-20)
(0.00559105 0.00331744 2.47511e-19)
(0.00597866 0.00364244 3.29922e-20)
(0.00636725 0.00395663 2.9133e-19)
(0.00675535 0.00425503 -5.79313e-19)
(0.00714366 0.00453299 2.8789e-19)
(0.00753285 0.0047862 -2.21697e-19)
(0.00792393 0.00501096 1.85333e-19)
(0.00831981 0.00520384 3.05403e-19)
(0.00872084 0.00536092 1.80142e-19)
(0.00912598 0.00548026 3.00199e-20)
(0.009542 0.00555895 2.03838e-19)
(0.00996751 0.00559184 2.59971e-19)
(0.0103976 0.00557783 -2.78395e-20)
(0.0108395 0.00551323 2.78966e-20)
(0.0112843 0.00538945 8.08125e-20)
(0.0117236 0.00520852 2.57322e-20)
(0.0121581 0.00496197 -2.53739e-20)
(0.012572 0.00464896 2.54256e-20)
(0.0129556 0.00426672 -9.74053e-20)
(0.0132926 0.00381536 2.39769e-20)
(0.0135646 0.00329877 -7.08883e-22)
(0.0137593 0.00272559 -2.28688e-20)
(0.0138515 0.00210245 -8.77313e-20)
(0.0138417 0.00145783 0)
(0.0137035 0.0007949 4.08787e-20)
(0.0134369 0.000149152 -2.53373e-20)
(0.0130558 -0.000465343 1.94062e-20)
(0.012554 -0.00102735 -5.63306e-20)
(0.0119642 -0.00151465 -1.82285e-20)
(0.0112818 -0.00192236 7.16372e-20)
(0.0105481 -0.00223287 8.7797e-20)
(0.00976738 -0.00244975 -3.43646e-20)
(0.00897573 -0.00257514 8.46344e-20)
(0.00817031 -0.00259183 -6.57163e-20)
(0.00737491 -0.00253114 -1.59736e-20)
(0.00659149 -0.00239065 -6.28536e-20)
(0.00583964 -0.00217495 1.57931e-20)
(0.00509916 -0.00189045 -6.14144e-20)
(0.00455809 -0.00156172 5.99679e-20)
(0.00420346 -0.00124733 -4.40829e-20)
(0.00395484 -0.000983456 -1.44683e-20)
(0.00380307 -0.000783533 -2.78614e-20)
(0.00377447 -0.000645588 0)
(0.00388272 -0.000561417 -2.58564e-20)
(0.0041419 -0.000528933 2.34753e-20)
(0.00451552 -0.000534627 4.3499e-22)
(0.0049305 -0.000550324 -3.25916e-22)
(0.00535472 -0.000556481 -1.03051e-21)
(0.00577456 -0.000543655 -1.09026e-20)
(0.00617384 -0.000509316 6.45133e-22)
(0.0065376 -0.000456052 0)
(0.00685497 -0.000389094 -5.926e-22)
(0.00711934 -0.000314451 5.67119e-22)
(0.00732813 -0.000237872 9.55591e-21)
(0.00748231 -0.000164272 -8.96553e-21)
(0.00758583 -9.74691e-05 -7.69429e-21)
(0.00764473 -4.00906e-05 8.14939e-21)
(0.0076665 6.40309e-06 0)
(0.00765953 4.16438e-05 -4.22122e-22)
(0.00763216 6.62943e-05 0)
(0.00759181 8.08941e-05 -2.53267e-21)
(0.00754529 8.65269e-05 1.78955e-22)
(0.00749838 8.48452e-05 3.05178e-21)
(0.00745538 7.76835e-05 6.1234e-22)
(0.00741925 6.6939e-05 2.85017e-22)
(0.00739158 5.45583e-05 -2.63007e-22)
(0.00737241 4.23263e-05 0)
(0.00736076 3.15533e-05 2.19336e-22)
(0.00735499 2.32786e-05 7.48183e-22)
(0.00735266 1.81951e-05 -5.70108e-22)
(0.00735112 1.66308e-05 -5.78941e-22)
(0.00734775 1.85828e-05 7.12109e-22)
(0.00734022 2.37841e-05 0)
(0.00732665 3.18643e-05 1.12941e-22)
(0.00730583 4.25423e-05 1.64257e-22)
(0.00727708 5.5882e-05 4.09583e-23)
(0.00723976 7.23722e-05 -4.08884e-23)
(0.00718556 9.43754e-05 1.0874e-23)
(0.00979431 0.000519501 0)
(0.0103542 0.00120147 0)
(0.0108884 0.0014653 0)
(0.0111126 0.00145269 8.21614e-21)
(0.0111079 0.00131654 -8.23249e-21)
(0.0110338 0.00113273 0)
(0.0108794 0.000957632 0)
(0.0106855 0.000811378 0)
(0.0104833 0.000693725 0)
(0.0102866 0.000599549 0)
(0.010101 0.000523324 0)
(0.00992815 0.000460692 -3.28784e-20)
(0.00976853 0.000408872 3.30098e-20)
(0.00962141 0.000366084 -3.28146e-20)
(0.00948545 0.000331089 6.56862e-20)
(0.00935902 0.000302987 -3.28613e-20)
(0.0092404 0.000281126 -3.26371e-20)
(0.0091278 0.000265019 3.27169e-20)
(0.00901943 0.000254298 0)
(0.0089135 0.000248679 0)
(0.00880825 0.000247953 6.4611e-20)
(0.00870192 0.000251988 -6.47344e-20)
(0.00859275 0.00026073 0)
(0.00847896 0.000274217 -6.40621e-20)
(0.00835874 0.000292601 6.41817e-20)
(0.00823022 0.000316181 0)
(0.00809144 0.000345446 0)
(0.00794036 0.000381121 6.33834e-20)
(0.00777481 0.000424255 -2.85601e-22)
(0.00759251 0.000476334 -6.33842e-20)
(0.00739116 0.000539447 -6.2983e-20)
(0.0071683 0.000616562 1.26018e-19)
(0.00692562 0.00071226 -6.30349e-20)
(0.0066466 0.000831296 5.87108e-20)
(0.0063593 0.000988988 -6.30631e-20)
(0.00616931 0.00120752 -6.34914e-20)
(0.0061407 0.00149268 6.45926e-20)
(0.00626551 0.00183817 1.93874e-19)
(0.00653261 0.00223735 3.23118e-19)
(0.00694101 0.00267973 6.46343e-20)
(0.00750138 0.00314544 -6.39402e-20)
(0.00818042 0.00360609 -5.66962e-19)
(0.00890192 0.0040398 5.61141e-19)
(0.00962706 0.00443549 5.54725e-19)
(0.0103476 0.00478321 -1.22226e-19)
(0.0110577 0.00507294 9.08725e-20)
(0.0117576 0.00529452 -2.69164e-19)
(0.0124385 0.00543904 0)
(0.0130933 0.00549304 -2.63819e-19)
(0.0137206 0.00545565 2.91568e-20)
(0.0143092 0.00532988 2.29748e-19)
(0.0148525 0.00510163 2.82265e-20)
(0.0153364 0.00477376 -2.81307e-19)
(0.015753 0.00435494 -1.94815e-19)
(0.0160878 0.00384712 -2.20974e-19)
(0.0163295 0.00326386 -1.09606e-19)
(0.0164703 0.00261791 -2.66159e-20)
(0.0164918 0.00192236 2.67679e-20)
(0.0164037 0.00120433 2.62496e-20)
(0.0161841 0.00047332 3.87604e-20)
(0.0158466 -0.000237596 2.56198e-20)
(0.015398 -0.000911403 0)
(0.014847 -0.00153038 1.01074e-19)
(0.0142193 -0.00207708 0)
(0.0135206 -0.0025448 -3.48716e-19)
(0.0127853 -0.00292393 -1.99122e-19)
(0.0120194 -0.0032167 -4.95473e-20)
(0.0112497 -0.00342292 0)
(0.010486 -0.00354961 0)
(0.00973897 -0.00360393 -1.95098e-19)
(0.00902128 -0.00359406 0)
(0.00833083 -0.0035291 4.33548e-19)
(0.00767567 -0.0034183 -4.30868e-19)
(0.00705669 -0.00327038 4.04224e-19)
(0.00647166 -0.00309425 -1.99362e-22)
(0.00592262 -0.00289833 -1.9394e-22)
(0.00540894 -0.00269018 3.26433e-19)
(0.0049286 -0.00247703 4.6423e-20)
(0.00448212 -0.00226501 3.44727e-19)
(0.0040696 -0.00205885 3.65068e-19)
(0.00369 -0.00186219 1.4277e-21)
(0.00334306 -0.00167747 -3.47949e-19)
(0.003028 -0.00150585 3.4482e-19)
(0.00274347 -0.00134737 0)
(0.00248854 -0.00120124 5.44911e-21)
(0.00226079 -0.00106612 3.41295e-19)
(0.00205722 -0.000940676 -6.8195e-19)
(0.00187657 -0.000823712 -1.01681e-18)
(0.00171532 -0.000714155 -3.43989e-19)
(0.00157012 -0.000611814 1.12713e-20)
(0.00144034 -0.000516956 0)
(0.00132331 -0.000429889 1.00061e-20)
(0.00121714 -0.000351542 -9.91892e-21)
(0.00112307 -0.000283095 0)
(0.00103887 -0.000224906 1.54071e-19)
(0.000967155 -0.00017833 -1.89205e-20)
(0.000906982 -0.000143039 1.8759e-20)
(0.000861088 -0.00011958 1.93817e-22)
(0.000829483 -0.000106279 1.46038e-19)
(0.000815634 -0.000102966 -1.79936e-20)
(0.000820465 -0.000106648 3.57094e-20)
(0.000845925 -0.000115838 -1.77037e-20)
(0.000895033 -0.00012638 -6.19502e-25)
(0.00096814 -0.000134983 -8.6663e-21)
(0.00106843 -0.000138172 8.64881e-21)
(0.00119652 -0.000130884 -6.87226e-20)
(0.00135334 -0.000109828 -7.26771e-20)
(0.00154061 -7.01192e-05 -1.3228e-19)
(0.00175697 -8.26986e-06 2.72266e-19)
(0.00200309 7.90803e-05 -1.31455e-19)
(0.00227767 0.000194759 -4.24516e-21)
(0.00257899 0.000340983 -4.21212e-21)
(0.00290571 0.000518957 4.22337e-21)
(0.00325448 0.000729571 -1.34494e-19)
(0.00362306 0.000972078 8.81747e-21)
(0.0040098 0.00124541 -5.67513e-23)
(0.00440905 0.00154725 1.15645e-19)
(0.00481986 0.00187412 4.03896e-19)
(0.00523919 0.00222178 -2.61216e-19)
(0.00566305 0.00258538 -2.60934e-19)
(0.00609064 0.00295944 2.75207e-19)
(0.00652028 0.003338 2.39408e-19)
(0.00694961 0.00371494 -2.39364e-19)
(0.0073789 0.00408401 -2.82587e-19)
(0.0078085 0.00443903 -2.34934e-19)
(0.0082379 0.00477439 3.27081e-20)
(0.00866814 0.00508479 -3.07691e-20)
(0.0091003 0.00536531 0)
(0.00953562 0.00561164 -2.6912e-19)
(0.00997644 0.00581976 -2.35794e-19)
(0.0104232 0.00598569 -2.03629e-19)
(0.0108751 0.00610664 0)
(0.0113367 0.0061789 -2.52998e-19)
(0.0118063 0.00619832 2.78106e-20)
(0.0122793 0.0061633 -8.08075e-20)
(0.0127585 0.0060697 -2.6738e-20)
(0.0132357 0.00591144 -8.42967e-22)
(0.0137034 0.00568951 -1.26534e-19)
(0.014158 0.00539835 2.50258e-20)
(0.0145859 0.00503802 -1.19953e-19)
(0.0149764 0.00460837 2.12028e-19)
(0.0153148 0.00411163 1.83537e-19)
(0.0155851 0.00355359 8.9358e-20)
(0.0157754 0.00294375 0)
(0.015866 0.00229181 -2.09439e-20)
(0.0158543 0.00161794 3.08689e-22)
(0.0157189 0.000931325 9.70407e-21)
(0.0154588 0.00026134 -3.39971e-20)
(0.0150809 -0.000375936 1.91432e-20)
(0.0145799 -0.000961539 -3.67188e-20)
(0.0139794 -0.00147465 3.56123e-20)
(0.013276 -0.00190701 0)
(0.0125033 -0.00224224 -8.45842e-20)
(0.0116665 -0.00247892 3.32512e-20)
(0.0107976 -0.00261459 -6.54324e-20)
(0.00990279 -0.00263591 -1.61878e-20)
(0.00900883 -0.0025778 7.83766e-20)
(0.00811963 -0.00242503 -1.56033e-20)
(0.00726681 -0.00219693 0)
(0.00643255 -0.00190551 7.41545e-20)
(0.00577759 -0.00158476 -3.47091e-22)
(0.00532432 -0.0012847 -3.43547e-22)
(0.0050146 -0.00104705 -3.3465e-22)
(0.00483846 -0.00089129 2.69861e-20)
(0.00482242 -0.00081646 -3.18176e-22)
(0.00497388 -0.000804284 -1.64065e-22)
(0.00529918 -0.000840333 -1.19801e-20)
(0.00574231 -0.00089138 1.03618e-20)
(0.00621873 -0.000927227 1.10513e-20)
(0.00669322 -0.000933622 1.02399e-21)
(0.00715166 -0.000904622 -1.05052e-20)
(0.00757878 -0.00084063 1.23916e-21)
(0.00796113 -0.000747503 9.35704e-21)
(0.00828964 -0.000634001 -9.30575e-21)
(0.00855951 -0.000509592 -1.09196e-21)
(0.00876964 -0.000383178 -1.04872e-21)
(0.0089222 -0.000262373 0)
(0.00902205 -0.0001531 7.45751e-21)
(0.00907608 -5.94325e-05 -7.45002e-21)
(0.00909246 1.63463e-05 0)
(0.00908003 7.35277e-05 -8.16877e-22)
(0.00904752 0.000112431 0)
(0.00900287 0.000134563 7.26209e-22)
(0.00895323 0.000142244 2.64589e-21)
(0.00890449 0.000138242 -2.64291e-21)
(0.008861 0.000125632 -5.96733e-22)
(0.00882561 0.000107605 5.51483e-22)
(0.00879966 8.72235e-05 0)
(0.00878303 6.72886e-05 -1.78658e-21)
(0.00877441 5.03172e-05 1.78245e-21)
(0.00877165 3.80881e-05 3.82566e-22)
(0.00877199 3.15927e-05 6.43645e-22)
(0.00877241 3.12399e-05 -6.42279e-22)
(0.00876996 3.68564e-05 4.80713e-22)
(0.00876207 4.77688e-05 -4.79882e-22)
(0.00874677 6.3011e-05 -1.79976e-22)
(0.008723 8.15757e-05 -1.19707e-22)
(0.0086905 0.000102642 7.97099e-23)
(0.00864999 0.000125653 9.92067e-23)
(0.00859093 0.000152417 0)
(0.00976251 0.000329366 0)
(0.0101852 0.000852965 0)
(0.0106639 0.00114622 0)
(0.0109586 0.00125062 8.27352e-21)
(0.0111338 0.00123051 -8.24778e-21)
(0.0112486 0.00114469 0)
(0.0112698 0.00103821 1.62781e-20)
(0.0112415 0.000930902 -1.63187e-20)
(0.0111763 0.000830958 -1.62106e-20)
(0.0110915 0.000742225 3.24451e-20)
(0.0109969 0.000664463 -1.62346e-20)
(0.0108983 0.000596493 0)
(0.0107993 0.000537705 0)
(0.0107019 0.000487625 3.21332e-20)
(0.0106068 0.000445764 -1.52948e-22)
(0.0105142 0.000411663 -6.41207e-20)
(0.0104235 0.000384921 3.20533e-20)
(0.0103342 0.000365199 0)
(0.0102454 0.000352219 0)
(0.0101559 0.000345741 3.16265e-20)
(0.0100647 0.000345602 -3.16786e-20)
(0.00997057 0.000351704 0)
(0.00987212 0.000364028 0)
(0.00976794 0.00038266 -6.24567e-20)
(0.00965653 0.000407802 1.24808e-19)
(0.00953628 0.000439805 -6.23521e-20)
(0.00940548 0.000479215 -6.18708e-20)
(0.00926235 0.000526811 2.84363e-22)
(0.00910501 0.000583666 1.23298e-19)
(0.0089316 0.000651219 -6.1616e-20)
(0.00874033 0.000731383 -6.11776e-20)
(0.00852937 0.000826665 2.67324e-22)
(0.00830124 0.000940607 6.11306e-20)
(0.0080399 0.00107553 6.06676e-20)
(0.00777218 0.00124105 -6.10848e-20)
(0.00759933 0.00145569 0)
(0.00758341 0.00172923 -2.50327e-19)
(0.00772046 0.00206024 -5.01e-19)