/*--------------------------------*- C++ -*----------------------------------*\
| =========                 |                                                 |
| \\      /  F ield         | OpenFOAM: The Open Source CFD Toolbox           |
|  \\    /   O peration     | Version:  2506                                  |
|   \\  /    A nd           | Website:  www.openfoam.com                      |
|    \\/     M anipulation  |                                                 |
\*---------------------------------------------------------------------------*/
FoamFile
{
    version     2.0;
    format      ascii;
    arch        "LSB;label=32;scalar=64";
    class       volVectorField;
    location    "4";
    object      vorticityField;
}
// * * * * * * * * * * * * * * * * * * * * * * * * * * * * * * * * * * * * * //

dimensions      [0 0 -1 0 0 0 0];

internalField   nonuniform List<vector> 
4000
(
(-2.28823e-20 7.75606e-18 -32.7231)
(-8.39383e-18 -6.72487e-18 -35.7822)
(8.89824e-18 -2.51663e-17 -33.6578)
(3.38883e-17 3.88199e-17 -29.6523)
(-6.9526e-17 3.16568e-18 -26.6707)
(3.55608e-17 -3.42579e-17 -24.7922)
(-2.90434e-19 1.64073e-17 -23.4895)
(3.50826e-17 -0 -22.51)
(-3.44443e-17 -3.24483e-17 -21.7462)
(6.89627e-17 2.98282e-17 -21.1286)
(-6.89909e-17 -2.93461e-17 -20.6119)
(-2.31905e-18 2.6892e-17 -20.1692)
(-1.05292e-18 6.96124e-17 -19.7839)
(7.23895e-17 -6.45382e-17 -19.444)
(-3.33323e-19 -0 -19.1402)
(-1.36478e-16 -6.32255e-17 -18.8647)
(1.3429e-16 5.84471e-17 -18.6112)
(-7.09798e-17 6.80456e-17 -18.3737)
(3.35977e-18 -6.32672e-17 -18.1469)
(0 -0 -17.926)
(0 -0 -17.706)
(0 -0 -17.4825)
(8.33629e-18 -1.22853e-16 -17.251)
(1.1434e-16 2.36431e-16 -17.0067)
(-2.62669e-16 1.80136e-17 -16.745)
(1.49395e-16 -2.54057e-16 -16.4606)
(-9.39395e-18 1.22466e-16 -16.1477)
(0 -0 -15.7992)
(0 -0 -15.4068)
(-1.06144e-17 1.19927e-16 -14.9593)
(-2.5109e-16 -1.12681e-16 -14.4413)
(1.40411e-16 -1.27396e-16 -13.8338)
(2.65806e-16 1.56551e-17 -13.106)
(7.12771e-18 -1.24055e-16 -12.0521)
(-7.73521e-17 6.98648e-16 -10.8243)
(-3.01752e-16 5.72429e-16 -10.1654)
(-9.70342e-16 -1.02207e-15 -10.33)
(-7.71929e-18 8.46774e-18 -11.0544)
(7.0616e-16 1.7091e-15 -12.2468)
(-7.28424e-16 -1.08001e-15 -13.9859)
(3.83705e-16 -2.2318e-15 -16.5599)
(1.1037e-15 2.12454e-15 -19.6927)
(-3.36883e-16 9.35957e-16 -22.8322)
(2.56283e-16 -1.00684e-15 -25.8458)
(1.20041e-15 8.40439e-16 -28.7332)
(-1.3816e-15 1.75188e-16 -31.5308)
(-1.26731e-15 4.02818e-16 -34.2821)
(-1.07833e-15 -1.06024e-15 -36.8179)
(-1.22516e-15 -1.2718e-15 -39.1909)
(-5.25889e-16 -1.34581e-15 -41.3704)
(7.04042e-16 -3.28985e-16 -43.2602)
(-4.28704e-17 5.3237e-16 -44.9436)
(-6.53381e-16 -1.1983e-15 -46.2335)
(7.29648e-16 1.49692e-17 -47.262)
(-9.8784e-17 1.15425e-15 -47.888)
(-3.34693e-16 5.62465e-17 -48.1424)
(2.5631e-16 -9.04235e-17 -48.0565)
(8.42525e-17 -3.02031e-17 -47.4955)
(1.56326e-16 5.05744e-17 -46.7229)
(-7.56958e-17 -4.85914e-17 -45.5289)
(7.91495e-17 -2.09555e-17 -43.9936)
(3.13559e-16 7.29838e-18 -42.3345)
(-1.47528e-16 -7.05558e-17 -40.4479)
(-8.73685e-17 -6.93167e-16 -38.5006)
(5.7799e-17 -1.16752e-16 -36.4827)
(-1.12279e-16 8.18433e-16 -34.424)
(6.36467e-16 -1.27204e-16 -32.4305)
(2.69363e-17 -4.30879e-16 -30.4134)
(3.03677e-16 6.75764e-16 -28.5041)
(-7.86055e-16 8.02347e-16 -26.6088)
(-1.78145e-16 -5.94802e-16 -24.8052)
(-4.94136e-17 -2.39278e-16 -23.0694)
(-1.98962e-19 2.32976e-18 -21.3691)
(-9.75994e-16 6.19065e-16 -19.7705)
(-9.47863e-16 6.73297e-16 -18.2289)
(-3.88994e-17 7.89526e-16 -16.7583)
(-7.93961e-16 5.11325e-16 -15.3835)
(9.40571e-17 -8.18137e-16 -14.0927)
(-8.60294e-16 4.64396e-16 -12.8881)
(7.62783e-16 2.35252e-16 -11.7842)
(-1.4417e-15 4.06814e-16 -10.775)
(-1.67857e-16 -7.47334e-16 -9.85534)
(4.20105e-17 -1.05239e-16 -9.02297)
(-8.20514e-17 3.02102e-17 -8.26847)
(6.82393e-16 1.0653e-15 -7.58465)
(-1.22849e-15 1.61279e-15 -6.96423)
(5.18728e-17 -1.45715e-15 -6.39478)
(-6.25738e-17 -7.31941e-16 -5.87066)
(-1.19905e-17 1.40128e-15 -5.38969)
(-5.04537e-16 3.25754e-16 -4.94226)
(1.86544e-18 1.34502e-18 -4.52673)
(-4.97139e-16 9.13024e-16 -4.14578)
(-2.3227e-16 -1.12173e-15 -3.79267)
(1.74511e-16 -3.77432e-16 -3.47125)
(6.93923e-18 5.81356e-16 -3.18145)
(7.3117e-17 -6.41042e-16 -2.92311)
(2.17792e-16 -9.59723e-17 -2.69897)
(2.77806e-17 3.11491e-17 -2.50793)
(-3.2981e-16 -5.19391e-17 -2.35096)
(5.27875e-17 2.73815e-16 -2.2298)
(5.91569e-17 -3.58106e-18 -2.14545)
(1.76183e-17 -5.31602e-17 -2.09657)
(-9.73273e-18 1.70673e-16 -2.08808)
(-2.54976e-17 4.60063e-17 -2.11628)
(-3.72839e-17 -1.85868e-17 -2.18751)
(-6.79678e-19 -6.17006e-17 -2.30377)
(3.68466e-18 4.94781e-16 -2.46937)
(-1.87289e-16 -3.04149e-17 -2.69055)
(-2.37119e-16 -8.38748e-16 -2.96955)
(4.43304e-16 -1.21057e-16 -3.31467)
(-2.33029e-16 1.68257e-16 -3.733)
(1.00026e-17 5.5641e-16 -4.23031)
(-2.32062e-16 -1.09968e-16 -4.81856)
(-2.30403e-16 -4.27084e-16 -5.49679)
(-6.85467e-18 -5.80125e-16 -6.28589)
(4.56274e-16 3.01506e-16 -7.17955)
(3.85167e-18 1.14342e-15 -8.18418)
(4.74722e-17 7.94092e-17 -9.30915)
(4.76054e-16 3.47952e-16 -10.5423)
(-4.85573e-16 -3.64402e-16 -11.8859)
(-5.86218e-16 -1.72217e-15 -13.3417)
(5.97473e-16 3.99818e-16 -14.8874)
(2.56731e-17 1.30265e-15 -16.5099)
(-5.49465e-16 -4.05062e-16 -18.2096)
(-1.0812e-16 -1.36143e-15 -19.9611)
(1.08405e-15 7.68221e-16 -21.7538)
(-3.73217e-16 3.91523e-16 -23.5729)
(5.2556e-16 -1.06197e-16 -25.399)
(5.86027e-16 8.44016e-16 -27.2274)
(4.44028e-18 8.4099e-16 -29.0652)
(-1.74374e-17 5.14044e-16 -30.8489)
(-5.51016e-16 -1.68893e-16 -32.6109)
(-2.09216e-16 -6.21428e-16 -34.3786)
(-1.10473e-15 -7.65773e-16 -36.051)
(4.32532e-16 1.67023e-17 -37.6776)
(-7.45151e-17 -3.89518e-17 -39.3234)
(7.689e-17 4.23462e-17 -40.7652)
(-2.54674e-17 -1.58154e-16 -42.207)
(8.40759e-17 8.76364e-17 -43.4721)
(-1.23706e-16 1.17839e-16 -44.6141)
(1.23092e-16 1.66581e-16 -45.5661)
(-4.37904e-16 -1.74823e-16 -46.2902)
(1.95564e-16 1.51548e-16 -46.7195)
(-6.49485e-17 4.27671e-17 -46.9065)
(-1.38896e-16 -8.42722e-17 -46.628)
(-1.33401e-17 -2.19265e-16 -46.1544)
(-2.439e-17 3.97266e-17 -45.1544)
(0 -0 -43.8015)
(-5.28763e-17 3.8188e-17 -42.1882)
(5.74686e-17 -2.32287e-17 -40.2245)
(2.47795e-17 -1.93525e-16 -38.143)
(-2.60758e-17 -9.1832e-17 -35.8281)
(1.55649e-16 9.15454e-17 -33.4229)
(8.28953e-17 2.36006e-16 -30.9558)
(-1.69551e-16 6.61579e-17 -28.4567)
(1.63587e-16 -1.7129e-16 -25.9373)
(-2.47563e-16 -1.08204e-16 -23.3691)
(3.41237e-16 -1.88977e-16 -20.7829)
(-7.63147e-17 -3.14539e-16 -18.0168)
(2.38078e-16 -1.88185e-16 -15.0052)
(-2.28311e-16 7.19565e-16 -12.7058)
(1.81746e-16 -1.35165e-16 -11.5352)
(-4.60779e-17 -9.30747e-17 -10.6316)
(3.20833e-17 -7.47925e-18 -9.99291)
(3.03203e-17 -4.66316e-18 -9.7342)
(2.89682e-17 -2.40681e-18 -9.92087)
(-2.78823e-17 -2.09553e-17 -10.6553)
(2.35332e-17 -6.08878e-18 -11.7745)
(1.69991e-18 2.13163e-17 -12.8857)
(2.86179e-18 1.89481e-17 -13.9314)
(-2.35068e-17 7.10703e-18 -14.9491)
(-5.10522e-18 -3.80165e-17 -15.9173)
(4.57425e-19 8.80525e-18 -16.7991)
(4.00293e-18 2.65484e-17 -17.5645)
(-2.86179e-18 -1.83494e-17 -18.1945)
(1.91138e-17 5.82576e-19 -18.6813)
(-3.48028e-17 1.42794e-17 -19.0268)
(1.76788e-17 -4.15548e-18 -19.2422)
(-2.77962e-18 -2.44736e-17 -19.3432)
(9.83783e-19 1.43284e-17 -19.35)
(8.49752e-18 5.4345e-18 -19.2829)
(-1.37722e-17 4.17464e-18 -19.1612)
(-1.05247e-18 -1.08543e-17 -19.0047)
(1.6751e-19 -4.62164e-18 -18.831)
(5.48635e-18 5.43339e-18 -18.6543)
(5.13097e-18 1.53051e-20 -18.4857)
(-5.72093e-18 -1.70649e-20 -18.3332)
(4.89433e-18 -2.101e-19 -18.2012)
(-8.27517e-18 -4.62506e-19 -18.0916)
(5.25357e-18 2.39875e-19 -18.0024)
(-1.77449e-18 -5.29309e-21 -17.9296)
(-4.01135e-19 -1.086e-18 -17.8691)
(1.20369e-18 -1.25864e-18 -17.8156)
(-3.88103e-19 3.41897e-18 -17.7632)
(-1.06139e-18 -1.17045e-18 -17.7062)
(1.45052e-19 -6.5634e-19 -17.6397)
(-9.32808e-20 -9.19358e-19 -17.5592)
(-1.61434e-19 8.84637e-19 -17.4588)
(-8.25831e-20 4.21037e-19 -17.3192)
(-2.27219e-20 -7.62812e-20 -17.1495)
(0 -0 2.64515)
(-1.51019e-20 -0 -6.32631)
(-1.50692e-19 -1.59456e-17 -11.519)
(-8.41001e-19 2.88449e-17 -13.4285)
(1.7797e-17 6.40596e-18 -13.6163)
(-1.68751e-17 -3.56911e-17 -13.1426)
(3.89495e-19 -1.65193e-17 -12.5579)
(-6.48757e-19 2.73676e-17 -12.0316)
(-3.37057e-17 5.68612e-18 -11.5826)
(3.28268e-17 -5.41542e-18 -11.1996)
(6.52059e-17 1.04193e-16 -10.8688)
(-1.33529e-16 -8.88099e-17 -10.5793)
(6.63146e-18 -1.41715e-16 -10.3232)
(6.51892e-17 5.63959e-17 -10.095)
(-8.50883e-18 1.96541e-16 -9.88983)
(-6.41066e-17 -4.62704e-17 -9.70365)
(7.27675e-17 -1.40441e-16 -9.53281)
(-2.65065e-18 6.53731e-17 -9.37392)
(0 -0 -9.22394)
(0 -0 -9.08016)
(0 -0 -8.93989)
(0 -0 -8.80056)
(0 -0 -8.65969)
(-2.63021e-16 -0 -8.51487)
(3.94437e-16 -0 -8.36365)
(-1.31173e-16 -0 -8.20349)
(0 -0 -8.03189)
(0 -0 -7.84624)
(0 -0 -7.64344)
(-1.10761e-17 1.25144e-16 -7.42008)
(-1.34663e-18 1.39965e-17 -7.17197)
(3.60754e-17 -3.76179e-16 -6.89358)
(-9.44782e-18 8.33993e-17 -6.57687)
(-1.4149e-16 3.88486e-16 -6.20755)
(-7.87921e-17 -4.81407e-16 -5.81256)
(3.42533e-16 4.09141e-16 -5.56721)
(9.68225e-16 8.22636e-16 -5.63536)
(7.09607e-17 -1.90036e-15 -6.05216)
(-4.41358e-16 -8.62048e-16 -6.80831)
(1.03609e-15 2.08306e-15 -7.91617)
(-3.02081e-16 1.16476e-16 -9.39716)
(-8.50853e-16 -1.5411e-15 -11.0007)
(7.16239e-17 -1.36849e-16 -12.6458)
(3.36397e-17 -2.7082e-16 -14.3329)
(-1.26785e-15 1.93654e-16 -15.9932)
(1.06034e-15 2.18761e-15 -17.6441)
(2.39335e-15 3.71615e-16 -19.2664)
(1.07588e-15 1.15345e-15 -20.7953)
(1.22536e-15 7.7836e-16 -22.2745)
(6.52763e-16 -2.21093e-16 -23.6272)
(-1.80583e-15 -8.81773e-16 -24.8539)
(-3.83987e-17 4.73074e-16 -25.9602)
(5.09448e-16 8.95341e-16 -26.8771)
(-6.38688e-16 -5.39383e-16 -27.6579)
(6.6295e-16 -3.0315e-16 -28.2303)
(6.38925e-16 -4.74173e-17 -28.6337)
(4.0607e-16 -6.63686e-17 -28.8403)
(1.4408e-16 1.23418e-16 -28.8445)
(-8.34002e-17 3.20195e-17 -28.6513)
(-8.71961e-17 1.1764e-16 -28.2748)
(-4.94315e-17 -2.34087e-16 -27.672)
(-3.2278e-16 4.59292e-17 -26.8919)
(2.54965e-16 4.33612e-16 -25.9533)
(-1.91992e-16 6.6077e-16 -24.8445)
(2.24769e-16 6.00594e-17 -23.6479)
(1.08732e-17 -1.14265e-15 -22.3255)
(2.3341e-16 -2.2403e-16 -20.99)
(-3.20945e-16 7.11047e-16 -19.5593)
(-3.61402e-16 -4.64228e-17 -18.153)
(9.81705e-16 -4.21936e-16 -16.7306)
(-6.43047e-18 1.36353e-16 -15.3194)
(-1.40488e-15 5.75627e-16 -13.9665)
(7.77129e-16 4.47945e-16 -12.6258)
(2.13526e-17 1.11408e-15 -11.3502)
(1.07375e-15 -1.41878e-15 -10.1384)
(1.59634e-16 -9.51817e-16 -8.98315)
(-1.73763e-16 1.08159e-16 -7.90629)
(-4.26001e-17 8.4593e-16 -6.91294)
(-7.39341e-16 -1.57132e-16 -5.99604)
(-1.60775e-15 9.87339e-16 -5.16228)
(2.13299e-15 3.1274e-16 -4.41151)
(2.10486e-16 -9.57412e-16 -3.73833)
(-7.32158e-16 4.97568e-16 -3.13865)
(1.19067e-16 -7.29852e-16 -2.60579)
(-2.24379e-17 -9.73909e-17 -2.13223)
(1.2534e-15 -7.7388e-16 -1.71491)
(5.59547e-16 -4.68993e-16 -1.34721)
(6.86278e-16 4.27874e-16 -1.01862)
(5.5596e-16 -1.12417e-15 -0.730848)
(1.11295e-15 -7.04935e-16 -0.480982)
(3.53283e-19 2.24221e-17 -0.260381)
(5.03391e-16 -6.24943e-16 -0.0725243)
(2.08124e-16 2.35281e-16 0.0848374)
(-4.65958e-16 2.62441e-16 0.215686)
(2.13222e-16 -5.55426e-16 0.317995)
(9.11719e-18 3.0538e-16 0.396365)
(-4.55467e-16 2.42265e-16 0.450781)
(2.21605e-16 5.7585e-16 0.484618)
(2.05077e-17 1.26136e-16 0.499943)
(-1.19457e-16 -7.38254e-16 0.499776)
(-5.92528e-17 3.61033e-17 0.484977)
(-6.99313e-17 1.46012e-16 0.457174)
(-3.00602e-17 -1.15279e-16 0.416521)
(2.59518e-17 -1.566e-17 0.362299)
(5.03075e-17 -1.29905e-17 0.293632)
(1.07642e-16 2.98993e-17 0.206052)
(-1.99409e-18 -2.67768e-16 0.0966451)
(6.232e-16 4.1364e-16 -0.040697)
(1.17366e-17 -1.36615e-18 -0.211354)
(-4.24927e-16 1.31793e-16 -0.420709)
(4.55172e-18 3.07453e-16 -0.676549)
(-1.67317e-17 -5.70259e-16 -0.983249)
(2.2673e-16 4.03399e-16 -1.34707)
(2.2195e-16 1.14659e-16 -1.77046)
(-2.34404e-16 -4.26692e-16 -2.26497)
(-4.5575e-16 -2.63806e-16 -2.82221)
(1.75132e-17 -6.30513e-16 -3.4544)
(-3.81263e-17 -6.80166e-16 -4.16463)
(-3.79016e-16 3.0374e-16 -4.94803)
(9.84252e-16 1.97928e-15 -5.80311)
(-5.5464e-16 -3.78358e-16 -6.72732)
(-5.40662e-16 -1.05228e-15 -7.71524)
(4.40782e-16 4.04414e-16 -8.76596)
(6.48719e-16 4.51703e-16 -9.87387)
(5.06829e-16 -1.99193e-16 -11.0202)
(-1.57059e-15 -9.17163e-16 -12.2049)
(4.14911e-16 4.92562e-16 -13.4153)
(-2.94314e-16 -1.08423e-15 -14.6397)
(-1.25951e-16 6.94558e-17 -15.8753)
(1.25385e-15 6.74885e-16 -17.1119)
(4.78045e-16 2.72421e-16 -18.315)
(1.23803e-15 6.47305e-16 -19.518)
(6.72339e-16 1.50373e-15 -20.6991)
(9.72528e-16 3.8153e-16 -21.8031)
(-1.52272e-17 -6.8693e-16 -22.8946)
(1.18009e-16 5.79713e-16 -23.9428)
(2.3277e-16 6.85721e-17 -24.8507)
(8.51155e-17 9.34364e-18 -25.7653)
(-5.12851e-17 -8.05508e-17 -26.5205)
(8.75805e-17 -1.1541e-16 -27.2039)
(2.73297e-17 3.18772e-18 -27.754)
(6.18352e-17 3.33034e-16 -28.1666)
(1.34227e-16 -4.12335e-16 -28.4257)
(3.49414e-17 2.04288e-16 -28.5374)
(-4.53593e-17 -2.89864e-17 -28.4334)
(-5.19355e-17 8.19251e-17 -28.2055)
(1.08984e-16 -1.01415e-17 -27.7201)
(-6.97703e-17 1.85201e-17 -27.079)
(4.59289e-17 -2.67621e-17 -26.2182)
(-1.20972e-16 -1.21741e-16 -25.1694)
(-7.10242e-17 2.32676e-16 -23.9593)
(3.8518e-17 2.06452e-16 -22.5812)
(3.5468e-17 -1.55811e-16 -21.0594)
(-1.04809e-16 -3.61064e-17 -19.44)
(3.77808e-16 -2.46447e-16 -17.7303)
(-1.92635e-16 7.98435e-17 -15.9602)
(2.50624e-17 7.01491e-17 -14.1602)
(-3.93496e-16 -5.64195e-17 -12.3564)
(1.22875e-16 3.43353e-16 -10.5353)
(-6.48507e-16 6.36313e-16 -8.75404)
(2.28687e-16 -5.41574e-16 -7.05169)
(-2.7464e-17 -2.37084e-16 -5.92335)
(7.25505e-20 2.48112e-16 -5.22985)
(-7.21037e-17 -4.94393e-17 -4.83186)
(-1.21068e-18 -8.20301e-18 -4.69562)
(-5.34856e-17 3.85077e-17 -4.82598)
(5.64478e-17 3.42382e-17 -5.20209)
(-2.68054e-17 -2.05717e-17 -5.74008)
(-3.3448e-19 -2.81146e-18 -6.3297)
(-1.66057e-18 -1.03279e-18 -6.9069)
(-1.13405e-19 2.53103e-18 -7.45307)
(3.27186e-18 2.00916e-17 -7.96051)
(-2.23858e-17 -3.55519e-18 -8.41903)
(1.74154e-17 -3.6092e-17 -8.81856)
(1.03232e-18 5.16922e-18 -9.15157)
(2.27437e-17 1.02168e-17 -9.41401)
(-1.98982e-17 2.34075e-17 -9.60602)
(-1.51155e-18 -5.48745e-17 -9.73111)
(3.31541e-18 5.18965e-17 -9.79607)
(-1.55449e-18 -2.30063e-17 -9.81037)
(-4.397e-19 -4.55796e-18 -9.78442)
(6.59903e-18 1.82445e-17 -9.72919)
(-5.85739e-18 -8.51823e-20 -9.65516)
(-6.09599e-18 4.24015e-18 -9.57125)
(5.97318e-18 -1.80771e-17 -9.48501)
(1.78859e-18 3.35995e-19 -9.40217)
(5.5528e-19 1.0929e-17 -9.32639)
(-4.23132e-19 -8.06223e-18 -9.25958)
(-3.08804e-19 1.86276e-17 -9.20196)
(2.67698e-19 -1.85986e-17 -9.15187)
(1.6922e-18 9.69474e-18 -9.10657)
(-1.21879e-18 -3.15193e-19 -9.06311)
(-2.39832e-18 -1.05295e-18 -9.01823)
(2.65611e-18 -2.27461e-18 -8.96867)
(8.56166e-21 5.17665e-18 -8.91157)
(1.2446e-19 -1.17718e-18 -8.84459)
(7.91536e-20 2.29425e-18 -8.76602)
(2.45161e-19 -3.16818e-19 -8.67496)
(8.30513e-23 2.08394e-20 -8.57157)
(8.20154e-21 1.26514e-18 -8.49069)
(-2.30935e-20 7.82765e-18 4.99854)
(-2.76618e-19 -5.69597e-18 1.69585)
(5.05905e-19 -2.54124e-17 -1.76053)
(-3.63746e-19 1.92615e-17 -4.26915)
(1.74551e-17 1.96631e-17 -5.72858)
(-1.72716e-17 -1.56439e-17 -6.42309)
(0 -0 -6.67034)
(-3.58948e-17 3.16695e-17 -6.72374)
(3.67694e-17 -5.64548e-17 -6.7048)
(-3.29101e-17 -7.73254e-17 -6.65655)
(3.15806e-17 1.20736e-16 -6.5948)
(9.34903e-19 1.08565e-16 -6.52614)
(-1.61598e-19 -1.1441e-16 -6.45405)
(-1.32884e-16 -7.64322e-17 -6.38075)
(1.26162e-16 1.26785e-16 -6.30756)
(7.98156e-17 -1.13918e-16 -6.23514)
(-1.34839e-16 -2.45559e-17 -6.1637)
(5.88536e-17 1.38486e-16 -6.09311)
(3.35326e-18 -6.31446e-17 -6.02306)
(0 -0 -5.95315)
(1.29103e-16 -0 -5.88283)
(-1.29349e-16 -0 -5.81148)
(-8.38818e-18 1.23618e-16 -5.73832)
(-1.1964e-16 -1.01737e-16 -5.6625)
(1.37402e-16 -1.45737e-16 -5.58308)
(-9.13509e-18 1.23855e-16 -5.49904)
(0 -0 -5.40932)
(1.2665e-16 -0 -5.31284)
(-5.70674e-19 -0 -5.20856)
(-1.37424e-16 1.2172e-16 -5.09557)
(1.79571e-17 -1.03343e-16 -4.97303)
(2.63415e-16 -1.40466e-16 -4.83953)
(-4.04208e-16 1.14491e-16 -4.69318)
(2.34787e-16 -2.6996e-18 -4.52577)
(-1.83397e-17 2.53635e-16 -4.35676)
(-4.79073e-16 -5.47734e-16 -4.24518)
(7.06988e-16 -1.25556e-16 -4.253)
(3.53157e-16 1.72044e-15 -4.43304)
(-7.87078e-16 -2.37859e-16 -4.79933)
(-1.93332e-16 -1.07939e-15 -5.35492)
(-1.29321e-16 -1.96675e-16 -6.08017)
(-1.42238e-15 7.1979e-17 -6.8466)
(2.05471e-16 5.28393e-16 -7.64648)
(1.07121e-15 7.53875e-16 -8.49239)
(-1.53841e-15 -1.74141e-15 -9.35623)
(1.79043e-15 -1.73602e-15 -10.2436)
(-5.72684e-16 4.42923e-16 -11.1373)
(-5.20884e-17 6.05293e-16 -12.0218)
(7.51117e-17 -2.10874e-16 -12.8981)
(-4.24209e-17 1.46901e-15 -13.7285)
(4.22015e-16 6.83123e-16 -14.5261)
(1.8162e-16 -1.30772e-15 -15.2664)
(5.3216e-18 -7.04444e-16 -15.9361)
(2.15782e-16 -2.88353e-16 -16.5381)
(-5.64848e-16 -1.37642e-16 -17.0562)
(-3.00153e-16 4.87695e-17 -17.4929)
(-3.91161e-16 -8.88126e-17 -17.8361)
(-2.41307e-17 2.01918e-16 -18.0888)
(-1.0809e-16 2.04803e-16 -18.2169)
(1.55818e-16 -8.81083e-18 -18.2538)
(5.91777e-17 1.20194e-16 -18.1422)
(-2.86601e-16 -6.01371e-17 -17.8893)
(4.56032e-16 -3.79483e-16 -17.4981)
(3.8373e-16 -7.00443e-16 -16.9471)
(-1.4952e-16 -3.86378e-16 -16.2904)
(-4.8607e-16 8.59122e-16 -15.4909)
(-8.9728e-16 3.96401e-16 -14.6091)
(1.47301e-16 8.86536e-17 -13.628)
(2.29678e-17 -2.20226e-16 -12.6256)
(-6.71452e-16 3.91036e-16 -11.5761)
(2.41083e-17 1.31455e-15 -10.5089)
(1.31057e-15 -1.18928e-15 -9.47062)
(-1.05431e-15 -8.46269e-16 -8.44291)
(1.96021e-15 -1.23247e-15 -7.46144)
(8.54502e-16 -8.10292e-16 -6.53565)
(-1.78339e-16 1.88589e-15 -5.6647)
(8.75788e-16 -2.77332e-16 -4.86249)
(5.83149e-17 -8.81548e-17 -4.13412)
(1.55825e-15 7.88687e-16 -3.47507)
(2.28493e-16 -2.32153e-15 -2.88708)
(7.47802e-16 -3.29285e-15 -2.36806)
(-5.21944e-17 2.34213e-15 -1.91291)
(6.72806e-16 -3.18638e-16 -1.5167)
(6.89379e-16 -1.42258e-15 -1.17409)
(-6.55752e-16 4.85264e-16 -0.879403)
(1.24691e-15 -9.1085e-16 -0.629657)
(-1.87408e-15 4.25815e-16 -0.419971)
(-1.25876e-15 -7.22772e-17 -0.246302)
(-5.98115e-16 1.06732e-15 -0.108164)
(-5.26217e-18 6.37129e-16 -0.000950065)
(1.16082e-17 7.36751e-16 0.0771)
(2.379e-17 3.27429e-16 0.126861)
(-2.73042e-16 1.60453e-16 0.152899)
(2.793e-16 -4.25187e-16 0.155775)
(-1.34476e-19 -3.34672e-17 0.139922)
(-8.43589e-17 2.95593e-16 0.106711)
(2.53203e-17 -2.526e-16 0.0608979)
(-1.43918e-17 -5.56612e-16 0.00487857)
(7.43839e-16 5.25123e-17 -0.0564395)
(6.44106e-17 3.70211e-16 -0.121423)
(-5.52882e-17 -1.99023e-17 -0.188317)
(7.98306e-17 -9.56171e-17 -0.254195)
(1.1072e-18 5.17185e-17 -0.319409)
(-6.96506e-19 -5.00639e-17 -0.382543)
(-1.3837e-18 -1.1504e-16 -0.445889)
(-1.06601e-16 -1.64986e-17 -0.512686)
(-1.13499e-16 -1.53742e-16 -0.583618)
(-4.24589e-16 -1.06985e-16 -0.66533)
(6.51602e-16 7.19665e-16 -0.759221)
(-4.40886e-16 -4.11831e-16 -0.8713)
(4.45223e-16 -1.03988e-16 -1.00524)
(-5.35309e-18 2.8069e-16 -1.16498)
(1.18955e-17 -2.9065e-16 -1.35359)
(2.31571e-17 2.74558e-16 -1.57267)
(5.95286e-18 3.34298e-16 -1.82827)
(-3.90381e-18 -3.17673e-16 -2.11879)
(2.12517e-16 7.31816e-16 -2.4506)
(1.6213e-16 7.98206e-16 -2.82489)
(-1.02952e-15 -1.72429e-15 -3.24247)
(-4.08144e-16 -3.92332e-16 -3.70755)
(1.03597e-15 1.48506e-15 -4.21666)
(3.02961e-16 -9.62852e-16 -4.7675)
(-3.04473e-16 -5.4253e-16 -5.36351)
(-5.87666e-16 -5.18225e-16 -6.00323)
(-1.73853e-16 9.48174e-16 -6.67727)
(-7.87801e-16 1.30394e-16 -7.38622)
(5.19567e-16 -7.9401e-16 -8.12305)
(-7.43225e-16 -8.90944e-18 -8.88077)
(-5.6377e-16 -1.88359e-15 -9.65583)
(-8.14066e-16 -1.04838e-15 -10.4398)
(-2.57003e-16 1.18572e-16 -11.2138)
(-5.81587e-16 -4.69317e-16 -11.9915)
(-4.17072e-16 -1.18823e-15 -12.7566)
(8.60022e-16 5.49197e-16 -13.4782)
(-7.66833e-16 1.39432e-16 -14.1897)
(-3.20447e-18 -2.93826e-16 -14.8645)
(1.77061e-18 -2.07209e-16 -15.4613)
(-1.86814e-16 2.11334e-17 -16.0473)
(-2.94343e-17 5.60694e-17 -16.5418)
(-2.11612e-16 -4.97139e-18 -16.9864)
(1.45817e-16 3.38572e-16 -17.3561)
(8.46167e-16 4.59405e-17 -17.6495)
(-8.40192e-17 6.60065e-17 -17.8655)
(1.50666e-17 2.33692e-16 -18.0021)
(-1.71869e-16 1.82892e-16 -18.0411)
(2.35122e-17 -2.41534e-16 -18.0043)
(7.21564e-17 -7.13285e-17 -17.8491)
(-9.27032e-17 1.19045e-16 -17.6031)
(1.19094e-16 -1.24116e-18 -17.2196)
(-1.90479e-16 2.48315e-16 -16.7071)
(7.17603e-17 -1.95336e-16 -16.0575)
(1.47936e-16 -4.19894e-16 -15.2683)
(-2.01522e-16 2.30374e-18 -14.3426)
(6.2075e-17 7.56622e-17 -13.3068)
(-2.19113e-16 -8.75282e-17 -12.1267)
(-1.50986e-16 4.06286e-16 -10.8793)
(3.75356e-16 -1.37564e-16 -9.64762)
(-1.7165e-16 1.296e-16 -8.37033)
(-9.50258e-18 -2.63656e-17 -7.13791)
(4.86756e-16 -2.3392e-16 -6.0002)
(1.49325e-16 -1.7351e-16 -4.96819)
(-2.77052e-16 2.92957e-16 -4.27964)
(3.19475e-17 -2.42701e-17 -3.96289)
(3.12333e-17 -1.02732e-18 -3.89121)
(-3.17728e-17 1.02773e-18 -3.99038)
(-3.09596e-17 -1.59029e-17 -4.22343)
(-1.05932e-17 -7.67457e-17 -4.54924)
(2.9756e-17 4.26975e-17 -4.90177)
(2.48224e-17 1.52851e-18 -5.2179)
(2.78025e-18 1.95031e-17 -5.47363)
(-2.15842e-17 1.57793e-17 -5.67688)
(2.11857e-18 -2.16256e-17 -5.84288)
(4.2841e-17 2.64506e-18 -5.98332)
(-4.3601e-17 -9.45958e-20 -6.10459)
(-2.09164e-18 -2.04598e-17 -6.20928)
(-2.0795e-17 -1.05983e-17 -6.29776)
(3.92174e-17 5.89843e-17 -6.36944)
(-2.13255e-17 -6.71201e-18 -6.42378)
(8.69061e-19 -4.13672e-17 -6.46087)
(1.10293e-18 1.61042e-17 -6.48187)
(-9.92877e-18 1.35129e-18 -6.48892)
(7.88435e-18 4.02121e-18 -6.48477)
(2.22069e-18 1.07633e-17 -6.47227)
(1.09857e-17 -1.0494e-17 -6.45406)
(-1.06681e-17 -1.4579e-17 -6.43238)
(-6.10092e-18 1.82614e-18 -6.40891)
(6.9664e-18 3.46811e-19 -6.38472)
(-4.89881e-18 1.8393e-18 -6.3602)
(4.80314e-18 -8.89105e-19 -6.33545)
(-1.61092e-18 -2.72511e-18 -6.30994)
(2.62497e-18 -4.39593e-18 -6.28289)
(1.75109e-18 7.08001e-18 -6.25358)
(-1.38393e-18 3.43322e-18 -6.22101)
(2.08043e-19 -8.21886e-18 -6.18421)
(8.75254e-20 1.12223e-18 -6.14227)
(-4.14851e-19 -1.88455e-18 -6.09443)
(1.17939e-19 -2.7418e-18 -6.04027)
(1.76363e-19 -1.03543e-18 -5.98043)
(1.87149e-19 1.47594e-18 -5.9172)
(3.5897e-20 -1.34461e-18 -5.89322)
(0 -0 3.46869)
(8.33795e-18 -0 2.52691)
(-8.16256e-18 -1.54838e-17 1.15119)
(3.74203e-19 1.11848e-17 -0.438233)
(-5.23624e-19 1.98137e-17 -1.67205)
(2.2886e-19 -1.55146e-17 -2.65589)
(3.2526e-17 -0 -3.31655)
(-3.26071e-17 -0 -3.79143)
(1.34294e-18 -0 -4.13605)
(-2.89914e-18 -0 -4.39416)
(-6.80918e-17 6.19614e-17 -4.59189)
(6.95106e-17 -4.68567e-17 -4.74417)
(6.79952e-17 -1.54726e-17 -4.8608)
(-1.35051e-18 -4.66882e-17 -4.94924)
(4.2393e-19 -2.94926e-17 -5.01534)
(-6.96894e-17 1.99984e-16 -5.06363)
(-6.48273e-17 -1.09269e-16 -5.0976)
(7.07109e-17 -7.58234e-17 -5.11998)
(-3.27426e-18 6.1657e-17 -5.13295)
(7.0379e-17 -1.21763e-16 -5.13822)
(-7.01972e-17 9.46998e-17 -5.13714)
(-8.20324e-18 1.4906e-16 -5.1307)
(-2.73957e-19 -1.26682e-18 -5.11959)
(1.46785e-17 -9.47066e-17 -5.10421)
(1.26768e-16 -1.46977e-16 -5.08468)
(-1.3351e-16 1.20954e-16 -5.06092)
(-1.14112e-16 -1.1945e-16 -5.03266)
(1.66175e-18 -2.39597e-17 -4.99954)
(2.26429e-16 2.39444e-16 -4.96114)
(-1.34864e-16 1.42113e-16 -4.91711)
(3.80206e-17 -3.34245e-16 -4.86717)
(-1.26234e-16 -4.45692e-17 -4.81066)
(1.08551e-16 1.48748e-16 -4.7469)
(1.15435e-16 -1.98738e-17 -4.66445)
(-1.47891e-16 2.46522e-16 -4.58269)
(2.8133e-16 -1.87147e-16 -4.52668)
(-9.65793e-16 -7.44937e-16 -4.49885)
(-9.26386e-16 -8.8206e-16 -4.52599)
(1.07856e-15 6.29307e-16 -4.62446)
(4.25956e-16 1.03035e-15 -4.80084)
(-1.38998e-16 1.34636e-15 -5.04515)
(1.02168e-15 -3.90698e-16 -5.30871)
(4.58615e-16 -2.62757e-15 -5.60031)
(-1.02981e-15 4.35233e-16 -5.9304)
(4.92745e-16 1.45732e-15 -6.29523)
(-1.09359e-15 -4.11748e-16 -6.69805)
(-8.16448e-16 2.5526e-17 -7.12608)
(-4.84624e-16 -2.71083e-16 -7.59268)
(-7.68196e-16 -1.48949e-16 -8.08798)
(-4.78304e-16 -1.27597e-15 -8.55064)
(1.30931e-15 2.85757e-16 -9.03587)
(-6.526e-16 7.49631e-16 -9.53355)
(-2.14361e-17 8.14501e-16 -10.0084)
(-8.28525e-16 -1.26561e-16 -10.4622)
(-7.87815e-17 9.20764e-17 -10.8978)
(-9.88461e-18 -2.23605e-16 -11.3058)
(-5.15744e-16 -3.13522e-16 -11.6814)
(-1.41402e-16 -1.50431e-16 -12.025)
(8.67871e-18 -5.66678e-17 -12.307)
(8.00083e-17 -5.48556e-17 -12.5465)
(-1.52581e-16 4.45691e-17 -12.7012)
(3.17866e-16 -1.84803e-16 -12.7645)
(-4.51302e-16 -6.31353e-17 -12.7264)
(1.71216e-16 8.4035e-16 -12.5647)
(-7.22597e-16 1.04014e-15 -12.2997)
(7.86208e-16 -5.61251e-16 -11.905)
(-2.10596e-16 -2.57971e-16 -11.4182)
(1.49466e-16 -1.59918e-16 -10.8349)
(-5.47607e-16 6.44613e-16 -10.1865)
(4.25994e-16 2.40771e-17 -9.48426)
(2.5946e-16 -1.47355e-15 -8.74733)
(5.59744e-16 2.21376e-16 -8.0118)
(-5.56439e-16 7.05903e-16 -7.27831)
(-8.84393e-17 -1.18215e-15 -6.57433)
(-9.74867e-16 1.48104e-15 -5.91167)
(4.3247e-17 -7.61756e-16 -5.29501)
(7.41154e-16 -7.73675e-16 -4.73456)
(3.75076e-17 -1.07685e-16 -4.23308)
(1.54325e-15 -1.9052e-15 -3.78703)
(1.41502e-15 -3.37136e-16 -3.39528)
(-2.94836e-15 3.54566e-15 -3.05355)
(-6.91519e-16 -1.94344e-16 -2.75571)
(7.28488e-16 -1.3905e-15 -2.49675)
(-7.38821e-16 1.25986e-15 -2.27142)
(3.11906e-18 -7.79604e-16 -2.07567)
(-1.3023e-15 2.28407e-15 -1.90773)
(1.26846e-15 2.43545e-15 -1.76461)
(-2.73066e-16 -3.35155e-16 -1.64566)
(-5.44886e-16 -1.87241e-15 -1.55239)
(-1.72246e-15 2.09762e-16 -1.48166)
(-2.72468e-16 1.48262e-16 -1.43299)
(1.66511e-17 1.12746e-17 -1.40719)
(2.78722e-16 -1.15679e-16 -1.39915)
(-3.94963e-17 -3.22992e-16 -1.40802)
(-4.60032e-16 2.05822e-16 -1.43201)
(-2.34444e-17 2.85932e-16 -1.46675)
(2.36511e-16 -1.21727e-16 -1.51216)
(-7.24455e-16 -4.54793e-17 -1.56217)
(-3.96877e-16 1.17525e-16 -1.61748)
(-2.29775e-17 2.19238e-16 -1.67448)
(1.10543e-16 -1.98366e-17 -1.73485)
(-1.06691e-16 7.87741e-17 -1.79333)
(6.68843e-17 -1.90316e-17 -1.85205)
(-6.25969e-19 -1.57561e-17 -1.90906)
(1.06788e-18 1.13347e-16 -1.96596)
(-2.22013e-16 1.32004e-16 -2.02394)
(1.62903e-18 1.31108e-16 -2.08199)
(-2.14294e-16 -7.0846e-16 -2.14277)
(-2.07837e-16 -8.51431e-17 -2.20606)
(4.1716e-16 7.00153e-16 -2.27454)
(-1.45177e-17 -2.6197e-16 -2.34786)
(6.76572e-18 -1.36705e-17 -2.42833)
(2.21629e-18 2.70215e-16 -2.51779)
(-2.30452e-16 -8.90364e-17 -2.61545)
(4.24201e-16 -5.94227e-17 -2.72722)
(1.04177e-17 -2.24758e-16 -2.85055)
(-6.71925e-16 -1.30871e-15 -2.99127)
(3.61562e-16 8.34049e-16 -3.15166)
(9.0788e-16 2.20118e-15 -3.33164)
(-5.89416e-16 -1.39791e-15 -3.53675)
(1.00086e-15 -6.96198e-16 -3.76847)
(-7.61138e-16 4.37843e-16 -4.02597)
(-4.88914e-16 1.08319e-15 -4.31345)
(-2.61604e-16 1.64473e-16 -4.63227)
(-6.55112e-16 -8.8891e-16 -4.97852)
(1.59532e-15 6.03971e-16 -5.35391)
(-1.24427e-16 2.55098e-17 -5.75536)
(4.59134e-16 8.42244e-16 -6.17918)
(-4.94048e-16 6.57097e-16 -6.62303)
(-8.20438e-16 -2.65175e-16 -7.08182)
(-4.45479e-16 -4.31361e-16 -7.54441)
(-5.51952e-17 6.23674e-17 -8.01594)
(-7.32317e-16 5.9381e-17 -8.48664)
(-5.93424e-16 -7.97688e-16 -8.93778)
(-6.42082e-17 3.08777e-16 -9.38568)
(-1.23932e-16 -1.66748e-16 -9.81384)
(-5.00464e-16 -6.92933e-17 -10.2046)
(-2.0118e-16 2.12415e-16 -10.5852)
(1.57972e-16 -3.21038e-17 -10.9216)
(9.08263e-18 2.71591e-17 -11.2304)
(3.55931e-16 -1.16632e-15 -11.5042)
(-1.91241e-16 -4.08025e-16 -11.7428)
(-5.55046e-17 3.40416e-17 -11.9492)
(2.2515e-16 2.58066e-16 -12.1217)
(3.03065e-16 1.32553e-16 -12.2568)
(1.08988e-16 -4.55542e-17 -12.357)
(-1.06379e-16 2.30731e-17 -12.4067)
(6.78512e-17 1.03564e-16 -12.4091)
(-5.50864e-17 -5.94415e-17 -12.3348)
(2.63234e-16 7.30386e-17 -12.1758)
(2.73695e-17 -1.91617e-16 -11.9214)
(-2.58522e-16 2.91704e-16 -11.5532)
(-1.69778e-17 2.08529e-16 -11.0747)
(6.50892e-17 -1.65469e-16 -10.4785)
(-1.64139e-16 3.50503e-16 -9.74013)
(1.03912e-16 -2.87193e-16 -8.96336)
(-2.82298e-16 -1.07842e-16 -8.14936)
(2.96838e-16 6.34038e-17 -7.27439)
(-2.58128e-17 -1.77643e-16 -6.47866)
(-3.11334e-17 -1.30039e-16 -5.77845)
(-1.51329e-16 2.15727e-16 -5.29552)
(1.34749e-16 -4.29437e-17 -5.06266)
(2.69486e-17 -5.99873e-17 -5.11029)
(1.17165e-16 -5.60959e-17 -5.32223)
(-2.25223e-17 5.41796e-17 -5.61349)
(3.19099e-17 1.67914e-17 -5.92247)
(-7.82073e-17 -1.9817e-19 -6.20519)
(-5.22864e-18 -5.98075e-17 -6.41138)
(5.34711e-18 -4.75556e-18 -6.51101)
(2.5682e-17 3.60596e-17 -6.51404)
(-4.19205e-19 2.33511e-17 -6.45222)
(-8.06783e-18 -4.11425e-17 -6.35821)
(-5.59161e-18 -7.96771e-18 -6.25761)
(5.44323e-18 4.74357e-17 -6.16698)
(4.54762e-18 -1.15051e-17 -6.09542)
(-4.23476e-17 9.04904e-19 -6.04638)
(3.52891e-17 -1.56822e-17 -6.01926)
(1.7246e-17 -1.62213e-17 -6.01089)
(-1.23674e-17 4.4278e-17 -6.01683)
(-4.43712e-18 -1.25389e-17 -6.03232)
(9.14695e-18 4.19815e-18 -6.05289)
(-6.72973e-18 -2.98953e-18 -6.07467)
(6.86421e-19 -9.02991e-18 -6.09471)
(5.59299e-18 -8.28966e-18 -6.11068)
(-1.17342e-17 2.06497e-17 -6.12085)
(8.04258e-19 -2.66548e-18 -6.12398)
(-1.71718e-18 -5.0435e-18 -6.11942)
(-1.33413e-18 4.39231e-18 -6.10703)
(3.38549e-18 1.08976e-17 -6.08726)
(-4.15432e-18 -1.8308e-17 -6.06118)
(-3.83582e-18 -1.72781e-18 -6.03043)
(3.88886e-18 -5.05798e-18 -5.99676)
(-1.21569e-18 7.29707e-18 -5.96145)
(-1.27454e-18 -7.29703e-18 -5.92565)
(6.99941e-20 8.20512e-18 -5.89017)
(7.60909e-19 2.51198e-18 -5.85532)
(-6.87142e-19 2.93707e-18 -5.82107)
(-7.22814e-20 -2.13169e-18 -5.78759)
(2.81577e-19 -5.22832e-18 -5.75418)
(-1.02586e-19 1.85653e-19 -5.76992)
(0 -0 2.33754)
(0 -0 2.06004)
(1.38385e-19 -1.56354e-17 1.54329)
(5.23744e-19 1.12699e-17 0.844514)
(-7.70877e-19 1.99523e-17 0.00658951)
(7.74467e-19 -4.63494e-17 -0.714335)
(3.26598e-17 2.20417e-17 -1.36674)
(-6.70113e-17 7.01951e-17 -1.94844)
(3.41532e-17 -8.34522e-17 -2.43383)
(1.01253e-18 -1.72892e-17 -2.84704)
(-2.32852e-18 6.99475e-17 -3.19994)
(6.68136e-17 -3.06804e-17 -3.49804)
(-1.27241e-16 -6.07259e-17 -3.7483)
(1.2992e-16 -1.6366e-17 -3.95783)
(-1.39424e-16 1.82049e-16 -4.13322)
(6.74823e-17 -2.79905e-17 -4.28011)
(9.0078e-18 -1.37541e-16 -4.40326)
(-5.85003e-18 6.05749e-17 -4.50668)
(3.35029e-18 -5.97682e-17 -4.59379)
(5.88756e-17 4.40621e-17 -4.66751)
(-7.19505e-17 7.55728e-17 -4.73031)
(9.79453e-18 -5.98667e-17 -4.78422)
(-1.30457e-16 1.18032e-16 -4.83089)
(1.44403e-16 -2.05499e-16 -4.87158)
(-4.40343e-18 -6.05651e-17 -4.90723)
(-2.75744e-17 3.82791e-16 -4.93844)
(7.62376e-18 -8.91894e-17 -4.96553)
(2.16481e-17 -3.50405e-16 -4.98865)