/*--------------------------------*- C++ -*----------------------------------*\
| =========                 |                                                 |
| \\      /  F ield         | OpenFOAM: The Open Source CFD Toolbox           |
|  \\    /   O peration     | Version:  2506                                  |
|   \\  /    A nd           | Website:  www.openfoam.com                      |
|    \\/     M anipulation  |                                                 |
\*---------------------------------------------------------------------------*/
FoamFile
{
    version     2.0;
    format      ascii;
    arch        "LSB;label=32;scalar=64";
    class       surfaceScalarField;
    location    "0.85";
    object      phi;
}
// * * * * * * * * * * * * * * * * * * * * * * * * * * * * * * * * * * * * * //

dimensions      [0 3 -1 0 0 0 0];

oriented        oriented;

internalField   nonuniform List<scalar> 
7780
(
3.2887e-10
-3.2887e-10
6.26922e-10
-2.98052e-10
8.28928e-10
-2.02006e-10
9.75025e-10
-1.46097e-10
1.08281e-09
-1.07786e-10
1.16301e-09
-8.02032e-11
1.22374e-09
-6.0721e-11
1.27047e-09
-4.67346e-11
1.30709e-09
-3.66157e-11
1.33639e-09
-2.93024e-11
1.36024e-09
-2.38536e-11
1.3798e-09
-1.95612e-11
1.39582e-09
-1.60184e-11
1.40883e-09
-1.30073e-11
1.41926e-09
-1.0436e-11
1.4274e-09
-8.13194e-12
1.43347e-09
-6.07826e-12
1.43763e-09
-4.1574e-12
1.43996e-09
-2.33221e-12
1.44057e-09
-6.01525e-13
1.43962e-09
9.45139e-13
1.43696e-09
2.66124e-12
1.43261e-09
4.34722e-12
1.4266e-09
6.01168e-12
1.4189e-09
7.70206e-12
1.40943e-09
9.46804e-12
1.39804e-09
1.13859e-11
1.38444e-09
1.36077e-11
1.36805e-09
1.639e-11
1.3478e-09
2.02501e-11
1.32567e-09
5.9358e-12
1.30234e-09
-9.08552e-11
1.27264e-09
-2.08104e-10
1.22914e-09
-3.05603e-10
1.16827e-09
-3.82808e-10
1.09761e-09
-4.53007e-10
1.02694e-09
-5.24134e-10
9.54428e-10
-6.2675e-10
8.81e-10
-6.91819e-10
8.19272e-10
-7.19496e-10
7.70303e-10
-7.43242e-10
7.34881e-10
-7.63882e-10
7.11087e-10
-7.79733e-10
6.97481e-10
-7.91451e-10
6.93099e-10
-7.99583e-10
6.96781e-10
-8.0388e-10
7.07716e-10
-8.03389e-10
7.24058e-10
-7.98279e-10
7.44097e-10
-7.87706e-10
7.66372e-10
-7.71256e-10
7.89776e-10
-7.46906e-10
8.1466e-10
-7.11824e-10
8.4128e-10
-6.71748e-10
8.72338e-10
-6.15044e-10
9.11678e-10
-5.46262e-10
9.62774e-10
-4.5198e-10
1.02761e-09
-3.40408e-10
1.09711e-09
-1.85427e-10
1.1567e-09
-3.65992e-12
1.19424e-09
1.77309e-10
1.20532e-09
3.41027e-10
1.18747e-09
4.92761e-10
1.16478e-09
5.7669e-10
1.132e-09
6.59248e-10
1.10568e-09
6.9842e-10
1.08304e-09
7.33065e-10
1.06581e-09
7.57724e-10
1.05535e-09
7.71554e-10
1.0503e-09
7.82012e-10
1.0489e-09
7.90255e-10
1.05052e-09
7.96123e-10
1.05471e-09
7.98665e-10
1.06082e-09
7.98833e-10
1.06832e-09
7.96916e-10
1.07685e-09
7.92715e-10
1.08621e-09
7.85912e-10
1.09627e-09
7.76096e-10
1.10738e-09
7.60365e-10
1.11893e-09
7.42128e-10
1.13078e-09
7.18862e-10
1.14327e-09
6.8835e-10
1.15705e-09
6.411e-10
1.1707e-09
5.90656e-10
1.1857e-09
5.12758e-10
1.20081e-09
4.23092e-10
1.21851e-09
2.88211e-10
1.23768e-09
1.41191e-10
1.25913e-09
-2.44445e-11
1.2846e-09
-1.98623e-10
1.31252e-09
-3.51739e-10
1.33837e-09
-4.64712e-10
1.36158e-09
-5.61522e-10
1.375e-09
-6.18184e-10
1.3806e-09
-6.68922e-10
1.37461e-09
-6.94996e-10
1.35949e-09
-7.16011e-10
1.34077e-09
-7.3827e-10
1.31971e-09
-7.52616e-10
1.29977e-09
-7.66362e-10
1.28244e-09
-7.78093e-10
1.26763e-09
-7.86636e-10
1.25376e-09
-7.90823e-10
1.23809e-09
-7.89224e-10
1.21761e-09
-7.81804e-10
1.19033e-09
-7.69648e-10
1.15764e-09
-7.55863e-10
1.12158e-09
-7.40761e-10
1.08433e-09
-7.22657e-10
1.04947e-09
-7.01584e-10
1.02075e-09
-6.79662e-10
1.00102e-09
-6.52869e-10
9.90981e-10
-6.0579e-10
9.9515e-10
-5.59085e-10
1.01366e-09
-4.77257e-10
1.0508e-09
-3.86628e-10
1.1015e-09
-2.55647e-10
1.15466e-09
-8.94405e-11
1.19562e-09
8.75746e-11
1.21401e-09
2.60328e-10
1.20154e-09
4.27736e-10
1.17535e-09
5.37942e-10
1.13768e-09
6.28268e-10
1.10079e-09
6.82627e-10
1.06493e-09
7.29512e-10
1.03794e-09
7.51664e-10
1.01807e-09
7.68964e-10
1.004e-09
7.83299e-10
9.95843e-10
7.91898e-10
9.92852e-10
7.96519e-10
9.93767e-10
7.99266e-10
9.9772e-10
8.00033e-10
1.00417e-09
7.98664e-10
1.01267e-09
7.95031e-10
1.02306e-09
7.88207e-10
1.03525e-09
7.78692e-10
1.04886e-09
7.66244e-10
1.064e-09
7.4988e-10
1.08063e-09
7.29037e-10
1.09951e-09
6.96562e-10
1.11968e-09
6.60962e-10
1.14085e-09
6.16147e-10
1.16479e-09
5.44479e-10
1.1888e-09
4.69094e-10
1.21515e-09
3.5158e-10
1.24287e-09
2.16698e-10
1.27171e-09
6.01048e-11
1.3038e-09
-1.14549e-10
1.33864e-09
-2.81701e-10
1.37218e-09
-4.11434e-10
1.40227e-09
-5.17678e-10
1.4256e-09
-5.94665e-10
1.43877e-09
-6.47057e-10
1.43955e-09
-6.79524e-10
1.43288e-09
-7.11939e-10
1.41848e-09
-7.29699e-10
1.40039e-09
-7.45917e-10
1.38169e-09
-7.60567e-10
1.36556e-09
-7.75224e-10
1.35217e-09
-7.85502e-10
1.33743e-09
-7.88509e-10
1.32493e-09
-7.92429e-10
1.33297e-09
-8.12053e-10
1.38198e-09
-8.49477e-10
1.36491e-09
-6.29929e-10
1.3346e-09
-5.37025e-10
1.30593e-09
-4.71829e-10
1.28007e-09
-3.86159e-10
1.26635e-09
-2.99496e-10
1.26117e-09
-1.92628e-10
1.25663e-09
-7.25629e-11
1.25506e-09
-1.6468e-12
1.26513e-09
-1.00735e-11
1.2791e-09
-1.39663e-11
1.29349e-09
-1.43972e-11
1.30682e-09
-1.33266e-11
1.31863e-09
-1.18078e-11
1.32901e-09
-1.03773e-11
1.33817e-09
-9.16009e-12
1.34638e-09
-8.20979e-12
1.3539e-09
-7.5286e-12
1.36095e-09
-7.04876e-12
1.36764e-09
-6.68405e-12
1.37402e-09
-6.38201e-12
1.3801e-09
-6.08024e-12
1.38584e-09
-5.74107e-12
1.39107e-09
-5.22918e-12
1.39553e-09
-4.4612e-12
1.3988e-09
-3.26767e-12
1.40025e-09
-1.44983e-12
1.39886e-09
1.39038e-12
1.39328e-09
5.57884e-12
1.3815e-09
1.17831e-11
1.36065e-09
2.08431e-11
1.32639e-09
3.42605e-11
1.27199e-09
5.44022e-11
1.18632e-09
8.56667e-11
1.0487e-09
1.3762e-10
8.21681e-10
2.27022e-10
4.44112e-10
3.77569e-10
4.44112e-10
1.81007e-11
-3.46971e-10
1.78565e-10
-4.58516e-10
3.86639e-10
-4.1008e-10
5.81416e-10
-3.40874e-10
7.50235e-10
-2.76605e-10
8.92261e-10
-2.22229e-10
1.01028e-09
-1.78744e-10
1.10813e-09
-1.44584e-10
1.18924e-09
-1.17727e-10
1.25624e-09
-9.62983e-11
1.31127e-09
-7.8885e-11
1.35628e-09
-6.45709e-11
1.39291e-09
-5.26429e-11
1.42242e-09
-4.2519e-11
1.44569e-09
-3.37115e-11
1.46345e-09
-2.58908e-11
1.47628e-09
-1.89087e-11
1.48466e-09
-1.25361e-11
1.48897e-09
-6.64376e-12
1.4895e-09
-1.13295e-12
1.48636e-09
4.09103e-12
1.47991e-09
9.1046e-12
1.47034e-09
1.39203e-11
1.45782e-09
1.85352e-11
1.44251e-09
2.30123e-11
1.42458e-09
2.73913e-11
1.4042e-09
3.17704e-11
1.3815e-09
3.63035e-11
1.35664e-09
4.12589e-11
1.32993e-09
4.69575e-11
1.29735e-09
3.85152e-11
1.24776e-09
-4.12636e-11
1.17455e-09
-1.34893e-10
1.0815e-09
-2.12556e-10
9.7604e-10
-2.77348e-10
8.71066e-10
-3.48032e-10
7.75481e-10
-4.28548e-10
6.80805e-10
-5.32074e-10
5.93713e-10
-6.04728e-10
5.27136e-10
-6.52921e-10
4.80598e-10
-6.96706e-10
4.52558e-10
-7.35842e-10
4.41057e-10
-7.68232e-10
4.44541e-10
-7.94933e-10
4.6124e-10
-8.16281e-10
4.88679e-10
-8.31318e-10
5.24487e-10
-8.39195e-10
5.65454e-10
-8.39245e-10
6.08672e-10
-8.30923e-10
6.51623e-10
-8.14207e-10
6.93169e-10
-7.88451e-10
7.33943e-10
-7.52598e-10
7.74902e-10
-7.12707e-10
8.20729e-10
-6.60872e-10
8.77276e-10
-6.02809e-10
9.51778e-10
-5.26482e-10
1.04993e-09
-4.38561e-10
1.17368e-09
-3.0918e-10
1.31445e-09
-1.44422e-10
1.4511e-09
4.06526e-11
1.56299e-09
2.29142e-10
1.62575e-09
4.30008e-10
1.64275e-09
5.59696e-10
1.61976e-09
6.8224e-10
1.57638e-09
7.41785e-10
1.52019e-09
7.89242e-10
1.46185e-09
8.16041e-10
1.40858e-09
8.24824e-10
1.36432e-09
8.26273e-10
1.32875e-09
8.25835e-10
1.30184e-09
8.23036e-10
1.28285e-09
8.17664e-10
1.27069e-09
8.10989e-10
1.26408e-09
8.03523e-10
1.26182e-09
7.94978e-10
1.26305e-09
7.84683e-10
1.26718e-09
7.71965e-10
1.27444e-09
7.53118e-10
1.28399e-09
7.32575e-10
1.29542e-09
7.07438e-10
1.30921e-09
6.74558e-10
1.32628e-09
6.24026e-10
1.34555e-09
5.71383e-10
1.36866e-09
4.89651e-10
1.39496e-09
3.96791e-10
1.42709e-09
2.56075e-10
1.46404e-09
1.04243e-10
1.50438e-09
-6.47914e-11
1.54811e-09
-2.42346e-10
1.58949e-09
-3.93123e-10
1.62276e-09
-4.97982e-10
1.64468e-09
-5.83443e-10
1.6513e-09
-6.24803e-10
1.64475e-09
-6.62373e-10
1.62655e-09
-6.76788e-10
1.6017e-09
-6.91158e-10
1.5765e-09
-7.13075e-10
1.55334e-09
-7.29455e-10
1.53411e-09
-7.47136e-10
1.51739e-09
-7.61383e-10
1.49942e-09
-7.68674e-10
1.47542e-09
-7.66823e-10
1.44243e-09
-7.56245e-10
1.39822e-09
-7.37604e-10
1.34373e-09
-7.15159e-10
1.28212e-09
-6.94254e-10
1.21735e-09
-6.75976e-10
1.15511e-09
-6.60403e-10
1.10112e-09
-6.47593e-10
1.05916e-09
-6.37689e-10
1.0317e-09
-6.2541e-10
1.02126e-09
-5.95352e-10
1.03039e-09
-5.68215e-10
1.06364e-09
-5.10515e-10
1.12482e-09
-4.47808e-10
1.21571e-09
-3.46531e-10
1.33165e-09
-2.0539e-10
1.45717e-09
-3.79375e-11
1.57218e-09
1.45316e-10
1.64937e-09
3.50544e-10
1.68082e-09
5.06495e-10
1.66834e-09
6.40746e-10
1.62584e-09
7.25132e-10
1.56279e-09
7.92555e-10
1.49533e-09
8.19126e-10
1.43074e-09
8.33548e-10
1.37314e-09
8.40895e-10
1.32557e-09
8.39465e-10
1.28898e-09
8.33113e-10
1.26242e-09
8.25828e-10
1.24441e-09
8.18045e-10
1.23358e-09
8.09489e-10
1.22863e-09
7.9999e-10
1.22869e-09
7.88143e-10
1.23329e-09
7.74099e-10
1.24147e-09
7.58063e-10
1.25311e-09
7.38239e-10
1.26813e-09
7.14021e-10
1.28743e-09
6.77255e-10
1.31023e-09
6.38161e-10
1.33624e-09
5.90135e-10
1.36784e-09
5.12885e-10
1.40293e-09
4.34004e-10
1.44399e-09
3.10511e-10
1.49039e-09
1.70302e-10
1.54058e-09
9.91358e-12
1.59358e-09
-1.6755e-10
1.64461e-09
-3.32734e-10
1.68716e-09
-4.53982e-10
1.71646e-09
-5.46962e-10
1.7303e-09
-6.08492e-10
1.72812e-09
-6.4486e-10
1.71307e-09
-6.64453e-10
1.69175e-09
-6.90607e-10
1.66794e-09
-7.05899e-10
1.64635e-09
-7.24359e-10
1.6294e-09
-7.43681e-10
1.61818e-09
-7.64085e-10
1.61179e-09
-7.79181e-10
1.6036e-09
-7.80362e-10
1.59402e-09
-7.82852e-10
1.58979e-09
-8.0776e-10
1.58369e-09
-8.43287e-10
1.53518e-09
-5.81347e-10
1.47754e-09
-4.79351e-10
1.42217e-09
-4.16455e-10
1.37866e-09
-3.42669e-10
1.35726e-09
-2.78106e-10
1.35814e-09
-1.93519e-10
1.37739e-09
-9.18193e-11
1.40721e-09
-3.14686e-11
1.44198e-09
-4.48466e-11
1.47734e-09
-4.93287e-11
1.51067e-09
-4.772e-11
1.54068e-09
-4.33364e-11
1.56688e-09
-3.80078e-11
1.58934e-09
-3.28427e-11
1.60863e-09
-2.84438e-11
1.62532e-09
-2.48983e-11
1.63984e-09
-2.20569e-11
1.65259e-09
-1.97922e-11
1.66388e-09
-1.79743e-11
1.67391e-09
-1.641e-11
1.68273e-09
-1.49082e-11
1.6903e-09
-1.33048e-11
1.69638e-09
-1.13142e-11
1.7006e-09
-8.67435e-12
1.70225e-09
-4.91961e-12
1.70021e-09
5.88005e-13
1.69271e-09
8.88802e-12
1.67708e-09
2.12116e-11
1.64929e-09
3.9577e-11
1.60325e-09
6.68816e-11
1.53007e-09
1.07442e-10
1.41628e-09
1.68185e-10
1.24178e-09
2.60166e-10
9.79952e-10
3.99451e-10
6.10433e-10
5.96542e-10
1.91326e-10
7.96676e-10
6.35438e-10
-6.11524e-11
-2.85819e-10
-3.15725e-11
-4.88096e-10
6.97908e-11
-5.11443e-10
2.00534e-10
-4.71617e-10
3.35303e-10
-4.11374e-10
4.6301e-10
-3.49936e-10
5.78821e-10
-2.94555e-10
6.81228e-10
-2.4699e-10
7.70325e-10
-2.06824e-10
8.46973e-10
-1.72947e-10
9.12301e-10
-1.44213e-10
9.67407e-10
-1.19677e-10
1.01332e-09
-9.85511e-11
1.05096e-09
-8.01651e-11
1.08121e-09
-6.3958e-11
1.10482e-09
-4.94987e-11
1.12238e-09
-3.64753e-11
1.13447e-09
-2.46201e-11
1.14155e-09
-1.37249e-11
1.14404e-09
-3.62942e-12
1.14237e-09
5.76936e-12
1.13684e-09
1.46258e-11
1.12785e-09
2.29179e-11
1.1157e-09
3.06827e-11
1.10078e-09
3.79333e-11
1.0835e-09
4.46744e-11
1.06434e-09
5.09271e-11
1.0439e-09
5.67456e-11
1.02293e-09
6.2227e-11
1.00239e-09
6.74922e-11
9.78409e-10
6.25004e-11
9.30847e-10
6.29809e-12
8.58729e-10
-6.27755e-11
7.72007e-10
-1.25834e-10
6.82034e-10
-1.87375e-10
5.98214e-10
-2.64211e-10
5.24732e-10
-3.55066e-10
4.51742e-10
-4.59083e-10
3.87015e-10
-5.4e-10
3.40928e-10
-6.06836e-10
3.13067e-10
-6.68847e-10
3.01917e-10
-7.24695e-10
3.0665e-10
-7.72966e-10
3.25862e-10
-8.14144e-10
3.56992e-10
-8.4741e-10
3.96866e-10
-8.71192e-10
4.42375e-10
-8.84703e-10
4.89858e-10
-8.86728e-10
5.36148e-10
-8.77213e-10
5.78851e-10
-8.5691e-10
6.17054e-10
-8.26653e-10
6.51688e-10
-7.87232e-10
6.83975e-10
-7.44995e-10
7.18503e-10
-6.954e-10
7.6048e-10
-6.44787e-10
8.17614e-10
-5.83616e-10
8.96849e-10
-5.17795e-10
1.00805e-09
-4.20378e-10
1.15544e-09
-2.9181e-10
1.33093e-09
-1.3484e-10
1.51533e-09
4.47431e-11
1.68543e-09
2.59918e-10
1.81776e-09
4.27362e-10
1.89707e-09
6.02922e-10
1.92294e-09
7.15903e-10
1.90501e-09
8.07163e-10
1.85799e-09
8.63046e-10
1.79397e-09
8.88855e-10
1.72708e-09
8.93168e-10
1.66288e-09
8.90045e-10
1.6067e-09
8.79224e-10
1.56027e-09
8.64089e-10
1.52415e-09
8.4711e-10
1.49759e-09
8.30075e-10
1.47925e-09
8.1332e-10
1.46781e-09
7.96132e-10
1.46208e-09
7.77703e-10
1.46185e-09
7.53348e-10
1.46611e-09
7.28323e-10
1.4741e-09
6.99447e-10
1.48618e-09
6.62471e-10
1.50298e-09
6.07227e-10
1.52372e-09
5.50642e-10
1.54967e-09
4.63697e-10
1.58017e-09
3.66283e-10
1.61664e-09
2.19612e-10
1.65722e-09
6.36617e-11
1.69864e-09
-1.06216e-10
1.73836e-09
-2.82062e-10
1.76958e-09
-4.24343e-10
1.78817e-09
-5.16572e-10
1.79201e-09
-5.87292e-10
1.78162e-09
-6.14411e-10
1.76063e-09
-6.41372e-10
1.73375e-09
-6.4991e-10
1.70601e-09
-6.63409e-10
1.6816e-09
-6.88668e-10
1.66101e-09
-7.0887e-10
1.64229e-09
-7.28412e-10
1.62093e-09
-7.40031e-10
1.59232e-09
-7.40063e-10
1.55265e-09
-7.27161e-10
1.49887e-09
-7.0247e-10
1.43014e-09
-6.6888e-10
1.35089e-09
-6.35922e-10
1.26718e-09
-6.10542e-10
1.18651e-09
-5.95306e-10
1.11417e-09
-5.88053e-10
1.05405e-09
-5.87461e-10
1.0077e-09
-5.91337e-10
9.75574e-10
-5.93279e-10
9.5977e-10
-5.79547e-10
9.60324e-10
-5.68769e-10
9.82638e-10
-5.3283e-10
1.02936e-09
-4.94536e-10
1.1068e-09
-4.23967e-10
1.2197e-09
-3.1829e-10
1.36411e-09
-1.8235e-10
1.52735e-09
-1.7925e-11
1.68821e-09
1.89688e-10
1.82284e-09
3.71866e-10
1.91464e-09
5.48949e-10
1.95456e-09
6.85205e-10
1.94253e-09
8.04583e-10
1.89701e-09
8.64647e-10
1.83091e-09
8.99642e-10
1.75672e-09
9.15087e-10
1.68382e-09
9.12361e-10
1.61892e-09
8.98014e-10
1.56499e-09
8.79766e-10
1.52265e-09
8.60381e-10
1.49142e-09
8.40725e-10
1.46988e-09
8.2153e-10
1.45676e-09
8.01264e-10
1.45126e-09
7.79598e-10
1.45189e-09
7.57442e-10
1.45821e-09
7.31915e-10
1.46984e-09
7.02385e-10
1.48741e-09
6.59693e-10
1.51038e-09
6.15181e-10
1.53828e-09
5.62241e-10
1.57311e-09
4.78047e-10
1.61304e-09
3.94073e-10
1.65923e-09
2.64327e-10
1.71005e-09
1.19483e-10
1.76147e-09
-4.15111e-11
1.81038e-09
-2.16457e-10
1.85013e-09
-3.72485e-10
1.87561e-09
-4.79466e-10
1.88407e-09
-5.55418e-10
1.8771e-09
-6.01514e-10
1.85803e-09
-6.25768e-10
1.8332e-09
-6.39603e-10
1.8085e-09
-6.65875e-10
1.78771e-09
-6.85092e-10
1.77295e-09
-7.09602e-10
1.76337e-09
-7.34129e-10
1.75645e-09
-7.57228e-10
1.74904e-09
-7.7184e-10
1.73213e-09
-7.63533e-10
1.70134e-09
-7.52105e-10
1.65604e-09
-7.62459e-10
1.58152e-09
-7.68715e-10
1.49404e-09
-4.93792e-10
1.40535e-09
-3.90615e-10
1.32649e-09
-3.37573e-10
1.26535e-09
-2.8153e-10
1.22749e-09
-2.40245e-10
1.21514e-09
-1.81184e-10
1.22981e-09
-1.06493e-10
1.26239e-09
-6.40485e-11
1.29796e-09
-8.04206e-11
1.33435e-09
-8.57187e-11
1.36953e-09
-8.28975e-11
1.40222e-09
-7.60322e-11
1.43178e-09
-6.75627e-11
1.458e-09
-5.90654e-11
1.48095e-09
-5.13907e-11
1.50086e-09
-4.48072e-11
1.51806e-09
-3.92607e-11
1.53287e-09
-3.46038e-11
1.54554e-09
-3.06426e-11
1.55625e-09
-2.71191e-11
1.56509e-09
-2.37474e-11
1.572e-09
-2.02164e-11
1.57679e-09
-1.61043e-11
1.579e-09
-1.08775e-11
1.57782e-09
-3.74105e-12
1.57193e-09
6.47915e-12
1.55938e-09
2.1436e-11
1.5371e-09
4.34858e-11
1.50054e-09
7.61361e-11
1.44284e-09
1.24584e-10
1.35367e-09
1.96616e-10
1.21815e-09
3.03699e-10
1.01746e-09
4.60863e-10
7.36583e-10
6.80325e-10
3.91346e-10
9.41779e-10
8.48298e-11
1.10319e-09
7.20267e-10
-6.74833e-11
-2.18335e-10
-1.06746e-10
-4.48834e-10
-9.05347e-11
-5.27654e-10
-3.54903e-11
-5.26662e-10
4.03312e-11
-4.87195e-10
1.24091e-10
-4.33696e-10
2.08088e-10
-3.78552e-10
2.87953e-10
-3.26855e-10
3.61408e-10
-2.80278e-10
4.27442e-10
-2.38981e-10
4.85756e-10
-2.02527e-10
5.36429e-10
-1.7035e-10
5.79741e-10
-1.41863e-10
6.16086e-10
-1.1651e-10
6.45924e-10
-9.37962e-11
6.69731e-10
-7.33056e-11
6.87954e-10
-5.46987e-11
7.0103e-10
-3.76959e-11
7.09378e-10
-2.20726e-11
7.13405e-10
-7.65642e-12
7.13497e-10
5.67732e-12
7.10095e-10
1.80279e-11
7.03598e-10
2.9415e-11
6.94451e-10
3.98289e-11
6.83155e-10
4.92294e-11
6.70289e-10
5.75411e-11
6.56544e-10
6.46713e-11
6.42786e-10
7.0504e-11
6.30118e-10
7.48951e-11
6.19946e-10
7.76637e-11
6.09472e-10
7.29744e-11
5.80118e-10
3.56526e-11
5.32583e-10
-1.52408e-11
4.77182e-10
-7.04335e-11
4.23341e-10
-1.33534e-10
3.75094e-10
-2.15964e-10
3.33349e-10
-3.13321e-10
2.90419e-10
-4.16152e-10
2.54065e-10
-5.03644e-10
2.32246e-10
-5.85018e-10
2.25106e-10
-6.61708e-10
2.31659e-10
-7.31249e-10
2.51502e-10
-7.92811e-10
2.82948e-10
-8.45591e-10
3.23075e-10
-8.87537e-10
3.68559e-10
-9.16675e-10
4.15877e-10
-9.3202e-10
4.61554e-10
-9.32404e-10
5.02815e-10
-9.18474e-10
5.37879e-10
-8.91973e-10
5.66354e-10
-8.55128e-10
5.89435e-10
-8.10313e-10
6.08521e-10
-7.6408e-10
6.27468e-10
-7.14347e-10
6.50278e-10
-6.67597e-10
6.83314e-10
-6.16653e-10
7.3259e-10
-5.67071e-10
8.09238e-10
-4.97026e-10
9.23207e-10
-4.05779e-10
1.07865e-09
-2.90284e-10
1.27286e-09
-1.49464e-10
1.4916e-09
4.11825e-11
1.70332e-09
2.15638e-10
1.88847e-09
4.17756e-10
2.02698e-09
5.77388e-10
2.11097e-09
7.23169e-10
2.13984e-09
8.34179e-10
2.12266e-09
9.06037e-10
2.07623e-09
9.39616e-10
2.01164e-09
9.54633e-10
1.94245e-09
9.48418e-10
1.87568e-09
9.30857e-10
1.81675e-09
9.06028e-10
1.768e-09
8.78834e-10
1.7298e-09
8.51517e-10
1.70158e-09
8.24357e-10
1.68209e-09
7.97206e-10
1.6708e-09
7.64642e-10
1.66642e-09
7.32698e-10
1.66786e-09
6.9801e-10
1.67522e-09
6.55109e-10
1.68849e-09
5.93951e-10
1.70689e-09
5.32231e-10
1.73104e-09
4.39552e-10
1.75984e-09
3.37478e-10
1.7931e-09
1.86356e-10
1.82787e-09
2.88897e-11
1.85919e-09
-1.37541e-10
1.88339e-09
-3.06256e-10
1.89426e-09
-4.35219e-10
1.89046e-09
-5.1277e-10
1.87241e-09
-5.6925e-10
1.84428e-09
-5.86281e-10
1.81106e-09
-6.0815e-10
1.77844e-09
-6.17289e-10
1.74987e-09
-6.34836e-10
1.72631e-09
-6.65105e-10
1.70486e-09
-6.87414e-10
1.68084e-09
-7.04396e-10
1.64894e-09
-7.08132e-10
1.60339e-09
-6.94509e-10
1.54074e-09
-6.64509e-10
1.4613e-09
-6.23042e-10
1.37031e-09
-5.77889e-10
1.27499e-09
-5.40612e-10
1.18235e-09
-5.17909e-10
1.09886e-09
-5.11817e-10
1.02786e-09
-5.17049e-10
9.70716e-10
-5.3031e-10
9.26313e-10
-5.46927e-10
8.93332e-10
-5.60294e-10
8.72949e-10
-5.59161e-10
8.63989e-10
-5.59809e-10
8.71242e-10
-5.40083e-10
8.9655e-10
-5.19846e-10
9.47251e-10
-4.74669e-10
1.03189e-09
-4.02927e-10
1.15426e-09
-3.0472e-10
1.31473e-09
-1.78399e-10
1.50573e-09
-1.30979e-12
1.70157e-09
1.76032e-10
1.87846e-09
3.72058e-10
2.01955e-09
5.44114e-10
2.11173e-09
7.12396e-10
2.14943e-09
8.26946e-10
2.13763e-09
9.11437e-10
2.09286e-09
9.59859e-10
2.02754e-09
9.77684e-10
1.95539e-09
9.70164e-10
1.88542e-09
9.49741e-10
1.82345e-09
9.22354e-10
1.77255e-09
8.91626e-10
1.73318e-09
8.60892e-10
1.70483e-09
8.29624e-10
1.68695e-09
7.97469e-10
1.67778e-09
7.66612e-10
1.67669e-09
7.33009e-10
1.68291e-09
6.96166e-10
1.69649e-09
6.46111e-10
1.71694e-09
5.94731e-10
1.74332e-09
5.35859e-10
1.77686e-09
4.44504e-10
1.81539e-09
3.55541e-10
1.85829e-09
2.21427e-10
1.90279e-09
7.49849e-11
1.94298e-09
-8.16976e-11
1.97449e-09
-2.47977e-10
1.99098e-09
-3.88972e-10
1.99058e-09
-4.79071e-10
1.97414e-09
-5.38978e-10
1.94715e-09
-5.74524e-10
1.91556e-09
-5.94175e-10
1.88646e-09
-6.10478e-10
1.8635e-09
-6.42883e-10
1.84785e-09
-6.69414e-10
1.83758e-09
-6.99305e-10
1.82805e-09
-7.24587e-10
1.81432e-09
-7.43524e-10
1.79185e-09
-7.49413e-10
1.74934e-09
-7.21098e-10
1.68141e-09
-6.84239e-10
1.58714e-09
-6.68226e-10
1.46114e-09
-6.42716e-10
1.34766e-09
-3.80275e-10
1.24626e-09
-2.89171e-10
1.16036e-09
-2.51637e-10
1.09279e-09
-2.13935e-10
1.04508e-09
-1.92535e-10
1.01976e-09
-1.55876e-10
1.02011e-09
-1.06848e-10
1.03881e-09
-8.27433e-11
1.06061e-09
-1.02221e-10
1.08448e-09
-1.09597e-10
1.10921e-09
-1.0762e-10
1.13374e-09
-1.00569e-10
1.15717e-09
-9.0994e-11
1.17891e-09
-8.08024e-11
1.19858e-09
-7.1058e-11
1.216e-09
-6.22299e-11
1.23116e-09
-5.44181e-11
1.2441e-09
-4.75413e-11
1.25487e-09
-4.14157e-11
1.26352e-09
-3.57727e-11
1.27005e-09
-3.02782e-11
1.27435e-09
-2.45153e-11
1.27617e-09
-1.79173e-11
1.27498e-09
-9.69579e-12
1.26996e-09
1.28481e-12
1.25972e-09
1.67193e-11
1.24221e-09
3.89457e-11
1.2143e-09
7.13962e-11
1.17142e-09
1.19018e-10
1.10693e-09
1.89069e-10
1.01144e-09
2.9211e-10
8.72805e-10
4.42331e-10
6.79589e-10
6.5408e-10
4.33376e-10
9.26537e-10
1.75333e-10
1.19982e-09
5.6736e-12
1.27285e-09
7.25941e-10
-5.83318e-11
-1.60004e-10
-1.21168e-10
-3.85997e-10
-1.50429e-10
-4.98393e-10
-1.47896e-10
-5.29195e-10
-1.2173e-10
-5.13361e-10
-8.084e-11
-4.74586e-10
-3.2563e-11
-4.26829e-10
1.81646e-11
-3.77583e-10
6.81916e-11
-3.30305e-10
1.15548e-10
-2.86337e-10
1.59086e-10
-2.46065e-10
1.98175e-10
-2.09439e-10
2.32515e-10
-1.76204e-10
2.62028e-10
-1.46022e-10
2.86785e-10
-1.18553e-10
3.06957e-10
-9.34776e-11
3.22769e-10
-7.05114e-11
3.34487e-10
-4.94135e-11
3.42403e-10
-2.99883e-11
3.46836e-10
-1.20898e-11
3.48134e-10
4.37956e-12
3.46688e-10
1.94733e-11
3.42919e-10
3.31843e-11
3.373e-10
4.54486e-11
3.3038e-10
5.61493e-11
3.22806e-10
6.51148e-11
3.15356e-10
7.21208e-11
3.08989e-10
7.68717e-11
3.04896e-10
7.89877e-11
3.04543e-10
7.80165e-11
3.0648e-10
7.10379e-11
2.97321e-10
4.48112e-11
2.77666e-10
4.41469e-12
2.54803e-10
-4.75713e-11
2.3459e-10
-1.13321e-10
2.17334e-10
-1.98707e-10
2.02602e-10
-2.98589e-10
1.85823e-10
-3.99372e-10
1.74095e-10
-4.91915e-10
1.73352e-10
-5.84274e-10
1.84077e-10
-6.72432e-10
2.05556e-10
-7.5273e-10
2.37276e-10
-8.24532e-10
2.77192e-10
-8.85508e-10
3.22184e-10
-9.32529e-10
3.68855e-10
-9.63345e-10
4.13813e-10
-9.76978e-10
4.54082e-10
-9.72673e-10
4.87564e-10
-9.51955e-10
5.13237e-10
-9.17646e-10
5.3129e-10
-8.73181e-10
5.43124e-10
-8.22147e-10
5.50228e-10
-7.71184e-10
5.55704e-10
-7.19823e-10
5.62496e-10
-6.74389e-10
5.75343e-10
-6.29501e-10
5.98699e-10
-5.90426e-10
6.41896e-10
-5.40224e-10
7.14956e-10
-4.78838e-10
8.26291e-10
-4.01617e-10
9.82389e-10
-3.05561e-10
1.18545e-09
-1.61876e-10
1.41685e-09
-1.57793e-11
1.65899e-09
1.75616e-10
1.88137e-09
3.54994e-10
2.06768e-09
5.36866e-10
2.20368e-09
6.98185e-10
2.2838e-09
8.25933e-10
2.31051e-09
9.12911e-10
2.29469e-09
9.70449e-10
2.24982e-09
9.93283e-10
2.18852e-09
9.92152e-10
2.12266e-09
9.71885e-10
2.0595e-09
9.41999e-10
2.00387e-09
9.07147e-10
1.95825e-09
8.69986e-10
1.92284e-09
8.32611e-10
1.89773e-09
7.89762e-10
1.88178e-09
7.48644e-10
1.8737e-09
7.06088e-10
1.87338e-09
6.55422e-10
1.88001e-09
5.87311e-10
1.89261e-09
5.19632e-10
1.91077e-09
4.21391e-10
1.93279e-09
3.15457e-10
1.95671e-09
1.62442e-10
1.9787e-09
6.89801e-12
1.99283e-09
-1.51673e-10
1.99557e-09
-3.08993e-10
1.98254e-09
-4.22192e-10
1.95558e-09
-4.85806e-10
1.91773e-09
-5.3141e-10
1.87557e-09
-5.44124e-10
1.83439e-09
-5.66968e-10
1.79892e-09
-5.81817e-10
1.76976e-09
-6.05676e-10
1.74423e-09
-6.39566e-10
1.71661e-09
-6.59795e-10
1.68062e-09
-6.68403e-10
1.62957e-09
-6.57079e-10
1.55967e-09
-6.24608e-10
1.47222e-09
-5.77058e-10
1.37175e-09
-5.22576e-10
1.2669e-09
-4.73036e-10
1.16559e-09
-4.39307e-10
1.07439e-09
-4.26715e-10
9.97023e-10
-4.3446e-10
9.339e-10
-4.53928e-10
8.83658e-10
-4.80065e-10
8.43361e-10
-5.06625e-10
8.10898e-10
-5.27827e-10
7.86909e-10
-5.35171e-10
7.7001e-10
-5.42908e-10
7.64206e-10
-5.34279e-10
7.7082e-10
-5.2646e-10
7.96525e-10
-5.00375e-10
8.49873e-10
-4.56276e-10
9.37354e-10
-3.92201e-10
1.06504e-09
-3.06085e-10
1.23706e-09
-1.73331e-10
1.44062e-09
-2.75313e-11
1.65954e-09
1.53139e-10
1.86906e-09
3.34595e-10
2.04886e-09
5.326e-10
2.18388e-09
6.91921e-10
2.26653e-09
8.28787e-10
2.29716e-09
9.29232e-10
2.28451e-09
9.90331e-10
2.24188e-09
1.0128e-09
2.18229e-09
1.00933e-09
2.11777e-09
9.86876e-10
2.05675e-09
9.52646e-10
2.00397e-09
9.1367e-10
1.96169e-09
8.71905e-10
1.931e-09
8.28159e-10
1.91071e-09
7.86907e-10
1.90043e-09
7.43285e-10
1.89926e-09
6.97336e-10
1.90662e-09
6.38745e-10
1.92188e-09
5.7947e-10
1.9435e-09
5.14242e-10
1.97155e-09
4.1645e-10
2.00335e-09
3.23749e-10
2.03626e-09
1.88515e-10
2.06655e-09
4.46918e-11
2.08736e-09
-1.02504e-10
2.09442e-09
-2.55046e-10
2.08359e-09
-3.7814e-10
2.05712e-09
-4.52612e-10
2.01949e-09
-5.01347e-10
1.97884e-09
-5.3388e-10
1.94172e-09
-5.57062e-10
1.91353e-09
-5.82273e-10
1.89405e-09
-6.23383e-10
1.88038e-09
-6.55717e-10
1.86686e-09
-6.85747e-10
1.84609e-09
-7.03782e-10
1.81165e-09
-7.09071e-10
1.75854e-09
-6.96315e-10
1.67797e-09
-6.40562e-10
1.57019e-09
-5.76527e-10
1.43936e-09
-5.37449e-10
1.29075e-09
-4.9414e-10
1.17238e-09
-2.61908e-10
1.07359e-09
-1.90352e-10
9.90869e-10
-1.68887e-10
9.24016e-10
-1.4706e-10
8.72504e-10
-1.41013e-10
8.38589e-10
-1.2196e-10
8.25474e-10
-9.3735e-11
8.27651e-10
-8.49224e-11
8.32753e-10
-1.07324e-10
8.40724e-10
-1.17568e-10
8.51076e-10
-1.17973e-10
8.63143e-10
-1.12636e-10
8.76026e-10
-1.03878e-10
8.88969e-10
-9.37454e-11
9.0133e-10
-8.3418e-11
9.12622e-10
-7.35228e-11
9.22517e-10
-6.43128e-11
9.3079e-10
-5.58138e-11
9.37278e-10
-4.7904e-11
9.41849e-10
-4.03439e-11
9.44354e-10
-3.27829e-11
9.44567e-10
-2.4728e-11
9.42119e-10
-1.54696e-11
9.36402e-10
-3.97886e-12
9.26437e-10
1.12495e-11
9.10762e-10
3.23945e-11
8.87172e-10
6.25356e-11
8.52553e-10
1.06015e-10
8.02616e-10
1.68955e-10
7.3165e-10
2.60036e-10
6.3259e-10
3.9117e-10
4.9854e-10
5.76381e-10
3.28482e-10
8.24138e-10
1.40391e-10
1.11463e-09
-1.22369e-11
1.35245e-09
-5.43158e-11
1.31493e-09
6.71625e-10
-4.56068e-11
-1.14397e-10
-1.10668e-10
-3.20937e-10
-1.60069e-10
-4.48991e-10
-1.85891e-10
-5.03373e-10
-1.91374e-10
-5.07878e-10
-1.81946e-10
-4.84013e-10
-1.62249e-10
-4.46526e-10
-1.36542e-10
-4.0329e-10
-1.08097e-10
-3.58751e-10
-7.90914e-11
-3.15342e-10
-5.09624e-11
-2.74194e-10
-2.467e-11
-2.35731e-10
-8.29238e-13
-2.00045e-10
2.01995e-11
-1.67051e-10
3.82393e-11
-1.36593e-10
5.32429e-11
-1.08481e-10
6.52553e-11
-8.25239e-11
7.43922e-11
-5.85503e-11
8.08259e-11
-3.6422e-11
8.47803e-11
-1.60442e-11
8.65305e-11
2.62935e-12
8.64078e-11
1.95961e-11
8.47994e-11
3.47926e-11
8.21593e-11
4.80887e-11
7.9024e-11
5.92846e-11
7.60318e-11
6.81071e-11
7.395e-11
7.42026e-11
7.37023e-11
7.71194e-11
7.63995e-11
7.62906e-11
8.33538e-11
7.10621e-11
9.41056e-11
6.02861e-11
1.0033e-10
3.85867e-11
1.01968e-10
2.77662e-12
1.03057e-10
-4.86605e-11
1.06546e-10
-1.16809e-10
1.11017e-10
-2.03179e-10
1.15933e-10
-3.03505e-10
1.19179e-10
-4.02618e-10
1.26676e-10
-4.99411e-10
1.42668e-10
-6.00265e-10
1.67632e-10
-6.97395e-10
2.00757e-10
-7.85854e-10
2.41146e-10
-8.64923e-10
2.864e-10
-9.30763e-10
3.3329e-10
-9.7942e-10
3.78519e-10
-1.00858e-09
4.19081e-10
-1.01754e-09
4.52651e-10
-1.00624e-09
4.77894e-10
-9.77197e-10
4.94516e-10
-9.34269e-10
5.0321e-10
-8.81875e-10
5.05544e-10
-8.24481e-10
5.03021e-10
-7.6866e-10
4.98159e-10
-7.14961e-10
4.93119e-10
-6.69349e-10
4.91328e-10
-6.2771e-10
4.95835e-10
-5.94933e-10
5.13609e-10
-5.57997e-10
5.52587e-10
-5.17816e-10
6.20924e-10
-4.69952e-10
7.27291e-10
-4.11929e-10
8.81986e-10
-3.16574e-10
1.07973e-09
-2.13526e-10
1.31722e-09
-6.18814e-11
1.57125e-09
1.00968e-10
1.8223e-09
2.85816e-10
2.04608e-09
4.74413e-10
2.2266e-09
6.45422e-10
2.3522e-09
7.87316e-10
2.42358e-09
8.99063e-10
2.44698e-09
9.69876e-10
2.43296e-09
1.00617e-09
2.39287e-09
1.01197e-09
2.3383e-09
9.96576e-10
2.27953e-09
9.65922e-10
2.2241e-09
9.2541e-10
2.17579e-09
8.80924e-10
2.13697e-09
8.28584e-10
2.10795e-09
7.77667e-10
2.08794e-09
7.26089e-10
2.07702e-09
6.6634e-10
2.07367e-09
5.90653e-10
2.07673e-09
5.16581e-10
2.08461e-09
4.13505e-10
2.09499e-09
3.05083e-10
2.10423e-09
1.53202e-10
2.10815e-09
2.97743e-12
2.10073e-09
-1.44255e-10
2.07961e-09
-2.87877e-10
2.04298e-09
-3.85555e-10
1.99567e-09
-4.38505e-10
1.9427e-09
-4.78444e-10
1.89154e-09
-4.92962e-10
1.84631e-09
-5.21738e-10
1.80928e-09
-5.44794e-10
1.77757e-09
-5.7396e-10
1.74521e-09
-6.07203e-10
1.70454e-09
-6.19128e-10
1.64862e-09
-6.12475e-10
1.57308e-09
-5.81538e-10
1.47869e-09
-5.3022e-10
1.37064e-09
-4.69007e-10
1.25682e-09
-4.08747e-10
1.14723e-09
-3.63451e-10
1.04909e-09
-3.41169e-10
9.66482e-10
-3.44107e-10
8.99738e-10
-3.67722e-10
8.46457e-10
-4.00652e-10
8.03384e-10
-4.36993e-10
7.66896e-10
-4.70135e-10
7.34903e-10
-4.95831e-10
7.07977e-10
-5.08243e-10
6.84989e-10
-5.19918e-10
6.69316e-10
-5.18605e-10
6.61931e-10
-5.19074e-10
6.68338e-10
-5.06783e-10
6.95653e-10
-4.83591e-10
7.50255e-10
-4.46803e-10
8.39414e-10
-3.95244e-10
9.72072e-10
-3.05989e-10
1.14575e-09
-2.01205e-10
1.35611e-09
-5.72262e-11
1.5863e-09
1.04407e-10
1.81868e-09
3.00211e-10
2.02837e-09
4.82234e-10
2.19899e-09
6.58163e-10
2.31957e-09
8.08662e-10
2.38852e-09
9.21381e-10
2.41139e-09
9.89932e-10
2.39964e-09
1.02108e-09
2.36272e-09
1.0238e-09
2.31265e-09
1.00272e-09
2.26003e-09
9.66286e-10
2.21174e-09
9.20194e-10
2.17205e-09
8.67847e-10
2.14186e-09
8.17099e-10
2.12198e-09
7.63167e-10
2.11196e-09
7.07357e-10
2.11089e-09
6.39813e-10
2.11808e-09
5.72281e-10
2.13136e-09
5.00961e-10
2.1495e-09
3.9831e-10
2.16934e-09
3.03912e-10
2.1864e-09
1.71452e-10
2.1966e-09
3.44947e-11
2.19323e-09
-9.91334e-11
2.17364e-09
-2.3546e-10
2.13699e-09
-3.4149e-10
2.0896e-09
-4.05226e-10
2.03844e-09
-4.50195e-10
1.99225e-09
-4.87701e-10
1.95572e-09
-5.20545e-10
1.93043e-09
-5.56983e-10
1.91151e-09
-6.04458e-10
1.89217e-09
-6.36349e-10
1.86383e-09
-6.57374e-10
1.81858e-09
-6.58485e-10
1.75168e-09
-6.42139e-10
1.66161e-09
-6.06231e-10
1.54609e-09
-5.2505e-10
1.41055e-09
-4.41024e-10
1.26345e-09
-3.90409e-10
1.11384e-09
-3.44572e-10
1.0034e-09
-1.51494e-10
9.14263e-10
-1.01211e-10
8.39063e-10
-9.36685e-11
7.7645e-10
-8.44283e-11
7.25253e-10
-8.98041e-11
6.8739e-10
-8.40931e-11
6.65345e-10
-7.16901e-11
6.54827e-10
-7.44048e-11
6.46572e-10
-9.90705e-11
6.41174e-10
-1.12171e-10
6.38799e-10
-1.15598e-10
6.39024e-10
-1.12861e-10
6.41243e-10
-1.06097e-10
6.44711e-10
-9.72133e-11
6.48714e-10
-8.74204e-11
6.52628e-10
-7.74373e-11
6.5595e-10
-6.76344e-11
6.58276e-10
-5.81396e-11
6.59276e-10
-4.89041e-11
6.5866e-10
-3.97278e-11
6.56129e-10
-3.02524e-11
6.51316e-10
-1.99151e-11
6.43706e-10
-7.85926e-12
6.32531e-10
7.19655e-12
6.16644e-10
2.71358e-11
5.94393e-10
5.46461e-11
5.63475e-10
9.34529e-11
5.20866e-10
1.48625e-10
4.62821e-10
2.26999e-10
3.85157e-10