/*--------------------------------*- C++ -*----------------------------------*\
| =========                 |                                                 |
| \\      /  F ield         | OpenFOAM: The Open Source CFD Toolbox           |
|  \\    /   O peration     | Version:  2506                                  |
|   \\  /    A nd           | Website:  www.openfoam.com                      |
|    \\/     M anipulation  |                                                 |
\*---------------------------------------------------------------------------*/
FoamFile
{
    version     2.0;
    format      ascii;
    arch        "LSB;label=32;scalar=64";
    class       surfaceScalarField;
    location    "4";
    object      phi;
}
// * * * * * * * * * * * * * * * * * * * * * * * * * * * * * * * * * * * * * //

dimensions      [0 3 -1 0 0 0 0];

oriented        oriented;

internalField   nonuniform List<scalar> 
7780
(
2.08107e-09
4.18594e-10
1.64721e-09
4.3398e-10
1.34948e-09
2.97597e-10
1.16529e-09
1.84105e-10
1.05516e-09
1.10121e-10
9.87027e-10
6.81158e-11
9.41744e-10
4.52675e-11
9.09234e-10
3.25039e-11
8.84251e-10
2.49803e-11
8.64027e-10
2.02225e-11
8.47061e-10
1.6966e-11
8.32479e-10
1.45819e-11
8.19713e-10
1.27649e-11
8.08356e-10
1.13567e-11
7.9809e-10
1.02656e-11
7.88653e-10
9.43557e-12
7.7982e-10
8.83155e-12
7.71388e-10
8.43066e-12
7.63163e-10
8.22329e-12
7.54962e-10
8.19925e-12
7.46608e-10
8.35269e-12
7.37923e-10
8.68316e-12
7.28726e-10
9.19481e-12
7.18826e-10
9.89763e-12
7.08015e-10
1.08088e-11
6.96057e-10
1.19563e-11
6.82667e-10
1.33881e-11
6.67498e-10
1.51674e-11
6.50098e-10
1.73987e-11
6.29845e-10
2.0251e-11
6.05823e-10
2.40184e-11
5.7655e-10
2.92675e-11
5.39632e-10
3.69077e-11
4.84985e-10
5.46315e-11
4.35618e-10
4.93505e-11
4.14256e-10
2.13526e-11
4.0876e-10
5.5025e-12
4.09882e-10
-1.09712e-12
4.18949e-10
-9.02589e-12
4.39878e-10
-2.08859e-11
4.8552e-10
-4.56119e-11
5.40588e-10
-5.50648e-11
5.92092e-10
-5.15248e-11
6.41336e-10
-4.92742e-11
6.86064e-10
-4.47569e-11
7.27709e-10
-4.16684e-11
7.68103e-10
-4.04167e-11
8.02037e-10
-3.3954e-11
8.34651e-10
-3.26237e-11
8.63622e-10
-2.89767e-11
8.87377e-10
-2.37581e-11
9.09696e-10
-2.23118e-11
9.22964e-10
-1.32484e-11
9.3494e-10
-1.19454e-11
9.36271e-10
-1.2935e-12
9.3296e-10
3.34745e-12
9.21028e-10
1.19637e-11
8.98981e-10
2.20721e-11
8.75982e-10
2.3025e-11
8.37705e-10
3.83097e-11
8.01284e-10
3.64724e-11
7.59497e-10
4.18624e-11
7.16418e-10
4.31788e-11
6.76163e-10
4.03672e-11
6.34197e-10
4.20948e-11
5.98415e-10
3.59048e-11
5.62425e-10
3.61026e-11
5.32247e-10
3.0284e-11
5.03595e-10
2.8749e-11
4.78388e-10
2.52891e-11
4.56499e-10
2.19579e-11
4.35303e-10
2.1256e-11
4.17325e-10
1.80321e-11
4.00406e-10
1.69735e-11
3.84474e-10
1.59924e-11
3.70276e-10
1.42683e-11
3.57059e-10
1.33039e-11
3.44637e-10
1.25284e-11
3.33583e-10
1.11768e-11
3.23699e-10
1.00226e-11
3.14848e-10
8.99992e-12
3.07157e-10
7.84599e-12
3.0052e-10
6.79031e-12
2.9482e-10
5.84762e-12
2.90075e-10
4.8842e-12
2.85855e-10
4.35102e-12
2.81978e-10
3.99804e-12
2.78747e-10
3.34184e-12
2.75513e-10
3.33352e-12
2.72091e-10
3.50887e-12
2.69075e-10
3.08951e-12
2.65763e-10
3.37154e-12
2.62188e-10
3.62411e-12
2.59003e-10
3.22303e-12
2.55231e-10
3.80159e-12
2.52215e-10
3.03796e-12
2.4876e-10
3.47199e-12
2.46229e-10
2.54408e-12
2.43444e-10
2.79336e-12
2.42038e-10
1.41282e-12
2.40654e-10
1.38947e-12
2.40549e-10
1.08338e-13
2.4119e-10
-6.38242e-13
2.42509e-10
-1.31652e-12
2.45443e-10
-2.93094e-12
2.49061e-10
-3.61396e-12
2.54519e-10
-5.4533e-12
2.61025e-10
-6.49842e-12
2.69185e-10
-8.15008e-12
2.78822e-10
-9.62328e-12
2.90133e-10
-1.12923e-11
3.02966e-10
-1.28097e-11
3.17771e-10
-1.47741e-11
3.33591e-10
-1.57796e-11
3.51836e-10
-1.8196e-11
3.70943e-10
-1.90484e-11
3.91286e-10
-2.02744e-11
4.12845e-10
-2.14783e-11
4.34717e-10
-2.17829e-11
4.57106e-10
-2.22941e-11
4.79881e-10
-2.26757e-11
5.01924e-10
-2.19422e-11
5.23062e-10
-2.10372e-11
5.43685e-10
-2.05204e-11
5.63053e-10
-1.92643e-11
5.81255e-10
-1.80918e-11
5.98291e-10
-1.69189e-11
6.13986e-10
-1.55692e-11
6.2887e-10
-1.47507e-11
6.43702e-10
-1.46985e-11
6.5692e-10
-1.30924e-11
6.70249e-10
-1.32265e-11
6.85104e-10
-1.47943e-11
6.98589e-10
-1.34816e-11
7.13251e-10
-1.47272e-11
7.31128e-10
-1.80173e-11
7.46109e-10
-1.51899e-11
7.65102e-10
-1.92571e-11
7.82834e-10
-1.80225e-11
8.01388e-10
-1.88415e-11
8.19116e-10
-1.79783e-11
8.34733e-10
-1.58019e-11
8.46699e-10
-1.20673e-11
8.55748e-10
-9.06518e-12
8.5486e-10
9.44713e-13
8.53393e-10
1.57454e-12
8.35854e-10
1.76736e-11
8.15627e-10
2.03642e-11
7.87066e-10
2.869e-11
7.51322e-10
3.58613e-11
7.15775e-10
3.56567e-11
6.71682e-10
4.42021e-11
6.32126e-10
3.96647e-11
5.87282e-10
4.49505e-11
5.4725e-10
4.01165e-11
5.0307e-10
4.42389e-11
4.61821e-10
4.12765e-11
4.17656e-10
4.41518e-11
3.74253e-10
4.33612e-11
3.30982e-10
4.32374e-11
3.28452e-10
2.50658e-12
3.26525e-10
1.93123e-12
3.25699e-10
8.4576e-13
3.27288e-10
-1.57071e-12
3.38858e-10
-1.15677e-11
3.58995e-10
-2.01511e-11
3.96825e-10
-3.78584e-11
4.36493e-10
-3.96945e-11
4.73586e-10
-3.71138e-11
5.10282e-10
-3.67098e-11
5.46252e-10
-3.59772e-11
5.8042e-10
-3.41702e-11
6.11639e-10
-3.12191e-11
6.39016e-10
-2.73737e-11
6.62013e-10
-2.29936e-11
6.80459e-10
-1.84436e-11
6.94492e-10
-1.403e-11
7.04496e-10
-1.00039e-11
7.11052e-10
-6.55554e-12
7.1485e-10
-3.79962e-12
7.16407e-10
-1.55853e-12
7.16341e-10
6.28853e-14
7.15297e-10
1.04165e-12
7.13817e-10
1.47667e-12
7.12352e-10
1.46169e-12
7.11252e-10
1.09611e-12
7.10765e-10
4.84084e-13
7.11028e-10
-2.65713e-13
7.12138e-10
-1.11319e-12
7.13926e-10
-1.79002e-12
7.16338e-10
-2.413e-12
7.19221e-10
-2.88473e-12
7.22384e-10
-3.16398e-12
7.25616e-10
-3.23335e-12
7.28705e-10
-3.08998e-12
7.31432e-10
-2.72766e-12
7.33551e-10
-2.11994e-12
7.34741e-10
-1.19102e-12
7.34374e-10
3.64944e-13
3.62188e-12
2.63514e-09
2.83524e-10
2.58942e-09
4.79803e-10
2.44512e-09
4.41956e-10
2.28129e-09
3.47981e-10
2.135e-09
2.56406e-10
2.0182e-09
1.84898e-10
1.92707e-09
1.36382e-10
1.8544e-09
1.0517e-10
1.79483e-09
8.45566e-11
1.74486e-09
7.01931e-11
1.70217e-09
5.96551e-11
1.66517e-09
5.15823e-11
1.63271e-09
4.5224e-11
1.60391e-09
4.01596e-11
1.57804e-09
3.6132e-11
1.5545e-09
3.29751e-11
1.53275e-09
3.05794e-11
1.51232e-09
2.88685e-11
1.49274e-09
2.77959e-11
1.47362e-09
2.73243e-11
1.45454e-09
2.74278e-11
1.43513e-09
2.80929e-11
1.41501e-09
2.93186e-11
1.39379e-09
3.11181e-11
1.37107e-09
3.35232e-11
1.34644e-09
3.65903e-11
1.31941e-09
4.04148e-11
1.28945e-09
4.51317e-11
1.2559e-09
5.095e-11
1.21796e-09
5.81891e-11
1.17463e-09
6.73504e-11
1.12463e-09
7.92633e-11
1.0661e-09
9.54285e-11
9.94185e-10
1.26538e-10
9.29382e-10
1.14144e-10
8.96282e-10
5.4442e-11
8.88268e-10
1.35085e-11
8.99285e-10
-1.21131e-11
9.29839e-10
-3.9559e-11
9.84171e-10
-7.51686e-11
1.07076e-09
-1.32133e-10
1.17138e-09
-1.55628e-10
1.27246e-09
-1.5258e-10
1.37094e-09
-1.47769e-10
1.46283e-09
-1.36684e-10
1.54884e-09
-1.27729e-10
1.63019e-09
-1.21825e-10
1.70205e-09
-1.0588e-10
1.76906e-09
-9.97057e-11
1.82855e-09
-8.8529e-11
1.8794e-09
-7.46642e-11
1.92353e-09
-6.64822e-11
1.95554e-09
-4.52998e-11
1.97954e-09
-3.59687e-11
1.98864e-09
-1.04044e-11
1.98593e-09
6.06242e-12
1.96942e-09
2.84803e-11
1.93655e-09
5.49522e-11
1.89374e-09
6.58533e-11
1.8314e-09
1.0068e-10
1.76283e-09
1.05084e-10
1.68435e-09
1.20399e-10
1.60055e-09
1.27052e-10
1.5159e-09
1.25074e-10
1.42874e-09
1.29297e-10
1.34647e-09
1.1821e-10
1.26516e-09
1.17406e-10
1.19022e-09
1.05198e-10
1.11886e-09
1.00046e-10
1.05299e-09
9.10827e-11
9.92158e-10
8.27095e-11
9.3419e-10
7.91429e-11
8.80846e-10
7.13065e-11
8.3044e-10
6.7326e-11
7.82546e-10
6.38558e-11
7.37653e-10
5.91516e-11
6.95163e-10
5.58067e-11
6.54886e-10
5.28356e-11
6.17228e-10
4.88796e-11
5.82193e-10
4.51124e-11
5.497e-10
4.15512e-11
5.19859e-10
3.77445e-11
4.9257e-10
3.41313e-11
4.67688e-10
3.07744e-11
4.4506e-10
2.75489e-11
4.24225e-10
2.52172e-11
4.0482e-10
2.34297e-11
3.86702e-10
2.14843e-11
3.69333e-10
2.07244e-11
3.52479e-10
2.03808e-11
3.36101e-10
1.94816e-11
3.19998e-10
1.94853e-11
3.04205e-10
1.94254e-11
2.88946e-10
1.8489e-11
2.74315e-10
1.84374e-11
2.60696e-10
1.66609e-11
2.48395e-10
1.57754e-11
2.37824e-10
1.31187e-11
2.29455e-10
1.11651e-11
2.23646e-10
7.22496e-12
2.20915e-10
4.12419e-12
2.21767e-10
-7.40152e-13
2.25942e-10
-4.80966e-12
2.34323e-10
-9.69358e-12
2.47087e-10
-1.56915e-11
2.64213e-10
-2.07356e-11
2.8608e-10
-2.73174e-11
3.12484e-10
-3.28987e-11
3.43561e-10
-3.92232e-11
3.79156e-10
-4.52133e-11
4.19149e-10
-5.12799e-11
4.6324e-10
-5.68944e-11
5.11358e-10
-6.28843e-11
5.62429e-10
-6.68413e-11
6.17021e-10
-7.27765e-11
6.73366e-10
-7.53788e-11
7.31199e-10
-7.80914e-11
7.90086e-10
-8.03472e-11
8.48547e-10
-8.02257e-11
9.06252e-10
-7.99761e-11
9.62807e-10
-7.92034e-11
1.01715e-09
-7.62563e-11
1.06893e-09
-7.27934e-11
1.11824e-09
-6.98069e-11
1.16452e-09
-6.55282e-11
1.20791e-09
-6.14794e-11
1.24857e-09
-5.75808e-11
1.28667e-09
-5.36821e-11
1.32298e-09
-5.10663e-11
1.35821e-09
-4.99349e-11
1.39168e-09
-4.65637e-11
1.42507e-09
-4.66101e-11
1.45971e-09
-4.94239e-11
1.4935e-09
-4.72546e-11
1.52907e-09
-5.02974e-11
1.56712e-09
-5.60967e-11
1.60369e-09
-5.18196e-11
1.6431e-09
-5.87706e-11
1.68142e-09
-5.64787e-11
1.71908e-09
-5.66634e-11
1.75433e-09
-5.34102e-11
1.78466e-09
-4.62888e-11
1.80837e-09
-3.58966e-11
1.82392e-09
-2.46807e-11
1.82549e-09
-6.40058e-13
1.81815e-09
8.96417e-12
1.79153e-09
4.43788e-11
1.75367e-09
5.83246e-11
1.7015e-09
8.09651e-11
1.63543e-09
1.02023e-10
1.56239e-09
1.08779e-10
1.47697e-09
1.29697e-10
1.39043e-09
1.26252e-10
1.29672e-09
1.38698e-10
1.20498e-09
1.31864e-10
1.10796e-09
1.4125e-10
1.01256e-09
1.36656e-10
9.15669e-10
1.41002e-10
8.23055e-10
1.35937e-10
7.36621e-10
1.2966e-10
6.95583e-10
4.35583e-11
6.67968e-10
2.95684e-11
6.5062e-10
1.82112e-11
6.45528e-10
3.53152e-12
6.5914e-10
-2.51791e-11
6.93785e-10
-5.48049e-11
7.54001e-10
-9.8091e-11
8.25696e-10
-1.11408e-10
9.01182e-10
-1.12618e-10
9.7838e-10
-1.13924e-10
1.05448e-09
-1.12091e-10
1.12656e-09
-1.06255e-10
1.19208e-09
-9.67451e-11
1.24921e-09
-8.45071e-11
1.2969e-09
-7.06818e-11
1.33484e-09
-5.63768e-11
1.36335e-09
-4.25393e-11
1.38327e-09
-2.99204e-11
1.39575e-09
-1.90228e-11
1.40206e-09
-1.01145e-11
1.40363e-09
-3.12048e-12
1.40212e-09
1.57391e-12
1.39873e-09
4.43504e-12
1.39457e-09
5.6358e-12
1.39059e-09
5.44723e-12
1.38748e-09
4.20591e-12
1.38567e-09
2.29469e-12
1.3854e-09
3.41208e-15
1.38671e-09
-2.42526e-12
1.38944e-09
-4.51895e-12
1.3932e-09
-6.17924e-12
1.39758e-09
-7.25653e-12
1.40209e-09
-7.67722e-12
1.40628e-09
-7.42764e-12
1.40973e-09
-6.53883e-12
1.41207e-09
-5.06922e-12
1.41297e-09
-3.02001e-12
1.41213e-09
-3.5592e-13
1.40929e-09
3.20504e-12
8.48126e-12
2.6117e-09
1.7196e-10
2.71283e-09
3.78677e-10
2.73105e-09
4.2386e-10
2.68668e-09
3.92499e-10
2.61102e-09
3.32118e-10
2.52405e-09
2.71867e-10
2.43971e-09
2.20696e-10
2.36335e-09
1.81518e-10
2.29564e-09
1.52269e-10
2.23588e-09
1.29959e-10
2.18306e-09
1.12479e-10
2.1362e-09
9.84399e-11
2.09442e-09
8.70031e-11
2.05692e-09
7.76625e-11
2.02297e-09
7.00843e-11
1.99191e-09
6.40375e-11
1.96312e-09
5.93602e-11
1.93606e-09
5.59346e-11
1.91018e-09
5.36765e-11
1.88498e-09
5.25215e-11
1.85998e-09
5.24231e-11
1.83472e-09
5.33522e-11
1.80874e-09
5.52987e-11
1.78159e-09
5.8274e-11
1.75279e-09
6.23168e-11
1.72188e-09
6.75015e-11
1.68835e-09
7.39488e-11
1.65164e-09
8.18397e-11
1.61115e-09
9.14397e-11
1.56621e-09
1.03134e-10
1.51607e-09
1.17485e-10
1.46001e-09
1.35325e-10
1.3974e-09
1.58027e-10
1.3266e-09
1.97331e-10
1.26366e-09
1.77076e-10
1.23016e-09
8.79342e-11
1.22755e-09
1.60989e-11
1.25296e-09
-3.75454e-11
1.30571e-09
-9.23246e-11
1.38579e-09
-1.55227e-10
1.49361e-09
-2.39908e-10
1.61344e-09
-2.75392e-10
1.73525e-09
-2.74323e-10
1.8536e-09
-2.66078e-10
1.96436e-09
-2.47418e-10
2.06744e-09
-2.30813e-10
2.16329e-09
-2.17679e-10
2.24913e-09
-1.91729e-10
2.32759e-09
-1.78179e-10
2.39701e-09
-1.57963e-10
2.45642e-09
-1.34092e-10
2.50654e-09
-1.16622e-10
2.54463e-09
-8.34035e-11
2.5719e-09
-6.32465e-11
2.58509e-09
-2.36057e-11
2.58493e-09
6.2166e-12
2.56998e-09
4.34349e-11
2.53875e-09
8.61893e-11
2.49449e-09
1.10129e-10
2.43215e-09
1.63037e-10
2.35885e-09
1.78413e-10
2.27349e-09
2.0579e-10
2.17959e-09
2.20994e-10
2.08034e-09
2.2436e-10
1.97667e-09
2.32995e-10
1.8735e-09
2.2139e-10
1.77012e-09
2.20783e-10
1.67037e-09
2.04926e-10
1.57362e-09
1.96748e-10
1.48114e-09
1.8351e-10
1.39336e-09
1.70422e-10
1.30893e-09
1.6351e-10
1.22895e-09
1.51241e-10
1.15245e-09
1.43801e-10
1.07901e-09
1.37278e-10
1.0089e-09
1.29277e-10
9.41747e-10
1.22985e-10
8.77505e-10
1.17118e-10
8.16439e-10
1.09997e-10
7.58748e-10
1.02858e-10
7.04499e-10
9.5852e-11
6.53901e-10
8.83881e-11
6.06962e-10
8.11056e-11
5.63626e-10
7.41328e-11
5.23758e-10
6.74283e-11
4.86985e-10
6.19941e-11
4.52878e-10
5.75358e-11
4.2111e-10
5.32505e-11
3.91161e-10
5.06695e-11
3.62705e-10
4.88313e-11
3.35523e-10
4.66577e-11
3.09496e-10
4.55078e-11
2.8461e-10
4.43064e-11
2.61119e-10
4.19759e-11
2.39234e-10
4.03186e-11
2.19468e-10
3.64248e-11
2.02242e-10
3.30003e-11
1.88232e-10
2.71284e-11
1.77925e-10
2.14724e-11
1.72149e-10
1.30022e-11
1.71381e-10
4.89501e-12
1.76149e-10
-5.50601e-12
1.87454e-10
-1.61118e-11
2.05363e-10
-2.75989e-11
2.30357e-10
-4.06837e-11
2.62422e-10
-5.27981e-11
3.01948e-10
-6.68422e-11
3.48613e-10
-7.95631e-11
4.02308e-10
-9.29187e-11
4.62691e-10
-1.05596e-10
5.29232e-10
-1.17821e-10
6.01258e-10
-1.28922e-10
6.78103e-10
-1.39731e-10
7.58522e-10
-1.47262e-10
8.42173e-10
-1.56429e-10
9.27305e-10
-1.60511e-10
1.01313e-09
-1.63915e-10
1.09882e-09
-1.66038e-10
1.18288e-09
-1.64279e-10
1.26456e-09
-1.61654e-10
1.34336e-09
-1.57986e-10
1.41831e-09
-1.51185e-10
1.48914e-09
-1.436e-10
1.55582e-09
-1.36463e-10
1.6181e-09
-1.27781e-10
1.67622e-09
-1.19583e-10
1.73049e-09
-1.11835e-10
1.78133e-09
-1.04512e-10
1.82948e-09
-9.9211e-11
1.87558e-09
-9.60256e-11
1.91973e-09
-9.06878e-11
1.96306e-09
-8.9893e-11
2.00666e-09
-9.29434e-11
2.04936e-09
-8.98512e-11
2.09302e-09
-9.38453e-11
2.13737e-09
-1.00317e-10
2.18067e-09
-9.50066e-11
2.22442e-09
-1.02432e-10
2.26646e-09
-9.84838e-11
2.30595e-09
-9.61609e-11
2.34162e-09
-8.91353e-11
2.37077e-09
-7.55352e-11
2.39213e-09
-5.73626e-11
2.40319e-09
-3.58457e-11
2.40167e-09
8.05394e-13
2.38748e-09
2.31078e-11
2.35569e-09
7.61692e-11
2.30964e-09
1.04397e-10
2.24825e-09
1.42398e-10
2.17115e-09
1.79185e-10
2.08305e-09
1.9693e-10
1.98103e-09
2.31765e-10
1.87266e-09
2.34649e-10
1.7554e-09
2.55962e-10
1.63547e-09
2.51799e-10
1.50955e-09
2.67142e-10
1.38292e-09
2.63238e-10
1.2555e-09
2.68384e-10
1.13477e-09
2.56645e-10
1.02146e-09
2.42964e-10
9.448e-10
1.20244e-10
8.9043e-10
8.39663e-11
8.56142e-10
5.25182e-11
8.4403e-10
1.56532e-11
8.60472e-10
-4.16218e-11
9.06267e-10
-1.00611e-10
9.82175e-10
-1.74017e-10
1.07379e-09
-2.03041e-10
1.17145e-09
-2.1031e-10
1.27063e-09
-2.13118e-10
1.36718e-09
-2.08668e-10
1.45754e-09
-1.96625e-10
1.53886e-09
-1.78072e-10
1.60919e-09
-1.54843e-10
1.66749e-09
-1.28983e-10
1.71356e-09
-1.02441e-10
1.74792e-09
-7.68885e-11
1.77164e-09
-5.36363e-11
1.78621e-09
-3.35875e-11
1.79336e-09
-1.72517e-11
1.79504e-09
-4.80166e-12
1.79288e-09
3.73908e-12
1.78857e-09
8.74931e-12
1.78354e-09
1.06714e-11
1.77893e-09
1.00654e-11
1.77556e-09
7.57057e-12
1.77401e-09
3.85515e-12
1.77443e-09
-4.22216e-13
1.7767e-09
-4.69341e-12
1.78057e-09
-8.3867e-12
1.78551e-09
-1.11281e-11
1.79094e-09
-1.26873e-11
1.79622e-09
-1.29582e-11
1.80075e-09
-1.19557e-11
1.80401e-09
-9.79926e-12
1.8056e-09
-6.66212e-12
1.80528e-09
-2.70668e-12
1.80297e-09
1.95667e-12
1.79884e-09
7.32926e-12
1.39595e-11
2.56396e-09
1.07931e-10
2.67025e-09
2.72465e-10
2.74684e-09
3.47314e-10
2.77983e-09
3.5961e-10
2.77355e-09
3.38427e-10
2.74364e-09
3.01786e-10
2.69991e-09
2.64417e-10
2.65036e-09
2.3104e-10
2.60045e-09
2.02165e-10
2.55255e-09
1.77866e-10
2.50759e-09
1.57439e-10
2.4659e-09
1.40127e-10
2.42744e-09
1.25466e-10
2.39195e-09
1.13158e-10
2.35906e-09
1.02971e-10
2.32838e-09
9.47243e-11
2.29946e-09
8.82796e-11
2.27186e-09
8.3527e-11
2.24516e-09
8.0381e-11
2.2189e-09
7.87732e-11
2.19267e-09
7.8654e-11
2.16603e-09
7.99932e-11
2.13855e-09
8.27816e-11
2.10978e-09
8.70358e-11
2.0793e-09
9.28034e-11
2.04663e-09
1.00171e-10
2.0113e-09
1.09278e-10
1.97281e-09
1.20323e-10
1.93066e-09
1.33591e-10
1.88432e-09
1.49473e-10
1.83331e-09
1.68501e-10
1.77722e-09
1.91406e-10
1.71599e-09
2.19257e-10
1.64873e-09
2.64586e-10
1.58937e-09
2.36425e-10
1.55753e-09
1.19758e-10
1.55762e-09
1.59859e-11
1.58899e-09
-6.89452e-11
1.65017e-09
-1.5354e-10
1.73795e-09
-2.43037e-10
1.84854e-09
-3.50492e-10
1.9683e-09
-3.9512e-10
2.09024e-09
-3.96198e-10
2.20823e-09
-3.84004e-10
2.31838e-09
-3.57516e-10
2.42037e-09
-3.32766e-10
2.51444e-09
-3.11717e-10
2.5992e-09
-2.76469e-10
2.67572e-09
-2.54679e-10
2.74325e-09
-2.25469e-10
2.80146e-09
-1.92289e-10
2.85003e-09
-1.6518e-10
2.88794e-09
-1.2131e-10
2.91511e-09
-9.04274e-11
2.93028e-09
-3.87718e-11
2.93312e-09
3.37115e-12
2.9229e-09
5.3653e-11
2.8985e-09
1.10595e-10
2.86129e-09
1.47353e-10
2.80871e-09
2.1564e-10
2.74385e-09
2.4328e-10
2.66635e-09
2.83305e-10
2.57842e-09
3.0892e-10
2.48205e-09
3.20718e-10
2.37878e-09
3.36254e-10
2.27184e-09
3.28307e-10
2.16193e-09
3.30657e-10
2.05222e-09
3.14603e-10
1.94325e-09
3.05673e-10
1.83625e-09
2.9046e-10
1.73239e-09
2.74239e-10
1.63108e-09
2.64782e-10
1.53342e-09
2.48873e-10
1.43899e-09
2.38227e-10
1.34763e-09
2.28649e-10
1.25963e-09
2.17298e-10
1.17481e-09
2.07843e-10
1.09325e-09
1.98723e-10
1.01523e-09
1.88063e-10
9.41101e-10
1.77041e-10
8.71028e-10
1.65968e-10
8.05379e-10
1.54069e-10
7.44331e-10
1.4217e-10
6.87988e-10
1.30477e-10
6.36407e-10
1.19e-10
5.89324e-10
1.0906e-10
5.46377e-10
1.00465e-10
5.07376e-10
9.22326e-11
4.71648e-10
8.63805e-11
4.38781e-10
8.16818e-11
4.08609e-10
7.68154e-11
3.80753e-10
7.33514e-11
3.55044e-10
7.00049e-11
3.31951e-10
6.50596e-11
3.11141e-10
6.11221e-11
2.93689e-10
5.38714e-11
2.79333e-10
4.73535e-11
2.69412e-10
3.70473e-11
2.63734e-10
2.71496e-11
2.64014e-10
1.27216e-11
2.6986e-10
-9.49484e-13
2.82858e-10
-1.85023e-11
3.03114e-10
-3.63669e-11
3.3112e-10
-5.56031e-11
3.67724e-10
-7.72865e-11
4.12363e-10
-9.74368e-11
4.65907e-10
-1.20387e-10
5.27521e-10
-1.41179e-10
5.97102e-10
-1.62503e-10
6.74011e-10
-1.82511e-10
7.57351e-10
-2.01167e-10
8.46172e-10
-2.17751e-10
9.39442e-10
-2.33009e-10
1.03551e-09
-2.4334e-10
1.13385e-09
-2.54776e-10
1.2324e-09
-2.59081e-10
1.33027e-09
-2.61793e-10
1.42645e-09
-2.62234e-10
1.51955e-09
-2.57393e-10
1.60889e-09
-2.51012e-10
1.694e-09
-2.43107e-10
1.77415e-09
-2.31333e-10
1.8493e-09
-2.18741e-10
1.91953e-09
-2.06678e-10
1.98486e-09
-1.93097e-10
2.0457e-09
-1.8041e-10
2.10249e-09
-1.68602e-10
2.15576e-09
-1.57778e-10
2.20623e-09
-1.49674e-10
2.25448e-09
-1.44263e-10
2.30089e-09
-1.37081e-10
2.34614e-09
-1.35106e-10
2.39119e-09
-1.37907e-10
2.43518e-09
-1.33727e-10
2.47934e-09
-1.37851e-10
2.5229e-09
-1.43694e-10
2.56535e-09
-1.37248e-10
2.60654e-09
-1.43428e-10
2.64548e-09
-1.37262e-10
2.68072e-09
-1.31288e-10
2.71154e-09
-1.19897e-10
2.7355e-09
-9.94926e-11
2.75186e-09
-7.37709e-11
2.75821e-09
-4.22769e-11
2.75365e-09
5.26656e-12
2.73651e-09
4.01629e-11
2.70488e-09
1.07744e-10
2.65889e-09
1.50354e-10
2.59849e-09
2.02802e-10
2.52244e-09
2.55247e-10
2.43373e-09
2.85666e-10
2.33038e-09
3.35143e-10
2.21721e-09
3.47823e-10
2.09301e-09
3.80143e-10
1.96191e-09
3.82868e-10
1.82428e-09
4.04731e-10
1.68305e-09
4.04412e-10
1.54074e-09
4.10651e-10
1.4071e-09
3.9026e-10
1.28082e-09
3.69261e-10
1.18765e-09
2.13443e-10
1.12166e-09
1.4998e-10
1.08328e-09
9.09219e-11
1.07478e-09
2.41618e-11
1.10226e-09
-6.90984e-11
1.16381e-09
-1.62172e-10
1.25719e-09
-2.67415e-10
1.36489e-09
-3.10778e-10
1.47614e-09
-3.21587e-10
1.58601e-09
-3.2302e-10
1.69043e-09
-3.13114e-10
1.78618e-09
-2.9239e-10
1.87089e-09
-2.628e-10
1.94311e-09
-2.27073e-10
2.00223e-09
-1.88103e-10
2.0484e-09
-1.48602e-10
2.08241e-09
-1.10891e-10
2.10557e-09
-7.6784e-11
2.11953e-09
-4.75426e-11
2.12618e-09
-2.3892e-11
2.12748e-09
-6.08502e-12
2.12523e-09
5.99726e-12
2.12115e-09
1.28337e-11
2.1167e-09
1.513e-11
2.11301e-09
1.37533e-11
2.11091e-09
9.6733e-12
2.11087e-09
3.89893e-12
2.11302e-09
-2.56971e-12
2.11718e-09
-8.85212e-12
2.12295e-09
-1.416e-11
2.12975e-09
-1.79263e-11
2.13688e-09
-1.98234e-11
2.14364e-09
-1.97197e-11
2.14936e-09
-1.76773e-11
2.15348e-09
-1.39261e-11
2.15563e-09
-8.8084e-12
2.15562e-09
-2.70317e-12
2.15354e-09
4.03849e-12
2.14975e-09
1.11125e-11
1.90514e-11
2.53705e-09
7.07901e-11
2.6175e-09
1.9198e-10
2.69984e-09
2.64931e-10
2.76363e-09
2.95862e-10
2.80341e-09
2.98639e-10
2.81988e-09
2.8535e-10
2.819e-09
2.65323e-10
2.80723e-09
2.42776e-10
2.78867e-09
2.20698e-10
2.76623e-09
2.00307e-10
2.74198e-09
1.8169e-10
2.7172e-09
1.64917e-10
2.69256e-09
1.50111e-10
2.6684e-09
1.37312e-10
2.64486e-09
1.26511e-10
2.62191e-09
1.17676e-10
2.59942e-09
1.10765e-10
2.57722e-09
1.05732e-10
2.55506e-09
1.02536e-10
2.5327e-09
1.01138e-10
2.50984e-09
1.01513e-10
2.48617e-09
1.03656e-10
2.46138e-09
1.07576e-10
2.4351e-09
1.13313e-10
2.40697e-09
1.20934e-10
2.37659e-09
1.30547e-10
2.34356e-09
1.42306e-10
2.30746e-09
1.56426e-10
2.26786e-09
1.73191e-10
2.22436e-09
1.92972e-10
2.17661e-09
2.16244e-10
2.1244e-09
2.43612e-10
2.06775e-09
2.75905e-10
2.00587e-09
3.26464e-10
1.95076e-09
2.91523e-10
1.91953e-09
1.50986e-10
1.9175e-09
1.79841e-11
1.94565e-09
-9.71291e-11
2.00228e-09
-2.10213e-10
2.08266e-09
-3.23475e-10
2.18157e-09
-4.49438e-10
2.2878e-09
-5.01358e-10
2.39677e-09
-5.0514e-10
2.50201e-09
-4.89204e-10
2.59988e-09
-4.55335e-10
2.69004e-09
-4.22883e-10
2.77275e-09
-3.94394e-10
2.84751e-09
-3.51202e-10
2.91455e-09
-3.21692e-10
2.97324e-09
-2.84131e-10
3.02439e-09
-2.43407e-10
3.06692e-09
-2.07685e-10
3.1009e-09
-1.55281e-10
3.12566e-09
-1.15177e-10
3.14112e-09
-5.42334e-11
3.14649e-09
-2.00378e-12
3.14166e-09
5.84905e-11
3.12568e-09
1.26582e-10
3.09879e-09
1.74261e-10
3.05987e-09
2.54582e-10
3.00953e-09
2.93633e-10
2.94741e-09
3.45426e-10
2.87466e-09
3.81656e-10
2.79194e-09
4.03402e-10
2.70071e-09
4.2744e-10
2.60268e-09
4.2628e-10
2.49932e-09
4.33972e-10
2.39262e-09
4.21251e-10
2.28403e-09
4.14221e-10
2.17475e-09
3.9971e-10
2.06639e-09
3.82569e-10
1.95899e-09
3.72161e-10
1.85396e-09
3.53898e-10
1.75132e-09
3.40867e-10
1.65129e-09
3.28697e-10
1.55438e-09
3.14231e-10
1.46055e-09
3.01706e-10
1.37003e-09
2.89283e-10
1.28315e-09
2.74982e-10
1.20034e-09
2.59882e-10
1.12182e-09
2.44521e-10
1.04805e-09
2.27851e-10
9.79327e-10
2.10885e-10
9.15904e-10
1.9388e-10
8.58061e-10
1.76814e-10
8.05656e-10
1.61432e-10
7.58452e-10
1.47637e-10
7.16565e-10
1.3409e-10
6.79176e-10
1.23743e-10
6.45881e-10
1.14954e-10
6.16602e-10
1.06074e-10
5.90704e-10
9.92318e-11
5.67768e-10
9.29257e-11
5.48505e-10
8.43108e-11
5.31921e-10
7.76963e-11
5.19663e-10
6.6122e-11
5.1072e-10
5.62912e-11
5.07056e-10
4.07066e-11
5.07778e-10
2.64258e-11
5.15442e-10
5.05622e-12
5.28927e-10
-1.44353e-11
5.50414e-10
-3.99889e-11
5.79598e-10
-6.55511e-11
6.17126e-10
-9.31308e-11
6.63997e-10
-1.24158e-10
7.19171e-10
-1.52612e-10
7.83681e-10
-1.849e-10
8.56208e-10
-2.1371e-10
9.36439e-10
-2.4274e-10
1.02346e-09
-2.69544e-10
1.11597e-09
-2.93685e-10
1.21279e-09
-3.14578e-10
1.31257e-09
-3.32801e-10
1.41344e-09
-3.4423e-10
1.51482e-09
-3.56172e-10
1.61454e-09
-3.58827e-10
1.71175e-09
-3.59024e-10
1.80555e-09
-3.5606e-10
1.89476e-09
-3.46634e-10
1.97895e-09
-3.35241e-10
2.05794e-09
-3.22121e-10
2.13129e-09
-3.04715e-10
2.19932e-09
-2.86783e-10
2.26231e-09
-2.69679e-10
2.32057e-09
-2.51365e-10
2.37468e-09
-2.34518e-10
2.42517e-09
-2.19097e-10
2.47269e-09
-2.05297e-10
2.51789e-09
-1.94875e-10
2.56125e-09
-1.87638e-10
2.60324e-09
-1.79071e-10
2.64415e-09
-1.76017e-10
2.68492e-09
-1.78644e-10
2.72461e-09
-1.73341e-10
2.76402e-09
-1.77132e-10
2.80215e-09
-1.8167e-10
2.8392e-09
-1.741e-10
2.87409e-09
-1.78101e-10
2.90661e-09
-1.69583e-10
2.93513e-09
-1.59621e-10
2.9594e-09
-1.44042e-10
2.9774e-09
-1.17413e-10
2.98892e-09
-8.52826e-11
2.99183e-09
-4.52204e-11
2.98606e-09
1.09668e-11
2.96944e-09
5.66962e-11
2.94176e-09
1.35354e-10
2.90138e-09
1.90679e-10
2.84868e-09
2.55485e-10
2.78172e-09
3.22202e-10
2.70215e-09
3.65252e-10
2.60815e-09
4.29156e-10
2.50255e-09
4.53422e-10
2.38426e-09
4.98399e-10
2.25644e-09
5.1064e-10
2.12027e-09
5.40852e-10
1.97778e-09
5.46846e-10
1.83359e-09
5.5479e-10
1.6999e-09
5.23941e-10
1.57443e-09
4.94749e-10
1.48277e-09
3.05127e-10
1.42171e-09
2.11074e-10
1.39317e-09
1.19483e-10
1.39904e-09
1.83008e-11
1.44454e-09
-1.14592e-10
1.5243e-09
-2.41937e-10
1.63339e-09
-3.7653e-10
1.75181e-09
-4.29228e-10
1.86885e-09
-4.38665e-10
1.98038e-09
-4.34593e-10
2.08316e-09
-4.1594e-10
2.17491e-09
-3.84168e-10
2.25416e-09
-3.42074e-10
2.32025e-09
-2.93169e-10
2.3732e-09
-2.41053e-10
2.41364e-09
-1.89035e-10
2.44268e-09
-1.39928e-10
2.46183e-09
-9.59155e-11
2.47279e-09
-5.84969e-11
2.47743e-09
-2.8514e-11
2.47758e-09
-6.22414e-12
2.47499e-09
8.60607e-12
2.47121e-09
1.66235e-11
2.46756e-09
1.87882e-11
2.46505e-09
1.62654e-11
2.46438e-09
1.03476e-11
2.46591e-09
2.37203e-12
2.46971e-09
-6.36218e-12
2.47554e-09
-1.46816e-11
2.48296e-09
-2.15835e-11
2.49137e-09
-2.63434e-11
2.50008e-09
-2.85375e-11
2.50837e-09
-2.80132e-11
2.51557e-09
-2.48814e-11
2.52113e-09
-1.94886e-11
2.52468e-09
-1.23538e-11
2.52606e-09
-4.0876e-12
2.5254e-09
4.69231e-12
2.52312e-09
1.33929e-11
2.27081e-11
2.52316e-09
4.75702e-11
2.58131e-09
1.33753e-10
2.65288e-09
1.93292e-10
2.72231e-09
2.26418e-10
2.78102e-09
2.39948e-10
2.82596e-09
2.40447e-10
2.85803e-09
2.3324e-10
2.87885e-09
2.21968e-10
2.89076e-09
2.08802e-10
2.89623e-09
1.94813e-10
2.89701e-09
1.80902e-10
2.89426e-09
1.6767e-10
2.88887e-09
1.55508e-10
2.8815e-09
1.44683e-10
2.8726e-09
1.35414e-10
2.86244e-09
1.2783e-10
2.8512e-09
1.22011e-10
2.83892e-09
1.18001e-10
2.82562e-09
1.15835e-10
2.81125e-09
1.15512e-10
2.79569e-09
1.17071e-10
2.7788e-09
1.20544e-10
2.7604e-09
1.25977e-10
2.74026e-09
1.33452e-10
2.71812e-09
1.43073e-10
2.69369e-09
1.54974e-10
2.66666e-09
1.69337e-10
2.63669e-09
1.86394e-10
2.60344e-09
2.06433e-10
2.56661e-09
2.29801e-10
2.52594e-09
2.56919e-10
2.48126e-09
2.88286e-10
2.43259e-09
3.24574e-10
2.3792e-09
3.79845e-10
2.33028e-09
3.40442e-10
2.29916e-09
1.82105e-10
2.29184e-09
2.52802e-11
2.31091e-09
-1.16232e-10
2.35496e-09
-2.54306e-10
2.4189e-09
-3.87485e-10
2.49754e-09
-5.28139e-10
2.58261e-09
-5.86468e-10
2.67158e-09
-5.94116e-10
2.75762e-09
-5.75225e-10
2.83721e-09
-5.34901e-10
2.91007e-09
-4.95709e-10
2.97654e-09
-4.60833e-10
3.03642e-09
-4.11047e-10
3.09e-09
-3.75249e-10
3.13664e-09
-3.30745e-10
3.17738e-09
-2.84116e-10
3.21127e-09
-2.41558e-10
3.23907e-09
-1.83063e-10
3.2598e-09
-1.35893e-10
3.27422e-09
-6.86538e-11
3.28131e-09
-9.10019e-12
3.28143e-09
5.83788e-11
3.27383e-09
1.34194e-10
3.25811e-09
1.90006e-10
3.23409e-09
2.78633e-10
3.20079e-09
3.26957e-10
3.15777e-09
3.88447e-10
3.10536e-09
4.34061e-10
3.04305e-09
4.65681e-10
2.97196e-09
4.98479e-10
2.89245e-09
5.0574e-10
2.80605e-09
5.20327e-10
2.71371e-09
5.13546e-10
2.61716e-09
5.10743e-10
2.51741e-09
4.9945e-10
2.41626e-09
4.83709e-10
2.31412e-09
4.74301e-10
2.21267e-09
4.55365e-10
2.11232e-09
4.41236e-10
2.01362e-09
4.27419e-10
1.91737e-09
4.10509e-10
1.82367e-09
3.9544e-10
1.73291e-09
3.80081e-10
1.64544e-09
3.62479e-10
1.56177e-09
3.43569e-10
1.48207e-09
3.24235e-10
1.40684e-09
3.03071e-10
1.33641e-09
2.81292e-10
1.27109e-09
2.59159e-10
1.21134e-09
2.36519e-10
1.15715e-09
2.15579e-10
1.10842e-09
1.96319e-10
1.06564e-09
1.76832e-10
1.02796e-09
1.61388e-10
9.95143e-10
1.47744e-10
9.67182e-10
1.34009e-10
9.43379e-10
1.23012e-10
9.2307e-10
1.13215e-10
9.07191e-10
1.00173e-10
8.94206e-10
9.06688e-11
8.8618e-10
7.41373e-11
8.81569e-10
6.08947e-11
8.82812e-10
3.94572e-11
8.88532e-10
2.07017e-11
9.01943e-10
-8.35723e-12
9.21395e-10
-3.38897e-11
9.49544e-10
-6.81397e-11
9.8573e-10
-1.01739e-10
1.03066e-09
-1.38061e-10
1.08517e-09
-1.78672e-10
1.14792e-09
-2.1536e-10
1.21969e-09
-2.56679e-10
1.29883e-09
-2.92858e-10
1.38459e-09
-3.28508e-10
1.47585e-09
-3.60804e-10
1.57082e-09
-3.88671e-10
1.66823e-09
-4.11998e-10
1.76642e-09
-4.31018e-10
1.86357e-09
-4.41392e-10
1.95899e-09
-4.51617e-10
2.0507e-09
-4.5057e-10
2.13799e-09
-4.46346e-10
2.22023e-09
-4.38329e-10
2.29658e-09
-4.23026e-10
2.36696e-09
-4.05663e-10
2.43155e-09
-3.86752e-10
2.49032e-09
-3.63533e-10
2.54393e-09
-3.40433e-10
2.5929e-09
-3.18678e-10
2.63778e-09
-2.96272e-10
2.67929e-09
-2.76044e-10
2.71805e-09
-2.57868e-10
2.75474e-09
-2.41991e-10
2.78993e-09
-2.30084e-10
2.824e-09
-2.21723e-10
2.85726e-09
-2.12361e-10
2.88998e-09
-2.0875e-10
2.92289e-09
-2.11566e-10
2.9547e-09
-2.05121e-10
2.9862e-09
-2.08569e-10
3.01621e-09
-2.11569e-10
3.04535e-09
-2.03093e-10
3.07202e-09
-2.04589e-10
3.09661e-09
-1.93982e-10
3.11748e-09
-1.80303e-10
3.13485e-09
-1.61253e-10
3.14709e-09
-1.29542e-10
3.15449e-09
-9.26352e-11
3.15521e-09
-4.59416e-11
3.14996e-09
1.61778e-11
3.13626e-09
7.03395e-11
3.1151e-09
1.56446e-10
3.08389e-09
2.2184e-10
3.04321e-09
2.96141e-10
2.99067e-09
3.74742e-10
2.92693e-09
4.29006e-10
2.85012e-09
5.05981e-10
2.76147e-09
5.42075e-10
2.65962e-09
6.00229e-10
2.54681e-09
6.23413e-10
2.42339e-09
6.64216e-10
2.29182e-09
6.78368e-10
2.15746e-09
6.89118e-10
2.03533e-09
6.4606e-10
1.92271e-09
6.07398e-10
1.84519e-09
3.82674e-10
1.80033e-09
2.55963e-10
1.79033e-09
1.29508e-10
1.81603e-09
-7.37996e-12
1.88092e-09
-1.7947e-10
1.97599e-09
-3.37005e-10
2.09395e-09
-4.94515e-10
2.21466e-09
-5.49979e-10
2.3288e-09
-5.52851e-10
2.4335e-09
-5.39348e-10
2.52668e-09
-5.09167e-10
2.60714e-09
-4.64669e-10
2.67442e-09
-4.09388e-10
2.72869e-09
-3.47455e-10
2.77062e-09
-2.82983e-10
2.80128e-09
-2.19694e-10
2.82208e-09
-1.60718e-10
2.83463e-09
-1.08451e-10
2.84064e-09
-6.44893e-11
2.84182e-09
-2.96746e-11
2.8398e-09
-4.1924e-12
2.83608e-09
1.2342e-11
2.83197e-09
2.07558e-11
2.82852e-09
2.2251e-11
2.82653e-09
1.82627e-11
2.82652e-09
1.03642e-11
2.82872e-09
1.69699e-13
2.83313e-09
-1.07658e-11
2.83949e-09
-2.10382e-11
2.84737e-09
-2.94687e-11
2.85623e-09
-3.52026e-11
2.86542e-09
-3.77349e-11
2.8743e-09
-3.68967e-11
2.88225e-09
-3.28433e-11
2.88878e-09
-2.6023e-11
2.89354e-09
-1.7112e-11
2.89638e-09
-6.92684e-12
2.89739e-09
3.67519e-12
2.89694e-09
1.38454e-11
2.45442e-11
2.51583e-09
3.16977e-11
2.55897e-09
9.05592e-11
2.61794e-09